{
	 "smiles": "OC(=O)C1=CC=C(S1)C1=CC=C(OC(F)F)C=C1", 
	 "Tm": 483.15, 
	 "num_atms": 26, 
	 "gaussian": { 
		 "optdone": 1, 
		 "sigma_profile": "yes", 
		 "theory": "DFT", 
		 "functional": "B3LYP", 
		 "basiset": "6-31G**", 
		 "properties": { 
			 "R2extent": 8701.6493, 
			 "electric_dipole_moment_norm": 3.59029642927, 
			 "electric_quadrupole_moment_norm": 42.3565463194, 
			 "total_energy": -1285.62906716, 
			 "HOMO_LUMO_gap": 0.15643, 
			 "cosmo_polarized_energy": -16.69, 
			 "cosmo_cavitation_energy": 34.12, 
			 "cosmo_dispersion_energy": -25.2, 
			 "cosmo_repulsion_energy": 1.84, 
			 "cosmo_total_nonelectrostatic_energy": 10.76, 
			 "SMD_solvation_energy": 7.9 
		},
		"coords": [
			{
				"x": 1.6782727665,
				"y": 4.7420910986,
				"z": 0.5361536065,
				"element": "O" 
			},
			{
				"x": 0.7395174889,
				"y": 4.7918358037,
				"z": -0.4478108959,
				"element": "C" 
			},
			{
				"x": 0.5014595628,
				"y": 5.837775316,
				"z": -1.006080609,
				"element": "O" 
			},
			{
				"x": 0.0444371983,
				"y": 3.5325954193,
				"z": -0.7954333395,
				"element": "C" 
			},
			{
				"x": -1.0459858421,
				"y": 3.4498703451,
				"z": -1.6291208836,
				"element": "C" 
			},
			{
				"x": -1.5334450471,
				"y": 2.1303624613,
				"z": -1.7881093401,
				"element": "C" 
			},
			{
				"x": -0.8188641371,
				"y": 1.1827555404,
				"z": -1.0817830099,
				"element": "C" 
			},
			{
				"x": 0.4988468025,
				"y": 1.9443136538,
				"z": -0.2181305244,
				"element": "S" 
			},
			{
				"x": -1.0330566161,
				"y": -0.2668092065,
				"z": -1.0227879729,
				"element": "C" 
			},
			{
				"x": -0.6531629109,
				"y": -1.0259626491,
				"z": 0.0957528225,
				"element": "C" 
			},
			{
				"x": -0.8697826605,
				"y": -2.4014739099,
				"z": 0.151122608,
				"element": "C" 
			},
			{
				"x": -1.4706773878,
				"y": -3.0406972495,
				"z": -0.9362787844,
				"element": "C" 
			},
			{
				"x": -1.7371314135,
				"y": -4.3969229681,
				"z": -0.9765103863,
				"element": "O" 
			},
			{
				"x": -0.9324472687,
				"y": -5.2426509347,
				"z": -0.2493397052,
				"element": "C" 
			},
			{
				"x": -1.1510240153,
				"y": -6.4809034342,
				"z": -0.7192913825,
				"element": "F" 
			},
			{
				"x": -1.2860424069,
				"y": -5.2324599685,
				"z": 1.0686011264,
				"element": "F" 
			},
			{
				"x": -1.8649036982,
				"y": -2.3077233748,
				"z": -2.05918176,
				"element": "C" 
			},
			{
				"x": -1.6455837759,
				"y": -0.9377783201,
				"z": -2.0999027486,
				"element": "C" 
			},
			{
				"x": 1.6809784878,
				"y": 3.8835943746,
				"z": 0.9832934173,
				"element": "H" 
			},
			{
				"x": -1.4751993759,
				"y": 4.3315905626,
				"z": -2.0891774429,
				"element": "H" 
			},
			{
				"x": -2.4059602963,
				"y": 1.8812465171,
				"z": -2.3806679797,
				"element": "H" 
			},
			{
				"x": -0.2097040893,
				"y": -0.5328401897,
				"z": 0.9557009268,
				"element": "H" 
			},
			{
				"x": -0.6113330316,
				"y": -2.9569039881,
				"z": 1.0442626491,
				"element": "H" 
			},
			{
				"x": 0.1310823375,
				"y": -4.9853434572,
				"z": -0.3235164721,
				"element": "H" 
			},
			{
				"x": -2.3236031268,
				"y": -2.8293378445,
				"z": -2.8921884557,
				"element": "H" 
			},
			{
				"x": -1.9255875442,
				"y": -0.3823235974,
				"z": -2.9889754638,
				"element": "H" 
			}
		],
		 "valence_orbital": [ 
			{
				"type": "occ",
				"energy": -0.28708,
				"method": "rhf"
			},
			{
				"type": "occ",
				"energy": -0.28137,
				"method": "rhf"
			},
			{
				"type": "occ",
				"energy": -0.27713,
				"method": "rhf"
			},
			{
				"type": "occ",
				"energy": -0.2762,
				"method": "rhf"
			},
			{
				"type": "occ",
				"energy": -0.23249,
				"method": "rhf"
			},
			{
				"type": "unocc",
				"energy": -0.07606,
				"method": "rhf"
			},
			{
				"type": "unocc",
				"energy": -0.03319,
				"method": "rhf"
			},
			{
				"type": "unocc",
				"energy": -0.02013,
				"method": "rhf"
			},
			{
				"type": "unocc",
				"energy": -0.00475,
				"method": "rhf"
			},
			{
				"type": "unocc",
				"energy": 0.03346,
				"method": "rhf"
			}
		],
		"cosmo_sigma_profile": { 
			"-0.025": 0.0,
			"-0.024": 0.0,
			"-0.023": 0.0,
			"-0.022": 0.0,
			"-0.021": 0.0,
			"-0.02": 0.0,
			"-0.019": 0.0,
			"-0.018": 0.662402248827,
			"-0.017": 0.530622842921,
			"-0.016": 0.780544098858,
			"-0.015": 1.1764149167,
			"-0.014": 0.755144597551,
			"-0.013": 1.05901112227,
			"-0.012": 0.932142164558,
			"-0.011": 1.65805191881,
			"-0.01": 3.7768627807,
			"-0.009": 3.26526524823,
			"-0.008": 6.01975695058,
			"-0.007": 12.3823489506,
			"-0.006": 14.1249475632,
			"-0.005": 14.3014546394,
			"-0.004": 11.4298214729,
			"-0.003": 11.6958538854,
			"-0.002": 13.1660793716,
			"-0.001": 14.1709755234,
			"0.0": 17.5506681095,
			"0.001": 27.3293334769,
			"0.002": 31.6942387722,
			"0.003": 37.699783437,
			"0.004": 15.4625512216,
			"0.005": 4.17823198538,
			"0.006": 4.28237544386,
			"0.007": 3.6926490083,
			"0.008": 3.01224263306,
			"0.009": 3.49311363763,
			"0.01": 4.5707405071,
			"0.011": 5.12150497573,
			"0.012": 5.19440503337,
			"0.013": 1.508391245,
			"0.014": 0.0344062945467,
			"0.015": 0.0,
			"0.016": 0.0,
			"0.017": 0.0,
			"0.018": 0.0,
			"0.019": 0.0,
			"0.02": 0.0,
			"0.021": 0.0,
			"0.022": 0.0,
			"0.023": 0.0,
			"0.024": 0.0,
			"0.025": 0.0
		}
	}
}
