{
	 "smiles": "NS(=O)(=O)C1=CC2=C(NC(CC3=CC=CC=C3)NS2(=O)=O)C=C1C(F)(F)F", 
	 "Tm": 495.15, 
	 "num_atms": 41, 
	 "gaussian": { 
		 "optdone": 1, 
		 "sigma_profile": "yes", 
		 "theory": "DFT", 
		 "functional": "B3LYP", 
		 "basiset": "6-31G**", 
		 "properties": { 
			 "R2extent": 14102.3365, 
			 "electric_dipole_moment_norm": 9.05896095642, 
			 "electric_quadrupole_moment_norm": 18.1571667192, 
			 "total_energy": -2140.94112735, 
			 "HOMO_LUMO_gap": 0.17715, 
			 "cosmo_polarized_energy": -32.75, 
			 "cosmo_cavitation_energy": 47.87, 
			 "cosmo_dispersion_energy": -34.19, 
			 "cosmo_repulsion_energy": 2.43, 
			 "cosmo_total_nonelectrostatic_energy": 16.11, 
			 "SMD_solvation_energy": 6.03 
		},
		"coords": [
			{
				"x": -2.578520147,
				"y": 2.7524414493,
				"z": -4.9037672993,
				"element": "N" 
			},
			{
				"x": -0.9786300572,
				"y": 3.0068351041,
				"z": -4.438325103,
				"element": "S" 
			},
			{
				"x": -0.1582451276,
				"y": 2.1983187878,
				"z": -5.3446586299,
				"element": "O" 
			},
			{
				"x": -0.7343978052,
				"y": 4.4394484933,
				"z": -4.274726327,
				"element": "O" 
			},
			{
				"x": -0.871859759,
				"y": 2.2087529121,
				"z": -2.818870755,
				"element": "C" 
			},
			{
				"x": 0.2302918235,
				"y": 1.3709959725,
				"z": -2.6647349382,
				"element": "C" 
			},
			{
				"x": 0.5025711327,
				"y": 0.7562500401,
				"z": -1.4469071985,
				"element": "C" 
			},
			{
				"x": -0.341525412,
				"y": 0.9427511697,
				"z": -0.3296625144,
				"element": "C" 
			},
			{
				"x": -0.1433638835,
				"y": 0.3026372197,
				"z": 0.8668833074,
				"element": "N" 
			},
			{
				"x": 1.0621861344,
				"y": -0.4699583887,
				"z": 1.184307429,
				"element": "C" 
			},
			{
				"x": 0.8248637709,
				"y": -1.382804864,
				"z": 2.4049568808,
				"element": "C" 
			},
			{
				"x": -0.2002860768,
				"y": -2.4779743081,
				"z": 2.1975864846,
				"element": "C" 
			},
			{
				"x": 0.1717996024,
				"y": -3.7013686867,
				"z": 1.6188440186,
				"element": "C" 
			},
			{
				"x": -0.7742450766,
				"y": -4.7044592055,
				"z": 1.3990797927,
				"element": "C" 
			},
			{
				"x": -2.1067528193,
				"y": -4.5031785478,
				"z": 1.7621200826,
				"element": "C" 
			},
			{
				"x": -2.4870669941,
				"y": -3.2958695655,
				"z": 2.3511428899,
				"element": "C" 
			},
			{
				"x": -1.5402441457,
				"y": -2.2940585373,
				"z": 2.5660856092,
				"element": "C" 
			},
			{
				"x": 1.4898569815,
				"y": -1.2468882469,
				"z": 0.0259404346,
				"element": "N" 
			},
			{
				"x": 1.9496560441,
				"y": -0.2811589198,
				"z": -1.2880004758,
				"element": "S" 
			},
			{
				"x": 3.0739713015,
				"y": 0.5351719569,
				"z": -0.8353755202,
				"element": "O" 
			},
			{
				"x": 2.0508887465,
				"y": -1.1543246534,
				"z": -2.4533078099,
				"element": "O" 
			},
			{
				"x": -1.4603589765,
				"y": 1.7835389193,
				"z": -0.5071720568,
				"element": "C" 
			},
			{
				"x": -1.7264889577,
				"y": 2.41871144,
				"z": -1.7123644704,
				"element": "C" 
			},
			{
				"x": -3.0174875535,
				"y": 3.216246219,
				"z": -1.7627989021,
				"element": "C" 
			},
			{
				"x": -4.0375015283,
				"y": 2.4565028739,
				"z": -2.2097638393,
				"element": "F" 
			},
			{
				"x": -3.3659470168,
				"y": 3.6568506264,
				"z": -0.5328498132,
				"element": "F" 
			},
			{
				"x": -2.9412258278,
				"y": 4.3011385641,
				"z": -2.5579778178,
				"element": "F" 
			},
			{
				"x": -3.1024663187,
				"y": 3.6220808504,
				"z": -4.8889725873,
				"element": "H" 
			},
			{
				"x": -2.5846177302,
				"y": 2.3067788828,
				"z": -5.8168491225,
				"element": "H" 
			},
			{
				"x": 0.8754516843,
				"y": 1.185961065,
				"z": -3.5168159625,
				"element": "H" 
			},
			{
				"x": -0.7491697407,
				"y": 0.5606798613,
				"z": 1.6310717234,
				"element": "H" 
			},
			{
				"x": 1.8962397697,
				"y": 0.2040163644,
				"z": 1.4166333436,
				"element": "H" 
			},
			{
				"x": 1.7975110041,
				"y": -1.8127005699,
				"z": 2.6610844598,
				"element": "H" 
			},
			{
				"x": 0.5312383881,
				"y": -0.7417565937,
				"z": 3.245321501,
				"element": "H" 
			},
			{
				"x": 1.2109149897,
				"y": -3.8709430228,
				"z": 1.3487863171,
				"element": "H" 
			},
			{
				"x": -0.4669492658,
				"y": -5.6450673044,
				"z": 0.9515082216,
				"element": "H" 
			},
			{
				"x": -2.8421515236,
				"y": -5.2846393547,
				"z": 1.5958444527,
				"element": "H" 
			},
			{
				"x": -3.5194650268,
				"y": -3.1356731845,
				"z": 2.6481001458,
				"element": "H" 
			},
			{
				"x": -1.8448892883,
				"y": -1.3648083676,
				"z": 3.0426827964,
				"element": "H" 
			},
			{
				"x": 0.7983727149,
				"y": -1.9346959463,
				"z": -0.2735176861,
				"element": "H" 
			},
			{
				"x": -2.1344580297,
				"y": 1.9404194954,
				"z": 0.3274389388,
				"element": "H" 
			}
		],
		 "valence_orbital": [ 
			{
				"type": "occ",
				"energy": -0.29653,
				"method": "rhf"
			},
			{
				"type": "occ",
				"energy": -0.28867,
				"method": "rhf"
			},
			{
				"type": "occ",
				"energy": -0.2722,
				"method": "rhf"
			},
			{
				"type": "occ",
				"energy": -0.26714,
				"method": "rhf"
			},
			{
				"type": "occ",
				"energy": -0.24201,
				"method": "rhf"
			},
			{
				"type": "unocc",
				"energy": -0.06486,
				"method": "rhf"
			},
			{
				"type": "unocc",
				"energy": -0.04082,
				"method": "rhf"
			},
			{
				"type": "unocc",
				"energy": -0.0265,
				"method": "rhf"
			},
			{
				"type": "unocc",
				"energy": -0.02543,
				"method": "rhf"
			},
			{
				"type": "unocc",
				"energy": 0.03448,
				"method": "rhf"
			}
		],
		"cosmo_sigma_profile": { 
			"-0.025": 0.0,
			"-0.024": 0.0,
			"-0.023": 0.0,
			"-0.022": 0.0,
			"-0.021": 0.0,
			"-0.02": 0.0,
			"-0.019": 0.0,
			"-0.018": 0.0,
			"-0.017": 0.0,
			"-0.016": 0.34756529899,
			"-0.015": 3.32389271705,
			"-0.014": 3.97343249317,
			"-0.013": 5.22410059582,
			"-0.012": 5.96449025115,
			"-0.011": 4.04781753058,
			"-0.01": 4.08156836038,
			"-0.009": 4.30012524978,
			"-0.008": 6.4653035899,
			"-0.007": 10.7589717589,
			"-0.006": 16.7277824198,
			"-0.005": 21.3594460091,
			"-0.004": 23.629657627,
			"-0.003": 21.1223916337,
			"-0.002": 21.3736936349,
			"-0.001": 27.4831086454,
			"0.0": 25.1835170749,
			"0.001": 21.0726431789,
			"0.002": 30.1550788446,
			"0.003": 22.3381474547,
			"0.004": 14.6827168959,
			"0.005": 15.4546630118,
			"0.006": 10.3784075207,
			"0.007": 9.44214142242,
			"0.008": 7.13580058535,
			"0.009": 11.2607710161,
			"0.01": 20.5215114372,
			"0.011": 13.4798267999,
			"0.012": 0.760287929915,
			"0.013": 0.0,
			"0.014": 0.0,
			"0.015": 0.0,
			"0.016": 0.0,
			"0.017": 0.0,
			"0.018": 0.0,
			"0.019": 0.0,
			"0.02": 0.0,
			"0.021": 0.0,
			"0.022": 0.0,
			"0.023": 0.0,
			"0.024": 0.0,
			"0.025": 0.0
		}
	}
}
