{
	 "smiles": "NC1=C(Cl)C(Cl)=NC(Cl)=C1Cl", 
	 "Tm": 487.15, 
	 "num_atms": 13, 
	 "gaussian": { 
		 "optdone": 1, 
		 "sigma_profile": "yes", 
		 "theory": "DFT", 
		 "functional": "B3LYP", 
		 "basiset": "6-31G**", 
		 "properties": { 
			 "R2extent": 3314.7255, 
			 "electric_dipole_moment_norm": 4.52457800574, 
			 "electric_quadrupole_moment_norm": 10.0691959217, 
			 "total_energy": -2142.00542528, 
			 "HOMO_LUMO_gap": 0.20858, 
			 "cosmo_polarized_energy": -9.23, 
			 "cosmo_cavitation_energy": 24.47, 
			 "cosmo_dispersion_energy": -19.19, 
			 "cosmo_repulsion_energy": 1.55, 
			 "cosmo_total_nonelectrostatic_energy": 6.83, 
			 "SMD_solvation_energy": 1.79 
		},
		"coords": [
			{
				"x": 0.4299518798,
				"y": 2.7726608581,
				"z": -1.5006049602,
				"element": "N" 
			},
			{
				"x": 0.164106357,
				"y": 1.5110694785,
				"z": -1.0854242582,
				"element": "C" 
			},
			{
				"x": 1.1385585029,
				"y": 0.7254876529,
				"z": -0.4215698815,
				"element": "C" 
			},
			{
				"x": 2.7057802496,
				"y": 1.4279114409,
				"z": -0.1098724344,
				"element": "Cl" 
			},
			{
				"x": 0.8106674853,
				"y": -0.5751121214,
				"z": -0.0419834515,
				"element": "C" 
			},
			{
				"x": 1.9818158995,
				"y": -1.5789594835,
				"z": 0.7779477697,
				"element": "Cl" 
			},
			{
				"x": -0.3717539598,
				"y": -1.1239883191,
				"z": -0.2668511331,
				"element": "N" 
			},
			{
				"x": -1.2979610882,
				"y": -0.4072436054,
				"z": -0.881967515,
				"element": "C" 
			},
			{
				"x": -2.83520688,
				"y": -1.195480293,
				"z": -1.141094316,
				"element": "Cl" 
			},
			{
				"x": -1.0955967287,
				"y": 0.9033194039,
				"z": -1.3116662071,
				"element": "C" 
			},
			{
				"x": -2.3359179917,
				"y": 1.8291609174,
				"z": -2.1185891822,
				"element": "Cl" 
			},
			{
				"x": 1.2922293675,
				"y": 3.2136160493,
				"z": -1.2253606838,
				"element": "H" 
			},
			{
				"x": -0.3159730933,
				"y": 3.3416580215,
				"z": -1.8660637469,
				"element": "H" 
			}
		],
		 "valence_orbital": [ 
			{
				"type": "occ",
				"energy": -0.31975,
				"method": "rhf"
			},
			{
				"type": "occ",
				"energy": -0.31881,
				"method": "rhf"
			},
			{
				"type": "occ",
				"energy": -0.29655,
				"method": "rhf"
			},
			{
				"type": "occ",
				"energy": -0.25957,
				"method": "rhf"
			},
			{
				"type": "occ",
				"energy": -0.25399,
				"method": "rhf"
			},
			{
				"type": "unocc",
				"energy": -0.04541,
				"method": "rhf"
			},
			{
				"type": "unocc",
				"energy": -0.03639,
				"method": "rhf"
			},
			{
				"type": "unocc",
				"energy": -0.01858,
				"method": "rhf"
			},
			{
				"type": "unocc",
				"energy": 0.00905,
				"method": "rhf"
			},
			{
				"type": "unocc",
				"energy": 0.03095,
				"method": "rhf"
			}
		],
		"cosmo_sigma_profile": { 
			"-0.025": 0.0,
			"-0.024": 0.0,
			"-0.023": 0.0,
			"-0.022": 0.0,
			"-0.021": 0.0,
			"-0.02": 0.0,
			"-0.019": 0.0,
			"-0.018": 0.0,
			"-0.017": 0.0,
			"-0.016": 0.0,
			"-0.015": 0.598263689478,
			"-0.014": 1.47871940246,
			"-0.013": 1.95815135516,
			"-0.012": 2.43633597967,
			"-0.011": 1.89443966876,
			"-0.01": 1.17014559771,
			"-0.009": 2.4037707753,
			"-0.008": 1.72420486894,
			"-0.007": 2.2321631768,
			"-0.006": 2.23805915075,
			"-0.005": 2.07089830781,
			"-0.004": 7.31668052179,
			"-0.003": 12.7264571879,
			"-0.002": 26.3408137641,
			"-0.001": 20.8723254408,
			"0.0": 18.2133511007,
			"0.001": 16.167420568,
			"0.002": 19.9819941733,
			"0.003": 29.5522237292,
			"0.004": 20.3491864922,
			"0.005": 4.58507004388,
			"0.006": 2.83302289306,
			"0.007": 1.80877766662,
			"0.008": 1.15992471618,
			"0.009": 1.45290959519,
			"0.01": 1.28674190094,
			"0.011": 0.814767349551,
			"0.012": 0.637927519971,
			"0.013": 0.00565307866531,
			"0.014": 0.0,
			"0.015": 0.0,
			"0.016": 0.0,
			"0.017": 0.0,
			"0.018": 0.0,
			"0.019": 0.0,
			"0.02": 0.0,
			"0.021": 0.0,
			"0.022": 0.0,
			"0.023": 0.0,
			"0.024": 0.0,
			"0.025": 0.0
		}
	}
}
