{
	 "smiles": "COC1=C(OC(F)F)C=CC(=C1)C1=NOC(CCl)=N1", 
	 "Tm": 321.15, 
	 "num_atms": 28, 
	 "gaussian": { 
		 "optdone": 1, 
		 "sigma_profile": "yes", 
		 "theory": "DFT", 
		 "functional": "B3LYP", 
		 "basiset": "6-31G**", 
		 "properties": { 
			 "R2extent": 9235.6238, 
			 "electric_dipole_moment_norm": 4.34095510919, 
			 "electric_quadrupole_moment_norm": 14.6200464828, 
			 "total_energy": -1419.58094516, 
			 "HOMO_LUMO_gap": 0.1691, 
			 "cosmo_polarized_energy": -12.78, 
			 "cosmo_cavitation_energy": 36.78, 
			 "cosmo_dispersion_energy": -26.15, 
			 "cosmo_repulsion_energy": 2.01, 
			 "cosmo_total_nonelectrostatic_energy": 12.63, 
			 "SMD_solvation_energy": 6.43 
		},
		"coords": [
			{
				"x": -2.2666577435,
				"y": 0.928870902,
				"z": -0.3125902744,
				"element": "C" 
			},
			{
				"x": -1.6675071627,
				"y": 1.0017966587,
				"z": 0.9762313659,
				"element": "O" 
			},
			{
				"x": -0.4557263648,
				"y": 0.4053494684,
				"z": 1.1569752312,
				"element": "C" 
			},
			{
				"x": 0.1238629119,
				"y": 0.551888019,
				"z": 2.4347095789,
				"element": "C" 
			},
			{
				"x": -0.4870614243,
				"y": 1.3364000147,
				"z": 3.4004421018,
				"element": "O" 
			},
			{
				"x": -1.6447431334,
				"y": 0.8369214197,
				"z": 3.9626458558,
				"element": "C" 
			},
			{
				"x": -2.1477761193,
				"y": 1.8221091102,
				"z": 4.7271105243,
				"element": "F" 
			},
			{
				"x": -1.350820752,
				"y": -0.2171136086,
				"z": 4.7746660403,
				"element": "F" 
			},
			{
				"x": 1.3601162758,
				"y": -0.0158145605,
				"z": 2.7185492793,
				"element": "C" 
			},
			{
				"x": 2.0465836206,
				"y": -0.7381411715,
				"z": 1.7452194017,
				"element": "C" 
			},
			{
				"x": 1.4771407732,
				"y": -0.8947576629,
				"z": 0.476508564,
				"element": "C" 
			},
			{
				"x": 0.2274859152,
				"y": -0.3247516061,
				"z": 0.1844991158,
				"element": "C" 
			},
			{
				"x": 2.1713608308,
				"y": -1.6516606883,
				"z": -0.5722365869,
				"element": "C" 
			},
			{
				"x": 3.355760388,
				"y": -2.2007645038,
				"z": -0.3980469642,
				"element": "N" 
			},
			{
				"x": 3.6211112915,
				"y": -2.8086142901,
				"z": -1.630494919,
				"element": "O" 
			},
			{
				"x": 2.5632686464,
				"y": -2.5545031015,
				"z": -2.4166811842,
				"element": "C" 
			},
			{
				"x": 2.569845245,
				"y": -3.0830100255,
				"z": -3.8058553922,
				"element": "C" 
			},
			{
				"x": 3.5401317402,
				"y": -2.0263191176,
				"z": -4.9197422575,
				"element": "Cl" 
			},
			{
				"x": 1.6385076882,
				"y": -1.8541242863,
				"z": -1.8333116824,
				"element": "N" 
			},
			{
				"x": -1.6259349255,
				"y": 1.3855651795,
				"z": -1.0761219045,
				"element": "H" 
			},
			{
				"x": -3.1990921018,
				"y": 1.4895712935,
				"z": -0.2395420349,
				"element": "H" 
			},
			{
				"x": -2.4859563575,
				"y": -0.1076810691,
				"z": -0.5964695388,
				"element": "H" 
			},
			{
				"x": -2.3832456269,
				"y": 0.5156515551,
				"z": 3.2234778539,
				"element": "H" 
			},
			{
				"x": 1.7710884401,
				"y": 0.1257164736,
				"z": 3.7120375375,
				"element": "H" 
			},
			{
				"x": 3.011579539,
				"y": -1.1804139464,
				"z": 1.9643980061,
				"element": "H" 
			},
			{
				"x": -0.1838427033,
				"y": -0.4591943513,
				"z": -0.8073608537,
				"element": "H" 
			},
			{
				"x": 3.0183947527,
				"y": -4.0754689463,
				"z": -3.8436607801,
				"element": "H" 
			},
			{
				"x": 1.5508263565,
				"y": -3.1070071588,
				"z": -4.1870560838,
				"element": "H" 
			}
		],
		 "valence_orbital": [ 
			{
				"type": "occ",
				"energy": -0.31819,
				"method": "rhf"
			},
			{
				"type": "occ",
				"energy": -0.31134,
				"method": "rhf"
			},
			{
				"type": "occ",
				"energy": -0.30467,
				"method": "rhf"
			},
			{
				"type": "occ",
				"energy": -0.26027,
				"method": "rhf"
			},
			{
				"type": "occ",
				"energy": -0.2349,
				"method": "rhf"
			},
			{
				"type": "unocc",
				"energy": -0.0658,
				"method": "rhf"
			},
			{
				"type": "unocc",
				"energy": -0.04197,
				"method": "rhf"
			},
			{
				"type": "unocc",
				"energy": -0.00966,
				"method": "rhf"
			},
			{
				"type": "unocc",
				"energy": 0.03018,
				"method": "rhf"
			},
			{
				"type": "unocc",
				"energy": 0.05873,
				"method": "rhf"
			}
		],
		"cosmo_sigma_profile": { 
			"-0.025": 0.0,
			"-0.024": 0.0,
			"-0.023": 0.0,
			"-0.022": 0.0,
			"-0.021": 0.0,
			"-0.02": 0.0,
			"-0.019": 0.0,
			"-0.018": 0.0,
			"-0.017": 0.0,
			"-0.016": 0.0,
			"-0.015": 0.0,
			"-0.014": 0.0,
			"-0.013": 0.0,
			"-0.012": 0.0,
			"-0.011": 0.477035126771,
			"-0.01": 4.31109001446,
			"-0.009": 5.75197724133,
			"-0.008": 6.1942140545,
			"-0.007": 10.6501707162,
			"-0.006": 17.8480661195,
			"-0.005": 16.6588588743,
			"-0.004": 16.037151239,
			"-0.003": 14.9454676871,
			"-0.002": 14.7528857172,
			"-0.001": 16.1640964919,
			"0.0": 20.4907080853,
			"0.001": 25.6525511635,
			"0.002": 25.4852889109,
			"0.003": 28.6243750232,
			"0.004": 30.3805029393,
			"0.005": 17.8401153306,
			"0.006": 9.1233788178,
			"0.007": 5.71294880458,
			"0.008": 3.63989241258,
			"0.009": 3.07128888413,
			"0.01": 1.86559952072,
			"0.011": 1.63422386422,
			"0.012": 0.268746381917,
			"0.013": 0.0,
			"0.014": 0.0,
			"0.015": 0.0,
			"0.016": 0.0,
			"0.017": 0.0,
			"0.018": 0.0,
			"0.019": 0.0,
			"0.02": 0.0,
			"0.021": 0.0,
			"0.022": 0.0,
			"0.023": 0.0,
			"0.024": 0.0,
			"0.025": 0.0
		}
	}
}
