{
	 "smiles": "NC1=CC(Cl)=C(OCC2=CC=CO2)C=C1", 
	 "Tm": 346.15, 
	 "num_atms": 25, 
	 "gaussian": { 
		 "optdone": 1, 
		 "sigma_profile": "yes", 
		 "theory": "DFT", 
		 "functional": "B3LYP", 
		 "basiset": "6-31G**", 
		 "properties": { 
			 "R2extent": 4278.7259, 
			 "electric_dipole_moment_norm": 3.45845644616, 
			 "electric_quadrupole_moment_norm": 11.1029016883, 
			 "total_energy": -1090.54543102, 
			 "HOMO_LUMO_gap": 0.18527, 
			 "cosmo_polarized_energy": -12.98, 
			 "cosmo_cavitation_energy": 31.32, 
			 "cosmo_dispersion_energy": -22.64, 
			 "cosmo_repulsion_energy": 1.8, 
			 "cosmo_total_nonelectrostatic_energy": 10.48, 
			 "SMD_solvation_energy": 6.12 
		},
		"coords": [
			{
				"x": -3.5370089883,
				"y": 1.8731495111,
				"z": 2.2524055896,
				"element": "N" 
			},
			{
				"x": -2.7083778891,
				"y": 1.0130289179,
				"z": 1.5174040108,
				"element": "C" 
			},
			{
				"x": -2.4786678406,
				"y": -0.301699039,
				"z": 1.9532183915,
				"element": "C" 
			},
			{
				"x": -1.7075274201,
				"y": -1.1726970219,
				"z": 1.1929259399,
				"element": "C" 
			},
			{
				"x": -1.4492576824,
				"y": -2.8062104864,
				"z": 1.7793306512,
				"element": "Cl" 
			},
			{
				"x": -1.1347492773,
				"y": -0.7775971184,
				"z": -0.0287108697,
				"element": "C" 
			},
			{
				"x": -0.4073973712,
				"y": -1.7198025243,
				"z": -0.7019375813,
				"element": "O" 
			},
			{
				"x": 0.1228977946,
				"y": -1.413947848,
				"z": -1.9937115631,
				"element": "C" 
			},
			{
				"x": 1.3437640056,
				"y": -0.5502669164,
				"z": -1.9728306061,
				"element": "C" 
			},
			{
				"x": 2.604275975,
				"y": -0.722483697,
				"z": -1.479371374,
				"element": "C" 
			},
			{
				"x": 3.3241771878,
				"y": 0.4833713671,
				"z": -1.7608398151,
				"element": "C" 
			},
			{
				"x": 2.4510767795,
				"y": 1.3019991009,
				"z": -2.4098629992,
				"element": "C" 
			},
			{
				"x": 1.240217057,
				"y": 0.6917889547,
				"z": -2.5472285151,
				"element": "O" 
			},
			{
				"x": -1.3618810371,
				"y": 0.5352796051,
				"z": -0.4546353978,
				"element": "C" 
			},
			{
				"x": -2.1362461762,
				"y": 1.4137851016,
				"z": 0.3036999274,
				"element": "C" 
			},
			{
				"x": -3.3570019884,
				"y": 2.8560278133,
				"z": 2.0956503354,
				"element": "H" 
			},
			{
				"x": -3.5797947473,
				"y": 1.6675698548,
				"z": 3.2418334287,
				"element": "H" 
			},
			{
				"x": -2.9075072757,
				"y": -0.6548100976,
				"z": 2.8856151328,
				"element": "H" 
			},
			{
				"x": 0.3663881077,
				"y": -2.39631799,
				"z": -2.4067573732,
				"element": "H" 
			},
			{
				"x": -0.638291866,
				"y": -0.9541743476,
				"z": -2.6359981174,
				"element": "H" 
			},
			{
				"x": 2.9720455404,
				"y": -1.6023279115,
				"z": -0.9710572979,
				"element": "H" 
			},
			{
				"x": 4.3527953199,
				"y": 0.7055072465,
				"z": -1.5157441094,
				"element": "H" 
			},
			{
				"x": 2.5282897876,
				"y": 2.2943000422,
				"z": -2.8263545781,
				"element": "H" 
			},
			{
				"x": -0.9190277126,
				"y": 0.8943301101,
				"z": -1.3750977874,
				"element": "H" 
			},
			{
				"x": -2.2944902827,
				"y": 2.4264973728,
				"z": -0.0577454225,
				"element": "H" 
			}
		],
		 "valence_orbital": [ 
			{
				"type": "occ",
				"energy": -0.28268,
				"method": "rhf"
			},
			{
				"type": "occ",
				"energy": -0.27677,
				"method": "rhf"
			},
			{
				"type": "occ",
				"energy": -0.23894,
				"method": "rhf"
			},
			{
				"type": "occ",
				"energy": -0.22989,
				"method": "rhf"
			},
			{
				"type": "occ",
				"energy": -0.18985,
				"method": "rhf"
			},
			{
				"type": "unocc",
				"energy": -0.00458,
				"method": "rhf"
			},
			{
				"type": "unocc",
				"energy": 0.00164,
				"method": "rhf"
			},
			{
				"type": "unocc",
				"energy": 0.02487,
				"method": "rhf"
			},
			{
				"type": "unocc",
				"energy": 0.0424,
				"method": "rhf"
			},
			{
				"type": "unocc",
				"energy": 0.06051,
				"method": "rhf"
			}
		],
		"cosmo_sigma_profile": { 
			"-0.025": 0.0,
			"-0.024": 0.0,
			"-0.023": 0.0,
			"-0.022": 0.0,
			"-0.021": 0.0,
			"-0.02": 0.0,
			"-0.019": 0.0,
			"-0.018": 0.0,
			"-0.017": 0.0,
			"-0.016": 0.0,
			"-0.015": 0.0,
			"-0.014": 0.0,
			"-0.013": 0.346203040554,
			"-0.012": 2.65977893814,
			"-0.011": 2.45441826608,
			"-0.01": 3.09390862006,
			"-0.009": 5.07363009175,
			"-0.008": 5.62769127067,
			"-0.007": 10.6744013621,
			"-0.006": 14.7263487799,
			"-0.005": 14.1261344436,
			"-0.004": 15.844266443,
			"-0.003": 12.0394122552,
			"-0.002": 12.1587631885,
			"-0.001": 11.2746969539,
			"0.0": 11.0500460595,
			"0.001": 13.2274140909,
			"0.002": 19.5191561557,
			"0.003": 23.4940463671,
			"0.004": 25.0937321245,
			"0.005": 25.9475226945,
			"0.006": 8.08670413445,
			"0.007": 4.40613528877,
			"0.008": 2.60122511263,
			"0.009": 2.77219402238,
			"0.01": 1.9156192576,
			"0.011": 1.71648967136,
			"0.012": 0.960643721831,
			"0.013": 0.662618569495,
			"0.014": 0.655963395814,
			"0.015": 0.460367604566,
			"0.016": 0.00408073239688,
			"0.017": 0.0,
			"0.018": 0.0,
			"0.019": 0.0,
			"0.02": 0.0,
			"0.021": 0.0,
			"0.022": 0.0,
			"0.023": 0.0,
			"0.024": 0.0,
			"0.025": 0.0
		}
	}
}
