{
	 "smiles": "COC1=C2C(=O)CC2=CC(C)=C1", 
	 "Tm": 366.15, 
	 "num_atms": 22, 
	 "gaussian": { 
		 "optdone": 1, 
		 "sigma_profile": "yes", 
		 "theory": "DFT", 
		 "functional": "B3LYP", 
		 "basiset": "6-31G**", 
		 "properties": { 
			 "R2extent": 2318.7352, 
			 "electric_dipole_moment_norm": 2.55691829162, 
			 "electric_quadrupole_moment_norm": 8.23423317013, 
			 "total_energy": -537.497520273, 
			 "HOMO_LUMO_gap": 0.18097, 
			 "cosmo_polarized_energy": -7.44, 
			 "cosmo_cavitation_energy": 25.66, 
			 "cosmo_dispersion_energy": -18.88, 
			 "cosmo_repulsion_energy": 1.51, 
			 "cosmo_total_nonelectrostatic_energy": 8.29, 
			 "SMD_solvation_energy": 5.57 
		},
		"coords": [
			{
				"x": 0.694819228,
				"y": -0.7687798785,
				"z": 3.6352514479,
				"element": "C" 
			},
			{
				"x": -0.0435193244,
				"y": 0.2495153706,
				"z": 2.9511912481,
				"element": "O" 
			},
			{
				"x": -0.179314135,
				"y": 0.1201049027,
				"z": 1.616863181,
				"element": "C" 
			},
			{
				"x": 0.3309250708,
				"y": -0.9130955118,
				"z": 0.8168582496,
				"element": "C" 
			},
			{
				"x": 1.1072696526,
				"y": -2.1867230466,
				"z": 0.7394379567,
				"element": "C" 
			},
			{
				"x": 1.6858736313,
				"y": -2.919211649,
				"z": 1.5068675971,
				"element": "O" 
			},
			{
				"x": 0.8768540931,
				"y": -2.2211468661,
				"z": -0.812969821,
				"element": "C" 
			},
			{
				"x": 0.1118226508,
				"y": -0.9232974153,
				"z": -0.5759719515,
				"element": "C" 
			},
			{
				"x": -0.6000387632,
				"y": 0.0544502874,
				"z": -1.2349306889,
				"element": "C" 
			},
			{
				"x": -1.1201297773,
				"y": 1.1031098601,
				"z": -0.4378447488,
				"element": "C" 
			},
			{
				"x": -1.910727773,
				"y": 2.211819974,
				"z": -1.0923678013,
				"element": "C" 
			},
			{
				"x": -0.9079893277,
				"y": 1.1216811967,
				"z": 0.945681947,
				"element": "C" 
			},
			{
				"x": 0.2248832463,
				"y": -1.7485407363,
				"z": 3.5101583898,
				"element": "H" 
			},
			{
				"x": 0.6901195844,
				"y": -0.4825776662,
				"z": 4.6874263111,
				"element": "H" 
			},
			{
				"x": 1.7227139073,
				"y": -0.8269909631,
				"z": 3.2660108494,
				"element": "H" 
			},
			{
				"x": 1.7941871124,
				"y": -2.1491177239,
				"z": -1.4078051209,
				"element": "H" 
			},
			{
				"x": 0.2923970685,
				"y": -3.078763663,
				"z": -1.1642972219,
				"element": "H" 
			},
			{
				"x": -0.7668038523,
				"y": 0.0431258274,
				"z": -2.3081355806,
				"element": "H" 
			},
			{
				"x": -2.7852543182,
				"y": 1.8124308954,
				"z": -1.6186156275,
				"element": "H" 
			},
			{
				"x": -1.3035009111,
				"y": 2.7398303268,
				"z": -1.8366547672,
				"element": "H" 
			},
			{
				"x": -2.2617122905,
				"y": 2.9448907789,
				"z": -0.3620852708,
				"element": "H" 
			},
			{
				"x": -1.3131747728,
				"y": 1.9321857,
				"z": 1.5439314229,
				"element": "H" 
			}
		],
		 "valence_orbital": [ 
			{
				"type": "occ",
				"energy": -0.32744,
				"method": "rhf"
			},
			{
				"type": "occ",
				"energy": -0.31738,
				"method": "rhf"
			},
			{
				"type": "occ",
				"energy": -0.24994,
				"method": "rhf"
			},
			{
				"type": "occ",
				"energy": -0.24685,
				"method": "rhf"
			},
			{
				"type": "occ",
				"energy": -0.22866,
				"method": "rhf"
			},
			{
				"type": "unocc",
				"energy": -0.04769,
				"method": "rhf"
			},
			{
				"type": "unocc",
				"energy": -0.00422,
				"method": "rhf"
			},
			{
				"type": "unocc",
				"energy": 0.04937,
				"method": "rhf"
			},
			{
				"type": "unocc",
				"energy": 0.09127,
				"method": "rhf"
			},
			{
				"type": "unocc",
				"energy": 0.10758,
				"method": "rhf"
			}
		],
		"cosmo_sigma_profile": { 
			"-0.025": 0.0,
			"-0.024": 0.0,
			"-0.023": 0.0,
			"-0.022": 0.0,
			"-0.021": 0.0,
			"-0.02": 0.0,
			"-0.019": 0.0,
			"-0.018": 0.0,
			"-0.017": 0.0,
			"-0.016": 0.0,
			"-0.015": 0.0,
			"-0.014": 0.0,
			"-0.013": 0.0,
			"-0.012": 0.0,
			"-0.011": 0.0,
			"-0.01": 0.0,
			"-0.009": 0.0,
			"-0.008": 0.0,
			"-0.007": 0.466215889735,
			"-0.006": 8.00550577956,
			"-0.005": 16.9385739738,
			"-0.004": 21.9110174238,
			"-0.003": 24.1032661008,
			"-0.002": 20.4886893856,
			"-0.001": 21.1890244655,
			"0.0": 16.1394911346,
			"0.001": 9.88062993745,
			"0.002": 12.6541153388,
			"0.003": 12.8491691108,
			"0.004": 11.8256144074,
			"0.005": 4.50306658813,
			"0.006": 3.51155034587,
			"0.007": 2.07808714436,
			"0.008": 2.76118513676,
			"0.009": 3.94891490297,
			"0.01": 3.0188955607,
			"0.011": 3.78638946915,
			"0.012": 3.042221608,
			"0.013": 0.949998823263,
			"0.014": 0.0,
			"0.015": 0.0,
			"0.016": 0.0,
			"0.017": 0.0,
			"0.018": 0.0,
			"0.019": 0.0,
			"0.02": 0.0,
			"0.021": 0.0,
			"0.022": 0.0,
			"0.023": 0.0,
			"0.024": 0.0,
			"0.025": 0.0
		}
	}
}
