{
	 "smiles": "ClC1CCCCC1=O", 
	 "Tm": 296.15, 
	 "num_atms": 17, 
	 "gaussian": { 
		 "optdone": 1, 
		 "sigma_profile": "yes", 
		 "theory": "DFT", 
		 "functional": "B3LYP", 
		 "basiset": "6-31G**", 
		 "properties": { 
			 "R2extent": 1729.5956, 
			 "electric_dipole_moment_norm": 4.51961618835, 
			 "electric_quadrupole_moment_norm": 14.5569643807, 
			 "total_energy": -769.480613165, 
			 "HOMO_LUMO_gap": 0.22385, 
			 "cosmo_polarized_energy": -10.3, 
			 "cosmo_cavitation_energy": 20.69, 
			 "cosmo_dispersion_energy": -15.72, 
			 "cosmo_repulsion_energy": 1.32, 
			 "cosmo_total_nonelectrostatic_energy": 6.29, 
			 "SMD_solvation_energy": 3.23 
		},
		"coords": [
			{
				"x": 2.9037787022,
				"y": -1.8864256414,
				"z": 1.1792092046,
				"element": "Cl" 
			},
			{
				"x": 1.6163931275,
				"y": -1.0924741704,
				"z": 0.193775072,
				"element": "C" 
			},
			{
				"x": 0.2715312393,
				"y": -1.0714000301,
				"z": 0.9324770523,
				"element": "C" 
			},
			{
				"x": -0.8726294183,
				"y": -0.5517309787,
				"z": 0.0221674385,
				"element": "C" 
			},
			{
				"x": -0.3723497458,
				"y": 0.3748466097,
				"z": -1.1100165704,
				"element": "C" 
			},
			{
				"x": 0.8499765742,
				"y": 1.1967637336,
				"z": -0.6822188549,
				"element": "C" 
			},
			{
				"x": 2.0257879913,
				"y": 0.3290691242,
				"z": -0.2323015457,
				"element": "C" 
			},
			{
				"x": 3.1642696591,
				"y": 0.736288772,
				"z": -0.2106073898,
				"element": "O" 
			},
			{
				"x": 1.5322239475,
				"y": -1.6965002157,
				"z": -0.7176819267,
				"element": "H" 
			},
			{
				"x": 0.0462795604,
				"y": -2.0750613014,
				"z": 1.3013488134,
				"element": "H" 
			},
			{
				"x": 0.3807543912,
				"y": -0.4333261906,
				"z": 1.8163719445,
				"element": "H" 
			},
			{
				"x": -1.4121123764,
				"y": -1.3966949633,
				"z": -0.4186905161,
				"element": "H" 
			},
			{
				"x": -1.5968919872,
				"y": -0.018092555,
				"z": 0.6469802814,
				"element": "H" 
			},
			{
				"x": -1.1776201732,
				"y": 1.0407388103,
				"z": -1.4363312142,
				"element": "H" 
			},
			{
				"x": -0.1038351463,
				"y": -0.2244842242,
				"z": -1.9888262518,
				"element": "H" 
			},
			{
				"x": 1.2088963187,
				"y": 1.8613839306,
				"z": -1.473639038,
				"element": "H" 
			},
			{
				"x": 0.5952473359,
				"y": 1.8425992905,
				"z": 0.1710835008,
				"element": "H" 
			}
		],
		 "valence_orbital": [ 
			{
				"type": "occ",
				"energy": -0.34234,
				"method": "rhf"
			},
			{
				"type": "occ",
				"energy": -0.33466,
				"method": "rhf"
			},
			{
				"type": "occ",
				"energy": -0.29743,
				"method": "rhf"
			},
			{
				"type": "occ",
				"energy": -0.29225,
				"method": "rhf"
			},
			{
				"type": "occ",
				"energy": -0.25195,
				"method": "rhf"
			},
			{
				"type": "unocc",
				"energy": -0.0281,
				"method": "rhf"
			},
			{
				"type": "unocc",
				"energy": 0.0255,
				"method": "rhf"
			},
			{
				"type": "unocc",
				"energy": 0.07459,
				"method": "rhf"
			},
			{
				"type": "unocc",
				"energy": 0.09422,
				"method": "rhf"
			},
			{
				"type": "unocc",
				"energy": 0.11728,
				"method": "rhf"
			}
		],
		"cosmo_sigma_profile": { 
			"-0.025": 0.0,
			"-0.024": 0.0,
			"-0.023": 0.0,
			"-0.022": 0.0,
			"-0.021": 0.0,
			"-0.02": 0.0,
			"-0.019": 0.0,
			"-0.018": 0.0,
			"-0.017": 0.0,
			"-0.016": 0.0,
			"-0.015": 0.0,
			"-0.014": 0.0,
			"-0.013": 0.0,
			"-0.012": 0.0,
			"-0.011": 0.0,
			"-0.01": 7.23873474379e-05,
			"-0.009": 1.66966798258,
			"-0.008": 3.61055583469,
			"-0.007": 4.41455190678,
			"-0.006": 6.81763594202,
			"-0.005": 9.74845880837,
			"-0.004": 16.3237075759,
			"-0.003": 22.5234806511,
			"-0.002": 18.4631189717,
			"-0.001": 13.875435338,
			"0.0": 10.834147011,
			"0.001": 4.17332213821,
			"0.002": 4.58502671395,
			"0.003": 3.86382384726,
			"0.004": 5.81741706345,
			"0.005": 6.40324769913,
			"0.006": 8.3214817935,
			"0.007": 4.44352703746,
			"0.008": 2.18554392207,
			"0.009": 2.15163903928,
			"0.01": 3.11017665766,
			"0.011": 4.73738100445,
			"0.012": 3.98137285701,
			"0.013": 1.46557610966,
			"0.014": 0.0661195343762,
			"0.015": 0.0,
			"0.016": 0.0,
			"0.017": 0.0,
			"0.018": 0.0,
			"0.019": 0.0,
			"0.02": 0.0,
			"0.021": 0.0,
			"0.022": 0.0,
			"0.023": 0.0,
			"0.024": 0.0,
			"0.025": 0.0
		}
	}
}
