{
	 "smiles": "CC1=C(C)C(C)=C2C(=O)N3C=CC=CC3CC2=C1C", 
	 "Tm": 412.15, 
	 "num_atms": 38, 
	 "gaussian": { 
		 "optdone": 1, 
		 "sigma_profile": "yes", 
		 "theory": "DFT", 
		 "functional": "B3LYP", 
		 "basiset": "6-31G**", 
		 "properties": { 
			 "R2extent": 5467.436, 
			 "electric_dipole_moment_norm": 3.64219050847, 
			 "electric_quadrupole_moment_norm": 9.32725311708, 
			 "total_energy": -789.244149592, 
			 "HOMO_LUMO_gap": 0.14503, 
			 "cosmo_polarized_energy": -9.68, 
			 "cosmo_cavitation_energy": 37.33, 
			 "cosmo_dispersion_energy": -27.43, 
			 "cosmo_repulsion_energy": 2.05, 
			 "cosmo_total_nonelectrostatic_energy": 11.94, 
			 "SMD_solvation_energy": 6.11 
		},
		"coords": [
			{
				"x": 0.105186179,
				"y": 4.3955608219,
				"z": -0.3640689489,
				"element": "C" 
			},
			{
				"x": -0.0491524676,
				"y": 2.8885607511,
				"z": -0.298673724,
				"element": "C" 
			},
			{
				"x": -1.2144823084,
				"y": 2.3287671492,
				"z": 0.2653772087,
				"element": "C" 
			},
			{
				"x": -2.3417595695,
				"y": 3.2385991945,
				"z": 0.7167221615,
				"element": "C" 
			},
			{
				"x": -1.3496820616,
				"y": 0.9323106033,
				"z": 0.3951190577,
				"element": "C" 
			},
			{
				"x": -2.5719620039,
				"y": 0.371563776,
				"z": 1.0935849012,
				"element": "C" 
			},
			{
				"x": -0.3122669826,
				"y": 0.1022282591,
				"z": -0.0904143923,
				"element": "C" 
			},
			{
				"x": -0.5024056913,
				"y": -1.3825259114,
				"z": -0.1540047558,
				"element": "C" 
			},
			{
				"x": -1.6103265075,
				"y": -1.9150930441,
				"z": -0.1690052829,
				"element": "O" 
			},
			{
				"x": 0.6531206738,
				"y": -2.1630178808,
				"z": -0.2401875895,
				"element": "N" 
			},
			{
				"x": 0.5131085387,
				"y": -3.5521886479,
				"z": -0.259104683,
				"element": "C" 
			},
			{
				"x": 1.5669802612,
				"y": -4.3750044962,
				"z": -0.4185243107,
				"element": "C" 
			},
			{
				"x": 2.8911475677,
				"y": -3.8065927814,
				"z": -0.6249152706,
				"element": "C" 
			},
			{
				"x": 3.0874456142,
				"y": -2.4835186736,
				"z": -0.5291174519,
				"element": "C" 
			},
			{
				"x": 1.9843885276,
				"y": -1.5218456441,
				"z": -0.149595302,
				"element": "C" 
			},
			{
				"x": 1.9819679391,
				"y": -0.2717404953,
				"z": -1.0329450053,
				"element": "C" 
			},
			{
				"x": 0.8606519378,
				"y": 0.6652971153,
				"z": -0.6353627156,
				"element": "C" 
			},
			{
				"x": 0.9809891623,
				"y": 2.0559232162,
				"z": -0.7801374259,
				"element": "C" 
			},
			{
				"x": 2.1967682758,
				"y": 2.6585214764,
				"z": -1.4591680129,
				"element": "C" 
			},
			{
				"x": -0.3965152835,
				"y": 4.8209582682,
				"z": -1.2440038113,
				"element": "H" 
			},
			{
				"x": 1.1527074929,
				"y": 4.6955839053,
				"z": -0.413771588,
				"element": "H" 
			},
			{
				"x": -0.3255467619,
				"y": 4.8803305718,
				"z": 0.515088481,
				"element": "H" 
			},
			{
				"x": -3.3147934037,
				"y": 2.7582759656,
				"z": 0.6004543146,
				"element": "H" 
			},
			{
				"x": -2.2468223771,
				"y": 3.5232707552,
				"z": 1.7737237863,
				"element": "H" 
			},
			{
				"x": -2.3707503113,
				"y": 4.1622512247,
				"z": 0.1358502704,
				"element": "H" 
			},
			{
				"x": -3.4172053162,
				"y": 0.2655674461,
				"z": 0.4030121882,
				"element": "H" 
			},
			{
				"x": -2.8860848253,
				"y": 1.0320757636,
				"z": 1.905966552,
				"element": "H" 
			},
			{
				"x": -2.3874365629,
				"y": -0.6195789529,
				"z": 1.5000609248,
				"element": "H" 
			},
			{
				"x": -0.5125591636,
				"y": -3.8817285757,
				"z": -0.1620998338,
				"element": "H" 
			},
			{
				"x": 1.4155391911,
				"y": -5.4475686571,
				"z": -0.4305216209,
				"element": "H" 
			},
			{
				"x": 3.7175535634,
				"y": -4.465928148,
				"z": -0.8760849052,
				"element": "H" 
			},
			{
				"x": 4.0665150311,
				"y": -2.0412319515,
				"z": -0.6927163983,
				"element": "H" 
			},
			{
				"x": 2.1391802654,
				"y": -1.1833310521,
				"z": 0.8924284082,
				"element": "H" 
			},
			{
				"x": 2.9527019941,
				"y": 0.2183240705,
				"z": -0.9200139658,
				"element": "H" 
			},
			{
				"x": 1.8993288434,
				"y": -0.5798434056,
				"z": -2.0854953815,
				"element": "H" 
			},
			{
				"x": 2.6983480982,
				"y": 1.9397498643,
				"z": -2.1088113303,
				"element": "H" 
			},
			{
				"x": 1.9193137609,
				"y": 3.5079382809,
				"z": -2.0884398768,
				"element": "H" 
			},
			{
				"x": 2.9412086802,
				"y": 3.0219798386,
				"z": -0.7378046715,
				"element": "H" 
			}
		],
		 "valence_orbital": [ 
			{
				"type": "occ",
				"energy": -0.27988,
				"method": "rhf"
			},
			{
				"type": "occ",
				"energy": -0.24759,
				"method": "rhf"
			},
			{
				"type": "occ",
				"energy": -0.23444,
				"method": "rhf"
			},
			{
				"type": "occ",
				"energy": -0.22653,
				"method": "rhf"
			},
			{
				"type": "occ",
				"energy": -0.1884,
				"method": "rhf"
			},
			{
				"type": "unocc",
				"energy": -0.04337,
				"method": "rhf"
			},
			{
				"type": "unocc",
				"energy": -0.00899,
				"method": "rhf"
			},
			{
				"type": "unocc",
				"energy": 0.00226,
				"method": "rhf"
			},
			{
				"type": "unocc",
				"energy": 0.05922,
				"method": "rhf"
			},
			{
				"type": "unocc",
				"energy": 0.08471,
				"method": "rhf"
			}
		],
		"cosmo_sigma_profile": { 
			"-0.025": 0.0,
			"-0.024": 0.0,
			"-0.023": 0.0,
			"-0.022": 0.0,
			"-0.021": 0.0,
			"-0.02": 0.0,
			"-0.019": 0.0,
			"-0.018": 0.0,
			"-0.017": 0.0,
			"-0.016": 0.0,
			"-0.015": 0.0,
			"-0.014": 0.0,
			"-0.013": 0.0,
			"-0.012": 0.0,
			"-0.011": 0.0,
			"-0.01": 0.0,
			"-0.009": 0.0,
			"-0.008": 0.0,
			"-0.007": 0.0056760086865,
			"-0.006": 5.43460392054,
			"-0.005": 12.1976559506,
			"-0.004": 27.4822801437,
			"-0.003": 43.0738516563,
			"-0.002": 36.9676433547,
			"-0.001": 31.1071983357,
			"0.0": 32.2866658844,
			"0.001": 25.0184365957,
			"0.002": 15.1186858577,
			"0.003": 13.9778941496,
			"0.004": 12.7883976765,
			"0.005": 15.8000864108,
			"0.006": 8.33690266117,
			"0.007": 2.11240707061,
			"0.008": 1.32359208255,
			"0.009": 1.18733066639,
			"0.01": 1.84223032852,
			"0.011": 2.22787266697,
			"0.012": 1.57888714706,
			"0.013": 3.51862049255,
			"0.014": 1.122098519,
			"0.015": 0.0,
			"0.016": 0.0,
			"0.017": 0.0,
			"0.018": 0.0,
			"0.019": 0.0,
			"0.02": 0.0,
			"0.021": 0.0,
			"0.022": 0.0,
			"0.023": 0.0,
			"0.024": 0.0,
			"0.025": 0.0
		}
	}
}
