{
	 "smiles": "COC(=O)C1=C(C=CC(Br)=C1)S(Cl)(=O)=O", 
	 "Tm": 341.15, 
	 "num_atms": 21, 
	 "gaussian": { 
		 "optdone": 1, 
		 "sigma_profile": "yes", 
		 "theory": "DFT", 
		 "functional": "B3LYP", 
		 "basiset": "6-31G**", 
		 "properties": { 
			 "R2extent": 6528.5569, 
			 "electric_dipole_moment_norm": 5.1278832241, 
			 "electric_quadrupole_moment_norm": 18.7276141139, 
			 "total_energy": -4039.0673344, 
			 "HOMO_LUMO_gap": 0.18491, 
			 "cosmo_polarized_energy": -13.6, 
			 "cosmo_cavitation_energy": 31.83, 
			 "cosmo_dispersion_energy": -23.73, 
			 "cosmo_repulsion_energy": 1.83, 
			 "cosmo_total_nonelectrostatic_energy": 9.92, 
			 "SMD_solvation_energy": 4.52 
		},
		"coords": [
			{
				"x": 2.1474769932,
				"y": -3.8578428265,
				"z": 1.3102050296,
				"element": "C" 
			},
			{
				"x": 1.8383613735,
				"y": -2.4546812883,
				"z": 1.4394167288,
				"element": "O" 
			},
			{
				"x": 1.5531076343,
				"y": -1.8271126902,
				"z": 0.2868178518,
				"element": "C" 
			},
			{
				"x": 1.5506820028,
				"y": -2.3556236826,
				"z": -0.8025487094,
				"element": "O" 
			},
			{
				"x": 1.3068144675,
				"y": -0.36064252,
				"z": 0.4978187206,
				"element": "C" 
			},
			{
				"x": 0.4210818234,
				"y": 0.3875271835,
				"z": -0.3007183053,
				"element": "C" 
			},
			{
				"x": 0.3715336495,
				"y": 1.7761672707,
				"z": -0.1973021103,
				"element": "C" 
			},
			{
				"x": 1.1773274486,
				"y": 2.4412400362,
				"z": 0.7257797695,
				"element": "C" 
			},
			{
				"x": 2.0193611361,
				"y": 1.7008315721,
				"z": 1.5510075253,
				"element": "C" 
			},
			{
				"x": 3.1011767508,
				"y": 2.591381779,
				"z": 2.8360640895,
				"element": "Br" 
			},
			{
				"x": 2.0878444552,
				"y": 0.3138018188,
				"z": 1.4426971469,
				"element": "C" 
			},
			{
				"x": -0.6686928802,
				"y": -0.4567999165,
				"z": -1.4876813436,
				"element": "S" 
			},
			{
				"x": -2.3497196975,
				"y": 0.8935035198,
				"z": -1.5258122639,
				"element": "Cl" 
			},
			{
				"x": -0.098989254,
				"y": -0.4016296066,
				"z": -2.8242896514,
				"element": "O" 
			},
			{
				"x": -1.1983944652,
				"y": -1.6694615263,
				"z": -0.8862792327,
				"element": "O" 
			},
			{
				"x": 1.3028714386,
				"y": -4.3891190835,
				"z": 0.8668101067,
				"element": "H" 
			},
			{
				"x": 3.0288225858,
				"y": -3.9968343798,
				"z": 0.6799196091,
				"element": "H" 
			},
			{
				"x": 2.33689841,
				"y": -4.2075115277,
				"z": 2.3241161906,
				"element": "H" 
			},
			{
				"x": -0.3091576295,
				"y": 2.3464976602,
				"z": -0.8165488382,
				"element": "H" 
			},
			{
				"x": 1.137199404,
				"y": 3.5210811648,
				"z": 0.8053559812,
				"element": "H" 
			},
			{
				"x": 2.757594353,
				"y": -0.255372957,
				"z": 2.0743717052,
				"element": "H" 
			}
		],
		 "valence_orbital": [ 
			{
				"type": "occ",
				"energy": -0.31575,
				"method": "rhf"
			},
			{
				"type": "occ",
				"energy": -0.3124,
				"method": "rhf"
			},
			{
				"type": "occ",
				"energy": -0.30604,
				"method": "rhf"
			},
			{
				"type": "occ",
				"energy": -0.29535,
				"method": "rhf"
			},
			{
				"type": "occ",
				"energy": -0.27855,
				"method": "rhf"
			},
			{
				"type": "unocc",
				"energy": -0.09364,
				"method": "rhf"
			},
			{
				"type": "unocc",
				"energy": -0.07839,
				"method": "rhf"
			},
			{
				"type": "unocc",
				"energy": -0.05767,
				"method": "rhf"
			},
			{
				"type": "unocc",
				"energy": -0.02135,
				"method": "rhf"
			},
			{
				"type": "unocc",
				"energy": 0.013,
				"method": "rhf"
			}
		],
		"cosmo_sigma_profile": { 
			"-0.025": 0.0,
			"-0.024": 0.0,
			"-0.023": 0.0,
			"-0.022": 0.0,
			"-0.021": 0.0,
			"-0.02": 0.0,
			"-0.019": 0.0,
			"-0.018": 0.0,
			"-0.017": 0.0,
			"-0.016": 0.0,
			"-0.015": 0.0,
			"-0.014": 0.0,
			"-0.013": 0.0,
			"-0.012": 0.0,
			"-0.011": 0.0,
			"-0.01": 0.745871807649,
			"-0.009": 4.54624786178,
			"-0.008": 5.07365721313,
			"-0.007": 8.39929473851,
			"-0.006": 13.4552724859,
			"-0.005": 15.7831200591,
			"-0.004": 17.0554696137,
			"-0.003": 17.6189734926,
			"-0.002": 25.0539158894,
			"-0.001": 26.7286529094,
			"0.0": 15.5229489012,
			"0.001": 15.4534995221,
			"0.002": 16.452768518,
			"0.003": 23.4476790517,
			"0.004": 11.8207999649,
			"0.005": 4.85124162086,
			"0.006": 5.44514320622,
			"0.007": 10.2115540732,
			"0.008": 13.493890558,
			"0.009": 5.06948721433,
			"0.01": 4.14393020695,
			"0.011": 1.28889336445,
			"0.012": 0.0,
			"0.013": 0.0,
			"0.014": 0.0,
			"0.015": 0.0,
			"0.016": 0.0,
			"0.017": 0.0,
			"0.018": 0.0,
			"0.019": 0.0,
			"0.02": 0.0,
			"0.021": 0.0,
			"0.022": 0.0,
			"0.023": 0.0,
			"0.024": 0.0,
			"0.025": 0.0
		}
	}
}
