{
	 "smiles": "COC1=C(N)C=C(C=C1)S(N)(=O)=O", 
	 "Tm": 419.15, 
	 "num_atms": 23, 
	 "gaussian": { 
		 "optdone": 1, 
		 "sigma_profile": "yes", 
		 "theory": "DFT", 
		 "functional": "B3LYP", 
		 "basiset": "6-31G**", 
		 "properties": { 
			 "R2extent": 4272.0976, 
			 "electric_dipole_moment_norm": 7.32999749318, 
			 "electric_quadrupole_moment_norm": 27.2537276944, 
			 "total_energy": -1006.05598801, 
			 "HOMO_LUMO_gap": 0.18869, 
			 "cosmo_polarized_energy": -22.76, 
			 "cosmo_cavitation_energy": 28.38, 
			 "cosmo_dispersion_energy": -21.43, 
			 "cosmo_repulsion_energy": 1.66, 
			 "cosmo_total_nonelectrostatic_energy": 8.61, 
			 "SMD_solvation_energy": 5.21 
		},
		"coords": [
			{
				"x": 1.6510971762,
				"y": 1.0510729747,
				"z": 2.0180066387,
				"element": "C" 
			},
			{
				"x": 1.5358190175,
				"y": 0.7202250104,
				"z": 0.6414670846,
				"element": "O" 
			},
			{
				"x": 0.3704320651,
				"y": 0.1544965646,
				"z": 0.2037961306,
				"element": "C" 
			},
			{
				"x": 0.3698783882,
				"y": -0.1754811402,
				"z": -1.1779004933,
				"element": "C" 
			},
			{
				"x": 1.4783821669,
				"y": 0.1461635606,
				"z": -1.9498524467,
				"element": "N" 
			},
			{
				"x": -0.7704724292,
				"y": -0.7741270463,
				"z": -1.7157021044,
				"element": "C" 
			},
			{
				"x": -1.8787941669,
				"y": -1.031936633,
				"z": -0.9012868469,
				"element": "C" 
			},
			{
				"x": -1.8778606367,
				"y": -0.7138418938,
				"z": 0.4528054643,
				"element": "C" 
			},
			{
				"x": -0.7378569697,
				"y": -0.116845915,
				"z": 1.0027465009,
				"element": "C" 
			},
			{
				"x": -3.3433904143,
				"y": -1.758471082,
				"z": -1.6371600683,
				"element": "S" 
			},
			{
				"x": -4.2946208927,
				"y": -0.4815045339,
				"z": -2.1967304368,
				"element": "N" 
			},
			{
				"x": -4.1201060852,
				"y": -2.3794694222,
				"z": -0.5647125087,
				"element": "O" 
			},
			{
				"x": -2.925570139,
				"y": -2.4835919033,
				"z": -2.8374082561,
				"element": "O" 
			},
			{
				"x": 1.5502591252,
				"y": 0.1629341487,
				"z": 2.6541214402,
				"element": "H" 
			},
			{
				"x": 2.6481441574,
				"y": 1.475033994,
				"z": 2.1444560552,
				"element": "H" 
			},
			{
				"x": 0.9014249255,
				"y": 1.7949302157,
				"z": 2.3145698787,
				"element": "H" 
			},
			{
				"x": 2.3286322263,
				"y": 0.285371024,
				"z": -1.4221816708,
				"element": "H" 
			},
			{
				"x": 1.6056837686,
				"y": -0.4115472176,
				"z": -2.7821715799,
				"element": "H" 
			},
			{
				"x": -0.7907216257,
				"y": -1.0656048749,
				"z": -2.7611667417,
				"element": "H" 
			},
			{
				"x": -2.7342742409,
				"y": -0.9527001526,
				"z": 1.0724625594,
				"element": "H" 
			},
			{
				"x": -0.7213450302,
				"y": 0.1208597398,
				"z": 2.059744547,
				"element": "H" 
			},
			{
				"x": -4.6164609961,
				"y": 0.113586734,
				"z": -1.4391438724,
				"element": "H" 
			},
			{
				"x": -3.8312793903,
				"y": 0.0459478482,
				"z": -2.9307592736,
				"element": "H" 
			}
		],
		 "valence_orbital": [ 
			{
				"type": "occ",
				"energy": -0.29893,
				"method": "rhf"
			},
			{
				"type": "occ",
				"energy": -0.29376,
				"method": "rhf"
			},
			{
				"type": "occ",
				"energy": -0.2931,
				"method": "rhf"
			},
			{
				"type": "occ",
				"energy": -0.2491,
				"method": "rhf"
			},
			{
				"type": "occ",
				"energy": -0.20965,
				"method": "rhf"
			},
			{
				"type": "unocc",
				"energy": -0.02096,
				"method": "rhf"
			},
			{
				"type": "unocc",
				"energy": -0.00493,
				"method": "rhf"
			},
			{
				"type": "unocc",
				"energy": 0.05918,
				"method": "rhf"
			},
			{
				"type": "unocc",
				"energy": 0.07422,
				"method": "rhf"
			},
			{
				"type": "unocc",
				"energy": 0.08212,
				"method": "rhf"
			}
		],
		"cosmo_sigma_profile": { 
			"-0.025": 0.0,
			"-0.024": 0.0,
			"-0.023": 0.0,
			"-0.022": 0.0,
			"-0.021": 0.0,
			"-0.02": 0.0,
			"-0.019": 0.0,
			"-0.018": 0.0,
			"-0.017": 0.0,
			"-0.016": 0.0,
			"-0.015": 1.28576321918,
			"-0.014": 2.94457916893,
			"-0.013": 3.3437347393,
			"-0.012": 4.41349200734,
			"-0.011": 3.57685710473,
			"-0.01": 5.77474173852,
			"-0.009": 4.84751245901,
			"-0.008": 3.62614856307,
			"-0.007": 6.02880020435,
			"-0.006": 14.095500736,
			"-0.005": 15.2929341178,
			"-0.004": 15.8631249888,
			"-0.003": 13.36188538,
			"-0.002": 9.29170169834,
			"-0.001": 7.32826774212,
			"0.0": 6.76353661909,
			"0.001": 10.2439606309,
			"0.002": 10.5817915223,
			"0.003": 13.6983794698,
			"0.004": 13.5893556585,
			"0.005": 7.88262942885,
			"0.006": 5.08598729878,
			"0.007": 6.3731464787,
			"0.008": 5.25302045699,
			"0.009": 5.87403412062,
			"0.01": 6.71107446953,
			"0.011": 10.8552937809,
			"0.012": 9.13241506538,
			"0.013": 1.49236761213,
			"0.014": 0.289161627155,
			"0.015": 0.0,
			"0.016": 0.0,
			"0.017": 0.0,
			"0.018": 0.0,
			"0.019": 0.0,
			"0.02": 0.0,
			"0.021": 0.0,
			"0.022": 0.0,
			"0.023": 0.0,
			"0.024": 0.0,
			"0.025": 0.0
		}
	}
}
