{
	 "smiles": "COC(=O)C1=CC=CC=C1N1C(SC)=NC2=C(C=CC=C2)C1=O", 
	 "Tm": 452.15, 
	 "num_atms": 37, 
	 "gaussian": { 
		 "optdone": 1, 
		 "sigma_profile": "yes", 
		 "theory": "DFT", 
		 "functional": "B3LYP", 
		 "basiset": "6-31G**", 
		 "properties": { 
			 "R2extent": 6956.9438, 
			 "electric_dipole_moment_norm": 3.03321790018, 
			 "electric_quadrupole_moment_norm": 15.164404717, 
			 "total_energy": -1389.64104922, 
			 "HOMO_LUMO_gap": 0.16376, 
			 "cosmo_polarized_energy": -16.96, 
			 "cosmo_cavitation_energy": 42.97, 
			 "cosmo_dispersion_energy": -28.83, 
			 "cosmo_repulsion_energy": 2.17, 
			 "cosmo_total_nonelectrostatic_energy": 16.31, 
			 "SMD_solvation_energy": 8.63 
		},
		"coords": [
			{
				"x": 0.7302498525,
				"y": -2.7103920141,
				"z": 1.1192614941,
				"element": "C" 
			},
			{
				"x": 0.0022012407,
				"y": -1.6493953382,
				"z": 0.4767108842,
				"element": "O" 
			},
			{
				"x": -1.1774847835,
				"y": -2.0096092892,
				"z": -0.0641444325,
				"element": "C" 
			},
			{
				"x": -1.5952072322,
				"y": -3.1507867712,
				"z": -0.0325792441,
				"element": "O" 
			},
			{
				"x": -1.9240365709,
				"y": -0.8857864734,
				"z": -0.7196165808,
				"element": "C" 
			},
			{
				"x": -3.1072234992,
				"y": -1.2564211221,
				"z": -1.3745583454,
				"element": "C" 
			},
			{
				"x": -3.9040761781,
				"y": -0.3158271826,
				"z": -2.0199519479,
				"element": "C" 
			},
			{
				"x": -3.5313252035,
				"y": 1.0281588788,
				"z": -2.0157885674,
				"element": "C" 
			},
			{
				"x": -2.3617748785,
				"y": 1.4175514598,
				"z": -1.3658127732,
				"element": "C" 
			},
			{
				"x": -1.5546793358,
				"y": 0.4746360859,
				"z": -0.7276362935,
				"element": "C" 
			},
			{
				"x": -0.3695117166,
				"y": 0.9631220082,
				"z": -0.0660112878,
				"element": "N" 
			},
			{
				"x": 0.839818058,
				"y": 1.0809447491,
				"z": -0.7366494178,
				"element": "C" 
			},
			{
				"x": 0.7990133582,
				"y": 0.6492632488,
				"z": -2.4650132321,
				"element": "S" 
			},
			{
				"x": 2.5522077314,
				"y": 0.9197823581,
				"z": -2.8865988471,
				"element": "C" 
			},
			{
				"x": 1.9431927577,
				"y": 1.4794522716,
				"z": -0.1959055721,
				"element": "N" 
			},
			{
				"x": 1.9336032134,
				"y": 1.8003357117,
				"z": 1.1518379843,
				"element": "C" 
			},
			{
				"x": 0.7656173952,
				"y": 1.6994356488,
				"z": 1.9389154102,
				"element": "C" 
			},
			{
				"x": 0.7933927803,
				"y": 2.0308907798,
				"z": 3.3030487482,
				"element": "C" 
			},
			{
				"x": 1.974572805,
				"y": 2.4636865996,
				"z": 3.88609803,
				"element": "C" 
			},
			{
				"x": 3.141528873,
				"y": 2.5666976087,
				"z": 3.1069137831,
				"element": "C" 
			},
			{
				"x": 3.1265429381,
				"y": 2.2405752137,
				"z": 1.7592623584,
				"element": "C" 
			},
			{
				"x": -0.4807296794,
				"y": 1.2371164785,
				"z": 1.3244571879,
				"element": "C" 
			},
			{
				"x": -1.5477440452,
				"y": 1.0887761064,
				"z": 1.8995357553,
				"element": "O" 
			},
			{
				"x": 1.6368206151,
				"y": -2.2462586722,
				"z": 1.5061652113,
				"element": "H" 
			},
			{
				"x": 0.1397637618,
				"y": -3.1416773854,
				"z": 1.9307639189,
				"element": "H" 
			},
			{
				"x": 0.9736689887,
				"y": -3.4967493209,
				"z": 0.4008151413,
				"element": "H" 
			},
			{
				"x": -3.3808542149,
				"y": -2.3052102891,
				"z": -1.3568196102,
				"element": "H" 
			},
			{
				"x": -4.8146535595,
				"y": -0.6307985725,
				"z": -2.5201692783,
				"element": "H" 
			},
			{
				"x": -4.1474936822,
				"y": 1.7731508077,
				"z": -2.5097647736,
				"element": "H" 
			},
			{
				"x": -2.0603381856,
				"y": 2.4594036334,
				"z": -1.342252619,
				"element": "H" 
			},
			{
				"x": 2.8322991716,
				"y": 1.9580473482,
				"z": -2.7110092619,
				"element": "H" 
			},
			{
				"x": 3.1927597267,
				"y": 0.2643496405,
				"z": -2.2969609234,
				"element": "H" 
			},
			{
				"x": 2.6344701944,
				"y": 0.6772603139,
				"z": -3.948413608,
				"element": "H" 
			},
			{
				"x": -0.1256883454,
				"y": 1.9381745412,
				"z": 3.8721832645,
				"element": "H" 
			},
			{
				"x": 2.0008315003,
				"y": 2.722961072,
				"z": 4.9399832651,
				"element": "H" 
			},
			{
				"x": 4.0658736491,
				"y": 2.9061040469,
				"z": 3.5661548841,
				"element": "H" 
			},
			{
				"x": 4.0179924992,
				"y": 2.3148358199,
				"z": 1.1451492954,
				"element": "H" 
			}
		],
		 "valence_orbital": [ 
			{
				"type": "occ",
				"energy": -0.26383,
				"method": "rhf"
			},
			{
				"type": "occ",
				"energy": -0.26044,
				"method": "rhf"
			},
			{
				"type": "occ",
				"energy": -0.25902,
				"method": "rhf"
			},
			{
				"type": "occ",
				"energy": -0.25589,
				"method": "rhf"
			},
			{
				"type": "occ",
				"energy": -0.21879,
				"method": "rhf"
			},
			{
				"type": "unocc",
				"energy": -0.05503,
				"method": "rhf"
			},
			{
				"type": "unocc",
				"energy": -0.0399,
				"method": "rhf"
			},
			{
				"type": "unocc",
				"energy": -0.02996,
				"method": "rhf"
			},
			{
				"type": "unocc",
				"energy": -0.02137,
				"method": "rhf"
			},
			{
				"type": "unocc",
				"energy": 0.0303,
				"method": "rhf"
			}
		],
		"cosmo_sigma_profile": { 
			"-0.025": 0.0,
			"-0.024": 0.0,
			"-0.023": 0.0,
			"-0.022": 0.0,
			"-0.021": 0.0,
			"-0.02": 0.0,
			"-0.019": 0.0,
			"-0.018": 0.0,
			"-0.017": 0.0,
			"-0.016": 0.0,
			"-0.015": 0.0,
			"-0.014": 0.0,
			"-0.013": 0.0,
			"-0.012": 0.0,
			"-0.011": 0.0,
			"-0.01": 0.0,
			"-0.009": 0.0,
			"-0.008": 1.79784987268,
			"-0.007": 11.8953227488,
			"-0.006": 25.3127801019,
			"-0.005": 28.7020750244,
			"-0.004": 29.94493749,
			"-0.003": 26.5058671058,
			"-0.002": 24.129162616,
			"-0.001": 20.0471767774,
			"0.0": 23.6117229587,
			"0.001": 26.8687407527,
			"0.002": 31.0029363229,
			"0.003": 29.3027685373,
			"0.004": 17.1244820278,
			"0.005": 8.29394179202,
			"0.006": 7.31076991769,
			"0.007": 5.19766765129,
			"0.008": 4.1682057689,
			"0.009": 4.28340831197,
			"0.01": 3.97758676459,
			"0.011": 6.64829034491,
			"0.012": 7.77603681426,
			"0.013": 0.902250276842,
			"0.014": 0.461295770651,
			"0.015": 0.42067520541,
			"0.016": 0.0604054151601,
			"0.017": 0.185711823094,
			"0.018": 0.157826354746,
			"0.019": 0.0,
			"0.02": 0.0,
			"0.021": 0.0,
			"0.022": 0.0,
			"0.023": 0.0,
			"0.024": 0.0,
			"0.025": 0.0
		}
	}
}
