{
	 "smiles": "CC1=CC=CC2=C1N=CC=C2", 
	 "Tm": 193.15, 
	 "num_atms": 20, 
	 "gaussian": { 
		 "optdone": 1, 
		 "sigma_profile": "yes", 
		 "theory": "DFT", 
		 "functional": "B3LYP", 
		 "basiset": "6-31G**", 
		 "properties": { 
			 "R2extent": 1902.0866, 
			 "electric_dipole_moment_norm": 1.57261363023, 
			 "electric_quadrupole_moment_norm": 7.03420795541, 
			 "total_energy": -441.253737702, 
			 "HOMO_LUMO_gap": 0.17472, 
			 "cosmo_polarized_energy": -6.07, 
			 "cosmo_cavitation_energy": 23.25, 
			 "cosmo_dispersion_energy": -17.46, 
			 "cosmo_repulsion_energy": 1.38, 
			 "cosmo_total_nonelectrostatic_energy": 7.17, 
			 "SMD_solvation_energy": 2.84 
		},
		"coords": [
			{
				"x": 1.4804051787,
				"y": -0.2630169087,
				"z": 2.6318554431,
				"element": "C" 
			},
			{
				"x": 1.7778990243,
				"y": -0.1644149077,
				"z": 1.1590684457,
				"element": "C" 
			},
			{
				"x": 2.9451854443,
				"y": -0.6633684836,
				"z": 0.6146791571,
				"element": "C" 
			},
			{
				"x": 3.2256354904,
				"y": -0.5709081469,
				"z": -0.7710417506,
				"element": "C" 
			},
			{
				"x": 2.3299258827,
				"y": 0.0272015017,
				"z": -1.6251334446,
				"element": "C" 
			},
			{
				"x": 1.1144251055,
				"y": 0.5567810745,
				"z": -1.1171258059,
				"element": "C" 
			},
			{
				"x": 0.8321189572,
				"y": 0.4625524499,
				"z": 0.2842791377,
				"element": "C" 
			},
			{
				"x": -0.3197186653,
				"y": 0.9540458857,
				"z": 0.8268177626,
				"element": "N" 
			},
			{
				"x": -1.1910373941,
				"y": 1.5313633982,
				"z": 0.0232020926,
				"element": "C" 
			},
			{
				"x": -1.0089743985,
				"y": 1.6756628796,
				"z": -1.3739273248,
				"element": "C" 
			},
			{
				"x": 0.1454910927,
				"y": 1.1865525687,
				"z": -1.9386476716,
				"element": "C" 
			},
			{
				"x": 2.2946010543,
				"y": -0.7646260208,
				"z": 3.1619201845,
				"element": "H" 
			},
			{
				"x": 0.5521358062,
				"y": -0.8151559187,
				"z": 2.8097491104,
				"element": "H" 
			},
			{
				"x": 1.3333227227,
				"y": 0.7288396105,
				"z": 3.0709045739,
				"element": "H" 
			},
			{
				"x": 3.6712576726,
				"y": -1.1414776399,
				"z": 1.2673620988,
				"element": "H" 
			},
			{
				"x": 4.1572867885,
				"y": -0.9779719531,
				"z": -1.1534884436,
				"element": "H" 
			},
			{
				"x": 2.536321161,
				"y": 0.1028425054,
				"z": -2.6897204861,
				"element": "H" 
			},
			{
				"x": -2.09982478,
				"y": 1.9128477114,
				"z": 0.4885043956,
				"element": "H" 
			},
			{
				"x": -1.7713849479,
				"y": 2.1632546337,
				"z": -1.9733334623,
				"element": "H" 
			},
			{
				"x": 0.3294288047,
				"y": 1.27419576,
				"z": -3.0068240124,
				"element": "H" 
			}
		],
		 "valence_orbital": [ 
			{
				"type": "occ",
				"energy": -0.33541,
				"method": "rhf"
			},
			{
				"type": "occ",
				"energy": -0.29608,
				"method": "rhf"
			},
			{
				"type": "occ",
				"energy": -0.24954,
				"method": "rhf"
			},
			{
				"type": "occ",
				"energy": -0.24772,
				"method": "rhf"
			},
			{
				"type": "occ",
				"energy": -0.22362,
				"method": "rhf"
			},
			{
				"type": "unocc",
				"energy": -0.0489,
				"method": "rhf"
			},
			{
				"type": "unocc",
				"energy": -0.01269,
				"method": "rhf"
			},
			{
				"type": "unocc",
				"energy": 0.02595,
				"method": "rhf"
			},
			{
				"type": "unocc",
				"energy": 0.09248,
				"method": "rhf"
			},
			{
				"type": "unocc",
				"energy": 0.09477,
				"method": "rhf"
			}
		],
		"cosmo_sigma_profile": { 
			"-0.025": 0.0,
			"-0.024": 0.0,
			"-0.023": 0.0,
			"-0.022": 0.0,
			"-0.021": 0.0,
			"-0.02": 0.0,
			"-0.019": 0.0,
			"-0.018": 0.0,
			"-0.017": 0.0,
			"-0.016": 0.0,
			"-0.015": 0.0,
			"-0.014": 0.0,
			"-0.013": 0.0,
			"-0.012": 0.0,
			"-0.011": 0.0,
			"-0.01": 0.0,
			"-0.009": 0.0,
			"-0.008": 0.0458270634123,
			"-0.007": 3.6331360356,
			"-0.006": 11.563715039,
			"-0.005": 14.0909479051,
			"-0.004": 15.2209490001,
			"-0.003": 13.8398307115,
			"-0.002": 12.3013776393,
			"-0.001": 13.7383559945,
			"0.0": 14.3777298727,
			"0.001": 16.5787932251,
			"0.002": 20.1751749862,
			"0.003": 20.2990310895,
			"0.004": 10.7805520666,
			"0.005": 8.058061951,
			"0.006": 2.37543001099,
			"0.007": 1.49696102613,
			"0.008": 1.23490934833,
			"0.009": 0.891428602823,
			"0.01": 1.57097300721,
			"0.011": 1.01386609846,
			"0.012": 1.00774823361,
			"0.013": 0.72195690656,
			"0.014": 0.548028960242,
			"0.015": 0.462352582198,
			"0.016": 0.0,
			"0.017": 0.0,
			"0.018": 0.0,
			"0.019": 0.0,
			"0.02": 0.0,
			"0.021": 0.0,
			"0.022": 0.0,
			"0.023": 0.0,
			"0.024": 0.0,
			"0.025": 0.0
		}
	}
}
