{
	 "smiles": "OC(=O)C1=CC=C(SCC2=CC=CC=C2)C=C1", 
	 "Tm": 458.15, 
	 "num_atms": 29, 
	 "gaussian": { 
		 "optdone": 1, 
		 "sigma_profile": "yes", 
		 "theory": "DFT", 
		 "functional": "B3LYP", 
		 "basiset": "6-31G**", 
		 "properties": { 
			 "R2extent": 5591.3787, 
			 "electric_dipole_moment_norm": 4.56084133138, 
			 "electric_quadrupole_moment_norm": 19.4288456497, 
			 "total_energy": -1089.36659896, 
			 "HOMO_LUMO_gap": 0.17024, 
			 "cosmo_polarized_energy": -17.03, 
			 "cosmo_cavitation_energy": 35.56, 
			 "cosmo_dispersion_energy": -24.68, 
			 "cosmo_repulsion_energy": 1.89, 
			 "cosmo_total_nonelectrostatic_energy": 12.77, 
			 "SMD_solvation_energy": 6.47 
		},
		"coords": [
			{
				"x": -0.8781484231,
				"y": -3.1484035757,
				"z": -3.4494954831,
				"element": "O" 
			},
			{
				"x": -1.8050778968,
				"y": -2.1745774034,
				"z": -3.2428279675,
				"element": "C" 
			},
			{
				"x": -2.9529917219,
				"y": -2.3543346852,
				"z": -3.5758593924,
				"element": "O" 
			},
			{
				"x": -1.3259455356,
				"y": -0.9104831457,
				"z": -2.5947786205,
				"element": "C" 
			},
			{
				"x": 0.0182134413,
				"y": -0.5158402699,
				"z": -2.5785440249,
				"element": "C" 
			},
			{
				"x": 0.4004234256,
				"y": 0.6731284313,
				"z": -1.9583145773,
				"element": "C" 
			},
			{
				"x": -0.5606975329,
				"y": 1.4957755402,
				"z": -1.3580308864,
				"element": "C" 
			},
			{
				"x": -0.0499653589,
				"y": 3.0470699289,
				"z": -0.6247867265,
				"element": "S" 
			},
			{
				"x": -0.5441751203,
				"y": 2.8084956205,
				"z": 1.1538462074,
				"element": "C" 
			},
			{
				"x": 0.2295468559,
				"y": 1.745644624,
				"z": 1.8873642809,
				"element": "C" 
			},
			{
				"x": -0.3437296546,
				"y": 0.4921493057,
				"z": 2.1362792496,
				"element": "C" 
			},
			{
				"x": 0.3710769153,
				"y": -0.4966561793,
				"z": 2.815661785,
				"element": "C" 
			},
			{
				"x": 1.6704102345,
				"y": -0.2432708397,
				"z": 3.2552782305,
				"element": "C" 
			},
			{
				"x": 2.2520197798,
				"y": 1.0042125245,
				"z": 3.0115296858,
				"element": "C" 
			},
			{
				"x": 1.5373656233,
				"y": 1.9886924555,
				"z": 2.3321210528,
				"element": "C" 
			},
			{
				"x": -1.9125590861,
				"y": 1.1172571127,
				"z": -1.4023840264,
				"element": "C" 
			},
			{
				"x": -2.2889426879,
				"y": -0.074006664,
				"z": -2.0111512552,
				"element": "C" 
			},
			{
				"x": -0.055316449,
				"y": -2.9307353129,
				"z": -2.9904046971,
				"element": "H" 
			},
			{
				"x": 0.7824200366,
				"y": -1.1136929599,
				"z": -3.069943813,
				"element": "H" 
			},
			{
				"x": 1.4442565011,
				"y": 0.9674990367,
				"z": -1.9371956577,
				"element": "H" 
			},
			{
				"x": -1.6190564383,
				"y": 2.6165332763,
				"z": 1.190603216,
				"element": "H" 
			},
			{
				"x": -0.3706390509,
				"y": 3.7987765012,
				"z": 1.585662596,
				"element": "H" 
			},
			{
				"x": -1.3567712979,
				"y": 0.2899736674,
				"z": 1.7985353592,
				"element": "H" 
			},
			{
				"x": -0.0899716013,
				"y": -1.4621913508,
				"z": 3.003477028,
				"element": "H" 
			},
			{
				"x": 2.2264565699,
				"y": -1.0097715813,
				"z": 3.7873039639,
				"element": "H" 
			},
			{
				"x": 3.2619404585,
				"y": 1.2102494737,
				"z": 3.3546586238,
				"element": "H" 
			},
			{
				"x": 1.9960552216,
				"y": 2.955496723,
				"z": 2.1401970794,
				"element": "H" 
			},
			{
				"x": -2.6685493693,
				"y": 1.7669355397,
				"z": -0.9721468647,
				"element": "H" 
			},
			{
				"x": -3.3303478386,
				"y": -0.3736257936,
				"z": -2.0606543656,
				"element": "H" 
			}
		],
		 "valence_orbital": [ 
			{
				"type": "occ",
				"energy": -0.27678,
				"method": "rhf"
			},
			{
				"type": "occ",
				"energy": -0.26969,
				"method": "rhf"
			},
			{
				"type": "occ",
				"energy": -0.25813,
				"method": "rhf"
			},
			{
				"type": "occ",
				"energy": -0.25386,
				"method": "rhf"
			},
			{
				"type": "occ",
				"energy": -0.23116,
				"method": "rhf"
			},
			{
				"type": "unocc",
				"energy": -0.06092,
				"method": "rhf"
			},
			{
				"type": "unocc",
				"energy": -0.02719,
				"method": "rhf"
			},
			{
				"type": "unocc",
				"energy": -0.01821,
				"method": "rhf"
			},
			{
				"type": "unocc",
				"energy": -0.00745,
				"method": "rhf"
			},
			{
				"type": "unocc",
				"energy": 0.03069,
				"method": "rhf"
			}
		],
		"cosmo_sigma_profile": { 
			"-0.025": 0.0,
			"-0.024": 0.0,
			"-0.023": 0.0,
			"-0.022": 0.0,
			"-0.021": 0.0,
			"-0.02": 0.0,
			"-0.019": 0.196839267817,
			"-0.018": 0.948511154841,
			"-0.017": 0.870531916445,
			"-0.016": 1.58510550567,
			"-0.015": 0.725921334217,
			"-0.014": 0.47625899965,
			"-0.013": 0.976262651438,
			"-0.012": 1.74279623178,
			"-0.011": 1.08820346015,
			"-0.01": 1.09051991251,
			"-0.009": 1.63630288916,
			"-0.008": 1.90214098287,
			"-0.007": 8.45361854654,
			"-0.006": 17.1144918135,
			"-0.005": 21.7467629099,
			"-0.004": 21.0459744607,
			"-0.003": 20.695766059,
			"-0.002": 17.7461211222,
			"-0.001": 16.6991856722,
			"0.0": 16.2425551338,
			"0.001": 17.0539014701,
			"0.002": 22.76727253,
			"0.003": 19.3460718516,
			"0.004": 14.7152204973,
			"0.005": 15.8626011648,
			"0.006": 13.4502536862,
			"0.007": 4.7815614527,
			"0.008": 3.99870611888,
			"0.009": 5.28218164635,
			"0.01": 4.65711359437,
			"0.011": 5.41124083817,
			"0.012": 4.67742735909,
			"0.013": 1.30482061109,
			"0.014": 0.00740702790419,
			"0.015": 0.0,
			"0.016": 0.0,
			"0.017": 0.0,
			"0.018": 0.0,
			"0.019": 0.0,
			"0.02": 0.0,
			"0.021": 0.0,
			"0.022": 0.0,
			"0.023": 0.0,
			"0.024": 0.0,
			"0.025": 0.0
		}
	}
}
