{
	 "smiles": "COCC(=O)O[C@@H]([C@@H](C)F)C1=C(C=CC=N1)S(=O)(=O)NC(=O)NC1=NC(OC)=CC(OC)=N1", 
	 "Tm": 453.15, 
	 "num_atms": 55, 
	 "gaussian": { 
		 "optdone": 1, 
		 "sigma_profile": "yes", 
		 "theory": "DFT", 
		 "functional": "B3LYP", 
		 "basiset": "6-31G**", 
		 "properties": { 
			 "R2extent": 15248.3851, 
			 "electric_dipole_moment_norm": 8.79436771235, 
			 "electric_quadrupole_moment_norm": 21.7628839169, 
			 "total_energy": -2072.66908976, 
			 "HOMO_LUMO_gap": 0.19105, 
			 "cosmo_polarized_energy": -29.47, 
			 "cosmo_cavitation_energy": 59.81, 
			 "cosmo_dispersion_energy": -38.25, 
			 "cosmo_repulsion_energy": 2.83, 
			 "cosmo_total_nonelectrostatic_energy": 24.39, 
			 "SMD_solvation_energy": 11.81 
		},
		"coords": [
			{
				"x": 0.6101038978,
				"y": -6.7689936947,
				"z": -0.3219371306,
				"element": "C" 
			},
			{
				"x": 1.5616536514,
				"y": -5.7169428559,
				"z": -0.3648290872,
				"element": "O" 
			},
			{
				"x": 1.0541004554,
				"y": -4.474165049,
				"z": 0.028475131,
				"element": "C" 
			},
			{
				"x": 0.138710137,
				"y": -3.8345785876,
				"z": -1.01042539,
				"element": "C" 
			},
			{
				"x": -0.1549586766,
				"y": -4.290709572,
				"z": -2.0886933954,
				"element": "O" 
			},
			{
				"x": -0.311349596,
				"y": -2.6397430019,
				"z": -0.5317625993,
				"element": "O" 
			},
			{
				"x": -1.2077759495,
				"y": -1.8880225355,
				"z": -1.3636871552,
				"element": "C" 
			},
			{
				"x": -2.3288613899,
				"y": -1.3757766258,
				"z": -0.4475957266,
				"element": "C" 
			},
			{
				"x": -3.3429668898,
				"y": -0.4862177179,
				"z": -1.1448003777,
				"element": "C" 
			},
			{
				"x": -2.9899151172,
				"y": -2.5182799765,
				"z": 0.0178821601,
				"element": "F" 
			},
			{
				"x": -0.4681856391,
				"y": -0.8141765354,
				"z": -2.1512278823,
				"element": "C" 
			},
			{
				"x": 0.6139252384,
				"y": -0.0285633893,
				"z": -1.6992225189,
				"element": "C" 
			},
			{
				"x": 1.1986326946,
				"y": 0.8914806995,
				"z": -2.5707882788,
				"element": "C" 
			},
			{
				"x": 0.6943451052,
				"y": 1.0219321741,
				"z": -3.8586792078,
				"element": "C" 
			},
			{
				"x": -0.395441274,
				"y": 0.2326962399,
				"z": -4.2152439807,
				"element": "C" 
			},
			{
				"x": -0.954960692,
				"y": -0.6551871611,
				"z": -3.3913575834,
				"element": "N" 
			},
			{
				"x": 1.3519437974,
				"y": -0.2354108564,
				"z": -0.0588349737,
				"element": "S" 
			},
			{
				"x": 0.3309402405,
				"y": -0.1585146172,
				"z": 0.9805451498,
				"element": "O" 
			},
			{
				"x": 2.3035323531,
				"y": -1.3476104249,
				"z": -0.1360675176,
				"element": "O" 
			},
			{
				"x": 2.3854716439,
				"y": 1.1441602786,
				"z": 0.0950687653,
				"element": "N" 
			},
			{
				"x": 2.4335386162,
				"y": 2.016165975,
				"z": 1.2062273999,
				"element": "C" 
			},
			{
				"x": 3.5084504787,
				"y": 2.2427986095,
				"z": 1.7346409791,
				"element": "O" 
			},
			{
				"x": 1.2814963911,
				"y": 2.6096901545,
				"z": 1.6861929029,
				"element": "N" 
			},
			{
				"x": 0.0674441626,
				"y": 2.9759390206,
				"z": 1.1134973207,
				"element": "C" 
			},
			{
				"x": -0.7149036877,
				"y": 3.6612202635,
				"z": 1.9678371428,
				"element": "N" 
			},
			{
				"x": -1.8731890535,
				"y": 4.0769292099,
				"z": 1.4668536814,
				"element": "C" 
			},
			{
				"x": -2.7229023071,
				"y": 4.7639954786,
				"z": 2.2412873875,
				"element": "O" 
			},
			{
				"x": -2.3353526386,
				"y": 5.0062727268,
				"z": 3.6020867453,
				"element": "C" 
			},
			{
				"x": -2.2707036784,
				"y": 3.835978553,
				"z": 0.1418196031,
				"element": "C" 
			},
			{
				"x": -1.3625804243,
				"y": 3.1138196497,
				"z": -0.6264821436,
				"element": "C" 
			},
			{
				"x": -1.5641283677,
				"y": 2.7801087296,
				"z": -1.9178434373,
				"element": "O" 
			},
			{
				"x": -2.7398049166,
				"y": 3.2631266381,
				"z": -2.5663452941,
				"element": "C" 
			},
			{
				"x": -0.1843019565,
				"y": 2.6766227234,
				"z": -0.1513241721,
				"element": "N" 
			},
			{
				"x": 0.1841000321,
				"y": -6.8807718644,
				"z": 0.6877325501,
				"element": "H" 
			},
			{
				"x": -0.2029956795,
				"y": -6.6127834079,
				"z": -1.0400809624,
				"element": "H" 
			},
			{
				"x": 1.1443278535,
				"y": -7.685800878,
				"z": -0.5816017904,
				"element": "H" 
			},
			{
				"x": 1.8982292941,
				"y": -3.7931399647,
				"z": 0.1777370747,
				"element": "H" 
			},
			{
				"x": 0.5021033119,
				"y": -4.5233152896,
				"z": 0.9817922401,
				"element": "H" 
			},
			{
				"x": -1.6473949195,
				"y": -2.555716379,
				"z": -2.1070123404,
				"element": "H" 
			},
			{
				"x": -1.8863740652,
				"y": -0.8776100471,
				"z": 0.4195281531,
				"element": "H" 
			},
			{
				"x": -3.7477078802,
				"y": -0.9771815506,
				"z": -2.0342128307,
				"element": "H" 
			},
			{
				"x": -2.8851381997,
				"y": 0.4582934554,
				"z": -1.4478908699,
				"element": "H" 
			},
			{
				"x": -4.1645871403,
				"y": -0.2745407679,
				"z": -0.4551442323,
				"element": "H" 
			},
			{
				"x": 2.0163449309,
				"y": 1.5126311376,
				"z": -2.2289142663,
				"element": "H" 
			},
			{
				"x": 1.1291587592,
				"y": 1.7260554858,
				"z": -4.5599072571,
				"element": "H" 
			},
			{
				"x": -0.8359084624,
				"y": 0.3049427703,
				"z": -5.2079722176,
				"element": "H" 
			},
			{
				"x": 3.3370557493,
				"y": 0.8124714138,
				"z": -0.0541706467,
				"element": "H" 
			},
			{
				"x": 1.4439685506,
				"y": 3.0570381444,
				"z": 2.5792385696,
				"element": "H" 
			},
			{
				"x": -2.1788984499,
				"y": 4.0658232427,
				"z": 4.136222427,
				"element": "H" 
			},
			{
				"x": -3.1654058808,
				"y": 5.5604385016,
				"z": 4.0404382938,
				"element": "H" 
			},
			{
				"x": -1.4165898582,
				"y": 5.5965797227,
				"z": 3.6469779561,
				"element": "H" 
			},
			{
				"x": -3.2233702376,
				"y": 4.1971473527,
				"z": -0.2151950143,
				"element": "H" 
			},
			{
				"x": -2.775896694,
				"y": 4.3581799017,
				"z": -2.5555173905,
				"element": "H" 
			},
			{
				"x": -3.646981067,
				"y": 2.8612991071,
				"z": -2.1014588822,
				"element": "H" 
			},
			{
				"x": -2.6747465561,
				"y": 2.9088153902,
				"z": -3.5949550801,
				"element": "H" 
			}
		],
		 "valence_orbital": [ 
			{
				"type": "occ",
				"energy": -0.27994,
				"method": "rhf"
			},
			{
				"type": "occ",
				"energy": -0.27709,
				"method": "rhf"
			},
			{
				"type": "occ",
				"energy": -0.27263,
				"method": "rhf"
			},
			{
				"type": "occ",
				"energy": -0.25014,
				"method": "rhf"
			},
			{
				"type": "occ",
				"energy": -0.24425,
				"method": "rhf"
			},
			{
				"type": "unocc",
				"energy": -0.0532,
				"method": "rhf"
			},
			{
				"type": "unocc",
				"energy": -0.04585,
				"method": "rhf"
			},
			{
				"type": "unocc",
				"energy": -0.03685,
				"method": "rhf"
			},
			{
				"type": "unocc",
				"energy": -0.02315,
				"method": "rhf"
			},
			{
				"type": "unocc",
				"energy": 0.01027,
				"method": "rhf"
			}
		],
		"cosmo_sigma_profile": { 
			"-0.025": 0.0,
			"-0.024": 0.0,
			"-0.023": 0.0,
			"-0.022": 0.0,
			"-0.021": 0.0,
			"-0.02": 0.0,
			"-0.019": 0.0,
			"-0.018": 0.0,
			"-0.017": 0.0,
			"-0.016": 0.179910788499,
			"-0.015": 1.11740269897,
			"-0.014": 1.05065322454,
			"-0.013": 1.46430946815,
			"-0.012": 1.85402727144,
			"-0.011": 1.6094784107,
			"-0.01": 2.35741177524,
			"-0.009": 2.36184389413,
			"-0.008": 8.92299121033,
			"-0.007": 15.702403677,
			"-0.006": 24.4789904137,
			"-0.005": 31.7317450968,
			"-0.004": 39.6011762542,
			"-0.003": 43.154253998,
			"-0.002": 43.6461199722,
			"-0.001": 35.6977492146,
			"0.0": 30.7747105426,
			"0.001": 24.2402778645,
			"0.002": 21.4971571346,
			"0.003": 18.1158735008,
			"0.004": 17.7733623299,
			"0.005": 18.0574568582,
			"0.006": 20.4777615177,
			"0.007": 15.8816513052,
			"0.008": 13.1503874036,
			"0.009": 12.3470389774,
			"0.01": 9.1970049063,
			"0.011": 11.8151285399,
			"0.012": 5.9514962394,
			"0.013": 0.806878716106,
			"0.014": 0.0382065783145,
			"0.015": 0.0,
			"0.016": 0.0,
			"0.017": 0.0,
			"0.018": 0.0,
			"0.019": 0.0,
			"0.02": 0.0,
			"0.021": 0.0,
			"0.022": 0.0,
			"0.023": 0.0,
			"0.024": 0.0,
			"0.025": 0.0
		}
	}
}
