{
	 "smiles": "OC1(N2CCN=C2C2=CC=CC=C12)C1=CC=C(Cl)C=C1", 
	 "Tm": 471.65, 
	 "num_atms": 33, 
	 "gaussian": { 
		 "optdone": 1, 
		 "sigma_profile": "yes", 
		 "theory": "DFT", 
		 "functional": "B3LYP", 
		 "basiset": "6-31G**", 
		 "properties": { 
			 "R2extent": 6990.3269, 
			 "electric_dipole_moment_norm": 2.06085246439, 
			 "electric_quadrupole_moment_norm": 17.5780604058, 
			 "total_energy": -1262.44648028, 
			 "HOMO_LUMO_gap": 0.17904, 
			 "cosmo_polarized_energy": -12.03, 
			 "cosmo_cavitation_energy": 37.75, 
			 "cosmo_dispersion_energy": -26.63, 
			 "cosmo_repulsion_energy": 2.05, 
			 "cosmo_total_nonelectrostatic_energy": 13.17, 
			 "SMD_solvation_energy": 1.24 
		},
		"coords": [
			{
				"x": 0.2571798327,
				"y": -1.8458814481,
				"z": -2.2028070418,
				"element": "O" 
			},
			{
				"x": 0.3985257856,
				"y": -1.0020745438,
				"z": -1.0727221655,
				"element": "C" 
			},
			{
				"x": -0.5727652643,
				"y": 0.0962045333,
				"z": -1.0992537104,
				"element": "N" 
			},
			{
				"x": -0.4866444414,
				"y": 1.426444076,
				"z": -1.7044131856,
				"element": "C" 
			},
			{
				"x": -1.6135337781,
				"y": 2.1560406093,
				"z": -0.9013573717,
				"element": "C" 
			},
			{
				"x": -1.8312611415,
				"y": 1.3701604585,
				"z": 0.3362274312,
				"element": "N" 
			},
			{
				"x": -1.2291482022,
				"y": 0.2603921642,
				"z": 0.1269512041,
				"element": "C" 
			},
			{
				"x": -0.9778191609,
				"y": -0.9450438871,
				"z": 0.9233525443,
				"element": "C" 
			},
			{
				"x": -1.504142624,
				"y": -1.3773684763,
				"z": 2.1388567638,
				"element": "C" 
			},
			{
				"x": -1.0585182207,
				"y": -2.5996920746,
				"z": 2.6465582964,
				"element": "C" 
			},
			{
				"x": -0.1123210304,
				"y": -3.3639989183,
				"z": 1.9494757702,
				"element": "C" 
			},
			{
				"x": 0.4167687814,
				"y": -2.9212517651,
				"z": 0.7323906909,
				"element": "C" 
			},
			{
				"x": -0.0217362178,
				"y": -1.7011816788,
				"z": 0.2313977238,
				"element": "C" 
			},
			{
				"x": 1.8534118774,
				"y": -0.5244792019,
				"z": -1.0523738058,
				"element": "C" 
			},
			{
				"x": 2.3244078244,
				"y": 0.2347233906,
				"z": 0.02774572,
				"element": "C" 
			},
			{
				"x": 3.6348453713,
				"y": 0.7063955563,
				"z": 0.0562868208,
				"element": "C" 
			},
			{
				"x": 4.4855174586,
				"y": 0.4108420111,
				"z": -1.0094150232,
				"element": "C" 
			},
			{
				"x": 6.143224981,
				"y": 0.9968388609,
				"z": -0.9798895693,
				"element": "Cl" 
			},
			{
				"x": 4.0408960156,
				"y": -0.3415406959,
				"z": -2.0936127842,
				"element": "C" 
			},
			{
				"x": 2.723497791,
				"y": -0.80369819,
				"z": -2.1106022134,
				"element": "C" 
			},
			{
				"x": -0.6884524731,
				"y": -2.0329409295,
				"z": -2.2832729626,
				"element": "H" 
			},
			{
				"x": -0.6743340999,
				"y": 1.4003089071,
				"z": -2.780924817,
				"element": "H" 
			},
			{
				"x": 0.4997248863,
				"y": 1.8796802229,
				"z": -1.533094037,
				"element": "H" 
			},
			{
				"x": -1.3502539115,
				"y": 3.1894420877,
				"z": -0.6574573535,
				"element": "H" 
			},
			{
				"x": -2.5493511656,
				"y": 2.184283349,
				"z": -1.475704701,
				"element": "H" 
			},
			{
				"x": -2.2399054181,
				"y": -0.7782345422,
				"z": 2.6654561827,
				"element": "H" 
			},
			{
				"x": -1.450576045,
				"y": -2.9653849642,
				"z": 3.5909746412,
				"element": "H" 
			},
			{
				"x": 0.2154703593,
				"y": -4.3137089956,
				"z": 2.3623474082,
				"element": "H" 
			},
			{
				"x": 1.1506649305,
				"y": -3.5122357835,
				"z": 0.1929085731,
				"element": "H" 
			},
			{
				"x": 1.6666974602,
				"y": 0.4588700529,
				"z": 0.8623235528,
				"element": "H" 
			},
			{
				"x": 3.9946227124,
				"y": 1.2921992794,
				"z": 0.8948111014,
				"element": "H" 
			},
			{
				"x": 4.714218589,
				"y": -0.5637799376,
				"z": -2.9142115398,
				"element": "H" 
			},
			{
				"x": 2.3676885376,
				"y": -1.3891295267,
				"z": -2.949252143,
				"element": "H" 
			}
		],
		 "valence_orbital": [ 
			{
				"type": "occ",
				"energy": -0.26499,
				"method": "rhf"
			},
			{
				"type": "occ",
				"energy": -0.26301,
				"method": "rhf"
			},
			{
				"type": "occ",
				"energy": -0.2561,
				"method": "rhf"
			},
			{
				"type": "occ",
				"energy": -0.24344,
				"method": "rhf"
			},
			{
				"type": "occ",
				"energy": -0.21964,
				"method": "rhf"
			},
			{
				"type": "unocc",
				"energy": -0.0406,
				"method": "rhf"
			},
			{
				"type": "unocc",
				"energy": -0.02325,
				"method": "rhf"
			},
			{
				"type": "unocc",
				"energy": -0.0183,
				"method": "rhf"
			},
			{
				"type": "unocc",
				"energy": -0.01152,
				"method": "rhf"
			},
			{
				"type": "unocc",
				"energy": 0.03034,
				"method": "rhf"
			}
		],
		"cosmo_sigma_profile": { 
			"-0.025": 0.0,
			"-0.024": 0.0,
			"-0.023": 0.0,
			"-0.022": 0.0,
			"-0.021": 0.0,
			"-0.02": 0.0,
			"-0.019": 0.0,
			"-0.018": 0.0,
			"-0.017": 0.0,
			"-0.016": 0.395907156599,
			"-0.015": 0.775443519217,
			"-0.014": 0.919431456733,
			"-0.013": 0.506366209136,
			"-0.012": 0.635596356536,
			"-0.011": 1.14753977147,
			"-0.01": 0.738189439843,
			"-0.009": 0.628107499935,
			"-0.008": 0.914242029101,
			"-0.007": 6.84788752281,
			"-0.006": 15.0404171813,
			"-0.005": 18.7176425703,
			"-0.004": 25.1976045337,
			"-0.003": 25.5913396389,
			"-0.002": 23.3958187525,
			"-0.001": 18.9384131341,
			"0.0": 20.3348815456,
			"0.001": 25.1146245355,
			"0.002": 29.6630352185,
			"0.003": 33.2543350451,
			"0.004": 23.0547442596,
			"0.005": 10.3174254763,
			"0.006": 3.06015053095,
			"0.007": 2.9266806661,
			"0.008": 2.23513317984,
			"0.009": 3.14962194147,
			"0.01": 1.96638535568,
			"0.011": 1.84370835196,
			"0.012": 0.525104326398,
			"0.013": 1.05136031956,
			"0.014": 1.6390905696,
			"0.015": 0.732059746081,
			"0.016": 0.787651698609,
			"0.017": 1.12476385847,
			"0.018": 0.756381902671,
			"0.019": 0.0152138856796,
			"0.02": 0.0,
			"0.021": 0.0,
			"0.022": 0.0,
			"0.023": 0.0,
			"0.024": 0.0,
			"0.025": 0.0
		}
	}
}
