{
	 "smiles": "NC1=C(C=CC=C1Br)C(O)=O", 
	 "Tm": 447.15, 
	 "num_atms": 17, 
	 "gaussian": { 
		 "optdone": 1, 
		 "sigma_profile": "yes", 
		 "theory": "DFT", 
		 "functional": "B3LYP", 
		 "basiset": "6-31G**", 
		 "properties": { 
			 "R2extent": 3010.5012, 
			 "electric_dipole_moment_norm": 1.76234190497, 
			 "electric_quadrupole_moment_norm": 15.0297129374, 
			 "total_energy": -3046.98954933, 
			 "HOMO_LUMO_gap": 0.16463, 
			 "cosmo_polarized_energy": -10.01, 
			 "cosmo_cavitation_energy": 23.25, 
			 "cosmo_dispersion_energy": -18.25, 
			 "cosmo_repulsion_energy": 1.45, 
			 "cosmo_total_nonelectrostatic_energy": 6.46, 
			 "SMD_solvation_energy": 3.94 
		},
		"coords": [
			{
				"x": -0.6282536588,
				"y": 1.6306995601,
				"z": -1.1351292827,
				"element": "N" 
			},
			{
				"x": -0.1998088803,
				"y": 0.4054155979,
				"z": -0.7325395439,
				"element": "C" 
			},
			{
				"x": 0.2618818609,
				"y": 0.1234795491,
				"z": 0.5911814153,
				"element": "C" 
			},
			{
				"x": 0.6601957962,
				"y": -1.180597841,
				"z": 0.9367538929,
				"element": "C" 
			},
			{
				"x": 0.6286699358,
				"y": -2.222319925,
				"z": 0.0261471753,
				"element": "C" 
			},
			{
				"x": 0.1869334973,
				"y": -1.9653539966,
				"z": -1.2769943357,
				"element": "C" 
			},
			{
				"x": -0.2120102071,
				"y": -0.6907187431,
				"z": -1.6367161641,
				"element": "C" 
			},
			{
				"x": -0.806584659,
				"y": -0.4010884048,
				"z": -3.440585636,
				"element": "Br" 
			},
			{
				"x": 0.370099448,
				"y": 1.1167306968,
				"z": 1.6828947939,
				"element": "C" 
			},
			{
				"x": 0.0162399673,
				"y": 2.3953727481,
				"z": 1.3420043419,
				"element": "O" 
			},
			{
				"x": 0.7439431169,
				"y": 0.8728999901,
				"z": 2.8141129938,
				"element": "O" 
			},
			{
				"x": -0.8439196929,
				"y": 1.772215105,
				"z": -2.1083238956,
				"element": "H" 
			},
			{
				"x": -0.529812616,
				"y": 2.4185514883,
				"z": -0.5170350837,
				"element": "H" 
			},
			{
				"x": 0.9983899534,
				"y": -1.3365311253,
				"z": 1.9548835633,
				"element": "H" 
			},
			{
				"x": 0.9405740153,
				"y": -3.2213436365,
				"z": 0.3098562556,
				"element": "H" 
			},
			{
				"x": 0.1529882721,
				"y": -2.7582009493,
				"z": -2.0161892659,
				"element": "H" 
			},
			{
				"x": 0.141773851,
				"y": 2.9187898863,
				"z": 2.1506787756,
				"element": "H" 
			}
		],
		 "valence_orbital": [ 
			{
				"type": "occ",
				"energy": -0.31331,
				"method": "rhf"
			},
			{
				"type": "occ",
				"energy": -0.29982,
				"method": "rhf"
			},
			{
				"type": "occ",
				"energy": -0.28108,
				"method": "rhf"
			},
			{
				"type": "occ",
				"energy": -0.25317,
				"method": "rhf"
			},
			{
				"type": "occ",
				"energy": -0.21333,
				"method": "rhf"
			},
			{
				"type": "unocc",
				"energy": -0.0487,
				"method": "rhf"
			},
			{
				"type": "unocc",
				"energy": 0.00067,
				"method": "rhf"
			},
			{
				"type": "unocc",
				"energy": 0.00211,
				"method": "rhf"
			},
			{
				"type": "unocc",
				"energy": 0.05222,
				"method": "rhf"
			},
			{
				"type": "unocc",
				"energy": 0.07069,
				"method": "rhf"
			}
		],
		"cosmo_sigma_profile": { 
			"-0.025": 0.0,
			"-0.024": 0.0,
			"-0.023": 0.0,
			"-0.022": 0.0,
			"-0.021": 0.0,
			"-0.02": 0.0,
			"-0.019": 0.0494161331451,
			"-0.018": 0.857456632358,
			"-0.017": 0.960716175914,
			"-0.016": 0.874894179968,
			"-0.015": 0.65886958289,
			"-0.014": 0.257991811493,
			"-0.013": 0.657082251266,
			"-0.012": 1.29382809036,
			"-0.011": 2.05870845883,
			"-0.01": 3.02854663666,
			"-0.009": 1.61334678624,
			"-0.008": 2.4874985688,
			"-0.007": 4.34258611469,
			"-0.006": 6.27934653899,
			"-0.005": 8.57469134044,
			"-0.004": 9.08452020863,
			"-0.003": 9.45866450366,
			"-0.002": 9.77513989446,
			"-0.001": 13.7391692575,
			"0.0": 14.5361318294,
			"0.001": 17.60294611,
			"0.002": 22.0669783061,
			"0.003": 20.319036547,
			"0.004": 16.7219158467,
			"0.005": 5.61002442309,
			"0.006": 2.05947201385,
			"0.007": 1.61440147344,
			"0.008": 1.74985996338,
			"0.009": 1.69053411574,
			"0.01": 1.19225810989,
			"0.011": 3.68344391643,
			"0.012": 4.50209297772,
			"0.013": 0.109432152001,
			"0.014": 0.0,
			"0.015": 0.0,
			"0.016": 0.0,
			"0.017": 0.0,
			"0.018": 0.0,
			"0.019": 0.0,
			"0.02": 0.0,
			"0.021": 0.0,
			"0.022": 0.0,
			"0.023": 0.0,
			"0.024": 0.0,
			"0.025": 0.0
		}
	}
}
