{
	 "smiles": "CCCC(=O)OCC", 
	 "Tm": 177.65, 
	 "num_atms": 20, 
	 "gaussian": { 
		 "optdone": 1, 
		 "sigma_profile": "yes", 
		 "theory": "DFT", 
		 "functional": "B3LYP", 
		 "basiset": "6-31G**", 
		 "properties": { 
			 "R2extent": 1479.9348, 
			 "electric_dipole_moment_norm": 1.83764609487, 
			 "electric_quadrupole_moment_norm": 8.14269866506, 
			 "total_energy": -386.343862384, 
			 "HOMO_LUMO_gap": 0.27773, 
			 "cosmo_polarized_energy": -6.04, 
			 "cosmo_cavitation_energy": 22.77, 
			 "cosmo_dispersion_energy": -16.27, 
			 "cosmo_repulsion_energy": 1.41, 
			 "cosmo_total_nonelectrostatic_energy": 7.91, 
			 "SMD_solvation_energy": 5.01 
		},
		"coords": [
			{
				"x": -2.128531272,
				"y": -1.1436044399,
				"z": 2.040189363,
				"element": "C" 
			},
			{
				"x": -2.0364646538,
				"y": -0.9895678075,
				"z": 0.5188830213,
				"element": "C" 
			},
			{
				"x": -0.849428793,
				"y": -1.748460242,
				"z": -0.1023857759,
				"element": "C" 
			},
			{
				"x": 0.5096989384,
				"y": -1.2740545526,
				"z": 0.3765975074,
				"element": "C" 
			},
			{
				"x": 1.3698717949,
				"y": -1.9841200726,
				"z": 0.8531003534,
				"element": "O" 
			},
			{
				"x": 0.6523572923,
				"y": 0.0614289156,
				"z": 0.1947399982,
				"element": "O" 
			},
			{
				"x": 1.9155483809,
				"y": 0.6392471043,
				"z": 0.6014976872,
				"element": "C" 
			},
			{
				"x": 2.9573876399,
				"y": 0.5252320253,
				"z": -0.501285257,
				"element": "C" 
			},
			{
				"x": -1.2397670932,
				"y": -0.7398850397,
				"z": 2.5373674502,
				"element": "H" 
			},
			{
				"x": -2.9990283943,
				"y": -0.6113814663,
				"z": 2.4367041397,
				"element": "H" 
			},
			{
				"x": -2.2193194728,
				"y": -2.1966367068,
				"z": 2.328976358,
				"element": "H" 
			},
			{
				"x": -1.9567464351,
				"y": 0.0702215641,
				"z": 0.2552348883,
				"element": "H" 
			},
			{
				"x": -2.9580908094,
				"y": -1.3609867315,
				"z": 0.0550193282,
				"element": "H" 
			},
			{
				"x": -0.8733345785,
				"y": -1.6312047809,
				"z": -1.1931660752,
				"element": "H" 
			},
			{
				"x": -0.9055434784,
				"y": -2.8176990731,
				"z": 0.1190555842,
				"element": "H" 
			},
			{
				"x": 1.6795654478,
				"y": 1.6831900208,
				"z": 0.8224593355,
				"element": "H" 
			},
			{
				"x": 2.2534519248,
				"y": 0.1416047219,
				"z": 1.5136737141,
				"element": "H" 
			},
			{
				"x": 3.8772262333,
				"y": 1.0372213008,
				"z": -0.1992691769,
				"element": "H" 
			},
			{
				"x": 3.1968145892,
				"y": -0.523239992,
				"z": -0.6945760664,
				"element": "H" 
			},
			{
				"x": 2.5972327392,
				"y": 0.9840952521,
				"z": -1.4269163774,
				"element": "H" 
			}
		],
		 "valence_orbital": [ 
			{
				"type": "occ",
				"energy": -0.33906,
				"method": "rhf"
			},
			{
				"type": "occ",
				"energy": -0.3386,
				"method": "rhf"
			},
			{
				"type": "occ",
				"energy": -0.33301,
				"method": "rhf"
			},
			{
				"type": "occ",
				"energy": -0.29415,
				"method": "rhf"
			},
			{
				"type": "occ",
				"energy": -0.26277,
				"method": "rhf"
			},
			{
				"type": "unocc",
				"energy": 0.01496,
				"method": "rhf"
			},
			{
				"type": "unocc",
				"energy": 0.09489,
				"method": "rhf"
			},
			{
				"type": "unocc",
				"energy": 0.11095,
				"method": "rhf"
			},
			{
				"type": "unocc",
				"energy": 0.12831,
				"method": "rhf"
			},
			{
				"type": "unocc",
				"energy": 0.13855,
				"method": "rhf"
			}
		],
		"cosmo_sigma_profile": { 
			"-0.025": 0.0,
			"-0.024": 0.0,
			"-0.023": 0.0,
			"-0.022": 0.0,
			"-0.021": 0.0,
			"-0.02": 0.0,
			"-0.019": 0.0,
			"-0.018": 0.0,
			"-0.017": 0.0,
			"-0.016": 0.0,
			"-0.015": 0.0,
			"-0.014": 0.0,
			"-0.013": 0.0,
			"-0.012": 0.0,
			"-0.011": 0.0,
			"-0.01": 0.0,
			"-0.009": 0.0,
			"-0.008": 0.0,
			"-0.007": 0.0,
			"-0.006": 2.23930396005,
			"-0.005": 6.90775811845,
			"-0.004": 13.8345433363,
			"-0.003": 26.096346714,
			"-0.002": 27.2744786308,
			"-0.001": 25.1075482913,
			"0.0": 23.2312452992,
			"0.001": 16.3780480337,
			"0.002": 5.17854076094,
			"0.003": 3.77713484798,
			"0.004": 4.12210911315,
			"0.005": 2.77724140067,
			"0.006": 2.58246225939,
			"0.007": 2.59641782838,
			"0.008": 2.55555264579,
			"0.009": 2.34275515713,
			"0.01": 0.990444823514,
			"0.011": 2.30555775693,
			"0.012": 4.46154153076,
			"0.013": 2.14676213085,
			"0.014": 0.14108905278,
			"0.015": 0.0,
			"0.016": 0.0,
			"0.017": 0.0,
			"0.018": 0.0,
			"0.019": 0.0,
			"0.02": 0.0,
			"0.021": 0.0,
			"0.022": 0.0,
			"0.023": 0.0,
			"0.024": 0.0,
			"0.025": 0.0
		}
	}
}
