{
	 "smiles": "CC1=CC(C)=C(Br)C(C)=C1N", 
	 "Tm": 309.15, 
	 "num_atms": 23, 
	 "gaussian": { 
		 "optdone": 1, 
		 "sigma_profile": "yes", 
		 "theory": "DFT", 
		 "functional": "B3LYP", 
		 "basiset": "6-31G**", 
		 "properties": { 
			 "R2extent": 3273.3298, 
			 "electric_dipole_moment_norm": 2.9081102008, 
			 "electric_quadrupole_moment_norm": 7.87310390189, 
			 "total_energy": -2976.36979943, 
			 "HOMO_LUMO_gap": 0.20089, 
			 "cosmo_polarized_energy": -7.69, 
			 "cosmo_cavitation_energy": 26.86, 
			 "cosmo_dispersion_energy": -20.36, 
			 "cosmo_repulsion_energy": 1.61, 
			 "cosmo_total_nonelectrostatic_energy": 8.12, 
			 "SMD_solvation_energy": 3.5 
		},
		"coords": [
			{
				"x": 1.1028687008,
				"y": 2.0508094134,
				"z": 1.2856919017,
				"element": "C" 
			},
			{
				"x": 0.5522002335,
				"y": 0.7667760892,
				"z": 0.7161913669,
				"element": "C" 
			},
			{
				"x": 0.6043930175,
				"y": -0.4206364789,
				"z": 1.4429711329,
				"element": "C" 
			},
			{
				"x": 0.1023590285,
				"y": -1.6350242725,
				"z": 0.9644647861,
				"element": "C" 
			},
			{
				"x": 0.1982378265,
				"y": -2.8837281518,
				"z": 1.8044198844,
				"element": "C" 
			},
			{
				"x": -0.4811192568,
				"y": -1.6083725474,
				"z": -0.3097407039,
				"element": "C" 
			},
			{
				"x": -1.1810721205,
				"y": -3.2726738049,
				"z": -0.9936842347,
				"element": "Br" 
			},
			{
				"x": -0.5736756351,
				"y": -0.4507935771,
				"z": -1.0935672707,
				"element": "C" 
			},
			{
				"x": -1.2193980122,
				"y": -0.4036229946,
				"z": -2.4557266064,
				"element": "C" 
			},
			{
				"x": -0.0362960805,
				"y": 0.7464654355,
				"z": -0.5639982558,
				"element": "C" 
			},
			{
				"x": -0.1473947919,
				"y": 1.934772595,
				"z": -1.2965855281,
				"element": "N" 
			},
			{
				"x": 1.9287296359,
				"y": 2.4516614371,
				"z": 0.6802262439,
				"element": "H" 
			},
			{
				"x": 1.4915906128,
				"y": 1.8956510001,
				"z": 2.2950662754,
				"element": "H" 
			},
			{
				"x": 0.3347222735,
				"y": 2.8327214751,
				"z": 1.3399837579,
				"element": "H" 
			},
			{
				"x": 1.05986688,
				"y": -0.4047654858,
				"z": 2.4305182974,
				"element": "H" 
			},
			{
				"x": 0.6884808719,
				"y": -2.6649210224,
				"z": 2.756930342,
				"element": "H" 
			},
			{
				"x": -0.7901962297,
				"y": -3.3044150784,
				"z": 2.0191372244,
				"element": "H" 
			},
			{
				"x": 0.7710736365,
				"y": -3.6690541196,
				"z": 1.2991499938,
				"element": "H" 
			},
			{
				"x": -1.6916745794,
				"y": -1.3499813281,
				"z": -2.7128543007,
				"element": "H" 
			},
			{
				"x": -0.4832926784,
				"y": -0.1825949278,
				"z": -3.242241618,
				"element": "H" 
			},
			{
				"x": -1.9838512264,
				"y": 0.3818010289,
				"z": -2.4946287429,
				"element": "H" 
			},
			{
				"x": 0.5171076523,
				"y": 2.6526344792,
				"z": -1.0449421733,
				"element": "H" 
			},
			{
				"x": -0.2082597586,
				"y": 1.8220908357,
				"z": -2.2982817721,
				"element": "H" 
			}
		],
		 "valence_orbital": [ 
			{
				"type": "occ",
				"energy": -0.31886,
				"method": "rhf"
			},
			{
				"type": "occ",
				"energy": -0.28285,
				"method": "rhf"
			},
			{
				"type": "occ",
				"energy": -0.27367,
				"method": "rhf"
			},
			{
				"type": "occ",
				"energy": -0.22681,
				"method": "rhf"
			},
			{
				"type": "occ",
				"energy": -0.19767,
				"method": "rhf"
			},
			{
				"type": "unocc",
				"energy": 0.00322,
				"method": "rhf"
			},
			{
				"type": "unocc",
				"energy": 0.01586,
				"method": "rhf"
			},
			{
				"type": "unocc",
				"energy": 0.01956,
				"method": "rhf"
			},
			{
				"type": "unocc",
				"energy": 0.07262,
				"method": "rhf"
			},
			{
				"type": "unocc",
				"energy": 0.10412,
				"method": "rhf"
			}
		],
		"cosmo_sigma_profile": { 
			"-0.025": 0.0,
			"-0.024": 0.0,
			"-0.023": 0.0,
			"-0.022": 0.0,
			"-0.021": 0.0,
			"-0.02": 0.0,
			"-0.019": 0.0,
			"-0.018": 0.0,
			"-0.017": 0.0,
			"-0.016": 0.0,
			"-0.015": 0.0,
			"-0.014": 0.0,
			"-0.013": 0.0,
			"-0.012": 0.561420548553,
			"-0.011": 2.19635169013,
			"-0.01": 2.51352934322,
			"-0.009": 3.40832573289,
			"-0.008": 3.02723637053,
			"-0.007": 2.60835022113,
			"-0.006": 3.22674792693,
			"-0.005": 7.98339304822,
			"-0.004": 14.5881347943,
			"-0.003": 15.6195937855,
			"-0.002": 18.2629520157,
			"-0.001": 19.6285500482,
			"0.0": 26.056275033,
			"0.001": 18.4173077525,
			"0.002": 15.3310101126,
			"0.003": 14.2143956381,
			"0.004": 16.9326806624,
			"0.005": 15.0863282208,
			"0.006": 8.97077918468,
			"0.007": 1.14019158082,
			"0.008": 1.00165568917,
			"0.009": 0.685112293702,
			"0.01": 0.687753171519,
			"0.011": 0.47604555209,
			"0.012": 0.61031925811,
			"0.013": 0.588047888852,
			"0.014": 0.448503573694,
			"0.015": 0.132011657523,
			"0.016": 0.0,
			"0.017": 0.0,
			"0.018": 0.0,
			"0.019": 0.0,
			"0.02": 0.0,
			"0.021": 0.0,
			"0.022": 0.0,
			"0.023": 0.0,
			"0.024": 0.0,
			"0.025": 0.0
		}
	}
}
