{
	 "smiles": "C=CCC(NC(=O)OCC1=CC=CC=C1)C1=CC=CC=C1", 
	 "Tm": 339.15, 
	 "num_atms": 40, 
	 "gaussian": { 
		 "optdone": 1, 
		 "sigma_profile": "yes", 
		 "theory": "DFT", 
		 "functional": "B3LYP", 
		 "basiset": "6-31G**", 
		 "properties": { 
			 "R2extent": 7346.31, 
			 "electric_dipole_moment_norm": 2.62128645134, 
			 "electric_quadrupole_moment_norm": 14.5822984536, 
			 "total_energy": -902.566848915, 
			 "HOMO_LUMO_gap": 0.23432, 
			 "cosmo_polarized_energy": -14.33, 
			 "cosmo_cavitation_energy": 44.64, 
			 "cosmo_dispersion_energy": -28.65, 
			 "cosmo_repulsion_energy": 2.23, 
			 "cosmo_total_nonelectrostatic_energy": 18.21, 
			 "SMD_solvation_energy": 8.65 
		},
		"coords": [
			{
				"x": -0.25468484,
				"y": -5.0313295191,
				"z": 1.0936318202,
				"element": "C" 
			},
			{
				"x": 0.3917824478,
				"y": -4.1896767059,
				"z": 0.2877495555,
				"element": "C" 
			},
			{
				"x": -0.1465970327,
				"y": -3.6453391557,
				"z": -1.0059316259,
				"element": "C" 
			},
			{
				"x": -0.2441829311,
				"y": -2.0978228665,
				"z": -1.0422184969,
				"element": "C" 
			},
			{
				"x": -0.5299184044,
				"y": -1.7004323981,
				"z": -2.4205560376,
				"element": "N" 
			},
			{
				"x": -0.3434445491,
				"y": -0.4555046334,
				"z": -2.956236645,
				"element": "C" 
			},
			{
				"x": -0.7332290208,
				"y": -0.1163384835,
				"z": -4.059491786,
				"element": "O" 
			},
			{
				"x": 0.3597505402,
				"y": 0.3414980009,
				"z": -2.1094156107,
				"element": "O" 
			},
			{
				"x": 0.6146175645,
				"y": 1.6735421171,
				"z": -2.5987691647,
				"element": "C" 
			},
			{
				"x": 1.1665367941,
				"y": 2.5091011368,
				"z": -1.4714896172,
				"element": "C" 
			},
			{
				"x": 2.2218960058,
				"y": 3.3954030378,
				"z": -1.712084509,
				"element": "C" 
			},
			{
				"x": 2.705733527,
				"y": 4.2197518251,
				"z": -0.6940764266,
				"element": "C" 
			},
			{
				"x": 2.144095316,
				"y": 4.1564433563,
				"z": 0.581332022,
				"element": "C" 
			},
			{
				"x": 1.095909719,
				"y": 3.2668435469,
				"z": 0.8313905929,
				"element": "C" 
			},
			{
				"x": 0.606390877,
				"y": 2.4510662543,
				"z": -0.1880373658,
				"element": "C" 
			},
			{
				"x": -1.2542835443,
				"y": -1.5600195543,
				"z": -0.0316553762,
				"element": "C" 
			},
			{
				"x": -2.629278998,
				"y": -1.5855021866,
				"z": -0.2962161323,
				"element": "C" 
			},
			{
				"x": -3.5464486715,
				"y": -1.1273070709,
				"z": 0.6497505727,
				"element": "C" 
			},
			{
				"x": -3.1008382406,
				"y": -0.6351587906,
				"z": 1.8784549723,
				"element": "C" 
			},
			{
				"x": -1.7327282278,
				"y": -0.602866638,
				"z": 2.1515931747,
				"element": "C" 
			},
			{
				"x": -0.8181442869,
				"y": -1.0620190289,
				"z": 1.2013883323,
				"element": "C" 
			},
			{
				"x": 0.1946595555,
				"y": -5.402078262,
				"z": 2.0100291422,
				"element": "H" 
			},
			{
				"x": -1.258961392,
				"y": -5.3808894018,
				"z": 0.8664925653,
				"element": "H" 
			},
			{
				"x": 1.3969520659,
				"y": -3.8623700096,
				"z": 0.5570364158,
				"element": "H" 
			},
			{
				"x": -1.1365317016,
				"y": -4.0746764805,
				"z": -1.2070356845,
				"element": "H" 
			},
			{
				"x": 0.5142698087,
				"y": -3.944937624,
				"z": -1.8312195381,
				"element": "H" 
			},
			{
				"x": 0.7381911219,
				"y": -1.6873991902,
				"z": -0.7891289755,
				"element": "H" 
			},
			{
				"x": -1.1075425916,
				"y": -2.2981497545,
				"z": -2.9931916892,
				"element": "H" 
			},
			{
				"x": 1.3176869388,
				"y": 1.6246189923,
				"z": -3.4367597418,
				"element": "H" 
			},
			{
				"x": -0.3231220448,
				"y": 2.0846974341,
				"z": -2.9881105045,
				"element": "H" 
			},
			{
				"x": 2.6696618782,
				"y": 3.4406976304,
				"z": -2.701983707,
				"element": "H" 
			},
			{
				"x": 3.5256080047,
				"y": 4.9030867588,
				"z": -0.8965801768,
				"element": "H" 
			},
			{
				"x": 2.5221772402,
				"y": 4.7924662165,
				"z": 1.3767044378,
				"element": "H" 
			},
			{
				"x": 0.6565281688,
				"y": 3.2098594049,
				"z": 1.8234807564,
				"element": "H" 
			},
			{
				"x": -0.2020439916,
				"y": 1.7545931035,
				"z": 0.0113575092,
				"element": "H" 
			},
			{
				"x": -2.9871230084,
				"y": -1.9514209096,
				"z": -1.2550501901,
				"element": "H" 
			},
			{
				"x": -4.609245253,
				"y": -1.1504812435,
				"z": 0.4255566538,
				"element": "H" 
			},
			{
				"x": -3.8142843329,
				"y": -0.2750689817,
				"z": 2.6140726141,
				"element": "H" 
			},
			{
				"x": -1.3751690604,
				"y": -0.2168739114,
				"z": 3.1021536494,
				"element": "H" 
			},
			{
				"x": 0.2466545492,
				"y": -1.0282060155,
				"z": 1.4176642149,
				"element": "H" 
			}
		],
		 "valence_orbital": [ 
			{
				"type": "occ",
				"energy": -0.25479,
				"method": "rhf"
			},
			{
				"type": "occ",
				"energy": -0.25061,
				"method": "rhf"
			},
			{
				"type": "occ",
				"energy": -0.24834,
				"method": "rhf"
			},
			{
				"type": "occ",
				"energy": -0.24305,
				"method": "rhf"
			},
			{
				"type": "occ",
				"energy": -0.24026,
				"method": "rhf"
			},
			{
				"type": "unocc",
				"energy": -0.00594,
				"method": "rhf"
			},
			{
				"type": "unocc",
				"energy": -0.00559,
				"method": "rhf"
			},
			{
				"type": "unocc",
				"energy": -0.00219,
				"method": "rhf"
			},
			{
				"type": "unocc",
				"energy": 0.00076,
				"method": "rhf"
			},
			{
				"type": "unocc",
				"energy": 0.01473,
				"method": "rhf"
			}
		],
		"cosmo_sigma_profile": { 
			"-0.025": 0.0,
			"-0.024": 0.0,
			"-0.023": 0.0,
			"-0.022": 0.0,
			"-0.021": 0.0,
			"-0.02": 0.0,
			"-0.019": 0.0,
			"-0.018": 0.0,
			"-0.017": 0.0,
			"-0.016": 0.0,
			"-0.015": 0.0,
			"-0.014": 0.245723375686,
			"-0.013": 0.880623934483,
			"-0.012": 0.981617413474,
			"-0.011": 1.34193556829,
			"-0.01": 1.61230403444,
			"-0.009": 1.19027671586,
			"-0.008": 1.40327005211,
			"-0.007": 2.74176015677,
			"-0.006": 13.8087688113,
			"-0.005": 31.834974495,
			"-0.004": 35.3881148326,
			"-0.003": 35.0858472562,
			"-0.002": 27.4975907432,
			"-0.001": 25.2854544264,
			"0.0": 23.1019908575,
			"0.001": 22.574056517,
			"0.002": 23.4685293337,
			"0.003": 21.1897181608,
			"0.004": 22.4580724786,
			"0.005": 22.6337446266,
			"0.006": 18.7484686526,
			"0.007": 5.28443583498,
			"0.008": 1.48442156667,
			"0.009": 0.630015474764,
			"0.01": 1.60403330086,
			"0.011": 1.71377179909,
			"0.012": 2.05167141383,
			"0.013": 5.60939305271,
			"0.014": 2.3716443926,
			"0.015": 0.0,
			"0.016": 0.0,
			"0.017": 0.0,
			"0.018": 0.0,
			"0.019": 0.0,
			"0.02": 0.0,
			"0.021": 0.0,
			"0.022": 0.0,
			"0.023": 0.0,
			"0.024": 0.0,
			"0.025": 0.0
		}
	}
}
