{
	 "smiles": "COC1=CC=C(NC(=O)CCCl)C=C1", 
	 "Tm": 394.15, 
	 "num_atms": 26, 
	 "gaussian": { 
		 "optdone": 1, 
		 "sigma_profile": "yes", 
		 "theory": "DFT", 
		 "functional": "B3LYP", 
		 "basiset": "6-31G**", 
		 "properties": { 
			 "R2extent": 4656.5837, 
			 "electric_dipole_moment_norm": 5.95916025879, 
			 "electric_quadrupole_moment_norm": 17.0652358337, 
			 "total_energy": -1053.69070605, 
			 "HOMO_LUMO_gap": 0.20371, 
			 "cosmo_polarized_energy": -16.18, 
			 "cosmo_cavitation_energy": 31.59, 
			 "cosmo_dispersion_energy": -22.27, 
			 "cosmo_repulsion_energy": 1.79, 
			 "cosmo_total_nonelectrostatic_energy": 11.1, 
			 "SMD_solvation_energy": 6.44 
		},
		"coords": [
			{
				"x": 0.5978945275,
				"y": 4.2333150744,
				"z": 2.0615609263,
				"element": "C" 
			},
			{
				"x": 1.5015621835,
				"y": 3.1380501506,
				"z": 2.0476525842,
				"element": "O" 
			},
			{
				"x": 0.9883861393,
				"y": 1.8764335587,
				"z": 2.0223947365,
				"element": "C" 
			},
			{
				"x": -0.3782411945,
				"y": 1.5701381801,
				"z": 2.0045058547,
				"element": "C" 
			},
			{
				"x": -0.787654726,
				"y": 0.235153142,
				"z": 1.9647494785,
				"element": "C" 
			},
			{
				"x": 0.1445117842,
				"y": -0.806271893,
				"z": 1.9610549514,
				"element": "C" 
			},
			{
				"x": -0.3000016938,
				"y": -2.1604704837,
				"z": 1.9638005294,
				"element": "N" 
			},
			{
				"x": -0.0694532503,
				"y": -3.1658000718,
				"z": 1.0456491627,
				"element": "C" 
			},
			{
				"x": -0.4283932332,
				"y": -4.3098626114,
				"z": 1.2767954027,
				"element": "O" 
			},
			{
				"x": 0.6180743693,
				"y": -2.7946343314,
				"z": -0.2694157688,
				"element": "C" 
			},
			{
				"x": -0.171828047,
				"y": -1.8483893878,
				"z": -1.171745181,
				"element": "C" 
			},
			{
				"x": -1.7904741214,
				"y": -2.5247254827,
				"z": -1.6458931987,
				"element": "Cl" 
			},
			{
				"x": 1.5115352255,
				"y": -0.4881838346,
				"z": 2.0072397879,
				"element": "C" 
			},
			{
				"x": 1.9302738152,
				"y": 0.8355406781,
				"z": 2.0207023744,
				"element": "C" 
			},
			{
				"x": -0.0308196958,
				"y": 4.2504716553,
				"z": 1.1621840554,
				"element": "H" 
			},
			{
				"x": 1.2153910291,
				"y": 5.1322216237,
				"z": 2.0845399454,
				"element": "H" 
			},
			{
				"x": -0.0459752471,
				"y": 4.2150070532,
				"z": 2.9501168937,
				"element": "H" 
			},
			{
				"x": -1.1269461244,
				"y": 2.3530878096,
				"z": 2.0102276108,
				"element": "H" 
			},
			{
				"x": -1.8468526932,
				"y": -0.0027923792,
				"z": 1.9309779794,
				"element": "H" 
			},
			{
				"x": -0.8435340234,
				"y": -2.4818878883,
				"z": 2.7560942027,
				"element": "H" 
			},
			{
				"x": 0.8047827912,
				"y": -3.7390484204,
				"z": -0.7833369643,
				"element": "H" 
			},
			{
				"x": 1.5852158248,
				"y": -2.3155776273,
				"z": -0.0756922971,
				"element": "H" 
			},
			{
				"x": 0.3680739116,
				"y": -1.674060663,
				"z": -2.1034101016,
				"element": "H" 
			},
			{
				"x": -0.3702206344,
				"y": -0.8917099465,
				"z": -0.6900761805,
				"element": "H" 
			},
			{
				"x": 2.2445014582,
				"y": -1.2880826503,
				"z": 2.0497251112,
				"element": "H" 
			},
			{
				"x": 2.9841916248,
				"y": 1.0911787454,
				"z": 2.0524981047,
				"element": "H" 
			}
		],
		 "valence_orbital": [ 
			{
				"type": "occ",
				"energy": -0.29045,
				"method": "rhf"
			},
			{
				"type": "occ",
				"energy": -0.27114,
				"method": "rhf"
			},
			{
				"type": "occ",
				"energy": -0.26717,
				"method": "rhf"
			},
			{
				"type": "occ",
				"energy": -0.24766,
				"method": "rhf"
			},
			{
				"type": "occ",
				"energy": -0.22488,
				"method": "rhf"
			},
			{
				"type": "unocc",
				"energy": -0.02117,
				"method": "rhf"
			},
			{
				"type": "unocc",
				"energy": -0.01154,
				"method": "rhf"
			},
			{
				"type": "unocc",
				"energy": 0.02078,
				"method": "rhf"
			},
			{
				"type": "unocc",
				"energy": 0.03571,
				"method": "rhf"
			},
			{
				"type": "unocc",
				"energy": 0.07804,
				"method": "rhf"
			}
		],
		"cosmo_sigma_profile": { 
			"-0.025": 0.0,
			"-0.024": 0.0,
			"-0.023": 0.0,
			"-0.022": 0.0,
			"-0.021": 0.0,
			"-0.02": 0.0,
			"-0.019": 0.0,
			"-0.018": 0.0,
			"-0.017": 0.0,
			"-0.016": 0.0,
			"-0.015": 0.0,
			"-0.014": 0.601866703918,
			"-0.013": 0.840981000418,
			"-0.012": 1.15481718933,
			"-0.011": 0.810655695118,
			"-0.01": 0.637882318922,
			"-0.009": 1.21709548701,
			"-0.008": 2.45766251652,
			"-0.007": 8.83289293609,
			"-0.006": 19.0062313698,
			"-0.005": 25.4913413126,
			"-0.004": 24.3695891489,
			"-0.003": 20.7239440533,
			"-0.002": 14.2700905418,
			"-0.001": 10.9100419305,
			"0.0": 13.0089680227,
			"0.001": 12.1166225039,
			"0.002": 12.1076084727,
			"0.003": 16.4551741709,
			"0.004": 15.175441923,
			"0.005": 10.4007526278,
			"0.006": 11.4048098619,
			"0.007": 7.30772115328,
			"0.008": 3.66242278842,
			"0.009": 2.67752470626,
			"0.01": 3.03693761659,
			"0.011": 1.87577173241,
			"0.012": 2.29985984226,
			"0.013": 4.94690017097,
			"0.014": 4.03504091022,
			"0.015": 0.521527746451,
			"0.016": 0.0,
			"0.017": 0.0,
			"0.018": 0.0,
			"0.019": 0.0,
			"0.02": 0.0,
			"0.021": 0.0,
			"0.022": 0.0,
			"0.023": 0.0,
			"0.024": 0.0,
			"0.025": 0.0
		}
	}
}
