{
	 "smiles": "FC(F)(F)C1(F)C(F)(F)C(F)(F)C(F)(F)C(F)(C(F)(F)F)C1(F)F", 
	 "Tm": 218.15, 
	 "num_atms": 24, 
	 "gaussian": { 
		 "optdone": 1, 
		 "sigma_profile": "yes", 
		 "theory": "DFT", 
		 "functional": "B3LYP", 
		 "basiset": "6-31G**", 
		 "properties": { 
			 "R2extent": 5802.0774, 
			 "electric_dipole_moment_norm": 0.14136654484, 
			 "electric_quadrupole_moment_norm": 0.588426826377, 
			 "total_energy": -1902.22460273, 
			 "HOMO_LUMO_gap": 0.32729, 
			 "cosmo_polarized_energy": -1.08, 
			 "cosmo_cavitation_energy": 31.75, 
			 "cosmo_dispersion_energy": -21.56, 
			 "cosmo_repulsion_energy": 1.3, 
			 "cosmo_total_nonelectrostatic_energy": 11.49, 
			 "SMD_solvation_energy": 10.34 
		},
		"coords": [
			{
				"x": 3.4494414951,
				"y": 0.4429316787,
				"z": 0.6644783728,
				"element": "F" 
			},
			{
				"x": 2.3245703678,
				"y": -0.2869274676,
				"z": 0.6298057331,
				"element": "C" 
			},
			{
				"x": 2.0022503472,
				"y": -0.6451450243,
				"z": 1.8770660089,
				"element": "F" 
			},
			{
				"x": 2.5631328608,
				"y": -1.3887910244,
				"z": -0.0889814945,
				"element": "F" 
			},
			{
				"x": 1.1905210811,
				"y": 0.5386598943,
				"z": -0.0425739649,
				"element": "C" 
			},
			{
				"x": 1.5157110784,
				"y": 0.616366051,
				"z": -1.373967348,
				"element": "F" 
			},
			{
				"x": 1.1268370263,
				"y": 1.9979785188,
				"z": 0.5170530388,
				"element": "C" 
			},
			{
				"x": 1.4072962366,
				"y": 1.988519438,
				"z": 1.8403979887,
				"element": "F" 
			},
			{
				"x": 2.05457098,
				"y": 2.7323178853,
				"z": -0.1253371583,
				"element": "F" 
			},
			{
				"x": -0.2675545752,
				"y": 2.6873232528,
				"z": 0.3278340931,
				"element": "C" 
			},
			{
				"x": -0.0841102796,
				"y": 4.0091363599,
				"z": 0.1499395401,
				"element": "F" 
			},
			{
				"x": -1.0101502143,
				"y": 2.4894762349,
				"z": 1.4412059757,
				"element": "F" 
			},
			{
				"x": -1.0587791613,
				"y": 2.1239970526,
				"z": -0.8710429456,
				"element": "C" 
			},
			{
				"x": -2.2321663048,
				"y": 2.776819355,
				"z": -0.9536304959,
				"element": "F" 
			},
			{
				"x": -0.336878399,
				"y": 2.3701538222,
				"z": -1.9943136955,
				"element": "F" 
			},
			{
				"x": -1.3361250856,
				"y": 0.5916934213,
				"z": -0.7377704976,
				"element": "C" 
			},
			{
				"x": -2.4825783193,
				"y": 0.4545721519,
				"z": -0.0024599296,
				"element": "F" 
			},
			{
				"x": -1.6391206317,
				"y": -0.0568675064,
				"z": -2.1188075476,
				"element": "C" 
			},
			{
				"x": -2.2226719122,
				"y": -1.2456047654,
				"z": -1.9358425428,
				"element": "F" 
			},
			{
				"x": -2.488425678,
				"y": 0.7252044452,
				"z": -2.8030085975,
				"element": "F" 
			},
			{
				"x": -0.5285567427,
				"y": -0.2228559004,
				"z": -2.8445266897,
				"element": "F" 
			},
			{
				"x": -0.1933972709,
				"y": -0.1480693288,
				"z": 0.0602260878,
				"element": "C" 
			},
			{
				"x": -0.0958596507,
				"y": -1.4295497732,
				"z": -0.3629628095,
				"element": "F" 
			},
			{
				"x": -0.5516572477,
				"y": -0.1585387713,
				"z": 1.3657188779,
				"element": "F" 
			}
		],
		 "valence_orbital": [ 
			{
				"type": "occ",
				"energy": -0.41394,
				"method": "rhf"
			},
			{
				"type": "occ",
				"energy": -0.40908,
				"method": "rhf"
			},
			{
				"type": "occ",
				"energy": -0.38154,
				"method": "rhf"
			},
			{
				"type": "occ",
				"energy": -0.37248,
				"method": "rhf"
			},
			{
				"type": "occ",
				"energy": -0.35817,
				"method": "rhf"
			},
			{
				"type": "unocc",
				"energy": -0.03088,
				"method": "rhf"
			},
			{
				"type": "unocc",
				"energy": 0.03148,
				"method": "rhf"
			},
			{
				"type": "unocc",
				"energy": 0.03324,
				"method": "rhf"
			},
			{
				"type": "unocc",
				"energy": 0.04525,
				"method": "rhf"
			},
			{
				"type": "unocc",
				"energy": 0.05233,
				"method": "rhf"
			}
		],
		"cosmo_sigma_profile": { 
			"-0.025": 0.0,
			"-0.024": 0.0,
			"-0.023": 0.0,
			"-0.022": 0.0,
			"-0.021": 0.0,
			"-0.02": 0.0,
			"-0.019": 0.0,
			"-0.018": 0.0,
			"-0.017": 0.0,
			"-0.016": 0.0,
			"-0.015": 0.0,
			"-0.014": 0.0,
			"-0.013": 0.0,
			"-0.012": 0.0,
			"-0.011": 0.0,
			"-0.01": 0.0,
			"-0.009": 0.0,
			"-0.008": 0.0,
			"-0.007": 0.0144021722716,
			"-0.006": 0.605786027512,
			"-0.005": 1.99550600065,
			"-0.004": 3.71045035507,
			"-0.003": 7.60485505933,
			"-0.002": 13.4295050697,
			"-0.001": 30.7072220757,
			"0.0": 89.8664172367,
			"0.001": 105.094050614,
			"0.002": 2.70175778305,
			"0.003": 0.0,
			"0.004": 0.0,
			"0.005": 0.0,
			"0.006": 0.0,
			"0.007": 0.0,
			"0.008": 0.0,
			"0.009": 0.0,
			"0.01": 0.0,
			"0.011": 0.0,
			"0.012": 0.0,
			"0.013": 0.0,
			"0.014": 0.0,
			"0.015": 0.0,
			"0.016": 0.0,
			"0.017": 0.0,
			"0.018": 0.0,
			"0.019": 0.0,
			"0.02": 0.0,
			"0.021": 0.0,
			"0.022": 0.0,
			"0.023": 0.0,
			"0.024": 0.0,
			"0.025": 0.0
		}
	}
}
