{
	 "smiles": "NC1=C(C=CC=C1O)C(O)=O", 
	 "Tm": 513.15, 
	 "num_atms": 18, 
	 "gaussian": { 
		 "optdone": 1, 
		 "sigma_profile": "yes", 
		 "theory": "DFT", 
		 "functional": "B3LYP", 
		 "basiset": "6-31G**", 
		 "properties": { 
			 "R2extent": 2856.7996, 
			 "electric_dipole_moment_norm": 0.619236594526, 
			 "electric_quadrupole_moment_norm": 5.72952728766, 
			 "total_energy": -551.40900001, 
			 "HOMO_LUMO_gap": 0.16502, 
			 "cosmo_polarized_energy": -11.76, 
			 "cosmo_cavitation_energy": 21.99, 
			 "cosmo_dispersion_energy": -16.94, 
			 "cosmo_repulsion_energy": 1.35, 
			 "cosmo_total_nonelectrostatic_energy": 6.41, 
			 "SMD_solvation_energy": 5.09 
		},
		"coords": [
			{
				"x": 1.9516912099,
				"y": 1.7227119061,
				"z": 0.8265825893,
				"element": "N" 
			},
			{
				"x": 1.9059302876,
				"y": 0.358226832,
				"z": 0.5349504792,
				"element": "C" 
			},
			{
				"x": 1.6204113255,
				"y": -0.6587934124,
				"z": 1.4766753192,
				"element": "C" 
			},
			{
				"x": 1.5768825797,
				"y": -2.0059038867,
				"z": 1.0586453652,
				"element": "C" 
			},
			{
				"x": 1.8197666146,
				"y": -2.3456504241,
				"z": -0.2625091171,
				"element": "C" 
			},
			{
				"x": 2.073714615,
				"y": -1.3421882728,
				"z": -1.2077677098,
				"element": "C" 
			},
			{
				"x": 2.1036264248,
				"y": -0.0127538001,
				"z": -0.816079787,
				"element": "C" 
			},
			{
				"x": 2.3323204293,
				"y": 0.9671890567,
				"z": -1.7469388597,
				"element": "O" 
			},
			{
				"x": 1.401124002,
				"y": -0.3088270164,
				"z": 2.8918309041,
				"element": "C" 
			},
			{
				"x": 1.1777147236,
				"y": -1.3800976181,
				"z": 3.690275939,
				"element": "O" 
			},
			{
				"x": 1.4123902295,
				"y": 0.8232442186,
				"z": 3.3643741492,
				"element": "O" 
			},
			{
				"x": 1.8232680673,
				"y": 1.9088634169,
				"z": 1.8178695032,
				"element": "H" 
			},
			{
				"x": 2.7705583169,
				"y": 2.1845085902,
				"z": 0.4450238432,
				"element": "H" 
			},
			{
				"x": 1.3592586725,
				"y": -2.7712908727,
				"z": 1.7932697601,
				"element": "H" 
			},
			{
				"x": 1.79212425,
				"y": -3.38491744,
				"z": -0.573378802,
				"element": "H" 
			},
			{
				"x": 2.2312601122,
				"y": -1.5766346305,
				"z": -2.2556546395,
				"element": "H" 
			},
			{
				"x": 1.8743396607,
				"y": 1.7653410861,
				"z": -1.4364146448,
				"element": "H" 
			},
			{
				"x": 1.0498184788,
				"y": -1.0165277327,
				"z": 4.581645708,
				"element": "H" 
			}
		],
		 "valence_orbital": [ 
			{
				"type": "occ",
				"energy": -0.32158,
				"method": "rhf"
			},
			{
				"type": "occ",
				"energy": -0.31365,
				"method": "rhf"
			},
			{
				"type": "occ",
				"energy": -0.28074,
				"method": "rhf"
			},
			{
				"type": "occ",
				"energy": -0.24577,
				"method": "rhf"
			},
			{
				"type": "occ",
				"energy": -0.21,
				"method": "rhf"
			},
			{
				"type": "unocc",
				"energy": -0.04498,
				"method": "rhf"
			},
			{
				"type": "unocc",
				"energy": 0.01008,
				"method": "rhf"
			},
			{
				"type": "unocc",
				"energy": 0.0605,
				"method": "rhf"
			},
			{
				"type": "unocc",
				"energy": 0.07151,
				"method": "rhf"
			},
			{
				"type": "unocc",
				"energy": 0.07811,
				"method": "rhf"
			}
		],
		"cosmo_sigma_profile": { 
			"-0.025": 0.0,
			"-0.024": 0.0,
			"-0.023": 0.0,
			"-0.022": 0.0,
			"-0.021": 0.0,
			"-0.02": 0.0,
			"-0.019": 0.0364830383897,
			"-0.018": 0.774702558591,
			"-0.017": 0.947622775103,
			"-0.016": 0.767812413562,
			"-0.015": 0.855358341954,
			"-0.014": 1.46024751964,
			"-0.013": 2.47634503836,
			"-0.012": 3.91801289288,
			"-0.011": 2.40859716976,
			"-0.01": 2.17036398942,
			"-0.009": 2.55498045836,
			"-0.008": 2.89036533314,
			"-0.007": 3.06419925196,
			"-0.006": 7.70856489867,
			"-0.005": 7.37779778683,
			"-0.004": 8.07319541849,
			"-0.003": 7.60636753066,
			"-0.002": 7.99317011787,
			"-0.001": 10.7601399629,
			"0.0": 11.2303481788,
			"0.001": 10.2801028681,
			"0.002": 14.0653943586,
			"0.003": 14.2100815602,
			"0.004": 12.7120873388,
			"0.005": 10.0833712756,
			"0.006": 5.07563903168,
			"0.007": 5.18800304408,
			"0.008": 3.83198727884,
			"0.009": 3.74771771346,
			"0.01": 3.56637072421,
			"0.011": 4.78223616411,
			"0.012": 2.54443394463,
			"0.013": 0.0226958634177,
			"0.014": 0.0,
			"0.015": 0.0,
			"0.016": 0.0,
			"0.017": 0.0,
			"0.018": 0.0,
			"0.019": 0.0,
			"0.02": 0.0,
			"0.021": 0.0,
			"0.022": 0.0,
			"0.023": 0.0,
			"0.024": 0.0,
			"0.025": 0.0
		}
	}
}
