{
	 "smiles": "NS(=O)(=O)C1=CC=C(Br)C=C1", 
	 "Tm": 438.65, 
	 "num_atms": 17, 
	 "gaussian": { 
		 "optdone": 1, 
		 "sigma_profile": "yes", 
		 "theory": "DFT", 
		 "functional": "B3LYP", 
		 "basiset": "6-31G**", 
		 "properties": { 
			 "R2extent": 5723.9117, 
			 "electric_dipole_moment_norm": 4.76306548139, 
			 "electric_quadrupole_moment_norm": 11.4634666829, 
			 "total_energy": -3406.97245873, 
			 "HOMO_LUMO_gap": 0.21001, 
			 "cosmo_polarized_energy": -17.83, 
			 "cosmo_cavitation_energy": 25.28, 
			 "cosmo_dispersion_energy": -19.6, 
			 "cosmo_repulsion_energy": 1.53, 
			 "cosmo_total_nonelectrostatic_energy": 7.2, 
			 "SMD_solvation_energy": 2.89 
		},
		"coords": [
			{
				"x": -0.3740358249,
				"y": -1.6433976402,
				"z": 0.3136822644,
				"element": "N" 
			},
			{
				"x": 1.1178711279,
				"y": -1.0485216004,
				"z": -0.1769975471,
				"element": "S" 
			},
			{
				"x": 1.5357857517,
				"y": -1.9008923743,
				"z": -1.2877765231,
				"element": "O" 
			},
			{
				"x": 1.8979645361,
				"y": -0.8843331301,
				"z": 1.0475874524,
				"element": "O" 
			},
			{
				"x": 0.8287240752,
				"y": 0.596517605,
				"z": -0.8483703419,
				"element": "C" 
			},
			{
				"x": 0.5435103379,
				"y": 0.743449149,
				"z": -2.2076419646,
				"element": "C" 
			},
			{
				"x": 0.2953110139,
				"y": 2.0143836936,
				"z": -2.7239821213,
				"element": "C" 
			},
			{
				"x": 0.341348975,
				"y": 3.1176063287,
				"z": -1.8703647708,
				"element": "C" 
			},
			{
				"x": -0.0004879356,
				"y": 4.8561967811,
				"z": -2.5741734105,
				"element": "Br" 
			},
			{
				"x": 0.6418804172,
				"y": 2.9769476947,
				"z": -0.5147287992,
				"element": "C" 
			},
			{
				"x": 0.8896675559,
				"y": 1.7049193538,
				"z": -0.0008678158,
				"element": "C" 
			},
			{
				"x": -1.0186128841,
				"y": -1.794862476,
				"z": -0.4552905811,
				"element": "H" 
			},
			{
				"x": -0.7787631332,
				"y": -1.1238703428,
				"z": 1.0857100252,
				"element": "H" 
			},
			{
				"x": 0.5396789004,
				"y": -0.1259774247,
				"z": -2.856511736,
				"element": "H" 
			},
			{
				"x": 0.0775380917,
				"y": 2.1483926404,
				"z": -3.7772201677,
				"element": "H" 
			},
			{
				"x": 0.6899125645,
				"y": 3.8493086493,
				"z": 0.126662953,
				"element": "H" 
			},
			{
				"x": 1.1514064304,
				"y": 1.5732330928,
				"z": 1.0436830842,
				"element": "H" 
			}
		],
		 "valence_orbital": [ 
			{
				"type": "occ",
				"energy": -0.31143,
				"method": "rhf"
			},
			{
				"type": "occ",
				"energy": -0.30998,
				"method": "rhf"
			},
			{
				"type": "occ",
				"energy": -0.30347,
				"method": "rhf"
			},
			{
				"type": "occ",
				"energy": -0.28833,
				"method": "rhf"
			},
			{
				"type": "occ",
				"energy": -0.26349,
				"method": "rhf"
			},
			{
				"type": "unocc",
				"energy": -0.05348,
				"method": "rhf"
			},
			{
				"type": "unocc",
				"energy": -0.0388,
				"method": "rhf"
			},
			{
				"type": "unocc",
				"energy": -0.01001,
				"method": "rhf"
			},
			{
				"type": "unocc",
				"energy": 0.0467,
				"method": "rhf"
			},
			{
				"type": "unocc",
				"energy": 0.07424,
				"method": "rhf"
			}
		],
		"cosmo_sigma_profile": { 
			"-0.025": 0.0,
			"-0.024": 0.0,
			"-0.023": 0.0,
			"-0.022": 0.0,
			"-0.021": 0.0,
			"-0.02": 0.0,
			"-0.019": 0.0,
			"-0.018": 0.0,
			"-0.017": 0.0,
			"-0.016": 0.17292799967,
			"-0.015": 2.5517784273,
			"-0.014": 2.64672867827,
			"-0.013": 3.41522716533,
			"-0.012": 3.12097864989,
			"-0.011": 1.78293351008,
			"-0.01": 2.67332138803,
			"-0.009": 2.34873244115,
			"-0.008": 5.75882576829,
			"-0.007": 10.029304964,
			"-0.006": 8.60335611451,
			"-0.005": 7.93240660799,
			"-0.004": 8.48508105054,
			"-0.003": 8.9520209245,
			"-0.002": 8.90253553124,
			"-0.001": 9.76618937504,
			"0.0": 14.6603322334,
			"0.001": 24.0375471111,
			"0.002": 13.851234008,
			"0.003": 10.4616285766,
			"0.004": 13.180266775,
			"0.005": 3.70809928841,
			"0.006": 3.60060723445,
			"0.007": 3.44096660487,
			"0.008": 5.25450698628,
			"0.009": 4.08273327871,
			"0.01": 8.51368616941,
			"0.011": 9.93455418107,
			"0.012": 3.81378661304,
			"0.013": 0.0779464238332,
			"0.014": 0.0,
			"0.015": 0.0,
			"0.016": 0.0,
			"0.017": 0.0,
			"0.018": 0.0,
			"0.019": 0.0,
			"0.02": 0.0,
			"0.021": 0.0,
			"0.022": 0.0,
			"0.023": 0.0,
			"0.024": 0.0,
			"0.025": 0.0
		}
	}
}
