{
	 "smiles": "OCC(O)C(O)CC=O", 
	 "Tm": 364.15, 
	 "num_atms": 19, 
	 "gaussian": { 
		 "optdone": 1, 
		 "sigma_profile": "yes", 
		 "theory": "DFT", 
		 "functional": "B3LYP", 
		 "basiset": "6-31G**", 
		 "properties": { 
			 "R2extent": 1451.016, 
			 "electric_dipole_moment_norm": 1.96233891568, 
			 "electric_quadrupole_moment_norm": 9.74509991432, 
			 "total_energy": -497.418589322, 
			 "HOMO_LUMO_gap": 0.22654, 
			 "cosmo_polarized_energy": -14.77, 
			 "cosmo_cavitation_energy": 21.88, 
			 "cosmo_dispersion_energy": -16.01, 
			 "cosmo_repulsion_energy": 1.34, 
			 "cosmo_total_nonelectrostatic_energy": 7.22, 
			 "SMD_solvation_energy": 4.61 
		},
		"coords": [
			{
				"x": -1.9690562697,
				"y": -1.2885369198,
				"z": -0.1216255372,
				"element": "O" 
			},
			{
				"x": -1.0479049381,
				"y": -0.1931519656,
				"z": -0.0824441547,
				"element": "C" 
			},
			{
				"x": 0.3657396961,
				"y": -0.7077716374,
				"z": 0.2097708969,
				"element": "C" 
			},
			{
				"x": 0.6225804137,
				"y": -1.8282635578,
				"z": -0.6389081169,
				"element": "O" 
			},
			{
				"x": 1.4839775798,
				"y": 0.3014396807,
				"z": -0.1101715198,
				"element": "C" 
			},
			{
				"x": 1.5245726176,
				"y": 0.5331062621,
				"z": -1.5110228494,
				"element": "O" 
			},
			{
				"x": 1.3518004637,
				"y": 1.6730624372,
				"z": 0.5510162444,
				"element": "C" 
			},
			{
				"x": 1.4212963083,
				"y": 1.6991455144,
				"z": 2.0567024974,
				"element": "C" 
			},
			{
				"x": 1.4646352243,
				"y": 0.7231083625,
				"z": 2.7763267063,
				"element": "O" 
			},
			{
				"x": -2.102383925,
				"y": -1.597166371,
				"z": 0.7852105189,
				"element": "H" 
			},
			{
				"x": -1.0728771786,
				"y": 0.2561955446,
				"z": -1.0786409106,
				"element": "H" 
			},
			{
				"x": -1.359762801,
				"y": 0.5614582862,
				"z": 0.6515331638,
				"element": "H" 
			},
			{
				"x": 0.4448245759,
				"y": -1.0004826548,
				"z": 1.2663922953,
				"element": "H" 
			},
			{
				"x": -0.2407922276,
				"y": -2.2559694785,
				"z": -0.7626642606,
				"element": "H" 
			},
			{
				"x": 2.424914136,
				"y": -0.1586066912,
				"z": 0.2310494116,
				"element": "H" 
			},
			{
				"x": 1.4296392928,
				"y": -0.3501955088,
				"z": -1.9034978947,
				"element": "H" 
			},
			{
				"x": 2.1503480081,
				"y": 2.3233905826,
				"z": 0.1668896945,
				"element": "H" 
			},
			{
				"x": 0.4225475703,
				"y": 2.1753417515,
				"z": 0.2444325404,
				"element": "H" 
			},
			{
				"x": 1.4281014536,
				"y": 2.7222963631,
				"z": 2.4964512743,
				"element": "H" 
			}
		],
		 "valence_orbital": [ 
			{
				"type": "occ",
				"energy": -0.3321,
				"method": "rhf"
			},
			{
				"type": "occ",
				"energy": -0.30442,
				"method": "rhf"
			},
			{
				"type": "occ",
				"energy": -0.27656,
				"method": "rhf"
			},
			{
				"type": "occ",
				"energy": -0.26493,
				"method": "rhf"
			},
			{
				"type": "occ",
				"energy": -0.25888,
				"method": "rhf"
			},
			{
				"type": "unocc",
				"energy": -0.03234,
				"method": "rhf"
			},
			{
				"type": "unocc",
				"energy": 0.05456,
				"method": "rhf"
			},
			{
				"type": "unocc",
				"energy": 0.08567,
				"method": "rhf"
			},
			{
				"type": "unocc",
				"energy": 0.0979,
				"method": "rhf"
			},
			{
				"type": "unocc",
				"energy": 0.11959,
				"method": "rhf"
			}
		],
		"cosmo_sigma_profile": { 
			"-0.025": 0.0,
			"-0.024": 0.0,
			"-0.023": 0.0,
			"-0.022": 0.0,
			"-0.021": 0.0,
			"-0.02": 0.0,
			"-0.019": 0.0,
			"-0.018": 0.0,
			"-0.017": 0.0906120295189,
			"-0.016": 0.838149467907,
			"-0.015": 1.31409366331,
			"-0.014": 1.11254539336,
			"-0.013": 0.868641191875,
			"-0.012": 1.04257926328,
			"-0.011": 1.56817291705,
			"-0.01": 2.33916893955,
			"-0.009": 1.98257745572,
			"-0.008": 2.17828400179,
			"-0.007": 12.5457192187,
			"-0.006": 16.3304178614,
			"-0.005": 10.5560851402,
			"-0.004": 11.2662832016,
			"-0.003": 10.4231370487,
			"-0.002": 10.3745166687,
			"-0.001": 9.50332240407,
			"0.0": 6.64835603166,
			"0.001": 6.31655517104,
			"0.002": 4.98198681647,
			"0.003": 5.366578761,
			"0.004": 5.6040555757,
			"0.005": 4.0672034529,
			"0.006": 4.65114983817,
			"0.007": 4.35217330271,
			"0.008": 5.00793911038,
			"0.009": 4.60122142117,
			"0.01": 5.91394940207,
			"0.011": 6.34781892796,
			"0.012": 4.42899728563,
			"0.013": 4.43443850464,
			"0.014": 2.77971439859,
			"0.015": 0.00993846211213,
			"0.016": 0.0,
			"0.017": 0.0,
			"0.018": 0.0,
			"0.019": 0.0,
			"0.02": 0.0,
			"0.021": 0.0,
			"0.022": 0.0,
			"0.023": 0.0,
			"0.024": 0.0,
			"0.025": 0.0
		}
	}
}
