{
	 "smiles": "CC1=CC=C(C=C1)C1=CSC(=N1)C(=N/NC1=CC=C(O)C=C1)C#N", 
	 "Tm": 525.15, 
	 "num_atms": 38, 
	 "gaussian": { 
		 "optdone": 1, 
		 "sigma_profile": "yes", 
		 "theory": "DFT", 
		 "functional": "B3LYP", 
		 "basiset": "6-31G**", 
		 "properties": { 
			 "R2extent": 10805.1326, 
			 "electric_dipole_moment_norm": 6.83436434937, 
			 "electric_quadrupole_moment_norm": 28.2497096049, 
			 "total_energy": -1386.69534157, 
			 "HOMO_LUMO_gap": 0.14319, 
			 "cosmo_polarized_energy": -22.94, 
			 "cosmo_cavitation_energy": 46.01, 
			 "cosmo_dispersion_energy": -31.08, 
			 "cosmo_repulsion_energy": 2.36, 
			 "cosmo_total_nonelectrostatic_energy": 17.29, 
			 "SMD_solvation_energy": 7.43 
		},
		"coords": [
			{
				"x": -3.3358208423,
				"y": -2.4194420608,
				"z": 4.3991073218,
				"element": "C" 
			},
			{
				"x": -2.4346728574,
				"y": -1.8270678235,
				"z": 3.3422178266,
				"element": "C" 
			},
			{
				"x": -2.4392921043,
				"y": -2.3186360901,
				"z": 2.0291451967,
				"element": "C" 
			},
			{
				"x": -1.6312774091,
				"y": -1.7566197563,
				"z": 1.0452568476,
				"element": "C" 
			},
			{
				"x": -0.7797492219,
				"y": -0.6805218325,
				"z": 1.3422140893,
				"element": "C" 
			},
			{
				"x": -0.7726737831,
				"y": -0.1838481215,
				"z": 2.6554132914,
				"element": "C" 
			},
			{
				"x": -1.5851394412,
				"y": -0.7515467911,
				"z": 3.6332741469,
				"element": "C" 
			},
			{
				"x": 0.0982481936,
				"y": -0.0755318142,
				"z": 0.322619113,
				"element": "C" 
			},
			{
				"x": 0.3527166546,
				"y": -0.5617870358,
				"z": -0.9410940641,
				"element": "C" 
			},
			{
				"x": 1.4364646347,
				"y": 0.4699622527,
				"z": -1.7958996607,
				"element": "S" 
			},
			{
				"x": 1.4844705676,
				"y": 1.5217312363,
				"z": -0.3843394778,
				"element": "C" 
			},
			{
				"x": 0.7626638424,
				"y": 1.0972490259,
				"z": 0.6151405385,
				"element": "N" 
			},
			{
				"x": 2.3887262106,
				"y": 2.6891230698,
				"z": -0.286361835,
				"element": "C" 
			},
			{
				"x": 2.6370292896,
				"y": 3.6513798772,
				"z": -1.1302984074,
				"element": "N" 
			},
			{
				"x": 1.9814541693,
				"y": 3.8419690349,
				"z": -2.2796410282,
				"element": "N" 
			},
			{
				"x": 0.608402125,
				"y": 3.5874078171,
				"z": -2.5930163069,
				"element": "C" 
			},
			{
				"x": 0.2725514247,
				"y": 3.3768115589,
				"z": -3.936288192,
				"element": "C" 
			},
			{
				"x": -1.0539943212,
				"y": 3.2085612973,
				"z": -4.3168275137,
				"element": "C" 
			},
			{
				"x": -2.0641777728,
				"y": 3.2291815893,
				"z": -3.347989939,
				"element": "C" 
			},
			{
				"x": -3.346345474,
				"y": 3.0401315613,
				"z": -3.7723931363,
				"element": "O" 
			},
			{
				"x": -1.7314918238,
				"y": 3.438716347,
				"z": -2.0046091919,
				"element": "C" 
			},
			{
				"x": -0.4039809212,
				"y": 3.6299440599,
				"z": -1.6285525925,
				"element": "C" 
			},
			{
				"x": 3.1899652905,
				"y": 2.73409336,
				"z": 0.9097582408,
				"element": "C" 
			},
			{
				"x": 3.8216003187,
				"y": 2.755826454,
				"z": 1.8865171074,
				"element": "N" 
			},
			{
				"x": -3.5243301712,
				"y": -3.4817443301,
				"z": 4.2161909465,
				"element": "H" 
			},
			{
				"x": -4.3105904143,
				"y": -1.9152884994,
				"z": 4.418059136,
				"element": "H" 
			},
			{
				"x": -2.9002864802,
				"y": -2.3191319228,
				"z": 5.3977808406,
				"element": "H" 
			},
			{
				"x": -3.0876174988,
				"y": -3.1532098392,
				"z": 1.773127036,
				"element": "H" 
			},
			{
				"x": -1.6719507187,
				"y": -2.1589563001,
				"z": 0.0370313176,
				"element": "H" 
			},
			{
				"x": -0.1167545432,
				"y": 0.6448873163,
				"z": 2.8977304993,
				"element": "H" 
			},
			{
				"x": -1.5550580641,
				"y": -0.3536896091,
				"z": 4.6447804874,
				"element": "H" 
			},
			{
				"x": -0.0236585465,
				"y": -1.4612502408,
				"z": -1.4058204648,
				"element": "H" 
			},
			{
				"x": 2.3804137418,
				"y": 4.6311235817,
				"z": -2.7710605698,
				"element": "H" 
			},
			{
				"x": 1.0600754195,
				"y": 3.3397227359,
				"z": -4.6834905033,
				"element": "H" 
			},
			{
				"x": -1.3235507263,
				"y": 3.0460665709,
				"z": -5.3547960347,
				"element": "H" 
			},
			{
				"x": -3.943602478,
				"y": 3.0748288509,
				"z": -3.0138416519,
				"element": "H" 
			},
			{
				"x": -2.5117499991,
				"y": 3.4647737819,
				"z": -1.247353922,
				"element": "H" 
			},
			{
				"x": -0.16391627,
				"y": 3.8098806878,
				"z": -0.5869894912,
				"element": "H" 
			}
		],
		 "valence_orbital": [ 
			{
				"type": "occ",
				"energy": -0.27156,
				"method": "rhf"
			},
			{
				"type": "occ",
				"energy": -0.25948,
				"method": "rhf"
			},
			{
				"type": "occ",
				"energy": -0.25057,
				"method": "rhf"
			},
			{
				"type": "occ",
				"energy": -0.21957,
				"method": "rhf"
			},
			{
				"type": "occ",
				"energy": -0.21464,
				"method": "rhf"
			},
			{
				"type": "unocc",
				"energy": -0.07145,
				"method": "rhf"
			},
			{
				"type": "unocc",
				"energy": -0.03726,
				"method": "rhf"
			},
			{
				"type": "unocc",
				"energy": -0.02439,
				"method": "rhf"
			},
			{
				"type": "unocc",
				"energy": -0.01127,
				"method": "rhf"
			},
			{
				"type": "unocc",
				"energy": -0.00039,
				"method": "rhf"
			}
		],
		"cosmo_sigma_profile": { 
			"-0.025": 0.0,
			"-0.024": 0.0,
			"-0.023": 0.0,
			"-0.022": 0.0,
			"-0.021": 0.0,
			"-0.02": 0.0,
			"-0.019": 0.0,
			"-0.018": 0.685845342019,
			"-0.017": 1.0591535782,
			"-0.016": 2.06173124464,
			"-0.015": 2.70687675016,
			"-0.014": 2.04779425264,
			"-0.013": 1.45872090471,
			"-0.012": 1.91687164154,
			"-0.011": 2.3948076634,
			"-0.01": 3.58200250882,
			"-0.009": 5.23895725499,
			"-0.008": 4.31582526312,
			"-0.007": 9.57207734013,
			"-0.006": 11.8015650718,
			"-0.005": 17.4705042616,
			"-0.004": 24.6944553614,
			"-0.003": 23.1312402704,
			"-0.002": 23.6119780431,
			"-0.001": 23.96436376,
			"0.0": 30.5182341165,
			"0.001": 26.6663668709,
			"0.002": 31.3058088986,
			"0.003": 29.4754750596,
			"0.004": 24.8258556329,
			"0.005": 18.4356726446,
			"0.006": 11.5422117962,
			"0.007": 7.49297982404,
			"0.008": 7.78723619624,
			"0.009": 6.38769266731,
			"0.01": 6.33257760709,
			"0.011": 4.59912917987,
			"0.012": 2.77789207523,
			"0.013": 1.67616111965,
			"0.014": 0.0644192757457,
			"0.015": 0.0,
			"0.016": 0.0,
			"0.017": 0.0,
			"0.018": 0.0,
			"0.019": 0.0,
			"0.02": 0.0,
			"0.021": 0.0,
			"0.022": 0.0,
			"0.023": 0.0,
			"0.024": 0.0,
			"0.025": 0.0
		}
	}
}
