{
	 "smiles": "CN(CCOC1=CC(C)=CC(C)=C1)C(=O)CCl", 
	 "Tm": 344.15, 
	 "num_atms": 35, 
	 "gaussian": { 
		 "optdone": 1, 
		 "sigma_profile": "yes", 
		 "theory": "DFT", 
		 "functional": "B3LYP", 
		 "basiset": "6-31G**", 
		 "properties": { 
			 "R2extent": 7257.7532, 
			 "electric_dipole_moment_norm": 3.14803318598, 
			 "electric_quadrupole_moment_norm": 14.8714149989, 
			 "total_energy": -1171.63368856, 
			 "HOMO_LUMO_gap": 0.20188, 
			 "cosmo_polarized_energy": -13.69, 
			 "cosmo_cavitation_energy": 39.06, 
			 "cosmo_dispersion_energy": -27.1, 
			 "cosmo_repulsion_energy": 2.13, 
			 "cosmo_total_nonelectrostatic_energy": 14.09, 
			 "SMD_solvation_energy": 6.75 
		},
		"coords": [
			{
				"x": 1.4959722055,
				"y": -1.158029977,
				"z": 2.965803794,
				"element": "C" 
			},
			{
				"x": 1.8705088837,
				"y": -0.2031106988,
				"z": 1.927859817,
				"element": "N" 
			},
			{
				"x": 1.9711517506,
				"y": -0.7137039072,
				"z": 0.5605762372,
				"element": "C" 
			},
			{
				"x": 0.6323728296,
				"y": -1.2028410642,
				"z": -0.0036474995,
				"element": "C" 
			},
			{
				"x": -0.3397984216,
				"y": -0.1617618999,
				"z": -0.0655657845,
				"element": "O" 
			},
			{
				"x": -0.4164877013,
				"y": 0.5344932141,
				"z": -1.2638236504,
				"element": "C" 
			},
			{
				"x": 0.0988898476,
				"y": 1.8267802477,
				"z": -1.3380064607,
				"element": "C" 
			},
			{
				"x": -0.0215378022,
				"y": 2.5556630721,
				"z": -2.5296578755,
				"element": "C" 
			},
			{
				"x": 0.5155519533,
				"y": 3.9658422508,
				"z": -2.6141230599,
				"element": "C" 
			},
			{
				"x": -0.6516048203,
				"y": 1.9589552607,
				"z": -3.6270106323,
				"element": "C" 
			},
			{
				"x": -1.1744469023,
				"y": 0.6598826278,
				"z": -3.5609683382,
				"element": "C" 
			},
			{
				"x": -1.8879716453,
				"y": 0.0548297053,
				"z": -4.7483109246,
				"element": "C" 
			},
			{
				"x": -1.0505086931,
				"y": -0.0512418791,
				"z": -2.3637215769,
				"element": "C" 
			},
			{
				"x": 1.9895461581,
				"y": 1.1432533529,
				"z": 2.1341652427,
				"element": "C" 
			},
			{
				"x": 2.2433342843,
				"y": 1.9472157787,
				"z": 1.2410063015,
				"element": "O" 
			},
			{
				"x": 1.783387754,
				"y": 1.6742522301,
				"z": 3.5561874483,
				"element": "C" 
			},
			{
				"x": 3.2074648851,
				"y": 1.3424663518,
				"z": 4.6390222927,
				"element": "Cl" 
			},
			{
				"x": 0.4093485355,
				"y": -1.2996703807,
				"z": 3.0285879685,
				"element": "H" 
			},
			{
				"x": 1.8742564302,
				"y": -0.8478264135,
				"z": 3.9390900773,
				"element": "H" 
			},
			{
				"x": 1.9522980146,
				"y": -2.125414476,
				"z": 2.7348222436,
				"element": "H" 
			},
			{
				"x": 2.3675745127,
				"y": 0.0927348602,
				"z": -0.0567930074,
				"element": "H" 
			},
			{
				"x": 2.6848244331,
				"y": -1.5494002635,
				"z": 0.5454010233,
				"element": "H" 
			},
			{
				"x": 0.2077473354,
				"y": -1.9856297828,
				"z": 0.6350701498,
				"element": "H" 
			},
			{
				"x": 0.8035747418,
				"y": -1.6395995313,
				"z": -0.9962555353,
				"element": "H" 
			},
			{
				"x": 0.6081262995,
				"y": 2.241397292,
				"z": -0.4736651005,
				"element": "H" 
			},
			{
				"x": 0.6659833414,
				"y": 4.2761327957,
				"z": -3.6523071005,
				"element": "H" 
			},
			{
				"x": -0.1787496587,
				"y": 4.6805091679,
				"z": -2.1546707483,
				"element": "H" 
			},
			{
				"x": 1.4695425336,
				"y": 4.0606394284,
				"z": -2.0863641065,
				"element": "H" 
			},
			{
				"x": -0.7385585763,
				"y": 2.5173708086,
				"z": -4.5568315278,
				"element": "H" 
			},
			{
				"x": -1.4515995715,
				"y": 0.3950358553,
				"z": -5.6926137719,
				"element": "H" 
			},
			{
				"x": -1.8443167151,
				"y": -1.0382968562,
				"z": -4.7291437207,
				"element": "H" 
			},
			{
				"x": -2.947966117,
				"y": 0.3384043836,
				"z": -4.760923935,
				"element": "H" 
			},
			{
				"x": -1.4565880774,
				"y": -1.0551313117,
				"z": -2.2715562139,
				"element": "H" 
			},
			{
				"x": 1.6980680299,
				"y": 2.755198276,
				"z": 3.4784019751,
				"element": "H" 
			},
			{
				"x": 0.904209943,
				"y": 1.2596014822,
				"z": 4.0511659994,
				"element": "H" 
			}
		],
		 "valence_orbital": [ 
			{
				"type": "occ",
				"energy": -0.27682,
				"method": "rhf"
			},
			{
				"type": "occ",
				"energy": -0.2573,
				"method": "rhf"
			},
			{
				"type": "occ",
				"energy": -0.24637,
				"method": "rhf"
			},
			{
				"type": "occ",
				"energy": -0.22881,
				"method": "rhf"
			},
			{
				"type": "occ",
				"energy": -0.22375,
				"method": "rhf"
			},
			{
				"type": "unocc",
				"energy": -0.02187,
				"method": "rhf"
			},
			{
				"type": "unocc",
				"energy": 0.00682,
				"method": "rhf"
			},
			{
				"type": "unocc",
				"energy": 0.01207,
				"method": "rhf"
			},
			{
				"type": "unocc",
				"energy": 0.05119,
				"method": "rhf"
			},
			{
				"type": "unocc",
				"energy": 0.08015,
				"method": "rhf"
			}
		],
		"cosmo_sigma_profile": { 
			"-0.025": 0.0,
			"-0.024": 0.0,
			"-0.023": 0.0,
			"-0.022": 0.0,
			"-0.021": 0.0,
			"-0.02": 0.0,
			"-0.019": 0.0,
			"-0.018": 0.0,
			"-0.017": 0.0,
			"-0.016": 0.0,
			"-0.015": 0.0,
			"-0.014": 0.0,
			"-0.013": 0.0,
			"-0.012": 0.0,
			"-0.011": 0.0,
			"-0.01": 0.0,
			"-0.009": 1.03778437457,
			"-0.008": 4.4535901216,
			"-0.007": 5.60474227677,
			"-0.006": 12.7754516117,
			"-0.005": 23.2686860176,
			"-0.004": 30.9303295141,
			"-0.003": 30.0669350284,
			"-0.002": 26.2730232124,
			"-0.001": 23.6081394372,
			"0.0": 28.8261213984,
			"0.001": 19.9564780251,
			"0.002": 15.1171904161,
			"0.003": 14.7047833797,
			"0.004": 16.9873008416,
			"0.005": 19.5611134847,
			"0.006": 14.9381700216,
			"0.007": 5.20479955395,
			"0.008": 2.98584541308,
			"0.009": 1.78419704484,
			"0.01": 2.24793791508,
			"0.011": 3.01579217785,
			"0.012": 2.85488397394,
			"0.013": 2.35397042818,
			"0.014": 1.17366644175,
			"0.015": 0.0449136977954,
			"0.016": 0.0,
			"0.017": 0.0,
			"0.018": 0.0,
			"0.019": 0.0,
			"0.02": 0.0,
			"0.021": 0.0,
			"0.022": 0.0,
			"0.023": 0.0,
			"0.024": 0.0,
			"0.025": 0.0
		}
	}
}
