{
	 "smiles": "OCC1OC(OC2OC=C3C(=O)OCC=C3C2C=C)C(O)C(O)C1O", 
	 "Tm": 464.15, 
	 "num_atms": 45, 
	 "gaussian": { 
		 "optdone": 1, 
		 "sigma_profile": "yes", 
		 "theory": "DFT", 
		 "functional": "B3LYP", 
		 "basiset": "6-31G**", 
		 "properties": { 
			 "R2extent": 8388.224, 
			 "electric_dipole_moment_norm": 3.47611127843, 
			 "electric_quadrupole_moment_norm": 36.4579061487, 
			 "total_energy": -1298.66536984, 
			 "HOMO_LUMO_gap": 0.18196, 
			 "cosmo_polarized_energy": -26.98, 
			 "cosmo_cavitation_energy": 44.54, 
			 "cosmo_dispersion_energy": -30.42, 
			 "cosmo_repulsion_energy": 2.29, 
			 "cosmo_total_nonelectrostatic_energy": 16.41, 
			 "SMD_solvation_energy": 8.75 
		},
		"coords": [
			{
				"x": 2.1012075653,
				"y": 1.9435447963,
				"z": 0.7234873922,
				"element": "O" 
			},
			{
				"x": 2.2336719312,
				"y": 1.5998437361,
				"z": -0.6405975727,
				"element": "C" 
			},
			{
				"x": 1.7761295643,
				"y": 0.1872563036,
				"z": -1.0300613282,
				"element": "C" 
			},
			{
				"x": 0.3414393459,
				"y": 0.00889567,
				"z": -1.0099089893,
				"element": "O" 
			},
			{
				"x": -0.3130203185,
				"y": -0.2456900374,
				"z": 0.1988304119,
				"element": "C" 
			},
			{
				"x": -0.5097282478,
				"y": 0.9585931033,
				"z": 0.9785898674,
				"element": "O" 
			},
			{
				"x": -1.5552500198,
				"y": 1.8575657906,
				"z": 0.6782728274,
				"element": "C" 
			},
			{
				"x": -1.2611545933,
				"y": 2.5961112049,
				"z": -0.5234638365,
				"element": "O" 
			},
			{
				"x": -1.8005356719,
				"y": 2.1863245818,
				"z": -1.6925461197,
				"element": "C" 
			},
			{
				"x": -2.7405856739,
				"y": 1.2254863591,
				"z": -1.8205462191,
				"element": "C" 
			},
			{
				"x": -3.2025135369,
				"y": 0.8578985086,
				"z": -3.175575201,
				"element": "C" 
			},
			{
				"x": -2.8903658086,
				"y": 1.4451446612,
				"z": -4.1888458061,
				"element": "O" 
			},
			{
				"x": -4.070164066,
				"y": -0.1890873364,
				"z": -3.2605349908,
				"element": "O" 
			},
			{
				"x": -4.321521527,
				"y": -1.0831107045,
				"z": -2.1611501606,
				"element": "C" 
			},
			{
				"x": -4.0619814043,
				"y": -0.5182422348,
				"z": -0.7972681997,
				"element": "C" 
			},
			{
				"x": -3.3012788754,
				"y": 0.5740110892,
				"z": -0.6433665587,
				"element": "C" 
			},
			{
				"x": -2.9973595718,
				"y": 1.3036265627,
				"z": 0.6562060627,
				"element": "C" 
			},
			{
				"x": -3.4425982866,
				"y": 0.6020239631,
				"z": 1.9158634747,
				"element": "C" 
			},
			{
				"x": -2.7250411622,
				"y": 0.3364323193,
				"z": 3.008104246,
				"element": "C" 
			},
			{
				"x": 0.3827530273,
				"y": -1.2635089353,
				"z": 1.1203430553,
				"element": "C" 
			},
			{
				"x": 0.0706384173,
				"y": -2.5458920365,
				"z": 0.5995396495,
				"element": "O" 
			},
			{
				"x": 1.9040865883,
				"y": -1.0768534894,
				"z": 1.1614109771,
				"element": "C" 
			},
			{
				"x": 2.4336179312,
				"y": -2.236290924,
				"z": 1.8027155749,
				"element": "O" 
			},
			{
				"x": 2.4358674457,
				"y": -0.9735504642,
				"z": -0.2640699645,
				"element": "C" 
			},
			{
				"x": 3.8541691011,
				"y": -0.8463721657,
				"z": -0.1663782672,
				"element": "O" 
			},
			{
				"x": 1.1573340735,
				"y": 1.8727285479,
				"z": 0.9420380677,
				"element": "H" 
			},
			{
				"x": 3.3004244742,
				"y": 1.6709116444,
				"z": -0.875359734,
				"element": "H" 
			},
			{
				"x": 1.6973691123,
				"y": 2.3088008836,
				"z": -1.2896137135,
				"element": "H" 
			},
			{
				"x": 2.0212359822,
				"y": 0.0794654633,
				"z": -2.095252238,
				"element": "H" 
			},
			{
				"x": -1.2843871355,
				"y": -0.6551846819,
				"z": -0.0780209757,
				"element": "H" 
			},
			{
				"x": -1.4800669273,
				"y": 2.6037533703,
				"z": 1.4716131554,
				"element": "H" 
			},
			{
				"x": -1.3945631385,
				"y": 2.7152368717,
				"z": -2.546840173,
				"element": "H" 
			},
			{
				"x": -3.7202643612,
				"y": -1.9908309247,
				"z": -2.3238955894,
				"element": "H" 
			},
			{
				"x": -5.3720867394,
				"y": -1.3771752191,
				"z": -2.2639955832,
				"element": "H" 
			},
			{
				"x": -4.4918669881,
				"y": -1.0525713696,
				"z": 0.0437495381,
				"element": "H" 
			},
			{
				"x": -3.5981137529,
				"y": 2.2284790234,
				"z": 0.5963748519,
				"element": "H" 
			},
			{
				"x": -4.4998710182,
				"y": 0.3403197975,
				"z": 1.9134233314,
				"element": "H" 
			},
			{
				"x": -3.1891119825,
				"y": -0.1363101495,
				"z": 3.8683526637,
				"element": "H" 
			},
			{
				"x": -1.6692293866,
				"y": 0.5694769742,
				"z": 3.0876071308,
				"element": "H" 
			},
			{
				"x": -0.0308577597,
				"y": -1.1437903607,
				"z": 2.1313707595,
				"element": "H" 
			},
			{
				"x": 0.7330533938,
				"y": -3.1387340563,
				"z": 0.9897939687,
				"element": "H" 
			},
			{
				"x": 2.1692640792,
				"y": -0.1666442538,
				"z": 1.7087818987,
				"element": "H" 
			},
			{
				"x": 3.3820889261,
				"y": -2.2333086108,
				"z": 1.6066040961,
				"element": "H" 
			},
			{
				"x": 2.1658713548,
				"y": -1.9061075574,
				"z": -0.7777024918,
				"element": "H" 
			},
			{
				"x": 4.2447956404,
				"y": -1.091375714,
				"z": -1.0145792886,
				"element": "H" 
			}
		],
		 "valence_orbital": [ 
			{
				"type": "occ",
				"energy": -0.27657,
				"method": "rhf"
			},
			{
				"type": "occ",
				"energy": -0.2693,
				"method": "rhf"
			},
			{
				"type": "occ",
				"energy": -0.26235,
				"method": "rhf"
			},
			{
				"type": "occ",
				"energy": -0.25227,
				"method": "rhf"
			},
			{
				"type": "occ",
				"energy": -0.22503,
				"method": "rhf"
			},
			{
				"type": "unocc",
				"energy": -0.04307,
				"method": "rhf"
			},
			{
				"type": "unocc",
				"energy": -0.00518,
				"method": "rhf"
			},
			{
				"type": "unocc",
				"energy": 0.00068,
				"method": "rhf"
			},
			{
				"type": "unocc",
				"energy": 0.04613,
				"method": "rhf"
			},
			{
				"type": "unocc",
				"energy": 0.0696,
				"method": "rhf"
			}
		],
		"cosmo_sigma_profile": { 
			"-0.025": 0.0,
			"-0.024": 0.0,
			"-0.023": 0.0,
			"-0.022": 0.0,
			"-0.021": 0.0,
			"-0.02": 0.0,
			"-0.019": 0.0,
			"-0.018": 0.0,
			"-0.017": 0.408243282913,
			"-0.016": 1.20822163597,
			"-0.015": 0.845223769351,
			"-0.014": 1.38273005542,
			"-0.013": 1.60998224737,
			"-0.012": 1.55006019478,
			"-0.011": 2.18182251745,
			"-0.01": 2.43029108768,
			"-0.009": 2.26902159532,
			"-0.008": 9.25907294197,
			"-0.007": 15.3082203124,
			"-0.006": 23.0392134419,
			"-0.005": 23.8206944164,
			"-0.004": 25.5591317796,
			"-0.003": 26.4282958057,
			"-0.002": 26.5874643066,
			"-0.001": 27.2805809418,
			"0.0": 21.3086417295,
			"0.001": 16.9402910001,
			"0.002": 17.358963947,
			"0.003": 11.460882149,
			"0.004": 9.79770020445,
			"0.005": 10.2402079535,
			"0.006": 9.50539302837,
			"0.007": 8.01218415302,
			"0.008": 7.50950551614,
			"0.009": 8.75393482993,
			"0.01": 8.16756714558,
			"0.011": 7.73293489269,
			"0.012": 10.4809544199,
			"0.013": 7.43224989027,
			"0.014": 2.79080605413,
			"0.015": 0.521395196842,
			"0.016": 0.0,
			"0.017": 0.0,
			"0.018": 0.0,
			"0.019": 0.0,
			"0.02": 0.0,
			"0.021": 0.0,
			"0.022": 0.0,
			"0.023": 0.0,
			"0.024": 0.0,
			"0.025": 0.0
		}
	}
}
