{
	 "smiles": "O=C1CCS(=O)(=O)O1", 
	 "Tm": 343.15, 
	 "num_atms": 12, 
	 "gaussian": { 
		 "optdone": 1, 
		 "sigma_profile": "yes", 
		 "theory": "DFT", 
		 "functional": "B3LYP", 
		 "basiset": "6-31G**", 
		 "properties": { 
			 "R2extent": 2255.0647, 
			 "electric_dipole_moment_norm": 5.17621247439, 
			 "electric_quadrupole_moment_norm": 17.3325209753, 
			 "total_energy": -815.74391852, 
			 "HOMO_LUMO_gap": 0.27547, 
			 "cosmo_polarized_energy": -16.46, 
			 "cosmo_cavitation_energy": 17.63, 
			 "cosmo_dispersion_energy": -14.24, 
			 "cosmo_repulsion_energy": 1.14, 
			 "cosmo_total_nonelectrostatic_energy": 4.53, 
			 "SMD_solvation_energy": 3.01 
		},
		"coords": [
			{
				"x": 0.6962255414,
				"y": 0.374535558,
				"z": 1.0938915282,
				"element": "O" 
			},
			{
				"x": -0.1474170467,
				"y": -0.4580264035,
				"z": 0.9360940836,
				"element": "C" 
			},
			{
				"x": -1.3370095128,
				"y": -0.3942266805,
				"z": -0.0181726925,
				"element": "C" 
			},
			{
				"x": -2.3823273598,
				"y": -1.3946513219,
				"z": 0.4723178698,
				"element": "C" 
			},
			{
				"x": -1.3767413113,
				"y": -2.7142842387,
				"z": 1.2122096971,
				"element": "S" 
			},
			{
				"x": -1.943262062,
				"y": -3.2255506728,
				"z": 2.4473496024,
				"element": "O" 
			},
			{
				"x": -0.8647641661,
				"y": -3.591340823,
				"z": 0.1700143146,
				"element": "O" 
			},
			{
				"x": -0.1234955046,
				"y": -1.648673543,
				"z": 1.6483719481,
				"element": "O" 
			},
			{
				"x": -1.7099880066,
				"y": 0.6306414301,
				"z": -0.055460366,
				"element": "H" 
			},
			{
				"x": -0.9736017696,
				"y": -0.6587537466,
				"z": -1.0169701402,
				"element": "H" 
			},
			{
				"x": -3.0123685653,
				"y": -0.9942285915,
				"z": 1.2692518276,
				"element": "H" 
			},
			{
				"x": -2.9985502367,
				"y": -1.8400409666,
				"z": -0.3096976726,
				"element": "H" 
			}
		],
		 "valence_orbital": [ 
			{
				"type": "occ",
				"energy": -0.37375,
				"method": "rhf"
			},
			{
				"type": "occ",
				"energy": -0.34825,
				"method": "rhf"
			},
			{
				"type": "occ",
				"energy": -0.34554,
				"method": "rhf"
			},
			{
				"type": "occ",
				"energy": -0.32663,
				"method": "rhf"
			},
			{
				"type": "occ",
				"energy": -0.30711,
				"method": "rhf"
			},
			{
				"type": "unocc",
				"energy": -0.03164,
				"method": "rhf"
			},
			{
				"type": "unocc",
				"energy": 0.00114,
				"method": "rhf"
			},
			{
				"type": "unocc",
				"energy": 0.02073,
				"method": "rhf"
			},
			{
				"type": "unocc",
				"energy": 0.05427,
				"method": "rhf"
			},
			{
				"type": "unocc",
				"energy": 0.06771,
				"method": "rhf"
			}
		],
		"cosmo_sigma_profile": { 
			"-0.025": 0.0,
			"-0.024": 0.0,
			"-0.023": 0.0,
			"-0.022": 0.0,
			"-0.021": 0.0,
			"-0.02": 0.0,
			"-0.019": 0.0,
			"-0.018": 0.0,
			"-0.017": 0.0,
			"-0.016": 0.0,
			"-0.015": 0.0,
			"-0.014": 0.0,
			"-0.013": 0.359930268308,
			"-0.012": 1.5230551191,
			"-0.011": 3.72155318189,
			"-0.01": 8.30571683917,
			"-0.009": 12.0629936558,
			"-0.008": 8.68454902319,
			"-0.007": 8.61118967056,
			"-0.006": 6.92212231722,
			"-0.005": 4.23810838595,
			"-0.004": 2.55986983747,
			"-0.003": 2.74332612113,
			"-0.002": 2.62702469285,
			"-0.001": 3.55239199824,
			"0.0": 3.78827616213,
			"0.001": 3.30221403315,
			"0.002": 3.82151111823,
			"0.003": 4.42664688317,
			"0.004": 4.97214923068,
			"0.005": 6.57870036593,
			"0.006": 6.69183175132,
			"0.007": 6.7504282319,
			"0.008": 12.556244705,
			"0.009": 15.6343124381,
			"0.01": 6.01664803183,
			"0.011": 0.592793274724,
			"0.012": 0.0,
			"0.013": 0.0,
			"0.014": 0.0,
			"0.015": 0.0,
			"0.016": 0.0,
			"0.017": 0.0,
			"0.018": 0.0,
			"0.019": 0.0,
			"0.02": 0.0,
			"0.021": 0.0,
			"0.022": 0.0,
			"0.023": 0.0,
			"0.024": 0.0,
			"0.025": 0.0
		}
	}
}
