{
	 "smiles": "CNCC(O)C1=CC(O)=CC=C1", 
	 "Tm": 443.65, 
	 "num_atms": 25, 
	 "gaussian": { 
		 "optdone": 1, 
		 "sigma_profile": "yes", 
		 "theory": "DFT", 
		 "functional": "B3LYP", 
		 "basiset": "6-31G**", 
		 "properties": { 
			 "R2extent": 3196.348, 
			 "electric_dipole_moment_norm": 2.21471237184, 
			 "electric_quadrupole_moment_norm": 9.82922342711, 
			 "total_energy": -555.974038036, 
			 "HOMO_LUMO_gap": 0.20206, 
			 "cosmo_polarized_energy": -13.56, 
			 "cosmo_cavitation_energy": 28.04, 
			 "cosmo_dispersion_energy": -20.18, 
			 "cosmo_repulsion_energy": 1.63, 
			 "cosmo_total_nonelectrostatic_energy": 9.49, 
			 "SMD_solvation_energy": 2.79 
		},
		"coords": [
			{
				"x": -0.2408713891,
				"y": -2.6075284588,
				"z": -1.2800706594,
				"element": "C" 
			},
			{
				"x": 0.3748570543,
				"y": -2.3816600178,
				"z": 0.0221000454,
				"element": "N" 
			},
			{
				"x": 0.2373956999,
				"y": -1.0319515132,
				"z": 0.5466688628,
				"element": "C" 
			},
			{
				"x": 1.0303979103,
				"y": 0.0625924734,
				"z": -0.2063430293,
				"element": "C" 
			},
			{
				"x": 2.3873388891,
				"y": -0.3808660691,
				"z": -0.1872324484,
				"element": "O" 
			},
			{
				"x": 0.8499796511,
				"y": 1.4244982898,
				"z": 0.4365516457,
				"element": "C" 
			},
			{
				"x": -0.185278601,
				"y": 2.2665798476,
				"z": 0.0115904565,
				"element": "C" 
			},
			{
				"x": -0.3932415018,
				"y": 3.5028107481,
				"z": 0.6294140456,
				"element": "C" 
			},
			{
				"x": -1.3890811109,
				"y": 4.3578423989,
				"z": 0.2472155515,
				"element": "O" 
			},
			{
				"x": 0.4405275516,
				"y": 3.9134268891,
				"z": 1.6763400909,
				"element": "C" 
			},
			{
				"x": 1.4715957669,
				"y": 3.0759080176,
				"z": 2.093030573,
				"element": "C" 
			},
			{
				"x": 1.6813963252,
				"y": 1.8357049562,
				"z": 1.4845257218,
				"element": "C" 
			},
			{
				"x": -1.3212588844,
				"y": -2.4358325891,
				"z": -1.2049496778,
				"element": "H" 
			},
			{
				"x": 0.1397072632,
				"y": -1.9773971202,
				"z": -2.1035459127,
				"element": "H" 
			},
			{
				"x": -0.0945395481,
				"y": -3.6526492359,
				"z": -1.5707102594,
				"element": "H" 
			},
			{
				"x": 1.3656400322,
				"y": -2.605028859,
				"z": -0.0219772137,
				"element": "H" 
			},
			{
				"x": -0.8240814365,
				"y": -0.7566376123,
				"z": 0.5553464789,
				"element": "H" 
			},
			{
				"x": 0.582781525,
				"y": -1.0251818311,
				"z": 1.5875585648,
				"element": "H" 
			},
			{
				"x": 0.6665553316,
				"y": 0.1137394472,
				"z": -1.2453979782,
				"element": "H" 
			},
			{
				"x": 2.9266023224,
				"y": 0.2922652965,
				"z": -0.6223988848,
				"element": "H" 
			},
			{
				"x": -0.8301156726,
				"y": 1.9587370385,
				"z": -0.8112500452,
				"element": "H" 
			},
			{
				"x": -1.892079623,
				"y": 3.955806671,
				"z": -0.4727545316,
				"element": "H" 
			},
			{
				"x": 0.2673745417,
				"y": 4.8794812919,
				"z": 2.1385626333,
				"element": "H" 
			},
			{
				"x": 2.1204178583,
				"y": 3.3944107042,
				"z": 2.9042856452,
				"element": "H" 
			},
			{
				"x": 2.4868800448,
				"y": 1.1854292365,
				"z": 1.8083403251,
				"element": "H" 
			}
		],
		 "valence_orbital": [ 
			{
				"type": "occ",
				"energy": -0.32847,
				"method": "rhf"
			},
			{
				"type": "occ",
				"energy": -0.27962,
				"method": "rhf"
			},
			{
				"type": "occ",
				"energy": -0.25116,
				"method": "rhf"
			},
			{
				"type": "occ",
				"energy": -0.22332,
				"method": "rhf"
			},
			{
				"type": "occ",
				"energy": -0.20796,
				"method": "rhf"
			},
			{
				"type": "unocc",
				"energy": -0.0059,
				"method": "rhf"
			},
			{
				"type": "unocc",
				"energy": 0.01181,
				"method": "rhf"
			},
			{
				"type": "unocc",
				"energy": 0.06908,
				"method": "rhf"
			},
			{
				"type": "unocc",
				"energy": 0.07566,
				"method": "rhf"
			},
			{
				"type": "unocc",
				"energy": 0.10185,
				"method": "rhf"
			}
		],
		"cosmo_sigma_profile": { 
			"-0.025": 0.0,
			"-0.024": 0.0,
			"-0.023": 0.0,
			"-0.022": 0.0,
			"-0.021": 0.0,
			"-0.02": 0.0,
			"-0.019": 0.0,
			"-0.018": 0.186088901359,
			"-0.017": 0.970335416864,
			"-0.016": 1.47312455229,
			"-0.015": 1.66408594785,
			"-0.014": 1.62990801372,
			"-0.013": 1.5113323389,
			"-0.012": 2.40402733417,
			"-0.011": 1.71980066018,
			"-0.01": 1.83947244675,
			"-0.009": 1.81711094507,
			"-0.008": 1.95925281909,
			"-0.007": 2.80745984604,
			"-0.006": 6.36790602858,
			"-0.005": 8.71129889676,
			"-0.004": 13.3921370638,
			"-0.003": 23.0162916484,
			"-0.002": 18.5659832405,
			"-0.001": 18.1800573386,
			"0.0": 19.6152118862,
			"0.001": 10.8546091661,
			"0.002": 9.94483454148,
			"0.003": 11.8234345693,
			"0.004": 12.7271209465,
			"0.005": 12.2610755946,
			"0.006": 9.72738732958,
			"0.007": 3.56680727094,
			"0.008": 3.84982252947,
			"0.009": 3.52348612135,
			"0.01": 3.6718912424,
			"0.011": 3.38342362054,
			"0.012": 2.6643905525,
			"0.013": 1.15057439978,
			"0.014": 0.469210484771,
			"0.015": 0.527066319179,
			"0.016": 0.137698364366,
			"0.017": 0.566346797222,
			"0.018": 0.801799926778,
			"0.019": 0.0,
			"0.02": 0.0,
			"0.021": 0.0,
			"0.022": 0.0,
			"0.023": 0.0,
			"0.024": 0.0,
			"0.025": 0.0
		}
	}
}
