{
	 "smiles": "CC=C(C(=CC)C1=CC=C(O)C=C1)C1=CC=C(O)C=C1", 
	 "Tm": 500.65, 
	 "num_atms": 38, 
	 "gaussian": { 
		 "optdone": 1, 
		 "sigma_profile": "yes", 
		 "theory": "DFT", 
		 "functional": "B3LYP", 
		 "basiset": "6-31G**", 
		 "properties": { 
			 "R2extent": 6279.9099, 
			 "electric_dipole_moment_norm": 0.325719342379, 
			 "electric_quadrupole_moment_norm": 15.4133767008, 
			 "total_energy": -847.183160382, 
			 "HOMO_LUMO_gap": 0.18557, 
			 "cosmo_polarized_energy": -15.59, 
			 "cosmo_cavitation_energy": 41.49, 
			 "cosmo_dispersion_energy": -27.79, 
			 "cosmo_repulsion_energy": 2.2, 
			 "cosmo_total_nonelectrostatic_energy": 15.9, 
			 "SMD_solvation_energy": 7.87 
		},
		"coords": [
			{
				"x": -1.7875464138,
				"y": 3.3725242368,
				"z": 1.6137964681,
				"element": "C" 
			},
			{
				"x": -1.587059386,
				"y": 2.6396839669,
				"z": 0.3188255828,
				"element": "C" 
			},
			{
				"x": -0.7688204764,
				"y": 1.5939188522,
				"z": 0.0716905325,
				"element": "C" 
			},
			{
				"x": 0.1763652541,
				"y": 1.0454708137,
				"z": 1.100013587,
				"element": "C" 
			},
			{
				"x": 1.1458773309,
				"y": 1.84149626,
				"z": 1.5999071311,
				"element": "C" 
			},
			{
				"x": 2.1317221789,
				"y": 1.539238749,
				"z": 2.693186461,
				"element": "C" 
			},
			{
				"x": -0.0311594458,
				"y": -0.3760939188,
				"z": 1.4993355174,
				"element": "C" 
			},
			{
				"x": -1.3300060237,
				"y": -0.8591253873,
				"z": 1.7450306585,
				"element": "C" 
			},
			{
				"x": -1.5607504261,
				"y": -2.175708178,
				"z": 2.1252394903,
				"element": "C" 
			},
			{
				"x": -0.4844787907,
				"y": -3.0609179796,
				"z": 2.2554183031,
				"element": "C" 
			},
			{
				"x": -0.7636111985,
				"y": -4.3459976373,
				"z": 2.6275096553,
				"element": "O" 
			},
			{
				"x": 0.8136830627,
				"y": -2.6116178634,
				"z": 1.9960792649,
				"element": "C" 
			},
			{
				"x": 1.0303768922,
				"y": -1.2861348767,
				"z": 1.6212264903,
				"element": "C" 
			},
			{
				"x": -0.7701515226,
				"y": 0.9286484989,
				"z": -1.2628362249,
				"element": "C" 
			},
			{
				"x": 0.4248390244,
				"y": 0.4444256933,
				"z": -1.825578842,
				"element": "C" 
			},
			{
				"x": 0.4543429523,
				"y": -0.14612594,
				"z": -3.0838025599,
				"element": "C" 
			},
			{
				"x": -0.7289036246,
				"y": -0.278419071,
				"z": -3.8183398085,
				"element": "C" 
			},
			{
				"x": -0.6491754371,
				"y": -0.870002462,
				"z": -5.0485955913,
				"element": "O" 
			},
			{
				"x": -1.9326397463,
				"y": 0.1813640275,
				"z": -3.2749117836,
				"element": "C" 
			},
			{
				"x": -1.9467172442,
				"y": 0.7705865057,
				"z": -2.0122220753,
				"element": "C" 
			},
			{
				"x": -1.4333080618,
				"y": 4.4097737155,
				"z": 1.5429624855,
				"element": "H" 
			},
			{
				"x": -1.2644416214,
				"y": 2.89607417,
				"z": 2.4449573867,
				"element": "H" 
			},
			{
				"x": -2.8560713954,
				"y": 3.4305265525,
				"z": 1.8591202428,
				"element": "H" 
			},
			{
				"x": -2.19178313,
				"y": 3.0024361875,
				"z": -0.5121688374,
				"element": "H" 
			},
			{
				"x": 1.2112045171,
				"y": 2.8456220481,
				"z": 1.183217252,
				"element": "H" 
			},
			{
				"x": 1.8814234151,
				"y": 0.6299813673,
				"z": 3.243541488,
				"element": "H" 
			},
			{
				"x": 2.1690893747,
				"y": 2.3735498471,
				"z": 3.4044983762,
				"element": "H" 
			},
			{
				"x": 3.1512929251,
				"y": 1.426061757,
				"z": 2.2999210469,
				"element": "H" 
			},
			{
				"x": -2.1723670159,
				"y": -0.1822813779,
				"z": 1.6379600523,
				"element": "H" 
			},
			{
				"x": -2.5645248503,
				"y": -2.538419177,
				"z": 2.3212401985,
				"element": "H" 
			},
			{
				"x": 0.0604568647,
				"y": -4.8482921925,
				"z": 2.6680629947,
				"element": "H" 
			},
			{
				"x": 1.6539440149,
				"y": -3.2989970771,
				"z": 2.0744261262,
				"element": "H" 
			},
			{
				"x": 2.0415893326,
				"y": -0.9624573039,
				"z": 1.3963755112,
				"element": "H" 
			},
			{
				"x": 1.3501873643,
				"y": 0.5484353781,
				"z": -1.2673337683,
				"element": "H" 
			},
			{
				"x": 1.3820633729,
				"y": -0.5089670591,
				"z": -3.514311391,
				"element": "H" 
			},
			{
				"x": -1.5313693538,
				"y": -0.8991016574,
				"z": -5.440819331,
				"element": "H" 
			},
			{
				"x": -2.861124325,
				"y": 0.0634389058,
				"z": -3.8307052111,
				"element": "H" 
			},
			{
				"x": -2.8941483875,
				"y": 1.0944016265,
				"z": -1.592016879,
				"element": "H" 
			}
		],
		 "valence_orbital": [ 
			{
				"type": "occ",
				"energy": -0.25008,
				"method": "rhf"
			},
			{
				"type": "occ",
				"energy": -0.24728,
				"method": "rhf"
			},
			{
				"type": "occ",
				"energy": -0.24246,
				"method": "rhf"
			},
			{
				"type": "occ",
				"energy": -0.20486,
				"method": "rhf"
			},
			{
				"type": "occ",
				"energy": -0.19789,
				"method": "rhf"
			},
			{
				"type": "unocc",
				"energy": -0.01232,
				"method": "rhf"
			},
			{
				"type": "unocc",
				"energy": -0.00776,
				"method": "rhf"
			},
			{
				"type": "unocc",
				"energy": 0.00157,
				"method": "rhf"
			},
			{
				"type": "unocc",
				"energy": 0.00968,
				"method": "rhf"
			},
			{
				"type": "unocc",
				"energy": 0.03771,
				"method": "rhf"
			}
		],
		"cosmo_sigma_profile": { 
			"-0.025": 0.0,
			"-0.024": 0.0,
			"-0.023": 0.0,
			"-0.022": 0.0,
			"-0.021": 0.0,
			"-0.02": 0.0,
			"-0.019": 0.0,
			"-0.018": 0.409090633487,
			"-0.017": 2.01696616768,
			"-0.016": 2.63304615873,
			"-0.015": 2.39167730621,
			"-0.014": 1.51467687072,
			"-0.013": 1.98882218586,
			"-0.012": 1.69204784987,
			"-0.011": 1.99036440545,
			"-0.01": 2.07533144787,
			"-0.009": 2.04014281966,
			"-0.008": 2.35126127563,
			"-0.007": 2.735370217,
			"-0.006": 5.27149127572,
			"-0.005": 10.4576674195,
			"-0.004": 20.3945222916,
			"-0.003": 27.9900928149,
			"-0.002": 26.5288261247,
			"-0.001": 30.200672633,
			"0.0": 32.917933535,
			"0.001": 29.9639351254,
			"0.002": 20.9616042025,
			"0.003": 17.9945150257,
			"0.004": 22.0896203681,
			"0.005": 21.8383344465,
			"0.006": 18.9167103526,
			"0.007": 4.99963035013,
			"0.008": 2.41308216954,
			"0.009": 3.21349523836,
			"0.01": 3.02041199165,
			"0.011": 4.10310117135,
			"0.012": 1.66017431863,
			"0.013": 0.0,
			"0.014": 0.0,
			"0.015": 0.0,
			"0.016": 0.0,
			"0.017": 0.0,
			"0.018": 0.0,
			"0.019": 0.0,
			"0.02": 0.0,
			"0.021": 0.0,
			"0.022": 0.0,
			"0.023": 0.0,
			"0.024": 0.0,
			"0.025": 0.0
		}
	}
}
