{
	 "smiles": "OC(=O)CCS(=O)(=O)C1CCCC1", 
	 "Tm": 372.15, 
	 "num_atms": 27, 
	 "gaussian": { 
		 "optdone": 1, 
		 "sigma_profile": "yes", 
		 "theory": "DFT", 
		 "functional": "B3LYP", 
		 "basiset": "6-31G**", 
		 "properties": { 
			 "R2extent": 4150.6735, 
			 "electric_dipole_moment_norm": 7.42263728199, 
			 "electric_quadrupole_moment_norm": 27.2319870966, 
			 "total_energy": -1012.33417653, 
			 "HOMO_LUMO_gap": 0.27166, 
			 "cosmo_polarized_energy": -21.56, 
			 "cosmo_cavitation_energy": 29.63, 
			 "cosmo_dispersion_energy": -21.99, 
			 "cosmo_repulsion_energy": 1.7, 
			 "cosmo_total_nonelectrostatic_energy": 9.33, 
			 "SMD_solvation_energy": 4.82 
		},
		"coords": [
			{
				"x": -3.516653955,
				"y": 0.5947559331,
				"z": 0.7755591561,
				"element": "O" 
			},
			{
				"x": -3.6704079911,
				"y": 1.8672985529,
				"z": 0.3874654432,
				"element": "C" 
			},
			{
				"x": -4.7591181069,
				"y": 2.3903102247,
				"z": 0.3370181289,
				"element": "O" 
			},
			{
				"x": -2.3969519312,
				"y": 2.6412051205,
				"z": 0.0080582085,
				"element": "C" 
			},
			{
				"x": -1.5410793293,
				"y": 1.9901486994,
				"z": -1.0935449099,
				"element": "C" 
			},
			{
				"x": -0.2684942014,
				"y": 0.8247471728,
				"z": -0.4991706639,
				"element": "S" 
			},
			{
				"x": -0.8386725727,
				"y": 0.1268436065,
				"z": 0.6870860393,
				"element": "O" 
			},
			{
				"x": 0.1948016989,
				"y": 0.0339582269,
				"z": -1.6506232457,
				"element": "O" 
			},
			{
				"x": 1.1033223855,
				"y": 1.8695489329,
				"z": 0.114241938,
				"element": "C" 
			},
			{
				"x": 1.8320473784,
				"y": 2.6167315139,
				"z": -1.0366997117,
				"element": "C" 
			},
			{
				"x": 3.3325803374,
				"y": 2.3356227155,
				"z": -0.8036973358,
				"element": "C" 
			},
			{
				"x": 3.346148461,
				"y": 0.9316331482,
				"z": -0.1814535229,
				"element": "C" 
			},
			{
				"x": 2.1692504123,
				"y": 0.9709824059,
				"z": 0.8070887402,
				"element": "C" 
			},
			{
				"x": -2.5683644984,
				"y": 0.3315092512,
				"z": 0.8160543216,
				"element": "H" 
			},
			{
				"x": -2.7359158313,
				"y": 3.6186882915,
				"z": -0.3389873589,
				"element": "H" 
			},
			{
				"x": -1.8028901718,
				"y": 2.8081623147,
				"z": 0.9150261034,
				"element": "H" 
			},
			{
				"x": -2.135847262,
				"y": 1.3889274344,
				"z": -1.7881054893,
				"element": "H" 
			},
			{
				"x": -1.0048978688,
				"y": 2.7368184888,
				"z": -1.6857675759,
				"element": "H" 
			},
			{
				"x": 0.6249365344,
				"y": 2.5458220503,
				"z": 0.8282595038,
				"element": "H" 
			},
			{
				"x": 1.5911408382,
				"y": 3.6834008397,
				"z": -1.0470576502,
				"element": "H" 
			},
			{
				"x": 1.535068269,
				"y": 2.1951752999,
				"z": -2.00266364,
				"element": "H" 
			},
			{
				"x": 3.74768415,
				"y": 3.0635529138,
				"z": -0.0957949441,
				"element": "H" 
			},
			{
				"x": 3.9129589269,
				"y": 2.4086659465,
				"z": -1.7278451217,
				"element": "H" 
			},
			{
				"x": 3.157623515,
				"y": 0.1771169461,
				"z": -0.9531405184,
				"element": "H" 
			},
			{
				"x": 4.2933856629,
				"y": 0.6845850332,
				"z": 0.3066053021,
				"element": "H" 
			},
			{
				"x": 1.781913935,
				"y": -0.0136516991,
				"z": 1.0799008256,
				"element": "H" 
			},
			{
				"x": 2.4690312149,
				"y": 1.4634406358,
				"z": 1.7381879777,
				"element": "H" 
			}
		],
		 "valence_orbital": [ 
			{
				"type": "occ",
				"energy": -0.32913,
				"method": "rhf"
			},
			{
				"type": "occ",
				"energy": -0.31716,
				"method": "rhf"
			},
			{
				"type": "occ",
				"energy": -0.30223,
				"method": "rhf"
			},
			{
				"type": "occ",
				"energy": -0.30176,
				"method": "rhf"
			},
			{
				"type": "occ",
				"energy": -0.26139,
				"method": "rhf"
			},
			{
				"type": "unocc",
				"energy": 0.01027,
				"method": "rhf"
			},
			{
				"type": "unocc",
				"energy": 0.02916,
				"method": "rhf"
			},
			{
				"type": "unocc",
				"energy": 0.03649,
				"method": "rhf"
			},
			{
				"type": "unocc",
				"energy": 0.05637,
				"method": "rhf"
			},
			{
				"type": "unocc",
				"energy": 0.05938,
				"method": "rhf"
			}
		],
		"cosmo_sigma_profile": { 
			"-0.025": 0.0,
			"-0.024": 0.0,
			"-0.023": 0.0,
			"-0.022": 0.0,
			"-0.021": 0.0,
			"-0.02": 0.0,
			"-0.019": 0.0,
			"-0.018": 0.0,
			"-0.017": 0.0,
			"-0.016": 0.0,
			"-0.015": 0.0,
			"-0.014": 0.0,
			"-0.013": 0.0,
			"-0.012": 0.0,
			"-0.011": 0.122021954676,
			"-0.01": 3.16918053415,
			"-0.009": 8.05530114827,
			"-0.008": 12.046450675,
			"-0.007": 10.726621313,
			"-0.006": 10.3517474693,
			"-0.005": 13.3628770936,
			"-0.004": 17.1409469588,
			"-0.003": 21.405131731,
			"-0.002": 20.386746609,
			"-0.001": 19.3730005721,
			"0.0": 16.1837440473,
			"0.001": 7.02608401047,
			"0.002": 5.17266580793,
			"0.003": 5.59144970108,
			"0.004": 4.34039429875,
			"0.005": 3.54900508461,
			"0.006": 4.43156234283,
			"0.007": 4.96078361299,
			"0.008": 5.56408756561,
			"0.009": 5.40029335155,
			"0.01": 9.30992381959,
			"0.011": 11.2879044089,
			"0.012": 8.56218015939,
			"0.013": 3.67350680958,
			"0.014": 0.459079458391,
			"0.015": 0.0,
			"0.016": 0.0,
			"0.017": 0.0,
			"0.018": 0.0,
			"0.019": 0.0,
			"0.02": 0.0,
			"0.021": 0.0,
			"0.022": 0.0,
			"0.023": 0.0,
			"0.024": 0.0,
			"0.025": 0.0
		}
	}
}
