{
	 "smiles": "CC1=NC2=C(C3=C(CCCCC3)S2)C(Cl)=N1", 
	 "Tm": 318.15, 
	 "num_atms": 29, 
	 "gaussian": { 
		 "optdone": 1, 
		 "sigma_profile": "yes", 
		 "theory": "DFT", 
		 "functional": "B3LYP", 
		 "basiset": "6-31G**", 
		 "properties": { 
			 "R2extent": 5205.3403, 
			 "electric_dipole_moment_norm": 2.96892516746, 
			 "electric_quadrupole_moment_norm": 6.48962884455, 
			 "total_energy": -1433.01284789, 
			 "HOMO_LUMO_gap": 0.17871, 
			 "cosmo_polarized_energy": -6.43, 
			 "cosmo_cavitation_energy": 33.31, 
			 "cosmo_dispersion_energy": -25.39, 
			 "cosmo_repulsion_energy": 1.93, 
			 "cosmo_total_nonelectrostatic_energy": 9.85, 
			 "SMD_solvation_energy": 1.08 
		},
		"coords": [
			{
				"x": 2.2054907704,
				"y": -1.2716406742,
				"z": 5.0368590716,
				"element": "C" 
			},
			{
				"x": 1.6227435424,
				"y": -0.6679129256,
				"z": 3.7906788016,
				"element": "C" 
			},
			{
				"x": 1.790623462,
				"y": -1.3099797748,
				"z": 2.633646944,
				"element": "N" 
			},
			{
				"x": 1.2567585635,
				"y": -0.7114457987,
				"z": 1.5713290858,
				"element": "C" 
			},
			{
				"x": 0.5490325451,
				"y": 0.5220491542,
				"z": 1.5637580228,
				"element": "C" 
			},
			{
				"x": 0.1120403688,
				"y": 0.9056001286,
				"z": 0.2332021598,
				"element": "C" 
			},
			{
				"x": 0.4609465608,
				"y": -0.0317535946,
				"z": -0.7030791573,
				"element": "C" 
			},
			{
				"x": 0.1922849586,
				"y": -0.0582932604,
				"z": -2.1908487949,
				"element": "C" 
			},
			{
				"x": -0.998977268,
				"y": 0.7915514366,
				"z": -2.7012676633,
				"element": "C" 
			},
			{
				"x": -2.1933867617,
				"y": 0.8354452033,
				"z": -1.7323188939,
				"element": "C" 
			},
			{
				"x": -2.0647580044,
				"y": 1.931380564,
				"z": -0.6515923711,
				"element": "C" 
			},
			{
				"x": -0.6231034499,
				"y": 2.1710856478,
				"z": -0.1566336004,
				"element": "C" 
			},
			{
				"x": 1.3478925251,
				"y": -1.3997476238,
				"z": -0.029514596,
				"element": "S" 
			},
			{
				"x": 0.4391234036,
				"y": 1.0609993204,
				"z": 2.8628936256,
				"element": "C" 
			},
			{
				"x": -0.4387550274,
				"y": 2.5624041765,
				"z": 3.1778527495,
				"element": "Cl" 
			},
			{
				"x": 0.9543621355,
				"y": 0.4979430127,
				"z": 3.9315271685,
				"element": "N" 
			},
			{
				"x": 2.9176331891,
				"y": -0.5785895091,
				"z": 5.4966622684,
				"element": "H" 
			},
			{
				"x": 2.7102350305,
				"y": -2.2088582399,
				"z": 4.8008411041,
				"element": "H" 
			},
			{
				"x": 1.4173254463,
				"y": -1.4552573683,
				"z": 5.7741936511,
				"element": "H" 
			},
			{
				"x": 0.0050842558,
				"y": -1.1039374023,
				"z": -2.466866954,
				"element": "H" 
			},
			{
				"x": 1.1064897492,
				"y": 0.2247412472,
				"z": -2.7316954902,
				"element": "H" 
			},
			{
				"x": -0.668651943,
				"y": 1.8116470607,
				"z": -2.9279680995,
				"element": "H" 
			},
			{
				"x": -1.3116895698,
				"y": 0.3627586474,
				"z": -3.6597321943,
				"element": "H" 
			},
			{
				"x": -3.1201887037,
				"y": 1.0022120694,
				"z": -2.2928593166,
				"element": "H" 
			},
			{
				"x": -2.3017191532,
				"y": -0.1470380454,
				"z": -1.2571485554,
				"element": "H" 
			},
			{
				"x": -2.4359903558,
				"y": 2.8833943461,
				"z": -1.0517690893,
				"element": "H" 
			},
			{
				"x": -2.7097286011,
				"y": 1.6817939748,
				"z": 0.1989927891,
				"element": "H" 
			},
			{
				"x": -0.0507868296,
				"y": 2.6679970119,
				"z": -0.9482491783,
				"element": "H" 
			},
			{
				"x": -0.643530839,
				"y": 2.8706512154,
				"z": 0.6771065125,
				"element": "H" 
			}
		],
		 "valence_orbital": [ 
			{
				"type": "occ",
				"energy": -0.30883,
				"method": "rhf"
			},
			{
				"type": "occ",
				"energy": -0.29833,
				"method": "rhf"
			},
			{
				"type": "occ",
				"energy": -0.26396,
				"method": "rhf"
			},
			{
				"type": "occ",
				"energy": -0.26062,
				"method": "rhf"
			},
			{
				"type": "occ",
				"energy": -0.22651,
				"method": "rhf"
			},
			{
				"type": "unocc",
				"energy": -0.0478,
				"method": "rhf"
			},
			{
				"type": "unocc",
				"energy": -0.03481,
				"method": "rhf"
			},
			{
				"type": "unocc",
				"energy": 0.00492,
				"method": "rhf"
			},
			{
				"type": "unocc",
				"energy": 0.02471,
				"method": "rhf"
			},
			{
				"type": "unocc",
				"energy": 0.03892,
				"method": "rhf"
			}
		],
		"cosmo_sigma_profile": { 
			"-0.025": 0.0,
			"-0.024": 0.0,
			"-0.023": 0.0,
			"-0.022": 0.0,
			"-0.021": 0.0,
			"-0.02": 0.0,
			"-0.019": 0.0,
			"-0.018": 0.0,
			"-0.017": 0.0,
			"-0.016": 0.0,
			"-0.015": 0.0,
			"-0.014": 0.0,
			"-0.013": 0.0,
			"-0.012": 0.0,
			"-0.011": 0.0,
			"-0.01": 0.0,
			"-0.009": 0.0,
			"-0.008": 0.0,
			"-0.007": 0.0,
			"-0.006": 0.92538980138,
			"-0.005": 9.21992162862,
			"-0.004": 14.7807142584,
			"-0.003": 28.448139402,
			"-0.002": 40.0723744835,
			"-0.001": 47.7156096154,
			"0.0": 37.1551374999,
			"0.001": 26.3886683141,
			"0.002": 17.3697374228,
			"0.003": 12.5293998315,
			"0.004": 11.0503229572,
			"0.005": 4.80317811061,
			"0.006": 3.32512068636,
			"0.007": 3.22806003815,
			"0.008": 2.0737344536,
			"0.009": 1.81848067156,
			"0.01": 1.96405823691,
			"0.011": 1.48784438358,
			"0.012": 1.95603974315,
			"0.013": 1.33704632709,
			"0.014": 0.243544547269,
			"0.015": 0.0,
			"0.016": 0.0,
			"0.017": 0.0,
			"0.018": 0.0,
			"0.019": 0.0,
			"0.02": 0.0,
			"0.021": 0.0,
			"0.022": 0.0,
			"0.023": 0.0,
			"0.024": 0.0,
			"0.025": 0.0
		}
	}
}
