{
	 "smiles": "CC1=C(NC2CC2)C=CC(=C1)C#N", 
	 "Tm": 375.15, 
	 "num_atms": 25, 
	 "gaussian": { 
		 "optdone": 1, 
		 "sigma_profile": "yes", 
		 "theory": "DFT", 
		 "functional": "B3LYP", 
		 "basiset": "6-31G**", 
		 "properties": { 
			 "R2extent": 3419.8754, 
			 "electric_dipole_moment_norm": 7.31047546607, 
			 "electric_quadrupole_moment_norm": 24.2302435312, 
			 "total_energy": -535.869751585, 
			 "HOMO_LUMO_gap": 0.18464, 
			 "cosmo_polarized_energy": -12.59, 
			 "cosmo_cavitation_energy": 29.18, 
			 "cosmo_dispersion_energy": -20.47, 
			 "cosmo_repulsion_energy": 1.63, 
			 "cosmo_total_nonelectrostatic_energy": 10.34, 
			 "SMD_solvation_energy": 5.4 
		},
		"coords": [
			{
				"x": -0.9967693981,
				"y": 1.5852727286,
				"z": 0.50017979,
				"element": "C" 
			},
			{
				"x": -1.0012531439,
				"y": 0.0763623902,
				"z": 0.4918502961,
				"element": "C" 
			},
			{
				"x": 0.1707515434,
				"y": -0.6447877752,
				"z": 0.1335946072,
				"element": "C" 
			},
			{
				"x": 1.3139563504,
				"y": 0.0515489253,
				"z": -0.2277213566,
				"element": "N" 
			},
			{
				"x": 2.591206396,
				"y": -0.5829277676,
				"z": -0.3730070642,
				"element": "C" 
			},
			{
				"x": 2.9396474292,
				"y": -1.218494561,
				"z": -1.700428579,
				"element": "C" 
			},
			{
				"x": 3.5856713375,
				"y": 0.0798814171,
				"z": -1.2880801297,
				"element": "C" 
			},
			{
				"x": 0.1390238124,
				"y": -2.0530185802,
				"z": 0.122501392,
				"element": "C" 
			},
			{
				"x": -1.0196893651,
				"y": -2.7407188458,
				"z": 0.4542340083,
				"element": "C" 
			},
			{
				"x": -2.1810816195,
				"y": -2.0394328406,
				"z": 0.8130019398,
				"element": "C" 
			},
			{
				"x": -2.1486009447,
				"y": -0.6323325734,
				"z": 0.8242029254,
				"element": "C" 
			},
			{
				"x": -3.3791661019,
				"y": -2.7380966658,
				"z": 1.1606758349,
				"element": "C" 
			},
			{
				"x": -4.3554824208,
				"y": -3.3061261306,
				"z": 1.4444670463,
				"element": "N" 
			},
			{
				"x": -1.9844133419,
				"y": 1.9770823506,
				"z": 0.7535995147,
				"element": "H" 
			},
			{
				"x": -0.2893738149,
				"y": 1.9921037117,
				"z": 1.2367566614,
				"element": "H" 
			},
			{
				"x": -0.7165708697,
				"y": 1.993880173,
				"z": -0.4790079798,
				"element": "H" 
			},
			{
				"x": 1.3510207612,
				"y": 1.0126291246,
				"z": 0.080028577,
				"element": "H" 
			},
			{
				"x": 2.9882256192,
				"y": -1.0704863941,
				"z": 0.5201332514,
				"element": "H" 
			},
			{
				"x": 3.5391572478,
				"y": -2.123580228,
				"z": -1.6907591103,
				"element": "H" 
			},
			{
				"x": 2.1821694672,
				"y": -1.1772891269,
				"z": -2.4758682691,
				"element": "H" 
			},
			{
				"x": 4.6298118288,
				"y": 0.0740998126,
				"z": -0.9924511796,
				"element": "H" 
			},
			{
				"x": 3.2640234897,
				"y": 0.9821244686,
				"z": -1.7994591726,
				"element": "H" 
			},
			{
				"x": 1.0294586,
				"y": -2.6046980495,
				"z": -0.1536516439,
				"element": "H" 
			},
			{
				"x": -1.0292732773,
				"y": -3.8256584087,
				"z": 0.4407978991,
				"element": "H" 
			},
			{
				"x": -3.0467495852,
				"y": -0.0872371549,
				"z": 1.0989107412,
				"element": "H" 
			}
		],
		 "valence_orbital": [ 
			{
				"type": "occ",
				"energy": -0.31409,
				"method": "rhf"
			},
			{
				"type": "occ",
				"energy": -0.31086,
				"method": "rhf"
			},
			{
				"type": "occ",
				"energy": -0.28843,
				"method": "rhf"
			},
			{
				"type": "occ",
				"energy": -0.25824,
				"method": "rhf"
			},
			{
				"type": "occ",
				"energy": -0.21068,
				"method": "rhf"
			},
			{
				"type": "unocc",
				"energy": -0.02604,
				"method": "rhf"
			},
			{
				"type": "unocc",
				"energy": -0.00939,
				"method": "rhf"
			},
			{
				"type": "unocc",
				"energy": 0.05261,
				"method": "rhf"
			},
			{
				"type": "unocc",
				"energy": 0.06917,
				"method": "rhf"
			},
			{
				"type": "unocc",
				"energy": 0.08322,
				"method": "rhf"
			}
		],
		"cosmo_sigma_profile": { 
			"-0.025": 0.0,
			"-0.024": 0.0,
			"-0.023": 0.0,
			"-0.022": 0.0,
			"-0.021": 0.0,
			"-0.02": 0.0,
			"-0.019": 0.0,
			"-0.018": 0.0,
			"-0.017": 0.0,
			"-0.016": 0.0,
			"-0.015": 0.0,
			"-0.014": 0.0,
			"-0.013": 0.0,
			"-0.012": 0.828850189767,
			"-0.011": 1.16486575671,
			"-0.01": 1.13862116944,
			"-0.009": 1.02690485523,
			"-0.008": 1.54813424896,
			"-0.007": 4.83885838606,
			"-0.006": 6.2743327716,
			"-0.005": 18.9449458483,
			"-0.004": 22.2107990732,
			"-0.003": 19.5667867001,
			"-0.002": 20.085099441,
			"-0.001": 23.1237668686,
			"0.0": 20.48192935,
			"0.001": 16.4153637057,
			"0.002": 14.0987257983,
			"0.003": 13.2420944668,
			"0.004": 15.2924524242,
			"0.005": 6.01803225371,
			"0.006": 2.7920568284,
			"0.007": 3.31598461964,
			"0.008": 2.58357165745,
			"0.009": 3.4646364697,
			"0.01": 3.83214266845,
			"0.011": 3.16542980914,
			"0.012": 3.01649323617,
			"0.013": 2.48013142792,
			"0.014": 1.44209241724,
			"0.015": 0.0403237912711,
			"0.016": 0.0,
			"0.017": 0.0,
			"0.018": 0.0,
			"0.019": 0.0,
			"0.02": 0.0,
			"0.021": 0.0,
			"0.022": 0.0,
			"0.023": 0.0,
			"0.024": 0.0,
			"0.025": 0.0
		}
	}
}
