{
	 "smiles": "CN1C=C(I)C=N1", 
	 "Tm": 337.15, 
	 "num_atms": 12, 
	 "gaussian": { 
		 "optdone": 1, 
		 "sigma_profile": "no", 
		 "theory": "DFT", 
		 "functional": "B3LYP", 
		 "basiset": "6-31G**", 
		 "properties": { 
			 "R2extent": 887.8284, 
			 "electric_dipole_moment_norm": 2.86125228003, 
			 "electric_quadrupole_moment_norm": 7.09109764705, 
			 "total_energy": -276.298230925, 
			 "HOMO_LUMO_gap": 0.2001, 
			 "cosmo_polarized_energy": -103845.44, 
			 "cosmo_cavitation_energy": 19.27, 
			 "cosmo_dispersion_energy": -15.9, 
			 "cosmo_repulsion_energy": 1.3, 
			 "cosmo_total_nonelectrostatic_energy": 4.68, 
			 "SMD_solvation_energy": 2.27 
		},
		"coords": [
			{
				"x": -1.3318869953,
				"y": -1.6588492518,
				"z": 0.8937315704,
				"element": "C" 
			},
			{
				"x": -0.268980275,
				"y": -0.7652191187,
				"z": 0.4700672148,
				"element": "N" 
			},
			{
				"x": 1.0176918218,
				"y": -1.0789810135,
				"z": 0.1700005387,
				"element": "C" 
			},
			{
				"x": 1.6330647665,
				"y": 0.1111767887,
				"z": -0.1776651653,
				"element": "C" 
			},
			{
				"x": 3.6194091868,
				"y": 0.3712483563,
				"z": -0.7543650266,
				"element": "I" 
			},
			{
				"x": 0.6277147811,
				"y": 1.0941874488,
				"z": -0.0558981916,
				"element": "C" 
			},
			{
				"x": -0.5246448269,
				"y": 0.5539515137,
				"z": 0.338258208,
				"element": "N" 
			},
			{
				"x": -1.6990376108,
				"y": -1.3627951812,
				"z": 1.8795996714,
				"element": "H" 
			},
			{
				"x": -0.9404200678,
				"y": -2.6760265648,
				"z": 0.9431231011,
				"element": "H" 
			},
			{
				"x": -2.1585393433,
				"y": -1.6221520598,
				"z": 0.1798100214,
				"element": "H" 
			},
			{
				"x": 1.3949400803,
				"y": -2.0889872913,
				"z": 0.2219100586,
				"element": "H" 
			},
			{
				"x": 0.7008884827,
				"y": 2.1571463736,
				"z": -0.2377720008,
				"element": "H" 
			}
		],
		 "valence_orbital": [ 
			{
				"type": "occ",
				"energy": -0.3008,
				"method": "rhf"
			},
			{
				"type": "occ",
				"energy": -0.29909,
				"method": "rhf"
			},
			{
				"type": "occ",
				"energy": -0.26597,
				"method": "rhf"
			},
			{
				"type": "occ",
				"energy": -0.26099,
				"method": "rhf"
			},
			{
				"type": "occ",
				"energy": -0.23045,
				"method": "rhf"
			},
			{
				"type": "unocc",
				"energy": -0.03035,
				"method": "rhf"
			},
			{
				"type": "unocc",
				"energy": 0.00746,
				"method": "rhf"
			},
			{
				"type": "unocc",
				"energy": 0.0405,
				"method": "rhf"
			},
			{
				"type": "unocc",
				"energy": 0.04394,
				"method": "rhf"
			},
			{
				"type": "unocc",
				"energy": 0.06002,
				"method": "rhf"
			}
		],
		"cosmo_sigma_profile": { 
			"0.0": 0.0,
			"0.0": 0.0,
			"0.0": 0.0,
			"0.0": 0.0,
			"0.0": 0.0,
			"0.0": 0.0,
			"0.0": 0.0,
			"0.0": 0.0,
			"0.0": 0.0,
			"0.0": 0.0,
			"0.0": 0.0,
			"0.0": 0.0,
			"0.0": 0.0,
			"0.0": 0.0,
			"0.0": 0.0,
			"0.0": 0.0,
			"0.0": 0.0,
			"0.0": 0.0,
			"0.0": 0.0,
			"0.0": 0.0,
			"0.0": 0.0,
			"0.0": 0.0,
			"0.0": 0.0,
			"0.0": 0.0,
			"0.0": 0.0,
			"0.0": 0.0,
			"0.0": 0.0,
			"0.0": 0.0,
			"0.0": 0.0,
			"0.0": 0.0,
			"0.0": 0.0,
			"0.0": 0.0,
			"0.0": 0.0,
			"0.0": 0.0,
			"0.0": 0.0,
			"0.0": 0.0,
			"0.0": 0.0,
			"0.0": 0.0,
			"0.0": 0.0,
			"0.0": 0.0,
			"0.0": 0.0,
			"0.0": 0.0,
			"0.0": 0.0,
			"0.0": 0.0,
			"0.0": 0.0,
			"0.0": 0.0,
			"0.0": 0.0,
			"0.0": 0.0,
			"0.0": 0.0,
			"0.0": 0.0,
			"0.0": 0.0
		}
	}
}
