{
	 "smiles": "NC1(CCOCC1)C1=CC(F)=CC=C1", 
	 "Tm": 322.15, 
	 "num_atms": 28, 
	 "gaussian": { 
		 "optdone": 1, 
		 "sigma_profile": "yes", 
		 "theory": "DFT", 
		 "functional": "B3LYP", 
		 "basiset": "6-31G**", 
		 "properties": { 
			 "R2extent": 2768.4191, 
			 "electric_dipole_moment_norm": 2.98561726449, 
			 "electric_quadrupole_moment_norm": 7.05819125768, 
			 "total_energy": -657.398114912, 
			 "HOMO_LUMO_gap": 0.2284, 
			 "cosmo_polarized_energy": -9.14, 
			 "cosmo_cavitation_energy": 29.02, 
			 "cosmo_dispersion_energy": -21.18, 
			 "cosmo_repulsion_energy": 1.63, 
			 "cosmo_total_nonelectrostatic_energy": 9.47, 
			 "SMD_solvation_energy": 4.69 
		},
		"coords": [
			{
				"x": 1.0829149097,
				"y": 1.0992975582,
				"z": -2.5090511162,
				"element": "N" 
			},
			{
				"x": 0.245589823,
				"y": 0.2578160393,
				"z": -1.6332668317,
				"element": "C" 
			},
			{
				"x": -1.2853570188,
				"y": 0.5897992941,
				"z": -1.7720126339,
				"element": "C" 
			},
			{
				"x": -2.161281436,
				"y": -0.6686186878,
				"z": -1.9036747559,
				"element": "C" 
			},
			{
				"x": -1.7289024926,
				"y": -1.6891619665,
				"z": -1.0168854265,
				"element": "O" 
			},
			{
				"x": -0.4368399745,
				"y": -2.2095275226,
				"z": -1.3468985298,
				"element": "C" 
			},
			{
				"x": 0.4548241441,
				"y": -1.2070070209,
				"z": -2.0959047503,
				"element": "C" 
			},
			{
				"x": 0.7536390158,
				"y": 0.4270018508,
				"z": -0.1877593792,
				"element": "C" 
			},
			{
				"x": -0.0523923513,
				"y": 0.0981254563,
				"z": 0.9129405127,
				"element": "C" 
			},
			{
				"x": 0.4532115619,
				"y": 0.2406355864,
				"z": 2.1990127035,
				"element": "C" 
			},
			{
				"x": -0.3421723929,
				"y": -0.0829710111,
				"z": 3.2437941749,
				"element": "F" 
			},
			{
				"x": 1.7389808446,
				"y": 0.7007442134,
				"z": 2.4529744743,
				"element": "C" 
			},
			{
				"x": 2.5421051459,
				"y": 1.0155186248,
				"z": 1.3569969086,
				"element": "C" 
			},
			{
				"x": 2.0614137788,
				"y": 0.8781147506,
				"z": 0.0535424687,
				"element": "C" 
			},
			{
				"x": 0.9364692204,
				"y": 2.080638587,
				"z": -2.2774856612,
				"element": "H" 
			},
			{
				"x": 0.7782565057,
				"y": 0.9827009872,
				"z": -3.4730304987,
				"element": "H" 
			},
			{
				"x": -1.4274929714,
				"y": 1.2091198294,
				"z": -2.665993165,
				"element": "H" 
			},
			{
				"x": -1.6174087878,
				"y": 1.1899917403,
				"z": -0.9195792,
				"element": "H" 
			},
			{
				"x": -3.2000152882,
				"y": -0.4527596146,
				"z": -1.6370990114,
				"element": "H" 
			},
			{
				"x": -2.1634700088,
				"y": -1.0352188188,
				"z": -2.943168914,
				"element": "H" 
			},
			{
				"x": 0.0201329951,
				"y": -2.4936742492,
				"z": -0.3942353102,
				"element": "H" 
			},
			{
				"x": -0.5510361474,
				"y": -3.123064446,
				"z": -1.9506869306,
				"element": "H" 
			},
			{
				"x": 0.2376559545,
				"y": -1.2503202083,
				"z": -3.1716669854,
				"element": "H" 
			},
			{
				"x": 1.5064386014,
				"y": -1.4835549196,
				"z": -1.9775318715,
				"element": "H" 
			},
			{
				"x": -1.053197615,
				"y": -0.2970465265,
				"z": 0.7838965791,
				"element": "H" 
			},
			{
				"x": 2.0871391318,
				"y": 0.8002776092,
				"z": 3.4752945577,
				"element": "H" 
			},
			{
				"x": 3.5548368954,
				"y": 1.3728733654,
				"z": 1.5209188332,
				"element": "H" 
			},
			{
				"x": 2.6949579568,
				"y": 1.1192694994,
				"z": -0.7913402412,
				"element": "H" 
			}
		],
		 "valence_orbital": [ 
			{
				"type": "occ",
				"energy": -0.3043,
				"method": "rhf"
			},
			{
				"type": "occ",
				"energy": -0.25181,
				"method": "rhf"
			},
			{
				"type": "occ",
				"energy": -0.24674,
				"method": "rhf"
			},
			{
				"type": "occ",
				"energy": -0.24093,
				"method": "rhf"
			},
			{
				"type": "occ",
				"energy": -0.23304,
				"method": "rhf"
			},
			{
				"type": "unocc",
				"energy": -0.00464,
				"method": "rhf"
			},
			{
				"type": "unocc",
				"energy": 0.00923,
				"method": "rhf"
			},
			{
				"type": "unocc",
				"energy": 0.0709,
				"method": "rhf"
			},
			{
				"type": "unocc",
				"energy": 0.09825,
				"method": "rhf"
			},
			{
				"type": "unocc",
				"energy": 0.10396,
				"method": "rhf"
			}
		],
		"cosmo_sigma_profile": { 
			"-0.025": 0.0,
			"-0.024": 0.0,
			"-0.023": 0.0,
			"-0.022": 0.0,
			"-0.021": 0.0,
			"-0.02": 0.0,
			"-0.019": 0.0,
			"-0.018": 0.0,
			"-0.017": 0.0,
			"-0.016": 0.0,
			"-0.015": 0.0,
			"-0.014": 0.0,
			"-0.013": 0.0,
			"-0.012": 0.0,
			"-0.011": 0.0,
			"-0.01": 0.755069791966,
			"-0.009": 2.59670819822,
			"-0.008": 2.9909945912,
			"-0.007": 4.13067634635,
			"-0.006": 7.47495664091,
			"-0.005": 9.13993937656,
			"-0.004": 19.6221394353,
			"-0.003": 28.6661175171,
			"-0.002": 25.2750309718,
			"-0.001": 17.7186760765,
			"0.0": 14.5692671154,
			"0.001": 14.7892957059,
			"0.002": 15.4894529744,
			"0.003": 12.4025299386,
			"0.004": 16.6516820111,
			"0.005": 17.7249213887,
			"0.006": 3.57052224551,
			"0.007": 1.36187215952,
			"0.008": 1.88231823893,
			"0.009": 2.53631979754,
			"0.01": 0.936373001171,
			"0.011": 1.5710883448,
			"0.012": 1.64222426494,
			"0.013": 1.64847821495,
			"0.014": 1.31526012884,
			"0.015": 0.311315274055,
			"0.016": 0.371655227349,
			"0.017": 0.179211507308,
			"0.018": 0.0,
			"0.019": 0.0,
			"0.02": 0.0,
			"0.021": 0.0,
			"0.022": 0.0,
			"0.023": 0.0,
			"0.024": 0.0,
			"0.025": 0.0
		}
	}
}
