{
	 "smiles": "O=C(C=C1NC(=O)CS1)C1CC1", 
	 "Tm": 462.15, 
	 "num_atms": 21, 
	 "gaussian": { 
		 "optdone": 1, 
		 "sigma_profile": "yes", 
		 "theory": "DFT", 
		 "functional": "B3LYP", 
		 "basiset": "6-31G**", 
		 "properties": { 
			 "R2extent": 3332.1295, 
			 "electric_dipole_moment_norm": 2.38181600675, 
			 "electric_quadrupole_moment_norm": 15.0153478005, 
			 "total_energy": -913.630506686, 
			 "HOMO_LUMO_gap": 0.17679, 
			 "cosmo_polarized_energy": -15.54, 
			 "cosmo_cavitation_energy": 26.67, 
			 "cosmo_dispersion_energy": -19.82, 
			 "cosmo_repulsion_energy": 1.54, 
			 "cosmo_total_nonelectrostatic_energy": 8.39, 
			 "SMD_solvation_energy": 5.12 
		},
		"coords": [
			{
				"x": 0.1361025444,
				"y": 1.511442863,
				"z": 2.0126224177,
				"element": "O" 
			},
			{
				"x": -0.0789526565,
				"y": 1.1946798382,
				"z": 0.8457186709,
				"element": "C" 
			},
			{
				"x": -0.3435825978,
				"y": -0.2133899748,
				"z": 0.5075055177,
				"element": "C" 
			},
			{
				"x": -0.9998634699,
				"y": -0.7059361523,
				"z": -0.569730912,
				"element": "C" 
			},
			{
				"x": -1.601837775,
				"y": 0.00755696,
				"z": -1.5954544243,
				"element": "N" 
			},
			{
				"x": -2.2828705863,
				"y": -0.6656695824,
				"z": -2.5929127723,
				"element": "C" 
			},
			{
				"x": -2.8754968171,
				"y": -0.129377743,
				"z": -3.5044509181,
				"element": "O" 
			},
			{
				"x": -2.1842553353,
				"y": -2.1760820279,
				"z": -2.3785983144,
				"element": "C" 
			},
			{
				"x": -1.2440427968,
				"y": -2.4528806111,
				"z": -0.8317727038,
				"element": "S" 
			},
			{
				"x": -0.0568046659,
				"y": 2.2343128478,
				"z": -0.2447581547,
				"element": "C" 
			},
			{
				"x": 0.3821124297,
				"y": 3.6291037717,
				"z": 0.1282575756,
				"element": "C" 
			},
			{
				"x": -1.066656098,
				"y": 3.3859877287,
				"z": -0.1463826558,
				"element": "C" 
			},
			{
				"x": -0.0378932032,
				"y": -0.9187176206,
				"z": 1.2735439592,
				"element": "H" 
			},
			{
				"x": -1.649550368,
				"y": 1.0183858682,
				"z": -1.5666874516,
				"element": "H" 
			},
			{
				"x": -1.6750635627,
				"y": -2.6311012663,
				"z": -3.2315501204,
				"element": "H" 
			},
			{
				"x": -3.1908835229,
				"y": -2.5943276444,
				"z": -2.3087992754,
				"element": "H" 
			},
			{
				"x": 0.2070014317,
				"y": 1.8874365549,
				"z": -1.2402147455,
				"element": "H" 
			},
			{
				"x": 0.9625415508,
				"y": 4.1790144007,
				"z": -0.6052516824,
				"element": "H" 
			},
			{
				"x": 0.6797463414,
				"y": 3.7557242038,
				"z": 1.1634843918,
				"element": "H" 
			},
			{
				"x": -1.7428909833,
				"y": 3.3592775138,
				"z": 0.7024707319,
				"element": "H" 
			},
			{
				"x": -1.4999598593,
				"y": 3.7643600721,
				"z": -1.0679391339,
				"element": "H" 
			}
		],
		 "valence_orbital": [ 
			{
				"type": "occ",
				"energy": -0.30053,
				"method": "rhf"
			},
			{
				"type": "occ",
				"energy": -0.28667,
				"method": "rhf"
			},
			{
				"type": "occ",
				"energy": -0.28183,
				"method": "rhf"
			},
			{
				"type": "occ",
				"energy": -0.2483,
				"method": "rhf"
			},
			{
				"type": "occ",
				"energy": -0.23263,
				"method": "rhf"
			},
			{
				"type": "unocc",
				"energy": -0.05584,
				"method": "rhf"
			},
			{
				"type": "unocc",
				"energy": -0.00934,
				"method": "rhf"
			},
			{
				"type": "unocc",
				"energy": -0.00146,
				"method": "rhf"
			},
			{
				"type": "unocc",
				"energy": 0.04564,
				"method": "rhf"
			},
			{
				"type": "unocc",
				"energy": 0.05666,
				"method": "rhf"
			}
		],
		"cosmo_sigma_profile": { 
			"-0.025": 0.0,
			"-0.024": 0.0,
			"-0.023": 0.0,
			"-0.022": 0.0,
			"-0.021": 0.0,
			"-0.02": 0.0,
			"-0.019": 0.0,
			"-0.018": 0.0,
			"-0.017": 0.0,
			"-0.016": 0.0,
			"-0.015": 0.0,
			"-0.014": 0.0,
			"-0.013": 0.0991797423271,
			"-0.012": 0.748171445425,
			"-0.011": 1.3347527422,
			"-0.01": 2.09878680655,
			"-0.009": 5.9318069351,
			"-0.008": 6.88389681828,
			"-0.007": 10.0719509238,
			"-0.006": 14.9176403237,
			"-0.005": 14.5230208484,
			"-0.004": 14.0388676449,
			"-0.003": 13.4277836293,
			"-0.002": 14.4115818827,
			"-0.001": 14.0246792659,
			"0.0": 13.3676017815,
			"0.001": 11.45688398,
			"0.002": 12.8420280677,
			"0.003": 11.5299925908,
			"0.004": 8.86027758425,
			"0.005": 6.21488460653,
			"0.006": 4.59545320723,
			"0.007": 2.55298108981,
			"0.008": 2.7954190819,
			"0.009": 4.10554374715,
			"0.01": 3.26287901234,
			"0.011": 6.58472440245,
			"0.012": 6.93866540445,
			"0.013": 5.07921842035,
			"0.014": 1.56551870757,
			"0.015": 0.205515840341,
			"0.016": 0.0,
			"0.017": 0.0,
			"0.018": 0.0,
			"0.019": 0.0,
			"0.02": 0.0,
			"0.021": 0.0,
			"0.022": 0.0,
			"0.023": 0.0,
			"0.024": 0.0,
			"0.025": 0.0
		}
	}
}
