{
	 "smiles": "NC(=O)NN=CC(=O)C1=CC=C(C(=O)C=NNC(N)=O)C(=C1)[N+]([O-])=O", 
	 "Tm": 514.15, 
	 "num_atms": 36, 
	 "gaussian": { 
		 "optdone": 1, 
		 "sigma_profile": "yes", 
		 "theory": "DFT", 
		 "functional": "B3LYP", 
		 "basiset": "6-31G**", 
		 "properties": { 
			 "R2extent": 8941.6582, 
			 "electric_dipole_moment_norm": 13.247221845, 
			 "electric_quadrupole_moment_norm": 24.932623873, 
			 "total_energy": -1298.33556384, 
			 "HOMO_LUMO_gap": 0.13216, 
			 "cosmo_polarized_energy": -39.69, 
			 "cosmo_cavitation_energy": 43.88, 
			 "cosmo_dispersion_energy": -28.85, 
			 "cosmo_repulsion_energy": 2.17, 
			 "cosmo_total_nonelectrostatic_energy": 17.2, 
			 "SMD_solvation_energy": 10.99 
		},
		"coords": [
			{
				"x": -4.8819164873,
				"y": -1.9520007794,
				"z": -1.5115616611,
				"element": "N" 
			},
			{
				"x": -3.6469335078,
				"y": -1.5125842198,
				"z": -1.0967845964,
				"element": "C" 
			},
			{
				"x": -2.7823358483,
				"y": -1.1042202489,
				"z": -1.8496624463,
				"element": "O" 
			},
			{
				"x": -3.480502473,
				"y": -1.6255881524,
				"z": 0.2946577111,
				"element": "N" 
			},
			{
				"x": -2.3253375244,
				"y": -1.2277106437,
				"z": 0.8494639985,
				"element": "N" 
			},
			{
				"x": -2.1180354754,
				"y": -1.493579768,
				"z": 2.0891524275,
				"element": "C" 
			},
			{
				"x": -0.8161757939,
				"y": -1.1760264486,
				"z": 2.7344325646,
				"element": "C" 
			},
			{
				"x": -0.5545976865,
				"y": -1.7107578205,
				"z": 3.8040308548,
				"element": "O" 
			},
			{
				"x": 0.1677722434,
				"y": -0.2924167881,
				"z": 2.0338066313,
				"element": "C" 
			},
			{
				"x": -0.2028599621,
				"y": 0.8460055008,
				"z": 1.3040437988,
				"element": "C" 
			},
			{
				"x": 0.7629031843,
				"y": 1.6162664061,
				"z": 0.6625725223,
				"element": "C" 
			},
			{
				"x": 2.1081855844,
				"y": 1.2363468254,
				"z": 0.6748787904,
				"element": "C" 
			},
			{
				"x": 3.0539185077,
				"y": 2.0436577808,
				"z": -0.1784277577,
				"element": "C" 
			},
			{
				"x": 3.164611878,
				"y": 3.2421022244,
				"z": -0.0061373149,
				"element": "O" 
			},
			{
				"x": 3.7912711618,
				"y": 1.4485800934,
				"z": -1.3707131924,
				"element": "C" 
			},
			{
				"x": 3.3193265513,
				"y": 1.1070241211,
				"z": -2.5058987442,
				"element": "N" 
			},
			{
				"x": 1.9022257574,
				"y": 1.0693490025,
				"z": -2.609784721,
				"element": "N" 
			},
			{
				"x": 1.2367480266,
				"y": -0.0866648266,
				"z": -2.1173824101,
				"element": "C" 
			},
			{
				"x": -0.0270020491,
				"y": -0.2132236325,
				"z": -2.6404177222,
				"element": "N" 
			},
			{
				"x": 1.7371966011,
				"y": -0.8590274086,
				"z": -1.3183870838,
				"element": "O" 
			},
			{
				"x": 2.4620459625,
				"y": 0.1291297034,
				"z": 1.456171525,
				"element": "C" 
			},
			{
				"x": 1.521123582,
				"y": -0.621780111,
				"z": 2.1457874625,
				"element": "C" 
			},
			{
				"x": 3.871730334,
				"y": -0.2547302701,
				"z": 1.5747876678,
				"element": "N" 
			},
			{
				"x": 4.7051747628,
				"y": 0.4999609255,
				"z": 1.0616478197,
				"element": "O" 
			},
			{
				"x": 4.1484571287,
				"y": -1.2812656158,
				"z": 2.1847643277,
				"element": "O" 
			},
			{
				"x": -5.6767259989,
				"y": -1.9083300417,
				"z": -0.8906542376,
				"element": "H" 
			},
			{
				"x": -5.0742723516,
				"y": -1.784924502,
				"z": -2.4880850054,
				"element": "H" 
			},
			{
				"x": -4.1233672114,
				"y": -2.2053985674,
				"z": 0.8319316808,
				"element": "H" 
			},
			{
				"x": -2.8202710218,
				"y": -2.0545195845,
				"z": 2.7174354227,
				"element": "H" 
			},
			{
				"x": -1.2458264078,
				"y": 1.131101287,
				"z": 1.236309455,
				"element": "H" 
			},
			{
				"x": 0.4767056777,
				"y": 2.4938943596,
				"z": 0.0933087645,
				"element": "H" 
			},
			{
				"x": 4.8761900786,
				"y": 1.4929645,
				"z": -1.3036712854,
				"element": "H" 
			},
			{
				"x": 1.6772900279,
				"y": 1.2252906508,
				"z": -3.587512845,
				"element": "H" 
			},
			{
				"x": -0.6638362992,
				"y": -0.8228666372,
				"z": -2.1399302787,
				"element": "H" 
			},
			{
				"x": -0.4732354358,
				"y": 0.6124888112,
				"z": -3.0137306684,
				"element": "H" 
			},
			{
				"x": 1.8362544839,
				"y": -1.466646125,
				"z": 2.7448585455,
				"element": "H" 
			}
		],
		 "valence_orbital": [ 
			{
				"type": "occ",
				"energy": -0.27234,
				"method": "rhf"
			},
			{
				"type": "occ",
				"energy": -0.27028,
				"method": "rhf"
			},
			{
				"type": "occ",
				"energy": -0.26081,
				"method": "rhf"
			},
			{
				"type": "occ",
				"energy": -0.25376,
				"method": "rhf"
			},
			{
				"type": "occ",
				"energy": -0.23037,
				"method": "rhf"
			},
			{
				"type": "unocc",
				"energy": -0.09821,
				"method": "rhf"
			},
			{
				"type": "unocc",
				"energy": -0.09107,
				"method": "rhf"
			},
			{
				"type": "unocc",
				"energy": -0.05069,
				"method": "rhf"
			},
			{
				"type": "unocc",
				"energy": -0.03507,
				"method": "rhf"
			},
			{
				"type": "unocc",
				"energy": -0.00599,
				"method": "rhf"
			}
		],
		"cosmo_sigma_profile": { 
			"-0.025": 0.0,
			"-0.024": 0.0,
			"-0.023": 0.0,
			"-0.022": 0.0,
			"-0.021": 0.0,
			"-0.02": 0.0,
			"-0.019": 0.0,
			"-0.018": 0.557207946738,
			"-0.017": 2.27819016436,
			"-0.016": 2.94292868794,
			"-0.015": 5.17115248554,
			"-0.014": 6.84952064903,
			"-0.013": 5.2960361217,
			"-0.012": 4.3505425035,
			"-0.011": 4.70711577836,
			"-0.01": 5.02524876457,
			"-0.009": 5.71246522142,
			"-0.008": 10.0620074919,
			"-0.007": 11.9209678344,
			"-0.006": 10.9061712407,
			"-0.005": 11.4428862097,
			"-0.004": 14.9174711456,
			"-0.003": 19.1085313365,
			"-0.002": 19.7251716781,
			"-0.001": 20.7330572182,
			"0.0": 18.6589875966,
			"0.001": 19.1401843613,
			"0.002": 14.8093361832,
			"0.003": 13.8349598377,
			"0.004": 16.4241920379,
			"0.005": 15.1911876599,
			"0.006": 16.6752276731,
			"0.007": 17.4830974503,
			"0.008": 14.1999804314,
			"0.009": 13.7932432767,
			"0.01": 11.5452036464,
			"0.011": 8.17134591126,
			"0.012": 5.95863644571,
			"0.013": 2.4626808953,
			"0.014": 0.257754009015,
			"0.015": 0.0,
			"0.016": 0.0,
			"0.017": 0.0,
			"0.018": 0.0,
			"0.019": 0.0,
			"0.02": 0.0,
			"0.021": 0.0,
			"0.022": 0.0,
			"0.023": 0.0,
			"0.024": 0.0,
			"0.025": 0.0
		}
	}
}
