{
	 "smiles": "NNC(=O)C1=CC(O)=CC=C1", 
	 "Tm": 431.15, 
	 "num_atms": 19, 
	 "gaussian": { 
		 "optdone": 1, 
		 "sigma_profile": "yes", 
		 "theory": "DFT", 
		 "functional": "B3LYP", 
		 "basiset": "6-31G**", 
		 "properties": { 
			 "R2extent": 2236.5443, 
			 "electric_dipole_moment_norm": 2.48266275197, 
			 "electric_quadrupole_moment_norm": 7.32460372102, 
			 "total_energy": -531.495195426, 
			 "HOMO_LUMO_gap": 0.19124, 
			 "cosmo_polarized_energy": -16.57, 
			 "cosmo_cavitation_energy": 23.58, 
			 "cosmo_dispersion_energy": -17.56, 
			 "cosmo_repulsion_energy": 1.42, 
			 "cosmo_total_nonelectrostatic_energy": 7.45, 
			 "SMD_solvation_energy": 5.48 
		},
		"coords": [
			{
				"x": 0.3499085553,
				"y": 2.2447186014,
				"z": -1.9080682002,
				"element": "N" 
			},
			{
				"x": 0.1072368531,
				"y": 1.2867702612,
				"z": -0.8955550546,
				"element": "N" 
			},
			{
				"x": -0.2804477011,
				"y": 0.0113224001,
				"z": -1.2510751024,
				"element": "C" 
			},
			{
				"x": -0.5560333495,
				"y": -0.2708645226,
				"z": -2.4132026514,
				"element": "O" 
			},
			{
				"x": -0.3318072664,
				"y": -0.9897859365,
				"z": -0.1365243984,
				"element": "C" 
			},
			{
				"x": -0.4939682357,
				"y": -0.6098502903,
				"z": 1.2041565653,
				"element": "C" 
			},
			{
				"x": -0.5361532434,
				"y": -1.5838683358,
				"z": 2.2052815475,
				"element": "C" 
			},
			{
				"x": -0.7034493174,
				"y": -1.2775191422,
				"z": 3.525434521,
				"element": "O" 
			},
			{
				"x": -0.4138229335,
				"y": -2.938195936,
				"z": 1.8712698336,
				"element": "C" 
			},
			{
				"x": -0.2645031896,
				"y": -3.3074087745,
				"z": 0.5365208531,
				"element": "C" 
			},
			{
				"x": -0.2290940531,
				"y": -2.3436624505,
				"z": -0.471591351,
				"element": "C" 
			},
			{
				"x": 0.5654863383,
				"y": 1.7145331379,
				"z": -2.7550632255,
				"element": "H" 
			},
			{
				"x": -0.5383504124,
				"y": 2.7058803647,
				"z": -2.1026726048,
				"element": "H" 
			},
			{
				"x": 0.712270611,
				"y": 1.3915060953,
				"z": -0.0927198641,
				"element": "H" 
			},
			{
				"x": -0.6294829883,
				"y": 0.4372541812,
				"z": 1.4655946998,
				"element": "H" 
			},
			{
				"x": -0.789146626,
				"y": -0.3204439379,
				"z": 3.6240897321,
				"element": "H" 
			},
			{
				"x": -0.4493390032,
				"y": -3.6770898884,
				"z": 2.6649366418,
				"element": "H" 
			},
			{
				"x": -0.1775354124,
				"y": -4.3595195482,
				"z": 0.2816293528,
				"element": "H" 
			},
			{
				"x": -0.1250686254,
				"y": -2.6155762788,
				"z": -1.5156412945,
				"element": "H" 
			}
		],
		 "valence_orbital": [ 
			{
				"type": "occ",
				"energy": -0.29173,
				"method": "rhf"
			},
			{
				"type": "occ",
				"energy": -0.2665,
				"method": "rhf"
			},
			{
				"type": "occ",
				"energy": -0.25946,
				"method": "rhf"
			},
			{
				"type": "occ",
				"energy": -0.2527,
				"method": "rhf"
			},
			{
				"type": "occ",
				"energy": -0.23151,
				"method": "rhf"
			},
			{
				"type": "unocc",
				"energy": -0.04027,
				"method": "rhf"
			},
			{
				"type": "unocc",
				"energy": -0.00042,
				"method": "rhf"
			},
			{
				"type": "unocc",
				"energy": 0.05409,
				"method": "rhf"
			},
			{
				"type": "unocc",
				"energy": 0.06071,
				"method": "rhf"
			},
			{
				"type": "unocc",
				"energy": 0.08788,
				"method": "rhf"
			}
		],
		"cosmo_sigma_profile": { 
			"-0.025": 0.0,
			"-0.024": 0.0,
			"-0.023": 0.0,
			"-0.022": 0.0,
			"-0.021": 0.0,
			"-0.02": 0.0,
			"-0.019": 0.0,
			"-0.018": 0.782397652559,
			"-0.017": 0.827444466176,
			"-0.016": 1.28143196413,
			"-0.015": 0.977337483986,
			"-0.014": 2.32387218239,
			"-0.013": 2.21146912428,
			"-0.012": 1.59916966403,
			"-0.011": 3.46264891674,
			"-0.01": 4.49507586679,
			"-0.009": 5.55189777539,
			"-0.008": 4.00462743544,
			"-0.007": 4.32846212874,
			"-0.006": 7.56178247589,
			"-0.005": 9.84083891189,
			"-0.004": 10.2179280666,
			"-0.003": 8.40452721006,
			"-0.002": 8.01998386617,
			"-0.001": 6.81533441351,
			"0.0": 11.6192165411,
			"0.001": 10.2432286381,
			"0.002": 11.8194784932,
			"0.003": 13.7435625364,
			"0.004": 15.6894036635,
			"0.005": 7.89880454552,
			"0.006": 2.92357775193,
			"0.007": 3.35025446575,
			"0.008": 4.00152913077,
			"0.009": 3.53549861592,
			"0.01": 3.43077743638,
			"0.011": 4.26376302002,
			"0.012": 3.4732195168,
			"0.013": 5.37868975866,
			"0.014": 1.59744961665,
			"0.015": 0.598069194628,
			"0.016": 0.479922862601,
			"0.017": 0.333008349322,
			"0.018": 0.0,
			"0.019": 0.0,
			"0.02": 0.0,
			"0.021": 0.0,
			"0.022": 0.0,
			"0.023": 0.0,
			"0.024": 0.0,
			"0.025": 0.0
		}
	}
}
