{
	 "smiles": "OC(=O)C(=CC1=CC=C(F)C=C1)C1=CC=CS1", 
	 "Tm": 459.15, 
	 "num_atms": 26, 
	 "gaussian": { 
		 "optdone": 1, 
		 "sigma_profile": "yes", 
		 "theory": "DFT", 
		 "functional": "B3LYP", 
		 "basiset": "6-31G**", 
		 "properties": { 
			 "R2extent": 6484.5749, 
			 "electric_dipole_moment_norm": 1.91573681126, 
			 "electric_quadrupole_moment_norm": 7.0283979405, 
			 "total_energy": -1149.25724755, 
			 "HOMO_LUMO_gap": 0.1412, 
			 "cosmo_polarized_energy": -10.91, 
			 "cosmo_cavitation_energy": 33.12, 
			 "cosmo_dispersion_energy": -24.32, 
			 "cosmo_repulsion_energy": 1.8, 
			 "cosmo_total_nonelectrostatic_energy": 10.6, 
			 "SMD_solvation_energy": 7.19 
		},
		"coords": [
			{
				"x": 2.2467787222,
				"y": -0.6550107894,
				"z": -2.9974024786,
				"element": "O" 
			},
			{
				"x": 1.042342681,
				"y": -0.2806178877,
				"z": -2.5006928699,
				"element": "C" 
			},
			{
				"x": 0.0119783726,
				"y": -0.7073816303,
				"z": -2.992905965,
				"element": "O" 
			},
			{
				"x": 1.1732635871,
				"y": 0.6654198868,
				"z": -1.3599041692,
				"element": "C" 
			},
			{
				"x": 0.1845074677,
				"y": 0.9621123557,
				"z": -0.4606825919,
				"element": "C" 
			},
			{
				"x": -1.1769059497,
				"y": 0.5210759024,
				"z": -0.1545380142,
				"element": "C" 
			},
			{
				"x": -1.7288247345,
				"y": 1.0634909768,
				"z": 1.0312285719,
				"element": "C" 
			},
			{
				"x": -3.0044116334,
				"y": 0.7340242019,
				"z": 1.4712608247,
				"element": "C" 
			},
			{
				"x": -3.7550540574,
				"y": -0.1547554231,
				"z": 0.7090805704,
				"element": "C" 
			},
			{
				"x": -4.9944315019,
				"y": -0.4831634374,
				"z": 1.1195460903,
				"element": "F" 
			},
			{
				"x": -3.2613778474,
				"y": -0.7068725047,
				"z": -0.4684208249,
				"element": "C" 
			},
			{
				"x": -1.9825382579,
				"y": -0.3698023161,
				"z": -0.8990394855,
				"element": "C" 
			},
			{
				"x": 2.4862903007,
				"y": 1.3132966362,
				"z": -1.1375122793,
				"element": "C" 
			},
			{
				"x": 3.1460559085,
				"y": 1.453425682,
				"z": 0.0630887516,
				"element": "C" 
			},
			{
				"x": 4.3443208977,
				"y": 2.2194067511,
				"z": -0.0232508656,
				"element": "C" 
			},
			{
				"x": 4.5926714686,
				"y": 2.6651797792,
				"z": -1.2924910416,
				"element": "C" 
			},
			{
				"x": 3.3700071049,
				"y": 2.1475088972,
				"z": -2.4033026389,
				"element": "S" 
			},
			{
				"x": 2.0471308357,
				"y": -1.2450549129,
				"z": -3.7432176489,
				"element": "H" 
			},
			{
				"x": 0.5115574235,
				"y": 1.7123909952,
				"z": 0.2563004314,
				"element": "H" 
			},
			{
				"x": -1.1350267884,
				"y": 1.7554720362,
				"z": 1.6221300298,
				"element": "H" 
			},
			{
				"x": -3.4203714034,
				"y": 1.1503554357,
				"z": 2.3820638559,
				"element": "H" 
			},
			{
				"x": -3.8837218713,
				"y": -1.3876214175,
				"z": -1.0393529929,
				"element": "H" 
			},
			{
				"x": -1.6023303992,
				"y": -0.7783270129,
				"z": -1.8234655049,
				"element": "H" 
			},
			{
				"x": 2.7874989262,
				"y": 0.9944589528,
				"z": 0.9777459445,
				"element": "H" 
			},
			{
				"x": 4.9977407235,
				"y": 2.4162027872,
				"z": 0.819058048,
				"element": "H" 
			},
			{
				"x": 5.4303500246,
				"y": 3.2501860554,
				"z": -1.6467237471,
				"element": "H" 
			}
		],
		 "valence_orbital": [ 
			{
				"type": "occ",
				"energy": -0.28055,
				"method": "rhf"
			},
			{
				"type": "occ",
				"energy": -0.26586,
				"method": "rhf"
			},
			{
				"type": "occ",
				"energy": -0.25168,
				"method": "rhf"
			},
			{
				"type": "occ",
				"energy": -0.24897,
				"method": "rhf"
			},
			{
				"type": "occ",
				"energy": -0.21487,
				"method": "rhf"
			},
			{
				"type": "unocc",
				"energy": -0.07367,
				"method": "rhf"
			},
			{
				"type": "unocc",
				"energy": -0.01439,
				"method": "rhf"
			},
			{
				"type": "unocc",
				"energy": -0.01383,
				"method": "rhf"
			},
			{
				"type": "unocc",
				"energy": 0.01307,
				"method": "rhf"
			},
			{
				"type": "unocc",
				"energy": 0.03401,
				"method": "rhf"
			}
		],
		"cosmo_sigma_profile": { 
			"-0.025": 0.0,
			"-0.024": 0.0,
			"-0.023": 0.0,
			"-0.022": 0.0,
			"-0.021": 0.0,
			"-0.02": 0.0,
			"-0.019": 0.0266279112596,
			"-0.018": 0.700533107279,
			"-0.017": 0.88303924913,
			"-0.016": 0.836547321877,
			"-0.015": 0.650055730658,
			"-0.014": 1.08894190148,
			"-0.013": 0.227457842505,
			"-0.012": 0.766433024668,
			"-0.011": 0.938138463497,
			"-0.01": 0.878532857753,
			"-0.009": 0.684552080206,
			"-0.008": 4.92308191792,
			"-0.007": 11.0150222031,
			"-0.006": 13.435409061,
			"-0.005": 14.1992378412,
			"-0.004": 13.3793658829,
			"-0.003": 14.0119572025,
			"-0.002": 13.9460117541,
			"-0.001": 14.05426408,
			"0.0": 22.772068762,
			"0.001": 24.1465360905,
			"0.002": 26.8012290015,
			"0.003": 29.609458111,
			"0.004": 23.7772610562,
			"0.005": 12.6082248646,
			"0.006": 6.31337775558,
			"0.007": 3.76789131745,
			"0.008": 3.40865784991,
			"0.009": 3.57288809523,
			"0.01": 2.7041436428,
			"0.011": 2.32858674665,
			"0.012": 0.563831185423,
			"0.013": 0.0,
			"0.014": 0.0,
			"0.015": 0.0,
			"0.016": 0.0,
			"0.017": 0.0,
			"0.018": 0.0,
			"0.019": 0.0,
			"0.02": 0.0,
			"0.021": 0.0,
			"0.022": 0.0,
			"0.023": 0.0,
			"0.024": 0.0,
			"0.0": 0.0
		}
	}
}
