{
	 "smiles": "CN(C)C1=C2C=CN=CC2=C(N)C=C1", 
	 "Tm": 381.15, 
	 "num_atms": 27, 
	 "gaussian": { 
		 "optdone": 1, 
		 "sigma_profile": "yes", 
		 "theory": "DFT", 
		 "functional": "B3LYP", 
		 "basiset": "6-31G**", 
		 "properties": { 
			 "R2extent": 2888.6055, 
			 "electric_dipole_moment_norm": 3.24858069009, 
			 "electric_quadrupole_moment_norm": 12.8243482396, 
			 "total_energy": -591.253567063, 
			 "HOMO_LUMO_gap": 0.14723, 
			 "cosmo_polarized_energy": -11.84, 
			 "cosmo_cavitation_energy": 29.11, 
			 "cosmo_dispersion_energy": -21.45, 
			 "cosmo_repulsion_energy": 1.66, 
			 "cosmo_total_nonelectrostatic_energy": 9.32, 
			 "SMD_solvation_energy": 2.77 
		},
		"coords": [
			{
				"x": -3.5465702393,
				"y": 0.2732611101,
				"z": 0.5906509387,
				"element": "C" 
			},
			{
				"x": -2.3528224315,
				"y": -0.4989005583,
				"z": 0.9038136086,
				"element": "N" 
			},
			{
				"x": -2.5782482603,
				"y": -1.9357090843,
				"z": 0.721612168,
				"element": "C" 
			},
			{
				"x": -1.1323193925,
				"y": -0.0246030507,
				"z": 0.3352049911,
				"element": "C" 
			},
			{
				"x": 0.0929692835,
				"y": -0.2690082122,
				"z": 1.0379224663,
				"element": "C" 
			},
			{
				"x": 0.144497511,
				"y": -0.898529087,
				"z": 2.3076602059,
				"element": "C" 
			},
			{
				"x": 1.3606578447,
				"y": -1.1370362042,
				"z": 2.9062634023,
				"element": "C" 
			},
			{
				"x": 2.5569473549,
				"y": -0.8221031914,
				"z": 2.3438643627,
				"element": "N" 
			},
			{
				"x": 2.5235285421,
				"y": -0.2047004014,
				"z": 1.1778798496,
				"element": "C" 
			},
			{
				"x": 1.3406683885,
				"y": 0.1423287507,
				"z": 0.4719814533,
				"element": "C" 
			},
			{
				"x": 1.3618365087,
				"y": 0.8860949303,
				"z": -0.7556273351,
				"element": "C" 
			},
			{
				"x": 2.5780506003,
				"y": 1.2879130281,
				"z": -1.3150963663,
				"element": "N" 
			},
			{
				"x": 0.1555268824,
				"y": 1.1483518285,
				"z": -1.3819250175,
				"element": "C" 
			},
			{
				"x": -1.0660439152,
				"y": 0.6780315178,
				"z": -0.8544403163,
				"element": "C" 
			},
			{
				"x": -3.9048248008,
				"y": 0.1443137945,
				"z": -0.4472686791,
				"element": "H" 
			},
			{
				"x": -4.3577355502,
				"y": -0.0423454174,
				"z": 1.2556298076,
				"element": "H" 
			},
			{
				"x": -3.3561841165,
				"y": 1.3361291863,
				"z": 0.759998328,
				"element": "H" 
			},
			{
				"x": -3.399793272,
				"y": -2.2617405878,
				"z": 1.3689316449,
				"element": "H" 
			},
			{
				"x": -1.6826693395,
				"y": -2.4964710264,
				"z": 0.9957059527,
				"element": "H" 
			},
			{
				"x": -2.8378054374,
				"y": -2.1932300379,
				"z": -0.3206157408,
				"element": "H" 
			},
			{
				"x": -0.7810130491,
				"y": -1.1652392516,
				"z": 2.8047332781,
				"element": "H" 
			},
			{
				"x": 1.4106635062,
				"y": -1.6099427298,
				"z": 3.8848127407,
				"element": "H" 
			},
			{
				"x": 3.4942314819,
				"y": 0.0223726001,
				"z": 0.7385814598,
				"element": "H" 
			},
			{
				"x": 3.2781499617,
				"y": 1.5942850867,
				"z": -0.6530456561,
				"element": "H" 
			},
			{
				"x": 2.4798125817,
				"y": 1.952622699,
				"z": -2.0709440679,
				"element": "H" 
			},
			{
				"x": 0.1462179885,
				"y": 1.7191462219,
				"z": -2.3075060479,
				"element": "H" 
			},
			{
				"x": -1.9760286318,
				"y": 0.8891080868,
				"z": -1.4069774312,
				"element": "H" 
			}
		],
		 "valence_orbital": [ 
			{
				"type": "occ",
				"energy": -0.26243,
				"method": "rhf"
			},
			{
				"type": "occ",
				"energy": -0.25192,
				"method": "rhf"
			},
			{
				"type": "occ",
				"energy": -0.24519,
				"method": "rhf"
			},
			{
				"type": "occ",
				"energy": -0.23196,
				"method": "rhf"
			},
			{
				"type": "occ",
				"energy": -0.18512,
				"method": "rhf"
			},
			{
				"type": "unocc",
				"energy": -0.03789,
				"method": "rhf"
			},
			{
				"type": "unocc",
				"energy": -0.01474,
				"method": "rhf"
			},
			{
				"type": "unocc",
				"energy": 0.04288,
				"method": "rhf"
			},
			{
				"type": "unocc",
				"energy": 0.07494,
				"method": "rhf"
			},
			{
				"type": "unocc",
				"energy": 0.09072,
				"method": "rhf"
			}
		],
		"cosmo_sigma_profile": { 
			"-0.025": 0.0,
			"-0.024": 0.0,
			"-0.023": 0.0,
			"-0.022": 0.0,
			"-0.021": 0.0,
			"-0.02": 0.0,
			"-0.019": 0.0,
			"-0.018": 0.0,
			"-0.017": 0.0,
			"-0.016": 0.0,
			"-0.015": 0.0,
			"-0.014": 0.0,
			"-0.013": 0.828265434288,
			"-0.012": 2.71569777578,
			"-0.011": 3.16225878971,
			"-0.01": 3.05911653752,
			"-0.009": 3.10484019054,
			"-0.008": 3.21258433791,
			"-0.007": 2.86176901025,
			"-0.006": 5.23012041737,
			"-0.005": 10.1316134754,
			"-0.004": 15.4300416145,
			"-0.003": 19.7494646193,
			"-0.002": 22.853522736,
			"-0.001": 25.4722347674,
			"0.0": 18.654028091,
			"0.001": 10.7250868758,
			"0.002": 13.6499058094,
			"0.003": 18.237880973,
			"0.004": 15.2394870302,
			"0.005": 11.2567897548,
			"0.006": 5.41450209372,
			"0.007": 2.54893152175,
			"0.008": 3.40842397441,
			"0.009": 2.4302868002,
			"0.01": 1.7061842889,
			"0.011": 2.08688515968,
			"0.012": 1.83020025655,
			"0.013": 1.93070825703,
			"0.014": 1.21838596572,
			"0.015": 0.53754325913,
			"0.016": 1.18703767489,
			"0.017": 0.625952031774,
			"0.018": 0.07759089202,
			"0.019": 0.0,
			"0.02": 0.0,
			"0.021": 0.0,
			"0.022": 0.0,
			"0.023": 0.0,
			"0.024": 0.0,
			"0.025": 0.0
		}
	}
}
