{
	 "smiles": "FC(F)(F)CNC(=O)NC(=O)CCl", 
	 "Tm": 428.15, 
	 "num_atms": 19, 
	 "gaussian": { 
		 "optdone": 1, 
		 "sigma_profile": "yes", 
		 "theory": "DFT", 
		 "functional": "B3LYP", 
		 "basiset": "6-31G**", 
		 "properties": { 
			 "R2extent": 4254.6591, 
			 "electric_dipole_moment_norm": 2.7813674137, 
			 "electric_quadrupole_moment_norm": 8.30473296139, 
			 "total_energy": -1213.86352135, 
			 "HOMO_LUMO_gap": 0.24044, 
			 "cosmo_polarized_energy": -12.72, 
			 "cosmo_cavitation_energy": 27.31, 
			 "cosmo_dispersion_energy": -19.37, 
			 "cosmo_repulsion_energy": 1.52, 
			 "cosmo_total_nonelectrostatic_energy": 9.45, 
			 "SMD_solvation_energy": 6.43 
		},
		"coords": [
			{
				"x": 0.0320273549,
				"y": -3.8434341745,
				"z": 1.974825382,
				"element": "F" 
			},
			{
				"x": -0.492643377,
				"y": -2.7198415713,
				"z": 1.4447034202,
				"element": "C" 
			},
			{
				"x": -0.3336396633,
				"y": -2.7707543422,
				"z": 0.1103401474,
				"element": "F" 
			},
			{
				"x": -1.8218008151,
				"y": -2.725112194,
				"z": 1.697203042,
				"element": "F" 
			},
			{
				"x": 0.1701609788,
				"y": -1.4922786764,
				"z": 2.0516597415,
				"element": "C" 
			},
			{
				"x": -0.3932979987,
				"y": -0.2682474125,
				"z": 1.5389149304,
				"element": "N" 
			},
			{
				"x": 0.2916914466,
				"y": 0.4836703052,
				"z": 0.6376301844,
				"element": "C" 
			},
			{
				"x": 1.4318656825,
				"y": 0.2877637873,
				"z": 0.2537982018,
				"element": "O" 
			},
			{
				"x": -0.4172611259,
				"y": 1.6151742532,
				"z": 0.1355924591,
				"element": "N" 
			},
			{
				"x": -1.6922920343,
				"y": 2.0143227982,
				"z": 0.4060620694,
				"element": "C" 
			},
			{
				"x": -2.4642570635,
				"y": 1.4437846317,
				"z": 1.1706725791,
				"element": "O" 
			},
			{
				"x": -2.2124632153,
				"y": 3.2690846265,
				"z": -0.295681644,
				"element": "C" 
			},
			{
				"x": -1.0613074743,
				"y": 4.1213507737,
				"z": -1.3967496295,
				"element": "Cl" 
			},
			{
				"x": 1.2335748113,
				"y": -1.5141982804,
				"z": 1.808977343,
				"element": "H" 
			},
			{
				"x": 0.0492924721,
				"y": -1.5531868569,
				"z": 3.1376568608,
				"element": "H" 
			},
			{
				"x": -1.3589621761,
				"y": -0.010914431,
				"z": 1.7300178092,
				"element": "H" 
			},
			{
				"x": 0.1341844362,
				"y": 2.1590772838,
				"z": -0.5177450433,
				"element": "H" 
			},
			{
				"x": -3.0855059867,
				"y": 2.9866719536,
				"z": -0.885292348,
				"element": "H" 
			},
			{
				"x": -2.5229662522,
				"y": 3.9785675259,
				"z": 0.4720144945,
				"element": "H" 
			}
		],
		 "valence_orbital": [ 
			{
				"type": "occ",
				"energy": -0.3296,
				"method": "rhf"
			},
			{
				"type": "occ",
				"energy": -0.30553,
				"method": "rhf"
			},
			{
				"type": "occ",
				"energy": -0.30216,
				"method": "rhf"
			},
			{
				"type": "occ",
				"energy": -0.28714,
				"method": "rhf"
			},
			{
				"type": "occ",
				"energy": -0.27713,
				"method": "rhf"
			},
			{
				"type": "unocc",
				"energy": -0.03669,
				"method": "rhf"
			},
			{
				"type": "unocc",
				"energy": -0.00396,
				"method": "rhf"
			},
			{
				"type": "unocc",
				"energy": 0.05419,
				"method": "rhf"
			},
			{
				"type": "unocc",
				"energy": 0.08378,
				"method": "rhf"
			},
			{
				"type": "unocc",
				"energy": 0.09785,
				"method": "rhf"
			}
		],
		"cosmo_sigma_profile": { 
			"-0.025": 0.0,
			"-0.024": 0.0,
			"-0.023": 0.0,
			"-0.022": 0.0,
			"-0.021": 0.0,
			"-0.02": 0.0,
			"-0.019": 0.0,
			"-0.018": 0.0,
			"-0.017": 0.0,
			"-0.016": 0.0,
			"-0.015": 0.0,
			"-0.014": 0.0,
			"-0.013": 0.0,
			"-0.012": 0.111217064031,
			"-0.011": 0.943118508524,
			"-0.01": 4.8407062683,
			"-0.009": 7.7362719466,
			"-0.008": 9.55163129163,
			"-0.007": 9.63631924329,
			"-0.006": 10.8185983697,
			"-0.005": 9.77684890227,
			"-0.004": 9.16142666575,
			"-0.003": 12.1871225026,
			"-0.002": 10.6315180267,
			"-0.001": 9.90602615455,
			"0.0": 12.6619284881,
			"0.001": 12.9767620308,
			"0.002": 25.6868377434,
			"0.003": 31.4165375575,
			"0.004": 8.24338710595,
			"0.005": 7.71095937177,
			"0.006": 2.36559783733,
			"0.007": 2.2782483241,
			"0.008": 3.34326683381,
			"0.009": 3.24515511749,
			"0.01": 2.58337511127,
			"0.011": 4.32646468136,
			"0.012": 5.63505674969,
			"0.013": 2.22367530737,
			"0.014": 0.0,
			"0.015": 0.0,
			"0.016": 0.0,
			"0.017": 0.0,
			"0.018": 0.0,
			"0.019": 0.0,
			"0.02": 0.0,
			"0.021": 0.0,
			"0.022": 0.0,
			"0.023": 0.0,
			"0.024": 0.0,
			"0.025": 0.0
		}
	}
}
