{
	 "smiles": "CCCCNC(=O)CC#N", 
	 "Tm": 327.65, 
	 "num_atms": 22, 
	 "gaussian": { 
		 "optdone": 1, 
		 "sigma_profile": "yes", 
		 "theory": "DFT", 
		 "functional": "B3LYP", 
		 "basiset": "6-31G**", 
		 "properties": { 
			 "R2extent": 3155.6421, 
			 "electric_dipole_moment_norm": 4.14233993535, 
			 "electric_quadrupole_moment_norm": 14.9937462697, 
			 "total_energy": -458.706118233, 
			 "HOMO_LUMO_gap": 0.26422, 
			 "cosmo_polarized_energy": -14.87, 
			 "cosmo_cavitation_energy": 26.36, 
			 "cosmo_dispersion_energy": -18.21, 
			 "cosmo_repulsion_energy": 1.54, 
			 "cosmo_total_nonelectrostatic_energy": 9.69, 
			 "SMD_solvation_energy": 5.8 
		},
		"coords": [
			{
				"x": 1.0769025336,
				"y": -3.0486031702,
				"z": -1.4403018057,
				"element": "C" 
			},
			{
				"x": 0.8581365506,
				"y": -1.7708306748,
				"z": -0.6243156745,
				"element": "C" 
			},
			{
				"x": 1.1927890044,
				"y": -0.4969939915,
				"z": -1.410321667,
				"element": "C" 
			},
			{
				"x": 0.9553905934,
				"y": 0.7779752316,
				"z": -0.5962310369,
				"element": "C" 
			},
			{
				"x": 1.2754362486,
				"y": 1.9635339919,
				"z": -1.3894414552,
				"element": "N" 
			},
			{
				"x": 1.6385290383,
				"y": 3.2101712115,
				"z": -0.9784060593,
				"element": "C" 
			},
			{
				"x": 1.8213726383,
				"y": 4.1357437231,
				"z": -1.7536452766,
				"element": "O" 
			},
			{
				"x": 1.8659796945,
				"y": 3.4165538414,
				"z": 0.5388997249,
				"element": "C" 
			},
			{
				"x": 0.6784780501,
				"y": 3.1741935325,
				"z": 1.3576136324,
				"element": "C" 
			},
			{
				"x": -0.2741408632,
				"y": 2.9712403842,
				"z": 1.9893970901,
				"element": "N" 
			},
			{
				"x": 0.8321170247,
				"y": -3.9396188298,
				"z": -0.8539974802,
				"element": "H" 
			},
			{
				"x": 0.4487817233,
				"y": -3.0583246001,
				"z": -2.3381153302,
				"element": "H" 
			},
			{
				"x": 2.1196316102,
				"y": -3.1392727811,
				"z": -1.7645602278,
				"element": "H" 
			},
			{
				"x": -0.185192843,
				"y": -1.724747771,
				"z": -0.2858139438,
				"element": "H" 
			},
			{
				"x": 1.4723116422,
				"y": -1.8069214217,
				"z": 0.2853427417,
				"element": "H" 
			},
			{
				"x": 2.2392218557,
				"y": -0.5227930498,
				"z": -1.7406053905,
				"element": "H" 
			},
			{
				"x": 0.5779491345,
				"y": -0.4614716723,
				"z": -2.3212605392,
				"element": "H" 
			},
			{
				"x": -0.084413558,
				"y": 0.8120769845,
				"z": -0.2438540061,
				"element": "H" 
			},
			{
				"x": 1.589704917,
				"y": 0.7618997799,
				"z": 0.2960411604,
				"element": "H" 
			},
			{
				"x": 1.1015769611,
				"y": 1.9165016526,
				"z": -2.3860989158,
				"element": "H" 
			},
			{
				"x": 2.1860587838,
				"y": 4.4543932831,
				"z": 0.6537057294,
				"element": "H" 
			},
			{
				"x": 2.6789792598,
				"y": 2.770194346,
				"z": 0.8914687298,
				"element": "H" 
			}
		],
		 "valence_orbital": [ 
			{
				"type": "occ",
				"energy": -0.34375,
				"method": "rhf"
			},
			{
				"type": "occ",
				"energy": -0.33939,
				"method": "rhf"
			},
			{
				"type": "occ",
				"energy": -0.33134,
				"method": "rhf"
			},
			{
				"type": "occ",
				"energy": -0.26514,
				"method": "rhf"
			},
			{
				"type": "occ",
				"energy": -0.26201,
				"method": "rhf"
			},
			{
				"type": "unocc",
				"energy": 0.00221,
				"method": "rhf"
			},
			{
				"type": "unocc",
				"energy": 0.02678,
				"method": "rhf"
			},
			{
				"type": "unocc",
				"energy": 0.04004,
				"method": "rhf"
			},
			{
				"type": "unocc",
				"energy": 0.06921,
				"method": "rhf"
			},
			{
				"type": "unocc",
				"energy": 0.08107,
				"method": "rhf"
			}
		],
		"cosmo_sigma_profile": { 
			"-0.025": 0.0,
			"-0.024": 0.0,
			"-0.023": 0.0,
			"-0.022": 0.0,
			"-0.021": 0.0,
			"-0.02": 0.0,
			"-0.019": 0.0,
			"-0.018": 0.0,
			"-0.017": 0.0,
			"-0.016": 0.0,
			"-0.015": 0.0,
			"-0.014": 0.262036234228,
			"-0.013": 0.894627237917,
			"-0.012": 0.889412738746,
			"-0.011": 1.2324598381,
			"-0.01": 5.15117059326,
			"-0.009": 6.00564498976,
			"-0.008": 5.38140008027,
			"-0.007": 5.42046856929,
			"-0.006": 6.23250514776,
			"-0.005": 6.20699501722,
			"-0.004": 9.56687940692,
			"-0.003": 20.2414869018,
			"-0.002": 25.9062644077,
			"-0.001": 21.4222728953,
			"0.0": 19.7425459864,
			"0.001": 15.9735242552,
			"0.002": 7.008874342,
			"0.003": 3.7894367525,
			"0.004": 3.63724255285,
			"0.005": 3.50921084411,
			"0.006": 2.87200088423,
			"0.007": 3.82349925894,
			"0.008": 4.214525636,
			"0.009": 3.89335180277,
			"0.01": 3.97536782363,
			"0.011": 4.88196495052,
			"0.012": 5.13623016313,
			"0.013": 7.26769373728,
			"0.014": 2.01978785611,
			"0.015": 0.0,
			"0.016": 0.0,
			"0.017": 0.0,
			"0.018": 0.0,
			"0.019": 0.0,
			"0.02": 0.0,
			"0.021": 0.0,
			"0.022": 0.0,
			"0.023": 0.0,
			"0.024": 0.0,
			"0.025": 0.0
		}
	}
}
