{
	 "smiles": "FC1=CC(Cl)=C(C=C1)C(=O)N1CCNCC1", 
	 "Tm": 349.15, 
	 "num_atms": 28, 
	 "gaussian": { 
		 "optdone": 1, 
		 "sigma_profile": "yes", 
		 "theory": "DFT", 
		 "functional": "B3LYP", 
		 "basiset": "6-31G**", 
		 "properties": { 
			 "R2extent": 5706.5172, 
			 "electric_dipole_moment_norm": 2.99792499072, 
			 "electric_quadrupole_moment_norm": 8.99655820578, 
			 "total_energy": -1171.14746443, 
			 "HOMO_LUMO_gap": 0.19542, 
			 "cosmo_polarized_energy": -13.17, 
			 "cosmo_cavitation_energy": 32.68, 
			 "cosmo_dispersion_energy": -23.23, 
			 "cosmo_repulsion_energy": 1.79, 
			 "cosmo_total_nonelectrostatic_energy": 11.24, 
			 "SMD_solvation_energy": 3.02 
		},
		"coords": [
			{
				"x": 0.8615075407,
				"y": -2.9439375815,
				"z": 5.0355022171,
				"element": "F" 
			},
			{
				"x": 0.9109439444,
				"y": -2.1389191527,
				"z": 3.9581456949,
				"element": "C" 
			},
			{
				"x": 1.1338694601,
				"y": -0.7820790703,
				"z": 4.1527549826,
				"element": "C" 
			},
			{
				"x": 1.1762173169,
				"y": 0.0485582045,
				"z": 3.0321571721,
				"element": "C" 
			},
			{
				"x": 1.5082769427,
				"y": 1.7543126382,
				"z": 3.3030379689,
				"element": "Cl" 
			},
			{
				"x": 0.998180151,
				"y": -0.4526159865,
				"z": 1.7352772586,
				"element": "C" 
			},
			{
				"x": 0.8101940863,
				"y": -1.8364255828,
				"z": 1.5924055647,
				"element": "C" 
			},
			{
				"x": 0.749359484,
				"y": -2.6879538701,
				"z": 2.6905950336,
				"element": "C" 
			},
			{
				"x": 1.1340084234,
				"y": 0.3580864421,
				"z": 0.4644068579,
				"element": "C" 
			},
			{
				"x": 2.0342074858,
				"y": 0.0883607078,
				"z": -0.3285187111,
				"element": "O" 
			},
			{
				"x": 0.2255864412,
				"y": 1.3447788053,
				"z": 0.2122454909,
				"element": "N" 
			},
			{
				"x": -0.9966605924,
				"y": 1.6015365136,
				"z": 0.978287403,
				"element": "C" 
			},
			{
				"x": -2.1889200873,
				"y": 1.7650522135,
				"z": 0.0325537615,
				"element": "C" 
			},
			{
				"x": -1.9795980868,
				"y": 2.8928378045,
				"z": -0.8934024641,
				"element": "N" 
			},
			{
				"x": -0.5741152779,
				"y": 3.2858808394,
				"z": -1.0506350248,
				"element": "C" 
			},
			{
				"x": 0.4114435598,
				"y": 2.1142214637,
				"z": -1.0291218064,
				"element": "C" 
			},
			{
				"x": 1.2806773076,
				"y": -0.3898965011,
				"z": 5.1515610044,
				"element": "H" 
			},
			{
				"x": 0.7199704531,
				"y": -2.2404915131,
				"z": 0.5894186442,
				"element": "H" 
			},
			{
				"x": 0.5933820371,
				"y": -3.7549426572,
				"z": 2.5795665041,
				"element": "H" 
			},
			{
				"x": -0.8838119174,
				"y": 2.4995822318,
				"z": 1.5980272229,
				"element": "H" 
			},
			{
				"x": -1.1776200478,
				"y": 0.7633786024,
				"z": 1.6525444567,
				"element": "H" 
			},
			{
				"x": -3.0914980434,
				"y": 1.9370847962,
				"z": 0.6345717709,
				"element": "H" 
			},
			{
				"x": -2.3340659639,
				"y": 0.8119590322,
				"z": -0.4995559538,
				"element": "H" 
			},
			{
				"x": -2.374304265,
				"y": 2.6650258099,
				"z": -1.799121044,
				"element": "H" 
			},
			{
				"x": -0.3044522201,
				"y": 3.9936087918,
				"z": -0.2559159699,
				"element": "H" 
			},
			{
				"x": -0.4684799959,
				"y": 3.8306779725,
				"z": -1.9933223231,
				"element": "H" 
			},
			{
				"x": 1.4482928378,
				"y": 2.462144881,
				"z": -1.0788009077,
				"element": "H" 
			},
			{
				"x": 0.257409026,
				"y": 1.4584741649,
				"z": -1.897064804,
				"element": "H" 
			}
		],
		 "valence_orbital": [ 
			{
				"type": "occ",
				"energy": -0.27353,
				"method": "rhf"
			},
			{
				"type": "occ",
				"energy": -0.26211,
				"method": "rhf"
			},
			{
				"type": "occ",
				"energy": -0.24317,
				"method": "rhf"
			},
			{
				"type": "occ",
				"energy": -0.23911,
				"method": "rhf"
			},
			{
				"type": "occ",
				"energy": -0.22417,
				"method": "rhf"
			},
			{
				"type": "unocc",
				"energy": -0.02875,
				"method": "rhf"
			},
			{
				"type": "unocc",
				"energy": -0.02659,
				"method": "rhf"
			},
			{
				"type": "unocc",
				"energy": 0.01664,
				"method": "rhf"
			},
			{
				"type": "unocc",
				"energy": 0.03282,
				"method": "rhf"
			},
			{
				"type": "unocc",
				"energy": 0.0677,
				"method": "rhf"
			}
		],
		"cosmo_sigma_profile": { 
			"-0.025": 0.0,
			"-0.024": 0.0,
			"-0.023": 0.0,
			"-0.022": 0.0,
			"-0.021": 0.0,
			"-0.02": 0.0,
			"-0.019": 0.0,
			"-0.018": 0.0,
			"-0.017": 0.0,
			"-0.016": 0.0,
			"-0.015": 0.0,
			"-0.014": 0.0,
			"-0.013": 0.0,
			"-0.012": 0.0,
			"-0.011": 0.102769151264,
			"-0.01": 1.55494172422,
			"-0.009": 1.86766789789,
			"-0.008": 5.46498373461,
			"-0.007": 5.98490731276,
			"-0.006": 9.32764268647,
			"-0.005": 12.9008683141,
			"-0.004": 26.3639176626,
			"-0.003": 28.5297903191,
			"-0.002": 22.229027449,
			"-0.001": 22.1347797687,
			"0.0": 22.1862473729,
			"0.001": 21.4001138712,
			"0.002": 15.2135957709,
			"0.003": 17.8508413376,
			"0.004": 17.0394378176,
			"0.005": 3.37767030267,
			"0.006": 2.16945761848,
			"0.007": 1.93486050706,
			"0.008": 1.82432959843,
			"0.009": 2.30458337103,
			"0.01": 2.4388234392,
			"0.011": 2.12892660463,
			"0.012": 1.99817273864,
			"0.013": 4.26362929766,
			"0.014": 5.11800191689,
			"0.015": 1.42979631853,
			"0.016": 0.499633770929,
			"0.017": 0.374234121259,
			"0.018": 0.401527072667,
			"0.019": 0.0735351000735,
			"0.02": 0.0,
			"0.021": 0.0,
			"0.022": 0.0,
			"0.023": 0.0,
			"0.024": 0.0,
			"0.025": 0.0
		}
	}
}
