{
	 "smiles": "OC(=O)C1=NC=CC(=C1)N1CCOCC1", 
	 "Tm": 531.15, 
	 "num_atms": 27, 
	 "gaussian": { 
		 "optdone": 1, 
		 "sigma_profile": "yes", 
		 "theory": "DFT", 
		 "functional": "B3LYP", 
		 "basiset": "6-31G**", 
		 "properties": { 
			 "R2extent": 4080.6059, 
			 "electric_dipole_moment_norm": 6.33695144845, 
			 "electric_quadrupole_moment_norm": 19.4943227007, 
			 "total_energy": -723.470056985, 
			 "HOMO_LUMO_gap": 0.18096, 
			 "cosmo_polarized_energy": -15.67, 
			 "cosmo_cavitation_energy": 29.55, 
			 "cosmo_dispersion_energy": -22.46, 
			 "cosmo_repulsion_energy": 1.74, 
			 "cosmo_total_nonelectrostatic_energy": 8.84, 
			 "SMD_solvation_energy": 4.27 
		},
		"coords": [
			{
				"x": 4.1185829059,
				"y": 2.1449787164,
				"z": -0.7965411947,
				"element": "O" 
			},
			{
				"x": 3.0758117583,
				"y": 1.8917906289,
				"z": 0.0072516602,
				"element": "C" 
			},
			{
				"x": 2.9628013353,
				"y": 2.3593434034,
				"z": 1.1191704931,
				"element": "O" 
			},
			{
				"x": 2.0571511571,
				"y": 0.965404206,
				"z": -0.6144998358,
				"element": "C" 
			},
			{
				"x": 2.3470964453,
				"y": 0.5483315831,
				"z": -1.8589074108,
				"element": "N" 
			},
			{
				"x": 1.4491537695,
				"y": -0.2649703429,
				"z": -2.4244407151,
				"element": "C" 
			},
			{
				"x": 0.2777900249,
				"y": -0.6850759348,
				"z": -1.8046081135,
				"element": "C" 
			},
			{
				"x": -0.0216327669,
				"y": -0.2624490659,
				"z": -0.4863342886,
				"element": "C" 
			},
			{
				"x": 0.9235694118,
				"y": 0.611917855,
				"z": 0.0986375166,
				"element": "C" 
			},
			{
				"x": -1.1467608474,
				"y": -0.6937875703,
				"z": 0.1968816672,
				"element": "N" 
			},
			{
				"x": -1.6576249058,
				"y": 0.0879513863,
				"z": 1.3313873582,
				"element": "C" 
			},
			{
				"x": -2.5676934616,
				"y": -0.7637494052,
				"z": 2.2135507295,
				"element": "C" 
			},
			{
				"x": -3.6181025203,
				"y": -1.3534768194,
				"z": 1.4652995579,
				"element": "O" 
			},
			{
				"x": -3.0770618584,
				"y": -2.203340974,
				"z": 0.4697264409,
				"element": "C" 
			},
			{
				"x": -2.1909925479,
				"y": -1.4380392116,
				"z": -0.5134207836,
				"element": "C" 
			},
			{
				"x": 3.9432135364,
				"y": 1.6404031294,
				"z": -1.6215652271,
				"element": "H" 
			},
			{
				"x": 1.6680574509,
				"y": -0.5988681624,
				"z": -3.4365295317,
				"element": "H" 
			},
			{
				"x": -0.3903689665,
				"y": -1.3268806051,
				"z": -2.3626839167,
				"element": "H" 
			},
			{
				"x": 0.8208640554,
				"y": 1.0263810355,
				"z": 1.0917660056,
				"element": "H" 
			},
			{
				"x": -2.2133678651,
				"y": 0.9674249569,
				"z": 0.9693351652,
				"element": "H" 
			},
			{
				"x": -0.8284540131,
				"y": 0.4428921143,
				"z": 1.9435483128,
				"element": "H" 
			},
			{
				"x": -1.9724686425,
				"y": -1.5452040788,
				"z": 2.7135322653,
				"element": "H" 
			},
			{
				"x": -3.0328302636,
				"y": -0.1363104573,
				"z": 2.9786633394,
				"element": "H" 
			},
			{
				"x": -2.4911788629,
				"y": -3.011550735,
				"z": 0.9375376093,
				"element": "H" 
			},
			{
				"x": -3.9207052792,
				"y": -2.6490951552,
				"z": -0.064513724,
				"element": "H" 
			},
			{
				"x": -2.8104854431,
				"y": -0.7589986625,
				"z": -1.121560766,
				"element": "H" 
			},
			{
				"x": -1.7309636064,
				"y": -2.1680218348,
				"z": -1.1823826134,
				"element": "H" 
			}
		],
		 "valence_orbital": [ 
			{
				"type": "occ",
				"energy": -0.29266,
				"method": "rhf"
			},
			{
				"type": "occ",
				"energy": -0.27716,
				"method": "rhf"
			},
			{
				"type": "occ",
				"energy": -0.27372,
				"method": "rhf"
			},
			{
				"type": "occ",
				"energy": -0.25917,
				"method": "rhf"
			},
			{
				"type": "occ",
				"energy": -0.23194,
				"method": "rhf"
			},
			{
				"type": "unocc",
				"energy": -0.05098,
				"method": "rhf"
			},
			{
				"type": "unocc",
				"energy": -0.0252,
				"method": "rhf"
			},
			{
				"type": "unocc",
				"energy": 0.05868,
				"method": "rhf"
			},
			{
				"type": "unocc",
				"energy": 0.07095,
				"method": "rhf"
			},
			{
				"type": "unocc",
				"energy": 0.08958,
				"method": "rhf"
			}
		],
		"cosmo_sigma_profile": { 
			"-0.025": 0.0,
			"-0.024": 0.0,
			"-0.023": 0.0,
			"-0.022": 0.0,
			"-0.021": 0.0,
			"-0.02": 0.0,
			"-0.019": 0.0,
			"-0.018": 0.0,
			"-0.017": 0.0,
			"-0.016": 0.0,
			"-0.015": 0.0,
			"-0.014": 0.0,
			"-0.013": 0.0,
			"-0.012": 0.306152699445,
			"-0.011": 0.478756900216,
			"-0.01": 0.629367715563,
			"-0.009": 2.67819656162,
			"-0.008": 4.31910399874,
			"-0.007": 7.33800462332,
			"-0.006": 14.0257498684,
			"-0.005": 18.1929292702,
			"-0.004": 31.4177124596,
			"-0.003": 22.9669988937,
			"-0.002": 14.0946716815,
			"-0.001": 11.6636638718,
			"0.0": 10.7624000154,
			"0.001": 15.3528568717,
			"0.002": 17.5058292814,
			"0.003": 8.81301934631,
			"0.004": 5.66266013504,
			"0.005": 5.2833654449,
			"0.006": 5.88952428756,
			"0.007": 5.39534166712,
			"0.008": 4.2118774123,
			"0.009": 4.92675170086,
			"0.01": 6.06971049121,
			"0.011": 6.13115882336,
			"0.012": 6.78870843815,
			"0.013": 3.17982429244,
			"0.014": 0.205731697089,
			"0.015": 0.0,
			"0.016": 0.0,
			"0.017": 0.0,
			"0.018": 0.0,
			"0.019": 0.0,
			"0.02": 0.0,
			"0.021": 0.0,
			"0.022": 0.0,
			"0.023": 0.0,
			"0.024": 0.0,
			"0.025": 0.0
		}
	}
}
