{
	 "smiles": "CN1C(S)=NC2=C(SC=C2)C1=O", 
	 "Tm": 587.15, 
	 "num_atms": 18, 
	 "gaussian": { 
		 "optdone": 1, 
		 "sigma_profile": "yes", 
		 "theory": "DFT", 
		 "functional": "B3LYP", 
		 "basiset": "6-31G**", 
		 "properties": { 
			 "R2extent": 3817.8362, 
			 "electric_dipole_moment_norm": 2.4850801315, 
			 "electric_quadrupole_moment_norm": 15.018058758, 
			 "total_energy": -1251.4682623, 
			 "HOMO_LUMO_gap": 0.17467, 
			 "cosmo_polarized_energy": -10.4, 
			 "cosmo_cavitation_energy": 25.21, 
			 "cosmo_dispersion_energy": -20.13, 
			 "cosmo_repulsion_energy": 1.48, 
			 "cosmo_total_nonelectrostatic_energy": 6.56, 
			 "SMD_solvation_energy": 3.08 
		},
		"coords": [
			{
				"x": -1.1576669432,
				"y": -1.7812897768,
				"z": 2.6897270729,
				"element": "C" 
			},
			{
				"x": -1.4720524067,
				"y": -0.9596527487,
				"z": 1.515870553,
				"element": "N" 
			},
			{
				"x": -1.6231478075,
				"y": 0.4056005058,
				"z": 1.6119075785,
				"element": "C" 
			},
			{
				"x": -1.4129962545,
				"y": 1.1007728726,
				"z": 3.2461992334,
				"element": "S" 
			},
			{
				"x": -1.9004942612,
				"y": 1.2102845458,
				"z": 0.6290783998,
				"element": "N" 
			},
			{
				"x": -2.0517276846,
				"y": 0.625478301,
				"z": -0.6038996925,
				"element": "C" 
			},
			{
				"x": -1.9194092741,
				"y": -0.7449959144,
				"z": -0.8060586808,
				"element": "C" 
			},
			{
				"x": -2.1647386115,
				"y": -1.1935793306,
				"z": -2.4656889602,
				"element": "S" 
			},
			{
				"x": -2.4454692656,
				"y": 0.4738472356,
				"z": -2.8815061131,
				"element": "C" 
			},
			{
				"x": -2.3574442779,
				"y": 1.3236990207,
				"z": -1.8168468616,
				"element": "C" 
			},
			{
				"x": -1.6137576116,
				"y": -1.6506042269,
				"z": 0.2637121141,
				"element": "C" 
			},
			{
				"x": -1.4769326535,
				"y": -2.8652490366,
				"z": 0.19240355,
				"element": "O" 
			},
			{
				"x": -1.9474747794,
				"y": -1.693665808,
				"z": 3.4410011113,
				"element": "H" 
			},
			{
				"x": -1.0925702517,
				"y": -2.8111746255,
				"z": 2.3433684465,
				"element": "H" 
			},
			{
				"x": -0.201726746,
				"y": -1.4770087614,
				"z": 3.1250050523,
				"element": "H" 
			},
			{
				"x": -1.6464415587,
				"y": 2.3502571442,
				"z": 2.8057651436,
				"element": "H" 
			},
			{
				"x": -2.6631991257,
				"y": 0.7294133421,
				"z": -3.9098979069,
				"element": "H" 
			},
			{
				"x": -2.4988504866,
				"y": 2.3960672611,
				"z": -1.8678400403,
				"element": "H" 
			}
		],
		 "valence_orbital": [ 
			{
				"type": "occ",
				"energy": -0.28557,
				"method": "rhf"
			},
			{
				"type": "occ",
				"energy": -0.28161,
				"method": "rhf"
			},
			{
				"type": "occ",
				"energy": -0.27102,
				"method": "rhf"
			},
			{
				"type": "occ",
				"energy": -0.2554,
				"method": "rhf"
			},
			{
				"type": "occ",
				"energy": -0.2257,
				"method": "rhf"
			},
			{
				"type": "unocc",
				"energy": -0.05103,
				"method": "rhf"
			},
			{
				"type": "unocc",
				"energy": -0.01515,
				"method": "rhf"
			},
			{
				"type": "unocc",
				"energy": -0.00097,
				"method": "rhf"
			},
			{
				"type": "unocc",
				"energy": 0.02292,
				"method": "rhf"
			},
			{
				"type": "unocc",
				"energy": 0.03654,
				"method": "rhf"
			}
		],
		"cosmo_sigma_profile": { 
			"-0.025": 0.0,
			"-0.024": 0.0,
			"-0.023": 0.0,
			"-0.022": 0.0,
			"-0.021": 0.0,
			"-0.02": 0.0,
			"-0.019": 0.0,
			"-0.018": 0.0,
			"-0.017": 0.0,
			"-0.016": 0.0,
			"-0.015": 0.0,
			"-0.014": 0.0,
			"-0.013": 0.0,
			"-0.012": 0.962907013425,
			"-0.011": 1.30229238167,
			"-0.01": 2.06001491303,
			"-0.009": 3.51423358944,
			"-0.008": 3.71575186944,
			"-0.007": 6.29143301957,
			"-0.006": 9.58414075517,
			"-0.005": 12.1806979317,
			"-0.004": 15.543288045,
			"-0.003": 17.7591865049,
			"-0.002": 10.5740506416,
			"-0.001": 10.8874976759,
			"0.0": 12.8571602677,
			"0.001": 22.9208970622,
			"0.002": 21.6201834394,
			"0.003": 15.8413809598,
			"0.004": 9.29683267448,
			"0.005": 5.4050268495,
			"0.006": 4.90713606323,
			"0.007": 2.88185244124,
			"0.008": 1.93508374701,
			"0.009": 2.22070276929,
			"0.01": 2.78580928542,
			"0.011": 3.06237722884,
			"0.012": 4.78313017516,
			"0.013": 2.5346447764,
			"0.014": 0.0429640334493,
			"0.015": 0.0,
			"0.016": 0.0,
			"0.017": 0.0,
			"0.018": 0.0,
			"0.019": 0.0,
			"0.02": 0.0,
			"0.021": 0.0,
			"0.022": 0.0,
			"0.023": 0.0,
			"0.024": 0.0,
			"0.025": 0.0
		}
	}
}
