{
	 "smiles": "ClS(=O)(=O)C1=CN(N=C1)C1CCOCC1", 
	 "Tm": 333.15, 
	 "num_atms": 26, 
	 "gaussian": { 
		 "optdone": 1, 
		 "sigma_profile": "yes", 
		 "theory": "DFT", 
		 "functional": "B3LYP", 
		 "basiset": "6-31G**", 
		 "properties": { 
			 "R2extent": 6277.2288, 
			 "electric_dipole_moment_norm": 5.04120985776, 
			 "electric_quadrupole_moment_norm": 26.0286767989, 
			 "total_energy": -1504.92513429, 
			 "HOMO_LUMO_gap": 0.17312, 
			 "cosmo_polarized_energy": -15.4, 
			 "cosmo_cavitation_energy": 32.46, 
			 "cosmo_dispersion_energy": -24.09, 
			 "cosmo_repulsion_energy": 1.86, 
			 "cosmo_total_nonelectrostatic_energy": 10.23, 
			 "SMD_solvation_energy": 3.65 
		},
		"coords": [
			{
				"x": 3.2531757726,
				"y": 2.893069192,
				"z": 2.9126353378,
				"element": "Cl" 
			},
			{
				"x": 1.119294144,
				"y": 3.0167246893,
				"z": 2.8633843699,
				"element": "S" 
			},
			{
				"x": 0.6697819435,
				"y": 2.6149165036,
				"z": 4.1891676853,
				"element": "O" 
			},
			{
				"x": 0.8121473976,
				"y": 4.3189582779,
				"z": 2.2843616616,
				"element": "O" 
			},
			{
				"x": 0.7037515666,
				"y": 1.7729073288,
				"z": 1.7165929984,
				"element": "C" 
			},
			{
				"x": 0.5261123025,
				"y": 1.9506217257,
				"z": 0.3506154415,
				"element": "C" 
			},
			{
				"x": 0.2043321857,
				"y": 0.7374859171,
				"z": -0.1379831391,
				"element": "N" 
			},
			{
				"x": 0.161196953,
				"y": -0.2204843411,
				"z": 0.8256816662,
				"element": "N" 
			},
			{
				"x": 0.4679646942,
				"y": 0.399743428,
				"z": 1.9569865174,
				"element": "C" 
			},
			{
				"x": -0.1165813183,
				"y": 0.3852047022,
				"z": -1.5300990514,
				"element": "C" 
			},
			{
				"x": -1.5651865757,
				"y": -0.1532330781,
				"z": -1.670690459,
				"element": "C" 
			},
			{
				"x": -1.5797573451,
				"y": -1.6753735048,
				"z": -1.808877434,
				"element": "C" 
			},
			{
				"x": -0.8655750402,
				"y": -2.118427131,
				"z": -2.9624873487,
				"element": "O" 
			},
			{
				"x": 0.3102161921,
				"y": -1.376049338,
				"z": -3.2778409273,
				"element": "C" 
			},
			{
				"x": 0.8984178614,
				"y": -0.6426620091,
				"z": -2.0722533171,
				"element": "C" 
			},
			{
				"x": 0.5987092406,
				"y": 2.8365083051,
				"z": -0.2619895535,
				"element": "H" 
			},
			{
				"x": 0.503396866,
				"y": -0.1332373537,
				"z": 2.8963045214,
				"element": "H" 
			},
			{
				"x": -0.0249989798,
				"y": 1.3244093466,
				"z": -2.0835726357,
				"element": "H" 
			},
			{
				"x": -2.0189452776,
				"y": 0.2877977244,
				"z": -2.5649424411,
				"element": "H" 
			},
			{
				"x": -2.1692444931,
				"y": 0.155778242,
				"z": -0.8127100033,
				"element": "H" 
			},
			{
				"x": -2.6046246646,
				"y": -2.038503929,
				"z": -1.9315221348,
				"element": "H" 
			},
			{
				"x": -1.1697322312,
				"y": -2.1328597484,
				"z": -0.8973876586,
				"element": "H" 
			},
			{
				"x": 0.0895365597,
				"y": -0.6527365224,
				"z": -4.0810364926,
				"element": "H" 
			},
			{
				"x": 1.0395961845,
				"y": -2.0880706749,
				"z": -3.6785689954,
				"element": "H" 
			},
			{
				"x": 1.8362645568,
				"y": -0.14906642,
				"z": -2.3472778643,
				"element": "H" 
			},
			{
				"x": 1.1266515048,
				"y": -1.3635213323,
				"z": -1.2815907437,
				"element": "H" 
			}
		],
		 "valence_orbital": [ 
			{
				"type": "occ",
				"energy": -0.31109,
				"method": "rhf"
			},
			{
				"type": "occ",
				"energy": -0.3088,
				"method": "rhf"
			},
			{
				"type": "occ",
				"energy": -0.29482,
				"method": "rhf"
			},
			{
				"type": "occ",
				"energy": -0.28686,
				"method": "rhf"
			},
			{
				"type": "occ",
				"energy": -0.25706,
				"method": "rhf"
			},
			{
				"type": "unocc",
				"energy": -0.08394,
				"method": "rhf"
			},
			{
				"type": "unocc",
				"energy": -0.0239,
				"method": "rhf"
			},
			{
				"type": "unocc",
				"energy": 0.00066,
				"method": "rhf"
			},
			{
				"type": "unocc",
				"energy": 0.05068,
				"method": "rhf"
			},
			{
				"type": "unocc",
				"energy": 0.06832,
				"method": "rhf"
			}
		],
		"cosmo_sigma_profile": { 
			"-0.025": 0.0,
			"-0.024": 0.0,
			"-0.023": 0.0,
			"-0.022": 0.0,
			"-0.021": 0.0,
			"-0.02": 0.0,
			"-0.019": 0.0,
			"-0.018": 0.0,
			"-0.017": 0.0,
			"-0.016": 0.0,
			"-0.015": 0.0,
			"-0.014": 0.0,
			"-0.013": 0.0,
			"-0.012": 1.11880753535,
			"-0.011": 2.80304688643,
			"-0.01": 2.51085332437,
			"-0.009": 4.13440397421,
			"-0.008": 4.07059029953,
			"-0.007": 6.2321527779,
			"-0.006": 7.87994587622,
			"-0.005": 18.0696976086,
			"-0.004": 22.3535767954,
			"-0.003": 22.5999194274,
			"-0.002": 24.5627271901,
			"-0.001": 20.7934895621,
			"0.0": 15.7929658086,
			"0.001": 12.396883654,
			"0.002": 13.047260801,
			"0.003": 15.1895687433,
			"0.004": 16.2939103439,
			"0.005": 6.25240896782,
			"0.006": 6.35887155934,
			"0.007": 7.88240148259,
			"0.008": 13.1204424904,
			"0.009": 8.36676790496,
			"0.01": 2.05550003231,
			"0.011": 1.18578345416,
			"0.012": 1.64835383189,
			"0.013": 1.41291298915,
			"0.014": 1.44349763764,
			"0.015": 0.0187200054666,
			"0.016": 0.0,
			"0.017": 0.0,
			"0.018": 0.0,
			"0.019": 0.0,
			"0.02": 0.0,
			"0.021": 0.0,
			"0.022": 0.0,
			"0.023": 0.0,
			"0.024": 0.0,
			"0.025": 0.0
		}
	}
}
