{
	 "smiles": "BrN1C(=O)CCC1=O", 
	 "Tm": 450.15, 
	 "num_atms": 12, 
	 "gaussian": { 
		 "optdone": 1, 
		 "sigma_profile": "yes", 
		 "theory": "DFT", 
		 "functional": "B3LYP", 
		 "basiset": "6-31G**", 
		 "properties": { 
			 "R2extent": 1866.2391, 
			 "electric_dipole_moment_norm": 2.8680226725, 
			 "electric_quadrupole_moment_norm": 16.4897962907, 
			 "total_energy": -2931.42830939, 
			 "HOMO_LUMO_gap": 0.20356, 
			 "cosmo_polarized_energy": -12.47, 
			 "cosmo_cavitation_energy": 18.78, 
			 "cosmo_dispersion_energy": -14.5, 
			 "cosmo_repulsion_energy": 1.23, 
			 "cosmo_total_nonelectrostatic_energy": 5.51, 
			 "SMD_solvation_energy": 3.53 
		},
		"coords": [
			{
				"x": -0.6759972045,
				"y": 1.3674942886,
				"z": 1.892142496,
				"element": "Br" 
			},
			{
				"x": -0.9212514056,
				"y": 0.9102033412,
				"z": 0.1016361719,
				"element": "N" 
			},
			{
				"x": 0.0391313389,
				"y": 0.1801445959,
				"z": -0.6198862132,
				"element": "C" 
			},
			{
				"x": 1.0905075111,
				"y": -0.2205128893,
				"z": -0.1868957003,
				"element": "O" 
			},
			{
				"x": -0.528244158,
				"y": 0.0134569046,
				"z": -2.0280925121,
				"element": "C" 
			},
			{
				"x": -1.8964778618,
				"y": 0.7207109134,
				"z": -2.0214234508,
				"element": "C" 
			},
			{
				"x": -2.0777501213,
				"y": 1.2743808594,
				"z": -0.6095486486,
				"element": "C" 
			},
			{
				"x": -3.0092618262,
				"y": 1.898673251,
				"z": -0.1668967246,
				"element": "O" 
			},
			{
				"x": 0.1816573224,
				"y": 0.4467219469,
				"z": -2.7379571102,
				"element": "H" 
			},
			{
				"x": -0.592567899,
				"y": -1.0556604685,
				"z": -2.2481823941,
				"element": "H" 
			},
			{
				"x": -2.7331743467,
				"y": 0.050846964,
				"z": -2.2377715565,
				"element": "H" 
			},
			{
				"x": -1.9589713494,
				"y": 1.5532402928,
				"z": -2.7275243575,
				"element": "H" 
			}
		],
		 "valence_orbital": [ 
			{
				"type": "occ",
				"energy": -0.34178,
				"method": "rhf"
			},
			{
				"type": "occ",
				"energy": -0.31016,
				"method": "rhf"
			},
			{
				"type": "occ",
				"energy": -0.30253,
				"method": "rhf"
			},
			{
				"type": "occ",
				"energy": -0.27549,
				"method": "rhf"
			},
			{
				"type": "occ",
				"energy": -0.27249,
				"method": "rhf"
			},
			{
				"type": "unocc",
				"energy": -0.06893,
				"method": "rhf"
			},
			{
				"type": "unocc",
				"energy": -0.03161,
				"method": "rhf"
			},
			{
				"type": "unocc",
				"energy": 0.01277,
				"method": "rhf"
			},
			{
				"type": "unocc",
				"energy": 0.07579,
				"method": "rhf"
			},
			{
				"type": "unocc",
				"energy": 0.11959,
				"method": "rhf"
			}
		],
		"cosmo_sigma_profile": { 
			"-0.025": 0.0,
			"-0.024": 0.0,
			"-0.023": 0.0,
			"-0.022": 0.0,
			"-0.021": 0.0,
			"-0.02": 0.0,
			"-0.019": 0.0,
			"-0.018": 0.0,
			"-0.017": 0.0,
			"-0.016": 0.0,
			"-0.015": 0.0,
			"-0.014": 0.0,
			"-0.013": 0.0,
			"-0.012": 0.0,
			"-0.011": 0.0,
			"-0.01": 0.24638957099,
			"-0.009": 2.37443603848,
			"-0.008": 12.554433675,
			"-0.007": 16.5995690734,
			"-0.006": 9.80966951917,
			"-0.005": 9.37616517378,
			"-0.004": 10.1124600731,
			"-0.003": 7.73383623975,
			"-0.002": 5.63385314844,
			"-0.001": 5.36656601701,
			"0.0": 5.00892519291,
			"0.001": 7.65301330873,
			"0.002": 9.25454852022,
			"0.003": 6.77925527481,
			"0.004": 4.91440737821,
			"0.005": 3.99177827014,
			"0.006": 3.2278632271,
			"0.007": 3.4703366761,
			"0.008": 4.17249436826,
			"0.009": 4.32425097954,
			"0.01": 7.3220698694,
			"0.011": 10.7005636261,
			"0.012": 2.83340826339,
			"0.013": 0.0,
			"0.014": 0.0,
			"0.015": 0.0,
			"0.016": 0.0,
			"0.017": 0.0,
			"0.018": 0.0,
			"0.019": 0.0,
			"0.02": 0.0,
			"0.021": 0.0,
			"0.022": 0.0,
			"0.023": 0.0,
			"0.024": 0.0,
			"0.025": 0.0
		}
	}
}
