{
	 "smiles": "OC(=O)COC1=CC=CC=C1C=O", 
	 "Tm": 406.15, 
	 "num_atms": 21, 
	 "gaussian": { 
		 "optdone": 1, 
		 "sigma_profile": "yes", 
		 "theory": "DFT", 
		 "functional": "B3LYP", 
		 "basiset": "6-31G**", 
		 "properties": { 
			 "R2extent": 2720.4371, 
			 "electric_dipole_moment_norm": 4.14092446925, 
			 "electric_quadrupole_moment_norm": 13.1335551394, 
			 "total_energy": -648.656233008, 
			 "HOMO_LUMO_gap": 0.17993, 
			 "cosmo_polarized_energy": -18.76, 
			 "cosmo_cavitation_energy": 26.36, 
			 "cosmo_dispersion_energy": -18.86, 
			 "cosmo_repulsion_energy": 1.52, 
			 "cosmo_total_nonelectrostatic_energy": 9.01, 
			 "SMD_solvation_energy": 7.11 
		},
		"coords": [
			{
				"x": 3.2790197055,
				"y": 2.2622345648,
				"z": 0.3845391391,
				"element": "O" 
			},
			{
				"x": 2.2900515351,
				"y": 1.3656410891,
				"z": 0.6106402518,
				"element": "C" 
			},
			{
				"x": 2.2417502697,
				"y": 0.6422237988,
				"z": 1.573944444,
				"element": "O" 
			},
			{
				"x": 1.2719481471,
				"y": 1.4261588805,
				"z": -0.5228945197,
				"element": "C" 
			},
			{
				"x": 0.1617685759,
				"y": 0.5909753686,
				"z": -0.3070105078,
				"element": "O" 
			},
			{
				"x": 0.2516306945,
				"y": -0.7447195366,
				"z": -0.5360822368,
				"element": "C" 
			},
			{
				"x": 1.4293138348,
				"y": -1.3955809163,
				"z": -0.9229810374,
				"element": "C" 
			},
			{
				"x": 1.4277155173,
				"y": -2.7710515921,
				"z": -1.1575035788,
				"element": "C" 
			},
			{
				"x": 0.2628115173,
				"y": -3.5242220576,
				"z": -1.0085527385,
				"element": "C" 
			},
			{
				"x": -0.9045518588,
				"y": -2.8764669736,
				"z": -0.6189570994,
				"element": "C" 
			},
			{
				"x": -0.9417577161,
				"y": -1.4949590006,
				"z": -0.3807663791,
				"element": "C" 
			},
			{
				"x": -2.247807805,
				"y": -0.9169103974,
				"z": 0.011570857,
				"element": "C" 
			},
			{
				"x": -2.5070940953,
				"y": 0.2489820669,
				"z": 0.2312659079,
				"element": "O" 
			},
			{
				"x": 3.8903251247,
				"y": 2.1963781626,
				"z": 1.1375356477,
				"element": "H" 
			},
			{
				"x": 1.7764704523,
				"y": 1.2236259886,
				"z": -1.476844383,
				"element": "H" 
			},
			{
				"x": 0.8772492218,
				"y": 2.4450063274,
				"z": -0.5731062017,
				"element": "H" 
			},
			{
				"x": 2.3573909018,
				"y": -0.8472335003,
				"z": -1.0257772857,
				"element": "H" 
			},
			{
				"x": 2.354502756,
				"y": -3.2544096303,
				"z": -1.453273165,
				"element": "H" 
			},
			{
				"x": 0.269063648,
				"y": -4.5940788557,
				"z": -1.1886670494,
				"element": "H" 
			},
			{
				"x": -1.8256217554,
				"y": -3.4414747688,
				"z": -0.4943717432,
				"element": "H" 
			},
			{
				"x": -3.0429786714,
				"y": -1.6954190182,
				"z": 0.091591678,
				"element": "H" 
			}
		],
		 "valence_orbital": [ 
			{
				"type": "occ",
				"energy": -0.33521,
				"method": "rhf"
			},
			{
				"type": "occ",
				"energy": -0.29313,
				"method": "rhf"
			},
			{
				"type": "occ",
				"energy": -0.26475,
				"method": "rhf"
			},
			{
				"type": "occ",
				"energy": -0.23943,
				"method": "rhf"
			},
			{
				"type": "occ",
				"energy": -0.2345,
				"method": "rhf"
			},
			{
				"type": "unocc",
				"energy": -0.05457,
				"method": "rhf"
			},
			{
				"type": "unocc",
				"energy": -0.00571,
				"method": "rhf"
			},
			{
				"type": "unocc",
				"energy": -0.00413,
				"method": "rhf"
			},
			{
				"type": "unocc",
				"energy": 0.04447,
				"method": "rhf"
			},
			{
				"type": "unocc",
				"energy": 0.06059,
				"method": "rhf"
			}
		],
		"cosmo_sigma_profile": { 
			"-0.025": 0.0,
			"-0.024": 0.0,
			"-0.023": 0.0,
			"-0.022": 0.0,
			"-0.021": 0.0,
			"-0.02": 0.0,
			"-0.019": 0.483536246787,
			"-0.018": 0.955198636196,
			"-0.017": 1.10079206968,
			"-0.016": 1.01290959443,
			"-0.015": 0.749069608827,
			"-0.014": 0.238047722055,
			"-0.013": 0.179251206832,
			"-0.012": 0.966153781975,
			"-0.011": 1.48554458593,
			"-0.01": 1.67539649672,
			"-0.009": 5.12103347337,
			"-0.008": 7.41539334735,
			"-0.007": 11.4192498966,
			"-0.006": 14.6787575572,
			"-0.005": 14.8709399189,
			"-0.004": 11.3712394124,
			"-0.003": 11.698982293,
			"-0.002": 9.4968300128,
			"-0.001": 8.79787470759,
			"0.0": 11.2209179786,
			"0.001": 10.5969377649,
			"0.002": 11.58452469,
			"0.003": 12.6241498228,
			"0.004": 10.5018627748,
			"0.005": 5.02513086941,
			"0.006": 5.04100103777,
			"0.007": 4.11598552603,
			"0.008": 6.07452985914,
			"0.009": 5.72826221687,
			"0.01": 5.30155431401,
			"0.011": 8.62831069703,
			"0.012": 5.60523201211,
			"0.013": 2.70490146008,
			"0.014": 1.77633808721,
			"0.015": 0.394287331668,
			"0.016": 0.0,
			"0.017": 0.0,
			"0.018": 0.0,
			"0.019": 0.0,
			"0.02": 0.0,
			"0.021": 0.0,
			"0.022": 0.0,
			"0.023": 0.0,
			"0.024": 0.0,
			"0.025": 0.0
		}
	}
}
