{
	 "smiles": "SC1=NC2=CC=CN=C2S1", 
	 "Tm": 573.15, 
	 "num_atms": 14, 
	 "gaussian": { 
		 "optdone": 1, 
		 "sigma_profile": "yes", 
		 "theory": "DFT", 
		 "functional": "B3LYP", 
		 "basiset": "6-31G**", 
		 "properties": { 
			 "R2extent": 2321.9831, 
			 "electric_dipole_moment_norm": 2.0265764481, 
			 "electric_quadrupole_moment_norm": 7.44652832668, 
			 "total_energy": -1136.91956501, 
			 "HOMO_LUMO_gap": 0.18694, 
			 "cosmo_polarized_energy": -7.1, 
			 "cosmo_cavitation_energy": 21.96, 
			 "cosmo_dispersion_energy": -17.78, 
			 "cosmo_repulsion_energy": 1.33, 
			 "cosmo_total_nonelectrostatic_energy": 5.51, 
			 "SMD_solvation_energy": -0.41 
		},
		"coords": [
			{
				"x": -3.4914194681,
				"y": 0.555580311,
				"z": 2.2368905825,
				"element": "S" 
			},
			{
				"x": -2.0454797153,
				"y": 0.5629503447,
				"z": 1.2221918459,
				"element": "C" 
			},
			{
				"x": -1.1943832101,
				"y": -0.4120534979,
				"z": 1.1631071468,
				"element": "N" 
			},
			{
				"x": -0.173594795,
				"y": -0.10514592,
				"z": 0.2807869507,
				"element": "C" 
			},
			{
				"x": 0.9242409517,
				"y": -0.907408714,
				"z": -0.045556522,
				"element": "C" 
			},
			{
				"x": 1.8412353497,
				"y": -0.4029443943,
				"z": -0.9638846535,
				"element": "C" 
			},
			{
				"x": 1.6405974893,
				"y": 0.8680011075,
				"z": -1.5223836212,
				"element": "C" 
			},
			{
				"x": 0.5977448245,
				"y": 1.656172087,
				"z": -1.2267208477,
				"element": "N" 
			},
			{
				"x": -0.2619243843,
				"y": 1.1588917213,
				"z": -0.3523723737,
				"element": "C" 
			},
			{
				"x": -1.7215339051,
				"y": 1.9882622319,
				"z": 0.2118137069,
				"element": "S" 
			},
			{
				"x": -3.2385251273,
				"y": -0.6712680409,
				"z": 2.7342761352,
				"element": "H" 
			},
			{
				"x": 1.0402675569,
				"y": -1.8850978735,
				"z": 0.4108586191,
				"element": "H" 
			},
			{
				"x": 2.7113573134,
				"y": -0.9830730386,
				"z": -1.2531809186,
				"element": "H" 
			},
			{
				"x": 2.3518171196,
				"y": 1.2695336759,
				"z": -2.2403260506,
				"element": "H" 
			}
		],
		 "valence_orbital": [ 
			{
				"type": "occ",
				"energy": -0.30478,
				"method": "rhf"
			},
			{
				"type": "occ",
				"energy": -0.30017,
				"method": "rhf"
			},
			{
				"type": "occ",
				"energy": -0.26527,
				"method": "rhf"
			},
			{
				"type": "occ",
				"energy": -0.26331,
				"method": "rhf"
			},
			{
				"type": "occ",
				"energy": -0.2374,
				"method": "rhf"
			},
			{
				"type": "unocc",
				"energy": -0.05046,
				"method": "rhf"
			},
			{
				"type": "unocc",
				"energy": -0.02606,
				"method": "rhf"
			},
			{
				"type": "unocc",
				"energy": -0.01631,
				"method": "rhf"
			},
			{
				"type": "unocc",
				"energy": 0.01701,
				"method": "rhf"
			},
			{
				"type": "unocc",
				"energy": 0.01996,
				"method": "rhf"
			}
		],
		"cosmo_sigma_profile": { 
			"-0.025": 0.0,
			"-0.024": 0.0,
			"-0.023": 0.0,
			"-0.022": 0.0,
			"-0.021": 0.0,
			"-0.02": 0.0,
			"-0.019": 0.0,
			"-0.018": 0.0,
			"-0.017": 0.0,
			"-0.016": 0.0,
			"-0.015": 0.0,
			"-0.014": 0.0,
			"-0.013": 0.147550278938,
			"-0.012": 1.49122829642,
			"-0.011": 1.34235074149,
			"-0.01": 1.32225852342,
			"-0.009": 1.15995971229,
			"-0.008": 2.90942413777,
			"-0.007": 7.06779663747,
			"-0.006": 8.53053072904,
			"-0.005": 9.64784262159,
			"-0.004": 6.40999125357,
			"-0.003": 8.11237970915,
			"-0.002": 10.6623717359,
			"-0.001": 16.3866404257,
			"0.0": 21.3207347684,
			"0.001": 24.9807032016,
			"0.002": 19.6431707246,
			"0.003": 11.0151624433,
			"0.004": 7.04844961039,
			"0.005": 5.59509887974,
			"0.006": 4.43280351703,
			"0.007": 2.10167083504,
			"0.008": 2.11014120822,
			"0.009": 1.94245391379,
			"0.01": 2.25964862732,
			"0.011": 1.13392425489,
			"0.012": 1.86870974727,
			"0.013": 1.04926060558,
			"0.014": 0.794380737705,
			"0.015": 0.157392382397,
			"0.016": 0.0,
			"0.017": 0.0,
			"0.018": 0.0,
			"0.019": 0.0,
			"0.02": 0.0,
			"0.021": 0.0,
			"0.022": 0.0,
			"0.023": 0.0,
			"0.024": 0.0,
			"0.025": 0.0
		}
	}
}
