{
	 "smiles": "CN1CCC2=C(C=C(N)C=C2)C1=O", 
	 "Tm": 401.15, 
	 "num_atms": 25, 
	 "gaussian": { 
		 "optdone": 1, 
		 "sigma_profile": "yes", 
		 "theory": "DFT", 
		 "functional": "B3LYP", 
		 "basiset": "6-31G**", 
		 "properties": { 
			 "R2extent": 3040.835, 
			 "electric_dipole_moment_norm": 3.44129291546, 
			 "electric_quadrupole_moment_norm": 13.1047561042, 
			 "total_energy": -573.052724079, 
			 "HOMO_LUMO_gap": 0.17296, 
			 "cosmo_polarized_energy": -14.42, 
			 "cosmo_cavitation_energy": 27.37, 
			 "cosmo_dispersion_energy": -20.52, 
			 "cosmo_repulsion_energy": 1.61, 
			 "cosmo_total_nonelectrostatic_energy": 8.46, 
			 "SMD_solvation_energy": 4.37 
		},
		"coords": [
			{
				"x": -0.5848631867,
				"y": 1.1297613208,
				"z": -2.5957806414,
				"element": "C" 
			},
			{
				"x": -0.4824097118,
				"y": 1.0473833193,
				"z": -1.1469717706,
				"element": "N" 
			},
			{
				"x": -0.4833599692,
				"y": 2.3089678845,
				"z": -0.4050662742,
				"element": "C" 
			},
			{
				"x": 0.2086732937,
				"y": 2.154914979,
				"z": 0.9475218535,
				"element": "C" 
			},
			{
				"x": -0.3590561185,
				"y": 0.9770465311,
				"z": 1.6995365235,
				"element": "C" 
			},
			{
				"x": -0.8134888025,
				"y": -0.1327601836,
				"z": 0.9679518676,
				"element": "C" 
			},
			{
				"x": -1.3048305708,
				"y": -1.267029538,
				"z": 1.6158133135,
				"element": "C" 
			},
			{
				"x": -1.3632075726,
				"y": -1.3238814771,
				"z": 3.0147327406,
				"element": "C" 
			},
			{
				"x": -1.8026233743,
				"y": -2.4776361687,
				"z": 3.6668744379,
				"element": "N" 
			},
			{
				"x": -0.9141802176,
				"y": -0.2093851677,
				"z": 3.7469849444,
				"element": "C" 
			},
			{
				"x": -0.4190884532,
				"y": 0.9162275408,
				"z": 3.093965536,
				"element": "C" 
			},
			{
				"x": -0.7866760158,
				"y": -0.1486391705,
				"z": -0.5321454994,
				"element": "C" 
			},
			{
				"x": -1.0147206414,
				"y": -1.1763707697,
				"z": -1.1700861954,
				"element": "O" 
			},
			{
				"x": -0.5660004676,
				"y": 0.1180949216,
				"z": -2.9980544704,
				"element": "H" 
			},
			{
				"x": 0.2543820867,
				"y": 1.7069518386,
				"z": -2.9990410431,
				"element": "H" 
			},
			{
				"x": -1.5208986016,
				"y": 1.6158882228,
				"z": -2.9063887176,
				"element": "H" 
			},
			{
				"x": 0.0387537807,
				"y": 3.0544227572,
				"z": -1.0137532459,
				"element": "H" 
			},
			{
				"x": -1.5149953908,
				"y": 2.6711319989,
				"z": -0.2642944807,
				"element": "H" 
			},
			{
				"x": 1.2859524677,
				"y": 2.0115890736,
				"z": 0.7803374256,
				"element": "H" 
			},
			{
				"x": 0.0966569953,
				"y": 3.0799130537,
				"z": 1.5237978503,
				"element": "H" 
			},
			{
				"x": -1.633092148,
				"y": -2.1019462723,
				"z": 1.0042191537,
				"element": "H" 
			},
			{
				"x": -2.3948257908,
				"y": -3.0816508941,
				"z": 3.1138741552,
				"element": "H" 
			},
			{
				"x": -2.1710927704,
				"y": -2.3347900376,
				"z": 4.596983992,
				"element": "H" 
			},
			{
				"x": -0.952351095,
				"y": -0.2316568416,
				"z": 4.8335585566,
				"element": "H" 
			},
			{
				"x": -0.0761577253,
				"y": 1.7639530792,
				"z": 3.682629988,
				"element": "H" 
			}
		],
		 "valence_orbital": [ 
			{
				"type": "occ",
				"energy": -0.29826,
				"method": "rhf"
			},
			{
				"type": "occ",
				"energy": -0.24698,
				"method": "rhf"
			},
			{
				"type": "occ",
				"energy": -0.24083,
				"method": "rhf"
			},
			{
				"type": "occ",
				"energy": -0.23038,
				"method": "rhf"
			},
			{
				"type": "occ",
				"energy": -0.19981,
				"method": "rhf"
			},
			{
				"type": "unocc",
				"energy": -0.02685,
				"method": "rhf"
			},
			{
				"type": "unocc",
				"energy": 0.01181,
				"method": "rhf"
			},
			{
				"type": "unocc",
				"energy": 0.07033,
				"method": "rhf"
			},
			{
				"type": "unocc",
				"energy": 0.08507,
				"method": "rhf"
			},
			{
				"type": "unocc",
				"energy": 0.09507,
				"method": "rhf"
			}
		],
		"cosmo_sigma_profile": { 
			"-0.025": 0.0,
			"-0.024": 0.0,
			"-0.023": 0.0,
			"-0.022": 0.0,
			"-0.021": 0.0,
			"-0.02": 0.0,
			"-0.019": 0.0,
			"-0.018": 0.0,
			"-0.017": 0.0,
			"-0.016": 0.0,
			"-0.015": 0.0,
			"-0.014": 0.0,
			"-0.013": 0.195550428191,
			"-0.012": 2.16150609386,
			"-0.011": 3.2200406409,
			"-0.01": 2.51286052058,
			"-0.009": 3.68557709238,
			"-0.008": 2.9772079156,
			"-0.007": 3.04052793057,
			"-0.006": 5.03759826659,
			"-0.005": 13.8844833596,
			"-0.004": 21.5856772835,
			"-0.003": 25.7848715083,
			"-0.002": 22.0927652324,
			"-0.001": 16.3706825418,
			"0.0": 9.01357227314,
			"0.001": 9.48107315951,
			"0.002": 8.77785902196,
			"0.003": 8.55553116175,
			"0.004": 11.2286815269,
			"0.005": 12.0061602561,
			"0.006": 9.49730770642,
			"0.007": 2.90575379747,
			"0.008": 2.32711089695,
			"0.009": 2.0608289195,
			"0.01": 2.41689160995,
			"0.011": 3.09545122166,
			"0.012": 1.72794445206,
			"0.013": 3.72594988593,
			"0.014": 5.45330650198,
			"0.015": 0.887549825612,
			"0.016": 0.0,
			"0.017": 0.0,
			"0.018": 0.0,
			"0.019": 0.0,
			"0.02": 0.0,
			"0.021": 0.0,
			"0.022": 0.0,
			"0.023": 0.0,
			"0.024": 0.0,
			"0.025": 0.0
		}
	}
}
