{
	 "smiles": "CC(C)NCC(O)COC1=CC=CC=C1CC=C", 
	 "Tm": 381.15, 
	 "num_atms": 41, 
	 "gaussian": { 
		 "optdone": 1, 
		 "sigma_profile": "yes", 
		 "theory": "DFT", 
		 "functional": "B3LYP", 
		 "basiset": "6-31G**", 
		 "properties": { 
			 "R2extent": 7588.6071, 
			 "electric_dipole_moment_norm": 3.2361252108, 
			 "electric_quadrupole_moment_norm": 9.15326231133, 
			 "total_energy": -790.625174355, 
			 "HOMO_LUMO_gap": 0.21434, 
			 "cosmo_polarized_energy": -10.14, 
			 "cosmo_cavitation_energy": 42.08, 
			 "cosmo_dispersion_energy": -28.51, 
			 "cosmo_repulsion_energy": 2.24, 
			 "cosmo_total_nonelectrostatic_energy": 15.81, 
			 "SMD_solvation_energy": 6.96 
		},
		"coords": [
			{
				"x": 0.9187273217,
				"y": 4.4126287026,
				"z": -0.6002458958,
				"element": "C" 
			},
			{
				"x": -0.5636419391,
				"y": 4.025744605,
				"z": -0.6227966842,
				"element": "C" 
			},
			{
				"x": -1.0717015748,
				"y": 3.8134145198,
				"z": -2.059808176,
				"element": "C" 
			},
			{
				"x": -0.8386796117,
				"y": 2.8883136471,
				"z": 0.2813010802,
				"element": "N" 
			},
			{
				"x": -0.1869682565,
				"y": 1.5945193287,
				"z": 0.0205778715,
				"element": "C" 
			},
			{
				"x": 1.0575503095,
				"y": 1.42616842,
				"z": 0.927444602,
				"element": "C" 
			},
			{
				"x": 0.795979664,
				"y": 1.9938034485,
				"z": 2.195003867,
				"element": "O" 
			},
			{
				"x": 1.4729793383,
				"y": -0.0386857642,
				"z": 1.0679627026,
				"element": "C" 
			},
			{
				"x": 0.3881720594,
				"y": -0.9280577256,
				"z": 1.3444847079,
				"element": "O" 
			},
			{
				"x": 0.2469766926,
				"y": -1.4706916098,
				"z": 2.6010378405,
				"element": "C" 
			},
			{
				"x": 0.485969214,
				"y": -0.7454805543,
				"z": 3.7718746616,
				"element": "C" 
			},
			{
				"x": 0.2982344763,
				"y": -1.3594851696,
				"z": 5.0121588764,
				"element": "C" 
			},
			{
				"x": -0.1445320028,
				"y": -2.6792899733,
				"z": 5.0871139709,
				"element": "C" 
			},
			{
				"x": -0.3978997302,
				"y": -3.3848405287,
				"z": 3.9086844711,
				"element": "C" 
			},
			{
				"x": -0.2027162812,
				"y": -2.804534251,
				"z": 2.6520470547,
				"element": "C" 
			},
			{
				"x": -0.4316737264,
				"y": -3.5912716835,
				"z": 1.373854894,
				"element": "C" 
			},
			{
				"x": 0.8545380499,
				"y": -4.1007375928,
				"z": 0.7648628725,
				"element": "C" 
			},
			{
				"x": 1.2843570483,
				"y": -3.8227395009,
				"z": -0.465868944,
				"element": "C" 
			},
			{
				"x": 1.2747308304,
				"y": 4.5327077035,
				"z": 0.4268918244,
				"element": "H" 
			},
			{
				"x": 1.5402334136,
				"y": 3.6573859594,
				"z": -1.0929746735,
				"element": "H" 
			},
			{
				"x": 1.0699941697,
				"y": 5.3569633272,
				"z": -1.132265993,
				"element": "H" 
			},
			{
				"x": -1.1275379442,
				"y": 4.8647272271,
				"z": -0.1932349418,
				"element": "H" 
			},
			{
				"x": -0.925433039,
				"y": 4.7178973578,
				"z": -2.6600825895,
				"element": "H" 
			},
			{
				"x": -0.5407993614,
				"y": 2.9968413839,
				"z": -2.5608140165,
				"element": "H" 
			},
			{
				"x": -2.1414878868,
				"y": 3.5763944462,
				"z": -2.068216439,
				"element": "H" 
			},
			{
				"x": -1.8429374902,
				"y": 2.7534790056,
				"z": 0.3310641604,
				"element": "H" 
			},
			{
				"x": -0.8931563834,
				"y": 0.8039029525,
				"z": 0.28629223,
				"element": "H" 
			},
			{
				"x": 0.0911438596,
				"y": 1.4443801704,
				"z": -1.0319265207,
				"element": "H" 
			},
			{
				"x": 1.9216199238,
				"y": 1.9341908141,
				"z": 0.4634312255,
				"element": "H" 
			},
			{
				"x": 0.1035877156,
				"y": 2.6606585104,
				"z": 2.0064626371,
				"element": "H" 
			},
			{
				"x": 2.2446574404,
				"y": -0.1244625209,
				"z": 1.8404854341,
				"element": "H" 
			},
			{
				"x": 1.9016248361,
				"y": -0.376038148,
				"z": 0.1157827606,
				"element": "H" 
			},
			{
				"x": 0.7777261043,
				"y": 0.2964156528,
				"z": 3.6972471964,
				"element": "H" 
			},
			{
				"x": 0.484852121,
				"y": -0.792528577,
				"z": 5.920134233,
				"element": "H" 
			},
			{
				"x": -0.2995460024,
				"y": -3.1549286068,
				"z": 6.0510604006,
				"element": "H" 
			},
			{
				"x": -0.7487404341,
				"y": -4.4132799987,
				"z": 3.9601129865,
				"element": "H" 
			},
			{
				"x": -1.077983256,
				"y": -4.4477805724,
				"z": 1.6086370485,
				"element": "H" 
			},
			{
				"x": -0.9598405475,
				"y": -2.9766793371,
				"z": 0.6384243156,
				"element": "H" 
			},
			{
				"x": 1.4567987456,
				"y": -4.7411375759,
				"z": 1.4101970606,
				"element": "H" 
			},
			{
				"x": 2.2161579246,
				"y": -4.2274493059,
				"z": -0.8506729608,
				"element": "H" 
			},
			{
				"x": 0.7154642086,
				"y": -3.1808381862,
				"z": -1.1344251515,
				"element": "H" 
			}
		],
		 "valence_orbital": [ 
			{
				"type": "occ",
				"energy": -0.25822,
				"method": "rhf"
			},
			{
				"type": "occ",
				"energy": -0.24675,
				"method": "rhf"
			},
			{
				"type": "occ",
				"energy": -0.23899,
				"method": "rhf"
			},
			{
				"type": "occ",
				"energy": -0.23121,
				"method": "rhf"
			},
			{
				"type": "occ",
				"energy": -0.2083,
				"method": "rhf"
			},
			{
				"type": "unocc",
				"energy": 0.00604,
				"method": "rhf"
			},
			{
				"type": "unocc",
				"energy": 0.02078,
				"method": "rhf"
			},
			{
				"type": "unocc",
				"energy": 0.03759,
				"method": "rhf"
			},
			{
				"type": "unocc",
				"energy": 0.0622,
				"method": "rhf"
			},
			{
				"type": "unocc",
				"energy": 0.0853,
				"method": "rhf"
			}
		],
		"cosmo_sigma_profile": { 
			"-0.025": 0.0,
			"-0.024": 0.0,
			"-0.023": 0.0,
			"-0.022": 0.0,
			"-0.021": 0.0,
			"-0.02": 0.0,
			"-0.019": 0.0,
			"-0.018": 0.0,
			"-0.017": 0.0,
			"-0.016": 0.0,
			"-0.015": 0.0,
			"-0.014": 0.0,
			"-0.013": 0.0,
			"-0.012": 0.0,
			"-0.011": 0.354923209917,
			"-0.01": 1.32706431792,
			"-0.009": 1.31043614358,
			"-0.008": 1.26913032505,
			"-0.007": 1.70585392149,
			"-0.006": 3.00768713176,
			"-0.005": 14.8436195785,
			"-0.004": 30.2287201732,
			"-0.003": 40.6221292547,
			"-0.002": 38.6864414152,
			"-0.001": 32.1167964294,
			"0.0": 33.9665876327,
			"0.001": 32.1385039408,
			"0.002": 17.331904918,
			"0.003": 15.4951025105,
			"0.004": 15.2841258966,
			"0.005": 16.1074269358,
			"0.006": 16.3251343161,
			"0.007": 9.56658749446,
			"0.008": 1.91815478007,
			"0.009": 0.852935762129,
			"0.01": 1.18920837094,
			"0.011": 0.347436199224,
			"0.012": 0.518014545369,
			"0.013": 0.890399450209,
			"0.014": 0.758108511073,
			"0.015": 0.557725809848,
			"0.016": 0.0571041404061,
			"0.017": 0.0,
			"0.018": 0.0,
			"0.019": 0.0,
			"0.02": 0.0,
			"0.021": 0.0,
			"0.022": 0.0,
			"0.023": 0.0,
			"0.024": 0.0,
			"0.025": 0.0
		}
	}
}
