{
	 "smiles": "OC(=O)C=CC(=O)NC1=CC(=CC=C1)C(F)(F)F", 
	 "Tm": 435.15, 
	 "num_atms": 26, 
	 "gaussian": { 
		 "optdone": 1, 
		 "sigma_profile": "yes", 
		 "theory": "DFT", 
		 "functional": "B3LYP", 
		 "basiset": "6-31G**", 
		 "properties": { 
			 "R2extent": 4662.7367, 
			 "electric_dipole_moment_norm": 2.2254985419, 
			 "electric_quadrupole_moment_norm": 27.6985051674, 
			 "total_energy": -1003.93111227, 
			 "HOMO_LUMO_gap": 0.17496, 
			 "cosmo_polarized_energy": -22.66, 
			 "cosmo_cavitation_energy": 33.36, 
			 "cosmo_dispersion_energy": -22.07, 
			 "cosmo_repulsion_energy": 1.69, 
			 "cosmo_total_nonelectrostatic_energy": 12.97, 
			 "SMD_solvation_energy": 8.62 
		},
		"coords": [
			{
				"x": -2.702790085,
				"y": 3.1345797873,
				"z": 0.9697131724,
				"element": "O" 
			},
			{
				"x": -2.2923638651,
				"y": 1.9140611651,
				"z": 1.4016739398,
				"element": "C" 
			},
			{
				"x": -2.9723333452,
				"y": 0.9368077085,
				"z": 1.1859699777,
				"element": "O" 
			},
			{
				"x": -0.9930770229,
				"y": 1.8905027494,
				"z": 2.1298257091,
				"element": "C" 
			},
			{
				"x": -0.4517415184,
				"y": 0.7697768981,
				"z": 2.6250685984,
				"element": "C" 
			},
			{
				"x": -1.0953466215,
				"y": -0.5919677278,
				"z": 2.6906924302,
				"element": "C" 
			},
			{
				"x": -1.5624507085,
				"y": -0.9578839359,
				"z": 3.7578603277,
				"element": "O" 
			},
			{
				"x": -1.068189109,
				"y": -1.415264064,
				"z": 1.5898211778,
				"element": "N" 
			},
			{
				"x": -0.6570799229,
				"y": -1.112085329,
				"z": 0.2710007558,
				"element": "C" 
			},
			{
				"x": 0.6123995609,
				"y": -0.5824538503,
				"z": 0.0189650364,
				"element": "C" 
			},
			{
				"x": 1.0013798401,
				"y": -0.3061156166,
				"z": -1.2930001662,
				"element": "C" 
			},
			{
				"x": 0.151392672,
				"y": -0.5901818785,
				"z": -2.3636952249,
				"element": "C" 
			},
			{
				"x": -1.1024933133,
				"y": -1.1463737015,
				"z": -2.1092286232,
				"element": "C" 
			},
			{
				"x": -1.5126891312,
				"y": -1.3961920671,
				"z": -0.8019654713,
				"element": "C" 
			},
			{
				"x": 2.3392209289,
				"y": 0.3368968161,
				"z": -1.5425050637,
				"element": "C" 
			},
			{
				"x": 2.2578842909,
				"y": 1.6881776531,
				"z": -1.4839429838,
				"element": "F" 
			},
			{
				"x": 3.258075039,
				"y": -0.0364535563,
				"z": -0.6232382584,
				"element": "F" 
			},
			{
				"x": 2.8312747127,
				"y": 0.0260803951,
				"z": -2.7603926313,
				"element": "F" 
			},
			{
				"x": -2.0638051747,
				"y": 3.8186960893,
				"z": 1.2128074856,
				"element": "H" 
			},
			{
				"x": -0.4642888933,
				"y": 2.8311502208,
				"z": 2.2738431396,
				"element": "H" 
			},
			{
				"x": 0.4818190761,
				"y": 0.8419444005,
				"z": 3.1791437963,
				"element": "H" 
			},
			{
				"x": -1.6555122576,
				"y": -2.2313308863,
				"z": 1.7159800289,
				"element": "H" 
			},
			{
				"x": 1.3037463778,
				"y": -0.4103465055,
				"z": 0.8349688109,
				"element": "H" 
			},
			{
				"x": 0.4728107234,
				"y": -0.3894428194,
				"z": -3.3793349654,
				"element": "H" 
			},
			{
				"x": -1.7709974482,
				"y": -1.3730743948,
				"z": -2.9337713157,
				"element": "H" 
			},
			{
				"x": -2.502844805,
				"y": -1.7933075503,
				"z": -0.6015596827,
				"element": "H" 
			}
		],
		 "valence_orbital": [ 
			{
				"type": "occ",
				"energy": -0.30741,
				"method": "rhf"
			},
			{
				"type": "occ",
				"energy": -0.28389,
				"method": "rhf"
			},
			{
				"type": "occ",
				"energy": -0.27538,
				"method": "rhf"
			},
			{
				"type": "occ",
				"energy": -0.26631,
				"method": "rhf"
			},
			{
				"type": "occ",
				"energy": -0.24456,
				"method": "rhf"
			},
			{
				"type": "unocc",
				"energy": -0.0696,
				"method": "rhf"
			},
			{
				"type": "unocc",
				"energy": -0.03549,
				"method": "rhf"
			},
			{
				"type": "unocc",
				"energy": -0.02783,
				"method": "rhf"
			},
			{
				"type": "unocc",
				"energy": 0.01303,
				"method": "rhf"
			},
			{
				"type": "unocc",
				"energy": 0.05125,
				"method": "rhf"
			}
		],
		"cosmo_sigma_profile": { 
			"-0.025": 0.0,
			"-0.024": 0.0,
			"-0.023": 0.0,
			"-0.022": 0.0,
			"-0.021": 0.0,
			"-0.02": 0.348459765068,
			"-0.019": 1.47216509243,
			"-0.018": 1.05962348466,
			"-0.017": 0.965953067778,
			"-0.016": 1.5998373283,
			"-0.015": 2.01240823458,
			"-0.014": 1.78280306631,
			"-0.013": 1.92328317125,
			"-0.012": 2.10448135779,
			"-0.011": 2.56591115007,
			"-0.01": 2.89366723267,
			"-0.009": 7.04753077239,
			"-0.008": 7.77642413958,
			"-0.007": 11.2715549672,
			"-0.006": 9.65350300451,
			"-0.005": 10.6718475685,
			"-0.004": 10.559480004,
			"-0.003": 9.84604790344,
			"-0.002": 10.535791606,
			"-0.001": 12.4561391467,
			"0.0": 14.3605079132,
			"0.001": 21.6689955052,
			"0.002": 30.5531213427,
			"0.003": 36.1448090139,
			"0.004": 6.96226752383,
			"0.005": 3.57748972658,
			"0.006": 4.6262081869,
			"0.007": 5.26998684761,
			"0.008": 4.53246906559,
			"0.009": 5.48927884348,
			"0.01": 6.34647039721,
			"0.011": 6.45332436767,
			"0.012": 6.98131437479,
			"0.013": 5.23523027643,
			"0.014": 0.193362355512,
			"0.015": 0.0,
			"0.016": 0.0,
			"0.017": 0.0,
			"0.018": 0.0,
			"0.019": 0.0,
			"0.02": 0.0,
			"0.021": 0.0,
			"0.022": 0.0,
			"0.023": 0.0,
			"0.024": 0.0,
			"0.025": 0.0
		}
	}
}
