{
	 "smiles": "CNC(=O)OC1=CC=CC=C1OC(CCl)OC", 
	 "Tm": 353.15, 
	 "num_atms": 31, 
	 "gaussian": { 
		 "optdone": 1, 
		 "sigma_profile": "yes", 
		 "theory": "DFT", 
		 "functional": "B3LYP", 
		 "basiset": "6-31G**", 
		 "properties": { 
			 "R2extent": 5651.1266, 
			 "electric_dipole_moment_norm": 3.42641321501, 
			 "electric_quadrupole_moment_norm": 17.6466319285, 
			 "total_energy": -1243.44688077, 
			 "HOMO_LUMO_gap": 0.22218, 
			 "cosmo_polarized_energy": -14.78, 
			 "cosmo_cavitation_energy": 36.47, 
			 "cosmo_dispersion_energy": -25.17, 
			 "cosmo_repulsion_energy": 2.01, 
			 "cosmo_total_nonelectrostatic_energy": 13.32, 
			 "SMD_solvation_energy": 7.27 
		},
		"coords": [
			{
				"x": -3.1884761752,
				"y": -3.4036811778,
				"z": 2.7164796957,
				"element": "C" 
			},
			{
				"x": -3.1233138732,
				"y": -2.4878334746,
				"z": 1.5948656092,
				"element": "N" 
			},
			{
				"x": -1.968338113,
				"y": -2.2448665423,
				"z": 0.9224287365,
				"element": "C" 
			},
			{
				"x": -0.872607083,
				"y": -2.7008622765,
				"z": 1.1808743572,
				"element": "O" 
			},
			{
				"x": -2.242945647,
				"y": -1.3962614589,
				"z": -0.1309999728,
				"element": "O" 
			},
			{
				"x": -1.1691367735,
				"y": -0.935406817,
				"z": -0.8851402278,
				"element": "C" 
			},
			{
				"x": -1.0794227724,
				"y": -1.3113504408,
				"z": -2.2182104064,
				"element": "C" 
			},
			{
				"x": -0.0543939816,
				"y": -0.8029358564,
				"z": -3.0192205598,
				"element": "C" 
			},
			{
				"x": 0.8805195419,
				"y": 0.0677039356,
				"z": -2.4633828825,
				"element": "C" 
			},
			{
				"x": 0.7952239583,
				"y": 0.449327573,
				"z": -1.1214004976,
				"element": "C" 
			},
			{
				"x": -0.2463474943,
				"y": -0.0355568497,
				"z": -0.3256354604,
				"element": "C" 
			},
			{
				"x": -0.4685623272,
				"y": 0.2994088133,
				"z": 0.9847903906,
				"element": "O" 
			},
			{
				"x": 0.4564711169,
				"y": 1.1502865697,
				"z": 1.658692141,
				"element": "C" 
			},
			{
				"x": -0.2670658699,
				"y": 1.4561716267,
				"z": 2.9755403445,
				"element": "C" 
			},
			{
				"x": 0.691474872,
				"y": 2.5805692535,
				"z": 4.0079466179,
				"element": "Cl" 
			},
			{
				"x": 1.7217337471,
				"y": 0.5928630968,
				"z": 1.7822718667,
				"element": "O" 
			},
			{
				"x": 1.8029964658,
				"y": -0.6580049706,
				"z": 2.4784185776,
				"element": "C" 
			},
			{
				"x": -3.582208954,
				"y": -2.9073087022,
				"z": 3.6103119689,
				"element": "H" 
			},
			{
				"x": -2.1743180534,
				"y": -3.7482341143,
				"z": 2.9205866006,
				"element": "H" 
			},
			{
				"x": -3.8175662162,
				"y": -4.2726458352,
				"z": 2.4910732004,
				"element": "H" 
			},
			{
				"x": -3.9616576845,
				"y": -2.0510373789,
				"z": 1.2439075163,
				"element": "H" 
			},
			{
				"x": -1.8195748308,
				"y": -2.0006187593,
				"z": -2.6114205925,
				"element": "H" 
			},
			{
				"x": 0.0164660143,
				"y": -1.0972565642,
				"z": -4.0613465337,
				"element": "H" 
			},
			{
				"x": 1.6935492228,
				"y": 0.4549224154,
				"z": -3.0701383332,
				"element": "H" 
			},
			{
				"x": 1.5520787135,
				"y": 1.0943394894,
				"z": -0.693704588,
				"element": "H" 
			},
			{
				"x": 0.604646876,
				"y": 2.0760086378,
				"z": 1.0901542249,
				"element": "H" 
			},
			{
				"x": -1.222615911,
				"y": 1.934485865,
				"z": 2.7624540588,
				"element": "H" 
			},
			{
				"x": -0.4424566183,
				"y": 0.5444892837,
				"z": 3.5463566391,
				"element": "H" 
			},
			{
				"x": 2.8077488112,
				"y": -1.0373135103,
				"z": 2.2857269219,
				"element": "H" 
			},
			{
				"x": 1.0638826513,
				"y": -1.3744949284,
				"z": 2.1073333172,
				"element": "H" 
			},
			{
				"x": 1.6840163873,
				"y": -0.5180069025,
				"z": 3.5600872697,
				"element": "H" 
			}
		],
		 "valence_orbital": [ 
			{
				"type": "occ",
				"energy": -0.27902,
				"method": "rhf"
			},
			{
				"type": "occ",
				"energy": -0.27632,
				"method": "rhf"
			},
			{
				"type": "occ",
				"energy": -0.26114,
				"method": "rhf"
			},
			{
				"type": "occ",
				"energy": -0.24687,
				"method": "rhf"
			},
			{
				"type": "occ",
				"energy": -0.22441,
				"method": "rhf"
			},
			{
				"type": "unocc",
				"energy": -0.00223,
				"method": "rhf"
			},
			{
				"type": "unocc",
				"energy": 0.00721,
				"method": "rhf"
			},
			{
				"type": "unocc",
				"energy": 0.02414,
				"method": "rhf"
			},
			{
				"type": "unocc",
				"energy": 0.05274,
				"method": "rhf"
			},
			{
				"type": "unocc",
				"energy": 0.0838,
				"method": "rhf"
			}
		],
		"cosmo_sigma_profile": { 
			"-0.025": 0.0,
			"-0.024": 0.0,
			"-0.023": 0.0,
			"-0.022": 0.0,
			"-0.021": 0.0,
			"-0.02": 0.0,
			"-0.019": 0.0,
			"-0.018": 0.0,
			"-0.017": 0.0,
			"-0.016": 0.0,
			"-0.015": 0.3013162783,
			"-0.014": 0.95141929047,
			"-0.013": 1.13217820088,
			"-0.012": 1.28471092783,
			"-0.011": 0.681315245737,
			"-0.01": 0.835688317881,
			"-0.009": 1.03983227195,
			"-0.008": 4.92623155031,
			"-0.007": 10.5908616677,
			"-0.006": 14.0238609807,
			"-0.005": 22.3147552018,
			"-0.004": 24.3338314794,
			"-0.003": 21.6589203431,
			"-0.002": 22.4077499772,
			"-0.001": 17.2132750869,
			"0.0": 15.4565816209,
			"0.001": 16.9342364414,
			"0.002": 17.0723076035,
			"0.003": 19.3833806868,
			"0.004": 18.2344155962,
			"0.005": 20.6994593973,
			"0.006": 15.7303847575,
			"0.007": 6.4330708062,
			"0.008": 4.32515946607,
			"0.009": 3.1355053347,
			"0.01": 2.54536887471,
			"0.011": 2.77524560866,
			"0.012": 2.95679277279,
			"0.013": 1.95262504121,
			"0.014": 0.0187734937314,
			"0.015": 0.0,
			"0.016": 0.0,
			"0.017": 0.0,
			"0.018": 0.0,
			"0.019": 0.0,
			"0.02": 0.0,
			"0.021": 0.0,
			"0.022": 0.0,
			"0.023": 0.0,
			"0.024": 0.0,
			"0.025": 0.0
		}
	}
}
