{
	 "smiles": "OC1=CC=NC2=C1C=CC(Cl)=C2", 
	 "Tm": 553.15, 
	 "num_atms": 18, 
	 "gaussian": { 
		 "optdone": 1, 
		 "sigma_profile": "yes", 
		 "theory": "DFT", 
		 "functional": "B3LYP", 
		 "basiset": "6-31G**", 
		 "properties": { 
			 "R2extent": 3116.6779, 
			 "electric_dipole_moment_norm": 3.13912992245, 
			 "electric_quadrupole_moment_norm": 3.55806383726, 
			 "total_energy": -936.743572716, 
			 "HOMO_LUMO_gap": 0.17512, 
			 "cosmo_polarized_energy": -11.56, 
			 "cosmo_cavitation_energy": 23.98, 
			 "cosmo_dispersion_energy": -18.42, 
			 "cosmo_repulsion_energy": 1.44, 
			 "cosmo_total_nonelectrostatic_energy": 7.0, 
			 "SMD_solvation_energy": 2.52 
		},
		"coords": [
			{
				"x": -1.2304460232,
				"y": 1.2188496312,
				"z": -2.4003470045,
				"element": "O" 
			},
			{
				"x": -1.5369742067,
				"y": 0.0170602029,
				"z": -1.8535620682,
				"element": "C" 
			},
			{
				"x": -2.4586377407,
				"y": -0.7777123504,
				"z": -2.5057768983,
				"element": "C" 
			},
			{
				"x": -2.787735351,
				"y": -2.030534544,
				"z": -1.9502547588,
				"element": "C" 
			},
			{
				"x": -2.279573282,
				"y": -2.5218967075,
				"z": -0.8344359562,
				"element": "N" 
			},
			{
				"x": -1.368569455,
				"y": -1.7481481503,
				"z": -0.1795560872,
				"element": "C" 
			},
			{
				"x": -0.9502778485,
				"y": -0.4570518158,
				"z": -0.6402319373,
				"element": "C" 
			},
			{
				"x": 0.0053177771,
				"y": 0.2663442213,
				"z": 0.119379939,
				"element": "C" 
			},
			{
				"x": 0.5318420736,
				"y": -0.2492812062,
				"z": 1.2817760007,
				"element": "C" 
			},
			{
				"x": 0.1101177389,
				"y": -1.5247897785,
				"z": 1.7244236024,
				"element": "C" 
			},
			{
				"x": 0.7964112697,
				"y": -2.1615759082,
				"z": 3.2103033271,
				"element": "Cl" 
			},
			{
				"x": -0.8126774076,
				"y": -2.2623764783,
				"z": 1.0228443622,
				"element": "C" 
			},
			{
				"x": -0.5795323924,
				"y": 1.6804716597,
				"z": -1.8573006198,
				"element": "H" 
			},
			{
				"x": -2.9140121248,
				"y": -0.4340881186,
				"z": -3.4274766454,
				"element": "H" 
			},
			{
				"x": -3.5146178391,
				"y": -2.6582333864,
				"z": -2.4643784179,
				"element": "H" 
			},
			{
				"x": 0.3462932118,
				"y": 1.249342103,
				"z": -0.1990376287,
				"element": "H" 
			},
			{
				"x": 1.2614680515,
				"y": 0.3064600482,
				"z": 1.8593371091,
				"element": "H" 
			},
			{
				"x": -1.1398964515,
				"y": -3.2397394221,
				"z": 1.3564936817,
				"element": "H" 
			}
		],
		 "valence_orbital": [ 
			{
				"type": "occ",
				"energy": -0.31771,
				"method": "rhf"
			},
			{
				"type": "occ",
				"energy": -0.28492,
				"method": "rhf"
			},
			{
				"type": "occ",
				"energy": -0.26145,
				"method": "rhf"
			},
			{
				"type": "occ",
				"energy": -0.25662,
				"method": "rhf"
			},
			{
				"type": "occ",
				"energy": -0.2325,
				"method": "rhf"
			},
			{
				"type": "unocc",
				"energy": -0.05738,
				"method": "rhf"
			},
			{
				"type": "unocc",
				"energy": -0.02802,
				"method": "rhf"
			},
			{
				"type": "unocc",
				"energy": 0.01576,
				"method": "rhf"
			},
			{
				"type": "unocc",
				"energy": 0.02077,
				"method": "rhf"
			},
			{
				"type": "unocc",
				"energy": 0.04891,
				"method": "rhf"
			}
		],
		"cosmo_sigma_profile": { 
			"-0.025": 0.0,
			"-0.024": 0.0,
			"-0.023": 0.0,
			"-0.022": 0.0,
			"-0.021": 0.0,
			"-0.02": 0.0385571857835,
			"-0.019": 0.617616108556,
			"-0.018": 1.18389156606,
			"-0.017": 0.813965247646,
			"-0.016": 0.98404688966,
			"-0.015": 0.96498470345,
			"-0.014": 0.686304456994,
			"-0.013": 1.03772513941,
			"-0.012": 1.22998010927,
			"-0.011": 1.50914066603,
			"-0.01": 1.10469619595,
			"-0.009": 0.758669999062,
			"-0.008": 2.70511355468,
			"-0.007": 7.94822788423,
			"-0.006": 8.43740098786,
			"-0.005": 8.11048413301,
			"-0.004": 7.31230356041,
			"-0.003": 7.74608104027,
			"-0.002": 8.50416374581,
			"-0.001": 9.79564015252,
			"0.0": 16.7813691262,
			"0.001": 24.2432873797,
			"0.002": 28.2387647847,
			"0.003": 15.0269498245,
			"0.004": 14.7096781782,
			"0.005": 6.49767340813,
			"0.006": 2.86235421143,
			"0.007": 2.45966719237,
			"0.008": 3.00614285593,
			"0.009": 2.93036436217,
			"0.01": 2.39159480876,
			"0.011": 0.68213209642,
			"0.012": 1.14066299613,
			"0.013": 0.866830094372,
			"0.014": 0.848703202247,
			"0.015": 0.743480258764,
			"0.016": 0.70595173776,
			"0.017": 0.0817953035281,
			"0.018": 0.0,
			"0.019": 0.0,
			"0.02": 0.0,
			"0.021": 0.0,
			"0.022": 0.0,
			"0.023": 0.0,
			"0.024": 0.0,
			"0.025": 0.0
		}
	}
}
