{
	 "smiles": "CCCOC(=O)C1=CC=CC=C1", 
	 "Tm": 221.55, 
	 "num_atms": 24, 
	 "gaussian": { 
		 "optdone": 1, 
		 "sigma_profile": "yes", 
		 "theory": "DFT", 
		 "functional": "B3LYP", 
		 "basiset": "6-31G**", 
		 "properties": { 
			 "R2extent": 2892.4934, 
			 "electric_dipole_moment_norm": 2.02335877936, 
			 "electric_quadrupole_moment_norm": 11.7752070844, 
			 "total_energy": -538.768603187, 
			 "HOMO_LUMO_gap": 0.21388, 
			 "cosmo_polarized_energy": -7.05, 
			 "cosmo_cavitation_energy": 27.86, 
			 "cosmo_dispersion_energy": -20.01, 
			 "cosmo_repulsion_energy": 1.62, 
			 "cosmo_total_nonelectrostatic_energy": 9.46, 
			 "SMD_solvation_energy": 5.73 
		},
		"coords": [
			{
				"x": -3.214827147,
				"y": -0.2060783126,
				"z": 2.8687940805,
				"element": "C" 
			},
			{
				"x": -3.7961181938,
				"y": -0.6117617647,
				"z": 1.5106723231,
				"element": "C" 
			},
			{
				"x": -3.280862579,
				"y": 0.2264174733,
				"z": 0.3504749529,
				"element": "C" 
			},
			{
				"x": -1.8610190325,
				"y": -0.0129521197,
				"z": 0.2231997404,
				"element": "O" 
			},
			{
				"x": -1.2222006155,
				"y": 0.7177760039,
				"z": -0.7183766237,
				"element": "C" 
			},
			{
				"x": -1.7861245399,
				"y": 1.5352392097,
				"z": -1.4209243241,
				"element": "O" 
			},
			{
				"x": 0.2347909872,
				"y": 0.4076404238,
				"z": -0.7938881022,
				"element": "C" 
			},
			{
				"x": 1.0060371704,
				"y": 1.1214275004,
				"z": -1.7213765088,
				"element": "C" 
			},
			{
				"x": 2.3714605999,
				"y": 0.8716974469,
				"z": -1.8338739289,
				"element": "C" 
			},
			{
				"x": 2.9740690838,
				"y": -0.0929886795,
				"z": -1.0217246963,
				"element": "C" 
			},
			{
				"x": 2.2082622011,
				"y": -0.8074340057,
				"z": -0.0970650379,
				"element": "C" 
			},
			{
				"x": 0.8412639544,
				"y": -0.5599704218,
				"z": 0.0192323119,
				"element": "C" 
			},
			{
				"x": -3.461589023,
				"y": 0.8345232017,
				"z": 3.1081857536,
				"element": "H" 
			},
			{
				"x": -2.1251819536,
				"y": -0.2995321738,
				"z": 2.8721453347,
				"element": "H" 
			},
			{
				"x": -3.6115299633,
				"y": -0.8364032375,
				"z": 3.6705900771,
				"element": "H" 
			},
			{
				"x": -4.8889697618,
				"y": -0.5130557206,
				"z": 1.5250638216,
				"element": "H" 
			},
			{
				"x": -3.5814317643,
				"y": -1.6678791614,
				"z": 1.3069175529,
				"element": "H" 
			},
			{
				"x": -3.7674391868,
				"y": -0.0411949765,
				"z": -0.5932219923,
				"element": "H" 
			},
			{
				"x": -3.4450040272,
				"y": 1.2968019149,
				"z": 0.5147481272,
				"element": "H" 
			},
			{
				"x": 0.5141535878,
				"y": 1.8641221897,
				"z": -2.3403720773,
				"element": "H" 
			},
			{
				"x": 2.9664780405,
				"y": 1.426873555,
				"z": -2.5530554393,
				"element": "H" 
			},
			{
				"x": 4.0391862373,
				"y": -0.288166491,
				"z": -1.109631289,
				"element": "H" 
			},
			{
				"x": 2.6768256549,
				"y": -1.5577284032,
				"z": 0.5331209526,
				"element": "H" 
			},
			{
				"x": 0.2397702705,
				"y": -1.1111734515,
				"z": 0.7327649915,
				"element": "H" 
			}
		],
		 "valence_orbital": [ 
			{
				"type": "occ",
				"energy": -0.33546,
				"method": "rhf"
			},
			{
				"type": "occ",
				"energy": -0.29643,
				"method": "rhf"
			},
			{
				"type": "occ",
				"energy": -0.26925,
				"method": "rhf"
			},
			{
				"type": "occ",
				"energy": -0.25765,
				"method": "rhf"
			},
			{
				"type": "occ",
				"energy": -0.25645,
				"method": "rhf"
			},
			{
				"type": "unocc",
				"energy": -0.04257,
				"method": "rhf"
			},
			{
				"type": "unocc",
				"energy": -0.00617,
				"method": "rhf"
			},
			{
				"type": "unocc",
				"energy": 0.06064,
				"method": "rhf"
			},
			{
				"type": "unocc",
				"energy": 0.08612,
				"method": "rhf"
			},
			{
				"type": "unocc",
				"energy": 0.09927,
				"method": "rhf"
			}
		],
		"cosmo_sigma_profile": { 
			"-0.025": 0.0,
			"-0.024": 0.0,
			"-0.023": 0.0,
			"-0.022": 0.0,
			"-0.021": 0.0,
			"-0.02": 0.0,
			"-0.019": 0.0,
			"-0.018": 0.0,
			"-0.017": 0.0,
			"-0.016": 0.0,
			"-0.015": 0.0,
			"-0.014": 0.0,
			"-0.013": 0.0,
			"-0.012": 0.0,
			"-0.011": 0.0,
			"-0.01": 0.0,
			"-0.009": 0.0,
			"-0.008": 0.0,
			"-0.007": 0.974966457848,
			"-0.006": 7.82408482118,
			"-0.005": 13.398406293,
			"-0.004": 20.8262134997,
			"-0.003": 22.7309189344,
			"-0.002": 22.8999589012,
			"-0.001": 21.2008343457,
			"0.0": 20.1807508583,
			"0.001": 22.9725700262,
			"0.002": 16.1771545768,
			"0.003": 15.5335407463,
			"0.004": 15.7495215692,
			"0.005": 3.95249841546,
			"0.006": 1.92219943665,
			"0.007": 1.34775453656,
			"0.008": 1.85175272749,
			"0.009": 1.03500037934,
			"0.01": 2.29028573657,
			"0.011": 2.430779651,
			"0.012": 4.59650605883,
			"0.013": 0.608582042253,
			"0.014": 0.0,
			"0.015": 0.0,
			"0.016": 0.0,
			"0.017": 0.0,
			"0.018": 0.0,
			"0.019": 0.0,
			"0.02": 0.0,
			"0.021": 0.0,
			"0.022": 0.0,
			"0.023": 0.0,
			"0.024": 0.0,
			"0.025": 0.0
		}
	}
}
