{
	 "smiles": "OCC1=C(O)C=CC(Br)=C1", 
	 "Tm": 384.15, 
	 "num_atms": 17, 
	 "gaussian": { 
		 "optdone": 1, 
		 "sigma_profile": "yes", 
		 "theory": "DFT", 
		 "functional": "B3LYP", 
		 "basiset": "6-31G**", 
		 "properties": { 
			 "R2extent": 3170.1554, 
			 "electric_dipole_moment_norm": 1.98673834714, 
			 "electric_quadrupole_moment_norm": 9.26757486455, 
			 "total_energy": -2992.80867741, 
			 "HOMO_LUMO_gap": 0.19853, 
			 "cosmo_polarized_energy": -9.78, 
			 "cosmo_cavitation_energy": 22.98, 
			 "cosmo_dispersion_energy": -17.74, 
			 "cosmo_repulsion_energy": 1.44, 
			 "cosmo_total_nonelectrostatic_energy": 6.68, 
			 "SMD_solvation_energy": 3.1 
		},
		"coords": [
			{
				"x": -2.0675926987,
				"y": 1.692308883,
				"z": 1.2827411427,
				"element": "O" 
			},
			{
				"x": -1.3224855,
				"y": 1.53287986,
				"z": 0.0599396093,
				"element": "C" 
			},
			{
				"x": -0.5637361093,
				"y": 0.2274475743,
				"z": 0.0023632963,
				"element": "C" 
			},
			{
				"x": 0.1525584822,
				"y": -0.2187036378,
				"z": 1.1336498092,
				"element": "C" 
			},
			{
				"x": 0.1286912017,
				"y": 0.4560610179,
				"z": 2.3117017461,
				"element": "O" 
			},
			{
				"x": 0.9230277579,
				"y": -1.3846264789,
				"z": 1.0544749287,
				"element": "C" 
			},
			{
				"x": 0.9823679856,
				"y": -2.1134603437,
				"z": -0.1301680378,
				"element": "C" 
			},
			{
				"x": 0.2582780302,
				"y": -1.6798076083,
				"z": -1.2404549171,
				"element": "C" 
			},
			{
				"x": 0.3174800181,
				"y": -2.6875123716,
				"z": -2.8659598352,
				"element": "Br" 
			},
			{
				"x": -0.5112935257,
				"y": -0.521700616,
				"z": -1.1769440003,
				"element": "C" 
			},
			{
				"x": -2.7266049832,
				"y": 0.984209198,
				"z": 1.3188827428,
				"element": "H" 
			},
			{
				"x": -0.6317544553,
				"y": 2.3836926911,
				"z": 0.0536515695,
				"element": "H" 
			},
			{
				"x": -1.9804251507,
				"y": 1.6370782709,
				"z": -0.8119208098,
				"element": "H" 
			},
			{
				"x": -0.6223717343,
				"y": 1.0815643226,
				"z": 2.2797286484,
				"element": "H" 
			},
			{
				"x": 1.4677285804,
				"y": -1.7072361184,
				"z": 1.9355830102,
				"element": "H" 
			},
			{
				"x": 1.5786171591,
				"y": -3.0171138648,
				"z": -0.1870260635,
				"element": "H" 
			},
			{
				"x": -1.066085058,
				"y": -0.1913807783,
				"z": -2.0496428394,
				"element": "H" 
			}
		],
		 "valence_orbital": [ 
			{
				"type": "occ",
				"energy": -0.30543,
				"method": "rhf"
			},
			{
				"type": "occ",
				"energy": -0.29069,
				"method": "rhf"
			},
			{
				"type": "occ",
				"energy": -0.2844,
				"method": "rhf"
			},
			{
				"type": "occ",
				"energy": -0.26245,
				"method": "rhf"
			},
			{
				"type": "occ",
				"energy": -0.21889,
				"method": "rhf"
			},
			{
				"type": "unocc",
				"energy": -0.02036,
				"method": "rhf"
			},
			{
				"type": "unocc",
				"energy": -0.00252,
				"method": "rhf"
			},
			{
				"type": "unocc",
				"energy": 0.00963,
				"method": "rhf"
			},
			{
				"type": "unocc",
				"energy": 0.05765,
				"method": "rhf"
			},
			{
				"type": "unocc",
				"energy": 0.11014,
				"method": "rhf"
			}
		],
		"cosmo_sigma_profile": { 
			"-0.025": 0.0,
			"-0.024": 0.0,
			"-0.023": 0.0,
			"-0.022": 0.0,
			"-0.021": 0.0,
			"-0.02": 0.0,
			"-0.019": 0.0,
			"-0.018": 0.0,
			"-0.017": 0.51589287581,
			"-0.016": 1.17401933369,
			"-0.015": 0.86633241432,
			"-0.014": 1.54849792655,
			"-0.013": 0.3590185579,
			"-0.012": 0.715741153328,
			"-0.011": 0.978116096663,
			"-0.01": 1.37828842965,
			"-0.009": 1.14552978124,
			"-0.008": 1.87389984688,
			"-0.007": 6.72697474844,
			"-0.006": 13.1983965487,
			"-0.005": 11.2049910757,
			"-0.004": 10.8857645012,
			"-0.003": 10.4082687187,
			"-0.002": 9.39821317959,
			"-0.001": 8.92913405138,
			"0.0": 9.07228471307,
			"0.001": 10.2376583517,
			"0.002": 14.2892132111,
			"0.003": 20.5791801534,
			"0.004": 19.2329174818,
			"0.005": 13.8448501145,
			"0.006": 2.98103737345,
			"0.007": 2.41282304475,
			"0.008": 2.45961092174,
			"0.009": 1.55527273179,
			"0.01": 2.63612697423,
			"0.011": 2.80443370179,
			"0.012": 2.25381163297,
			"0.013": 0.490185937986,
			"0.014": 0.0,
			"0.015": 0.0,
			"0.016": 0.0,
			"0.017": 0.0,
			"0.018": 0.0,
			"0.019": 0.0,
			"0.02": 0.0,
			"0.021": 0.0,
			"0.022": 0.0,
			"0.023": 0.0,
			"0.024": 0.0,
			"0.025": 0.0
		}
	}
}
