{
	 "smiles": "[N-]=[N+]=NCCN1C(=O)C(=O)C2=C1C=CC=C2", 
	 "Tm": 345.15, 
	 "num_atms": 24, 
	 "gaussian": { 
		 "optdone": 1, 
		 "sigma_profile": "yes", 
		 "theory": "DFT", 
		 "functional": "B3LYP", 
		 "basiset": "6-31G**", 
		 "properties": { 
			 "R2extent": 4469.3709, 
			 "electric_dipole_moment_norm": 5.02120357982, 
			 "electric_quadrupole_moment_norm": 17.1168418226, 
			 "total_energy": -755.26654668, 
			 "HOMO_LUMO_gap": 0.13734, 
			 "cosmo_polarized_energy": -16.95, 
			 "cosmo_cavitation_energy": 30.97, 
			 "cosmo_dispersion_energy": -21.07, 
			 "cosmo_repulsion_energy": 1.64, 
			 "cosmo_total_nonelectrostatic_energy": 11.54, 
			 "SMD_solvation_energy": 2.94 
		},
		"coords": [
			{
				"x": -1.1222146253,
				"y": -4.7724299609,
				"z": -1.5749311984,
				"element": "N" 
			},
			{
				"x": -0.1915064311,
				"y": -4.1096734433,
				"z": -1.5971832812,
				"element": "N" 
			},
			{
				"x": 0.8819364371,
				"y": -3.5044809391,
				"z": -1.7016361099,
				"element": "N" 
			},
			{
				"x": 0.9054865398,
				"y": -2.1328258068,
				"z": -1.1567691443,
				"element": "C" 
			},
			{
				"x": 1.1932688937,
				"y": -2.1401154318,
				"z": 0.3571136068,
				"element": "C" 
			},
			{
				"x": 1.2413805643,
				"y": -0.7990511383,
				"z": 0.9104913838,
				"element": "N" 
			},
			{
				"x": 2.4322513693,
				"y": -0.1039525533,
				"z": 1.1002925478,
				"element": "C" 
			},
			{
				"x": 3.5451772067,
				"y": -0.5087112597,
				"z": 0.8441124085,
				"element": "O" 
			},
			{
				"x": 2.0233828606,
				"y": 1.2811474117,
				"z": 1.7039648791,
				"element": "C" 
			},
			{
				"x": 2.804430335,
				"y": 2.157015451,
				"z": 2.0047413192,
				"element": "O" 
			},
			{
				"x": 0.5567431825,
				"y": 1.2319558418,
				"z": 1.7968287222,
				"element": "C" 
			},
			{
				"x": 0.1354321848,
				"y": -0.0233673571,
				"z": 1.311487807,
				"element": "C" 
			},
			{
				"x": -1.2136769489,
				"y": -0.3583499042,
				"z": 1.2827741451,
				"element": "C" 
			},
			{
				"x": -2.1298185482,
				"y": 0.5941700054,
				"z": 1.7530469032,
				"element": "C" 
			},
			{
				"x": -1.7209586908,
				"y": 1.8423357118,
				"z": 2.235726929,
				"element": "C" 
			},
			{
				"x": -0.3621727122,
				"y": 2.1683059617,
				"z": 2.2594553901,
				"element": "C" 
			},
			{
				"x": 1.7149716968,
				"y": -1.6147728377,
				"z": -1.6743143947,
				"element": "H" 
			},
			{
				"x": -0.0309769069,
				"y": -1.6028085587,
				"z": -1.3712608455,
				"element": "H" 
			},
			{
				"x": 0.4348673783,
				"y": -2.7237773465,
				"z": 0.890413912,
				"element": "H" 
			},
			{
				"x": 2.1679070739,
				"y": -2.5990890075,
				"z": 0.5376320445,
				"element": "H" 
			},
			{
				"x": -1.5592554765,
				"y": -1.318176599,
				"z": 0.9140521281,
				"element": "H" 
			},
			{
				"x": -3.188119632,
				"y": 0.3499657477,
				"z": 1.7389324239,
				"element": "H" 
			},
			{
				"x": -2.4603324141,
				"y": 2.5528868776,
				"z": 2.5899902962,
				"element": "H" 
			},
			{
				"x": -0.0125033367,
				"y": 3.1274991351,
				"z": 2.6290381275,
				"element": "H" 
			}
		],
		 "valence_orbital": [ 
			{
				"type": "occ",
				"energy": -0.31389,
				"method": "rhf"
			},
			{
				"type": "occ",
				"energy": -0.28434,
				"method": "rhf"
			},
			{
				"type": "occ",
				"energy": -0.27262,
				"method": "rhf"
			},
			{
				"type": "occ",
				"energy": -0.25293,
				"method": "rhf"
			},
			{
				"type": "occ",
				"energy": -0.24091,
				"method": "rhf"
			},
			{
				"type": "unocc",
				"energy": -0.10357,
				"method": "rhf"
			},
			{
				"type": "unocc",
				"energy": -0.04161,
				"method": "rhf"
			},
			{
				"type": "unocc",
				"energy": -0.02901,
				"method": "rhf"
			},
			{
				"type": "unocc",
				"energy": -0.0051,
				"method": "rhf"
			},
			{
				"type": "unocc",
				"energy": 0.00376,
				"method": "rhf"
			}
		],
		"cosmo_sigma_profile": { 
			"-0.025": 0.0,
			"-0.024": 0.0,
			"-0.023": 0.0,
			"-0.022": 0.0,
			"-0.021": 0.0,
			"-0.02": 0.0,
			"-0.019": 0.0,
			"-0.018": 0.0,
			"-0.017": 0.0,
			"-0.016": 0.0,
			"-0.015": 0.0,
			"-0.014": 0.0,
			"-0.013": 0.0,
			"-0.012": 0.0,
			"-0.011": 0.0219355474177,
			"-0.01": 1.46818963075,
			"-0.009": 3.01536280659,
			"-0.008": 6.70291350991,
			"-0.007": 13.7028713355,
			"-0.006": 19.1015208862,
			"-0.005": 19.7034025712,
			"-0.004": 19.2302160746,
			"-0.003": 18.8821408443,
			"-0.002": 14.0202811323,
			"-0.001": 13.4807187335,
			"0.0": 14.0687343573,
			"0.001": 14.2182634515,
			"0.002": 15.8544475212,
			"0.003": 14.4301740832,
			"0.004": 6.1665543821,
			"0.005": 6.47314490555,
			"0.006": 6.89297150122,
			"0.007": 9.26304708041,
			"0.008": 5.39494140915,
			"0.009": 6.52667990554,
			"0.01": 9.28848439549,
			"0.011": 8.72785681432,
			"0.012": 2.63931211233,
			"0.013": 0.209539709449,
			"0.014": 0.0,
			"0.015": 0.0,
			"0.016": 0.0,
			"0.017": 0.0,
			"0.018": 0.0,
			"0.019": 0.0,
			"0.02": 0.0,
			"0.021": 0.0,
			"0.022": 0.0,
			"0.023": 0.0,
			"0.024": 0.0,
			"0.025": 0.0
		}
	}
}
