{
	 "smiles": "O=CC1=CN(N=C1C1=CC2=C(OC1=O)C=CC=C2)C1=CC=CC=C1", 
	 "Tm": 497.15, 
	 "num_atms": 36, 
	 "gaussian": { 
		 "optdone": 1, 
		 "sigma_profile": "yes", 
		 "theory": "DFT", 
		 "functional": "B3LYP", 
		 "basiset": "6-31G**", 
		 "properties": { 
			 "R2extent": 10977.9159, 
			 "electric_dipole_moment_norm": 5.83711303386, 
			 "electric_quadrupole_moment_norm": 26.4384340421, 
			 "total_energy": -1066.40629072, 
			 "HOMO_LUMO_gap": 0.15841, 
			 "cosmo_polarized_energy": -21.49, 
			 "cosmo_cavitation_energy": 42.14, 
			 "cosmo_dispersion_energy": -30.12, 
			 "cosmo_repulsion_energy": 2.24, 
			 "cosmo_total_nonelectrostatic_energy": 14.26, 
			 "SMD_solvation_energy": 8.22 
		},
		"coords": [
			{
				"x": 2.8838271895,
				"y": 2.3320821162,
				"z": 1.492322431,
				"element": "O" 
			},
			{
				"x": 2.8927900884,
				"y": 1.4035940859,
				"z": 0.7051394987,
				"element": "C" 
			},
			{
				"x": 1.7056833748,
				"y": 0.673075192,
				"z": 0.2648922477,
				"element": "C" 
			},
			{
				"x": 1.7003282866,
				"y": -0.5251610703,
				"z": -0.4306036927,
				"element": "C" 
			},
			{
				"x": 0.4079271278,
				"y": -0.9275738792,
				"z": -0.5303660685,
				"element": "N" 
			},
			{
				"x": -0.4463002447,
				"y": -0.0374223251,
				"z": 0.0513525165,
				"element": "N" 
			},
			{
				"x": 0.3242191202,
				"y": 0.932217778,
				"z": 0.534280808,
				"element": "C" 
			},
			{
				"x": -0.2783236496,
				"y": 2.0653642747,
				"z": 1.2538818528,
				"element": "C" 
			},
			{
				"x": -1.1944437424,
				"y": 1.8826287878,
				"z": 2.239735141,
				"element": "C" 
			},
			{
				"x": -1.7793871864,
				"y": 2.9981831064,
				"z": 2.9332108602,
				"element": "C" 
			},
			{
				"x": -1.3637869035,
				"y": 4.2886186451,
				"z": 2.5541552409,
				"element": "C" 
			},
			{
				"x": -0.4697856376,
				"y": 4.4724417091,
				"z": 1.541381293,
				"element": "O" 
			},
			{
				"x": 0.0790936921,
				"y": 3.4238127552,
				"z": 0.8084674209,
				"element": "C" 
			},
			{
				"x": 0.7694932017,
				"y": 3.7019896306,
				"z": -0.1408298416,
				"element": "O" 
			},
			{
				"x": -1.8573416453,
				"y": 5.4272236128,
				"z": 3.1940312759,
				"element": "C" 
			},
			{
				"x": -2.7813782838,
				"y": 5.2752411734,
				"z": 4.2227665176,
				"element": "C" 
			},
			{
				"x": -3.2145038772,
				"y": 3.9992649833,
				"z": 4.6164960834,
				"element": "C" 
			},
			{
				"x": -2.7156763379,
				"y": 2.8729659831,
				"z": 3.9775973852,
				"element": "C" 
			},
			{
				"x": -0.1055764923,
				"y": -2.0904180372,
				"z": -1.169525191,
				"element": "C" 
			},
			{
				"x": -1.4315798813,
				"y": -2.0973373819,
				"z": -1.6143920107,
				"element": "C" 
			},
			{
				"x": -1.9326089309,
				"y": -3.2322988719,
				"z": -2.2484826096,
				"element": "C" 
			},
			{
				"x": -1.122364923,
				"y": -4.3523208038,
				"z": -2.4480190771,
				"element": "C" 
			},
			{
				"x": 0.198031353,
				"y": -4.3366264566,
				"z": -1.9961291809,
				"element": "C" 
			},
			{
				"x": 0.7098460331,
				"y": -3.2128179501,
				"z": -1.3486036327,
				"element": "C" 
			},
			{
				"x": 3.8492536959,
				"y": 1.0232120017,
				"z": 0.2822833749,
				"element": "H" 
			},
			{
				"x": 2.5142669869,
				"y": -1.0913730068,
				"z": -0.8576199863,
				"element": "H" 
			},
			{
				"x": -1.4796397525,
				"y": 0.8738921371,
				"z": 2.5256740825,
				"element": "H" 
			},
			{
				"x": -1.5101058879,
				"y": 6.403196278,
				"z": 2.8732190429,
				"element": "H" 
			},
			{
				"x": -3.1701653978,
				"y": 6.1563903032,
				"z": 4.7242423863,
				"element": "H" 
			},
			{
				"x": -3.9361961271,
				"y": 3.8948235949,
				"z": 5.4202831917,
				"element": "H" 
			},
			{
				"x": -3.0390547497,
				"y": 1.8792271984,
				"z": 4.2752580009,
				"element": "H" 
			},
			{
				"x": -2.044890888,
				"y": -1.2188799943,
				"z": -1.4567146718,
				"element": "H" 
			},
			{
				"x": -2.9617726061,
				"y": -3.236080691,
				"z": -2.5947448527,
				"element": "H" 
			},
			{
				"x": -1.5178540178,
				"y": -5.231679093,
				"z": -2.9467953712,
				"element": "H" 
			},
			{
				"x": 0.8332115598,
				"y": -5.2064428019,
				"z": -2.1335742955,
				"element": "H" 
			},
			{
				"x": 1.7258654531,
				"y": -3.2226129837,
				"z": -0.9684701697,
				"element": "H" 
			}
		],
		 "valence_orbital": [ 
			{
				"type": "occ",
				"energy": -0.26767,
				"method": "rhf"
			},
			{
				"type": "occ",
				"energy": -0.2553,
				"method": "rhf"
			},
			{
				"type": "occ",
				"energy": -0.24695,
				"method": "rhf"
			},
			{
				"type": "occ",
				"energy": -0.24227,
				"method": "rhf"
			},
			{
				"type": "occ",
				"energy": -0.22605,
				"method": "rhf"
			},
			{
				"type": "unocc",
				"energy": -0.06764,
				"method": "rhf"
			},
			{
				"type": "unocc",
				"energy": -0.05045,
				"method": "rhf"
			},
			{
				"type": "unocc",
				"energy": -0.02399,
				"method": "rhf"
			},
			{
				"type": "unocc",
				"energy": -0.01899,
				"method": "rhf"
			},
			{
				"type": "unocc",
				"energy": -0.00834,
				"method": "rhf"
			}
		],
		"cosmo_sigma_profile": { 
			"-0.025": 0.0,
			"-0.024": 0.0,
			"-0.023": 0.0,
			"-0.022": 0.0,
			"-0.021": 0.0,
			"-0.02": 0.0,
			"-0.019": 0.0,
			"-0.018": 0.0,
			"-0.017": 0.0,
			"-0.016": 0.0,
			"-0.015": 0.0,
			"-0.014": 0.0,
			"-0.013": 0.0,
			"-0.012": 0.0557505376268,
			"-0.011": 2.24089882145,
			"-0.01": 2.74609962578,
			"-0.009": 4.24320598667,
			"-0.008": 6.66200621794,
			"-0.007": 14.065552689,
			"-0.006": 22.4780683094,
			"-0.005": 25.132804241,
			"-0.004": 22.7868067838,
			"-0.003": 18.7742796546,
			"-0.002": 22.2589581236,
			"-0.001": 22.5331674372,
			"0.0": 27.2758437753,
			"0.001": 24.9374038078,
			"0.002": 23.8736197797,
			"0.003": 24.5182795093,
			"0.004": 20.2541995783,
			"0.005": 8.62636245521,
			"0.006": 5.19982115123,
			"0.007": 5.02852287378,
			"0.008": 6.3022537109,
			"0.009": 5.80023545131,
			"0.01": 7.17306253275,
			"0.011": 8.52935320865,
			"0.012": 6.70004175682,
			"0.013": 2.35494820196,
			"0.014": 0.0983107308675,
			"0.015": 0.0,
			"0.016": 0.0,
			"0.017": 0.0,
			"0.018": 0.0,
			"0.019": 0.0,
			"0.02": 0.0,
			"0.021": 0.0,
			"0.022": 0.0,
			"0.023": 0.0,
			"0.024": 0.0,
			"0.0": 0.0
		}
	}
}
