{
	 "smiles": "C1CNCCNCCCNCCNC1", 
	 "Tm": 459.15, 
	 "num_atms": 38, 
	 "gaussian": { 
		 "optdone": 1, 
		 "sigma_profile": "yes", 
		 "theory": "DFT", 
		 "functional": "B3LYP", 
		 "basiset": "6-31G**", 
		 "properties": { 
			 "R2extent": 3441.8327, 
			 "electric_dipole_moment_norm": 2.37252929381, 
			 "electric_quadrupole_moment_norm": 2.83712851313, 
			 "total_energy": -614.503406527, 
			 "HOMO_LUMO_gap": 0.26969, 
			 "cosmo_polarized_energy": -10.45, 
			 "cosmo_cavitation_energy": 34.81, 
			 "cosmo_dispersion_energy": -24.74, 
			 "cosmo_repulsion_energy": 1.94, 
			 "cosmo_total_nonelectrostatic_energy": 12.01, 
			 "SMD_solvation_energy": -0.25 
		},
		"coords": [
			{
				"x": 0.5735106144,
				"y": 0.6859097185,
				"z": 2.9328593286,
				"element": "C" 
			},
			{
				"x": -0.5025932713,
				"y": 0.8874007925,
				"z": 1.8637773163,
				"element": "C" 
			},
			{
				"x": -1.8127635149,
				"y": 0.3578475181,
				"z": 2.2324663002,
				"element": "N" 
			},
			{
				"x": -2.7991371085,
				"y": 0.3850388183,
				"z": 1.1427198334,
				"element": "C" 
			},
			{
				"x": -2.534529025,
				"y": -0.6665282379,
				"z": 0.0501300397,
				"element": "C" 
			},
			{
				"x": -1.6726976333,
				"y": -0.1838769771,
				"z": -1.031092739,
				"element": "N" 
			},
			{
				"x": -1.241106122,
				"y": -1.2463535338,
				"z": -1.9335442741,
				"element": "C" 
			},
			{
				"x": -0.1548582995,
				"y": -0.7754604428,
				"z": -2.9106097222,
				"element": "C" 
			},
			{
				"x": 1.2223897485,
				"y": -0.5059732085,
				"z": -2.2829167197,
				"element": "C" 
			},
			{
				"x": 1.2087511803,
				"y": 0.6640600496,
				"z": -1.4012706033,
				"element": "N" 
			},
			{
				"x": 2.5074001504,
				"y": 1.0593471225,
				"z": -0.8567681476,
				"element": "C" 
			},
			{
				"x": 3.0927323337,
				"y": 0.0968360106,
				"z": 0.1947998816,
				"element": "C" 
			},
			{
				"x": 2.1881125587,
				"y": -0.2051686051,
				"z": 1.294614857,
				"element": "N" 
			},
			{
				"x": 1.9702224257,
				"y": 0.8329850212,
				"z": 2.3033162748,
				"element": "C" 
			},
			{
				"x": 0.4643575709,
				"y": 1.395422693,
				"z": 3.7643660412,
				"element": "H" 
			},
			{
				"x": 0.4635729164,
				"y": -0.3213568055,
				"z": 3.3541565106,
				"element": "H" 
			},
			{
				"x": -0.1448285382,
				"y": 0.3352452525,
				"z": 0.9954148064,
				"element": "H" 
			},
			{
				"x": -0.5365528678,
				"y": 1.9564383697,
				"z": 1.5695951121,
				"element": "H" 
			},
			{
				"x": -2.1844193584,
				"y": 0.8907992166,
				"z": 3.0157496144,
				"element": "H" 
			},
			{
				"x": -3.7730654376,
				"y": 0.1689092404,
				"z": 1.5961613476,
				"element": "H" 
			},
			{
				"x": -2.8836304702,
				"y": 1.3737405045,
				"z": 0.6533080638,
				"element": "H" 
			},
			{
				"x": -3.4955670603,
				"y": -0.9561348752,
				"z": -0.3987586865,
				"element": "H" 
			},
			{
				"x": -2.1362363422,
				"y": -1.5701295826,
				"z": 0.5490013665,
				"element": "H" 
			},
			{
				"x": -0.8322497235,
				"y": 0.2467913637,
				"z": -0.6545406521,
				"element": "H" 
			},
			{
				"x": -2.1119708575,
				"y": -1.5936537676,
				"z": -2.508647392,
				"element": "H" 
			},
			{
				"x": -0.8611011613,
				"y": -2.136502788,
				"z": -1.3907001687,
				"element": "H" 
			},
			{
				"x": -0.0232718809,
				"y": -1.546151422,
				"z": -3.6799232998,
				"element": "H" 
			},
			{
				"x": -0.5064705682,
				"y": 0.1265389082,
				"z": -3.4306629805,
				"element": "H" 
			},
			{
				"x": 1.9748910032,
				"y": -0.4064579942,
				"z": -3.0898700844,
				"element": "H" 
			},
			{
				"x": 1.517177366,
				"y": -1.3800441958,
				"z": -1.6888786415,
				"element": "H" 
			},
			{
				"x": 0.8233262811,
				"y": 1.4515015006,
				"z": -1.9171943311,
				"element": "H" 
			},
			{
				"x": 2.3783697905,
				"y": 2.0505040078,
				"z": -0.4067781448,
				"element": "H" 
			},
			{
				"x": 3.2810939406,
				"y": 1.1728472438,
				"z": -1.6416305439,
				"element": "H" 
			},
			{
				"x": 3.3398913189,
				"y": -0.8539083608,
				"z": -0.2913150585,
				"element": "H" 
			},
			{
				"x": 4.0586075651,
				"y": 0.5341634242,
				"z": 0.5160895946,
				"element": "H" 
			},
			{
				"x": 2.4560480373,
				"y": -1.0749652546,
				"z": 1.74169813,
				"element": "H" 
			},
			{
				"x": 2.033312949,
				"y": 1.8098584479,
				"z": 1.8089578156,
				"element": "H" 
			},
			{
				"x": 2.74688149,
				"y": 0.837480827,
				"z": 3.0878199554,
				"element": "H" 
			}
		],
		 "valence_orbital": [ 
			{
				"type": "occ",
				"energy": -0.30877,
				"method": "rhf"
			},
			{
				"type": "occ",
				"energy": -0.22337,
				"method": "rhf"
			},
			{
				"type": "occ",
				"energy": -0.21164,
				"method": "rhf"
			},
			{
				"type": "occ",
				"energy": -0.20687,
				"method": "rhf"
			},
			{
				"type": "occ",
				"energy": -0.19372,
				"method": "rhf"
			},
			{
				"type": "unocc",
				"energy": 0.07597,
				"method": "rhf"
			},
			{
				"type": "unocc",
				"energy": 0.08918,
				"method": "rhf"
			},
			{
				"type": "unocc",
				"energy": 0.09779,
				"method": "rhf"
			},
			{
				"type": "unocc",
				"energy": 0.10287,
				"method": "rhf"
			},
			{
				"type": "unocc",
				"energy": 0.11725,
				"method": "rhf"
			}
		],
		"cosmo_sigma_profile": { 
			"-0.025": 0.0,
			"-0.024": 0.0,
			"-0.023": 0.0,
			"-0.022": 0.0,
			"-0.021": 0.0,
			"-0.02": 0.0,
			"-0.019": 0.0,
			"-0.018": 0.0,
			"-0.017": 0.0,
			"-0.016": 0.0,
			"-0.015": 0.0,
			"-0.014": 0.0,
			"-0.013": 0.0,
			"-0.012": 0.0,
			"-0.011": 0.0,
			"-0.01": 0.557178129362,
			"-0.009": 3.67113230728,
			"-0.008": 3.80676953519,
			"-0.007": 3.34680830166,
			"-0.006": 3.84780089895,
			"-0.005": 5.62771775443,
			"-0.004": 10.2053016522,
			"-0.003": 20.3859113498,
			"-0.002": 35.0785670584,
			"-0.001": 56.1266037244,
			"0.0": 51.00645568,
			"0.001": 24.2293087936,
			"0.002": 7.75815700866,
			"0.003": 5.49573519961,
			"0.004": 5.50174013146,
			"0.005": 3.4876903745,
			"0.006": 2.84793971598,
			"0.007": 3.45566463372,
			"0.008": 2.35152229435,
			"0.009": 2.78976818006,
			"0.01": 2.49623758529,
			"0.011": 2.12429318451,
			"0.012": 2.04033743321,
			"0.013": 1.28617996679,
			"0.014": 1.50152947969,
			"0.015": 1.39583822271,
			"0.016": 1.21995665894,
			"0.017": 1.00671808639,
			"0.018": 0.562902111276,
			"0.019": 0.45005546241,
			"0.02": 0.095387627119,
			"0.021": 0.0,
			"0.022": 0.0,
			"0.023": 0.0,
			"0.024": 0.0,
			"0.025": 0.0
		}
	}
}
