{
	 "smiles": "OC1=CC(O)=NC=C1", 
	 "Tm": 551.15, 
	 "num_atms": 13, 
	 "gaussian": { 
		 "optdone": 1, 
		 "sigma_profile": "yes", 
		 "theory": "DFT", 
		 "functional": "B3LYP", 
		 "basiset": "6-31G**", 
		 "properties": { 
			 "R2extent": 993.4937, 
			 "electric_dipole_moment_norm": 2.41051331878, 
			 "electric_quadrupole_moment_norm": 8.7956431476, 
			 "total_energy": -398.743318302, 
			 "HOMO_LUMO_gap": 0.22539, 
			 "cosmo_polarized_energy": -11.61, 
			 "cosmo_cavitation_energy": 17.39, 
			 "cosmo_dispersion_energy": -13.38, 
			 "cosmo_repulsion_energy": 1.12, 
			 "cosmo_total_nonelectrostatic_energy": 5.12, 
			 "SMD_solvation_energy": 2.66 
		},
		"coords": [
			{
				"x": 0.9870611549,
				"y": -2.1661561801,
				"z": -1.2026084325,
				"element": "O" 
			},
			{
				"x": 0.3961036697,
				"y": -0.9464196369,
				"z": -1.1235673232,
				"element": "C" 
			},
			{
				"x": -0.2295609611,
				"y": -0.6051095404,
				"z": 0.0728929315,
				"element": "C" 
			},
			{
				"x": -0.8340886136,
				"y": 0.6528230838,
				"z": 0.141804731,
				"element": "C" 
			},
			{
				"x": -1.4484086847,
				"y": 1.0086877561,
				"z": 1.2924485782,
				"element": "O" 
			},
			{
				"x": -0.8530657887,
				"y": 1.5432805528,
				"z": -0.8527824905,
				"element": "N" 
			},
			{
				"x": -0.2435354299,
				"y": 1.1880560631,
				"z": -1.9917759176,
				"element": "C" 
			},
			{
				"x": 0.3933345261,
				"y": -0.0306524595,
				"z": -2.1891265454,
				"element": "C" 
			},
			{
				"x": 1.3802741538,
				"y": -2.2748663115,
				"z": -2.0785936013,
				"element": "H" 
			},
			{
				"x": -0.2460227073,
				"y": -1.2870448257,
				"z": 0.9135920696,
				"element": "H" 
			},
			{
				"x": -1.7971229105,
				"y": 1.9008371844,
				"z": 1.137184904,
				"element": "H" 
			},
			{
				"x": -0.2667816806,
				"y": 1.9233957754,
				"z": -2.7937606727,
				"element": "H" 
			},
			{
				"x": 0.8712132717,
				"y": -0.2626314614,
				"z": -3.1366082312,
				"element": "H" 
			}
		],
		 "valence_orbital": [ 
			{
				"type": "occ",
				"energy": -0.36146,
				"method": "rhf"
			},
			{
				"type": "occ",
				"energy": -0.33593,
				"method": "rhf"
			},
			{
				"type": "occ",
				"energy": -0.27018,
				"method": "rhf"
			},
			{
				"type": "occ",
				"energy": -0.25199,
				"method": "rhf"
			},
			{
				"type": "occ",
				"energy": -0.23535,
				"method": "rhf"
			},
			{
				"type": "unocc",
				"energy": -0.00996,
				"method": "rhf"
			},
			{
				"type": "unocc",
				"energy": 0.00875,
				"method": "rhf"
			},
			{
				"type": "unocc",
				"energy": 0.06026,
				"method": "rhf"
			},
			{
				"type": "unocc",
				"energy": 0.09796,
				"method": "rhf"
			},
			{
				"type": "unocc",
				"energy": 0.10495,
				"method": "rhf"
			}
		],
		"cosmo_sigma_profile": { 
			"-0.025": 0.0,
			"-0.024": 0.0,
			"-0.023": 0.0,
			"-0.022": 0.0,
			"-0.021": 0.0,
			"-0.02": 0.0,
			"-0.019": 0.221684547843,
			"-0.018": 1.05621440724,
			"-0.017": 1.40777944565,
			"-0.016": 1.51998805339,
			"-0.015": 2.28399586266,
			"-0.014": 1.91550300687,
			"-0.013": 0.694507900974,
			"-0.012": 1.62959003933,
			"-0.011": 1.6523562401,
			"-0.01": 2.15188838479,
			"-0.009": 2.14400368102,
			"-0.008": 1.35121019608,
			"-0.007": 4.27872011302,
			"-0.006": 6.33815338448,
			"-0.005": 7.2028831598,
			"-0.004": 4.86725049762,
			"-0.003": 4.14962860571,
			"-0.002": 5.23356878055,
			"-0.001": 4.24205259338,
			"0.0": 5.57117488011,
			"0.001": 9.6177156225,
			"0.002": 15.3766165814,
			"0.003": 15.2004903827,
			"0.004": 6.96619771236,
			"0.005": 5.07596508563,
			"0.006": 4.07487209265,
			"0.007": 3.03894722519,
			"0.008": 4.95238173891,
			"0.009": 4.02656000677,
			"0.01": 4.57878619149,
			"0.011": 3.30946771583,
			"0.012": 0.645455078104,
			"0.013": 0.954656759667,
			"0.014": 0.88119093006,
			"0.015": 0.142490884115,
			"0.016": 0.0,
			"0.017": 0.0,
			"0.018": 0.0,
			"0.019": 0.0,
			"0.02": 0.0,
			"0.021": 0.0,
			"0.022": 0.0,
			"0.023": 0.0,
			"0.024": 0.0,
			"0.025": 0.0
		}
	}
}
