{
	 "smiles": "FC1=CC=CC(F)=C1S(=O)(=O)NCCOC1=C(Cl)C=C(C=N1)C(F)(F)F", 
	 "Tm": 384.15, 
	 "num_atms": 36, 
	 "gaussian": { 
		 "optdone": 1, 
		 "sigma_profile": "yes", 
		 "theory": "DFT", 
		 "functional": "B3LYP", 
		 "basiset": "6-31G**", 
		 "properties": { 
			 "R2extent": 17227.187, 
			 "electric_dipole_moment_norm": 4.62900810758, 
			 "electric_quadrupole_moment_norm": 24.6714542642, 
			 "total_energy": -2232.17518269, 
			 "HOMO_LUMO_gap": 0.20135, 
			 "cosmo_polarized_energy": -17.1, 
			 "cosmo_cavitation_energy": 47.38, 
			 "cosmo_dispersion_energy": -32.62, 
			 "cosmo_repulsion_energy": 2.34, 
			 "cosmo_total_nonelectrostatic_energy": 17.09, 
			 "SMD_solvation_energy": 8.26 
		},
		"coords": [
			{
				"x": -0.1166036563,
				"y": -2.5505655408,
				"z": -3.9769095398,
				"element": "F" 
			},
			{
				"x": 1.1199905468,
				"y": -2.4764938327,
				"z": -3.4762560533,
				"element": "C" 
			},
			{
				"x": 2.0581131606,
				"y": -3.4011795992,
				"z": -3.9295186384,
				"element": "C" 
			},
			{
				"x": 3.3601087298,
				"y": -3.3496385948,
				"z": -3.4393439503,
				"element": "C" 
			},
			{
				"x": 3.7315880907,
				"y": -2.382909832,
				"z": -2.5035692883,
				"element": "C" 
			},
			{
				"x": 2.7759392291,
				"y": -1.4746526773,
				"z": -2.0743067803,
				"element": "C" 
			},
			{
				"x": 3.1342483667,
				"y": -0.5420643406,
				"z": -1.1779039005,
				"element": "F" 
			},
			{
				"x": 1.4506573468,
				"y": -1.4965017549,
				"z": -2.5310015784,
				"element": "C" 
			},
			{
				"x": 0.2984045134,
				"y": -0.2390305594,
				"z": -1.946187319,
				"element": "S" 
			},
			{
				"x": 0.8720293054,
				"y": 1.0613892105,
				"z": -2.2882730424,
				"element": "O" 
			},
			{
				"x": -1.0478521851,
				"y": -0.6258547502,
				"z": -2.3670412634,
				"element": "O" 
			},
			{
				"x": 0.4002234703,
				"y": -0.4132496373,
				"z": -0.2758865969,
				"element": "N" 
			},
			{
				"x": -0.7648557648,
				"y": -0.9079335492,
				"z": 0.4667384906,
				"element": "C" 
			},
			{
				"x": -1.8048818714,
				"y": 0.1634102773,
				"z": 0.7823279855,
				"element": "C" 
			},
			{
				"x": -1.2130170556,
				"y": 1.2413096356,
				"z": 1.5429948695,
				"element": "O" 
			},
			{
				"x": -1.1603385891,
				"y": 1.1341404796,
				"z": 2.8803748446,
				"element": "C" 
			},
			{
				"x": -0.6009571961,
				"y": 2.2190736508,
				"z": 3.6001465011,
				"element": "C" 
			},
			{
				"x": 0.0107333692,
				"y": 3.6165000791,
				"z": 2.7588120071,
				"element": "Cl" 
			},
			{
				"x": -0.5476852249,
				"y": 2.1407252529,
				"z": 4.9787510117,
				"element": "C" 
			},
			{
				"x": -1.045624493,
				"y": 0.9930964826,
				"z": 5.6137528681,
				"element": "C" 
			},
			{
				"x": -1.5684303292,
				"y": -0.0231720935,
				"z": 4.8239185,
				"element": "C" 
			},
			{
				"x": -1.6196725666,
				"y": 0.0461081492,
				"z": 3.4869849501,
				"element": "N" 
			},
			{
				"x": -1.0398230665,
				"y": 0.9011104573,
				"z": 7.112119238,
				"element": "C" 
			},
			{
				"x": 0.1191321819,
				"y": 1.3668892922,
				"z": 7.6297237833,
				"element": "F" 
			},
			{
				"x": -2.0335658346,
				"y": 1.6350364358,
				"z": 7.662077738,
				"element": "F" 
			},
			{
				"x": -1.1996404859,
				"y": -0.369976885,
				"z": 7.5363537913,
				"element": "F" 
			},
			{
				"x": 1.7469929299,
				"y": -4.1386021828,
				"z": -4.6604158753,
				"element": "H" 
			},
			{
				"x": 4.094741474,
				"y": -4.0669719415,
				"z": -3.7904688937,
				"element": "H" 
			},
			{
				"x": 4.7383888728,
				"y": -2.3167465192,
				"z": -2.1080334112,
				"element": "H" 
			},
			{
				"x": 0.8371606934,
				"y": 0.4144709423,
				"z": 0.1203221773,
				"element": "H" 
			},
			{
				"x": -0.4007860014,
				"y": -1.3559208068,
				"z": 1.3960372453,
				"element": "H" 
			},
			{
				"x": -1.2396684495,
				"y": -1.6968197378,
				"z": -0.1210085844,
				"element": "H" 
			},
			{
				"x": -2.640962522,
				"y": -0.2679666372,
				"z": 1.3367322727,
				"element": "H" 
			},
			{
				"x": -2.1617830211,
				"y": 0.6352686019,
				"z": -0.1341573864,
				"element": "H" 
			},
			{
				"x": -0.1199415108,
				"y": 2.9545798343,
				"z": 5.5535054985,
				"element": "H" 
			},
			{
				"x": -1.9527624568,
				"y": -0.9329573091,
				"z": 5.2751083289,
				"element": "H" 
			}
		],
		 "valence_orbital": [ 
			{
				"type": "occ",
				"energy": -0.29635,
				"method": "rhf"
			},
			{
				"type": "occ",
				"energy": -0.29088,
				"method": "rhf"
			},
			{
				"type": "occ",
				"energy": -0.26911,
				"method": "rhf"
			},
			{
				"type": "occ",
				"energy": -0.26682,
				"method": "rhf"
			},
			{
				"type": "occ",
				"energy": -0.25484,
				"method": "rhf"
			},
			{
				"type": "unocc",
				"energy": -0.05349,
				"method": "rhf"
			},
			{
				"type": "unocc",
				"energy": -0.04781,
				"method": "rhf"
			},
			{
				"type": "unocc",
				"energy": -0.0388,
				"method": "rhf"
			},
			{
				"type": "unocc",
				"energy": -0.02096,
				"method": "rhf"
			},
			{
				"type": "unocc",
				"energy": 0.01665,
				"method": "rhf"
			}
		],
		"cosmo_sigma_profile": { 
			"-0.025": 0.0,
			"-0.024": 0.0,
			"-0.023": 0.0,
			"-0.022": 0.0,
			"-0.021": 0.0,
			"-0.02": 0.0,
			"-0.019": 0.0,
			"-0.018": 0.0,
			"-0.017": 0.0,
			"-0.016": 0.0,
			"-0.015": 0.0,
			"-0.014": 0.0,
			"-0.013": 0.319331701927,
			"-0.012": 0.627968528196,
			"-0.011": 0.483227859056,
			"-0.01": 0.979658659367,
			"-0.009": 4.08768796733,
			"-0.008": 9.64945418848,
			"-0.007": 13.8448763455,
			"-0.006": 18.2858470916,
			"-0.005": 19.7770638874,
			"-0.004": 19.9274289689,
			"-0.003": 22.000162519,
			"-0.002": 28.3379495164,
			"-0.001": 38.7195582099,
			"0.0": 31.0674950972,
			"0.001": 27.8071323806,
			"0.002": 40.0003796461,
			"0.003": 43.2242229772,
			"0.004": 15.3217614526,
			"0.005": 7.68940221959,
			"0.006": 7.16480981784,
			"0.007": 6.02865009887,
			"0.008": 6.08403250127,
			"0.009": 5.7848816285,
			"0.01": 10.3412978401,
			"0.011": 5.54941879376,
			"0.012": 0.0570848522992,
			"0.013": 0.0,
			"0.014": 0.0,
			"0.015": 0.0,
			"0.016": 0.0,
			"0.017": 0.0,
			"0.018": 0.0,
			"0.019": 0.0,
			"0.02": 0.0,
			"0.021": 0.0,
			"0.022": 0.0,
			"0.023": 0.0,
			"0.024": 0.0,
			"0.025": 0.0
		}
	}
}
