{
	 "smiles": "COC1=CC(Br)=C(C(O)=O)C(N)=C1", 
	 "Tm": 408.15, 
	 "num_atms": 21, 
	 "gaussian": { 
		 "optdone": 1, 
		 "sigma_profile": "yes", 
		 "theory": "DFT", 
		 "functional": "B3LYP", 
		 "basiset": "6-31G**", 
		 "properties": { 
			 "R2extent": 3812.5626, 
			 "electric_dipole_moment_norm": 5.43894806098, 
			 "electric_quadrupole_moment_norm": 21.9478530663, 
			 "total_energy": -3161.50361852, 
			 "HOMO_LUMO_gap": 0.17314, 
			 "cosmo_polarized_energy": -13.58, 
			 "cosmo_cavitation_energy": 26.83, 
			 "cosmo_dispersion_energy": -20.9, 
			 "cosmo_repulsion_energy": 1.63, 
			 "cosmo_total_nonelectrostatic_energy": 7.57, 
			 "SMD_solvation_energy": 5.3 
		},
		"coords": [
			{
				"x": 2.3276409412,
				"y": 2.814913026,
				"z": -2.6547932992,
				"element": "C" 
			},
			{
				"x": 1.9477024754,
				"y": 1.4533350075,
				"z": -2.4997300566,
				"element": "O" 
			},
			{
				"x": 1.5038117377,
				"y": 1.039375402,
				"z": -1.2875586696,
				"element": "C" 
			},
			{
				"x": 1.1515665635,
				"y": -0.3224892417,
				"z": -1.2166271538,
				"element": "C" 
			},
			{
				"x": 0.6811125464,
				"y": -0.8263246011,
				"z": -0.0237103921,
				"element": "C" 
			},
			{
				"x": 0.2997177114,
				"y": -2.724217939,
				"z": -0.1201596728,
				"element": "Br" 
			},
			{
				"x": 0.5233321482,
				"y": -0.0646296223,
				"z": 1.1642776011,
				"element": "C" 
			},
			{
				"x": -0.0014092721,
				"y": -0.5352777274,
				"z": 2.4825901504,
				"element": "C" 
			},
			{
				"x": -0.6558170466,
				"y": -1.7038799083,
				"z": 2.5817620017,
				"element": "O" 
			},
			{
				"x": 0.1090852148,
				"y": 0.1244151377,
				"z": 3.509599533,
				"element": "O" 
			},
			{
				"x": 0.9205882232,
				"y": 1.3180217614,
				"z": 1.0607406582,
				"element": "C" 
			},
			{
				"x": 0.8302617733,
				"y": 2.1668785854,
				"z": 2.1161610016,
				"element": "N" 
			},
			{
				"x": 1.3925658719,
				"y": 1.8423218024,
				"z": -0.1667330795,
				"element": "C" 
			},
			{
				"x": 2.6415972464,
				"y": 2.9211790664,
				"z": -3.6937145393,
				"element": "H" 
			},
			{
				"x": 3.1638902359,
				"y": 3.0753117071,
				"z": -1.994495248,
				"element": "H" 
			},
			{
				"x": 1.4861436801,
				"y": 3.4904944363,
				"z": -2.4586359839,
				"element": "H" 
			},
			{
				"x": 1.2624211869,
				"y": -0.9433376415,
				"z": -2.095018045,
				"element": "H" 
			},
			{
				"x": -0.6854598087,
				"y": -2.1826078927,
				"z": 1.7354835988,
				"element": "H" 
			},
			{
				"x": 0.6269953438,
				"y": 1.7583165464,
				"z": 3.0231994407,
				"element": "H" 
			},
			{
				"x": 1.2093573752,
				"y": 3.0949052673,
				"z": 2.0315193013,
				"element": "H" 
			},
			{
				"x": 1.667295852,
				"y": 2.8898968281,
				"z": -0.1984571472,
				"element": "H" 
			}
		],
		 "valence_orbital": [ 
			{
				"type": "occ",
				"energy": -0.3005,
				"method": "rhf"
			},
			{
				"type": "occ",
				"energy": -0.2868,
				"method": "rhf"
			},
			{
				"type": "occ",
				"energy": -0.2703,
				"method": "rhf"
			},
			{
				"type": "occ",
				"energy": -0.24509,
				"method": "rhf"
			},
			{
				"type": "occ",
				"energy": -0.21397,
				"method": "rhf"
			},
			{
				"type": "unocc",
				"energy": -0.04083,
				"method": "rhf"
			},
			{
				"type": "unocc",
				"energy": -0.01804,
				"method": "rhf"
			},
			{
				"type": "unocc",
				"energy": -0.00398,
				"method": "rhf"
			},
			{
				"type": "unocc",
				"energy": 0.05761,
				"method": "rhf"
			},
			{
				"type": "unocc",
				"energy": 0.07548,
				"method": "rhf"
			}
		],
		"cosmo_sigma_profile": { 
			"-0.025": 0.0,
			"-0.024": 0.0,
			"-0.023": 0.0,
			"-0.022": 0.0,
			"-0.021": 0.0,
			"-0.02": 0.0,
			"-0.019": 0.0,
			"-0.018": 0.0,
			"-0.017": 0.0,
			"-0.016": 0.0,
			"-0.015": 0.0,
			"-0.014": 0.660727099803,
			"-0.013": 1.68172367283,
			"-0.012": 1.4823564125,
			"-0.011": 1.49559255195,
			"-0.01": 2.36059472723,
			"-0.009": 2.65349582167,
			"-0.008": 3.85468946903,
			"-0.007": 6.60238526724,
			"-0.006": 12.0581100755,
			"-0.005": 14.2680283456,
			"-0.004": 15.82622352,
			"-0.003": 14.032610995,
			"-0.002": 10.9697243952,
			"-0.001": 10.7193823009,
			"0.0": 13.0824786498,
			"0.001": 17.2515747031,
			"0.002": 24.9357584657,
			"0.003": 21.3644102879,
			"0.004": 7.17503023905,
			"0.005": 4.59944544267,
			"0.006": 4.02437320184,
			"0.007": 4.2384895693,
			"0.008": 4.40810947043,
			"0.009": 4.00890620063,
			"0.01": 3.62625107617,
			"0.011": 3.67221108089,
			"0.012": 3.35562987909,
			"0.013": 2.39083304013,
			"0.014": 0.70246374595,
			"0.015": 0.0,
			"0.016": 0.0,
			"0.017": 0.0,
			"0.018": 0.0,
			"0.019": 0.0,
			"0.02": 0.0,
			"0.021": 0.0,
			"0.022": 0.0,
			"0.023": 0.0,
			"0.024": 0.0,
			"0.025": 0.0
		}
	}
}
