{
	 "smiles": "OC(=O)COC1=CC(C=O)=CC=C1", 
	 "Tm": 385.15, 
	 "num_atms": 21, 
	 "gaussian": { 
		 "optdone": 1, 
		 "sigma_profile": "yes", 
		 "theory": "DFT", 
		 "functional": "B3LYP", 
		 "basiset": "6-31G**", 
		 "properties": { 
			 "R2extent": 3220.8445, 
			 "electric_dipole_moment_norm": 6.33461134562, 
			 "electric_quadrupole_moment_norm": 6.94049504719, 
			 "total_energy": -648.649154074, 
			 "HOMO_LUMO_gap": 0.18901, 
			 "cosmo_polarized_energy": -20.99, 
			 "cosmo_cavitation_energy": 26.64, 
			 "cosmo_dispersion_energy": -19.0, 
			 "cosmo_repulsion_energy": 1.52, 
			 "cosmo_total_nonelectrostatic_energy": 9.15, 
			 "SMD_solvation_energy": 7.01 
		},
		"coords": [
			{
				"x": 2.6072451485,
				"y": -2.0774506657,
				"z": 0.0948035708,
				"element": "O" 
			},
			{
				"x": 1.9243809465,
				"y": -1.0466597686,
				"z": -0.4685584795,
				"element": "C" 
			},
			{
				"x": 1.6737349286,
				"y": -1.043832066,
				"z": -1.6438777505,
				"element": "O" 
			},
			{
				"x": 1.5409382619,
				"y": 0.065865723,
				"z": 0.5178635819,
				"element": "C" 
			},
			{
				"x": 0.8558896931,
				"y": 1.1340875459,
				"z": -0.0887816842,
				"element": "O" 
			},
			{
				"x": -0.5146658214,
				"y": 0.9795865179,
				"z": -0.248747057,
				"element": "C" 
			},
			{
				"x": -1.030484565,
				"y": 0.5739351571,
				"z": -1.4788306101,
				"element": "C" 
			},
			{
				"x": -2.4179482468,
				"y": 0.4896849929,
				"z": -1.6454603459,
				"element": "C" 
			},
			{
				"x": -2.9695251071,
				"y": 0.0575324459,
				"z": -2.95269706,
				"element": "C" 
			},
			{
				"x": -4.156275973,
				"y": -0.0507967916,
				"z": -3.1955083059,
				"element": "O" 
			},
			{
				"x": -3.2820236946,
				"y": 0.8068804501,
				"z": -0.5861125558,
				"element": "C" 
			},
			{
				"x": -2.7553725914,
				"y": 1.2122039919,
				"z": 0.6357550614,
				"element": "C" 
			},
			{
				"x": -1.3696991542,
				"y": 1.3035054093,
				"z": 0.8075544846,
				"element": "C" 
			},
			{
				"x": 2.7265418864,
				"y": -1.9388813307,
				"z": 1.0461984516,
				"element": "H" 
			},
			{
				"x": 0.960817914,
				"y": -0.3752205411,
				"z": 1.3436789864,
				"element": "H" 
			},
			{
				"x": 2.4639811553,
				"y": 0.4793697885,
				"z": 0.9434547467,
				"element": "H" 
			},
			{
				"x": -0.3442762259,
				"y": 0.3172654248,
				"z": -2.2789441522,
				"element": "H" 
			},
			{
				"x": -2.2032638038,
				"y": -0.1701909026,
				"z": -3.7257061045,
				"element": "H" 
			},
			{
				"x": -4.3520499362,
				"y": 0.7309508816,
				"z": -0.7491358325,
				"element": "H" 
			},
			{
				"x": -3.4162318737,
				"y": 1.4682860134,
				"z": 1.4585500209,
				"element": "H" 
			},
			{
				"x": -0.9451129411,
				"y": 1.6404777241,
				"z": 1.7487010338,
				"element": "H" 
			}
		],
		 "valence_orbital": [ 
			{
				"type": "occ",
				"energy": -0.31184,
				"method": "rhf"
			},
			{
				"type": "occ",
				"energy": -0.28461,
				"method": "rhf"
			},
			{
				"type": "occ",
				"energy": -0.26935,
				"method": "rhf"
			},
			{
				"type": "occ",
				"energy": -0.25708,
				"method": "rhf"
			},
			{
				"type": "occ",
				"energy": -0.25365,
				"method": "rhf"
			},
			{
				"type": "unocc",
				"energy": -0.06464,
				"method": "rhf"
			},
			{
				"type": "unocc",
				"energy": -0.01556,
				"method": "rhf"
			},
			{
				"type": "unocc",
				"energy": -0.00665,
				"method": "rhf"
			},
			{
				"type": "unocc",
				"energy": 0.03046,
				"method": "rhf"
			},
			{
				"type": "unocc",
				"energy": 0.04118,
				"method": "rhf"
			}
		],
		"cosmo_sigma_profile": { 
			"-0.025": 0.0,
			"-0.024": 0.0,
			"-0.023": 0.0,
			"-0.022": 0.0,
			"-0.021": 0.0,
			"-0.02": 0.523979286566,
			"-0.019": 1.51762238197,
			"-0.018": 1.28006044034,
			"-0.017": 0.884625493628,
			"-0.016": 1.65922408424,
			"-0.015": 1.23959974444,
			"-0.014": 1.04572998024,
			"-0.013": 1.11788018767,
			"-0.012": 1.77276577458,
			"-0.011": 1.45381713771,
			"-0.01": 2.07439264074,
			"-0.009": 3.69419516,
			"-0.008": 4.58501774782,
			"-0.007": 10.0920706007,
			"-0.006": 13.1724164588,
			"-0.005": 13.0477507877,
			"-0.004": 11.2767369255,
			"-0.003": 9.43977162955,
			"-0.002": 9.02745863228,
			"-0.001": 10.2414728651,
			"0.0": 9.84742086977,
			"0.001": 12.346028966,
			"0.002": 17.4490293136,
			"0.003": 13.2587636542,
			"0.004": 5.84843640959,
			"0.005": 5.75288323994,
			"0.006": 5.29984923307,
			"0.007": 5.12420205335,
			"0.008": 7.11726853848,
			"0.009": 7.04643042362,
			"0.01": 11.2508892433,
			"0.011": 7.4897863507,
			"0.012": 5.0345558857,
			"0.013": 0.858118805009,
			"0.014": 0.0,
			"0.015": 0.0,
			"0.016": 0.0,
			"0.017": 0.0,
			"0.018": 0.0,
			"0.019": 0.0,
			"0.02": 0.0,
			"0.021": 0.0,
			"0.022": 0.0,
			"0.023": 0.0,
			"0.024": 0.0,
			"0.025": 0.0
		}
	}
}
