{
	 "smiles": "NC1=CC=C2CS(=O)(=O)CC2=C1", 
	 "Tm": 459.15, 
	 "num_atms": 21, 
	 "gaussian": { 
		 "optdone": 1, 
		 "sigma_profile": "yes", 
		 "theory": "DFT", 
		 "functional": "B3LYP", 
		 "basiset": "6-31G**", 
		 "properties": { 
			 "R2extent": 2668.9613, 
			 "electric_dipole_moment_norm": 6.40337821076, 
			 "electric_quadrupole_moment_norm": 19.8917479765, 
			 "total_energy": -913.604671119, 
			 "HOMO_LUMO_gap": 0.1955, 
			 "cosmo_polarized_energy": -19.17, 
			 "cosmo_cavitation_energy": 25.61, 
			 "cosmo_dispersion_energy": -19.82, 
			 "cosmo_repulsion_energy": 1.53, 
			 "cosmo_total_nonelectrostatic_energy": 7.32, 
			 "SMD_solvation_energy": 3.16 
		},
		"coords": [
			{
				"x": -1.5796614206,
				"y": -3.1302330891,
				"z": 0.5032480831,
				"element": "N" 
			},
			{
				"x": -0.745726686,
				"y": -2.0195898312,
				"z": 0.4067400636,
				"element": "C" 
			},
			{
				"x": 0.3041009788,
				"y": -1.8296919731,
				"z": 1.3262597862,
				"element": "C" 
			},
			{
				"x": 1.1697345965,
				"y": -0.7480152592,
				"z": 1.2048895568,
				"element": "C" 
			},
			{
				"x": 1.0207770484,
				"y": 0.1647318847,
				"z": 0.1585968856,
				"element": "C" 
			},
			{
				"x": 1.8893556042,
				"y": 1.3717615741,
				"z": -0.0784220678,
				"element": "C" 
			},
			{
				"x": 0.8797688234,
				"y": 2.4279244169,
				"z": -1.1932398298,
				"element": "S" 
			},
			{
				"x": 0.005144345,
				"y": 3.2814008486,
				"z": -0.3747991118,
				"element": "O" 
			},
			{
				"x": 1.7110866044,
				"y": 3.013382604,
				"z": -2.255257475,
				"element": "O" 
			},
			{
				"x": -0.1134765976,
				"y": 1.0247112668,
				"z": -1.844101295,
				"element": "C" 
			},
			{
				"x": -0.0262681451,
				"y": -0.0195221998,
				"z": -0.7611936188,
				"element": "C" 
			},
			{
				"x": -0.9038302068,
				"y": -1.0932623963,
				"z": -0.6384138821,
				"element": "C" 
			},
			{
				"x": -2.4818922623,
				"y": -3.0411595114,
				"z": 0.057378084,
				"element": "H" 
			},
			{
				"x": -1.6454653405,
				"y": -3.5490752547,
				"z": 1.4202652776,
				"element": "H" 
			},
			{
				"x": 0.4327622262,
				"y": -2.5366004774,
				"z": 2.1417941078,
				"element": "H" 
			},
			{
				"x": 1.9637672044,
				"y": -0.6152613036,
				"z": 1.934654786,
				"element": "H" 
			},
			{
				"x": 2.1085224405,
				"y": 1.9561590574,
				"z": 0.8190405797,
				"element": "H" 
			},
			{
				"x": 2.8223694293,
				"y": 1.1554992444,
				"z": -0.6095495794,
				"element": "H" 
			},
			{
				"x": 0.349263673,
				"y": 0.7168452134,
				"z": -2.7871125988,
				"element": "H" 
			},
			{
				"x": -1.1242884913,
				"y": 1.3933094485,
				"z": -2.0353161747,
				"element": "H" 
			},
			{
				"x": -1.714943824,
				"y": -1.2197142632,
				"z": -1.3513615772,
				"element": "H" 
			}
		],
		 "valence_orbital": [ 
			{
				"type": "occ",
				"energy": -0.30477,
				"method": "rhf"
			},
			{
				"type": "occ",
				"energy": -0.28916,
				"method": "rhf"
			},
			{
				"type": "occ",
				"energy": -0.28016,
				"method": "rhf"
			},
			{
				"type": "occ",
				"energy": -0.25998,
				"method": "rhf"
			},
			{
				"type": "occ",
				"energy": -0.21615,
				"method": "rhf"
			},
			{
				"type": "unocc",
				"energy": -0.02065,
				"method": "rhf"
			},
			{
				"type": "unocc",
				"energy": -0.00392,
				"method": "rhf"
			},
			{
				"type": "unocc",
				"energy": 0.06106,
				"method": "rhf"
			},
			{
				"type": "unocc",
				"energy": 0.06782,
				"method": "rhf"
			},
			{
				"type": "unocc",
				"energy": 0.07281,
				"method": "rhf"
			}
		],
		"cosmo_sigma_profile": { 
			"-0.025": 0.0,
			"-0.024": 0.0,
			"-0.023": 0.0,
			"-0.022": 0.0,
			"-0.021": 0.0,
			"-0.02": 0.0,
			"-0.019": 0.0,
			"-0.018": 0.0,
			"-0.017": 0.0,
			"-0.016": 0.0,
			"-0.015": 0.0,
			"-0.014": 0.0,
			"-0.013": 0.724925995733,
			"-0.012": 2.85279375287,
			"-0.011": 2.8328581755,
			"-0.01": 3.45240752035,
			"-0.009": 4.3705865732,
			"-0.008": 11.652738964,
			"-0.007": 12.0726113289,
			"-0.006": 17.6270081804,
			"-0.005": 14.9937000369,
			"-0.004": 13.6118312073,
			"-0.003": 8.06448004719,
			"-0.002": 6.94233717274,
			"-0.001": 7.10049757149,
			"0.0": 6.99299751216,
			"0.001": 5.53824768738,
			"0.002": 8.25478636611,
			"0.003": 8.86086133793,
			"0.004": 9.31045913416,
			"0.005": 12.3909036648,
			"0.006": 5.66662927585,
			"0.007": 3.50885011547,
			"0.008": 2.5237030322,
			"0.009": 4.54541370545,
			"0.01": 3.94439472572,
			"0.011": 11.8318462134,
			"0.012": 11.3448112799,
			"0.013": 1.80994963572,
			"0.014": 0.417136788179,
			"0.015": 0.0192204369912,
			"0.016": 0.0,
			"0.017": 0.0,
			"0.018": 0.0,
			"0.019": 0.0,
			"0.02": 0.0,
			"0.021": 0.0,
			"0.022": 0.0,
			"0.023": 0.0,
			"0.024": 0.0,
			"0.025": 0.0
		}
	}
}
