{
	 "smiles": "C(=CC1=CC=C2C=CC3=CC=CC=C3C2=C1)C1=CC=C2C=CC=CC2=C1", 
	 "Tm": 486.15, 
	 "num_atms": 44, 
	 "gaussian": { 
		 "optdone": 1, 
		 "sigma_profile": "yes", 
		 "theory": "DFT", 
		 "functional": "B3LYP", 
		 "basiset": "6-31G**", 
		 "properties": { 
			 "R2extent": 10789.8265, 
			 "electric_dipole_moment_norm": 0.291827072082, 
			 "electric_quadrupole_moment_norm": 13.4087893756, 
			 "total_energy": -1001.64368967, 
			 "HOMO_LUMO_gap": 0.14077, 
			 "cosmo_polarized_energy": -9.25, 
			 "cosmo_cavitation_energy": 47.15, 
			 "cosmo_dispersion_energy": -32.83, 
			 "cosmo_repulsion_energy": 2.4, 
			 "cosmo_total_nonelectrostatic_energy": 16.73, 
			 "SMD_solvation_energy": 6.74 
		},
		"coords": [
			{
				"x": -1.822153931,
				"y": 1.1632226189,
				"z": 2.7118843496,
				"element": "C" 
			},
			{
				"x": -1.9185644307,
				"y": -0.1544603791,
				"z": 2.9957008609,
				"element": "C" 
			},
			{
				"x": -1.4244667932,
				"y": -1.342339965,
				"z": 2.2794398323,
				"element": "C" 
			},
			{
				"x": -2.1310838895,
				"y": -2.5637488436,
				"z": 2.4250300329,
				"element": "C" 
			},
			{
				"x": -1.6841987129,
				"y": -3.71335293,
				"z": 1.8115071882,
				"element": "C" 
			},
			{
				"x": -0.5040139736,
				"y": -3.7160335271,
				"z": 1.0320064483,
				"element": "C" 
			},
			{
				"x": -0.0349325124,
				"y": -4.9177558579,
				"z": 0.4070368904,
				"element": "C" 
			},
			{
				"x": 1.1102348297,
				"y": -4.9268839201,
				"z": -0.32761791,
				"element": "C" 
			},
			{
				"x": 1.885621656,
				"y": -3.7328659446,
				"z": -0.511103281,
				"element": "C" 
			},
			{
				"x": 3.0703037307,
				"y": -3.7543770125,
				"z": -1.2838336497,
				"element": "C" 
			},
			{
				"x": 3.8175880639,
				"y": -2.6088758922,
				"z": -1.4751839154,
				"element": "C" 
			},
			{
				"x": 3.3927595021,
				"y": -1.3982956598,
				"z": -0.8966023443,
				"element": "C" 
			},
			{
				"x": 2.2379970184,
				"y": -1.3526136409,
				"z": -0.1357302763,
				"element": "C" 
			},
			{
				"x": 1.4552394174,
				"y": -2.50980086,
				"z": 0.0859415797,
				"element": "C" 
			},
			{
				"x": 0.2340201853,
				"y": -2.5028606478,
				"z": 0.8849200376,
				"element": "C" 
			},
			{
				"x": -0.2489088232,
				"y": -1.3447806362,
				"z": 1.5294180008,
				"element": "C" 
			},
			{
				"x": -1.3182485025,
				"y": 1.8674607501,
				"z": 1.5203564303,
				"element": "C" 
			},
			{
				"x": -1.4202580375,
				"y": 1.3280233581,
				"z": 0.200601481,
				"element": "C" 
			},
			{
				"x": -0.9772174765,
				"y": 2.0343814216,
				"z": -0.8899377826,
				"element": "C" 
			},
			{
				"x": -0.4021980504,
				"y": 3.3283217829,
				"z": -0.7496269987,
				"element": "C" 
			},
			{
				"x": 0.0716898079,
				"y": 4.0793263911,
				"z": -1.8563611148,
				"element": "C" 
			},
			{
				"x": 0.6129135512,
				"y": 5.3340172281,
				"z": -1.6772548921,
				"element": "C" 
			},
			{
				"x": 0.7017380716,
				"y": 5.8945184924,
				"z": -0.3794792282,
				"element": "C" 
			},
			{
				"x": 0.2482566121,
				"y": 5.1911387916,
				"z": 0.7143211188,
				"element": "C" 
			},
			{
				"x": -0.3130043868,
				"y": 3.8937472868,
				"z": 0.5635662553,
				"element": "C" 
			},
			{
				"x": -0.790541417,
				"y": 3.1420714773,
				"z": 1.6674570055,
				"element": "C" 
			},
			{
				"x": -2.1902894948,
				"y": 1.834288644,
				"z": 3.48744196,
				"element": "H" 
			},
			{
				"x": -2.4314886862,
				"y": -0.3935334865,
				"z": 3.9273040745,
				"element": "H" 
			},
			{
				"x": -3.0370701627,
				"y": -2.583444808,
				"z": 3.0250552067,
				"element": "H" 
			},
			{
				"x": -2.2355844526,
				"y": -4.6431778318,
				"z": 1.9262478818,
				"element": "H" 
			},
			{
				"x": -0.6154968676,
				"y": -5.8274497342,
				"z": 0.536930234,
				"element": "H" 
			},
			{
				"x": 1.4591913396,
				"y": -5.8443012186,
				"z": -0.7945376739,
				"element": "H" 
			},
			{
				"x": 3.3833272916,
				"y": -4.6954390268,
				"z": -1.7291550705,
				"element": "H" 
			},
			{
				"x": 4.7252139939,
				"y": -2.6394183647,
				"z": -2.0709191724,
				"element": "H" 
			},
			{
				"x": 3.9719914654,
				"y": -0.4921922598,
				"z": -1.0488893623,
				"element": "H" 
			},
			{
				"x": 1.9314523512,
				"y": -0.4022633115,
				"z": 0.2864591094,
				"element": "H" 
			},
			{
				"x": 0.3125011895,
				"y": -0.4219128086,
				"z": 1.4624736715,
				"element": "H" 
			},
			{
				"x": -1.8700890845,
				"y": 0.3514093275,
				"z": 0.0640953354,
				"element": "H" 
			},
			{
				"x": -1.0723870728,
				"y": 1.610318671,
				"z": -1.8864605497,
				"element": "H" 
			},
			{
				"x": 0.0004078482,
				"y": 3.6471096162,
				"z": -2.8513442253,
				"element": "H" 
			},
			{
				"x": 0.9731677107,
				"y": 5.8990605733,
				"z": -2.5320899891,
				"element": "H" 
			},
			{
				"x": 1.1297885022,
				"y": 6.8844954181,
				"z": -0.2505726227,
				"element": "H" 
			},
			{
				"x": 0.3152599024,
				"y": 5.6196483549,
				"z": 1.7111960775,
				"element": "H" 
			},
			{
				"x": -0.7291672826,
				"y": 3.5839183635,
				"z": 2.6598089963,
				"element": "H" 
			}
		],
		 "valence_orbital": [ 
			{
				"type": "occ",
				"energy": -0.25649,
				"method": "rhf"
			},
			{
				"type": "occ",
				"energy": -0.23115,
				"method": "rhf"
			},
			{
				"type": "occ",
				"energy": -0.22268,
				"method": "rhf"
			},
			{
				"type": "occ",
				"energy": -0.21493,
				"method": "rhf"
			},
			{
				"type": "occ",
				"energy": -0.19733,
				"method": "rhf"
			},
			{
				"type": "unocc",
				"energy": -0.05656,
				"method": "rhf"
			},
			{
				"type": "unocc",
				"energy": -0.0366,
				"method": "rhf"
			},
			{
				"type": "unocc",
				"energy": -0.02983,
				"method": "rhf"
			},
			{
				"type": "unocc",
				"energy": -0.01944,
				"method": "rhf"
			},
			{
				"type": "unocc",
				"energy": 0.00752,
				"method": "rhf"
			}
		],
		"cosmo_sigma_profile": { 
			"-0.025": 0.0,
			"-0.024": 0.0,
			"-0.023": 0.0,
			"-0.022": 0.0,
			"-0.021": 0.0,
			"-0.02": 0.0,
			"-0.019": 0.0,
			"-0.018": 0.0,
			"-0.017": 0.0,
			"-0.016": 0.0,
			"-0.015": 0.0,
			"-0.014": 0.0,
			"-0.013": 0.0,
			"-0.012": 0.0,
			"-0.011": 0.0,
			"-0.01": 0.0,
			"-0.009": 0.0,
			"-0.008": 0.0489011032876,
			"-0.007": 0.991293391116,
			"-0.006": 22.7563898357,
			"-0.005": 38.1642415135,
			"-0.004": 33.123084743,
			"-0.003": 31.0836540673,
			"-0.002": 21.7720931738,
			"-0.001": 22.0441846599,
			"0.0": 21.2545649238,
			"0.001": 23.8578283319,
			"0.002": 28.0236956236,
			"0.003": 43.7722029321,
			"0.004": 55.6003658902,
			"0.005": 32.7012759898,
			"0.006": 4.21961385402,
			"0.007": 0.0,
			"0.008": 0.0,
			"0.009": 0.0,
			"0.01": 0.0,
			"0.011": 0.0,
			"0.012": 0.0,
			"0.013": 0.0,
			"0.014": 0.0,
			"0.015": 0.0,
			"0.016": 0.0,
			"0.017": 0.0,
			"0.018": 0.0,
			"0.019": 0.0,
			"0.02": 0.0,
			"0.021": 0.0,
			"0.022": 0.0,
			"0.023": 0.0,
			"0.024": 0.0,
			"0.025": 0.0
		}
	}
}
