{
	 "smiles": "O=C1CNC2=C(C=CC=C2)C(=O)N1", 
	 "Tm": 481.15, 
	 "num_atms": 21, 
	 "gaussian": { 
		 "optdone": 1, 
		 "sigma_profile": "yes", 
		 "theory": "DFT", 
		 "functional": "B3LYP", 
		 "basiset": "6-31G**", 
		 "properties": { 
			 "R2extent": 2909.6894, 
			 "electric_dipole_moment_norm": 4.70423536932, 
			 "electric_quadrupole_moment_norm": 9.70665425932, 
			 "total_energy": -607.749956932, 
			 "HOMO_LUMO_gap": 0.16707, 
			 "cosmo_polarized_energy": -15.6, 
			 "cosmo_cavitation_energy": 24.85, 
			 "cosmo_dispersion_energy": -18.79, 
			 "cosmo_repulsion_energy": 1.46, 
			 "cosmo_total_nonelectrostatic_energy": 7.52, 
			 "SMD_solvation_energy": 4.45 
		},
		"coords": [
			{
				"x": 2.4476205479,
				"y": 1.787139715,
				"z": -3.8505434766,
				"element": "O" 
			},
			{
				"x": 1.756108873,
				"y": 1.4228693012,
				"z": -2.9169034843,
				"element": "C" 
			},
			{
				"x": 2.3168761072,
				"y": 0.6516561082,
				"z": -1.7372074109,
				"element": "C" 
			},
			{
				"x": 1.877706462,
				"y": 1.1927941704,
				"z": -0.4596008727,
				"element": "N" 
			},
			{
				"x": 0.6442390794,
				"y": 0.8201762517,
				"z": 0.0620974409,
				"element": "C" 
			},
			{
				"x": -0.5261754408,
				"y": 0.7350639908,
				"z": -0.7326284665,
				"element": "C" 
			},
			{
				"x": -1.7227546691,
				"y": 0.3016633341,
				"z": -0.1241456244,
				"element": "C" 
			},
			{
				"x": -1.7935292525,
				"y": -0.0035583759,
				"z": 1.224748066,
				"element": "C" 
			},
			{
				"x": -0.6456501451,
				"y": 0.1387563998,
				"z": 2.0148514261,
				"element": "C" 
			},
			{
				"x": 0.5506034631,
				"y": 0.5387508764,
				"z": 1.4404172677,
				"element": "C" 
			},
			{
				"x": -0.6900449467,
				"y": 1.2033722397,
				"z": -2.140033442,
				"element": "C" 
			},
			{
				"x": -1.7960222855,
				"y": 1.2716856835,
				"z": -2.6615949177,
				"element": "O" 
			},
			{
				"x": 0.3910623993,
				"y": 1.6681825935,
				"z": -2.9125178939,
				"element": "N" 
			},
			{
				"x": 3.401401692,
				"y": 0.73352667,
				"z": -1.810777965,
				"element": "H" 
			},
			{
				"x": 2.0436117899,
				"y": -0.411122434,
				"z": -1.8502604957,
				"element": "H" 
			},
			{
				"x": 2.6118959103,
				"y": 1.2037899153,
				"z": 0.234775639,
				"element": "H" 
			},
			{
				"x": -2.6020412505,
				"y": 0.248541102,
				"z": -0.7555131536,
				"element": "H" 
			},
			{
				"x": -2.7298268086,
				"y": -0.3308029505,
				"z": 1.6645413537,
				"element": "H" 
			},
			{
				"x": -0.6806941617,
				"y": -0.0798787385,
				"z": 3.078384421,
				"element": "H" 
			},
			{
				"x": 1.4472696549,
				"y": 0.618961462,
				"z": 2.0505451757,
				"element": "H" 
			},
			{
				"x": 0.0640429816,
				"y": 2.0771326853,
				"z": -3.7829335867,
				"element": "H" 
			}
		],
		 "valence_orbital": [ 
			{
				"type": "occ",
				"energy": -0.29213,
				"method": "rhf"
			},
			{
				"type": "occ",
				"energy": -0.27778,
				"method": "rhf"
			},
			{
				"type": "occ",
				"energy": -0.26478,
				"method": "rhf"
			},
			{
				"type": "occ",
				"energy": -0.25934,
				"method": "rhf"
			},
			{
				"type": "occ",
				"energy": -0.22436,
				"method": "rhf"
			},
			{
				"type": "unocc",
				"energy": -0.05729,
				"method": "rhf"
			},
			{
				"type": "unocc",
				"energy": -0.00703,
				"method": "rhf"
			},
			{
				"type": "unocc",
				"energy": -0.00287,
				"method": "rhf"
			},
			{
				"type": "unocc",
				"energy": 0.05577,
				"method": "rhf"
			},
			{
				"type": "unocc",
				"energy": 0.05951,
				"method": "rhf"
			}
		],
		"cosmo_sigma_profile": { 
			"-0.025": 0.0,
			"-0.024": 0.0,
			"-0.023": 0.0,
			"-0.022": 0.0,
			"-0.021": 0.0,
			"-0.02": 0.0,
			"-0.019": 0.0,
			"-0.018": 0.0,
			"-0.017": 0.0,
			"-0.016": 0.0,
			"-0.015": 0.05744647463,
			"-0.014": 1.95099404014,
			"-0.013": 2.42808009678,
			"-0.012": 2.4317303854,
			"-0.011": 3.2340191452,
			"-0.01": 2.22731382101,
			"-0.009": 2.02811512062,
			"-0.008": 5.27649331351,
			"-0.007": 8.4763490027,
			"-0.006": 10.9051342173,
			"-0.005": 11.9772418906,
			"-0.004": 14.0261131062,
			"-0.003": 12.2078170879,
			"-0.002": 9.76395733129,
			"-0.001": 8.85744560665,
			"0.0": 10.9873524685,
			"0.001": 11.1681397777,
			"0.002": 12.0778905176,
			"0.003": 12.461235,
			"0.004": 13.8370304728,
			"0.005": 7.5304199015,
			"0.006": 3.84153443795,
			"0.007": 2.29575644578,
			"0.008": 3.411385365,
			"0.009": 3.18400660203,
			"0.01": 3.89171404025,
			"0.011": 6.00181947874,
			"0.012": 9.71173168433,
			"0.013": 2.15463764877,
			"0.014": 0.0,
			"0.015": 0.0,
			"0.016": 0.0,
			"0.017": 0.0,
			"0.018": 0.0,
			"0.019": 0.0,
			"0.02": 0.0,
			"0.021": 0.0,
			"0.022": 0.0,
			"0.023": 0.0,
			"0.024": 0.0,
			"0.025": 0.0
		}
	}
}
