{
	 "smiles": "CC(C)(CC(O)=O)C(O)=O", 
	 "Tm": 413.65, 
	 "num_atms": 20, 
	 "gaussian": { 
		 "optdone": 1, 
		 "sigma_profile": "yes", 
		 "theory": "DFT", 
		 "functional": "B3LYP", 
		 "basiset": "6-31G**", 
		 "properties": { 
			 "R2extent": 2100.3814, 
			 "electric_dipole_moment_norm": 1.58261035634, 
			 "electric_quadrupole_moment_norm": 6.65548605888, 
			 "total_energy": -535.601333609, 
			 "HOMO_LUMO_gap": 0.276, 
			 "cosmo_polarized_energy": -14.0, 
			 "cosmo_cavitation_energy": 23.37, 
			 "cosmo_dispersion_energy": -16.57, 
			 "cosmo_repulsion_energy": 1.37, 
			 "cosmo_total_nonelectrostatic_energy": 8.17, 
			 "SMD_solvation_energy": 6.33 
		},
		"coords": [
			{
				"x": 1.5232689341,
				"y": 1.1283857684,
				"z": 1.0455065058,
				"element": "C" 
			},
			{
				"x": 1.259927542,
				"y": -0.3986449542,
				"z": 1.0373164909,
				"element": "C" 
			},
			{
				"x": 2.344521963,
				"y": -1.1139985086,
				"z": 1.8625060343,
				"element": "C" 
			},
			{
				"x": -0.1507645971,
				"y": -0.6526135226,
				"z": 1.6028350744,
				"element": "C" 
			},
			{
				"x": -0.5920815622,
				"y": -2.1002087441,
				"z": 1.567694415,
				"element": "C" 
			},
			{
				"x": -1.7879244036,
				"y": -2.2604789991,
				"z": 2.1818722363,
				"element": "O" 
			},
			{
				"x": 0.0050349987,
				"y": -3.0251741835,
				"z": 1.0596030768,
				"element": "O" 
			},
			{
				"x": 1.2586003086,
				"y": -0.8206269918,
				"z": -0.4357484115,
				"element": "C" 
			},
			{
				"x": 2.4659263814,
				"y": -1.2442662975,
				"z": -0.8714429064,
				"element": "O" 
			},
			{
				"x": 0.3034800675,
				"y": -0.7172172732,
				"z": -1.1763647201,
				"element": "O" 
			},
			{
				"x": 0.7711116542,
				"y": 1.6627788866,
				"z": 0.4575753023,
				"element": "H" 
			},
			{
				"x": 2.510166525,
				"y": 1.3517872026,
				"z": 0.6294066081,
				"element": "H" 
			},
			{
				"x": 1.4951397797,
				"y": 1.5083387031,
				"z": 2.0721112536,
				"element": "H" 
			},
			{
				"x": 3.3402345832,
				"y": -0.8828206561,
				"z": 1.4778435005,
				"element": "H" 
			},
			{
				"x": 2.2106671133,
				"y": -2.196364623,
				"z": 1.8383028012,
				"element": "H" 
			},
			{
				"x": 2.2954502879,
				"y": -0.7763506379,
				"z": 2.9038332976,
				"element": "H" 
			},
			{
				"x": -0.8906806714,
				"y": -0.0849786193,
				"z": 1.0288333186,
				"element": "H" 
			},
			{
				"x": -0.2150112613,
				"y": -0.2968431657,
				"z": 2.6373125925,
				"element": "H" 
			},
			{
				"x": -2.0121377911,
				"y": -3.2023667196,
				"z": 2.0947618382,
				"element": "H" 
			},
			{
				"x": 2.3502701484,
				"y": -1.4447366646,
				"z": -1.8156583082,
				"element": "H" 
			}
		],
		 "valence_orbital": [ 
			{
				"type": "occ",
				"energy": -0.34312,
				"method": "rhf"
			},
			{
				"type": "occ",
				"energy": -0.32093,
				"method": "rhf"
			},
			{
				"type": "occ",
				"energy": -0.31156,
				"method": "rhf"
			},
			{
				"type": "occ",
				"energy": -0.27794,
				"method": "rhf"
			},
			{
				"type": "occ",
				"energy": -0.26843,
				"method": "rhf"
			},
			{
				"type": "unocc",
				"energy": 0.00757,
				"method": "rhf"
			},
			{
				"type": "unocc",
				"energy": 0.01457,
				"method": "rhf"
			},
			{
				"type": "unocc",
				"energy": 0.07373,
				"method": "rhf"
			},
			{
				"type": "unocc",
				"energy": 0.07883,
				"method": "rhf"
			},
			{
				"type": "unocc",
				"energy": 0.0936,
				"method": "rhf"
			}
		],
		"cosmo_sigma_profile": { 
			"-0.025": 0.0,
			"-0.024": 0.0,
			"-0.023": 0.0,
			"-0.022": 0.0,
			"-0.021": 0.0,
			"-0.02": 0.0,
			"-0.019": 0.136241545986,
			"-0.018": 1.32273169557,
			"-0.017": 1.56294302881,
			"-0.016": 2.15454729409,
			"-0.015": 1.76585019633,
			"-0.014": 1.01483232738,
			"-0.013": 0.909623721109,
			"-0.012": 1.48588616456,
			"-0.011": 1.94585113512,
			"-0.01": 1.6377153438,
			"-0.009": 0.718123465454,
			"-0.008": 0.950792918806,
			"-0.007": 2.15506587778,
			"-0.006": 6.57449462467,
			"-0.005": 8.78480140586,
			"-0.004": 13.0336177104,
			"-0.003": 15.5053205943,
			"-0.002": 16.3164007546,
			"-0.001": 15.7686608287,
			"0.0": 16.0114252439,
			"0.001": 9.55865199168,
			"0.002": 6.3381551794,
			"0.003": 4.28779395571,
			"0.004": 4.03233072742,
			"0.005": 6.57331491822,
			"0.006": 6.42588076722,
			"0.007": 5.92571763135,
			"0.008": 6.08332568248,
			"0.009": 5.92380501018,
			"0.01": 4.16354051092,
			"0.011": 6.47046917101,
			"0.012": 5.90910325968,
			"0.013": 0.369944742578,
			"0.014": 0.0,
			"0.015": 0.0,
			"0.016": 0.0,
			"0.017": 0.0,
			"0.018": 0.0,
			"0.019": 0.0,
			"0.02": 0.0,
			"0.021": 0.0,
			"0.022": 0.0,
			"0.023": 0.0,
			"0.024": 0.0,
			"0.025": 0.0
		}
	}
}
