{
	 "smiles": "CC1=CC(C)=C(C)C2=C1C(=O)C2", 
	 "Tm": 371.15, 
	 "num_atms": 24, 
	 "gaussian": { 
		 "optdone": 1, 
		 "sigma_profile": "yes", 
		 "theory": "DFT", 
		 "functional": "B3LYP", 
		 "basiset": "6-31G**", 
		 "properties": { 
			 "R2extent": 2426.4602, 
			 "electric_dipole_moment_norm": 3.99178737034, 
			 "electric_quadrupole_moment_norm": 13.5970574706, 
			 "total_energy": -501.610348771, 
			 "HOMO_LUMO_gap": 0.18975, 
			 "cosmo_polarized_energy": -7.81, 
			 "cosmo_cavitation_energy": 27.3, 
			 "cosmo_dispersion_energy": -19.43, 
			 "cosmo_repulsion_energy": 1.56, 
			 "cosmo_total_nonelectrostatic_energy": 9.44, 
			 "SMD_solvation_energy": 5.15 
		},
		"coords": [
			{
				"x": 1.8096403731,
				"y": -0.5863907871,
				"z": 2.1134786542,
				"element": "C" 
			},
			{
				"x": 0.7131886726,
				"y": -0.1831984101,
				"z": 1.164008539,
				"element": "C" 
			},
			{
				"x": 0.4892907969,
				"y": -0.8257447943,
				"z": -0.0617789695,
				"element": "C" 
			},
			{
				"x": -0.5440501125,
				"y": -0.4740659523,
				"z": -0.9548186192,
				"element": "C" 
			},
			{
				"x": -0.6881063186,
				"y": -1.2393029664,
				"z": -2.2490656827,
				"element": "C" 
			},
			{
				"x": -1.4428989424,
				"y": 0.5832728669,
				"z": -0.6593622358,
				"element": "C" 
			},
			{
				"x": -2.5539607076,
				"y": 0.9812866104,
				"z": -1.598363906,
				"element": "C" 
			},
			{
				"x": -1.2166322814,
				"y": 1.2199387026,
				"z": 0.553260162,
				"element": "C" 
			},
			{
				"x": -0.1846573853,
				"y": 0.8535720754,
				"z": 1.427291804,
				"element": "C" 
			},
			{
				"x": -0.5687887955,
				"y": 1.9194364293,
				"z": 2.3965678221,
				"element": "C" 
			},
			{
				"x": -0.1746976853,
				"y": 2.3185876047,
				"z": 3.4655281217,
				"element": "O" 
			},
			{
				"x": -1.7425265346,
				"y": 2.352159767,
				"z": 1.4352635895,
				"element": "C" 
			},
			{
				"x": 2.3150308647,
				"y": 0.2913529199,
				"z": 2.5271253314,
				"element": "H" 
			},
			{
				"x": 1.4025153023,
				"y": -1.1466362246,
				"z": 2.9638130674,
				"element": "H" 
			},
			{
				"x": 2.5527598587,
				"y": -1.2195479729,
				"z": 1.6207337444,
				"element": "H" 
			},
			{
				"x": 1.1489197832,
				"y": -1.6427930835,
				"z": -0.3472810815,
				"element": "H" 
			},
			{
				"x": 0.0707633331,
				"y": -2.0202964907,
				"z": -2.3384167258,
				"element": "H" 
			},
			{
				"x": -0.5937056662,
				"y": -0.5779342984,
				"z": -3.1190106489,
				"element": "H" 
			},
			{
				"x": -1.6725019794,
				"y": -1.717078911,
				"z": -2.3250380461,
				"element": "H" 
			},
			{
				"x": -3.24844939,
				"y": 0.1522374284,
				"z": -1.7810411313,
				"element": "H" 
			},
			{
				"x": -3.1299258473,
				"y": 1.8144350553,
				"z": -1.188328899,
				"element": "H" 
			},
			{
				"x": -2.1678657322,
				"y": 1.291034152,
				"z": -2.5771386641,
				"element": "H" 
			},
			{
				"x": -1.6522828974,
				"y": 3.3702041553,
				"z": 1.0396227674,
				"element": "H" 
			},
			{
				"x": -2.7452587089,
				"y": 2.2240721239,
				"z": 1.8586510068,
				"element": "H" 
			}
		],
		 "valence_orbital": [ 
			{
				"type": "occ",
				"energy": -0.33649,
				"method": "rhf"
			},
			{
				"type": "occ",
				"energy": -0.32549,
				"method": "rhf"
			},
			{
				"type": "occ",
				"energy": -0.24571,
				"method": "rhf"
			},
			{
				"type": "occ",
				"energy": -0.24047,
				"method": "rhf"
			},
			{
				"type": "occ",
				"energy": -0.23899,
				"method": "rhf"
			},
			{
				"type": "unocc",
				"energy": -0.04924,
				"method": "rhf"
			},
			{
				"type": "unocc",
				"energy": -0.00264,
				"method": "rhf"
			},
			{
				"type": "unocc",
				"energy": 0.0517,
				"method": "rhf"
			},
			{
				"type": "unocc",
				"energy": 0.08402,
				"method": "rhf"
			},
			{
				"type": "unocc",
				"energy": 0.10869,
				"method": "rhf"
			}
		],
		"cosmo_sigma_profile": { 
			"-0.025": 0.0,
			"-0.024": 0.0,
			"-0.023": 0.0,
			"-0.022": 0.0,
			"-0.021": 0.0,
			"-0.02": 0.0,
			"-0.019": 0.0,
			"-0.018": 0.0,
			"-0.017": 0.0,
			"-0.016": 0.0,
			"-0.015": 0.0,
			"-0.014": 0.0,
			"-0.013": 0.0,
			"-0.012": 0.0,
			"-0.011": 0.0,
			"-0.01": 0.0,
			"-0.009": 0.0,
			"-0.008": 0.0,
			"-0.007": 0.0,
			"-0.006": 1.68358306509,
			"-0.005": 12.7117061816,
			"-0.004": 25.8870634157,
			"-0.003": 23.7585462563,
			"-0.002": 26.5661235588,
			"-0.001": 26.8448502085,
			"0.0": 30.0624530101,
			"0.001": 14.5579591904,
			"0.002": 9.71814309185,
			"0.003": 9.26006172347,
			"0.004": 10.4047100447,
			"0.005": 4.29638552279,
			"0.006": 1.63358842836,
			"0.007": 2.0202880484,
			"0.008": 1.43171760524,
			"0.009": 1.6927604396,
			"0.01": 2.46676534027,
			"0.011": 4.29078602823,
			"0.012": 4.7246763302,
			"0.013": 1.77611038883,
			"0.014": 0.0205705495706,
			"0.015": 0.0,
			"0.016": 0.0,
			"0.017": 0.0,
			"0.018": 0.0,
			"0.019": 0.0,
			"0.02": 0.0,
			"0.021": 0.0,
			"0.022": 0.0,
			"0.023": 0.0,
			"0.024": 0.0,
			"0.025": 0.0
		}
	}
}
