{
	 "smiles": "NC1=NSC(=N1)N1CCCC1", 
	 "Tm": 518.15, 
	 "num_atms": 21, 
	 "gaussian": { 
		 "optdone": 1, 
		 "sigma_profile": "yes", 
		 "theory": "DFT", 
		 "functional": "B3LYP", 
		 "basiset": "6-31G**", 
		 "properties": { 
			 "R2extent": 3266.0463, 
			 "electric_dipole_moment_norm": 4.24941509034, 
			 "electric_quadrupole_moment_norm": 11.8499009017, 
			 "total_energy": -851.864727654, 
			 "HOMO_LUMO_gap": 0.20493, 
			 "cosmo_polarized_energy": -13.16, 
			 "cosmo_cavitation_energy": 25.19, 
			 "cosmo_dispersion_energy": -19.77, 
			 "cosmo_repulsion_energy": 1.57, 
			 "cosmo_total_nonelectrostatic_energy": 6.99, 
			 "SMD_solvation_energy": 0.16 
		},
		"coords": [
			{
				"x": -0.0130633785,
				"y": -3.3977890373,
				"z": -4.2021403536,
				"element": "N" 
			},
			{
				"x": -0.5270124968,
				"y": -2.5956659336,
				"z": -3.2033006423,
				"element": "C" 
			},
			{
				"x": -1.7915578944,
				"y": -2.228124624,
				"z": -3.2167139014,
				"element": "N" 
			},
			{
				"x": -2.0176930315,
				"y": -1.189145572,
				"z": -1.8933450267,
				"element": "S" 
			},
			{
				"x": -0.3239966908,
				"y": -1.3695093676,
				"z": -1.4106859996,
				"element": "C" 
			},
			{
				"x": 0.3389541832,
				"y": -2.1627588333,
				"z": -2.224451546,
				"element": "N" 
			},
			{
				"x": 0.2117603599,
				"y": -0.7610601878,
				"z": -0.3364125544,
				"element": "N" 
			},
			{
				"x": -0.5284909158,
				"y": 0.1314758273,
				"z": 0.5566421665,
				"element": "C" 
			},
			{
				"x": 0.5802370987,
				"y": 0.7769065815,
				"z": 1.4033479809,
				"element": "C" 
			},
			{
				"x": 1.6723515655,
				"y": -0.3077115159,
				"z": 1.4487960186,
				"element": "C" 
			},
			{
				"x": 1.6196129261,
				"y": -0.9319226454,
				"z": 0.0462141273,
				"element": "C" 
			},
			{
				"x": -0.7100229076,
				"y": -3.9120759448,
				"z": -4.7211893569,
				"element": "H" 
			},
			{
				"x": 0.7927600693,
				"y": -3.9388188613,
				"z": -3.9243979416,
				"element": "H" 
			},
			{
				"x": -1.1057453084,
				"y": 0.8664649308,
				"z": -0.0177958021,
				"element": "H" 
			},
			{
				"x": -1.2353185167,
				"y": -0.4378121105,
				"z": 1.1783374434,
				"element": "H" 
			},
			{
				"x": 0.2255002001,
				"y": 1.0747889615,
				"z": 2.3931651658,
				"element": "H" 
			},
			{
				"x": 0.958783625,
				"y": 1.6723476861,
				"z": 0.898355146,
				"element": "H" 
			},
			{
				"x": 1.422654842,
				"y": -1.061959962,
				"z": 2.2033948451,
				"element": "H" 
			},
			{
				"x": 2.6612123997,
				"y": 0.0911195584,
				"z": 1.6890481063,
				"element": "H" 
			},
			{
				"x": 2.2728832441,
				"y": -0.4079793453,
				"z": -0.6643618283,
				"element": "H" 
			},
			{
				"x": 1.8928906271,
				"y": -1.9904696048,
				"z": 0.0247939529,
				"element": "H" 
			}
		],
		 "valence_orbital": [ 
			{
				"type": "occ",
				"energy": -0.29607,
				"method": "rhf"
			},
			{
				"type": "occ",
				"energy": -0.28801,
				"method": "rhf"
			},
			{
				"type": "occ",
				"energy": -0.25798,
				"method": "rhf"
			},
			{
				"type": "occ",
				"energy": -0.23455,
				"method": "rhf"
			},
			{
				"type": "occ",
				"energy": -0.19458,
				"method": "rhf"
			},
			{
				"type": "unocc",
				"energy": 0.01035,
				"method": "rhf"
			},
			{
				"type": "unocc",
				"energy": 0.01492,
				"method": "rhf"
			},
			{
				"type": "unocc",
				"energy": 0.07193,
				"method": "rhf"
			},
			{
				"type": "unocc",
				"energy": 0.08077,
				"method": "rhf"
			},
			{
				"type": "unocc",
				"energy": 0.09102,
				"method": "rhf"
			}
		],
		"cosmo_sigma_profile": { 
			"-0.025": 0.0,
			"-0.024": 0.0,
			"-0.023": 0.0,
			"-0.022": 0.0,
			"-0.021": 0.0,
			"-0.02": 0.0,
			"-0.019": 0.0,
			"-0.018": 0.0,
			"-0.017": 0.0,
			"-0.016": 0.0,
			"-0.015": 0.0,
			"-0.014": 0.0,
			"-0.013": 1.55160233653,
			"-0.012": 1.8977815614,
			"-0.011": 2.19022433213,
			"-0.01": 2.23575187474,
			"-0.009": 2.6498127177,
			"-0.008": 1.69426434629,
			"-0.007": 1.02753028105,
			"-0.006": 2.1297344732,
			"-0.005": 9.8035992257,
			"-0.004": 26.6116481671,
			"-0.003": 28.2818976438,
			"-0.002": 19.1706298034,
			"-0.001": 14.5629437075,
			"0.0": 11.6069488821,
			"0.001": 11.6244735329,
			"0.002": 8.47515653377,
			"0.003": 7.03317148388,
			"0.004": 6.80441408847,
			"0.005": 7.75572441945,
			"0.006": 5.85901930527,
			"0.007": 3.6554501455,
			"0.008": 4.44945081847,
			"0.009": 4.05178869138,
			"0.01": 2.96982286313,
			"0.011": 2.57943374665,
			"0.012": 2.90890528484,
			"0.013": 2.75374080162,
			"0.014": 1.76237128651,
			"0.015": 0.961961720683,
			"0.016": 1.08010526481,
			"0.017": 0.230435093899,
			"0.018": 0.0,
			"0.019": 0.0,
			"0.02": 0.0,
			"0.021": 0.0,
			"0.022": 0.0,
			"0.023": 0.0,
			"0.024": 0.0,
			"0.025": 0.0
		}
	}
}
