{
	 "smiles": "FC(F)(F)C(=O)C1=CC=CC=C1", 
	 "Tm": 233.15, 
	 "num_atms": 17, 
	 "gaussian": { 
		 "optdone": 1, 
		 "sigma_profile": "yes", 
		 "theory": "DFT", 
		 "functional": "B3LYP", 
		 "basiset": "6-31G**", 
		 "properties": { 
			 "R2extent": 3119.1683, 
			 "electric_dipole_moment_norm": 3.67356018734, 
			 "electric_quadrupole_moment_norm": 6.33820235161, 
			 "total_energy": -682.60209421, 
			 "HOMO_LUMO_gap": 0.18974, 
			 "cosmo_polarized_energy": -5.73, 
			 "cosmo_cavitation_energy": 22.98, 
			 "cosmo_dispersion_energy": -16.5, 
			 "cosmo_repulsion_energy": 1.25, 
			 "cosmo_total_nonelectrostatic_energy": 7.73, 
			 "SMD_solvation_energy": 5.77 
		},
		"coords": [
			{
				"x": -2.9991636422,
				"y": -0.3286302964,
				"z": -0.7357343401,
				"element": "F" 
			},
			{
				"x": -2.3780154995,
				"y": -1.1347482429,
				"z": -1.6266874882,
				"element": "C" 
			},
			{
				"x": -2.8895283313,
				"y": -2.3780207005,
				"z": -1.4781353987,
				"element": "F" 
			},
			{
				"x": -2.6694697756,
				"y": -0.7059012985,
				"z": -2.8535932741,
				"element": "F" 
			},
			{
				"x": -0.8428675823,
				"y": -1.1404153244,
				"z": -1.3844418845,
				"element": "C" 
			},
			{
				"x": -0.1265760086,
				"y": -0.7725750744,
				"z": -2.2944835171,
				"element": "O" 
			},
			{
				"x": -0.3342796833,
				"y": -1.5910208129,
				"z": -0.064008383,
				"element": "C" 
			},
			{
				"x": -1.1681271844,
				"y": -2.0155643621,
				"z": 0.9849483937,
				"element": "C" 
			},
			{
				"x": -0.6094006957,
				"y": -2.4232784509,
				"z": 2.1946931013,
				"element": "C" 
			},
			{
				"x": 0.7759760274,
				"y": -2.4116294301,
				"z": 2.3687054392,
				"element": "C" 
			},
			{
				"x": 1.6110710133,
				"y": -1.9903322637,
				"z": 1.328763011,
				"element": "C" 
			},
			{
				"x": 1.0597288556,
				"y": -1.58251363,
				"z": 0.1198098732,
				"element": "C" 
			},
			{
				"x": -2.2440661848,
				"y": -2.0297824407,
				"z": 0.8640491724,
				"element": "H" 
			},
			{
				"x": -1.2564565866,
				"y": -2.750559036,
				"z": 3.0027403665,
				"element": "H" 
			},
			{
				"x": 1.2055886241,
				"y": -2.7305781395,
				"z": 3.3140374085,
				"element": "H" 
			},
			{
				"x": 2.6883028704,
				"y": -1.9814332289,
				"z": 1.4644723597,
				"element": "H" 
			},
			{
				"x": 1.6856837834,
				"y": -1.2514172681,
				"z": -0.7019348399,
				"element": "H" 
			}
		],
		 "valence_orbital": [ 
			{
				"type": "occ",
				"energy": -0.3761,
				"method": "rhf"
			},
			{
				"type": "occ",
				"energy": -0.3616,
				"method": "rhf"
			},
			{
				"type": "occ",
				"energy": -0.27893,
				"method": "rhf"
			},
			{
				"type": "occ",
				"energy": -0.27514,
				"method": "rhf"
			},
			{
				"type": "occ",
				"energy": -0.27231,
				"method": "rhf"
			},
			{
				"type": "unocc",
				"energy": -0.08257,
				"method": "rhf"
			},
			{
				"type": "unocc",
				"energy": -0.02134,
				"method": "rhf"
			},
			{
				"type": "unocc",
				"energy": 0.01469,
				"method": "rhf"
			},
			{
				"type": "unocc",
				"energy": 0.08307,
				"method": "rhf"
			},
			{
				"type": "unocc",
				"energy": 0.1291,
				"method": "rhf"
			}
		],
		"cosmo_sigma_profile": { 
			"-0.025": 0.0,
			"-0.024": 0.0,
			"-0.023": 0.0,
			"-0.022": 0.0,
			"-0.021": 0.0,
			"-0.02": 0.0,
			"-0.019": 0.0,
			"-0.018": 0.0,
			"-0.017": 0.0,
			"-0.016": 0.0,
			"-0.015": 0.0,
			"-0.014": 0.0,
			"-0.013": 0.0,
			"-0.012": 0.0,
			"-0.011": 0.0,
			"-0.01": 0.0,
			"-0.009": 0.0,
			"-0.008": 0.147258851075,
			"-0.007": 5.99568102632,
			"-0.006": 10.8823131875,
			"-0.005": 13.3672839442,
			"-0.004": 10.9846605412,
			"-0.003": 9.69511197958,
			"-0.002": 10.6478939863,
			"-0.001": 12.516561964,
			"0.0": 16.8335670924,
			"0.001": 23.3527357692,
			"0.002": 35.3266754012,
			"0.003": 17.2038246354,
			"0.004": 3.04666922064,
			"0.005": 2.14914403599,
			"0.006": 1.07193487047,
			"0.007": 2.63300190975,
			"0.008": 2.28156228092,
			"0.009": 2.98866741348,
			"0.01": 3.83188824016,
			"0.011": 0.459640010215,
			"0.012": 0.0,
			"0.013": 0.0,
			"0.014": 0.0,
			"0.015": 0.0,
			"0.016": 0.0,
			"0.017": 0.0,
			"0.018": 0.0,
			"0.019": 0.0,
			"0.02": 0.0,
			"0.021": 0.0,
			"0.022": 0.0,
			"0.023": 0.0,
			"0.024": 0.0,
			"0.025": 0.0
		}
	}
}
