{
	 "smiles": "CCOC(=O)C(NC1=CC(NC(C(=O)OCC)C(=O)OCC)=CC=C1)C(=O)OCC", 
	 "Tm": 352.15, 
	 "num_atms": 58, 
	 "gaussian": { 
		 "optdone": 1, 
		 "sigma_profile": "yes", 
		 "theory": "DFT", 
		 "functional": "B3LYP", 
		 "basiset": "6-31G**", 
		 "properties": { 
			 "R2extent": 14318.7342, 
			 "electric_dipole_moment_norm": 5.43183211357, 
			 "electric_quadrupole_moment_norm": 25.8037735519, 
			 "total_energy": -1490.33372844, 
			 "HOMO_LUMO_gap": 0.18412, 
			 "cosmo_polarized_energy": -24.56, 
			 "cosmo_cavitation_energy": 63.18, 
			 "cosmo_dispersion_energy": -37.15, 
			 "cosmo_repulsion_energy": 2.93, 
			 "cosmo_total_nonelectrostatic_energy": 28.97, 
			 "SMD_solvation_energy": 12.65 
		},
		"coords": [
			{
				"x": -1.6897157045,
				"y": -2.2843113569,
				"z": 5.6930099653,
				"element": "C" 
			},
			{
				"x": -2.6405219908,
				"y": -1.8882079245,
				"z": 4.5810420534,
				"element": "C" 
			},
			{
				"x": -1.8933642565,
				"y": -1.9244319324,
				"z": 3.3360031013,
				"element": "O" 
			},
			{
				"x": -2.5834933564,
				"y": -1.636829697,
				"z": 2.2271411603,
				"element": "C" 
			},
			{
				"x": -3.7462581849,
				"y": -1.2977174587,
				"z": 2.1969234844,
				"element": "O" 
			},
			{
				"x": -1.6993344066,
				"y": -1.7818381433,
				"z": 0.9832637875,
				"element": "C" 
			},
			{
				"x": -2.4527382833,
				"y": -1.388045562,
				"z": -0.1844056231,
				"element": "N" 
			},
			{
				"x": -1.9300131532,
				"y": -0.5689823158,
				"z": -1.1876501885,
				"element": "C" 
			},
			{
				"x": -0.5524527341,
				"y": -0.50231445,
				"z": -1.4530181517,
				"element": "C" 
			},
			{
				"x": -0.0595683233,
				"y": 0.3127748969,
				"z": -2.4815419087,
				"element": "C" 
			},
			{
				"x": 1.3298772091,
				"y": 0.2930147305,
				"z": -2.7956725885,
				"element": "N" 
			},
			{
				"x": 2.1935372034,
				"y": 1.453808487,
				"z": -2.5637113707,
				"element": "C" 
			},
			{
				"x": 2.7917931078,
				"y": 1.5985770622,
				"z": -1.1514673456,
				"element": "C" 
			},
			{
				"x": 3.5491250351,
				"y": 2.4954744012,
				"z": -0.8526140465,
				"element": "O" 
			},
			{
				"x": 2.4408158989,
				"y": 0.5872153671,
				"z": -0.333543843,
				"element": "O" 
			},
			{
				"x": 2.9882127965,
				"y": 0.6279463365,
				"z": 1.009946465,
				"element": "C" 
			},
			{
				"x": 2.1378423279,
				"y": 1.4995715836,
				"z": 1.9204932337,
				"element": "C" 
			},
			{
				"x": 1.5322180942,
				"y": 2.7775818381,
				"z": -2.9829373753,
				"element": "C" 
			},
			{
				"x": 1.595283709,
				"y": 3.2359940274,
				"z": -4.1006321399,
				"element": "O" 
			},
			{
				"x": 0.8705677253,
				"y": 3.3388565464,
				"z": -1.9607112167,
				"element": "O" 
			},
			{
				"x": 0.165079749,
				"y": 4.5686930401,
				"z": -2.256851271,
				"element": "C" 
			},
			{
				"x": -0.474755276,
				"y": 5.0457141462,
				"z": -0.9679456875,
				"element": "C" 
			},
			{
				"x": -0.9485865329,
				"y": 1.0577225267,
				"z": -3.2693298866,
				"element": "C" 
			},
			{
				"x": -2.3146366656,
				"y": 0.9990837606,
				"z": -2.9923107985,
				"element": "C" 
			},
			{
				"x": -2.8127384032,
				"y": 0.2001701978,
				"z": -1.9682769368,
				"element": "C" 
			},
			{
				"x": -1.253391128,
				"y": -3.252609354,
				"z": 0.8705452023,
				"element": "C" 
			},
			{
				"x": -1.9483788497,
				"y": -4.1996389914,
				"z": 1.1617467687,
				"element": "O" 
			},
			{
				"x": -0.0117220907,
				"y": -3.3450144356,
				"z": 0.3603110395,
				"element": "O" 
			},
			{
				"x": 0.4679388395,
				"y": -4.6914523588,
				"z": 0.1091725973,
				"element": "C" 
			},
			{
				"x": 1.8475730195,
				"y": -4.5778438177,
				"z": -0.5089062136,
				"element": "C" 
			},
			{
				"x": -2.217991086,
				"y": -2.2701327644,
				"z": 6.6512352946,
				"element": "H" 
			},
			{
				"x": -1.297931923,
				"y": -3.2922336231,
				"z": 5.5307485636,
				"element": "H" 
			},
			{
				"x": -0.8468986323,
				"y": -1.5899334663,
				"z": 5.7552592542,
				"element": "H" 
			},
			{
				"x": -3.4868009021,
				"y": -2.5755601876,
				"z": 4.4943843789,
				"element": "H" 
			},
			{
				"x": -3.0404248563,
				"y": -0.8787587112,
				"z": 4.71655164,
				"element": "H" 
			},
			{
				"x": -0.8110249727,
				"y": -1.1522629103,
				"z": 1.1181274565,
				"element": "H" 
			},
			{
				"x": -3.4288373522,
				"y": -1.2333420517,
				"z": 0.0410593329,
				"element": "H" 
			},
			{
				"x": 0.1449452431,
				"y": -1.0984487301,
				"z": -0.8751717065,
				"element": "H" 
			},
			{
				"x": 1.7697024209,
				"y": -0.5157819288,
				"z": -2.3717167903,
				"element": "H" 
			},
			{
				"x": 3.0626640733,
				"y": 1.3617765206,
				"z": -3.2255786488,
				"element": "H" 
			},
			{
				"x": 2.9873344722,
				"y": -0.4156058257,
				"z": 1.3331376406,
				"element": "H" 
			},
			{
				"x": 4.0160197762,
				"y": 0.9945005132,
				"z": 0.957132267,
				"element": "H" 
			},
			{
				"x": 2.1605756649,
				"y": 2.5391375991,
				"z": 1.5856895903,
				"element": "H" 
			},
			{
				"x": 1.0996057346,
				"y": 1.155268272,
				"z": 1.9309527911,
				"element": "H" 
			},
			{
				"x": 2.5272351734,
				"y": 1.4571948148,
				"z": 2.9431143576,
				"element": "H" 
			},
			{
				"x": -0.5779137303,
				"y": 4.3605608863,
				"z": -3.0327798432,
				"element": "H" 
			},
			{
				"x": 0.8797616511,
				"y": 5.2917492956,
				"z": -2.6606979875,
				"element": "H" 
			},
			{
				"x": 0.2832797974,
				"y": 5.2362229817,
				"z": -0.2028802928,
				"element": "H" 
			},
			{
				"x": -1.1771226801,
				"y": 4.3004142624,
				"z": -0.5845143541,
				"element": "H" 
			},
			{
				"x": -1.0224872648,
				"y": 5.9756991937,
				"z": -1.1494901731,
				"element": "H" 
			},
			{
				"x": -0.5761142594,
				"y": 1.6351333551,
				"z": -4.1075229071,
				"element": "H" 
			},
			{
				"x": -3.0077308752,
				"y": 1.5730447978,
				"z": -3.6015421991,
				"element": "H" 
			},
			{
				"x": -3.8805310544,
				"y": 0.1599162794,
				"z": -1.7701522795,
				"element": "H" 
			},
			{
				"x": 0.4823545363,
				"y": -5.2369369146,
				"z": 1.05770231,
				"element": "H" 
			},
			{
				"x": -0.2423654664,
				"y": -5.1953411171,
				"z": -0.5526846385,
				"element": "H" 
			},
			{
				"x": 2.2472433455,
				"y": -5.5772775125,
				"z": -0.7062741137,
				"element": "H" 
			},
			{
				"x": 2.53774335,
				"y": -4.0593563584,
				"z": 0.1630577305,
				"element": "H" 
			},
			{
				"x": 1.8082144404,
				"y": -4.0319078198,
				"z": -1.4558189401,
				"element": "H" 
			}
		],
		 "valence_orbital": [ 
			{
				"type": "occ",
				"energy": -0.27933,
				"method": "rhf"
			},
			{
				"type": "occ",
				"energy": -0.27374,
				"method": "rhf"
			},
			{
				"type": "occ",
				"energy": -0.25881,
				"method": "rhf"
			},
			{
				"type": "occ",
				"energy": -0.21507,
				"method": "rhf"
			},
			{
				"type": "occ",
				"energy": -0.19247,
				"method": "rhf"
			},
			{
				"type": "unocc",
				"energy": -0.00835,
				"method": "rhf"
			},
			{
				"type": "unocc",
				"energy": -0.00417,
				"method": "rhf"
			},
			{
				"type": "unocc",
				"energy": 0.00089,
				"method": "rhf"
			},
			{
				"type": "unocc",
				"energy": 0.00497,
				"method": "rhf"
			},
			{
				"type": "unocc",
				"energy": 0.01145,
				"method": "rhf"
			}
		],
		"cosmo_sigma_profile": { 
			"-0.025": 0.0,
			"-0.024": 0.0,
			"-0.023": 0.0,
			"-0.022": 0.0,
			"-0.021": 0.0,
			"-0.02": 0.0,
			"-0.019": 0.0,
			"-0.018": 0.0,
			"-0.017": 0.0,
			"-0.016": 0.0,
			"-0.015": 0.0,
			"-0.014": 0.0,
			"-0.013": 0.0,
			"-0.012": 0.0518302125614,
			"-0.011": 1.545963031,
			"-0.01": 2.47887274716,
			"-0.009": 3.04097229319,
			"-0.008": 5.06751207335,
			"-0.007": 5.88487391444,
			"-0.006": 15.9284121402,
			"-0.005": 37.8888809934,
			"-0.004": 58.1955415468,
			"-0.003": 55.7273085813,
			"-0.002": 45.0066148045,
			"-0.001": 42.8074189345,
			"0.0": 43.1844439546,
			"0.001": 24.6012561295,
			"0.002": 20.4806911628,
			"0.003": 17.2682699598,
			"0.004": 18.1148911965,
			"0.005": 20.7995792181,
			"0.006": 19.301221106,
			"0.007": 12.4031650358,
			"0.008": 7.24047617312,
			"0.009": 7.75431291559,
			"0.01": 10.598987994,
			"0.011": 15.6642855414,
			"0.012": 5.08974372068,
			"0.013": 0.542323554655,
			"0.014": 0.0,
			"0.015": 0.0,
			"0.016": 0.0,
			"0.017": 0.0,
			"0.018": 0.0,
			"0.019": 0.0,
			"0.02": 0.0,
			"0.021": 0.0,
			"0.022": 0.0,
			"0.023": 0.0,
			"0.024": 0.0,
			"0.025": 0.0
		}
	}
}
