{
	 "smiles": "OC(=O)C1CCN(CC1)S(=O)(=O)C1=CC2=C(OCCCO2)C=C1", 
	 "Tm": 449.15, 
	 "num_atms": 42, 
	 "gaussian": { 
		 "optdone": 1, 
		 "sigma_profile": "yes", 
		 "theory": "DFT", 
		 "functional": "B3LYP", 
		 "basiset": "6-31G**", 
		 "properties": { 
			 "R2extent": 11178.297, 
			 "electric_dipole_moment_norm": 5.90686800597, 
			 "electric_quadrupole_moment_norm": 29.7904908456, 
			 "total_energy": -1487.24072237, 
			 "HOMO_LUMO_gap": 0.1999, 
			 "cosmo_polarized_energy": -26.9, 
			 "cosmo_cavitation_energy": 44.71, 
			 "cosmo_dispersion_energy": -31.79, 
			 "cosmo_repulsion_energy": 2.39, 
			 "cosmo_total_nonelectrostatic_energy": 15.31, 
			 "SMD_solvation_energy": 6.79 
		},
		"coords": [
			{
				"x": 2.3756806295,
				"y": 5.1729292126,
				"z": -1.6615678318,
				"element": "O" 
			},
			{
				"x": 1.3787290309,
				"y": 4.4819260422,
				"z": -2.2795195487,
				"element": "C" 
			},
			{
				"x": 1.3027435881,
				"y": 4.4886565885,
				"z": -3.4829054798,
				"element": "O" 
			},
			{
				"x": 0.3951356756,
				"y": 3.7780912517,
				"z": -1.3435071652,
				"element": "C" 
			},
			{
				"x": -0.3970702082,
				"y": 2.6747915837,
				"z": -2.0760961121,
				"element": "C" 
			},
			{
				"x": -1.7897209209,
				"y": 2.4651828136,
				"z": -1.4538617106,
				"element": "C" 
			},
			{
				"x": -1.7005388698,
				"y": 2.7152649275,
				"z": -0.002895244,
				"element": "N" 
			},
			{
				"x": -1.4777165377,
				"y": 4.1416997734,
				"z": 0.3419962092,
				"element": "C" 
			},
			{
				"x": -0.5863490608,
				"y": 4.8012181961,
				"z": -0.7285740379,
				"element": "C" 
			},
			{
				"x": -2.8969234789,
				"y": 1.9705321588,
				"z": 0.9472145877,
				"element": "S" 
			},
			{
				"x": -2.687671932,
				"y": 2.4860741353,
				"z": 2.304295652,
				"element": "O" 
			},
			{
				"x": -4.2185820788,
				"y": 2.0756269164,
				"z": 0.3105584762,
				"element": "O" 
			},
			{
				"x": -2.4009091821,
				"y": 0.2523582227,
				"z": 0.8759305925,
				"element": "C" 
			},
			{
				"x": -1.2099349987,
				"y": -0.1386413557,
				"z": 1.4890208044,
				"element": "C" 
			},
			{
				"x": -0.828028275,
				"y": -1.4785934686,
				"z": 1.4784047754,
				"element": "C" 
			},
			{
				"x": -1.6745452206,
				"y": -2.4364023407,
				"z": 0.8685375546,
				"element": "C" 
			},
			{
				"x": -1.4011060944,
				"y": -3.7766473677,
				"z": 0.8310539406,
				"element": "O" 
			},
			{
				"x": -0.7607065531,
				"y": -4.3414439012,
				"z": 1.9889347248,
				"element": "C" 
			},
			{
				"x": 0.7603142513,
				"y": -4.2076580788,
				"z": 1.91964456,
				"element": "C" 
			},
			{
				"x": 1.1568285109,
				"y": -2.8048693844,
				"z": 1.4558971578,
				"element": "C" 
			},
			{
				"x": 0.3603113459,
				"y": -1.7914525232,
				"z": 2.090812257,
				"element": "O" 
			},
			{
				"x": -2.8535278641,
				"y": -2.0170651466,
				"z": 0.2448990417,
				"element": "C" 
			},
			{
				"x": -3.2260736821,
				"y": -0.6756579105,
				"z": 0.2394933012,
				"element": "C" 
			},
			{
				"x": 2.3247605119,
				"y": 5.0488781664,
				"z": -0.7031855189,
				"element": "H" 
			},
			{
				"x": 0.9695645328,
				"y": 3.3272381843,
				"z": -0.5221873233,
				"element": "H" 
			},
			{
				"x": 0.1715573339,
				"y": 1.7404697695,
				"z": -2.0415177596,
				"element": "H" 
			},
			{
				"x": -0.4978133861,
				"y": 2.954970335,
				"z": -3.1285044254,
				"element": "H" 
			},
			{
				"x": -2.1202615255,
				"y": 1.4367002993,
				"z": -1.6140687232,
				"element": "H" 
			},
			{
				"x": -2.5435475586,
				"y": 3.1165998509,
				"z": -1.9175454343,
				"element": "H" 
			},
			{
				"x": -2.4224178604,
				"y": 4.6976635,
				"z": 0.4170229653,
				"element": "H" 
			},
			{
				"x": -0.99918661,
				"y": 4.171936144,
				"z": 1.3231686389,
				"element": "H" 
			},
			{
				"x": -1.1982877595,
				"y": 5.2178460897,
				"z": -1.536046692,
				"element": "H" 
			},
			{
				"x": -0.0571597965,
				"y": 5.6463346991,
				"z": -0.2753684076,
				"element": "H" 
			},
			{
				"x": -0.5614117465,
				"y": 0.5825573948,
				"z": 1.9729155474,
				"element": "H" 
			},
			{
				"x": -1.0652119325,
				"y": -5.3909263702,
				"z": 2.0076375623,
				"element": "H" 
			},
			{
				"x": -1.1511199115,
				"y": -3.8560267991,
				"z": 2.8898726687,
				"element": "H" 
			},
			{
				"x": 1.1729721722,
				"y": -4.4203365635,
				"z": 2.9126770467,
				"element": "H" 
			},
			{
				"x": 1.1847701587,
				"y": -4.9408749726,
				"z": 1.2241077277,
				"element": "H" 
			},
			{
				"x": 1.058615505,
				"y": -2.7150302798,
				"z": 0.3680979717,
				"element": "H" 
			},
			{
				"x": 2.1921824345,
				"y": -2.5779917365,
				"z": 1.7235522648,
				"element": "H" 
			},
			{
				"x": -3.4788011136,
				"y": -2.7756077561,
				"z": -0.2140279052,
				"element": "H" 
			},
			{
				"x": -4.1509415232,
				"y": -0.3490203003,
				"z": -0.2213667091,
				"element": "H" 
			}
		],
		 "valence_orbital": [ 
			{
				"type": "occ",
				"energy": -0.29411,
				"method": "rhf"
			},
			{
				"type": "occ",
				"energy": -0.27565,
				"method": "rhf"
			},
			{
				"type": "occ",
				"energy": -0.262,
				"method": "rhf"
			},
			{
				"type": "occ",
				"energy": -0.2475,
				"method": "rhf"
			},
			{
				"type": "occ",
				"energy": -0.23399,
				"method": "rhf"
			},
			{
				"type": "unocc",
				"energy": -0.03409,
				"method": "rhf"
			},
			{
				"type": "unocc",
				"energy": -0.01571,
				"method": "rhf"
			},
			{
				"type": "unocc",
				"energy": 0.00242,
				"method": "rhf"
			},
			{
				"type": "unocc",
				"energy": 0.03818,
				"method": "rhf"
			},
			{
				"type": "unocc",
				"energy": 0.05627,
				"method": "rhf"
			}
		],
		"cosmo_sigma_profile": { 
			"-0.025": 0.0,
			"-0.024": 0.0,
			"-0.023": 0.0,
			"-0.022": 0.0,
			"-0.021": 0.0,
			"-0.02": 0.0,
			"-0.019": 0.367720302778,
			"-0.018": 1.04751434062,
			"-0.017": 0.942295973369,
			"-0.016": 1.22265361776,
			"-0.015": 1.15696382659,
			"-0.014": 1.18258827337,
			"-0.013": 0.611650725935,
			"-0.012": 1.81109285539,
			"-0.011": 1.38458529985,
			"-0.01": 0.67240515487,
			"-0.009": 1.0853313784,
			"-0.008": 2.31584262998,
			"-0.007": 6.00854188446,
			"-0.006": 14.8652117766,
			"-0.005": 38.4152008168,
			"-0.004": 45.4109579633,
			"-0.003": 34.5686583596,
			"-0.002": 24.7264522982,
			"-0.001": 17.1541584983,
			"0.0": 14.8445575481,
			"0.001": 19.3465477354,
			"0.002": 20.8728930983,
			"0.003": 12.4519588643,
			"0.004": 10.6261148255,
			"0.005": 8.38608645467,
			"0.006": 5.88083563824,
			"0.007": 6.91496218531,
			"0.008": 8.58524679941,
			"0.009": 9.40360956182,
			"0.01": 12.6046934377,
			"0.011": 15.2950560459,
			"0.012": 9.76098381768,
			"0.013": 1.5131820132,
			"0.014": 0.01679715623,
			"0.015": 0.0,
			"0.016": 0.0,
			"0.017": 0.0,
			"0.018": 0.0,
			"0.019": 0.0,
			"0.02": 0.0,
			"0.021": 0.0,
			"0.022": 0.0,
			"0.023": 0.0,
			"0.024": 0.0,
			"0.025": 0.0
		}
	}
}
