{
	 "smiles": "COC(=O)CCC(O)=O", 
	 "Tm": 330.95, 
	 "num_atms": 17, 
	 "gaussian": { 
		 "optdone": 1, 
		 "sigma_profile": "yes", 
		 "theory": "DFT", 
		 "functional": "B3LYP", 
		 "basiset": "6-31G**", 
		 "properties": { 
			 "R2extent": 2803.2779, 
			 "electric_dipole_moment_norm": 4.07941945379, 
			 "electric_quadrupole_moment_norm": 27.5523595598, 
			 "total_energy": -496.266504221, 
			 "HOMO_LUMO_gap": 0.24456, 
			 "cosmo_polarized_energy": -15.8, 
			 "cosmo_cavitation_energy": 21.17, 
			 "cosmo_dispersion_energy": -15.38, 
			 "cosmo_repulsion_energy": 1.29, 
			 "cosmo_total_nonelectrostatic_energy": 7.08, 
			 "SMD_solvation_energy": 6.43 
		},
		"coords": [
			{
				"x": 0.4556848934,
				"y": 0.9430082299,
				"z": 0.6654277164,
				"element": "C" 
			},
			{
				"x": -0.6106733941,
				"y": 0.059391417,
				"z": 1.0766757995,
				"element": "O" 
			},
			{
				"x": -0.5988637848,
				"y": -1.1883771803,
				"z": 0.5199075533,
				"element": "C" 
			},
			{
				"x": 0.2516470328,
				"y": -1.5380851888,
				"z": -0.2616892552,
				"element": "O" 
			},
			{
				"x": -1.7706916332,
				"y": -2.0377261882,
				"z": 0.9753978952,
				"element": "C" 
			},
			{
				"x": -2.2578568243,
				"y": -1.8591329726,
				"z": 2.4342168235,
				"element": "C" 
			},
			{
				"x": -3.3667449581,
				"y": -0.823851194,
				"z": 2.6465478974,
				"element": "C" 
			},
			{
				"x": -3.1176282919,
				"y": 0.4252710951,
				"z": 2.2006338357,
				"element": "O" 
			},
			{
				"x": -4.4122632749,
				"y": -1.0939595405,
				"z": 3.1868896913,
				"element": "O" 
			},
			{
				"x": 0.4050648533,
				"y": 1.1182999433,
				"z": -0.4109564355,
				"element": "H" 
			},
			{
				"x": 1.4226491592,
				"y": 0.5019660415,
				"z": 0.9133882302,
				"element": "H" 
			},
			{
				"x": 0.2986330747,
				"y": 1.8689630393,
				"z": 1.2170790625,
				"element": "H" 
			},
			{
				"x": -1.4570453371,
				"y": -3.0706069853,
				"z": 0.8099466055,
				"element": "H" 
			},
			{
				"x": -2.5946963373,
				"y": -1.8560927798,
				"z": 0.2727576784,
				"element": "H" 
			},
			{
				"x": -2.6697895735,
				"y": -2.8043202503,
				"z": 2.7900706383,
				"element": "H" 
			},
			{
				"x": -1.4116867571,
				"y": -1.6091226954,
				"z": 3.0856474209,
				"element": "H" 
			},
			{
				"x": -2.218938847,
				"y": 0.4747752091,
				"z": 1.8238588426,
				"element": "H" 
			}
		],
		 "valence_orbital": [ 
			{
				"type": "occ",
				"energy": -0.35306,
				"method": "rhf"
			},
			{
				"type": "occ",
				"energy": -0.33489,
				"method": "rhf"
			},
			{
				"type": "occ",
				"energy": -0.30531,
				"method": "rhf"
			},
			{
				"type": "occ",
				"energy": -0.2992,
				"method": "rhf"
			},
			{
				"type": "occ",
				"energy": -0.26148,
				"method": "rhf"
			},
			{
				"type": "unocc",
				"energy": -0.01692,
				"method": "rhf"
			},
			{
				"type": "unocc",
				"energy": 0.01413,
				"method": "rhf"
			},
			{
				"type": "unocc",
				"energy": 0.06549,
				"method": "rhf"
			},
			{
				"type": "unocc",
				"energy": 0.09191,
				"method": "rhf"
			},
			{
				"type": "unocc",
				"energy": 0.10906,
				"method": "rhf"
			}
		],
		"cosmo_sigma_profile": { 
			"-0.025": 0.0,
			"-0.024": 0.0,
			"-0.023": 0.0,
			"-0.022": 0.0,
			"-0.021": 0.0,
			"-0.02": 0.0,
			"-0.019": 0.0,
			"-0.018": 0.0,
			"-0.017": 0.0,
			"-0.016": 0.0,
			"-0.015": 0.0,
			"-0.014": 0.0,
			"-0.013": 0.0,
			"-0.012": 0.0,
			"-0.011": 0.0,
			"-0.01": 0.0,
			"-0.009": 1.39598277272,
			"-0.008": 6.50472361185,
			"-0.007": 14.0866499431,
			"-0.006": 17.8303925138,
			"-0.005": 19.2911239848,
			"-0.004": 19.3541040207,
			"-0.003": 13.1949689079,
			"-0.002": 6.01746052317,
			"-0.001": 3.93107535107,
			"0.0": 4.54152887107,
			"0.001": 3.59783044752,
			"0.002": 3.45525350428,
			"0.003": 3.14667985623,
			"0.004": 2.90982541139,
			"0.005": 2.67323489105,
			"0.006": 4.05437776012,
			"0.007": 3.84994962368,
			"0.008": 3.43563043433,
			"0.009": 4.80425950891,
			"0.01": 5.98203186089,
			"0.011": 10.5423448673,
			"0.012": 8.00340935932,
			"0.013": 3.88999538718,
			"0.014": 0.575434177632,
			"0.015": 0.0,
			"0.016": 0.0,
			"0.017": 0.0,
			"0.018": 0.0,
			"0.019": 0.0,
			"0.02": 0.0,
			"0.021": 0.0,
			"0.022": 0.0,
			"0.023": 0.0,
			"0.024": 0.0,
			"0.025": 0.0
		}
	}
}
