{
	 "smiles": "CC1=CC(=NN=C1NCCN1CCOCC1)C1=CC=CC=C1", 
	 "Tm": 395.15, 
	 "num_atms": 44, 
	 "gaussian": { 
		 "optdone": 1, 
		 "sigma_profile": "yes", 
		 "theory": "DFT", 
		 "functional": "B3LYP", 
		 "basiset": "6-31G**", 
		 "properties": { 
			 "R2extent": 11597.2091, 
			 "electric_dipole_moment_norm": 3.42858820654, 
			 "electric_quadrupole_moment_norm": 17.3511884486, 
			 "total_energy": -955.251898335, 
			 "HOMO_LUMO_gap": 0.17069, 
			 "cosmo_polarized_energy": -16.64, 
			 "cosmo_cavitation_energy": 45.14, 
			 "cosmo_dispersion_energy": -32.06, 
			 "cosmo_repulsion_energy": 2.43, 
			 "cosmo_total_nonelectrostatic_energy": 15.51, 
			 "SMD_solvation_energy": 4.42 
		},
		"coords": [
			{
				"x": -0.6960598703,
				"y": 1.6941274505,
				"z": -1.1127156404,
				"element": "C" 
			},
			{
				"x": -1.0626644082,
				"y": 0.3154823175,
				"z": -0.6255800791,
				"element": "C" 
			},
			{
				"x": -2.3829032864,
				"y": -0.0922379087,
				"z": -0.5617840551,
				"element": "C" 
			},
			{
				"x": -2.7148615582,
				"y": -1.3536905969,
				"z": -0.0330918322,
				"element": "C" 
			},
			{
				"x": -1.7561193709,
				"y": -2.1742455089,
				"z": 0.422886556,
				"element": "N" 
			},
			{
				"x": -0.4822970756,
				"y": -1.8253281201,
				"z": 0.3410811457,
				"element": "N" 
			},
			{
				"x": -0.1149567558,
				"y": -0.6349700438,
				"z": -0.1639243139,
				"element": "C" 
			},
			{
				"x": 1.2585358067,
				"y": -0.3896043334,
				"z": -0.0905037776,
				"element": "N" 
			},
			{
				"x": 2.0423076495,
				"y": -0.0303245776,
				"z": -1.2789528378,
				"element": "C" 
			},
			{
				"x": 3.3505032977,
				"y": 0.6875293886,
				"z": -0.9310352887,
				"element": "C" 
			},
			{
				"x": 3.1548519472,
				"y": 2.0115635506,
				"z": -0.3358365002,
				"element": "N" 
			},
			{
				"x": 3.0872607397,
				"y": 1.9805002196,
				"z": 1.1313108798,
				"element": "C" 
			},
			{
				"x": 2.7929577761,
				"y": 3.3781042394,
				"z": 1.6690330047,
				"element": "C" 
			},
			{
				"x": 3.7662830442,
				"y": 4.3199575098,
				"z": 1.2363020711,
				"element": "O" 
			},
			{
				"x": 3.8332414164,
				"y": 4.3585317901,
				"z": -0.1812440143,
				"element": "C" 
			},
			{
				"x": 4.1654940973,
				"y": 2.9850255746,
				"z": -0.7611991947,
				"element": "C" 
			},
			{
				"x": -4.1111120904,
				"y": -1.8526097751,
				"z": 0.0602557867,
				"element": "C" 
			},
			{
				"x": -5.2151821056,
				"y": -0.98788393,
				"z": -0.0167648226,
				"element": "C" 
			},
			{
				"x": -6.5167090646,
				"y": -1.48143194,
				"z": 0.0683064109,
				"element": "C" 
			},
			{
				"x": -6.7404127607,
				"y": -2.8487827458,
				"z": 0.2343384123,
				"element": "C" 
			},
			{
				"x": -5.6496582312,
				"y": -3.7176897037,
				"z": 0.3206708861,
				"element": "C" 
			},
			{
				"x": -4.3493892068,
				"y": -3.2268813661,
				"z": 0.2364304567,
				"element": "C" 
			},
			{
				"x": 0.1938720944,
				"y": 2.0774596187,
				"z": -0.6059757878,
				"element": "H" 
			},
			{
				"x": -0.4836433249,
				"y": 1.7013541527,
				"z": -2.1891294488,
				"element": "H" 
			},
			{
				"x": -1.5253729511,
				"y": 2.3875293987,
				"z": -0.9451847738,
				"element": "H" 
			},
			{
				"x": -3.1604654467,
				"y": 0.5789615313,
				"z": -0.9131307235,
				"element": "H" 
			},
			{
				"x": 1.6764725652,
				"y": -1.1747305845,
				"z": 0.4032755669,
				"element": "H" 
			},
			{
				"x": 1.4495504329,
				"y": 0.6288920226,
				"z": -1.9127641358,
				"element": "H" 
			},
			{
				"x": 2.2792664314,
				"y": -0.9260351478,
				"z": -1.876693101,
				"element": "H" 
			},
			{
				"x": 3.9772936508,
				"y": 0.0402437214,
				"z": -0.2896918414,
				"element": "H" 
			},
			{
				"x": 3.9026915095,
				"y": 0.8080008014,
				"z": -1.8704849525,
				"element": "H" 
			},
			{
				"x": 4.0419483972,
				"y": 1.6237904195,
				"z": 1.5656806999,
				"element": "H" 
			},
			{
				"x": 2.2959100387,
				"y": 1.2903625393,
				"z": 1.4331207704,
				"element": "H" 
			},
			{
				"x": 1.7884180991,
				"y": 3.6944105896,
				"z": 1.3422515417,
				"element": "H" 
			},
			{
				"x": 2.8201695299,
				"y": 3.3816706736,
				"z": 2.7626051106,
				"element": "H" 
			},
			{
				"x": 2.8736049181,
				"y": 4.7053887411,
				"z": -0.5994439882,
				"element": "H" 
			},
			{
				"x": 4.6105963399,
				"y": 5.0839279375,
				"z": -0.4394032401,
				"element": "H" 
			},
			{
				"x": 5.1831685461,
				"y": 2.69577214,
				"z": -0.4348411486,
				"element": "H" 
			},
			{
				"x": 4.1695525637,
				"y": 3.0447878536,
				"z": -1.8561163869,
				"element": "H" 
			},
			{
				"x": -5.0668107681,
				"y": 0.0824795071,
				"z": -0.1217996763,
				"element": "H" 
			},
			{
				"x": -7.3561101916,
				"y": -0.7941215818,
				"z": 0.0114465246,
				"element": "H" 
			},
			{
				"x": -7.7542684323,
				"y": -3.2331827222,
				"z": 0.2995021988,
				"element": "H" 
			},
			{
				"x": -5.8129174491,
				"y": -4.7837487618,
				"z": 0.4519853997,
				"element": "H" 
			},
			{
				"x": -3.4977365434,
				"y": -3.8935543407,
				"z": 0.3078081391,
				"element": "H" 
			}
		],
		 "valence_orbital": [ 
			{
				"type": "occ",
				"energy": -0.2495,
				"method": "rhf"
			},
			{
				"type": "occ",
				"energy": -0.24684,
				"method": "rhf"
			},
			{
				"type": "occ",
				"energy": -0.2225,
				"method": "rhf"
			},
			{
				"type": "occ",
				"energy": -0.22161,
				"method": "rhf"
			},
			{
				"type": "occ",
				"energy": -0.21047,
				"method": "rhf"
			},
			{
				"type": "unocc",
				"energy": -0.03978,
				"method": "rhf"
			},
			{
				"type": "unocc",
				"energy": -0.03292,
				"method": "rhf"
			},
			{
				"type": "unocc",
				"energy": 0.00458,
				"method": "rhf"
			},
			{
				"type": "unocc",
				"energy": 0.03227,
				"method": "rhf"
			},
			{
				"type": "unocc",
				"energy": 0.07975,
				"method": "rhf"
			}
		],
		"cosmo_sigma_profile": { 
			"-0.025": 0.0,
			"-0.024": 0.0,
			"-0.023": 0.0,
			"-0.022": 0.0,
			"-0.021": 0.0,
			"-0.02": 0.0,
			"-0.019": 0.0,
			"-0.018": 0.0,
			"-0.017": 0.0,
			"-0.016": 0.0,
			"-0.015": 0.0,
			"-0.014": 0.0,
			"-0.013": 0.0,
			"-0.012": 0.0610612233405,
			"-0.011": 0.652314784328,
			"-0.01": 1.11095612979,
			"-0.009": 1.30597856692,
			"-0.008": 3.2401627248,
			"-0.007": 3.79210054473,
			"-0.006": 9.80468295046,
			"-0.005": 24.5123643698,
			"-0.004": 31.8617656061,
			"-0.003": 40.2417821169,
			"-0.002": 45.5816529357,
			"-0.001": 37.5149510738,
			"0.0": 28.4694140385,
			"0.001": 22.7399625753,
			"0.002": 17.0387440401,
			"0.003": 14.3491013862,
			"0.004": 16.7435271096,
			"0.005": 16.3581019614,
			"0.006": 8.46475965449,
			"0.007": 5.08920843776,
			"0.008": 4.11609878374,
			"0.009": 3.67495427341,
			"0.01": 3.03214899776,
			"0.011": 2.75237939331,
			"0.012": 2.90832347549,
			"0.013": 4.0230175113,
			"0.014": 3.3805802846,
			"0.015": 2.1981589093,
			"0.016": 0.614473612104,
			"0.017": 0.0,
			"0.018": 0.0,
			"0.019": 0.0,
			"0.02": 0.0,
			"0.021": 0.0,
			"0.022": 0.0,
			"0.023": 0.0,
			"0.024": 0.0,
			"0.025": 0.0
		}
	}
}
