{
	 "smiles": "COC1=C(OC)C=C(C=C1)C1=NC2=C(SC(=N2)N2CCCCC2)C(=C1)C(O)=O", 
	 "Tm": 558.15, 
	 "num_atms": 49, 
	 "gaussian": { 
		 "optdone": 1, 
		 "sigma_profile": "yes", 
		 "theory": "DFT", 
		 "functional": "B3LYP", 
		 "basiset": "6-31G**", 
		 "properties": { 
			 "R2extent": 18272.3333, 
			 "electric_dipole_moment_norm": 5.92848731044, 
			 "electric_quadrupole_moment_norm": 48.0379648126, 
			 "total_energy": -1638.1197099, 
			 "HOMO_LUMO_gap": 0.13998, 
			 "cosmo_polarized_energy": -23.19, 
			 "cosmo_cavitation_energy": 52.78, 
			 "cosmo_dispersion_energy": -38.62, 
			 "cosmo_repulsion_energy": 2.86, 
			 "cosmo_total_nonelectrostatic_energy": 17.02, 
			 "SMD_solvation_energy": 7.25 
		},
		"coords": [
			{
				"x": -0.2786603719,
				"y": -4.5755514277,
				"z": 6.1719448398,
				"element": "C" 
			},
			{
				"x": -1.2726534352,
				"y": -3.9252284656,
				"z": 5.3758517996,
				"element": "O" 
			},
			{
				"x": -0.824003824,
				"y": -2.9786628348,
				"z": 4.4913151144,
				"element": "C" 
			},
			{
				"x": -0.2307009184,
				"y": -1.7685693009,
				"z": 4.9216226593,
				"element": "C" 
			},
			{
				"x": -0.10263546,
				"y": -1.6095262169,
				"z": 6.2735250231,
				"element": "O" 
			},
			{
				"x": 0.4471008109,
				"y": -0.3943772453,
				"z": 6.7585889889,
				"element": "C" 
			},
			{
				"x": 0.1600256665,
				"y": -0.820537518,
				"z": 3.9766052308,
				"element": "C" 
			},
			{
				"x": -0.0404846321,
				"y": -1.0399458851,
				"z": 2.6001967065,
				"element": "C" 
			},
			{
				"x": -0.6566372713,
				"y": -2.2274923076,
				"z": 2.1884372865,
				"element": "C" 
			},
			{
				"x": -1.0327769179,
				"y": -3.1837088053,
				"z": 3.1295623165,
				"element": "C" 
			},
			{
				"x": 0.3791861301,
				"y": -0.0359217286,
				"z": 1.5888368399,
				"element": "C" 
			},
			{
				"x": -0.164452301,
				"y": -0.1577738832,
				"z": 0.3624507573,
				"element": "N" 
			},
			{
				"x": 0.1695075668,
				"y": 0.7259977845,
				"z": -0.5735675356,
				"element": "C" 
			},
			{
				"x": 1.0864592022,
				"y": 1.7925201843,
				"z": -0.3383235889,
				"element": "C" 
			},
			{
				"x": 1.2246807763,
				"y": 2.7847315366,
				"z": -1.7853379432,
				"element": "S" 
			},
			{
				"x": 0.087274967,
				"y": 1.6275495182,
				"z": -2.5966421309,
				"element": "C" 
			},
			{
				"x": -0.3577979968,
				"y": 0.6623219464,
				"z": -1.8463376461,
				"element": "N" 
			},
			{
				"x": -0.2552532245,
				"y": 1.8311169054,
				"z": -3.8863084649,
				"element": "N" 
			},
			{
				"x": 0.282299313,
				"y": 2.9515381899,
				"z": -4.6674543544,
				"element": "C" 
			},
			{
				"x": 0.1094056865,
				"y": 2.6799639377,
				"z": -6.1637918798,
				"element": "C" 
			},
			{
				"x": -1.3719065854,
				"y": 2.4892710591,
				"z": -6.5537534867,
				"element": "C" 
			},
			{
				"x": -2.1769947494,
				"y": 1.804043084,
				"z": -5.4225322595,
				"element": "C" 
			},
			{
				"x": -1.2840753519,
				"y": 0.9705040799,
				"z": -4.5007303652,
				"element": "C" 
			},
			{
				"x": 1.6893095168,
				"y": 1.9035900155,
				"z": 0.9152099574,
				"element": "C" 
			},
			{
				"x": 1.3110406841,
				"y": 0.9732611989,
				"z": 1.8885351178,
				"element": "C" 
			},
			{
				"x": 2.7080812067,
				"y": 2.9384190272,
				"z": 1.3024801054,
				"element": "C" 
			},
			{
				"x": 3.448993933,
				"y": 3.4788980477,
				"z": 0.3003426384,
				"element": "O" 
			},
			{
				"x": 2.8884802982,
				"y": 3.2862790808,
				"z": 2.444586754,
				"element": "O" 
			},
			{
				"x": 0.2271192108,
				"y": -3.8730558067,
				"z": 6.8397321808,
				"element": "H" 
			},
			{
				"x": -0.8089398678,
				"y": -5.3254885126,
				"z": 6.7626178471,
				"element": "H" 
			},
			{
				"x": 0.4632252442,
				"y": -5.0767940159,
				"z": 5.5365558769,
				"element": "H" 
			},
			{
				"x": 1.4767658829,
				"y": -0.2449840434,
				"z": 6.4087267892,
				"element": "H" 
			},
			{
				"x": 0.4460907802,
				"y": -0.47775443,
				"z": 7.8464386538,
				"element": "H" 
			},
			{
				"x": -0.1606734781,
				"y": 0.4699537947,
				"z": 6.4625655967,
				"element": "H" 
			},
			{
				"x": 0.5888455169,
				"y": 0.1146616883,
				"z": 4.3124612827,
				"element": "H" 
			},
			{
				"x": -0.8264836119,
				"y": -2.3905942733,
				"z": 1.1310686755,
				"element": "H" 
			},
			{
				"x": -1.5038715972,
				"y": -4.1134636453,
				"z": 2.8265278808,
				"element": "H" 
			},
			{
				"x": -0.2192574482,
				"y": 3.8909920164,
				"z": -4.3884268646,
				"element": "H" 
			},
			{
				"x": 1.3467162696,
				"y": 3.0692512327,
				"z": -4.4337331558,
				"element": "H" 
			},
			{
				"x": 0.6851118409,
				"y": 1.7824897741,
				"z": -6.4176244886,
				"element": "H" 
			},
			{
				"x": 0.5559119453,
				"y": 3.5057265972,
				"z": -6.7265997,
				"element": "H" 
			},
			{
				"x": -1.4229801624,
				"y": 1.8961684341,
				"z": -7.4730324117,
				"element": "H" 
			},
			{
				"x": -1.8256364768,
				"y": 3.4587371061,
				"z": -6.7866317632,
				"element": "H" 
			},
			{
				"x": -2.6866665564,
				"y": 2.5582812364,
				"z": -4.8120081338,
				"element": "H" 
			},
			{
				"x": -2.9591134074,
				"y": 1.1598614078,
				"z": -5.8370153293,
				"element": "H" 
			},
			{
				"x": -0.8013989167,
				"y": 0.1537656842,
				"z": -5.055132018,
				"element": "H" 
			},
			{
				"x": -1.854467212,
				"y": 0.5165529324,
				"z": -3.6897505615,
				"element": "H" 
			},
			{
				"x": 1.7792904269,
				"y": 1.0476132129,
				"z": 2.8611330769,
				"element": "H" 
			},
			{
				"x": 3.3246988991,
				"y": 2.9905696328,
				"z": -0.528385914,
				"element": "H" 
			}
		],
		 "valence_orbital": [ 
			{
				"type": "occ",
				"energy": -0.26195,
				"method": "rhf"
			},
			{
				"type": "occ",
				"energy": -0.25686,
				"method": "rhf"
			},
			{
				"type": "occ",
				"energy": -0.23609,
				"method": "rhf"
			},
			{
				"type": "occ",
				"energy": -0.21891,
				"method": "rhf"
			},
			{
				"type": "occ",
				"energy": -0.20114,
				"method": "rhf"
			},
			{
				"type": "unocc",
				"energy": -0.06116,
				"method": "rhf"
			},
			{
				"type": "unocc",
				"energy": -0.03306,
				"method": "rhf"
			},
			{
				"type": "unocc",
				"energy": -0.01007,
				"method": "rhf"
			},
			{
				"type": "unocc",
				"energy": 0.00024,
				"method": "rhf"
			},
			{
				"type": "unocc",
				"energy": 0.01502,
				"method": "rhf"
			}
		],
		"cosmo_sigma_profile": { 
			"-0.025": 0.0,
			"-0.024": 0.0,
			"-0.023": 0.0,
			"-0.022": 0.0,
			"-0.021": 0.0,
			"-0.02": 0.0,
			"-0.019": 0.0,
			"-0.018": 0.0,
			"-0.017": 0.0716438830923,
			"-0.016": 0.643867356626,
			"-0.015": 1.24655250094,
			"-0.014": 0.63188442293,
			"-0.013": 0.502574885212,
			"-0.012": 1.13605400587,
			"-0.011": 1.16698282213,
			"-0.01": 0.820796187286,
			"-0.009": 1.31508892465,
			"-0.008": 2.02972667773,
			"-0.007": 3.55096143608,
			"-0.006": 12.2262625257,
			"-0.005": 26.9908899513,
			"-0.004": 45.6374813652,
			"-0.003": 54.9559081461,
			"-0.002": 45.7501653772,
			"-0.001": 36.0445424658,
			"0.0": 31.3012514134,
			"0.001": 24.6092381281,
			"0.002": 20.5268695695,
			"0.003": 19.3537732207,
			"0.004": 17.5768476858,
			"0.005": 13.8599254882,
			"0.006": 8.04432002424,
			"0.007": 6.93996099226,
			"0.008": 7.63427628893,
			"0.009": 8.41833103915,
			"0.01": 9.43963552049,
			"0.011": 8.98846723027,
			"0.012": 4.87292056706,
			"0.013": 2.24499758631,
			"0.014": 1.84443515374,
			"0.015": 0.657377424191,
			"0.016": 0.0,
			"0.017": 0.0,
			"0.018": 0.0,
			"0.019": 0.0,
			"0.02": 0.0,
			"0.021": 0.0,
			"0.022": 0.0,
			"0.023": 0.0,
			"0.024": 0.0,
			"0.025": 0.0
		}
	}
}
