{
	 "smiles": "COC(=O)C1=CC(O)=C(C)C=C1", 
	 "Tm": 393.15, 
	 "num_atms": 22, 
	 "gaussian": { 
		 "optdone": 1, 
		 "sigma_profile": "yes", 
		 "theory": "DFT", 
		 "functional": "B3LYP", 
		 "basiset": "6-31G**", 
		 "properties": { 
			 "R2extent": 2910.88, 
			 "electric_dipole_moment_norm": 2.73213481732, 
			 "electric_quadrupole_moment_norm": 18.1142495533, 
			 "total_energy": -574.670696131, 
			 "HOMO_LUMO_gap": 0.18501, 
			 "cosmo_polarized_energy": -11.85, 
			 "cosmo_cavitation_energy": 26.13, 
			 "cosmo_dispersion_energy": -19.31, 
			 "cosmo_repulsion_energy": 1.53, 
			 "cosmo_total_nonelectrostatic_energy": 8.36, 
			 "SMD_solvation_energy": 6.34 
		},
		"coords": [
			{
				"x": 3.7709648198,
				"y": -2.650906988,
				"z": 0.9636726719,
				"element": "C" 
			},
			{
				"x": 2.6260010438,
				"y": -1.8484241073,
				"z": 0.6423822648,
				"element": "O" 
			},
			{
				"x": 1.4287810899,
				"y": -2.4480845883,
				"z": 0.8426520734,
				"element": "C" 
			},
			{
				"x": 1.3215196077,
				"y": -3.5840958216,
				"z": 1.2636901486,
				"element": "O" 
			},
			{
				"x": 0.2806800079,
				"y": -1.5658600071,
				"z": 0.4913294988,
				"element": "C" 
			},
			{
				"x": 0.4633769973,
				"y": -0.2655853922,
				"z": 0.0105069652,
				"element": "C" 
			},
			{
				"x": -0.6455115526,
				"y": 0.520208326,
				"z": -0.3039788336,
				"element": "C" 
			},
			{
				"x": -0.3948147792,
				"y": 1.7823404948,
				"z": -0.769243511,
				"element": "O" 
			},
			{
				"x": -1.954067829,
				"y": 0.0242433399,
				"z": -0.1448953644,
				"element": "C" 
			},
			{
				"x": -3.1441473482,
				"y": 0.8863489436,
				"z": -0.4893993401,
				"element": "C" 
			},
			{
				"x": -2.1087096537,
				"y": -1.2810731101,
				"z": 0.3383496183,
				"element": "C" 
			},
			{
				"x": -1.0131659941,
				"y": -2.0767707398,
				"z": 0.6562685547,
				"element": "C" 
			},
			{
				"x": 3.7896558615,
				"y": -3.5583754734,
				"z": 0.354539821,
				"element": "H" 
			},
			{
				"x": 3.7573832193,
				"y": -2.9383081164,
				"z": 2.0182368752,
				"element": "H" 
			},
			{
				"x": 4.638243656,
				"y": -2.0268810916,
				"z": 0.747919521,
				"element": "H" 
			},
			{
				"x": 1.4561343022,
				"y": 0.1458971229,
				"z": -0.1232519974,
				"element": "H" 
			},
			{
				"x": -1.2287857438,
				"y": 2.2318289513,
				"z": -0.9532201479,
				"element": "H" 
			},
			{
				"x": -4.079155762,
				"y": 0.3514083419,
				"z": -0.3084054901,
				"element": "H" 
			},
			{
				"x": -3.1756136449,
				"y": 1.8042998952,
				"z": 0.1136255066,
				"element": "H" 
			},
			{
				"x": -3.1431019981,
				"y": 1.1857837339,
				"z": -1.5465690207,
				"element": "H" 
			},
			{
				"x": -3.1142231521,
				"y": -1.674160673,
				"z": 0.4650442273,
				"element": "H" 
			},
			{
				"x": -1.1354431474,
				"y": -3.086733041,
				"z": 1.0301459585,
				"element": "H" 
			}
		],
		 "valence_orbital": [ 
			{
				"type": "occ",
				"energy": -0.332,
				"method": "rhf"
			},
			{
				"type": "occ",
				"energy": -0.29612,
				"method": "rhf"
			},
			{
				"type": "occ",
				"energy": -0.26797,
				"method": "rhf"
			},
			{
				"type": "occ",
				"energy": -0.25218,
				"method": "rhf"
			},
			{
				"type": "occ",
				"energy": -0.22423,
				"method": "rhf"
			},
			{
				"type": "unocc",
				"energy": -0.03922,
				"method": "rhf"
			},
			{
				"type": "unocc",
				"energy": 0.00583,
				"method": "rhf"
			},
			{
				"type": "unocc",
				"energy": 0.05972,
				"method": "rhf"
			},
			{
				"type": "unocc",
				"energy": 0.06465,
				"method": "rhf"
			},
			{
				"type": "unocc",
				"energy": 0.10384,
				"method": "rhf"
			}
		],
		"cosmo_sigma_profile": { 
			"-0.025": 0.0,
			"-0.024": 0.0,
			"-0.023": 0.0,
			"-0.022": 0.0,
			"-0.021": 0.0,
			"-0.02": 0.0,
			"-0.019": 0.0,
			"-0.018": 0.0,
			"-0.017": 0.0238819591096,
			"-0.016": 0.752908265121,
			"-0.015": 0.830759308785,
			"-0.014": 0.958775776636,
			"-0.013": 0.871513929494,
			"-0.012": 1.07251805817,
			"-0.011": 0.780176207192,
			"-0.01": 1.60141442623,
			"-0.009": 1.9006095366,
			"-0.008": 0.813294265368,
			"-0.007": 2.21468972243,
			"-0.006": 10.5333448226,
			"-0.005": 16.1875304726,
			"-0.004": 16.5794196309,
			"-0.003": 18.4520004553,
			"-0.002": 14.7360027254,
			"-0.001": 16.2396581956,
			"0.0": 12.4076748229,
			"0.001": 10.2004514796,
			"0.002": 13.7548792586,
			"0.003": 17.7678771698,
			"0.004": 14.2208734234,
			"0.005": 7.59694367444,
			"0.006": 4.43874484411,
			"0.007": 2.47113941327,
			"0.008": 3.42301421603,
			"0.009": 3.26790765052,
			"0.01": 3.50907697566,
			"0.011": 4.0139923355,
			"0.012": 5.21127353979,
			"0.013": 0.585277404866,
			"0.014": 0.0,
			"0.015": 0.0,
			"0.016": 0.0,
			"0.017": 0.0,
			"0.018": 0.0,
			"0.019": 0.0,
			"0.02": 0.0,
			"0.021": 0.0,
			"0.022": 0.0,
			"0.023": 0.0,
			"0.024": 0.0,
			"0.025": 0.0
		}
	}
}
