{
	 "smiles": "CC(=O)CC(=O)NC1=C(F)C=CC=C1", 
	 "Tm": 349.15, 
	 "num_atms": 24, 
	 "gaussian": { 
		 "optdone": 1, 
		 "sigma_profile": "yes", 
		 "theory": "DFT", 
		 "functional": "B3LYP", 
		 "basiset": "6-31G**", 
		 "properties": { 
			 "R2extent": 4068.5144, 
			 "electric_dipole_moment_norm": 2.11985473795, 
			 "electric_quadrupole_moment_norm": 14.6890092419, 
			 "total_energy": -692.138523401, 
			 "HOMO_LUMO_gap": 0.19705, 
			 "cosmo_polarized_energy": -11.33, 
			 "cosmo_cavitation_energy": 28.54, 
			 "cosmo_dispersion_energy": -20.4, 
			 "cosmo_repulsion_energy": 1.58, 
			 "cosmo_total_nonelectrostatic_energy": 9.72, 
			 "SMD_solvation_energy": 6.68 
		},
		"coords": [
			{
				"x": -1.1552166494,
				"y": 4.1460038887,
				"z": 2.2095973701,
				"element": "C" 
			},
			{
				"x": -1.1146642328,
				"y": 2.8771502867,
				"z": 1.3934939669,
				"element": "C" 
			},
			{
				"x": -2.0765523458,
				"y": 2.4489113337,
				"z": 0.7825466318,
				"element": "O" 
			},
			{
				"x": 0.2195518662,
				"y": 2.1140681276,
				"z": 1.3974019077,
				"element": "C" 
			},
			{
				"x": 0.3450575555,
				"y": 1.3021220388,
				"z": 2.6863083855,
				"element": "C" 
			},
			{
				"x": 0.5929732266,
				"y": 1.8506157545,
				"z": 3.7526564157,
				"element": "O" 
			},
			{
				"x": 0.1806348658,
				"y": -0.0647260084,
				"z": 2.6351622198,
				"element": "N" 
			},
			{
				"x": -0.0993219799,
				"y": -0.9512641619,
				"z": 1.5734922239,
				"element": "C" 
			},
			{
				"x": 0.5489634879,
				"y": -2.1950175625,
				"z": 1.5879822464,
				"element": "C" 
			},
			{
				"x": 1.4083390151,
				"y": -2.4445809988,
				"z": 2.6054398551,
				"element": "F" 
			},
			{
				"x": 0.3304049582,
				"y": -3.1644529549,
				"z": 0.6239012101,
				"element": "C" 
			},
			{
				"x": -0.5672760122,
				"y": -2.8917666024,
				"z": -0.4112003448,
				"element": "C" 
			},
			{
				"x": -1.2376150173,
				"y": -1.6687219801,
				"z": -0.4424675432,
				"element": "C" 
			},
			{
				"x": -1.0260513362,
				"y": -0.7084280914,
				"z": 0.5498484558,
				"element": "C" 
			},
			{
				"x": -0.7396442526,
				"y": 3.9505917246,
				"z": 3.2040775765,
				"element": "H" 
			},
			{
				"x": -2.1772065829,
				"y": 4.5211070817,
				"z": 2.2754063838,
				"element": "H" 
			},
			{
				"x": -0.5158709309,
				"y": 4.9043019935,
				"z": 1.7408657898,
				"element": "H" 
			},
			{
				"x": 0.285640022,
				"y": 1.4986064345,
				"z": 0.5010546351,
				"element": "H" 
			},
			{
				"x": 1.0498120065,
				"y": 2.8251153972,
				"z": 1.4226079736,
				"element": "H" 
			},
			{
				"x": 0.4422931232,
				"y": -0.5025007117,
				"z": 3.5111212654,
				"element": "H" 
			},
			{
				"x": 0.8646539283,
				"y": -4.1058564523,
				"z": 0.6924128465,
				"element": "H" 
			},
			{
				"x": -0.746422794,
				"y": -3.6377540218,
				"z": -1.1788357591,
				"element": "H" 
			},
			{
				"x": -1.9518641937,
				"y": -1.459996933,
				"z": -1.232656748,
				"element": "H" 
			},
			{
				"x": -1.5853177276,
				"y": 0.2215724176,
				"z": 0.5339830357,
				"element": "H" 
			}
		],
		 "valence_orbital": [ 
			{
				"type": "occ",
				"energy": -0.3102,
				"method": "rhf"
			},
			{
				"type": "occ",
				"energy": -0.2705,
				"method": "rhf"
			},
			{
				"type": "occ",
				"energy": -0.25927,
				"method": "rhf"
			},
			{
				"type": "occ",
				"energy": -0.25663,
				"method": "rhf"
			},
			{
				"type": "occ",
				"energy": -0.23388,
				"method": "rhf"
			},
			{
				"type": "unocc",
				"energy": -0.03683,
				"method": "rhf"
			},
			{
				"type": "unocc",
				"energy": -0.01871,
				"method": "rhf"
			},
			{
				"type": "unocc",
				"energy": -0.00867,
				"method": "rhf"
			},
			{
				"type": "unocc",
				"energy": 0.02652,
				"method": "rhf"
			},
			{
				"type": "unocc",
				"energy": 0.07691,
				"method": "rhf"
			}
		],
		"cosmo_sigma_profile": { 
			"-0.025": 0.0,
			"-0.024": 0.0,
			"-0.023": 0.0,
			"-0.022": 0.0,
			"-0.021": 0.0,
			"-0.02": 0.0,
			"-0.019": 0.0,
			"-0.018": 0.0,
			"-0.017": 0.0,
			"-0.016": 0.0,
			"-0.015": 0.0,
			"-0.014": 0.204574046886,
			"-0.013": 0.606895797646,
			"-0.012": 0.691711534341,
			"-0.011": 0.732642004122,
			"-0.01": 1.00775874756,
			"-0.009": 1.01272816614,
			"-0.008": 3.15234372861,
			"-0.007": 8.41896937071,
			"-0.006": 12.4872273248,
			"-0.005": 16.5273304062,
			"-0.004": 20.0584631643,
			"-0.003": 16.9035281372,
			"-0.002": 16.4388632401,
			"-0.001": 17.8807710684,
			"0.0": 16.22476194,
			"0.001": 15.3469002639,
			"0.002": 14.6703248075,
			"0.003": 15.3852164786,
			"0.004": 16.5272151223,
			"0.005": 4.94195123313,
			"0.006": 2.3704240423,
			"0.007": 2.80635832106,
			"0.008": 3.28974508815,
			"0.009": 3.11198214488,
			"0.01": 3.540039779,
			"0.011": 4.61265616137,
			"0.012": 5.1701558844,
			"0.013": 3.67874275816,
			"0.014": 0.195316268157,
			"0.015": 0.0,
			"0.016": 0.0,
			"0.017": 0.0,
			"0.018": 0.0,
			"0.019": 0.0,
			"0.02": 0.0,
			"0.021": 0.0,
			"0.022": 0.0,
			"0.023": 0.0,
			"0.024": 0.0,
			"0.025": 0.0
		}
	}
}
