{
	 "smiles": "COCCN1C(=O)C2=C(C=C(C=C2)C(O)=O)S1(=O)=O", 
	 "Tm": 425.15, 
	 "num_atms": 30, 
	 "gaussian": { 
		 "optdone": 1, 
		 "sigma_profile": "yes", 
		 "theory": "DFT", 
		 "functional": "B3LYP", 
		 "basiset": "6-31G**", 
		 "properties": { 
			 "R2extent": 7425.5173, 
			 "electric_dipole_moment_norm": 1.21295844529, 
			 "electric_quadrupole_moment_norm": 16.6232481952, 
			 "total_energy": -1330.01786254, 
			 "HOMO_LUMO_gap": 0.16428, 
			 "cosmo_polarized_energy": -20.13, 
			 "cosmo_cavitation_energy": 36.49, 
			 "cosmo_dispersion_energy": -26.11, 
			 "cosmo_repulsion_energy": 1.95, 
			 "cosmo_total_nonelectrostatic_energy": 12.33, 
			 "SMD_solvation_energy": 7.54 
		},
		"coords": [
			{
				"x": 1.0039535323,
				"y": -1.6664308432,
				"z": -4.2811670758,
				"element": "C" 
			},
			{
				"x": 0.3221539899,
				"y": -2.2269677964,
				"z": -3.1762980069,
				"element": "O" 
			},
			{
				"x": 1.1481516221,
				"y": -2.4748205725,
				"z": -2.0608130521,
				"element": "C" 
			},
			{
				"x": 0.2422621654,
				"y": -2.68734565,
				"z": -0.8583798456,
				"element": "C" 
			},
			{
				"x": -0.3519862817,
				"y": -1.4442724342,
				"z": -0.351270868,
				"element": "N" 
			},
			{
				"x": -0.2395397663,
				"y": -1.0874018867,
				"z": 0.9914083475,
				"element": "C" 
			},
			{
				"x": 0.5089677589,
				"y": -1.6234433068,
				"z": 1.7891941039,
				"element": "O" 
			},
			{
				"x": -1.1880256139,
				"y": 0.0214913109,
				"z": 1.2983216356,
				"element": "C" 
			},
			{
				"x": -1.9930408643,
				"y": 0.3820065846,
				"z": 0.2226246234,
				"element": "C" 
			},
			{
				"x": -2.9473664354,
				"y": 1.3839386879,
				"z": 0.3072367479,
				"element": "C" 
			},
			{
				"x": -3.0904470578,
				"y": 2.0257622608,
				"z": 1.5472109603,
				"element": "C" 
			},
			{
				"x": -2.287298847,
				"y": 1.6662809748,
				"z": 2.6428414388,
				"element": "C" 
			},
			{
				"x": -1.3288019994,
				"y": 0.6616885172,
				"z": 2.5275399637,
				"element": "C" 
			},
			{
				"x": -4.0939671125,
				"y": 3.1121611992,
				"z": 1.7527102874,
				"element": "C" 
			},
			{
				"x": -4.8135029063,
				"y": 3.3759679294,
				"z": 0.6389494485,
				"element": "O" 
			},
			{
				"x": -4.2579231744,
				"y": 3.7038131252,
				"z": 2.7991543854,
				"element": "O" 
			},
			{
				"x": -1.5697080006,
				"y": -0.5709876558,
				"z": -1.2316022215,
				"element": "S" 
			},
			{
				"x": -0.9712600099,
				"y": 0.3212874884,
				"z": -2.2208744653,
				"element": "O" 
			},
			{
				"x": -2.6311749669,
				"y": -1.499436157,
				"z": -1.6150012885,
				"element": "O" 
			},
			{
				"x": 0.2636116769,
				"y": -1.5161753064,
				"z": -5.0691226555,
				"element": "H" 
			},
			{
				"x": 1.4529666781,
				"y": -0.6960722102,
				"z": -4.0255619335,
				"element": "H" 
			},
			{
				"x": 1.7938075747,
				"y": -2.3368241504,
				"z": -4.6540676325,
				"element": "H" 
			},
			{
				"x": 1.7621931772,
				"y": -3.3784827378,
				"z": -2.2160695985,
				"element": "H" 
			},
			{
				"x": 1.8313645669,
				"y": -1.6326380561,
				"z": -1.870221353,
				"element": "H" 
			},
			{
				"x": 0.8051191508,
				"y": -3.0947753916,
				"z": -0.0151323814,
				"element": "H" 
			},
			{
				"x": -0.5580384615,
				"y": -3.3857658457,
				"z": -1.1263277279,
				"element": "H" 
			},
			{
				"x": -3.5640885541,
				"y": 1.6651154572,
				"z": -0.5379093646,
				"element": "H" 
			},
			{
				"x": -2.436652072,
				"y": 2.1939633594,
				"z": 3.5784321791,
				"element": "H" 
			},
			{
				"x": -0.7000011279,
				"y": 0.3699075166,
				"z": 3.3617405701,
				"element": "H" 
			},
			{
				"x": -5.4303286415,
				"y": 4.0889555892,
				"z": 0.8734547788,
				"element": "H" 
			}
		],
		 "valence_orbital": [ 
			{
				"type": "occ",
				"energy": -0.29685,
				"method": "rhf"
			},
			{
				"type": "occ",
				"energy": -0.2901,
				"method": "rhf"
			},
			{
				"type": "occ",
				"energy": -0.28771,
				"method": "rhf"
			},
			{
				"type": "occ",
				"energy": -0.27914,
				"method": "rhf"
			},
			{
				"type": "occ",
				"energy": -0.25984,
				"method": "rhf"
			},
			{
				"type": "unocc",
				"energy": -0.09556,
				"method": "rhf"
			},
			{
				"type": "unocc",
				"energy": -0.05535,
				"method": "rhf"
			},
			{
				"type": "unocc",
				"energy": -0.01257,
				"method": "rhf"
			},
			{
				"type": "unocc",
				"energy": 0.03443,
				"method": "rhf"
			},
			{
				"type": "unocc",
				"energy": 0.03901,
				"method": "rhf"
			}
		],
		"cosmo_sigma_profile": { 
			"-0.025": 0.0,
			"-0.024": 0.0,
			"-0.023": 0.0,
			"-0.022": 0.0,
			"-0.021": 0.0,
			"-0.02": 0.0,
			"-0.019": 0.650296375669,
			"-0.018": 0.848918132306,
			"-0.017": 0.766026344156,
			"-0.016": 0.955442091734,
			"-0.015": 1.18790985251,
			"-0.014": 0.438232501515,
			"-0.013": 0.419998030109,
			"-0.012": 0.943890515305,
			"-0.011": 1.25795013514,
			"-0.01": 1.61082077113,
			"-0.009": 2.43534599606,
			"-0.008": 5.11985681722,
			"-0.007": 8.70135825755,
			"-0.006": 11.6415545796,
			"-0.005": 21.3629452141,
			"-0.004": 29.111247013,
			"-0.003": 28.0204185683,
			"-0.002": 32.1972662192,
			"-0.001": 22.5290871964,
			"0.0": 14.0622879427,
			"0.001": 9.12656131072,
			"0.002": 6.38670414928,
			"0.003": 8.63396298171,
			"0.004": 7.77929810527,
			"0.005": 6.78476130527,
			"0.006": 8.64433498685,
			"0.007": 6.19292170705,
			"0.008": 9.73879163706,
			"0.009": 16.9412739781,
			"0.01": 14.974086355,
			"0.011": 10.3334674061,
			"0.012": 1.09307343741,
			"0.013": 0.0219255185265,
			"0.014": 0.0,
			"0.015": 0.0,
			"0.016": 0.0,
			"0.017": 0.0,
			"0.018": 0.0,
			"0.019": 0.0,
			"0.02": 0.0,
			"0.021": 0.0,
			"0.022": 0.0,
			"0.023": 0.0,
			"0.024": 0.0,
			"0.025": 0.0
		}
	}
}
