{
	 "smiles": "CC(C)(C)C1=C2OCC(=O)C2=CC=C1", 
	 "Tm": 343.15, 
	 "num_atms": 28, 
	 "gaussian": { 
		 "optdone": 1, 
		 "sigma_profile": "yes", 
		 "theory": "DFT", 
		 "functional": "B3LYP", 
		 "basiset": "6-31G**", 
		 "properties": { 
			 "R2extent": 3103.2263, 
			 "electric_dipole_moment_norm": 2.6991269959, 
			 "electric_quadrupole_moment_norm": 10.9580790716, 
			 "total_energy": -616.167632367, 
			 "HOMO_LUMO_gap": 0.17313, 
			 "cosmo_polarized_energy": -8.09, 
			 "cosmo_cavitation_energy": 29.68, 
			 "cosmo_dispersion_energy": -21.32, 
			 "cosmo_repulsion_energy": 1.66, 
			 "cosmo_total_nonelectrostatic_energy": 10.02, 
			 "SMD_solvation_energy": 6.07 
		},
		"coords": [
			{
				"x": -0.765948005,
				"y": 1.0191808608,
				"z": 2.6077550559,
				"element": "C" 
			},
			{
				"x": -1.8135935048,
				"y": 1.0416910873,
				"z": 1.4677742047,
				"element": "C" 
			},
			{
				"x": -3.2132886818,
				"y": 1.1293057754,
				"z": 2.104728633,
				"element": "C" 
			},
			{
				"x": -1.6029442203,
				"y": 2.3011784986,
				"z": 0.5919610006,
				"element": "C" 
			},
			{
				"x": -1.6568190976,
				"y": -0.2181316485,
				"z": 0.6012257753,
				"element": "C" 
			},
			{
				"x": -0.4635484242,
				"y": -0.5183210599,
				"z": -0.0849964139,
				"element": "C" 
			},
			{
				"x": 0.659264207,
				"y": 0.2669962061,
				"z": -0.0511201493,
				"element": "O" 
			},
			{
				"x": 1.6705112406,
				"y": -0.3551057294,
				"z": -0.8663373017,
				"element": "C" 
			},
			{
				"x": 1.0482701614,
				"y": -1.6441514037,
				"z": -1.4287107517,
				"element": "C" 
			},
			{
				"x": 1.6057766907,
				"y": -2.4372911987,
				"z": -2.1648237845,
				"element": "O" 
			},
			{
				"x": -0.3091420076,
				"y": -1.6617081032,
				"z": -0.8767031272,
				"element": "C" 
			},
			{
				"x": -1.3474111931,
				"y": -2.584345702,
				"z": -1.0329839749,
				"element": "C" 
			},
			{
				"x": -2.5379806611,
				"y": -2.3222494864,
				"z": -0.3720197754,
				"element": "C" 
			},
			{
				"x": -2.6732662521,
				"y": -1.1657809077,
				"z": 0.420100419,
				"element": "C" 
			},
			{
				"x": 0.252672299,
				"y": 0.9892171105,
				"z": 2.215928773,
				"element": "H" 
			},
			{
				"x": -0.8671728247,
				"y": 1.9175583313,
				"z": 3.2269643039,
				"element": "H" 
			},
			{
				"x": -0.9120547718,
				"y": 0.1466074103,
				"z": 3.2533954837,
				"element": "H" 
			},
			{
				"x": -3.278917546,
				"y": 2.0383363885,
				"z": 2.7108598644,
				"element": "H" 
			},
			{
				"x": -3.4185998022,
				"y": 0.2793298286,
				"z": 2.7641739787,
				"element": "H" 
			},
			{
				"x": -4.0056857201,
				"y": 1.1797006537,
				"z": 1.3503790469,
				"element": "H" 
			},
			{
				"x": -2.349374665,
				"y": 2.3481317669,
				"z": -0.2081744892,
				"element": "H" 
			},
			{
				"x": -0.6107725188,
				"y": 2.3116191851,
				"z": 0.1364080991,
				"element": "H" 
			},
			{
				"x": -1.7070998883,
				"y": 3.2043229755,
				"z": 1.2037177448,
				"element": "H" 
			},
			{
				"x": 2.5476605394,
				"y": -0.5717263213,
				"z": -0.2482843071,
				"element": "H" 
			},
			{
				"x": 1.9590553673,
				"y": 0.3320161499,
				"z": -1.6681479557,
				"element": "H" 
			},
			{
				"x": -1.2053093338,
				"y": -3.4644790378,
				"z": -1.6520804461,
				"element": "H" 
			},
			{
				"x": -3.3775781162,
				"y": -3.0049285063,
				"z": -0.4580127511,
				"element": "H" 
			},
			{
				"x": -3.6243032708,
				"y": -1.0074731235,
				"z": 0.9156228448,
				"element": "H" 
			}
		],
		 "valence_orbital": [ 
			{
				"type": "occ",
				"energy": -0.32611,
				"method": "rhf"
			},
			{
				"type": "occ",
				"energy": -0.32395,
				"method": "rhf"
			},
			{
				"type": "occ",
				"energy": -0.25869,
				"method": "rhf"
			},
			{
				"type": "occ",
				"energy": -0.24825,
				"method": "rhf"
			},
			{
				"type": "occ",
				"energy": -0.23135,
				"method": "rhf"
			},
			{
				"type": "unocc",
				"energy": -0.05822,
				"method": "rhf"
			},
			{
				"type": "unocc",
				"energy": -0.0018,
				"method": "rhf"
			},
			{
				"type": "unocc",
				"energy": 0.04207,
				"method": "rhf"
			},
			{
				"type": "unocc",
				"energy": 0.08396,
				"method": "rhf"
			},
			{
				"type": "unocc",
				"energy": 0.09388,
				"method": "rhf"
			}
		],
		"cosmo_sigma_profile": { 
			"-0.025": 0.0,
			"-0.024": 0.0,
			"-0.023": 0.0,
			"-0.022": 0.0,
			"-0.021": 0.0,
			"-0.02": 0.0,
			"-0.019": 0.0,
			"-0.018": 0.0,
			"-0.017": 0.0,
			"-0.016": 0.0,
			"-0.015": 0.0,
			"-0.014": 0.0,
			"-0.013": 0.0,
			"-0.012": 0.0,
			"-0.011": 0.0,
			"-0.01": 0.0,
			"-0.009": 0.551620443962,
			"-0.008": 5.01052475064,
			"-0.007": 5.32494907526,
			"-0.006": 9.14180959061,
			"-0.005": 10.5637777889,
			"-0.004": 12.2019995569,
			"-0.003": 21.1344933949,
			"-0.002": 23.9758930825,
			"-0.001": 20.8697991571,
			"0.0": 23.319452867,
			"0.001": 33.9816079929,
			"0.002": 20.4572952816,
			"0.003": 13.5684001553,
			"0.004": 10.6118424489,
			"0.005": 3.4147961915,
			"0.006": 2.23696341224,
			"0.007": 2.34508766116,
			"0.008": 1.06675544675,
			"0.009": 1.63818738599,
			"0.01": 1.95374041495,
			"0.011": 3.2893790389,
			"0.012": 5.25612778335,
			"0.013": 1.96962806572,
			"0.014": 0.012524843945,
			"0.015": 0.0,
			"0.016": 0.0,
			"0.017": 0.0,
			"0.018": 0.0,
			"0.019": 0.0,
			"0.02": 0.0,
			"0.021": 0.0,
			"0.022": 0.0,
			"0.023": 0.0,
			"0.024": 0.0,
			"0.025": 0.0
		}
	}
}
