{
	 "smiles": "CN(C)C1=CC=C(C=C1)N=NC1=CC=C(C=C1)N=C=S", 
	 "Tm": 442.15, 
	 "num_atms": 34, 
	 "gaussian": { 
		 "optdone": 1, 
		 "sigma_profile": "yes", 
		 "theory": "DFT", 
		 "functional": "B3LYP", 
		 "basiset": "6-31G**", 
		 "properties": { 
			 "R2extent": 10166.6482, 
			 "electric_dipole_moment_norm": 6.55169471969, 
			 "electric_quadrupole_moment_norm": 25.876168775, 
			 "total_energy": -1197.15324647, 
			 "HOMO_LUMO_gap": 0.11985, 
			 "cosmo_polarized_energy": -13.75, 
			 "cosmo_cavitation_energy": 41.35, 
			 "cosmo_dispersion_energy": -29.43, 
			 "cosmo_repulsion_energy": 2.23, 
			 "cosmo_total_nonelectrostatic_energy": 14.15, 
			 "SMD_solvation_energy": 5.16 
		},
		"coords": [
			{
				"x": 0.4770791311,
				"y": -0.9215411895,
				"z": 3.9167060134,
				"element": "C" 
			},
			{
				"x": 1.4515218596,
				"y": -1.3238079838,
				"z": 2.9149113612,
				"element": "N" 
			},
			{
				"x": 2.7957097716,
				"y": -1.6818298604,
				"z": 3.3386950186,
				"element": "C" 
			},
			{
				"x": 1.0502734355,
				"y": -1.5671979168,
				"z": 1.6183665829,
				"element": "C" 
			},
			{
				"x": -0.2895371901,
				"y": -1.3422424501,
				"z": 1.2072559842,
				"element": "C" 
			},
			{
				"x": -0.6845476292,
				"y": -1.5405919901,
				"z": -0.1057528256,
				"element": "C" 
			},
			{
				"x": 0.2279037141,
				"y": -2.0049007655,
				"z": -1.0723015031,
				"element": "C" 
			},
			{
				"x": 1.5351197992,
				"y": -2.3037598521,
				"z": -0.6520226087,
				"element": "C" 
			},
			{
				"x": 1.9534282997,
				"y": -2.0677393094,
				"z": 0.6469692124,
				"element": "C" 
			},
			{
				"x": -0.0677342608,
				"y": -2.3701316755,
				"z": -2.4120057987,
				"element": "N" 
			},
			{
				"x": -0.9528498882,
				"y": -1.838678975,
				"z": -3.1261815046,
				"element": "N" 
			},
			{
				"x": -1.6437552715,
				"y": -0.6326393618,
				"z": -2.8013756724,
				"element": "C" 
			},
			{
				"x": -0.961226748,
				"y": 0.5684075624,
				"z": -2.5364690819,
				"element": "C" 
			},
			{
				"x": -1.6609815697,
				"y": 1.7603764612,
				"z": -2.4113054522,
				"element": "C" 
			},
			{
				"x": -3.0622161205,
				"y": 1.7690902209,
				"z": -2.5367748678,
				"element": "C" 
			},
			{
				"x": -3.7458784477,
				"y": 0.5769103874,
				"z": -2.819298694,
				"element": "C" 
			},
			{
				"x": -3.0358678418,
				"y": -0.6074726888,
				"z": -2.9749363389,
				"element": "C" 
			},
			{
				"x": -3.7752701981,
				"y": 2.9439037134,
				"z": -2.3981068599,
				"element": "N" 
			},
			{
				"x": -3.8972448981,
				"y": 4.1158448155,
				"z": -2.1992841799,
				"element": "C" 
			},
			{
				"x": -4.1666011133,
				"y": 5.6627642554,
				"z": -1.9457124759,
				"element": "S" 
			},
			{
				"x": 0.9902590922,
				"y": -0.7364000425,
				"z": 4.8608697409,
				"element": "H" 
			},
			{
				"x": -0.2897972282,
				"y": -1.6904584711,
				"z": 4.0901189324,
				"element": "H" 
			},
			{
				"x": -0.0314458104,
				"y": 0.00573999,
				"z": 3.6272209329,
				"element": "H" 
			},
			{
				"x": 2.9847147109,
				"y": -2.7627346769,
				"z": 3.2672566289,
				"element": "H" 
			},
			{
				"x": 2.9356839487,
				"y": -1.3811078138,
				"z": 4.3774532479,
				"element": "H" 
			},
			{
				"x": 3.5533139939,
				"y": -1.1647520206,
				"z": 2.7376073175,
				"element": "H" 
			},
			{
				"x": -1.0314632652,
				"y": -1.0136704823,
				"z": 1.9242258168,
				"element": "H" 
			},
			{
				"x": -1.7200902905,
				"y": -1.3651998834,
				"z": -0.3711229821,
				"element": "H" 
			},
			{
				"x": 2.2222006179,
				"y": -2.7204667779,
				"z": -1.3820997869,
				"element": "H" 
			},
			{
				"x": 2.9772194662,
				"y": -2.2956786927,
				"z": 0.9152902808,
				"element": "H" 
			},
			{
				"x": 0.1189995588,
				"y": 0.5610878244,
				"z": -2.4378523674,
				"element": "H" 
			},
			{
				"x": -1.1373448413,
				"y": 2.6902286771,
				"z": -2.2138978483,
				"element": "H" 
			},
			{
				"x": -4.8246952042,
				"y": 0.5983314565,
				"z": -2.9301764674,
				"element": "H" 
			},
			{
				"x": -3.5491795823,
				"y": -1.5297824841,
				"z": -3.2272697549,
				"element": "H" 
			}
		],
		 "valence_orbital": [ 
			{
				"type": "occ",
				"energy": -0.25995,
				"method": "rhf"
			},
			{
				"type": "occ",
				"energy": -0.25613,
				"method": "rhf"
			},
			{
				"type": "occ",
				"energy": -0.23673,
				"method": "rhf"
			},
			{
				"type": "occ",
				"energy": -0.21864,
				"method": "rhf"
			},
			{
				"type": "occ",
				"energy": -0.19213,
				"method": "rhf"
			},
			{
				"type": "unocc",
				"energy": -0.07228,
				"method": "rhf"
			},
			{
				"type": "unocc",
				"energy": -0.03095,
				"method": "rhf"
			},
			{
				"type": "unocc",
				"energy": -0.02027,
				"method": "rhf"
			},
			{
				"type": "unocc",
				"energy": -0.01301,
				"method": "rhf"
			},
			{
				"type": "unocc",
				"energy": -0.00448,
				"method": "rhf"
			}
		],
		"cosmo_sigma_profile": { 
			"-0.025": 0.0,
			"-0.024": 0.0,
			"-0.023": 0.0,
			"-0.022": 0.0,
			"-0.021": 0.0,
			"-0.02": 0.0,
			"-0.019": 0.0,
			"-0.018": 0.0,
			"-0.017": 0.0,
			"-0.016": 0.0,
			"-0.015": 0.0,
			"-0.014": 0.0,
			"-0.013": 0.0,
			"-0.012": 0.0,
			"-0.011": 0.0,
			"-0.01": 0.0,
			"-0.009": 0.0,
			"-0.008": 1.25274164558,
			"-0.007": 8.99338835443,
			"-0.006": 16.6650827939,
			"-0.005": 26.5582284763,
			"-0.004": 28.9763061437,
			"-0.003": 27.7849772173,
			"-0.002": 29.2009369024,
			"-0.001": 24.74642257,
			"0.0": 26.7407823914,
			"0.001": 26.8908708297,
			"0.002": 24.0861728506,
			"0.003": 23.0801660856,
			"0.004": 21.8101235555,
			"0.005": 22.1451260145,
			"0.006": 9.34601610406,
			"0.007": 1.82582057055,
			"0.008": 1.41994447358,
			"0.009": 1.59924148595,
			"0.01": 1.87493807716,
			"0.011": 2.28291487172,
			"0.012": 2.18996288189,
			"0.013": 2.51307998619,
			"0.014": 2.15963763248,
			"0.015": 0.867286751409,
			"0.016": 0.0,
			"0.017": 0.0,
			"0.018": 0.0,
			"0.019": 0.0,
			"0.02": 0.0,
			"0.021": 0.0,
			"0.022": 0.0,
			"0.023": 0.0,
			"0.024": 0.0,
			"0.025": 0.0
		}
	}
}
