{
	 "smiles": "[O-][N+](=O)C1=CC(=CC(=C1Cl)[N+]([O-])=O)C(F)(F)F", 
	 "Tm": 329.65, 
	 "num_atms": 19, 
	 "gaussian": { 
		 "optdone": 1, 
		 "sigma_profile": "yes", 
		 "theory": "DFT", 
		 "functional": "B3LYP", 
		 "basiset": "6-31G**", 
		 "properties": { 
			 "R2extent": 5138.1767, 
			 "electric_dipole_moment_norm": 1.90830801759, 
			 "electric_quadrupole_moment_norm": 9.44808272614, 
			 "total_energy": -1437.82949133, 
			 "HOMO_LUMO_gap": 0.18618, 
			 "cosmo_polarized_energy": -11.62, 
			 "cosmo_cavitation_energy": 29.28, 
			 "cosmo_dispersion_energy": -20.51, 
			 "cosmo_repulsion_energy": 1.53, 
			 "cosmo_total_nonelectrostatic_energy": 10.3, 
			 "SMD_solvation_energy": 10.58 
		},
		"coords": [
			{
				"x": 1.3586785658,
				"y": -0.1806519693,
				"z": 2.5184210132,
				"element": "O" 
			},
			{
				"x": 1.7516544882,
				"y": -0.3977410245,
				"z": 1.3801299244,
				"element": "N" 
			},
			{
				"x": 2.9148576912,
				"y": -0.3247826665,
				"z": 0.9910020817,
				"element": "O" 
			},
			{
				"x": 0.7405868923,
				"y": -0.7302147009,
				"z": 0.3513348212,
				"element": "C" 
			},
			{
				"x": 0.9498040277,
				"y": -0.1632384926,
				"z": -0.9018018044,
				"element": "C" 
			},
			{
				"x": 0.0399713558,
				"y": -0.3952297335,
				"z": -1.9283450111,
				"element": "C" 
			},
			{
				"x": -1.0619277116,
				"y": -1.2128219548,
				"z": -1.6986363409,
				"element": "C" 
			},
			{
				"x": -1.2589980414,
				"y": -1.7735056079,
				"z": -0.4407036818,
				"element": "C" 
			},
			{
				"x": -0.363667772,
				"y": -1.5578031045,
				"z": 0.622062548,
				"element": "C" 
			},
			{
				"x": -0.5369484321,
				"y": -2.3727008691,
				"z": 2.1331466759,
				"element": "Cl" 
			},
			{
				"x": -2.4759331379,
				"y": -2.6034896761,
				"z": -0.2944112868,
				"element": "N" 
			},
			{
				"x": -2.7785287138,
				"y": -3.2946534383,
				"z": -1.2642149573,
				"element": "O" 
			},
			{
				"x": -3.1080520992,
				"y": -2.5118962684,
				"z": 0.7492843244,
				"element": "O" 
			},
			{
				"x": 0.2819121357,
				"y": 0.1838719936,
				"z": -3.3019738876,
				"element": "C" 
			},
			{
				"x": -0.8786307011,
				"y": 0.4016624784,
				"z": -3.9505264964,
				"element": "F" 
			},
			{
				"x": 0.9481444754,
				"y": 1.3524470828,
				"z": -3.2279015221,
				"element": "F" 
			},
			{
				"x": 1.0176010369,
				"y": -0.6549227495,
				"z": -4.0582178562,
				"element": "F" 
			},
			{
				"x": 1.8262371405,
				"y": 0.4542481091,
				"z": -1.0547550781,
				"element": "H" 
			},
			{
				"x": -1.7781612005,
				"y": -1.4262774079,
				"z": -2.4823934664,
				"element": "H" 
			}
		],
		 "valence_orbital": [ 
			{
				"type": "occ",
				"energy": -0.33615,
				"method": "rhf"
			},
			{
				"type": "occ",
				"energy": -0.32561,
				"method": "rhf"
			},
			{
				"type": "occ",
				"energy": -0.32333,
				"method": "rhf"
			},
			{
				"type": "occ",
				"energy": -0.30691,
				"method": "rhf"
			},
			{
				"type": "occ",
				"energy": -0.3063,
				"method": "rhf"
			},
			{
				"type": "unocc",
				"energy": -0.12012,
				"method": "rhf"
			},
			{
				"type": "unocc",
				"energy": -0.11738,
				"method": "rhf"
			},
			{
				"type": "unocc",
				"energy": -0.07059,
				"method": "rhf"
			},
			{
				"type": "unocc",
				"energy": -0.04731,
				"method": "rhf"
			},
			{
				"type": "unocc",
				"energy": -0.01896,
				"method": "rhf"
			}
		],
		"cosmo_sigma_profile": { 
			"-0.025": 0.0,
			"-0.024": 0.0,
			"-0.023": 0.0,
			"-0.022": 0.0,
			"-0.021": 0.0,
			"-0.02": 0.0,
			"-0.019": 0.0,
			"-0.018": 0.0,
			"-0.017": 0.0,
			"-0.016": 0.0,
			"-0.015": 0.0,
			"-0.014": 0.0,
			"-0.013": 0.0,
			"-0.012": 0.0,
			"-0.011": 0.525812961199,
			"-0.01": 3.96543194837,
			"-0.009": 7.4438297588,
			"-0.008": 5.67053042721,
			"-0.007": 5.48288248511,
			"-0.006": 11.8140741411,
			"-0.005": 15.6389288947,
			"-0.004": 16.2218833809,
			"-0.003": 13.953141606,
			"-0.002": 10.7429341849,
			"-0.001": 10.1371263777,
			"0.0": 14.2395514587,
			"0.001": 21.4442608941,
			"0.002": 32.0778085141,
			"0.003": 10.928142588,
			"0.004": 6.04492500982,
			"0.005": 9.38638699035,
			"0.006": 20.7363527388,
			"0.007": 13.8877454537,
			"0.008": 6.89929956584,
			"0.009": 1.66208726241,
			"0.01": 0.0,
			"0.011": 0.0,
			"0.012": 0.0,
			"0.013": 0.0,
			"0.014": 0.0,
			"0.015": 0.0,
			"0.016": 0.0,
			"0.017": 0.0,
			"0.018": 0.0,
			"0.019": 0.0,
			"0.02": 0.0,
			"0.021": 0.0,
			"0.022": 0.0,
			"0.023": 0.0,
			"0.024": 0.0,
			"0.025": 0.0
		}
	}
}
