{
	 "smiles": "NC1=CC(=NO1)C1=C(F)C=C(F)C=C1F", 
	 "Tm": 405.15, 
	 "num_atms": 20, 
	 "gaussian": { 
		 "optdone": 1, 
		 "sigma_profile": "yes", 
		 "theory": "DFT", 
		 "functional": "B3LYP", 
		 "basiset": "6-31G**", 
		 "properties": { 
			 "R2extent": 3572.079, 
			 "electric_dipole_moment_norm": 3.69244162445, 
			 "electric_quadrupole_moment_norm": 17.6385246166, 
			 "total_energy": -830.144939472, 
			 "HOMO_LUMO_gap": 0.18369, 
			 "cosmo_polarized_energy": -13.96, 
			 "cosmo_cavitation_energy": 26.78, 
			 "cosmo_dispersion_energy": -19.66, 
			 "cosmo_repulsion_energy": 1.47, 
			 "cosmo_total_nonelectrostatic_energy": 8.58, 
			 "SMD_solvation_energy": 6.13 
		},
		"coords": [
			{
				"x": -0.7560189895,
				"y": -1.4008375601,
				"z": -4.4018591006,
				"element": "N" 
			},
			{
				"x": -0.6080982454,
				"y": -0.7253681147,
				"z": -3.2148459644,
				"element": "C" 
			},
			{
				"x": -0.5777979746,
				"y": -1.1172289089,
				"z": -1.9039224634,
				"element": "C" 
			},
			{
				"x": -0.466685062,
				"y": 0.1172834704,
				"z": -1.1951374276,
				"element": "C" 
			},
			{
				"x": -0.4362975593,
				"y": 1.1618924646,
				"z": -2.0060981857,
				"element": "N" 
			},
			{
				"x": -0.5269848147,
				"y": 0.61359456,
				"z": -3.3028093376,
				"element": "O" 
			},
			{
				"x": -0.380949001,
				"y": 0.3113293669,
				"z": 0.2641693515,
				"element": "C" 
			},
			{
				"x": 0.2193205116,
				"y": 1.4380292411,
				"z": 0.8574553608,
				"element": "C" 
			},
			{
				"x": 0.7528369276,
				"y": 2.3854199032,
				"z": 0.0786804648,
				"element": "F" 
			},
			{
				"x": 0.3068218223,
				"y": 1.6256260371,
				"z": 2.2318471319,
				"element": "C" 
			},
			{
				"x": -0.2261810633,
				"y": 0.6450755351,
				"z": 3.0577258859,
				"element": "C" 
			},
			{
				"x": -0.1534600977,
				"y": 0.8058398063,
				"z": 4.3894492281,
				"element": "F" 
			},
			{
				"x": -0.8304366733,
				"y": -0.4982727975,
				"z": 2.5516271238,
				"element": "C" 
			},
			{
				"x": -0.8898242916,
				"y": -0.6323570174,
				"z": 1.1711747353,
				"element": "C" 
			},
			{
				"x": -1.4811387763,
				"y": -1.7447403593,
				"z": 0.6907321399,
				"element": "F" 
			},
			{
				"x": -0.4411462759,
				"y": -0.89051212,
				"z": -5.2162043004,
				"element": "H" 
			},
			{
				"x": -0.4538885268,
				"y": -2.36411102,
				"z": -4.3889545669,
				"element": "H" 
			},
			{
				"x": -0.6329092201,
				"y": -2.1143539798,
				"z": -1.5038459998,
				"element": "H" 
			},
			{
				"x": 0.7814919705,
				"y": 2.5105046943,
				"z": 2.6361393532,
				"element": "H" 
			},
			{
				"x": -1.2459546605,
				"y": -1.2579132014,
				"z": 3.2010765712,
				"element": "H" 
			}
		],
		 "valence_orbital": [ 
			{
				"type": "occ",
				"energy": -0.30974,
				"method": "rhf"
			},
			{
				"type": "occ",
				"energy": -0.29518,
				"method": "rhf"
			},
			{
				"type": "occ",
				"energy": -0.26071,
				"method": "rhf"
			},
			{
				"type": "occ",
				"energy": -0.24556,
				"method": "rhf"
			},
			{
				"type": "occ",
				"energy": -0.21954,
				"method": "rhf"
			},
			{
				"type": "unocc",
				"energy": -0.03585,
				"method": "rhf"
			},
			{
				"type": "unocc",
				"energy": -0.0145,
				"method": "rhf"
			},
			{
				"type": "unocc",
				"energy": 0.02602,
				"method": "rhf"
			},
			{
				"type": "unocc",
				"energy": 0.05732,
				"method": "rhf"
			},
			{
				"type": "unocc",
				"energy": 0.06831,
				"method": "rhf"
			}
		],
		"cosmo_sigma_profile": { 
			"-0.025": 0.0,
			"-0.024": 0.0,
			"-0.023": 0.0,
			"-0.022": 0.0,
			"-0.021": 0.0,
			"-0.02": 0.0,
			"-0.019": 0.0,
			"-0.018": 0.0,
			"-0.017": 0.0,
			"-0.016": 0.0,
			"-0.015": 0.902158971706,
			"-0.014": 3.1647905467,
			"-0.013": 2.00178779081,
			"-0.012": 3.34574675636,
			"-0.011": 2.141914485,
			"-0.01": 2.37689338067,
			"-0.009": 5.1795742777,
			"-0.008": 4.99255877203,
			"-0.007": 6.15492724732,
			"-0.006": 5.88684764184,
			"-0.005": 4.46568865841,
			"-0.004": 6.20508968147,
			"-0.003": 6.68942037938,
			"-0.002": 10.0207122092,
			"-0.001": 27.8411322071,
			"0.0": 23.0599288453,
			"0.001": 15.7584017159,
			"0.002": 13.8757004398,
			"0.003": 26.042297161,
			"0.004": 14.6414978837,
			"0.005": 4.43311769917,
			"0.006": 3.72670552669,
			"0.007": 3.79804591641,
			"0.008": 5.5384325985,
			"0.009": 3.74196307726,
			"0.01": 2.89509209417,
			"0.011": 2.37243930746,
			"0.012": 1.81562700961,
			"0.013": 1.50917411676,
			"0.014": 1.36728474837,
			"0.015": 0.263523843109,
			"0.016": 0.0,
			"0.017": 0.0,
			"0.018": 0.0,
			"0.019": 0.0,
			"0.02": 0.0,
			"0.021": 0.0,
			"0.022": 0.0,
			"0.023": 0.0,
			"0.024": 0.0,
			"0.025": 0.0
		}
	}
}
