{
	 "smiles": "CCOC1=C(OCC2=CC=C(C=C2)C(C)(C)C)C=CC(C=O)=C1", 
	 "Tm": 387.15, 
	 "num_atms": 47, 
	 "gaussian": { 
		 "optdone": 1, 
		 "sigma_profile": "yes", 
		 "theory": "DFT", 
		 "functional": "B3LYP", 
		 "basiset": "6-31G**", 
		 "properties": { 
			 "R2extent": 11040.7861, 
			 "electric_dipole_moment_norm": 5.02568434544, 
			 "electric_quadrupole_moment_norm": 24.3453232258, 
			 "total_energy": -1002.25513808, 
			 "HOMO_LUMO_gap": 0.17518, 
			 "cosmo_polarized_energy": -12.74, 
			 "cosmo_cavitation_energy": 49.33, 
			 "cosmo_dispersion_energy": -33.29, 
			 "cosmo_repulsion_energy": 2.58, 
			 "cosmo_total_nonelectrostatic_energy": 18.61, 
			 "SMD_solvation_energy": 9.92 
		},
		"coords": [
			{
				"x": 0.2060965061,
				"y": -4.2127753489,
				"z": -3.6726901103,
				"element": "C" 
			},
			{
				"x": 0.2199065236,
				"y": -3.5544990449,
				"z": -2.3050288139,
				"element": "C" 
			},
			{
				"x": -1.0872885103,
				"y": -3.7268897998,
				"z": -1.7297236912,
				"element": "O" 
			},
			{
				"x": -1.2617222522,
				"y": -3.2587409295,
				"z": -0.4524512831,
				"element": "C" 
			},
			{
				"x": -1.3079627436,
				"y": -1.8704670621,
				"z": -0.1724620153,
				"element": "C" 
			},
			{
				"x": -1.1164032898,
				"y": -1.0463309649,
				"z": -1.2396465458,
				"element": "O" 
			},
			{
				"x": -1.3830167045,
				"y": 0.3541159879,
				"z": -1.1057035627,
				"element": "C" 
			},
			{
				"x": -0.2800446657,
				"y": 1.1410312255,
				"z": -0.4280019017,
				"element": "C" 
			},
			{
				"x": 1.0635885264,
				"y": 0.7923603771,
				"z": -0.5763810742,
				"element": "C" 
			},
			{
				"x": 2.070194992,
				"y": 1.5596964971,
				"z": 0.0129972022,
				"element": "C" 
			},
			{
				"x": 1.7761474235,
				"y": 2.7066382487,
				"z": 0.7637555088,
				"element": "C" 
			},
			{
				"x": 0.4199108253,
				"y": 3.0477858492,
				"z": 0.9017922303,
				"element": "C" 
			},
			{
				"x": -0.5885779574,
				"y": 2.2810090294,
				"z": 0.3234298726,
				"element": "C" 
			},
			{
				"x": 2.8597313664,
				"y": 3.5755964292,
				"z": 1.4277205088,
				"element": "C" 
			},
			{
				"x": 2.6346110339,
				"y": 3.5969204745,
				"z": 2.9586025778,
				"element": "C" 
			},
			{
				"x": 2.7708183103,
				"y": 5.0187987509,
				"z": 0.8765318789,
				"element": "C" 
			},
			{
				"x": 4.2808022204,
				"y": 3.0455031061,
				"z": 1.1583597941,
				"element": "C" 
			},
			{
				"x": -1.5549034696,
				"y": -1.4335483154,
				"z": 1.1383907113,
				"element": "C" 
			},
			{
				"x": -1.771559845,
				"y": -2.3574486546,
				"z": 2.1547272076,
				"element": "C" 
			},
			{
				"x": -1.7421522761,
				"y": -3.7308924661,
				"z": 1.8838918346,
				"element": "C" 
			},
			{
				"x": -1.9757376495,
				"y": -4.7142451478,
				"z": 2.9571599431,
				"element": "C" 
			},
			{
				"x": -2.2016831249,
				"y": -4.4351488208,
				"z": 4.1214000379,
				"element": "O" 
			},
			{
				"x": -1.4788241958,
				"y": -4.1662397876,
				"z": 0.5760755272,
				"element": "C" 
			},
			{
				"x": 1.1858016315,
				"y": -4.1112832385,
				"z": -4.1502738601,
				"element": "H" 
			},
			{
				"x": -0.0311230545,
				"y": -5.2771472062,
				"z": -3.5879494622,
				"element": "H" 
			},
			{
				"x": -0.5437904559,
				"y": -3.7435873104,
				"z": -4.3159270909,
				"element": "H" 
			},
			{
				"x": 0.9679400364,
				"y": -4.0227587564,
				"z": -1.6495060541,
				"element": "H" 
			},
			{
				"x": 0.4534464823,
				"y": -2.4871877147,
				"z": -2.3858533827,
				"element": "H" 
			},
			{
				"x": -2.3402086559,
				"y": 0.5058136197,
				"z": -0.591099543,
				"element": "H" 
			},
			{
				"x": -1.5088712861,
				"y": 0.6912183285,
				"z": -2.1401880019,
				"element": "H" 
			},
			{
				"x": 1.3272588463,
				"y": -0.0917289769,
				"z": -1.1491152338,
				"element": "H" 
			},
			{
				"x": 3.0991831031,
				"y": 1.2474267177,
				"z": -0.123311574,
				"element": "H" 
			},
			{
				"x": 0.1386113745,
				"y": 3.9236551855,
				"z": 1.4789919518,
				"element": "H" 
			},
			{
				"x": -1.6275582461,
				"y": 2.5739408809,
				"z": 0.4601816338,
				"element": "H" 
			},
			{
				"x": 3.3953081963,
				"y": 4.2165115562,
				"z": 3.4467035564,
				"element": "H" 
			},
			{
				"x": 2.6981389522,
				"y": 2.5876326218,
				"z": 3.3782162685,
				"element": "H" 
			},
			{
				"x": 1.6544997939,
				"y": 4.0062129293,
				"z": 3.2209789937,
				"element": "H" 
			},
			{
				"x": 2.933492038,
				"y": 5.0357604933,
				"z": -0.2061689006,
				"element": "H" 
			},
			{
				"x": 1.7948870094,
				"y": 5.4718988314,
				"z": 1.0745391573,
				"element": "H" 
			},
			{
				"x": 3.5325017901,
				"y": 5.6524891825,
				"z": 1.3445304099,
				"element": "H" 
			},
			{
				"x": 5.0144409237,
				"y": 3.6950714094,
				"z": 1.6464653566,
				"element": "H" 
			},
			{
				"x": 4.5147950248,
				"y": 3.0302045807,
				"z": 0.0887248272,
				"element": "H" 
			},
			{
				"x": 4.4214254757,
				"y": 2.0346088862,
				"z": 1.5548736225,
				"element": "H" 
			},
			{
				"x": -1.5610803172,
				"y": -0.3745190272,
				"z": 1.3646782524,
				"element": "H" 
			},
			{
				"x": -1.9645766626,
				"y": -2.0315978898,
				"z": 3.1716122979,
				"element": "H" 
			},
			{
				"x": -1.9314037377,
				"y": -5.7766366069,
				"z": 2.6256539044,
				"element": "H" 
			},
			{
				"x": -1.4565493058,
				"y": -5.2261281296,
				"z": 0.3362970341,
				"element": "H" 
			}
		],
		 "valence_orbital": [ 
			{
				"type": "occ",
				"energy": -0.25686,
				"method": "rhf"
			},
			{
				"type": "occ",
				"energy": -0.2526,
				"method": "rhf"
			},
			{
				"type": "occ",
				"energy": -0.2447,
				"method": "rhf"
			},
			{
				"type": "occ",
				"energy": -0.24258,
				"method": "rhf"
			},
			{
				"type": "occ",
				"energy": -0.22444,
				"method": "rhf"
			},
			{
				"type": "unocc",
				"energy": -0.04926,
				"method": "rhf"
			},
			{
				"type": "unocc",
				"energy": -0.01334,
				"method": "rhf"
			},
			{
				"type": "unocc",
				"energy": -0.01095,
				"method": "rhf"
			},
			{
				"type": "unocc",
				"energy": -0.00274,
				"method": "rhf"
			},
			{
				"type": "unocc",
				"energy": 0.05313,
				"method": "rhf"
			}
		],
		"cosmo_sigma_profile": { 
			"-0.025": 0.0,
			"-0.024": 0.0,
			"-0.023": 0.0,
			"-0.022": 0.0,
			"-0.021": 0.0,
			"-0.02": 0.0,
			"-0.019": 0.0,
			"-0.018": 0.0,
			"-0.017": 0.0,
			"-0.016": 0.0,
			"-0.015": 0.0,
			"-0.014": 0.0,
			"-0.013": 0.0,
			"-0.012": 0.0,
			"-0.011": 0.0,
			"-0.01": 0.0,
			"-0.009": 0.0,
			"-0.008": 0.431286816787,
			"-0.007": 6.15326248882,
			"-0.006": 14.5032192827,
			"-0.005": 19.201042525,
			"-0.004": 27.5055799834,
			"-0.003": 42.8753208765,
			"-0.002": 45.3894188829,
			"-0.001": 41.0152791232,
			"0.0": 39.0694320211,
			"0.001": 40.3250172037,
			"0.002": 29.0258220943,
			"0.003": 21.6283985894,
			"0.004": 14.4399134059,
			"0.005": 10.7028317585,
			"0.006": 8.85834125616,
			"0.007": 4.04649818161,
			"0.008": 3.59073334028,
			"0.009": 3.00039215566,
			"0.01": 4.95063193173,
			"0.011": 5.3897467353,
			"0.012": 4.45773057106,
			"0.013": 1.68176961446,
			"0.014": 0.129126171468,
			"0.015": 0.0,
			"0.016": 0.0,
			"0.017": 0.0,
			"0.018": 0.0,
			"0.019": 0.0,
			"0.02": 0.0,
			"0.021": 0.0,
			"0.022": 0.0,
			"0.023": 0.0,
			"0.024": 0.0,
			"0.025": 0.0
		}
	}
}
