{
	 "smiles": "CCC1=CC(C)=CC(C)=C1", 
	 "Tm": 188.95, 
	 "num_atms": 24, 
	 "gaussian": { 
		 "optdone": 1, 
		 "sigma_profile": "yes", 
		 "theory": "DFT", 
		 "functional": "B3LYP", 
		 "basiset": "6-31G**", 
		 "properties": { 
			 "R2extent": 2010.5355, 
			 "electric_dipole_moment_norm": 0.0728129796122, 
			 "electric_quadrupole_moment_norm": 4.51375763749, 
			 "total_energy": -389.528097223, 
			 "HOMO_LUMO_gap": 0.23595, 
			 "cosmo_polarized_energy": -3.07, 
			 "cosmo_cavitation_energy": 26.38, 
			 "cosmo_dispersion_energy": -18.89, 
			 "cosmo_repulsion_energy": 1.56, 
			 "cosmo_total_nonelectrostatic_energy": 9.06, 
			 "SMD_solvation_energy": 4.6 
		},
		"coords": [
			{
				"x": 0.67675112,
				"y": -3.0382341897,
				"z": -1.3839488588,
				"element": "C" 
			},
			{
				"x": 1.0637514619,
				"y": -1.5530799233,
				"z": -1.2679745306,
				"element": "C" 
			},
			{
				"x": 0.3598441877,
				"y": -0.848582582,
				"z": -0.1262676327,
				"element": "C" 
			},
			{
				"x": -0.8847039244,
				"y": -0.2383352078,
				"z": -0.3212867742,
				"element": "C" 
			},
			{
				"x": -1.5689826146,
				"y": 0.3789502655,
				"z": 0.7320805351,
				"element": "C" 
			},
			{
				"x": -2.9281267045,
				"y": 1.0025651838,
				"z": 0.51100147,
				"element": "C" 
			},
			{
				"x": -0.9771221808,
				"y": 0.3842657025,
				"z": 2.0005094691,
				"element": "C" 
			},
			{
				"x": 0.2687110656,
				"y": -0.2113096596,
				"z": 2.2294727361,
				"element": "C" 
			},
			{
				"x": 0.9101988257,
				"y": -0.1588508955,
				"z": 3.5972563611,
				"element": "C" 
			},
			{
				"x": 0.9220559863,
				"y": -0.8264636914,
				"z": 1.1554479728,
				"element": "C" 
			},
			{
				"x": 0.9272845547,
				"y": -3.5809257675,
				"z": -0.4665782671,
				"element": "H" 
			},
			{
				"x": -0.3995839069,
				"y": -3.1504925154,
				"z": -1.5505098518,
				"element": "H" 
			},
			{
				"x": 1.2016373162,
				"y": -3.5181425009,
				"z": -2.2169756367,
				"element": "H" 
			},
			{
				"x": 2.1492938275,
				"y": -1.4735081533,
				"z": -1.1336736596,
				"element": "H" 
			},
			{
				"x": 0.8288569866,
				"y": -1.0452260672,
				"z": -2.2112198876,
				"element": "H" 
			},
			{
				"x": -1.3293192427,
				"y": -0.2429007324,
				"z": -1.3150187205,
				"element": "H" 
			},
			{
				"x": -3.0351151084,
				"y": 1.377149632,
				"z": -0.5116691051,
				"element": "H" 
			},
			{
				"x": -3.1033668252,
				"y": 1.8365615615,
				"z": 1.1975276898,
				"element": "H" 
			},
			{
				"x": -3.7314443345,
				"y": 0.2729852002,
				"z": 0.6749795965,
				"element": "H" 
			},
			{
				"x": -1.4956149425,
				"y": 0.8667375714,
				"z": 2.8270368342,
				"element": "H" 
			},
			{
				"x": 1.5563249132,
				"y": -1.0250198521,
				"z": 3.770131969,
				"element": "H" 
			},
			{
				"x": 0.1581086025,
				"y": -0.133093832,
				"z": 4.3917965069,
				"element": "H" 
			},
			{
				"x": 1.5325850761,
				"y": 0.7379920883,
				"z": 3.7102960995,
				"element": "H" 
			},
			{
				"x": 1.8922758605,
				"y": -1.292541635,
				"z": 1.3186856848,
				"element": "H" 
			}
		],
		 "valence_orbital": [ 
			{
				"type": "occ",
				"energy": -0.32449,
				"method": "rhf"
			},
			{
				"type": "occ",
				"energy": -0.32253,
				"method": "rhf"
			},
			{
				"type": "occ",
				"energy": -0.31719,
				"method": "rhf"
			},
			{
				"type": "occ",
				"energy": -0.2278,
				"method": "rhf"
			},
			{
				"type": "occ",
				"energy": -0.22738,
				"method": "rhf"
			},
			{
				"type": "unocc",
				"energy": 0.00857,
				"method": "rhf"
			},
			{
				"type": "unocc",
				"energy": 0.00923,
				"method": "rhf"
			},
			{
				"type": "unocc",
				"energy": 0.09732,
				"method": "rhf"
			},
			{
				"type": "unocc",
				"energy": 0.11653,
				"method": "rhf"
			},
			{
				"type": "unocc",
				"energy": 0.12349,
				"method": "rhf"
			}
		],
		"cosmo_sigma_profile": { 
			"-0.025": 0.0,
			"-0.024": 0.0,
			"-0.023": 0.0,
			"-0.022": 0.0,
			"-0.021": 0.0,
			"-0.02": 0.0,
			"-0.019": 0.0,
			"-0.018": 0.0,
			"-0.017": 0.0,
			"-0.016": 0.0,
			"-0.015": 0.0,
			"-0.014": 0.0,
			"-0.013": 0.0,
			"-0.012": 0.0,
			"-0.011": 0.0,
			"-0.01": 0.0,
			"-0.009": 0.0,
			"-0.008": 0.0,
			"-0.007": 0.0,
			"-0.006": 0.0,
			"-0.005": 0.603104257902,
			"-0.004": 13.1177230091,
			"-0.003": 30.3198888919,
			"-0.002": 26.3402530554,
			"-0.001": 29.0089845381,
			"0.0": 33.685948613,
			"0.001": 26.1194465121,
			"0.002": 12.0025963976,
			"0.003": 7.33558077025,
			"0.004": 7.21403090477,
			"0.005": 6.59140122886,
			"0.006": 6.50812308979,
			"0.007": 6.30961614801,
			"0.008": 1.25664250509,
			"0.009": 0.0,
			"0.01": 0.0,
			"0.011": 0.0,
			"0.012": 0.0,
			"0.013": 0.0,
			"0.014": 0.0,
			"0.015": 0.0,
			"0.016": 0.0,
			"0.017": 0.0,
			"0.018": 0.0,
			"0.019": 0.0,
			"0.02": 0.0,
			"0.021": 0.0,
			"0.022": 0.0,
			"0.023": 0.0,
			"0.024": 0.0,
			"0.025": 0.0
		}
	}
}
