{
	 "smiles": "FC1=CC2=C(N=CC=C2)C(C=O)=C1", 
	 "Tm": 388.15, 
	 "num_atms": 19, 
	 "gaussian": { 
		 "optdone": 1, 
		 "sigma_profile": "yes", 
		 "theory": "DFT", 
		 "functional": "B3LYP", 
		 "basiset": "6-31G**", 
		 "properties": { 
			 "R2extent": 2492.4518, 
			 "electric_dipole_moment_norm": 4.93013528618, 
			 "electric_quadrupole_moment_norm": 4.67323553868, 
			 "total_energy": -614.483176388, 
			 "HOMO_LUMO_gap": 0.16001, 
			 "cosmo_polarized_energy": -9.19, 
			 "cosmo_cavitation_energy": 24.42, 
			 "cosmo_dispersion_energy": -17.91, 
			 "cosmo_repulsion_energy": 1.36, 
			 "cosmo_total_nonelectrostatic_energy": 7.86, 
			 "SMD_solvation_energy": 4.63 
		},
		"coords": [
			{
				"x": -0.756270423,
				"y": 0.4773725393,
				"z": 3.4503832103,
				"element": "F" 
			},
			{
				"x": -0.7320230839,
				"y": 0.0797497908,
				"z": 2.1640177825,
				"element": "C" 
			},
			{
				"x": -1.3769019217,
				"y": -1.0793850625,
				"z": 1.8041240828,
				"element": "C" 
			},
			{
				"x": -1.3489334587,
				"y": -1.4943828666,
				"z": 0.4492304637,
				"element": "C" 
			},
			{
				"x": -0.6519267559,
				"y": -0.7035889389,
				"z": -0.5228103968,
				"element": "C" 
			},
			{
				"x": -0.5923369157,
				"y": -1.0543521002,
				"z": -1.8380365322,
				"element": "N" 
			},
			{
				"x": -1.2006438325,
				"y": -2.160785378,
				"z": -2.2154976372,
				"element": "C" 
			},
			{
				"x": -1.9157490689,
				"y": -3.0121645677,
				"z": -1.3363175315,
				"element": "C" 
			},
			{
				"x": -1.9882703183,
				"y": -2.676964576,
				"z": -0.0058102679,
				"element": "C" 
			},
			{
				"x": 0.0032825486,
				"y": 0.4955130025,
				"z": -0.0942182978,
				"element": "C" 
			},
			{
				"x": 0.7425696234,
				"y": 1.356563531,
				"z": -1.0591567001,
				"element": "C" 
			},
			{
				"x": 1.3105615472,
				"y": 2.3822749539,
				"z": -0.7281248827,
				"element": "O" 
			},
			{
				"x": -0.0419204524,
				"y": 0.8741974826,
				"z": 1.2352487372,
				"element": "C" 
			},
			{
				"x": -1.8992989335,
				"y": -1.6648201254,
				"z": 2.5540566201,
				"element": "H" 
			},
			{
				"x": -1.1341648769,
				"y": -2.4130031298,
				"z": -3.2729861244,
				"element": "H" 
			},
			{
				"x": -2.3921034005,
				"y": -3.9084922331,
				"z": -1.7201164085,
				"element": "H" 
			},
			{
				"x": -2.5258800824,
				"y": -3.3005104542,
				"z": 0.7036677031,
				"element": "H" 
			},
			{
				"x": 0.7418884344,
				"y": 1.0004774072,
				"z": -2.1031186872,
				"element": "H" 
			},
			{
				"x": 0.4579213707,
				"y": 1.7846007249,
				"z": 1.5492648665,
				"element": "H" 
			}
		],
		 "valence_orbital": [ 
			{
				"type": "occ",
				"energy": -0.32146,
				"method": "rhf"
			},
			{
				"type": "occ",
				"energy": -0.28178,
				"method": "rhf"
			},
			{
				"type": "occ",
				"energy": -0.26652,
				"method": "rhf"
			},
			{
				"type": "occ",
				"energy": -0.2492,
				"method": "rhf"
			},
			{
				"type": "occ",
				"energy": -0.24672,
				"method": "rhf"
			},
			{
				"type": "unocc",
				"energy": -0.08671,
				"method": "rhf"
			},
			{
				"type": "unocc",
				"energy": -0.03693,
				"method": "rhf"
			},
			{
				"type": "unocc",
				"energy": -0.03064,
				"method": "rhf"
			},
			{
				"type": "unocc",
				"energy": 0.04069,
				"method": "rhf"
			},
			{
				"type": "unocc",
				"energy": 0.08031,
				"method": "rhf"
			}
		],
		"cosmo_sigma_profile": { 
			"-0.025": 0.0,
			"-0.024": 0.0,
			"-0.023": 0.0,
			"-0.022": 0.0,
			"-0.021": 0.0,
			"-0.02": 0.0,
			"-0.019": 0.0,
			"-0.018": 0.0,
			"-0.017": 0.0,
			"-0.016": 0.0,
			"-0.015": 0.0,
			"-0.014": 0.0,
			"-0.013": 0.0,
			"-0.012": 0.0,
			"-0.011": 0.0,
			"-0.01": 0.0,
			"-0.009": 1.63929415106,
			"-0.008": 5.37183765826,
			"-0.007": 9.27927670265,
			"-0.006": 10.1840062779,
			"-0.005": 10.0488589653,
			"-0.004": 8.82192729375,
			"-0.003": 12.4532230785,
			"-0.002": 10.9630210044,
			"-0.001": 19.7126240466,
			"0.0": 30.0369294964,
			"0.001": 21.0207337453,
			"0.002": 10.2371326128,
			"0.003": 9.23312142845,
			"0.004": 12.3274149438,
			"0.005": 3.77505004743,
			"0.006": 1.93261939862,
			"0.007": 2.67504136174,
			"0.008": 3.52782000508,
			"0.009": 3.19822241976,
			"0.01": 3.85619417579,
			"0.011": 4.69112353803,
			"0.012": 2.18276491085,
			"0.013": 0.588717955589,
			"0.014": 0.0,
			"0.015": 0.0,
			"0.016": 0.0,
			"0.017": 0.0,
			"0.018": 0.0,
			"0.019": 0.0,
			"0.02": 0.0,
			"0.021": 0.0,
			"0.022": 0.0,
			"0.023": 0.0,
			"0.024": 0.0,
			"0.025": 0.0
		}
	}
}
