{
	 "smiles": "[O-][N+](=O)C1=CC(=CC=C1)C1=CC=C(O1)C=CC(=O)C1=CC=CC=C1", 
	 "Tm": 419.15, 
	 "num_atms": 37, 
	 "gaussian": { 
		 "optdone": 1, 
		 "sigma_profile": "yes", 
		 "theory": "DFT", 
		 "functional": "B3LYP", 
		 "basiset": "6-31G**", 
		 "properties": { 
			 "R2extent": 14205.2903, 
			 "electric_dipole_moment_norm": 3.17381376423, 
			 "electric_quadrupole_moment_norm": 35.6349820069, 
			 "total_energy": -1087.38404493, 
			 "HOMO_LUMO_gap": 0.12258, 
			 "cosmo_polarized_energy": -16.25, 
			 "cosmo_cavitation_energy": 44.46, 
			 "cosmo_dispersion_energy": -31.53, 
			 "cosmo_repulsion_energy": 2.34, 
			 "cosmo_total_nonelectrostatic_energy": 15.27, 
			 "SMD_solvation_energy": 10.55 
		},
		"coords": [
			{
				"x": 3.0832051475,
				"y": -4.6396466588,
				"z": -4.0691149846,
				"element": "O" 
			},
			{
				"x": 3.4051126765,
				"y": -4.7511344534,
				"z": -2.8868924748,
				"element": "N" 
			},
			{
				"x": 4.1689037247,
				"y": -5.6075762419,
				"z": -2.4451232887,
				"element": "O" 
			},
			{
				"x": 2.8337065409,
				"y": -3.787394869,
				"z": -1.9276039462,
				"element": "C" 
			},
			{
				"x": 1.9687165917,
				"y": -2.8121670084,
				"z": -2.4056363309,
				"element": "C" 
			},
			{
				"x": 1.4159040474,
				"y": -1.8867685156,
				"z": -1.505742919,
				"element": "C" 
			},
			{
				"x": 1.7598439322,
				"y": -1.9801700477,
				"z": -0.1429679472,
				"element": "C" 
			},
			{
				"x": 2.6311973489,
				"y": -2.9700131376,
				"z": 0.3076666817,
				"element": "C" 
			},
			{
				"x": 3.1823071989,
				"y": -3.8909063041,
				"z": -0.5816054001,
				"element": "C" 
			},
			{
				"x": 0.5061735693,
				"y": -0.8561152908,
				"z": -1.9827098547,
				"element": "C" 
			},
			{
				"x": 0.0015480318,
				"y": -0.5461843005,
				"z": -3.2264291307,
				"element": "C" 
			},
			{
				"x": -0.8457368187,
				"y": 0.5757317842,
				"z": -3.0523572299,
				"element": "C" 
			},
			{
				"x": -0.8184245561,
				"y": 0.8977032435,
				"z": -1.7119071979,
				"element": "C" 
			},
			{
				"x": 0.0105152062,
				"y": 0.0193732885,
				"z": -1.0588347091,
				"element": "O" 
			},
			{
				"x": -1.4755670024,
				"y": 1.9285087016,
				"z": -0.9697378127,
				"element": "C" 
			},
			{
				"x": -1.3690725406,
				"y": 2.1546089432,
				"z": 0.3588065596,
				"element": "C" 
			},
			{
				"x": -2.1335476292,
				"y": 3.2622111971,
				"z": 0.9778754973,
				"element": "C" 
			},
			{
				"x": -2.9055395703,
				"y": 3.945867981,
				"z": 0.3052617337,
				"element": "O" 
			},
			{
				"x": -1.9709089759,
				"y": 3.5386602003,
				"z": 2.4444285093,
				"element": "C" 
			},
			{
				"x": -0.9837958385,
				"y": 2.9434384052,
				"z": 3.2457374124,
				"element": "C" 
			},
			{
				"x": -0.8869483384,
				"y": 3.2601197915,
				"z": 4.6009271336,
				"element": "C" 
			},
			{
				"x": -1.7773776984,
				"y": 4.1699401767,
				"z": 5.1730763287,
				"element": "C" 
			},
			{
				"x": -2.7625794085,
				"y": 4.7706131694,
				"z": 4.383142984,
				"element": "C" 
			},
			{
				"x": -2.8546495846,
				"y": 4.4603765063,
				"z": 3.0303079461,
				"element": "C" 
			},
			{
				"x": 1.7415988074,
				"y": -2.7891060549,
				"z": -3.463621925,
				"element": "H" 
			},
			{
				"x": 1.3363839372,
				"y": -1.2695423692,
				"z": 0.557505641,
				"element": "H" 
			},
			{
				"x": 2.8830840655,
				"y": -3.0247788604,
				"z": 1.3619294452,
				"element": "H" 
			},
			{
				"x": 3.8614409858,
				"y": -4.6705009872,
				"z": -0.26170445,
				"element": "H" 
			},
			{
				"x": 0.2130081891,
				"y": -1.0621802402,
				"z": -4.1514206186,
				"element": "H" 
			},
			{
				"x": -1.4130714704,
				"y": 1.0931811056,
				"z": -3.8126953063,
				"element": "H" 
			},
			{
				"x": -2.1234802299,
				"y": 2.588717452,
				"z": -1.5418550778,
				"element": "H" 
			},
			{
				"x": -0.7417269425,
				"y": 1.5163806649,
				"z": 0.9693473946,
				"element": "H" 
			},
			{
				"x": -0.2728434344,
				"y": 2.2437078293,
				"z": 2.8200840625,
				"element": "H" 
			},
			{
				"x": -0.1152462749,
				"y": 2.7973404211,
				"z": 5.2091991648,
				"element": "H" 
			},
			{
				"x": -1.7029521453,
				"y": 4.4121837697,
				"z": 6.2294507961,
				"element": "H" 
			},
			{
				"x": -3.4556653851,
				"y": 5.4808024907,
				"z": 4.8248196268,
				"element": "H" 
			},
			{
				"x": -3.605316157,
				"y": 4.918418218,
				"z": 2.3953936867,
				"element": "H" 
			}
		],
		 "valence_orbital": [ 
			{
				"type": "occ",
				"energy": -0.28426,
				"method": "rhf"
			},
			{
				"type": "occ",
				"energy": -0.26131,
				"method": "rhf"
			},
			{
				"type": "occ",
				"energy": -0.25762,
				"method": "rhf"
			},
			{
				"type": "occ",
				"energy": -0.24987,
				"method": "rhf"
			},
			{
				"type": "occ",
				"energy": -0.2195,
				"method": "rhf"
			},
			{
				"type": "unocc",
				"energy": -0.09692,
				"method": "rhf"
			},
			{
				"type": "unocc",
				"energy": -0.08881,
				"method": "rhf"
			},
			{
				"type": "unocc",
				"energy": -0.0507,
				"method": "rhf"
			},
			{
				"type": "unocc",
				"energy": -0.02122,
				"method": "rhf"
			},
			{
				"type": "unocc",
				"energy": -0.00964,
				"method": "rhf"
			}
		],
		"cosmo_sigma_profile": { 
			"-0.025": 0.0,
			"-0.024": 0.0,
			"-0.023": 0.0,
			"-0.022": 0.0,
			"-0.021": 0.0,
			"-0.02": 0.0,
			"-0.019": 0.0,
			"-0.018": 0.0,
			"-0.017": 0.0,
			"-0.016": 0.0,
			"-0.015": 0.0,
			"-0.014": 0.0,
			"-0.013": 0.0,
			"-0.012": 0.0,
			"-0.011": 0.0340114317715,
			"-0.01": 1.12875864349,
			"-0.009": 2.73891854646,
			"-0.008": 8.16937679323,
			"-0.007": 14.2740979348,
			"-0.006": 20.8541378243,
			"-0.005": 22.0851994588,
			"-0.004": 21.8962412249,
			"-0.003": 19.480214805,
			"-0.002": 20.8049890474,
			"-0.001": 28.9643841347,
			"0.0": 37.4803929618,
			"0.001": 37.7890689777,
			"0.002": 29.8134327488,
			"0.003": 23.9069693769,
			"0.004": 18.473677556,
			"0.005": 8.79122455475,
			"0.006": 5.84110374373,
			"0.007": 9.78902700594,
			"0.008": 9.10479232449,
			"0.009": 6.00662740615,
			"0.01": 3.44690770951,
			"0.011": 1.95202224889,
			"0.012": 3.65207297644,
			"0.013": 2.74837403387,
			"0.014": 0.0047648052131,
			"0.015": 0.0,
			"0.016": 0.0,
			"0.017": 0.0,
			"0.018": 0.0,
			"0.019": 0.0,
			"0.02": 0.0,
			"0.021": 0.0,
			"0.022": 0.0,
			"0.023": 0.0,
			"0.024": 0.0,
			"0.025": 0.0
		}
	}
}
