{
	 "smiles": "CC1=CC=CC(C)=C1NC1=NCCCS1", 
	 "Tm": 413.15, 
	 "num_atms": 31, 
	 "gaussian": { 
		 "optdone": 1, 
		 "sigma_profile": "yes", 
		 "theory": "DFT", 
		 "functional": "B3LYP", 
		 "basiset": "6-31G**", 
		 "properties": { 
			 "R2extent": 5061.1727, 
			 "electric_dipole_moment_norm": 1.78869745905, 
			 "electric_quadrupole_moment_norm": 9.15704188589, 
			 "total_energy": -974.621050724, 
			 "HOMO_LUMO_gap": 0.213, 
			 "cosmo_polarized_energy": -9.97, 
			 "cosmo_cavitation_energy": 33.84, 
			 "cosmo_dispersion_energy": -24.52, 
			 "cosmo_repulsion_energy": 1.89, 
			 "cosmo_total_nonelectrostatic_energy": 11.21, 
			 "SMD_solvation_energy": 3.29 
		},
		"coords": [
			{
				"x": 0.6890376202,
				"y": -4.1177150399,
				"z": 0.1068219432,
				"element": "C" 
			},
			{
				"x": -0.0494539877,
				"y": -3.0345895847,
				"z": -0.6449416686,
				"element": "C" 
			},
			{
				"x": -0.2703750673,
				"y": -3.1526731114,
				"z": -2.0207685287,
				"element": "C" 
			},
			{
				"x": -0.9369179958,
				"y": -2.1524273336,
				"z": -2.7251789028,
				"element": "C" 
			},
			{
				"x": -1.4044373381,
				"y": -1.027088708,
				"z": -2.0505227288,
				"element": "C" 
			},
			{
				"x": -1.2214893952,
				"y": -0.8763458169,
				"z": -0.670974198,
				"element": "C" 
			},
			{
				"x": -1.7703074994,
				"y": 0.3300857795,
				"z": 0.0438326915,
				"element": "C" 
			},
			{
				"x": -0.5260069532,
				"y": -1.8870938524,
				"z": 0.0206284314,
				"element": "C" 
			},
			{
				"x": -0.3575823494,
				"y": -1.7989948295,
				"z": 1.4363161116,
				"element": "N" 
			},
			{
				"x": 0.4882946431,
				"y": -0.8934748386,
				"z": 2.0646829482,
				"element": "C" 
			},
			{
				"x": 1.0834695618,
				"y": 0.0347364685,
				"z": 1.4334476901,
				"element": "N" 
			},
			{
				"x": 1.933131768,
				"y": 0.9975608182,
				"z": 2.1144583684,
				"element": "C" 
			},
			{
				"x": 2.7046039428,
				"y": 0.4338385132,
				"z": 3.3121947029,
				"element": "C" 
			},
			{
				"x": 1.7743995526,
				"y": -0.0314800858,
				"z": 4.4282226111,
				"element": "C" 
			},
			{
				"x": 0.5278845491,
				"y": -1.260522557,
				"z": 3.8467206037,
				"element": "S" 
			},
			{
				"x": 1.1023897087,
				"y": -4.8551734742,
				"z": -0.5858739023,
				"element": "H" 
			},
			{
				"x": 0.0353103885,
				"y": -4.6636715392,
				"z": 0.8013061796,
				"element": "H" 
			},
			{
				"x": 1.514876104,
				"y": -3.7077814935,
				"z": 0.6982645837,
				"element": "H" 
			},
			{
				"x": 0.0955391998,
				"y": -4.0339842865,
				"z": -2.5412287931,
				"element": "H" 
			},
			{
				"x": -1.0965767049,
				"y": -2.2526656625,
				"z": -3.7949856991,
				"element": "H" 
			},
			{
				"x": -1.9372546743,
				"y": -0.2519406251,
				"z": -2.5952422114,
				"element": "H" 
			},
			{
				"x": -2.2587523868,
				"y": 0.0432066834,
				"z": 0.9809180239,
				"element": "H" 
			},
			{
				"x": -2.4962766011,
				"y": 0.856866789,
				"z": -0.581518396,
				"element": "H" 
			},
			{
				"x": -0.9618718116,
				"y": 1.0205633537,
				"z": 0.3050035733,
				"element": "H" 
			},
			{
				"x": -0.473316922,
				"y": -2.669763637,
				"z": 1.9373407749,
				"element": "H" 
			},
			{
				"x": 1.329098414,
				"y": 1.8593101695,
				"z": 2.4406397966,
				"element": "H" 
			},
			{
				"x": 2.6429285045,
				"y": 1.3879865229,
				"z": 1.3765822504,
				"element": "H" 
			},
			{
				"x": 3.3685881203,
				"y": 1.2076958047,
				"z": 3.7163615585,
				"element": "H" 
			},
			{
				"x": 3.3353669851,
				"y": -0.3979191624,
				"z": 2.9782105603,
				"element": "H" 
			},
			{
				"x": 1.2345371421,
				"y": 0.8159132939,
				"z": 4.8602167415,
				"element": "H" 
			},
			{
				"x": 2.325863482,
				"y": -0.5289585584,
				"z": 5.2299648842,
				"element": "H" 
			}
		],
		 "valence_orbital": [ 
			{
				"type": "occ",
				"energy": -0.2582,
				"method": "rhf"
			},
			{
				"type": "occ",
				"energy": -0.23785,
				"method": "rhf"
			},
			{
				"type": "occ",
				"energy": -0.23003,
				"method": "rhf"
			},
			{
				"type": "occ",
				"energy": -0.2275,
				"method": "rhf"
			},
			{
				"type": "occ",
				"energy": -0.21245,
				"method": "rhf"
			},
			{
				"type": "unocc",
				"energy": 0.00055,
				"method": "rhf"
			},
			{
				"type": "unocc",
				"energy": 0.01237,
				"method": "rhf"
			},
			{
				"type": "unocc",
				"energy": 0.02633,
				"method": "rhf"
			},
			{
				"type": "unocc",
				"energy": 0.03679,
				"method": "rhf"
			},
			{
				"type": "unocc",
				"energy": 0.06826,
				"method": "rhf"
			}
		],
		"cosmo_sigma_profile": { 
			"-0.025": 0.0,
			"-0.024": 0.0,
			"-0.023": 0.0,
			"-0.022": 0.0,
			"-0.021": 0.0,
			"-0.02": 0.0,
			"-0.019": 0.0,
			"-0.018": 0.0,
			"-0.017": 0.0,
			"-0.016": 0.0,
			"-0.015": 0.0,
			"-0.014": 0.0,
			"-0.013": 0.197939603771,
			"-0.012": 1.49003022179,
			"-0.011": 0.551027972359,
			"-0.01": 0.901059911199,
			"-0.009": 1.78845041381,
			"-0.008": 0.941345679912,
			"-0.007": 1.53594709467,
			"-0.006": 4.93229123565,
			"-0.005": 13.9157770591,
			"-0.004": 26.9961034057,
			"-0.003": 32.3428947956,
			"-0.002": 29.4328444323,
			"-0.001": 24.5080926979,
			"0.0": 23.446341915,
			"0.001": 19.1129394632,
			"0.002": 15.3006890414,
			"0.003": 14.7065166588,
			"0.004": 13.2283217011,
			"0.005": 12.2534481748,
			"0.006": 10.6757828173,
			"0.007": 7.75467780689,
			"0.008": 3.58319601941,
			"0.009": 2.51834937121,
			"0.01": 1.2394978755,
			"0.011": 1.11368415387,
			"0.012": 0.805716380221,
			"0.013": 1.05153887126,
			"0.014": 0.980716671754,
			"0.015": 0.764170714762,
			"0.016": 0.144852298695,
			"0.017": 0.0,
			"0.018": 0.0,
			"0.019": 0.0,
			"0.02": 0.0,
			"0.021": 0.0,
			"0.022": 0.0,
			"0.023": 0.0,
			"0.024": 0.0,
			"0.025": 0.0
		}
	}
}
