{
	 "smiles": "COC1=NC(Cl)=NC=C1", 
	 "Tm": 330.65, 
	 "num_atms": 14, 
	 "gaussian": { 
		 "optdone": 1, 
		 "sigma_profile": "yes", 
		 "theory": "DFT", 
		 "functional": "B3LYP", 
		 "basiset": "6-31G**", 
		 "properties": { 
			 "R2extent": 2710.9919, 
			 "electric_dipole_moment_norm": 5.63368264726, 
			 "electric_quadrupole_moment_norm": 12.1299640441, 
			 "total_energy": -838.448357421, 
			 "HOMO_LUMO_gap": 0.22385, 
			 "cosmo_polarized_energy": -12.04, 
			 "cosmo_cavitation_energy": 20.37, 
			 "cosmo_dispersion_energy": -15.64, 
			 "cosmo_repulsion_energy": 1.29, 
			 "cosmo_total_nonelectrostatic_energy": 6.02, 
			 "SMD_solvation_energy": 1.32 
		},
		"coords": [
			{
				"x": -2.3103218402,
				"y": -0.2788302387,
				"z": 1.4106683757,
				"element": "C" 
			},
			{
				"x": -1.4961816723,
				"y": -0.6853504395,
				"z": 0.3125445868,
				"element": "O" 
			},
			{
				"x": -0.4476472713,
				"y": -1.487732642,
				"z": 0.5534807386,
				"element": "C" 
			},
			{
				"x": 0.2439169169,
				"y": -1.8050947166,
				"z": -0.5455441115,
				"element": "N" 
			},
			{
				"x": 1.2887825497,
				"y": -2.5943723575,
				"z": -0.3657262077,
				"element": "C" 
			},
			{
				"x": 2.1874453778,
				"y": -3.0042607267,
				"z": -1.8162337507,
				"element": "Cl" 
			},
			{
				"x": 1.7507406128,
				"y": -3.1206262888,
				"z": 0.7639359439,
				"element": "N" 
			},
			{
				"x": 1.0427946446,
				"y": -2.7895344595,
				"z": 1.852899571,
				"element": "C" 
			},
			{
				"x": -0.0783122502,
				"y": -1.9693802453,
				"z": 1.8210734008,
				"element": "C" 
			},
			{
				"x": -1.733488085,
				"y": 0.2958548947,
				"z": 2.1444026538,
				"element": "H" 
			},
			{
				"x": -3.0855372691,
				"y": 0.3562720901,
				"z": 0.9824919483,
				"element": "H" 
			},
			{
				"x": -2.776472682,
				"y": -1.1401987298,
				"z": 1.9027147349,
				"element": "H" 
			},
			{
				"x": 1.3946043002,
				"y": -3.2039332947,
				"z": 2.795467801,
				"element": "H" 
			},
			{
				"x": -0.6186233319,
				"y": -1.7291128458,
				"z": 2.7265243153,
				"element": "H" 
			}
		],
		 "valence_orbital": [ 
			{
				"type": "occ",
				"energy": -0.32219,
				"method": "rhf"
			},
			{
				"type": "occ",
				"energy": -0.31362,
				"method": "rhf"
			},
			{
				"type": "occ",
				"energy": -0.29526,
				"method": "rhf"
			},
			{
				"type": "occ",
				"energy": -0.26924,
				"method": "rhf"
			},
			{
				"type": "occ",
				"energy": -0.26866,
				"method": "rhf"
			},
			{
				"type": "unocc",
				"energy": -0.04481,
				"method": "rhf"
			},
			{
				"type": "unocc",
				"energy": -0.02866,
				"method": "rhf"
			},
			{
				"type": "unocc",
				"energy": 0.04131,
				"method": "rhf"
			},
			{
				"type": "unocc",
				"energy": 0.07935,
				"method": "rhf"
			},
			{
				"type": "unocc",
				"energy": 0.09849,
				"method": "rhf"
			}
		],
		"cosmo_sigma_profile": { 
			"-0.025": 0.0,
			"-0.024": 0.0,
			"-0.023": 0.0,
			"-0.022": 0.0,
			"-0.021": 0.0,
			"-0.02": 0.0,
			"-0.019": 0.0,
			"-0.018": 0.0,
			"-0.017": 0.0,
			"-0.016": 0.0,
			"-0.015": 0.0,
			"-0.014": 0.0,
			"-0.013": 0.0,
			"-0.012": 0.0,
			"-0.011": 0.0,
			"-0.01": 0.0286901999897,
			"-0.009": 2.60005563161,
			"-0.008": 6.14483277257,
			"-0.007": 11.4612069172,
			"-0.006": 11.3508622441,
			"-0.005": 9.79490462526,
			"-0.004": 12.0937092988,
			"-0.003": 11.0739223959,
			"-0.002": 10.4469839125,
			"-0.001": 11.8038137627,
			"0.0": 9.52515652206,
			"0.001": 7.45884477379,
			"0.002": 7.71697993877,
			"0.003": 8.28368657375,
			"0.004": 11.8147787046,
			"0.005": 6.58752638179,
			"0.006": 5.29291921247,
			"0.007": 3.90146085363,
			"0.008": 3.18577311025,
			"0.009": 3.6221832283,
			"0.01": 3.75106832725,
			"0.011": 2.83756848551,
			"0.012": 2.06718454072,
			"0.013": 2.06921731938,
			"0.014": 1.14498163318,
			"0.015": 0.046963791857,
			"0.016": 0.0,
			"0.017": 0.0,
			"0.018": 0.0,
			"0.019": 0.0,
			"0.02": 0.0,
			"0.021": 0.0,
			"0.022": 0.0,
			"0.023": 0.0,
			"0.024": 0.0,
			"0.025": 0.0
		}
	}
}
