{
	 "smiles": "CC1CCNCC1", 
	 "Tm": 278.15, 
	 "num_atms": 20, 
	 "gaussian": { 
		 "optdone": 1, 
		 "sigma_profile": "yes", 
		 "theory": "DFT", 
		 "functional": "B3LYP", 
		 "basiset": "6-31G**", 
		 "properties": { 
			 "R2extent": 1171.6143, 
			 "electric_dipole_moment_norm": 0.807218892247, 
			 "electric_quadrupole_moment_norm": 3.10549002091, 
			 "total_energy": -291.230249928, 
			 "HOMO_LUMO_gap": 0.29099, 
			 "cosmo_polarized_energy": -3.37, 
			 "cosmo_cavitation_energy": 19.99, 
			 "cosmo_dispersion_energy": -15.39, 
			 "cosmo_repulsion_energy": 1.29, 
			 "cosmo_total_nonelectrostatic_energy": 5.9, 
			 "SMD_solvation_energy": 0.73 
		},
		"coords": [
			{
				"x": -0.4132280503,
				"y": -0.1863083961,
				"z": 2.922812959,
				"element": "C" 
			},
			{
				"x": -1.5397884668,
				"y": -0.2021976031,
				"z": 1.8762729613,
				"element": "C" 
			},
			{
				"x": -1.1584761537,
				"y": -0.9945861784,
				"z": 0.6052555628,
				"element": "C" 
			},
			{
				"x": -0.184331878,
				"y": -0.2218711682,
				"z": -0.2928618178,
				"element": "C" 
			},
			{
				"x": -0.7677916283,
				"y": 1.0757432106,
				"z": -0.6410524048,
				"element": "N" 
			},
			{
				"x": -0.9900689264,
				"y": 1.9098952759,
				"z": 0.542312831,
				"element": "C" 
			},
			{
				"x": -1.9949216709,
				"y": 1.2184815399,
				"z": 1.4722181979,
				"element": "C" 
			},
			{
				"x": -0.1400849769,
				"y": -1.206152344,
				"z": 3.2162419868,
				"element": "H" 
			},
			{
				"x": 0.4947186738,
				"y": 0.3022196215,
				"z": 2.5551433545,
				"element": "H" 
			},
			{
				"x": -0.7288474142,
				"y": 0.3474295939,
				"z": 3.8263053558,
				"element": "H" 
			},
			{
				"x": -2.398375148,
				"y": -0.7079284075,
				"z": 2.3387516714,
				"element": "H" 
			},
			{
				"x": -2.0665122485,
				"y": -1.1943326938,
				"z": 0.0235609028,
				"element": "H" 
			},
			{
				"x": -0.7240593831,
				"y": -1.9646554623,
				"z": 0.877271348,
				"element": "H" 
			},
			{
				"x": -0.0068994124,
				"y": -0.7837346707,
				"z": -1.2169985871,
				"element": "H" 
			},
			{
				"x": 0.7946826803,
				"y": -0.1255777907,
				"z": 0.2161162408,
				"element": "H" 
			},
			{
				"x": -0.1611986928,
				"y": 1.5615656088,
				"z": -1.2958694158,
				"element": "H" 
			},
			{
				"x": -1.390514869,
				"y": 2.8769012048,
				"z": 0.2171235987,
				"element": "H" 
			},
			{
				"x": -0.0543779707,
				"y": 2.1209698458,
				"z": 1.0961590364,
				"element": "H" 
			},
			{
				"x": -2.9521375677,
				"y": 1.1489599831,
				"z": 0.941471994,
				"element": "H" 
			},
			{
				"x": -2.1598868965,
				"y": 1.8339788304,
				"z": 2.3653642244,
				"element": "H" 
			}
		],
		 "valence_orbital": [ 
			{
				"type": "occ",
				"energy": -0.33728,
				"method": "rhf"
			},
			{
				"type": "occ",
				"energy": -0.31387,
				"method": "rhf"
			},
			{
				"type": "occ",
				"energy": -0.2997,
				"method": "rhf"
			},
			{
				"type": "occ",
				"energy": -0.29818,
				"method": "rhf"
			},
			{
				"type": "occ",
				"energy": -0.21321,
				"method": "rhf"
			},
			{
				"type": "unocc",
				"energy": 0.07778,
				"method": "rhf"
			},
			{
				"type": "unocc",
				"energy": 0.10557,
				"method": "rhf"
			},
			{
				"type": "unocc",
				"energy": 0.12529,
				"method": "rhf"
			},
			{
				"type": "unocc",
				"energy": 0.13978,
				"method": "rhf"
			},
			{
				"type": "unocc",
				"energy": 0.14912,
				"method": "rhf"
			}
		],
		"cosmo_sigma_profile": { 
			"-0.025": 0.0,
			"-0.024": 0.0,
			"-0.023": 0.0,
			"-0.022": 0.0,
			"-0.021": 0.0,
			"-0.02": 0.0,
			"-0.019": 0.0,
			"-0.018": 0.0,
			"-0.017": 0.0,
			"-0.016": 0.0,
			"-0.015": 0.0,
			"-0.014": 0.0,
			"-0.013": 0.0,
			"-0.012": 0.0,
			"-0.011": 0.0,
			"-0.01": 0.240520052634,
			"-0.009": 1.37871734094,
			"-0.008": 1.20652031234,
			"-0.007": 1.05697349869,
			"-0.006": 1.63379442764,
			"-0.005": 1.03012983156,
			"-0.004": 1.65647273639,
			"-0.003": 7.17511445566,
			"-0.002": 22.7402996161,
			"-0.001": 33.2749478118,
			"0.0": 36.2100461871,
			"0.001": 23.3951717969,
			"0.002": 9.71971459232,
			"0.003": 1.60843920316,
			"0.004": 1.30015136023,
			"0.005": 1.0343317478,
			"0.006": 1.02931850172,
			"0.007": 0.393489080329,
			"0.008": 0.469185391008,
			"0.009": 1.13954813964,
			"0.01": 0.691999491746,
			"0.011": 0.280546111765,
			"0.012": 1.08415086107,
			"0.013": 0.686864445605,
			"0.014": 0.526559096729,
			"0.015": 0.181071672997,
			"0.016": 0.549988091067,
			"0.017": 0.384155387901,
			"0.018": 0.427280884596,
			"0.019": 0.396301567439,
			"0.02": 0.0,
			"0.021": 0.0,
			"0.022": 0.0,
			"0.023": 0.0,
			"0.024": 0.0,
			"0.025": 0.0
		}
	}
}
