{
	 "smiles": "FC(F)(F)COS(=O)(=O)C(Cl)(Cl)Cl", 
	 "Tm": 203.15, 
	 "num_atms": 15, 
	 "gaussian": { 
		 "optdone": 1, 
		 "sigma_profile": "yes", 
		 "theory": "DFT", 
		 "functional": "B3LYP", 
		 "basiset": "6-31G**", 
		 "properties": { 
			 "R2extent": 4848.8674, 
			 "electric_dipole_moment_norm": 3.26351586636, 
			 "electric_quadrupole_moment_norm": 3.03324670444, 
			 "total_energy": -2419.36637116, 
			 "HOMO_LUMO_gap": 0.26091, 
			 "cosmo_polarized_energy": -8.15, 
			 "cosmo_cavitation_energy": 28.05, 
			 "cosmo_dispersion_energy": -19.91, 
			 "cosmo_repulsion_energy": 1.48, 
			 "cosmo_total_nonelectrostatic_energy": 9.63, 
			 "SMD_solvation_energy": 4.16 
		},
		"coords": [
			{
				"x": -1.4021851459,
				"y": -1.4927580268,
				"z": 0.1851281763,
				"element": "F" 
			},
			{
				"x": -0.7845743629,
				"y": -0.9588466837,
				"z": 1.2535619738,
				"element": "C" 
			},
			{
				"x": 0.2491738973,
				"y": -1.7505070475,
				"z": 1.5777193919,
				"element": "F" 
			},
			{
				"x": -1.6502528573,
				"y": -0.9467894607,
				"z": 2.287303889,
				"element": "F" 
			},
			{
				"x": -0.3381283309,
				"y": 0.468504105,
				"z": 0.9744039105,
				"element": "C" 
			},
			{
				"x": 0.5786237759,
				"y": 0.4797708084,
				"z": -0.1327134118,
				"element": "O" 
			},
			{
				"x": 0.0155145634,
				"y": 0.8634326598,
				"z": -1.6239046764,
				"element": "S" 
			},
			{
				"x": 0.4683847486,
				"y": -0.1551020284,
				"z": -2.5476786471,
				"element": "O" 
			},
			{
				"x": -1.3703103998,
				"y": 1.296012015,
				"z": -1.5317258933,
				"element": "O" 
			},
			{
				"x": 1.0901934106,
				"y": 2.4160238127,
				"z": -1.913713826,
				"element": "C" 
			},
			{
				"x": 0.7047046408,
				"y": 3.6180956044,
				"z": -0.6518386921,
				"element": "Cl" 
			},
			{
				"x": 2.8045952148,
				"y": 1.9596356998,
				"z": -1.8539175583,
				"element": "Cl" 
			},
			{
				"x": 0.6481994352,
				"y": 3.0325976657,
				"z": -3.524552563,
				"element": "Cl" 
			},
			{
				"x": -1.2146155082,
				"y": 1.0861016291,
				"z": 0.772688842,
				"element": "H" 
			},
			{
				"x": 0.2100769184,
				"y": 0.8534292473,
				"z": 1.8354390844,
				"element": "H" 
			}
		],
		 "valence_orbital": [ 
			{
				"type": "occ",
				"energy": -0.35254,
				"method": "rhf"
			},
			{
				"type": "occ",
				"energy": -0.34267,
				"method": "rhf"
			},
			{
				"type": "occ",
				"energy": -0.33866,
				"method": "rhf"
			},
			{
				"type": "occ",
				"energy": -0.33465,
				"method": "rhf"
			},
			{
				"type": "occ",
				"energy": -0.33243,
				"method": "rhf"
			},
			{
				"type": "unocc",
				"energy": -0.07152,
				"method": "rhf"
			},
			{
				"type": "unocc",
				"energy": -0.03514,
				"method": "rhf"
			},
			{
				"type": "unocc",
				"energy": -0.02875,
				"method": "rhf"
			},
			{
				"type": "unocc",
				"energy": -0.01963,
				"method": "rhf"
			},
			{
				"type": "unocc",
				"energy": 0.02802,
				"method": "rhf"
			}
		],
		"cosmo_sigma_profile": { 
			"-0.025": 0.0,
			"-0.024": 0.0,
			"-0.023": 0.0,
			"-0.022": 0.0,
			"-0.021": 0.0,
			"-0.02": 0.0,
			"-0.019": 0.0,
			"-0.018": 0.0,
			"-0.017": 0.0,
			"-0.016": 0.0,
			"-0.015": 0.0,
			"-0.014": 0.0,
			"-0.013": 0.0,
			"-0.012": 0.150826623297,
			"-0.011": 2.29934196163,
			"-0.01": 3.47179829698,
			"-0.009": 3.07755786593,
			"-0.008": 3.44362500804,
			"-0.007": 3.55635070244,
			"-0.006": 6.27951528461,
			"-0.005": 7.56527031161,
			"-0.004": 8.57824189955,
			"-0.003": 10.4038464422,
			"-0.002": 13.8393190434,
			"-0.001": 19.2498159924,
			"0.0": 29.672280853,
			"0.001": 41.7451437528,
			"0.002": 38.1230321287,
			"0.003": 11.3751571596,
			"0.004": 5.58015487126,
			"0.005": 2.58814407139,
			"0.006": 4.82080293837,
			"0.007": 10.3555683416,
			"0.008": 5.30951475534,
			"0.009": 0.0,
			"0.01": 0.0,
			"0.011": 0.0,
			"0.012": 0.0,
			"0.013": 0.0,
			"0.014": 0.0,
			"0.015": 0.0,
			"0.016": 0.0,
			"0.017": 0.0,
			"0.018": 0.0,
			"0.019": 0.0,
			"0.02": 0.0,
			"0.021": 0.0,
			"0.022": 0.0,
			"0.023": 0.0,
			"0.024": 0.0,
			"0.025": 0.0
		}
	}
}
