{
	 "smiles": "C(CC1=CC=CC2=C1C=CC=C2)C1=CC=CC2=CC=CC=C12", 
	 "Tm": 434.65, 
	 "num_atms": 40, 
	 "gaussian": { 
		 "optdone": 1, 
		 "sigma_profile": "yes", 
		 "theory": "DFT", 
		 "functional": "B3LYP", 
		 "basiset": "6-31G**", 
		 "properties": { 
			 "R2extent": 7627.6076, 
			 "electric_dipole_moment_norm": 0.261678313966, 
			 "electric_quadrupole_moment_norm": 12.4112619242, 
			 "total_energy": -849.220754961, 
			 "HOMO_LUMO_gap": 0.16593, 
			 "cosmo_polarized_energy": -8.49, 
			 "cosmo_cavitation_energy": 41.67, 
			 "cosmo_dispersion_energy": -28.25, 
			 "cosmo_repulsion_energy": 2.12, 
			 "cosmo_total_nonelectrostatic_energy": 15.54, 
			 "SMD_solvation_energy": 6.02 
		},
		"coords": [
			{
				"x": -0.3935417821,
				"y": 1.282537143,
				"z": -1.2070743846,
				"element": "C" 
			},
			{
				"x": -1.938855017,
				"y": 1.1880079985,
				"z": -1.0433505347,
				"element": "C" 
			},
			{
				"x": -2.4442503823,
				"y": 1.1662619754,
				"z": 0.3834378872,
				"element": "C" 
			},
			{
				"x": -2.7948525673,
				"y": -0.0361403135,
				"z": 0.9677948822,
				"element": "C" 
			},
			{
				"x": -3.2535084133,
				"y": -0.1133597303,
				"z": 2.3034286803,
				"element": "C" 
			},
			{
				"x": -3.3671519425,
				"y": 1.0269823596,
				"z": 3.061291186,
				"element": "C" 
			},
			{
				"x": -3.0283438873,
				"y": 2.2923242665,
				"z": 2.5114292691,
				"element": "C" 
			},
			{
				"x": -2.5603886472,
				"y": 2.371727683,
				"z": 1.1555230776,
				"element": "C" 
			},
			{
				"x": -2.2343628441,
				"y": 3.6580207609,
				"z": 0.6387819553,
				"element": "C" 
			},
			{
				"x": -2.3579942073,
				"y": 4.7941095176,
				"z": 1.4092955766,
				"element": "C" 
			},
			{
				"x": -2.817275702,
				"y": 4.7087695299,
				"z": 2.7442444743,
				"element": "C" 
			},
			{
				"x": -3.1456173743,
				"y": 3.4833800945,
				"z": 3.2775810976,
				"element": "C" 
			},
			{
				"x": 0.3616517425,
				"y": 0.035709271,
				"z": -0.7858997795,
				"element": "C" 
			},
			{
				"x": 0.4668445146,
				"y": -1.0057088965,
				"z": -1.6914245511,
				"element": "C" 
			},
			{
				"x": 1.1426281261,
				"y": -2.2068959256,
				"z": -1.380896038,
				"element": "C" 
			},
			{
				"x": 1.7327734699,
				"y": -2.3640403477,
				"z": -0.1493637432,
				"element": "C" 
			},
			{
				"x": 1.6649618518,
				"y": -1.3272432464,
				"z": 0.8179280498,
				"element": "C" 
			},
			{
				"x": 2.2784055611,
				"y": -1.4740870517,
				"z": 2.0920052595,
				"element": "C" 
			},
			{
				"x": 2.213506735,
				"y": -0.4721821126,
				"z": 3.0317749962,
				"element": "C" 
			},
			{
				"x": 1.5239631764,
				"y": 0.7268643427,
				"z": 2.7343161627,
				"element": "C" 
			},
			{
				"x": 0.9184806039,
				"y": 0.9017376408,
				"z": 1.5098762658,
				"element": "C" 
			},
			{
				"x": 0.9662358868,
				"y": -0.1090318405,
				"z": 0.507886105,
				"element": "C" 
			},
			{
				"x": -0.1920109384,
				"y": 1.4572169006,
				"z": -2.2705299847,
				"element": "H" 
			},
			{
				"x": -0.0215798806,
				"y": 2.1652958618,
				"z": -0.6803903084,
				"element": "H" 
			},
			{
				"x": -2.3887688778,
				"y": 2.0264579605,
				"z": -1.588074085,
				"element": "H" 
			},
			{
				"x": -2.2777742999,
				"y": 0.2786764605,
				"z": -1.5508789633,
				"element": "H" 
			},
			{
				"x": -2.7099239646,
				"y": -0.9496527346,
				"z": 0.3854520481,
				"element": "H" 
			},
			{
				"x": -3.5143172706,
				"y": -1.0803634836,
				"z": 2.7237105029,
				"element": "H" 
			},
			{
				"x": -3.7186948535,
				"y": 0.9792819933,
				"z": 4.0887299018,
				"element": "H" 
			},
			{
				"x": -1.8850833447,
				"y": 3.7503100976,
				"z": -0.383982309,
				"element": "H" 
			},
			{
				"x": -2.1036945337,
				"y": 5.7627717155,
				"z": 0.9884073508,
				"element": "H" 
			},
			{
				"x": -2.9118446218,
				"y": 5.6102977683,
				"z": 3.3426369207,
				"element": "H" 
			},
			{
				"x": -3.5027663346,
				"y": 3.407039072,
				"z": 4.301641546,
				"element": "H" 
			},
			{
				"x": 0.0206097712,
				"y": -0.8934425501,
				"z": -2.6772304435,
				"element": "H" 
			},
			{
				"x": 1.1995675939,
				"y": -2.9977764354,
				"z": -2.123446852,
				"element": "H" 
			},
			{
				"x": 2.2623402192,
				"y": -3.2798784936,
				"z": 0.1005099823,
				"element": "H" 
			},
			{
				"x": 2.8035478007,
				"y": -2.4009280297,
				"z": 2.3095305959,
				"element": "H" 
			},
			{
				"x": 2.6876257814,
				"y": -0.5979852599,
				"z": 4.0010022309,
				"element": "H" 
			},
			{
				"x": 1.4680159198,
				"y": 1.5148818527,
				"z": 3.4797823782,
				"element": "H" 
			},
			{
				"x": 0.3835429323,
				"y": 1.8238541853,
				"z": 1.3162435941,
				"element": "H" 
			}
		],
		 "valence_orbital": [ 
			{
				"type": "occ",
				"energy": -0.27089,
				"method": "rhf"
			},
			{
				"type": "occ",
				"energy": -0.2395,
				"method": "rhf"
			},
			{
				"type": "occ",
				"energy": -0.23625,
				"method": "rhf"
			},
			{
				"type": "occ",
				"energy": -0.2113,
				"method": "rhf"
			},
			{
				"type": "occ",
				"energy": -0.20366,
				"method": "rhf"
			},
			{
				"type": "unocc",
				"energy": -0.03773,
				"method": "rhf"
			},
			{
				"type": "unocc",
				"energy": -0.03066,
				"method": "rhf"
			},
			{
				"type": "unocc",
				"energy": -0.00591,
				"method": "rhf"
			},
			{
				"type": "unocc",
				"energy": -0.00222,
				"method": "rhf"
			},
			{
				"type": "unocc",
				"energy": 0.03347,
				"method": "rhf"
			}
		],
		"cosmo_sigma_profile": { 
			"-0.025": 0.0,
			"-0.024": 0.0,
			"-0.023": 0.0,
			"-0.022": 0.0,
			"-0.021": 0.0,
			"-0.02": 0.0,
			"-0.019": 0.0,
			"-0.018": 0.0,
			"-0.017": 0.0,
			"-0.016": 0.0,
			"-0.015": 0.0,
			"-0.014": 0.0,
			"-0.013": 0.0,
			"-0.012": 0.0,
			"-0.011": 0.0,
			"-0.01": 0.0,
			"-0.009": 0.0,
			"-0.008": 0.0,
			"-0.007": 0.0,
			"-0.006": 9.80742927148,
			"-0.005": 30.0995100114,
			"-0.004": 35.481127882,
			"-0.003": 37.6466010706,
			"-0.002": 26.8963301999,
			"-0.001": 25.2773212962,
			"0.0": 19.1697920474,
			"0.001": 19.9459448715,
			"0.002": 19.3672181303,
			"0.003": 23.002843857,
			"0.004": 32.953091701,
			"0.005": 37.0830246308,
			"0.006": 16.0026792568,
			"0.007": 0.236711044602,
			"0.008": 0.0,
			"0.009": 0.0,
			"0.01": 0.0,
			"0.011": 0.0,
			"0.012": 0.0,
			"0.013": 0.0,
			"0.014": 0.0,
			"0.015": 0.0,
			"0.016": 0.0,
			"0.017": 0.0,
			"0.018": 0.0,
			"0.019": 0.0,
			"0.02": 0.0,
			"0.021": 0.0,
			"0.022": 0.0,
			"0.023": 0.0,
			"0.024": 0.0,
			"0.025": 0.0
		}
	}
}
