{
	 "smiles": "FC(F)(F)C1=CN=C(S)C(Cl)=C1", 
	 "Tm": 420.15, 
	 "num_atms": 15, 
	 "gaussian": { 
		 "optdone": 1, 
		 "sigma_profile": "yes", 
		 "theory": "DFT", 
		 "functional": "B3LYP", 
		 "basiset": "6-31G**", 
		 "properties": { 
			 "R2extent": 3786.0577, 
			 "electric_dipole_moment_norm": 0.456994212217, 
			 "electric_quadrupole_moment_norm": 7.02880951798, 
			 "total_energy": -1443.09428543, 
			 "HOMO_LUMO_gap": 0.19188, 
			 "cosmo_polarized_energy": -5.41, 
			 "cosmo_cavitation_energy": 24.73, 
			 "cosmo_dispersion_energy": -18.46, 
			 "cosmo_repulsion_energy": 1.37, 
			 "cosmo_total_nonelectrostatic_energy": 7.64, 
			 "SMD_solvation_energy": 3.5 
		},
		"coords": [
			{
				"x": -0.6055297223,
				"y": -2.4441756366,
				"z": -0.1566217597,
				"element": "F" 
			},
			{
				"x": -0.9393592906,
				"y": -1.1373628509,
				"z": -0.067587538,
				"element": "C" 
			},
			{
				"x": -1.1318239367,
				"y": -0.6937348062,
				"z": -1.329021325,
				"element": "F" 
			},
			{
				"x": -2.1212818832,
				"y": -1.0718476752,
				"z": 0.5797432826,
				"element": "F" 
			},
			{
				"x": 0.1224010595,
				"y": -0.3414816003,
				"z": 0.6382268369,
				"element": "C" 
			},
			{
				"x": 0.0640471684,
				"y": -0.1205605887,
				"z": 2.0139760692,
				"element": "C" 
			},
			{
				"x": 1.0089173774,
				"y": 0.5402822453,
				"z": 2.6868359115,
				"element": "N" 
			},
			{
				"x": 2.0653850323,
				"y": 1.0172879794,
				"z": 2.022705912,
				"element": "C" 
			},
			{
				"x": 3.307612045,
				"y": 1.8898699777,
				"z": 2.9443513811,
				"element": "S" 
			},
			{
				"x": 2.2022705959,
				"y": 0.843438604,
				"z": 0.6299528824,
				"element": "C" 
			},
			{
				"x": 3.5865096836,
				"y": 1.4860409214,
				"z": -0.2181493755,
				"element": "Cl" 
			},
			{
				"x": 1.2201104545,
				"y": 0.156381192,
				"z": -0.0675548224,
				"element": "C" 
			},
			{
				"x": -0.7785179816,
				"y": -0.4818203353,
				"z": 2.5966084475,
				"element": "H" 
			},
			{
				"x": 2.6523627442,
				"y": 1.7320919355,
				"z": 4.1107809836,
				"element": "H" 
			},
			{
				"x": 1.3041966536,
				"y": 0.0195906378,
				"z": -1.1396468863,
				"element": "H" 
			}
		],
		 "valence_orbital": [ 
			{
				"type": "occ",
				"energy": -0.34116,
				"method": "rhf"
			},
			{
				"type": "occ",
				"energy": -0.3338,
				"method": "rhf"
			},
			{
				"type": "occ",
				"energy": -0.29559,
				"method": "rhf"
			},
			{
				"type": "occ",
				"energy": -0.2873,
				"method": "rhf"
			},
			{
				"type": "occ",
				"energy": -0.25066,
				"method": "rhf"
			},
			{
				"type": "unocc",
				"energy": -0.05878,
				"method": "rhf"
			},
			{
				"type": "unocc",
				"energy": -0.04845,
				"method": "rhf"
			},
			{
				"type": "unocc",
				"energy": -0.00569,
				"method": "rhf"
			},
			{
				"type": "unocc",
				"energy": 0.02457,
				"method": "rhf"
			},
			{
				"type": "unocc",
				"energy": 0.07079,
				"method": "rhf"
			}
		],
		"cosmo_sigma_profile": { 
			"-0.025": 0.0,
			"-0.024": 0.0,
			"-0.023": 0.0,
			"-0.022": 0.0,
			"-0.021": 0.0,
			"-0.02": 0.0,
			"-0.019": 0.0,
			"-0.018": 0.0,
			"-0.017": 0.0,
			"-0.016": 0.0,
			"-0.015": 0.0,
			"-0.014": 0.0,
			"-0.013": 0.0,
			"-0.012": 0.326268381874,
			"-0.011": 1.36309980026,
			"-0.01": 1.83786757868,
			"-0.009": 3.00264071583,
			"-0.008": 3.72282645512,
			"-0.007": 4.81362821332,
			"-0.006": 6.01970384099,
			"-0.005": 4.67800554193,
			"-0.004": 6.60264214911,
			"-0.003": 10.7588963814,
			"-0.002": 19.7055731479,
			"-0.001": 21.1320136539,
			"0.0": 15.2878428902,
			"0.001": 17.0091236508,
			"0.002": 36.7326047673,
			"0.003": 30.7549217648,
			"0.004": 6.63253011803,
			"0.005": 3.89409100913,
			"0.006": 4.66166953665,
			"0.007": 1.60969263389,
			"0.008": 0.698039851477,
			"0.009": 0.823500331041,
			"0.01": 0.850158086864,
			"0.011": 0.847234292012,
			"0.012": 0.39316287545,
			"0.013": 0.0,
			"0.014": 0.0,
			"0.015": 0.0,
			"0.016": 0.0,
			"0.017": 0.0,
			"0.018": 0.0,
			"0.019": 0.0,
			"0.02": 0.0,
			"0.021": 0.0,
			"0.022": 0.0,
			"0.023": 0.0,
			"0.024": 0.0,
			"0.025": 0.0
		}
	}
}
