{
	 "smiles": "CC1=NNC2=C1C=CC(N)=C2", 
	 "Tm": 463.15, 
	 "num_atms": 20, 
	 "gaussian": { 
		 "optdone": 1, 
		 "sigma_profile": "yes", 
		 "theory": "DFT", 
		 "functional": "B3LYP", 
		 "basiset": "6-31G**", 
		 "properties": { 
			 "R2extent": 2472.5438, 
			 "electric_dipole_moment_norm": 3.03839878884, 
			 "electric_quadrupole_moment_norm": 11.8535227068, 
			 "total_energy": -474.527156741, 
			 "HOMO_LUMO_gap": 0.18176, 
			 "cosmo_polarized_energy": -13.52, 
			 "cosmo_cavitation_energy": 23.67, 
			 "cosmo_dispersion_energy": -17.85, 
			 "cosmo_repulsion_energy": 1.44, 
			 "cosmo_total_nonelectrostatic_energy": 7.26, 
			 "SMD_solvation_energy": 2.91 
		},
		"coords": [
			{
				"x": 2.7012052323,
				"y": 2.4524270485,
				"z": -2.63112778,
				"element": "C" 
			},
			{
				"x": 2.3095628261,
				"y": 1.1173673093,
				"z": -2.0795639395,
				"element": "C" 
			},
			{
				"x": 3.2061517428,
				"y": 0.1587932252,
				"z": -1.9207928788,
				"element": "N" 
			},
			{
				"x": 2.5279899078,
				"y": -0.9124138986,
				"z": -1.4037289905,
				"element": "N" 
			},
			{
				"x": 1.1975558579,
				"y": -0.659762999,
				"z": -1.2277959881,
				"element": "C" 
			},
			{
				"x": 1.0089903982,
				"y": 0.6755678054,
				"z": -1.6620864923,
				"element": "C" 
			},
			{
				"x": -0.281127898,
				"y": 1.2315968906,
				"z": -1.5985140401,
				"element": "C" 
			},
			{
				"x": -1.3230646495,
				"y": 0.4618542141,
				"z": -1.1164067045,
				"element": "C" 
			},
			{
				"x": -1.1198128344,
				"y": -0.8797696395,
				"z": -0.6802696551,
				"element": "C" 
			},
			{
				"x": -2.2226765498,
				"y": -1.626513671,
				"z": -0.256336638,
				"element": "N" 
			},
			{
				"x": 0.1522869523,
				"y": -1.4517195584,
				"z": -0.7318626968,
				"element": "C" 
			},
			{
				"x": 3.7709874974,
				"y": 2.4628817285,
				"z": -2.8504174268,
				"element": "H" 
			},
			{
				"x": 2.1558512118,
				"y": 2.6793101198,
				"z": -3.5547432433,
				"element": "H" 
			},
			{
				"x": 2.4853324172,
				"y": 3.2584710102,
				"z": -1.9199752686,
				"element": "H" 
			},
			{
				"x": 3.0348004127,
				"y": -1.760920022,
				"z": -1.2147984675,
				"element": "H" 
			},
			{
				"x": -0.4635991674,
				"y": 2.2526609852,
				"z": -1.9218479816,
				"element": "H" 
			},
			{
				"x": -2.3274135198,
				"y": 0.8749186886,
				"z": -1.0705195338,
				"element": "H" 
			},
			{
				"x": -2.9874705802,
				"y": -1.0816782085,
				"z": 0.1175896732,
				"element": "H" 
			},
			{
				"x": -2.0039702317,
				"y": -2.4171909997,
				"z": 0.3342158796,
				"element": "H" 
			},
			{
				"x": 0.3162209743,
				"y": -2.4745800288,
				"z": -0.4039178274,
				"element": "H" 
			}
		],
		 "valence_orbital": [ 
			{
				"type": "occ",
				"energy": -0.29619,
				"method": "rhf"
			},
			{
				"type": "occ",
				"energy": -0.27646,
				"method": "rhf"
			},
			{
				"type": "occ",
				"energy": -0.26596,
				"method": "rhf"
			},
			{
				"type": "occ",
				"energy": -0.21199,
				"method": "rhf"
			},
			{
				"type": "occ",
				"energy": -0.19304,
				"method": "rhf"
			},
			{
				"type": "unocc",
				"energy": -0.01128,
				"method": "rhf"
			},
			{
				"type": "unocc",
				"energy": 0.03249,
				"method": "rhf"
			},
			{
				"type": "unocc",
				"energy": 0.07128,
				"method": "rhf"
			},
			{
				"type": "unocc",
				"energy": 0.08349,
				"method": "rhf"
			},
			{
				"type": "unocc",
				"energy": 0.09485,
				"method": "rhf"
			}
		],
		"cosmo_sigma_profile": { 
			"-0.025": 0.0,
			"-0.024": 0.0,
			"-0.023": 0.0,
			"-0.022": 0.0,
			"-0.021": 0.0,
			"-0.02": 0.0,
			"-0.019": 0.0,
			"-0.018": 0.0,
			"-0.017": 0.0,
			"-0.016": 0.282529368838,
			"-0.015": 1.53296231025,
			"-0.014": 0.957354789003,
			"-0.013": 1.29910342808,
			"-0.012": 3.8368745848,
			"-0.011": 3.68847803569,
			"-0.01": 3.39980986935,
			"-0.009": 4.11677800845,
			"-0.008": 4.80082705182,
			"-0.007": 3.93368857359,
			"-0.006": 6.11067194489,
			"-0.005": 8.17004159447,
			"-0.004": 12.2304467326,
			"-0.003": 11.2977057735,
			"-0.002": 12.4629039681,
			"-0.001": 12.1865149111,
			"0.0": 12.0692398978,
			"0.001": 7.94561512185,
			"0.002": 6.48392826022,
			"0.003": 8.28364182456,
			"0.004": 13.7839153086,
			"0.005": 13.4626668051,
			"0.006": 14.4157547086,
			"0.007": 4.93705298774,
			"0.008": 2.80296885367,
			"0.009": 0.925367178764,
			"0.01": 2.31148008668,
			"0.011": 2.54448821975,
			"0.012": 1.53630112854,
			"0.013": 2.0332886888,
			"0.014": 1.52334182637,
			"0.015": 1.08984825378,
			"0.016": 1.03819571737,
			"0.017": 0.286896172084,
			"0.018": 0.0,
			"0.019": 0.0,
			"0.02": 0.0,
			"0.021": 0.0,
			"0.022": 0.0,
			"0.023": 0.0,
			"0.024": 0.0,
			"0.025": 0.0
		}
	}
}
