{
	 "smiles": "CC1=NC=C(CNC(=O)C=C)S1", 
	 "Tm": 385.15, 
	 "num_atms": 22, 
	 "gaussian": { 
		 "optdone": 1, 
		 "sigma_profile": "yes", 
		 "theory": "DFT", 
		 "functional": "B3LYP", 
		 "basiset": "6-31G**", 
		 "properties": { 
			 "R2extent": 3391.4763, 
			 "electric_dipole_moment_norm": 3.13214439801, 
			 "electric_quadrupole_moment_norm": 13.4043456897, 
			 "total_energy": -893.777213927, 
			 "HOMO_LUMO_gap": 0.19935, 
			 "cosmo_polarized_energy": -14.18, 
			 "cosmo_cavitation_energy": 28.66, 
			 "cosmo_dispersion_energy": -20.5, 
			 "cosmo_repulsion_energy": 1.61, 
			 "cosmo_total_nonelectrostatic_energy": 9.77, 
			 "SMD_solvation_energy": 4.19 
		},
		"coords": [
			{
				"x": 1.1089974616,
				"y": 3.7079631568,
				"z": -0.8074762281,
				"element": "C" 
			},
			{
				"x": 0.0105731571,
				"y": 2.7746743107,
				"z": -0.3988357913,
				"element": "C" 
			},
			{
				"x": -0.9668856405,
				"y": 3.0959012601,
				"z": 0.3988055533,
				"element": "N" 
			},
			{
				"x": -1.8185201973,
				"y": 2.0326527722,
				"z": 0.596067151,
				"element": "C" 
			},
			{
				"x": -1.5160368729,
				"y": 0.8675362444,
				"z": -0.0504451925,
				"element": "C" 
			},
			{
				"x": -2.2760416967,
				"y": -0.4247375038,
				"z": -0.0288578954,
				"element": "C" 
			},
			{
				"x": -1.4834117303,
				"y": -1.5368950569,
				"z": 0.4784131242,
				"element": "N" 
			},
			{
				"x": -1.5537845857,
				"y": -2.7877581281,
				"z": -0.0818745097,
				"element": "C" 
			},
			{
				"x": -2.2728610573,
				"y": -3.0472137608,
				"z": -1.0419903389,
				"element": "O" 
			},
			{
				"x": -0.6821220851,
				"y": -3.8379684887,
				"z": 0.5304881151,
				"element": "C" 
			},
			{
				"x": 0.4756306616,
				"y": -3.6228486247,
				"z": 1.159851012,
				"element": "C" 
			},
			{
				"x": -0.0512760091,
				"y": 1.1068308534,
				"z": -0.9758612173,
				"element": "S" 
			},
			{
				"x": 1.1290415303,
				"y": 3.8554320529,
				"z": -1.8924983634,
				"element": "H" 
			},
			{
				"x": 0.9385103061,
				"y": 4.6719750402,
				"z": -0.3246835509,
				"element": "H" 
			},
			{
				"x": 2.0919566692,
				"y": 3.330717728,
				"z": -0.5057147682,
				"element": "H" 
			},
			{
				"x": -2.6811918858,
				"y": 2.1612323855,
				"z": 1.2415252753,
				"element": "H" 
			},
			{
				"x": -3.1803693113,
				"y": -0.2748383042,
				"z": 0.5774315129,
				"element": "H" 
			},
			{
				"x": -2.6080255592,
				"y": -0.7259410476,
				"z": -1.0266496215,
				"element": "H" 
			},
			{
				"x": -1.0137664965,
				"y": -1.4219712845,
				"z": 1.3639618948,
				"element": "H" 
			},
			{
				"x": -1.0409773952,
				"y": -4.8475519065,
				"z": 0.3503483297,
				"element": "H" 
			},
			{
				"x": 0.8874352815,
				"y": -2.6263428406,
				"z": 1.2976055981,
				"element": "H" 
			},
			{
				"x": 1.0743254556,
				"y": -4.4464488577,
				"z": 1.5366899109,
				"element": "H" 
			}
		],
		 "valence_orbital": [ 
			{
				"type": "occ",
				"energy": -0.28317,
				"method": "rhf"
			},
			{
				"type": "occ",
				"energy": -0.27385,
				"method": "rhf"
			},
			{
				"type": "occ",
				"energy": -0.26077,
				"method": "rhf"
			},
			{
				"type": "occ",
				"energy": -0.25594,
				"method": "rhf"
			},
			{
				"type": "occ",
				"energy": -0.23724,
				"method": "rhf"
			},
			{
				"type": "unocc",
				"energy": -0.03789,
				"method": "rhf"
			},
			{
				"type": "unocc",
				"energy": -0.02815,
				"method": "rhf"
			},
			{
				"type": "unocc",
				"energy": 0.01625,
				"method": "rhf"
			},
			{
				"type": "unocc",
				"energy": 0.05044,
				"method": "rhf"
			},
			{
				"type": "unocc",
				"energy": 0.0743,
				"method": "rhf"
			}
		],
		"cosmo_sigma_profile": { 
			"-0.025": 0.0,
			"-0.024": 0.0,
			"-0.023": 0.0,
			"-0.022": 0.0,
			"-0.021": 0.0,
			"-0.02": 0.0,
			"-0.019": 0.0,
			"-0.018": 0.0,
			"-0.017": 0.0,
			"-0.016": 0.0,
			"-0.015": 0.0,
			"-0.014": 0.66955392983,
			"-0.013": 0.946798993489,
			"-0.012": 0.890195773064,
			"-0.011": 1.20830493484,
			"-0.01": 1.34624824027,
			"-0.009": 1.47107875492,
			"-0.008": 1.58925963036,
			"-0.007": 6.96829504031,
			"-0.006": 13.9476520548,
			"-0.005": 17.216217548,
			"-0.004": 20.550320578,
			"-0.003": 17.3887244532,
			"-0.002": 19.3461486283,
			"-0.001": 17.2255767917,
			"0.0": 16.0381970131,
			"0.001": 15.7958122866,
			"0.002": 18.3359442018,
			"0.003": 13.744318244,
			"0.004": 10.3962610878,
			"0.005": 4.17867210691,
			"0.006": 3.08651754596,
			"0.007": 3.29168307507,
			"0.008": 2.73944312874,
			"0.009": 1.88289488442,
			"0.01": 2.64023178277,
			"0.011": 2.77129696626,
			"0.012": 2.65363044683,
			"0.013": 5.11089592365,
			"0.014": 4.92748981076,
			"0.015": 1.73287261709,
			"0.016": 0.280217864196,
			"0.017": 0.0,
			"0.018": 0.0,
			"0.019": 0.0,
			"0.02": 0.0,
			"0.021": 0.0,
			"0.022": 0.0,
			"0.023": 0.0,
			"0.024": 0.0,
			"0.025": 0.0
		}
	}
}
