{
	 "smiles": "OC(=O)C(=O)NNC1=C(Cl)C=C(Cl)C=C1", 
	 "Tm": 443.15, 
	 "num_atms": 21, 
	 "gaussian": { 
		 "optdone": 1, 
		 "sigma_profile": "yes", 
		 "theory": "DFT", 
		 "functional": "B3LYP", 
		 "basiset": "6-31G**", 
		 "properties": { 
			 "R2extent": 4927.0679, 
			 "electric_dipole_moment_norm": 2.06959893216, 
			 "electric_quadrupole_moment_norm": 13.4000924127, 
			 "total_energy": -1564.00311785, 
			 "HOMO_LUMO_gap": 0.20169, 
			 "cosmo_polarized_energy": -17.82, 
			 "cosmo_cavitation_energy": 30.87, 
			 "cosmo_dispersion_energy": -22.13, 
			 "cosmo_repulsion_energy": 1.79, 
			 "cosmo_total_nonelectrostatic_energy": 10.52, 
			 "SMD_solvation_energy": 7.22 
		},
		"coords": [
			{
				"x": -0.0831201717,
				"y": -4.0605023505,
				"z": -1.2403423752,
				"element": "O" 
			},
			{
				"x": -0.6894769991,
				"y": -3.2163900874,
				"z": -0.3924174461,
				"element": "C" 
			},
			{
				"x": -0.5002052658,
				"y": -3.1767718561,
				"z": 0.8011152784,
				"element": "O" 
			},
			{
				"x": -1.771316468,
				"y": -2.3798454461,
				"z": -1.0884662269,
				"element": "C" 
			},
			{
				"x": -2.8419572704,
				"y": -2.8616600414,
				"z": -1.4032068557,
				"element": "O" 
			},
			{
				"x": -1.4682290199,
				"y": -1.0508481851,
				"z": -1.2134064061,
				"element": "N" 
			},
			{
				"x": -0.1775854027,
				"y": -0.5820331485,
				"z": -1.0173174273,
				"element": "N" 
			},
			{
				"x": 0.0371038362,
				"y": 0.3268919532,
				"z": 0.0381039672,
				"element": "C" 
			},
			{
				"x": 1.0065980753,
				"y": 1.3374239783,
				"z": -0.0668792046,
				"element": "C" 
			},
			{
				"x": 1.9228832649,
				"y": 1.517242917,
				"z": -1.562325556,
				"element": "Cl" 
			},
			{
				"x": 1.2683491174,
				"y": 2.2144517565,
				"z": 0.9826484175,
				"element": "C" 
			},
			{
				"x": 0.5401359525,
				"y": 2.0864929877,
				"z": 2.1626196584,
				"element": "C" 
			},
			{
				"x": 0.8523656052,
				"y": 3.1925669261,
				"z": 3.4884528018,
				"element": "Cl" 
			},
			{
				"x": -0.4268205183,
				"y": 1.0905168861,
				"z": 2.2993748889,
				"element": "C" 
			},
			{
				"x": -0.6684164415,
				"y": 0.2168365242,
				"z": 1.2446909538,
				"element": "C" 
			},
			{
				"x": 0.5160470342,
				"y": -4.6128110446,
				"z": -0.7073694826,
				"element": "H" 
			},
			{
				"x": -2.1919261893,
				"y": -0.4361100199,
				"z": -1.5777479289,
				"element": "H" 
			},
			{
				"x": 0.2852624904,
				"y": -0.3258647652,
				"z": -1.8825217588,
				"element": "H" 
			},
			{
				"x": 2.0198859571,
				"y": 2.9863785147,
				"z": 0.8719624063,
				"element": "H" 
			},
			{
				"x": -0.9781895523,
				"y": 0.9907151404,
				"z": 3.227230427,
				"element": "H" 
			},
			{
				"x": -1.3885880345,
				"y": -0.5847806395,
				"z": 1.3562018689,
				"element": "H" 
			}
		],
		 "valence_orbital": [ 
			{
				"type": "occ",
				"energy": -0.3135,
				"method": "rhf"
			},
			{
				"type": "occ",
				"energy": -0.2944,
				"method": "rhf"
			},
			{
				"type": "occ",
				"energy": -0.27108,
				"method": "rhf"
			},
			{
				"type": "occ",
				"energy": -0.2678,
				"method": "rhf"
			},
			{
				"type": "occ",
				"energy": -0.23577,
				"method": "rhf"
			},
			{
				"type": "unocc",
				"energy": -0.03408,
				"method": "rhf"
			},
			{
				"type": "unocc",
				"energy": -0.02909,
				"method": "rhf"
			},
			{
				"type": "unocc",
				"energy": -0.01615,
				"method": "rhf"
			},
			{
				"type": "unocc",
				"energy": -0.00389,
				"method": "rhf"
			},
			{
				"type": "unocc",
				"energy": 0.00983,
				"method": "rhf"
			}
		],
		"cosmo_sigma_profile": { 
			"-0.025": 0.0,
			"-0.024": 0.0,
			"-0.023": 0.0,
			"-0.022": 0.0,
			"-0.021": 0.0,
			"-0.02": 0.0851802871473,
			"-0.019": 0.978133958697,
			"-0.018": 1.34866907966,
			"-0.017": 0.919533784808,
			"-0.016": 1.1169434711,
			"-0.015": 2.01840520514,
			"-0.014": 2.02467620797,
			"-0.013": 3.81464179941,
			"-0.012": 3.25180577215,
			"-0.011": 2.81327920534,
			"-0.01": 3.29386366013,
			"-0.009": 2.36309428909,
			"-0.008": 5.47078792087,
			"-0.007": 6.32514417547,
			"-0.006": 8.42655346482,
			"-0.005": 7.4554003191,
			"-0.004": 8.62793111734,
			"-0.003": 10.5052149157,
			"-0.002": 13.5230474412,
			"-0.001": 13.4774134117,
			"0.0": 16.0131145965,
			"0.001": 26.6514710457,
			"0.002": 25.8209411983,
			"0.003": 19.0418468191,
			"0.004": 20.1612018944,
			"0.005": 10.6045448135,
			"0.006": 5.82139456328,
			"0.007": 5.22094664475,
			"0.008": 4.35203548812,
			"0.009": 3.60270839673,
			"0.01": 6.34026407035,
			"0.011": 6.4911480983,
			"0.012": 3.69558582513,
			"0.013": 0.134483169898,
			"0.014": 0.0,
			"0.015": 0.0,
			"0.016": 0.0,
			"0.017": 0.0,
			"0.018": 0.0,
			"0.019": 0.0,
			"0.02": 0.0,
			"0.021": 0.0,
			"0.022": 0.0,
			"0.023": 0.0,
			"0.024": 0.0,
			"0.025": 0.0
		}
	}
}
