{
	 "smiles": "CC1CC2=C(C=CC=C2)N1C(=O)CO", 
	 "Tm": 349.15, 
	 "num_atms": 27, 
	 "gaussian": { 
		 "optdone": 1, 
		 "sigma_profile": "yes", 
		 "theory": "DFT", 
		 "functional": "B3LYP", 
		 "basiset": "6-31G**", 
		 "properties": { 
			 "R2extent": 3334.4234, 
			 "electric_dipole_moment_norm": 4.52992841113, 
			 "electric_quadrupole_moment_norm": 4.70306078528, 
			 "total_energy": -632.219026935, 
			 "HOMO_LUMO_gap": 0.20271, 
			 "cosmo_polarized_energy": -11.75, 
			 "cosmo_cavitation_energy": 28.9, 
			 "cosmo_dispersion_energy": -21.37, 
			 "cosmo_repulsion_energy": 1.67, 
			 "cosmo_total_nonelectrostatic_energy": 9.2, 
			 "SMD_solvation_energy": 5.05 
		},
		"coords": [
			{
				"x": -2.1664308977,
				"y": -1.1184199736,
				"z": 0.9839069841,
				"element": "C" 
			},
			{
				"x": -1.1009602223,
				"y": -0.0161209368,
				"z": 1.0316164825,
				"element": "C" 
			},
			{
				"x": -1.7221465406,
				"y": 1.372086955,
				"z": 1.3340955268,
				"element": "C" 
			},
			{
				"x": -1.8736314264,
				"y": 1.9869268342,
				"z": -0.0383360269,
				"element": "C" 
			},
			{
				"x": -1.093671784,
				"y": 1.275954215,
				"z": -0.9609284044,
				"element": "C" 
			},
			{
				"x": -1.0079956026,
				"y": 1.6636684113,
				"z": -2.2984759213,
				"element": "C" 
			},
			{
				"x": -1.7391286529,
				"y": 2.789518204,
				"z": -2.6933495379,
				"element": "C" 
			},
			{
				"x": -2.5280210228,
				"y": 3.5015400883,
				"z": -1.7869081949,
				"element": "C" 
			},
			{
				"x": -2.595651578,
				"y": 3.1009289882,
				"z": -0.4469745919,
				"element": "C" 
			},
			{
				"x": -0.470083006,
				"y": 0.1802926079,
				"z": -0.3053697827,
				"element": "N" 
			},
			{
				"x": 0.5594181701,
				"y": -0.5603322769,
				"z": -0.8070526832,
				"element": "C" 
			},
			{
				"x": 1.0119793481,
				"y": -0.4130110354,
				"z": -1.9439236857,
				"element": "O" 
			},
			{
				"x": 1.2217163533,
				"y": -1.6058145506,
				"z": 0.1052791822,
				"element": "C" 
			},
			{
				"x": 2.2142492497,
				"y": -2.2843612166,
				"z": -0.6071755741,
				"element": "O" 
			},
			{
				"x": -2.9641393547,
				"y": -0.8444962952,
				"z": 0.2863295073,
				"element": "H" 
			},
			{
				"x": -2.6084206255,
				"y": -1.2557745973,
				"z": 1.9761678513,
				"element": "H" 
			},
			{
				"x": -1.7480286343,
				"y": -2.0761045009,
				"z": 0.6632882147,
				"element": "H" 
			},
			{
				"x": -0.3277538473,
				"y": -0.2706568765,
				"z": 1.7606986314,
				"element": "H" 
			},
			{
				"x": -2.6682999418,
				"y": 1.2735960702,
				"z": 1.8749293616,
				"element": "H" 
			},
			{
				"x": -1.0513727165,
				"y": 1.9774165424,
				"z": 1.9572901007,
				"element": "H" 
			},
			{
				"x": -0.3919579975,
				"y": 1.1098729405,
				"z": -2.9925261965,
				"element": "H" 
			},
			{
				"x": -1.6908081897,
				"y": 3.1093991635,
				"z": -3.7302380718,
				"element": "H" 
			},
			{
				"x": -3.0894673165,
				"y": 4.3688237819,
				"z": -2.1209486299,
				"element": "H" 
			},
			{
				"x": -3.201927731,
				"y": 3.6556188244,
				"z": 0.2642646938,
				"element": "H" 
			},
			{
				"x": 1.6445046717,
				"y": -1.0865769393,
				"z": 0.9829896889,
				"element": "H" 
			},
			{
				"x": 0.4699759776,
				"y": -2.3117950742,
				"z": 0.4870554001,
				"element": "H" 
			},
			{
				"x": 2.2394533177,
				"y": -1.8347793537,
				"z": -1.4736043242,
				"element": "H" 
			}
		],
		 "valence_orbital": [ 
			{
				"type": "occ",
				"energy": -0.30033,
				"method": "rhf"
			},
			{
				"type": "occ",
				"energy": -0.27175,
				"method": "rhf"
			},
			{
				"type": "occ",
				"energy": -0.26195,
				"method": "rhf"
			},
			{
				"type": "occ",
				"energy": -0.25094,
				"method": "rhf"
			},
			{
				"type": "occ",
				"energy": -0.21909,
				"method": "rhf"
			},
			{
				"type": "unocc",
				"energy": -0.01638,
				"method": "rhf"
			},
			{
				"type": "unocc",
				"energy": -0.0071,
				"method": "rhf"
			},
			{
				"type": "unocc",
				"energy": 0.03559,
				"method": "rhf"
			},
			{
				"type": "unocc",
				"energy": 0.07026,
				"method": "rhf"
			},
			{
				"type": "unocc",
				"energy": 0.0951,
				"method": "rhf"
			}
		],
		"cosmo_sigma_profile": { 
			"-0.025": 0.0,
			"-0.024": 0.0,
			"-0.023": 0.0,
			"-0.022": 0.0,
			"-0.021": 0.0,
			"-0.02": 0.0,
			"-0.019": 0.0,
			"-0.018": 0.0,
			"-0.017": 0.0,
			"-0.016": 0.0,
			"-0.015": 0.0,
			"-0.014": 0.0,
			"-0.013": 0.0,
			"-0.012": 0.0,
			"-0.011": 0.0,
			"-0.01": 0.0,
			"-0.009": 0.399692415866,
			"-0.008": 1.4712841398,
			"-0.007": 5.75621225917,
			"-0.006": 11.9235953502,
			"-0.005": 19.6632396369,
			"-0.004": 25.2430040655,
			"-0.003": 23.4869895923,
			"-0.002": 21.8510874225,
			"-0.001": 16.4114130871,
			"0.0": 16.1598169717,
			"0.001": 11.7895557319,
			"0.002": 11.5726563402,
			"0.003": 9.41334711223,
			"0.004": 9.49388774549,
			"0.005": 12.2998103821,
			"0.006": 8.69971203136,
			"0.007": 2.79231039625,
			"0.008": 3.06220260317,
			"0.009": 2.21318111477,
			"0.01": 3.47844482568,
			"0.011": 3.72574700442,
			"0.012": 2.55217995648,
			"0.013": 2.17588557768,
			"0.014": 2.381334517,
			"0.015": 0.5101080931,
			"0.016": 0.0,
			"0.017": 0.0,
			"0.018": 0.0,
			"0.019": 0.0,
			"0.02": 0.0,
			"0.021": 0.0,
			"0.022": 0.0,
			"0.023": 0.0,
			"0.024": 0.0,
			"0.025": 0.0
		}
	}
}
