{
	 "smiles": "CC(C)CC1=CC(=CC2=CC=C(O2)C2=CC(=CC=C2)[N+]([O-])=O)C(=O)O1", 
	 "Tm": 437.15, 
	 "num_atms": 42, 
	 "gaussian": { 
		 "optdone": 1, 
		 "sigma_profile": "yes", 
		 "theory": "DFT", 
		 "functional": "B3LYP", 
		 "basiset": "6-31G**", 
		 "properties": { 
			 "R2extent": 12673.8845, 
			 "electric_dipole_moment_norm": 7.50563131389, 
			 "electric_quadrupole_moment_norm": 30.5605585695, 
			 "total_energy": -1165.02508259, 
			 "HOMO_LUMO_gap": 0.1093, 
			 "cosmo_polarized_energy": -19.45, 
			 "cosmo_cavitation_energy": 47.67, 
			 "cosmo_dispersion_energy": -32.9, 
			 "cosmo_repulsion_energy": 2.45, 
			 "cosmo_total_nonelectrostatic_energy": 17.22, 
			 "SMD_solvation_energy": 11.31 
		},
		"coords": [
			{
				"x": -3.851006242,
				"y": 3.9517344329,
				"z": -2.4086680831,
				"element": "C" 
			},
			{
				"x": -2.9344535711,
				"y": 3.9055783006,
				"z": -3.6395034733,
				"element": "C" 
			},
			{
				"x": -3.2442371841,
				"y": 2.694882369,
				"z": -4.5300092824,
				"element": "C" 
			},
			{
				"x": -1.4239013751,
				"y": 3.9794183895,
				"z": -3.2703780425,
				"element": "C" 
			},
			{
				"x": -0.8703612916,
				"y": 2.8123721037,
				"z": -2.5274872026,
				"element": "C" 
			},
			{
				"x": -0.0410902226,
				"y": 1.8139451487,
				"z": -2.9036112302,
				"element": "C" 
			},
			{
				"x": 0.1796446296,
				"y": 0.9528972551,
				"z": -1.7623491262,
				"element": "C" 
			},
			{
				"x": 0.9635727449,
				"y": -0.1677586667,
				"z": -1.7435729564,
				"element": "C" 
			},
			{
				"x": 1.2791224429,
				"y": -1.1032718543,
				"z": -0.7178387648,
				"element": "C" 
			},
			{
				"x": 2.0900855855,
				"y": -2.2270724042,
				"z": -0.7729012568,
				"element": "C" 
			},
			{
				"x": 2.0716057844,
				"y": -2.8119461193,
				"z": 0.512663157,
				"element": "C" 
			},
			{
				"x": 1.251337538,
				"y": -2.0196385092,
				"z": 1.2922655665,
				"element": "C" 
			},
			{
				"x": 0.7745937934,
				"y": -0.9885715962,
				"z": 0.5456579654,
				"element": "O" 
			},
			{
				"x": 0.8233752426,
				"y": -2.0746340037,
				"z": 2.681089918,
				"element": "C" 
			},
			{
				"x": -0.0449762787,
				"y": -1.0945277169,
				"z": 3.1956660892,
				"element": "C" 
			},
			{
				"x": -0.4302173114,
				"y": -1.183962265,
				"z": 4.5284402678,
				"element": "C" 
			},
			{
				"x": 0.0052119822,
				"y": -2.200444507,
				"z": 5.3769867959,
				"element": "C" 
			},
			{
				"x": 0.8655295782,
				"y": -3.1669658923,
				"z": 4.8578068718,
				"element": "C" 
			},
			{
				"x": 1.2709753828,
				"y": -3.1072873869,
				"z": 3.5275143028,
				"element": "C" 
			},
			{
				"x": -1.3420322695,
				"y": -0.1583893714,
				"z": 5.0747883991,
				"element": "N" 
			},
			{
				"x": -1.7204354127,
				"y": 0.7314427326,
				"z": 4.318567312,
				"element": "O" 
			},
			{
				"x": -1.6659777392,
				"y": -0.261615956,
				"z": 6.258678772,
				"element": "O" 
			},
			{
				"x": -0.6215878287,
				"y": 1.5611425177,
				"z": -0.6576102668,
				"element": "C" 
			},
			{
				"x": -0.8006838476,
				"y": 1.2595993089,
				"z": 0.4941815298,
				"element": "O" 
			},
			{
				"x": -1.2371452441,
				"y": 2.6969114252,
				"z": -1.1962392023,
				"element": "O" 
			},
			{
				"x": -4.9008687972,
				"y": 4.0006205122,
				"z": -2.7171243347,
				"element": "H" 
			},
			{
				"x": -3.6422237992,
				"y": 4.8294725918,
				"z": -1.7879857205,
				"element": "H" 
			},
			{
				"x": -3.7241400761,
				"y": 3.0671624384,
				"z": -1.7782679338,
				"element": "H" 
			},
			{
				"x": -3.1257017595,
				"y": 4.8126662835,
				"z": -4.2300403508,
				"element": "H" 
			},
			{
				"x": -2.6198902431,
				"y": 2.6874685989,
				"z": -5.4308178121,
				"element": "H" 
			},
			{
				"x": -3.070295483,
				"y": 1.7541661179,
				"z": -3.9964952723,
				"element": "H" 
			},
			{
				"x": -4.2913524578,
				"y": 2.7078811928,
				"z": -4.8497020686,
				"element": "H" 
			},
			{
				"x": -0.8409489871,
				"y": 4.0870064153,
				"z": -4.1919578039,
				"element": "H" 
			},
			{
				"x": -1.2525371047,
				"y": 4.8827378698,
				"z": -2.6704997986,
				"element": "H" 
			},
			{
				"x": 0.3885140943,
				"y": 1.6875993794,
				"z": -3.8878690294,
				"element": "H" 
			},
			{
				"x": 1.4523843092,
				"y": -0.4139676967,
				"z": -2.6845746192,
				"element": "H" 
			},
			{
				"x": 2.6275440356,
				"y": -2.5753642292,
				"z": -1.6435755592,
				"element": "H" 
			},
			{
				"x": 2.5942941743,
				"y": -3.7031191715,
				"z": 0.8275517251,
				"element": "H" 
			},
			{
				"x": -0.4093852008,
				"y": -0.2852064091,
				"z": 2.5728261431,
				"element": "H" 
			},
			{
				"x": -0.3292157019,
				"y": -2.2172900313,
				"z": 6.4061083725,
				"element": "H" 
			},
			{
				"x": 1.2209108897,
				"y": -3.9703312882,
				"z": 5.4951765473,
				"element": "H" 
			},
			{
				"x": 1.9412632213,
				"y": -3.8679403088,
				"z": 3.139709455,
				"element": "H" 
			}
		],
		 "valence_orbital": [ 
			{
				"type": "occ",
				"energy": -0.28227,
				"method": "rhf"
			},
			{
				"type": "occ",
				"energy": -0.27841,
				"method": "rhf"
			},
			{
				"type": "occ",
				"energy": -0.27142,
				"method": "rhf"
			},
			{
				"type": "occ",
				"energy": -0.24937,
				"method": "rhf"
			},
			{
				"type": "occ",
				"energy": -0.19893,
				"method": "rhf"
			},
			{
				"type": "unocc",
				"energy": -0.08963,
				"method": "rhf"
			},
			{
				"type": "unocc",
				"energy": -0.08048,
				"method": "rhf"
			},
			{
				"type": "unocc",
				"energy": -0.03491,
				"method": "rhf"
			},
			{
				"type": "unocc",
				"energy": -0.00141,
				"method": "rhf"
			},
			{
				"type": "unocc",
				"energy": 0.03026,
				"method": "rhf"
			}
		],
		"cosmo_sigma_profile": { 
			"-0.025": 0.0,
			"-0.024": 0.0,
			"-0.023": 0.0,
			"-0.022": 0.0,
			"-0.021": 0.0,
			"-0.02": 0.0,
			"-0.019": 0.0,
			"-0.018": 0.0,
			"-0.017": 0.0,
			"-0.016": 0.0,
			"-0.015": 0.0,
			"-0.014": 0.0,
			"-0.013": 0.0,
			"-0.012": 0.0,
			"-0.011": 0.0,
			"-0.01": 0.345687252847,
			"-0.009": 3.44821781611,
			"-0.008": 11.0834583987,
			"-0.007": 13.7906149544,
			"-0.006": 14.0906924624,
			"-0.005": 14.0690802235,
			"-0.004": 17.8928576196,
			"-0.003": 25.1763513694,
			"-0.002": 34.1968085165,
			"-0.001": 41.7997987252,
			"0.0": 45.1965097788,
			"0.001": 47.556371959,
			"0.002": 32.0367625351,
			"0.003": 13.8107935727,
			"0.004": 8.89012914367,
			"0.005": 6.66186844856,
			"0.006": 7.89922765415,
			"0.007": 11.7087432739,
			"0.008": 12.8390729387,
			"0.009": 9.56355849156,
			"0.01": 5.03621639003,
			"0.011": 2.00603875133,
			"0.012": 1.47056267066,
			"0.013": 0.128967270246,
			"0.014": 0.0,
			"0.015": 0.0,
			"0.016": 0.0,
			"0.017": 0.0,
			"0.018": 0.0,
			"0.019": 0.0,
			"0.02": 0.0,
			"0.021": 0.0,
			"0.022": 0.0,
			"0.023": 0.0,
			"0.024": 0.0,
			"0.025": 0.0
		}
	}
}
