{
	 "smiles": "CCCCCCCCCCCCCCCCCC(=O)OCCCCC", 
	 "Tm": 303.15, 
	 "num_atms": 71, 
	 "gaussian": { 
		 "optdone": 1, 
		 "sigma_profile": "yes", 
		 "theory": "DFT", 
		 "functional": "B3LYP", 
		 "basiset": "6-31G**", 
		 "properties": { 
			 "R2extent": 13825.1252, 
			 "electric_dipole_moment_norm": 2.03324211544, 
			 "electric_quadrupole_moment_norm": 10.6020032461, 
			 "total_energy": -1054.70400578, 
			 "HOMO_LUMO_gap": 0.2821, 
			 "cosmo_polarized_energy": -6.82, 
			 "cosmo_cavitation_energy": 68.7, 
			 "cosmo_dispersion_energy": -40.58, 
			 "cosmo_repulsion_energy": 3.27, 
			 "cosmo_total_nonelectrostatic_energy": 31.39, 
			 "SMD_solvation_energy": 9.53 
		},
		"coords": [
			{
				"x": 2.1979305304,
				"y": -5.6653512731,
				"z": 0.1487604825,
				"element": "C" 
			},
			{
				"x": 1.6804849208,
				"y": -4.236206022,
				"z": 0.3434014563,
				"element": "C" 
			},
			{
				"x": 0.476186056,
				"y": -4.1546340564,
				"z": 1.2901143279,
				"element": "C" 
			},
			{
				"x": -0.0735090774,
				"y": -2.7326608992,
				"z": 1.466523402,
				"element": "C" 
			},
			{
				"x": -1.2445596972,
				"y": -2.6659519879,
				"z": 2.4570147451,
				"element": "C" 
			},
			{
				"x": -1.89837661,
				"y": -1.2823875082,
				"z": 2.6090333777,
				"element": "C" 
			},
			{
				"x": -0.9572284451,
				"y": -0.187786863,
				"z": 3.1370096099,
				"element": "C" 
			},
			{
				"x": -1.6725612363,
				"y": 1.0904542098,
				"z": 3.6102633662,
				"element": "C" 
			},
			{
				"x": -2.5158342071,
				"y": 1.8278811534,
				"z": 2.5551754622,
				"element": "C" 
			},
			{
				"x": -1.715827999,
				"y": 2.3714554527,
				"z": 1.3615549604,
				"element": "C" 
			},
			{
				"x": -2.5178321008,
				"y": 3.3131699925,
				"z": 0.444032319,
				"element": "C" 
			},
			{
				"x": -3.7383786278,
				"y": 2.6877759264,
				"z": -0.2582538464,
				"element": "C" 
			},
			{
				"x": -3.4297542142,
				"y": 1.5702307453,
				"z": -1.2707845969,
				"element": "C" 
			},
			{
				"x": -2.6964241585,
				"y": 2.0500571164,
				"z": -2.5328188039,
				"element": "C" 
			},
			{
				"x": -2.5046773757,
				"y": 0.9624238637,
				"z": -3.6053724162,
				"element": "C" 
			},
			{
				"x": -1.5602179334,
				"y": -0.1927276789,
				"z": -3.2316346003,
				"element": "C" 
			},
			{
				"x": -0.0988902974,
				"y": 0.2384384134,
				"z": -3.0743589827,
				"element": "C" 
			},
			{
				"x": 0.8224482275,
				"y": -0.9079022426,
				"z": -2.7071460752,
				"element": "C" 
			},
			{
				"x": 0.466675897,
				"y": -1.9824998633,
				"z": -2.2666134826,
				"element": "O" 
			},
			{
				"x": 2.1140584934,
				"y": -0.5770025245,
				"z": -2.9184450526,
				"element": "O" 
			},
			{
				"x": 3.1010380655,
				"y": -1.5773515918,
				"z": -2.5705332299,
				"element": "C" 
			},
			{
				"x": 4.4765239269,
				"y": -1.0001375175,
				"z": -2.8758427271,
				"element": "C" 
			},
			{
				"x": 4.8517764921,
				"y": 0.251426285,
				"z": -2.0650287786,
				"element": "C" 
			},
			{
				"x": 5.0297783127,
				"y": 0.0120643272,
				"z": -0.5591456093,
				"element": "C" 
			},
			{
				"x": 5.4613388077,
				"y": 1.2743403611,
				"z": 0.1948473014,
				"element": "C" 
			},
			{
				"x": 2.5070541155,
				"y": -6.1115336954,
				"z": 1.1014505946,
				"element": "H" 
			},
			{
				"x": 1.4228645552,
				"y": -6.310952421,
				"z": -0.2802219292,
				"element": "H" 
			},
			{
				"x": 3.0608381239,
				"y": -5.6929880117,
				"z": -0.5255068605,
				"element": "H" 
			},
			{
				"x": 1.4032542362,
				"y": -3.8041915933,
				"z": -0.6257549355,
				"element": "H" 
			},
			{
				"x": 2.4906361464,
				"y": -3.6076175766,
				"z": 0.7412956895,
				"element": "H" 
			},
			{
				"x": 0.7566689979,
				"y": -4.5625008346,
				"z": 2.2726866618,
				"element": "H" 
			},
			{
				"x": -0.3247195702,
				"y": -4.8056906256,
				"z": 0.910806141,
				"element": "H" 
			},
			{
				"x": -0.3888387551,
				"y": -2.345601808,
				"z": 0.4877130947,
				"element": "H" 
			},
			{
				"x": 0.7385260608,
				"y": -2.0760067514,
				"z": 1.8078220156,
				"element": "H" 
			},
			{
				"x": -0.898684973,
				"y": -3.0072051432,
				"z": 3.4438412249,
				"element": "H" 
			},
			{
				"x": -2.0143028538,
				"y": -3.3844322312,
				"z": 2.1431230107,
				"element": "H" 
			},
			{
				"x": -2.3200090225,
				"y": -0.9764888938,
				"z": 1.6417423004,
				"element": "H" 
			},
			{
				"x": -2.7525543892,
				"y": -1.3753857191,
				"z": 3.2947039691,
				"element": "H" 
			},
			{
				"x": -0.3869525179,
				"y": -0.5911386662,
				"z": 3.9856518548,
				"element": "H" 
			},
			{
				"x": -0.2128663383,
				"y": 0.0643626606,
				"z": 2.3716104434,
				"element": "H" 
			},
			{
				"x": -0.9220764375,
				"y": 1.78615936,
				"z": 4.0108146337,
				"element": "H" 
			},
			{
				"x": -2.3255260081,
				"y": 0.8306779556,
				"z": 4.4549942964,
				"element": "H" 
			},
			{
				"x": -3.0224116921,
				"y": 2.6691803047,
				"z": 3.0488425494,
				"element": "H" 
			},
			{
				"x": -3.3151904853,
				"y": 1.1662699166,
				"z": 2.199512756,
				"element": "H" 
			},
			{
				"x": -1.306080855,
				"y": 1.5381340446,
				"z": 0.776172203,
				"element": "H" 
			},
			{
				"x": -0.8451167879,
				"y": 2.9234689835,
				"z": 1.7422729304,
				"element": "H" 
			},
			{
				"x": -1.8408099868,
				"y": 3.7379526174,
				"z": -0.3083471285,
				"element": "H" 
			},
			{
				"x": -2.8672005703,
				"y": 4.1654221815,
				"z": 1.0429766301,
				"element": "H" 
			},
			{
				"x": -4.428562451,
				"y": 2.2973599826,
				"z": 0.4997187108,
				"element": "H" 
			},
			{
				"x": -4.2871622918,
				"y": 3.486609769,
				"z": -0.7759398934,
				"element": "H" 
			},
			{
				"x": -4.377801967,
				"y": 1.1067290614,
				"z": -1.5766366394,
				"element": "H" 
			},
			{
				"x": -2.8557514478,
				"y": 0.7742154622,
				"z": -0.7795861683,
				"element": "H" 
			},
			{
				"x": -3.2719777956,
				"y": 2.8737876928,
				"z": -2.9769525996,
				"element": "H" 
			},
			{
				"x": -1.7244912909,
				"y": 2.4829695409,
				"z": -2.2631442534,
				"element": "H" 
			},
			{
				"x": -2.1382709274,
				"y": 1.4340017798,
				"z": -4.52772594,
				"element": "H" 
			},
			{
				"x": -3.4872925276,
				"y": 0.5396424184,
				"z": -3.8537287756,
				"element": "H" 
			},
			{
				"x": -1.6151774829,
				"y": -0.9630652988,
				"z": -4.0097382274,
				"element": "H" 
			},
			{
				"x": -1.889189442,
				"y": -0.6830523288,
				"z": -2.3098754516,
				"element": "H" 
			},
			{
				"x": 0.0094484027,
				"y": 0.9953658891,
				"z": -2.2861639331,
				"element": "H" 
			},
			{
				"x": 0.2820844334,
				"y": 0.7086893942,
				"z": -3.9883255697,
				"element": "H" 
			},
			{
				"x": 2.9072652257,
				"y": -2.4812004127,
				"z": -3.1568838952,
				"element": "H" 
			},
			{
				"x": 2.9807919289,
				"y": -1.8402892697,
				"z": -1.5155730741,
				"element": "H" 
			},
			{
				"x": 5.2127843885,
				"y": -1.7951058284,
				"z": -2.6956674127,
				"element": "H" 
			},
			{
				"x": 4.5234804166,
				"y": -0.7693801046,
				"z": -3.9469637245,
				"element": "H" 
			},
			{
				"x": 4.0882963694,
				"y": 1.0226123684,
				"z": -2.2260793666,
				"element": "H" 
			},
			{
				"x": 5.7876567348,
				"y": 0.6575327995,
				"z": -2.4710118978,
				"element": "H" 
			},
			{
				"x": 5.7750138884,
				"y": -0.7804240526,
				"z": -0.4037692619,
				"element": "H" 
			},
			{
				"x": 4.0937327053,
				"y": -0.3617118456,
				"z": -0.1247897277,
				"element": "H" 
			},
			{
				"x": 4.720130378,
				"y": 2.0740244224,
				"z": 0.0840638546,
				"element": "H" 
			},
			{
				"x": 6.4161846915,
				"y": 1.6557093642,
				"z": -0.1848524959,
				"element": "H" 
			},
			{
				"x": 5.5827393178,
				"y": 1.0797673244,
				"z": 1.2653709877,
				"element": "H" 
			}
		],
		 "valence_orbital": [ 
			{
				"type": "occ",
				"energy": -0.29984,
				"method": "rhf"
			},
			{
				"type": "occ",
				"energy": -0.29461,
				"method": "rhf"
			},
			{
				"type": "occ",
				"energy": -0.29426,
				"method": "rhf"
			},
			{
				"type": "occ",
				"energy": -0.29039,
				"method": "rhf"
			},
			{
				"type": "occ",
				"energy": -0.26888,
				"method": "rhf"
			},
			{
				"type": "unocc",
				"energy": 0.01322,
				"method": "rhf"
			},
			{
				"type": "unocc",
				"energy": 0.05996,
				"method": "rhf"
			},
			{
				"type": "unocc",
				"energy": 0.07979,
				"method": "rhf"
			},
			{
				"type": "unocc",
				"energy": 0.09132,
				"method": "rhf"
			},
			{
				"type": "unocc",
				"energy": 0.09682,
				"method": "rhf"
			}
		],
		"cosmo_sigma_profile": { 
			"-0.025": 0.0,
			"-0.024": 0.0,
			"-0.023": 0.0,
			"-0.022": 0.0,
			"-0.021": 0.0,
			"-0.02": 0.0,
			"-0.019": 0.0,
			"-0.018": 0.0,
			"-0.017": 0.0,
			"-0.016": 0.0,
			"-0.015": 0.0,
			"-0.014": 0.0,
			"-0.013": 0.0,
			"-0.012": 0.0,
			"-0.011": 0.0,
			"-0.01": 0.0,
			"-0.009": 0.0,
			"-0.008": 0.0,
			"-0.007": 0.0,
			"-0.006": 0.425983177138,
			"-0.005": 5.30277269677,
			"-0.004": 11.5074645892,
			"-0.003": 26.9969665184,
			"-0.002": 70.1997007532,
			"-0.001": 114.402989904,
			"0.0": 115.653552255,
			"0.001": 97.836698023,
			"0.002": 44.5880287311,
			"0.003": 8.33038883987,
			"0.004": 6.21469177088,
			"0.005": 6.07103073364,
			"0.006": 5.401047121,
			"0.007": 3.43486379457,
			"0.008": 2.31173572544,
			"0.009": 1.75881661218,
			"0.01": 1.56593259249,
			"0.011": 1.64438270548,
			"0.012": 1.48061628732,
			"0.013": 0.423202940437,
			"0.014": 0.0,
			"0.015": 0.0,
			"0.016": 0.0,
			"0.017": 0.0,
			"0.018": 0.0,
			"0.019": 0.0,
			"0.02": 0.0,
			"0.021": 0.0,
			"0.022": 0.0,
			"0.023": 0.0,
			"0.024": 0.0,
			"0.025": 0.0
		}
	}
}
