{
	 "smiles": "OC(=O)CCSC=CC1=CC=CC=C1", 
	 "Tm": 391.15, 
	 "num_atms": 26, 
	 "gaussian": { 
		 "optdone": 1, 
		 "sigma_profile": "yes", 
		 "theory": "DFT", 
		 "functional": "B3LYP", 
		 "basiset": "6-31G**", 
		 "properties": { 
			 "R2extent": 5363.9044, 
			 "electric_dipole_moment_norm": 1.85425677294, 
			 "electric_quadrupole_moment_norm": 11.3723988076, 
			 "total_energy": -975.037094123, 
			 "HOMO_LUMO_gap": 0.17054, 
			 "cosmo_polarized_energy": -13.65, 
			 "cosmo_cavitation_energy": 32.05, 
			 "cosmo_dispersion_energy": -23.54, 
			 "cosmo_repulsion_energy": 1.84, 
			 "cosmo_total_nonelectrostatic_energy": 10.34, 
			 "SMD_solvation_energy": 6.59 
		},
		"coords": [
			{
				"x": -3.8445950206,
				"y": 3.0223265801,
				"z": 2.6273479191,
				"element": "O" 
			},
			{
				"x": -2.7187725013,
				"y": 3.2997794248,
				"z": 1.932035043,
				"element": "C" 
			},
			{
				"x": -2.713351097,
				"y": 3.9786934952,
				"z": 0.9295959174,
				"element": "O" 
			},
			{
				"x": -1.4896443717,
				"y": 2.7066311563,
				"z": 2.595875154,
				"element": "C" 
			},
			{
				"x": -0.3589959298,
				"y": 2.4505028527,
				"z": 1.6009153389,
				"element": "C" 
			},
			{
				"x": -0.7034676641,
				"y": 0.9198037936,
				"z": 0.6379654436,
				"element": "S" 
			},
			{
				"x": 0.3343346677,
				"y": 1.1891464516,
				"z": -0.7633514339,
				"element": "C" 
			},
			{
				"x": 0.7514944454,
				"y": 0.3003541484,
				"z": -1.6877437387,
				"element": "C" 
			},
			{
				"x": 0.525819456,
				"y": -1.1397966092,
				"z": -1.8268125408,
				"element": "C" 
			},
			{
				"x": 1.303947437,
				"y": -1.8386209113,
				"z": -2.7731440591,
				"element": "C" 
			},
			{
				"x": 1.1640422459,
				"y": -3.2105402069,
				"z": -2.9584930552,
				"element": "C" 
			},
			{
				"x": 0.2316278182,
				"y": -3.9270713949,
				"z": -2.204357425,
				"element": "C" 
			},
			{
				"x": -0.557975002,
				"y": -3.2519515222,
				"z": -1.2718583534,
				"element": "C" 
			},
			{
				"x": -0.4188800302,
				"y": -1.8775046438,
				"z": -1.0855043231,
				"element": "C" 
			},
			{
				"x": -4.5710550228,
				"y": 3.4671252659,
				"z": 2.1583610217,
				"element": "H" 
			},
			{
				"x": -1.7677356279,
				"y": 1.807292912,
				"z": 3.1529023924,
				"element": "H" 
			},
			{
				"x": -1.1527061367,
				"y": 3.4383849528,
				"z": 3.342339451,
				"element": "H" 
			},
			{
				"x": 0.5939911741,
				"y": 2.3375124071,
				"z": 2.1228179153,
				"element": "H" 
			},
			{
				"x": -0.2961506658,
				"y": 3.2902747433,
				"z": 0.904544449,
				"element": "H" 
			},
			{
				"x": 0.6385129237,
				"y": 2.2265131769,
				"z": -0.8772714967,
				"element": "H" 
			},
			{
				"x": 1.3812243528,
				"y": 0.7266978015,
				"z": -2.4673678811,
				"element": "H" 
			},
			{
				"x": 2.0325011843,
				"y": -1.288484244,
				"z": -3.3636324862,
				"element": "H" 
			},
			{
				"x": 1.7808532982,
				"y": -3.721219682,
				"z": -3.6927499151,
				"element": "H" 
			},
			{
				"x": 0.1168801817,
				"y": -4.9976631268,
				"z": -2.3471391189,
				"element": "H" 
			},
			{
				"x": -1.2947494458,
				"y": -3.796918632,
				"z": -0.6882466978,
				"element": "H" 
			},
			{
				"x": -1.0623506693,
				"y": -1.3797681891,
				"z": -0.3699275204,
				"element": "H" 
			}
		],
		 "valence_orbital": [ 
			{
				"type": "occ",
				"energy": -0.30541,
				"method": "rhf"
			},
			{
				"type": "occ",
				"energy": -0.28322,
				"method": "rhf"
			},
			{
				"type": "occ",
				"energy": -0.25591,
				"method": "rhf"
			},
			{
				"type": "occ",
				"energy": -0.24465,
				"method": "rhf"
			},
			{
				"type": "occ",
				"energy": -0.19931,
				"method": "rhf"
			},
			{
				"type": "unocc",
				"energy": -0.02877,
				"method": "rhf"
			},
			{
				"type": "unocc",
				"energy": 0.00268,
				"method": "rhf"
			},
			{
				"type": "unocc",
				"energy": 0.00531,
				"method": "rhf"
			},
			{
				"type": "unocc",
				"energy": 0.03036,
				"method": "rhf"
			},
			{
				"type": "unocc",
				"energy": 0.06192,
				"method": "rhf"
			}
		],
		"cosmo_sigma_profile": { 
			"-0.025": 0.0,
			"-0.024": 0.0,
			"-0.023": 0.0,
			"-0.022": 0.0,
			"-0.021": 0.0,
			"-0.02": 0.0,
			"-0.019": 0.0116568581579,
			"-0.018": 0.909892162321,
			"-0.017": 0.821599372279,
			"-0.016": 1.04682518635,
			"-0.015": 0.53327714291,
			"-0.014": 0.886271093317,
			"-0.013": 0.478545689535,
			"-0.012": 0.423982879089,
			"-0.011": 1.30077205323,
			"-0.01": 0.828095828105,
			"-0.009": 0.131074741443,
			"-0.008": 3.48793102767,
			"-0.007": 6.93801991035,
			"-0.006": 16.1465450642,
			"-0.005": 23.5804567111,
			"-0.004": 21.5786741692,
			"-0.003": 20.0072273845,
			"-0.002": 13.9681274024,
			"-0.001": 12.2680913703,
			"0.0": 12.3407001578,
			"0.001": 11.4961307066,
			"0.002": 13.7867894525,
			"0.003": 14.2935487618,
			"0.004": 18.2955139873,
			"0.005": 21.2937833559,
			"0.006": 15.2480048845,
			"0.007": 6.4338484771,
			"0.008": 4.63606888542,
			"0.009": 3.37097767607,
			"0.01": 2.56915794911,
			"0.011": 3.83755005175,
			"0.012": 3.44333428414,
			"0.013": 0.0630868926493,
			"0.014": 0.0,
			"0.015": 0.0,
			"0.016": 0.0,
			"0.017": 0.0,
			"0.018": 0.0,
			"0.019": 0.0,
			"0.02": 0.0,
			"0.021": 0.0,
			"0.022": 0.0,
			"0.023": 0.0,
			"0.024": 0.0,
			"0.025": 0.0
		}
	}
}
