{
	 "smiles": "CCC(=O)OC(OP(=O)(CCCCC1=CC=CC=C1)CC(=O)N1C[C@@H](C[C@H]1C(O)=O)C1CCCCC1)C(C)C", 
	 "Tm": 424.15, 
	 "num_atms": 85, 
	 "gaussian": { 
		 "optdone": 1, 
		 "sigma_profile": "yes", 
		 "theory": "DFT", 
		 "functional": "B3LYP", 
		 "basiset": "6-31G**", 
		 "properties": { 
			 "R2extent": 31496.6079, 
			 "electric_dipole_moment_norm": 2.10719493878, 
			 "electric_quadrupole_moment_norm": 26.6921242817, 
			 "total_energy": -2093.70773442, 
			 "HOMO_LUMO_gap": 0.21468, 
			 "cosmo_polarized_energy": -28.4, 
			 "cosmo_cavitation_energy": 84.6, 
			 "cosmo_dispersion_energy": -51.25, 
			 "cosmo_repulsion_energy": 3.86, 
			 "cosmo_total_nonelectrostatic_energy": 37.21, 
			 "SMD_solvation_energy": 13.77 
		},
		"coords": [
			{
				"x": -1.9118541647,
				"y": -5.7225582607,
				"z": -1.5479551778,
				"element": "C" 
			},
			{
				"x": -2.7061906632,
				"y": -4.8808378393,
				"z": -0.5394275016,
				"element": "C" 
			},
			{
				"x": -1.9965795254,
				"y": -4.6491501861,
				"z": 0.7794197697,
				"element": "C" 
			},
			{
				"x": -2.4853448952,
				"y": -4.8158021827,
				"z": 1.8749300772,
				"element": "O" 
			},
			{
				"x": -0.7226896692,
				"y": -4.21055977,
				"z": 0.586122909,
				"element": "O" 
			},
			{
				"x": -0.0010737441,
				"y": -3.7733223957,
				"z": 1.7610424532,
				"element": "C" 
			},
			{
				"x": 0.9478899463,
				"y": -2.8287111543,
				"z": 1.2977448573,
				"element": "O" 
			},
			{
				"x": 0.4504146759,
				"y": -1.3173848747,
				"z": 0.8589050236,
				"element": "P" 
			},
			{
				"x": -0.9467963759,
				"y": -0.9734488943,
				"z": 1.2617969778,
				"element": "O" 
			},
			{
				"x": 0.763194714,
				"y": -1.2180720045,
				"z": -0.9355006693,
				"element": "C" 
			},
			{
				"x": 2.0611623233,
				"y": -1.8649315639,
				"z": -1.4460643932,
				"element": "C" 
			},
			{
				"x": 2.2070394967,
				"y": -1.8192602651,
				"z": -2.976716176,
				"element": "C" 
			},
			{
				"x": 2.3659833374,
				"y": -0.4018443969,
				"z": -3.5651167433,
				"element": "C" 
			},
			{
				"x": 2.5673722965,
				"y": -0.4156987322,
				"z": -5.0657035582,
				"element": "C" 
			},
			{
				"x": 1.473384388,
				"y": -0.3437350865,
				"z": -5.9389553733,
				"element": "C" 
			},
			{
				"x": 1.6531777485,
				"y": -0.3952109432,
				"z": -7.3220578263,
				"element": "C" 
			},
			{
				"x": 2.9364119435,
				"y": -0.5192903239,
				"z": -7.8575770153,
				"element": "C" 
			},
			{
				"x": 4.0358108147,
				"y": -0.5897675991,
				"z": -6.9998140958,
				"element": "C" 
			},
			{
				"x": 3.8501375721,
				"y": -0.5382438395,
				"z": -5.6177029089,
				"element": "C" 
			},
			{
				"x": 1.7363970377,
				"y": -0.2920937546,
				"z": 1.6976902472,
				"element": "C" 
			},
			{
				"x": 1.2490388507,
				"y": 1.1481904634,
				"z": 1.6964256842,
				"element": "C" 
			},
			{
				"x": 1.3750904027,
				"y": 1.7995363515,
				"z": 0.6598142092,
				"element": "O" 
			},
			{
				"x": 0.6589754043,
				"y": 1.6889704141,
				"z": 2.8138930362,
				"element": "N" 
			},
			{
				"x": -0.1634740025,
				"y": 2.8996416981,
				"z": 2.6346611871,
				"element": "C" 
			},
			{
				"x": -1.6133260437,
				"y": 2.4319430823,
				"z": 2.9379882649,
				"element": "C" 
			},
			{
				"x": -1.4291676955,
				"y": 1.1690491078,
				"z": 3.8362857823,
				"element": "C" 
			},
			{
				"x": 0.0932255106,
				"y": 1.0705211227,
				"z": 4.0367198234,
				"element": "C" 
			},
			{
				"x": 0.5779824128,
				"y": -0.2969519428,
				"z": 4.4959708078,
				"element": "C" 
			},
			{
				"x": 1.8535552286,
				"y": -0.244969557,
				"z": 4.9561929166,
				"element": "O" 
			},
			{
				"x": -0.0899239219,
				"y": -1.3042087803,
				"z": 4.5446591658,
				"element": "O" 
			},
			{
				"x": -2.5400348908,
				"y": 3.5472391091,
				"z": 3.4729356802,
				"element": "C" 
			},
			{
				"x": -4.035317092,
				"y": 3.0930420147,
				"z": 3.5205342889,
				"element": "C" 
			},
			{
				"x": -4.5532922655,
				"y": 2.8691564899,
				"z": 4.9488831477,
				"element": "C" 
			},
			{
				"x": -4.4669314939,
				"y": 4.1579392807,
				"z": 5.7947960517,
				"element": "C" 
			},
			{
				"x": -3.2223983461,
				"y": 5.0077631021,
				"z": 5.4354482256,
				"element": "C" 
			},
			{
				"x": -2.1018035849,
				"y": 4.149047062,
				"z": 4.8300403322,
				"element": "C" 
			},
			{
				"x": 0.7268915537,
				"y": -4.9352738185,
				"z": 2.4397263357,
				"element": "C" 
			},
			{
				"x": 1.4537512885,
				"y": -4.4449917914,
				"z": 3.7010712453,
				"element": "C" 
			},
			{
				"x": 1.6737986175,
				"y": -5.6769966145,
				"z": 1.487136751,
				"element": "C" 
			},
			{
				"x": -0.9628197629,
				"y": -5.2434037119,
				"z": -1.7992659452,
				"element": "H" 
			},
			{
				"x": -1.6943281477,
				"y": -6.7183256118,
				"z": -1.14868654,
				"element": "H" 
			},
			{
				"x": -2.4869779263,
				"y": -5.8506730051,
				"z": -2.4696330549,
				"element": "H" 
			},
			{
				"x": -2.9181653278,
				"y": -3.8925544854,
				"z": -0.9673790008,
				"element": "H" 
			},
			{
				"x": -3.6653485011,
				"y": -5.3453836625,
				"z": -0.2994357835,
				"element": "H" 
			},
			{
				"x": -0.7156886077,
				"y": -3.2997347506,
				"z": 2.43688899,
				"element": "H" 
			},
			{
				"x": -0.1122011807,
				"y": -1.6847019934,
				"z": -1.4029183278,
				"element": "H" 
			},
			{
				"x": 0.7274323874,
				"y": -0.1466337617,
				"z": -1.1630312463,
				"element": "H" 
			},
			{
				"x": 2.089518408,
				"y": -2.9086371898,
				"z": -1.1165768367,
				"element": "H" 
			},
			{
				"x": 2.9293677345,
				"y": -1.3698819032,
				"z": -0.9907415975,
				"element": "H" 
			},
			{
				"x": 1.3413655049,
				"y": -2.3083568081,
				"z": -3.4431118472,
				"element": "H" 
			},
			{
				"x": 3.0819605868,
				"y": -2.4162104133,
				"z": -3.2627945822,
				"element": "H" 
			},
			{
				"x": 1.4838032419,
				"y": 0.2016600817,
				"z": -3.3231799587,
				"element": "H" 
			},
			{
				"x": 3.2199073475,
				"y": 0.089554589,
				"z": -3.0814659146,
				"element": "H" 
			},
			{
				"x": 0.4708930123,
				"y": -0.2403024747,
				"z": -5.5296442495,
				"element": "H" 
			},
			{
				"x": 0.7915540955,
				"y": -0.3331171276,
				"z": -7.9811869991,
				"element": "H" 
			},
			{
				"x": 3.0790210979,
				"y": -0.5555177723,
				"z": -8.9338275663,
				"element": "H" 
			},
			{
				"x": 5.0392554727,
				"y": -0.679780442,
				"z": -7.4069000503,
				"element": "H" 
			},
			{
				"x": 4.7123206484,
				"y": -0.5875065354,
				"z": -4.9562458251,
				"element": "H" 
			},
			{
				"x": 1.94890198,
				"y": -0.7207044386,
				"z": 2.6731686974,
				"element": "H" 
			},
			{
				"x": 2.6570718704,
				"y": -0.3195268947,
				"z": 1.1098164947,
				"element": "H" 
			},
			{
				"x": 0.1753778087,
				"y": 3.6630523272,
				"z": 3.3447445413,
				"element": "H" 
			},
			{
				"x": -0.0233555742,
				"y": 3.2746307026,
				"z": 1.6230141954,
				"element": "H" 
			},
			{
				"x": -2.0389219829,
				"y": 2.0920928274,
				"z": 1.9875116126,
				"element": "H" 
			},
			{
				"x": -1.7757553566,
				"y": 0.2697211907,
				"z": 3.3249292051,
				"element": "H" 
			},
			{
				"x": -1.9398971232,
				"y": 1.2376371546,
				"z": 4.7999944656,
				"element": "H" 
			},
			{
				"x": 0.3959367795,
				"y": 1.7420787392,
				"z": 4.8536391644,
				"element": "H" 
			},
			{
				"x": 2.0640048155,
				"y": -1.1371253049,
				"z": 5.2818840009,
				"element": "H" 
			},
			{
				"x": -2.4776968605,
				"y": 4.3632312469,
				"z": 2.7381634244,
				"element": "H" 
			},
			{
				"x": -4.1684998449,
				"y": 2.1818910126,
				"z": 2.9262921946,
				"element": "H" 
			},
			{
				"x": -4.6608062581,
				"y": 3.8575945589,
				"z": 3.0423003979,
				"element": "H" 
			},
			{
				"x": -3.9696389206,
				"y": 2.0732042106,
				"z": 5.4270014295,
				"element": "H" 
			},
			{
				"x": -5.586444728,
				"y": 2.5047449238,
				"z": 4.9210655955,
				"element": "H" 
			},
			{
				"x": -5.3720013433,
				"y": 4.7595649517,
				"z": 5.6485581663,
				"element": "H" 
			},
			{
				"x": -4.4468527086,
				"y": 3.8913691451,
				"z": 6.8582235675,
				"element": "H" 
			},
			{
				"x": -2.8588917512,
				"y": 5.5430053971,
				"z": 6.3197056563,
				"element": "H" 
			},
			{
				"x": -3.4968289557,
				"y": 5.7804958839,
				"z": 4.705240726,
				"element": "H" 
			},
			{
				"x": -1.8366033411,
				"y": 3.3529685049,
				"z": 5.5392004345,
				"element": "H" 
			},
			{
				"x": -1.198843062,
				"y": 4.7559675857,
				"z": 4.7006271727,
				"element": "H" 
			},
			{
				"x": -0.0757459074,
				"y": -5.6160166918,
				"z": 2.7488205305,
				"element": "H" 
			},
			{
				"x": 2.3014262906,
				"y": -3.8054992976,
				"z": 3.4314571112,
				"element": "H" 
			},
			{
				"x": 1.8422654757,
				"y": -5.2955751086,
				"z": 4.270058665,
				"element": "H" 
			},
			{
				"x": 0.7871027471,
				"y": -3.8705307663,
				"z": 4.3518890292,
				"element": "H" 
			},
			{
				"x": 1.1467002907,
				"y": -6.040381704,
				"z": 0.6008296824,
				"element": "H" 
			},
			{
				"x": 2.4855031467,
				"y": -5.0220562832,
				"z": 1.1550999231,
				"element": "H" 
			},
			{
				"x": 2.1210352405,
				"y": -6.5385496221,
				"z": 1.99305644,
				"element": "H" 
			}
		],
		 "valence_orbital": [ 
			{
				"type": "occ",
				"energy": -0.26365,
				"method": "rhf"
			},
			{
				"type": "occ",
				"energy": -0.25348,
				"method": "rhf"
			},
			{
				"type": "occ",
				"energy": -0.24532,
				"method": "rhf"
			},
			{
				"type": "occ",
				"energy": -0.24418,
				"method": "rhf"
			},
			{
				"type": "occ",
				"energy": -0.2369,
				"method": "rhf"
			},
			{
				"type": "unocc",
				"energy": -0.02222,
				"method": "rhf"
			},
			{
				"type": "unocc",
				"energy": 0.0029,
				"method": "rhf"
			},
			{
				"type": "unocc",
				"energy": 0.00361,
				"method": "rhf"
			},
			{
				"type": "unocc",
				"energy": 0.01041,
				"method": "rhf"
			},
			{
				"type": "unocc",
				"energy": 0.01212,
				"method": "rhf"
			}
		],
		"cosmo_sigma_profile": { 
			"-0.025": 0.0,
			"-0.024": 0.0,
			"-0.023": 0.0,
			"-0.022": 0.0,
			"-0.021": 0.0,
			"-0.02": 0.0,
			"-0.019": 0.0,
			"-0.018": 0.549914939542,
			"-0.017": 0.677027928785,
			"-0.016": 0.889994503124,
			"-0.015": 0.886889775575,
			"-0.014": 0.659867983505,
			"-0.013": 0.159795898441,
			"-0.012": 1.02499382504,
			"-0.011": 1.03868153004,
			"-0.01": 0.734017609609,
			"-0.009": 1.3097585757,
			"-0.008": 3.0084155819,
			"-0.007": 6.3768181786,
			"-0.006": 10.9800654935,
			"-0.005": 28.1173904006,
			"-0.004": 44.6955546016,
			"-0.003": 66.158231715,
			"-0.002": 90.8249984671,
			"-0.001": 86.1527662617,
			"0.0": 76.7347471691,
			"0.001": 60.6402134847,
			"0.002": 33.2982292596,
			"0.003": 23.0845406756,
			"0.004": 22.2746253447,
			"0.005": 19.4227570561,
			"0.006": 20.2946071989,
			"0.007": 13.9192473886,
			"0.008": 8.49554116128,
			"0.009": 5.87589669631,
			"0.01": 6.36573019717,
			"0.011": 5.82790659782,
			"0.012": 6.17432450858,
			"0.013": 5.16912584589,
			"0.014": 2.45495163232,
			"0.015": 1.11795283141,
			"0.016": 0.0536508145606,
			"0.017": 0.0,
			"0.018": 0.0,
			"0.019": 0.0,
			"0.02": 0.0,
			"0.021": 0.0,
			"0.022": 0.0,
			"0.023": 0.0,
			"0.024": 0.0,
			"0.025": 0.0
		}
	}
}
