{
	 "smiles": "CCOC(=O)COC1=CC=C(C=C1)C(N)=S", 
	 "Tm": 400.15, 
	 "num_atms": 29, 
	 "gaussian": { 
		 "optdone": 1, 
		 "sigma_profile": "yes", 
		 "theory": "DFT", 
		 "functional": "B3LYP", 
		 "basiset": "6-31G**", 
		 "properties": { 
			 "R2extent": 6170.0237, 
			 "electric_dipole_moment_norm": 5.64898417859, 
			 "electric_quadrupole_moment_norm": 20.1884377209, 
			 "total_energy": -1105.62585346, 
			 "HOMO_LUMO_gap": 0.14816, 
			 "cosmo_polarized_energy": -21.04, 
			 "cosmo_cavitation_energy": 35.41, 
			 "cosmo_dispersion_energy": -25.2, 
			 "cosmo_repulsion_energy": 1.99, 
			 "cosmo_total_nonelectrostatic_energy": 12.2, 
			 "SMD_solvation_energy": 6.5 
		},
		"coords": [
			{
				"x": -0.9266133388,
				"y": -2.740293091,
				"z": 1.8167994184,
				"element": "C" 
			},
			{
				"x": -0.7365094378,
				"y": -1.4217060908,
				"z": 2.5400271896,
				"element": "C" 
			},
			{
				"x": 0.4648261288,
				"y": -0.8044080887,
				"z": 2.0093893236,
				"element": "O" 
			},
			{
				"x": 0.77438738,
				"y": 0.395947536,
				"z": 2.5132455346,
				"element": "C" 
			},
			{
				"x": 0.1507481862,
				"y": 0.975427405,
				"z": 3.3761084837,
				"element": "O" 
			},
			{
				"x": 2.0612491278,
				"y": 0.9700256176,
				"z": 1.9183555963,
				"element": "C" 
			},
			{
				"x": 2.4687668535,
				"y": 0.4148988566,
				"z": 0.6832252314,
				"element": "O" 
			},
			{
				"x": 1.779805244,
				"y": 0.745068071,
				"z": -0.4475216394,
				"element": "C" 
			},
			{
				"x": 2.2845396179,
				"y": 0.204284594,
				"z": -1.6387383353,
				"element": "C" 
			},
			{
				"x": 1.6602262444,
				"y": 0.4804150453,
				"z": -2.8459898698,
				"element": "C" 
			},
			{
				"x": 0.5209541616,
				"y": 1.3086279086,
				"z": -2.9052561161,
				"element": "C" 
			},
			{
				"x": 0.0418369913,
				"y": 1.853350679,
				"z": -1.7056977045,
				"element": "C" 
			},
			{
				"x": 0.6507794993,
				"y": 1.5749691866,
				"z": -0.4852928235,
				"element": "C" 
			},
			{
				"x": -0.1576554464,
				"y": 1.609390762,
				"z": -4.1909319163,
				"element": "C" 
			},
			{
				"x": 0.0002964221,
				"y": 0.6756917304,
				"z": -5.1609980479,
				"element": "N" 
			},
			{
				"x": -1.0355407317,
				"y": 3.0029921466,
				"z": -4.476269273,
				"element": "S" 
			},
			{
				"x": -0.0724523884,
				"y": -3.4034191566,
				"z": 1.9802104918,
				"element": "H" 
			},
			{
				"x": -1.0404042067,
				"y": -2.582205194,
				"z": 0.7407663341,
				"element": "H" 
			},
			{
				"x": -1.8265955258,
				"y": -3.2389683223,
				"z": 2.189642557,
				"element": "H" 
			},
			{
				"x": -1.5766973624,
				"y": -0.7382785709,
				"z": 2.3846833036,
				"element": "H" 
			},
			{
				"x": -0.6121554511,
				"y": -1.5538445434,
				"z": 3.6191958968,
				"element": "H" 
			},
			{
				"x": 2.8721221366,
				"y": 0.7498653442,
				"z": 2.6196739339,
				"element": "H" 
			},
			{
				"x": 1.9498854894,
				"y": 2.0586127096,
				"z": 1.8688725164,
				"element": "H" 
			},
			{
				"x": 3.1733049046,
				"y": -0.4158857539,
				"z": -1.5918038932,
				"element": "H" 
			},
			{
				"x": 2.0955450862,
				"y": 0.0849952867,
				"z": -3.7590164571,
				"element": "H" 
			},
			{
				"x": -0.8269219491,
				"y": 2.5014586629,
				"z": -1.7431248696,
				"element": "H" 
			},
			{
				"x": 0.2360629547,
				"y": 2.0051825323,
				"z": 0.4189828252,
				"element": "H" 
			},
			{
				"x": -0.4731128668,
				"y": 0.8277049761,
				"z": -6.0395213943,
				"element": "H" 
			},
			{
				"x": 0.3108222766,
				"y": -0.258900239,
				"z": -4.9406162963,
				"element": "H" 
			}
		],
		 "valence_orbital": [ 
			{
				"type": "occ",
				"energy": -0.28332,
				"method": "rhf"
			},
			{
				"type": "occ",
				"energy": -0.26674,
				"method": "rhf"
			},
			{
				"type": "occ",
				"energy": -0.24387,
				"method": "rhf"
			},
			{
				"type": "occ",
				"energy": -0.2216,
				"method": "rhf"
			},
			{
				"type": "occ",
				"energy": -0.20305,
				"method": "rhf"
			},
			{
				"type": "unocc",
				"energy": -0.05489,
				"method": "rhf"
			},
			{
				"type": "unocc",
				"energy": -0.01894,
				"method": "rhf"
			},
			{
				"type": "unocc",
				"energy": -0.00089,
				"method": "rhf"
			},
			{
				"type": "unocc",
				"energy": 0.0302,
				"method": "rhf"
			},
			{
				"type": "unocc",
				"energy": 0.07135,
				"method": "rhf"
			}
		],
		"cosmo_sigma_profile": { 
			"-0.025": 0.0,
			"-0.024": 0.0,
			"-0.023": 0.0,
			"-0.022": 0.0,
			"-0.021": 0.0,
			"-0.02": 0.0,
			"-0.019": 0.0,
			"-0.018": 0.0,
			"-0.017": 0.0,
			"-0.016": 0.163051901253,
			"-0.015": 1.30198880615,
			"-0.014": 2.59134350867,
			"-0.013": 2.1523420532,
			"-0.012": 3.08124596624,
			"-0.011": 2.26793483891,
			"-0.01": 2.59063683318,
			"-0.009": 4.90312380622,
			"-0.008": 7.11556147419,
			"-0.007": 9.18798497336,
			"-0.006": 12.0083387417,
			"-0.005": 18.1235062422,
			"-0.004": 22.7575532069,
			"-0.003": 19.63179295,
			"-0.002": 16.9037778864,
			"-0.001": 15.4420598093,
			"0.0": 16.6913201995,
			"0.001": 14.5981751549,
			"0.002": 13.7825675613,
			"0.003": 19.2787128652,
			"0.004": 15.3100966474,
			"0.005": 7.43342498279,
			"0.006": 7.79397493305,
			"0.007": 7.83701228987,
			"0.008": 8.72831668468,
			"0.009": 10.5362706711,
			"0.01": 7.58328470145,
			"0.011": 7.92443979554,
			"0.012": 5.60575797134,
			"0.013": 0.298615494856,
			"0.014": 0.0,
			"0.015": 0.0,
			"0.016": 0.0,
			"0.017": 0.0,
			"0.018": 0.0,
			"0.019": 0.0,
			"0.02": 0.0,
			"0.021": 0.0,
			"0.022": 0.0,
			"0.023": 0.0,
			"0.024": 0.0,
			"0.025": 0.0
		}
	}
}
