{
	 "smiles": "CCOC(=O)C=CC(O)=O", 
	 "Tm": 343.15, 
	 "num_atms": 18, 
	 "gaussian": { 
		 "optdone": 1, 
		 "sigma_profile": "yes", 
		 "theory": "DFT", 
		 "functional": "B3LYP", 
		 "basiset": "6-31G**", 
		 "properties": { 
			 "R2extent": 3143.6521, 
			 "electric_dipole_moment_norm": 0.842412036951, 
			 "electric_quadrupole_moment_norm": 13.8681794822, 
			 "total_energy": -534.363195347, 
			 "HOMO_LUMO_gap": 0.19708, 
			 "cosmo_polarized_energy": -11.13, 
			 "cosmo_cavitation_energy": 23.73, 
			 "cosmo_dispersion_energy": -17.07, 
			 "cosmo_repulsion_energy": 1.43, 
			 "cosmo_total_nonelectrostatic_energy": 8.09, 
			 "SMD_solvation_energy": 6.94 
		},
		"coords": [
			{
				"x": 0.8245160465,
				"y": 1.529870572,
				"z": 2.8238917299,
				"element": "C" 
			},
			{
				"x": -0.5640095034,
				"y": 2.033353865,
				"z": 2.4591861678,
				"element": "C" 
			},
			{
				"x": -1.3947159434,
				"y": 0.9605992395,
				"z": 1.9499919496,
				"element": "O" 
			},
			{
				"x": -1.2843928456,
				"y": 0.6869600744,
				"z": 0.6332308834,
				"element": "C" 
			},
			{
				"x": -0.5502086809,
				"y": 1.2759852282,
				"z": -0.1360240975,
				"element": "O" 
			},
			{
				"x": -2.1913870645,
				"y": -0.4309114898,
				"z": 0.2600612862,
				"element": "C" 
			},
			{
				"x": -2.2530597791,
				"y": -0.8689778261,
				"z": -1.0021217081,
				"element": "C" 
			},
			{
				"x": -3.1595864827,
				"y": -1.9841612435,
				"z": -1.3717437003,
				"element": "C" 
			},
			{
				"x": -3.0722349526,
				"y": -2.2700581567,
				"z": -2.6922335101,
				"element": "O" 
			},
			{
				"x": -3.8948930696,
				"y": -2.5820478568,
				"z": -0.6127745013,
				"element": "O" 
			},
			{
				"x": 1.3550992888,
				"y": 1.185254546,
				"z": 1.9330405032,
				"element": "H" 
			},
			{
				"x": 1.4045428972,
				"y": 2.3410593122,
				"z": 3.2762002904,
				"element": "H" 
			},
			{
				"x": 0.7647036044,
				"y": 0.7077517647,
				"z": 3.5429443652,
				"element": "H" 
			},
			{
				"x": -1.1028530491,
				"y": 2.3980550828,
				"z": 3.3365685065,
				"element": "H" 
			},
			{
				"x": -0.5127530627,
				"y": 2.8241225741,
				"z": 1.7070035565,
				"element": "H" 
			},
			{
				"x": -2.8013079898,
				"y": -0.8819142545,
				"z": 1.0363348568,
				"element": "H" 
			},
			{
				"x": -1.6431784919,
				"y": -0.4180085853,
				"z": -1.7782464082,
				"element": "H" 
			},
			{
				"x": -3.6895809216,
				"y": -3.0032328463,
				"z": -2.85351017,
				"element": "H" 
			}
		],
		 "valence_orbital": [ 
			{
				"type": "occ",
				"energy": -0.32942,
				"method": "rhf"
			},
			{
				"type": "occ",
				"energy": -0.30668,
				"method": "rhf"
			},
			{
				"type": "occ",
				"energy": -0.29423,
				"method": "rhf"
			},
			{
				"type": "occ",
				"energy": -0.28837,
				"method": "rhf"
			},
			{
				"type": "occ",
				"energy": -0.28214,
				"method": "rhf"
			},
			{
				"type": "unocc",
				"energy": -0.08506,
				"method": "rhf"
			},
			{
				"type": "unocc",
				"energy": 0.03437,
				"method": "rhf"
			},
			{
				"type": "unocc",
				"energy": 0.07522,
				"method": "rhf"
			},
			{
				"type": "unocc",
				"energy": 0.09729,
				"method": "rhf"
			},
			{
				"type": "unocc",
				"energy": 0.10559,
				"method": "rhf"
			}
		],
		"cosmo_sigma_profile": { 
			"-0.025": 0.0,
			"-0.024": 0.0,
			"-0.023": 0.0,
			"-0.022": 0.0,
			"-0.021": 0.0,
			"-0.02": 0.0,
			"-0.019": 0.236496697914,
			"-0.018": 0.97073342805,
			"-0.017": 1.0300617572,
			"-0.016": 0.804588547744,
			"-0.015": 0.541535391316,
			"-0.014": 0.906131195526,
			"-0.013": 0.325169071892,
			"-0.012": 1.07551984582,
			"-0.011": 0.710238803283,
			"-0.01": 0.47029682121,
			"-0.009": 0.286185427261,
			"-0.008": 1.66946479421,
			"-0.007": 3.8440374846,
			"-0.006": 5.49377588112,
			"-0.005": 8.41010218954,
			"-0.004": 17.5462286683,
			"-0.003": 22.182624044,
			"-0.002": 19.1830233787,
			"-0.001": 18.6597674689,
			"0.0": 16.4853470958,
			"0.001": 8.82133060778,
			"0.002": 5.44947625864,
			"0.003": 6.24295741617,
			"0.004": 6.81898091007,
			"0.005": 3.93523223483,
			"0.006": 3.41273427719,
			"0.007": 6.20054504157,
			"0.008": 5.55811639407,
			"0.009": 4.19787868395,
			"0.01": 4.28518425443,
			"0.011": 8.73824271572,
			"0.012": 3.50283996321,
			"0.013": 0.0,
			"0.014": 0.0,
			"0.015": 0.0,
			"0.016": 0.0,
			"0.017": 0.0,
			"0.018": 0.0,
			"0.019": 0.0,
			"0.02": 0.0,
			"0.021": 0.0,
			"0.022": 0.0,
			"0.023": 0.0,
			"0.024": 0.0,
			"0.025": 0.0
		}
	}
}
