{
	 "smiles": "NS(=O)(=O)C1CCCNC1", 
	 "Tm": 393.15, 
	 "num_atms": 22, 
	 "gaussian": { 
		 "optdone": 1, 
		 "sigma_profile": "yes", 
		 "theory": "DFT", 
		 "functional": "B3LYP", 
		 "basiset": "6-31G**", 
		 "properties": { 
			 "R2extent": 2085.5285, 
			 "electric_dipole_moment_norm": 3.15347055797, 
			 "electric_quadrupole_moment_norm": 18.56522469, 
			 "total_energy": -855.841712356, 
			 "HOMO_LUMO_gap": 0.27774, 
			 "cosmo_polarized_energy": -16.74, 
			 "cosmo_cavitation_energy": 24.65, 
			 "cosmo_dispersion_energy": -18.97, 
			 "cosmo_repulsion_energy": 1.49, 
			 "cosmo_total_nonelectrostatic_energy": 7.18, 
			 "SMD_solvation_energy": 0.63 
		},
		"coords": [
			{
				"x": 0.5179839202,
				"y": -0.4697828995,
				"z": 3.3673506121,
				"element": "N" 
			},
			{
				"x": 1.1525588518,
				"y": -0.6353755984,
				"z": 1.7977191146,
				"element": "S" 
			},
			{
				"x": 2.5933096053,
				"y": -0.3610865571,
				"z": 1.8768524065,
				"element": "O" 
			},
			{
				"x": 0.6399341095,
				"y": -1.8985359551,
				"z": 1.2486957136,
				"element": "O" 
			},
			{
				"x": 0.3606058391,
				"y": 0.7439900189,
				"z": 0.9133000803,
				"element": "C" 
			},
			{
				"x": 0.9452705411,
				"y": 0.8400069513,
				"z": -0.5059579577,
				"element": "C" 
			},
			{
				"x": 0.2454405971,
				"y": 1.9668754833,
				"z": -1.2838471605,
				"element": "C" 
			},
			{
				"x": -1.2819973301,
				"y": 1.7948989679,
				"z": -1.2435347979,
				"element": "C" 
			},
			{
				"x": -1.8267420022,
				"y": 1.6608346669,
				"z": 0.1112611279,
				"element": "N" 
			},
			{
				"x": -1.1771711053,
				"y": 0.5993934016,
				"z": 0.8770739048,
				"element": "C" 
			},
			{
				"x": 1.2852394081,
				"y": -0.3048814748,
				"z": 4.0143745275,
				"element": "H" 
			},
			{
				"x": 0.0166475235,
				"y": -1.3206292612,
				"z": 3.6103375525,
				"element": "H" 
			},
			{
				"x": 0.6398342818,
				"y": 1.6279186343,
				"z": 1.4996537001,
				"element": "H" 
			},
			{
				"x": 2.0255909605,
				"y": 1.0028888138,
				"z": -0.4570651758,
				"element": "H" 
			},
			{
				"x": 0.7829611847,
				"y": -0.1175828171,
				"z": -1.0169555498,
				"element": "H" 
			},
			{
				"x": 0.6019838583,
				"y": 1.9790879532,
				"z": -2.3208383546,
				"element": "H" 
			},
			{
				"x": 0.5139421189,
				"y": 2.9384223942,
				"z": -0.8455032667,
				"element": "H" 
			},
			{
				"x": -1.7810114616,
				"y": 2.6376387299,
				"z": -1.7337501705,
				"element": "H" 
			},
			{
				"x": -1.5610209004,
				"y": 0.891320022,
				"z": -1.8030535078,
				"element": "H" 
			},
			{
				"x": -1.7324372706,
				"y": 2.5458018508,
				"z": 0.6055224356,
				"element": "H" 
			},
			{
				"x": -1.4265919607,
				"y": -0.3638487944,
				"z": 0.4164513891,
				"element": "H" 
			},
			{
				"x": -1.5805307688,
				"y": 0.5953454695,
				"z": 1.8936133769,
				"element": "H" 
			}
		],
		 "valence_orbital": [ 
			{
				"type": "occ",
				"energy": -0.31466,
				"method": "rhf"
			},
			{
				"type": "occ",
				"energy": -0.30643,
				"method": "rhf"
			},
			{
				"type": "occ",
				"energy": -0.30032,
				"method": "rhf"
			},
			{
				"type": "occ",
				"energy": -0.2915,
				"method": "rhf"
			},
			{
				"type": "occ",
				"energy": -0.22662,
				"method": "rhf"
			},
			{
				"type": "unocc",
				"energy": 0.05112,
				"method": "rhf"
			},
			{
				"type": "unocc",
				"energy": 0.06599,
				"method": "rhf"
			},
			{
				"type": "unocc",
				"energy": 0.08378,
				"method": "rhf"
			},
			{
				"type": "unocc",
				"energy": 0.08458,
				"method": "rhf"
			},
			{
				"type": "unocc",
				"energy": 0.08775,
				"method": "rhf"
			}
		],
		"cosmo_sigma_profile": { 
			"-0.025": 0.0,
			"-0.024": 0.0,
			"-0.023": 0.0,
			"-0.022": 0.0,
			"-0.021": 0.0,
			"-0.02": 0.0,
			"-0.019": 0.0,
			"-0.018": 0.0,
			"-0.017": 0.0,
			"-0.016": 0.0,
			"-0.015": 0.663563383411,
			"-0.014": 2.11327114469,
			"-0.013": 2.76987113978,
			"-0.012": 2.29333604962,
			"-0.011": 2.47477094545,
			"-0.01": 2.83789091743,
			"-0.009": 3.54625677173,
			"-0.008": 3.63864399586,
			"-0.007": 6.33009706577,
			"-0.006": 5.75934252261,
			"-0.005": 6.15666928864,
			"-0.004": 14.331263171,
			"-0.003": 22.0969722853,
			"-0.002": 20.0670198526,
			"-0.001": 17.3525122686,
			"0.0": 11.0807788818,
			"0.001": 6.22400047675,
			"0.002": 5.54274972212,
			"0.003": 3.8486949168,
			"0.004": 3.56477469124,
			"0.005": 3.9694757079,
			"0.006": 3.53671574672,
			"0.007": 4.19913716142,
			"0.008": 4.01453267153,
			"0.009": 4.600073134,
			"0.01": 4.86884166276,
			"0.011": 11.6709215438,
			"0.012": 7.63483642264,
			"0.013": 1.06426434042,
			"0.014": 0.811972600767,
			"0.015": 0.312165911765,
			"0.016": 0.557954068748,
			"0.017": 0.707872826413,
			"0.018": 0.233016384839,
			"0.019": 0.0,
			"0.02": 0.0,
			"0.021": 0.0,
			"0.022": 0.0,
			"0.023": 0.0,
			"0.024": 0.0,
			"0.025": 0.0
		}
	}
}
