{
	 "smiles": "COC1=CC=CN=C1Cl", 
	 "Tm": 320.15, 
	 "num_atms": 15, 
	 "gaussian": { 
		 "optdone": 1, 
		 "sigma_profile": "yes", 
		 "theory": "DFT", 
		 "functional": "B3LYP", 
		 "basiset": "6-31G**", 
		 "properties": { 
			 "R2extent": 1560.8841, 
			 "electric_dipole_moment_norm": 3.4921327051, 
			 "electric_quadrupole_moment_norm": 7.20923666764, 
			 "total_energy": -822.396822971, 
			 "HOMO_LUMO_gap": 0.21718, 
			 "cosmo_polarized_energy": -7.9, 
			 "cosmo_cavitation_energy": 20.85, 
			 "cosmo_dispersion_energy": -15.61, 
			 "cosmo_repulsion_energy": 1.28, 
			 "cosmo_total_nonelectrostatic_energy": 6.52, 
			 "SMD_solvation_energy": 2.94 
		},
		"coords": [
			{
				"x": 2.0116546197,
				"y": 0.3192137918,
				"z": 2.3027730061,
				"element": "C" 
			},
			{
				"x": 1.100168965,
				"y": -0.4530036004,
				"z": 1.510742656,
				"element": "O" 
			},
			{
				"x": 0.4559700825,
				"y": 0.2322881509,
				"z": 0.5211114681,
				"element": "C" 
			},
			{
				"x": -0.8521818466,
				"y": 0.6774745619,
				"z": 0.7120488894,
				"element": "C" 
			},
			{
				"x": -1.5188687021,
				"y": 1.3225091889,
				"z": -0.3297842791,
				"element": "C" 
			},
			{
				"x": -0.8430389375,
				"y": 1.5036030467,
				"z": -1.5336144097,
				"element": "C" 
			},
			{
				"x": 0.4119654894,
				"y": 1.0773338697,
				"z": -1.7352766475,
				"element": "N" 
			},
			{
				"x": 1.0291071915,
				"y": 0.4656454302,
				"z": -0.7447169756,
				"element": "C" 
			},
			{
				"x": 2.6650675141,
				"y": -0.1075176418,
				"z": -1.0580099686,
				"element": "Cl" 
			},
			{
				"x": 2.4265218569,
				"y": -0.3673962662,
				"z": 3.042223227,
				"element": "H" 
			},
			{
				"x": 1.488326433,
				"y": 1.1360747304,
				"z": 2.8154005701,
				"element": "H" 
			},
			{
				"x": 2.8226798331,
				"y": 0.729802,
				"z": 1.6924791814,
				"element": "H" 
			},
			{
				"x": -1.3260846339,
				"y": 0.4977621539,
				"z": 1.6720803656,
				"element": "H" 
			},
			{
				"x": -2.5381295018,
				"y": 1.6748323573,
				"z": -0.2096826041,
				"element": "H" 
			},
			{
				"x": -1.3179583634,
				"y": 2.0017782266,
				"z": -2.3752744791,
				"element": "H" 
			}
		],
		 "valence_orbital": [ 
			{
				"type": "occ",
				"energy": -0.31189,
				"method": "rhf"
			},
			{
				"type": "occ",
				"energy": -0.30197,
				"method": "rhf"
			},
			{
				"type": "occ",
				"energy": -0.29029,
				"method": "rhf"
			},
			{
				"type": "occ",
				"energy": -0.26732,
				"method": "rhf"
			},
			{
				"type": "occ",
				"energy": -0.25278,
				"method": "rhf"
			},
			{
				"type": "unocc",
				"energy": -0.0356,
				"method": "rhf"
			},
			{
				"type": "unocc",
				"energy": -0.02202,
				"method": "rhf"
			},
			{
				"type": "unocc",
				"energy": 0.0352,
				"method": "rhf"
			},
			{
				"type": "unocc",
				"energy": 0.09868,
				"method": "rhf"
			},
			{
				"type": "unocc",
				"energy": 0.10387,
				"method": "rhf"
			}
		],
		"cosmo_sigma_profile": { 
			"-0.025": 0.0,
			"-0.024": 0.0,
			"-0.023": 0.0,
			"-0.022": 0.0,
			"-0.021": 0.0,
			"-0.02": 0.0,
			"-0.019": 0.0,
			"-0.018": 0.0,
			"-0.017": 0.0,
			"-0.016": 0.0,
			"-0.015": 0.0,
			"-0.014": 0.0,
			"-0.013": 0.0,
			"-0.012": 0.0,
			"-0.011": 0.0,
			"-0.01": 0.0,
			"-0.009": 0.103561450938,
			"-0.008": 2.86292444265,
			"-0.007": 6.66896258881,
			"-0.006": 9.55319950528,
			"-0.005": 11.1766938789,
			"-0.004": 14.3583848171,
			"-0.003": 15.2973898218,
			"-0.002": 10.6833975495,
			"-0.001": 12.1943057632,
			"0.0": 13.5692737221,
			"0.001": 15.3834044506,
			"0.002": 12.1842271233,
			"0.003": 7.58244519924,
			"0.004": 9.10331873547,
			"0.005": 7.14095725638,
			"0.006": 4.9317101707,
			"0.007": 3.49075622146,
			"0.008": 2.58311975776,
			"0.009": 2.93855610308,
			"0.01": 2.71171551268,
			"0.011": 1.91662728762,
			"0.012": 1.09540239077,
			"0.013": 0.956128698234,
			"0.014": 0.653592342108,
			"0.015": 0.137307421364,
			"0.016": 0.0,
			"0.017": 0.0,
			"0.018": 0.0,
			"0.019": 0.0,
			"0.02": 0.0,
			"0.021": 0.0,
			"0.022": 0.0,
			"0.023": 0.0,
			"0.024": 0.0,
			"0.025": 0.0
		}
	}
}
