{
	 "smiles": "COCCOC1=C(C=C(F)C=C1)[N+]([O-])=O", 
	 "Tm": 328.15, 
	 "num_atms": 25, 
	 "gaussian": { 
		 "optdone": 1, 
		 "sigma_profile": "yes", 
		 "theory": "DFT", 
		 "functional": "B3LYP", 
		 "basiset": "6-31G**", 
		 "properties": { 
			 "R2extent": 3504.6443, 
			 "electric_dipole_moment_norm": 4.19485636703, 
			 "electric_quadrupole_moment_norm": 9.04736667434, 
			 "total_energy": -804.323167573, 
			 "HOMO_LUMO_gap": 0.15686, 
			 "cosmo_polarized_energy": -11.06, 
			 "cosmo_cavitation_energy": 29.89, 
			 "cosmo_dispersion_energy": -20.82, 
			 "cosmo_repulsion_energy": 1.62, 
			 "cosmo_total_nonelectrostatic_energy": 10.7, 
			 "SMD_solvation_energy": 8.35 
		},
		"coords": [
			{
				"x": 1.8868483962,
				"y": 1.0793356454,
				"z": -1.953526616,
				"element": "C" 
			},
			{
				"x": 1.7391088146,
				"y": 0.4275444538,
				"z": -0.7063229451,
				"element": "O" 
			},
			{
				"x": 1.5510410758,
				"y": 1.3243860684,
				"z": 0.3685476269,
				"element": "C" 
			},
			{
				"x": 1.0793974723,
				"y": 0.5273649927,
				"z": 1.5704865371,
				"element": "C" 
			},
			{
				"x": -0.2715798548,
				"y": 0.069492801,
				"z": 1.4059786824,
				"element": "O" 
			},
			{
				"x": -0.504763052,
				"y": -1.0614381249,
				"z": 0.6896569734,
				"element": "C" 
			},
			{
				"x": -1.4701500674,
				"y": -1.0659291014,
				"z": -0.3340456677,
				"element": "C" 
			},
			{
				"x": -1.8568866838,
				"y": -2.2453104838,
				"z": -0.9750616931,
				"element": "C" 
			},
			{
				"x": -1.2331571195,
				"y": -3.4274131307,
				"z": -0.6187746387,
				"element": "C" 
			},
			{
				"x": -1.5778845836,
				"y": -4.5690338956,
				"z": -1.2458561816,
				"element": "F" 
			},
			{
				"x": -0.2623404692,
				"y": -3.465492532,
				"z": 0.3790797401,
				"element": "C" 
			},
			{
				"x": 0.0814253794,
				"y": -2.2887226794,
				"z": 1.0350301423,
				"element": "C" 
			},
			{
				"x": -2.1173381662,
				"y": 0.1693297643,
				"z": -0.7987736342,
				"element": "N" 
			},
			{
				"x": -3.2644983413,
				"y": 0.0657778575,
				"z": -1.2353988629,
				"element": "O" 
			},
			{
				"x": -1.4782651803,
				"y": 1.2186012338,
				"z": -0.7625970628,
				"element": "O" 
			},
			{
				"x": 0.9945069534,
				"y": 1.6695913764,
				"z": -2.2047633133,
				"element": "H" 
			},
			{
				"x": 2.7655006862,
				"y": 1.7432403122,
				"z": -1.9654616043,
				"element": "H" 
			},
			{
				"x": 2.0257202704,
				"y": 0.3016914726,
				"z": -2.708412344,
				"element": "H" 
			},
			{
				"x": 2.4948942098,
				"y": 1.8384328168,
				"z": 0.6255601564,
				"element": "H" 
			},
			{
				"x": 0.798320993,
				"y": 2.0853707958,
				"z": 0.1232142668,
				"element": "H" 
			},
			{
				"x": 1.7596980949,
				"y": -0.312714968,
				"z": 1.751556036,
				"element": "H" 
			},
			{
				"x": 1.0607992549,
				"y": 1.1623483129,
				"z": 2.4598975511,
				"element": "H" 
			},
			{
				"x": -2.6228366741,
				"y": -2.2215249959,
				"z": -1.7391956678,
				"element": "H" 
			},
			{
				"x": 0.1951607731,
				"y": -4.4121935808,
				"z": 0.6450149039,
				"element": "H" 
			},
			{
				"x": 0.8011778183,
				"y": -2.3163344111,
				"z": 1.8454676152,
				"element": "H" 
			}
		],
		 "valence_orbital": [ 
			{
				"type": "occ",
				"energy": -0.30047,
				"method": "rhf"
			},
			{
				"type": "occ",
				"energy": -0.29084,
				"method": "rhf"
			},
			{
				"type": "occ",
				"energy": -0.27427,
				"method": "rhf"
			},
			{
				"type": "occ",
				"energy": -0.26361,
				"method": "rhf"
			},
			{
				"type": "occ",
				"energy": -0.23993,
				"method": "rhf"
			},
			{
				"type": "unocc",
				"energy": -0.08307,
				"method": "rhf"
			},
			{
				"type": "unocc",
				"energy": -0.02108,
				"method": "rhf"
			},
			{
				"type": "unocc",
				"energy": -0.00063,
				"method": "rhf"
			},
			{
				"type": "unocc",
				"energy": 0.06712,
				"method": "rhf"
			},
			{
				"type": "unocc",
				"energy": 0.09119,
				"method": "rhf"
			}
		],
		"cosmo_sigma_profile": { 
			"-0.025": 0.0,
			"-0.024": 0.0,
			"-0.023": 0.0,
			"-0.022": 0.0,
			"-0.021": 0.0,
			"-0.02": 0.0,
			"-0.019": 0.0,
			"-0.018": 0.0,
			"-0.017": 0.0,
			"-0.016": 0.0,
			"-0.015": 0.0,
			"-0.014": 0.0,
			"-0.013": 0.0,
			"-0.012": 0.0,
			"-0.011": 0.0,
			"-0.01": 0.0,
			"-0.009": 2.21751737134,
			"-0.008": 6.1747883884,
			"-0.007": 7.05244684321,
			"-0.006": 12.4218128376,
			"-0.005": 13.5639034572,
			"-0.004": 18.5894981976,
			"-0.003": 21.5571656772,
			"-0.002": 20.6633524563,
			"-0.001": 19.7721789239,
			"0.0": 19.285004696,
			"0.001": 15.6201289128,
			"0.002": 10.654375007,
			"0.003": 11.7099099735,
			"0.004": 15.468880568,
			"0.005": 5.77676450608,
			"0.006": 6.34837007923,
			"0.007": 8.71225292099,
			"0.008": 9.20310751515,
			"0.009": 7.28611766079,
			"0.01": 4.06169310363,
			"0.011": 0.781379447567,
			"0.012": 0.633890069466,
			"0.013": 0.101839870938,
			"0.014": 0.0,
			"0.015": 0.0,
			"0.016": 0.0,
			"0.017": 0.0,
			"0.018": 0.0,
			"0.019": 0.0,
			"0.02": 0.0,
			"0.021": 0.0,
			"0.022": 0.0,
			"0.023": 0.0,
			"0.024": 0.0,
			"0.025": 0.0
		}
	}
}
