{
	 "smiles": "OCC1OC(CC1O)N1C=C(Br)C(=O)NC1=O", 
	 "Tm": 465.15, 
	 "num_atms": 28, 
	 "gaussian": { 
		 "optdone": 1, 
		 "sigma_profile": "yes", 
		 "theory": "DFT", 
		 "functional": "B3LYP", 
		 "basiset": "6-31G**", 
		 "properties": { 
			 "R2extent": 5612.5692, 
			 "electric_dipole_moment_norm": 5.99472827574, 
			 "electric_quadrupole_moment_norm": 7.28232852939, 
			 "total_energy": -3406.62085138, 
			 "HOMO_LUMO_gap": 0.18842, 
			 "cosmo_polarized_energy": -21.03, 
			 "cosmo_cavitation_energy": 33.08, 
			 "cosmo_dispersion_energy": -24.3, 
			 "cosmo_repulsion_energy": 1.89, 
			 "cosmo_total_nonelectrostatic_energy": 10.67, 
			 "SMD_solvation_energy": 5.66 
		},
		"coords": [
			{
				"x": -1.7600367434,
				"y": -2.5871992048,
				"z": 1.5382268891,
				"element": "O" 
			},
			{
				"x": -2.58742843,
				"y": -2.6557713486,
				"z": 0.3767078941,
				"element": "C" 
			},
			{
				"x": -1.9772158067,
				"y": -1.917728616,
				"z": -0.8096654946,
				"element": "C" 
			},
			{
				"x": -1.8157127333,
				"y": -0.5431809556,
				"z": -0.4361963886,
				"element": "O" 
			},
			{
				"x": -0.8670052499,
				"y": 0.0686074555,
				"z": -1.3207225337,
				"element": "C" 
			},
			{
				"x": -0.1343763737,
				"y": -1.0955576944,
				"z": -2.0409226128,
				"element": "C" 
			},
			{
				"x": -0.57743851,
				"y": -2.3523767986,
				"z": -1.2809473221,
				"element": "C" 
			},
			{
				"x": 0.334253366,
				"y": -2.5911596027,
				"z": -0.2163002154,
				"element": "O" 
			},
			{
				"x": -0.0140474817,
				"y": 0.9665659482,
				"z": -0.5452764011,
				"element": "N" 
			},
			{
				"x": 0.8379584734,
				"y": 0.4581022559,
				"z": 0.4176942719,
				"element": "C" 
			},
			{
				"x": 1.5698577389,
				"y": 1.2493233436,
				"z": 1.2325874224,
				"element": "C" 
			},
			{
				"x": 2.7338689394,
				"y": 0.5148971512,
				"z": 2.52798525,
				"element": "Br" 
			},
			{
				"x": 1.4844471668,
				"y": 2.7082915226,
				"z": 1.1371607389,
				"element": "C" 
			},
			{
				"x": 2.0838724708,
				"y": 3.5279600112,
				"z": 1.8061106807,
				"element": "O" 
			},
			{
				"x": 0.5881034082,
				"y": 3.1164141019,
				"z": 0.1300399612,
				"element": "N" 
			},
			{
				"x": -0.1904295741,
				"y": 2.3494932246,
				"z": -0.7182571358,
				"element": "C" 
			},
			{
				"x": -0.9464305425,
				"y": 2.8365174329,
				"z": -1.5415568242,
				"element": "O" 
			},
			{
				"x": -1.6611229253,
				"y": -1.6457996838,
				"z": 1.7464077927,
				"element": "H" 
			},
			{
				"x": -3.5850127724,
				"y": -2.2473445606,
				"z": 0.5847392747,
				"element": "H" 
			},
			{
				"x": -2.7003389765,
				"y": -3.7168447941,
				"z": 0.1346185528,
				"element": "H" 
			},
			{
				"x": -2.6720505673,
				"y": -2.0023724687,
				"z": -1.6621710059,
				"element": "H" 
			},
			{
				"x": -1.3878509887,
				"y": 0.7213508745,
				"z": -2.022550616,
				"element": "H" 
			},
			{
				"x": -0.4649828447,
				"y": -1.1389867063,
				"z": -3.0827448,
				"element": "H" 
			},
			{
				"x": 0.9515799729,
				"y": -0.986836462,
				"z": -2.0351143699,
				"element": "H" 
			},
			{
				"x": -0.6357879686,
				"y": -3.2331054126,
				"z": -1.9355502887,
				"element": "H" 
			},
			{
				"x": -0.1782104245,
				"y": -2.8615601852,
				"z": 0.5685309889,
				"element": "H" 
			},
			{
				"x": 0.8830368169,
				"y": -0.6267394937,
				"z": 0.4577261596,
				"element": "H" 
			},
			{
				"x": 0.48310056,
				"y": 4.1179406653,
				"z": 0.0175401318,
				"element": "H" 
			}
		],
		 "valence_orbital": [ 
			{
				"type": "occ",
				"energy": -0.29057,
				"method": "rhf"
			},
			{
				"type": "occ",
				"energy": -0.2905,
				"method": "rhf"
			},
			{
				"type": "occ",
				"energy": -0.28506,
				"method": "rhf"
			},
			{
				"type": "occ",
				"energy": -0.2706,
				"method": "rhf"
			},
			{
				"type": "occ",
				"energy": -0.23784,
				"method": "rhf"
			},
			{
				"type": "unocc",
				"energy": -0.04942,
				"method": "rhf"
			},
			{
				"type": "unocc",
				"energy": 0.00133,
				"method": "rhf"
			},
			{
				"type": "unocc",
				"energy": 0.00301,
				"method": "rhf"
			},
			{
				"type": "unocc",
				"energy": 0.04876,
				"method": "rhf"
			},
			{
				"type": "unocc",
				"energy": 0.06869,
				"method": "rhf"
			}
		],
		"cosmo_sigma_profile": { 
			"-0.025": 0.0,
			"-0.024": 0.0,
			"-0.023": 0.0,
			"-0.022": 0.0,
			"-0.021": 0.0,
			"-0.02": 0.0,
			"-0.019": 0.0,
			"-0.018": 0.0,
			"-0.017": 0.192751215323,
			"-0.016": 1.0187493534,
			"-0.015": 0.468609026113,
			"-0.014": 1.69228062339,
			"-0.013": 1.83283417881,
			"-0.012": 1.17318976382,
			"-0.011": 0.688884704853,
			"-0.01": 1.70984720862,
			"-0.009": 1.75269438061,
			"-0.008": 2.36873621695,
			"-0.007": 9.78100530114,
			"-0.006": 26.6283554923,
			"-0.005": 25.3038822804,
			"-0.004": 22.3672524602,
			"-0.003": 17.7999730865,
			"-0.002": 18.8797555666,
			"-0.001": 12.1206786844,
			"0.0": 10.7966997647,
			"0.001": 11.4768309547,
			"0.002": 10.524901879,
			"0.003": 12.1748610082,
			"0.004": 13.066035696,
			"0.005": 7.24837845242,
			"0.006": 6.29723575254,
			"0.007": 4.66304117961,
			"0.008": 5.0444763007,
			"0.009": 5.52103197264,
			"0.01": 6.93015374883,
			"0.011": 9.07265098773,
			"0.012": 12.2280092314,
			"0.013": 3.18330525336,
			"0.014": 0.9979282427,
			"0.015": 0.0199529548684,
			"0.016": 0.0,
			"0.017": 0.0,
			"0.018": 0.0,
			"0.019": 0.0,
			"0.02": 0.0,
			"0.021": 0.0,
			"0.022": 0.0,
			"0.023": 0.0,
			"0.024": 0.0,
			"0.025": 0.0
		}
	}
}
