{
	 "smiles": "CN1N=CC(C(C)=O)=C1C", 
	 "Tm": 321.15, 
	 "num_atms": 20, 
	 "gaussian": { 
		 "optdone": 1, 
		 "sigma_profile": "yes", 
		 "theory": "DFT", 
		 "functional": "B3LYP", 
		 "basiset": "6-31G**", 
		 "properties": { 
			 "R2extent": 2072.0947, 
			 "electric_dipole_moment_norm": 2.27541630696, 
			 "electric_quadrupole_moment_norm": 16.7654415113, 
			 "total_energy": -457.49066011, 
			 "HOMO_LUMO_gap": 0.20941, 
			 "cosmo_polarized_energy": -10.9, 
			 "cosmo_cavitation_energy": 23.6, 
			 "cosmo_dispersion_energy": -17.05, 
			 "cosmo_repulsion_energy": 1.38, 
			 "cosmo_total_nonelectrostatic_energy": 7.92, 
			 "SMD_solvation_energy": 4.06 
		},
		"coords": [
			{
				"x": 3.032755202,
				"y": 3.2398191064,
				"z": 0.7325277969,
				"element": "C" 
			},
			{
				"x": 2.286857402,
				"y": 2.0721795253,
				"z": 0.291984167,
				"element": "N" 
			},
			{
				"x": 2.9295824809,
				"y": 1.1405071685,
				"z": -0.4724859635,
				"element": "N" 
			},
			{
				"x": 2.0113503692,
				"y": 0.2164189798,
				"z": -0.7119612479,
				"element": "C" 
			},
			{
				"x": 0.7658423644,
				"y": 0.5331208382,
				"z": -0.1096520356,
				"element": "C" 
			},
			{
				"x": -0.5011354318,
				"y": -0.205452086,
				"z": -0.1234233066,
				"element": "C" 
			},
			{
				"x": -0.5396795338,
				"y": -1.520086325,
				"z": -0.8871472036,
				"element": "C" 
			},
			{
				"x": -1.4972892733,
				"y": 0.2159627794,
				"z": 0.4577042675,
				"element": "O" 
			},
			{
				"x": 0.992082997,
				"y": 1.7561739311,
				"z": 0.5371257916,
				"element": "C" 
			},
			{
				"x": 0.0638105893,
				"y": 2.6021647887,
				"z": 1.3461260246,
				"element": "C" 
			},
			{
				"x": 2.5849557351,
				"y": 4.161105067,
				"z": 0.3485287637,
				"element": "H" 
			},
			{
				"x": 4.0410040115,
				"y": 3.135820637,
				"z": 0.3346624604,
				"element": "H" 
			},
			{
				"x": 3.0774777108,
				"y": 3.2896865267,
				"z": 1.8244351349,
				"element": "H" 
			},
			{
				"x": 2.2700689318,
				"y": -0.6483382283,
				"z": -1.308861765,
				"element": "H" 
			},
			{
				"x": 0.1952090055,
				"y": -2.225512837,
				"z": -0.4830182179,
				"element": "H" 
			},
			{
				"x": -1.5386846452,
				"y": -1.9503169076,
				"z": -0.807997196,
				"element": "H" 
			},
			{
				"x": -0.2919334142,
				"y": -1.3629811158,
				"z": -1.9430588501,
				"element": "H" 
			},
			{
				"x": 0.5535197587,
				"y": 3.505914667,
				"z": 1.7165129931,
				"element": "H" 
			},
			{
				"x": -0.3255405522,
				"y": 2.034794503,
				"z": 2.1960500735,
				"element": "H" 
			},
			{
				"x": -0.8074537076,
				"y": 2.8884189814,
				"z": 0.7504483131,
				"element": "H" 
			}
		],
		 "valence_orbital": [ 
			{
				"type": "occ",
				"energy": -0.34829,
				"method": "rhf"
			},
			{
				"type": "occ",
				"energy": -0.29379,
				"method": "rhf"
			},
			{
				"type": "occ",
				"energy": -0.25662,
				"method": "rhf"
			},
			{
				"type": "occ",
				"energy": -0.24122,
				"method": "rhf"
			},
			{
				"type": "occ",
				"energy": -0.23689,
				"method": "rhf"
			},
			{
				"type": "unocc",
				"energy": -0.02748,
				"method": "rhf"
			},
			{
				"type": "unocc",
				"energy": 0.01881,
				"method": "rhf"
			},
			{
				"type": "unocc",
				"energy": 0.08766,
				"method": "rhf"
			},
			{
				"type": "unocc",
				"energy": 0.10017,
				"method": "rhf"
			},
			{
				"type": "unocc",
				"energy": 0.10594,
				"method": "rhf"
			}
		],
		"cosmo_sigma_profile": { 
			"-0.025": 0.0,
			"-0.024": 0.0,
			"-0.023": 0.0,
			"-0.022": 0.0,
			"-0.021": 0.0,
			"-0.02": 0.0,
			"-0.019": 0.0,
			"-0.018": 0.0,
			"-0.017": 0.0,
			"-0.016": 0.0,
			"-0.015": 0.0,
			"-0.014": 0.0,
			"-0.013": 0.0,
			"-0.012": 0.0,
			"-0.011": 0.0,
			"-0.01": 0.0,
			"-0.009": 0.0,
			"-0.008": 0.300887567308,
			"-0.007": 4.13669560477,
			"-0.006": 13.7689448583,
			"-0.005": 20.1002752789,
			"-0.004": 19.0633454851,
			"-0.003": 19.9973689482,
			"-0.002": 16.9422686965,
			"-0.001": 16.469095456,
			"0.0": 11.322990021,
			"0.001": 7.58267622858,
			"0.002": 8.21448369652,
			"0.003": 8.56525668302,
			"0.004": 5.84454403133,
			"0.005": 3.95256746842,
			"0.006": 3.53605909465,
			"0.007": 3.76201908293,
			"0.008": 2.84559062208,
			"0.009": 1.76765773479,
			"0.01": 3.94774024815,
			"0.011": 3.17921952268,
			"0.012": 3.76184329259,
			"0.013": 3.96639236933,
			"0.014": 2.48185259461,
			"0.015": 1.01428973916,
			"0.016": 0.043437916036,
			"0.017": 0.0,
			"0.018": 0.0,
			"0.019": 0.0,
			"0.02": 0.0,
			"0.021": 0.0,
			"0.022": 0.0,
			"0.023": 0.0,
			"0.024": 0.0,
			"0.025": 0.0
		}
	}
}
