{
	 "smiles": "CSC1=C(NC(=O)C(C)Cl)C=CC=C1", 
	 "Tm": 333.15, 
	 "num_atms": 26, 
	 "gaussian": { 
		 "optdone": 1, 
		 "sigma_profile": "yes", 
		 "theory": "DFT", 
		 "functional": "B3LYP", 
		 "basiset": "6-31G**", 
		 "properties": { 
			 "R2extent": 3862.7809, 
			 "electric_dipole_moment_norm": 4.21548230455, 
			 "electric_quadrupole_moment_norm": 9.26321455489, 
			 "total_energy": -1376.66381657, 
			 "HOMO_LUMO_gap": 0.19059, 
			 "cosmo_polarized_energy": -10.71, 
			 "cosmo_cavitation_energy": 32.05, 
			 "cosmo_dispersion_energy": -22.68, 
			 "cosmo_repulsion_energy": 1.75, 
			 "cosmo_total_nonelectrostatic_energy": 11.12, 
			 "SMD_solvation_energy": 6.08 
		},
		"coords": [
			{
				"x": -3.1166113066,
				"y": -0.7157059576,
				"z": -1.387014751,
				"element": "C" 
			},
			{
				"x": -1.9049732856,
				"y": -1.7582280269,
				"z": -2.2903576589,
				"element": "S" 
			},
			{
				"x": -0.410964881,
				"y": -0.7714900765,
				"z": -2.1642934734,
				"element": "C" 
			},
			{
				"x": 0.3362311916,
				"y": -0.7066675641,
				"z": -0.9599996565,
				"element": "C" 
			},
			{
				"x": -0.1444348343,
				"y": -1.4333124528,
				"z": 0.1484522808,
				"element": "N" 
			},
			{
				"x": -0.1546512434,
				"y": -1.2940295124,
				"z": 1.5230076774,
				"element": "C" 
			},
			{
				"x": -0.6876771086,
				"y": -2.1650711168,
				"z": 2.1976519189,
				"element": "O" 
			},
			{
				"x": 0.3803797184,
				"y": -0.0509429308,
				"z": 2.254094117,
				"element": "C" 
			},
			{
				"x": -0.0580635725,
				"y": 1.3092103569,
				"z": 1.7265378085,
				"element": "C" 
			},
			{
				"x": 2.2050524695,
				"y": -0.1401161088,
				"z": 2.4510005935,
				"element": "Cl" 
			},
			{
				"x": 1.5463180664,
				"y": 0.0001502598,
				"z": -0.951579194,
				"element": "C" 
			},
			{
				"x": 1.9888971207,
				"y": 0.6611875502,
				"z": -2.0966837166,
				"element": "C" 
			},
			{
				"x": 1.2545722666,
				"y": 0.6042203899,
				"z": -3.2804011369,
				"element": "C" 
			},
			{
				"x": 0.0638103038,
				"y": -0.1206254762,
				"z": -3.3079779676,
				"element": "C" 
			},
			{
				"x": -2.8234529384,
				"y": -0.5823574268,
				"z": -0.3440770351,
				"element": "H" 
			},
			{
				"x": -3.2270299958,
				"y": 0.2537706908,
				"z": -1.8760130286,
				"element": "H" 
			},
			{
				"x": -4.0682056573,
				"y": -1.2507324462,
				"z": -1.4244789977,
				"element": "H" 
			},
			{
				"x": -0.7128744354,
				"y": -2.2353488915,
				"z": -0.1174484707,
				"element": "H" 
			},
			{
				"x": 0.0158175139,
				"y": -0.194923822,
				"z": 3.2696813799,
				"element": "H" 
			},
			{
				"x": -1.1531438954,
				"y": 1.3354183911,
				"z": 1.686205689,
				"element": "H" 
			},
			{
				"x": 0.3310136091,
				"y": 1.523925712,
				"z": 0.7314994208,
				"element": "H" 
			},
			{
				"x": 0.2752784025,
				"y": 2.0943141789,
				"z": 2.4093938236,
				"element": "H" 
			},
			{
				"x": 2.1525963006,
				"y": 0.0091393062,
				"z": -0.0553713773,
				"element": "H" 
			},
			{
				"x": 2.9289463171,
				"y": 1.203941458,
				"z": -2.0615460067,
				"element": "H" 
			},
			{
				"x": 1.605714276,
				"y": 1.1100814411,
				"z": -4.1742714072,
				"element": "H" 
			},
			{
				"x": -0.5186444018,
				"y": -0.1872079255,
				"z": -4.2212108312,
				"element": "H" 
			}
		],
		 "valence_orbital": [ 
			{
				"type": "occ",
				"energy": -0.30382,
				"method": "rhf"
			},
			{
				"type": "occ",
				"energy": -0.26813,
				"method": "rhf"
			},
			{
				"type": "occ",
				"energy": -0.26469,
				"method": "rhf"
			},
			{
				"type": "occ",
				"energy": -0.24463,
				"method": "rhf"
			},
			{
				"type": "occ",
				"energy": -0.23139,
				"method": "rhf"
			},
			{
				"type": "unocc",
				"energy": -0.0408,
				"method": "rhf"
			},
			{
				"type": "unocc",
				"energy": -0.02708,
				"method": "rhf"
			},
			{
				"type": "unocc",
				"energy": -0.00447,
				"method": "rhf"
			},
			{
				"type": "unocc",
				"energy": 0.03781,
				"method": "rhf"
			},
			{
				"type": "unocc",
				"energy": 0.05113,
				"method": "rhf"
			}
		],
		"cosmo_sigma_profile": { 
			"-0.025": 0.0,
			"-0.024": 0.0,
			"-0.023": 0.0,
			"-0.022": 0.0,
			"-0.021": 0.0,
			"-0.02": 0.0,
			"-0.019": 0.0,
			"-0.018": 0.0,
			"-0.017": 0.0,
			"-0.016": 0.0,
			"-0.015": 0.0,
			"-0.014": 0.0,
			"-0.013": 0.0,
			"-0.012": 0.0,
			"-0.011": 0.0,
			"-0.01": 0.054317797399,
			"-0.009": 0.232863264765,
			"-0.008": 1.75944737093,
			"-0.007": 4.65018181274,
			"-0.006": 15.688648225,
			"-0.005": 21.330894107,
			"-0.004": 20.9506018031,
			"-0.003": 19.1929104097,
			"-0.002": 25.0427954412,
			"-0.001": 25.6977525262,
			"0.0": 18.7133942866,
			"0.001": 17.9629961493,
			"0.002": 16.2069440559,
			"0.003": 16.8149295942,
			"0.004": 16.7405595339,
			"0.005": 13.008496885,
			"0.006": 5.91826399803,
			"0.007": 2.71102560807,
			"0.008": 2.16784963376,
			"0.009": 1.75443106358,
			"0.01": 1.64958316754,
			"0.011": 2.61840573102,
			"0.012": 4.69782848808,
			"0.013": 3.13837779327,
			"0.014": 0.0485764708597,
			"0.015": 0.0,
			"0.016": 0.0,
			"0.017": 0.0,
			"0.018": 0.0,
			"0.019": 0.0,
			"0.02": 0.0,
			"0.021": 0.0,
			"0.022": 0.0,
			"0.023": 0.0,
			"0.024": 0.0,
			"0.025": 0.0
		}
	}
}
