{
	 "smiles": "NC(=O)C(C#N)=C(SCC1=CC=CC=C1)SCC1=CC=CC=C1", 
	 "Tm": 377.15, 
	 "num_atms": 39, 
	 "gaussian": { 
		 "optdone": 1, 
		 "sigma_profile": "yes", 
		 "theory": "DFT", 
		 "functional": "B3LYP", 
		 "basiset": "6-31G**", 
		 "properties": { 
			 "R2extent": 9330.8168, 
			 "electric_dipole_moment_norm": 3.22477010188, 
			 "electric_quadrupole_moment_norm": 17.5709312929, 
			 "total_energy": -1676.64046444, 
			 "HOMO_LUMO_gap": 0.15424, 
			 "cosmo_polarized_energy": -18.34, 
			 "cosmo_cavitation_energy": 47.17, 
			 "cosmo_dispersion_energy": -31.05, 
			 "cosmo_repulsion_energy": 2.34, 
			 "cosmo_total_nonelectrostatic_energy": 18.46, 
			 "SMD_solvation_energy": 8.6 
		},
		"coords": [
			{
				"x": 1.2025616304,
				"y": -4.250879485,
				"z": -1.672405826,
				"element": "N" 
			},
			{
				"x": 1.3943664783,
				"y": -2.9479305809,
				"z": -2.0362004646,
				"element": "C" 
			},
			{
				"x": 2.3279311751,
				"y": -2.6180646623,
				"z": -2.7644955122,
				"element": "O" 
			},
			{
				"x": 0.3894156934,
				"y": -1.9752093982,
				"z": -1.4851786163,
				"element": "C" 
			},
			{
				"x": -0.7041265269,
				"y": -2.5574260499,
				"z": -0.7704000836,
				"element": "C" 
			},
			{
				"x": -1.529927505,
				"y": -3.1412727735,
				"z": -0.1888763808,
				"element": "N" 
			},
			{
				"x": 0.3967421739,
				"y": -0.6116292069,
				"z": -1.7112558035,
				"element": "C" 
			},
			{
				"x": 1.698496732,
				"y": 0.3772751295,
				"z": -2.350881586,
				"element": "S" 
			},
			{
				"x": 3.2740331583,
				"y": -0.1487615687,
				"z": -1.5135254171,
				"element": "C" 
			},
			{
				"x": 3.2331693468,
				"y": -0.0756072684,
				"z": -0.01103549,
				"element": "C" 
			},
			{
				"x": 3.1841681775,
				"y": -1.2491716012,
				"z": 0.7524978727,
				"element": "C" 
			},
			{
				"x": 3.1498695092,
				"y": -1.1894095953,
				"z": 2.1475627931,
				"element": "C" 
			},
			{
				"x": 3.1638409948,
				"y": 0.0448907088,
				"z": 2.796778966,
				"element": "C" 
			},
			{
				"x": 3.2169967007,
				"y": 1.2221729951,
				"z": 2.0446885587,
				"element": "C" 
			},
			{
				"x": 3.2514794368,
				"y": 1.1610888639,
				"z": 0.6527415734,
				"element": "C" 
			},
			{
				"x": -1.1310993427,
				"y": 0.2520991992,
				"z": -1.4618774689,
				"element": "S" 
			},
			{
				"x": -0.6506114967,
				"y": 1.9393202732,
				"z": -0.8324321635,
				"element": "C" 
			},
			{
				"x": -1.8774892598,
				"y": 2.5908636566,
				"z": -0.2475613839,
				"element": "C" 
			},
			{
				"x": -2.2743010068,
				"y": 2.3165252308,
				"z": 1.0690753236,
				"element": "C" 
			},
			{
				"x": -3.40753971,
				"y": 2.9233511041,
				"z": 1.6081508678,
				"element": "C" 
			},
			{
				"x": -4.1632664835,
				"y": 3.8086939924,
				"z": 0.8355648253,
				"element": "C" 
			},
			{
				"x": -3.7799825959,
				"y": 4.08352245,
				"z": -0.4779171317,
				"element": "C" 
			},
			{
				"x": -2.6445590416,
				"y": 3.4762007602,
				"z": -1.0159904625,
				"element": "C" 
			},
			{
				"x": 1.7936131808,
				"y": -4.9327200273,
				"z": -2.1222257347,
				"element": "H" 
			},
			{
				"x": 0.3758462273,
				"y": -4.5613207409,
				"z": -1.1851067306,
				"element": "H" 
			},
			{
				"x": 3.9765545672,
				"y": 0.5811625207,
				"z": -1.9293429335,
				"element": "H" 
			},
			{
				"x": 3.5245666401,
				"y": -1.1404729254,
				"z": -1.8861881623,
				"element": "H" 
			},
			{
				"x": 3.1815059643,
				"y": -2.213151481,
				"z": 0.2520950838,
				"element": "H" 
			},
			{
				"x": 3.1124774669,
				"y": -2.1086619248,
				"z": 2.7248853452,
				"element": "H" 
			},
			{
				"x": 3.1381119082,
				"y": 0.0917757703,
				"z": 3.8815739365,
				"element": "H" 
			},
			{
				"x": 3.2382476217,
				"y": 2.1868146834,
				"z": 2.5438903808,
				"element": "H" 
			},
			{
				"x": 3.2960024855,
				"y": 2.0790694781,
				"z": 0.0716259788,
				"element": "H" 
			},
			{
				"x": 0.1318402986,
				"y": 1.794006301,
				"z": -0.0853153508,
				"element": "H" 
			},
			{
				"x": -0.2476528931,
				"y": 2.5239154521,
				"z": -1.6590886694,
				"element": "H" 
			},
			{
				"x": -1.6914612992,
				"y": 1.6235798897,
				"z": 1.6703083892,
				"element": "H" 
			},
			{
				"x": -3.7013051583,
				"y": 2.7053316121,
				"z": 2.6307829614,
				"element": "H" 
			},
			{
				"x": -5.0459670405,
				"y": 4.2816336413,
				"z": 1.2560690427,
				"element": "H" 
			},
			{
				"x": -4.3629020042,
				"y": 4.7709804985,
				"z": -1.0839587759,
				"element": "H" 
			},
			{
				"x": -2.3471462039,
				"y": 3.6935150787,
				"z": -2.038831751,
				"element": "H" 
			}
		],
		 "valence_orbital": [ 
			{
				"type": "occ",
				"energy": -0.25849,
				"method": "rhf"
			},
			{
				"type": "occ",
				"energy": -0.25492,
				"method": "rhf"
			},
			{
				"type": "occ",
				"energy": -0.25316,
				"method": "rhf"
			},
			{
				"type": "occ",
				"energy": -0.24393,
				"method": "rhf"
			},
			{
				"type": "occ",
				"energy": -0.22932,
				"method": "rhf"
			},
			{
				"type": "unocc",
				"energy": -0.07508,
				"method": "rhf"
			},
			{
				"type": "unocc",
				"energy": -0.02353,
				"method": "rhf"
			},
			{
				"type": "unocc",
				"energy": -0.01898,
				"method": "rhf"
			},
			{
				"type": "unocc",
				"energy": -0.00952,
				"method": "rhf"
			},
			{
				"type": "unocc",
				"energy": -0.00795,
				"method": "rhf"
			}
		],
		"cosmo_sigma_profile": { 
			"-0.025": 0.0,
			"-0.024": 0.0,
			"-0.023": 0.0,
			"-0.022": 0.0,
			"-0.021": 0.0,
			"-0.02": 0.0,
			"-0.019": 0.0,
			"-0.018": 0.0,
			"-0.017": 0.0,
			"-0.016": 0.0,
			"-0.015": 0.196533692838,
			"-0.014": 1.35148566599,
			"-0.013": 1.11458919857,
			"-0.012": 2.27283427881,
			"-0.011": 2.169895235,
			"-0.01": 2.17116524509,
			"-0.009": 2.02077762544,
			"-0.008": 3.05765695786,
			"-0.007": 6.79383386766,
			"-0.006": 20.3490289723,
			"-0.005": 27.7915636727,
			"-0.004": 31.3102733693,
			"-0.003": 32.3002514964,
			"-0.002": 29.1638561433,
			"-0.001": 25.8080890605,
			"0.0": 24.3335327304,
			"0.001": 25.7836466484,
			"0.002": 25.2499455835,
			"0.003": 26.2003329654,
			"0.004": 24.3037233613,
			"0.005": 24.5971310087,
			"0.006": 9.50952007916,
			"0.007": 5.65888837634,
			"0.008": 4.78489634615,
			"0.009": 3.98481954163,
			"0.01": 4.20548153086,
			"0.011": 4.39751506715,
			"0.012": 5.0061347809,
			"0.013": 4.5793425133,
			"0.014": 0.467758743107,
			"0.015": 0.0,
			"0.016": 0.0,
			"0.017": 0.0,
			"0.018": 0.0,
			"0.019": 0.0,
			"0.02": 0.0,
			"0.021": 0.0,
			"0.022": 0.0,
			"0.023": 0.0,
			"0.024": 0.0,
			"0.025": 0.0
		}
	}
}
