{
	 "smiles": "CC1=C(C=C(O1)S(=O)(=O)N1CCCC1)C(O)=O", 
	 "Tm": 458.15, 
	 "num_atms": 30, 
	 "gaussian": { 
		 "optdone": 1, 
		 "sigma_profile": "yes", 
		 "theory": "DFT", 
		 "functional": "B3LYP", 
		 "basiset": "6-31G**", 
		 "properties": { 
			 "R2extent": 5117.221, 
			 "electric_dipole_moment_norm": 5.00910254437, 
			 "electric_quadrupole_moment_norm": 19.6204963602, 
			 "total_energy": -1217.88178016, 
			 "HOMO_LUMO_gap": 0.19808, 
			 "cosmo_polarized_energy": -17.85, 
			 "cosmo_cavitation_energy": 35.08, 
			 "cosmo_dispersion_energy": -25.14, 
			 "cosmo_repulsion_energy": 1.95, 
			 "cosmo_total_nonelectrostatic_energy": 11.89, 
			 "SMD_solvation_energy": 5.65 
		},
		"coords": [
			{
				"x": 0.6860949826,
				"y": 0.010063074,
				"z": 2.816152388,
				"element": "C" 
			},
			{
				"x": 0.6154222696,
				"y": -0.4696458067,
				"z": 1.412649709,
				"element": "C" 
			},
			{
				"x": 1.5084380581,
				"y": -1.1109739898,
				"z": 0.5801604131,
				"element": "C" 
			},
			{
				"x": 0.8369451097,
				"y": -1.3167671036,
				"z": -0.6733918749,
				"element": "C" 
			},
			{
				"x": -0.4065682463,
				"y": -0.7945155168,
				"z": -0.5118951569,
				"element": "C" 
			},
			{
				"x": -0.5535098214,
				"y": -0.2718896574,
				"z": 0.7506934681,
				"element": "O" 
			},
			{
				"x": -1.786981372,
				"y": -0.676622795,
				"z": -1.6258124525,
				"element": "S" 
			},
			{
				"x": -1.33541408,
				"y": -1.3711429297,
				"z": -2.829875734,
				"element": "O" 
			},
			{
				"x": -2.987939478,
				"y": -1.0544307551,
				"z": -0.8860826063,
				"element": "O" 
			},
			{
				"x": -1.9421646482,
				"y": 0.9241715215,
				"z": -2.00867177,
				"element": "N" 
			},
			{
				"x": -0.9276984002,
				"y": 1.5882320641,
				"z": -2.863971457,
				"element": "C" 
			},
			{
				"x": -1.0166139863,
				"y": 3.0683419974,
				"z": -2.4426559039,
				"element": "C" 
			},
			{
				"x": -2.4181805935,
				"y": 3.2016321124,
				"z": -1.8198833872,
				"element": "C" 
			},
			{
				"x": -2.5983206778,
				"y": 1.8712483795,
				"z": -1.081294924,
				"element": "C" 
			},
			{
				"x": 2.8790747065,
				"y": -1.5005088322,
				"z": 0.9365431232,
				"element": "C" 
			},
			{
				"x": 3.5097801324,
				"y": -2.1186572562,
				"z": -0.0915434535,
				"element": "O" 
			},
			{
				"x": 3.4201943938,
				"y": -1.3082076741,
				"z": 2.0101559509,
				"element": "O" 
			},
			{
				"x": -0.0780026195,
				"y": -0.4804794405,
				"z": 3.4291440954,
				"element": "H" 
			},
			{
				"x": 1.6734578476,
				"y": -0.212526142,
				"z": 3.2196538815,
				"element": "H" 
			},
			{
				"x": 0.506315228,
				"y": 1.0898089133,
				"z": 2.8666732912,
				"element": "H" 
			},
			{
				"x": 1.2231073052,
				"y": -1.7995110278,
				"z": -1.5571157415,
				"element": "H" 
			},
			{
				"x": -1.186335848,
				"y": 1.4344433919,
				"z": -3.9156303987,
				"element": "H" 
			},
			{
				"x": 0.0726172376,
				"y": 1.1718353388,
				"z": -2.6999503287,
				"element": "H" 
			},
			{
				"x": -0.2528568885,
				"y": 3.2882168839,
				"z": -1.688473943,
				"element": "H" 
			},
			{
				"x": -0.854185679,
				"y": 3.7452214973,
				"z": -3.2853601038,
				"element": "H" 
			},
			{
				"x": -3.1776066287,
				"y": 3.2954511092,
				"z": -2.603405204,
				"element": "H" 
			},
			{
				"x": -2.5107115756,
				"y": 4.0616574584,
				"z": -1.1513163496,
				"element": "H" 
			},
			{
				"x": -2.0979983865,
				"y": 1.8929233504,
				"z": -0.1027829133,
				"element": "H" 
			},
			{
				"x": -3.6399104999,
				"y": 1.5840678742,
				"z": -0.9313701933,
				"element": "H" 
			},
			{
				"x": 4.3977521582,
				"y": -2.3409360395,
				"z": 0.2340575755,
				"element": "H" 
			}
		],
		 "valence_orbital": [ 
			{
				"type": "occ",
				"energy": -0.3053,
				"method": "rhf"
			},
			{
				"type": "occ",
				"energy": -0.30238,
				"method": "rhf"
			},
			{
				"type": "occ",
				"energy": -0.2876,
				"method": "rhf"
			},
			{
				"type": "occ",
				"energy": -0.26862,
				"method": "rhf"
			},
			{
				"type": "occ",
				"energy": -0.24319,
				"method": "rhf"
			},
			{
				"type": "unocc",
				"energy": -0.04511,
				"method": "rhf"
			},
			{
				"type": "unocc",
				"energy": -0.01932,
				"method": "rhf"
			},
			{
				"type": "unocc",
				"energy": 0.06483,
				"method": "rhf"
			},
			{
				"type": "unocc",
				"energy": 0.07332,
				"method": "rhf"
			},
			{
				"type": "unocc",
				"energy": 0.07477,
				"method": "rhf"
			}
		],
		"cosmo_sigma_profile": { 
			"-0.025": 0.0,
			"-0.024": 0.0,
			"-0.023": 0.0,
			"-0.022": 0.0,
			"-0.021": 0.0,
			"-0.02": 0.0,
			"-0.019": 0.207712411329,
			"-0.018": 0.844598653879,
			"-0.017": 0.846322245017,
			"-0.016": 1.17240389033,
			"-0.015": 0.551076794977,
			"-0.014": 0.923123507781,
			"-0.013": 0.112085672384,
			"-0.012": 0.609294164595,
			"-0.011": 0.869610021442,
			"-0.01": 0.524282623091,
			"-0.009": 1.11724668379,
			"-0.008": 1.65150643731,
			"-0.007": 3.14693471925,
			"-0.006": 6.73901655182,
			"-0.005": 14.0043417132,
			"-0.004": 32.4966187045,
			"-0.003": 37.0624706029,
			"-0.002": 34.2518606614,
			"-0.001": 27.5897021169,
			"0.0": 18.6695064647,
			"0.001": 9.85960947024,
			"0.002": 7.87922465063,
			"0.003": 8.21890662951,
			"0.004": 8.19026521243,
			"0.005": 6.58920181597,
			"0.006": 9.16832473895,
			"0.007": 6.71026776731,
			"0.008": 5.30633085564,
			"0.009": 6.11051167931,
			"0.01": 11.7206724269,
			"0.011": 11.688403847,
			"0.012": 2.72269740538,
			"0.013": 0.0,
			"0.014": 0.0,
			"0.015": 0.0,
			"0.016": 0.0,
			"0.017": 0.0,
			"0.018": 0.0,
			"0.019": 0.0,
			"0.02": 0.0,
			"0.021": 0.0,
			"0.022": 0.0,
			"0.023": 0.0,
			"0.024": 0.0,
			"0.025": 0.0
		}
	}
}
