{
	 "smiles": "NC1=NC(CN2CCN(CC2)C2=NC=CS2)=CS1", 
	 "Tm": 443.15, 
	 "num_atms": 33, 
	 "gaussian": { 
		 "optdone": 1, 
		 "sigma_profile": "yes", 
		 "theory": "DFT", 
		 "functional": "B3LYP", 
		 "basiset": "6-31G**", 
		 "properties": { 
			 "R2extent": 8909.7383, 
			 "electric_dipole_moment_norm": 3.33002768007, 
			 "electric_quadrupole_moment_norm": 11.2797868796, 
			 "total_energy": -1498.30717677, 
			 "HOMO_LUMO_gap": 0.18597, 
			 "cosmo_polarized_energy": -15.79, 
			 "cosmo_cavitation_energy": 38.42, 
			 "cosmo_dispersion_energy": -29.0, 
			 "cosmo_repulsion_energy": 2.17, 
			 "cosmo_total_nonelectrostatic_energy": 11.59, 
			 "SMD_solvation_energy": 1.33 
		},
		"coords": [
			{
				"x": -4.5800145372,
				"y": -1.1575664431,
				"z": 3.0593510134,
				"element": "N" 
			},
			{
				"x": -3.4807074474,
				"y": -0.5279405372,
				"z": 2.5171553956,
				"element": "C" 
			},
			{
				"x": -3.1535640441,
				"y": -0.5931347133,
				"z": 1.2586731715,
				"element": "N" 
			},
			{
				"x": -1.9603978875,
				"y": 0.0696918554,
				"z": 1.0252936805,
				"element": "C" 
			},
			{
				"x": -1.4526408955,
				"y": 0.1404178689,
				"z": -0.3952730442,
				"element": "C" 
			},
			{
				"x": -0.0219846507,
				"y": 0.4025672583,
				"z": -0.4719353702,
				"element": "N" 
			},
			{
				"x": 0.4208711281,
				"y": 0.998286172,
				"z": -1.7251446251,
				"element": "C" 
			},
			{
				"x": 1.8181891207,
				"y": 1.5957861406,
				"z": -1.5321736296,
				"element": "C" 
			},
			{
				"x": 2.6825082544,
				"y": 0.6237787755,
				"z": -0.8723150055,
				"element": "N" 
			},
			{
				"x": 2.1830800514,
				"y": -0.7402650524,
				"z": -0.7396229024,
				"element": "C" 
			},
			{
				"x": 0.7989343824,
				"y": -0.7556566975,
				"z": -0.0699189065,
				"element": "C" 
			},
			{
				"x": 3.9751592279,
				"y": 0.9191440684,
				"z": -0.5631140445,
				"element": "C" 
			},
			{
				"x": 4.8374388786,
				"y": 0.0721236833,
				"z": -0.0574284722,
				"element": "N" 
			},
			{
				"x": 6.0473673561,
				"y": 0.6897950272,
				"z": 0.163659891,
				"element": "C" 
			},
			{
				"x": 6.1465194175,
				"y": 2.0039685758,
				"z": -0.1705219613,
				"element": "C" 
			},
			{
				"x": 4.6178497691,
				"y": 2.5605180806,
				"z": -0.8195806051,
				"element": "S" 
			},
			{
				"x": -1.3746401326,
				"y": 0.6507710093,
				"z": 2.1078936858,
				"element": "C" 
			},
			{
				"x": -2.3364606286,
				"y": 0.3536029897,
				"z": 3.5387340765,
				"element": "S" 
			},
			{
				"x": -5.0097001654,
				"y": -0.7144453365,
				"z": 3.8588752154,
				"element": "H" 
			},
			{
				"x": -5.2415955536,
				"y": -1.4611664839,
				"z": 2.3565509302,
				"element": "H" 
			},
			{
				"x": -1.9801542227,
				"y": 0.9521246372,
				"z": -0.9135939901,
				"element": "H" 
			},
			{
				"x": -1.7456754986,
				"y": -0.7944470615,
				"z": -0.9084365569,
				"element": "H" 
			},
			{
				"x": 0.4201342284,
				"y": 0.2895940042,
				"z": -2.575068382,
				"element": "H" 
			},
			{
				"x": -0.2628781321,
				"y": 1.8088095203,
				"z": -1.9949412893,
				"element": "H" 
			},
			{
				"x": 1.7391846298,
				"y": 2.4934397049,
				"z": -0.9040710218,
				"element": "H" 
			},
			{
				"x": 2.2346752633,
				"y": 1.9012250946,
				"z": -2.5051372612,
				"element": "H" 
			},
			{
				"x": 2.1354974682,
				"y": -1.2175735847,
				"z": -1.7291145337,
				"element": "H" 
			},
			{
				"x": 2.9030778365,
				"y": -1.3024224452,
				"z": -0.1453237237,
				"element": "H" 
			},
			{
				"x": 0.9067660739,
				"y": -0.7517224502,
				"z": 1.0193807846,
				"element": "H" 
			},
			{
				"x": 0.3051301421,
				"y": -1.7058661435,
				"z": -0.3406400266,
				"element": "H" 
			},
			{
				"x": 6.8579925884,
				"y": 0.106031881,
				"z": 0.5861306947,
				"element": "H" 
			},
			{
				"x": 6.9912620194,
				"y": 2.6711902457,
				"z": -0.0869113272,
				"element": "H" 
			},
			{
				"x": -0.4659240403,
				"y": 1.2317403561,
				"z": 2.1436681397,
				"element": "H" 
			}
		],
		 "valence_orbital": [ 
			{
				"type": "occ",
				"energy": -0.26123,
				"method": "rhf"
			},
			{
				"type": "occ",
				"energy": -0.26035,
				"method": "rhf"
			},
			{
				"type": "occ",
				"energy": -0.21875,
				"method": "rhf"
			},
			{
				"type": "occ",
				"energy": -0.20647,
				"method": "rhf"
			},
			{
				"type": "occ",
				"energy": -0.18831,
				"method": "rhf"
			},
			{
				"type": "unocc",
				"energy": -0.00234,
				"method": "rhf"
			},
			{
				"type": "unocc",
				"energy": 0.01117,
				"method": "rhf"
			},
			{
				"type": "unocc",
				"energy": 0.01521,
				"method": "rhf"
			},
			{
				"type": "unocc",
				"energy": 0.02749,
				"method": "rhf"
			},
			{
				"type": "unocc",
				"energy": 0.05836,
				"method": "rhf"
			}
		],
		"cosmo_sigma_profile": { 
			"-0.025": 0.0,
			"-0.024": 0.0,
			"-0.023": 0.0,
			"-0.022": 0.0,
			"-0.021": 0.0,
			"-0.02": 0.0,
			"-0.019": 0.0,
			"-0.018": 0.0,
			"-0.017": 0.0,
			"-0.016": 0.0,
			"-0.015": 0.272062932241,
			"-0.014": 1.60390512782,
			"-0.013": 2.93572211322,
			"-0.012": 2.24451144885,
			"-0.011": 2.1592189174,
			"-0.01": 2.38898701183,
			"-0.009": 2.28610441858,
			"-0.008": 3.44957093141,
			"-0.007": 5.47293059407,
			"-0.006": 9.89833315434,
			"-0.005": 15.8678367541,
			"-0.004": 27.176249154,
			"-0.003": 35.0017443746,
			"-0.002": 26.3096378195,
			"-0.001": 18.1199594692,
			"0.0": 13.9485489466,
			"0.001": 15.1010341552,
			"0.002": 22.3334216571,
			"0.003": 21.4719671515,
			"0.004": 21.966224021,
			"0.005": 19.2483432446,
			"0.006": 10.563470769,
			"0.007": 6.52993139551,
			"0.008": 4.34016491619,
			"0.009": 3.71061471784,
			"0.01": 2.80113045696,
			"0.011": 3.3421343686,
			"0.012": 2.81576797378,
			"0.013": 1.94049896902,
			"0.014": 1.58402362497,
			"0.015": 0.750464629133,
			"0.016": 0.21612570888,
			"0.017": 0.0,
			"0.018": 0.0,
			"0.019": 0.0,
			"0.02": 0.0,
			"0.021": 0.0,
			"0.022": 0.0,
			"0.023": 0.0,
			"0.024": 0.0,
			"0.025": 0.0
		}
	}
}
