{
	 "smiles": "NC1=C(O)C=CC(Br)=C1", 
	 "Tm": 401.15, 
	 "num_atms": 15, 
	 "gaussian": { 
		 "optdone": 1, 
		 "sigma_profile": "yes", 
		 "theory": "DFT", 
		 "functional": "B3LYP", 
		 "basiset": "6-31G**", 
		 "properties": { 
			 "R2extent": 3972.7506, 
			 "electric_dipole_moment_norm": 2.64522917911, 
			 "electric_quadrupole_moment_norm": 10.0371303937, 
			 "total_energy": -2933.63197917, 
			 "HOMO_LUMO_gap": 0.19973, 
			 "cosmo_polarized_energy": -8.87, 
			 "cosmo_cavitation_energy": 21.25, 
			 "cosmo_dispersion_energy": -16.55, 
			 "cosmo_repulsion_energy": 1.37, 
			 "cosmo_total_nonelectrostatic_energy": 6.07, 
			 "SMD_solvation_energy": 3.17 
		},
		"coords": [
			{
				"x": -1.3931314772,
				"y": -0.6734858047,
				"z": 0.3987511567,
				"element": "N" 
			},
			{
				"x": -0.0573675111,
				"y": -0.3383674803,
				"z": 0.8277236563,
				"element": "C" 
			},
			{
				"x": 0.5478937252,
				"y": 0.7211181035,
				"z": 0.1238625578,
				"element": "C" 
			},
			{
				"x": -0.132895644,
				"y": 1.3336287945,
				"z": -0.8700774106,
				"element": "O" 
			},
			{
				"x": 1.8431845789,
				"y": 1.1302650111,
				"z": 0.4567381382,
				"element": "C" 
			},
			{
				"x": 2.5325445832,
				"y": 0.4892991346,
				"z": 1.4838473502,
				"element": "C" 
			},
			{
				"x": 1.9263094991,
				"y": -0.559308194,
				"z": 2.1764827549,
				"element": "C" 
			},
			{
				"x": 2.877205914,
				"y": -1.437602076,
				"z": 3.5877810805,
				"element": "Br" 
			},
			{
				"x": 0.6362969658,
				"y": -0.9777319196,
				"z": 1.855764469,
				"element": "C" 
			},
			{
				"x": -2.0661542903,
				"y": -0.5679449458,
				"z": 1.1535223362,
				"element": "H" 
			},
			{
				"x": -1.4512636436,
				"y": -1.6346012698,
				"z": 0.0721532395,
				"element": "H" 
			},
			{
				"x": -0.9929504561,
				"y": 0.8647072369,
				"z": -0.8948370429,
				"element": "H" 
			},
			{
				"x": 2.2968540706,
				"y": 1.9474985563,
				"z": -0.0936462455,
				"element": "H" 
			},
			{
				"x": 3.5367376197,
				"y": 0.803239659,
				"z": 1.7451946961,
				"element": "H" 
			},
			{
				"x": 0.1727360658,
				"y": -1.7942148056,
				"z": 2.3999392635,
				"element": "H" 
			}
		],
		 "valence_orbital": [ 
			{
				"type": "occ",
				"energy": -0.28912,
				"method": "rhf"
			},
			{
				"type": "occ",
				"energy": -0.28907,
				"method": "rhf"
			},
			{
				"type": "occ",
				"energy": -0.27999,
				"method": "rhf"
			},
			{
				"type": "occ",
				"energy": -0.26055,
				"method": "rhf"
			},
			{
				"type": "occ",
				"energy": -0.21532,
				"method": "rhf"
			},
			{
				"type": "unocc",
				"energy": -0.01559,
				"method": "rhf"
			},
			{
				"type": "unocc",
				"energy": 0.00484,
				"method": "rhf"
			},
			{
				"type": "unocc",
				"energy": 0.0104,
				"method": "rhf"
			},
			{
				"type": "unocc",
				"energy": 0.06458,
				"method": "rhf"
			},
			{
				"type": "unocc",
				"energy": 0.12413,
				"method": "rhf"
			}
		],
		"cosmo_sigma_profile": { 
			"-0.025": 0.0,
			"-0.024": 0.0,
			"-0.023": 0.0,
			"-0.022": 0.0,
			"-0.021": 0.0,
			"-0.02": 0.0,
			"-0.019": 0.0,
			"-0.018": 0.0,
			"-0.017": 0.0,
			"-0.016": 0.0,
			"-0.015": 0.0,
			"-0.014": 0.0,
			"-0.013": 0.0337192226161,
			"-0.012": 2.08529260436,
			"-0.011": 2.99644582585,
			"-0.01": 3.39160767471,
			"-0.009": 3.63917346085,
			"-0.008": 3.09884502782,
			"-0.007": 6.4746890584,
			"-0.006": 8.66148636713,
			"-0.005": 7.72877120657,
			"-0.004": 7.51060947701,
			"-0.003": 7.77036434099,
			"-0.002": 9.68139246665,
			"-0.001": 8.0649635588,
			"0.0": 10.2191738127,
			"0.001": 9.12387614622,
			"0.002": 13.0776221207,
			"0.003": 21.0167354022,
			"0.004": 21.1081518806,
			"0.005": 13.3273700892,
			"0.006": 3.63811465139,
			"0.007": 1.6905945399,
			"0.008": 1.86730906308,
			"0.009": 1.26495679119,
			"0.01": 1.57581341685,
			"0.011": 2.08730938866,
			"0.012": 1.37399957351,
			"0.013": 0.0,
			"0.014": 0.0,
			"0.015": 0.0,
			"0.016": 0.0,
			"0.017": 0.0,
			"0.018": 0.0,
			"0.019": 0.0,
			"0.02": 0.0,
			"0.021": 0.0,
			"0.022": 0.0,
			"0.023": 0.0,
			"0.024": 0.0,
			"0.025": 0.0
		}
	}
}
