{
	 "smiles": "NC1=C(Cl)C(Cl)=C(Cl)C(Cl)=C1Cl", 
	 "Tm": 507.15, 
	 "num_atms": 14, 
	 "gaussian": { 
		 "optdone": 1, 
		 "sigma_profile": "yes", 
		 "theory": "DFT", 
		 "functional": "B3LYP", 
		 "basiset": "6-31G**", 
		 "properties": { 
			 "R2extent": 5029.5951, 
			 "electric_dipole_moment_norm": 3.12127593301, 
			 "electric_quadrupole_moment_norm": 15.9893715799, 
			 "total_energy": -2585.54111675, 
			 "HOMO_LUMO_gap": 0.18521, 
			 "cosmo_polarized_energy": -6.38, 
			 "cosmo_cavitation_energy": 26.54, 
			 "cosmo_dispersion_energy": -20.79, 
			 "cosmo_repulsion_energy": 1.64, 
			 "cosmo_total_nonelectrostatic_energy": 7.39, 
			 "SMD_solvation_energy": 3.23 
		},
		"coords": [
			{
				"x": 0.9977229855,
				"y": 3.8805298592,
				"z": -0.1478076826,
				"element": "N" 
			},
			{
				"x": 0.4609476768,
				"y": 2.6980354761,
				"z": -0.5841826432,
				"element": "C" 
			},
			{
				"x": -0.2050841173,
				"y": 1.8219920743,
				"z": 0.3003751174,
				"element": "C" 
			},
			{
				"x": -0.3845918479,
				"y": 2.3296100913,
				"z": 1.9640860357,
				"element": "Cl" 
			},
			{
				"x": -0.7092057867,
				"y": 0.5899112912,
				"z": -0.1279416854,
				"element": "C" 
			},
			{
				"x": -1.5184532056,
				"y": -0.4509321947,
				"z": 1.0019580461,
				"element": "Cl" 
			},
			{
				"x": -0.563768177,
				"y": 0.1944311768,
				"z": -1.4682547085,
				"element": "C" 
			},
			{
				"x": -1.1834381388,
				"y": -1.3372690409,
				"z": -2.0065405243,
				"element": "Cl" 
			},
			{
				"x": 0.0891238232,
				"y": 1.0540194059,
				"z": -2.3676064758,
				"element": "C" 
			},
			{
				"x": 0.2755176928,
				"y": 0.5920243779,
				"z": -4.030957423,
				"element": "Cl" 
			},
			{
				"x": 0.5891725442,
				"y": 2.2837227299,
				"z": -1.9278273832,
				"element": "C" 
			},
			{
				"x": 1.3982774898,
				"y": 3.3660836269,
				"z": -3.0376302227,
				"element": "Cl" 
			},
			{
				"x": 0.6742825166,
				"y": 4.2363778457,
				"z": 0.7381763271,
				"element": "H" 
			},
			{
				"x": 1.2393965446,
				"y": 4.5649632805,
				"z": -0.8473467776,
				"element": "H" 
			}
		],
		 "valence_orbital": [ 
			{
				"type": "occ",
				"energy": -0.32902,
				"method": "rhf"
			},
			{
				"type": "occ",
				"energy": -0.30477,
				"method": "rhf"
			},
			{
				"type": "occ",
				"energy": -0.30373,
				"method": "rhf"
			},
			{
				"type": "occ",
				"energy": -0.25768,
				"method": "rhf"
			},
			{
				"type": "occ",
				"energy": -0.23051,
				"method": "rhf"
			},
			{
				"type": "unocc",
				"energy": -0.0453,
				"method": "rhf"
			},
			{
				"type": "unocc",
				"energy": -0.04498,
				"method": "rhf"
			},
			{
				"type": "unocc",
				"energy": -0.02761,
				"method": "rhf"
			},
			{
				"type": "unocc",
				"energy": 0.01061,
				"method": "rhf"
			},
			{
				"type": "unocc",
				"energy": 0.02765,
				"method": "rhf"
			}
		],
		"cosmo_sigma_profile": { 
			"-0.025": 0.0,
			"-0.024": 0.0,
			"-0.023": 0.0,
			"-0.022": 0.0,
			"-0.021": 0.0,
			"-0.02": 0.0,
			"-0.019": 0.0,
			"-0.018": 0.0,
			"-0.017": 0.0,
			"-0.016": 0.0,
			"-0.015": 0.0,
			"-0.014": 0.448317500939,
			"-0.013": 1.80150184463,
			"-0.012": 1.83016285147,
			"-0.011": 1.67794475243,
			"-0.01": 2.3704989883,
			"-0.009": 2.17520624476,
			"-0.008": 1.9035615471,
			"-0.007": 1.77326483635,
			"-0.006": 2.44198896269,
			"-0.005": 2.14968279669,
			"-0.004": 7.18852536927,
			"-0.003": 10.1903433511,
			"-0.002": 17.6096646814,
			"-0.001": 38.0260516884,
			"0.0": 23.2746492715,
			"0.001": 21.9297829255,
			"0.002": 23.2990922187,
			"0.003": 36.6339726718,
			"0.004": 23.6153131484,
			"0.005": 1.79967771002,
			"0.006": 0.567152783616,
			"0.007": 0.789020261,
			"0.008": 0.557027057543,
			"0.009": 0.438916685093,
			"0.01": 0.0879351534219,
			"0.011": 0.0,
			"0.012": 0.0,
			"0.013": 0.0,
			"0.014": 0.0,
			"0.015": 0.0,
			"0.016": 0.0,
			"0.017": 0.0,
			"0.018": 0.0,
			"0.019": 0.0,
			"0.02": 0.0,
			"0.021": 0.0,
			"0.022": 0.0,
			"0.023": 0.0,
			"0.024": 0.0,
			"0.025": 0.0
		}
	}
}
