{
	 "smiles": "O=C(NC1=CC2=NN(N=C2C=C1)C1CCCC1)C1=CC=CC=C1", 
	 "Tm": 438.15, 
	 "num_atms": 41, 
	 "gaussian": { 
		 "optdone": 1, 
		 "sigma_profile": "yes", 
		 "theory": "DFT", 
		 "functional": "B3LYP", 
		 "basiset": "6-31G**", 
		 "properties": { 
			 "R2extent": 10483.5375, 
			 "electric_dipole_moment_norm": 4.2910496082, 
			 "electric_quadrupole_moment_norm": 17.9889625429, 
			 "total_energy": -990.986794801, 
			 "HOMO_LUMO_gap": 0.16549, 
			 "cosmo_polarized_energy": -14.99, 
			 "cosmo_cavitation_energy": 44.16, 
			 "cosmo_dispersion_energy": -31.23, 
			 "cosmo_repulsion_energy": 2.4, 
			 "cosmo_total_nonelectrostatic_energy": 15.33, 
			 "SMD_solvation_energy": 5.14 
		},
		"coords": [
			{
				"x": -5.5192215327,
				"y": -2.1889108613,
				"z": -0.5884045942,
				"element": "O" 
			},
			{
				"x": -4.59696366,
				"y": -1.3814355044,
				"z": -0.6153033438,
				"element": "C" 
			},
			{
				"x": -3.4130419352,
				"y": -1.7214540146,
				"z": -1.2547677685,
				"element": "N" 
			},
			{
				"x": -2.0849023194,
				"y": -1.2662315702,
				"z": -1.0518783502,
				"element": "C" 
			},
			{
				"x": -1.6350419491,
				"y": -0.8090341735,
				"z": 0.1737951343,
				"element": "C" 
			},
			{
				"x": -0.2895403596,
				"y": -0.3875541146,
				"z": 0.2454304392,
				"element": "C" 
			},
			{
				"x": 0.4148047674,
				"y": 0.1065552524,
				"z": 1.2912021245,
				"element": "N" 
			},
			{
				"x": 1.6236306035,
				"y": 0.2980467453,
				"z": 0.7692403194,
				"element": "N" 
			},
			{
				"x": 1.8021349816,
				"y": -0.0186160015,
				"z": -0.5072747582,
				"element": "N" 
			},
			{
				"x": 0.5810508663,
				"y": -0.4682157179,
				"z": -0.8792833029,
				"element": "C" 
			},
			{
				"x": 0.1133593184,
				"y": -0.9624062796,
				"z": -2.1177269335,
				"element": "C" 
			},
			{
				"x": -1.2075360214,
				"y": -1.3412436247,
				"z": -2.1840542025,
				"element": "C" 
			},
			{
				"x": 2.7243452269,
				"y": 0.817310119,
				"z": 1.5913229138,
				"element": "C" 
			},
			{
				"x": 3.9191373847,
				"y": -0.1776493338,
				"z": 1.6715423045,
				"element": "C" 
			},
			{
				"x": 5.0367749541,
				"y": 0.4588265536,
				"z": 0.8277605215,
				"element": "C" 
			},
			{
				"x": 4.8385892626,
				"y": 1.9643347157,
				"z": 1.0656903311,
				"element": "C" 
			},
			{
				"x": 3.3087876005,
				"y": 2.1368010082,
				"z": 1.0080999735,
				"element": "C" 
			},
			{
				"x": -4.757514007,
				"y": -0.0041002495,
				"z": -0.0446784233,
				"element": "C" 
			},
			{
				"x": -4.1649345889,
				"y": 1.1328988672,
				"z": -0.6124616934,
				"element": "C" 
			},
			{
				"x": -4.4333885106,
				"y": 2.3968422354,
				"z": -0.0885699661,
				"element": "C" 
			},
			{
				"x": -5.2838590683,
				"y": 2.5348904149,
				"z": 1.0107840813,
				"element": "C" 
			},
			{
				"x": -5.8833867432,
				"y": 1.4060672462,
				"z": 1.5746792121,
				"element": "C" 
			},
			{
				"x": -5.6325526842,
				"y": 0.1440557099,
				"z": 1.0403503852,
				"element": "C" 
			},
			{
				"x": -3.5064000226,
				"y": -2.6145997662,
				"z": -1.7253884906,
				"element": "H" 
			},
			{
				"x": -2.2781458908,
				"y": -0.7753860892,
				"z": 1.0442908236,
				"element": "H" 
			},
			{
				"x": 0.768290502,
				"y": -1.0293857902,
				"z": -2.9797008427,
				"element": "H" 
			},
			{
				"x": -1.620710115,
				"y": -1.7053888192,
				"z": -3.1203992146,
				"element": "H" 
			},
			{
				"x": 2.2635218068,
				"y": 0.9674684426,
				"z": 2.5674598797,
				"element": "H" 
			},
			{
				"x": 3.6342151142,
				"y": -1.179035897,
				"z": 1.3410467552,
				"element": "H" 
			},
			{
				"x": 4.235956925,
				"y": -0.2532391387,
				"z": 2.7178564209,
				"element": "H" 
			},
			{
				"x": 4.8797732917,
				"y": 0.2256693741,
				"z": -0.2313350416,
				"element": "H" 
			},
			{
				"x": 6.0328816211,
				"y": 0.1021180077,
				"z": 1.1070265243,
				"element": "H" 
			},
			{
				"x": 5.3556220675,
				"y": 2.5922217365,
				"z": 0.3337817298,
				"element": "H" 
			},
			{
				"x": 5.2181182725,
				"y": 2.2394465573,
				"z": 2.0581741082,
				"element": "H" 
			},
			{
				"x": 2.9473364704,
				"y": 3.0159640448,
				"z": 1.5485900373,
				"element": "H" 
			},
			{
				"x": 2.985463997,
				"y": 2.228115207,
				"z": -0.0325241374,
				"element": "H" 
			},
			{
				"x": -3.5082397448,
				"y": 1.0320724183,
				"z": -1.4696947459,
				"element": "H" 
			},
			{
				"x": -3.9794686993,
				"y": 3.2743720695,
				"z": -0.5396365453,
				"element": "H" 
			},
			{
				"x": -5.4843823691,
				"y": 3.520240519,
				"z": 1.4218803725,
				"element": "H" 
			},
			{
				"x": -6.552733739,
				"y": 1.5109573532,
				"z": 2.423545062,
				"element": "H" 
			},
			{
				"x": -6.1123310738,
				"y": -0.7410876517,
				"z": 1.444432901,
				"element": "H" 
			}
		],
		 "valence_orbital": [ 
			{
				"type": "occ",
				"energy": -0.26266,
				"method": "rhf"
			},
			{
				"type": "occ",
				"energy": -0.25604,
				"method": "rhf"
			},
			{
				"type": "occ",
				"energy": -0.2459,
				"method": "rhf"
			},
			{
				"type": "occ",
				"energy": -0.24186,
				"method": "rhf"
			},
			{
				"type": "occ",
				"energy": -0.21793,
				"method": "rhf"
			},
			{
				"type": "unocc",
				"energy": -0.05244,
				"method": "rhf"
			},
			{
				"type": "unocc",
				"energy": -0.03482,
				"method": "rhf"
			},
			{
				"type": "unocc",
				"energy": -0.00485,
				"method": "rhf"
			},
			{
				"type": "unocc",
				"energy": 0.01591,
				"method": "rhf"
			},
			{
				"type": "unocc",
				"energy": 0.02787,
				"method": "rhf"
			}
		],
		"cosmo_sigma_profile": { 
			"-0.025": 0.0,
			"-0.024": 0.0,
			"-0.023": 0.0,
			"-0.022": 0.0,
			"-0.021": 0.0,
			"-0.02": 0.0,
			"-0.019": 0.0,
			"-0.018": 0.0,
			"-0.017": 0.0,
			"-0.016": 0.0,
			"-0.015": 0.0800014545289,
			"-0.014": 0.870580783184,
			"-0.013": 1.16658520919,
			"-0.012": 0.739343888065,
			"-0.011": 1.14280401586,
			"-0.01": 0.959808150331,
			"-0.009": 1.52804791591,
			"-0.008": 1.74022405834,
			"-0.007": 5.26767749762,
			"-0.006": 15.3322219676,
			"-0.005": 19.4570663126,
			"-0.004": 27.9477816019,
			"-0.003": 30.4076072443,
			"-0.002": 35.038598516,
			"-0.001": 34.8377900606,
			"0.0": 34.4138831771,
			"0.001": 28.6153821959,
			"0.002": 23.4652972172,
			"0.003": 24.7420630898,
			"0.004": 18.8572542726,
			"0.005": 8.88889071974,
			"0.006": 4.19707377161,
			"0.007": 4.0404840529,
			"0.008": 3.63796760016,
			"0.009": 4.50022463761,
			"0.01": 3.25042432126,
			"0.011": 3.22168252923,
			"0.012": 4.22306439779,
			"0.013": 6.58522090741,
			"0.014": 1.70041634359,
			"0.015": 0.0,
			"0.016": 0.0,
			"0.017": 0.0,
			"0.018": 0.0,
			"0.019": 0.0,
			"0.02": 0.0,
			"0.021": 0.0,
			"0.022": 0.0,
			"0.023": 0.0,
			"0.024": 0.0,
			"0.025": 0.0
		}
	}
}
