{
	 "smiles": "CC(C)(C)C1=CC=C(C=CC(O)=O)C=C1", 
	 "Tm": 480.15, 
	 "num_atms": 31, 
	 "gaussian": { 
		 "optdone": 1, 
		 "sigma_profile": "yes", 
		 "theory": "DFT", 
		 "functional": "B3LYP", 
		 "basiset": "6-31G**", 
		 "properties": { 
			 "R2extent": 6204.8172, 
			 "electric_dipole_moment_norm": 3.65835868662, 
			 "electric_quadrupole_moment_norm": 20.2304687296, 
			 "total_energy": -655.49345757, 
			 "HOMO_LUMO_gap": 0.16549, 
			 "cosmo_polarized_energy": -10.77, 
			 "cosmo_cavitation_energy": 33.98, 
			 "cosmo_dispersion_energy": -24.07, 
			 "cosmo_repulsion_energy": 1.87, 
			 "cosmo_total_nonelectrostatic_energy": 11.77, 
			 "SMD_solvation_energy": 7.28 
		},
		"coords": [
			{
				"x": -0.4351801239,
				"y": 3.2805852043,
				"z": -0.6328205103,
				"element": "C" 
			},
			{
				"x": -1.2226902691,
				"y": 1.9566156599,
				"z": -0.6273377146,
				"element": "C" 
			},
			{
				"x": -2.1657224953,
				"y": 1.9603241212,
				"z": 0.599989486,
				"element": "C" 
			},
			{
				"x": -2.0673974813,
				"y": 1.8912290421,
				"z": -1.9226402841,
				"element": "C" 
			},
			{
				"x": -0.3007364413,
				"y": 0.7270077579,
				"z": -0.5578169324,
				"element": "C" 
			},
			{
				"x": 1.0998157707,
				"y": 0.823693694,
				"z": -0.5060285819,
				"element": "C" 
			},
			{
				"x": 1.9094094801,
				"y": -0.3065059489,
				"z": -0.443953129,
				"element": "C" 
			},
			{
				"x": 1.3541711205,
				"y": -1.5973705917,
				"z": -0.4305505261,
				"element": "C" 
			},
			{
				"x": 2.1502036711,
				"y": -2.8225529061,
				"z": -0.3667411845,
				"element": "C" 
			},
			{
				"x": 3.492813639,
				"y": -2.9225816413,
				"z": -0.3118310867,
				"element": "C" 
			},
			{
				"x": 4.2179253629,
				"y": -4.2001572984,
				"z": -0.2494611778,
				"element": "C" 
			},
			{
				"x": 3.4101214914,
				"y": -5.2970006026,
				"z": -0.2516885474,
				"element": "O" 
			},
			{
				"x": 5.430302536,
				"y": -4.2968222791,
				"z": -0.1996364199,
				"element": "O" 
			},
			{
				"x": -0.0480645577,
				"y": -1.6982089166,
				"z": -0.482202348,
				"element": "C" 
			},
			{
				"x": -0.8516303862,
				"y": -0.5658775279,
				"z": -0.5440932405,
				"element": "C" 
			},
			{
				"x": -1.1326966277,
				"y": 4.1227532218,
				"z": -0.6828937071,
				"element": "H" 
			},
			{
				"x": 0.2328137907,
				"y": 3.3549734134,
				"z": -1.4972169081,
				"element": "H" 
			},
			{
				"x": 0.1638935183,
				"y": 3.4032516507,
				"z": 0.2754705099,
				"element": "H" 
			},
			{
				"x": -1.5949618216,
				"y": 2.0116989914,
				"z": 1.5329255998,
				"element": "H" 
			},
			{
				"x": -2.8341343132,
				"y": 2.8277648295,
				"z": 0.5622333611,
				"element": "H" 
			},
			{
				"x": -2.7888390562,
				"y": 1.0620084434,
				"z": 0.6386577439,
				"element": "H" 
			},
			{
				"x": -2.68713894,
				"y": 0.9905543689,
				"z": -1.9605703854,
				"element": "H" 
			},
			{
				"x": -2.7351967597,
				"y": 2.7577680334,
				"z": -1.9842728175,
				"element": "H" 
			},
			{
				"x": -1.4257527577,
				"y": 1.8931124858,
				"z": -2.8098045807,
				"element": "H" 
			},
			{
				"x": 1.5776637637,
				"y": 1.7963789372,
				"z": -0.5138963209,
				"element": "H" 
			},
			{
				"x": 2.9868515206,
				"y": -0.1783716007,
				"z": -0.4056583764,
				"element": "H" 
			},
			{
				"x": 1.580214646,
				"y": -3.7492755362,
				"z": -0.3641549079,
				"element": "H" 
			},
			{
				"x": 4.1459360265,
				"y": -2.0565796123,
				"z": -0.3095870721,
				"element": "H" 
			},
			{
				"x": 4.0114717368,
				"y": -6.0577678865,
				"z": -0.2079753987,
				"element": "H" 
			},
			{
				"x": -0.5088765767,
				"y": -2.6828982613,
				"z": -0.473400322,
				"element": "H" 
			},
			{
				"x": -1.9290894668,
				"y": -0.6950492453,
				"z": -0.5824442207,
				"element": "H" 
			}
		],
		 "valence_orbital": [ 
			{
				"type": "occ",
				"energy": -0.31137,
				"method": "rhf"
			},
			{
				"type": "occ",
				"energy": -0.29861,
				"method": "rhf"
			},
			{
				"type": "occ",
				"energy": -0.26649,
				"method": "rhf"
			},
			{
				"type": "occ",
				"energy": -0.25865,
				"method": "rhf"
			},
			{
				"type": "occ",
				"energy": -0.23018,
				"method": "rhf"
			},
			{
				"type": "unocc",
				"energy": -0.06469,
				"method": "rhf"
			},
			{
				"type": "unocc",
				"energy": -0.00854,
				"method": "rhf"
			},
			{
				"type": "unocc",
				"energy": 0.0217,
				"method": "rhf"
			},
			{
				"type": "unocc",
				"energy": 0.07515,
				"method": "rhf"
			},
			{
				"type": "unocc",
				"energy": 0.08404,
				"method": "rhf"
			}
		],
		"cosmo_sigma_profile": { 
			"-0.025": 0.0,
			"-0.024": 0.0,
			"-0.023": 0.0,
			"-0.022": 0.0,
			"-0.021": 0.0,
			"-0.02": 0.0,
			"-0.019": 0.0,
			"-0.018": 0.461209493091,
			"-0.017": 0.593567608606,
			"-0.016": 1.45888525876,
			"-0.015": 0.62426828654,
			"-0.014": 0.202259695152,
			"-0.013": 0.265539009828,
			"-0.012": 1.03278261134,
			"-0.011": 1.04955992701,
			"-0.01": 0.929706704205,
			"-0.009": 0.495856022518,
			"-0.008": 1.78957830622,
			"-0.007": 4.59982040887,
			"-0.006": 8.93491010852,
			"-0.005": 10.8810854772,
			"-0.004": 12.5285543887,
			"-0.003": 23.4868497183,
			"-0.002": 30.2493725023,
			"-0.001": 25.4801847204,
			"0.0": 26.1813778001,
			"0.001": 33.0774885443,
			"0.002": 21.6960627506,
			"0.003": 14.4447476192,
			"0.004": 12.7152765884,
			"0.005": 11.220182507,
			"0.006": 2.83358099816,
			"0.007": 2.3557624377,
			"0.008": 3.66951115627,
			"0.009": 1.49659396198,
			"0.01": 1.6181318819,
			"0.011": 2.38479626337,
			"0.012": 5.23205559136,
			"0.013": 3.11793437501,
			"0.014": 0.250976519238,
			"0.015": 0.0,
			"0.016": 0.0,
			"0.017": 0.0,
			"0.018": 0.0,
			"0.019": 0.0,
			"0.02": 0.0,
			"0.021": 0.0,
			"0.022": 0.0,
			"0.023": 0.0,
			"0.024": 0.0,
			"0.025": 0.0
		}
	}
}
