{
	 "smiles": "NC1=CC(=NN1C1=CC=CC=C1)C1=COC=C1", 
	 "Tm": 403.15, 
	 "num_atms": 28, 
	 "gaussian": { 
		 "optdone": 1, 
		 "sigma_profile": "yes", 
		 "theory": "DFT", 
		 "functional": "B3LYP", 
		 "basiset": "6-31G**", 
		 "properties": { 
			 "R2extent": 5325.304, 
			 "electric_dipole_moment_norm": 3.40677278374, 
			 "electric_quadrupole_moment_norm": 12.2943358251, 
			 "total_energy": -741.444410184, 
			 "HOMO_LUMO_gap": 0.17998, 
			 "cosmo_polarized_energy": -14.31, 
			 "cosmo_cavitation_energy": 32.73, 
			 "cosmo_dispersion_energy": -23.95, 
			 "cosmo_repulsion_energy": 1.83, 
			 "cosmo_total_nonelectrostatic_energy": 10.6, 
			 "SMD_solvation_energy": 6.16 
		},
		"coords": [
			{
				"x": -2.4113155012,
				"y": -0.3199291334,
				"z": -1.0935442428,
				"element": "N" 
			},
			{
				"x": -1.1256021174,
				"y": 0.196525353,
				"z": -0.942183367,
				"element": "C" 
			},
			{
				"x": -0.2112658525,
				"y": 0.6055565043,
				"z": -1.8925861027,
				"element": "C" 
			},
			{
				"x": 0.9101032786,
				"y": 1.064119579,
				"z": -1.149329379,
				"element": "C" 
			},
			{
				"x": 0.7119186386,
				"y": 0.9480531155,
				"z": 0.1616415822,
				"element": "N" 
			},
			{
				"x": -0.5535237806,
				"y": 0.4304857384,
				"z": 0.2866231077,
				"element": "N" 
			},
			{
				"x": -1.0585872961,
				"y": 0.1393873272,
				"z": 1.5792973347,
				"element": "C" 
			},
			{
				"x": -0.1655344413,
				"y": -0.2724473649,
				"z": 2.5779498474,
				"element": "C" 
			},
			{
				"x": -0.6421585239,
				"y": -0.5523316955,
				"z": 3.8557718855,
				"element": "C" 
			},
			{
				"x": -2.0039456553,
				"y": -0.436307474,
				"z": 4.1488831315,
				"element": "C" 
			},
			{
				"x": -2.8866856286,
				"y": -0.0175313582,
				"z": 3.1535276252,
				"element": "C" 
			},
			{
				"x": -2.4219828732,
				"y": 0.2825224882,
				"z": 1.8716312786,
				"element": "C" 
			},
			{
				"x": 2.1653702182,
				"y": 1.6096597465,
				"z": -1.6511399316,
				"element": "C" 
			},
			{
				"x": 2.5362259374,
				"y": 1.8054626113,
				"z": -2.9532388428,
				"element": "C" 
			},
			{
				"x": 3.7887499573,
				"y": 2.3359686992,
				"z": -3.0253030202,
				"element": "O" 
			},
			{
				"x": 4.2274617612,
				"y": 2.4829230888,
				"z": -1.7393418541,
				"element": "C" 
			},
			{
				"x": 3.2842776475,
				"y": 2.058523253,
				"z": -0.8605413468,
				"element": "C" 
			},
			{
				"x": -2.567715174,
				"y": -0.6683009966,
				"z": -2.0308598705,
				"element": "H" 
			},
			{
				"x": -2.653407488,
				"y": -1.0249937716,
				"z": -0.4059442575,
				"element": "H" 
			},
			{
				"x": -0.3341689424,
				"y": 0.5653852282,
				"z": -2.9647283701,
				"element": "H" 
			},
			{
				"x": 0.8869556049,
				"y": -0.3537441773,
				"z": 2.3350109994,
				"element": "H" 
			},
			{
				"x": 0.0548220521,
				"y": -0.8699708661,
				"z": 4.6259539593,
				"element": "H" 
			},
			{
				"x": -2.3704829282,
				"y": -0.6625336745,
				"z": 5.1455853744,
				"element": "H" 
			},
			{
				"x": -3.9440532061,
				"y": 0.0964505744,
				"z": 3.3745847848,
				"element": "H" 
			},
			{
				"x": -3.1038431752,
				"y": 0.6493089378,
				"z": 1.1128634865,
				"element": "H" 
			},
			{
				"x": 2.0457362858,
				"y": 1.6287408195,
				"z": -3.8977469583,
				"element": "H" 
			},
			{
				"x": 5.2168397089,
				"y": 2.8982586485,
				"z": -1.6269872347,
				"element": "H" 
			},
			{
				"x": 3.3420114932,
				"y": 2.0538587993,
				"z": 0.217250381,
				"element": "H" 
			}
		],
		 "valence_orbital": [ 
			{
				"type": "occ",
				"energy": -0.25994,
				"method": "rhf"
			},
			{
				"type": "occ",
				"energy": -0.25569,
				"method": "rhf"
			},
			{
				"type": "occ",
				"energy": -0.23217,
				"method": "rhf"
			},
			{
				"type": "occ",
				"energy": -0.21212,
				"method": "rhf"
			},
			{
				"type": "occ",
				"energy": -0.19824,
				"method": "rhf"
			},
			{
				"type": "unocc",
				"energy": -0.01826,
				"method": "rhf"
			},
			{
				"type": "unocc",
				"energy": -0.00789,
				"method": "rhf"
			},
			{
				"type": "unocc",
				"energy": 0.01311,
				"method": "rhf"
			},
			{
				"type": "unocc",
				"energy": 0.03928,
				"method": "rhf"
			},
			{
				"type": "unocc",
				"energy": 0.06516,
				"method": "rhf"
			}
		],
		"cosmo_sigma_profile": { 
			"-0.025": 0.0,
			"-0.024": 0.0,
			"-0.023": 0.0,
			"-0.022": 0.0,
			"-0.021": 0.0,
			"-0.02": 0.0,
			"-0.019": 0.0,
			"-0.018": 0.0,
			"-0.017": 0.0,
			"-0.016": 0.0,
			"-0.015": 0.0,
			"-0.014": 0.305703211161,
			"-0.013": 1.78583363093,
			"-0.012": 2.58454219114,
			"-0.011": 2.35920948939,
			"-0.01": 3.06331931254,
			"-0.009": 4.39414529075,
			"-0.008": 6.53443517073,
			"-0.007": 7.81343756949,
			"-0.006": 14.1148880989,
			"-0.005": 14.7901102574,
			"-0.004": 18.6419103797,
			"-0.003": 14.0897010737,
			"-0.002": 13.5841730696,
			"-0.001": 11.8908971165,
			"0.0": 13.3883547471,
			"0.001": 14.0201385457,
			"0.002": 17.0681850316,
			"0.003": 21.0186059055,
			"0.004": 26.7238152852,
			"0.005": 26.887901547,
			"0.006": 9.49066971999,
			"0.007": 5.30772812462,
			"0.008": 4.38731890038,
			"0.009": 2.75621116861,
			"0.01": 2.21828112348,
			"0.011": 1.73836640839,
			"0.012": 1.02488505666,
			"0.013": 0.769983223846,
			"0.014": 0.383690070066,
			"0.015": 0.0,
			"0.016": 0.0,
			"0.017": 0.0,
			"0.018": 0.0,
			"0.019": 0.0,
			"0.02": 0.0,
			"0.021": 0.0,
			"0.022": 0.0,
			"0.023": 0.0,
			"0.024": 0.0,
			"0.025": 0.0
		}
	}
}
