{
	 "smiles": "COC1=CC=C(C(OC)=C1)S(Cl)(=O)=O", 
	 "Tm": 345.15, 
	 "num_atms": 23, 
	 "gaussian": { 
		 "optdone": 1, 
		 "sigma_profile": "yes", 
		 "theory": "DFT", 
		 "functional": "B3LYP", 
		 "basiset": "6-31G**", 
		 "properties": { 
			 "R2extent": 4271.4708, 
			 "electric_dipole_moment_norm": 7.27539026857, 
			 "electric_quadrupole_moment_norm": 9.28296172781, 
			 "total_energy": -1469.45163059, 
			 "HOMO_LUMO_gap": 0.17581, 
			 "cosmo_polarized_energy": -12.95, 
			 "cosmo_cavitation_energy": 30.27, 
			 "cosmo_dispersion_energy": -22.34, 
			 "cosmo_repulsion_energy": 1.72, 
			 "cosmo_total_nonelectrostatic_energy": 9.66, 
			 "SMD_solvation_energy": 5.63 
		},
		"coords": [
			{
				"x": -0.0392666402,
				"y": -0.3884741428,
				"z": 3.8908225195,
				"element": "C" 
			},
			{
				"x": 0.7806857144,
				"y": -1.1808497657,
				"z": 3.0385003449,
				"element": "O" 
			},
			{
				"x": 0.6166436273,
				"y": -1.0839942003,
				"z": 1.6985192057,
				"element": "C" 
			},
			{
				"x": 1.4557606729,
				"y": -1.9072664358,
				"z": 0.9240072752,
				"element": "C" 
			},
			{
				"x": 1.359361304,
				"y": -1.8859426914,
				"z": -0.4555800923,
				"element": "C" 
			},
			{
				"x": 0.4346409141,
				"y": -1.035026955,
				"z": -1.07892695,
				"element": "C" 
			},
			{
				"x": -0.4201931168,
				"y": -0.224106722,
				"z": -0.3162663545,
				"element": "C" 
			},
			{
				"x": -1.385339537,
				"y": 0.5108639009,
				"z": -0.9335221424,
				"element": "O" 
			},
			{
				"x": -1.2273685702,
				"y": 1.9365112724,
				"z": -0.9098667222,
				"element": "C" 
			},
			{
				"x": -0.3207463479,
				"y": -0.2483637857,
				"z": 1.0783501571,
				"element": "C" 
			},
			{
				"x": 0.4301966996,
				"y": -0.9594628039,
				"z": -2.8533873246,
				"element": "S" 
			},
			{
				"x": -1.419532693,
				"y": -1.8855699131,
				"z": -3.3603868613,
				"element": "Cl" 
			},
			{
				"x": 0.3388713359,
				"y": 0.4223600417,
				"z": -3.3127908096,
				"element": "O" 
			},
			{
				"x": 1.4708519392,
				"y": -1.852363992,
				"z": -3.3533937146,
				"element": "O" 
			},
			{
				"x": -1.1004079787,
				"y": -0.6366693744,
				"z": 3.7692498203,
				"element": "H" 
			},
			{
				"x": 0.1086384078,
				"y": 0.6823430418,
				"z": 3.7061570964,
				"element": "H" 
			},
			{
				"x": 0.2726385113,
				"y": -0.6257749342,
				"z": 4.9081896572,
				"element": "H" 
			},
			{
				"x": 2.1671420689,
				"y": -2.5496798572,
				"z": 1.4301432149,
				"element": "H" 
			},
			{
				"x": 1.9995918169,
				"y": -2.5098940352,
				"z": -1.0680889923,
				"element": "H" 
			},
			{
				"x": -1.1154657633,
				"y": 2.3104134312,
				"z": 0.114595738,
				"element": "H" 
			},
			{
				"x": -2.1379634171,
				"y": 2.3451856595,
				"z": -1.3488493417,
				"element": "H" 
			},
			{
				"x": -0.3641520177,
				"y": 2.2299219074,
				"z": -1.5145625946,
				"element": "H" 
			},
			{
				"x": -1.0049869301,
				"y": 0.364840354,
				"z": 1.6507868708,
				"element": "H" 
			}
		],
		 "valence_orbital": [ 
			{
				"type": "occ",
				"energy": -0.31793,
				"method": "rhf"
			},
			{
				"type": "occ",
				"energy": -0.3014,
				"method": "rhf"
			},
			{
				"type": "occ",
				"energy": -0.3004,
				"method": "rhf"
			},
			{
				"type": "occ",
				"energy": -0.26977,
				"method": "rhf"
			},
			{
				"type": "occ",
				"energy": -0.25146,
				"method": "rhf"
			},
			{
				"type": "unocc",
				"energy": -0.07565,
				"method": "rhf"
			},
			{
				"type": "unocc",
				"energy": -0.03019,
				"method": "rhf"
			},
			{
				"type": "unocc",
				"energy": -0.02937,
				"method": "rhf"
			},
			{
				"type": "unocc",
				"energy": 0.05864,
				"method": "rhf"
			},
			{
				"type": "unocc",
				"energy": 0.07641,
				"method": "rhf"
			}
		],
		"cosmo_sigma_profile": { 
			"-0.025": 0.0,
			"-0.024": 0.0,
			"-0.023": 0.0,
			"-0.022": 0.0,
			"-0.021": 0.0,
			"-0.02": 0.0,
			"-0.019": 0.0,
			"-0.018": 0.0,
			"-0.017": 0.0,
			"-0.016": 0.0,
			"-0.015": 0.0,
			"-0.014": 0.0,
			"-0.013": 0.0,
			"-0.012": 0.0,
			"-0.011": 0.0,
			"-0.01": 0.0,
			"-0.009": 0.150968732431,
			"-0.008": 4.03959832284,
			"-0.007": 10.1188494498,
			"-0.006": 17.0858044862,
			"-0.005": 16.9397767379,
			"-0.004": 21.2307419835,
			"-0.003": 20.2405158236,
			"-0.002": 13.7191604559,
			"-0.001": 13.0420716749,
			"0.0": 17.6987528907,
			"0.001": 21.3471716289,
			"0.002": 14.5475954722,
			"0.003": 14.2649511131,
			"0.004": 14.4872940202,
			"0.005": 8.60912589246,
			"0.006": 7.89100658886,
			"0.007": 7.6671351968,
			"0.008": 10.4236356822,
			"0.009": 9.33232994731,
			"0.01": 1.34916734221,
			"0.011": 0.0,
			"0.012": 0.0,
			"0.013": 0.0,
			"0.014": 0.0,
			"0.015": 0.0,
			"0.016": 0.0,
			"0.017": 0.0,
			"0.018": 0.0,
			"0.019": 0.0,
			"0.02": 0.0,
			"0.021": 0.0,
			"0.022": 0.0,
			"0.023": 0.0,
			"0.024": 0.0,
			"0.025": 0.0
		}
	}
}
