{
	 "smiles": "CC1C(=O)C23C(O)C1(O)CC(OC(C)=O)C2C1(C)C(CCC(C)(C)C1CC3O)OC(C)=O", 
	 "Tm": 507.15, 
	 "num_atms": 68, 
	 "gaussian": { 
		 "optdone": 1, 
		 "sigma_profile": "yes", 
		 "theory": "DFT", 
		 "functional": "B3LYP", 
		 "basiset": "6-31G**", 
		 "properties": { 
			 "R2extent": 12495.6203, 
			 "electric_dipole_moment_norm": 5.36664239632, 
			 "electric_quadrupole_moment_norm": 23.1219914891, 
			 "total_energy": -1538.0462766, 
			 "HOMO_LUMO_gap": 0.21436, 
			 "cosmo_polarized_energy": -24.06, 
			 "cosmo_cavitation_energy": 57.94, 
			 "cosmo_dispersion_energy": -37.79, 
			 "cosmo_repulsion_energy": 2.71, 
			 "cosmo_total_nonelectrostatic_energy": 22.85, 
			 "SMD_solvation_energy": 11.37 
		},
		"coords": [
			{
				"x": -3.0349827209,
				"y": 3.0947822915,
				"z": -3.6723591729,
				"element": "C" 
			},
			{
				"x": -2.1555758517,
				"y": 2.0136158416,
				"z": -3.0239573693,
				"element": "C" 
			},
			{
				"x": -0.9457466068,
				"y": 2.6298402355,
				"z": -2.295302432,
				"element": "C" 
			},
			{
				"x": -0.0708505383,
				"y": 3.2856576057,
				"z": -2.8157156995,
				"element": "O" 
			},
			{
				"x": -1.0029723836,
				"y": 2.2961708062,
				"z": -0.7601079499,
				"element": "C" 
			},
			{
				"x": -2.5446024016,
				"y": 2.0973575613,
				"z": -0.6759149444,
				"element": "C" 
			},
			{
				"x": -3.1588798279,
				"y": 1.5320937515,
				"z": 0.4723063932,
				"element": "O" 
			},
			{
				"x": -2.8337645114,
				"y": 1.2066589338,
				"z": -1.8891420359,
				"element": "C" 
			},
			{
				"x": -4.2210138264,
				"y": 1.0504197144,
				"z": -2.1104980335,
				"element": "O" 
			},
			{
				"x": -2.1475398647,
				"y": -0.1668882522,
				"z": -1.6834073165,
				"element": "C" 
			},
			{
				"x": -0.625784406,
				"y": 0.0014190889,
				"z": -1.6179818878,
				"element": "C" 
			},
			{
				"x": 0.0501425006,
				"y": -1.2798407635,
				"z": -1.6410147339,
				"element": "O" 
			},
			{
				"x": 0.3161456401,
				"y": -1.7619492812,
				"z": -2.8917320664,
				"element": "C" 
			},
			{
				"x": 1.0054572034,
				"y": -3.1011951691,
				"z": -2.8451068463,
				"element": "C" 
			},
			{
				"x": 0.0166513368,
				"y": -1.1794283836,
				"z": -3.9124932858,
				"element": "O" 
			},
			{
				"x": -0.0995535309,
				"y": 1.0032002104,
				"z": -0.5455610819,
				"element": "C" 
			},
			{
				"x": 0.2441228372,
				"y": 0.6430318755,
				"z": 0.9744716249,
				"element": "C" 
			},
			{
				"x": -0.9610973938,
				"y": 0.2075093568,
				"z": 1.8366276265,
				"element": "C" 
			},
			{
				"x": 1.2937034962,
				"y": -0.5142382837,
				"z": 1.0378158096,
				"element": "C" 
			},
			{
				"x": 2.1152976432,
				"y": -0.566363594,
				"z": 2.3334399112,
				"element": "C" 
			},
			{
				"x": 2.7885742585,
				"y": 0.7551225381,
				"z": 2.6782220615,
				"element": "C" 
			},
			{
				"x": 1.7868248087,
				"y": 1.919802025,
				"z": 2.818998932,
				"element": "C" 
			},
			{
				"x": 2.6211201301,
				"y": 3.2158934734,
				"z": 2.9509339007,
				"element": "C" 
			},
			{
				"x": 0.9472709511,
				"y": 1.7796024709,
				"z": 4.1058695854,
				"element": "C" 
			},
			{
				"x": 0.9446820751,
				"y": 1.9733334739,
				"z": 1.4978914669,
				"element": "C" 
			},
			{
				"x": -0.049629613,
				"y": 3.1462142655,
				"z": 1.4564592021,
				"element": "C" 
			},
			{
				"x": -0.4520268078,
				"y": 3.4910744407,
				"z": 0.025689191,
				"element": "C" 
			},
			{
				"x": -1.4495625362,
				"y": 4.5191987696,
				"z": 0.0023090604,
				"element": "O" 
			},
			{
				"x": 0.5691308834,
				"y": -1.7747410338,
				"z": 0.9815997991,
				"element": "O" 
			},
			{
				"x": 1.2289479039,
				"y": -2.8673756702,
				"z": 0.5640677527,
				"element": "C" 
			},
			{
				"x": 0.3334704899,
				"y": -4.0833364215,
				"z": 0.6323232442,
				"element": "C" 
			},
			{
				"x": 2.3857407155,
				"y": -2.8726414509,
				"z": 0.1898472795,
				"element": "O" 
			},
			{
				"x": -2.43726913,
				"y": 3.6616142358,
				"z": -4.3911570089,
				"element": "H" 
			},
			{
				"x": -3.4383069054,
				"y": 3.797083207,
				"z": -2.9374867531,
				"element": "H" 
			},
			{
				"x": -3.8766120906,
				"y": 2.6302945377,
				"z": -4.1897541193,
				"element": "H" 
			},
			{
				"x": -1.7831647176,
				"y": 1.3586091663,
				"z": -3.8203888373,
				"element": "H" 
			},
			{
				"x": -2.9896533753,
				"y": 3.0798135228,
				"z": -0.8606595354,
				"element": "H" 
			},
			{
				"x": -3.3359677519,
				"y": 2.2482280261,
				"z": 1.094265786,
				"element": "H" 
			},
			{
				"x": -4.6032661963,
				"y": 0.8613535061,
				"z": -1.2401718918,
				"element": "H" 
			},
			{
				"x": -2.5406213205,
				"y": -0.639973118,
				"z": -0.7776789002,
				"element": "H" 
			},
			{
				"x": -2.3967038337,
				"y": -0.803446106,
				"z": -2.5376458091,
				"element": "H" 
			},
			{
				"x": -0.3312209318,
				"y": 0.4553712463,
				"z": -2.5644615327,
				"element": "H" 
			},
			{
				"x": 1.3250552434,
				"y": -3.3650340369,
				"z": -3.8528467424,
				"element": "H" 
			},
			{
				"x": 0.3059614016,
				"y": -3.8616256377,
				"z": -2.4823087892,
				"element": "H" 
			},
			{
				"x": 1.8548376369,
				"y": -3.0822723989,
				"z": -2.1591843523,
				"element": "H" 
			},
			{
				"x": 0.8802029564,
				"y": 1.3044216795,
				"z": -0.9415152774,
				"element": "H" 
			},
			{
				"x": -1.5842334575,
				"y": -0.5071916763,
				"z": 1.3013957625,
				"element": "H" 
			},
			{
				"x": -0.622303329,
				"y": -0.2892959408,
				"z": 2.7474995055,
				"element": "H" 
			},
			{
				"x": -1.5989988945,
				"y": 1.0378145914,
				"z": 2.1217132772,
				"element": "H" 
			},
			{
				"x": 1.9692015782,
				"y": -0.4718280669,
				"z": 0.1780326187,
				"element": "H" 
			},
			{
				"x": 2.86365615,
				"y": -1.354940216,
				"z": 2.2140818721,
				"element": "H" 
			},
			{
				"x": 1.4567068223,
				"y": -0.8807441791,
				"z": 3.1505478309,
				"element": "H" 
			},
			{
				"x": 3.365415136,
				"y": 0.6470169982,
				"z": 3.6052999991,
				"element": "H" 
			},
			{
				"x": 3.5151119667,
				"y": 1.0095670809,
				"z": 1.8934589805,
				"element": "H" 
			},
			{
				"x": 3.1676305653,
				"y": 3.4392963263,
				"z": 2.0275046926,
				"element": "H" 
			},
			{
				"x": 3.359688459,
				"y": 3.0994420855,
				"z": 3.7518024669,
				"element": "H" 
			},
			{
				"x": 2.011482405,
				"y": 4.0883614777,
				"z": 3.2040961197,
				"element": "H" 
			},
			{
				"x": 0.2091468658,
				"y": 2.584159016,
				"z": 4.1881867725,
				"element": "H" 
			},
			{
				"x": 0.4096883736,
				"y": 0.8324706315,
				"z": 4.1702363905,
				"element": "H" 
			},
			{
				"x": 1.6002336969,
				"y": 1.846949582,
				"z": 4.9835719217,
				"element": "H" 
			},
			{
				"x": 1.7069719998,
				"y": 2.1975551824,
				"z": 0.7348283895,
				"element": "H" 
			},
			{
				"x": 0.4002991162,
				"y": 4.0400512832,
				"z": 1.9012355176,
				"element": "H" 
			},
			{
				"x": -0.9478558435,
				"y": 2.9336859517,
				"z": 2.0443136767,
				"element": "H" 
			},
			{
				"x": 0.4396177796,
				"y": 3.8311650345,
				"z": -0.5216786558,
				"element": "H" 
			},
			{
				"x": -1.0199864602,
				"y": 5.3519756842,
				"z": 0.2330610972,
				"element": "H" 
			},
			{
				"x": -0.5730389769,
				"y": -3.9092914058,
				"z": 0.0462593278,
				"element": "H" 
			},
			{
				"x": 0.8681402098,
				"y": -4.954762243,
				"z": 0.2552554721,
				"element": "H" 
			},
			{
				"x": 0.0238547993,
				"y": -4.2598954541,
				"z": 1.666912743,
				"element": "H" 
			}
		],
		 "valence_orbital": [ 
			{
				"type": "occ",
				"energy": -0.27378,
				"method": "rhf"
			},
			{
				"type": "occ",
				"energy": -0.27135,
				"method": "rhf"
			},
			{
				"type": "occ",
				"energy": -0.2656,
				"method": "rhf"
			},
			{
				"type": "occ",
				"energy": -0.26195,
				"method": "rhf"
			},
			{
				"type": "occ",
				"energy": -0.23838,
				"method": "rhf"
			},
			{
				"type": "unocc",
				"energy": -0.02402,
				"method": "rhf"
			},
			{
				"type": "unocc",
				"energy": 0.01063,
				"method": "rhf"
			},
			{
				"type": "unocc",
				"energy": 0.01334,
				"method": "rhf"
			},
			{
				"type": "unocc",
				"energy": 0.04499,
				"method": "rhf"
			},
			{
				"type": "unocc",
				"energy": 0.06369,
				"method": "rhf"
			}
		],
		"cosmo_sigma_profile": { 
			"-0.025": 0.0,
			"-0.024": 0.0,
			"-0.023": 0.0,
			"-0.022": 0.0,
			"-0.021": 0.0,
			"-0.02": 0.0,
			"-0.019": 0.0,
			"-0.018": 0.0,
			"-0.017": 0.0,
			"-0.016": 0.457282996742,
			"-0.015": 1.66271207279,
			"-0.014": 2.17699412164,
			"-0.013": 1.17030571929,
			"-0.012": 2.7662166795,
			"-0.011": 2.56445153106,
			"-0.01": 1.51084604517,
			"-0.009": 2.69993498958,
			"-0.008": 3.7247930272,
			"-0.007": 3.88711341713,
			"-0.006": 11.2158635664,
			"-0.005": 19.2528650523,
			"-0.004": 31.2227458188,
			"-0.003": 47.2967449759,
			"-0.002": 61.2336404501,
			"-0.001": 50.8327368743,
			"0.0": 43.0507676877,
			"0.001": 33.5413031911,
			"0.002": 22.0211477381,
			"0.003": 12.8872412261,
			"0.004": 11.8408271552,
			"0.005": 12.5474693097,
			"0.006": 9.39049075686,
			"0.007": 8.84644105916,
			"0.008": 7.32582953034,
			"0.009": 9.21587785885,
			"0.01": 8.88125105452,
			"0.011": 10.2073686049,
			"0.012": 9.28071727939,
			"0.013": 3.07562800157,
			"0.014": 0.50218238162,
			"0.015": 0.0,
			"0.016": 0.0,
			"0.017": 0.0,
			"0.018": 0.0,
			"0.019": 0.0,
			"0.02": 0.0,
			"0.021": 0.0,
			"0.022": 0.0,
			"0.023": 0.0,
			"0.024": 0.0,
			"0.025": 0.0
		}
	}
}
