{
	 "smiles": "COC1=C(C=CC=C1)N1N=NN=C1S", 
	 "Tm": 427.15, 
	 "num_atms": 22, 
	 "gaussian": { 
		 "optdone": 1, 
		 "sigma_profile": "yes", 
		 "theory": "DFT", 
		 "functional": "B3LYP", 
		 "basiset": "6-31G**", 
		 "properties": { 
			 "R2extent": 3962.2933, 
			 "electric_dipole_moment_norm": 8.05043820484, 
			 "electric_quadrupole_moment_norm": 24.6011533459, 
			 "total_energy": -1002.0067971, 
			 "HOMO_LUMO_gap": 0.20652, 
			 "cosmo_polarized_energy": -16.06, 
			 "cosmo_cavitation_energy": 28.27, 
			 "cosmo_dispersion_energy": -20.63, 
			 "cosmo_repulsion_energy": 1.57, 
			 "cosmo_total_nonelectrostatic_energy": 9.21, 
			 "SMD_solvation_energy": 3.22 
		},
		"coords": [
			{
				"x": -0.664398457,
				"y": 0.9649569633,
				"z": -2.2468516552,
				"element": "C" 
			},
			{
				"x": -1.1093757621,
				"y": 0.8235680459,
				"z": -0.8987864717,
				"element": "O" 
			},
			{
				"x": -0.3330925863,
				"y": 0.1174408891,
				"z": -0.0261333832,
				"element": "C" 
			},
			{
				"x": -0.7040828291,
				"y": 0.1721830609,
				"z": 1.3321979142,
				"element": "C" 
			},
			{
				"x": 0.0401824616,
				"y": -0.5096028326,
				"z": 2.2942212727,
				"element": "C" 
			},
			{
				"x": 1.1531504056,
				"y": -1.2608444231,
				"z": 1.9205575468,
				"element": "C" 
			},
			{
				"x": 1.5150315356,
				"y": -1.326379293,
				"z": 0.5762725491,
				"element": "C" 
			},
			{
				"x": 0.7795887247,
				"y": -0.6449916634,
				"z": -0.3956089261,
				"element": "C" 
			},
			{
				"x": -1.7976235646,
				"y": 0.9786120207,
				"z": 1.7613024993,
				"element": "N" 
			},
			{
				"x": -1.6063451665,
				"y": 1.9368398251,
				"z": 2.7185240552,
				"element": "N" 
			},
			{
				"x": -2.7663784896,
				"y": 2.4353745842,
				"z": 2.975742139,
				"element": "N" 
			},
			{
				"x": -3.7362138501,
				"y": 1.8632147651,
				"z": 2.2153218895,
				"element": "N" 
			},
			{
				"x": -3.1278767693,
				"y": 0.960314787,
				"z": 1.4675129718,
				"element": "C" 
			},
			{
				"x": -3.9774295588,
				"y": -0.1506829681,
				"z": 0.4013824681,
				"element": "S" 
			},
			{
				"x": -1.3795354746,
				"y": 1.6344895017,
				"z": -2.7252561169,
				"element": "H" 
			},
			{
				"x": 0.3362655903,
				"y": 1.4092506943,
				"z": -2.2852280222,
				"element": "H" 
			},
			{
				"x": -0.6586206862,
				"y": 0.0025765712,
				"z": -2.7720894207,
				"element": "H" 
			},
			{
				"x": -0.2622945845,
				"y": -0.4296174322,
				"z": 3.3324171454,
				"element": "H" 
			},
			{
				"x": 1.7282480577,
				"y": -1.7886404924,
				"z": 2.6736897381,
				"element": "H" 
			},
			{
				"x": 2.3777813182,
				"y": -1.9109349964,
				"z": 0.2715567568,
				"element": "H" 
			},
			{
				"x": 1.0798054869,
				"y": -0.7040258515,
				"z": -1.4346340675,
				"element": "H" 
			},
			{
				"x": -3.055185802,
				"y": -0.0993017558,
				"z": -0.5821108825,
				"element": "H" 
			}
		],
		 "valence_orbital": [ 
			{
				"type": "occ",
				"energy": -0.29264,
				"method": "rhf"
			},
			{
				"type": "occ",
				"energy": -0.28665,
				"method": "rhf"
			},
			{
				"type": "occ",
				"energy": -0.27056,
				"method": "rhf"
			},
			{
				"type": "occ",
				"energy": -0.25461,
				"method": "rhf"
			},
			{
				"type": "occ",
				"energy": -0.24901,
				"method": "rhf"
			},
			{
				"type": "unocc",
				"energy": -0.04249,
				"method": "rhf"
			},
			{
				"type": "unocc",
				"energy": -0.01936,
				"method": "rhf"
			},
			{
				"type": "unocc",
				"energy": -0.0117,
				"method": "rhf"
			},
			{
				"type": "unocc",
				"energy": 0.0153,
				"method": "rhf"
			},
			{
				"type": "unocc",
				"energy": 0.03398,
				"method": "rhf"
			}
		],
		"cosmo_sigma_profile": { 
			"-0.025": 0.0,
			"-0.024": 0.0,
			"-0.023": 0.0,
			"-0.022": 0.0,
			"-0.021": 0.0,
			"-0.02": 0.0,
			"-0.019": 0.0,
			"-0.018": 0.0,
			"-0.017": 0.0,
			"-0.016": 0.0,
			"-0.015": 0.0,
			"-0.014": 0.0,
			"-0.013": 0.0,
			"-0.012": 0.0,
			"-0.011": 0.353489151286,
			"-0.01": 1.19628866515,
			"-0.009": 0.599748077465,
			"-0.008": 2.68316038485,
			"-0.007": 11.3155176637,
			"-0.006": 20.5053908704,
			"-0.005": 20.5534826987,
			"-0.004": 19.1249911139,
			"-0.003": 14.8532648213,
			"-0.002": 12.5829282854,
			"-0.001": 11.5906177392,
			"0.0": 15.0884983925,
			"0.001": 13.817018158,
			"0.002": 14.7044140348,
			"0.003": 16.5369590784,
			"0.004": 11.6580579456,
			"0.005": 5.84441058708,
			"0.006": 6.96141218258,
			"0.007": 5.36559968835,
			"0.008": 5.37899401569,
			"0.009": 4.62000014639,
			"0.01": 4.29170011376,
			"0.011": 4.32104146525,
			"0.012": 2.52729644311,
			"0.013": 2.24609743998,
			"0.014": 1.16384160964,
			"0.015": 0.243266765555,
			"0.016": 0.0,
			"0.017": 0.0,
			"0.018": 0.0,
			"0.019": 0.0,
			"0.02": 0.0,
			"0.021": 0.0,
			"0.022": 0.0,
			"0.023": 0.0,
			"0.024": 0.0,
			"0.025": 0.0
		}
	}
}
