{
	 "smiles": "CC(C)(C)C1CCC(O)CC1", 
	 "Tm": 339.15, 
	 "num_atms": 31, 
	 "gaussian": { 
		 "optdone": 1, 
		 "sigma_profile": "yes", 
		 "theory": "DFT", 
		 "functional": "B3LYP", 
		 "basiset": "6-31G**", 
		 "properties": { 
			 "R2extent": 2564.7669, 
			 "electric_dipole_moment_norm": 1.5178171629, 
			 "electric_quadrupole_moment_norm": 8.42818438218, 
			 "total_energy": -468.362988099, 
			 "HOMO_LUMO_gap": 0.33129, 
			 "cosmo_polarized_energy": -5.94, 
			 "cosmo_cavitation_energy": 29.05, 
			 "cosmo_dispersion_energy": -21.03, 
			 "cosmo_repulsion_energy": 1.67, 
			 "cosmo_total_nonelectrostatic_energy": 9.69, 
			 "SMD_solvation_energy": 4.33 
		},
		"coords": [
			{
				"x": -0.3778836044,
				"y": 1.4063192402,
				"z": -1.752244283,
				"element": "C" 
			},
			{
				"x": -0.5080690692,
				"y": 0.9333363155,
				"z": -0.2874465119,
				"element": "C" 
			},
			{
				"x": -2.0059446345,
				"y": 0.7992577082,
				"z": 0.0572945702,
				"element": "C" 
			},
			{
				"x": 0.1090747847,
				"y": 2.0299288621,
				"z": 0.608535349,
				"element": "C" 
			},
			{
				"x": 0.2743032129,
				"y": -0.4128348669,
				"z": -0.0931147458,
				"element": "C" 
			},
			{
				"x": -0.1975245693,
				"y": -1.5595751787,
				"z": -1.0156720643,
				"element": "C" 
			},
			{
				"x": 0.6699197766,
				"y": -2.8190095064,
				"z": -0.8571834381,
				"element": "C" 
			},
			{
				"x": 0.7061265381,
				"y": -3.307662376,
				"z": 0.5940799903,
				"element": "C" 
			},
			{
				"x": 1.5996634781,
				"y": -4.4043598341,
				"z": 0.7710692349,
				"element": "O" 
			},
			{
				"x": 1.1721679602,
				"y": -2.1870837634,
				"z": 1.5189508958,
				"element": "C" 
			},
			{
				"x": 0.3083859884,
				"y": -0.9253058098,
				"z": 1.3648413006,
				"element": "C" 
			},
			{
				"x": -0.8896617911,
				"y": 0.739502191,
				"z": -2.4522684269,
				"element": "H" 
			},
			{
				"x": 0.6733771951,
				"y": 1.4720189521,
				"z": -2.0567782156,
				"element": "H" 
			},
			{
				"x": -0.8199835711,
				"y": 2.4016921151,
				"z": -1.8716606764,
				"element": "H" 
			},
			{
				"x": -2.1610612002,
				"y": 0.5024402404,
				"z": 1.099480156,
				"element": "H" 
			},
			{
				"x": -2.5093543842,
				"y": 0.0658706852,
				"z": -0.5808451829,
				"element": "H" 
			},
			{
				"x": -2.5141346161,
				"y": 1.7594219365,
				"z": -0.0870711665,
				"element": "H" 
			},
			{
				"x": -0.0421130104,
				"y": 1.8309339728,
				"z": 1.6734067326,
				"element": "H" 
			},
			{
				"x": -0.3498744638,
				"y": 3.0010178457,
				"z": 0.3921265641,
				"element": "H" 
			},
			{
				"x": 1.187141752,
				"y": 2.1264737154,
				"z": 0.4334749265,
				"element": "H" 
			},
			{
				"x": 1.3167900496,
				"y": -0.189852722,
				"z": -0.3740082884,
				"element": "H" 
			},
			{
				"x": -1.2408749005,
				"y": -1.8130288603,
				"z": -0.7827207541,
				"element": "H" 
			},
			{
				"x": -0.1818002553,
				"y": -1.2476382329,
				"z": -2.064238886,
				"element": "H" 
			},
			{
				"x": 0.2949426257,
				"y": -3.6177983291,
				"z": -1.5127396228,
				"element": "H" 
			},
			{
				"x": 1.7015069942,
				"y": -2.609811,
				"z": -1.1705369482,
				"element": "H" 
			},
			{
				"x": -0.3175580004,
				"y": -3.6017523461,
				"z": 0.8904106161,
				"element": "H" 
			},
			{
				"x": 1.3240229658,
				"y": -5.1092600577,
				"z": 0.170664274,
				"element": "H" 
			},
			{
				"x": 2.2189012697,
				"y": -1.9605498516,
				"z": 1.2758237998,
				"element": "H" 
			},
			{
				"x": 1.1582850823,
				"y": -2.5415090717,
				"z": 2.5557161218,
				"element": "H" 
			},
			{
				"x": -0.713888991,
				"y": -1.1484984229,
				"z": 1.7000031405,
				"element": "H" 
			},
			{
				"x": 0.6921173884,
				"y": -0.1527835505,
				"z": 2.0377515385,
				"element": "H" 
			}
		],
		 "valence_orbital": [ 
			{
				"type": "occ",
				"energy": -0.31235,
				"method": "rhf"
			},
			{
				"type": "occ",
				"energy": -0.30588,
				"method": "rhf"
			},
			{
				"type": "occ",
				"energy": -0.29476,
				"method": "rhf"
			},
			{
				"type": "occ",
				"energy": -0.28574,
				"method": "rhf"
			},
			{
				"type": "occ",
				"energy": -0.25647,
				"method": "rhf"
			},
			{
				"type": "unocc",
				"energy": 0.07482,
				"method": "rhf"
			},
			{
				"type": "unocc",
				"energy": 0.08203,
				"method": "rhf"
			},
			{
				"type": "unocc",
				"energy": 0.10381,
				"method": "rhf"
			},
			{
				"type": "unocc",
				"energy": 0.11218,
				"method": "rhf"
			},
			{
				"type": "unocc",
				"energy": 0.12394,
				"method": "rhf"
			}
		],
		"cosmo_sigma_profile": { 
			"-0.025": 0.0,
			"-0.024": 0.0,
			"-0.023": 0.0,
			"-0.022": 0.0,
			"-0.021": 0.0,
			"-0.02": 0.0,
			"-0.019": 0.0,
			"-0.018": 0.0,
			"-0.017": 0.0,
			"-0.016": 0.0,
			"-0.015": 0.30059205435,
			"-0.014": 1.04091317709,
			"-0.013": 0.93763046908,
			"-0.012": 0.860195317224,
			"-0.011": 0.759054670091,
			"-0.01": 1.1167509631,
			"-0.009": 0.836722689873,
			"-0.008": 0.900078018759,
			"-0.007": 1.06444107354,
			"-0.006": 0.902771979989,
			"-0.005": 1.20235083076,
			"-0.004": 1.42732549357,
			"-0.003": 7.16351612488,
			"-0.002": 40.2579815638,
			"-0.001": 48.7397738619,
			"0.0": 40.2582341149,
			"0.001": 32.1631665616,
			"0.002": 20.0823018626,
			"0.003": 3.84897359693,
			"0.004": 1.73540617429,
			"0.005": 1.70683783206,
			"0.006": 1.09670216139,
			"0.007": 1.39936844782,
			"0.008": 0.875395602146,
			"0.009": 1.26374525574,
			"0.01": 1.33873423265,
			"0.011": 1.75625541962,
			"0.012": 1.55086911115,
			"0.013": 0.708444376784,
			"0.014": 2.26165849512,
			"0.015": 1.66340899035,
			"0.016": 0.000581541753896,
			"0.017": 0.0,
			"0.018": 0.0,
			"0.019": 0.0,
			"0.02": 0.0,
			"0.021": 0.0,
			"0.022": 0.0,
			"0.023": 0.0,
			"0.024": 0.0,
			"0.025": 0.0
		}
	}
}
