{
	 "smiles": "OCCCN1C(=O)C2=CC=CC=C2C1=O", 
	 "Tm": 351.15, 
	 "num_atms": 26, 
	 "gaussian": { 
		 "optdone": 1, 
		 "sigma_profile": "yes", 
		 "theory": "DFT", 
		 "functional": "B3LYP", 
		 "basiset": "6-31G**", 
		 "properties": { 
			 "R2extent": 3883.6123, 
			 "electric_dipole_moment_norm": 4.40027877071, 
			 "electric_quadrupole_moment_norm": 17.7464601718, 
			 "total_energy": -706.25617699, 
			 "HOMO_LUMO_gap": 0.16001, 
			 "cosmo_polarized_energy": -12.19, 
			 "cosmo_cavitation_energy": 29.47, 
			 "cosmo_dispersion_energy": -21.41, 
			 "cosmo_repulsion_energy": 1.65, 
			 "cosmo_total_nonelectrostatic_energy": 9.71, 
			 "SMD_solvation_energy": 5.61 
		},
		"coords": [
			{
				"x": -0.0699506524,
				"y": 1.7574919422,
				"z": -2.2273023001,
				"element": "O" 
			},
			{
				"x": -1.0836395897,
				"y": 1.2539941005,
				"z": -1.3782127472,
				"element": "C" 
			},
			{
				"x": -1.3874101457,
				"y": -0.2304384749,
				"z": -1.6310859244,
				"element": "C" 
			},
			{
				"x": -0.1550078136,
				"y": -1.1405012223,
				"z": -1.5579421199,
				"element": "C" 
			},
			{
				"x": 0.4939881361,
				"y": -1.1709263306,
				"z": -0.2465207615,
				"element": "N" 
			},
			{
				"x": 1.5133710812,
				"y": -0.3060632008,
				"z": 0.1531027086,
				"element": "C" 
			},
			{
				"x": 1.9646086913,
				"y": 0.6175359351,
				"z": -0.508949135,
				"element": "O" 
			},
			{
				"x": 1.9161203131,
				"y": -0.7417893289,
				"z": 1.5212599674,
				"element": "C" 
			},
			{
				"x": 2.878126902,
				"y": -0.2287699361,
				"z": 2.3787417858,
				"element": "C" 
			},
			{
				"x": 3.029936472,
				"y": -0.8556923192,
				"z": 3.6232361133,
				"element": "C" 
			},
			{
				"x": 2.2386872793,
				"y": -1.9546772276,
				"z": 3.981052091,
				"element": "C" 
			},
			{
				"x": 1.2688681202,
				"y": -2.4645689753,
				"z": 3.1065614154,
				"element": "C" 
			},
			{
				"x": 1.1265934468,
				"y": -1.8374415582,
				"z": 1.8778664177,
				"element": "C" 
			},
			{
				"x": 0.2047897283,
				"y": -2.1350217199,
				"z": 0.741617338,
				"element": "C" 
			},
			{
				"x": -0.6263467827,
				"y": -3.0131356202,
				"z": 0.6359724965,
				"element": "O" 
			},
			{
				"x": 0.7799836785,
				"y": 1.5063455331,
				"z": -1.8293368293,
				"element": "H" 
			},
			{
				"x": -0.8313098527,
				"y": 1.4094553903,
				"z": -0.317361947,
				"element": "H" 
			},
			{
				"x": -1.9899921211,
				"y": 1.8384531521,
				"z": -1.5736254254,
				"element": "H" 
			},
			{
				"x": -1.8047495915,
				"y": -0.3403256317,
				"z": -2.6392965927,
				"element": "H" 
			},
			{
				"x": -2.1493042954,
				"y": -0.5800839521,
				"z": -0.9232742925,
				"element": "H" 
			},
			{
				"x": -0.4316057792,
				"y": -2.1713140961,
				"z": -1.7906139941,
				"element": "H" 
			},
			{
				"x": 0.5928602743,
				"y": -0.8052918102,
				"z": -2.2810620986,
				"element": "H" 
			},
			{
				"x": 3.4855417424,
				"y": 0.6231211937,
				"z": 2.0909995571,
				"element": "H" 
			},
			{
				"x": 3.7726979803,
				"y": -0.4846406907,
				"z": 4.3229631023,
				"element": "H" 
			},
			{
				"x": 2.3805208136,
				"y": -2.4180639317,
				"z": 4.9527629311,
				"element": "H" 
			},
			{
				"x": 0.6507219646,
				"y": -3.3155512205,
				"z": 3.3735482433,
				"element": "H" 
			}
		],
		 "valence_orbital": [ 
			{
				"type": "occ",
				"energy": -0.29351,
				"method": "rhf"
			},
			{
				"type": "occ",
				"energy": -0.28462,
				"method": "rhf"
			},
			{
				"type": "occ",
				"energy": -0.27775,
				"method": "rhf"
			},
			{
				"type": "occ",
				"energy": -0.27327,
				"method": "rhf"
			},
			{
				"type": "occ",
				"energy": -0.25089,
				"method": "rhf"
			},
			{
				"type": "unocc",
				"energy": -0.09088,
				"method": "rhf"
			},
			{
				"type": "unocc",
				"energy": -0.0476,
				"method": "rhf"
			},
			{
				"type": "unocc",
				"energy": 0.02024,
				"method": "rhf"
			},
			{
				"type": "unocc",
				"energy": 0.06472,
				"method": "rhf"
			},
			{
				"type": "unocc",
				"energy": 0.08059,
				"method": "rhf"
			}
		],
		"cosmo_sigma_profile": { 
			"-0.025": 0.0,
			"-0.024": 0.0,
			"-0.023": 0.0,
			"-0.022": 0.0,
			"-0.021": 0.0,
			"-0.02": 0.0,
			"-0.019": 0.0,
			"-0.018": 0.0,
			"-0.017": 0.0,
			"-0.016": 0.0,
			"-0.015": 0.0,
			"-0.014": 0.0,
			"-0.013": 0.0,
			"-0.012": 0.0,
			"-0.011": 0.0,
			"-0.01": 0.0,
			"-0.009": 0.0,
			"-0.008": 2.41543341691,
			"-0.007": 7.77190823342,
			"-0.006": 11.9812655672,
			"-0.005": 16.6554523415,
			"-0.004": 23.6262830873,
			"-0.003": 27.958586838,
			"-0.002": 22.0450938371,
			"-0.001": 20.9316433733,
			"0.0": 17.2138590728,
			"0.001": 16.8398902508,
			"0.002": 16.0355331603,
			"0.003": 5.37746467883,
			"0.004": 4.51173759035,
			"0.005": 3.99210461795,
			"0.006": 3.43484304563,
			"0.007": 4.34133736229,
			"0.008": 4.48305261543,
			"0.009": 4.09895910451,
			"0.01": 5.82788285866,
			"0.011": 7.12239021674,
			"0.012": 2.64946559443,
			"0.013": 0.83021554224,
			"0.014": 2.04250005499,
			"0.015": 2.18139025034,
			"0.016": 0.181392177987,
			"0.017": 0.0,
			"0.018": 0.0,
			"0.019": 0.0,
			"0.02": 0.0,
			"0.021": 0.0,
			"0.022": 0.0,
			"0.023": 0.0,
			"0.024": 0.0,
			"0.025": 0.0
		}
	}
}
