{
	 "smiles": "NC(CC1=CC=CC=C1)=NO", 
	 "Tm": 339.65, 
	 "num_atms": 21, 
	 "gaussian": { 
		 "optdone": 1, 
		 "sigma_profile": "yes", 
		 "theory": "DFT", 
		 "functional": "B3LYP", 
		 "basiset": "6-31G**", 
		 "properties": { 
			 "R2extent": 2244.7754, 
			 "electric_dipole_moment_norm": 1.77192526366, 
			 "electric_quadrupole_moment_norm": 5.80601329744, 
			 "total_energy": -495.559350317, 
			 "HOMO_LUMO_gap": 0.20145, 
			 "cosmo_polarized_energy": -11.25, 
			 "cosmo_cavitation_energy": 25.01, 
			 "cosmo_dispersion_energy": -18.12, 
			 "cosmo_repulsion_energy": 1.49, 
			 "cosmo_total_nonelectrostatic_energy": 8.38, 
			 "SMD_solvation_energy": 3.99 
		},
		"coords": [
			{
				"x": 1.4146946573,
				"y": 1.6259749088,
				"z": 0.3138453856,
				"element": "N" 
			},
			{
				"x": 1.2468143389,
				"y": 0.8596171739,
				"z": 1.4453881674,
				"element": "C" 
			},
			{
				"x": -0.1621787103,
				"y": 0.6407566991,
				"z": 1.9430121541,
				"element": "C" 
			},
			{
				"x": -1.0375792775,
				"y": -0.0936530899,
				"z": 0.9404847006,
				"element": "C" 
			},
			{
				"x": -2.1459716635,
				"y": 0.5285400577,
				"z": 0.3541898477,
				"element": "C" 
			},
			{
				"x": -2.9429597714,
				"y": -0.1526185764,
				"z": -0.5704846493,
				"element": "C" 
			},
			{
				"x": -2.6378457231,
				"y": -1.4674186342,
				"z": -0.9207610926,
				"element": "C" 
			},
			{
				"x": -1.5317482306,
				"y": -2.0975623597,
				"z": -0.3426593955,
				"element": "C" 
			},
			{
				"x": -0.7382921359,
				"y": -1.4157002005,
				"z": 0.5781196091,
				"element": "C" 
			},
			{
				"x": 2.2052120453,
				"y": 0.3538538897,
				"z": 2.1458583229,
				"element": "N" 
			},
			{
				"x": 3.4566517291,
				"y": 0.6594431437,
				"z": 1.5229240076,
				"element": "O" 
			},
			{
				"x": 2.3383577437,
				"y": 1.5655886294,
				"z": -0.0930468877,
				"element": "H" 
			},
			{
				"x": 0.6533591003,
				"y": 1.5987767702,
				"z": -0.3496863144,
				"element": "H" 
			},
			{
				"x": -0.0870954231,
				"y": 0.0781061243,
				"z": 2.8777268706,
				"element": "H" 
			},
			{
				"x": -0.609911,
				"y": 1.6140457541,
				"z": 2.1774039426,
				"element": "H" 
			},
			{
				"x": -2.393413726,
				"y": 1.5509744947,
				"z": 0.6304622963,
				"element": "H" 
			},
			{
				"x": -3.8013486665,
				"y": 0.345119072,
				"z": -1.0129632431,
				"element": "H" 
			},
			{
				"x": -3.2565491205,
				"y": -1.9997236629,
				"z": -1.6374936088,
				"element": "H" 
			},
			{
				"x": -1.2887911988,
				"y": -3.1222707113,
				"z": -0.6098432532,
				"element": "H" 
			},
			{
				"x": 0.1251515362,
				"y": -1.9038077219,
				"z": 1.023046668,
				"element": "H" 
			},
			{
				"x": 4.0800434964,
				"y": 0.2103582391,
				"z": 2.105776472,
				"element": "H" 
			}
		],
		 "valence_orbital": [ 
			{
				"type": "occ",
				"energy": -0.30493,
				"method": "rhf"
			},
			{
				"type": "occ",
				"energy": -0.2666,
				"method": "rhf"
			},
			{
				"type": "occ",
				"energy": -0.25349,
				"method": "rhf"
			},
			{
				"type": "occ",
				"energy": -0.2466,
				"method": "rhf"
			},
			{
				"type": "occ",
				"energy": -0.20895,
				"method": "rhf"
			},
			{
				"type": "unocc",
				"energy": -0.0075,
				"method": "rhf"
			},
			{
				"type": "unocc",
				"energy": -0.00486,
				"method": "rhf"
			},
			{
				"type": "unocc",
				"energy": 0.04502,
				"method": "rhf"
			},
			{
				"type": "unocc",
				"energy": 0.07875,
				"method": "rhf"
			},
			{
				"type": "unocc",
				"energy": 0.0948,
				"method": "rhf"
			}
		],
		"cosmo_sigma_profile": { 
			"-0.025": 0.0,
			"-0.024": 0.0,
			"-0.023": 0.0,
			"-0.022": 0.0,
			"-0.021": 0.0,
			"-0.02": 0.0,
			"-0.019": 0.0,
			"-0.018": 0.0,
			"-0.017": 0.0983678459815,
			"-0.016": 0.901857492351,
			"-0.015": 0.810429780906,
			"-0.014": 1.20522603359,
			"-0.013": 0.670231207862,
			"-0.012": 0.91651179458,
			"-0.011": 1.61508236423,
			"-0.01": 2.91477346625,
			"-0.009": 2.84213444543,
			"-0.008": 2.6081383132,
			"-0.007": 3.17849346349,
			"-0.006": 8.15270370775,
			"-0.005": 16.3548179788,
			"-0.004": 15.4875229894,
			"-0.003": 16.4846244338,
			"-0.002": 13.557009073,
			"-0.001": 11.1752595715,
			"0.0": 10.6197488779,
			"0.001": 11.1280698642,
			"0.002": 10.0728207759,
			"0.003": 10.5631035053,
			"0.004": 10.9571608416,
			"0.005": 10.7117889673,
			"0.006": 10.0917436832,
			"0.007": 5.13415743392,
			"0.008": 4.16254685357,
			"0.009": 4.83113192253,
			"0.01": 3.11620370021,
			"0.011": 2.28528985675,
			"0.012": 1.86685317285,
			"0.013": 1.08336023871,
			"0.014": 1.28481415023,
			"0.015": 0.84494122983,
			"0.016": 0.0287719049103,
			"0.017": 0.0,
			"0.018": 0.0,
			"0.019": 0.0,
			"0.02": 0.0,
			"0.021": 0.0,
			"0.022": 0.0,
			"0.023": 0.0,
			"0.024": 0.0,
			"0.025": 0.0
		}
	}
}
