{
	 "smiles": "FC(F)(F)C1=C(NC2=NN=C(S)S2)C=CC=C1", 
	 "Tm": 471.15, 
	 "num_atms": 23, 
	 "gaussian": { 
		 "optdone": 1, 
		 "sigma_profile": "yes", 
		 "theory": "DFT", 
		 "functional": "B3LYP", 
		 "basiset": "6-31G**", 
		 "properties": { 
			 "R2extent": 6424.2128, 
			 "electric_dipole_moment_norm": 5.16179489519, 
			 "electric_quadrupole_moment_norm": 16.5071279549, 
			 "total_energy": -1606.68826799, 
			 "HOMO_LUMO_gap": 0.17128, 
			 "cosmo_polarized_energy": -13.15, 
			 "cosmo_cavitation_energy": 32.53, 
			 "cosmo_dispersion_energy": -24.29, 
			 "cosmo_repulsion_energy": 1.73, 
			 "cosmo_total_nonelectrostatic_energy": 9.97, 
			 "SMD_solvation_energy": 3.96 
		},
		"coords": [
			{
				"x": -0.267272719,
				"y": 0.2568904193,
				"z": -3.5933326412,
				"element": "F" 
			},
			{
				"x": 0.2517927178,
				"y": 0.0265993387,
				"z": -2.374572568,
				"element": "C" 
			},
			{
				"x": 1.6120655697,
				"y": 0.074995536,
				"z": -2.5098495628,
				"element": "F" 
			},
			{
				"x": -0.0449970809,
				"y": -1.2479046981,
				"z": -2.040464974,
				"element": "F" 
			},
			{
				"x": -0.2376562903,
				"y": 1.0090966508,
				"z": -1.3451999506,
				"element": "C" 
			},
			{
				"x": 0.2919721238,
				"y": 0.9995754811,
				"z": -0.0325304296,
				"element": "C" 
			},
			{
				"x": 1.329775042,
				"y": 0.1138856699,
				"z": 0.2831179496,
				"element": "N" 
			},
			{
				"x": 1.7266522906,
				"y": -0.3732002638,
				"z": 1.4999290133,
				"element": "C" 
			},
			{
				"x": 2.8976268941,
				"y": -0.9526827533,
				"z": 1.6285930483,
				"element": "N" 
			},
			{
				"x": 3.0789424534,
				"y": -1.5237329782,
				"z": 2.8525342679,
				"element": "N" 
			},
			{
				"x": 2.0758098476,
				"y": -1.3659180957,
				"z": 3.6595903096,
				"element": "C" 
			},
			{
				"x": 2.1301721297,
				"y": -1.8649850199,
				"z": 5.3554282829,
				"element": "S" 
			},
			{
				"x": 0.7314393839,
				"y": -0.4473826011,
				"z": 2.9536274224,
				"element": "S" 
			},
			{
				"x": -0.2242723472,
				"y": 1.9063201532,
				"z": 0.9048101509,
				"element": "C" 
			},
			{
				"x": -1.2543775082,
				"y": 2.7774467909,
				"z": 0.556573368,
				"element": "C" 
			},
			{
				"x": -1.7765044058,
				"y": 2.7832570483,
				"z": -0.7359318221,
				"element": "C" 
			},
			{
				"x": -1.25722238,
				"y": 1.9005502657,
				"z": -1.6808016492,
				"element": "C" 
			},
			{
				"x": 1.9344207896,
				"y": -0.1844193456,
				"z": -0.4725862979,
				"element": "H" 
			},
			{
				"x": 0.9353316752,
				"y": -2.4925700545,
				"z": 5.3729229312,
				"element": "H" 
			},
			{
				"x": 0.2021243437,
				"y": 1.9546615268,
				"z": 1.8995145105,
				"element": "H" 
			},
			{
				"x": -1.6337865498,
				"y": 3.4696049946,
				"z": 1.3022809463,
				"element": "H" 
			},
			{
				"x": -2.5731319999,
				"y": 3.4671132753,
				"z": -1.0085934536,
				"element": "H" 
			},
			{
				"x": -1.6463039798,
				"y": 1.8902986595,
				"z": -2.6921588519,
				"element": "H" 
			}
		],
		 "valence_orbital": [ 
			{
				"type": "occ",
				"energy": -0.29802,
				"method": "rhf"
			},
			{
				"type": "occ",
				"energy": -0.2837,
				"method": "rhf"
			},
			{
				"type": "occ",
				"energy": -0.27063,
				"method": "rhf"
			},
			{
				"type": "occ",
				"energy": -0.26537,
				"method": "rhf"
			},
			{
				"type": "occ",
				"energy": -0.2247,
				"method": "rhf"
			},
			{
				"type": "unocc",
				"energy": -0.05342,
				"method": "rhf"
			},
			{
				"type": "unocc",
				"energy": -0.04264,
				"method": "rhf"
			},
			{
				"type": "unocc",
				"energy": -0.0174,
				"method": "rhf"
			},
			{
				"type": "unocc",
				"energy": -0.00738,
				"method": "rhf"
			},
			{
				"type": "unocc",
				"energy": 0.01262,
				"method": "rhf"
			}
		],
		"cosmo_sigma_profile": { 
			"-0.025": 0.0,
			"-0.024": 0.0,
			"-0.023": 0.0,
			"-0.022": 0.0,
			"-0.021": 0.0,
			"-0.02": 0.0,
			"-0.019": 0.0,
			"-0.018": 0.0,
			"-0.017": 0.0,
			"-0.016": 0.0,
			"-0.015": 0.0,
			"-0.014": 0.0,
			"-0.013": 0.0,
			"-0.012": 1.9024566952,
			"-0.011": 3.05648875655,
			"-0.01": 3.09236374544,
			"-0.009": 3.10492138957,
			"-0.008": 2.86573094458,
			"-0.007": 8.81529714338,
			"-0.006": 13.0143481408,
			"-0.005": 11.3324925873,
			"-0.004": 11.0900869402,
			"-0.003": 14.0782669588,
			"-0.002": 20.4956277379,
			"-0.001": 24.9021668243,
			"0.0": 23.3516784332,
			"0.001": 26.8762184515,
			"0.002": 36.3093010298,
			"0.003": 24.5917678091,
			"0.004": 7.07322566505,
			"0.005": 3.74189206847,
			"0.006": 4.73381507311,
			"0.007": 4.24195279971,
			"0.008": 2.90350266987,
			"0.009": 2.93477755087,
			"0.01": 2.47650373664,
			"0.011": 3.24750956155,
			"0.012": 2.9491813268,
			"0.013": 2.4813978815,
			"0.014": 1.62084894414,
			"0.015": 0.0891748846472,
			"0.016": 0.0,
			"0.017": 0.0,
			"0.018": 0.0,
			"0.019": 0.0,
			"0.02": 0.0,
			"0.021": 0.0,
			"0.022": 0.0,
			"0.023": 0.0,
			"0.024": 0.0,
			"0.025": 0.0
		}
	}
}
