{
	 "smiles": "O=CCCCCC=O", 
	 "Tm": 265.15, 
	 "num_atms": 18, 
	 "gaussian": { 
		 "optdone": 1, 
		 "sigma_profile": "yes", 
		 "theory": "DFT", 
		 "functional": "B3LYP", 
		 "basiset": "6-31G**", 
		 "properties": { 
			 "R2extent": 1124.7258, 
			 "electric_dipole_moment_norm": 1.64404531264, 
			 "electric_quadrupole_moment_norm": 9.29288517308, 
			 "total_energy": -385.093740263, 
			 "HOMO_LUMO_gap": 0.23016, 
			 "cosmo_polarized_energy": -7.87, 
			 "cosmo_cavitation_energy": 20.45, 
			 "cosmo_dispersion_energy": -14.93, 
			 "cosmo_repulsion_energy": 1.27, 
			 "cosmo_total_nonelectrostatic_energy": 6.79, 
			 "SMD_solvation_energy": 4.79 
		},
		"coords": [
			{
				"x": -0.8896485113,
				"y": 1.5606908944,
				"z": -2.2076375011,
				"element": "O" 
			},
			{
				"x": -0.2658175826,
				"y": 0.6024341911,
				"z": -2.6162118465,
				"element": "C" 
			},
			{
				"x": -0.3536579795,
				"y": -0.7996256187,
				"z": -2.0641239733,
				"element": "C" 
			},
			{
				"x": -1.3054846122,
				"y": -0.9849746414,
				"z": -0.8734689649,
				"element": "C" 
			},
			{
				"x": -0.722570382,
				"y": -0.6867438235,
				"z": 0.521411781,
				"element": "C" 
			},
			{
				"x": -0.3534231937,
				"y": 0.7760251004,
				"z": 0.8077231032,
				"element": "C" 
			},
			{
				"x": 1.0225983232,
				"y": 1.2014034849,
				"z": 0.3561428292,
				"element": "C" 
			},
			{
				"x": 1.8393153009,
				"y": 0.4841739461,
				"z": -0.185071204,
				"element": "O" 
			},
			{
				"x": 0.4310913801,
				"y": 0.7139565996,
				"z": -3.4772204935,
				"element": "H" 
			},
			{
				"x": 0.6700089958,
				"y": -1.1113585977,
				"z": -1.8175430056,
				"element": "H" 
			},
			{
				"x": -0.6575135199,
				"y": -1.4345587262,
				"z": -2.9110059096,
				"element": "H" 
			},
			{
				"x": -2.1966473779,
				"y": -0.3670356479,
				"z": -1.0361716564,
				"element": "H" 
			},
			{
				"x": -1.6454861617,
				"y": -2.0270593563,
				"z": -0.870042736,
				"element": "H" 
			},
			{
				"x": 0.1627651526,
				"y": -1.3119547858,
				"z": 0.6880593319,
				"element": "H" 
			},
			{
				"x": -1.4683663848,
				"y": -0.9993666164,
				"z": 1.2614239741,
				"element": "H" 
			},
			{
				"x": -0.3898819437,
				"y": 0.9848701777,
				"z": 1.8883459483,
				"element": "H" 
			},
			{
				"x": -1.0697019906,
				"y": 1.4719878667,
				"z": 0.351205746,
				"element": "H" 
			},
			{
				"x": 1.2679204875,
				"y": 2.2657355531,
				"z": 0.5716845773,
				"element": "H" 
			}
		],
		 "valence_orbital": [ 
			{
				"type": "occ",
				"energy": -0.34361,
				"method": "rhf"
			},
			{
				"type": "occ",
				"energy": -0.33342,
				"method": "rhf"
			},
			{
				"type": "occ",
				"energy": -0.32819,
				"method": "rhf"
			},
			{
				"type": "occ",
				"energy": -0.2547,
				"method": "rhf"
			},
			{
				"type": "occ",
				"energy": -0.25262,
				"method": "rhf"
			},
			{
				"type": "unocc",
				"energy": -0.02246,
				"method": "rhf"
			},
			{
				"type": "unocc",
				"energy": -0.01645,
				"method": "rhf"
			},
			{
				"type": "unocc",
				"energy": 0.08598,
				"method": "rhf"
			},
			{
				"type": "unocc",
				"energy": 0.11239,
				"method": "rhf"
			},
			{
				"type": "unocc",
				"energy": 0.1247,
				"method": "rhf"
			}
		],
		"cosmo_sigma_profile": { 
			"-0.025": 0.0,
			"-0.024": 0.0,
			"-0.023": 0.0,
			"-0.022": 0.0,
			"-0.021": 0.0,
			"-0.02": 0.0,
			"-0.019": 0.0,
			"-0.018": 0.0,
			"-0.017": 0.0,
			"-0.016": 0.0,
			"-0.015": 0.0,
			"-0.014": 0.0,
			"-0.013": 0.0,
			"-0.012": 0.0,
			"-0.011": 0.0,
			"-0.01": 0.0,
			"-0.009": 0.0,
			"-0.008": 0.0,
			"-0.007": 0.253364511225,
			"-0.006": 15.0158742855,
			"-0.005": 13.2976096287,
			"-0.004": 12.8315196465,
			"-0.003": 16.8238651815,
			"-0.002": 20.088551513,
			"-0.001": 19.9428314357,
			"0.0": 12.3989598234,
			"0.001": 6.17857824916,
			"0.002": 4.19039174467,
			"0.003": 3.90334308662,
			"0.004": 3.49725476567,
			"0.005": 3.45620776089,
			"0.006": 3.29019998459,
			"0.007": 2.89108870705,
			"0.008": 3.21156669749,
			"0.009": 3.32494215813,
			"0.01": 3.97720346162,
			"0.011": 5.77632869823,
			"0.012": 3.79838985564,
			"0.013": 1.42089149856,
			"0.014": 0.0,
			"0.015": 0.0,
			"0.016": 0.0,
			"0.017": 0.0,
			"0.018": 0.0,
			"0.019": 0.0,
			"0.02": 0.0,
			"0.021": 0.0,
			"0.022": 0.0,
			"0.023": 0.0,
			"0.024": 0.0,
			"0.025": 0.0
		}
	}
}
