{
	 "smiles": "FC(F)C(F)(F)CBr", 
	 "Tm": 298.15, 
	 "num_atms": 11, 
	 "gaussian": { 
		 "optdone": 1, 
		 "sigma_profile": "yes", 
		 "theory": "DFT", 
		 "functional": "B3LYP", 
		 "basiset": "6-31G**", 
		 "properties": { 
			 "R2extent": 1747.5253, 
			 "electric_dipole_moment_norm": 1.43934794612, 
			 "electric_quadrupole_moment_norm": 4.5823766541, 
			 "total_energy": -3086.87841894, 
			 "HOMO_LUMO_gap": 0.26879, 
			 "cosmo_polarized_energy": -5.63, 
			 "cosmo_cavitation_energy": 18.64, 
			 "cosmo_dispersion_energy": -13.6, 
			 "cosmo_repulsion_energy": 1.07, 
			 "cosmo_total_nonelectrostatic_energy": 6.11, 
			 "SMD_solvation_energy": 3.73 
		},
		"coords": [
			{
				"x": 1.6099053875,
				"y": -1.211405378,
				"z": 1.9676381652,
				"element": "F" 
			},
			{
				"x": 1.143798915,
				"y": 0.0311231579,
				"z": 1.7061670268,
				"element": "C" 
			},
			{
				"x": 0.0111075335,
				"y": 0.2396014013,
				"z": 2.435029381,
				"element": "F" 
			},
			{
				"x": 0.795661593,
				"y": 0.1796199829,
				"z": 0.218264274,
				"element": "C" 
			},
			{
				"x": 1.9019092984,
				"y": -0.1331699408,
				"z": -0.5044483848,
				"element": "F" 
			},
			{
				"x": 0.5404910577,
				"y": 1.5180084273,
				"z": 0.0310497661,
				"element": "F" 
			},
			{
				"x": -0.4321943203,
				"y": -0.5583101547,
				"z": -0.2886506776,
				"element": "C" 
			},
			{
				"x": -0.2184446889,
				"y": -2.5022784074,
				"z": -0.3554075588,
				"element": "Br" 
			},
			{
				"x": 1.897959261,
				"y": 0.7740406627,
				"z": 1.9895707139,
				"element": "H" 
			},
			{
				"x": -1.2798275104,
				"y": -0.3429375176,
				"z": 0.3581863861,
				"element": "H" 
			},
			{
				"x": -0.6345665264,
				"y": -0.2232922336,
				"z": -1.304799092,
				"element": "H" 
			}
		],
		 "valence_orbital": [ 
			{
				"type": "occ",
				"energy": -0.40299,
				"method": "rhf"
			},
			{
				"type": "occ",
				"energy": -0.38962,
				"method": "rhf"
			},
			{
				"type": "occ",
				"energy": -0.34786,
				"method": "rhf"
			},
			{
				"type": "occ",
				"energy": -0.28836,
				"method": "rhf"
			},
			{
				"type": "occ",
				"energy": -0.28608,
				"method": "rhf"
			},
			{
				"type": "unocc",
				"energy": -0.01729,
				"method": "rhf"
			},
			{
				"type": "unocc",
				"energy": 0.07309,
				"method": "rhf"
			},
			{
				"type": "unocc",
				"energy": 0.08132,
				"method": "rhf"
			},
			{
				"type": "unocc",
				"energy": 0.11169,
				"method": "rhf"
			},
			{
				"type": "unocc",
				"energy": 0.13107,
				"method": "rhf"
			}
		],
		"cosmo_sigma_profile": { 
			"-0.025": 0.0,
			"-0.024": 0.0,
			"-0.023": 0.0,
			"-0.022": 0.0,
			"-0.021": 0.0,
			"-0.02": 0.0,
			"-0.019": 0.0,
			"-0.018": 0.0,
			"-0.017": 0.0,
			"-0.016": 0.0,
			"-0.015": 0.0,
			"-0.014": 0.0,
			"-0.013": 0.0,
			"-0.012": 0.0,
			"-0.011": 0.885901948782,
			"-0.01": 4.53922963124,
			"-0.009": 4.99309055511,
			"-0.008": 4.94366239059,
			"-0.007": 5.04141056306,
			"-0.006": 5.27107634087,
			"-0.005": 4.18151810881,
			"-0.004": 5.10526711964,
			"-0.003": 6.46174811643,
			"-0.002": 6.08004757234,
			"-0.001": 6.33690819477,
			"0.0": 7.11188320214,
			"0.001": 8.77833908908,
			"0.002": 14.9865605318,
			"0.003": 34.4481278223,
			"0.004": 19.5594762213,
			"0.005": 12.2027086616,
			"0.006": 0.6040528822,
			"0.007": 0.0,
			"0.008": 0.0,
			"0.009": 0.0,
			"0.01": 0.0,
			"0.011": 0.0,
			"0.012": 0.0,
			"0.013": 0.0,
			"0.014": 0.0,
			"0.015": 0.0,
			"0.016": 0.0,
			"0.017": 0.0,
			"0.018": 0.0,
			"0.019": 0.0,
			"0.02": 0.0,
			"0.021": 0.0,
			"0.022": 0.0,
			"0.023": 0.0,
			"0.024": 0.0,
			"0.025": 0.0
		}
	}
}
