{
	 "smiles": "CNC(SC)=C/[N+]([O-])=O", 
	 "Tm": 385.65, 
	 "num_atms": 17, 
	 "gaussian": { 
		 "optdone": 1, 
		 "sigma_profile": "yes", 
		 "theory": "DFT", 
		 "functional": "B3LYP", 
		 "basiset": "6-31G**", 
		 "properties": { 
			 "R2extent": 2771.6282, 
			 "electric_dipole_moment_norm": 6.56846025945, 
			 "electric_quadrupole_moment_norm": 26.6858883257, 
			 "total_energy": -815.270275446, 
			 "HOMO_LUMO_gap": 0.16295, 
			 "cosmo_polarized_energy": -13.84, 
			 "cosmo_cavitation_energy": 22.48, 
			 "cosmo_dispersion_energy": -16.99, 
			 "cosmo_repulsion_energy": 1.36, 
			 "cosmo_total_nonelectrostatic_energy": 6.86, 
			 "SMD_solvation_energy": 6.25 
		},
		"coords": [
			{
				"x": 0.6834619704,
				"y": 1.8648588037,
				"z": 2.1177774913,
				"element": "C" 
			},
			{
				"x": -0.6851104711,
				"y": 1.7821409527,
				"z": 1.6435959203,
				"element": "N" 
			},
			{
				"x": -1.1350485489,
				"y": 1.1865536679,
				"z": 0.5240481484,
				"element": "C" 
			},
			{
				"x": 0.0077190807,
				"y": 0.6111486588,
				"z": -0.7289890021,
				"element": "S" 
			},
			{
				"x": 0.8175058983,
				"y": 2.1784564539,
				"z": -1.2353828488,
				"element": "C" 
			},
			{
				"x": -2.4657482473,
				"y": 0.9352124322,
				"z": 0.2588723901,
				"element": "C" 
			},
			{
				"x": -3.5095575088,
				"y": 1.1935897643,
				"z": 1.1718331339,
				"element": "N" 
			},
			{
				"x": -4.6538523595,
				"y": 0.8618285598,
				"z": 0.8446713207,
				"element": "O" 
			},
			{
				"x": -3.2529318195,
				"y": 1.7534037978,
				"z": 2.2708712807,
				"element": "O" 
			},
			{
				"x": 1.1166577133,
				"y": 2.858268066,
				"z": 1.9447371998,
				"element": "H" 
			},
			{
				"x": 1.3038456382,
				"y": 1.1157947181,
				"z": 1.6219050717,
				"element": "H" 
			},
			{
				"x": 0.6995341857,
				"y": 1.6720915158,
				"z": 3.1939945396,
				"element": "H" 
			},
			{
				"x": -1.4565790266,
				"y": 2.0340659044,
				"z": 2.2678882169,
				"element": "H" 
			},
			{
				"x": 0.0698684691,
				"y": 2.9106170364,
				"z": -1.5440699327,
				"element": "H" 
			},
			{
				"x": 1.4398946892,
				"y": 1.9185847069,
				"z": -2.0943593719,
				"element": "H" 
			},
			{
				"x": 1.4513846974,
				"y": 2.5901631846,
				"z": -0.4489011636,
				"element": "H" 
			},
			{
				"x": -2.7967443604,
				"y": 0.5047217766,
				"z": -0.6712923941,
				"element": "H" 
			}
		],
		 "valence_orbital": [ 
			{
				"type": "occ",
				"energy": -0.28965,
				"method": "rhf"
			},
			{
				"type": "occ",
				"energy": -0.28636,
				"method": "rhf"
			},
			{
				"type": "occ",
				"energy": -0.26873,
				"method": "rhf"
			},
			{
				"type": "occ",
				"energy": -0.26262,
				"method": "rhf"
			},
			{
				"type": "occ",
				"energy": -0.23187,
				"method": "rhf"
			},
			{
				"type": "unocc",
				"energy": -0.06892,
				"method": "rhf"
			},
			{
				"type": "unocc",
				"energy": 0.01091,
				"method": "rhf"
			},
			{
				"type": "unocc",
				"energy": 0.0414,
				"method": "rhf"
			},
			{
				"type": "unocc",
				"energy": 0.05462,
				"method": "rhf"
			},
			{
				"type": "unocc",
				"energy": 0.07358,
				"method": "rhf"
			}
		],
		"cosmo_sigma_profile": { 
			"-0.025": 0.0,
			"-0.024": 0.0,
			"-0.023": 0.0,
			"-0.022": 0.0,
			"-0.021": 0.0,
			"-0.02": 0.0,
			"-0.019": 0.0,
			"-0.018": 0.0,
			"-0.017": 0.0,
			"-0.016": 0.0,
			"-0.015": 0.0,
			"-0.014": 0.0,
			"-0.013": 0.0,
			"-0.012": 0.0,
			"-0.011": 0.467065621779,
			"-0.01": 0.762729615485,
			"-0.009": 0.710526143174,
			"-0.008": 2.2531645602,
			"-0.007": 7.87737587443,
			"-0.006": 13.2732114385,
			"-0.005": 14.5889544158,
			"-0.004": 15.0488137095,
			"-0.003": 18.7939635579,
			"-0.002": 17.2113179812,
			"-0.001": 13.6707896926,
			"0.0": 10.8737959623,
			"0.001": 8.3599779464,
			"0.002": 5.92549036074,
			"0.003": 6.53146461044,
			"0.004": 4.59790680053,
			"0.005": 4.70245600421,
			"0.006": 4.48012593023,
			"0.007": 3.0349565602,
			"0.008": 3.15081207938,
			"0.009": 4.66973405228,
			"0.01": 8.11092977432,
			"0.011": 5.61176990357,
			"0.012": 3.95328041092,
			"0.013": 1.44452104402,
			"0.014": 0.0,
			"0.015": 0.0,
			"0.016": 0.0,
			"0.017": 0.0,
			"0.018": 0.0,
			"0.019": 0.0,
			"0.02": 0.0,
			"0.021": 0.0,
			"0.022": 0.0,
			"0.023": 0.0,
			"0.024": 0.0,
			"0.025": 0.0
		}
	}
}
