{
	 "smiles": "CN=C1CN(O)C(C2=CC=CC=C2)=C2C=C(Cl)C=CC2=N1", 
	 "Tm": 509.15, 
	 "num_atms": 35, 
	 "gaussian": { 
		 "optdone": 1, 
		 "sigma_profile": "yes", 
		 "theory": "DFT", 
		 "functional": "B3LYP", 
		 "basiset": "6-31G**", 
		 "properties": { 
			 "R2extent": 6919.9963, 
			 "electric_dipole_moment_norm": 4.82001674997, 
			 "electric_quadrupole_moment_norm": 20.1784934616, 
			 "total_energy": -1317.70301812, 
			 "HOMO_LUMO_gap": 0.1023, 
			 "cosmo_polarized_energy": -19.57, 
			 "cosmo_cavitation_energy": 40.46, 
			 "cosmo_dispersion_energy": -28.16, 
			 "cosmo_repulsion_energy": 2.19, 
			 "cosmo_total_nonelectrostatic_energy": 14.49, 
			 "SMD_solvation_energy": 3.26 
		},
		"coords": [
			{
				"x": 0.902044766,
				"y": -3.9198788621,
				"z": 3.090970676,
				"element": "C" 
			},
			{
				"x": 1.3616176123,
				"y": -2.5412673846,
				"z": 3.0479392803,
				"element": "N" 
			},
			{
				"x": 1.4598209795,
				"y": -1.9778360666,
				"z": 1.8967308075,
				"element": "C" 
			},
			{
				"x": 1.840927002,
				"y": -0.5023067958,
				"z": 1.8847417646,
				"element": "C" 
			},
			{
				"x": 0.682369839,
				"y": 0.3124251624,
				"z": 1.5525979465,
				"element": "N" 
			},
			{
				"x": -0.1454054745,
				"y": 0.5960681119,
				"z": 2.6566412324,
				"element": "O" 
			},
			{
				"x": 0.0636648701,
				"y": 0.2938238107,
				"z": 0.3472785374,
				"element": "C" 
			},
			{
				"x": -0.9819989436,
				"y": 1.3318498218,
				"z": 0.1532407616,
				"element": "C" 
			},
			{
				"x": -2.2428761022,
				"y": 0.9845466055,
				"z": -0.3552019304,
				"element": "C" 
			},
			{
				"x": -3.2277649529,
				"y": 1.9571834799,
				"z": -0.5228486268,
				"element": "C" 
			},
			{
				"x": -2.9636476905,
				"y": 3.2875970728,
				"z": -0.1928227985,
				"element": "C" 
			},
			{
				"x": -1.7088404854,
				"y": 3.6440419331,
				"z": 0.3091384636,
				"element": "C" 
			},
			{
				"x": -0.7273121027,
				"y": 2.6727089731,
				"z": 0.487242674,
				"element": "C" 
			},
			{
				"x": 0.44063001,
				"y": -0.6051088161,
				"z": -0.6761578316,
				"element": "C" 
			},
			{
				"x": 0.1621697246,
				"y": -0.1976492784,
				"z": -2.0342287419,
				"element": "C" 
			},
			{
				"x": 0.4362916474,
				"y": -1.0023374403,
				"z": -3.0956631518,
				"element": "C" 
			},
			{
				"x": 0.1168372617,
				"y": -0.4534658991,
				"z": -4.7365730957,
				"element": "Cl" 
			},
			{
				"x": 1.0012218705,
				"y": -2.3006024735,
				"z": -2.9090663942,
				"element": "C" 
			},
			{
				"x": 1.2790744246,
				"y": -2.7301783351,
				"z": -1.6496582138,
				"element": "C" 
			},
			{
				"x": 1.0402733402,
				"y": -1.9390188627,
				"z": -0.4555660804,
				"element": "C" 
			},
			{
				"x": 1.323194676,
				"y": -2.5685525659,
				"z": 0.6710831441,
				"element": "N" 
			},
			{
				"x": 1.4363391111,
				"y": -4.4477916892,
				"z": 3.888613883,
				"element": "H" 
			},
			{
				"x": -0.1648569073,
				"y": -3.9463565538,
				"z": 3.3524563951,
				"element": "H" 
			},
			{
				"x": 1.0297475493,
				"y": -4.4557928972,
				"z": 2.1418043097,
				"element": "H" 
			},
			{
				"x": 2.1906356176,
				"y": -0.2072357625,
				"z": 2.8739739198,
				"element": "H" 
			},
			{
				"x": 2.6090102914,
				"y": -0.2959220997,
				"z": 1.1327869167,
				"element": "H" 
			},
			{
				"x": 0.2664430648,
				"y": 1.3636674633,
				"z": 3.0842115797,
				"element": "H" 
			},
			{
				"x": -2.4476657806,
				"y": -0.0511827593,
				"z": -0.6057544225,
				"element": "H" 
			},
			{
				"x": -4.2021103511,
				"y": 1.6743931216,
				"z": -0.9096456403,
				"element": "H" 
			},
			{
				"x": -3.7301924409,
				"y": 4.0448505879,
				"z": -0.3281604687,
				"element": "H" 
			},
			{
				"x": -1.4949316538,
				"y": 4.679743038,
				"z": 0.5562381243,
				"element": "H" 
			},
			{
				"x": 0.253530344,
				"y": 2.9516535865,
				"z": 0.8622844404,
				"element": "H" 
			},
			{
				"x": -0.2485232269,
				"y": 0.7887877667,
				"z": -2.2062726956,
				"element": "H" 
			},
			{
				"x": 1.2054437783,
				"y": -2.9249814193,
				"z": -3.7723573159,
				"element": "H" 
			},
			{
				"x": 1.7075383324,
				"y": -3.7108745742,
				"z": -1.4741974486,
				"element": "H" 
			}
		],
		 "valence_orbital": [ 
			{
				"type": "occ",
				"energy": -0.26895,
				"method": "rhf"
			},
			{
				"type": "occ",
				"energy": -0.26251,
				"method": "rhf"
			},
			{
				"type": "occ",
				"energy": -0.23927,
				"method": "rhf"
			},
			{
				"type": "occ",
				"energy": -0.22386,
				"method": "rhf"
			},
			{
				"type": "occ",
				"energy": -0.18862,
				"method": "rhf"
			},
			{
				"type": "unocc",
				"energy": -0.08632,
				"method": "rhf"
			},
			{
				"type": "unocc",
				"energy": -0.02731,
				"method": "rhf"
			},
			{
				"type": "unocc",
				"energy": -0.02278,
				"method": "rhf"
			},
			{
				"type": "unocc",
				"energy": -0.00129,
				"method": "rhf"
			},
			{
				"type": "unocc",
				"energy": 0.02172,
				"method": "rhf"
			}
		],
		"cosmo_sigma_profile": { 
			"-0.025": 0.0,
			"-0.024": 0.0,
			"-0.023": 0.0,
			"-0.022": 0.0,
			"-0.021": 0.0,
			"-0.02": 0.0,
			"-0.019": 0.263578361888,
			"-0.018": 0.960508017192,
			"-0.017": 1.34138009027,
			"-0.016": 1.26465385479,
			"-0.015": 0.812832118429,
			"-0.014": 0.465319806189,
			"-0.013": 1.15666378455,
			"-0.012": 1.67854520071,
			"-0.011": 1.40925314141,
			"-0.01": 1.42560250774,
			"-0.009": 0.981332344945,
			"-0.008": 3.03597914163,
			"-0.007": 8.82953936246,
			"-0.006": 17.1387016478,
			"-0.005": 21.1087644015,
			"-0.004": 21.9740086281,
			"-0.003": 21.3087744488,
			"-0.002": 19.8901883996,
			"-0.001": 22.0616689433,
			"0.0": 24.3535828988,
			"0.001": 25.8844849613,
			"0.002": 25.6901634674,
			"0.003": 27.4920203502,
			"0.004": 24.0439472265,
			"0.005": 14.8889149192,
			"0.006": 5.67760086072,
			"0.007": 6.55728911202,
			"0.008": 4.75425329181,
			"0.009": 4.28817833043,
			"0.01": 4.3038158095,
			"0.011": 2.95281152962,
			"0.012": 1.82806730841,
			"0.013": 1.3952779447,
			"0.014": 1.04706194818,
			"0.015": 0.530441676297,
			"0.016": 0.940735228569,
			"0.017": 0.870308480907,
			"0.018": 0.609100874406,
			"0.019": 0.0810137608851,
			"0.02": 0.0,
			"0.021": 0.0,
			"0.022": 0.0,
			"0.023": 0.0,
			"0.024": 0.0,
			"0.025": 0.0
		}
	}
}
