{
	 "smiles": "COC1=C(Cl)C2=C(C=C1)C(Cl)=C(S2)C(O)=O", 
	 "Tm": 380.15, 
	 "num_atms": 22, 
	 "gaussian": { 
		 "optdone": 1, 
		 "sigma_profile": "yes", 
		 "theory": "DFT", 
		 "functional": "B3LYP", 
		 "basiset": "6-31G**", 
		 "properties": { 
			 "R2extent": 6585.4775, 
			 "electric_dipole_moment_norm": 6.78452066251, 
			 "electric_quadrupole_moment_norm": 27.6990741916, 
			 "total_energy": -1928.90826333, 
			 "HOMO_LUMO_gap": 0.15679, 
			 "cosmo_polarized_energy": -15.55, 
			 "cosmo_cavitation_energy": 31.83, 
			 "cosmo_dispersion_energy": -24.2, 
			 "cosmo_repulsion_energy": 1.83, 
			 "cosmo_total_nonelectrostatic_energy": 9.46, 
			 "SMD_solvation_energy": 6.44 
		},
		"coords": [
			{
				"x": -3.0749975116,
				"y": 1.3623976245,
				"z": -1.1254120914,
				"element": "C" 
			},
			{
				"x": -2.4789269528,
				"y": 0.3159094974,
				"z": -0.3667969988,
				"element": "O" 
			},
			{
				"x": -1.1325391435,
				"y": 0.1939829517,
				"z": -0.3632845505,
				"element": "C" 
			},
			{
				"x": -0.6013906489,
				"y": -0.8562260577,
				"z": 0.4035742946,
				"element": "C" 
			},
			{
				"x": -1.6552816609,
				"y": -1.9253964263,
				"z": 1.2885926343,
				"element": "Cl" 
			},
			{
				"x": 0.7804090331,
				"y": -1.0318977379,
				"z": 0.4539757468,
				"element": "C" 
			},
			{
				"x": 1.6572229975,
				"y": -0.1790774723,
				"z": -0.2581679021,
				"element": "C" 
			},
			{
				"x": 1.1182485282,
				"y": 0.8662988638,
				"z": -1.0216159496,
				"element": "C" 
			},
			{
				"x": -0.2550366498,
				"y": 1.0465160726,
				"z": -1.0702293781,
				"element": "C" 
			},
			{
				"x": 3.0320751956,
				"y": -0.5605586357,
				"z": -0.0629373261,
				"element": "C" 
			},
			{
				"x": 4.3129384083,
				"y": 0.3382060617,
				"z": -0.8043616318,
				"element": "Cl" 
			},
			{
				"x": 3.2040837816,
				"y": -1.6391314044,
				"z": 0.7622785238,
				"element": "C" 
			},
			{
				"x": 1.6465846473,
				"y": -2.2776097097,
				"z": 1.3228085802,
				"element": "S" 
			},
			{
				"x": 4.4785788282,
				"y": -2.2749908954,
				"z": 1.1834659294,
				"element": "C" 
			},
			{
				"x": 4.4246087186,
				"y": -3.0084119327,
				"z": 2.3298795076,
				"element": "O" 
			},
			{
				"x": 5.5108336678,
				"y": -2.1838210011,
				"z": 0.5663138628,
				"element": "O" 
			},
			{
				"x": -2.8469159088,
				"y": 1.2641604479,
				"z": -2.1933674885,
				"element": "H" 
			},
			{
				"x": -4.1496562951,
				"y": 1.257933158,
				"z": -0.9748497736,
				"element": "H" 
			},
			{
				"x": -2.753049506,
				"y": 2.3488444882,
				"z": -0.7710788428,
				"element": "H" 
			},
			{
				"x": 1.7781327642,
				"y": 1.5280732363,
				"z": -1.5718000665,
				"element": "H" 
			},
			{
				"x": -0.6611802937,
				"y": 1.8564038541,
				"z": -1.6630652667,
				"element": "H" 
			},
			{
				"x": 3.6088580007,
				"y": -2.8328049828,
				"z": 2.8223781871,
				"element": "H" 
			}
		],
		 "valence_orbital": [ 
			{
				"type": "occ",
				"energy": -0.31826,
				"method": "rhf"
			},
			{
				"type": "occ",
				"energy": -0.28062,
				"method": "rhf"
			},
			{
				"type": "occ",
				"energy": -0.27642,
				"method": "rhf"
			},
			{
				"type": "occ",
				"energy": -0.25848,
				"method": "rhf"
			},
			{
				"type": "occ",
				"energy": -0.23033,
				"method": "rhf"
			},
			{
				"type": "unocc",
				"energy": -0.07354,
				"method": "rhf"
			},
			{
				"type": "unocc",
				"energy": -0.03302,
				"method": "rhf"
			},
			{
				"type": "unocc",
				"energy": -0.0205,
				"method": "rhf"
			},
			{
				"type": "unocc",
				"energy": 0.00343,
				"method": "rhf"
			},
			{
				"type": "unocc",
				"energy": 0.00883,
				"method": "rhf"
			}
		],
		"cosmo_sigma_profile": { 
			"-0.025": 0.0,
			"-0.024": 0.0,
			"-0.023": 0.0,
			"-0.022": 0.0,
			"-0.021": 0.0,
			"-0.02": 0.0,
			"-0.019": 0.0,
			"-0.018": 0.468270195224,
			"-0.017": 0.952333260542,
			"-0.016": 0.727599745521,
			"-0.015": 1.18869251444,
			"-0.014": 1.23126778329,
			"-0.013": 0.42470784856,
			"-0.012": 1.03480428355,
			"-0.011": 0.98978888394,
			"-0.01": 0.889354373611,
			"-0.009": 1.05455252343,
			"-0.008": 2.90596419628,
			"-0.007": 9.27801915846,
			"-0.006": 13.7213605977,
			"-0.005": 13.0831979491,
			"-0.004": 13.8988235016,
			"-0.003": 13.054569285,
			"-0.002": 15.7849349918,
			"-0.001": 23.4087568014,
			"0.0": 33.2054931976,
			"0.001": 26.5379556766,
			"0.002": 20.9963176518,
			"0.003": 16.6479829692,
			"0.004": 10.2542244779,
			"0.005": 4.98817874031,
			"0.006": 5.26928495312,
			"0.007": 4.19281336377,
			"0.008": 6.44812078497,
			"0.009": 5.09568500122,
			"0.01": 5.73117641116,
			"0.011": 6.0257053387,
			"0.012": 2.77705301667,
			"0.013": 0.20265645856,
			"0.014": 0.0,
			"0.015": 0.0,
			"0.016": 0.0,
			"0.017": 0.0,
			"0.018": 0.0,
			"0.019": 0.0,
			"0.02": 0.0,
			"0.021": 0.0,
			"0.022": 0.0,
			"0.023": 0.0,
			"0.024": 0.0,
			"0.0": 0.0
		}
	}
}
