{
	 "smiles": "CC(C)CC1=C(SC(C)=N1)C(O)=O", 
	 "Tm": 390.15, 
	 "num_atms": 26, 
	 "gaussian": { 
		 "optdone": 1, 
		 "sigma_profile": "yes", 
		 "theory": "DFT", 
		 "functional": "B3LYP", 
		 "basiset": "6-31G**", 
		 "properties": { 
			 "R2extent": 4189.7916, 
			 "electric_dipole_moment_norm": 4.5076747376, 
			 "electric_quadrupole_moment_norm": 26.5567602312, 
			 "total_energy": -954.20101127, 
			 "HOMO_LUMO_gap": 0.19007, 
			 "cosmo_polarized_energy": -13.44, 
			 "cosmo_cavitation_energy": 30.37, 
			 "cosmo_dispersion_energy": -21.84, 
			 "cosmo_repulsion_energy": 1.69, 
			 "cosmo_total_nonelectrostatic_energy": 10.23, 
			 "SMD_solvation_energy": 4.82 
		},
		"coords": [
			{
				"x": -1.6240906933,
				"y": -0.0733065735,
				"z": -0.0035995554,
				"element": "C" 
			},
			{
				"x": -0.7026986487,
				"y": 0.1703891788,
				"z": 1.1990582964,
				"element": "C" 
			},
			{
				"x": -1.5120098671,
				"y": 0.530627765,
				"z": 2.4531677454,
				"element": "C" 
			},
			{
				"x": 0.2104079467,
				"y": -1.0531016994,
				"z": 1.4908381748,
				"element": "C" 
			},
			{
				"x": 1.1702128057,
				"y": -1.4184105579,
				"z": 0.3852298338,
				"element": "C" 
			},
			{
				"x": 2.4550252047,
				"y": -0.9436292311,
				"z": 0.1891347624,
				"element": "C" 
			},
			{
				"x": 3.166907036,
				"y": -1.7253337917,
				"z": -1.2007763502,
				"element": "S" 
			},
			{
				"x": 1.6769112233,
				"y": -2.6039026773,
				"z": -1.4311253212,
				"element": "C" 
			},
			{
				"x": 1.4888076048,
				"y": -3.5695200685,
				"z": -2.5612128701,
				"element": "C" 
			},
			{
				"x": 0.7518390992,
				"y": -2.3478570569,
				"z": -0.5412024361,
				"element": "N" 
			},
			{
				"x": 3.3150208416,
				"y": 0.0005594644,
				"z": 0.9376227495,
				"element": "C" 
			},
			{
				"x": 2.7187829313,
				"y": 0.7916261192,
				"z": 1.8683740156,
				"element": "O" 
			},
			{
				"x": 4.5073865854,
				"y": 0.0861940376,
				"z": 0.7465300318,
				"element": "O" 
			},
			{
				"x": -2.2340109946,
				"y": 0.8130431479,
				"z": -0.2065838978,
				"element": "H" 
			},
			{
				"x": -1.0601270078,
				"y": -0.3155430732,
				"z": -0.9077540009,
				"element": "H" 
			},
			{
				"x": -2.3023622714,
				"y": -0.9111321935,
				"z": 0.1950042976,
				"element": "H" 
			},
			{
				"x": -0.0608600721,
				"y": 1.0321234509,
				"z": 0.9499071691,
				"element": "H" 
			},
			{
				"x": -2.1695414821,
				"y": -0.2979704094,
				"z": 2.7411162534,
				"element": "H" 
			},
			{
				"x": -2.141943382,
				"y": 1.4076812753,
				"z": 2.273808309,
				"element": "H" 
			},
			{
				"x": -0.8630786466,
				"y": 0.752764932,
				"z": 3.3077255732,
				"element": "H" 
			},
			{
				"x": 0.7639796219,
				"y": -0.8836028814,
				"z": 2.4228195404,
				"element": "H" 
			},
			{
				"x": -0.4269221836,
				"y": -1.9262690486,
				"z": 1.6663054537,
				"element": "H" 
			},
			{
				"x": 2.2481436748,
				"y": -4.3580158647,
				"z": -2.5455130473,
				"element": "H" 
			},
			{
				"x": 1.5549184611,
				"y": -3.0654521049,
				"z": -3.5313020083,
				"element": "H" 
			},
			{
				"x": 0.5018277334,
				"y": -4.0256451984,
				"z": -2.4679861979,
				"element": "H" 
			},
			{
				"x": 1.7561744793,
				"y": 0.7238830594,
				"z": 1.8150134791,
				"element": "H" 
			}
		],
		 "valence_orbital": [ 
			{
				"type": "occ",
				"energy": -0.31895,
				"method": "rhf"
			},
			{
				"type": "occ",
				"energy": -0.29859,
				"method": "rhf"
			},
			{
				"type": "occ",
				"energy": -0.28832,
				"method": "rhf"
			},
			{
				"type": "occ",
				"energy": -0.26661,
				"method": "rhf"
			},
			{
				"type": "occ",
				"energy": -0.25248,
				"method": "rhf"
			},
			{
				"type": "unocc",
				"energy": -0.06241,
				"method": "rhf"
			},
			{
				"type": "unocc",
				"energy": 0.00423,
				"method": "rhf"
			},
			{
				"type": "unocc",
				"energy": 0.01476,
				"method": "rhf"
			},
			{
				"type": "unocc",
				"energy": 0.05439,
				"method": "rhf"
			},
			{
				"type": "unocc",
				"energy": 0.07623,
				"method": "rhf"
			}
		],
		"cosmo_sigma_profile": { 
			"-0.025": 0.0,
			"-0.024": 0.0,
			"-0.023": 0.0,
			"-0.022": 0.0,
			"-0.021": 0.0,
			"-0.02": 0.0,
			"-0.019": 0.0,
			"-0.018": 0.0,
			"-0.017": 0.0,
			"-0.016": 0.0,
			"-0.015": 0.0,
			"-0.014": 0.00468689852549,
			"-0.013": 0.614443316153,
			"-0.012": 1.41398502487,
			"-0.011": 2.47204473775,
			"-0.01": 1.44619142175,
			"-0.009": 0.745890407958,
			"-0.008": 1.57533984088,
			"-0.007": 3.76749067058,
			"-0.006": 10.0044520224,
			"-0.005": 11.7383251746,
			"-0.004": 14.6245480025,
			"-0.003": 25.062077343,
			"-0.002": 28.287417695,
			"-0.001": 29.0853997147,
			"0.0": 22.4224159582,
			"0.001": 23.6528072678,
			"0.002": 12.9551753991,
			"0.003": 7.84821965568,
			"0.004": 3.95409620304,
			"0.005": 4.14371534165,
			"0.006": 4.03798951549,
			"0.007": 3.72251861788,
			"0.008": 3.43588483793,
			"0.009": 5.41186492069,
			"0.01": 5.5439095737,
			"0.011": 5.98810606908,
			"0.012": 4.81179341155,
			"0.013": 1.7553083873,
			"0.014": 0.663659557553,
			"0.015": 0.0154569306466,
			"0.016": 0.0,
			"0.017": 0.0,
			"0.018": 0.0,
			"0.019": 0.0,
			"0.02": 0.0,
			"0.021": 0.0,
			"0.022": 0.0,
			"0.023": 0.0,
			"0.024": 0.0,
			"0.025": 0.0
		}
	}
}
