{
	 "smiles": "CCCC[N+]([O-])=O", 
	 "Tm": 191.85, 
	 "num_atms": 16, 
	 "gaussian": { 
		 "optdone": 1, 
		 "sigma_profile": "yes", 
		 "theory": "DFT", 
		 "functional": "B3LYP", 
		 "basiset": "6-31G**", 
		 "properties": { 
			 "R2extent": 1282.7888, 
			 "electric_dipole_moment_norm": 3.56621093039, 
			 "electric_quadrupole_moment_norm": 9.33575209772, 
			 "total_energy": -362.960282396, 
			 "HOMO_LUMO_gap": 0.22484, 
			 "cosmo_polarized_energy": -7.42, 
			 "cosmo_cavitation_energy": 20.04, 
			 "cosmo_dispersion_energy": -13.77, 
			 "cosmo_repulsion_energy": 1.18, 
			 "cosmo_total_nonelectrostatic_energy": 7.45, 
			 "SMD_solvation_energy": 5.43 
		},
		"coords": [
			{
				"x": -0.9465084354,
				"y": -0.2410098902,
				"z": 1.8133615642,
				"element": "C" 
			},
			{
				"x": -0.5662585238,
				"y": 1.2413446846,
				"z": 1.9050207248,
				"element": "C" 
			},
			{
				"x": 0.7792976706,
				"y": 1.6003087285,
				"z": 1.2531711652,
				"element": "C" 
			},
			{
				"x": 0.8867764791,
				"y": 1.2645882547,
				"z": -0.2370421734,
				"element": "C" 
			},
			{
				"x": -0.1752733274,
				"y": 1.9961099404,
				"z": -1.018833948,
				"element": "N" 
			},
			{
				"x": -0.0986303278,
				"y": 3.221241404,
				"z": -1.0440574924,
				"element": "O" 
			},
			{
				"x": -1.0526850624,
				"y": 1.323796571,
				"z": -1.5540424622,
				"element": "O" 
			},
			{
				"x": -1.1386537331,
				"y": -0.5451315372,
				"z": 0.7797253339,
				"element": "H" 
			},
			{
				"x": -1.8582454984,
				"y": -0.4418469462,
				"z": 2.3841469976,
				"element": "H" 
			},
			{
				"x": -0.1547236449,
				"y": -0.8832312973,
				"z": 2.2169340382,
				"element": "H" 
			},
			{
				"x": -1.3606339308,
				"y": 1.8521576459,
				"z": 1.4580637684,
				"element": "H" 
			},
			{
				"x": -0.5141776864,
				"y": 1.5425675051,
				"z": 2.9580337001,
				"element": "H" 
			},
			{
				"x": 0.9801595033,
				"y": 2.6692700376,
				"z": 1.3768211065,
				"element": "H" 
			},
			{
				"x": 1.5928046056,
				"y": 1.060611657,
				"z": 1.754465104,
				"element": "H" 
			},
			{
				"x": 1.8403253278,
				"y": 1.6044372118,
				"z": -0.6470691078,
				"element": "H" 
			},
			{
				"x": 0.7402265842,
				"y": 0.2069860302,
				"z": -0.4506983193,
				"element": "H" 
			}
		],
		 "valence_orbital": [ 
			{
				"type": "occ",
				"energy": -0.348,
				"method": "rhf"
			},
			{
				"type": "occ",
				"energy": -0.34412,
				"method": "rhf"
			},
			{
				"type": "occ",
				"energy": -0.31019,
				"method": "rhf"
			},
			{
				"type": "occ",
				"energy": -0.29836,
				"method": "rhf"
			},
			{
				"type": "occ",
				"energy": -0.28994,
				"method": "rhf"
			},
			{
				"type": "unocc",
				"energy": -0.0651,
				"method": "rhf"
			},
			{
				"type": "unocc",
				"energy": 0.07528,
				"method": "rhf"
			},
			{
				"type": "unocc",
				"energy": 0.10755,
				"method": "rhf"
			},
			{
				"type": "unocc",
				"energy": 0.12572,
				"method": "rhf"
			},
			{
				"type": "unocc",
				"energy": 0.12724,
				"method": "rhf"
			}
		],
		"cosmo_sigma_profile": { 
			"-0.025": 0.0,
			"-0.024": 0.0,
			"-0.023": 0.0,
			"-0.022": 0.0,
			"-0.021": 0.0,
			"-0.02": 0.0,
			"-0.019": 0.0,
			"-0.018": 0.0,
			"-0.017": 0.0,
			"-0.016": 0.0,
			"-0.015": 0.0,
			"-0.014": 0.0,
			"-0.013": 0.0,
			"-0.012": 0.0,
			"-0.011": 0.0,
			"-0.01": 0.0,
			"-0.009": 0.569442766392,
			"-0.008": 3.42738725399,
			"-0.007": 3.88497873158,
			"-0.006": 4.55257447834,
			"-0.005": 10.1330034381,
			"-0.004": 9.8981861282,
			"-0.003": 16.8088443056,
			"-0.002": 17.6655806118,
			"-0.001": 16.5565629868,
			"0.0": 19.4874703281,
			"0.001": 12.9419732532,
			"0.002": 3.74852036871,
			"0.003": 3.49393807006,
			"0.004": 2.61289935255,
			"0.005": 2.03339853967,
			"0.006": 3.9079525418,
			"0.007": 6.32323954453,
			"0.008": 9.90083688988,
			"0.009": 5.26159243465,
			"0.01": 2.93268515939,
			"0.011": 0.229744275697,
			"0.012": 0.0,
			"0.013": 0.0,
			"0.014": 0.0,
			"0.015": 0.0,
			"0.016": 0.0,
			"0.017": 0.0,
			"0.018": 0.0,
			"0.019": 0.0,
			"0.02": 0.0,
			"0.021": 0.0,
			"0.022": 0.0,
			"0.023": 0.0,
			"0.024": 0.0,
			"0.025": 0.0
		}
	}
}
