{
	 "smiles": "CC(C)(C1=NN=C(N)O1)C1=CC=CC=C1", 
	 "Tm": 470.15, 
	 "num_atms": 28, 
	 "gaussian": { 
		 "optdone": 1, 
		 "sigma_profile": "yes", 
		 "theory": "DFT", 
		 "functional": "B3LYP", 
		 "basiset": "6-31G**", 
		 "properties": { 
			 "R2extent": 3591.3516, 
			 "electric_dipole_moment_norm": 3.78275183167, 
			 "electric_quadrupole_moment_norm": 26.687821492, 
			 "total_energy": -666.4614574, 
			 "HOMO_LUMO_gap": 0.21981, 
			 "cosmo_polarized_energy": -16.83, 
			 "cosmo_cavitation_energy": 31.05, 
			 "cosmo_dispersion_energy": -22.12, 
			 "cosmo_repulsion_energy": 1.74, 
			 "cosmo_total_nonelectrostatic_energy": 10.67, 
			 "SMD_solvation_energy": 3.88 
		},
		"coords": [
			{
				"x": -0.4182975834,
				"y": 1.359268595,
				"z": 2.1912091292,
				"element": "C" 
			},
			{
				"x": 0.5250037793,
				"y": 0.3101592027,
				"z": 1.5475408203,
				"element": "C" 
			},
			{
				"x": 1.0471220815,
				"y": -0.6239807825,
				"z": 2.6564066236,
				"element": "C" 
			},
			{
				"x": 1.7230445496,
				"y": 1.0082503375,
				"z": 0.9482380747,
				"element": "C" 
			},
			{
				"x": 2.9727903613,
				"y": 0.7015798698,
				"z": 1.0317070967,
				"element": "N" 
			},
			{
				"x": 3.6928880792,
				"y": 1.6611265327,
				"z": 0.2999618969,
				"element": "N" 
			},
			{
				"x": 2.7964247483,
				"y": 2.4690265676,
				"z": -0.1773137535,
				"element": "C" 
			},
			{
				"x": 2.9667540682,
				"y": 3.5342950437,
				"z": -1.0223855545,
				"element": "N" 
			},
			{
				"x": 1.52630201,
				"y": 2.1458752574,
				"z": 0.1813724288,
				"element": "O" 
			},
			{
				"x": -0.2322704827,
				"y": -0.4523143465,
				"z": 0.4318913111,
				"element": "C" 
			},
			{
				"x": -0.793863215,
				"y": 0.2519484252,
				"z": -0.6465283434,
				"element": "C" 
			},
			{
				"x": -1.4937205138,
				"y": -0.4088661219,
				"z": -1.6546163229,
				"element": "C" 
			},
			{
				"x": -1.6511521797,
				"y": -1.7953138138,
				"z": -1.6101929297,
				"element": "C" 
			},
			{
				"x": -1.095842206,
				"y": -2.5082799429,
				"z": -0.5497295132,
				"element": "C" 
			},
			{
				"x": -0.3924653046,
				"y": -1.8438485074,
				"z": 0.4584702662,
				"element": "C" 
			},
			{
				"x": -1.2791085272,
				"y": 0.8512386101,
				"z": 2.6354116233,
				"element": "H" 
			},
			{
				"x": 0.1030434142,
				"y": 1.9104554597,
				"z": 2.9806797705,
				"element": "H" 
			},
			{
				"x": -0.7903161034,
				"y": 2.0805697067,
				"z": 1.460814323,
				"element": "H" 
			},
			{
				"x": 1.5607041627,
				"y": -0.0371143455,
				"z": 3.4215031387,
				"element": "H" 
			},
			{
				"x": 0.2134217517,
				"y": -1.1508051074,
				"z": 3.1290585924,
				"element": "H" 
			},
			{
				"x": 1.76212671,
				"y": -1.3527929194,
				"z": 2.2704544751,
				"element": "H" 
			},
			{
				"x": 2.3144188774,
				"y": 4.2959081966,
				"z": -0.8943576913,
				"element": "H" 
			},
			{
				"x": 3.9313829143,
				"y": 3.8295349457,
				"z": -1.0879326458,
				"element": "H" 
			},
			{
				"x": -0.6736699276,
				"y": 1.3283535604,
				"z": -0.7097106815,
				"element": "H" 
			},
			{
				"x": -1.9151700078,
				"y": 0.1620767459,
				"z": -2.4773549629,
				"element": "H" 
			},
			{
				"x": -2.1967876326,
				"y": -2.3118819035,
				"z": -2.3945245743,
				"element": "H" 
			},
			{
				"x": -1.2044909717,
				"y": -3.5882192262,
				"z": -0.5016102116,
				"element": "H" 
			},
			{
				"x": 0.031727148,
				"y": -2.4283500396,
				"z": 1.266137614,
				"element": "H" 
			}
		],
		 "valence_orbital": [ 
			{
				"type": "occ",
				"energy": -0.30617,
				"method": "rhf"
			},
			{
				"type": "occ",
				"energy": -0.26491,
				"method": "rhf"
			},
			{
				"type": "occ",
				"energy": -0.24864,
				"method": "rhf"
			},
			{
				"type": "occ",
				"energy": -0.24596,
				"method": "rhf"
			},
			{
				"type": "occ",
				"energy": -0.2279,
				"method": "rhf"
			},
			{
				"type": "unocc",
				"energy": -0.00809,
				"method": "rhf"
			},
			{
				"type": "unocc",
				"energy": -0.00075,
				"method": "rhf"
			},
			{
				"type": "unocc",
				"energy": 0.02218,
				"method": "rhf"
			},
			{
				"type": "unocc",
				"energy": 0.05451,
				"method": "rhf"
			},
			{
				"type": "unocc",
				"energy": 0.06981,
				"method": "rhf"
			}
		],
		"cosmo_sigma_profile": { 
			"-0.025": 0.0,
			"-0.024": 0.0,
			"-0.023": 0.0,
			"-0.022": 0.0,
			"-0.021": 0.0,
			"-0.02": 0.0,
			"-0.019": 0.0,
			"-0.018": 0.0,
			"-0.017": 0.0,
			"-0.016": 0.0,
			"-0.015": 1.54177961466,
			"-0.014": 2.96385857027,
			"-0.013": 2.63658933152,
			"-0.012": 2.42609148897,
			"-0.011": 2.65051009624,
			"-0.01": 1.83707307431,
			"-0.009": 1.19012475849,
			"-0.008": 2.49199600956,
			"-0.007": 1.49040293583,
			"-0.006": 4.21228275886,
			"-0.005": 11.8061478185,
			"-0.004": 26.5566521456,
			"-0.003": 25.1896831424,
			"-0.002": 19.6093067731,
			"-0.001": 17.4417780118,
			"0.0": 22.2195867992,
			"0.001": 16.2641123941,
			"0.002": 12.7853415171,
			"0.003": 12.4186726032,
			"0.004": 11.4089403737,
			"0.005": 10.2877571763,
			"0.006": 9.6351687579,
			"0.007": 2.6143517566,
			"0.008": 2.62138975171,
			"0.009": 2.75779060591,
			"0.01": 2.67117961268,
			"0.011": 3.08306569624,
			"0.012": 2.95196651593,
			"0.013": 3.50718642586,
			"0.014": 2.70244347888,
			"0.015": 2.51764500947,
			"0.016": 1.24281056651,
			"0.017": 0.133741717656,
			"0.018": 0.0,
			"0.019": 0.0,
			"0.02": 0.0,
			"0.021": 0.0,
			"0.022": 0.0,
			"0.023": 0.0,
			"0.024": 0.0,
			"0.025": 0.0
		}
	}
}
