{
	 "smiles": "O=C1NC=CC2=C1NC=C2", 
	 "Tm": 553.15, 
	 "num_atms": 16, 
	 "gaussian": { 
		 "optdone": 1, 
		 "sigma_profile": "yes", 
		 "theory": "DFT", 
		 "functional": "B3LYP", 
		 "basiset": "6-31G**", 
		 "properties": { 
			 "R2extent": 1860.1378, 
			 "electric_dipole_moment_norm": 2.21421809901, 
			 "electric_quadrupole_moment_norm": 15.414762823, 
			 "total_energy": -455.101007617, 
			 "HOMO_LUMO_gap": 0.18886, 
			 "cosmo_polarized_energy": -14.06, 
			 "cosmo_cavitation_energy": 20.17, 
			 "cosmo_dispersion_energy": -15.47, 
			 "cosmo_repulsion_energy": 1.24, 
			 "cosmo_total_nonelectrostatic_energy": 5.95, 
			 "SMD_solvation_energy": 4.47 
		},
		"coords": [
			{
				"x": -1.6207304286,
				"y": -1.2801691603,
				"z": -2.7438770719,
				"element": "O" 
			},
			{
				"x": -1.6222691435,
				"y": -0.3920491154,
				"z": -1.8888773245,
				"element": "C" 
			},
			{
				"x": -1.7774885726,
				"y": 0.9621426342,
				"z": -2.217847995,
				"element": "N" 
			},
			{
				"x": -1.7911284978,
				"y": 2.0194110482,
				"z": -1.326117613,
				"element": "C" 
			},
			{
				"x": -1.648024406,
				"y": 1.8261843459,
				"z": 0.0124832673,
				"element": "C" 
			},
			{
				"x": -1.4809509532,
				"y": 0.4793097253,
				"z": 0.4748162463,
				"element": "C" 
			},
			{
				"x": -1.4740481652,
				"y": -0.5575582203,
				"z": -0.4687838104,
				"element": "C" 
			},
			{
				"x": -1.3029269146,
				"y": -1.7457966932,
				"z": 0.1920564354,
				"element": "N" 
			},
			{
				"x": -1.1999607089,
				"y": -1.4952597896,
				"z": 1.5361370614,
				"element": "C" 
			},
			{
				"x": -1.3048866238,
				"y": -0.1346572121,
				"z": 1.751792767,
				"element": "C" 
			},
			{
				"x": -1.8864073399,
				"y": 1.1384154639,
				"z": -3.2078847265,
				"element": "H" 
			},
			{
				"x": -1.9227936619,
				"y": 2.998708538,
				"z": -1.7711148914,
				"element": "H" 
			},
			{
				"x": -1.6619495039,
				"y": 2.6698113675,
				"z": 0.6917096311,
				"element": "H" 
			},
			{
				"x": -1.2641911897,
				"y": -2.6403170378,
				"z": -0.2717972434,
				"element": "H" 
			},
			{
				"x": -1.0597057719,
				"y": -2.3010575452,
				"z": 2.2420123644,
				"element": "H" 
			},
			{
				"x": -1.2601381185,
				"y": 0.3579816509,
				"z": 2.7126929032,
				"element": "H" 
			}
		],
		 "valence_orbital": [ 
			{
				"type": "occ",
				"energy": -0.33341,
				"method": "rhf"
			},
			{
				"type": "occ",
				"energy": -0.27638,
				"method": "rhf"
			},
			{
				"type": "occ",
				"energy": -0.24658,
				"method": "rhf"
			},
			{
				"type": "occ",
				"energy": -0.23053,
				"method": "rhf"
			},
			{
				"type": "occ",
				"energy": -0.1985,
				"method": "rhf"
			},
			{
				"type": "unocc",
				"energy": -0.00964,
				"method": "rhf"
			},
			{
				"type": "unocc",
				"energy": 0.01145,
				"method": "rhf"
			},
			{
				"type": "unocc",
				"energy": 0.0716,
				"method": "rhf"
			},
			{
				"type": "unocc",
				"energy": 0.07957,
				"method": "rhf"
			},
			{
				"type": "unocc",
				"energy": 0.08816,
				"method": "rhf"
			}
		],
		"cosmo_sigma_profile": { 
			"-0.025": 0.0,
			"-0.024": 0.0,
			"-0.023": 0.0,
			"-0.022": 0.0,
			"-0.021": 0.0,
			"-0.02": 0.0,
			"-0.019": 0.0,
			"-0.018": 0.0,
			"-0.017": 0.0,
			"-0.016": 0.671292208795,
			"-0.015": 2.31326401841,
			"-0.014": 2.29152001172,
			"-0.013": 2.01847183098,
			"-0.012": 1.84139787922,
			"-0.011": 1.89416377459,
			"-0.01": 2.23093300888,
			"-0.009": 3.4245127184,
			"-0.008": 5.62485812533,
			"-0.007": 5.31001096374,
			"-0.006": 7.7836219619,
			"-0.005": 8.32939747208,
			"-0.004": 7.61296014884,
			"-0.003": 7.68627459423,
			"-0.002": 6.80062374996,
			"-0.001": 7.20196398745,
			"0.0": 6.41881957637,
			"0.001": 11.0271065365,
			"0.002": 12.6443644696,
			"0.003": 11.5074703201,
			"0.004": 10.321626996,
			"0.005": 11.4112715803,
			"0.006": 6.25801102528,
			"0.007": 1.7728309485,
			"0.008": 0.653118301296,
			"0.009": 1.55963243711,
			"0.01": 1.24830607717,
			"0.011": 1.3260143738,
			"0.012": 1.10050382526,
			"0.013": 1.54669868567,
			"0.014": 4.97979017598,
			"0.015": 4.82079456396,
			"0.016": 0.154106338571,
			"0.017": 0.0,
			"0.018": 0.0,
			"0.019": 0.0,
			"0.02": 0.0,
			"0.021": 0.0,
			"0.022": 0.0,
			"0.023": 0.0,
			"0.024": 0.0,
			"0.025": 0.0
		}
	}
}
