{
	 "smiles": "OC(=O)COC1=CC=C(CC#N)C=C1", 
	 "Tm": 422.15, 
	 "num_atms": 23, 
	 "gaussian": { 
		 "optdone": 1, 
		 "sigma_profile": "yes", 
		 "theory": "DFT", 
		 "functional": "B3LYP", 
		 "basiset": "6-31G**", 
		 "properties": { 
			 "R2extent": 5001.8167, 
			 "electric_dipole_moment_norm": 3.53610531659, 
			 "electric_quadrupole_moment_norm": 36.0731347052, 
			 "total_energy": -666.889594229, 
			 "HOMO_LUMO_gap": 0.21751, 
			 "cosmo_polarized_energy": -19.67, 
			 "cosmo_cavitation_energy": 29.14, 
			 "cosmo_dispersion_energy": -20.68, 
			 "cosmo_repulsion_energy": 1.64, 
			 "cosmo_total_nonelectrostatic_energy": 10.1, 
			 "SMD_solvation_energy": 7.89 
		},
		"coords": [
			{
				"x": 1.6324952146,
				"y": -0.6227539863,
				"z": 5.0230813222,
				"element": "O" 
			},
			{
				"x": 1.1125108047,
				"y": -1.7689429515,
				"z": 4.5565140588,
				"element": "C" 
			},
			{
				"x": 0.9073983689,
				"y": -2.732054271,
				"z": 5.2507501182,
				"element": "O" 
			},
			{
				"x": 0.7871171415,
				"y": -1.7892141418,
				"z": 3.0613983601,
				"element": "C" 
			},
			{
				"x": 1.1190023087,
				"y": -0.5260764027,
				"z": 2.4983959085,
				"element": "O" 
			},
			{
				"x": 0.9092181916,
				"y": -0.30722986,
				"z": 1.1582287427,
				"element": "C" 
			},
			{
				"x": 1.2646993478,
				"y": 0.9603858186,
				"z": 0.6819346482,
				"element": "C" 
			},
			{
				"x": 1.0884895515,
				"y": 1.2716279217,
				"z": -0.660357982,
				"element": "C" 
			},
			{
				"x": 0.5580847365,
				"y": 0.3291828498,
				"z": -1.5525352889,
				"element": "C" 
			},
			{
				"x": 0.3090168736,
				"y": 0.6671094994,
				"z": -3.0172865478,
				"element": "C" 
			},
			{
				"x": 1.3156800005,
				"y": 1.5595346545,
				"z": -3.6012750208,
				"element": "C" 
			},
			{
				"x": 2.1075388038,
				"y": 2.2783550153,
				"z": -4.0517483767,
				"element": "N" 
			},
			{
				"x": 0.2146281176,
				"y": -0.9316203994,
				"z": -1.06378162,
				"element": "C" 
			},
			{
				"x": 0.3819706119,
				"y": -1.2604369721,
				"z": 0.2843672867,
				"element": "C" 
			},
			{
				"x": 1.7026409487,
				"y": 0.0021962138,
				"z": 4.2797972352,
				"element": "H" 
			},
			{
				"x": 1.3623181203,
				"y": -2.5993627816,
				"z": 2.5966492089,
				"element": "H" 
			},
			{
				"x": -0.2806008498,
				"y": -2.0121833882,
				"z": 2.9462848511,
				"element": "H" 
			},
			{
				"x": 1.6798573965,
				"y": 1.6858210014,
				"z": 1.3737945779,
				"element": "H" 
			},
			{
				"x": 1.3787146812,
				"y": 2.2540598258,
				"z": -1.0211384694,
				"element": "H" 
			},
			{
				"x": 0.2763001219,
				"y": -0.2501130826,
				"z": -3.6156577209,
				"element": "H" 
			},
			{
				"x": -0.6709247674,
				"y": 1.1490452416,
				"z": -3.1399007617,
				"element": "H" 
			},
			{
				"x": -0.1918581241,
				"y": -1.6811441619,
				"z": -1.7379088273,
				"element": "H" 
			},
			{
				"x": 0.1074023997,
				"y": -2.2502856428,
				"z": 0.6285942969,
				"element": "H" 
			}
		],
		 "valence_orbital": [ 
			{
				"type": "occ",
				"energy": -0.33111,
				"method": "rhf"
			},
			{
				"type": "occ",
				"energy": -0.31996,
				"method": "rhf"
			},
			{
				"type": "occ",
				"energy": -0.28244,
				"method": "rhf"
			},
			{
				"type": "occ",
				"energy": -0.27847,
				"method": "rhf"
			},
			{
				"type": "occ",
				"energy": -0.2491,
				"method": "rhf"
			},
			{
				"type": "unocc",
				"energy": -0.03159,
				"method": "rhf"
			},
			{
				"type": "unocc",
				"energy": -0.01996,
				"method": "rhf"
			},
			{
				"type": "unocc",
				"energy": 0.00249,
				"method": "rhf"
			},
			{
				"type": "unocc",
				"energy": 0.02307,
				"method": "rhf"
			},
			{
				"type": "unocc",
				"energy": 0.03366,
				"method": "rhf"
			}
		],
		"cosmo_sigma_profile": { 
			"-0.025": 0.0,
			"-0.024": 0.0,
			"-0.023": 0.0,
			"-0.022": 0.0,
			"-0.021": 0.0,
			"-0.02": 0.0,
			"-0.019": 0.0,
			"-0.018": 0.0,
			"-0.017": 0.0,
			"-0.016": 0.0,
			"-0.015": 0.424924844758,
			"-0.014": 0.552531140811,
			"-0.013": 0.309963688043,
			"-0.012": 0.914195698243,
			"-0.011": 0.860205130904,
			"-0.01": 0.318533208643,
			"-0.009": 6.22860339626,
			"-0.008": 16.9113828862,
			"-0.007": 15.6177159668,
			"-0.006": 17.8403497367,
			"-0.005": 16.2440109783,
			"-0.004": 12.7264070121,
			"-0.003": 9.02789332431,
			"-0.002": 10.6169051621,
			"-0.001": 9.56393852182,
			"0.0": 8.4446192948,
			"0.001": 11.2732490497,
			"0.002": 13.0365578445,
			"0.003": 12.8385788777,
			"0.004": 14.57758111,
			"0.005": 6.4037442137,
			"0.006": 3.96354953085,
			"0.007": 5.2726978264,
			"0.008": 6.45118268819,
			"0.009": 7.28419429315,
			"0.01": 7.90392639338,
			"0.011": 7.51453561722,
			"0.012": 7.49944747585,
			"0.013": 2.81608952897,
			"0.014": 0.251976642769,
			"0.015": 0.0,
			"0.016": 0.0,
			"0.017": 0.0,
			"0.018": 0.0,
			"0.019": 0.0,
			"0.02": 0.0,
			"0.021": 0.0,
			"0.022": 0.0,
			"0.023": 0.0,
			"0.024": 0.0,
			"0.025": 0.0
		}
	}
}
