{
	 "smiles": "BrCC(=O)C1=CC(=CC=C1)N1CCCC1=O", 
	 "Tm": 357.15, 
	 "num_atms": 28, 
	 "gaussian": { 
		 "optdone": 1, 
		 "sigma_profile": "yes", 
		 "theory": "DFT", 
		 "functional": "B3LYP", 
		 "basiset": "6-31G**", 
		 "properties": { 
			 "R2extent": 7962.3283, 
			 "electric_dipole_moment_norm": 5.44069466337, 
			 "electric_quadrupole_moment_norm": 24.1494829965, 
			 "total_energy": -3241.12945817, 
			 "HOMO_LUMO_gap": 0.16741, 
			 "cosmo_polarized_energy": -18.06, 
			 "cosmo_cavitation_energy": 33.61, 
			 "cosmo_dispersion_energy": -24.96, 
			 "cosmo_repulsion_energy": 1.95, 
			 "cosmo_total_nonelectrostatic_energy": 10.59, 
			 "SMD_solvation_energy": 4.88 
		},
		"coords": [
			{
				"x": 4.3229301318,
				"y": -2.1687098567,
				"z": 1.1665518025,
				"element": "Br" 
			},
			{
				"x": 2.6806756939,
				"y": -1.1163339891,
				"z": 1.1954628302,
				"element": "C" 
			},
			{
				"x": 2.824066498,
				"y": 0.2556641575,
				"z": 0.5276384421,
				"element": "C" 
			},
			{
				"x": 3.8709791892,
				"y": 0.6231099825,
				"z": 0.031818107,
				"element": "O" 
			},
			{
				"x": 1.6038027535,
				"y": 1.1283907124,
				"z": 0.514628267,
				"element": "C" 
			},
			{
				"x": 0.3811193928,
				"y": 0.731834027,
				"z": 1.0773656028,
				"element": "C" 
			},
			{
				"x": -0.7368451854,
				"y": 1.5807628205,
				"z": 1.0444169746,
				"element": "C" 
			},
			{
				"x": -0.6129635647,
				"y": 2.8420549229,
				"z": 0.4299585433,
				"element": "C" 
			},
			{
				"x": 0.6045868862,
				"y": 3.2255435308,
				"z": -0.1296570263,
				"element": "C" 
			},
			{
				"x": 1.7133832963,
				"y": 2.3860598671,
				"z": -0.0924390296,
				"element": "C" 
			},
			{
				"x": -1.9490397973,
				"y": 1.1590123149,
				"z": 1.6374445441,
				"element": "N" 
			},
			{
				"x": -2.0234538305,
				"y": -0.0630116136,
				"z": 2.4487597083,
				"element": "C" 
			},
			{
				"x": -3.4050279307,
				"y": 0.0197579946,
				"z": 3.1215491749,
				"element": "C" 
			},
			{
				"x": -4.2332104803,
				"y": 0.8491123084,
				"z": 2.1359487621,
				"element": "C" 
			},
			{
				"x": -3.2067504359,
				"y": 1.7200373231,
				"z": 1.4175522602,
				"element": "C" 
			},
			{
				"x": -3.4528593302,
				"y": 2.7128639325,
				"z": 0.7555572048,
				"element": "O" 
			},
			{
				"x": 2.3956472431,
				"y": -1.0047979605,
				"z": 2.2432706213,
				"element": "H" 
			},
			{
				"x": 1.9165960545,
				"y": -1.7100609705,
				"z": 0.6900556551,
				"element": "H" 
			},
			{
				"x": 0.2938336676,
				"y": -0.2450716702,
				"z": 1.5345399266,
				"element": "H" 
			},
			{
				"x": -1.4719188176,
				"y": 3.4957706657,
				"z": 0.3892137648,
				"element": "H" 
			},
			{
				"x": 0.6811821201,
				"y": 4.2019472267,
				"z": -0.5989063606,
				"element": "H" 
			},
			{
				"x": 2.6657137249,
				"y": 2.675893776,
				"z": -0.5214037198,
				"element": "H" 
			},
			{
				"x": -1.2070831874,
				"y": -0.0878379216,
				"z": 3.1768510036,
				"element": "H" 
			},
			{
				"x": -1.9357267983,
				"y": -0.9549629069,
				"z": 1.811879251,
				"element": "H" 
			},
			{
				"x": -3.3173073606,
				"y": 0.5469513171,
				"z": 4.0765643487,
				"element": "H" 
			},
			{
				"x": -3.8194853083,
				"y": -0.9705547602,
				"z": 3.3227321895,
				"element": "H" 
			},
			{
				"x": -5.0011944655,
				"y": 1.4749595776,
				"z": 2.5944823596,
				"element": "H" 
			},
			{
				"x": -4.7271501594,
				"y": 0.2229151917,
				"z": 1.3822647922,
				"element": "H" 
			}
		],
		 "valence_orbital": [ 
			{
				"type": "occ",
				"energy": -0.27461,
				"method": "rhf"
			},
			{
				"type": "occ",
				"energy": -0.26787,
				"method": "rhf"
			},
			{
				"type": "occ",
				"energy": -0.26512,
				"method": "rhf"
			},
			{
				"type": "occ",
				"energy": -0.26007,
				"method": "rhf"
			},
			{
				"type": "occ",
				"energy": -0.23278,
				"method": "rhf"
			},
			{
				"type": "unocc",
				"energy": -0.06537,
				"method": "rhf"
			},
			{
				"type": "unocc",
				"energy": -0.02528,
				"method": "rhf"
			},
			{
				"type": "unocc",
				"energy": -0.00064,
				"method": "rhf"
			},
			{
				"type": "unocc",
				"energy": 0.01618,
				"method": "rhf"
			},
			{
				"type": "unocc",
				"energy": 0.0424,
				"method": "rhf"
			}
		],
		"cosmo_sigma_profile": { 
			"-0.025": 0.0,
			"-0.024": 0.0,
			"-0.023": 0.0,
			"-0.022": 0.0,
			"-0.021": 0.0,
			"-0.02": 0.0,
			"-0.019": 0.0,
			"-0.018": 0.0,
			"-0.017": 0.0,
			"-0.016": 0.0,
			"-0.015": 0.0,
			"-0.014": 0.0,
			"-0.013": 0.0,
			"-0.012": 0.0,
			"-0.011": 0.0,
			"-0.01": 1.43160755506,
			"-0.009": 8.13528775217,
			"-0.008": 6.26595614774,
			"-0.007": 5.69134152961,
			"-0.006": 13.6470689073,
			"-0.005": 23.1465249137,
			"-0.004": 28.2889058762,
			"-0.003": 20.8179536842,
			"-0.002": 17.3580867459,
			"-0.001": 16.13566891,
			"0.0": 14.1112030119,
			"0.001": 14.208383243,
			"0.002": 17.0100314264,
			"0.003": 18.1520374496,
			"0.004": 13.3284134006,
			"0.005": 10.8721824969,
			"0.006": 9.5405317585,
			"0.007": 4.41404697479,
			"0.008": 2.84608851794,
			"0.009": 5.19443118747,
			"0.01": 4.10199082807,
			"0.011": 5.82196728554,
			"0.012": 5.6155117613,
			"0.013": 3.41337992709,
			"0.014": 1.17520887568,
			"0.015": 0.0299137563714,
			"0.016": 0.0,
			"0.017": 0.0,
			"0.018": 0.0,
			"0.019": 0.0,
			"0.02": 0.0,
			"0.021": 0.0,
			"0.022": 0.0,
			"0.023": 0.0,
			"0.024": 0.0,
			"0.025": 0.0
		}
	}
}
