{
	 "smiles": "OC(=O)C1CC1[N+]([O-])=O", 
	 "Tm": 397.15, 
	 "num_atms": 14, 
	 "gaussian": { 
		 "optdone": 1, 
		 "sigma_profile": "yes", 
		 "theory": "DFT", 
		 "functional": "B3LYP", 
		 "basiset": "6-31G**", 
		 "properties": { 
			 "R2extent": 1923.9766, 
			 "electric_dipole_moment_norm": 3.86701627356, 
			 "electric_quadrupole_moment_norm": 10.6616930513, 
			 "total_energy": -510.967677298, 
			 "HOMO_LUMO_gap": 0.21412, 
			 "cosmo_polarized_energy": -12.98, 
			 "cosmo_cavitation_energy": 19.49, 
			 "cosmo_dispersion_energy": -14.14, 
			 "cosmo_repulsion_energy": 1.19, 
			 "cosmo_total_nonelectrostatic_energy": 6.53, 
			 "SMD_solvation_energy": 6.46 
		},
		"coords": [
			{
				"x": -0.3799348605,
				"y": -2.1709684238,
				"z": 0.7113480515,
				"element": "O" 
			},
			{
				"x": 0.8051705309,
				"y": -2.2456031438,
				"z": 0.0524220922,
				"element": "C" 
			},
			{
				"x": 1.5670518361,
				"y": -3.1777875318,
				"z": 0.1674168443,
				"element": "O" 
			},
			{
				"x": 1.0527577238,
				"y": -1.0547875918,
				"z": -0.808558944,
				"element": "C" 
			},
			{
				"x": 0.5848623296,
				"y": 0.3213303633,
				"z": -0.3973995441,
				"element": "C" 
			},
			{
				"x": -0.1227552423,
				"y": -0.3886743383,
				"z": -1.5062116015,
				"element": "C" 
			},
			{
				"x": 0.1121940819,
				"y": 0.0812394406,
				"z": -2.8846076751,
				"element": "N" 
			},
			{
				"x": -0.8297378653,
				"y": -0.0269859101,
				"z": -3.6631394796,
				"element": "O" 
			},
			{
				"x": 1.218921607,
				"y": 0.5454305954,
				"z": -3.1541166576,
				"element": "O" 
			},
			{
				"x": -0.450318636,
				"y": -2.9833193853,
				"z": 1.2398233299,
				"element": "H" 
			},
			{
				"x": 1.9715952611,
				"y": -1.1079546681,
				"z": -1.3801325076,
				"element": "H" 
			},
			{
				"x": 1.2271996731,
				"y": 1.1464402291,
				"z": -0.6834913487,
				"element": "H" 
			},
			{
				"x": 0.0418767075,
				"y": 0.4224249665,
				"z": 0.5352184719,
				"element": "H" 
			},
			{
				"x": -1.124183147,
				"y": -0.7761846018,
				"z": -1.3840710319,
				"element": "H" 
			}
		],
		 "valence_orbital": [ 
			{
				"type": "occ",
				"energy": -0.3353,
				"method": "rhf"
			},
			{
				"type": "occ",
				"energy": -0.31994,
				"method": "rhf"
			},
			{
				"type": "occ",
				"energy": -0.31429,
				"method": "rhf"
			},
			{
				"type": "occ",
				"energy": -0.29982,
				"method": "rhf"
			},
			{
				"type": "occ",
				"energy": -0.29317,
				"method": "rhf"
			},
			{
				"type": "unocc",
				"energy": -0.07905,
				"method": "rhf"
			},
			{
				"type": "unocc",
				"energy": -0.0127,
				"method": "rhf"
			},
			{
				"type": "unocc",
				"energy": 0.05607,
				"method": "rhf"
			},
			{
				"type": "unocc",
				"energy": 0.06492,
				"method": "rhf"
			},
			{
				"type": "unocc",
				"energy": 0.11554,
				"method": "rhf"
			}
		],
		"cosmo_sigma_profile": { 
			"-0.025": 0.0,
			"-0.024": 0.0,
			"-0.023": 0.0,
			"-0.022": 0.0,
			"-0.021": 0.0,
			"-0.02": 0.0,
			"-0.019": 0.395398643582,
			"-0.018": 1.18247248143,
			"-0.017": 0.866070347375,
			"-0.016": 0.798558488377,
			"-0.015": 0.251824034701,
			"-0.014": 0.426215175244,
			"-0.013": 0.84590568938,
			"-0.012": 1.19302875118,
			"-0.011": 1.21329857243,
			"-0.01": 0.427972993054,
			"-0.009": 1.28938737609,
			"-0.008": 4.92612250899,
			"-0.007": 7.4707003954,
			"-0.006": 9.851237356,
			"-0.005": 10.2561431332,
			"-0.004": 11.4554693395,
			"-0.003": 12.301756084,
			"-0.002": 9.89470167837,
			"-0.001": 7.28520142833,
			"0.0": 5.22137633153,
			"0.001": 6.08992096191,
			"0.002": 3.9739281425,
			"0.003": 3.56010849678,
			"0.004": 5.07944908585,
			"0.005": 5.0503893017,
			"0.006": 6.75665190599,
			"0.007": 10.9806260826,
			"0.008": 8.62139839435,
			"0.009": 5.93969461953,
			"0.01": 3.5233954452,
			"0.011": 5.37011209375,
			"0.012": 2.20324433721,
			"0.013": 0.0335230805201,
			"0.014": 0.0,
			"0.015": 0.0,
			"0.016": 0.0,
			"0.017": 0.0,
			"0.018": 0.0,
			"0.019": 0.0,
			"0.02": 0.0,
			"0.021": 0.0,
			"0.022": 0.0,
			"0.023": 0.0,
			"0.024": 0.0,
			"0.025": 0.0
		}
	}
}
