{
	 "smiles": "FC1=CC=C(C=C1)C1=NC(CCl)=NO1", 
	 "Tm": 326.15, 
	 "num_atms": 20, 
	 "gaussian": { 
		 "optdone": 1, 
		 "sigma_profile": "yes", 
		 "theory": "DFT", 
		 "functional": "B3LYP", 
		 "basiset": "6-31G**", 
		 "properties": { 
			 "R2extent": 5683.9504, 
			 "electric_dipole_moment_norm": 2.35284734949, 
			 "electric_quadrupole_moment_norm": 11.3952320389, 
			 "total_energy": -1091.29385389, 
			 "HOMO_LUMO_gap": 0.18705, 
			 "cosmo_polarized_energy": -8.94, 
			 "cosmo_cavitation_energy": 28.05, 
			 "cosmo_dispersion_energy": -20.63, 
			 "cosmo_repulsion_energy": 1.6, 
			 "cosmo_total_nonelectrostatic_energy": 9.02, 
			 "SMD_solvation_energy": 3.06 
		},
		"coords": [
			{
				"x": -3.6057595843,
				"y": -3.5017888095,
				"z": 0.8505427067,
				"element": "F" 
			},
			{
				"x": -2.9081025997,
				"y": -2.3601563654,
				"z": 0.7193331203,
				"element": "C" 
			},
			{
				"x": -1.5878710941,
				"y": -2.3250932944,
				"z": 1.1597315219,
				"element": "C" 
			},
			{
				"x": -0.8685163421,
				"y": -1.1424692225,
				"z": 1.0224178862,
				"element": "C" 
			},
			{
				"x": -1.4718142176,
				"y": -0.0110571908,
				"z": 0.4489404132,
				"element": "C" 
			},
			{
				"x": -2.8063597013,
				"y": -0.0747787189,
				"z": 0.0139295099,
				"element": "C" 
			},
			{
				"x": -3.5310829679,
				"y": -1.2532459252,
				"z": 0.1478017328,
				"element": "C" 
			},
			{
				"x": -0.7369286996,
				"y": 1.2385613192,
				"z": 0.2955235821,
				"element": "C" 
			},
			{
				"x": -1.1520466357,
				"y": 2.3619186436,
				"z": -0.2289490731,
				"element": "N" 
			},
			{
				"x": -0.0503812263,
				"y": 3.1687663231,
				"z": -0.1013728248,
				"element": "C" 
			},
			{
				"x": 0.0011032684,
				"y": 4.5829122068,
				"z": -0.5665628044,
				"element": "C" 
			},
			{
				"x": -0.9904193762,
				"y": 5.6756884512,
				"z": 0.493346596,
				"element": "Cl" 
			},
			{
				"x": 0.9932248837,
				"y": 2.603626804,
				"z": 0.45769494,
				"element": "N" 
			},
			{
				"x": 0.5408962577,
				"y": 1.3046656358,
				"z": 0.7275303946,
				"element": "O" 
			},
			{
				"x": -1.1456767206,
				"y": -3.2122425953,
				"z": 1.5989377036,
				"element": "H" 
			},
			{
				"x": 0.1612390647,
				"y": -1.0922316638,
				"z": 1.3587711352,
				"element": "H" 
			},
			{
				"x": -3.2605902058,
				"y": 0.806798447,
				"z": -0.4247875691,
				"element": "H" 
			},
			{
				"x": -4.5621102669,
				"y": -1.3281047904,
				"z": -0.1792630443,
				"element": "H" 
			},
			{
				"x": 1.0257560191,
				"y": 4.9504142409,
				"z": -0.5417247764,
				"element": "H" 
			},
			{
				"x": -0.4118598557,
				"y": 4.6708165045,
				"z": -1.5713411503,
				"element": "H" 
			}
		],
		 "valence_orbital": [ 
			{
				"type": "occ",
				"energy": -0.30941,
				"method": "rhf"
			},
			{
				"type": "occ",
				"energy": -0.30476,
				"method": "rhf"
			},
			{
				"type": "occ",
				"energy": -0.30249,
				"method": "rhf"
			},
			{
				"type": "occ",
				"energy": -0.28267,
				"method": "rhf"
			},
			{
				"type": "occ",
				"energy": -0.25457,
				"method": "rhf"
			},
			{
				"type": "unocc",
				"energy": -0.06752,
				"method": "rhf"
			},
			{
				"type": "unocc",
				"energy": -0.03204,
				"method": "rhf"
			},
			{
				"type": "unocc",
				"energy": -0.02311,
				"method": "rhf"
			},
			{
				"type": "unocc",
				"energy": 0.03413,
				"method": "rhf"
			},
			{
				"type": "unocc",
				"energy": 0.0578,
				"method": "rhf"
			}
		],
		"cosmo_sigma_profile": { 
			"-0.025": 0.0,
			"-0.024": 0.0,
			"-0.023": 0.0,
			"-0.022": 0.0,
			"-0.021": 0.0,
			"-0.02": 0.0,
			"-0.019": 0.0,
			"-0.018": 0.0,
			"-0.017": 0.0,
			"-0.016": 0.0,
			"-0.015": 0.0,
			"-0.014": 0.0,
			"-0.013": 0.0,
			"-0.012": 0.0,
			"-0.011": 0.0,
			"-0.01": 0.549170129216,
			"-0.009": 3.76990079304,
			"-0.008": 8.01149300593,
			"-0.007": 10.9203635417,
			"-0.006": 11.3829582694,
			"-0.005": 10.5500953879,
			"-0.004": 10.1601981434,
			"-0.003": 12.1993396336,
			"-0.002": 13.8508485623,
			"-0.001": 18.5685769589,
			"0.0": 21.3900893192,
			"0.001": 20.8393641002,
			"0.002": 18.3199657482,
			"0.003": 13.9658199889,
			"0.004": 17.2102414405,
			"0.005": 13.9019418278,
			"0.006": 9.56615754773,
			"0.007": 3.21323463721,
			"0.008": 2.32070358212,
			"0.009": 1.95836628767,
			"0.01": 2.27594710298,
			"0.011": 2.29819216934,
			"0.012": 1.42231325688,
			"0.013": 0.148261414871,
			"0.014": 0.0,
			"0.015": 0.0,
			"0.016": 0.0,
			"0.017": 0.0,
			"0.018": 0.0,
			"0.019": 0.0,
			"0.02": 0.0,
			"0.021": 0.0,
			"0.022": 0.0,
			"0.023": 0.0,
			"0.024": 0.0,
			"0.025": 0.0
		}
	}
}
