{
	 "smiles": "COC1=CC(=CC(OC)=C1C)C(O)=O", 
	 "Tm": 486.15, 
	 "num_atms": 26, 
	 "gaussian": { 
		 "optdone": 1, 
		 "sigma_profile": "yes", 
		 "theory": "DFT", 
		 "functional": "B3LYP", 
		 "basiset": "6-31G**", 
		 "properties": { 
			 "R2extent": 3926.3658, 
			 "electric_dipole_moment_norm": 3.86142659389, 
			 "electric_quadrupole_moment_norm": 30.9609384483, 
			 "total_energy": -689.183609059, 
			 "HOMO_LUMO_gap": 0.18675, 
			 "cosmo_polarized_energy": -15.72, 
			 "cosmo_cavitation_energy": 29.71, 
			 "cosmo_dispersion_energy": -21.55, 
			 "cosmo_repulsion_energy": 1.71, 
			 "cosmo_total_nonelectrostatic_energy": 9.87, 
			 "SMD_solvation_energy": 7.87 
		},
		"coords": [
			{
				"x": 1.8723151116,
				"y": -1.2525931068,
				"z": -3.0198592381,
				"element": "C" 
			},
			{
				"x": 1.7433283994,
				"y": -0.3495363002,
				"z": -1.9345514659,
				"element": "O" 
			},
			{
				"x": 1.1264711118,
				"y": -0.7758926403,
				"z": -0.7918551244,
				"element": "C" 
			},
			{
				"x": 0.624500591,
				"y": -2.074438322,
				"z": -0.6298735948,
				"element": "C" 
			},
			{
				"x": 0.0217988724,
				"y": -2.4331610481,
				"z": 0.5821600556,
				"element": "C" 
			},
			{
				"x": -0.0677473943,
				"y": -1.5153695617,
				"z": 1.6303892142,
				"element": "C" 
			},
			{
				"x": 0.4274421915,
				"y": -0.2214580387,
				"z": 1.4487975156,
				"element": "C" 
			},
			{
				"x": 0.3758624231,
				"y": 0.7491120837,
				"z": 2.4052241901,
				"element": "O" 
			},
			{
				"x": -0.2060384941,
				"y": 0.430274432,
				"z": 3.6621918408,
				"element": "C" 
			},
			{
				"x": 1.0259964138,
				"y": 0.1763837295,
				"z": 0.2377710319,
				"element": "C" 
			},
			{
				"x": 1.548487502,
				"y": 1.5800596126,
				"z": 0.0827098669,
				"element": "C" 
			},
			{
				"x": -0.5285379173,
				"y": -3.8051171598,
				"z": 0.825074469,
				"element": "C" 
			},
			{
				"x": -0.8527263518,
				"y": -4.5327862486,
				"z": -0.2801694291,
				"element": "O" 
			},
			{
				"x": -0.6960390621,
				"y": -4.2758369659,
				"z": 1.9261437807,
				"element": "O" 
			},
			{
				"x": 0.8940296525,
				"y": -1.5937983297,
				"z": -3.3831780297,
				"element": "H" 
			},
			{
				"x": 2.37396153,
				"y": -0.6976897565,
				"z": -3.8139739733,
				"element": "H" 
			},
			{
				"x": 2.4815995609,
				"y": -2.125538451,
				"z": -2.7523611639,
				"element": "H" 
			},
			{
				"x": 0.7622322001,
				"y": -2.8096866579,
				"z": -1.4136523205,
				"element": "H" 
			},
			{
				"x": -0.5209039716,
				"y": -1.8403576115,
				"z": 2.5572021897,
				"element": "H" 
			},
			{
				"x": -1.2593068464,
				"y": 0.1422609413,
				"z": 3.5575993143,
				"element": "H" 
			},
			{
				"x": -0.1385662378,
				"y": 1.3392482732,
				"z": 4.2615963944,
				"element": "H" 
			},
			{
				"x": 0.3387861927,
				"y": -0.3776593853,
				"z": 4.1654279876,
				"element": "H" 
			},
			{
				"x": 1.8928959144,
				"y": 1.7598887958,
				"z": -0.9348257531,
				"element": "H" 
			},
			{
				"x": 2.3806606017,
				"y": 1.763283888,
				"z": 0.7720203228,
				"element": "H" 
			},
			{
				"x": 0.7715124791,
				"y": 2.3092629243,
				"z": 0.3333899311,
				"element": "H" 
			},
			{
				"x": -0.8375144725,
				"y": -3.9599550965,
				"z": -1.0595980119,
				"element": "H" 
			}
		],
		 "valence_orbital": [ 
			{
				"type": "occ",
				"energy": -0.31927,
				"method": "rhf"
			},
			{
				"type": "occ",
				"energy": -0.30477,
				"method": "rhf"
			},
			{
				"type": "occ",
				"energy": -0.26806,
				"method": "rhf"
			},
			{
				"type": "occ",
				"energy": -0.23017,
				"method": "rhf"
			},
			{
				"type": "occ",
				"energy": -0.22907,
				"method": "rhf"
			},
			{
				"type": "unocc",
				"energy": -0.04232,
				"method": "rhf"
			},
			{
				"type": "unocc",
				"energy": 0.0073,
				"method": "rhf"
			},
			{
				"type": "unocc",
				"energy": 0.0555,
				"method": "rhf"
			},
			{
				"type": "unocc",
				"energy": 0.06458,
				"method": "rhf"
			},
			{
				"type": "unocc",
				"energy": 0.0931,
				"method": "rhf"
			}
		],
		"cosmo_sigma_profile": { 
			"-0.025": 0.0,
			"-0.024": 0.0,
			"-0.023": 0.0,
			"-0.022": 0.0,
			"-0.021": 0.0,
			"-0.02": 0.0,
			"-0.019": 0.0,
			"-0.018": 0.278810190346,
			"-0.017": 1.06336143622,
			"-0.016": 1.13791017847,
			"-0.015": 0.655575313826,
			"-0.014": 0.773069821962,
			"-0.013": 1.03497917312,
			"-0.012": 1.20391167045,
			"-0.011": 1.30637370316,
			"-0.01": 1.12328747777,
			"-0.009": 1.25216284255,
			"-0.008": 1.72464634786,
			"-0.007": 3.00044822153,
			"-0.006": 12.765527402,
			"-0.005": 19.2739229983,
			"-0.004": 20.0814763152,
			"-0.003": 22.6053691486,
			"-0.002": 14.2852162148,
			"-0.001": 13.8207070382,
			"0.0": 14.8808514375,
			"0.001": 15.0063429154,
			"0.002": 14.719581065,
			"0.003": 18.0783376179,
			"0.004": 9.98243098129,
			"0.005": 6.30501786721,
			"0.006": 6.65633613798,
			"0.007": 6.10290986694,
			"0.008": 5.16750958066,
			"0.009": 3.77230787467,
			"0.01": 4.74337275102,
			"0.011": 5.00606248698,
			"0.012": 5.51473246209,
			"0.013": 1.84685037682,
			"0.014": 0.182079423207,
			"0.015": 0.0,
			"0.016": 0.0,
			"0.017": 0.0,
			"0.018": 0.0,
			"0.019": 0.0,
			"0.02": 0.0,
			"0.021": 0.0,
			"0.022": 0.0,
			"0.023": 0.0,
			"0.024": 0.0,
			"0.025": 0.0
		}
	}
}
