{
	 "smiles": "ON=CC1=CC=C(Br)C=C1", 
	 "Tm": 391.15, 
	 "num_atms": 16, 
	 "gaussian": { 
		 "optdone": 1, 
		 "sigma_profile": "yes", 
		 "theory": "DFT", 
		 "functional": "B3LYP", 
		 "basiset": "6-31G**", 
		 "properties": { 
			 "R2extent": 4029.2609, 
			 "electric_dipole_moment_norm": 1.36486899738, 
			 "electric_quadrupole_moment_norm": 7.93079144474, 
			 "total_energy": -2971.68012, 
			 "HOMO_LUMO_gap": 0.17624, 
			 "cosmo_polarized_energy": -8.03, 
			 "cosmo_cavitation_energy": 23.39, 
			 "cosmo_dispersion_energy": -17.71, 
			 "cosmo_repulsion_energy": 1.45, 
			 "cosmo_total_nonelectrostatic_energy": 7.12, 
			 "SMD_solvation_energy": 3.38 
		},
		"coords": [
			{
				"x": 0.308980237,
				"y": 3.7256839828,
				"z": -1.7419155975,
				"element": "O" 
			},
			{
				"x": 0.8379950367,
				"y": 2.6230973457,
				"z": -1.0646400014,
				"element": "N" 
			},
			{
				"x": -0.0732400777,
				"y": 2.0107068435,
				"z": -0.4032712611,
				"element": "C" 
			},
			{
				"x": 0.2332078734,
				"y": 0.8184614481,
				"z": 0.3918319038,
				"element": "C" 
			},
			{
				"x": -0.7995423159,
				"y": 0.1833600329,
				"z": 1.0983156708,
				"element": "C" 
			},
			{
				"x": -0.5530300729,
				"y": -0.9530784109,
				"z": 1.8668265267,
				"element": "C" 
			},
			{
				"x": 0.7432196853,
				"y": -1.4593218715,
				"z": 1.9284154191,
				"element": "C" 
			},
			{
				"x": 1.0959168082,
				"y": -3.0158701897,
				"z": 2.9771478841,
				"element": "Br" 
			},
			{
				"x": 1.7903755579,
				"y": -0.8468834752,
				"z": 1.2351056528,
				"element": "C" 
			},
			{
				"x": 1.5325179287,
				"y": 0.2857428815,
				"z": 0.4720449536,
				"element": "C" 
			},
			{
				"x": 1.0841885215,
				"y": 4.089509523,
				"z": -2.1901509035,
				"element": "H" 
			},
			{
				"x": -1.1047601212,
				"y": 2.3713004063,
				"z": -0.4215792397,
				"element": "H" 
			},
			{
				"x": -1.8093860707,
				"y": 0.5817350332,
				"z": 1.0473986075,
				"element": "H" 
			},
			{
				"x": -1.3559156379,
				"y": -1.4382919121,
				"z": 2.4098105759,
				"element": "H" 
			},
			{
				"x": 2.7931810922,
				"y": -1.2544873035,
				"z": 1.2944200145,
				"element": "H" 
			},
			{
				"x": 2.3362915555,
				"y": 0.7708356659,
				"z": -0.0710602054,
				"element": "H" 
			}
		],
		 "valence_orbital": [ 
			{
				"type": "occ",
				"energy": -0.28984,
				"method": "rhf"
			},
			{
				"type": "occ",
				"energy": -0.28585,
				"method": "rhf"
			},
			{
				"type": "occ",
				"energy": -0.27951,
				"method": "rhf"
			},
			{
				"type": "occ",
				"energy": -0.2686,
				"method": "rhf"
			},
			{
				"type": "occ",
				"energy": -0.22811,
				"method": "rhf"
			},
			{
				"type": "unocc",
				"energy": -0.05187,
				"method": "rhf"
			},
			{
				"type": "unocc",
				"energy": -0.01732,
				"method": "rhf"
			},
			{
				"type": "unocc",
				"energy": 0.00505,
				"method": "rhf"
			},
			{
				"type": "unocc",
				"energy": 0.03936,
				"method": "rhf"
			},
			{
				"type": "unocc",
				"energy": 0.07057,
				"method": "rhf"
			}
		],
		"cosmo_sigma_profile": { 
			"-0.025": 0.0,
			"-0.024": 0.0,
			"-0.023": 0.0,
			"-0.022": 0.0,
			"-0.021": 0.0,
			"-0.02": 0.0,
			"-0.019": 0.0,
			"-0.018": 0.263017960205,
			"-0.017": 0.95001775376,
			"-0.016": 1.11487487773,
			"-0.015": 0.978135195659,
			"-0.014": 0.755883151879,
			"-0.013": 0.516885819579,
			"-0.012": 0.423511370518,
			"-0.011": 0.581544988867,
			"-0.01": 0.4314319587,
			"-0.009": 1.26199161409,
			"-0.008": 3.93062259545,
			"-0.007": 8.17489703526,
			"-0.006": 9.10303026164,
			"-0.005": 8.8946623792,
			"-0.004": 8.57463568545,
			"-0.003": 9.73817345836,
			"-0.002": 9.06072306847,
			"-0.001": 10.2866971665,
			"0.0": 10.3173768261,
			"0.001": 17.35122845,
			"0.002": 22.4058075074,
			"0.003": 24.9436960837,
			"0.004": 16.4701194181,
			"0.005": 7.65442279701,
			"0.006": 4.29106569989,
			"0.007": 2.99477947548,
			"0.008": 2.006119204,
			"0.009": 2.67889289309,
			"0.01": 3.62602348724,
			"0.011": 0.905589625582,
			"0.012": 0.0,
			"0.013": 0.0,
			"0.014": 0.0,
			"0.015": 0.0,
			"0.016": 0.0,
			"0.017": 0.0,
			"0.018": 0.0,
			"0.019": 0.0,
			"0.02": 0.0,
			"0.021": 0.0,
			"0.022": 0.0,
			"0.023": 0.0,
			"0.024": 0.0,
			"0.025": 0.0
		}
	}
}
