{
	 "smiles": "CC1=CC(=C(N)C(=C1)C(O)=O)[N+]([O-])=O", 
	 "Tm": 523.15, 
	 "num_atms": 22, 
	 "gaussian": { 
		 "optdone": 1, 
		 "sigma_profile": "yes", 
		 "theory": "DFT", 
		 "functional": "B3LYP", 
		 "basiset": "6-31G**", 
		 "properties": { 
			 "R2extent": 3462.7797, 
			 "electric_dipole_moment_norm": 1.6877559954, 
			 "electric_quadrupole_moment_norm": 30.110659806, 
			 "total_energy": -719.994447294, 
			 "HOMO_LUMO_gap": 0.14852, 
			 "cosmo_polarized_energy": -15.98, 
			 "cosmo_cavitation_energy": 26.57, 
			 "cosmo_dispersion_energy": -19.92, 
			 "cosmo_repulsion_energy": 1.55, 
			 "cosmo_total_nonelectrostatic_energy": 8.2, 
			 "SMD_solvation_energy": 7.89 
		},
		"coords": [
			{
				"x": 2.6813300143,
				"y": -0.3075550354,
				"z": -0.3350169961,
				"element": "C" 
			},
			{
				"x": 1.2148117339,
				"y": -0.5423173384,
				"z": -0.0655324837,
				"element": "C" 
			},
			{
				"x": 0.3674206497,
				"y": 0.4901020093,
				"z": 0.3132024061,
				"element": "C" 
			},
			{
				"x": -0.9963614267,
				"y": 0.2669600572,
				"z": 0.5499266633,
				"element": "C" 
			},
			{
				"x": -1.572285992,
				"y": -1.0210320239,
				"z": 0.4262033733,
				"element": "C" 
			},
			{
				"x": -2.9239419871,
				"y": -1.2939031641,
				"z": 0.6490675377,
				"element": "N" 
			},
			{
				"x": -0.6881148679,
				"y": -2.0800772335,
				"z": 0.0876139899,
				"element": "C" 
			},
			{
				"x": 0.6559757399,
				"y": -1.8235747175,
				"z": -0.1739391419,
				"element": "C" 
			},
			{
				"x": -1.0952254452,
				"y": -3.5343091122,
				"z": 0.0413162047,
				"element": "C" 
			},
			{
				"x": -2.1894992099,
				"y": -3.8952493876,
				"z": 0.7461574884,
				"element": "O" 
			},
			{
				"x": -0.4514870096,
				"y": -4.36241533,
				"z": -0.5614300837,
				"element": "O" 
			},
			{
				"x": -1.7883023658,
				"y": 1.4471873936,
				"z": 0.8991465639,
				"element": "N" 
			},
			{
				"x": -1.239466407,
				"y": 2.5450607497,
				"z": 0.8640528181,
				"element": "O" 
			},
			{
				"x": -2.9803122168,
				"y": 1.301759568,
				"z": 1.2212234152,
				"element": "O" 
			},
			{
				"x": 3.3086696641,
				"y": -0.8879684855,
				"z": 0.3505057515,
				"element": "H" 
			},
			{
				"x": 2.9430698222,
				"y": 0.7469790109,
				"z": -0.2183927745,
				"element": "H" 
			},
			{
				"x": 2.9492048198,
				"y": -0.6108287826,
				"z": -1.3529737418,
				"element": "H" 
			},
			{
				"x": 0.7352766616,
				"y": 1.5025339844,
				"z": 0.4249430067,
				"element": "H" 
			},
			{
				"x": -3.3625281737,
				"y": -1.8432751783,
				"z": -0.081982069,
				"element": "H" 
			},
			{
				"x": -3.4488531227,
				"y": -0.4585571174,
				"z": 0.8925168772,
				"element": "H" 
			},
			{
				"x": 1.2722042853,
				"y": -2.673939913,
				"z": -0.4500677356,
				"element": "H" 
			},
			{
				"x": -2.5623851663,
				"y": -3.1206799536,
				"z": 1.2125589302,
				"element": "H" 
			}
		],
		 "valence_orbital": [ 
			{
				"type": "occ",
				"energy": -0.32003,
				"method": "rhf"
			},
			{
				"type": "occ",
				"energy": -0.30685,
				"method": "rhf"
			},
			{
				"type": "occ",
				"energy": -0.29383,
				"method": "rhf"
			},
			{
				"type": "occ",
				"energy": -0.2782,
				"method": "rhf"
			},
			{
				"type": "occ",
				"energy": -0.25306,
				"method": "rhf"
			},
			{
				"type": "unocc",
				"energy": -0.10454,
				"method": "rhf"
			},
			{
				"type": "unocc",
				"energy": -0.05891,
				"method": "rhf"
			},
			{
				"type": "unocc",
				"energy": -0.01603,
				"method": "rhf"
			},
			{
				"type": "unocc",
				"energy": 0.04024,
				"method": "rhf"
			},
			{
				"type": "unocc",
				"energy": 0.06488,
				"method": "rhf"
			}
		],
		"cosmo_sigma_profile": { 
			"-0.025": 0.0,
			"-0.024": 0.0,
			"-0.023": 0.0,
			"-0.022": 0.0,
			"-0.021": 0.0,
			"-0.02": 0.0,
			"-0.019": 0.0,
			"-0.018": 0.0,
			"-0.017": 0.0,
			"-0.016": 0.00137404313437,
			"-0.015": 0.862303101079,
			"-0.014": 1.71915821381,
			"-0.013": 1.55517763081,
			"-0.012": 1.07588810197,
			"-0.011": 3.31847005935,
			"-0.01": 3.52099556027,
			"-0.009": 2.90640788282,
			"-0.008": 2.79531759824,
			"-0.007": 4.91398067012,
			"-0.006": 10.0532950723,
			"-0.005": 12.9597682172,
			"-0.004": 15.8456300926,
			"-0.003": 15.3681370481,
			"-0.002": 16.3643956206,
			"-0.001": 21.2756154261,
			"0.0": 17.5129738069,
			"0.001": 12.6978490077,
			"0.002": 5.31288280344,
			"0.003": 4.63468924784,
			"0.004": 5.82513395776,
			"0.005": 4.34189884689,
			"0.006": 5.71164790401,
			"0.007": 7.28687455184,
			"0.008": 8.2016629444,
			"0.009": 7.19072928125,
			"0.01": 6.98392569624,
			"0.011": 6.07514807708,
			"0.012": 4.40024684695,
			"0.013": 1.50892500801,
			"0.014": 0.0352158601271,
			"0.015": 0.0,
			"0.016": 0.0,
			"0.017": 0.0,
			"0.018": 0.0,
			"0.019": 0.0,
			"0.02": 0.0,
			"0.021": 0.0,
			"0.022": 0.0,
			"0.023": 0.0,
			"0.024": 0.0,
			"0.025": 0.0
		}
	}
}
