{
	 "smiles": "CC1=CC=C2C=C(C=O)C=CC2=N1", 
	 "Tm": 370.65, 
	 "num_atms": 22, 
	 "gaussian": { 
		 "optdone": 1, 
		 "sigma_profile": "yes", 
		 "theory": "DFT", 
		 "functional": "B3LYP", 
		 "basiset": "6-31G**", 
		 "properties": { 
			 "R2extent": 3256.5656, 
			 "electric_dipole_moment_norm": 2.76015028757, 
			 "electric_quadrupole_moment_norm": 17.696651711, 
			 "total_energy": -554.578192959, 
			 "HOMO_LUMO_gap": 0.16584, 
			 "cosmo_polarized_energy": -10.04, 
			 "cosmo_cavitation_energy": 26.54, 
			 "cosmo_dispersion_energy": -19.48, 
			 "cosmo_repulsion_energy": 1.51, 
			 "cosmo_total_nonelectrostatic_energy": 8.58, 
			 "SMD_solvation_energy": 4.07 
		},
		"coords": [
			{
				"x": -3.8049212531,
				"y": -0.6750451047,
				"z": -1.9065507608,
				"element": "C" 
			},
			{
				"x": -2.3181196597,
				"y": -0.6129204242,
				"z": -1.6658703866,
				"element": "C" 
			},
			{
				"x": -1.5570421325,
				"y": -1.8211144843,
				"z": -1.6084636694,
				"element": "C" 
			},
			{
				"x": -0.2060907278,
				"y": -1.7592166586,
				"z": -1.3895077255,
				"element": "C" 
			},
			{
				"x": 0.4152035589,
				"y": -0.4911580295,
				"z": -1.2230567162,
				"element": "C" 
			},
			{
				"x": 1.7978594216,
				"y": -0.3268719267,
				"z": -0.9936196785,
				"element": "C" 
			},
			{
				"x": 2.3392017518,
				"y": 0.939619782,
				"z": -0.8400183786,
				"element": "C" 
			},
			{
				"x": 3.7909971326,
				"y": 1.1018682397,
				"z": -0.5995458728,
				"element": "C" 
			},
			{
				"x": 4.5871058716,
				"y": 0.1848495574,
				"z": -0.5210318255,
				"element": "O" 
			},
			{
				"x": 1.5011777384,
				"y": 2.0840942182,
				"z": -0.9131055972,
				"element": "C" 
			},
			{
				"x": 0.150337752,
				"y": 1.9521340739,
				"z": -1.1357451315,
				"element": "C" 
			},
			{
				"x": -0.4283337385,
				"y": 0.6646082112,
				"z": -1.2964093246,
				"element": "C" 
			},
			{
				"x": -1.7733230504,
				"y": 0.5812642945,
				"z": -1.5155424169,
				"element": "N" 
			},
			{
				"x": -4.3054387123,
				"y": -1.2566811117,
				"z": -1.1234906271,
				"element": "H" 
			},
			{
				"x": -4.0278742343,
				"y": -1.1645369279,
				"z": -2.8619003873,
				"element": "H" 
			},
			{
				"x": -4.2199358803,
				"y": 0.3334582477,
				"z": -1.9193606939,
				"element": "H" 
			},
			{
				"x": -2.0592934787,
				"y": -2.7750218558,
				"z": -1.7392512563,
				"element": "H" 
			},
			{
				"x": 0.3987426401,
				"y": -2.6610926681,
				"z": -1.3407798589,
				"element": "H" 
			},
			{
				"x": 2.4562890157,
				"y": -1.189346871,
				"z": -0.9342165295,
				"element": "H" 
			},
			{
				"x": 4.1262875028,
				"y": 2.1575741791,
				"z": -0.4899714837,
				"element": "H" 
			},
			{
				"x": 1.9433902257,
				"y": 3.0701197417,
				"z": -0.7902161976,
				"element": "H" 
			},
			{
				"x": -0.5095197434,
				"y": 2.811215517,
				"z": -1.1955454814,
				"element": "H" 
			}
		],
		 "valence_orbital": [ 
			{
				"type": "occ",
				"energy": -0.31494,
				"method": "rhf"
			},
			{
				"type": "occ",
				"energy": -0.26106,
				"method": "rhf"
			},
			{
				"type": "occ",
				"energy": -0.25744,
				"method": "rhf"
			},
			{
				"type": "occ",
				"energy": -0.25552,
				"method": "rhf"
			},
			{
				"type": "occ",
				"energy": -0.24169,
				"method": "rhf"
			},
			{
				"type": "unocc",
				"energy": -0.07585,
				"method": "rhf"
			},
			{
				"type": "unocc",
				"energy": -0.04543,
				"method": "rhf"
			},
			{
				"type": "unocc",
				"energy": 0.00036,
				"method": "rhf"
			},
			{
				"type": "unocc",
				"energy": 0.02638,
				"method": "rhf"
			},
			{
				"type": "unocc",
				"energy": 0.09492,
				"method": "rhf"
			}
		],
		"cosmo_sigma_profile": { 
			"-0.025": 0.0,
			"-0.024": 0.0,
			"-0.023": 0.0,
			"-0.022": 0.0,
			"-0.021": 0.0,
			"-0.02": 0.0,
			"-0.019": 0.0,
			"-0.018": 0.0,
			"-0.017": 0.0,
			"-0.016": 0.0,
			"-0.015": 0.0,
			"-0.014": 0.0,
			"-0.013": 0.0,
			"-0.012": 0.0,
			"-0.011": 0.0,
			"-0.01": 0.0,
			"-0.009": 0.0,
			"-0.008": 2.39488409155,
			"-0.007": 10.0261264469,
			"-0.006": 13.061197236,
			"-0.005": 16.21282771,
			"-0.004": 16.8354535619,
			"-0.003": 14.7256550396,
			"-0.002": 14.5022195758,
			"-0.001": 14.5630582321,
			"0.0": 19.6008264034,
			"0.001": 22.9002362093,
			"0.002": 21.2164272661,
			"0.003": 10.9876051986,
			"0.004": 4.55072526089,
			"0.005": 4.28578015247,
			"0.006": 2.34336204247,
			"0.007": 3.35374345538,
			"0.008": 3.30412532354,
			"0.009": 2.99926399203,
			"0.01": 3.01098338747,
			"0.011": 5.66379058832,
			"0.012": 3.49466364647,
			"0.013": 1.3716987389,
			"0.014": 0.766610557126,
			"0.015": 0.694476932156,
			"0.016": 0.032707469545,
			"0.017": 0.0,
			"0.018": 0.0,
			"0.019": 0.0,
			"0.02": 0.0,
			"0.021": 0.0,
			"0.022": 0.0,
			"0.023": 0.0,
			"0.024": 0.0,
			"0.025": 0.0
		}
	}
}
