{
	 "smiles": "[O-][N+](=O)C1=CC=C2C=CC=CC2=C1", 
	 "Tm": 352.15, 
	 "num_atms": 20, 
	 "gaussian": { 
		 "optdone": 1, 
		 "sigma_profile": "yes", 
		 "theory": "DFT", 
		 "functional": "B3LYP", 
		 "basiset": "6-31G**", 
		 "properties": { 
			 "R2extent": 2710.4072, 
			 "electric_dipole_moment_norm": 5.23642706624, 
			 "electric_quadrupole_moment_norm": 10.8511999475, 
			 "total_energy": -590.393964172, 
			 "HOMO_LUMO_gap": 0.14891, 
			 "cosmo_polarized_energy": -8.64, 
			 "cosmo_cavitation_energy": 24.84, 
			 "cosmo_dispersion_energy": -18.5, 
			 "cosmo_repulsion_energy": 1.42, 
			 "cosmo_total_nonelectrostatic_energy": 7.76, 
			 "SMD_solvation_energy": 6.27 
		},
		"coords": [
			{
				"x": -1.574210956,
				"y": 0.2831444764,
				"z": 3.2181741607,
				"element": "O" 
			},
			{
				"x": -1.9106011567,
				"y": -0.6257061044,
				"z": 2.4589011311,
				"element": "N" 
			},
			{
				"x": -2.6546908296,
				"y": -1.5565462282,
				"z": 2.7688846505,
				"element": "O" 
			},
			{
				"x": -1.3902903433,
				"y": -0.6023770794,
				"z": 1.0836425235,
				"element": "C" 
			},
			{
				"x": -1.7672330649,
				"y": -1.6383595457,
				"z": 0.1980333371,
				"element": "C" 
			},
			{
				"x": -1.281532584,
				"y": -1.6168833674,
				"z": -1.0865002574,
				"element": "C" 
			},
			{
				"x": -0.4152239361,
				"y": -0.5790503067,
				"z": -1.5315195169,
				"element": "C" 
			},
			{
				"x": 0.0988722584,
				"y": -0.5361676081,
				"z": -2.8538482804,
				"element": "C" 
			},
			{
				"x": 0.9353699332,
				"y": 0.4838834674,
				"z": -3.2502665619,
				"element": "C" 
			},
			{
				"x": 1.298587844,
				"y": 1.5107950984,
				"z": -2.3437440612,
				"element": "C" 
			},
			{
				"x": 0.8180951726,
				"y": 1.4997159154,
				"z": -1.054347225,
				"element": "C" 
			},
			{
				"x": -0.0471549035,
				"y": 0.4611044469,
				"z": -0.6138148798,
				"element": "C" 
			},
			{
				"x": -0.556502258,
				"y": 0.4247870603,
				"z": 0.7075290907,
				"element": "C" 
			},
			{
				"x": -2.4266929771,
				"y": -2.4196278068,
				"z": 0.5530832274,
				"element": "H" 
			},
			{
				"x": -1.5579633351,
				"y": -2.402620833,
				"z": -1.7839634676,
				"element": "H" 
			},
			{
				"x": -0.1789358671,
				"y": -1.3230961897,
				"z": -3.549817277,
				"element": "H" 
			},
			{
				"x": 1.3218352484,
				"y": 0.5049139861,
				"z": -4.2649721435,
				"element": "H" 
			},
			{
				"x": 1.9589291376,
				"y": 2.3075785281,
				"z": -2.6723147215,
				"element": "H" 
			},
			{
				"x": 1.0925302957,
				"y": 2.2839322882,
				"z": -0.3541900175,
				"element": "H" 
			},
			{
				"x": -0.2982876785,
				"y": 1.1946798021,
				"z": 1.4251502887,
				"element": "H" 
			}
		],
		 "valence_orbital": [ 
			{
				"type": "occ",
				"energy": -0.30435,
				"method": "rhf"
			},
			{
				"type": "occ",
				"energy": -0.3041,
				"method": "rhf"
			},
			{
				"type": "occ",
				"energy": -0.28765,
				"method": "rhf"
			},
			{
				"type": "occ",
				"energy": -0.26802,
				"method": "rhf"
			},
			{
				"type": "occ",
				"energy": -0.23932,
				"method": "rhf"
			},
			{
				"type": "unocc",
				"energy": -0.09041,
				"method": "rhf"
			},
			{
				"type": "unocc",
				"energy": -0.05192,
				"method": "rhf"
			},
			{
				"type": "unocc",
				"energy": -0.01292,
				"method": "rhf"
			},
			{
				"type": "unocc",
				"energy": 0.0129,
				"method": "rhf"
			},
			{
				"type": "unocc",
				"energy": 0.0797,
				"method": "rhf"
			}
		],
		"cosmo_sigma_profile": { 
			"-0.025": 0.0,
			"-0.024": 0.0,
			"-0.023": 0.0,
			"-0.022": 0.0,
			"-0.021": 0.0,
			"-0.02": 0.0,
			"-0.019": 0.0,
			"-0.018": 0.0,
			"-0.017": 0.0,
			"-0.016": 0.0,
			"-0.015": 0.0,
			"-0.014": 0.0,
			"-0.013": 0.0,
			"-0.012": 0.0,
			"-0.011": 0.0,
			"-0.01": 0.0,
			"-0.009": 0.10347691516,
			"-0.008": 2.08510862412,
			"-0.007": 9.70001244643,
			"-0.006": 15.3796577099,
			"-0.005": 14.4668288781,
			"-0.004": 13.0131131365,
			"-0.003": 10.8134070529,
			"-0.002": 11.359981294,
			"-0.001": 13.1948688808,
			"0.0": 16.294408678,
			"0.001": 18.9707196804,
			"0.002": 21.2356318965,
			"0.003": 15.0135794136,
			"0.004": 8.48337007724,
			"0.005": 3.08768861341,
			"0.006": 3.30269680576,
			"0.007": 7.0570781921,
			"0.008": 8.27184643925,
			"0.009": 4.77001545151,
			"0.01": 3.17992821018,
			"0.011": 0.390693102264,
			"0.012": 0.0,
			"0.013": 0.0,
			"0.014": 0.0,
			"0.015": 0.0,
			"0.016": 0.0,
			"0.017": 0.0,
			"0.018": 0.0,
			"0.019": 0.0,
			"0.02": 0.0,
			"0.021": 0.0,
			"0.022": 0.0,
			"0.023": 0.0,
			"0.024": 0.0,
			"0.025": 0.0
		}
	}
}
