{
	 "smiles": "CN(CC(O)=O)C(=O)C1CC1", 
	 "Tm": 386.15, 
	 "num_atms": 22, 
	 "gaussian": { 
		 "optdone": 1, 
		 "sigma_profile": "yes", 
		 "theory": "DFT", 
		 "functional": "B3LYP", 
		 "basiset": "6-31G**", 
		 "properties": { 
			 "R2extent": 2651.4781, 
			 "electric_dipole_moment_norm": 1.86699774504, 
			 "electric_quadrupole_moment_norm": 16.1693836129, 
			 "total_energy": -553.788590377, 
			 "HOMO_LUMO_gap": 0.23377, 
			 "cosmo_polarized_energy": -15.35, 
			 "cosmo_cavitation_energy": 25.54, 
			 "cosmo_dispersion_energy": -18.05, 
			 "cosmo_repulsion_energy": 1.48, 
			 "cosmo_total_nonelectrostatic_energy": 8.98, 
			 "SMD_solvation_energy": 5.98 
		},
		"coords": [
			{
				"x": 1.8441708561,
				"y": -1.3728034457,
				"z": 2.2609416643,
				"element": "C" 
			},
			{
				"x": 1.3103697047,
				"y": -0.5179738551,
				"z": 1.2042359107,
				"element": "N" 
			},
			{
				"x": 0.6861629866,
				"y": -1.1774164659,
				"z": 0.0775865735,
				"element": "C" 
			},
			{
				"x": 1.5774051891,
				"y": -1.479991397,
				"z": -1.1278794601,
				"element": "C" 
			},
			{
				"x": 2.8932820938,
				"y": -1.4428240615,
				"z": -0.833505152,
				"element": "O" 
			},
			{
				"x": 1.1436589094,
				"y": -1.749523283,
				"z": -2.2250180685,
				"element": "O" 
			},
			{
				"x": 1.5625048742,
				"y": 0.8400978673,
				"z": 1.2597235632,
				"element": "C" 
			},
			{
				"x": 2.1197071001,
				"y": 1.3493305239,
				"z": 2.2301687639,
				"element": "O" 
			},
			{
				"x": 1.1260404974,
				"y": 1.691189577,
				"z": 0.1039487476,
				"element": "C" 
			},
			{
				"x": 1.95463995,
				"y": 2.9397129187,
				"z": -0.1542688171,
				"element": "C" 
			},
			{
				"x": 0.5970610523,
				"y": 3.0763057704,
				"z": 0.4499394307,
				"element": "C" 
			},
			{
				"x": 2.2541259574,
				"y": -0.7297003469,
				"z": 3.0373245432,
				"element": "H" 
			},
			{
				"x": 1.0479610051,
				"y": -1.9958960565,
				"z": 2.6849124986,
				"element": "H" 
			},
			{
				"x": 2.636510945,
				"y": -2.0227116762,
				"z": 1.8720280036,
				"element": "H" 
			},
			{
				"x": -0.1770129088,
				"y": -0.6243826937,
				"z": -0.2980921951,
				"element": "H" 
			},
			{
				"x": 0.2925877997,
				"y": -2.1427053272,
				"z": 0.4174226465,
				"element": "H" 
			},
			{
				"x": 3.3633801302,
				"y": -1.6613042865,
				"z": -1.6561937404,
				"element": "H" 
			},
			{
				"x": 0.6977821223,
				"y": 1.2162658715,
				"z": -0.7701051058,
				"element": "H" 
			},
			{
				"x": 2.8064037986,
				"y": 3.0790096826,
				"z": 0.5022092508,
				"element": "H" 
			},
			{
				"x": 2.1007718118,
				"y": 3.2284121453,
				"z": -1.1903576976,
				"element": "H" 
			},
			{
				"x": -0.2155807384,
				"y": 3.4622190636,
				"z": -0.157511548,
				"element": "H" 
			},
			{
				"x": 0.5460668632,
				"y": 3.3084894749,
				"z": 1.5081901879,
				"element": "H" 
			}
		],
		 "valence_orbital": [ 
			{
				"type": "occ",
				"energy": -0.30545,
				"method": "rhf"
			},
			{
				"type": "occ",
				"energy": -0.2976,
				"method": "rhf"
			},
			{
				"type": "occ",
				"energy": -0.28788,
				"method": "rhf"
			},
			{
				"type": "occ",
				"energy": -0.2498,
				"method": "rhf"
			},
			{
				"type": "occ",
				"energy": -0.23996,
				"method": "rhf"
			},
			{
				"type": "unocc",
				"energy": -0.00619,
				"method": "rhf"
			},
			{
				"type": "unocc",
				"energy": 0.02148,
				"method": "rhf"
			},
			{
				"type": "unocc",
				"energy": 0.0615,
				"method": "rhf"
			},
			{
				"type": "unocc",
				"energy": 0.08944,
				"method": "rhf"
			},
			{
				"type": "unocc",
				"energy": 0.1068,
				"method": "rhf"
			}
		],
		"cosmo_sigma_profile": { 
			"-0.025": 0.0,
			"-0.024": 0.0,
			"-0.023": 0.0,
			"-0.022": 0.0,
			"-0.021": 0.0,
			"-0.02": 0.0,
			"-0.019": 0.155229099596,
			"-0.018": 1.20949508066,
			"-0.017": 0.746749110987,
			"-0.016": 0.813727016706,
			"-0.015": 0.882857124472,
			"-0.014": 0.7739210685,
			"-0.013": 0.649447757485,
			"-0.012": 0.488204508281,
			"-0.011": 1.02000532463,
			"-0.01": 0.653721679194,
			"-0.009": 2.93378023053,
			"-0.008": 5.31660834447,
			"-0.007": 5.96025880351,
			"-0.006": 8.33791834345,
			"-0.005": 13.8572698736,
			"-0.004": 15.419455548,
			"-0.003": 15.8749638251,
			"-0.002": 15.6132736536,
			"-0.001": 15.4506918818,
			"0.0": 11.297520143,
			"0.001": 11.7062716895,
			"0.002": 11.7576196137,
			"0.003": 10.1422712379,
			"0.004": 8.60760390185,
			"0.005": 4.46142169505,
			"0.006": 4.89176788802,
			"0.007": 3.69633890537,
			"0.008": 3.32225719723,
			"0.009": 2.39956244572,
			"0.01": 4.30659905899,
			"0.011": 6.05180306891,
			"0.012": 5.2505525617,
			"0.013": 2.93293845118,
			"0.014": 3.83629708887,
			"0.015": 0.123274223484,
			"0.016": 0.0,
			"0.017": 0.0,
			"0.018": 0.0,
			"0.019": 0.0,
			"0.02": 0.0,
			"0.021": 0.0,
			"0.022": 0.0,
			"0.023": 0.0,
			"0.024": 0.0,
			"0.025": 0.0
		}
	}
}
