{
	 "smiles": "CC(C=CC=C(/C)C=CC1(O)C(C)(C)CCCC1(C)O)=C/C=C/C=C(/C)C=CC(O)=O", 
	 "Tm": 486.15, 
	 "num_atms": 69, 
	 "gaussian": { 
		 "optdone": 1, 
		 "sigma_profile": "yes", 
		 "theory": "DFT", 
		 "functional": "B3LYP", 
		 "basiset": "6-31G**", 
		 "properties": { 
			 "R2extent": 39049.6936, 
			 "electric_dipole_moment_norm": 4.82859141779, 
			 "electric_quadrupole_moment_norm": 56.1835333254, 
			 "total_energy": -1352.59820604, 
			 "HOMO_LUMO_gap": 0.0982, 
			 "cosmo_polarized_energy": -19.75, 
			 "cosmo_cavitation_energy": 67.61, 
			 "cosmo_dispersion_energy": -45.59, 
			 "cosmo_repulsion_energy": 3.42, 
			 "cosmo_total_nonelectrostatic_energy": 25.43, 
			 "SMD_solvation_energy": 12.75 
		},
		"coords": [
			{
				"x": 2.7430817731,
				"y": -2.4254979819,
				"z": 3.4226333046,
				"element": "C" 
			},
			{
				"x": 2.2426913484,
				"y": -2.5807966232,
				"z": 2.0053932296,
				"element": "C" 
			},
			{
				"x": 1.4870787994,
				"y": -1.4539775733,
				"z": 1.4710665672,
				"element": "C" 
			},
			{
				"x": 1.3600925645,
				"y": -1.1300680792,
				"z": 0.1544871142,
				"element": "C" 
			},
			{
				"x": 0.6112208121,
				"y": -0.0414969276,
				"z": -0.4366799689,
				"element": "C" 
			},
			{
				"x": -0.5081540327,
				"y": 0.6062468281,
				"z": 0.0041322016,
				"element": "C" 
			},
			{
				"x": -1.2635752295,
				"y": 0.2125684908,
				"z": 1.247998687,
				"element": "C" 
			},
			{
				"x": -1.0058335357,
				"y": 1.7220022604,
				"z": -0.8014668709,
				"element": "C" 
			},
			{
				"x": -2.0466151974,
				"y": 2.5137765021,
				"z": -0.4855484788,
				"element": "C" 
			},
			{
				"x": -2.6459706877,
				"y": 3.7048468566,
				"z": -1.2144625677,
				"element": "C" 
			},
			{
				"x": -3.1186294954,
				"y": 4.5118010191,
				"z": -0.1272321959,
				"element": "O" 
			},
			{
				"x": -3.8920572373,
				"y": 3.2834529161,
				"z": -2.1649254044,
				"element": "C" 
			},
			{
				"x": -4.4095466772,
				"y": 1.8747653513,
				"z": -1.7989865,
				"element": "C" 
			},
			{
				"x": -5.0737939989,
				"y": 4.2592689571,
				"z": -1.97711019,
				"element": "C" 
			},
			{
				"x": -3.49544994,
				"y": 3.3016804358,
				"z": -3.6693957204,
				"element": "C" 
			},
			{
				"x": -2.048106003,
				"y": 2.8791523185,
				"z": -3.9203509828,
				"element": "C" 
			},
			{
				"x": -1.0729822863,
				"y": 3.8944712534,
				"z": -3.2996947525,
				"element": "C" 
			},
			{
				"x": -1.5936411537,
				"y": 4.5668450172,
				"z": -2.0032784564,
				"element": "C" 
			},
			{
				"x": -0.4295603581,
				"y": 5.0242201939,
				"z": -1.1152301236,
				"element": "C" 
			},
			{
				"x": -2.3693136952,
				"y": 5.7444305881,
				"z": -2.3538796902,
				"element": "O" 
			},
			{
				"x": 2.4354781887,
				"y": -3.7152469639,
				"z": 1.2605638069,
				"element": "C" 
			},
			{
				"x": 3.1954160841,
				"y": -4.9033365977,
				"z": 1.5554777047,
				"element": "C" 
			},
			{
				"x": 4.1874423305,
				"y": -5.1031995778,
				"z": 2.4736831155,
				"element": "C" 
			},
			{
				"x": 4.8330471232,
				"y": -6.3776245761,
				"z": 2.6235072625,
				"element": "C" 
			},
			{
				"x": 5.845892573,
				"y": -6.7270219282,
				"z": 3.4784808784,
				"element": "C" 
			},
			{
				"x": 6.3839251211,
				"y": -8.1377534199,
				"z": 3.4647023426,
				"element": "C" 
			},
			{
				"x": 6.4242801793,
				"y": -5.7769919736,
				"z": 4.4072140151,
				"element": "C" 
			},
			{
				"x": 7.4237651509,
				"y": -6.0414451238,
				"z": 5.281122391,
				"element": "C" 
			},
			{
				"x": 7.9852858221,
				"y": -5.0515665427,
				"z": 6.2082332423,
				"element": "C" 
			},
			{
				"x": 7.4092608994,
				"y": -3.8181044982,
				"z": 6.1197122682,
				"element": "O" 
			},
			{
				"x": 8.8845340102,
				"y": -5.2804113142,
				"z": 6.9972316463,
				"element": "O" 
			},
			{
				"x": 2.1317432213,
				"y": -1.7023394926,
				"z": 3.9713188027,
				"element": "H" 
			},
			{
				"x": 2.7271415402,
				"y": -3.3739733234,
				"z": 3.9673529172,
				"element": "H" 
			},
			{
				"x": 3.7744254857,
				"y": -2.049099434,
				"z": 3.4472988598,
				"element": "H" 
			},
			{
				"x": 1.0552026132,
				"y": -0.7873687647,
				"z": 2.2135158454,
				"element": "H" 
			},
			{
				"x": 1.9439842578,
				"y": -1.7130075294,
				"z": -0.557486326,
				"element": "H" 
			},
			{
				"x": 0.9999626012,
				"y": 0.286722057,
				"z": -1.4011738808,
				"element": "H" 
			},
			{
				"x": -2.3429274696,
				"y": 0.2913089502,
				"z": 1.0859843204,
				"element": "H" 
			},
			{
				"x": -1.0376300155,
				"y": -0.8143222938,
				"z": 1.5407718846,
				"element": "H" 
			},
			{
				"x": -1.0198477647,
				"y": 0.8652377543,
				"z": 2.09610982,
				"element": "H" 
			},
			{
				"x": -0.4432940876,
				"y": 1.9023879646,
				"z": -1.7133034546,
				"element": "H" 
			},
			{
				"x": -2.5788326018,
				"y": 2.3292621806,
				"z": 0.443713354,
				"element": "H" 
			},
			{
				"x": -3.3047834978,
				"y": 5.3790334069,
				"z": -0.5185037462,
				"element": "H" 
			},
			{
				"x": -3.6776963992,
				"y": 1.0903688599,
				"z": -2.0093105028,
				"element": "H" 
			},
			{
				"x": -4.6777974328,
				"y": 1.8074558875,
				"z": -0.7395321149,
				"element": "H" 
			},
			{
				"x": -5.3123926506,
				"y": 1.6566820805,
				"z": -2.3803813446,
				"element": "H" 
			},
			{
				"x": -5.8842489928,
				"y": 3.9705312331,
				"z": -2.6564675863,
				"element": "H" 
			},
			{
				"x": -5.461758385,
				"y": 4.2309429421,
				"z": -0.9562467473,
				"element": "H" 
			},
			{
				"x": -4.7922078102,
				"y": 5.2866953098,
				"z": -2.2198493253,
				"element": "H" 
			},
			{
				"x": -4.1828754939,
				"y": 2.6472470405,
				"z": -4.219477519,
				"element": "H" 
			},
			{
				"x": -3.6368426078,
				"y": 4.312797126,
				"z": -4.0658917197,
				"element": "H" 
			},
			{
				"x": -1.8766894512,
				"y": 1.8825189362,
				"z": -3.4969361935,
				"element": "H" 
			},
			{
				"x": -1.854416623,
				"y": 2.7904132767,
				"z": -4.9954131089,
				"element": "H" 
			},
			{
				"x": -0.8842195238,
				"y": 4.7067205081,
				"z": -4.0131711268,
				"element": "H" 
			},
			{
				"x": -0.0984637912,
				"y": 3.4287974604,
				"z": -3.1167629651,
				"element": "H" 
			},
			{
				"x": 0.207048071,
				"y": 5.7230576549,
				"z": -1.6739015391,
				"element": "H" 
			},
			{
				"x": -0.8099801491,
				"y": 5.5263690485,
				"z": -0.2236401801,
				"element": "H" 
			},
			{
				"x": 0.1955081675,
				"y": 4.1882791986,
				"z": -0.7973698991,
				"element": "H" 
			},
			{
				"x": -1.749274207,
				"y": 6.4311039042,
				"z": -2.6316199497,
				"element": "H" 
			},
			{
				"x": 1.9008710976,
				"y": -3.7585875813,
				"z": 0.3141416181,
				"element": "H" 
			},
			{
				"x": 2.9520615799,
				"y": -5.7576748378,
				"z": 0.9219587187,
				"element": "H" 
			},
			{
				"x": 4.5233070173,
				"y": -4.2766620825,
				"z": 3.0878944542,
				"element": "H" 
			},
			{
				"x": 4.4590294093,
				"y": -7.1611673894,
				"z": 1.9640497284,
				"element": "H" 
			},
			{
				"x": 6.268992086,
				"y": -8.6186379897,
				"z": 4.4438171559,
				"element": "H" 
			},
			{
				"x": 7.4546543387,
				"y": -8.1543006162,
				"z": 3.2271924293,
				"element": "H" 
			},
			{
				"x": 5.8654740924,
				"y": -8.7522359439,
				"z": 2.7248152501,
				"element": "H" 
			},
			{
				"x": 6.0271204058,
				"y": -4.7669029985,
				"z": 4.4071737389,
				"element": "H" 
			},
			{
				"x": 7.8858509552,
				"y": -7.0190624432,
				"z": 5.3573944113,
				"element": "H" 
			},
			{
				"x": 7.8713387625,
				"y": -3.2747793473,
				"z": 6.7781380459,
				"element": "H" 
			}
		],
		 "valence_orbital": [ 
			{
				"type": "occ",
				"energy": -0.26333,
				"method": "rhf"
			},
			{
				"type": "occ",
				"energy": -0.25813,
				"method": "rhf"
			},
			{
				"type": "occ",
				"energy": -0.25099,
				"method": "rhf"
			},
			{
				"type": "occ",
				"energy": -0.22038,
				"method": "rhf"
			},
			{
				"type": "occ",
				"energy": -0.18541,
				"method": "rhf"
			},
			{
				"type": "unocc",
				"energy": -0.08721,
				"method": "rhf"
			},
			{
				"type": "unocc",
				"energy": -0.04889,
				"method": "rhf"
			},
			{
				"type": "unocc",
				"energy": -0.01125,
				"method": "rhf"
			},
			{
				"type": "unocc",
				"energy": 0.03099,
				"method": "rhf"
			},
			{
				"type": "unocc",
				"energy": 0.06013,
				"method": "rhf"
			}
		],
		"cosmo_sigma_profile": { 
			"-0.025": 0.0,
			"-0.024": 0.0,
			"-0.023": 0.0,
			"-0.022": 0.0,
			"-0.021": 0.0,
			"-0.02": 0.0,
			"-0.019": 0.0,
			"-0.018": 0.138544789322,
			"-0.017": 1.00286875704,
			"-0.016": 1.09762980028,
			"-0.015": 0.755995639814,
			"-0.014": 1.60588043587,
			"-0.013": 1.91014507721,
			"-0.012": 1.34898053277,
			"-0.011": 1.88718135566,
			"-0.01": 2.22765545441,
			"-0.009": 2.29179775558,
			"-0.008": 2.36613785061,
			"-0.007": 3.320478015,
			"-0.006": 9.33825713456,
			"-0.005": 26.177107331,
			"-0.004": 37.6932853974,
			"-0.003": 39.9438419774,
			"-0.002": 52.6650746674,
			"-0.001": 58.4247837217,
			"0.0": 67.1594000611,
			"0.001": 55.5045161235,
			"0.002": 41.79841124,
			"0.003": 29.4305104579,
			"0.004": 28.5919680113,
			"0.005": 18.7380721116,
			"0.006": 8.11644448729,
			"0.007": 6.05788531875,
			"0.008": 5.7517873663,
			"0.009": 3.17128637869,
			"0.01": 3.14177889275,
			"0.011": 3.53810119883,
			"0.012": 5.17289963654,
			"0.013": 5.57495029216,
			"0.014": 1.91032399251,
			"0.015": 0.066276979646,
			"0.016": 0.0,
			"0.017": 0.0,
			"0.018": 0.0,
			"0.019": 0.0,
			"0.02": 0.0,
			"0.021": 0.0,
			"0.022": 0.0,
			"0.023": 0.0,
			"0.024": 0.0,
			"0.025": 0.0
		}
	}
}
