{
	 "smiles": "CC1=C(O)C=C(C=C1)C(=O)N1CCSCC1", 
	 "Tm": 433.15, 
	 "num_atms": 31, 
	 "gaussian": { 
		 "optdone": 1, 
		 "sigma_profile": "yes", 
		 "theory": "DFT", 
		 "functional": "B3LYP", 
		 "basiset": "6-31G**", 
		 "properties": { 
			 "R2extent": 5656.0236, 
			 "electric_dipole_moment_norm": 3.01291361642, 
			 "electric_quadrupole_moment_norm": 10.0041412675, 
			 "total_energy": -1069.72208019, 
			 "HOMO_LUMO_gap": 0.19151, 
			 "cosmo_polarized_energy": -16.43, 
			 "cosmo_cavitation_energy": 34.57, 
			 "cosmo_dispersion_energy": -25.24, 
			 "cosmo_repulsion_energy": 1.92, 
			 "cosmo_total_nonelectrostatic_energy": 11.26, 
			 "SMD_solvation_energy": 5.2 
		},
		"coords": [
			{
				"x": -2.4682006794,
				"y": 3.1989523338,
				"z": -2.2600017125,
				"element": "C" 
			},
			{
				"x": -2.0362741136,
				"y": 2.1107179405,
				"z": -1.3126604778,
				"element": "C" 
			},
			{
				"x": -0.8782875667,
				"y": 1.3581014836,
				"z": -1.5861160249,
				"element": "C" 
			},
			{
				"x": -0.2041151544,
				"y": 1.6650570854,
				"z": -2.7376476111,
				"element": "O" 
			},
			{
				"x": -0.4518151695,
				"y": 0.3511358985,
				"z": -0.7196611453,
				"element": "C" 
			},
			{
				"x": -1.1840557923,
				"y": 0.0581971958,
				"z": 0.4400720333,
				"element": "C" 
			},
			{
				"x": -2.352503456,
				"y": 0.7761665089,
				"z": 0.707811752,
				"element": "C" 
			},
			{
				"x": -2.7538321868,
				"y": 1.795456001,
				"z": -0.1559739524,
				"element": "C" 
			},
			{
				"x": -0.8253816771,
				"y": -1.087039555,
				"z": 1.3473232007,
				"element": "C" 
			},
			{
				"x": -1.6975558197,
				"y": -1.8667335182,
				"z": 1.723658625,
				"element": "O" 
			},
			{
				"x": 0.506363887,
				"y": -1.2665302082,
				"z": 1.6871693903,
				"element": "N" 
			},
			{
				"x": 1.4700345127,
				"y": -0.1692657308,
				"z": 1.8107829326,
				"element": "C" 
			},
			{
				"x": 1.5936672206,
				"y": 0.3395874866,
				"z": 3.2539271322,
				"element": "C" 
			},
			{
				"x": 2.1293300768,
				"y": -0.9644163842,
				"z": 4.4274471136,
				"element": "S" 
			},
			{
				"x": 0.8766207161,
				"y": -2.2259198828,
				"z": 3.9626099501,
				"element": "C" 
			},
			{
				"x": 0.8418753537,
				"y": -2.4722682668,
				"z": 2.4521329353,
				"element": "C" 
			},
			{
				"x": -1.6927477104,
				"y": 3.9660026954,
				"z": -2.364516837,
				"element": "H" 
			},
			{
				"x": -3.3850230195,
				"y": 3.6801939662,
				"z": -1.9103350328,
				"element": "H" 
			},
			{
				"x": -2.6476007059,
				"y": 2.8005061023,
				"z": -3.2646972709,
				"element": "H" 
			},
			{
				"x": 0.5532283927,
				"y": 1.0728170311,
				"z": -2.8304107933,
				"element": "H" 
			},
			{
				"x": 0.4372960172,
				"y": -0.2278186554,
				"z": -0.9612957613,
				"element": "H" 
			},
			{
				"x": -2.9407223657,
				"y": 0.5232427544,
				"z": 1.5829753223,
				"element": "H" 
			},
			{
				"x": -3.6563133836,
				"y": 2.3594388794,
				"z": 0.0654297348,
				"element": "H" 
			},
			{
				"x": 1.156802175,
				"y": 0.6558180614,
				"z": 1.1704710267,
				"element": "H" 
			},
			{
				"x": 2.4486057342,
				"y": -0.5210061692,
				"z": 1.4613229938,
				"element": "H" 
			},
			{
				"x": 0.6382596381,
				"y": 0.7614104698,
				"z": 3.5847769691,
				"element": "H" 
			},
			{
				"x": 2.3506442956,
				"y": 1.1273773738,
				"z": 3.3100945865,
				"element": "H" 
			},
			{
				"x": -0.1122240288,
				"y": -1.9168215245,
				"z": 4.3140974324,
				"element": "H" 
			},
			{
				"x": 1.1591437097,
				"y": -3.1399096327,
				"z": 4.4926306128,
				"element": "H" 
			},
			{
				"x": 0.0851352641,
				"y": -3.2237692798,
				"z": 2.2217307972,
				"element": "H" 
			},
			{
				"x": 1.8220458358,
				"y": -2.8271804605,
				"z": 2.1124520785,
				"element": "H" 
			}
		],
		 "valence_orbital": [ 
			{
				"type": "occ",
				"energy": -0.26142,
				"method": "rhf"
			},
			{
				"type": "occ",
				"energy": -0.2515,
				"method": "rhf"
			},
			{
				"type": "occ",
				"energy": -0.24508,
				"method": "rhf"
			},
			{
				"type": "occ",
				"energy": -0.22364,
				"method": "rhf"
			},
			{
				"type": "occ",
				"energy": -0.22005,
				"method": "rhf"
			},
			{
				"type": "unocc",
				"energy": -0.02854,
				"method": "rhf"
			},
			{
				"type": "unocc",
				"energy": 0.00265,
				"method": "rhf"
			},
			{
				"type": "unocc",
				"energy": 0.03409,
				"method": "rhf"
			},
			{
				"type": "unocc",
				"energy": 0.04582,
				"method": "rhf"
			},
			{
				"type": "unocc",
				"energy": 0.06155,
				"method": "rhf"
			}
		],
		"cosmo_sigma_profile": { 
			"-0.025": 0.0,
			"-0.024": 0.0,
			"-0.023": 0.0,
			"-0.022": 0.0,
			"-0.021": 0.0,
			"-0.02": 0.0,
			"-0.019": 0.0,
			"-0.018": 0.481047197226,
			"-0.017": 1.23282345392,
			"-0.016": 1.04223406414,
			"-0.015": 1.30414405423,
			"-0.014": 0.818646504187,
			"-0.013": 0.686244753276,
			"-0.012": 0.648168795827,
			"-0.011": 0.877277633603,
			"-0.01": 1.89966651632,
			"-0.009": 0.995323391619,
			"-0.008": 0.990348687566,
			"-0.007": 2.25877835209,
			"-0.006": 8.00254168531,
			"-0.005": 22.435916129,
			"-0.004": 32.6358432327,
			"-0.003": 25.9877189315,
			"-0.002": 24.6793529652,
			"-0.001": 19.1265339199,
			"0.0": 17.938583652,
			"0.001": 13.2421570593,
			"0.002": 14.4662432461,
			"0.003": 14.5308751482,
			"0.004": 13.8936431036,
			"0.005": 11.9942222457,
			"0.006": 7.81907589068,
			"0.007": 5.27697407925,
			"0.008": 5.79533221766,
			"0.009": 5.11507170633,
			"0.01": 5.66123710175,
			"0.011": 3.18924451383,
			"0.012": 1.87812319113,
			"0.013": 3.68196260363,
			"0.014": 3.03876608353,
			"0.015": 0.556961603705,
			"0.016": 0.0,
			"0.017": 0.0,
			"0.018": 0.0,
			"0.019": 0.0,
			"0.02": 0.0,
			"0.021": 0.0,
			"0.022": 0.0,
			"0.023": 0.0,
			"0.024": 0.0,
			"0.025": 0.0
		}
	}
}
