{
	 "smiles": "COC(=O)C1CCC(CC1)C(O)=O", 
	 "Tm": 359.15, 
	 "num_atms": 27, 
	 "gaussian": { 
		 "optdone": 1, 
		 "sigma_profile": "yes", 
		 "theory": "DFT", 
		 "functional": "B3LYP", 
		 "basiset": "6-31G**", 
		 "properties": { 
			 "R2extent": 3639.802, 
			 "electric_dipole_moment_norm": 0.753434177616, 
			 "electric_quadrupole_moment_norm": 23.5446203412, 
			 "total_energy": -652.319796514, 
			 "HOMO_LUMO_gap": 0.26844, 
			 "cosmo_polarized_energy": -12.93, 
			 "cosmo_cavitation_energy": 29.07, 
			 "cosmo_dispersion_energy": -20.84, 
			 "cosmo_repulsion_energy": 1.69, 
			 "cosmo_total_nonelectrostatic_energy": 9.92, 
			 "SMD_solvation_energy": 7.06 
		},
		"coords": [
			{
				"x": 1.3710328854,
				"y": -0.4857773555,
				"z": -2.8915092267,
				"element": "C" 
			},
			{
				"x": 0.6818642036,
				"y": 0.0617256352,
				"z": -1.7557123821,
				"element": "O" 
			},
			{
				"x": -0.2413604441,
				"y": -0.7550011268,
				"z": -1.1866778824,
				"element": "C" 
			},
			{
				"x": -0.4783498706,
				"y": -1.8687883067,
				"z": -1.6021503457,
				"element": "O" 
			},
			{
				"x": -0.9149845369,
				"y": -0.0982887029,
				"z": 0.0058452889,
				"element": "C" 
			},
			{
				"x": -1.7770330147,
				"y": 1.1151833425,
				"z": -0.4411599448,
				"element": "C" 
			},
			{
				"x": -2.0414343193,
				"y": 2.0583216951,
				"z": 0.7374953317,
				"element": "C" 
			},
			{
				"x": -0.7240338004,
				"y": 2.7417331487,
				"z": 1.2011213668,
				"element": "C" 
			},
			{
				"x": 0.4983909999,
				"y": 1.7885017868,
				"z": 1.0320369374,
				"element": "C" 
			},
			{
				"x": 0.1044653348,
				"y": 0.3092703744,
				"z": 1.1128249744,
				"element": "C" 
			},
			{
				"x": -0.8558660225,
				"y": 3.2587585832,
				"z": 2.6199577856,
				"element": "C" 
			},
			{
				"x": -0.985152877,
				"y": 2.2527020593,
				"z": 3.5277744132,
				"element": "O" 
			},
			{
				"x": -0.8527438432,
				"y": 4.4233116897,
				"z": 2.9538618616,
				"element": "O" 
			},
			{
				"x": 2.0625617784,
				"y": 0.2901219815,
				"z": -3.2200754273,
				"element": "H" 
			},
			{
				"x": 0.6648912711,
				"y": -0.7331151974,
				"z": -3.6880831817,
				"element": "H" 
			},
			{
				"x": 1.9152205192,
				"y": -1.3915668257,
				"z": -2.6124589306,
				"element": "H" 
			},
			{
				"x": -1.5769748357,
				"y": -0.8702995688,
				"z": 0.4078842981,
				"element": "H" 
			},
			{
				"x": -2.7200363127,
				"y": 0.7570053547,
				"z": -0.8669299805,
				"element": "H" 
			},
			{
				"x": -1.2601164898,
				"y": 1.6637815637,
				"z": -1.2366262582,
				"element": "H" 
			},
			{
				"x": -2.7731627386,
				"y": 2.824963988,
				"z": 0.4626814733,
				"element": "H" 
			},
			{
				"x": -2.4770754767,
				"y": 1.4898167036,
				"z": 1.5669907188,
				"element": "H" 
			},
			{
				"x": -0.5586150853,
				"y": 3.6358896874,
				"z": 0.5939945163,
				"element": "H" 
			},
			{
				"x": 0.9566914617,
				"y": 1.9811498747,
				"z": 0.0573759498,
				"element": "H" 
			},
			{
				"x": 1.2619893142,
				"y": 2.0140737576,
				"z": 1.7836766848,
				"element": "H" 
			},
			{
				"x": -0.3451881192,
				"y": 0.1135321548,
				"z": 2.0911160376,
				"element": "H" 
			},
			{
				"x": 0.9995713822,
				"y": -0.3185262466,
				"z": 1.0533219911,
				"element": "H" 
			},
			{
				"x": -1.0591513636,
				"y": 2.6841199495,
				"z": 4.3956239306,
				"element": "H" 
			}
		],
		 "valence_orbital": [ 
			{
				"type": "occ",
				"energy": -0.315,
				"method": "rhf"
			},
			{
				"type": "occ",
				"energy": -0.31135,
				"method": "rhf"
			},
			{
				"type": "occ",
				"energy": -0.3012,
				"method": "rhf"
			},
			{
				"type": "occ",
				"energy": -0.27033,
				"method": "rhf"
			},
			{
				"type": "occ",
				"energy": -0.26348,
				"method": "rhf"
			},
			{
				"type": "unocc",
				"energy": 0.00496,
				"method": "rhf"
			},
			{
				"type": "unocc",
				"energy": 0.01443,
				"method": "rhf"
			},
			{
				"type": "unocc",
				"energy": 0.06464,
				"method": "rhf"
			},
			{
				"type": "unocc",
				"energy": 0.0882,
				"method": "rhf"
			},
			{
				"type": "unocc",
				"energy": 0.09607,
				"method": "rhf"
			}
		],
		"cosmo_sigma_profile": { 
			"-0.025": 0.0,
			"-0.024": 0.0,
			"-0.023": 0.0,
			"-0.022": 0.0,
			"-0.021": 0.0,
			"-0.02": 0.0,
			"-0.019": 0.0,
			"-0.018": 0.460188178063,
			"-0.017": 0.973333736074,
			"-0.016": 0.558126782388,
			"-0.015": 0.957249131671,
			"-0.014": 0.832826546043,
			"-0.013": 0.522455458911,
			"-0.012": 0.360269556621,
			"-0.011": 1.23647827833,
			"-0.01": 0.598696781442,
			"-0.009": 0.634500298388,
			"-0.008": 0.605579320191,
			"-0.007": 0.977696633151,
			"-0.006": 4.7614453528,
			"-0.005": 10.2322888551,
			"-0.004": 25.2380373698,
			"-0.003": 36.0456054635,
			"-0.002": 28.7188598167,
			"-0.001": 23.3872517365,
			"0.0": 15.3522644848,
			"0.001": 7.98354905389,
			"0.002": 7.81797954253,
			"0.003": 6.93777331641,
			"0.004": 6.28058697976,
			"0.005": 6.65912318361,
			"0.006": 4.10025938091,
			"0.007": 4.44279252379,
			"0.008": 3.27734869205,
			"0.009": 3.20558861881,
			"0.01": 3.52100030312,
			"0.011": 5.67195286121,
			"0.012": 10.2200155473,
			"0.013": 3.46839537086,
			"0.014": 0.0716064001118,
			"0.015": 0.0,
			"0.016": 0.0,
			"0.017": 0.0,
			"0.018": 0.0,
			"0.019": 0.0,
			"0.02": 0.0,
			"0.021": 0.0,
			"0.022": 0.0,
			"0.023": 0.0,
			"0.024": 0.0,
			"0.025": 0.0
		}
	}
}
