{
	 "smiles": "O=C(CC#N)NC1CCCCC1", 
	 "Tm": 406.15, 
	 "num_atms": 26, 
	 "gaussian": { 
		 "optdone": 1, 
		 "sigma_profile": "yes", 
		 "theory": "DFT", 
		 "functional": "B3LYP", 
		 "basiset": "6-31G**", 
		 "properties": { 
			 "R2extent": 3478.6323, 
			 "electric_dipole_moment_norm": 4.03271074837, 
			 "electric_quadrupole_moment_norm": 15.0882059374, 
			 "total_energy": -536.123934271, 
			 "HOMO_LUMO_gap": 0.26044, 
			 "cosmo_polarized_energy": -14.62, 
			 "cosmo_cavitation_energy": 28.46, 
			 "cosmo_dispersion_energy": -19.58, 
			 "cosmo_repulsion_energy": 1.59, 
			 "cosmo_total_nonelectrostatic_energy": 10.47, 
			 "SMD_solvation_energy": 5.84 
		},
		"coords": [
			{
				"x": 1.7107486036,
				"y": -4.9193044332,
				"z": -0.9500262232,
				"element": "O" 
			},
			{
				"x": 1.1938953978,
				"y": -3.8164438273,
				"z": -1.045594882,
				"element": "C" 
			},
			{
				"x": 0.7277910483,
				"y": -3.3117403232,
				"z": -2.4344563224,
				"element": "C" 
			},
			{
				"x": 1.3544238077,
				"y": -2.0628335095,
				"z": -2.8663363258,
				"element": "C" 
			},
			{
				"x": 1.8586580376,
				"y": -1.0678055619,
				"z": -3.1890396505,
				"element": "N" 
			},
			{
				"x": 0.9807717807,
				"y": -3.0088586783,
				"z": 0.029347034,
				"element": "N" 
			},
			{
				"x": 0.3456983544,
				"y": -1.6936916493,
				"z": 0.1310046206,
				"element": "C" 
			},
			{
				"x": -0.8519533006,
				"y": -1.7206120386,
				"z": 1.0952680422,
				"element": "C" 
			},
			{
				"x": -1.6324317968,
				"y": -0.3835330149,
				"z": 1.0480841963,
				"element": "C" 
			},
			{
				"x": -0.7242240606,
				"y": 0.821466918,
				"z": 0.7044052013,
				"element": "C" 
			},
			{
				"x": 0.6997813769,
				"y": 0.6073968821,
				"z": 1.2339466957,
				"element": "C" 
			},
			{
				"x": 1.3710346502,
				"y": -0.6137027331,
				"z": 0.5607555382,
				"element": "C" 
			},
			{
				"x": -0.361545024,
				"y": -3.1862706463,
				"z": -2.4475636028,
				"element": "H" 
			},
			{
				"x": 0.9826950224,
				"y": -4.1097424289,
				"z": -3.1351436286,
				"element": "H" 
			},
			{
				"x": 1.326533244,
				"y": -3.4165662449,
				"z": 0.8907866434,
				"element": "H" 
			},
			{
				"x": -0.0313637309,
				"y": -1.4418831636,
				"z": -0.8636884771,
				"element": "H" 
			},
			{
				"x": -0.475172918,
				"y": -1.9045520184,
				"z": 2.1106710281,
				"element": "H" 
			},
			{
				"x": -1.5091387175,
				"y": -2.5622830024,
				"z": 0.8524859504,
				"element": "H" 
			},
			{
				"x": -2.4411963787,
				"y": -0.4530018117,
				"z": 0.311396373,
				"element": "H" 
			},
			{
				"x": -2.115777853,
				"y": -0.2218688388,
				"z": 2.0181050181,
				"element": "H" 
			},
			{
				"x": -1.1542865837,
				"y": 1.7425251583,
				"z": 1.1121162374,
				"element": "H" 
			},
			{
				"x": -0.6816326456,
				"y": 0.9615915215,
				"z": -0.3835410101,
				"element": "H" 
			},
			{
				"x": 0.6554471091,
				"y": 0.4581088079,
				"z": 2.3206047661,
				"element": "H" 
			},
			{
				"x": 1.311354091,
				"y": 1.5013593239,
				"z": 1.0735819886,
				"element": "H" 
			},
			{
				"x": 2.0891967208,
				"y": -1.0698047657,
				"z": 1.2532485786,
				"element": "H" 
			},
			{
				"x": 1.9421937649,
				"y": -0.3073499215,
				"z": -0.3215177893,
				"element": "H" 
			}
		],
		 "valence_orbital": [ 
			{
				"type": "occ",
				"energy": -0.32805,
				"method": "rhf"
			},
			{
				"type": "occ",
				"energy": -0.3198,
				"method": "rhf"
			},
			{
				"type": "occ",
				"energy": -0.31473,
				"method": "rhf"
			},
			{
				"type": "occ",
				"energy": -0.26228,
				"method": "rhf"
			},
			{
				"type": "occ",
				"energy": -0.25739,
				"method": "rhf"
			},
			{
				"type": "unocc",
				"energy": 0.00305,
				"method": "rhf"
			},
			{
				"type": "unocc",
				"energy": 0.02609,
				"method": "rhf"
			},
			{
				"type": "unocc",
				"energy": 0.03947,
				"method": "rhf"
			},
			{
				"type": "unocc",
				"energy": 0.05996,
				"method": "rhf"
			},
			{
				"type": "unocc",
				"energy": 0.07848,
				"method": "rhf"
			}
		],
		"cosmo_sigma_profile": { 
			"-0.025": 0.0,
			"-0.024": 0.0,
			"-0.023": 0.0,
			"-0.022": 0.0,
			"-0.021": 0.0,
			"-0.02": 0.0,
			"-0.019": 0.0,
			"-0.018": 0.0,
			"-0.017": 0.0,
			"-0.016": 0.0,
			"-0.015": 0.0,
			"-0.014": 0.136056013292,
			"-0.013": 0.980229509605,
			"-0.012": 0.834977188744,
			"-0.011": 1.16792387029,
			"-0.01": 4.57019628878,
			"-0.009": 5.85829990081,
			"-0.008": 6.10201408129,
			"-0.007": 5.11775079303,
			"-0.006": 6.26698862082,
			"-0.005": 5.25885106502,
			"-0.004": 8.79918382508,
			"-0.003": 17.5347847415,
			"-0.002": 27.8005629489,
			"-0.001": 29.5399447979,
			"0.0": 27.3060079957,
			"0.001": 21.172562701,
			"0.002": 6.27512616466,
			"0.003": 3.09130344738,
			"0.004": 3.94984347959,
			"0.005": 3.79355120328,
			"0.006": 3.05776965753,
			"0.007": 2.85320557386,
			"0.008": 4.1052584492,
			"0.009": 4.0621918424,
			"0.01": 4.12134670201,
			"0.011": 4.05688310611,
			"0.012": 4.75260302446,
			"0.013": 7.22805870369,
			"0.014": 2.46892627907,
			"0.015": 0.0,
			"0.016": 0.0,
			"0.017": 0.0,
			"0.018": 0.0,
			"0.019": 0.0,
			"0.02": 0.0,
			"0.021": 0.0,
			"0.022": 0.0,
			"0.023": 0.0,
			"0.024": 0.0,
			"0.0": 0.0
		}
	}
}
