{
	 "smiles": "CC1(C)CCC2=C(C1)C1=C(N2)C=CC=C1", 
	 "Tm": 377.15, 
	 "num_atms": 32, 
	 "gaussian": { 
		 "optdone": 1, 
		 "sigma_profile": "yes", 
		 "theory": "DFT", 
		 "functional": "B3LYP", 
		 "basiset": "6-31G**", 
		 "properties": { 
			 "R2extent": 4409.0349, 
			 "electric_dipole_moment_norm": 2.33863440067, 
			 "electric_quadrupole_moment_norm": 9.09336882184, 
			 "total_energy": -598.520061814, 
			 "HOMO_LUMO_gap": 0.1892, 
			 "cosmo_polarized_energy": -7.86, 
			 "cosmo_cavitation_energy": 32.22, 
			 "cosmo_dispersion_energy": -23.49, 
			 "cosmo_repulsion_energy": 1.81, 
			 "cosmo_total_nonelectrostatic_energy": 10.54, 
			 "SMD_solvation_energy": 4.38 
		},
		"coords": [
			{
				"x": 2.0689918731,
				"y": 2.2758948965,
				"z": -2.0897882662,
				"element": "C" 
			},
			{
				"x": 1.0149483151,
				"y": 1.7497814848,
				"z": -1.1006124348,
				"element": "C" 
			},
			{
				"x": 1.7342971515,
				"y": 1.1054424492,
				"z": 0.1016320516,
				"element": "C" 
			},
			{
				"x": 0.1282807602,
				"y": 2.9343986284,
				"z": -0.6338654382,
				"element": "C" 
			},
			{
				"x": -0.9746566622,
				"y": 2.5358035675,
				"z": 0.3682190585,
				"element": "C" 
			},
			{
				"x": -1.6382199616,
				"y": 1.2808963289,
				"z": -0.0994405374,
				"element": "C" 
			},
			{
				"x": -1.1532127104,
				"y": 0.4332091962,
				"z": -1.0635751047,
				"element": "C" 
			},
			{
				"x": 0.1219035759,
				"y": 0.6954840765,
				"z": -1.8139707782,
				"element": "C" 
			},
			{
				"x": -2.0924645339,
				"y": -0.6531324271,
				"z": -1.1808221485,
				"element": "C" 
			},
			{
				"x": -3.1359347933,
				"y": -0.40187626,
				"z": -0.2436521995,
				"element": "C" 
			},
			{
				"x": -2.8315022132,
				"y": 0.7824938261,
				"z": 0.4013118257,
				"element": "N" 
			},
			{
				"x": -4.2237650379,
				"y": -1.2653114284,
				"z": -0.089398033,
				"element": "C" 
			},
			{
				"x": -4.2632141028,
				"y": -2.4025523749,
				"z": -0.8911513982,
				"element": "C" 
			},
			{
				"x": -3.2425827775,
				"y": -2.6721261504,
				"z": -1.824371985,
				"element": "C" 
			},
			{
				"x": -2.1624141047,
				"y": -1.8094996167,
				"z": -1.9757738481,
				"element": "C" 
			},
			{
				"x": 2.7465176072,
				"y": 2.988266545,
				"z": -1.6050605248,
				"element": "H" 
			},
			{
				"x": 1.5993308438,
				"y": 2.7844053854,
				"z": -2.9395503247,
				"element": "H" 
			},
			{
				"x": 2.6777948803,
				"y": 1.4553756407,
				"z": -2.486632329,
				"element": "H" 
			},
			{
				"x": 2.307182252,
				"y": 1.8522454144,
				"z": 0.6638785737,
				"element": "H" 
			},
			{
				"x": 1.0310912228,
				"y": 0.6261721422,
				"z": 0.7888210722,
				"element": "H" 
			},
			{
				"x": 2.4363144487,
				"y": 0.3360155485,
				"z": -0.2384961323,
				"element": "H" 
			},
			{
				"x": -0.3451732801,
				"y": 3.3799584836,
				"z": -1.5183972425,
				"element": "H" 
			},
			{
				"x": 0.7610433215,
				"y": 3.7129014288,
				"z": -0.1903416625,
				"element": "H" 
			},
			{
				"x": -1.7007107892,
				"y": 3.3543492842,
				"z": 0.4667625366,
				"element": "H" 
			},
			{
				"x": -0.5446990287,
				"y": 2.3906359172,
				"z": 1.3703642584,
				"element": "H" 
			},
			{
				"x": 0.6935811543,
				"y": -0.23387905,
				"z": -1.9436296448,
				"element": "H" 
			},
			{
				"x": -0.1053839848,
				"y": 1.0484809583,
				"z": -2.8313857995,
				"element": "H" 
			},
			{
				"x": -3.387500033,
				"y": 1.2160416879,
				"z": 1.1201884709,
				"element": "H" 
			},
			{
				"x": -5.011568439,
				"y": -1.0585959121,
				"z": 0.6301864217,
				"element": "H" 
			},
			{
				"x": -5.0954460073,
				"y": -3.0938428996,
				"z": -0.7946831245,
				"element": "H" 
			},
			{
				"x": -3.3044298833,
				"y": -3.5688627432,
				"z": -2.4343252592,
				"element": "H" 
			},
			{
				"x": -1.3819990636,
				"y": -2.0270740278,
				"z": -2.7001400536,
				"element": "H" 
			}
		],
		 "valence_orbital": [ 
			{
				"type": "occ",
				"energy": -0.30719,
				"method": "rhf"
			},
			{
				"type": "occ",
				"energy": -0.30008,
				"method": "rhf"
			},
			{
				"type": "occ",
				"energy": -0.25879,
				"method": "rhf"
			},
			{
				"type": "occ",
				"energy": -0.20848,
				"method": "rhf"
			},
			{
				"type": "occ",
				"energy": -0.18775,
				"method": "rhf"
			},
			{
				"type": "unocc",
				"energy": 0.00145,
				"method": "rhf"
			},
			{
				"type": "unocc",
				"energy": 0.036,
				"method": "rhf"
			},
			{
				"type": "unocc",
				"energy": 0.07171,
				"method": "rhf"
			},
			{
				"type": "unocc",
				"energy": 0.08389,
				"method": "rhf"
			},
			{
				"type": "unocc",
				"energy": 0.08696,
				"method": "rhf"
			}
		],
		"cosmo_sigma_profile": { 
			"-0.025": 0.0,
			"-0.024": 0.0,
			"-0.023": 0.0,
			"-0.022": 0.0,
			"-0.021": 0.0,
			"-0.02": 0.0,
			"-0.019": 0.0,
			"-0.018": 0.0,
			"-0.017": 0.0,
			"-0.016": 0.0,
			"-0.015": 0.51304166912,
			"-0.014": 1.57852635627,
			"-0.013": 1.09169869429,
			"-0.012": 1.06710286323,
			"-0.011": 1.25892612824,
			"-0.01": 1.21405142205,
			"-0.009": 1.47300528609,
			"-0.008": 1.2694694792,
			"-0.007": 1.19769139194,
			"-0.006": 2.60371898555,
			"-0.005": 5.36757208987,
			"-0.004": 11.130530911,
			"-0.003": 16.061216448,
			"-0.002": 41.5876892076,
			"-0.001": 37.0348573854,
			"0.0": 27.9364601048,
			"0.001": 24.499580066,
			"0.002": 17.6719820433,
			"0.003": 9.38976997675,
			"0.004": 8.51855081463,
			"0.005": 10.9338511115,
			"0.006": 12.7540673381,
			"0.007": 10.3825024674,
			"0.008": 5.22061499327,
			"0.009": 0.170546733307,
			"0.01": 0.0,
			"0.011": 0.0,
			"0.012": 0.0,
			"0.013": 0.0,
			"0.014": 0.0,
			"0.015": 0.0,
			"0.016": 0.0,
			"0.017": 0.0,
			"0.018": 0.0,
			"0.019": 0.0,
			"0.02": 0.0,
			"0.021": 0.0,
			"0.022": 0.0,
			"0.023": 0.0,
			"0.024": 0.0,
			"0.025": 0.0
		}
	}
}
