{
	 "smiles": "CNCC1=CN(N=C1C1=CC=C(Cl)C=C1)C1=CC=CC=C1", 
	 "Tm": 339.15, 
	 "num_atms": 37, 
	 "gaussian": { 
		 "optdone": 1, 
		 "sigma_profile": "yes", 
		 "theory": "DFT", 
		 "functional": "B3LYP", 
		 "basiset": "6-31G**", 
		 "properties": { 
			 "R2extent": 9998.4558, 
			 "electric_dipole_moment_norm": 4.09042781503, 
			 "electric_quadrupole_moment_norm": 4.13042257039, 
			 "total_energy": -1281.8795574, 
			 "HOMO_LUMO_gap": 0.17228, 
			 "cosmo_polarized_energy": -11.64, 
			 "cosmo_cavitation_energy": 42.35, 
			 "cosmo_dispersion_energy": -30.26, 
			 "cosmo_repulsion_energy": 2.3, 
			 "cosmo_total_nonelectrostatic_energy": 14.39, 
			 "SMD_solvation_energy": 3.76 
		},
		"coords": [
			{
				"x": -4.4409495441,
				"y": -1.6510530296,
				"z": 0.4548346218,
				"element": "C" 
			},
			{
				"x": -3.7313471754,
				"y": -0.7257894656,
				"z": 1.3335853057,
				"element": "N" 
			},
			{
				"x": -2.8368901305,
				"y": 0.2067744721,
				"z": 0.628753251,
				"element": "C" 
			},
			{
				"x": -1.6209253006,
				"y": -0.3965003425,
				"z": -0.0336388256,
				"element": "C" 
			},
			{
				"x": -1.5488037142,
				"y": -0.8308970436,
				"z": -1.3417159488,
				"element": "C" 
			},
			{
				"x": -0.2931494385,
				"y": -1.3264589447,
				"z": -1.5498462486,
				"element": "N" 
			},
			{
				"x": 0.4621849573,
				"y": -1.2418626173,
				"z": -0.4335936369,
				"element": "N" 
			},
			{
				"x": -0.3178401328,
				"y": -0.68077764,
				"z": 0.4972047697,
				"element": "C" 
			},
			{
				"x": 0.264429363,
				"y": -0.4080469243,
				"z": 1.8264475763,
				"element": "C" 
			},
			{
				"x": 1.6651751815,
				"y": -0.3777816253,
				"z": 1.9664902365,
				"element": "C" 
			},
			{
				"x": 2.2666855917,
				"y": -0.1350069137,
				"z": 3.1962847044,
				"element": "C" 
			},
			{
				"x": 1.4649937062,
				"y": 0.089114062,
				"z": 4.3164652955,
				"element": "C" 
			},
			{
				"x": 2.2166396159,
				"y": 0.4038044566,
				"z": 5.8744703918,
				"element": "Cl" 
			},
			{
				"x": 0.0769120717,
				"y": 0.0660216075,
				"z": 4.2136076363,
				"element": "C" 
			},
			{
				"x": -0.5132124851,
				"y": -0.1847993595,
				"z": 2.9746348856,
				"element": "C" 
			},
			{
				"x": 0.2394932284,
				"y": -1.9044597238,
				"z": -2.7322756599,
				"element": "C" 
			},
			{
				"x": 1.3532736281,
				"y": -2.7474375118,
				"z": -2.6435668352,
				"element": "C" 
			},
			{
				"x": 1.8738198513,
				"y": -3.3199423622,
				"z": -3.8019003197,
				"element": "C" 
			},
			{
				"x": 1.2908433743,
				"y": -3.0674401233,
				"z": -5.0458854681,
				"element": "C" 
			},
			{
				"x": 0.1825880261,
				"y": -2.2230434513,
				"z": -5.1254154196,
				"element": "C" 
			},
			{
				"x": -0.3422124764,
				"y": -1.6331988433,
				"z": -3.9760682968,
				"element": "C" 
			},
			{
				"x": -5.1191394737,
				"y": -1.0842071926,
				"z": -0.1941233567,
				"element": "H" 
			},
			{
				"x": -5.0535382004,
				"y": -2.3236882586,
				"z": 1.0627045409,
				"element": "H" 
			},
			{
				"x": -3.7939677314,
				"y": -2.268667471,
				"z": -0.1914222923,
				"element": "H" 
			},
			{
				"x": -3.190599021,
				"y": -1.2661136024,
				"z": 2.0047398482,
				"element": "H" 
			},
			{
				"x": -2.5248663622,
				"y": 0.9805181879,
				"z": 1.3375911473,
				"element": "H" 
			},
			{
				"x": -3.4423523104,
				"y": 0.7166784713,
				"z": -0.1298889875,
				"element": "H" 
			},
			{
				"x": -2.2981478591,
				"y": -0.8273463964,
				"z": -2.1182108059,
				"element": "H" 
			},
			{
				"x": 2.279211391,
				"y": -0.5469878502,
				"z": 1.0893122821,
				"element": "H" 
			},
			{
				"x": 3.347111875,
				"y": -0.112250283,
				"z": 3.2876511311,
				"element": "H" 
			},
			{
				"x": -0.5376310462,
				"y": 0.2352067092,
				"z": 5.0908356421,
				"element": "H" 
			},
			{
				"x": -1.5947268589,
				"y": -0.2097350633,
				"z": 2.9259259794,
				"element": "H" 
			},
			{
				"x": 1.7910150595,
				"y": -2.9375681195,
				"z": -1.6715601659,
				"element": "H" 
			},
			{
				"x": 2.7378499737,
				"y": -3.9738124411,
				"z": -3.7283970532,
				"element": "H" 
			},
			{
				"x": 1.6986758049,
				"y": -3.5202877703,
				"z": -5.9443026331,
				"element": "H" 
			},
			{
				"x": -0.2726555775,
				"y": -2.0083231546,
				"z": -6.0876804661,
				"element": "H" 
			},
			{
				"x": -1.1824478612,
				"y": -0.951834442,
				"z": -4.0544468258,
				"element": "H" 
			}
		],
		 "valence_orbital": [ 
			{
				"type": "occ",
				"energy": -0.26112,
				"method": "rhf"
			},
			{
				"type": "occ",
				"energy": -0.26039,
				"method": "rhf"
			},
			{
				"type": "occ",
				"energy": -0.24496,
				"method": "rhf"
			},
			{
				"type": "occ",
				"energy": -0.22687,
				"method": "rhf"
			},
			{
				"type": "occ",
				"energy": -0.21266,
				"method": "rhf"
			},
			{
				"type": "unocc",
				"energy": -0.04038,
				"method": "rhf"
			},
			{
				"type": "unocc",
				"energy": -0.01617,
				"method": "rhf"
			},
			{
				"type": "unocc",
				"energy": -0.01166,
				"method": "rhf"
			},
			{
				"type": "unocc",
				"energy": -0.00958,
				"method": "rhf"
			},
			{
				"type": "unocc",
				"energy": 0.03107,
				"method": "rhf"
			}
		],
		"cosmo_sigma_profile": { 
			"-0.025": 0.0,
			"-0.024": 0.0,
			"-0.023": 0.0,
			"-0.022": 0.0,
			"-0.021": 0.0,
			"-0.02": 0.0,
			"-0.019": 0.0,
			"-0.018": 0.0,
			"-0.017": 0.0,
			"-0.016": 0.0,
			"-0.015": 0.0,
			"-0.014": 0.0,
			"-0.013": 0.0,
			"-0.012": 0.0,
			"-0.011": 0.0,
			"-0.01": 0.708561677444,
			"-0.009": 3.04917687615,
			"-0.008": 4.68619231486,
			"-0.007": 8.5362153623,
			"-0.006": 15.7858620148,
			"-0.005": 21.7432346457,
			"-0.004": 25.1299602082,
			"-0.003": 24.0354282601,
			"-0.002": 23.9707325984,
			"-0.001": 26.0633968919,
			"0.0": 27.4532671073,
			"0.001": 24.2093086323,
			"0.002": 30.9554701452,
			"0.003": 36.1460105196,
			"0.004": 32.969709198,
			"0.005": 18.2913751129,
			"0.006": 3.23528669123,
			"0.007": 3.46736147163,
			"0.008": 3.25446384983,
			"0.009": 1.93601380783,
			"0.01": 0.861772923656,
			"0.011": 0.818218478036,
			"0.012": 0.405076423288,
			"0.013": 0.51118268967,
			"0.014": 0.576140276257,
			"0.015": 0.524347919722,
			"0.016": 0.67697810892,
			"0.017": 0.494234341957,
			"0.018": 0.438847833609,
			"0.019": 0.0345255143907,
			"0.02": 0.0,
			"0.021": 0.0,
			"0.022": 0.0,
			"0.023": 0.0,
			"0.024": 0.0,
			"0.025": 0.0
		}
	}
}
