{
	 "smiles": "CC12CCCC1C1CCC3CC4(CCC3(C)C1CC2)OCCO4", 
	 "Tm": 390.15, 
	 "num_atms": 57, 
	 "gaussian": { 
		 "optdone": 1, 
		 "sigma_profile": "yes", 
		 "theory": "DFT", 
		 "functional": "B3LYP", 
		 "basiset": "6-31G**", 
		 "properties": { 
			 "R2extent": 9328.7015, 
			 "electric_dipole_moment_norm": 1.07358736021, 
			 "electric_quadrupole_moment_norm": 9.68024713579, 
			 "total_energy": -971.179356269, 
			 "HOMO_LUMO_gap": 0.3087, 
			 "cosmo_polarized_energy": -5.62, 
			 "cosmo_cavitation_energy": 47.11, 
			 "cosmo_dispersion_energy": -33.69, 
			 "cosmo_repulsion_energy": 2.47, 
			 "cosmo_total_nonelectrostatic_energy": 15.89, 
			 "SMD_solvation_energy": 6.11 
		},
		"coords": [
			{
				"x": 2.8359428392,
				"y": -0.1634602917,
				"z": -2.6702017767,
				"element": "C" 
			},
			{
				"x": 2.7329695713,
				"y": 1.1227379269,
				"z": -1.8188595155,
				"element": "C" 
			},
			{
				"x": 4.1386706463,
				"y": 1.7603318046,
				"z": -1.710260814,
				"element": "C" 
			},
			{
				"x": 4.8744954859,
				"y": 0.9364398537,
				"z": -0.6156597402,
				"element": "C" 
			},
			{
				"x": 3.7565697611,
				"y": 0.2318068155,
				"z": 0.2144272729,
				"element": "C" 
			},
			{
				"x": 2.4411053349,
				"y": 0.8261028978,
				"z": -0.3252698187,
				"element": "C" 
			},
			{
				"x": 1.1344686143,
				"y": 0.0550743864,
				"z": -0.0797021955,
				"element": "C" 
			},
			{
				"x": 0.721817098,
				"y": 0.0954594413,
				"z": 1.3937332052,
				"element": "C" 
			},
			{
				"x": -0.5272712906,
				"y": -0.7551073845,
				"z": 1.6671561752,
				"element": "C" 
			},
			{
				"x": -1.5598844791,
				"y": -0.7904757746,
				"z": 0.5000654434,
				"element": "C" 
			},
			{
				"x": -2.9901683508,
				"y": -0.9919850166,
				"z": 1.0542759236,
				"element": "C" 
			},
			{
				"x": -3.6045552562,
				"y": 0.2594896668,
				"z": 1.7047496294,
				"element": "C" 
			},
			{
				"x": -3.4311106283,
				"y": 1.5104698097,
				"z": 0.839815389,
				"element": "C" 
			},
			{
				"x": -2.0004297584,
				"y": 1.6879744475,
				"z": 0.2989490703,
				"element": "C" 
			},
			{
				"x": -1.4796130307,
				"y": 0.4358248582,
				"z": -0.4611932603,
				"element": "C" 
			},
			{
				"x": -2.3745707099,
				"y": 0.1836187271,
				"z": -1.7010934125,
				"element": "C" 
			},
			{
				"x": -0.0080048345,
				"y": 0.5871033928,
				"z": -1.0196014948,
				"element": "C" 
			},
			{
				"x": 0.319815731,
				"y": 2.0059261028,
				"z": -1.5353792904,
				"element": "C" 
			},
			{
				"x": 1.618146621,
				"y": 2.0494997147,
				"z": -2.3789205195,
				"element": "C" 
			},
			{
				"x": -3.0470352564,
				"y": 0.530155668,
				"z": 3.0008240522,
				"element": "O" 
			},
			{
				"x": -3.95210182,
				"y": 0.0206612299,
				"z": 3.9732948336,
				"element": "C" 
			},
			{
				"x": -5.3005328722,
				"y": 0.2386907972,
				"z": 3.2952476687,
				"element": "C" 
			},
			{
				"x": -5.0007985622,
				"y": -0.0058104358,
				"z": 1.9263145666,
				"element": "O" 
			},
			{
				"x": 1.8919963576,
				"y": -0.7144465112,
				"z": -2.710241024,
				"element": "H" 
			},
			{
				"x": 3.6026518034,
				"y": -0.8497865957,
				"z": -2.2971484088,
				"element": "H" 
			},
			{
				"x": 3.1049134352,
				"y": 0.0976861013,
				"z": -3.7002197736,
				"element": "H" 
			},
			{
				"x": 4.6774328143,
				"y": 1.7712771311,
				"z": -2.6644747316,
				"element": "H" 
			},
			{
				"x": 4.0374380747,
				"y": 2.8039850412,
				"z": -1.3881310607,
				"element": "H" 
			},
			{
				"x": 5.497318817,
				"y": 1.5828873273,
				"z": 0.0103563754,
				"element": "H" 
			},
			{
				"x": 5.5487634427,
				"y": 0.199007481,
				"z": -1.062660098,
				"element": "H" 
			},
			{
				"x": 3.7805617147,
				"y": -0.85338154,
				"z": 0.0586633313,
				"element": "H" 
			},
			{
				"x": 3.8759912091,
				"y": 0.3953788993,
				"z": 1.2897085279,
				"element": "H" 
			},
			{
				"x": 2.3274179135,
				"y": 1.8117240091,
				"z": 0.1531794082,
				"element": "H" 
			},
			{
				"x": 1.3104567789,
				"y": -1.0001011286,
				"z": -0.3369991886,
				"element": "H" 
			},
			{
				"x": 1.5477858634,
				"y": -0.2519106043,
				"z": 2.0259165345,
				"element": "H" 
			},
			{
				"x": 0.5456380855,
				"y": 1.1392799303,
				"z": 1.6848744928,
				"element": "H" 
			},
			{
				"x": -1.0112725911,
				"y": -0.3973049455,
				"z": 2.5778761102,
				"element": "H" 
			},
			{
				"x": -0.2231194668,
				"y": -1.7907919667,
				"z": 1.8669914702,
				"element": "H" 
			},
			{
				"x": -1.330862786,
				"y": -1.6736350994,
				"z": -0.112895676,
				"element": "H" 
			},
			{
				"x": -2.9961026475,
				"y": -1.8026856772,
				"z": 1.7927542283,
				"element": "H" 
			},
			{
				"x": -3.6729811414,
				"y": -1.2997997032,
				"z": 0.2560117161,
				"element": "H" 
			},
			{
				"x": -3.7213712917,
				"y": 2.3796390114,
				"z": 1.4392835514,
				"element": "H" 
			},
			{
				"x": -4.1487150012,
				"y": 1.4376034073,
				"z": 0.0173731106,
				"element": "H" 
			},
			{
				"x": -1.337964993,
				"y": 1.9218951807,
				"z": 1.1383815316,
				"element": "H" 
			},
			{
				"x": -1.9867182633,
				"y": 2.5640648799,
				"z": -0.3578694391,
				"element": "H" 
			},
			{
				"x": -2.0920912179,
				"y": -0.7541475867,
				"z": -2.1924396603,
				"element": "H" 
			},
			{
				"x": -2.2561289458,
				"y": 0.9885648414,
				"z": -2.434894568,
				"element": "H" 
			},
			{
				"x": -3.4389442686,
				"y": 0.1183715178,
				"z": -1.4664764743,
				"element": "H" 
			},
			{
				"x": 0.0118998639,
				"y": -0.0612605937,
				"z": -1.9048661025,
				"element": "H" 
			},
			{
				"x": -0.506918771,
				"y": 2.3915174676,
				"z": -2.1424513072,
				"element": "H" 
			},
			{
				"x": 0.410759587,
				"y": 2.6936414877,
				"z": -0.6861909836,
				"element": "H" 
			},
			{
				"x": 1.3865521286,
				"y": 1.7641588365,
				"z": -3.4126992054,
				"element": "H" 
			},
			{
				"x": 1.9735807716,
				"y": 3.086520055,
				"z": -2.424330993,
				"element": "H" 
			},
			{
				"x": -3.8161460459,
				"y": 0.5841879568,
				"z": 4.9001403662,
				"element": "H" 
			},
			{
				"x": -3.772171221,
				"y": -1.0466772409,
				"z": 4.1710990131,
				"element": "H" 
			},
			{
				"x": -5.6601442812,
				"y": 1.2670615498,
				"z": 3.4473148092,
				"element": "H" 
			},
			{
				"x": -6.077630581,
				"y": -0.4616515568,
				"z": 3.6158527257,
				"element": "H" 
			}
		],
		 "valence_orbital": [ 
			{
				"type": "occ",
				"energy": -0.2756,
				"method": "rhf"
			},
			{
				"type": "occ",
				"energy": -0.26874,
				"method": "rhf"
			},
			{
				"type": "occ",
				"energy": -0.26317,
				"method": "rhf"
			},
			{
				"type": "occ",
				"energy": -0.25967,
				"method": "rhf"
			},
			{
				"type": "occ",
				"energy": -0.23981,
				"method": "rhf"
			},
			{
				"type": "unocc",
				"energy": 0.06889,
				"method": "rhf"
			},
			{
				"type": "unocc",
				"energy": 0.0818,
				"method": "rhf"
			},
			{
				"type": "unocc",
				"energy": 0.08879,
				"method": "rhf"
			},
			{
				"type": "unocc",
				"energy": 0.09557,
				"method": "rhf"
			},
			{
				"type": "unocc",
				"energy": 0.10312,
				"method": "rhf"
			}
		],
		"cosmo_sigma_profile": { 
			"-0.025": 0.0,
			"-0.024": 0.0,
			"-0.023": 0.0,
			"-0.022": 0.0,
			"-0.021": 0.0,
			"-0.02": 0.0,
			"-0.019": 0.0,
			"-0.018": 0.0,
			"-0.017": 0.0,
			"-0.016": 0.0,
			"-0.015": 0.0,
			"-0.014": 0.0,
			"-0.013": 0.0,
			"-0.012": 0.0,
			"-0.011": 0.0,
			"-0.01": 0.0,
			"-0.009": 0.0,
			"-0.008": 0.0,
			"-0.007": 0.0,
			"-0.006": 2.38555526249,
			"-0.005": 7.48204400572,
			"-0.004": 15.5430706079,
			"-0.003": 19.9170870036,
			"-0.002": 46.0299811589,
			"-0.001": 74.8248279565,
			"0.0": 72.6566767359,
			"0.001": 50.824045439,
			"0.002": 35.7885944423,
			"0.003": 8.85945126582,
			"0.004": 4.07401532993,
			"0.005": 3.61078460332,
			"0.006": 3.02482013864,
			"0.007": 2.69901405016,
			"0.008": 1.77742976403,
			"0.009": 2.60844450092,
			"0.01": 2.26957478238,
			"0.011": 1.73029986113,
			"0.012": 2.02169023668,
			"0.013": 1.30431989691,
			"0.014": 0.0559765858447,
			"0.015": 0.0,
			"0.016": 0.0,
			"0.017": 0.0,
			"0.018": 0.0,
			"0.019": 0.0,
			"0.02": 0.0,
			"0.021": 0.0,
			"0.022": 0.0,
			"0.023": 0.0,
			"0.024": 0.0,
			"0.025": 0.0
		}
	}
}
