{
	 "smiles": "OC(=O)C1=CC=CC2=CC=CC(C3=CC=CC4=CC=CC(C(O)=O)=C34)=C12", 
	 "Tm": 558.15, 
	 "num_atms": 40, 
	 "gaussian": { 
		 "optdone": 1, 
		 "sigma_profile": "yes", 
		 "theory": "DFT", 
		 "functional": "B3LYP", 
		 "basiset": "6-31G**", 
		 "properties": { 
			 "R2extent": 6941.9085, 
			 "electric_dipole_moment_norm": 4.19619192364, 
			 "electric_quadrupole_moment_norm": 15.0184320706, 
			 "total_energy": -1147.69856869, 
			 "HOMO_LUMO_gap": 0.14883, 
			 "cosmo_polarized_energy": -23.96, 
			 "cosmo_cavitation_energy": 42.85, 
			 "cosmo_dispersion_energy": -28.59, 
			 "cosmo_repulsion_energy": 2.1, 
			 "cosmo_total_nonelectrostatic_energy": 16.36, 
			 "SMD_solvation_energy": 8.4 
		},
		"coords": [
			{
				"x": -3.2172929334,
				"y": -1.2620084475,
				"z": -0.1865800292,
				"element": "O" 
			},
			{
				"x": -2.9307770435,
				"y": 0.02277794,
				"z": -0.5112070993,
				"element": "C" 
			},
			{
				"x": -3.1763437953,
				"y": 0.4797336028,
				"z": -1.6086163715,
				"element": "O" 
			},
			{
				"x": -2.4339747556,
				"y": 0.8126185699,
				"z": 0.6582022193,
				"element": "C" 
			},
			{
				"x": -3.0850968992,
				"y": 2.023369126,
				"z": 0.8207766222,
				"element": "C" 
			},
			{
				"x": -2.919618132,
				"y": 2.8007129125,
				"z": 1.9843520741,
				"element": "C" 
			},
			{
				"x": -2.1236986693,
				"y": 2.3296668595,
				"z": 2.9984962736,
				"element": "C" 
			},
			{
				"x": -1.3941655065,
				"y": 1.1183718196,
				"z": 2.856896323,
				"element": "C" 
			},
			{
				"x": -0.574878071,
				"y": 0.6653129931,
				"z": 3.9231860022,
				"element": "C" 
			},
			{
				"x": 0.1694043312,
				"y": -0.4815968638,
				"z": 3.7970894341,
				"element": "C" 
			},
			{
				"x": 0.1839162033,
				"y": -1.1625138582,
				"z": 2.5640436842,
				"element": "C" 
			},
			{
				"x": -0.5732388116,
				"y": -0.7482777767,
				"z": 1.4757687705,
				"element": "C" 
			},
			{
				"x": -0.359045472,
				"y": -1.4730230661,
				"z": 0.1858159187,
				"element": "C" 
			},
			{
				"x": -0.5763824954,
				"y": -2.8445691654,
				"z": 0.1894151257,
				"element": "C" 
			},
			{
				"x": -0.5034972002,
				"y": -3.6232465964,
				"z": -0.9809855643,
				"element": "C" 
			},
			{
				"x": -0.2596292531,
				"y": -3.0096943638,
				"z": -2.1865516387,
				"element": "C" 
			},
			{
				"x": -0.0028412455,
				"y": -1.6159840377,
				"z": -2.251325477,
				"element": "C" 
			},
			{
				"x": 0.2055635005,
				"y": -1.0010047796,
				"z": -3.5155558708,
				"element": "C" 
			},
			{
				"x": 0.4431670582,
				"y": 0.3467357157,
				"z": -3.6164839357,
				"element": "C" 
			},
			{
				"x": 0.5676490889,
				"y": 1.1149033813,
				"z": -2.4415166034,
				"element": "C" 
			},
			{
				"x": 0.4240748848,
				"y": 0.5547199199,
				"z": -1.18362743,
				"element": "C" 
			},
			{
				"x": 0.8459128277,
				"y": 1.4880998351,
				"z": -0.0753766302,
				"element": "C" 
			},
			{
				"x": 1.7295369375,
				"y": 0.9854840004,
				"z": 0.8261045453,
				"element": "O" 
			},
			{
				"x": 0.5468343053,
				"y": 2.6574927844,
				"z": -0.0329786193,
				"element": "O" 
			},
			{
				"x": 0.0337993302,
				"y": -0.826895924,
				"z": -1.0441164756,
				"element": "C" 
			},
			{
				"x": -1.4784875637,
				"y": 0.3619067726,
				"z": 1.6350102382,
				"element": "C" 
			},
			{
				"x": -3.5424667072,
				"y": -1.6733626962,
				"z": -1.0051125489,
				"element": "H" 
			},
			{
				"x": -3.7691333448,
				"y": 2.345292772,
				"z": 0.0428633798,
				"element": "H" 
			},
			{
				"x": -3.4499507281,
				"y": 3.7422364545,
				"z": 2.0853648481,
				"element": "H" 
			},
			{
				"x": -2.0238898558,
				"y": 2.8845370694,
				"z": 3.9274371502,
				"element": "H" 
			},
			{
				"x": -0.5456870657,
				"y": 1.2494193746,
				"z": 4.8388002449,
				"element": "H" 
			},
			{
				"x": 0.7870827768,
				"y": -0.8359861016,
				"z": 4.6166291803,
				"element": "H" 
			},
			{
				"x": 0.8526009606,
				"y": -2.0095367823,
				"z": 2.4368918558,
				"element": "H" 
			},
			{
				"x": -0.8788197211,
				"y": -3.3140439281,
				"z": 1.1200553812,
				"element": "H" 
			},
			{
				"x": -0.6899777787,
				"y": -4.6918880968,
				"z": -0.9304883542,
				"element": "H" 
			},
			{
				"x": -0.2627583506,
				"y": -3.5795214241,
				"z": -3.1118453258,
				"element": "H" 
			},
			{
				"x": 0.1587866274,
				"y": -1.6240945842,
				"z": -4.4047109544,
				"element": "H" 
			},
			{
				"x": 0.5724325758,
				"y": 0.8175370462,
				"z": -4.5859046344,
				"element": "H" 
			},
			{
				"x": 0.8214780663,
				"y": 2.1676637406,
				"z": -2.502923052,
				"element": "H" 
			},
			{
				"x": 1.8669119247,
				"y": 0.0417558024,
				"z": 0.6626073434,
				"element": "H" 
			}
		],
		 "valence_orbital": [ 
			{
				"type": "occ",
				"energy": -0.26221,
				"method": "rhf"
			},
			{
				"type": "occ",
				"energy": -0.25494,
				"method": "rhf"
			},
			{
				"type": "occ",
				"energy": -0.24991,
				"method": "rhf"
			},
			{
				"type": "occ",
				"energy": -0.22989,
				"method": "rhf"
			},
			{
				"type": "occ",
				"energy": -0.21296,
				"method": "rhf"
			},
			{
				"type": "unocc",
				"energy": -0.06413,
				"method": "rhf"
			},
			{
				"type": "unocc",
				"energy": -0.05247,
				"method": "rhf"
			},
			{
				"type": "unocc",
				"energy": -0.02894,
				"method": "rhf"
			},
			{
				"type": "unocc",
				"energy": -0.02379,
				"method": "rhf"
			},
			{
				"type": "unocc",
				"energy": 0.00269,
				"method": "rhf"
			}
		],
		"cosmo_sigma_profile": { 
			"-0.025": 0.0,
			"-0.024": 0.0,
			"-0.023": 0.0,
			"-0.022": 0.0,
			"-0.021": 0.0,
			"-0.02": 0.0,
			"-0.019": 0.0,
			"-0.018": 0.279434789766,
			"-0.017": 1.13899348153,
			"-0.016": 1.46979746057,
			"-0.015": 1.07282324877,
			"-0.014": 0.982249187888,
			"-0.013": 1.66456917248,
			"-0.012": 1.43697285431,
			"-0.011": 1.84355531462,
			"-0.01": 1.70796408575,
			"-0.009": 1.27892998832,
			"-0.008": 1.6778404803,
			"-0.007": 13.3550085272,
			"-0.006": 27.5168839737,
			"-0.005": 26.3823414284,
			"-0.004": 24.4093762056,
			"-0.003": 20.9761784679,
			"-0.002": 18.7370152349,
			"-0.001": 18.5316069662,
			"0.0": 19.5624401001,
			"0.001": 20.359385636,
			"0.002": 27.9976634435,
			"0.003": 24.9776165209,
			"0.004": 14.685496389,
			"0.005": 13.6075455529,
			"0.006": 12.2150238797,
			"0.007": 8.79319449089,
			"0.008": 7.76745744448,
			"0.009": 5.40229331428,
			"0.01": 6.53938361123,
			"0.011": 6.93218377714,
			"0.012": 8.09782287832,
			"0.013": 1.8443004397,
			"0.014": 0.0745232035788,
			"0.015": 0.0,
			"0.016": 0.0,
			"0.017": 0.0,
			"0.018": 0.0,
			"0.019": 0.0,
			"0.02": 0.0,
			"0.021": 0.0,
			"0.022": 0.0,
			"0.023": 0.0,
			"0.024": 0.0,
			"0.0": 0.0
		}
	}
}
