{
	 "smiles": "CC(=O)CC(=O)NC1=C(Cl)C=C(C)C=C1", 
	 "Tm": 363.15, 
	 "num_atms": 27, 
	 "gaussian": { 
		 "optdone": 1, 
		 "sigma_profile": "yes", 
		 "theory": "DFT", 
		 "functional": "B3LYP", 
		 "basiset": "6-31G**", 
		 "properties": { 
			 "R2extent": 5272.3551, 
			 "electric_dipole_moment_norm": 1.75114013717, 
			 "electric_quadrupole_moment_norm": 28.7615603452, 
			 "total_energy": -1091.82516014, 
			 "HOMO_LUMO_gap": 0.17855, 
			 "cosmo_polarized_energy": -12.27, 
			 "cosmo_cavitation_energy": 32.8, 
			 "cosmo_dispersion_energy": -23.66, 
			 "cosmo_repulsion_energy": 1.86, 
			 "cosmo_total_nonelectrostatic_energy": 11.0, 
			 "SMD_solvation_energy": 6.43 
		},
		"coords": [
			{
				"x": -0.7659261143,
				"y": -4.8721724618,
				"z": -1.7371381699,
				"element": "C" 
			},
			{
				"x": 0.0236416588,
				"y": -3.589785652,
				"z": -1.6060414914,
				"element": "C" 
			},
			{
				"x": 0.2898480941,
				"y": -2.8993457553,
				"z": -2.5768966599,
				"element": "O" 
			},
			{
				"x": 0.4968374352,
				"y": -3.2197136419,
				"z": -0.2040596849,
				"element": "C" 
			},
			{
				"x": 0.4664357386,
				"y": -1.738810375,
				"z": 0.2169336701,
				"element": "C" 
			},
			{
				"x": 0.2044243922,
				"y": -1.4561282227,
				"z": 1.3786064215,
				"element": "O" 
			},
			{
				"x": 0.8015106763,
				"y": -0.8499070014,
				"z": -0.7680421495,
				"element": "N" 
			},
			{
				"x": 0.9175481205,
				"y": 0.547065757,
				"z": -0.6614099792,
				"element": "C" 
			},
			{
				"x": 1.288324619,
				"y": 1.2968685874,
				"z": -1.7940399576,
				"element": "C" 
			},
			{
				"x": 1.6022243521,
				"y": 0.4833579557,
				"z": -3.3273017129,
				"element": "Cl" 
			},
			{
				"x": 1.4257186603,
				"y": 2.6806222567,
				"z": -1.7449783723,
				"element": "C" 
			},
			{
				"x": 1.1979556999,
				"y": 3.3814931336,
				"z": -0.5568158615,
				"element": "C" 
			},
			{
				"x": 1.3156463094,
				"y": 4.8863661029,
				"z": -0.5083185524,
				"element": "C" 
			},
			{
				"x": 0.8351528244,
				"y": 2.6394923353,
				"z": 0.5733661555,
				"element": "C" 
			},
			{
				"x": 0.6941111974,
				"y": 1.2557675336,
				"z": 0.5322803654,
				"element": "C" 
			},
			{
				"x": -0.9447262397,
				"y": -5.09510498,
				"z": -2.7896019492,
				"element": "H" 
			},
			{
				"x": -1.7243855292,
				"y": -4.7679650636,
				"z": -1.2142606554,
				"element": "H" 
			},
			{
				"x": -0.2343228517,
				"y": -5.7035145924,
				"z": -1.2601588353,
				"element": "H" 
			},
			{
				"x": 1.5429188573,
				"y": -3.5540831046,
				"z": -0.1360791366,
				"element": "H" 
			},
			{
				"x": -0.054808144,
				"y": -3.767820487,
				"z": 0.5618415565,
				"element": "H" 
			},
			{
				"x": 0.905730612,
				"y": -1.2539283453,
				"z": -1.6983674108,
				"element": "H" 
			},
			{
				"x": 1.7160459401,
				"y": 3.2087498608,
				"z": -2.6475116722,
				"element": "H" 
			},
			{
				"x": 0.340864772,
				"y": 5.3671642306,
				"z": -0.6589393997,
				"element": "H" 
			},
			{
				"x": 1.9877389841,
				"y": 5.2617274751,
				"z": -1.2855693764,
				"element": "H" 
			},
			{
				"x": 1.6969589993,
				"y": 5.224325886,
				"z": 0.4602168246,
				"element": "H" 
			},
			{
				"x": 0.657002274,
				"y": 3.1525616701,
				"z": 1.5149461176,
				"element": "H" 
			},
			{
				"x": 0.4141286618,
				"y": 0.6984168982,
				"z": 1.414539916,
				"element": "H" 
			}
		],
		 "valence_orbital": [ 
			{
				"type": "occ",
				"energy": -0.30273,
				"method": "rhf"
			},
			{
				"type": "occ",
				"energy": -0.27641,
				"method": "rhf"
			},
			{
				"type": "occ",
				"energy": -0.25575,
				"method": "rhf"
			},
			{
				"type": "occ",
				"energy": -0.24472,
				"method": "rhf"
			},
			{
				"type": "occ",
				"energy": -0.21638,
				"method": "rhf"
			},
			{
				"type": "unocc",
				"energy": -0.03783,
				"method": "rhf"
			},
			{
				"type": "unocc",
				"energy": -0.01649,
				"method": "rhf"
			},
			{
				"type": "unocc",
				"energy": -0.00554,
				"method": "rhf"
			},
			{
				"type": "unocc",
				"energy": 0.03167,
				"method": "rhf"
			},
			{
				"type": "unocc",
				"energy": 0.03989,
				"method": "rhf"
			}
		],
		"cosmo_sigma_profile": { 
			"-0.025": 0.0,
			"-0.024": 0.0,
			"-0.023": 0.0,
			"-0.022": 0.0,
			"-0.021": 0.0,
			"-0.02": 0.0,
			"-0.019": 0.0,
			"-0.018": 0.0,
			"-0.017": 0.0,
			"-0.016": 0.0,
			"-0.015": 0.0,
			"-0.014": 0.0,
			"-0.013": 0.0,
			"-0.012": 0.0,
			"-0.011": 0.0,
			"-0.01": 0.00126075840323,
			"-0.009": 2.72369776191,
			"-0.008": 4.6518264438,
			"-0.007": 10.5377291962,
			"-0.006": 14.541977492,
			"-0.005": 14.5879208212,
			"-0.004": 20.9867790821,
			"-0.003": 17.7451922425,
			"-0.002": 22.4740588625,
			"-0.001": 22.6642436357,
			"0.0": 19.5505869303,
			"0.001": 17.536447451,
			"0.002": 19.0954848014,
			"0.003": 18.3305451123,
			"0.004": 21.1766387958,
			"0.005": 10.0544225419,
			"0.006": 3.40883833794,
			"0.007": 3.10782333321,
			"0.008": 3.82167938014,
			"0.009": 2.31304807589,
			"0.01": 3.20350273297,
			"0.011": 3.73782343505,
			"0.012": 3.98476568288,
			"0.013": 2.51384161918,
			"0.014": 0.518933359673,
			"0.015": 0.0,
			"0.016": 0.0,
			"0.017": 0.0,
			"0.018": 0.0,
			"0.019": 0.0,
			"0.02": 0.0,
			"0.021": 0.0,
			"0.022": 0.0,
			"0.023": 0.0,
			"0.024": 0.0,
			"0.025": 0.0
		}
	}
}
