{
	 "smiles": "O=C1N(OCC#C)C(=O)C2=C1C=CC=C2", 
	 "Tm": 423.15, 
	 "num_atms": 22, 
	 "gaussian": { 
		 "optdone": 1, 
		 "sigma_profile": "yes", 
		 "theory": "DFT", 
		 "functional": "B3LYP", 
		 "basiset": "6-31G**", 
		 "properties": { 
			 "R2extent": 3526.7437, 
			 "electric_dipole_moment_norm": 3.41338853048, 
			 "electric_quadrupole_moment_norm": 13.4351474484, 
			 "total_energy": -703.684852018, 
			 "HOMO_LUMO_gap": 0.17704, 
			 "cosmo_polarized_energy": -14.08, 
			 "cosmo_cavitation_energy": 29.06, 
			 "cosmo_dispersion_energy": -19.78, 
			 "cosmo_repulsion_energy": 1.53, 
			 "cosmo_total_nonelectrostatic_energy": 10.81, 
			 "SMD_solvation_energy": 8.6 
		},
		"coords": [
			{
				"x": 0.3341215163,
				"y": -1.2006404092,
				"z": -0.8385260418,
				"element": "O" 
			},
			{
				"x": 0.0298880888,
				"y": -0.6982127856,
				"z": 0.2174903421,
				"element": "C" 
			},
			{
				"x": -1.1931791256,
				"y": -0.8639651541,
				"z": 0.9058623745,
				"element": "N" 
			},
			{
				"x": -2.1133528176,
				"y": -1.8130503548,
				"z": 0.5284567134,
				"element": "O" 
			},
			{
				"x": -3.3453848155,
				"y": -1.2029958718,
				"z": 0.0607598137,
				"element": "C" 
			},
			{
				"x": -3.1843776299,
				"y": -0.4084962428,
				"z": -1.1519531235,
				"element": "C" 
			},
			{
				"x": -3.0624474954,
				"y": 0.2635146903,
				"z": -2.1470945147,
				"element": "C" 
			},
			{
				"x": -1.2333800265,
				"y": -0.2466288378,
				"z": 2.1706894958,
				"element": "C" 
			},
			{
				"x": -2.154338621,
				"y": -0.3074014118,
				"z": 2.9575439959,
				"element": "O" 
			},
			{
				"x": 0.064605566,
				"y": 0.4844332651,
				"z": 2.2586174503,
				"element": "C" 
			},
			{
				"x": 0.8114164493,
				"y": 0.2160619281,
				"z": 1.1057624771,
				"element": "C" 
			},
			{
				"x": 2.0700525661,
				"y": 0.7662969505,
				"z": 0.9158274812,
				"element": "C" 
			},
			{
				"x": 2.5703520007,
				"y": 1.6012387869,
				"z": 1.9245164583,
				"element": "C" 
			},
			{
				"x": 1.823048492,
				"y": 1.8693783462,
				"z": 3.077883406,
				"element": "C" 
			},
			{
				"x": 0.5502148069,
				"y": 1.3117792283,
				"z": 3.260465106,
				"element": "C" 
			},
			{
				"x": -3.9915477315,
				"y": -2.067974825,
				"z": -0.1162966183,
				"element": "H" 
			},
			{
				"x": -3.776661569,
				"y": -0.6076957625,
				"z": 0.8727566123,
				"element": "H" 
			},
			{
				"x": -2.9459095581,
				"y": 0.8433010567,
				"z": -3.033614623,
				"element": "H" 
			},
			{
				"x": 2.640188583,
				"y": 0.5514032699,
				"z": 0.0178861821,
				"element": "H" 
			},
			{
				"x": 3.5538134446,
				"y": 2.047561312,
				"z": 1.8116952064,
				"element": "H" 
			},
			{
				"x": 2.2381889914,
				"y": 2.519050542,
				"z": 3.8425091926,
				"element": "H" 
			},
			{
				"x": -0.037911115,
				"y": 1.5120422793,
				"z": 4.1501626136,
				"element": "H" 
			}
		],
		 "valence_orbital": [ 
			{
				"type": "occ",
				"energy": -0.28363,
				"method": "rhf"
			},
			{
				"type": "occ",
				"energy": -0.28101,
				"method": "rhf"
			},
			{
				"type": "occ",
				"energy": -0.27628,
				"method": "rhf"
			},
			{
				"type": "occ",
				"energy": -0.26745,
				"method": "rhf"
			},
			{
				"type": "occ",
				"energy": -0.26254,
				"method": "rhf"
			},
			{
				"type": "unocc",
				"energy": -0.0855,
				"method": "rhf"
			},
			{
				"type": "unocc",
				"energy": -0.04352,
				"method": "rhf"
			},
			{
				"type": "unocc",
				"energy": 0.01364,
				"method": "rhf"
			},
			{
				"type": "unocc",
				"energy": 0.02515,
				"method": "rhf"
			},
			{
				"type": "unocc",
				"energy": 0.04574,
				"method": "rhf"
			}
		],
		"cosmo_sigma_profile": { 
			"-0.025": 0.0,
			"-0.024": 0.0,
			"-0.023": 0.0,
			"-0.022": 0.0,
			"-0.021": 0.0,
			"-0.02": 0.0,
			"-0.019": 0.0,
			"-0.018": 0.0,
			"-0.017": 0.0,
			"-0.016": 0.0,
			"-0.015": 0.0,
			"-0.014": 0.0,
			"-0.013": 0.123156480544,
			"-0.012": 1.19548711203,
			"-0.011": 1.38300626607,
			"-0.01": 1.30498075664,
			"-0.009": 3.56782186426,
			"-0.008": 7.44824216315,
			"-0.007": 14.0335083449,
			"-0.006": 16.9406521495,
			"-0.005": 15.1534623706,
			"-0.004": 12.6802556568,
			"-0.003": 11.2716877008,
			"-0.002": 13.9335668619,
			"-0.001": 15.4434307025,
			"0.0": 14.9600558816,
			"0.001": 18.8165070775,
			"0.002": 16.1092212685,
			"0.003": 8.66679327496,
			"0.004": 7.93432796917,
			"0.005": 10.4128365725,
			"0.006": 8.80239208603,
			"0.007": 5.54396865435,
			"0.008": 6.78099268134,
			"0.009": 6.20123015253,
			"0.01": 8.55535410111,
			"0.011": 7.54582252763,
			"0.012": 0.784763080137,
			"0.013": 0.0,
			"0.014": 0.0,
			"0.015": 0.0,
			"0.016": 0.0,
			"0.017": 0.0,
			"0.018": 0.0,
			"0.019": 0.0,
			"0.02": 0.0,
			"0.021": 0.0,
			"0.022": 0.0,
			"0.023": 0.0,
			"0.024": 0.0,
			"0.025": 0.0
		}
	}
}
