{
	 "smiles": "COC1=C(Br)C=C(S1)C=O", 
	 "Tm": 389.15, 
	 "num_atms": 15, 
	 "gaussian": { 
		 "optdone": 1, 
		 "sigma_profile": "yes", 
		 "theory": "DFT", 
		 "functional": "B3LYP", 
		 "basiset": "6-31G**", 
		 "properties": { 
			 "R2extent": 4699.6115, 
			 "electric_dipole_moment_norm": 4.94402249388, 
			 "electric_quadrupole_moment_norm": 11.5190899597, 
			 "total_energy": -3351.6416989, 
			 "HOMO_LUMO_gap": 0.16007, 
			 "cosmo_polarized_energy": -10.26, 
			 "cosmo_cavitation_energy": 23.95, 
			 "cosmo_dispersion_energy": -18.35, 
			 "cosmo_repulsion_energy": 1.45, 
			 "cosmo_total_nonelectrostatic_energy": 7.06, 
			 "SMD_solvation_energy": 4.89 
		},
		"coords": [
			{
				"x": -0.9801743769,
				"y": 1.8141471402,
				"z": -0.6957053217,
				"element": "C" 
			},
			{
				"x": -1.6946397185,
				"y": 1.1920744067,
				"z": 0.3732541405,
				"element": "O" 
			},
			{
				"x": -1.492835299,
				"y": -0.1080918573,
				"z": 0.6017013842,
				"element": "C" 
			},
			{
				"x": -2.1185059094,
				"y": -0.8305685819,
				"z": 1.6008070606,
				"element": "C" 
			},
			{
				"x": -3.3631816011,
				"y": -0.048756766,
				"z": 2.791010195,
				"element": "Br" 
			},
			{
				"x": -1.7332244578,
				"y": -2.1869344475,
				"z": 1.6321807223,
				"element": "C" 
			},
			{
				"x": -0.8127179874,
				"y": -2.5142316546,
				"z": 0.6613347018,
				"element": "C" 
			},
			{
				"x": -0.4021272367,
				"y": -1.1154890268,
				"z": -0.3261285737,
				"element": "S" 
			},
			{
				"x": -0.2093238267,
				"y": -3.8180109175,
				"z": 0.4156289486,
				"element": "C" 
			},
			{
				"x": -0.4634652046,
				"y": -4.8134758716,
				"z": 1.073229227,
				"element": "O" 
			},
			{
				"x": -1.2955322387,
				"y": 2.8570319116,
				"z": -0.6978072806,
				"element": "H" 
			},
			{
				"x": 0.1015827631,
				"y": 1.7551490294,
				"z": -0.5281037319,
				"element": "H" 
			},
			{
				"x": -1.2326474198,
				"y": 1.3493863496,
				"z": -1.6559235298,
				"element": "H" 
			},
			{
				"x": -2.1106568752,
				"y": -2.9144492224,
				"z": 2.3394730565,
				"element": "H" 
			},
			{
				"x": 0.5149493888,
				"y": -3.854680492,
				"z": -0.4276509987,
				"element": "H" 
			}
		],
		 "valence_orbital": [ 
			{
				"type": "occ",
				"energy": -0.32311,
				"method": "rhf"
			},
			{
				"type": "occ",
				"energy": -0.29392,
				"method": "rhf"
			},
			{
				"type": "occ",
				"energy": -0.26603,
				"method": "rhf"
			},
			{
				"type": "occ",
				"energy": -0.25703,
				"method": "rhf"
			},
			{
				"type": "occ",
				"energy": -0.22707,
				"method": "rhf"
			},
			{
				"type": "unocc",
				"energy": -0.067,
				"method": "rhf"
			},
			{
				"type": "unocc",
				"energy": -0.01981,
				"method": "rhf"
			},
			{
				"type": "unocc",
				"energy": 0.01519,
				"method": "rhf"
			},
			{
				"type": "unocc",
				"energy": 0.01586,
				"method": "rhf"
			},
			{
				"type": "unocc",
				"energy": 0.0672,
				"method": "rhf"
			}
		],
		"cosmo_sigma_profile": { 
			"-0.025": 0.0,
			"-0.024": 0.0,
			"-0.023": 0.0,
			"-0.022": 0.0,
			"-0.021": 0.0,
			"-0.02": 0.0,
			"-0.019": 0.0,
			"-0.018": 0.0,
			"-0.017": 0.0,
			"-0.016": 0.0,
			"-0.015": 0.0,
			"-0.014": 0.0,
			"-0.013": 0.0,
			"-0.012": 0.0,
			"-0.011": 0.0,
			"-0.01": 0.0,
			"-0.009": 0.445029161595,
			"-0.008": 4.67332287216,
			"-0.007": 11.4401288975,
			"-0.006": 13.8257616224,
			"-0.005": 15.1626961727,
			"-0.004": 13.3884606811,
			"-0.003": 8.65586039823,
			"-0.002": 10.2234256015,
			"-0.001": 13.1028373895,
			"0.0": 15.958034658,
			"0.001": 21.3205795185,
			"0.002": 15.1690441996,
			"0.003": 10.8266597895,
			"0.004": 14.321357586,
			"0.005": 5.34718706864,
			"0.006": 3.65943352794,
			"0.007": 3.62651341126,
			"0.008": 2.35289495531,
			"0.009": 2.36738341448,
			"0.01": 1.85131762972,
			"0.011": 3.92620397223,
			"0.012": 4.39293313962,
			"0.013": 1.5390829887,
			"0.014": 0.0618689767211,
			"0.015": 0.0,
			"0.016": 0.0,
			"0.017": 0.0,
			"0.018": 0.0,
			"0.019": 0.0,
			"0.02": 0.0,
			"0.021": 0.0,
			"0.022": 0.0,
			"0.023": 0.0,
			"0.024": 0.0,
			"0.025": 0.0
		}
	}
}
