{
	 "smiles": "NC1=CC2=C(OCO2)C=C1", 
	 "Tm": 313.65, 
	 "num_atms": 17, 
	 "gaussian": { 
		 "optdone": 1, 
		 "sigma_profile": "yes", 
		 "theory": "DFT", 
		 "functional": "B3LYP", 
		 "basiset": "6-31G**", 
		 "properties": { 
			 "R2extent": 2048.1963, 
			 "electric_dipole_moment_norm": 1.32279908527, 
			 "electric_quadrupole_moment_norm": 12.6911953381, 
			 "total_energy": -476.132881542, 
			 "HOMO_LUMO_gap": 0.18844, 
			 "cosmo_polarized_energy": -9.89, 
			 "cosmo_cavitation_energy": 20.69, 
			 "cosmo_dispersion_energy": -16.16, 
			 "cosmo_repulsion_energy": 1.31, 
			 "cosmo_total_nonelectrostatic_energy": 5.84, 
			 "SMD_solvation_energy": 4.11 
		},
		"coords": [
			{
				"x": 0.461223556,
				"y": 3.6496209294,
				"z": -3.0122310786,
				"element": "N" 
			},
			{
				"x": 0.6131102154,
				"y": 2.43708163,
				"z": -2.3213540057,
				"element": "C" 
			},
			{
				"x": 0.2840023893,
				"y": 2.3751187694,
				"z": -0.9461056714,
				"element": "C" 
			},
			{
				"x": 0.3840946044,
				"y": 1.1461145534,
				"z": -0.3277489931,
				"element": "C" 
			},
			{
				"x": 0.7888118619,
				"y": -0.0022406024,
				"z": -1.0023439337,
				"element": "C" 
			},
			{
				"x": 0.8350888085,
				"y": -1.0659308493,
				"z": -0.1182439699,
				"element": "O" 
			},
			{
				"x": 0.2107011893,
				"y": -0.5839319872,
				"z": 1.0708319241,
				"element": "C" 
			},
			{
				"x": 0.1507145208,
				"y": 0.8471632002,
				"z": 0.9938918333,
				"element": "O" 
			},
			{
				"x": 1.1159649678,
				"y": 0.0356192758,
				"z": -2.341342009,
				"element": "C" 
			},
			{
				"x": 1.0227485431,
				"y": 1.2768233348,
				"z": -2.9958425823,
				"element": "C" 
			},
			{
				"x": 1.0147902209,
				"y": 3.7158519124,
				"z": -3.8561321798,
				"element": "H" 
			},
			{
				"x": 0.5812415329,
				"y": 4.4736557094,
				"z": -2.437902106,
				"element": "H" 
			},
			{
				"x": -0.0416954856,
				"y": 3.2549709822,
				"z": -0.4012681875,
				"element": "H" 
			},
			{
				"x": -0.8122200398,
				"y": -0.9850168298,
				"z": 1.1445992172,
				"element": "H" 
			},
			{
				"x": 0.8057584536,
				"y": -0.8746116824,
				"z": 1.9412929958,
				"element": "H" 
			},
			{
				"x": 1.4398116848,
				"y": -0.8544355076,
				"z": -2.8692642069,
				"element": "H" 
			},
			{
				"x": 1.2659529768,
				"y": 1.3371471616,
				"z": -4.0529370465,
				"element": "H" 
			}
		],
		 "valence_orbital": [ 
			{
				"type": "occ",
				"energy": -0.34542,
				"method": "rhf"
			},
			{
				"type": "occ",
				"energy": -0.3399,
				"method": "rhf"
			},
			{
				"type": "occ",
				"energy": -0.26952,
				"method": "rhf"
			},
			{
				"type": "occ",
				"energy": -0.22962,
				"method": "rhf"
			},
			{
				"type": "occ",
				"energy": -0.18088,
				"method": "rhf"
			},
			{
				"type": "unocc",
				"energy": 0.00756,
				"method": "rhf"
			},
			{
				"type": "unocc",
				"energy": 0.03086,
				"method": "rhf"
			},
			{
				"type": "unocc",
				"energy": 0.08343,
				"method": "rhf"
			},
			{
				"type": "unocc",
				"energy": 0.10771,
				"method": "rhf"
			},
			{
				"type": "unocc",
				"energy": 0.11103,
				"method": "rhf"
			}
		],
		"cosmo_sigma_profile": { 
			"-0.025": 0.0,
			"-0.024": 0.0,
			"-0.023": 0.0,
			"-0.022": 0.0,
			"-0.021": 0.0,
			"-0.02": 0.0,
			"-0.019": 0.0,
			"-0.018": 0.0,
			"-0.017": 0.0,
			"-0.016": 0.0,
			"-0.015": 0.0,
			"-0.014": 0.0,
			"-0.013": 0.118774381468,
			"-0.012": 1.98760266817,
			"-0.011": 2.76849764653,
			"-0.01": 2.3598310821,
			"-0.009": 3.43934817957,
			"-0.008": 5.15061377913,
			"-0.007": 8.48500147936,
			"-0.006": 12.3050503486,
			"-0.005": 10.9997045717,
			"-0.004": 8.9912258845,
			"-0.003": 8.02134801396,
			"-0.002": 6.61840360608,
			"-0.001": 6.18560908962,
			"0.0": 7.36817910004,
			"0.001": 7.02275358987,
			"0.002": 7.73351122127,
			"0.003": 10.5858140902,
			"0.004": 11.9953160069,
			"0.005": 11.327466349,
			"0.006": 9.7212386884,
			"0.007": 5.61550046165,
			"0.008": 4.16774827716,
			"0.009": 3.52841961803,
			"0.01": 3.98524896592,
			"0.011": 1.26400233052,
			"0.012": 1.03722220735,
			"0.013": 0.560627067145,
			"0.014": 0.577714541043,
			"0.015": 0.773331059906,
			"0.016": 0.0598015598552,
			"0.017": 0.0,
			"0.018": 0.0,
			"0.019": 0.0,
			"0.02": 0.0,
			"0.021": 0.0,
			"0.022": 0.0,
			"0.023": 0.0,
			"0.024": 0.0,
			"0.025": 0.0
		}
	}
}
