{
	 "smiles": "OC(=O)C1=CC2=C(N=CC=C2)N=C1C(F)(F)F", 
	 "Tm": 583.15, 
	 "num_atms": 22, 
	 "gaussian": { 
		 "optdone": 1, 
		 "sigma_profile": "yes", 
		 "theory": "DFT", 
		 "functional": "B3LYP", 
		 "basiset": "6-31G**", 
		 "properties": { 
			 "R2extent": 4752.1267, 
			 "electric_dipole_moment_norm": 4.88951016054, 
			 "electric_quadrupole_moment_norm": 16.0115872655, 
			 "total_energy": -943.553223889, 
			 "HOMO_LUMO_gap": 0.17595, 
			 "cosmo_polarized_energy": -16.79, 
			 "cosmo_cavitation_energy": 28.44, 
			 "cosmo_dispersion_energy": -20.83, 
			 "cosmo_repulsion_energy": 1.52, 
			 "cosmo_total_nonelectrostatic_energy": 9.13, 
			 "SMD_solvation_energy": 4.01 
		},
		"coords": [
			{
				"x": 2.2346729645,
				"y": 2.3843091067,
				"z": 0.2922534459,
				"element": "O" 
			},
			{
				"x": 1.7597132274,
				"y": 1.1494750977,
				"z": 0.0585396407,
				"element": "C" 
			},
			{
				"x": 2.4411541557,
				"y": 0.3282721146,
				"z": -0.5105459444,
				"element": "O" 
			},
			{
				"x": 0.3318281048,
				"y": 0.8230435857,
				"z": 0.4514512441,
				"element": "C" 
			},
			{
				"x": -0.3089688575,
				"y": -0.0815586853,
				"z": -0.3736463252,
				"element": "C" 
			},
			{
				"x": -1.643816965,
				"y": -0.4636627091,
				"z": -0.1255047304,
				"element": "C" 
			},
			{
				"x": -2.299063564,
				"y": 0.0962767012,
				"z": 1.0142932992,
				"element": "C" 
			},
			{
				"x": -3.5875113175,
				"y": -0.1963140988,
				"z": 1.3352446579,
				"element": "N" 
			},
			{
				"x": -4.2300790549,
				"y": -1.0364743679,
				"z": 0.5494218228,
				"element": "C" 
			},
			{
				"x": -3.6712150602,
				"y": -1.657386155,
				"z": -0.6003449951,
				"element": "C" 
			},
			{
				"x": -2.3724530019,
				"y": -1.3694540804,
				"z": -0.9396083041,
				"element": "C" 
			},
			{
				"x": -1.6518097875,
				"y": 0.9492844464,
				"z": 1.8510277596,
				"element": "N" 
			},
			{
				"x": -0.4136379813,
				"y": 1.2909130675,
				"z": 1.5829858565,
				"element": "C" 
			},
			{
				"x": 0.2125300893,
				"y": 2.220526644,
				"z": 2.6161866403,
				"element": "C" 
			},
			{
				"x": 0.415480554,
				"y": 3.4668835654,
				"z": 2.0594907039,
				"element": "F" 
			},
			{
				"x": -0.5424711902,
				"y": 2.3942992392,
				"z": 3.6906010953,
				"element": "F" 
			},
			{
				"x": 1.4226790774,
				"y": 1.775583956,
				"z": 3.0039187925,
				"element": "F" 
			},
			{
				"x": 1.5818990038,
				"y": 2.962245987,
				"z": 0.7171619824,
				"element": "H" 
			},
			{
				"x": 0.2365786681,
				"y": -0.4950038716,
				"z": -1.2163285383,
				"element": "H" 
			},
			{
				"x": -5.2615601424,
				"y": -1.2557521519,
				"z": 0.8227371957,
				"element": "H" 
			},
			{
				"x": -4.2725586916,
				"y": -2.3425851152,
				"z": -1.1886837749,
				"element": "H" 
			},
			{
				"x": -1.896890231,
				"y": -1.8146222763,
				"z": -1.8092515244,
				"element": "H" 
			}
		],
		 "valence_orbital": [ 
			{
				"type": "occ",
				"energy": -0.31047,
				"method": "rhf"
			},
			{
				"type": "occ",
				"energy": -0.29156,
				"method": "rhf"
			},
			{
				"type": "occ",
				"energy": -0.28962,
				"method": "rhf"
			},
			{
				"type": "occ",
				"energy": -0.27905,
				"method": "rhf"
			},
			{
				"type": "occ",
				"energy": -0.27357,
				"method": "rhf"
			},
			{
				"type": "unocc",
				"energy": -0.09762,
				"method": "rhf"
			},
			{
				"type": "unocc",
				"energy": -0.07315,
				"method": "rhf"
			},
			{
				"type": "unocc",
				"energy": -0.0229,
				"method": "rhf"
			},
			{
				"type": "unocc",
				"energy": 0.00512,
				"method": "rhf"
			},
			{
				"type": "unocc",
				"energy": 0.05932,
				"method": "rhf"
			}
		],
		"cosmo_sigma_profile": { 
			"-0.025": 0.0,
			"-0.024": 0.0,
			"-0.023": 0.0,
			"-0.022": 0.0,
			"-0.021": 0.0,
			"-0.02": 0.0,
			"-0.019": 0.0,
			"-0.018": 0.0,
			"-0.017": 0.0,
			"-0.016": 0.0,
			"-0.015": 0.00839982439864,
			"-0.014": 0.517684628959,
			"-0.013": 0.741918552472,
			"-0.012": 1.60111166562,
			"-0.011": 1.14427448464,
			"-0.01": 1.74626536064,
			"-0.009": 4.8881629038,
			"-0.008": 8.32397495937,
			"-0.007": 11.2445249102,
			"-0.006": 8.65936542045,
			"-0.005": 11.1442767578,
			"-0.004": 13.1101284088,
			"-0.003": 17.614082478,
			"-0.002": 19.0769357249,
			"-0.001": 17.6293913063,
			"0.0": 18.8652811345,
			"0.001": 23.7591116455,
			"0.002": 14.5468582373,
			"0.003": 5.54061010445,
			"0.004": 4.41634950849,
			"0.005": 3.6171862388,
			"0.006": 4.88186701684,
			"0.007": 4.58162143786,
			"0.008": 4.21440607048,
			"0.009": 5.50163549641,
			"0.01": 6.66167117986,
			"0.011": 6.75441682136,
			"0.012": 3.88859020103,
			"0.013": 1.91390586242,
			"0.014": 1.48671441504,
			"0.015": 1.844848691,
			"0.016": 0.674837085346,
			"0.017": 0.0,
			"0.018": 0.0,
			"0.019": 0.0,
			"0.02": 0.0,
			"0.021": 0.0,
			"0.022": 0.0,
			"0.023": 0.0,
			"0.024": 0.0,
			"0.025": 0.0
		}
	}
}
