{
	 "smiles": "CC(C)SC(C)C", 
	 "Tm": 195.05, 
	 "num_atms": 21, 
	 "gaussian": { 
		 "optdone": 1, 
		 "sigma_profile": "yes", 
		 "theory": "DFT", 
		 "functional": "B3LYP", 
		 "basiset": "6-31G**", 
		 "properties": { 
			 "R2extent": 1582.0649, 
			 "electric_dipole_moment_norm": 1.73468568623, 
			 "electric_quadrupole_moment_norm": 5.17243120302, 
			 "total_energy": -635.280930027, 
			 "HOMO_LUMO_gap": 0.256, 
			 "cosmo_polarized_energy": -4.34, 
			 "cosmo_cavitation_energy": 23.48, 
			 "cosmo_dispersion_energy": -17.06, 
			 "cosmo_repulsion_energy": 1.39, 
			 "cosmo_total_nonelectrostatic_energy": 7.8, 
			 "SMD_solvation_energy": 3.84 
		},
		"coords": [
			{
				"x": -2.0011579408,
				"y": -0.8392264594,
				"z": 0.6020573804,
				"element": "C" 
			},
			{
				"x": -1.6147670085,
				"y": -0.1874127072,
				"z": -0.7292769111,
				"element": "C" 
			},
			{
				"x": -0.417104655,
				"y": -0.8779722218,
				"z": -1.3904494854,
				"element": "C" 
			},
			{
				"x": -1.4111766986,
				"y": 1.6539877683,
				"z": -0.6236950681,
				"element": "S" 
			},
			{
				"x": -0.045351245,
				"y": 1.8907503424,
				"z": 0.6158573386,
				"element": "C" 
			},
			{
				"x": 0.9116641232,
				"y": 2.9686606667,
				"z": 0.0935472881,
				"element": "C" 
			},
			{
				"x": -0.5930495525,
				"y": 2.2451553269,
				"z": 2.0030464696,
				"element": "C" 
			},
			{
				"x": -2.8798586981,
				"y": -0.3590156613,
				"z": 1.0402213264,
				"element": "H" 
			},
			{
				"x": -2.2283143324,
				"y": -1.9013281465,
				"z": 0.449196999,
				"element": "H" 
			},
			{
				"x": -1.1825957895,
				"y": -0.78317087,
				"z": 1.3274948412,
				"element": "H" 
			},
			{
				"x": -2.4722743778,
				"y": -0.2568359561,
				"z": -1.4096038601,
				"element": "H" 
			},
			{
				"x": -0.1964954434,
				"y": -0.4382865895,
				"z": -2.3661735083,
				"element": "H" 
			},
			{
				"x": -0.6253975693,
				"y": -1.9458928329,
				"z": -1.5299618947,
				"element": "H" 
			},
			{
				"x": 0.4837268325,
				"y": -0.8007237199,
				"z": -0.7718511558,
				"element": "H" 
			},
			{
				"x": 0.4935422531,
				"y": 0.9387407197,
				"z": 0.6693671532,
				"element": "H" 
			},
			{
				"x": 0.3878004244,
				"y": 3.9195743895,
				"z": -0.0542093837,
				"element": "H" 
			},
			{
				"x": 1.3566377235,
				"y": 2.6783731036,
				"z": -0.8614176019,
				"element": "H" 
			},
			{
				"x": 1.7175269969,
				"y": 3.1429026865,
				"z": 0.8164067678,
				"element": "H" 
			},
			{
				"x": -1.2604878605,
				"y": 1.4692773017,
				"z": 2.3855234058,
				"element": "H" 
			},
			{
				"x": -1.1574844957,
				"y": 3.1826979217,
				"z": 1.9675620711,
				"element": "H" 
			},
			{
				"x": 0.2304173135,
				"y": 2.3723449377,
				"z": 2.7172578278,
				"element": "H" 
			}
		],
		 "valence_orbital": [ 
			{
				"type": "occ",
				"energy": -0.34571,
				"method": "rhf"
			},
			{
				"type": "occ",
				"energy": -0.34289,
				"method": "rhf"
			},
			{
				"type": "occ",
				"energy": -0.31417,
				"method": "rhf"
			},
			{
				"type": "occ",
				"energy": -0.28462,
				"method": "rhf"
			},
			{
				"type": "occ",
				"energy": -0.21165,
				"method": "rhf"
			},
			{
				"type": "unocc",
				"energy": 0.04435,
				"method": "rhf"
			},
			{
				"type": "unocc",
				"energy": 0.07019,
				"method": "rhf"
			},
			{
				"type": "unocc",
				"energy": 0.08216,
				"method": "rhf"
			},
			{
				"type": "unocc",
				"energy": 0.11385,
				"method": "rhf"
			},
			{
				"type": "unocc",
				"energy": 0.12002,
				"method": "rhf"
			}
		],
		"cosmo_sigma_profile": { 
			"-0.025": 0.0,
			"-0.024": 0.0,
			"-0.023": 0.0,
			"-0.022": 0.0,
			"-0.021": 0.0,
			"-0.02": 0.0,
			"-0.019": 0.0,
			"-0.018": 0.0,
			"-0.017": 0.0,
			"-0.016": 0.0,
			"-0.015": 0.0,
			"-0.014": 0.0,
			"-0.013": 0.0,
			"-0.012": 0.0,
			"-0.011": 0.0,
			"-0.01": 0.0,
			"-0.009": 0.0,
			"-0.008": 0.0,
			"-0.007": 0.0,
			"-0.006": 0.0864283343843,
			"-0.005": 4.17769320805,
			"-0.004": 8.78104941466,
			"-0.003": 26.679724403,
			"-0.002": 28.8917179689,
			"-0.001": 28.2956121475,
			"0.0": 25.4481772071,
			"0.001": 27.6017767831,
			"0.002": 6.44829340124,
			"0.003": 3.40907052192,
			"0.004": 3.13411935635,
			"0.005": 2.84187919485,
			"0.006": 2.72379752339,
			"0.007": 4.15241740088,
			"0.008": 3.10155559346,
			"0.009": 2.42974757529,
			"0.01": 1.81732201735,
			"0.011": 2.07647453056,
			"0.012": 0.905888124637,
			"0.013": 0.0162670914306,
			"0.014": 0.0,
			"0.015": 0.0,
			"0.016": 0.0,
			"0.017": 0.0,
			"0.018": 0.0,
			"0.019": 0.0,
			"0.02": 0.0,
			"0.021": 0.0,
			"0.022": 0.0,
			"0.023": 0.0,
			"0.024": 0.0,
			"0.025": 0.0
		}
	}
}
