{
	 "smiles": "OC(=O)C1(CC2=CC=CC=C2C1)NC(=O)OCC1C2=C(C=CC=C2)C2=C1C=CC=C2", 
	 "Tm": 473.15, 
	 "num_atms": 51, 
	 "gaussian": { 
		 "optdone": 1, 
		 "sigma_profile": "yes", 
		 "theory": "DFT", 
		 "functional": "B3LYP", 
		 "basiset": "6-31G**", 
		 "properties": { 
			 "R2extent": 10674.8831, 
			 "electric_dipole_moment_norm": 0.957994671175, 
			 "electric_quadrupole_moment_norm": 18.2127049356, 
			 "total_energy": -1321.01980069, 
			 "HOMO_LUMO_gap": 0.18394, 
			 "cosmo_polarized_energy": -21.31, 
			 "cosmo_cavitation_energy": 54.05, 
			 "cosmo_dispersion_energy": -33.64, 
			 "cosmo_repulsion_energy": 2.53, 
			 "cosmo_total_nonelectrostatic_energy": 22.93, 
			 "SMD_solvation_energy": 9.72 
		},
		"coords": [
			{
				"x": 1.8022476211,
				"y": 1.1158728226,
				"z": 3.9985814687,
				"element": "O" 
			},
			{
				"x": 2.1055658711,
				"y": 0.56115997,
				"z": 2.8047350485,
				"element": "C" 
			},
			{
				"x": 3.0940656904,
				"y": 0.8648855779,
				"z": 2.1745957331,
				"element": "O" 
			},
			{
				"x": 1.1324479398,
				"y": -0.5552441485,
				"z": 2.4070790822,
				"element": "C" 
			},
			{
				"x": 1.6224708489,
				"y": -1.9036786236,
				"z": 3.0339460336,
				"element": "C" 
			},
			{
				"x": 1.1711924223,
				"y": -2.9398279751,
				"z": 2.0275395433,
				"element": "C" 
			},
			{
				"x": 1.034738222,
				"y": -4.3165899559,
				"z": 2.1866992282,
				"element": "C" 
			},
			{
				"x": 0.6148784399,
				"y": -5.0833841594,
				"z": 1.0944548115,
				"element": "C" 
			},
			{
				"x": 0.3387002602,
				"y": -4.4743603732,
				"z": -0.133104146,
				"element": "C" 
			},
			{
				"x": 0.480326071,
				"y": -3.0913704164,
				"z": -0.2894909299,
				"element": "C" 
			},
			{
				"x": 0.9019157888,
				"y": -2.3278088176,
				"z": 0.7965052989,
				"element": "C" 
			},
			{
				"x": 1.149221167,
				"y": -0.8393704882,
				"z": 0.8763511528,
				"element": "C" 
			},
			{
				"x": -0.2195433887,
				"y": -0.3074351512,
				"z": 2.899946155,
				"element": "N" 
			},
			{
				"x": -1.0043955934,
				"y": 0.7781762534,
				"z": 2.6452394259,
				"element": "C" 
			},
			{
				"x": -2.1382538497,
				"y": 0.9164801366,
				"z": 3.0685827212,
				"element": "O" 
			},
			{
				"x": -0.3411432792,
				"y": 1.683716841,
				"z": 1.869603729,
				"element": "O" 
			},
			{
				"x": -1.055068601,
				"y": 2.8838135146,
				"z": 1.5304797238,
				"element": "C" 
			},
			{
				"x": -1.3150222628,
				"y": 2.9711341718,
				"z": 0.0218403443,
				"element": "C" 
			},
			{
				"x": -0.0736767045,
				"y": 3.0631862646,
				"z": -0.8542166658,
				"element": "C" 
			},
			{
				"x": -0.1173714871,
				"y": 2.0836191872,
				"z": -1.8666281857,
				"element": "C" 
			},
			{
				"x": 0.9080070042,
				"y": 1.9951058292,
				"z": -2.8105935779,
				"element": "C" 
			},
			{
				"x": 1.9775534036,
				"y": 2.8897906006,
				"z": -2.7302440161,
				"element": "C" 
			},
			{
				"x": 2.0210392798,
				"y": 3.8607757924,
				"z": -1.7242470796,
				"element": "C" 
			},
			{
				"x": 0.990776133,
				"y": 3.9539957421,
				"z": -0.7812811876,
				"element": "C" 
			},
			{
				"x": -1.342698091,
				"y": 1.2897548151,
				"z": -1.6975744144,
				"element": "C" 
			},
			{
				"x": -2.0496007439,
				"y": 1.7808401848,
				"z": -0.5800415111,
				"element": "C" 
			},
			{
				"x": -3.2436951667,
				"y": 1.1886812919,
				"z": -0.1832360932,
				"element": "C" 
			},
			{
				"x": -3.7377665918,
				"y": 0.104219432,
				"z": -0.9181094508,
				"element": "C" 
			},
			{
				"x": -3.0447046255,
				"y": -0.3760177414,
				"z": -2.0343742474,
				"element": "C" 
			},
			{
				"x": -1.8410315586,
				"y": 0.2109888483,
				"z": -2.4321275482,
				"element": "C" 
			},
			{
				"x": 2.5026559192,
				"y": 1.7673916631,
				"z": 4.1705220032,
				"element": "H" 
			},
			{
				"x": 1.2308729586,
				"y": -2.0429247022,
				"z": 4.0474313775,
				"element": "H" 
			},
			{
				"x": 2.7169292646,
				"y": -1.8937353332,
				"z": 3.1129147865,
				"element": "H" 
			},
			{
				"x": 1.2429014504,
				"y": -4.7911877516,
				"z": 3.1423719362,
				"element": "H" 
			},
			{
				"x": 0.4948739756,
				"y": -6.1574279578,
				"z": 1.2039635211,
				"element": "H" 
			},
			{
				"x": 0.0041784614,
				"y": -5.0797087906,
				"z": -0.9709022794,
				"element": "H" 
			},
			{
				"x": 0.2522505679,
				"y": -2.6189379739,
				"z": -1.2411047695,
				"element": "H" 
			},
			{
				"x": 0.408093947,
				"y": -0.2338671816,
				"z": 0.3522762367,
				"element": "H" 
			},
			{
				"x": 2.1340195666,
				"y": -0.5770404348,
				"z": 0.4738962198,
				"element": "H" 
			},
			{
				"x": -0.67150051,
				"y": -1.0105383274,
				"z": 3.4635839944,
				"element": "H" 
			},
			{
				"x": -1.9920847004,
				"y": 2.9012277804,
				"z": 2.0898589699,
				"element": "H" 
			},
			{
				"x": -0.4297226654,
				"y": 3.7215248408,
				"z": 1.8547082,
				"element": "H" 
			},
			{
				"x": -1.9201693949,
				"y": 3.8817290484,
				"z": -0.1160474299,
				"element": "H" 
			},
			{
				"x": 0.8799324699,
				"y": 1.2437036061,
				"z": -3.5950172944,
				"element": "H" 
			},
			{
				"x": 2.7842829974,
				"y": 2.8308291853,
				"z": -3.4552767008,
				"element": "H" 
			},
			{
				"x": 2.8611437636,
				"y": 4.5472387066,
				"z": -1.6739766825,
				"element": "H" 
			},
			{
				"x": 1.0319733174,
				"y": 4.7144348441,
				"z": -0.0052391973,
				"element": "H" 
			},
			{
				"x": -3.7764318332,
				"y": 1.5404016678,
				"z": 0.6951181589,
				"element": "H" 
			},
			{
				"x": -4.6664275482,
				"y": -0.3705914637,
				"z": -0.6154471316,
				"element": "H" 
			},
			{
				"x": -3.4445898209,
				"y": -1.2164493562,
				"z": -2.5947168328,
				"element": "H" 
			},
			{
				"x": -1.3058564059,
				"y": -0.1670814953,
				"z": -3.2991275321,
				"element": "H" 
			}
		],
		 "valence_orbital": [ 
			{
				"type": "occ",
				"energy": -0.24829,
				"method": "rhf"
			},
			{
				"type": "occ",
				"energy": -0.24431,
				"method": "rhf"
			},
			{
				"type": "occ",
				"energy": -0.2422,
				"method": "rhf"
			},
			{
				"type": "occ",
				"energy": -0.23556,
				"method": "rhf"
			},
			{
				"type": "occ",
				"energy": -0.21347,
				"method": "rhf"
			},
			{
				"type": "unocc",
				"energy": -0.02953,
				"method": "rhf"
			},
			{
				"type": "unocc",
				"energy": -0.01144,
				"method": "rhf"
			},
			{
				"type": "unocc",
				"energy": -0.00478,
				"method": "rhf"
			},
			{
				"type": "unocc",
				"energy": -0.00045,
				"method": "rhf"
			},
			{
				"type": "unocc",
				"energy": 0.0091,
				"method": "rhf"
			}
		],
		"cosmo_sigma_profile": { 
			"-0.025": 0.0,
			"-0.024": 0.0,
			"-0.023": 0.0,
			"-0.022": 0.0,
			"-0.021": 0.0,
			"-0.02": 0.0,
			"-0.019": 0.114139714667,
			"-0.018": 0.867414602816,
			"-0.017": 1.18014419834,
			"-0.016": 0.400315179182,
			"-0.015": 1.07266645091,
			"-0.014": 1.59239633944,
			"-0.013": 1.78065394264,
			"-0.012": 1.78247094982,
			"-0.011": 1.43102573291,
			"-0.01": 1.47232190536,
			"-0.009": 1.58256744731,
			"-0.008": 2.10111330946,
			"-0.007": 4.40803826919,
			"-0.006": 23.9463355049,
			"-0.005": 36.2618366331,
			"-0.004": 36.7317435732,
			"-0.003": 38.3569283372,
			"-0.002": 26.6633471436,
			"-0.001": 26.5126909449,
			"0.0": 26.3635815874,
			"0.001": 27.2286509963,
			"0.002": 27.646349985,
			"0.003": 27.9637169381,
			"0.004": 28.4765596619,
			"0.005": 30.5729140427,
			"0.006": 21.9549739635,
			"0.007": 5.37251361464,
			"0.008": 3.11287870024,
			"0.009": 4.15676248848,
			"0.01": 4.27205713847,
			"0.011": 5.6599926523,
			"0.012": 4.89501133169,
			"0.013": 3.74540751278,
			"0.014": 0.537188705466,
			"0.015": 0.0,
			"0.016": 0.0,
			"0.017": 0.0,
			"0.018": 0.0,
			"0.019": 0.0,
			"0.02": 0.0,
			"0.021": 0.0,
			"0.022": 0.0,
			"0.023": 0.0,
			"0.024": 0.0,
			"0.025": 0.0
		}
	}
}
