{
	 "smiles": "FC1=C2CN=C3CCCN3C2=CC=C1", 
	 "Tm": 345.15, 
	 "num_atms": 25, 
	 "gaussian": { 
		 "optdone": 1, 
		 "sigma_profile": "yes", 
		 "theory": "DFT", 
		 "functional": "B3LYP", 
		 "basiset": "6-31G**", 
		 "properties": { 
			 "R2extent": 2711.4791, 
			 "electric_dipole_moment_norm": 3.83751612505, 
			 "electric_quadrupole_moment_norm": 5.81675823462, 
			 "total_energy": -635.144020328, 
			 "HOMO_LUMO_gap": 0.19031, 
			 "cosmo_polarized_energy": -8.68, 
			 "cosmo_cavitation_energy": 27.32, 
			 "cosmo_dispersion_energy": -20.69, 
			 "cosmo_repulsion_energy": 1.58, 
			 "cosmo_total_nonelectrostatic_energy": 8.22, 
			 "SMD_solvation_energy": 0.55 
		},
		"coords": [
			{
				"x": -2.5907930275,
				"y": -1.9384396327,
				"z": 0.8162282788,
				"element": "F" 
			},
			{
				"x": -1.2663202181,
				"y": -1.6732717034,
				"z": 0.9206970149,
				"element": "C" 
			},
			{
				"x": -0.7761385301,
				"y": -0.5562212161,
				"z": 0.259673867,
				"element": "C" 
			},
			{
				"x": -1.6663340477,
				"y": 0.3688507869,
				"z": -0.5487408165,
				"element": "C" 
			},
			{
				"x": -0.954081627,
				"y": 1.2147110456,
				"z": -1.5104994049,
				"element": "N" 
			},
			{
				"x": 0.2934675473,
				"y": 1.3886547034,
				"z": -1.3307434476,
				"element": "C" 
			},
			{
				"x": 1.1977205695,
				"y": 2.2384027142,
				"z": -2.2003444849,
				"element": "C" 
			},
			{
				"x": 2.4615262495,
				"y": 2.4225683232,
				"z": -1.3405218782,
				"element": "C" 
			},
			{
				"x": 2.5012434181,
				"y": 1.1511202313,
				"z": -0.4711792889,
				"element": "C" 
			},
			{
				"x": 1.0876246497,
				"y": 0.8139551025,
				"z": -0.3267317074,
				"element": "N" 
			},
			{
				"x": 0.6032663311,
				"y": -0.293220971,
				"z": 0.3740097821,
				"element": "C" 
			},
			{
				"x": 1.4329492564,
				"y": -1.1291733084,
				"z": 1.1341922806,
				"element": "C" 
			},
			{
				"x": 0.8841081389,
				"y": -2.232280293,
				"z": 1.7910401859,
				"element": "C" 
			},
			{
				"x": -0.4752878687,
				"y": -2.5213261277,
				"z": 1.6911621812,
				"element": "C" 
			},
			{
				"x": -2.4187405123,
				"y": -0.2179124193,
				"z": -1.0873600126,
				"element": "H" 
			},
			{
				"x": -2.2388858729,
				"y": 1.0246922436,
				"z": 0.1267757348,
				"element": "H" 
			},
			{
				"x": 0.7104037919,
				"y": 3.1714698357,
				"z": -2.4886618466,
				"element": "H" 
			},
			{
				"x": 1.4209865333,
				"y": 1.6849664024,
				"z": -3.1210193827,
				"element": "H" 
			},
			{
				"x": 3.3735085764,
				"y": 2.5450246868,
				"z": -1.9290733214,
				"element": "H" 
			},
			{
				"x": 2.3549400319,
				"y": 3.3023401654,
				"z": -0.6979427231,
				"element": "H" 
			},
			{
				"x": 2.9642442788,
				"y": 1.3234672138,
				"z": 0.5060316976,
				"element": "H" 
			},
			{
				"x": 3.0519534176,
				"y": 0.3357249414,
				"z": -0.9654710084,
				"element": "H" 
			},
			{
				"x": 2.4945524783,
				"y": -0.9239056933,
				"z": 1.2118705779,
				"element": "H" 
			},
			{
				"x": 1.5274563508,
				"y": -2.8742477689,
				"z": 2.3850770715,
				"element": "H" 
			},
			{
				"x": -0.9265699152,
				"y": -3.3694492624,
				"z": 2.1931306511,
				"element": "H" 
			}
		],
		 "valence_orbital": [ 
			{
				"type": "occ",
				"energy": -0.32015,
				"method": "rhf"
			},
			{
				"type": "occ",
				"energy": -0.27136,
				"method": "rhf"
			},
			{
				"type": "occ",
				"energy": -0.24782,
				"method": "rhf"
			},
			{
				"type": "occ",
				"energy": -0.23573,
				"method": "rhf"
			},
			{
				"type": "occ",
				"energy": -0.19945,
				"method": "rhf"
			},
			{
				"type": "unocc",
				"energy": -0.00914,
				"method": "rhf"
			},
			{
				"type": "unocc",
				"energy": 0.00334,
				"method": "rhf"
			},
			{
				"type": "unocc",
				"energy": 0.04806,
				"method": "rhf"
			},
			{
				"type": "unocc",
				"energy": 0.08194,
				"method": "rhf"
			},
			{
				"type": "unocc",
				"energy": 0.0911,
				"method": "rhf"
			}
		],
		"cosmo_sigma_profile": { 
			"-0.025": 0.0,
			"-0.024": 0.0,
			"-0.023": 0.0,
			"-0.022": 0.0,
			"-0.021": 0.0,
			"-0.02": 0.0,
			"-0.019": 0.0,
			"-0.018": 0.0,
			"-0.017": 0.0,
			"-0.016": 0.0,
			"-0.015": 0.0,
			"-0.014": 0.0,
			"-0.013": 0.0,
			"-0.012": 0.0,
			"-0.011": 0.0,
			"-0.01": 0.0,
			"-0.009": 0.0,
			"-0.008": 0.0,
			"-0.007": 1.06762733408,
			"-0.006": 6.80461873967,
			"-0.005": 16.3293826256,
			"-0.004": 28.3691056356,
			"-0.003": 26.2320536544,
			"-0.002": 20.2119771684,
			"-0.001": 17.8270807604,
			"0.0": 12.3018031889,
			"0.001": 14.8432904647,
			"0.002": 14.0282601335,
			"0.003": 14.0371625314,
			"0.004": 17.2805731994,
			"0.005": 12.9698798869,
			"0.006": 2.50386054557,
			"0.007": 1.14780921263,
			"0.008": 0.941861840753,
			"0.009": 1.1001044824,
			"0.01": 1.49114680112,
			"0.011": 1.30370612068,
			"0.012": 0.791293168179,
			"0.013": 0.612719949919,
			"0.014": 1.17695955197,
			"0.015": 0.989218553428,
			"0.016": 1.09217798096,
			"0.017": 0.612952570471,
			"0.018": 0.738186017572,
			"0.019": 0.0333060265244,
			"0.02": 0.0,
			"0.021": 0.0,
			"0.022": 0.0,
			"0.023": 0.0,
			"0.024": 0.0,
			"0.025": 0.0
		}
	}
}
