{
	 "smiles": "OC(=O)C1=CC2=CC=CC=C2O1", 
	 "Tm": 466.15, 
	 "num_atms": 18, 
	 "gaussian": { 
		 "optdone": 1, 
		 "sigma_profile": "yes", 
		 "theory": "DFT", 
		 "functional": "B3LYP", 
		 "basiset": "6-31G**", 
		 "properties": { 
			 "R2extent": 4280.1909, 
			 "electric_dipole_moment_norm": 5.00749847329, 
			 "electric_quadrupole_moment_norm": 24.9854300229, 
			 "total_energy": -572.244228318, 
			 "HOMO_LUMO_gap": 0.17733, 
			 "cosmo_polarized_energy": -11.65, 
			 "cosmo_cavitation_energy": 23.16, 
			 "cosmo_dispersion_energy": -17.43, 
			 "cosmo_repulsion_energy": 1.38, 
			 "cosmo_total_nonelectrostatic_energy": 7.1, 
			 "SMD_solvation_energy": 5.52 
		},
		"coords": [
			{
				"x": 2.898250699,
				"y": -2.3392007455,
				"z": 3.9529033051,
				"element": "O" 
			},
			{
				"x": 1.5929761261,
				"y": -2.1687177599,
				"z": 3.6375111375,
				"element": "C" 
			},
			{
				"x": 0.7345528363,
				"y": -2.0814454787,
				"z": 4.4842047522,
				"element": "O" 
			},
			{
				"x": 1.2964646298,
				"y": -2.0950321149,
				"z": 2.1935197869,
				"element": "C" 
			},
			{
				"x": 0.1186546279,
				"y": -1.9305300753,
				"z": 1.5332955903,
				"element": "C" 
			},
			{
				"x": 0.4369539668,
				"y": -1.9352281729,
				"z": 0.1312126609,
				"element": "C" 
			},
			{
				"x": -0.2938914106,
				"y": -1.8134542014,
				"z": -1.0629238449,
				"element": "C" 
			},
			{
				"x": 0.3972608301,
				"y": -1.8698302599,
				"z": -2.2673473464,
				"element": "C" 
			},
			{
				"x": 1.7957407621,
				"y": -2.0443888363,
				"z": -2.3035451656,
				"element": "C" 
			},
			{
				"x": 2.5446576596,
				"y": -2.1678184955,
				"z": -1.1352062055,
				"element": "C" 
			},
			{
				"x": 1.8341754968,
				"y": -2.1087312649,
				"z": 0.0579897915,
				"element": "C" 
			},
			{
				"x": 2.3640244659,
				"y": -2.2069244851,
				"z": 1.3176819915,
				"element": "O" 
			},
			{
				"x": 3.4269110743,
				"y": -2.3850820987,
				"z": 3.1402372698,
				"element": "H" 
			},
			{
				"x": -0.8471636823,
				"y": -1.8211474914,
				"z": 2.0039888541,
				"element": "H" 
			},
			{
				"x": -1.3708587869,
				"y": -1.6788300205,
				"z": -1.0428491673,
				"element": "H" 
			},
			{
				"x": -0.1470127907,
				"y": -1.7779796151,
				"z": -3.2021706252,
				"element": "H" 
			},
			{
				"x": 2.3012794885,
				"y": -2.0836060513,
				"z": -3.263473979,
				"element": "H" 
			},
			{
				"x": 3.6205240074,
				"y": -2.3024528329,
				"z": -1.1489288058,
				"element": "H" 
			}
		],
		 "valence_orbital": [ 
			{
				"type": "occ",
				"energy": -0.32326,
				"method": "rhf"
			},
			{
				"type": "occ",
				"energy": -0.30905,
				"method": "rhf"
			},
			{
				"type": "occ",
				"energy": -0.2805,
				"method": "rhf"
			},
			{
				"type": "occ",
				"energy": -0.25843,
				"method": "rhf"
			},
			{
				"type": "occ",
				"energy": -0.24248,
				"method": "rhf"
			},
			{
				"type": "unocc",
				"energy": -0.06515,
				"method": "rhf"
			},
			{
				"type": "unocc",
				"energy": -0.00912,
				"method": "rhf"
			},
			{
				"type": "unocc",
				"energy": 0.00947,
				"method": "rhf"
			},
			{
				"type": "unocc",
				"energy": 0.0751,
				"method": "rhf"
			},
			{
				"type": "unocc",
				"energy": 0.08866,
				"method": "rhf"
			}
		],
		"cosmo_sigma_profile": { 
			"-0.025": 0.0,
			"-0.024": 0.0,
			"-0.023": 0.0,
			"-0.022": 0.0,
			"-0.021": 0.0,
			"-0.02": 0.0,
			"-0.019": 0.0,
			"-0.018": 0.0,
			"-0.017": 0.218458429222,
			"-0.016": 0.658822997324,
			"-0.015": 0.440794604454,
			"-0.014": 0.678808016031,
			"-0.013": 0.871059155358,
			"-0.012": 0.654808317123,
			"-0.011": 1.0652755257,
			"-0.01": 0.900641716825,
			"-0.009": 1.9424659299,
			"-0.008": 3.56490547747,
			"-0.007": 6.43359020749,
			"-0.006": 12.1179801134,
			"-0.005": 13.0451312336,
			"-0.004": 11.9211547605,
			"-0.003": 9.59880569679,
			"-0.002": 10.1645517984,
			"-0.001": 11.9351578725,
			"0.0": 14.150225794,
			"0.001": 18.0484358254,
			"0.002": 15.0420415685,
			"0.003": 11.62094804,
			"0.004": 10.8092171961,
			"0.005": 3.64037247614,
			"0.006": 2.11228390875,
			"0.007": 3.17483449003,
			"0.008": 2.97812517377,
			"0.009": 3.59170718652,
			"0.01": 5.03047966701,
			"0.011": 5.32284967282,
			"0.012": 4.26978757605,
			"0.013": 0.854769749829,
			"0.014": 0.0,
			"0.015": 0.0,
			"0.016": 0.0,
			"0.017": 0.0,
			"0.018": 0.0,
			"0.019": 0.0,
			"0.02": 0.0,
			"0.021": 0.0,
			"0.022": 0.0,
			"0.023": 0.0,
			"0.024": 0.0,
			"0.025": 0.0
		}
	}
}
