{
	 "smiles": "CC(=O)C1CC(CC(O)=O)C1(C)C", 
	 "Tm": 379.15, 
	 "num_atms": 29, 
	 "gaussian": { 
		 "optdone": 1, 
		 "sigma_profile": "yes", 
		 "theory": "DFT", 
		 "functional": "B3LYP", 
		 "basiset": "6-31G**", 
		 "properties": { 
			 "R2extent": 3223.6188, 
			 "electric_dipole_moment_norm": 2.4717361712, 
			 "electric_quadrupole_moment_norm": 14.5264883472, 
			 "total_energy": -616.384350417, 
			 "HOMO_LUMO_gap": 0.22506, 
			 "cosmo_polarized_energy": -13.9, 
			 "cosmo_cavitation_energy": 31.28, 
			 "cosmo_dispersion_energy": -21.16, 
			 "cosmo_repulsion_energy": 1.69, 
			 "cosmo_total_nonelectrostatic_energy": 11.81, 
			 "SMD_solvation_energy": 6.99 
		},
		"coords": [
			{
				"x": -1.0761664583,
				"y": 2.84449854,
				"z": 2.3074216147,
				"element": "C" 
			},
			{
				"x": -1.3266916928,
				"y": 1.5303327302,
				"z": 1.5889770507,
				"element": "C" 
			},
			{
				"x": -2.3583125575,
				"y": 0.9018062357,
				"z": 1.7553594077,
				"element": "O" 
			},
			{
				"x": -0.2249300949,
				"y": 1.0237217242,
				"z": 0.6786360725,
				"element": "C" 
			},
			{
				"x": -0.5928023714,
				"y": -0.0350984622,
				"z": -0.3836175896,
				"element": "C" 
			},
			{
				"x": 0.726270404,
				"y": -0.7802439081,
				"z": -0.0735401265,
				"element": "C" 
			},
			{
				"x": 0.7409472545,
				"y": -2.3032875859,
				"z": -0.0921601887,
				"element": "C" 
			},
			{
				"x": 0.6502982973,
				"y": -2.8630347237,
				"z": -1.4967189075,
				"element": "C" 
			},
			{
				"x": 0.4963261646,
				"y": -4.2103084239,
				"z": -1.4854542009,
				"element": "O" 
			},
			{
				"x": 0.7147883672,
				"y": -2.225977907,
				"z": -2.5256698345,
				"element": "O" 
			},
			{
				"x": 0.826452704,
				"y": -0.0067565726,
				"z": 1.289530925,
				"element": "C" 
			},
			{
				"x": 2.2016036149,
				"y": 0.5739961297,
				"z": 1.617103162,
				"element": "C" 
			},
			{
				"x": 0.2731799882,
				"y": -0.788893553,
				"z": 2.4870862209,
				"element": "C" 
			},
			{
				"x": -1.8712275475,
				"y": 3.0348739393,
				"z": 3.0298763883,
				"element": "H" 
			},
			{
				"x": -0.1038383021,
				"y": 2.8323605845,
				"z": 2.8137913594,
				"element": "H" 
			},
			{
				"x": -1.0414604626,
				"y": 3.664773191,
				"z": 1.5799334299,
				"element": "H" 
			},
			{
				"x": 0.3199163276,
				"y": 1.8710329188,
				"z": 0.2468346706,
				"element": "H" 
			},
			{
				"x": -1.4785495486,
				"y": -0.5917926172,
				"z": -0.0631919183,
				"element": "H" 
			},
			{
				"x": -0.740486842,
				"y": 0.3108620442,
				"z": -1.4086944279,
				"element": "H" 
			},
			{
				"x": 1.5128889183,
				"y": -0.4193275783,
				"z": -0.7450158825,
				"element": "H" 
			},
			{
				"x": -0.0799432755,
				"y": -2.7304037125,
				"z": 0.4944335458,
				"element": "H" 
			},
			{
				"x": 1.6634798316,
				"y": -2.7017593742,
				"z": 0.3527437752,
				"element": "H" 
			},
			{
				"x": 0.4592593534,
				"y": -4.484389069,
				"z": -2.4173779125,
				"element": "H" 
			},
			{
				"x": 2.6064085189,
				"y": 1.1439560265,
				"z": 0.7739857695,
				"element": "H" 
			},
			{
				"x": 2.9156210241,
				"y": -0.2241467544,
				"z": 1.8547644603,
				"element": "H" 
			},
			{
				"x": 2.1584070335,
				"y": 1.2408789922,
				"z": 2.4868261839,
				"element": "H" 
			},
			{
				"x": 0.2307283876,
				"y": -0.1537675525,
				"z": 3.3791609348,
				"element": "H" 
			},
			{
				"x": 0.9226163733,
				"y": -1.6390013646,
				"z": 2.7236720236,
				"element": "H" 
			},
			{
				"x": -0.7376834101,
				"y": -1.165103897,
				"z": 2.3102039939,
				"element": "H" 
			}
		],
		 "valence_orbital": [ 
			{
				"type": "occ",
				"energy": -0.31617,
				"method": "rhf"
			},
			{
				"type": "occ",
				"energy": -0.3019,
				"method": "rhf"
			},
			{
				"type": "occ",
				"energy": -0.29444,
				"method": "rhf"
			},
			{
				"type": "occ",
				"energy": -0.27486,
				"method": "rhf"
			},
			{
				"type": "occ",
				"energy": -0.24021,
				"method": "rhf"
			},
			{
				"type": "unocc",
				"energy": -0.01515,
				"method": "rhf"
			},
			{
				"type": "unocc",
				"energy": 0.00956,
				"method": "rhf"
			},
			{
				"type": "unocc",
				"energy": 0.06546,
				"method": "rhf"
			},
			{
				"type": "unocc",
				"energy": 0.08019,
				"method": "rhf"
			},
			{
				"type": "unocc",
				"energy": 0.10151,
				"method": "rhf"
			}
		],
		"cosmo_sigma_profile": { 
			"-0.025": 0.0,
			"-0.024": 0.0,
			"-0.023": 0.0,
			"-0.022": 0.0,
			"-0.021": 0.0,
			"-0.02": 0.0,
			"-0.019": 0.0,
			"-0.018": 0.406711575983,
			"-0.017": 0.816560925494,
			"-0.016": 1.14764524942,
			"-0.015": 0.944565527023,
			"-0.014": 0.341354466742,
			"-0.013": 0.677616589149,
			"-0.012": 0.887780984156,
			"-0.011": 0.784581790242,
			"-0.01": 0.490244396818,
			"-0.009": 0.653115479498,
			"-0.008": 0.288138696014,
			"-0.007": 1.27418271417,
			"-0.006": 5.84352224941,
			"-0.005": 13.2625062836,
			"-0.004": 22.9233393306,
			"-0.003": 33.799027457,
			"-0.002": 29.4418464389,
			"-0.001": 25.7547185009,
			"0.0": 21.7599797401,
			"0.001": 17.2848169815,
			"0.002": 7.79233588925,
			"0.003": 5.53924432502,
			"0.004": 5.35573801988,
			"0.005": 4.32391169879,
			"0.006": 3.72635145443,
			"0.007": 4.76482284405,
			"0.008": 5.66983868139,
			"0.009": 4.64645379394,
			"0.01": 4.55923120582,
			"0.011": 6.04687601699,
			"0.012": 7.94398507429,
			"0.013": 2.94873954094,
			"0.014": 0.445450234459,
			"0.015": 0.0,
			"0.016": 0.0,
			"0.017": 0.0,
			"0.018": 0.0,
			"0.019": 0.0,
			"0.02": 0.0,
			"0.021": 0.0,
			"0.022": 0.0,
			"0.023": 0.0,
			"0.024": 0.0,
			"0.025": 0.0
		}
	}
}
