{
	 "smiles": "NC1=CC2=NC3=C(C=CC(N)=C3)C=C2C=C1", 
	 "Tm": 558.15, 
	 "num_atms": 27, 
	 "gaussian": { 
		 "optdone": 1, 
		 "sigma_profile": "yes", 
		 "theory": "DFT", 
		 "functional": "B3LYP", 
		 "basiset": "6-31G**", 
		 "properties": { 
			 "R2extent": 4358.3201, 
			 "electric_dipole_moment_norm": 0.785649915675, 
			 "electric_quadrupole_moment_norm": 30.3326372535, 
			 "total_energy": -666.291471017, 
			 "HOMO_LUMO_gap": 0.12948, 
			 "cosmo_polarized_energy": -19.01, 
			 "cosmo_cavitation_energy": 30.81, 
			 "cosmo_dispersion_energy": -23.24, 
			 "cosmo_repulsion_energy": 1.77, 
			 "cosmo_total_nonelectrostatic_energy": 9.35, 
			 "SMD_solvation_energy": 3.1 
		},
		"coords": [
			{
				"x": 4.2591958026,
				"y": -2.8536212193,
				"z": 1.2827076987,
				"element": "N" 
			},
			{
				"x": 3.3876398878,
				"y": -1.8756604593,
				"z": 0.8116818106,
				"element": "C" 
			},
			{
				"x": 2.0179056136,
				"y": -2.0527269454,
				"z": 0.8139334707,
				"element": "C" 
			},
			{
				"x": 1.1369322969,
				"y": -1.0200527612,
				"z": 0.386684442,
				"element": "C" 
			},
			{
				"x": -0.1887962632,
				"y": -1.252447118,
				"z": 0.4109436391,
				"element": "N" 
			},
			{
				"x": -1.0222894618,
				"y": -0.2781758941,
				"z": 0.0007858955,
				"element": "C" 
			},
			{
				"x": -0.5531984589,
				"y": 1.0094034849,
				"z": -0.4634166725,
				"element": "C" 
			},
			{
				"x": -1.5140078502,
				"y": 1.9813750392,
				"z": -0.874669962,
				"element": "C" 
			},
			{
				"x": -2.8528792118,
				"y": 1.7106376746,
				"z": -0.8361614399,
				"element": "C" 
			},
			{
				"x": -3.3299740824,
				"y": 0.4377520148,
				"z": -0.3739499944,
				"element": "C" 
			},
			{
				"x": -4.7001056272,
				"y": 0.1934801776,
				"z": -0.4049211952,
				"element": "N" 
			},
			{
				"x": -2.4239378597,
				"y": -0.5219292851,
				"z": 0.0330349413,
				"element": "C" 
			},
			{
				"x": 0.8248699799,
				"y": 1.232503595,
				"z": -0.4836427429,
				"element": "C" 
			},
			{
				"x": 1.7040358475,
				"y": 0.232557926,
				"z": -0.0636066646,
				"element": "C" 
			},
			{
				"x": 3.1231833652,
				"y": 0.3841847545,
				"z": -0.0568720117,
				"element": "C" 
			},
			{
				"x": 3.9390926703,
				"y": -0.6271096164,
				"z": 0.3661225601,
				"element": "C" 
			},
			{
				"x": 5.1906412444,
				"y": -2.8360969554,
				"z": 0.8915695894,
				"element": "H" 
			},
			{
				"x": 3.8782109854,
				"y": -3.7882896688,
				"z": 1.3308204323,
				"element": "H" 
			},
			{
				"x": 1.5704518784,
				"y": -2.9855983751,
				"z": 1.1439328979,
				"element": "H" 
			},
			{
				"x": -1.1622949041,
				"y": 2.9492459156,
				"z": -1.2238596607,
				"element": "H" 
			},
			{
				"x": -3.5749599112,
				"y": 2.4545997099,
				"z": -1.1634119348,
				"element": "H" 
			},
			{
				"x": -5.0162016892,
				"y": -0.5807538116,
				"z": 0.1622786935,
				"element": "H" 
			},
			{
				"x": -5.2926809191,
				"y": 1.0066602816,
				"z": -0.3128369058,
				"element": "H" 
			},
			{
				"x": -2.753402959,
				"y": -1.4936885519,
				"z": 0.388705497,
				"element": "H" 
			},
			{
				"x": 1.2150304493,
				"y": 2.1889481313,
				"z": -0.8279329447,
				"element": "H" 
			},
			{
				"x": 3.5501944859,
				"y": 1.3253431831,
				"z": -0.3949419519,
				"element": "H" 
			},
			{
				"x": 5.0182446906,
				"y": -0.4957412264,
				"z": 0.3782225131,
				"element": "H" 
			}
		],
		 "valence_orbital": [ 
			{
				"type": "occ",
				"energy": -0.24687,
				"method": "rhf"
			},
			{
				"type": "occ",
				"energy": -0.24422,
				"method": "rhf"
			},
			{
				"type": "occ",
				"energy": -0.23163,
				"method": "rhf"
			},
			{
				"type": "occ",
				"energy": -0.19534,
				"method": "rhf"
			},
			{
				"type": "occ",
				"energy": -0.18315,
				"method": "rhf"
			},
			{
				"type": "unocc",
				"energy": -0.05367,
				"method": "rhf"
			},
			{
				"type": "unocc",
				"energy": 0.00207,
				"method": "rhf"
			},
			{
				"type": "unocc",
				"energy": 0.02126,
				"method": "rhf"
			},
			{
				"type": "unocc",
				"energy": 0.04645,
				"method": "rhf"
			},
			{
				"type": "unocc",
				"energy": 0.07237,
				"method": "rhf"
			}
		],
		"cosmo_sigma_profile": { 
			"-0.025": 0.0,
			"-0.024": 0.0,
			"-0.023": 0.0,
			"-0.022": 0.0,
			"-0.021": 0.0,
			"-0.02": 0.0,
			"-0.019": 0.0,
			"-0.018": 0.0,
			"-0.017": 0.0,
			"-0.016": 0.0,
			"-0.015": 0.0,
			"-0.014": 0.0,
			"-0.013": 2.04053570908,
			"-0.012": 5.5651364136,
			"-0.011": 5.96775795527,
			"-0.01": 5.59207586146,
			"-0.009": 5.96946833748,
			"-0.008": 6.01715255284,
			"-0.007": 7.8265770164,
			"-0.006": 16.6842622566,
			"-0.005": 12.5490216404,
			"-0.004": 12.9761123917,
			"-0.003": 9.57288946147,
			"-0.002": 9.64369164886,
			"-0.001": 9.79447869793,
			"0.0": 9.9734746148,
			"0.001": 8.69668596848,
			"0.002": 12.7491786178,
			"0.003": 20.3597384441,
			"0.004": 24.7373814241,
			"0.005": 22.102634712,
			"0.006": 11.7327303611,
			"0.007": 4.37917098784,
			"0.008": 3.34557388616,
			"0.009": 3.02567164376,
			"0.01": 3.71265331591,
			"0.011": 2.87027942363,
			"0.012": 1.96801224246,
			"0.013": 1.79891622857,
			"0.014": 1.16907661708,
			"0.015": 1.1049656378,
			"0.016": 0.900372813972,
			"0.017": 0.895062971745,
			"0.018": 0.0552730975731,
			"0.019": 0.0,
			"0.02": 0.0,
			"0.021": 0.0,
			"0.022": 0.0,
			"0.023": 0.0,
			"0.024": 0.0,
			"0.025": 0.0
		}
	}
}
