{
	 "smiles": "CCOC(=O)C1=CC=C(NC=C2C3CCC(C)(C2=O)C3(C)C)C=C1", 
	 "Tm": 378.15, 
	 "num_atms": 49, 
	 "gaussian": { 
		 "optdone": 1, 
		 "sigma_profile": "yes", 
		 "theory": "DFT", 
		 "functional": "B3LYP", 
		 "basiset": "6-31G**", 
		 "properties": { 
			 "R2extent": 11635.0069, 
			 "electric_dipole_moment_norm": 4.54882243004, 
			 "electric_quadrupole_moment_norm": 24.5120291871, 
			 "total_energy": -1057.62990964, 
			 "HOMO_LUMO_gap": 0.15294, 
			 "cosmo_polarized_energy": -18.9, 
			 "cosmo_cavitation_energy": 48.81, 
			 "cosmo_dispersion_energy": -33.66, 
			 "cosmo_repulsion_energy": 2.55, 
			 "cosmo_total_nonelectrostatic_energy": 17.7, 
			 "SMD_solvation_energy": 9.55 
		},
		"coords": [
			{
				"x": 2.9884780815,
				"y": -5.8461875809,
				"z": -2.257375712,
				"element": "C" 
			},
			{
				"x": 2.149661063,
				"y": -5.1016802245,
				"z": -3.2859759286,
				"element": "C" 
			},
			{
				"x": 1.8243933816,
				"y": -3.7680564738,
				"z": -2.8350597524,
				"element": "O" 
			},
			{
				"x": 2.7504310936,
				"y": -2.8069698344,
				"z": -3.0758974361,
				"element": "C" 
			},
			{
				"x": 3.8028215407,
				"y": -3.0215384411,
				"z": -3.6513228955,
				"element": "O" 
			},
			{
				"x": 2.3309808366,
				"y": -1.477485559,
				"z": -2.5671217697,
				"element": "C" 
			},
			{
				"x": 3.2032660242,
				"y": -0.3947343778,
				"z": -2.7501812279,
				"element": "C" 
			},
			{
				"x": 2.8610390068,
				"y": 0.8678351591,
				"z": -2.2918270977,
				"element": "C" 
			},
			{
				"x": 1.6351204348,
				"y": 1.080184757,
				"z": -1.6348608999,
				"element": "C" 
			},
			{
				"x": 1.3126663354,
				"y": 2.3963789002,
				"z": -1.2719175215,
				"element": "N" 
			},
			{
				"x": 0.367440543,
				"y": 2.9209474024,
				"z": -0.4170248718,
				"element": "C" 
			},
			{
				"x": -0.2149359444,
				"y": 2.4291773325,
				"z": 0.7050335901,
				"element": "C" 
			},
			{
				"x": -1.2749872121,
				"y": 3.1780035743,
				"z": 1.5061424008,
				"element": "C" 
			},
			{
				"x": -0.5496458918,
				"y": 3.7915801499,
				"z": 2.7382213789,
				"element": "C" 
			},
			{
				"x": -0.1902103946,
				"y": 2.5293899274,
				"z": 3.5795283307,
				"element": "C" 
			},
			{
				"x": -0.8063035216,
				"y": 1.3389272838,
				"z": 2.7671671841,
				"element": "C" 
			},
			{
				"x": -0.9296707931,
				"y": 0.0351260871,
				"z": 3.5351829739,
				"element": "C" 
			},
			{
				"x": 0.1164299282,
				"y": 1.2471712451,
				"z": 1.5305506007,
				"element": "C" 
			},
			{
				"x": 0.9906655013,
				"y": 0.4100019989,
				"z": 1.3573760077,
				"element": "O" 
			},
			{
				"x": -2.0873129051,
				"y": 1.9999287481,
				"z": 2.1435476527,
				"element": "C" 
			},
			{
				"x": -3.1402083737,
				"y": 2.4471002842,
				"z": 3.1719053087,
				"element": "C" 
			},
			{
				"x": -2.8032209118,
				"y": 1.1163010108,
				"z": 1.1072701357,
				"element": "C" 
			},
			{
				"x": 0.756187121,
				"y": 0.0010689278,
				"z": -1.4575066248,
				"element": "C" 
			},
			{
				"x": 1.1058938496,
				"y": -1.2610826774,
				"z": -1.9198082507,
				"element": "C" 
			},
			{
				"x": 2.4823032706,
				"y": -5.8735473216,
				"z": -1.2878778727,
				"element": "H" 
			},
			{
				"x": 3.1552912721,
				"y": -6.8768926631,
				"z": -2.5883633764,
				"element": "H" 
			},
			{
				"x": 3.9607625369,
				"y": -5.362949434,
				"z": -2.1355480265,
				"element": "H" 
			},
			{
				"x": 1.1796842376,
				"y": -5.5830673981,
				"z": -3.4346232809,
				"element": "H" 
			},
			{
				"x": 2.6721965851,
				"y": -5.0335489091,
				"z": -4.2431519207,
				"element": "H" 
			},
			{
				"x": 4.1487415707,
				"y": -0.5677401566,
				"z": -3.2526720896,
				"element": "H" 
			},
			{
				"x": 3.546674178,
				"y": 1.7008851962,
				"z": -2.4274701845,
				"element": "H" 
			},
			{
				"x": 1.7837668147,
				"y": 3.0916793948,
				"z": -1.832732053,
				"element": "H" 
			},
			{
				"x": 0.079308677,
				"y": 3.9290270058,
				"z": -0.7167670453,
				"element": "H" 
			},
			{
				"x": -1.8637174726,
				"y": 3.8938550579,
				"z": 0.9243643633,
				"element": "H" 
			},
			{
				"x": -1.203963795,
				"y": 4.4736330762,
				"z": 3.2899178719,
				"element": "H" 
			},
			{
				"x": 0.3331583269,
				"y": 4.3615325993,
				"z": 2.4362337304,
				"element": "H" 
			},
			{
				"x": 0.8878983722,
				"y": 2.3982532641,
				"z": 3.7117838965,
				"element": "H" 
			},
			{
				"x": -0.6314514881,
				"y": 2.5671203925,
				"z": 4.5806051695,
				"element": "H" 
			},
			{
				"x": -1.41657254,
				"y": -0.7399651056,
				"z": 2.9345901781,
				"element": "H" 
			},
			{
				"x": -1.5053162051,
				"y": 0.1671423675,
				"z": 4.4573502009,
				"element": "H" 
			},
			{
				"x": 0.0639305525,
				"y": -0.3399451185,
				"z": 3.7979407115,
				"element": "H" 
			},
			{
				"x": -3.9212963252,
				"y": 3.0382565322,
				"z": 2.679586594,
				"element": "H" 
			},
			{
				"x": -3.62803916,
				"y": 1.5752575241,
				"z": 3.6211781056,
				"element": "H" 
			},
			{
				"x": -2.7351944567,
				"y": 3.0504360938,
				"z": 3.9862733193,
				"element": "H" 
			},
			{
				"x": -2.1376934362,
				"y": 0.7540846911,
				"z": 0.3198735541,
				"element": "H" 
			},
			{
				"x": -3.2558042122,
				"y": 0.2430158241,
				"z": 1.588910375,
				"element": "H" 
			},
			{
				"x": -3.6106274699,
				"y": 1.6764681387,
				"z": 0.6218602451,
				"element": "H" 
			},
			{
				"x": -0.2002097384,
				"y": 0.1562652791,
				"z": -0.9781169651,
				"element": "H" 
			},
			{
				"x": 0.4223911118,
				"y": -2.0909439505,
				"z": -1.7835910755,
				"element": "H" 
			}
		],
		 "valence_orbital": [ 
			{
				"type": "occ",
				"energy": -0.26136,
				"method": "rhf"
			},
			{
				"type": "occ",
				"energy": -0.25901,
				"method": "rhf"
			},
			{
				"type": "occ",
				"energy": -0.25175,
				"method": "rhf"
			},
			{
				"type": "occ",
				"energy": -0.22389,
				"method": "rhf"
			},
			{
				"type": "occ",
				"energy": -0.20269,
				"method": "rhf"
			},
			{
				"type": "unocc",
				"energy": -0.04975,
				"method": "rhf"
			},
			{
				"type": "unocc",
				"energy": -0.01856,
				"method": "rhf"
			},
			{
				"type": "unocc",
				"energy": 0.00051,
				"method": "rhf"
			},
			{
				"type": "unocc",
				"energy": 0.05818,
				"method": "rhf"
			},
			{
				"type": "unocc",
				"energy": 0.06897,
				"method": "rhf"
			}
		],
		"cosmo_sigma_profile": { 
			"-0.025": 0.0,
			"-0.024": 0.0,
			"-0.023": 0.0,
			"-0.022": 0.0,
			"-0.021": 0.0,
			"-0.02": 0.0,
			"-0.019": 0.0,
			"-0.018": 0.0,
			"-0.017": 0.0,
			"-0.016": 0.341965476741,
			"-0.015": 1.66608609509,
			"-0.014": 1.5947632529,
			"-0.013": 1.1422780265,
			"-0.012": 1.87275537623,
			"-0.011": 1.10411697508,
			"-0.01": 1.48350132116,
			"-0.009": 1.88459055902,
			"-0.008": 2.55450941723,
			"-0.007": 3.74476361446,
			"-0.006": 6.45480920077,
			"-0.005": 12.8709383964,
			"-0.004": 21.3246510032,
			"-0.003": 36.897233967,
			"-0.002": 47.7341867346,
			"-0.001": 49.29190138,
			"0.0": 44.0542790536,
			"0.001": 43.8968593156,
			"0.002": 25.3966960049,
			"0.003": 14.8084267479,
			"0.004": 14.5486117376,
			"0.005": 7.39139807285,
			"0.006": 7.54390550932,
			"0.007": 4.4518655217,
			"0.008": 2.79383235982,
			"0.009": 3.83943723671,
			"0.01": 3.62479923371,
			"0.011": 4.46204684666,
			"0.012": 6.74525795095,
			"0.013": 5.18315894085,
			"0.014": 1.68642985681,
			"0.015": 0.00932238161092,
			"0.016": 0.0,
			"0.017": 0.0,
			"0.018": 0.0,
			"0.019": 0.0,
			"0.02": 0.0,
			"0.021": 0.0,
			"0.022": 0.0,
			"0.023": 0.0,
			"0.024": 0.0,
			"0.025": 0.0
		}
	}
}
