{
	 "smiles": "CC1=NNC(=O)NC1=O", 
	 "Tm": 485.15, 
	 "num_atms": 14, 
	 "gaussian": { 
		 "optdone": 1, 
		 "sigma_profile": "yes", 
		 "theory": "DFT", 
		 "functional": "B3LYP", 
		 "basiset": "6-31G**", 
		 "properties": { 
			 "R2extent": 1396.9032, 
			 "electric_dipole_moment_norm": 1.79588067254, 
			 "electric_quadrupole_moment_norm": 8.05328644716, 
			 "total_energy": -470.151107531, 
			 "HOMO_LUMO_gap": 0.1977, 
			 "cosmo_polarized_energy": -13.7, 
			 "cosmo_cavitation_energy": 18.91, 
			 "cosmo_dispersion_energy": -14.34, 
			 "cosmo_repulsion_energy": 1.19, 
			 "cosmo_total_nonelectrostatic_energy": 5.76, 
			 "SMD_solvation_energy": 4.5 
		},
		"coords": [
			{
				"x": 3.0315195802,
				"y": -1.8601367951,
				"z": -0.3677691999,
				"element": "C" 
			},
			{
				"x": 1.5940781048,
				"y": -1.4613249893,
				"z": -0.4940158675,
				"element": "C" 
			},
			{
				"x": 0.771054753,
				"y": -2.226925356,
				"z": -1.1351832507,
				"element": "N" 
			},
			{
				"x": -0.5248991227,
				"y": -1.8405670918,
				"z": -1.2339460262,
				"element": "N" 
			},
			{
				"x": -1.1059090758,
				"y": -0.6912609008,
				"z": -0.7197001391,
				"element": "C" 
			},
			{
				"x": -2.2816505241,
				"y": -0.4134888395,
				"z": -0.8514091275,
				"element": "O" 
			},
			{
				"x": -0.183368123,
				"y": 0.0982557201,
				"z": -0.0401195011,
				"element": "N" 
			},
			{
				"x": 1.1710226137,
				"y": -0.181761551,
				"z": 0.1345762587,
				"element": "C" 
			},
			{
				"x": 1.9171307651,
				"y": 0.5645354581,
				"z": 0.7441233942,
				"element": "O" 
			},
			{
				"x": 3.1996733649,
				"y": -2.8128018983,
				"z": -0.8714759785,
				"element": "H" 
			},
			{
				"x": 3.313839866,
				"y": -1.9463591005,
				"z": 0.6866753224,
				"element": "H" 
			},
			{
				"x": 3.6812931433,
				"y": -1.093811851,
				"z": -0.8031304693,
				"element": "H" 
			},
			{
				"x": -1.1302476082,
				"y": -2.4687574413,
				"z": -1.7429932216,
				"element": "H" 
			},
			{
				"x": -0.5394377373,
				"y": 0.9574046364,
				"z": 0.3631678061,
				"element": "H" 
			}
		],
		 "valence_orbital": [ 
			{
				"type": "occ",
				"energy": -0.35182,
				"method": "rhf"
			},
			{
				"type": "occ",
				"energy": -0.30023,
				"method": "rhf"
			},
			{
				"type": "occ",
				"energy": -0.28905,
				"method": "rhf"
			},
			{
				"type": "occ",
				"energy": -0.2774,
				"method": "rhf"
			},
			{
				"type": "occ",
				"energy": -0.26465,
				"method": "rhf"
			},
			{
				"type": "unocc",
				"energy": -0.06695,
				"method": "rhf"
			},
			{
				"type": "unocc",
				"energy": 8e-05,
				"method": "rhf"
			},
			{
				"type": "unocc",
				"energy": 0.07008,
				"method": "rhf"
			},
			{
				"type": "unocc",
				"energy": 0.09501,
				"method": "rhf"
			},
			{
				"type": "unocc",
				"energy": 0.09931,
				"method": "rhf"
			}
		],
		"cosmo_sigma_profile": { 
			"-0.025": 0.0,
			"-0.024": 0.0,
			"-0.023": 0.0,
			"-0.022": 0.0,
			"-0.021": 0.0,
			"-0.02": 0.0,
			"-0.019": 0.0,
			"-0.018": 0.0,
			"-0.017": 0.932451999096,
			"-0.016": 2.59196372624,
			"-0.015": 1.98255809547,
			"-0.014": 1.73821026905,
			"-0.013": 1.18805136723,
			"-0.012": 1.85880138944,
			"-0.011": 1.83811372136,
			"-0.01": 1.33756826597,
			"-0.009": 1.33578950426,
			"-0.008": 2.12783809455,
			"-0.007": 3.32247940719,
			"-0.006": 6.4210490459,
			"-0.005": 10.2262253954,
			"-0.004": 10.7929245024,
			"-0.003": 14.1417521725,
			"-0.002": 12.0471644196,
			"-0.001": 11.7496343548,
			"0.0": 6.16702857257,
			"0.001": 5.20231510337,
			"0.002": 4.39901298383,
			"0.003": 3.61390291637,
			"0.004": 3.78575119316,
			"0.005": 3.76542391025,
			"0.006": 2.26095123899,
			"0.007": 3.24253615694,
			"0.008": 4.35657396,
			"0.009": 3.4606610489,
			"0.01": 4.07118334473,
			"0.011": 6.95967128029,
			"0.012": 11.7424859777,
			"0.013": 1.90528110358,
			"0.014": 0.0,
			"0.015": 0.0,
			"0.016": 0.0,
			"0.017": 0.0,
			"0.018": 0.0,
			"0.019": 0.0,
			"0.02": 0.0,
			"0.021": 0.0,
			"0.022": 0.0,
			"0.023": 0.0,
			"0.024": 0.0,
			"0.025": 0.0
		}
	}
}
