{
	 "smiles": "ClC1CCS(=O)(=O)CC1", 
	 "Tm": 403.15, 
	 "num_atms": 18, 
	 "gaussian": { 
		 "optdone": 1, 
		 "sigma_profile": "yes", 
		 "theory": "DFT", 
		 "functional": "B3LYP", 
		 "basiset": "6-31G**", 
		 "properties": { 
			 "R2extent": 2411.8385, 
			 "electric_dipole_moment_norm": 3.8363203946, 
			 "electric_quadrupole_moment_norm": 11.2922915363, 
			 "total_energy": -1204.72959148, 
			 "HOMO_LUMO_gap": 0.28408, 
			 "cosmo_polarized_energy": -16.79, 
			 "cosmo_cavitation_energy": 22.79, 
			 "cosmo_dispersion_energy": -17.74, 
			 "cosmo_repulsion_energy": 1.39, 
			 "cosmo_total_nonelectrostatic_energy": 6.45, 
			 "SMD_solvation_energy": 2.24 
		},
		"coords": [
			{
				"x": -1.4891887805,
				"y": -2.0913346896,
				"z": 3.4544989222,
				"element": "Cl" 
			},
			{
				"x": -0.36363364,
				"y": -1.0596430313,
				"z": 2.4412975173,
				"element": "C" 
			},
			{
				"x": -0.2325275497,
				"y": -1.6394816454,
				"z": 1.0212516954,
				"element": "C" 
			},
			{
				"x": -1.3051518202,
				"y": -1.1221636574,
				"z": 0.0622465707,
				"element": "C" 
			},
			{
				"x": -1.0302035269,
				"y": 0.6533277042,
				"z": -0.2836102584,
				"element": "S" 
			},
			{
				"x": -2.3398520479,
				"y": 1.3009341926,
				"z": -0.458210022,
				"element": "O" 
			},
			{
				"x": 0.0135558019,
				"y": 0.7644377054,
				"z": -1.3158492532,
				"element": "O" 
			},
			{
				"x": -0.316521381,
				"y": 1.2201068036,
				"z": 1.306522836,
				"element": "C" 
			},
			{
				"x": -0.8755995229,
				"y": 0.3926717251,
				"z": 2.4683711097,
				"element": "C" 
			},
			{
				"x": 0.5981539938,
				"y": -1.1365447753,
				"z": 2.9515874041,
				"element": "H" 
			},
			{
				"x": -0.2605584736,
				"y": -2.7310847257,
				"z": 1.0629022683,
				"element": "H" 
			},
			{
				"x": 0.7557938403,
				"y": -1.371861254,
				"z": 0.6269416378,
				"element": "H" 
			},
			{
				"x": -1.2533014217,
				"y": -1.6052525369,
				"z": -0.9163572926,
				"element": "H" 
			},
			{
				"x": -2.315206437,
				"y": -1.2288279239,
				"z": 0.4642101397,
				"element": "H" 
			},
			{
				"x": 0.770478264,
				"y": 1.1565856153,
				"z": 1.2150483262,
				"element": "H" 
			},
			{
				"x": -0.6074367756,
				"y": 2.2708750222,
				"z": 1.3794839515,
				"element": "H" 
			},
			{
				"x": -0.6123860797,
				"y": 0.8602244093,
				"z": 3.4214216001,
				"element": "H" 
			},
			{
				"x": -1.968814443,
				"y": 0.3984310618,
				"z": 2.4135428471,
				"element": "H" 
			}
		],
		 "valence_orbital": [ 
			{
				"type": "occ",
				"energy": -0.31391,
				"method": "rhf"
			},
			{
				"type": "occ",
				"energy": -0.31237,
				"method": "rhf"
			},
			{
				"type": "occ",
				"energy": -0.31058,
				"method": "rhf"
			},
			{
				"type": "occ",
				"energy": -0.29856,
				"method": "rhf"
			},
			{
				"type": "occ",
				"energy": -0.28523,
				"method": "rhf"
			},
			{
				"type": "unocc",
				"energy": -0.00115,
				"method": "rhf"
			},
			{
				"type": "unocc",
				"energy": 0.04842,
				"method": "rhf"
			},
			{
				"type": "unocc",
				"energy": 0.06012,
				"method": "rhf"
			},
			{
				"type": "unocc",
				"energy": 0.06583,
				"method": "rhf"
			},
			{
				"type": "unocc",
				"energy": 0.07503,
				"method": "rhf"
			}
		],
		"cosmo_sigma_profile": { 
			"-0.025": 0.0,
			"-0.024": 0.0,
			"-0.023": 0.0,
			"-0.022": 0.0,
			"-0.021": 0.0,
			"-0.02": 0.0,
			"-0.019": 0.0,
			"-0.018": 0.0,
			"-0.017": 0.0,
			"-0.016": 0.0,
			"-0.015": 0.0,
			"-0.014": 0.0,
			"-0.013": 0.0,
			"-0.012": 0.0,
			"-0.011": 0.00796647651717,
			"-0.01": 0.541019084915,
			"-0.009": 3.49949047542,
			"-0.008": 10.1658729804,
			"-0.007": 14.0827473625,
			"-0.006": 17.9523436626,
			"-0.005": 19.0869409766,
			"-0.004": 15.4314797584,
			"-0.003": 8.9702093492,
			"-0.002": 5.87901430012,
			"-0.001": 4.80656601514,
			"0.0": 5.35145871443,
			"0.001": 5.1672740798,
			"0.002": 5.86681701289,
			"0.003": 5.33022318174,
			"0.004": 6.17423543246,
			"0.005": 7.7347809897,
			"0.006": 10.2213830453,
			"0.007": 3.09588012956,
			"0.008": 1.98823695745,
			"0.009": 3.38782395994,
			"0.01": 3.5015395151,
			"0.011": 8.4220235641,
			"0.012": 11.2527278689,
			"0.013": 2.75185698376,
			"0.014": 0.0,
			"0.015": 0.0,
			"0.016": 0.0,
			"0.017": 0.0,
			"0.018": 0.0,
			"0.019": 0.0,
			"0.02": 0.0,
			"0.021": 0.0,
			"0.022": 0.0,
			"0.023": 0.0,
			"0.024": 0.0,
			"0.025": 0.0
		}
	}
}
