{
	 "smiles": "CCOC(OCC)C1=CC=CC2=C1C(=CC=C2Br)[N+]([O-])=O", 
	 "Tm": 368.15, 
	 "num_atms": 37, 
	 "gaussian": { 
		 "optdone": 1, 
		 "sigma_profile": "yes", 
		 "theory": "DFT", 
		 "functional": "B3LYP", 
		 "basiset": "6-31G**", 
		 "properties": { 
			 "R2extent": 10189.0733, 
			 "electric_dipole_moment_norm": 3.55121963556, 
			 "electric_quadrupole_moment_norm": 11.3913312176, 
			 "total_energy": -3508.16422503, 
			 "HOMO_LUMO_gap": 0.1558, 
			 "cosmo_polarized_energy": -13.72, 
			 "cosmo_cavitation_energy": 41.63, 
			 "cosmo_dispersion_energy": -28.89, 
			 "cosmo_repulsion_energy": 2.21, 
			 "cosmo_total_nonelectrostatic_energy": 14.95, 
			 "SMD_solvation_energy": 8.02 
		},
		"coords": [
			{
				"x": 3.4942930454,
				"y": 1.750747808,
				"z": 1.9794819937,
				"element": "C" 
			},
			{
				"x": 2.0386149598,
				"y": 1.3351495293,
				"z": 2.1903435137,
				"element": "C" 
			},
			{
				"x": 1.3349218583,
				"y": 1.1178681874,
				"z": 0.9703584772,
				"element": "O" 
			},
			{
				"x": 1.5286807736,
				"y": -0.1250875214,
				"z": 0.3233053831,
				"element": "C" 
			},
			{
				"x": 1.0212674234,
				"y": -0.0376644996,
				"z": -0.9673465069,
				"element": "O" 
			},
			{
				"x": 1.6230382728,
				"y": 0.966605381,
				"z": -1.795355826,
				"element": "C" 
			},
			{
				"x": 1.109876786,
				"y": 0.7646110835,
				"z": -3.2101389029,
				"element": "C" 
			},
			{
				"x": 0.8683976531,
				"y": -1.3295405923,
				"z": 1.0041691829,
				"element": "C" 
			},
			{
				"x": 1.719395091,
				"y": -2.0969429965,
				"z": 1.7776124638,
				"element": "C" 
			},
			{
				"x": 1.3275799703,
				"y": -3.3199453248,
				"z": 2.3547692403,
				"element": "C" 
			},
			{
				"x": 0.0884452784,
				"y": -3.8305920237,
				"z": 2.0700369085,
				"element": "C" 
			},
			{
				"x": -0.8280397008,
				"y": -3.1098314379,
				"z": 1.2595103018,
				"element": "C" 
			},
			{
				"x": -0.4816627839,
				"y": -1.7857612833,
				"z": 0.7830772822,
				"element": "C" 
			},
			{
				"x": -1.5100781529,
				"y": -1.0963878174,
				"z": 0.0618490718,
				"element": "C" 
			},
			{
				"x": -2.6833666269,
				"y": -1.7029455405,
				"z": -0.321046621,
				"element": "C" 
			},
			{
				"x": -2.9765277377,
				"y": -3.0175519079,
				"z": 0.0795802886,
				"element": "C" 
			},
			{
				"x": -2.0853766487,
				"y": -3.6780031301,
				"z": 0.8865731793,
				"element": "C" 
			},
			{
				"x": -2.5869127289,
				"y": -5.4259313138,
				"z": 1.4845654271,
				"element": "Br" 
			},
			{
				"x": -1.5156068448,
				"y": 0.3612468096,
				"z": -0.17310116,
				"element": "N" 
			},
			{
				"x": -1.8383696063,
				"y": 0.7636459401,
				"z": -1.2906202864,
				"element": "O" 
			},
			{
				"x": -1.3196661077,
				"y": 1.067263524,
				"z": 0.8078782609,
				"element": "O" 
			},
			{
				"x": 3.5484646943,
				"y": 2.6397941167,
				"z": 1.3444541705,
				"element": "H" 
			},
			{
				"x": 4.0881699817,
				"y": 0.9603940513,
				"z": 1.508937468,
				"element": "H" 
			},
			{
				"x": 3.9611244173,
				"y": 1.986279627,
				"z": 2.9420989822,
				"element": "H" 
			},
			{
				"x": 1.4891091386,
				"y": 2.1380288659,
				"z": 2.6904692703,
				"element": "H" 
			},
			{
				"x": 1.973108371,
				"y": 0.4506077194,
				"z": 2.8388119004,
				"element": "H" 
			},
			{
				"x": 2.6144421981,
				"y": -0.3362405663,
				"z": 0.2849134126,
				"element": "H" 
			},
			{
				"x": 1.3637076197,
				"y": 1.9594760078,
				"z": -1.4144032439,
				"element": "H" 
			},
			{
				"x": 2.7190097926,
				"y": 0.8616779486,
				"z": -1.7502993573,
				"element": "H" 
			},
			{
				"x": 0.0199320452,
				"y": 0.8409965822,
				"z": -3.2261969723,
				"element": "H" 
			},
			{
				"x": 1.526081326,
				"y": 1.5290222246,
				"z": -3.8740738814,
				"element": "H" 
			},
			{
				"x": 1.3953623354,
				"y": -0.2202895344,
				"z": -3.5916695311,
				"element": "H" 
			},
			{
				"x": 2.7459260318,
				"y": -1.7653605825,
				"z": 1.9072229541,
				"element": "H" 
			},
			{
				"x": 2.024691729,
				"y": -3.8780133722,
				"z": 2.971838345,
				"element": "H" 
			},
			{
				"x": -0.2045988305,
				"y": -4.8035191137,
				"z": 2.4436377755,
				"element": "H" 
			},
			{
				"x": -3.4030968516,
				"y": -1.1320176327,
				"z": -0.8954951309,
				"element": "H" 
			},
			{
				"x": -3.9111381724,
				"y": -3.4813892152,
				"z": -0.2108478333,
				"element": "H" 
			}
		],
		 "valence_orbital": [ 
			{
				"type": "occ",
				"energy": -0.27467,
				"method": "rhf"
			},
			{
				"type": "occ",
				"energy": -0.27173,
				"method": "rhf"
			},
			{
				"type": "occ",
				"energy": -0.26881,
				"method": "rhf"
			},
			{
				"type": "occ",
				"energy": -0.25497,
				"method": "rhf"
			},
			{
				"type": "occ",
				"energy": -0.23326,
				"method": "rhf"
			},
			{
				"type": "unocc",
				"energy": -0.07746,
				"method": "rhf"
			},
			{
				"type": "unocc",
				"energy": -0.04947,
				"method": "rhf"
			},
			{
				"type": "unocc",
				"energy": -0.03498,
				"method": "rhf"
			},
			{
				"type": "unocc",
				"energy": -0.0055,
				"method": "rhf"
			},
			{
				"type": "unocc",
				"energy": 0.00946,
				"method": "rhf"
			}
		],
		"cosmo_sigma_profile": { 
			"-0.025": 0.0,
			"-0.024": 0.0,
			"-0.023": 0.0,
			"-0.022": 0.0,
			"-0.021": 0.0,
			"-0.02": 0.0,
			"-0.019": 0.0,
			"-0.018": 0.0,
			"-0.017": 0.0,
			"-0.016": 0.0,
			"-0.015": 0.0,
			"-0.014": 0.0,
			"-0.013": 0.0,
			"-0.012": 0.0,
			"-0.011": 0.0,
			"-0.01": 0.0,
			"-0.009": 0.816254008263,
			"-0.008": 4.59059071086,
			"-0.007": 10.1142043363,
			"-0.006": 11.9447079035,
			"-0.005": 15.7501434019,
			"-0.004": 21.7819952821,
			"-0.003": 31.1764847933,
			"-0.002": 31.0405619939,
			"-0.001": 31.064255183,
			"0.0": 40.5537964939,
			"0.001": 36.0620387954,
			"0.002": 22.6285702639,
			"0.003": 18.3867033791,
			"0.004": 11.0970089876,
			"0.005": 6.5793974279,
			"0.006": 6.94018583626,
			"0.007": 8.19260783339,
			"0.008": 9.77576638946,
			"0.009": 7.39360576778,
			"0.01": 4.34223116441,
			"0.011": 1.58127538975,
			"0.012": 1.02579261868,
			"0.013": 0.590488956578,
			"0.014": 0.0435772748224,
			"0.015": 0.0,
			"0.016": 0.0,
			"0.017": 0.0,
			"0.018": 0.0,
			"0.019": 0.0,
			"0.02": 0.0,
			"0.021": 0.0,
			"0.022": 0.0,
			"0.023": 0.0,
			"0.024": 0.0,
			"0.025": 0.0
		}
	}
}
