{
	 "smiles": "CC1=CC=C(C=C1)C(O)C1=CC=C(C)C=C1", 
	 "Tm": 344.15, 
	 "num_atms": 32, 
	 "gaussian": { 
		 "optdone": 1, 
		 "sigma_profile": "yes", 
		 "theory": "DFT", 
		 "functional": "B3LYP", 
		 "basiset": "6-31G**", 
		 "properties": { 
			 "R2extent": 4842.4676, 
			 "electric_dipole_moment_norm": 1.79318456663, 
			 "electric_quadrupole_moment_norm": 5.89774449684, 
			 "total_energy": -656.473030961, 
			 "HOMO_LUMO_gap": 0.2147, 
			 "cosmo_polarized_energy": -8.92, 
			 "cosmo_cavitation_energy": 35.1, 
			 "cosmo_dispersion_energy": -24.76, 
			 "cosmo_repulsion_energy": 1.95, 
			 "cosmo_total_nonelectrostatic_energy": 12.29, 
			 "SMD_solvation_energy": 5.94 
		},
		"coords": [
			{
				"x": 1.2712159547,
				"y": 5.291592199,
				"z": 0.1260300914,
				"element": "C" 
			},
			{
				"x": 0.708242078,
				"y": 3.9358780793,
				"z": -0.2306893214,
				"element": "C" 
			},
			{
				"x": 0.7076544063,
				"y": 3.4716626256,
				"z": -1.549182087,
				"element": "C" 
			},
			{
				"x": 0.1903211004,
				"y": 2.2128693341,
				"z": -1.8690741854,
				"element": "C" 
			},
			{
				"x": -0.3318881223,
				"y": 1.3814167537,
				"z": -0.8763459628,
				"element": "C" 
			},
			{
				"x": -0.3379393754,
				"y": 1.8438955483,
				"z": 0.4485333109,
				"element": "C" 
			},
			{
				"x": 0.1715804083,
				"y": 3.0990294837,
				"z": 0.7624711664,
				"element": "C" 
			},
			{
				"x": -0.9070196395,
				"y": 0.0119041234,
				"z": -1.2152266165,
				"element": "C" 
			},
			{
				"x": -2.2357461802,
				"y": -0.1251723968,
				"z": -0.7129895879,
				"element": "O" 
			},
			{
				"x": -0.069505753,
				"y": -1.1312299061,
				"z": -0.6541391119,
				"element": "C" 
			},
			{
				"x": -0.5894220148,
				"y": -2.034036269,
				"z": 0.2752764228,
				"element": "C" 
			},
			{
				"x": 0.2001939327,
				"y": -3.0775110294,
				"z": 0.7663694071,
				"element": "C" 
			},
			{
				"x": 1.5222120139,
				"y": -3.251208339,
				"z": 0.3463587366,
				"element": "C" 
			},
			{
				"x": 2.3818782795,
				"y": -4.3674597278,
				"z": 0.8920361457,
				"element": "C" 
			},
			{
				"x": 2.0344039247,
				"y": -2.3426533112,
				"z": -0.5928019186,
				"element": "C" 
			},
			{
				"x": 1.2538442816,
				"y": -1.300751094,
				"z": -1.0837927573,
				"element": "C" 
			},
			{
				"x": 0.5454621244,
				"y": 5.8916336035,
				"z": 0.6864531774,
				"element": "H" 
			},
			{
				"x": 2.1639546759,
				"y": 5.1984174227,
				"z": 0.7560153846,
				"element": "H" 
			},
			{
				"x": 1.553559372,
				"y": 5.8552925653,
				"z": -0.7674542999,
				"element": "H" 
			},
			{
				"x": 1.1094391225,
				"y": 4.1022354445,
				"z": -2.3386230678,
				"element": "H" 
			},
			{
				"x": 0.1905369678,
				"y": 1.8792402219,
				"z": -2.904545635,
				"element": "H" 
			},
			{
				"x": -0.7479311893,
				"y": 1.2089943119,
				"z": 1.2286509232,
				"element": "H" 
			},
			{
				"x": 0.1573952167,
				"y": 3.4394824597,
				"z": 1.79550196,
				"element": "H" 
			},
			{
				"x": -0.9121613131,
				"y": -0.0840921936,
				"z": -2.3142985529,
				"element": "H" 
			},
			{
				"x": -2.7121267267,
				"y": 0.6822691616,
				"z": -0.9438877773,
				"element": "H" 
			},
			{
				"x": -1.6156766209,
				"y": -1.9220677227,
				"z": 0.6045777595,
				"element": "H" 
			},
			{
				"x": -0.2252522772,
				"y": -3.7711758581,
				"z": 1.4880833345,
				"element": "H" 
			},
			{
				"x": 2.9282982341,
				"y": -4.8806305029,
				"z": 0.0932279958,
				"element": "H" 
			},
			{
				"x": 3.1297382982,
				"y": -3.9866876545,
				"z": 1.5988543435,
				"element": "H" 
			},
			{
				"x": 1.7805480091,
				"y": -5.1127661597,
				"z": 1.4205075819,
				"element": "H" 
			},
			{
				"x": 3.0580812287,
				"y": -2.454811098,
				"z": -0.9431269277,
				"element": "H" 
			},
			{
				"x": 1.678509583,
				"y": -0.6071600754,
				"z": -1.8056699319,
				"element": "H" 
			}
		],
		 "valence_orbital": [ 
			{
				"type": "occ",
				"energy": -0.27829,
				"method": "rhf"
			},
			{
				"type": "occ",
				"energy": -0.24889,
				"method": "rhf"
			},
			{
				"type": "occ",
				"energy": -0.23826,
				"method": "rhf"
			},
			{
				"type": "occ",
				"energy": -0.23684,
				"method": "rhf"
			},
			{
				"type": "occ",
				"energy": -0.22195,
				"method": "rhf"
			},
			{
				"type": "unocc",
				"energy": -0.00725,
				"method": "rhf"
			},
			{
				"type": "unocc",
				"energy": -0.00198,
				"method": "rhf"
			},
			{
				"type": "unocc",
				"energy": 0.00908,
				"method": "rhf"
			},
			{
				"type": "unocc",
				"energy": 0.01486,
				"method": "rhf"
			},
			{
				"type": "unocc",
				"energy": 0.09259,
				"method": "rhf"
			}
		],
		"cosmo_sigma_profile": { 
			"-0.025": 0.0,
			"-0.024": 0.0,
			"-0.023": 0.0,
			"-0.022": 0.0,
			"-0.021": 0.0,
			"-0.02": 0.0,
			"-0.019": 0.0,
			"-0.018": 0.0,
			"-0.017": 0.0,
			"-0.016": 0.11390927946,
			"-0.015": 0.755774997447,
			"-0.014": 0.940034297994,
			"-0.013": 0.740318987285,
			"-0.012": 0.810988175142,
			"-0.011": 0.323893761168,
			"-0.01": 1.13231823873,
			"-0.009": 0.495946848111,
			"-0.008": 0.927414442767,
			"-0.007": 1.02761319489,
			"-0.006": 2.43536530906,
			"-0.005": 14.6101503711,
			"-0.004": 29.9412720394,
			"-0.003": 30.9846988335,
			"-0.002": 26.9946666305,
			"-0.001": 24.7822025808,
			"0.0": 26.6216229984,
			"0.001": 21.6038153915,
			"0.002": 15.0669334976,
			"0.003": 14.4154379508,
			"0.004": 15.0349054342,
			"0.005": 18.2107109512,
			"0.006": 16.3773166253,
			"0.007": 5.84420154672,
			"0.008": 1.54846306397,
			"0.009": 1.35496058316,
			"0.01": 1.76366100017,
			"0.011": 1.05341727692,
			"0.012": 0.734284631092,
			"0.013": 0.653353659279,
			"0.014": 0.0719191563914,
			"0.015": 0.0,
			"0.016": 0.0,
			"0.017": 0.0,
			"0.018": 0.0,
			"0.019": 0.0,
			"0.02": 0.0,
			"0.021": 0.0,
			"0.022": 0.0,
			"0.023": 0.0,
			"0.024": 0.0,
			"0.025": 0.0
		}
	}
}
