{
	 "smiles": "COC(=O)C1=C(F)C=C(N)C=C1", 
	 "Tm": 383.15, 
	 "num_atms": 20, 
	 "gaussian": { 
		 "optdone": 1, 
		 "sigma_profile": "yes", 
		 "theory": "DFT", 
		 "functional": "B3LYP", 
		 "basiset": "6-31G**", 
		 "properties": { 
			 "R2extent": 2727.5936, 
			 "electric_dipole_moment_norm": 3.70251078729, 
			 "electric_quadrupole_moment_norm": 21.2860802115, 
			 "total_energy": -614.719437818, 
			 "HOMO_LUMO_gap": 0.1881, 
			 "cosmo_polarized_energy": -13.61, 
			 "cosmo_cavitation_energy": 25.02, 
			 "cosmo_dispersion_energy": -18.43, 
			 "cosmo_repulsion_energy": 1.46, 
			 "cosmo_total_nonelectrostatic_energy": 8.05, 
			 "SMD_solvation_energy": 6.35 
		},
		"coords": [
			{
				"x": -0.3856676775,
				"y": 2.5689673564,
				"z": 1.6555976889,
				"element": "C" 
			},
			{
				"x": -0.7250420922,
				"y": 1.5264413913,
				"z": 0.7306912847,
				"element": "O" 
			},
			{
				"x": -0.188182311,
				"y": 0.3190823003,
				"z": 1.0112718785,
				"element": "C" 
			},
			{
				"x": 0.5314762718,
				"y": 0.1262517544,
				"z": 1.9760461449,
				"element": "O" 
			},
			{
				"x": -0.5559422658,
				"y": -0.7402283518,
				"z": 0.0406907279,
				"element": "C" 
			},
			{
				"x": -1.3721324301,
				"y": -0.590741581,
				"z": -1.0918479992,
				"element": "C" 
			},
			{
				"x": -1.9143234104,
				"y": 0.599377168,
				"z": -1.3999121587,
				"element": "F" 
			},
			{
				"x": -1.6595915138,
				"y": -1.6426347747,
				"z": -1.9485924997,
				"element": "C" 
			},
			{
				"x": -1.1294780198,
				"y": -2.9191196676,
				"z": -1.6978499701,
				"element": "C" 
			},
			{
				"x": -1.447969599,
				"y": -3.9871675206,
				"z": -2.5156765448,
				"element": "N" 
			},
			{
				"x": -0.3062356291,
				"y": -3.0966466733,
				"z": -0.5655449806,
				"element": "C" 
			},
			{
				"x": -0.0365100104,
				"y": -2.0285033919,
				"z": 0.2703906037,
				"element": "C" 
			},
			{
				"x": -0.8922941465,
				"y": 3.4613993153,
				"z": 1.2877763616,
				"element": "H" 
			},
			{
				"x": 0.6958380452,
				"y": 2.7256479745,
				"z": 1.6841954858,
				"element": "H" 
			},
			{
				"x": -0.728831641,
				"y": 2.320568408,
				"z": 2.6633406375,
				"element": "H" 
			},
			{
				"x": -2.301028684,
				"y": -1.4552768147,
				"z": -2.803609856,
				"element": "H" 
			},
			{
				"x": -1.779674074,
				"y": -3.7722789089,
				"z": -3.4441687654,
				"element": "H" 
			},
			{
				"x": -0.8342089264,
				"y": -4.7873129695,
				"z": -2.4783595677,
				"element": "H" 
			},
			{
				"x": 0.1103580793,
				"y": -4.0769853677,
				"z": -0.3522095514,
				"element": "H" 
			},
			{
				"x": 0.5968400346,
				"y": -2.1553396465,
				"z": 1.1417710802,
				"element": "H" 
			}
		],
		 "valence_orbital": [ 
			{
				"type": "occ",
				"energy": -0.31178,
				"method": "rhf"
			},
			{
				"type": "occ",
				"energy": -0.28906,
				"method": "rhf"
			},
			{
				"type": "occ",
				"energy": -0.2645,
				"method": "rhf"
			},
			{
				"type": "occ",
				"energy": -0.25035,
				"method": "rhf"
			},
			{
				"type": "occ",
				"energy": -0.21748,
				"method": "rhf"
			},
			{
				"type": "unocc",
				"energy": -0.02938,
				"method": "rhf"
			},
			{
				"type": "unocc",
				"energy": -0.00081,
				"method": "rhf"
			},
			{
				"type": "unocc",
				"energy": 0.06185,
				"method": "rhf"
			},
			{
				"type": "unocc",
				"energy": 0.07569,
				"method": "rhf"
			},
			{
				"type": "unocc",
				"energy": 0.10124,
				"method": "rhf"
			}
		],
		"cosmo_sigma_profile": { 
			"-0.025": 0.0,
			"-0.024": 0.0,
			"-0.023": 0.0,
			"-0.022": 0.0,
			"-0.021": 0.0,
			"-0.02": 0.0,
			"-0.019": 0.0,
			"-0.018": 0.0,
			"-0.017": 0.0,
			"-0.016": 0.0,
			"-0.015": 0.0,
			"-0.014": 0.645518593945,
			"-0.013": 3.18762699079,
			"-0.012": 2.36763684589,
			"-0.011": 3.54739779161,
			"-0.01": 3.37857333019,
			"-0.009": 2.92191199374,
			"-0.008": 2.97088837129,
			"-0.007": 5.07491315239,
			"-0.006": 7.68051916523,
			"-0.005": 11.6834395396,
			"-0.004": 13.1134705318,
			"-0.003": 12.4441016859,
			"-0.002": 9.77151850078,
			"-0.001": 10.6831847883,
			"0.0": 11.2735099815,
			"0.001": 13.5913803357,
			"0.002": 14.5120137081,
			"0.003": 17.2234902222,
			"0.004": 17.2650287428,
			"0.005": 7.71879920023,
			"0.006": 4.04101518102,
			"0.007": 4.35284166801,
			"0.008": 3.95550052073,
			"0.009": 4.12323364512,
			"0.01": 2.22303402978,
			"0.011": 2.89803311855,
			"0.012": 4.56754047152,
			"0.013": 2.10664424918,
			"0.014": 0.0,
			"0.015": 0.0,
			"0.016": 0.0,
			"0.017": 0.0,
			"0.018": 0.0,
			"0.019": 0.0,
			"0.02": 0.0,
			"0.021": 0.0,
			"0.022": 0.0,
			"0.023": 0.0,
			"0.024": 0.0,
			"0.025": 0.0
		}
	}
}
