{
	 "smiles": "COC1=CC=C(CC(O)C(O)=O)C=C1", 
	 "Tm": 358.15, 
	 "num_atms": 26, 
	 "gaussian": { 
		 "optdone": 1, 
		 "sigma_profile": "yes", 
		 "theory": "DFT", 
		 "functional": "B3LYP", 
		 "basiset": "6-31G**", 
		 "properties": { 
			 "R2extent": 3801.7702, 
			 "electric_dipole_moment_norm": 3.39146279502, 
			 "electric_quadrupole_moment_norm": 20.8943213908, 
			 "total_energy": -689.191164413, 
			 "HOMO_LUMO_gap": 0.20902, 
			 "cosmo_polarized_energy": -14.52, 
			 "cosmo_cavitation_energy": 29.3, 
			 "cosmo_dispersion_energy": -21.27, 
			 "cosmo_repulsion_energy": 1.68, 
			 "cosmo_total_nonelectrostatic_energy": 9.72, 
			 "SMD_solvation_energy": 6.58 
		},
		"coords": [
			{
				"x": -0.3190713378,
				"y": 3.1181833516,
				"z": 2.8553399242,
				"element": "C" 
			},
			{
				"x": -0.8941312533,
				"y": 2.9729849675,
				"z": 1.5651539241,
				"element": "O" 
			},
			{
				"x": -0.5548357399,
				"y": 1.8800362021,
				"z": 0.8250207043,
				"element": "C" 
			},
			{
				"x": 0.330106751,
				"y": 0.8763365691,
				"z": 1.2419253452,
				"element": "C" 
			},
			{
				"x": 0.6053277207,
				"y": -0.2012439995,
				"z": 0.3984462941,
				"element": "C" 
			},
			{
				"x": 0.0106359391,
				"y": -0.3124874178,
				"z": -0.86539155,
				"element": "C" 
			},
			{
				"x": 0.3440784466,
				"y": -1.4603899046,
				"z": -1.7955907304,
				"element": "C" 
			},
			{
				"x": 1.6132364168,
				"y": -1.2015733904,
				"z": -2.6303285573,
				"element": "C" 
			},
			{
				"x": 1.5848678462,
				"y": 0.0460853965,
				"z": -3.3288507539,
				"element": "O" 
			},
			{
				"x": 2.893947656,
				"y": -1.3037529155,
				"z": -1.7745272643,
				"element": "C" 
			},
			{
				"x": 3.8086993599,
				"y": -0.3645899557,
				"z": -2.06003561,
				"element": "O" 
			},
			{
				"x": 3.0725290129,
				"y": -2.1695710168,
				"z": -0.9489820079,
				"element": "O" 
			},
			{
				"x": -0.8767250309,
				"y": 0.7036400903,
				"z": -1.2641881599,
				"element": "C" 
			},
			{
				"x": -1.1584271774,
				"y": 1.7860350976,
				"z": -0.4367521575,
				"element": "C" 
			},
			{
				"x": -0.723582457,
				"y": 4.0462160362,
				"z": 3.2618464097,
				"element": "H" 
			},
			{
				"x": 0.7746694047,
				"y": 3.1929032927,
				"z": 2.8051874984,
				"element": "H" 
			},
			{
				"x": -0.5921129396,
				"y": 2.2857198537,
				"z": 3.5162313589,
				"element": "H" 
			},
			{
				"x": 0.8065803731,
				"y": 0.9216906117,
				"z": 2.2139873601,
				"element": "H" 
			},
			{
				"x": 1.2982623343,
				"y": -0.9695141686,
				"z": 0.7287499072,
				"element": "H" 
			},
			{
				"x": -0.4878493484,
				"y": -1.6358561599,
				"z": -2.4853188114,
				"element": "H" 
			},
			{
				"x": 0.512942545,
				"y": -2.3825320844,
				"z": -1.233146303,
				"element": "H" 
			},
			{
				"x": 1.698423867,
				"y": -1.9781432041,
				"z": -3.4004228099,
				"element": "H" 
			},
			{
				"x": 1.1131714538,
				"y": 0.6780693348,
				"z": -2.7607430426,
				"element": "H" 
			},
			{
				"x": 3.3964912815,
				"y": 0.2037965926,
				"z": -2.7425414171,
				"element": "H" 
			},
			{
				"x": -1.3728947143,
				"y": 0.6331795439,
				"z": -2.2298917938,
				"element": "H" 
			},
			{
				"x": -1.8492404102,
				"y": 2.5652772771,
				"z": -0.7415777572,
				"element": "H" 
			}
		],
		 "valence_orbital": [ 
			{
				"type": "occ",
				"energy": -0.32249,
				"method": "rhf"
			},
			{
				"type": "occ",
				"energy": -0.30769,
				"method": "rhf"
			},
			{
				"type": "occ",
				"energy": -0.26272,
				"method": "rhf"
			},
			{
				"type": "occ",
				"energy": -0.25751,
				"method": "rhf"
			},
			{
				"type": "occ",
				"energy": -0.22687,
				"method": "rhf"
			},
			{
				"type": "unocc",
				"energy": -0.01785,
				"method": "rhf"
			},
			{
				"type": "unocc",
				"energy": -0.00251,
				"method": "rhf"
			},
			{
				"type": "unocc",
				"energy": 0.01194,
				"method": "rhf"
			},
			{
				"type": "unocc",
				"energy": 0.07685,
				"method": "rhf"
			},
			{
				"type": "unocc",
				"energy": 0.09087,
				"method": "rhf"
			}
		],
		"cosmo_sigma_profile": { 
			"-0.025": 0.0,
			"-0.024": 0.0,
			"-0.023": 0.0,
			"-0.022": 0.0,
			"-0.021": 0.0,
			"-0.02": 0.0,
			"-0.019": 0.0,
			"-0.018": 0.0,
			"-0.017": 0.0,
			"-0.016": 0.0,
			"-0.015": 0.0,
			"-0.014": 0.0,
			"-0.013": 0.453813813952,
			"-0.012": 1.31260922079,
			"-0.011": 2.69899856644,
			"-0.01": 2.31232420736,
			"-0.009": 1.60322969913,
			"-0.008": 4.24416412917,
			"-0.007": 5.82543858511,
			"-0.006": 15.4722268071,
			"-0.005": 22.49408355,
			"-0.004": 21.8716872757,
			"-0.003": 19.9357860983,
			"-0.002": 14.2549081929,
			"-0.001": 11.6577947231,
			"0.0": 10.047902158,
			"0.001": 9.94052556621,
			"0.002": 10.4918229269,
			"0.003": 12.7972081813,
			"0.004": 13.5720792122,
			"0.005": 10.3604449884,
			"0.006": 5.13599992628,
			"0.007": 3.92458529251,
			"0.008": 5.48277560676,
			"0.009": 5.46640856319,
			"0.01": 7.40184311967,
			"0.011": 5.1525601168,
			"0.012": 5.51704496519,
			"0.013": 2.02096727226,
			"0.014": 0.146062512135,
			"0.015": 0.0,
			"0.016": 0.0,
			"0.017": 0.0,
			"0.018": 0.0,
			"0.019": 0.0,
			"0.02": 0.0,
			"0.021": 0.0,
			"0.022": 0.0,
			"0.023": 0.0,
			"0.024": 0.0,
			"0.025": 0.0
		}
	}
}
