{
	 "smiles": "O=C1CC(=O)CC2(CCCCC2)C1", 
	 "Tm": 443.15, 
	 "num_atms": 29, 
	 "gaussian": { 
		 "optdone": 1, 
		 "sigma_profile": "yes", 
		 "theory": "DFT", 
		 "functional": "B3LYP", 
		 "basiset": "6-31G**", 
		 "properties": { 
			 "R2extent": 2724.2658, 
			 "electric_dipole_moment_norm": 3.66193392349, 
			 "electric_quadrupole_moment_norm": 9.86483463825, 
			 "total_energy": -579.261838572, 
			 "HOMO_LUMO_gap": 0.21048, 
			 "cosmo_polarized_energy": -12.01, 
			 "cosmo_cavitation_energy": 28.7, 
			 "cosmo_dispersion_energy": -20.9, 
			 "cosmo_repulsion_energy": 1.64, 
			 "cosmo_total_nonelectrostatic_energy": 9.44, 
			 "SMD_solvation_energy": 5.02 
		},
		"coords": [
			{
				"x": 3.3198888078,
				"y": -1.681913947,
				"z": -1.4305903112,
				"element": "O" 
			},
			{
				"x": 2.2892893989,
				"y": -1.4541593195,
				"z": -0.8287461042,
				"element": "C" 
			},
			{
				"x": 2.1965563607,
				"y": -1.6773310949,
				"z": 0.6773382714,
				"element": "C" 
			},
			{
				"x": 0.805938825,
				"y": -1.9559572349,
				"z": 1.2400947927,
				"element": "C" 
			},
			{
				"x": 0.6651998937,
				"y": -2.5358955848,
				"z": 2.2981705309,
				"element": "O" 
			},
			{
				"x": -0.3882849227,
				"y": -1.4866087117,
				"z": 0.4169644685,
				"element": "C" 
			},
			{
				"x": -0.0817037513,
				"y": -0.4028126631,
				"z": -0.6397983838,
				"element": "C" 
			},
			{
				"x": -1.3595764962,
				"y": -0.1609390202,
				"z": -1.4768833449,
				"element": "C" 
			},
			{
				"x": -1.2143328703,
				"y": 0.9421389975,
				"z": -2.5452151327,
				"element": "C" 
			},
			{
				"x": -0.4260652291,
				"y": 2.1729209441,
				"z": -2.0253055606,
				"element": "C" 
			},
			{
				"x": -0.3700165974,
				"y": 2.1903102832,
				"z": -0.493445365,
				"element": "C" 
			},
			{
				"x": 0.3514132529,
				"y": 0.9420300648,
				"z": 0.0513566776,
				"element": "C" 
			},
			{
				"x": 1.0435567092,
				"y": -0.94503449,
				"z": -1.5517271889,
				"element": "C" 
			},
			{
				"x": 2.898780392,
				"y": -2.453518902,
				"z": 0.9906633222,
				"element": "H" 
			},
			{
				"x": 2.5374566981,
				"y": -0.7440083339,
				"z": 1.1524620654,
				"element": "H" 
			},
			{
				"x": -0.7780022785,
				"y": -2.3856155994,
				"z": -0.0856136745,
				"element": "H" 
			},
			{
				"x": -1.1710573254,
				"y": -1.1672058196,
				"z": 1.1130523074,
				"element": "H" 
			},
			{
				"x": -2.1704948623,
				"y": 0.1063075721,
				"z": -0.7875243951,
				"element": "H" 
			},
			{
				"x": -1.6684098371,
				"y": -1.1004041592,
				"z": -1.9523561844,
				"element": "H" 
			},
			{
				"x": -0.7261440127,
				"y": 0.53806134,
				"z": -3.4389574444,
				"element": "H" 
			},
			{
				"x": -2.2184409021,
				"y": 1.243876626,
				"z": -2.863678513,
				"element": "H" 
			},
			{
				"x": -0.8727122155,
				"y": 3.0989018272,
				"z": -2.4028388873,
				"element": "H" 
			},
			{
				"x": 0.6012870517,
				"y": 2.1532857221,
				"z": -2.4118408426,
				"element": "H" 
			},
			{
				"x": -1.3888286596,
				"y": 2.2430468661,
				"z": -0.0887818019,
				"element": "H" 
			},
			{
				"x": 0.1452102051,
				"y": 3.0894341625,
				"z": -0.1371340223,
				"element": "H" 
			},
			{
				"x": 1.4308032996,
				"y": 1.0893923287,
				"z": -0.0812606011,
				"element": "H" 
			},
			{
				"x": 0.1852717559,
				"y": 0.8784787135,
				"z": 1.1336110091,
				"element": "H" 
			},
			{
				"x": 0.6650033254,
				"y": -1.8006761549,
				"z": -2.1313862894,
				"element": "H" 
			},
			{
				"x": 1.3749139842,
				"y": -0.2082044124,
				"z": -2.2897293977,
				"element": "H" 
			}
		],
		 "valence_orbital": [ 
			{
				"type": "occ",
				"energy": -0.31425,
				"method": "rhf"
			},
			{
				"type": "occ",
				"energy": -0.31363,
				"method": "rhf"
			},
			{
				"type": "occ",
				"energy": -0.31031,
				"method": "rhf"
			},
			{
				"type": "occ",
				"energy": -0.25857,
				"method": "rhf"
			},
			{
				"type": "occ",
				"energy": -0.24122,
				"method": "rhf"
			},
			{
				"type": "unocc",
				"energy": -0.03074,
				"method": "rhf"
			},
			{
				"type": "unocc",
				"energy": -0.01869,
				"method": "rhf"
			},
			{
				"type": "unocc",
				"energy": 0.05392,
				"method": "rhf"
			},
			{
				"type": "unocc",
				"energy": 0.08809,
				"method": "rhf"
			},
			{
				"type": "unocc",
				"energy": 0.09154,
				"method": "rhf"
			}
		],
		"cosmo_sigma_profile": { 
			"-0.025": 0.0,
			"-0.024": 0.0,
			"-0.023": 0.0,
			"-0.022": 0.0,
			"-0.021": 0.0,
			"-0.02": 0.0,
			"-0.019": 0.0,
			"-0.018": 0.0,
			"-0.017": 0.0,
			"-0.016": 0.0,
			"-0.015": 0.0,
			"-0.014": 0.0,
			"-0.013": 0.0,
			"-0.012": 0.0,
			"-0.011": 0.0,
			"-0.01": 0.00815357605203,
			"-0.009": 1.12740543947,
			"-0.008": 4.2712297853,
			"-0.007": 5.48464824993,
			"-0.006": 10.1642356049,
			"-0.005": 13.011893383,
			"-0.004": 18.3560883877,
			"-0.003": 22.6525448629,
			"-0.002": 27.5281791114,
			"-0.001": 28.0913156271,
			"0.0": 23.5367091755,
			"0.001": 17.3266594866,
			"0.002": 6.12361041585,
			"0.003": 2.17317509231,
			"0.004": 2.2620642006,
			"0.005": 3.32250840076,
			"0.006": 3.08595274275,
			"0.007": 2.5242088539,
			"0.008": 2.4851271695,
			"0.009": 3.70076011136,
			"0.01": 4.03605906372,
			"0.011": 7.32681876615,
			"0.012": 8.8359553958,
			"0.013": 4.11177044502,
			"0.014": 0.137987702277,
			"0.015": 0.0,
			"0.016": 0.0,
			"0.017": 0.0,
			"0.018": 0.0,
			"0.019": 0.0,
			"0.02": 0.0,
			"0.021": 0.0,
			"0.022": 0.0,
			"0.023": 0.0,
			"0.024": 0.0,
			"0.025": 0.0
		}
	}
}
