{
	 "smiles": "FC1=CC(F)=C(C=C1F)N(=O)=O", 
	 "Tm": 262.15, 
	 "num_atms": 14, 
	 "gaussian": { 
		 "optdone": 1, 
		 "sigma_profile": "yes", 
		 "theory": "DFT", 
		 "functional": "B3LYP", 
		 "basiset": "6-31G**", 
		 "properties": { 
			 "R2extent": 2382.7499, 
			 "electric_dipole_moment_norm": 3.18316991221, 
			 "electric_quadrupole_moment_norm": 7.11301339237, 
			 "total_energy": -734.42047941, 
			 "HOMO_LUMO_gap": 0.17664, 
			 "cosmo_polarized_energy": -7.88, 
			 "cosmo_cavitation_energy": 21.33, 
			 "cosmo_dispersion_energy": -15.39, 
			 "cosmo_repulsion_energy": 1.15, 
			 "cosmo_total_nonelectrostatic_energy": 7.1, 
			 "SMD_solvation_energy": 7.48 
		},
		"coords": [
			{
				"x": -2.4831223905,
				"y": -0.7283240325,
				"z": -2.6928165868,
				"element": "F" 
			},
			{
				"x": -1.751737238,
				"y": -0.1423733011,
				"z": -1.7432225023,
				"element": "C" 
			},
			{
				"x": -0.7759305202,
				"y": -0.8613011614,
				"z": -1.070984301,
				"element": "C" 
			},
			{
				"x": -0.0209691171,
				"y": -0.2338519152,
				"z": -0.0817867533,
				"element": "C" 
			},
			{
				"x": 0.9042405163,
				"y": -0.9637994294,
				"z": 0.536400598,
				"element": "F" 
			},
			{
				"x": -0.2506297145,
				"y": 1.1149655649,
				"z": 0.2274379687,
				"element": "C" 
			},
			{
				"x": -1.2392993417,
				"y": 1.8291334381,
				"z": -0.4592509906,
				"element": "C" 
			},
			{
				"x": -1.9846049452,
				"y": 1.2035332881,
				"z": -1.4381216367,
				"element": "C" 
			},
			{
				"x": -2.9355063477,
				"y": 1.8670249496,
				"z": -2.1077806052,
				"element": "F" 
			},
			{
				"x": 0.5112893218,
				"y": 1.8310823812,
				"z": 1.258050769,
				"element": "N" 
			},
			{
				"x": 0.2230009801,
				"y": 3.0139762848,
				"z": 1.4431424537,
				"element": "O" 
			},
			{
				"x": 1.380060629,
				"y": 1.2140047673,
				"z": 1.8661766328,
				"element": "O" 
			},
			{
				"x": -0.5971887209,
				"y": -1.9029338975,
				"z": -1.3084871652,
				"element": "H" 
			},
			{
				"x": -1.4080031115,
				"y": 2.8693630631,
				"z": -0.2125578812,
				"element": "H" 
			}
		],
		 "valence_orbital": [ 
			{
				"type": "occ",
				"energy": -0.32014,
				"method": "rhf"
			},
			{
				"type": "occ",
				"energy": -0.31869,
				"method": "rhf"
			},
			{
				"type": "occ",
				"energy": -0.30218,
				"method": "rhf"
			},
			{
				"type": "occ",
				"energy": -0.30117,
				"method": "rhf"
			},
			{
				"type": "occ",
				"energy": -0.27864,
				"method": "rhf"
			},
			{
				"type": "unocc",
				"energy": -0.102,
				"method": "rhf"
			},
			{
				"type": "unocc",
				"energy": -0.0439,
				"method": "rhf"
			},
			{
				"type": "unocc",
				"energy": -0.0125,
				"method": "rhf"
			},
			{
				"type": "unocc",
				"energy": 0.03474,
				"method": "rhf"
			},
			{
				"type": "unocc",
				"energy": 0.08607,
				"method": "rhf"
			}
		],
		"cosmo_sigma_profile": { 
			"-0.025": 0.0,
			"-0.024": 0.0,
			"-0.023": 0.0,
			"-0.022": 0.0,
			"-0.021": 0.0,
			"-0.02": 0.0,
			"-0.019": 0.0,
			"-0.018": 0.0,
			"-0.017": 0.0,
			"-0.016": 0.0,
			"-0.015": 0.0,
			"-0.014": 0.0,
			"-0.013": 0.0,
			"-0.012": 0.0,
			"-0.011": 0.570004305824,
			"-0.01": 2.31552178233,
			"-0.009": 2.16720228291,
			"-0.008": 3.5758792422,
			"-0.007": 3.53141830634,
			"-0.006": 6.32935276281,
			"-0.005": 6.74695674729,
			"-0.004": 15.4495146429,
			"-0.003": 19.8430208864,
			"-0.002": 16.0510597302,
			"-0.001": 9.71676424028,
			"0.0": 6.05757951363,
			"0.001": 7.63665667146,
			"0.002": 21.9205639573,
			"0.003": 17.1983452464,
			"0.004": 3.13645446022,
			"0.005": 4.16042919281,
			"0.006": 4.89234084291,
			"0.007": 10.1900590921,
			"0.008": 6.75917669939,
			"0.009": 3.9879581851,
			"0.01": 1.00120184526,
			"0.011": 0.0,
			"0.012": 0.0,
			"0.013": 0.0,
			"0.014": 0.0,
			"0.015": 0.0,
			"0.016": 0.0,
			"0.017": 0.0,
			"0.018": 0.0,
			"0.019": 0.0,
			"0.02": 0.0,
			"0.021": 0.0,
			"0.022": 0.0,
			"0.023": 0.0,
			"0.024": 0.0,
			"0.025": 0.0
		}
	}
}
