{
	 "smiles": "CCCCCS(=O)(=O)CC(O)=O", 
	 "Tm": 343.15, 
	 "num_atms": 26, 
	 "gaussian": { 
		 "optdone": 1, 
		 "sigma_profile": "yes", 
		 "theory": "DFT", 
		 "functional": "B3LYP", 
		 "basiset": "6-31G**", 
		 "properties": { 
			 "R2extent": 4643.2342, 
			 "electric_dipole_moment_norm": 5.62559547781, 
			 "electric_quadrupole_moment_norm": 18.3888899554, 
			 "total_energy": -974.227272392, 
			 "HOMO_LUMO_gap": 0.25542, 
			 "cosmo_polarized_energy": -19.24, 
			 "cosmo_cavitation_energy": 30.38, 
			 "cosmo_dispersion_energy": -21.84, 
			 "cosmo_repulsion_energy": 1.76, 
			 "cosmo_total_nonelectrostatic_energy": 10.3, 
			 "SMD_solvation_energy": 5.39 
		},
		"coords": [
			{
				"x": -3.3237506966,
				"y": 1.7264956284,
				"z": -1.9670948552,
				"element": "C" 
			},
			{
				"x": -2.7422348777,
				"y": 1.3472308257,
				"z": -0.6000835824,
				"element": "C" 
			},
			{
				"x": -1.2086490449,
				"y": 1.2396868572,
				"z": -0.567428086,
				"element": "C" 
			},
			{
				"x": -0.6439872112,
				"y": 0.0987266928,
				"z": -1.4299136384,
				"element": "C" 
			},
			{
				"x": 0.8764729406,
				"y": 0.0084195569,
				"z": -1.3100211213,
				"element": "C" 
			},
			{
				"x": 1.6508796289,
				"y": -1.2012562582,
				"z": -2.4270620474,
				"element": "S" 
			},
			{
				"x": 3.107974031,
				"y": -1.0804717637,
				"z": -2.2767762004,
				"element": "O" 
			},
			{
				"x": 1.0122952463,
				"y": -1.0914546562,
				"z": -3.7477524208,
				"element": "O" 
			},
			{
				"x": 1.1636027649,
				"y": -2.8569761671,
				"z": -1.7840711381,
				"element": "C" 
			},
			{
				"x": 1.9476440844,
				"y": -3.3112384681,
				"z": -0.5748676185,
				"element": "C" 
			},
			{
				"x": 1.6965701722,
				"y": -2.5310449005,
				"z": 0.506061569,
				"element": "O" 
			},
			{
				"x": 2.6934233393,
				"y": -4.2586133623,
				"z": -0.5492304645,
				"element": "O" 
			},
			{
				"x": -3.1149633141,
				"y": 0.968232675,
				"z": -2.7286000197,
				"element": "H" 
			},
			{
				"x": -4.4109192355,
				"y": 1.8411833762,
				"z": -1.9109203629,
				"element": "H" 
			},
			{
				"x": -2.9079600787,
				"y": 2.6762768772,
				"z": -2.3227320186,
				"element": "H" 
			},
			{
				"x": -3.1777250562,
				"y": 0.3957134328,
				"z": -0.2654154345,
				"element": "H" 
			},
			{
				"x": -3.0498951843,
				"y": 2.0965091532,
				"z": 0.1398055509,
				"element": "H" 
			},
			{
				"x": -0.7708544355,
				"y": 2.1917904262,
				"z": -0.8983189963,
				"element": "H" 
			},
			{
				"x": -0.8833294584,
				"y": 1.097022128,
				"z": 0.4715528825,
				"element": "H" 
			},
			{
				"x": -1.1023702625,
				"y": -0.8473621352,
				"z": -1.1121387559,
				"element": "H" 
			},
			{
				"x": -0.9058615956,
				"y": 0.2419408952,
				"z": -2.4821884095,
				"element": "H" 
			},
			{
				"x": 1.2139812877,
				"y": -0.2490781301,
				"z": -0.303292525,
				"element": "H" 
			},
			{
				"x": 1.3629511988,
				"y": 0.9437230668,
				"z": -1.6078652923,
				"element": "H" 
			},
			{
				"x": 0.0906408619,
				"y": -2.8269140992,
				"z": -1.5780976372,
				"element": "H" 
			},
			{
				"x": 1.3603981917,
				"y": -3.5335483825,
				"z": -2.6161919898,
				"element": "H" 
			},
			{
				"x": 2.2594667035,
				"y": -2.8670932685,
				"z": 1.2242426123,
				"element": "H" 
			}
		],
		 "valence_orbital": [ 
			{
				"type": "occ",
				"energy": -0.32833,
				"method": "rhf"
			},
			{
				"type": "occ",
				"energy": -0.31985,
				"method": "rhf"
			},
			{
				"type": "occ",
				"energy": -0.30419,
				"method": "rhf"
			},
			{
				"type": "occ",
				"energy": -0.29896,
				"method": "rhf"
			},
			{
				"type": "occ",
				"energy": -0.28339,
				"method": "rhf"
			},
			{
				"type": "unocc",
				"energy": -0.02797,
				"method": "rhf"
			},
			{
				"type": "unocc",
				"energy": 0.05212,
				"method": "rhf"
			},
			{
				"type": "unocc",
				"energy": 0.06241,
				"method": "rhf"
			},
			{
				"type": "unocc",
				"energy": 0.06477,
				"method": "rhf"
			},
			{
				"type": "unocc",
				"energy": 0.07514,
				"method": "rhf"
			}
		],
		"cosmo_sigma_profile": { 
			"-0.025": 0.0,
			"-0.024": 0.0,
			"-0.023": 0.0,
			"-0.022": 0.0,
			"-0.021": 0.0,
			"-0.02": 0.0145058120351,
			"-0.019": 0.603977195946,
			"-0.018": 1.22929748055,
			"-0.017": 0.758101378473,
			"-0.016": 0.815547265792,
			"-0.015": 0.396163370679,
			"-0.014": 0.989730379722,
			"-0.013": 0.902155480396,
			"-0.012": 0.711675618627,
			"-0.011": 0.848056424444,
			"-0.01": 4.38005300587,
			"-0.009": 5.49558499748,
			"-0.008": 6.11019749998,
			"-0.007": 5.98602636472,
			"-0.006": 8.6385467386,
			"-0.005": 8.85461292774,
			"-0.004": 10.4880136721,
			"-0.003": 20.5703033142,
			"-0.002": 23.4388596032,
			"-0.001": 25.2550261725,
			"0.0": 21.8942087963,
			"0.001": 17.6364282413,
			"0.002": 8.24156082412,
			"0.003": 4.42262408718,
			"0.004": 5.77566193583,
			"0.005": 3.26593183506,
			"0.006": 3.54455832343,
			"0.007": 4.776229311,
			"0.008": 4.65216742876,
			"0.009": 5.468875756,
			"0.01": 9.69582307245,
			"0.011": 14.4829883563,
			"0.012": 6.54114081823,
			"0.013": 0.0552767019622,
			"0.014": 0.0,
			"0.015": 0.0,
			"0.016": 0.0,
			"0.017": 0.0,
			"0.018": 0.0,
			"0.019": 0.0,
			"0.02": 0.0,
			"0.021": 0.0,
			"0.022": 0.0,
			"0.023": 0.0,
			"0.024": 0.0,
			"0.025": 0.0
		}
	}
}
