{
	 "smiles": "CC(=O)NC1=C(F)C=C(F)C(N)=C1", 
	 "Tm": 378.15, 
	 "num_atms": 21, 
	 "gaussian": { 
		 "optdone": 1, 
		 "sigma_profile": "yes", 
		 "theory": "DFT", 
		 "functional": "B3LYP", 
		 "basiset": "6-31G**", 
		 "properties": { 
			 "R2extent": 2843.776, 
			 "electric_dipole_moment_norm": 4.60709332226, 
			 "electric_quadrupole_moment_norm": 17.1925333421, 
			 "total_energy": -694.081442114, 
			 "HOMO_LUMO_gap": 0.19034, 
			 "cosmo_polarized_energy": -14.48, 
			 "cosmo_cavitation_energy": 26.21, 
			 "cosmo_dispersion_energy": -18.84, 
			 "cosmo_repulsion_energy": 1.47, 
			 "cosmo_total_nonelectrostatic_energy": 8.84, 
			 "SMD_solvation_energy": 6.33 
		},
		"coords": [
			{
				"x": -1.2564550189,
				"y": 2.8576933129,
				"z": -1.818945272,
				"element": "C" 
			},
			{
				"x": -2.2211497213,
				"y": 2.1791484668,
				"z": -0.8665500816,
				"element": "C" 
			},
			{
				"x": -3.3709393481,
				"y": 2.5576196311,
				"z": -0.7038502339,
				"element": "O" 
			},
			{
				"x": -1.7468390555,
				"y": 1.0929317464,
				"z": -0.1469806463,
				"element": "N" 
			},
			{
				"x": -0.4726271108,
				"y": 0.4782725276,
				"z": -0.1855227941,
				"element": "C" 
			},
			{
				"x": 0.0309179778,
				"y": -0.0958498019,
				"z": -1.3570144611,
				"element": "C" 
			},
			{
				"x": -0.6957966694,
				"y": -0.0461703423,
				"z": -2.4953495732,
				"element": "F" 
			},
			{
				"x": 1.2727702375,
				"y": -0.7208498946,
				"z": -1.3854250239,
				"element": "C" 
			},
			{
				"x": 1.9940683026,
				"y": -0.8036219632,
				"z": -0.207920303,
				"element": "C" 
			},
			{
				"x": 3.2089774142,
				"y": -1.4058297913,
				"z": -0.2064858558,
				"element": "F" 
			},
			{
				"x": 1.5324151451,
				"y": -0.2760963678,
				"z": 1.008198566,
				"element": "C" 
			},
			{
				"x": 2.2796834316,
				"y": -0.4517818728,
				"z": 2.1694358971,
				"element": "N" 
			},
			{
				"x": 0.2925207636,
				"y": 0.3741350394,
				"z": 0.9857955633,
				"element": "C" 
			},
			{
				"x": -1.674063939,
				"y": 3.8297766203,
				"z": -2.0799945383,
				"element": "H" 
			},
			{
				"x": -1.1423492104,
				"y": 2.2601187992,
				"z": -2.7271262888,
				"element": "H" 
			},
			{
				"x": -0.2641980801,
				"y": 2.9833217437,
				"z": -1.3758409166,
				"element": "H" 
			},
			{
				"x": -2.4228470697,
				"y": 0.7393116888,
				"z": 0.518815714,
				"element": "H" 
			},
			{
				"x": 1.6578067749,
				"y": -1.1499332686,
				"z": -2.3026077727,
				"element": "H" 
			},
			{
				"x": 3.2540317085,
				"y": -0.6644422837,
				"z": 2.0058426929,
				"element": "H" 
			},
			{
				"x": 2.1479316617,
				"y": 0.2538830337,
				"z": 2.8801097168,
				"element": "H" 
			},
			{
				"x": -0.0976581942,
				"y": 0.815862976,
				"z": 1.8982156111,
				"element": "H" 
			}
		],
		 "valence_orbital": [ 
			{
				"type": "occ",
				"energy": -0.32404,
				"method": "rhf"
			},
			{
				"type": "occ",
				"energy": -0.28391,
				"method": "rhf"
			},
			{
				"type": "occ",
				"energy": -0.24956,
				"method": "rhf"
			},
			{
				"type": "occ",
				"energy": -0.24348,
				"method": "rhf"
			},
			{
				"type": "occ",
				"energy": -0.21468,
				"method": "rhf"
			},
			{
				"type": "unocc",
				"energy": -0.02434,
				"method": "rhf"
			},
			{
				"type": "unocc",
				"energy": 0.0008,
				"method": "rhf"
			},
			{
				"type": "unocc",
				"energy": 0.03444,
				"method": "rhf"
			},
			{
				"type": "unocc",
				"energy": 0.06605,
				"method": "rhf"
			},
			{
				"type": "unocc",
				"energy": 0.07571,
				"method": "rhf"
			}
		],
		"cosmo_sigma_profile": { 
			"-0.025": 0.0,
			"-0.024": 0.0,
			"-0.023": 0.0,
			"-0.022": 0.0,
			"-0.021": 0.0,
			"-0.02": 0.0,
			"-0.019": 0.0,
			"-0.018": 0.0,
			"-0.017": 0.0,
			"-0.016": 0.0,
			"-0.015": 0.0,
			"-0.014": 0.763456843272,
			"-0.013": 2.18159737504,
			"-0.012": 3.08431950963,
			"-0.011": 3.61665440276,
			"-0.01": 3.80681402895,
			"-0.009": 4.83458090237,
			"-0.008": 5.00985515913,
			"-0.007": 5.92579334181,
			"-0.006": 6.77065109352,
			"-0.005": 8.37146855006,
			"-0.004": 8.48774347908,
			"-0.003": 10.9583155693,
			"-0.002": 14.5347564168,
			"-0.001": 16.2852854908,
			"0.0": 14.884255234,
			"0.001": 20.0405060185,
			"0.002": 18.4627649718,
			"0.003": 15.4472933972,
			"0.004": 15.4714151526,
			"0.005": 4.28891139865,
			"0.006": 1.69284214974,
			"0.007": 1.66747114331,
			"0.008": 2.54782070466,
			"0.009": 1.29864056934,
			"0.01": 2.31117266771,
			"0.011": 1.81002877902,
			"0.012": 3.40419251845,
			"0.013": 5.03909368937,
			"0.014": 4.78471589527,
			"0.015": 0.863781221748,
			"0.016": 0.0,
			"0.017": 0.0,
			"0.018": 0.0,
			"0.019": 0.0,
			"0.02": 0.0,
			"0.021": 0.0,
			"0.022": 0.0,
			"0.023": 0.0,
			"0.024": 0.0,
			"0.025": 0.0
		}
	}
}
