{
	 "smiles": "CC(O)(P(O)(O)=O)P(O)(O)=O", 
	 "Tm": 472.15, 
	 "num_atms": 19, 
	 "gaussian": { 
		 "optdone": 1, 
		 "sigma_profile": "yes", 
		 "theory": "DFT", 
		 "functional": "B3LYP", 
		 "basiset": "6-31G**", 
		 "properties": { 
			 "R2extent": 2866.8932, 
			 "electric_dipole_moment_norm": 2.30748115052, 
			 "electric_quadrupole_moment_norm": 18.7286843905, 
			 "total_energy": -1290.44288075, 
			 "HOMO_LUMO_gap": 0.30431, 
			 "cosmo_polarized_energy": -24.26, 
			 "cosmo_cavitation_energy": 25.29, 
			 "cosmo_dispersion_energy": -19.06, 
			 "cosmo_repulsion_energy": 1.47, 
			 "cosmo_total_nonelectrostatic_energy": 7.7, 
			 "SMD_solvation_energy": 8.49 
		},
		"coords": [
			{
				"x": 1.5376378975,
				"y": 1.4500503047,
				"z": 0.4738707648,
				"element": "C" 
			},
			{
				"x": 0.9997455301,
				"y": 0.0185913935,
				"z": 0.3596293831,
				"element": "C" 
			},
			{
				"x": -0.1690781561,
				"y": -0.0427705597,
				"z": -0.468167306,
				"element": "O" 
			},
			{
				"x": 0.4829104475,
				"y": -0.6528125626,
				"z": 2.0107415795,
				"element": "P" 
			},
			{
				"x": -0.2192917568,
				"y": 0.5534351549,
				"z": 2.8259256576,
				"element": "O" 
			},
			{
				"x": -0.7350973631,
				"y": -1.6206552057,
				"z": 1.6489975273,
				"element": "O" 
			},
			{
				"x": 1.6448672502,
				"y": -1.2378929046,
				"z": 2.7503928959,
				"element": "O" 
			},
			{
				"x": 2.3131478125,
				"y": -1.0767646953,
				"z": -0.3795908123,
				"element": "P" 
			},
			{
				"x": 3.4650096374,
				"y": -1.1601734843,
				"z": 0.7251162232,
				"element": "O" 
			},
			{
				"x": 1.5488404482,
				"y": -2.5125757744,
				"z": -0.3793230581,
				"element": "O" 
			},
			{
				"x": 2.7357199273,
				"y": -0.6112473096,
				"z": -1.7234904766,
				"element": "O" 
			},
			{
				"x": 1.8764189569,
				"y": 1.7900814847,
				"z": -0.5090117887,
				"element": "H" 
			},
			{
				"x": 0.7484032141,
				"y": 2.1116784736,
				"z": 0.8365728067,
				"element": "H" 
			},
			{
				"x": 2.3929832709,
				"y": 1.4974441882,
				"z": 1.1540789421,
				"element": "H" 
			},
			{
				"x": 0.1044026432,
				"y": 0.1222320875,
				"z": -1.384374539,
				"element": "H" 
			},
			{
				"x": 0.3018585978,
				"y": 0.7794989985,
				"z": 3.6101925973,
				"element": "H" 
			},
			{
				"x": -0.9435264324,
				"y": -1.5341928098,
				"z": 0.6993502582,
				"element": "H" 
			},
			{
				"x": 3.0624585705,
				"y": -1.3378247957,
				"z": 1.613516871,
				"element": "H" 
			},
			{
				"x": 1.8464895047,
				"y": -3.061601984,
				"z": -1.119627526,
				"element": "H" 
			}
		],
		 "valence_orbital": [ 
			{
				"type": "occ",
				"energy": -0.32231,
				"method": "rhf"
			},
			{
				"type": "occ",
				"energy": -0.31894,
				"method": "rhf"
			},
			{
				"type": "occ",
				"energy": -0.31263,
				"method": "rhf"
			},
			{
				"type": "occ",
				"energy": -0.30238,
				"method": "rhf"
			},
			{
				"type": "occ",
				"energy": -0.29142,
				"method": "rhf"
			},
			{
				"type": "unocc",
				"energy": 0.01289,
				"method": "rhf"
			},
			{
				"type": "unocc",
				"energy": 0.03628,
				"method": "rhf"
			},
			{
				"type": "unocc",
				"energy": 0.04271,
				"method": "rhf"
			},
			{
				"type": "unocc",
				"energy": 0.06191,
				"method": "rhf"
			},
			{
				"type": "unocc",
				"energy": 0.07145,
				"method": "rhf"
			}
		],
		"cosmo_sigma_profile": { 
			"-0.025": 0.0,
			"-0.024": 0.0,
			"-0.023": 0.0,
			"-0.022": 0.0,
			"-0.021": 0.0,
			"-0.02": 0.523473222755,
			"-0.019": 2.22645552453,
			"-0.018": 1.60397997994,
			"-0.017": 2.25422628481,
			"-0.016": 2.37064163546,
			"-0.015": 2.68451676364,
			"-0.014": 2.40321274373,
			"-0.013": 2.71913829576,
			"-0.012": 2.63141664007,
			"-0.011": 3.15848908361,
			"-0.01": 2.61196704317,
			"-0.009": 2.56963421197,
			"-0.008": 4.8353345709,
			"-0.007": 4.91690257288,
			"-0.006": 6.80544078045,
			"-0.005": 9.12807467813,
			"-0.004": 8.66627386359,
			"-0.003": 9.62661786741,
			"-0.002": 12.2331803021,
			"-0.001": 10.5161364,
			"0.0": 7.70875967136,
			"0.001": 7.55108974519,
			"0.002": 7.56391063153,
			"0.003": 6.08925692002,
			"0.004": 5.64756510482,
			"0.005": 6.60791243065,
			"0.006": 8.21899058132,
			"0.007": 6.60323827128,
			"0.008": 9.70033166333,
			"0.009": 8.17722285765,
			"0.01": 5.71585093722,
			"0.011": 3.92205960579,
			"0.012": 2.49763724672,
			"0.013": 5.42847882629,
			"0.014": 5.8591501614,
			"0.015": 0.994734809557,
			"0.016": 0.0,
			"0.017": 0.0,
			"0.018": 0.0,
			"0.019": 0.0,
			"0.02": 0.0,
			"0.021": 0.0,
			"0.022": 0.0,
			"0.023": 0.0,
			"0.024": 0.0,
			"0.025": 0.0
		}
	}
}
