{
	 "smiles": "OC1=C(Cl)N=CC=C1", 
	 "Tm": 443.15, 
	 "num_atms": 12, 
	 "gaussian": { 
		 "optdone": 1, 
		 "sigma_profile": "yes", 
		 "theory": "DFT", 
		 "functional": "B3LYP", 
		 "basiset": "6-31G**", 
		 "properties": { 
			 "R2extent": 1438.9735, 
			 "electric_dipole_moment_norm": 4.76226685729, 
			 "electric_quadrupole_moment_norm": 7.6383651798, 
			 "total_energy": -783.096001658, 
			 "HOMO_LUMO_gap": 0.20554, 
			 "cosmo_polarized_energy": -12.98, 
			 "cosmo_cavitation_energy": 18.17, 
			 "cosmo_dispersion_energy": -14.02, 
			 "cosmo_repulsion_energy": 1.17, 
			 "cosmo_total_nonelectrostatic_energy": 5.32, 
			 "SMD_solvation_energy": 2.08 
		},
		"coords": [
			{
				"x": -0.6736126233,
				"y": -1.8838691542,
				"z": 1.3898000447,
				"element": "O" 
			},
			{
				"x": 0.1041212255,
				"y": -1.1890347267,
				"z": 0.5240873476,
				"element": "C" 
			},
			{
				"x": -0.0091642573,
				"y": -1.445289319,
				"z": -0.8580281772,
				"element": "C" 
			},
			{
				"x": -1.1590009973,
				"y": -2.6594393795,
				"z": -1.3947064402,
				"element": "Cl" 
			},
			{
				"x": 0.6982331821,
				"y": -0.8269724692,
				"z": -1.7786094364,
				"element": "N" 
			},
			{
				"x": 1.5830083656,
				"y": 0.1042379792,
				"z": -1.3946224589,
				"element": "C" 
			},
			{
				"x": 1.7808881274,
				"y": 0.4409794693,
				"z": -0.0588661082,
				"element": "C" 
			},
			{
				"x": 1.0279649384,
				"y": -0.2179483185,
				"z": 0.9131778806,
				"element": "C" 
			},
			{
				"x": -0.4821399953,
				"y": -1.5979623435,
				"z": 2.29308076,
				"element": "H" 
			},
			{
				"x": 2.1454543435,
				"y": 0.5895742927,
				"z": -2.1877961165,
				"element": "H" 
			},
			{
				"x": 2.5049324903,
				"y": 1.1993902432,
				"z": 0.2201243622,
				"element": "H" 
			},
			{
				"x": 1.1525152004,
				"y": 0.0160337263,
				"z": 1.9683583423,
				"element": "H" 
			}
		],
		 "valence_orbital": [ 
			{
				"type": "occ",
				"energy": -0.33627,
				"method": "rhf"
			},
			{
				"type": "occ",
				"energy": -0.3065,
				"method": "rhf"
			},
			{
				"type": "occ",
				"energy": -0.28548,
				"method": "rhf"
			},
			{
				"type": "occ",
				"energy": -0.27328,
				"method": "rhf"
			},
			{
				"type": "occ",
				"energy": -0.23978,
				"method": "rhf"
			},
			{
				"type": "unocc",
				"energy": -0.03424,
				"method": "rhf"
			},
			{
				"type": "unocc",
				"energy": -0.01257,
				"method": "rhf"
			},
			{
				"type": "unocc",
				"energy": 0.03956,
				"method": "rhf"
			},
			{
				"type": "unocc",
				"energy": 0.05183,
				"method": "rhf"
			},
			{
				"type": "unocc",
				"energy": 0.09848,
				"method": "rhf"
			}
		],
		"cosmo_sigma_profile": { 
			"-0.025": 0.0,
			"-0.024": 0.0,
			"-0.023": 0.0,
			"-0.022": 0.0,
			"-0.021": 0.0,
			"-0.02": 0.035325193453,
			"-0.019": 0.837925401711,
			"-0.018": 1.34419805232,
			"-0.017": 1.50625994024,
			"-0.016": 1.03944668586,
			"-0.015": 1.04318700678,
			"-0.014": 0.711185429222,
			"-0.013": 0.544675711431,
			"-0.012": 1.76536960037,
			"-0.011": 1.17176057997,
			"-0.01": 1.1332060587,
			"-0.009": 1.46495136779,
			"-0.008": 2.83102893713,
			"-0.007": 5.72603328288,
			"-0.006": 7.13126613578,
			"-0.005": 5.41954907811,
			"-0.004": 5.00472432124,
			"-0.003": 4.59764106001,
			"-0.002": 5.526901223,
			"-0.001": 8.56346363645,
			"0.0": 12.8667234862,
			"0.001": 13.0610713546,
			"0.002": 14.4574263268,
			"0.003": 7.08040502815,
			"0.004": 9.90856310576,
			"0.005": 9.38511425802,
			"0.006": 4.97573738079,
			"0.007": 4.55323680959,
			"0.008": 3.03854215036,
			"0.009": 3.18206875761,
			"0.01": 3.85086865961,
			"0.011": 1.61138126459,
			"0.012": 0.900734014964,
			"0.013": 0.997302745384,
			"0.014": 0.873369302358,
			"0.015": 0.171071179724,
			"0.016": 0.0,
			"0.017": 0.0,
			"0.018": 0.0,
			"0.019": 0.0,
			"0.02": 0.0,
			"0.021": 0.0,
			"0.022": 0.0,
			"0.023": 0.0,
			"0.024": 0.0,
			"0.025": 0.0
		}
	}
}
