{
	 "smiles": "CC1=CC(=CC(C)=C1[N+]([O-])=O)C(O)=O", 
	 "Tm": 497.15, 
	 "num_atms": 23, 
	 "gaussian": { 
		 "optdone": 1, 
		 "sigma_profile": "yes", 
		 "theory": "DFT", 
		 "functional": "B3LYP", 
		 "basiset": "6-31G**", 
		 "properties": { 
			 "R2extent": 3343.8959, 
			 "electric_dipole_moment_norm": 2.37839591532, 
			 "electric_quadrupole_moment_norm": 30.1453052413, 
			 "total_energy": -703.942260484, 
			 "HOMO_LUMO_gap": 0.1766, 
			 "cosmo_polarized_energy": -16.94, 
			 "cosmo_cavitation_energy": 27.83, 
			 "cosmo_dispersion_energy": -19.97, 
			 "cosmo_repulsion_energy": 1.56, 
			 "cosmo_total_nonelectrostatic_energy": 9.42, 
			 "SMD_solvation_energy": 8.19 
		},
		"coords": [
			{
				"x": -0.8198029457,
				"y": -1.0744284697,
				"z": 2.3683477555,
				"element": "C" 
			},
			{
				"x": -0.1374053714,
				"y": -0.1699911797,
				"z": 1.3701204622,
				"element": "C" 
			},
			{
				"x": 1.19586129,
				"y": -0.4022730557,
				"z": 1.0260480789,
				"element": "C" 
			},
			{
				"x": 1.8665286358,
				"y": 0.4106348879,
				"z": 0.1094717237,
				"element": "C" 
			},
			{
				"x": 1.199563341,
				"y": 1.4948593498,
				"z": -0.4692039654,
				"element": "C" 
			},
			{
				"x": -0.1414286676,
				"y": 1.7668510065,
				"z": -0.180947705,
				"element": "C" 
			},
			{
				"x": -0.8242902831,
				"y": 2.9439667411,
				"z": -0.8361716238,
				"element": "C" 
			},
			{
				"x": -0.7750801589,
				"y": 0.9140880681,
				"z": 0.7390182512,
				"element": "C" 
			},
			{
				"x": -2.1891632944,
				"y": 1.1773324435,
				"z": 1.0651490592,
				"element": "N" 
			},
			{
				"x": -2.5064725042,
				"y": 1.1952047192,
				"z": 2.2527591236,
				"element": "O" 
			},
			{
				"x": -2.9634081078,
				"y": 1.3623497566,
				"z": 0.1273430343,
				"element": "O" 
			},
			{
				"x": 3.3064312668,
				"y": 0.090606026,
				"z": -0.1794130417,
				"element": "C" 
			},
			{
				"x": 3.8163090477,
				"y": 0.5666352678,
				"z": -1.3448607215,
				"element": "O" 
			},
			{
				"x": 3.9996563759,
				"y": -0.5553160312,
				"z": 0.5691249103,
				"element": "O" 
			},
			{
				"x": -1.818469699,
				"y": -1.3748837619,
				"z": 2.03941387,
				"element": "H" 
			},
			{
				"x": -0.943129265,
				"y": -0.5699077384,
				"z": 3.3303231693,
				"element": "H" 
			},
			{
				"x": -0.2219739814,
				"y": -1.9757021332,
				"z": 2.5203120463,
				"element": "H" 
			},
			{
				"x": 1.7380005658,
				"y": -1.2264699101,
				"z": 1.4769297906,
				"element": "H" 
			},
			{
				"x": 1.7232555571,
				"y": 2.1774007195,
				"z": -1.1339229551,
				"element": "H" 
			},
			{
				"x": -0.079106137,
				"y": 3.6036348176,
				"z": -1.2874212775,
				"element": "H" 
			},
			{
				"x": -1.5152131899,
				"y": 2.611593898,
				"z": -1.6154396905,
				"element": "H" 
			},
			{
				"x": -1.4112296736,
				"y": 3.5300562649,
				"z": -0.123836588,
				"element": "H" 
			},
			{
				"x": 3.1088671988,
				"y": 0.9126583134,
				"z": -1.9064437066,
				"element": "H" 
			}
		],
		 "valence_orbital": [ 
			{
				"type": "occ",
				"energy": -0.31516,
				"method": "rhf"
			},
			{
				"type": "occ",
				"energy": -0.31478,
				"method": "rhf"
			},
			{
				"type": "occ",
				"energy": -0.28863,
				"method": "rhf"
			},
			{
				"type": "occ",
				"energy": -0.27935,
				"method": "rhf"
			},
			{
				"type": "occ",
				"energy": -0.27502,
				"method": "rhf"
			},
			{
				"type": "unocc",
				"energy": -0.09842,
				"method": "rhf"
			},
			{
				"type": "unocc",
				"energy": -0.05159,
				"method": "rhf"
			},
			{
				"type": "unocc",
				"energy": -0.03745,
				"method": "rhf"
			},
			{
				"type": "unocc",
				"energy": 0.0306,
				"method": "rhf"
			},
			{
				"type": "unocc",
				"energy": 0.04962,
				"method": "rhf"
			}
		],
		"cosmo_sigma_profile": { 
			"-0.025": 0.0,
			"-0.024": 0.0,
			"-0.023": 0.0,
			"-0.022": 0.0,
			"-0.021": 0.0,
			"-0.02": 0.0,
			"-0.019": 0.299257799544,
			"-0.018": 1.34726640195,
			"-0.017": 0.828276369456,
			"-0.016": 0.833401594589,
			"-0.015": 1.1120107036,
			"-0.014": 1.45263773863,
			"-0.013": 0.950623761493,
			"-0.012": 0.817919675304,
			"-0.011": 1.48810853108,
			"-0.01": 1.21769438636,
			"-0.009": 2.11589379684,
			"-0.008": 4.40835437935,
			"-0.007": 6.44594136618,
			"-0.006": 9.43303500603,
			"-0.005": 11.639480018,
			"-0.004": 14.4487146375,
			"-0.003": 15.0770474481,
			"-0.002": 18.741311333,
			"-0.001": 24.2579746531,
			"0.0": 18.0046673687,
			"0.001": 13.5574321267,
			"0.002": 6.82067192612,
			"0.003": 5.01518062878,
			"0.004": 5.42102252752,
			"0.005": 6.128799368,
			"0.006": 6.34973082761,
			"0.007": 11.4873703154,
			"0.008": 8.94992204098,
			"0.009": 7.10012744888,
			"0.01": 6.43337960982,
			"0.011": 5.29507756243,
			"0.012": 3.26091061008,
			"0.013": 0.632251860882,
			"0.014": 0.0,
			"0.015": 0.0,
			"0.016": 0.0,
			"0.017": 0.0,
			"0.018": 0.0,
			"0.019": 0.0,
			"0.02": 0.0,
			"0.021": 0.0,
			"0.022": 0.0,
			"0.023": 0.0,
			"0.024": 0.0,
			"0.025": 0.0
		}
	}
}
