{
	 "smiles": "CN1CCN(CC1)C(C1=CC=CC=C1)C1=CC=CC=C1", 
	 "Tm": 379.15, 
	 "num_atms": 42, 
	 "gaussian": { 
		 "optdone": 1, 
		 "sigma_profile": "yes", 
		 "theory": "DFT", 
		 "functional": "B3LYP", 
		 "basiset": "6-31G**", 
		 "properties": { 
			 "R2extent": 6264.7298, 
			 "electric_dipole_moment_norm": 0.884107018409, 
			 "electric_quadrupole_moment_norm": 5.22779571043, 
			 "total_energy": -808.648494958, 
			 "HOMO_LUMO_gap": 0.18714, 
			 "cosmo_polarized_energy": -7.79, 
			 "cosmo_cavitation_energy": 41.96, 
			 "cosmo_dispersion_energy": -28.77, 
			 "cosmo_repulsion_energy": 2.22, 
			 "cosmo_total_nonelectrostatic_energy": 15.41, 
			 "SMD_solvation_energy": 2.92 
		},
		"coords": [
			{
				"x": -3.5971810274,
				"y": -1.0139329666,
				"z": 3.6078831492,
				"element": "C" 
			},
			{
				"x": -2.9801625228,
				"y": 0.1107987664,
				"z": 2.9253642761,
				"element": "N" 
			},
			{
				"x": -3.1543406234,
				"y": 0.1000218826,
				"z": 1.460627747,
				"element": "C" 
			},
			{
				"x": -1.9008985888,
				"y": -0.3540595788,
				"z": 0.7102211716,
				"element": "C" 
			},
			{
				"x": -0.8023477789,
				"y": 0.604351081,
				"z": 0.9347703266,
				"element": "N" 
			},
			{
				"x": -0.8595038044,
				"y": 1.1789724056,
				"z": 2.3031936058,
				"element": "C" 
			},
			{
				"x": -1.5751401696,
				"y": 0.2728172316,
				"z": 3.3056380828,
				"element": "C" 
			},
			{
				"x": 0.5130831421,
				"y": 0.045775641,
				"z": 0.5853705228,
				"element": "C" 
			},
			{
				"x": 1.6230309928,
				"y": 1.0963522009,
				"z": 0.6810451399,
				"element": "C" 
			},
			{
				"x": 2.9062052224,
				"y": 0.7146451162,
				"z": 1.0910225375,
				"element": "C" 
			},
			{
				"x": 3.9510326436,
				"y": 1.6392209714,
				"z": 1.1298371558,
				"element": "C" 
			},
			{
				"x": 3.7243982721,
				"y": 2.9665820944,
				"z": 0.7629411008,
				"element": "C" 
			},
			{
				"x": 2.4461153494,
				"y": 3.3596047951,
				"z": 0.3604528677,
				"element": "C" 
			},
			{
				"x": 1.4043871727,
				"y": 2.4325822202,
				"z": 0.318778194,
				"element": "C" 
			},
			{
				"x": 0.5115533194,
				"y": -0.5569202371,
				"z": -0.8230516492,
				"element": "C" 
			},
			{
				"x": 1.0071483774,
				"y": -1.8472028538,
				"z": -1.0365166455,
				"element": "C" 
			},
			{
				"x": 1.0549768084,
				"y": -2.3943420991,
				"z": -2.3213210812,
				"element": "C" 
			},
			{
				"x": 0.5977627668,
				"y": -1.6559017574,
				"z": -3.4120778674,
				"element": "C" 
			},
			{
				"x": 0.0941061837,
				"y": -0.3677664752,
				"z": -3.2088116245,
				"element": "C" 
			},
			{
				"x": 0.0553073319,
				"y": 0.1777868711,
				"z": -1.9269388486,
				"element": "C" 
			},
			{
				"x": -3.1495261034,
				"y": -1.9956531266,
				"z": 3.3538445962,
				"element": "H" 
			},
			{
				"x": -3.4994888445,
				"y": -0.8804946705,
				"z": 4.6912277466,
				"element": "H" 
			},
			{
				"x": -4.6658673315,
				"y": -1.0564277313,
				"z": 3.3748383923,
				"element": "H" 
			},
			{
				"x": -3.9888135473,
				"y": -0.559682006,
				"z": 1.2029531218,
				"element": "H" 
			},
			{
				"x": -3.4265096869,
				"y": 1.1059385967,
				"z": 1.1120396583,
				"element": "H" 
			},
			{
				"x": -1.6308206286,
				"y": -1.3739108868,
				"z": 1.0434165395,
				"element": "H" 
			},
			{
				"x": -2.11249625,
				"y": -0.4230372394,
				"z": -0.3607740253,
				"element": "H" 
			},
			{
				"x": -1.3811087321,
				"y": 2.1443287661,
				"z": 2.2710113004,
				"element": "H" 
			},
			{
				"x": 0.1542414878,
				"y": 1.3819409062,
				"z": 2.6531857798,
				"element": "H" 
			},
			{
				"x": -1.0444861679,
				"y": -0.6992526423,
				"z": 3.3585987715,
				"element": "H" 
			},
			{
				"x": -1.5194725593,
				"y": 0.7118034851,
				"z": 4.3107906494,
				"element": "H" 
			},
			{
				"x": 0.7852226852,
				"y": -0.777546397,
				"z": 1.2756635794,
				"element": "H" 
			},
			{
				"x": 3.0894624239,
				"y": -0.3175619404,
				"z": 1.3803357563,
				"element": "H" 
			},
			{
				"x": 4.9395003241,
				"y": 1.3230955681,
				"z": 1.4516113408,
				"element": "H" 
			},
			{
				"x": 4.5345170266,
				"y": 3.6895253958,
				"z": 0.795974948,
				"element": "H" 
			},
			{
				"x": 2.258110403,
				"y": 4.3926025222,
				"z": 0.0803638217,
				"element": "H" 
			},
			{
				"x": 0.4071328606,
				"y": 2.7407775576,
				"z": 0.0217896692,
				"element": "H" 
			},
			{
				"x": 1.3579595608,
				"y": -2.4316034169,
				"z": -0.1892672025,
				"element": "H" 
			},
			{
				"x": 1.4445224159,
				"y": -3.3982617613,
				"z": -2.465973822,
				"element": "H" 
			},
			{
				"x": 0.6303429225,
				"y": -2.0788319486,
				"z": -4.412131993,
				"element": "H" 
			},
			{
				"x": -0.2674395886,
				"y": 0.2135781015,
				"z": -4.0526636232,
				"element": "H" 
			},
			{
				"x": -0.3400157378,
				"y": 1.1766875582,
				"z": -1.7717631664,
				"element": "H" 
			}
		],
		 "valence_orbital": [ 
			{
				"type": "occ",
				"energy": -0.24798,
				"method": "rhf"
			},
			{
				"type": "occ",
				"energy": -0.24347,
				"method": "rhf"
			},
			{
				"type": "occ",
				"energy": -0.22975,
				"method": "rhf"
			},
			{
				"type": "occ",
				"energy": -0.20628,
				"method": "rhf"
			},
			{
				"type": "occ",
				"energy": -0.19904,
				"method": "rhf"
			},
			{
				"type": "unocc",
				"energy": -0.0119,
				"method": "rhf"
			},
			{
				"type": "unocc",
				"energy": -0.00406,
				"method": "rhf"
			},
			{
				"type": "unocc",
				"energy": 0.00863,
				"method": "rhf"
			},
			{
				"type": "unocc",
				"energy": 0.01685,
				"method": "rhf"
			},
			{
				"type": "unocc",
				"energy": 0.07874,
				"method": "rhf"
			}
		],
		"cosmo_sigma_profile": { 
			"-0.025": 0.0,
			"-0.024": 0.0,
			"-0.023": 0.0,
			"-0.022": 0.0,
			"-0.021": 0.0,
			"-0.02": 0.0,
			"-0.019": 0.0,
			"-0.018": 0.0,
			"-0.017": 0.0,
			"-0.016": 0.0,
			"-0.015": 0.0,
			"-0.014": 0.0,
			"-0.013": 0.0,
			"-0.012": 0.0,
			"-0.011": 0.0,
			"-0.01": 0.0,
			"-0.009": 0.03561962073,
			"-0.008": 0.105009546503,
			"-0.007": 0.381327432342,
			"-0.006": 3.76533395748,
			"-0.005": 18.4633966737,
			"-0.004": 27.602472439,
			"-0.003": 40.3252639631,
			"-0.002": 45.0438125862,
			"-0.001": 42.018691174,
			"0.0": 32.7022599211,
			"0.001": 20.0820866823,
			"0.002": 18.5109874085,
			"0.003": 15.7632127828,
			"0.004": 16.6056192145,
			"0.005": 18.1982704978,
			"0.006": 18.7625059599,
			"0.007": 3.70595850747,
			"0.008": 1.95155146557,
			"0.009": 0.914870297061,
			"0.01": 0.922718884225,
			"0.011": 0.897777894132,
			"0.012": 0.620783008346,
			"0.013": 0.327226762051,
			"0.014": 0.598232540487,
			"0.015": 0.580780025975,
			"0.016": 0.228974557552,
			"0.017": 0.341245767236,
			"0.018": 0.0,
			"0.019": 0.0,
			"0.02": 0.0,
			"0.021": 0.0,
			"0.022": 0.0,
			"0.023": 0.0,
			"0.024": 0.0,
			"0.025": 0.0
		}
	}
}
