{
	 "smiles": "O(C1=CC=CC=C1)C1=NC(OC2=CC=CC=C2)=NC(OC2=CC=CC=C2)=N1", 
	 "Tm": 507.15, 
	 "num_atms": 42, 
	 "gaussian": { 
		 "optdone": 1, 
		 "sigma_profile": "yes", 
		 "theory": "DFT", 
		 "functional": "B3LYP", 
		 "basiset": "6-31G**", 
		 "properties": { 
			 "R2extent": 12039.0262, 
			 "electric_dipole_moment_norm": 3.04911161488, 
			 "electric_quadrupole_moment_norm": 21.437081498, 
			 "total_energy": -1199.19749122, 
			 "HOMO_LUMO_gap": 0.21715, 
			 "cosmo_polarized_energy": -16.32, 
			 "cosmo_cavitation_energy": 49.27, 
			 "cosmo_dispersion_energy": -33.17, 
			 "cosmo_repulsion_energy": 2.56, 
			 "cosmo_total_nonelectrostatic_energy": 18.66, 
			 "SMD_solvation_energy": 5.97 
		},
		"coords": [
			{
				"x": -0.3772907807,
				"y": -2.2347564886,
				"z": -0.234339638,
				"element": "O" 
			},
			{
				"x": -0.5417095783,
				"y": -2.499914623,
				"z": -1.5982478246,
				"element": "C" 
			},
			{
				"x": -1.6301295465,
				"y": -1.9991979456,
				"z": -2.3093925929,
				"element": "C" 
			},
			{
				"x": -1.7972998601,
				"y": -2.3829919944,
				"z": -3.6396038935,
				"element": "C" 
			},
			{
				"x": -0.8937756115,
				"y": -3.2609976567,
				"z": -4.2437425622,
				"element": "C" 
			},
			{
				"x": 0.1849709087,
				"y": -3.7593452193,
				"z": -3.5117604775,
				"element": "C" 
			},
			{
				"x": 0.3661060276,
				"y": -3.3794263159,
				"z": -2.1806069277,
				"element": "C" 
			},
			{
				"x": -0.1677027438,
				"y": -0.9863797567,
				"z": 0.2159206669,
				"element": "C" 
			},
			{
				"x": -0.0767291268,
				"y": -0.9069831152,
				"z": 1.5443147386,
				"element": "N" 
			},
			{
				"x": 0.1464332228,
				"y": 0.3325392984,
				"z": 1.9805035136,
				"element": "C" 
			},
			{
				"x": 0.25137009,
				"y": 0.5577161178,
				"z": 3.300498591,
				"element": "O" 
			},
			{
				"x": 0.1801002918,
				"y": -0.5011901478,
				"z": 4.2136636394,
				"element": "C" 
			},
			{
				"x": 1.2285817244,
				"y": -1.4104431493,
				"z": 4.3299209944,
				"element": "C" 
			},
			{
				"x": 1.1637112617,
				"y": -2.3888263718,
				"z": 5.321551914,
				"element": "C" 
			},
			{
				"x": 0.0678826807,
				"y": -2.4480395608,
				"z": 6.1863914611,
				"element": "C" 
			},
			{
				"x": -0.9688509119,
				"y": -1.5222674168,
				"z": 6.0591657064,
				"element": "C" 
			},
			{
				"x": -0.9169607133,
				"y": -0.5401959824,
				"z": 5.0680841845,
				"element": "C" 
			},
			{
				"x": 0.2770973149,
				"y": 1.4346973752,
				"z": 1.2391410753,
				"element": "N" 
			},
			{
				"x": 0.1577712292,
				"y": 1.200518469,
				"z": -0.0648270186,
				"element": "C" 
			},
			{
				"x": 0.2698865971,
				"y": 2.3027554078,
				"z": -0.8250905203,
				"element": "O" 
			},
			{
				"x": 0.2072344868,
				"y": 2.2320861834,
				"z": -2.2207669673,
				"element": "C" 
			},
			{
				"x": 1.2026687262,
				"y": 1.5930219692,
				"z": -2.9566844304,
				"element": "C" 
			},
			{
				"x": 1.1459896253,
				"y": 1.6427218148,
				"z": -4.3491611502,
				"element": "C" 
			},
			{
				"x": 0.1131803602,
				"y": 2.329480554,
				"z": -4.9925579484,
				"element": "C" 
			},
			{
				"x": -0.869618208,
				"y": 2.9715937938,
				"z": -4.2377320448,
				"element": "C" 
			},
			{
				"x": -0.8265264026,
				"y": 2.9255038544,
				"z": -2.8429866211,
				"element": "C" 
			},
			{
				"x": -0.0626897988,
				"y": 0.0196854257,
				"z": -0.6509278809,
				"element": "N" 
			},
			{
				"x": -2.325342784,
				"y": -1.3193987351,
				"z": -1.8307470288,
				"element": "H" 
			},
			{
				"x": -2.6398395215,
				"y": -1.9948350985,
				"z": -4.2040797876,
				"element": "H" 
			},
			{
				"x": -1.0331603119,
				"y": -3.557393796,
				"z": -5.2789476707,
				"element": "H" 
			},
			{
				"x": 0.8881588525,
				"y": -4.4464679572,
				"z": -3.972980891,
				"element": "H" 
			},
			{
				"x": 1.1919254554,
				"y": -3.7587823579,
				"z": -1.5880798184,
				"element": "H" 
			},
			{
				"x": 2.0741404892,
				"y": -1.3498380079,
				"z": 3.6538092784,
				"element": "H" 
			},
			{
				"x": 1.9742097567,
				"y": -3.1049777041,
				"z": 5.4191677019,
				"element": "H" 
			},
			{
				"x": 0.0249678969,
				"y": -3.2108017927,
				"z": 6.9579380658,
				"element": "H" 
			},
			{
				"x": -1.8210924389,
				"y": -1.5605079814,
				"z": 6.7310975457,
				"element": "H" 
			},
			{
				"x": -1.7070792025,
				"y": 0.1942678565,
				"z": 4.9533576221,
				"element": "H" 
			},
			{
				"x": 2.000252892,
				"y": 1.0655380198,
				"z": -2.4461892068,
				"element": "H" 
			},
			{
				"x": 1.9147839183,
				"y": 1.1444166325,
				"z": -4.9321406285,
				"element": "H" 
			},
			{
				"x": 0.0780977621,
				"y": 2.3667363821,
				"z": -6.0771519145,
				"element": "H" 
			},
			{
				"x": -1.6718996417,
				"y": 3.5122032515,
				"z": -4.7311393753,
				"element": "H" 
			},
			{
				"x": -1.5736243879,
				"y": 3.4232767691,
				"z": -2.2338418789,
				"element": "H" 
			}
		],
		 "valence_orbital": [ 
			{
				"type": "occ",
				"energy": -0.25668,
				"method": "rhf"
			},
			{
				"type": "occ",
				"energy": -0.25459,
				"method": "rhf"
			},
			{
				"type": "occ",
				"energy": -0.2455,
				"method": "rhf"
			},
			{
				"type": "occ",
				"energy": -0.2441,
				"method": "rhf"
			},
			{
				"type": "occ",
				"energy": -0.24243,
				"method": "rhf"
			},
			{
				"type": "unocc",
				"energy": -0.02528,
				"method": "rhf"
			},
			{
				"type": "unocc",
				"energy": -0.02362,
				"method": "rhf"
			},
			{
				"type": "unocc",
				"energy": -0.00755,
				"method": "rhf"
			},
			{
				"type": "unocc",
				"energy": -0.00687,
				"method": "rhf"
			},
			{
				"type": "unocc",
				"energy": -0.00463,
				"method": "rhf"
			}
		],
		"cosmo_sigma_profile": { 
			"-0.025": 0.0,
			"-0.024": 0.0,
			"-0.023": 0.0,
			"-0.022": 0.0,
			"-0.021": 0.0,
			"-0.02": 0.0,
			"-0.019": 0.0,
			"-0.018": 0.0,
			"-0.017": 0.0,
			"-0.016": 0.0,
			"-0.015": 0.0,
			"-0.014": 0.0,
			"-0.013": 0.0,
			"-0.012": 0.0,
			"-0.011": 0.0,
			"-0.01": 0.0,
			"-0.009": 0.0,
			"-0.008": 0.248243878669,
			"-0.007": 12.613204657,
			"-0.006": 34.9127496306,
			"-0.005": 36.5455020833,
			"-0.004": 36.1629285756,
			"-0.003": 28.7893407741,
			"-0.002": 24.2825306241,
			"-0.001": 20.288945245,
			"0.0": 21.8070516766,
			"0.001": 24.001028357,
			"0.002": 30.1686845566,
			"0.003": 28.579126712,
			"0.004": 34.1816362254,
			"0.005": 23.671629415,
			"0.006": 7.65511192442,
			"0.007": 7.20574664453,
			"0.008": 5.7866532939,
			"0.009": 7.39626038066,
			"0.01": 4.82349594746,
			"0.011": 3.84387399145,
			"0.012": 1.98035661876,
			"0.013": 1.91302056237,
			"0.014": 0.773099699131,
			"0.015": 0.0414826994502,
			"0.016": 0.0,
			"0.017": 0.0,
			"0.018": 0.0,
			"0.019": 0.0,
			"0.02": 0.0,
			"0.021": 0.0,
			"0.022": 0.0,
			"0.023": 0.0,
			"0.024": 0.0,
			"0.025": 0.0
		}
	}
}
