{
	 "smiles": "OC(C1=CC=CC=C1)C1=CC=CC(=C1)C(F)(F)F", 
	 "Tm": 336.15, 
	 "num_atms": 29, 
	 "gaussian": { 
		 "optdone": 1, 
		 "sigma_profile": "yes", 
		 "theory": "DFT", 
		 "functional": "B3LYP", 
		 "basiset": "6-31G**", 
		 "properties": { 
			 "R2extent": 6261.5287, 
			 "electric_dipole_moment_norm": 4.35845641713, 
			 "electric_quadrupole_moment_norm": 7.70483709043, 
			 "total_energy": -914.867118863, 
			 "HOMO_LUMO_gap": 0.22323, 
			 "cosmo_polarized_energy": -9.22, 
			 "cosmo_cavitation_energy": 34.62, 
			 "cosmo_dispersion_energy": -23.84, 
			 "cosmo_repulsion_energy": 1.8, 
			 "cosmo_total_nonelectrostatic_energy": 12.57, 
			 "SMD_solvation_energy": 6.93 
		},
		"coords": [
			{
				"x": 1.2291425578,
				"y": -1.5670553265,
				"z": -0.2039949103,
				"element": "O" 
			},
			{
				"x": 0.9484481004,
				"y": -0.1733416404,
				"z": -0.1187481741,
				"element": "C" 
			},
			{
				"x": 1.7036394894,
				"y": 0.6119197622,
				"z": -1.1848508801,
				"element": "C" 
			},
			{
				"x": 2.4765749341,
				"y": 1.725911005,
				"z": -0.8425295657,
				"element": "C" 
			},
			{
				"x": 3.1687610985,
				"y": 2.4403195103,
				"z": -1.8242715945,
				"element": "C" 
			},
			{
				"x": 3.0997851258,
				"y": 2.0376741151,
				"z": -3.1576714381,
				"element": "C" 
			},
			{
				"x": 2.3367774641,
				"y": 0.918663559,
				"z": -3.5063906571,
				"element": "C" 
			},
			{
				"x": 1.6425105101,
				"y": 0.2111256747,
				"z": -2.5274027124,
				"element": "C" 
			},
			{
				"x": -0.5627231357,
				"y": 0.0056629993,
				"z": -0.223361469,
				"element": "C" 
			},
			{
				"x": -1.1241903335,
				"y": 1.2824181293,
				"z": -0.085934884,
				"element": "C" 
			},
			{
				"x": -2.5020648015,
				"y": 1.4666219588,
				"z": -0.1726401602,
				"element": "C" 
			},
			{
				"x": -3.3435986756,
				"y": 0.3762464348,
				"z": -0.3980066917,
				"element": "C" 
			},
			{
				"x": -2.7880479467,
				"y": -0.896082058,
				"z": -0.533950807,
				"element": "C" 
			},
			{
				"x": -1.4047295861,
				"y": -1.084613369,
				"z": -0.4453509537,
				"element": "C" 
			},
			{
				"x": -3.6809161525,
				"y": -2.0930926435,
				"z": -0.7195013401,
				"element": "C" 
			},
			{
				"x": -3.1150435141,
				"y": -3.0259187502,
				"z": -1.5179658491,
				"element": "F" 
			},
			{
				"x": -3.9516652385,
				"y": -2.7029404763,
				"z": 0.4591205061,
				"element": "F" 
			},
			{
				"x": -4.8707016347,
				"y": -1.7584104554,
				"z": -1.2687725026,
				"element": "F" 
			},
			{
				"x": 2.1867004103,
				"y": -1.6657340277,
				"z": -0.2785992112,
				"element": "H" 
			},
			{
				"x": 1.2596950382,
				"y": 0.2132401917,
				"z": 0.8663058067,
				"element": "H" 
			},
			{
				"x": 2.5428842105,
				"y": 2.0340309186,
				"z": 0.1985875877,
				"element": "H" 
			},
			{
				"x": 3.7656334558,
				"y": 3.3038559938,
				"z": -1.5447808962,
				"element": "H" 
			},
			{
				"x": 3.6394486272,
				"y": 2.5888474025,
				"z": -3.9223782189,
				"element": "H" 
			},
			{
				"x": 2.2823942612,
				"y": 0.6001451415,
				"z": -4.5435913284,
				"element": "H" 
			},
			{
				"x": 1.0498204554,
				"y": -0.6590307366,
				"z": -2.7939640997,
				"element": "H" 
			},
			{
				"x": -0.475986461,
				"y": 2.1391935492,
				"z": 0.0784337969,
				"element": "H" 
			},
			{
				"x": -2.9228092962,
				"y": 2.4622983574,
				"z": -0.0692893685,
				"element": "H" 
			},
			{
				"x": -4.416754472,
				"y": 0.5111863,
				"z": -0.4746545777,
				"element": "H" 
			},
			{
				"x": -0.9783844907,
				"y": -2.0740415195,
				"z": -0.5511454071,
				"element": "H" 
			}
		],
		 "valence_orbital": [ 
			{
				"type": "occ",
				"energy": -0.29373,
				"method": "rhf"
			},
			{
				"type": "occ",
				"energy": -0.26081,
				"method": "rhf"
			},
			{
				"type": "occ",
				"energy": -0.25872,
				"method": "rhf"
			},
			{
				"type": "occ",
				"energy": -0.25693,
				"method": "rhf"
			},
			{
				"type": "occ",
				"energy": -0.24703,
				"method": "rhf"
			},
			{
				"type": "unocc",
				"energy": -0.0238,
				"method": "rhf"
			},
			{
				"type": "unocc",
				"energy": -0.01888,
				"method": "rhf"
			},
			{
				"type": "unocc",
				"energy": -0.01183,
				"method": "rhf"
			},
			{
				"type": "unocc",
				"energy": -0.00093,
				"method": "rhf"
			},
			{
				"type": "unocc",
				"energy": 0.08103,
				"method": "rhf"
			}
		],
		"cosmo_sigma_profile": { 
			"-0.025": 0.0,
			"-0.024": 0.0,
			"-0.023": 0.0,
			"-0.022": 0.0,
			"-0.021": 0.0,
			"-0.02": 0.0,
			"-0.019": 0.0,
			"-0.018": 0.0,
			"-0.017": 0.0,
			"-0.016": 0.510317557069,
			"-0.015": 0.817638225702,
			"-0.014": 0.641491169192,
			"-0.013": 0.874023228173,
			"-0.012": 1.17426661599,
			"-0.011": 0.823441048356,
			"-0.01": 0.270459910375,
			"-0.009": 0.556113041762,
			"-0.008": 0.960415862509,
			"-0.007": 2.95166278422,
			"-0.006": 13.2021766713,
			"-0.005": 21.7706777586,
			"-0.004": 20.4447183542,
			"-0.003": 17.371431604,
			"-0.002": 15.8708783535,
			"-0.001": 16.4638562948,
			"0.0": 16.3391835321,
			"0.001": 20.9305322239,
			"0.002": 28.7660792831,
			"0.003": 50.0828090307,
			"0.004": 22.8150328336,
			"0.005": 10.5311965993,
			"0.006": 5.6265101319,
			"0.007": 1.46443305129,
			"0.008": 1.41534417855,
			"0.009": 1.358382358,
			"0.01": 1.10960837733,
			"0.011": 0.749083656723,
			"0.012": 0.511790542412,
			"0.013": 0.230888701444,
			"0.014": 0.0,
			"0.015": 0.0,
			"0.016": 0.0,
			"0.017": 0.0,
			"0.018": 0.0,
			"0.019": 0.0,
			"0.02": 0.0,
			"0.021": 0.0,
			"0.022": 0.0,
			"0.023": 0.0,
			"0.024": 0.0,
			"0.025": 0.0
		}
	}
}
