{
	 "smiles": "NC1=C(SCCC#N)C=CC(=C1)C(F)(F)F", 
	 "Tm": 332.15, 
	 "num_atms": 25, 
	 "gaussian": { 
		 "optdone": 1, 
		 "sigma_profile": "yes", 
		 "theory": "DFT", 
		 "functional": "B3LYP", 
		 "basiset": "6-31G**", 
		 "properties": { 
			 "R2extent": 6137.7236, 
			 "electric_dipole_moment_norm": 2.10080794934, 
			 "electric_quadrupole_moment_norm": 19.2006649419, 
			 "total_energy": -1193.6964879, 
			 "HOMO_LUMO_gap": 0.18122, 
			 "cosmo_polarized_energy": -14.45, 
			 "cosmo_cavitation_energy": 32.53, 
			 "cosmo_dispersion_energy": -22.52, 
			 "cosmo_repulsion_energy": 1.66, 
			 "cosmo_total_nonelectrostatic_energy": 11.67, 
			 "SMD_solvation_energy": 7.5 
		},
		"coords": [
			{
				"x": -1.2371055685,
				"y": 0.0075044474,
				"z": 1.5846323385,
				"element": "N" 
			},
			{
				"x": -1.1858090496,
				"y": -1.0460045452,
				"z": 0.6943256682,
				"element": "C" 
			},
			{
				"x": 0.048557056,
				"y": -1.5544791692,
				"z": 0.2133399957,
				"element": "C" 
			},
			{
				"x": 1.6035357714,
				"y": -0.946684108,
				"z": 0.8699080706,
				"element": "S" 
			},
			{
				"x": 2.0176575485,
				"y": 0.4104204269,
				"z": -0.305262958,
				"element": "C" 
			},
			{
				"x": 1.1121100985,
				"y": 1.6550805369,
				"z": -0.2403036855,
				"element": "C" 
			},
			{
				"x": 1.1410378668,
				"y": 2.3263715565,
				"z": 1.0615329712,
				"element": "C" 
			},
			{
				"x": 1.1652283829,
				"y": 2.8478217317,
				"z": 2.0982440508,
				"element": "N" 
			},
			{
				"x": 0.0554764733,
				"y": -2.5972970873,
				"z": -0.7216335194,
				"element": "C" 
			},
			{
				"x": -1.1261740088,
				"y": -3.140235772,
				"z": -1.2145107995,
				"element": "C" 
			},
			{
				"x": -2.3424514489,
				"y": -2.6316786631,
				"z": -0.7456111522,
				"element": "C" 
			},
			{
				"x": -2.3769567766,
				"y": -1.6067570063,
				"z": 0.1921234223,
				"element": "C" 
			},
			{
				"x": -3.63323345,
				"y": -3.168158407,
				"z": -1.3075715502,
				"element": "C" 
			},
			{
				"x": -3.5549524668,
				"y": -4.4920353687,
				"z": -1.5643900909,
				"element": "F" 
			},
			{
				"x": -4.6743475866,
				"y": -2.9778598152,
				"z": -0.4672529048,
				"element": "F" 
			},
			{
				"x": -3.9527338976,
				"y": -2.5610683188,
				"z": -2.4744428505,
				"element": "F" 
			},
			{
				"x": -0.4003721029,
				"y": 0.185874014,
				"z": 2.125275572,
				"element": "H" 
			},
			{
				"x": -2.1004330023,
				"y": 0.1365056856,
				"z": 2.0909154027,
				"element": "H" 
			},
			{
				"x": 3.0503859786,
				"y": 0.6767694765,
				"z": -0.0629264089,
				"element": "H" 
			},
			{
				"x": 2.0008145713,
				"y": 0.0099129731,
				"z": -1.3219430216,
				"element": "H" 
			},
			{
				"x": 1.4301736048,
				"y": 2.3710801255,
				"z": -1.008701312,
				"element": "H" 
			},
			{
				"x": 0.074897673,
				"y": 1.3818604834,
				"z": -0.4595860055,
				"element": "H" 
			},
			{
				"x": 1.0123486301,
				"y": -2.9887285522,
				"z": -1.0525291591,
				"element": "H" 
			},
			{
				"x": -1.1089140281,
				"y": -3.9517109014,
				"z": -1.932469689,
				"element": "H" 
			},
			{
				"x": -3.3324402684,
				"y": -1.2355037432,
				"z": 0.5484376152,
				"element": "H" 
			}
		],
		 "valence_orbital": [ 
			{
				"type": "occ",
				"energy": -0.32964,
				"method": "rhf"
			},
			{
				"type": "occ",
				"energy": -0.32729,
				"method": "rhf"
			},
			{
				"type": "occ",
				"energy": -0.2719,
				"method": "rhf"
			},
			{
				"type": "occ",
				"energy": -0.25228,
				"method": "rhf"
			},
			{
				"type": "occ",
				"energy": -0.22444,
				"method": "rhf"
			},
			{
				"type": "unocc",
				"energy": -0.04322,
				"method": "rhf"
			},
			{
				"type": "unocc",
				"energy": -0.00988,
				"method": "rhf"
			},
			{
				"type": "unocc",
				"energy": 0.02029,
				"method": "rhf"
			},
			{
				"type": "unocc",
				"energy": 0.03265,
				"method": "rhf"
			},
			{
				"type": "unocc",
				"energy": 0.0406,
				"method": "rhf"
			}
		],
		"cosmo_sigma_profile": { 
			"-0.025": 0.0,
			"-0.024": 0.0,
			"-0.023": 0.0,
			"-0.022": 0.0,
			"-0.021": 0.0,
			"-0.02": 0.0,
			"-0.019": 0.0,
			"-0.018": 0.0,
			"-0.017": 0.0,
			"-0.016": 0.0,
			"-0.015": 0.0,
			"-0.014": 0.376960746182,
			"-0.013": 1.42995962613,
			"-0.012": 1.71516945908,
			"-0.011": 1.69362047876,
			"-0.01": 1.52268163234,
			"-0.009": 3.87924522192,
			"-0.008": 7.89305035909,
			"-0.007": 12.6998211463,
			"-0.006": 15.2089273988,
			"-0.005": 16.2070414956,
			"-0.004": 11.4918317555,
			"-0.003": 11.7221337684,
			"-0.002": 11.126978745,
			"-0.001": 11.5713110766,
			"0.0": 13.8811992713,
			"0.001": 17.1598624943,
			"0.002": 29.5014280806,
			"0.003": 43.6031646437,
			"0.004": 14.1106630614,
			"0.005": 6.61250940845,
			"0.006": 5.82459434058,
			"0.007": 3.97981008003,
			"0.008": 4.5380113779,
			"0.009": 3.51220466733,
			"0.01": 3.30296696956,
			"0.011": 2.49913686887,
			"0.012": 2.68641949119,
			"0.013": 1.98740052719,
			"0.014": 0.225136885872,
			"0.015": 0.0,
			"0.016": 0.0,
			"0.017": 0.0,
			"0.018": 0.0,
			"0.019": 0.0,
			"0.02": 0.0,
			"0.021": 0.0,
			"0.022": 0.0,
			"0.023": 0.0,
			"0.024": 0.0,
			"0.025": 0.0
		}
	}
}
