{
	 "smiles": "CS(=O)(=O)C1=NC2=C(S1)C=CC=C2", 
	 "Tm": 360.65, 
	 "num_atms": 20, 
	 "gaussian": { 
		 "optdone": 1, 
		 "sigma_profile": "yes", 
		 "theory": "DFT", 
		 "functional": "B3LYP", 
		 "basiset": "6-31G**", 
		 "properties": { 
			 "R2extent": 4459.979, 
			 "electric_dipole_moment_norm": 4.94537207599, 
			 "electric_quadrupole_moment_norm": 18.6467411576, 
			 "total_energy": -1310.57227494, 
			 "HOMO_LUMO_gap": 0.18881, 
			 "cosmo_polarized_energy": -13.71, 
			 "cosmo_cavitation_energy": 27.57, 
			 "cosmo_dispersion_energy": -21.24, 
			 "cosmo_repulsion_energy": 1.58, 
			 "cosmo_total_nonelectrostatic_energy": 7.92, 
			 "SMD_solvation_energy": 2.55 
		},
		"coords": [
			{
				"x": -2.3140356778,
				"y": 2.9783700703,
				"z": 2.4664870871,
				"element": "C" 
			},
			{
				"x": -0.8873220226,
				"y": 1.9681570547,
				"z": 2.900090548,
				"element": "S" 
			},
			{
				"x": 0.0326914559,
				"y": 2.7660131172,
				"z": 3.7198172006,
				"element": "O" 
			},
			{
				"x": -1.3538516811,
				"y": 0.6595642611,
				"z": 3.3743072077,
				"element": "O" 
			},
			{
				"x": -0.0977459939,
				"y": 1.7127496311,
				"z": 1.2889706558,
				"element": "C" 
			},
			{
				"x": -0.578548126,
				"y": 2.2075230066,
				"z": 0.1995995094,
				"element": "N" 
			},
			{
				"x": 0.2203139749,
				"y": 1.8591297995,
				"z": -0.8809557534,
				"element": "C" 
			},
			{
				"x": 1.3476065508,
				"y": 1.0646696454,
				"z": -0.5575566736,
				"element": "C" 
			},
			{
				"x": 1.3823549685,
				"y": 0.7587169549,
				"z": 1.1696840121,
				"element": "S" 
			},
			{
				"x": 2.2419066283,
				"y": 0.6381011562,
				"z": -1.5437872094,
				"element": "C" 
			},
			{
				"x": 1.9911833254,
				"y": 1.0184843785,
				"z": -2.8586650472,
				"element": "C" 
			},
			{
				"x": 0.8742290385,
				"y": 1.8075328067,
				"z": -3.1908251832,
				"element": "C" 
			},
			{
				"x": -0.0147824852,
				"y": 2.2319995643,
				"z": -2.2128541907,
				"element": "C" 
			},
			{
				"x": -1.9725139441,
				"y": 3.9118140304,
				"z": 2.021141346,
				"element": "H" 
			},
			{
				"x": -2.8256914242,
				"y": 3.1597295328,
				"z": 3.4139182075,
				"element": "H" 
			},
			{
				"x": -2.9508708315,
				"y": 2.4254139776,
				"z": 1.7773097282,
				"element": "H" 
			},
			{
				"x": 3.1052263098,
				"y": 0.0296118701,
				"z": -1.2955923893,
				"element": "H" 
			},
			{
				"x": 2.6716922926,
				"y": 0.699309179,
				"z": -3.6421586539,
				"element": "H" 
			},
			{
				"x": 0.7080208318,
				"y": 2.0865655655,
				"z": -4.2265925248,
				"element": "H" 
			},
			{
				"x": -0.88076319,
				"y": 2.8405443981,
				"z": -2.450737877,
				"element": "H" 
			}
		],
		 "valence_orbital": [ 
			{
				"type": "occ",
				"energy": -0.31747,
				"method": "rhf"
			},
			{
				"type": "occ",
				"energy": -0.30497,
				"method": "rhf"
			},
			{
				"type": "occ",
				"energy": -0.29209,
				"method": "rhf"
			},
			{
				"type": "occ",
				"energy": -0.25905,
				"method": "rhf"
			},
			{
				"type": "occ",
				"energy": -0.25394,
				"method": "rhf"
			},
			{
				"type": "unocc",
				"energy": -0.06513,
				"method": "rhf"
			},
			{
				"type": "unocc",
				"energy": -0.02401,
				"method": "rhf"
			},
			{
				"type": "unocc",
				"energy": -0.008,
				"method": "rhf"
			},
			{
				"type": "unocc",
				"energy": 0.00839,
				"method": "rhf"
			},
			{
				"type": "unocc",
				"energy": 0.02729,
				"method": "rhf"
			}
		],
		"cosmo_sigma_profile": { 
			"-0.025": 0.0,
			"-0.024": 0.0,
			"-0.023": 0.0,
			"-0.022": 0.0,
			"-0.021": 0.0,
			"-0.02": 0.0,
			"-0.019": 0.0,
			"-0.018": 0.0,
			"-0.017": 0.0,
			"-0.016": 0.0,
			"-0.015": 0.0,
			"-0.014": 0.0,
			"-0.013": 0.0,
			"-0.012": 0.0,
			"-0.011": 0.0502888399841,
			"-0.01": 1.3115904451,
			"-0.009": 3.85567569715,
			"-0.008": 7.73197309297,
			"-0.007": 12.7641402605,
			"-0.006": 13.6576250352,
			"-0.005": 15.8334632521,
			"-0.004": 14.0618221763,
			"-0.003": 11.8362459234,
			"-0.002": 13.5064418512,
			"-0.001": 13.1895227637,
			"0.0": 16.7050020762,
			"0.001": 18.0672991035,
			"0.002": 20.0988042861,
			"0.003": 14.8854538932,
			"0.004": 6.66354282202,
			"0.005": 3.29051615594,
			"0.006": 3.05517905649,
			"0.007": 3.33354301363,
			"0.008": 4.01923630381,
			"0.009": 4.1378490339,
			"0.01": 9.97644239826,
			"0.011": 11.0470862063,
			"0.012": 0.959940433947,
			"0.013": 0.0,
			"0.014": 0.0,
			"0.015": 0.0,
			"0.016": 0.0,
			"0.017": 0.0,
			"0.018": 0.0,
			"0.019": 0.0,
			"0.02": 0.0,
			"0.021": 0.0,
			"0.022": 0.0,
			"0.023": 0.0,
			"0.024": 0.0,
			"0.025": 0.0
		}
	}
}
