{
	 "smiles": "[O-][N+](=O)C1=CN=CN1CCN1CCOCC1", 
	 "Tm": 383.15, 
	 "num_atms": 30, 
	 "gaussian": { 
		 "optdone": 1, 
		 "sigma_profile": "yes", 
		 "theory": "DFT", 
		 "functional": "B3LYP", 
		 "basiset": "6-31G**", 
		 "properties": { 
			 "R2extent": 3920.672, 
			 "electric_dipole_moment_norm": 3.75906484913, 
			 "electric_quadrupole_moment_norm": 13.2584439362, 
			 "total_energy": -795.919936679, 
			 "HOMO_LUMO_gap": 0.11772, 
			 "cosmo_polarized_energy": -16.12, 
			 "cosmo_cavitation_energy": 31.99, 
			 "cosmo_dispersion_energy": -22.6, 
			 "cosmo_repulsion_energy": 1.74, 
			 "cosmo_total_nonelectrostatic_energy": 11.13, 
			 "SMD_solvation_energy": 3.96 
		},
		"coords": [
			{
				"x": 0.2178427546,
				"y": 3.8569730929,
				"z": 1.8325229454,
				"element": "O" 
			},
			{
				"x": 0.568631643,
				"y": 2.7507170768,
				"z": 1.4187889983,
				"element": "N" 
			},
			{
				"x": 1.2279847297,
				"y": 2.5652123146,
				"z": 0.3833219933,
				"element": "O" 
			},
			{
				"x": 0.1684216875,
				"y": 1.6272108786,
				"z": 2.19156357,
				"element": "C" 
			},
			{
				"x": -0.664032051,
				"y": 1.6297940474,
				"z": 3.2972248704,
				"element": "C" 
			},
			{
				"x": -0.8257176683,
				"y": 0.3635893928,
				"z": 3.7584196291,
				"element": "N" 
			},
			{
				"x": -0.0987034922,
				"y": -0.3930118548,
				"z": 2.9465642482,
				"element": "C" 
			},
			{
				"x": 0.5303354161,
				"y": 0.3050371607,
				"z": 1.9641250391,
				"element": "N" 
			},
			{
				"x": 1.4207108643,
				"y": -0.304583704,
				"z": 0.9595688869,
				"element": "C" 
			},
			{
				"x": 0.6760113488,
				"y": -1.11336763,
				"z": -0.1375036843,
				"element": "C" 
			},
			{
				"x": -0.0335281123,
				"y": -0.4070945913,
				"z": -1.1720804165,
				"element": "N" 
			},
			{
				"x": -1.2895734644,
				"y": 0.2493271629,
				"z": -0.8451016476,
				"element": "C" 
			},
			{
				"x": -2.126036137,
				"y": 0.3822977008,
				"z": -2.1314992069,
				"element": "C" 
			},
			{
				"x": -1.3285625575,
				"y": 0.6735469429,
				"z": -3.2786693822,
				"element": "O" 
			},
			{
				"x": -0.0928813009,
				"y": 1.2816932614,
				"z": -2.9476387669,
				"element": "C" 
			},
			{
				"x": 0.7918947271,
				"y": 0.3213645251,
				"z": -2.1392637956,
				"element": "C" 
			},
			{
				"x": -1.1360942473,
				"y": 2.4889638268,
				"z": 3.7500516014,
				"element": "H" 
			},
			{
				"x": 0.0189028164,
				"y": -1.4649309547,
				"z": 3.0372460565,
				"element": "H" 
			},
			{
				"x": 2.0851362633,
				"y": -0.985080077,
				"z": 1.5023080777,
				"element": "H" 
			},
			{
				"x": 2.0221990372,
				"y": 0.490894472,
				"z": 0.5275776542,
				"element": "H" 
			},
			{
				"x": 1.4458763431,
				"y": -1.7326085629,
				"z": -0.6196708447,
				"element": "H" 
			},
			{
				"x": -0.01867248,
				"y": -1.8062187803,
				"z": 0.3561812464,
				"element": "H" 
			},
			{
				"x": -1.1581003199,
				"y": 1.2391026924,
				"z": -0.3775078686,
				"element": "H" 
			},
			{
				"x": -1.8392941614,
				"y": -0.3669247865,
				"z": -0.1247009357,
				"element": "H" 
			},
			{
				"x": -2.8924350421,
				"y": 1.1614341597,
				"z": -1.9920283183,
				"element": "H" 
			},
			{
				"x": -2.6340062488,
				"y": -0.563478129,
				"z": -2.3482115075,
				"element": "H" 
			},
			{
				"x": 0.3948152705,
				"y": 1.5401182331,
				"z": -3.8913930678,
				"element": "H" 
			},
			{
				"x": -0.2459439866,
				"y": 2.2171290529,
				"z": -2.388185524,
				"element": "H" 
			},
			{
				"x": 1.5923958414,
				"y": 0.9142117586,
				"z": -1.6662373301,
				"element": "H" 
			},
			{
				"x": 1.2688225266,
				"y": -0.408118682,
				"z": -2.8088725201,
				"element": "H" 
			}
		],
		 "valence_orbital": [ 
			{
				"type": "occ",
				"energy": -0.30242,
				"method": "rhf"
			},
			{
				"type": "occ",
				"energy": -0.29214,
				"method": "rhf"
			},
			{
				"type": "occ",
				"energy": -0.26783,
				"method": "rhf"
			},
			{
				"type": "occ",
				"energy": -0.24695,
				"method": "rhf"
			},
			{
				"type": "occ",
				"energy": -0.21184,
				"method": "rhf"
			},
			{
				"type": "unocc",
				"energy": -0.09412,
				"method": "rhf"
			},
			{
				"type": "unocc",
				"energy": 0.00429,
				"method": "rhf"
			},
			{
				"type": "unocc",
				"energy": 0.05249,
				"method": "rhf"
			},
			{
				"type": "unocc",
				"energy": 0.0699,
				"method": "rhf"
			},
			{
				"type": "unocc",
				"energy": 0.09361,
				"method": "rhf"
			}
		],
		"cosmo_sigma_profile": { 
			"-0.025": 0.0,
			"-0.024": 0.0,
			"-0.023": 0.0,
			"-0.022": 0.0,
			"-0.021": 0.0,
			"-0.02": 0.0,
			"-0.019": 0.0,
			"-0.018": 0.0,
			"-0.017": 0.0,
			"-0.016": 0.0,
			"-0.015": 0.0,
			"-0.014": 0.0,
			"-0.013": 0.0,
			"-0.012": 0.0,
			"-0.011": 0.74829326105,
			"-0.01": 2.64788155208,
			"-0.009": 3.08263777975,
			"-0.008": 4.47354519745,
			"-0.007": 6.2520551573,
			"-0.006": 9.16460130432,
			"-0.005": 20.2262290487,
			"-0.004": 26.8928788809,
			"-0.003": 34.1143920975,
			"-0.002": 25.5184758998,
			"-0.001": 17.8025205525,
			"0.0": 13.6155299086,
			"0.001": 9.55168059597,
			"0.002": 8.12836823361,
			"0.003": 6.56228095932,
			"0.004": 5.90497376703,
			"0.005": 6.06161373329,
			"0.006": 6.23223315575,
			"0.007": 7.47566075351,
			"0.008": 9.20983631186,
			"0.009": 7.37797456694,
			"0.01": 6.51737906528,
			"0.011": 4.02847508468,
			"0.012": 3.41311917694,
			"0.013": 3.33904921236,
			"0.014": 1.99506136575,
			"0.015": 1.03207592633,
			"0.016": 0.58146830114,
			"0.017": 0.0166320013136,
			"0.018": 0.0,
			"0.019": 0.0,
			"0.02": 0.0,
			"0.021": 0.0,
			"0.022": 0.0,
			"0.023": 0.0,
			"0.024": 0.0,
			"0.025": 0.0
		}
	}
}
