{
	 "smiles": "CCOC1=CC=C(NC2=NC3=C(S2)C=CC=C3)C=C1", 
	 "Tm": 443.15, 
	 "num_atms": 33, 
	 "gaussian": { 
		 "optdone": 1, 
		 "sigma_profile": "yes", 
		 "theory": "DFT", 
		 "functional": "B3LYP", 
		 "basiset": "6-31G**", 
		 "properties": { 
			 "R2extent": 9440.7205, 
			 "electric_dipole_moment_norm": 2.80324551012, 
			 "electric_quadrupole_moment_norm": 16.5328062697, 
			 "total_energy": -1162.95849478, 
			 "HOMO_LUMO_gap": 0.16979, 
			 "cosmo_polarized_energy": -12.93, 
			 "cosmo_cavitation_energy": 38.59, 
			 "cosmo_dispersion_energy": -29.16, 
			 "cosmo_repulsion_energy": 2.19, 
			 "cosmo_total_nonelectrostatic_energy": 11.61, 
			 "SMD_solvation_energy": 5.15 
		},
		"coords": [
			{
				"x": -1.9215230357,
				"y": -6.4331279065,
				"z": -1.7760009081,
				"element": "C" 
			},
			{
				"x": -1.8213415979,
				"y": -4.9656809721,
				"z": -2.1549978296,
				"element": "C" 
			},
			{
				"x": -1.130434474,
				"y": -4.2956977893,
				"z": -1.10398459,
				"element": "O" 
			},
			{
				"x": -0.9146524835,
				"y": -2.9509803883,
				"z": -1.2157304933,
				"element": "C" 
			},
			{
				"x": -0.2313489289,
				"y": -2.3459534415,
				"z": -0.1521609883,
				"element": "C" 
			},
			{
				"x": 0.0465170411,
				"y": -0.9847768021,
				"z": -0.1522573157,
				"element": "C" 
			},
			{
				"x": -0.3623459149,
				"y": -0.1906023395,
				"z": -1.2371468378,
				"element": "C" 
			},
			{
				"x": -0.1249973108,
				"y": 1.1995775164,
				"z": -1.3249515254,
				"element": "N" 
			},
			{
				"x": 0.5076062841,
				"y": 2.0287864856,
				"z": -0.4462153902,
				"element": "C" 
			},
			{
				"x": 1.0412184443,
				"y": 1.7005955973,
				"z": 0.6895651571,
				"element": "N" 
			},
			{
				"x": 1.5967496923,
				"y": 2.8056616673,
				"z": 1.3161052177,
				"element": "C" 
			},
			{
				"x": 1.4800545169,
				"y": 4.0358330459,
				"z": 0.6227182993,
				"element": "C" 
			},
			{
				"x": 0.6242418094,
				"y": 3.7690779439,
				"z": -0.8937562206,
				"element": "S" 
			},
			{
				"x": 1.9941871862,
				"y": 5.2228822655,
				"z": 1.1391911491,
				"element": "C" 
			},
			{
				"x": 2.6392737573,
				"y": 5.1786410896,
				"z": 2.376440111,
				"element": "C" 
			},
			{
				"x": 2.7632394881,
				"y": 3.9695199197,
				"z": 3.0754273346,
				"element": "C" 
			},
			{
				"x": 2.2480103908,
				"y": 2.7844416919,
				"z": 2.5561422197,
				"element": "C" 
			},
			{
				"x": -1.0447717879,
				"y": -0.7948121046,
				"z": -2.2994715555,
				"element": "C" 
			},
			{
				"x": -1.322649358,
				"y": -2.1617863806,
				"z": -2.2971408945,
				"element": "C" 
			},
			{
				"x": -0.9256155044,
				"y": -6.8670894514,
				"z": -1.6507517511,
				"element": "H" 
			},
			{
				"x": -2.4689675269,
				"y": -6.5514527267,
				"z": -0.8367717167,
				"element": "H" 
			},
			{
				"x": -2.4476560966,
				"y": -6.9894513781,
				"z": -2.5578651152,
				"element": "H" 
			},
			{
				"x": -2.8213472669,
				"y": -4.5271952105,
				"z": -2.2869282019,
				"element": "H" 
			},
			{
				"x": -1.2752980095,
				"y": -4.8432397986,
				"z": -3.1018502772,
				"element": "H" 
			},
			{
				"x": 0.0797634578,
				"y": -2.9684929069,
				"z": 0.6805020136,
				"element": "H" 
			},
			{
				"x": 0.5743221573,
				"y": -0.5267328894,
				"z": 0.6727059074,
				"element": "H" 
			},
			{
				"x": -0.4779736497,
				"y": 1.6371856342,
				"z": -2.1626738798,
				"element": "H" 
			},
			{
				"x": 1.8979714988,
				"y": 6.1586007522,
				"z": 0.5976452054,
				"element": "H" 
			},
			{
				"x": 3.047697923,
				"y": 6.0919868202,
				"z": 2.7981139771,
				"element": "H" 
			},
			{
				"x": 3.2687122021,
				"y": 3.9563705995,
				"z": 4.0365547383,
				"element": "H" 
			},
			{
				"x": 2.339043856,
				"y": 1.8439765708,
				"z": 3.0896039936,
				"element": "H" 
			},
			{
				"x": -1.3678393784,
				"y": -0.1933168459,
				"z": -3.1467201618,
				"element": "H" 
			},
			{
				"x": -1.8530473816,
				"y": -2.591248268,
				"z": -3.1383396711,
				"element": "H" 
			}
		],
		 "valence_orbital": [ 
			{
				"type": "occ",
				"energy": -0.27139,
				"method": "rhf"
			},
			{
				"type": "occ",
				"energy": -0.25144,
				"method": "rhf"
			},
			{
				"type": "occ",
				"energy": -0.2317,
				"method": "rhf"
			},
			{
				"type": "occ",
				"energy": -0.22826,
				"method": "rhf"
			},
			{
				"type": "occ",
				"energy": -0.18866,
				"method": "rhf"
			},
			{
				"type": "unocc",
				"energy": -0.01887,
				"method": "rhf"
			},
			{
				"type": "unocc",
				"energy": -0.00446,
				"method": "rhf"
			},
			{
				"type": "unocc",
				"energy": -0.00266,
				"method": "rhf"
			},
			{
				"type": "unocc",
				"energy": 0.0011,
				"method": "rhf"
			},
			{
				"type": "unocc",
				"energy": 0.02497,
				"method": "rhf"
			}
		],
		"cosmo_sigma_profile": { 
			"-0.025": 0.0,
			"-0.024": 0.0,
			"-0.023": 0.0,
			"-0.022": 0.0,
			"-0.021": 0.0,
			"-0.02": 0.0,
			"-0.019": 0.0,
			"-0.018": 0.0,
			"-0.017": 0.0725425442364,
			"-0.016": 1.33591255886,
			"-0.015": 0.640283366831,
			"-0.014": 1.54012612907,
			"-0.013": 1.54575072665,
			"-0.012": 1.24661947212,
			"-0.011": 1.10349554727,
			"-0.01": 1.13099269581,
			"-0.009": 1.35562844892,
			"-0.008": 1.35843681864,
			"-0.007": 4.82348609029,
			"-0.006": 11.2418970887,
			"-0.005": 18.858303486,
			"-0.004": 25.3651061888,
			"-0.003": 25.1634901087,
			"-0.002": 20.8067126614,
			"-0.001": 19.9532313295,
			"0.0": 23.571482035,
			"0.001": 21.2745790375,
			"0.002": 23.1091556196,
			"0.003": 25.3022426372,
			"0.004": 28.5913677738,
			"0.005": 28.1901146766,
			"0.006": 11.2550451462,
			"0.007": 3.91176968598,
			"0.008": 2.77563354029,
			"0.009": 3.36162434222,
			"0.01": 1.71110836994,
			"0.011": 0.279938138991,
			"0.012": 0.0,
			"0.013": 0.0,
			"0.014": 0.0,
			"0.015": 0.0,
			"0.016": 0.0,
			"0.017": 0.0,
			"0.018": 0.0,
			"0.019": 0.0,
			"0.02": 0.0,
			"0.021": 0.0,
			"0.022": 0.0,
			"0.023": 0.0,
			"0.024": 0.0,
			"0.025": 0.0
		}
	}
}
