{
	 "smiles": "COC(=O)C1=C(CBr)C=CC=C1", 
	 "Tm": 305.15, 
	 "num_atms": 21, 
	 "gaussian": { 
		 "optdone": 1, 
		 "sigma_profile": "yes", 
		 "theory": "DFT", 
		 "functional": "B3LYP", 
		 "basiset": "6-31G**", 
		 "properties": { 
			 "R2extent": 3312.4322, 
			 "electric_dipole_moment_norm": 2.37091269768, 
			 "electric_quadrupole_moment_norm": 14.0344513348, 
			 "total_energy": -3070.24574379, 
			 "HOMO_LUMO_gap": 0.1969, 
			 "cosmo_polarized_energy": -9.27, 
			 "cosmo_cavitation_energy": 27.19, 
			 "cosmo_dispersion_energy": -19.73, 
			 "cosmo_repulsion_energy": 1.57, 
			 "cosmo_total_nonelectrostatic_energy": 9.04, 
			 "SMD_solvation_energy": 5.05 
		},
		"coords": [
			{
				"x": -2.2404851987,
				"y": -2.2360683137,
				"z": 0.5709822406,
				"element": "C" 
			},
			{
				"x": -1.3599256838,
				"y": -1.1019468243,
				"z": 0.4920170475,
				"element": "O" 
			},
			{
				"x": -0.2328450139,
				"y": -1.2958914409,
				"z": -0.2243670605,
				"element": "C" 
			},
			{
				"x": -0.0028273717,
				"y": -2.3397369175,
				"z": -0.8039631207,
				"element": "O" 
			},
			{
				"x": 0.6907190139,
				"y": -0.1138395534,
				"z": -0.257802475,
				"element": "C" 
			},
			{
				"x": 0.6054721116,
				"y": 1.0476409815,
				"z": 0.5498957023,
				"element": "C" 
			},
			{
				"x": -0.452214097,
				"y": 1.3061007016,
				"z": 1.5803452747,
				"element": "C" 
			},
			{
				"x": -0.061052415,
				"y": 0.372044491,
				"z": 3.3106335606,
				"element": "Br" 
			},
			{
				"x": 1.582420926,
				"y": 2.0408842076,
				"z": 0.3838840267,
				"element": "C" 
			},
			{
				"x": 2.6108986655,
				"y": 1.9165515388,
				"z": -0.5470353029,
				"element": "C" 
			},
			{
				"x": 2.6893456409,
				"y": 0.7713930144,
				"z": -1.3387512901,
				"element": "C" 
			},
			{
				"x": 1.7370078433,
				"y": -0.2307687762,
				"z": -1.1856851052,
				"element": "C" 
			},
			{
				"x": -3.0684316083,
				"y": -1.9185066698,
				"z": 1.2041292912,
				"element": "H" 
			},
			{
				"x": -2.5973576066,
				"y": -2.5138922094,
				"z": -0.4236130902,
				"element": "H" 
			},
			{
				"x": -1.7229081887,
				"y": -3.089835086,
				"z": 1.0136370962,
				"element": "H" 
			},
			{
				"x": -1.4340370647,
				"y": 0.9444020259,
				"z": 1.300863809,
				"element": "H" 
			},
			{
				"x": -0.485637996,
				"y": 2.3592067061,
				"z": 1.8512223913,
				"element": "H" 
			},
			{
				"x": 1.5314753239,
				"y": 2.9291392037,
				"z": 1.0076477106,
				"element": "H" 
			},
			{
				"x": 3.3463194593,
				"y": 2.7091458562,
				"z": -0.6493246445,
				"element": "H" 
			},
			{
				"x": 3.4859202286,
				"y": 0.6575118439,
				"z": -2.0675756307,
				"element": "H" 
			},
			{
				"x": 1.7801430317,
				"y": -1.1355347797,
				"z": -1.7813404309,
				"element": "H" 
			}
		],
		 "valence_orbital": [ 
			{
				"type": "occ",
				"energy": -0.27984,
				"method": "rhf"
			},
			{
				"type": "occ",
				"energy": -0.27457,
				"method": "rhf"
			},
			{
				"type": "occ",
				"energy": -0.26888,
				"method": "rhf"
			},
			{
				"type": "occ",
				"energy": -0.26274,
				"method": "rhf"
			},
			{
				"type": "occ",
				"energy": -0.25646,
				"method": "rhf"
			},
			{
				"type": "unocc",
				"energy": -0.05956,
				"method": "rhf"
			},
			{
				"type": "unocc",
				"energy": -0.02833,
				"method": "rhf"
			},
			{
				"type": "unocc",
				"energy": 0.02454,
				"method": "rhf"
			},
			{
				"type": "unocc",
				"energy": 0.05026,
				"method": "rhf"
			},
			{
				"type": "unocc",
				"energy": 0.08579,
				"method": "rhf"
			}
		],
		"cosmo_sigma_profile": { 
			"-0.025": 0.0,
			"-0.024": 0.0,
			"-0.023": 0.0,
			"-0.022": 0.0,
			"-0.021": 0.0,
			"-0.02": 0.0,
			"-0.019": 0.0,
			"-0.018": 0.0,
			"-0.017": 0.0,
			"-0.016": 0.0,
			"-0.015": 0.0,
			"-0.014": 0.0,
			"-0.013": 0.0,
			"-0.012": 0.0,
			"-0.011": 0.0,
			"-0.01": 0.0,
			"-0.009": 0.118088270971,
			"-0.008": 2.53426327065,
			"-0.007": 7.06990779091,
			"-0.006": 14.520665075,
			"-0.005": 18.8342865073,
			"-0.004": 18.4530934284,
			"-0.003": 17.5547809227,
			"-0.002": 14.2140791331,
			"-0.001": 14.1712710465,
			"0.0": 14.1349989562,
			"0.001": 13.7905388537,
			"0.002": 16.5970878054,
			"0.003": 19.2335455249,
			"0.004": 11.4749723257,
			"0.005": 9.79157692792,
			"0.006": 12.2034327792,
			"0.007": 4.0845860453,
			"0.008": 1.45124329616,
			"0.009": 1.58094278739,
			"0.01": 1.81305044174,
			"0.011": 3.10579720224,
			"0.012": 3.56691047503,
			"0.013": 0.0452899334472,
			"0.014": 0.0,
			"0.015": 0.0,
			"0.016": 0.0,
			"0.017": 0.0,
			"0.018": 0.0,
			"0.019": 0.0,
			"0.02": 0.0,
			"0.021": 0.0,
			"0.022": 0.0,
			"0.023": 0.0,
			"0.024": 0.0,
			"0.025": 0.0
		}
	}
}
