{
	 "smiles": "COC(=O)CC1SC2=CC=CC=C2NC1=O", 
	 "Tm": 416.15, 
	 "num_atms": 27, 
	 "gaussian": { 
		 "optdone": 1, 
		 "sigma_profile": "yes", 
		 "theory": "DFT", 
		 "functional": "B3LYP", 
		 "basiset": "6-31G**", 
		 "properties": { 
			 "R2extent": 4476.3213, 
			 "electric_dipole_moment_norm": 1.6349693361, 
			 "electric_quadrupole_moment_norm": 18.9469119719, 
			 "total_energy": -1104.43661382, 
			 "HOMO_LUMO_gap": 0.18962, 
			 "cosmo_polarized_energy": -15.61, 
			 "cosmo_cavitation_energy": 32.7, 
			 "cosmo_dispersion_energy": -23.42, 
			 "cosmo_repulsion_energy": 1.8, 
			 "cosmo_total_nonelectrostatic_energy": 11.08, 
			 "SMD_solvation_energy": 6.99 
		},
		"coords": [
			{
				"x": 3.4028136963,
				"y": -1.8972785115,
				"z": -3.1502183546,
				"element": "C" 
			},
			{
				"x": 2.9486065478,
				"y": -1.3722298528,
				"z": -1.8905667514,
				"element": "O" 
			},
			{
				"x": 1.9732379932,
				"y": -0.4413986078,
				"z": -1.9705135004,
				"element": "C" 
			},
			{
				"x": 1.5076961815,
				"y": -0.0416630494,
				"z": -3.0135467732,
				"element": "O" 
			},
			{
				"x": 1.5754983853,
				"y": 0.0706300181,
				"z": -0.5968781613,
				"element": "C" 
			},
			{
				"x": 1.4986006907,
				"y": -1.0161174661,
				"z": 0.4910998018,
				"element": "C" 
			},
			{
				"x": 0.24086402,
				"y": -2.3149935406,
				"z": 0.1512346324,
				"element": "S" 
			},
			{
				"x": -1.2202201941,
				"y": -1.3743891019,
				"z": 0.5230746062,
				"element": "C" 
			},
			{
				"x": -2.4227880197,
				"y": -1.643765699,
				"z": -0.1393735499,
				"element": "C" 
			},
			{
				"x": -3.5938139791,
				"y": -0.9743329178,
				"z": 0.2115065152,
				"element": "C" 
			},
			{
				"x": -3.5634316078,
				"y": -0.0055358969,
				"z": 1.2171201725,
				"element": "C" 
			},
			{
				"x": -2.3678459181,
				"y": 0.2892612672,
				"z": 1.866958398,
				"element": "C" 
			},
			{
				"x": -1.192384122,
				"y": -0.3974615479,
				"z": 1.5361038862,
				"element": "C" 
			},
			{
				"x": -0.006611365,
				"y": -0.1182235079,
				"z": 2.2363687032,
				"element": "N" 
			},
			{
				"x": 1.2929177038,
				"y": -0.3838897335,
				"z": 1.8659758476,
				"element": "C" 
			},
			{
				"x": 2.2342815274,
				"y": -0.0730491044,
				"z": 2.5787727751,
				"element": "O" 
			},
			{
				"x": 3.8175422506,
				"y": -1.0989610612,
				"z": -3.7704069103,
				"element": "H" 
			},
			{
				"x": 4.1704930546,
				"y": -2.6303236138,
				"z": -2.9037645591,
				"element": "H" 
			},
			{
				"x": 2.576747287,
				"y": -2.3697170127,
				"z": -3.6868527783,
				"element": "H" 
			},
			{
				"x": 0.6238226595,
				"y": 0.5938950512,
				"z": -0.7111204444,
				"element": "H" 
			},
			{
				"x": 2.3280531884,
				"y": 0.8080496963,
				"z": -0.2863036008,
				"element": "H" 
			},
			{
				"x": 2.449363523,
				"y": -1.5470152344,
				"z": 0.5388229736,
				"element": "H" 
			},
			{
				"x": -2.4325296088,
				"y": -2.3871214974,
				"z": -0.9306785055,
				"element": "H" 
			},
			{
				"x": -4.5207370101,
				"y": -1.2001592556,
				"z": -0.3059113801,
				"element": "H" 
			},
			{
				"x": -4.4674105818,
				"y": 0.5296234216,
				"z": 1.490641728,
				"element": "H" 
			},
			{
				"x": -2.3363911824,
				"y": 1.0518824535,
				"z": 2.6410327781,
				"element": "H" 
			},
			{
				"x": -0.0810751203,
				"y": 0.3929843048,
				"z": 3.1071224514,
				"element": "H" 
			}
		],
		 "valence_orbital": [ 
			{
				"type": "occ",
				"energy": -0.29706,
				"method": "rhf"
			},
			{
				"type": "occ",
				"energy": -0.2799,
				"method": "rhf"
			},
			{
				"type": "occ",
				"energy": -0.26178,
				"method": "rhf"
			},
			{
				"type": "occ",
				"energy": -0.24047,
				"method": "rhf"
			},
			{
				"type": "occ",
				"energy": -0.21986,
				"method": "rhf"
			},
			{
				"type": "unocc",
				"energy": -0.03024,
				"method": "rhf"
			},
			{
				"type": "unocc",
				"energy": -0.01834,
				"method": "rhf"
			},
			{
				"type": "unocc",
				"energy": 0.00221,
				"method": "rhf"
			},
			{
				"type": "unocc",
				"energy": 0.02154,
				"method": "rhf"
			},
			{
				"type": "unocc",
				"energy": 0.03921,
				"method": "rhf"
			}
		],
		"cosmo_sigma_profile": { 
			"-0.025": 0.0,
			"-0.024": 0.0,
			"-0.023": 0.0,
			"-0.022": 0.0,
			"-0.021": 0.0,
			"-0.02": 0.0,
			"-0.019": 0.0,
			"-0.018": 0.0,
			"-0.017": 0.0,
			"-0.016": 0.0773070155442,
			"-0.015": 0.993631164972,
			"-0.014": 1.69544346065,
			"-0.013": 0.64623106727,
			"-0.012": 1.09819770327,
			"-0.011": 1.30285424702,
			"-0.01": 1.138018477,
			"-0.009": 1.43896634615,
			"-0.008": 3.58749416267,
			"-0.007": 8.1566894988,
			"-0.006": 17.4717199508,
			"-0.005": 21.7799755698,
			"-0.004": 24.6190628822,
			"-0.003": 19.652281019,
			"-0.002": 14.6601477689,
			"-0.001": 13.0940955592,
			"0.0": 14.2946337562,
			"0.001": 15.9458854126,
			"0.002": 18.0912501055,
			"0.003": 17.3081924881,
			"0.004": 16.0792069231,
			"0.005": 11.1922138501,
			"0.006": 5.44128817852,
			"0.007": 3.10165167922,
			"0.008": 3.41115796342,
			"0.009": 2.90457555317,
			"0.01": 3.21066901662,
			"0.011": 6.19850364183,
			"0.012": 8.80614488621,
			"0.013": 4.21573541684,
			"0.014": 0.283133294183,
			"0.015": 0.0,
			"0.016": 0.0,
			"0.017": 0.0,
			"0.018": 0.0,
			"0.019": 0.0,
			"0.02": 0.0,
			"0.021": 0.0,
			"0.022": 0.0,
			"0.023": 0.0,
			"0.024": 0.0,
			"0.025": 0.0
		}
	}
}
