{
	 "smiles": "ClC1=CC(Br)=CC(Br)=C1", 
	 "Tm": 366.15, 
	 "num_atms": 12, 
	 "gaussian": { 
		 "optdone": 1, 
		 "sigma_profile": "yes", 
		 "theory": "DFT", 
		 "functional": "B3LYP", 
		 "basiset": "6-31G**", 
		 "properties": { 
			 "R2extent": 5884.8763, 
			 "electric_dipole_moment_norm": 0.161664343626, 
			 "electric_quadrupole_moment_norm": 1.98089204653, 
			 "total_energy": -5833.44404094, 
			 "HOMO_LUMO_gap": 0.22046, 
			 "cosmo_polarized_energy": -3.33, 
			 "cosmo_cavitation_energy": 23.13, 
			 "cosmo_dispersion_energy": -18.1, 
			 "cosmo_repulsion_energy": 1.49, 
			 "cosmo_total_nonelectrostatic_energy": 6.52, 
			 "SMD_solvation_energy": 1.4 
		},
		"coords": [
			{
				"x": 2.4080051496,
				"y": -0.8901489241,
				"z": -2.2556962155,
				"element": "Cl" 
			},
			{
				"x": 1.8697971719,
				"y": -1.1195542726,
				"z": -0.6046553239,
				"element": "C" 
			},
			{
				"x": 0.9965770631,
				"y": -2.1684316774,
				"z": -0.3160254072,
				"element": "C" 
			},
			{
				"x": 0.5820195327,
				"y": -2.331463552,
				"z": 1.0042301273,
				"element": "C" 
			},
			{
				"x": -0.6115443279,
				"y": -3.7566438313,
				"z": 1.428284377,
				"element": "Br" 
			},
			{
				"x": 1.0129815036,
				"y": -1.4848261178,
				"z": 2.0242401373,
				"element": "C" 
			},
			{
				"x": 1.8851621905,
				"y": -0.450051586,
				"z": 1.6903865274,
				"element": "C" 
			},
			{
				"x": 2.493026462,
				"y": 0.725695079,
				"z": 3.0628353586,
				"element": "Br" 
			},
			{
				"x": 2.3266058528,
				"y": -0.2481935255,
				"z": 0.3842894613,
				"element": "C" 
			},
			{
				"x": 0.6527374846,
				"y": -2.8345762865,
				"z": -1.0964870671,
				"element": "H" 
			},
			{
				"x": 0.6806778896,
				"y": -1.6265266383,
				"z": 3.0438592962,
				"element": "H" 
			},
			{
				"x": 3.0039540276,
				"y": 0.5601213326,
				"z": 0.1415387286,
				"element": "H" 
			}
		],
		 "valence_orbital": [ 
			{
				"type": "occ",
				"energy": -0.30605,
				"method": "rhf"
			},
			{
				"type": "occ",
				"energy": -0.30177,
				"method": "rhf"
			},
			{
				"type": "occ",
				"energy": -0.29989,
				"method": "rhf"
			},
			{
				"type": "occ",
				"energy": -0.26314,
				"method": "rhf"
			},
			{
				"type": "occ",
				"energy": -0.2601,
				"method": "rhf"
			},
			{
				"type": "unocc",
				"energy": -0.03964,
				"method": "rhf"
			},
			{
				"type": "unocc",
				"energy": -0.03895,
				"method": "rhf"
			},
			{
				"type": "unocc",
				"energy": -0.03543,
				"method": "rhf"
			},
			{
				"type": "unocc",
				"energy": 0.01436,
				"method": "rhf"
			},
			{
				"type": "unocc",
				"energy": 0.03334,
				"method": "rhf"
			}
		],
		"cosmo_sigma_profile": { 
			"-0.025": 0.0,
			"-0.024": 0.0,
			"-0.023": 0.0,
			"-0.022": 0.0,
			"-0.021": 0.0,
			"-0.02": 0.0,
			"-0.019": 0.0,
			"-0.018": 0.0,
			"-0.017": 0.0,
			"-0.016": 0.0,
			"-0.015": 0.0,
			"-0.014": 0.0,
			"-0.013": 0.0,
			"-0.012": 0.0,
			"-0.011": 0.0,
			"-0.01": 0.0,
			"-0.009": 1.35056552349,
			"-0.008": 4.27374384325,
			"-0.007": 4.07328688647,
			"-0.006": 4.52844087045,
			"-0.005": 7.74082779253,
			"-0.004": 8.45624921406,
			"-0.003": 9.72120650572,
			"-0.002": 11.7998225192,
			"-0.001": 16.1863573119,
			"0.0": 32.9572253643,
			"0.001": 26.4292905745,
			"0.002": 18.0636020469,
			"0.003": 24.2987103775,
			"0.004": 25.0084161391,
			"0.005": 0.719876338579,
			"0.006": 0.0,
			"0.007": 0.0,
			"0.008": 0.0,
			"0.009": 0.0,
			"0.01": 0.0,
			"0.011": 0.0,
			"0.012": 0.0,
			"0.013": 0.0,
			"0.014": 0.0,
			"0.015": 0.0,
			"0.016": 0.0,
			"0.017": 0.0,
			"0.018": 0.0,
			"0.019": 0.0,
			"0.02": 0.0,
			"0.021": 0.0,
			"0.022": 0.0,
			"0.023": 0.0,
			"0.024": 0.0,
			"0.025": 0.0
		}
	}
}
