{
	 "smiles": "OC(=O)CNC(=O)C1=C(Cl)C=CC=C1F", 
	 "Tm": 471.15, 
	 "num_atms": 22, 
	 "gaussian": { 
		 "optdone": 1, 
		 "sigma_profile": "yes", 
		 "theory": "DFT", 
		 "functional": "B3LYP", 
		 "basiset": "6-31G**", 
		 "properties": { 
			 "R2extent": 4453.902, 
			 "electric_dipole_moment_norm": 7.04463697503, 
			 "electric_quadrupole_moment_norm": 9.22092673867, 
			 "total_energy": -1187.63332376, 
			 "HOMO_LUMO_gap": 0.2134, 
			 "cosmo_polarized_energy": -23.61, 
			 "cosmo_cavitation_energy": 29.71, 
			 "cosmo_dispersion_energy": -20.95, 
			 "cosmo_repulsion_energy": 1.66, 
			 "cosmo_total_nonelectrostatic_energy": 10.42, 
			 "SMD_solvation_energy": 6.39 
		},
		"coords": [
			{
				"x": 1.5444954266,
				"y": 2.4460275883,
				"z": -1.7445988258,
				"element": "O" 
			},
			{
				"x": 0.446803783,
				"y": 2.6112691456,
				"z": -0.9736932353,
				"element": "C" 
			},
			{
				"x": -0.1519567072,
				"y": 3.6563875125,
				"z": -0.9599157062,
				"element": "O" 
			},
			{
				"x": 0.0511637912,
				"y": 1.3977879777,
				"z": -0.1336401309,
				"element": "C" 
			},
			{
				"x": -1.1515706807,
				"y": 1.7080637659,
				"z": 0.5979218885,
				"element": "N" 
			},
			{
				"x": -1.8833106019,
				"y": 0.8741358475,
				"z": 1.3905656762,
				"element": "C" 
			},
			{
				"x": -2.8899838874,
				"y": 1.2350989793,
				"z": 1.9779409294,
				"element": "O" 
			},
			{
				"x": -1.3839234675,
				"y": -0.5541635881,
				"z": 1.5175449045,
				"element": "C" 
			},
			{
				"x": -2.1059621159,
				"y": -1.654656696,
				"z": 1.0327240922,
				"element": "C" 
			},
			{
				"x": -3.5464512674,
				"y": -1.3991490022,
				"z": 0.0689924901,
				"element": "Cl" 
			},
			{
				"x": -1.6904771641,
				"y": -2.965372768,
				"z": 1.2714934064,
				"element": "C" 
			},
			{
				"x": -0.5375225657,
				"y": -3.1951655577,
				"z": 2.0222023239,
				"element": "C" 
			},
			{
				"x": 0.2090143292,
				"y": -2.1279597038,
				"z": 2.5202301872,
				"element": "C" 
			},
			{
				"x": -0.2326033546,
				"y": -0.8396180484,
				"z": 2.2538856398,
				"element": "C" 
			},
			{
				"x": 0.4960174316,
				"y": 0.203009831,
				"z": 2.7195838673,
				"element": "F" 
			},
			{
				"x": 1.9091381129,
				"y": 1.5543998579,
				"z": -1.6449709901,
				"element": "H" 
			},
			{
				"x": -0.0879834292,
				"y": 0.5374743035,
				"z": -0.8039493306,
				"element": "H" 
			},
			{
				"x": 0.8898174822,
				"y": 1.1586449428,
				"z": 0.5363084074,
				"element": "H" 
			},
			{
				"x": -1.4819624864,
				"y": 2.6644524089,
				"z": 0.5160509978,
				"element": "H" 
			},
			{
				"x": -2.270427014,
				"y": -3.7904457175,
				"z": 0.8748264543,
				"element": "H" 
			},
			{
				"x": -0.2181076831,
				"y": -4.2140619235,
				"z": 2.2166172803,
				"element": "H" 
			},
			{
				"x": 1.1090920686,
				"y": -2.2745591559,
				"z": 3.1063796738,
				"element": "H" 
			}
		],
		 "valence_orbital": [ 
			{
				"type": "occ",
				"energy": -0.30368,
				"method": "rhf"
			},
			{
				"type": "occ",
				"energy": -0.2827,
				"method": "rhf"
			},
			{
				"type": "occ",
				"energy": -0.26419,
				"method": "rhf"
			},
			{
				"type": "occ",
				"energy": -0.26291,
				"method": "rhf"
			},
			{
				"type": "occ",
				"energy": -0.25564,
				"method": "rhf"
			},
			{
				"type": "unocc",
				"energy": -0.04224,
				"method": "rhf"
			},
			{
				"type": "unocc",
				"energy": -0.02654,
				"method": "rhf"
			},
			{
				"type": "unocc",
				"energy": -0.01302,
				"method": "rhf"
			},
			{
				"type": "unocc",
				"energy": 0.01144,
				"method": "rhf"
			},
			{
				"type": "unocc",
				"energy": 0.02214,
				"method": "rhf"
			}
		],
		"cosmo_sigma_profile": { 
			"-0.025": 0.0,
			"-0.024": 0.0,
			"-0.023": 0.0,
			"-0.022": 0.0,
			"-0.021": 0.203205047813,
			"-0.02": 0.867312741363,
			"-0.019": 1.36729709664,
			"-0.018": 1.68079340512,
			"-0.017": 1.08290151198,
			"-0.016": 0.943201054514,
			"-0.015": 1.26449916941,
			"-0.014": 1.28696983991,
			"-0.013": 1.34457349163,
			"-0.012": 1.33197843797,
			"-0.011": 1.27155343201,
			"-0.01": 2.98977875877,
			"-0.009": 3.75792878996,
			"-0.008": 8.36506654941,
			"-0.007": 9.34234286388,
			"-0.006": 12.2086358602,
			"-0.005": 9.37817975988,
			"-0.004": 9.24193608208,
			"-0.003": 10.572639591,
			"-0.002": 10.6095249744,
			"-0.001": 15.3074820167,
			"0.0": 16.6573993535,
			"0.001": 19.9859726451,
			"0.002": 20.9058219222,
			"0.003": 18.0041073398,
			"0.004": 11.5613608678,
			"0.005": 4.04705330654,
			"0.006": 3.99828146776,
			"0.007": 5.28356161747,
			"0.008": 5.37641795259,
			"0.009": 5.88458617694,
			"0.01": 6.82254144393,
			"0.011": 5.5825199003,
			"0.012": 4.67256741336,
			"0.013": 5.60641975738,
			"0.014": 1.16342894876,
			"0.015": 0.0,
			"0.016": 0.0,
			"0.017": 0.0,
			"0.018": 0.0,
			"0.019": 0.0,
			"0.02": 0.0,
			"0.021": 0.0,
			"0.022": 0.0,
			"0.023": 0.0,
			"0.024": 0.0,
			"0.025": 0.0
		}
	}
}
