{
	 "smiles": "CCOCN1C(=C(C#N)C(Br)=C1C(F)(F)F)C1=CC=C(Cl)C=C1", 
	 "Tm": 374.15, 
	 "num_atms": 34, 
	 "gaussian": { 
		 "optdone": 1, 
		 "sigma_profile": "yes", 
		 "theory": "DFT", 
		 "functional": "B3LYP", 
		 "basiset": "6-31G**", 
		 "properties": { 
			 "R2extent": 11337.7879, 
			 "electric_dipole_moment_norm": 6.38119670046, 
			 "electric_quadrupole_moment_norm": 9.76647329336, 
			 "total_energy": -4094.03925226, 
			 "HOMO_LUMO_gap": 0.17972, 
			 "cosmo_polarized_energy": -12.83, 
			 "cosmo_cavitation_energy": 43.87, 
			 "cosmo_dispersion_energy": -29.69, 
			 "cosmo_repulsion_energy": 2.23, 
			 "cosmo_total_nonelectrostatic_energy": 16.41, 
			 "SMD_solvation_energy": 7.91 
		},
		"coords": [
			{
				"x": -4.5478307087,
				"y": -0.4451260041,
				"z": -0.9729296901,
				"element": "C" 
			},
			{
				"x": -4.0005693292,
				"y": -0.5597991762,
				"z": 0.4459807108,
				"element": "C" 
			},
			{
				"x": -2.5777600211,
				"y": -0.7167205424,
				"z": 0.4962918137,
				"element": "O" 
			},
			{
				"x": -1.8382535439,
				"y": 0.444541977,
				"z": 0.2077945705,
				"element": "C" 
			},
			{
				"x": -0.5968231785,
				"y": 0.4251820858,
				"z": 0.9711698311,
				"element": "N" 
			},
			{
				"x": 0.5983876603,
				"y": -0.0978119623,
				"z": 0.5328412833,
				"element": "C" 
			},
			{
				"x": 1.5391610409,
				"y": 0.109772867,
				"z": 1.5465892386,
				"element": "C" 
			},
			{
				"x": 2.8992052041,
				"y": -0.2920883911,
				"z": 1.5237955596,
				"element": "C" 
			},
			{
				"x": 4.0178800621,
				"y": -0.6130438492,
				"z": 1.5015820078,
				"element": "N" 
			},
			{
				"x": 0.8743477038,
				"y": 0.766536098,
				"z": 2.6239322269,
				"element": "C" 
			},
			{
				"x": 1.7258705449,
				"y": 1.2576945759,
				"z": 4.2220426427,
				"element": "Br" 
			},
			{
				"x": -0.440265382,
				"y": 0.9456635724,
				"z": 2.253998663,
				"element": "C" 
			},
			{
				"x": -1.5713358651,
				"y": 1.6152092799,
				"z": 2.9605923227,
				"element": "C" 
			},
			{
				"x": -1.2414313085,
				"y": 1.9799609426,
				"z": 4.2028207537,
				"element": "F" 
			},
			{
				"x": -1.9791976689,
				"y": 2.7345945572,
				"z": 2.2989937194,
				"element": "F" 
			},
			{
				"x": -2.6627318297,
				"y": 0.8133884582,
				"z": 3.0401323705,
				"element": "F" 
			},
			{
				"x": 0.7961791159,
				"y": -0.7550529864,
				"z": -0.7692816427,
				"element": "C" 
			},
			{
				"x": -0.1116039369,
				"y": -1.709416252,
				"z": -1.2640873422,
				"element": "C" 
			},
			{
				"x": 0.1166612435,
				"y": -2.3412951827,
				"z": -2.4843221006,
				"element": "C" 
			},
			{
				"x": 1.2637384469,
				"y": -2.0297613984,
				"z": -3.2138428616,
				"element": "C" 
			},
			{
				"x": 1.5532059223,
				"y": -2.8261373525,
				"z": -4.7493202156,
				"element": "Cl" 
			},
			{
				"x": 2.1849178068,
				"y": -1.0957375521,
				"z": -2.7395279747,
				"element": "C" 
			},
			{
				"x": 1.9468601725,
				"y": -0.4629091799,
				"z": -1.5229283834,
				"element": "C" 
			},
			{
				"x": -4.1965634568,
				"y": 0.4628648041,
				"z": -1.4746104404,
				"element": "H" 
			},
			{
				"x": -5.6419737457,
				"y": -0.407244677,
				"z": -0.9503597601,
				"element": "H" 
			},
			{
				"x": -4.2470967346,
				"y": -1.3081195073,
				"z": -1.5744148486,
				"element": "H" 
			},
			{
				"x": -4.3941735973,
				"y": -1.4538232754,
				"z": 0.9372432333,
				"element": "H" 
			},
			{
				"x": -4.2911735016,
				"y": 0.3087717118,
				"z": 1.0531088562,
				"element": "H" 
			},
			{
				"x": -1.5622043733,
				"y": 0.4986823074,
				"z": -0.8501752883,
				"element": "H" 
			},
			{
				"x": -2.391936167,
				"y": 1.3482032807,
				"z": 0.4770900244,
				"element": "H" 
			},
			{
				"x": -0.9942828803,
				"y": -1.965324477,
				"z": -0.6876707488,
				"element": "H" 
			},
			{
				"x": -0.5828274489,
				"y": -3.0793463314,
				"z": -2.8607438669,
				"element": "H" 
			},
			{
				"x": 3.0731700267,
				"y": -0.8641932958,
				"z": -3.3162101253,
				"element": "H" 
			},
			{
				"x": 2.6603497274,
				"y": 0.2680848748,
				"z": -1.1587745391,
				"element": "H" 
			}
		],
		 "valence_orbital": [ 
			{
				"type": "occ",
				"energy": -0.29383,
				"method": "rhf"
			},
			{
				"type": "occ",
				"energy": -0.2793,
				"method": "rhf"
			},
			{
				"type": "occ",
				"energy": -0.27757,
				"method": "rhf"
			},
			{
				"type": "occ",
				"energy": -0.26203,
				"method": "rhf"
			},
			{
				"type": "occ",
				"energy": -0.23934,
				"method": "rhf"
			},
			{
				"type": "unocc",
				"energy": -0.05962,
				"method": "rhf"
			},
			{
				"type": "unocc",
				"energy": -0.03063,
				"method": "rhf"
			},
			{
				"type": "unocc",
				"energy": -0.01587,
				"method": "rhf"
			},
			{
				"type": "unocc",
				"energy": -0.00727,
				"method": "rhf"
			},
			{
				"type": "unocc",
				"energy": 0.0016,
				"method": "rhf"
			}
		],
		"cosmo_sigma_profile": { 
			"-0.025": 0.0,
			"-0.024": 0.0,
			"-0.023": 0.0,
			"-0.022": 0.0,
			"-0.021": 0.0,
			"-0.02": 0.0,
			"-0.019": 0.0,
			"-0.018": 0.0,
			"-0.017": 0.0,
			"-0.016": 0.0,
			"-0.015": 0.0,
			"-0.014": 0.0,
			"-0.013": 0.0,
			"-0.012": 0.0,
			"-0.011": 0.0,
			"-0.01": 0.0,
			"-0.009": 0.0,
			"-0.008": 3.79788692528,
			"-0.007": 12.0780259257,
			"-0.006": 15.1381902921,
			"-0.005": 16.4855541667,
			"-0.004": 20.7160167605,
			"-0.003": 25.0040073997,
			"-0.002": 31.6706205969,
			"-0.001": 34.8325563993,
			"0.0": 34.9690969837,
			"0.001": 36.6561137271,
			"0.002": 49.1141192103,
			"0.003": 31.2453089809,
			"0.004": 14.9609949107,
			"0.005": 6.4507685402,
			"0.006": 4.02984867356,
			"0.007": 2.81640383483,
			"0.008": 4.24808703685,
			"0.009": 3.6604407976,
			"0.01": 3.54070711272,
			"0.011": 2.81873817666,
			"0.012": 2.59048568658,
			"0.013": 1.14859562802,
			"0.014": 0.0,
			"0.015": 0.0,
			"0.016": 0.0,
			"0.017": 0.0,
			"0.018": 0.0,
			"0.019": 0.0,
			"0.02": 0.0,
			"0.021": 0.0,
			"0.022": 0.0,
			"0.023": 0.0,
			"0.024": 0.0,
			"0.025": 0.0
		}
	}
}
