{
	 "smiles": "ON(CC1=CC=CC=C1)CC1=CC=CC=C1", 
	 "Tm": 396.15, 
	 "num_atms": 31, 
	 "gaussian": { 
		 "optdone": 1, 
		 "sigma_profile": "yes", 
		 "theory": "DFT", 
		 "functional": "B3LYP", 
		 "basiset": "6-31G**", 
		 "properties": { 
			 "R2extent": 3983.9483, 
			 "electric_dipole_moment_norm": 2.55273026581, 
			 "electric_quadrupole_moment_norm": 7.89261063717, 
			 "total_energy": -672.439084882, 
			 "HOMO_LUMO_gap": 0.20226, 
			 "cosmo_polarized_energy": -10.41, 
			 "cosmo_cavitation_energy": 33.2, 
			 "cosmo_dispersion_energy": -22.69, 
			 "cosmo_repulsion_energy": 1.77, 
			 "cosmo_total_nonelectrostatic_energy": 12.27, 
			 "SMD_solvation_energy": 3.94 
		},
		"coords": [
			{
				"x": 1.8122069031,
				"y": -2.3699006657,
				"z": 1.5510406962,
				"element": "O" 
			},
			{
				"x": 1.6244283342,
				"y": -0.9777148828,
				"z": 1.7573513864,
				"element": "N" 
			},
			{
				"x": 0.3101385041,
				"y": -0.7173921293,
				"z": 2.3658271007,
				"element": "C" 
			},
			{
				"x": -0.9415527399,
				"y": -1.2392474214,
				"z": 1.6742873646,
				"element": "C" 
			},
			{
				"x": -1.2583365272,
				"y": -2.6065978095,
				"z": 1.7202760314,
				"element": "C" 
			},
			{
				"x": -2.4103330917,
				"y": -3.0953082878,
				"z": 1.1010271761,
				"element": "C" 
			},
			{
				"x": -3.2762075073,
				"y": -2.2212217073,
				"z": 0.442039841,
				"element": "C" 
			},
			{
				"x": -2.9847185222,
				"y": -0.856166015,
				"z": 0.408736368,
				"element": "C" 
			},
			{
				"x": -1.8261370168,
				"y": -0.3737635902,
				"z": 1.0179369996,
				"element": "C" 
			},
			{
				"x": 2.0439588637,
				"y": -0.2173974003,
				"z": 0.5692173848,
				"element": "C" 
			},
			{
				"x": 1.4396575409,
				"y": -0.568307922,
				"z": -0.7833480655,
				"element": "C" 
			},
			{
				"x": 1.8487619739,
				"y": -1.7284841459,
				"z": -1.4607465802,
				"element": "C" 
			},
			{
				"x": 1.3127355688,
				"y": -2.0555774062,
				"z": -2.7077782862,
				"element": "C" 
			},
			{
				"x": 0.3722274901,
				"y": -1.2169291416,
				"z": -3.3078585923,
				"element": "C" 
			},
			{
				"x": -0.0264001119,
				"y": -0.048862903,
				"z": -2.6550286684,
				"element": "C" 
			},
			{
				"x": 0.5025271019,
				"y": 0.2679265691,
				"z": -1.4036265831,
				"element": "C" 
			},
			{
				"x": 1.1771484904,
				"y": -2.6357139027,
				"z": 0.8574581857,
				"element": "H" 
			},
			{
				"x": 0.242261415,
				"y": 0.3684301694,
				"z": 2.4926868597,
				"element": "H" 
			},
			{
				"x": 0.365065178,
				"y": -1.1570724102,
				"z": 3.3683220749,
				"element": "H" 
			},
			{
				"x": -0.6052659085,
				"y": -3.2848805815,
				"z": 2.262558482,
				"element": "H" 
			},
			{
				"x": -2.6379586942,
				"y": -4.1567722228,
				"z": 1.1456704832,
				"element": "H" 
			},
			{
				"x": -4.177281149,
				"y": -2.5989881887,
				"z": -0.0326283532,
				"element": "H" 
			},
			{
				"x": -3.6610873767,
				"y": -0.1669847085,
				"z": -0.0892766573,
				"element": "H" 
			},
			{
				"x": -1.6097775248,
				"y": 0.6914906455,
				"z": 0.9920587054,
				"element": "H" 
			},
			{
				"x": 3.1304790122,
				"y": -0.3497429719,
				"z": 0.5107724697,
				"element": "H" 
			},
			{
				"x": 1.8589374966,
				"y": 0.8371394589,
				"z": 0.8001866608,
				"element": "H" 
			},
			{
				"x": 2.6060219572,
				"y": -2.3656841699,
				"z": -1.0121927049,
				"element": "H" 
			},
			{
				"x": 1.6403870105,
				"y": -2.9582995999,
				"z": -3.2159623432,
				"element": "H" 
			},
			{
				"x": -0.0392985623,
				"y": -1.4657574157,
				"z": -4.281865047,
				"element": "H" 
			},
			{
				"x": -0.7472480761,
				"y": 0.6167388718,
				"z": -3.121698863,
				"element": "H" 
			},
			{
				"x": 0.1903599681,
				"y": 1.182141885,
				"z": -0.9048435261,
				"element": "H" 
			}
		],
		 "valence_orbital": [ 
			{
				"type": "occ",
				"energy": -0.25869,
				"method": "rhf"
			},
			{
				"type": "occ",
				"energy": -0.25396,
				"method": "rhf"
			},
			{
				"type": "occ",
				"energy": -0.24597,
				"method": "rhf"
			},
			{
				"type": "occ",
				"energy": -0.23829,
				"method": "rhf"
			},
			{
				"type": "occ",
				"energy": -0.21564,
				"method": "rhf"
			},
			{
				"type": "unocc",
				"energy": -0.01338,
				"method": "rhf"
			},
			{
				"type": "unocc",
				"energy": -0.0119,
				"method": "rhf"
			},
			{
				"type": "unocc",
				"energy": 0.00098,
				"method": "rhf"
			},
			{
				"type": "unocc",
				"energy": 0.00578,
				"method": "rhf"
			},
			{
				"type": "unocc",
				"energy": 0.071,
				"method": "rhf"
			}
		],
		"cosmo_sigma_profile": { 
			"-0.025": 0.0,
			"-0.024": 0.0,
			"-0.023": 0.0,
			"-0.022": 0.0,
			"-0.021": 0.0,
			"-0.02": 0.0,
			"-0.019": 0.0,
			"-0.018": 0.0,
			"-0.017": 0.0,
			"-0.016": 0.0,
			"-0.015": 0.0,
			"-0.014": 0.0,
			"-0.013": 0.0,
			"-0.012": 0.0,
			"-0.011": 0.0,
			"-0.01": 0.222393388869,
			"-0.009": 0.620493303483,
			"-0.008": 0.457007531161,
			"-0.007": 1.27536453176,
			"-0.006": 12.1403444659,
			"-0.005": 28.0002046144,
			"-0.004": 29.3847922862,
			"-0.003": 30.069138365,
			"-0.002": 20.9445712882,
			"-0.001": 19.9108197332,
			"0.0": 12.6971840496,
			"0.001": 14.1747744139,
			"0.002": 15.0895547025,
			"0.003": 14.3417133196,
			"0.004": 15.0801907779,
			"0.005": 16.0880326952,
			"0.006": 14.302537081,
			"0.007": 4.59360772746,
			"0.008": 0.976038407668,
			"0.009": 1.64498493572,
			"0.01": 1.49348227315,
			"0.011": 1.5614191683,
			"0.012": 2.40620729483,
			"0.013": 4.1784560331,
			"0.014": 0.938521808802,
			"0.015": 0.356523016805,
			"0.016": 0.0140796533408,
			"0.017": 0.0,
			"0.018": 0.0,
			"0.019": 0.0,
			"0.02": 0.0,
			"0.021": 0.0,
			"0.022": 0.0,
			"0.023": 0.0,
			"0.024": 0.0,
			"0.025": 0.0
		}
	}
}
