{
	 "smiles": "CC1=CC=C(C=C1)C1=CSC(=N1)C(=N/NC1=CC=CC(=C1)[N+]([O-])=O)C#N", 
	 "Tm": 498.15, 
	 "num_atms": 39, 
	 "gaussian": { 
		 "optdone": 1, 
		 "sigma_profile": "yes", 
		 "theory": "DFT", 
		 "functional": "B3LYP", 
		 "basiset": "6-31G**", 
		 "properties": { 
			 "R2extent": 18136.3632, 
			 "electric_dipole_moment_norm": 10.1352749371, 
			 "electric_quadrupole_moment_norm": 30.7143356641, 
			 "total_energy": -1515.98657871, 
			 "HOMO_LUMO_gap": 0.13071, 
			 "cosmo_polarized_energy": -24.48, 
			 "cosmo_cavitation_energy": 48.66, 
			 "cosmo_dispersion_energy": -34.41, 
			 "cosmo_repulsion_energy": 2.53, 
			 "cosmo_total_nonelectrostatic_energy": 16.78, 
			 "SMD_solvation_energy": 10.19 
		},
		"coords": [
			{
				"x": -0.0847870991,
				"y": 7.7760193932,
				"z": -0.2038083731,
				"element": "C" 
			},
			{
				"x": -0.0019641783,
				"y": 6.2732281301,
				"z": -0.3201060743,
				"element": "C" 
			},
			{
				"x": -1.0417114642,
				"y": 5.4523716422,
				"z": 0.1358706914,
				"element": "C" 
			},
			{
				"x": -0.9575806279,
				"y": 4.0649300741,
				"z": 0.0574250007,
				"element": "C" 
			},
			{
				"x": 0.1793886112,
				"y": 3.4489817705,
				"z": -0.4891055732,
				"element": "C" 
			},
			{
				"x": 1.2242446045,
				"y": 4.2666953407,
				"z": -0.9482488015,
				"element": "C" 
			},
			{
				"x": 1.1310745167,
				"y": 5.6521740324,
				"z": -0.8656888786,
				"element": "C" 
			},
			{
				"x": 0.2459449194,
				"y": 1.9779665237,
				"z": -0.5722381698,
				"element": "C" 
			},
			{
				"x": 1.2351800554,
				"y": 1.2283788668,
				"z": -1.1713750569,
				"element": "C" 
			},
			{
				"x": 0.8913112799,
				"y": -0.457676193,
				"z": -1.0473437751,
				"element": "S" 
			},
			{
				"x": -0.582186947,
				"y": -0.0550384814,
				"z": -0.1494362315,
				"element": "C" 
			},
			{
				"x": -0.762882334,
				"y": 1.2284747316,
				"z": -0.0092625949,
				"element": "N" 
			},
			{
				"x": -1.5622477885,
				"y": -1.037490252,
				"z": 0.3352388836,
				"element": "C" 
			},
			{
				"x": -1.4100376029,
				"y": -2.3057668137,
				"z": 0.5991290248,
				"element": "N" 
			},
			{
				"x": -0.2374700054,
				"y": -2.9127135978,
				"z": 0.4775683093,
				"element": "N" 
			},
			{
				"x": -0.1044910749,
				"y": -4.2699712466,
				"z": 0.8094140572,
				"element": "C" 
			},
			{
				"x": 1.1795643503,
				"y": -4.8359502987,
				"z": 0.8089838276,
				"element": "C" 
			},
			{
				"x": 1.3509798818,
				"y": -6.1842056261,
				"z": 1.1153187202,
				"element": "C" 
			},
			{
				"x": 0.2548160492,
				"y": -6.9873972268,
				"z": 1.4251214465,
				"element": "C" 
			},
			{
				"x": -1.0071383824,
				"y": -6.3966394726,
				"z": 1.416104633,
				"element": "C" 
			},
			{
				"x": -1.2200278678,
				"y": -5.0567870587,
				"z": 1.1148115656,
				"element": "C" 
			},
			{
				"x": -2.1813487152,
				"y": -7.2330070764,
				"z": 1.7400450219,
				"element": "N" 
			},
			{
				"x": -3.2865696464,
				"y": -6.6966781258,
				"z": 1.7204813911,
				"element": "O" 
			},
			{
				"x": -1.9767664907,
				"y": -8.4157917737,
				"z": 2.0087566728,
				"element": "O" 
			},
			{
				"x": -2.8887901197,
				"y": -0.5291682355,
				"z": 0.5695317986,
				"element": "C" 
			},
			{
				"x": -3.9606797044,
				"y": -0.1193653778,
				"z": 0.7542754337,
				"element": "N" 
			},
			{
				"x": 0.4621347212,
				"y": 8.2717946289,
				"z": -1.011549168,
				"element": "H" 
			},
			{
				"x": 0.3484599045,
				"y": 8.1232720408,
				"z": 0.7427911315,
				"element": "H" 
			},
			{
				"x": -1.1219427774,
				"y": 8.1226267818,
				"z": -0.232207298,
				"element": "H" 
			},
			{
				"x": -1.9348094053,
				"y": 5.9063373308,
				"z": 0.5578355526,
				"element": "H" 
			},
			{
				"x": -1.7721832536,
				"y": 3.4437075111,
				"z": 0.4124750326,
				"element": "H" 
			},
			{
				"x": 2.1211602176,
				"y": 3.8248531732,
				"z": -1.3728012957,
				"element": "H" 
			},
			{
				"x": 1.9525387669,
				"y": 6.2638646788,
				"z": -1.23032346,
				"element": "H" 
			},
			{
				"x": 2.1216905111,
				"y": 1.5622278327,
				"z": -1.6895052416,
				"element": "H" 
			},
			{
				"x": 0.6200667601,
				"y": -2.3790424089,
				"z": 0.3519518529,
				"element": "H" 
			},
			{
				"x": 2.0423605887,
				"y": -4.2194772375,
				"z": 0.5701546334,
				"element": "H" 
			},
			{
				"x": 2.3489605815,
				"y": -6.610181283,
				"z": 1.1133216277,
				"element": "H" 
			},
			{
				"x": 0.3557302919,
				"y": -8.0369310886,
				"z": 1.6672421715,
				"element": "H" 
			},
			{
				"x": -2.2175911269,
				"y": -4.640425609,
				"z": 1.1196515121,
				"element": "H" 
			}
		],
		 "valence_orbital": [ 
			{
				"type": "occ",
				"energy": -0.29366,
				"method": "rhf"
			},
			{
				"type": "occ",
				"energy": -0.28931,
				"method": "rhf"
			},
			{
				"type": "occ",
				"energy": -0.25864,
				"method": "rhf"
			},
			{
				"type": "occ",
				"energy": -0.24244,
				"method": "rhf"
			},
			{
				"type": "occ",
				"energy": -0.22598,
				"method": "rhf"
			},
			{
				"type": "unocc",
				"energy": -0.09527,
				"method": "rhf"
			},
			{
				"type": "unocc",
				"energy": -0.09339,
				"method": "rhf"
			},
			{
				"type": "unocc",
				"energy": -0.04887,
				"method": "rhf"
			},
			{
				"type": "unocc",
				"energy": -0.02555,
				"method": "rhf"
			},
			{
				"type": "unocc",
				"energy": -0.01768,
				"method": "rhf"
			}
		],
		"cosmo_sigma_profile": { 
			"-0.025": 0.0,
			"-0.024": 0.0,
			"-0.023": 0.0,
			"-0.022": 0.0,
			"-0.021": 0.0,
			"-0.02": 0.0,
			"-0.019": 0.0,
			"-0.018": 0.0,
			"-0.017": 0.0,
			"-0.016": 0.15286620519,
			"-0.015": 1.01718403952,
			"-0.014": 1.16893690417,
			"-0.013": 1.83817166803,
			"-0.012": 1.48424467924,
			"-0.011": 1.58730025083,
			"-0.01": 4.06793295821,
			"-0.009": 5.45329984004,
			"-0.008": 5.89601275231,
			"-0.007": 11.2249388465,
			"-0.006": 12.4978708586,
			"-0.005": 16.9241548914,
			"-0.004": 27.3795633919,
			"-0.003": 28.1620893579,
			"-0.002": 29.4168873636,
			"-0.001": 38.5937181321,
			"0.0": 39.5651993946,
			"0.001": 32.9775831281,
			"0.002": 26.1598764303,
			"0.003": 18.2595150591,
			"0.004": 15.8590258505,
			"0.005": 18.4782450253,
			"0.006": 11.4178117168,
			"0.007": 14.1056181268,
			"0.008": 12.245863445,
			"0.009": 8.90643093788,
			"0.01": 4.72104873115,
			"0.011": 2.70926342316,
			"0.012": 2.35205009677,
			"0.013": 0.719989445937,
			"0.014": 0.0,
			"0.015": 0.0,
			"0.016": 0.0,
			"0.017": 0.0,
			"0.018": 0.0,
			"0.019": 0.0,
			"0.02": 0.0,
			"0.021": 0.0,
			"0.022": 0.0,
			"0.023": 0.0,
			"0.024": 0.0,
			"0.025": 0.0
		}
	}
}
