{
	 "smiles": "ClCC(=O)C1=CC(Br)=C(Cl)S1", 
	 "Tm": 350.65, 
	 "num_atms": 14, 
	 "gaussian": { 
		 "optdone": 1, 
		 "sigma_profile": "yes", 
		 "theory": "DFT", 
		 "functional": "B3LYP", 
		 "basiset": "6-31G**", 
		 "properties": { 
			 "R2extent": 6691.6957, 
			 "electric_dipole_moment_norm": 3.1940516292, 
			 "electric_quadrupole_moment_norm": 12.0620947066, 
			 "total_energy": -4195.61554032, 
			 "HOMO_LUMO_gap": 0.16472, 
			 "cosmo_polarized_energy": -11.34, 
			 "cosmo_cavitation_energy": 26.8, 
			 "cosmo_dispersion_energy": -20.7, 
			 "cosmo_repulsion_energy": 1.64, 
			 "cosmo_total_nonelectrostatic_energy": 7.74, 
			 "SMD_solvation_energy": 3.18 
		},
		"coords": [
			{
				"x": 1.641130585,
				"y": 0.2741502177,
				"z": -4.672131468,
				"element": "Cl" 
			},
			{
				"x": 0.3853494158,
				"y": 0.7639011557,
				"z": -3.49987532,
				"element": "C" 
			},
			{
				"x": 0.9361080743,
				"y": 0.9819493436,
				"z": -2.0866433171,
				"element": "C" 
			},
			{
				"x": 2.1083293119,
				"y": 0.8356106965,
				"z": -1.7958148452,
				"element": "O" 
			},
			{
				"x": -0.0558492724,
				"y": 1.3886299716,
				"z": -1.0745640203,
				"element": "C" 
			},
			{
				"x": -1.4107268835,
				"y": 1.6097881083,
				"z": -1.1791145368,
				"element": "C" 
			},
			{
				"x": -2.0017665886,
				"y": 1.9935031358,
				"z": 0.0527829186,
				"element": "C" 
			},
			{
				"x": -3.842454634,
				"y": 2.3671992853,
				"z": 0.23623586,
				"element": "Br" 
			},
			{
				"x": -1.0856784205,
				"y": 2.0587190339,
				"z": 1.0786872718,
				"element": "C" 
			},
			{
				"x": -1.3897973012,
				"y": 2.4816488332,
				"z": 2.715447635,
				"element": "Cl" 
			},
			{
				"x": 0.5191036089,
				"y": 1.651245863,
				"z": 0.5556727701,
				"element": "S" 
			},
			{
				"x": -0.3811770999,
				"y": -0.0152325266,
				"z": -3.4806672811,
				"element": "H" 
			},
			{
				"x": -0.0741980007,
				"y": 1.6869300236,
				"z": -3.8629299564,
				"element": "H" 
			},
			{
				"x": -1.982472795,
				"y": 1.5075568585,
				"z": -2.0929857106,
				"element": "H" 
			}
		],
		 "valence_orbital": [ 
			{
				"type": "occ",
				"energy": -0.31032,
				"method": "rhf"
			},
			{
				"type": "occ",
				"energy": -0.30896,
				"method": "rhf"
			},
			{
				"type": "occ",
				"energy": -0.28347,
				"method": "rhf"
			},
			{
				"type": "occ",
				"energy": -0.28128,
				"method": "rhf"
			},
			{
				"type": "occ",
				"energy": -0.25672,
				"method": "rhf"
			},
			{
				"type": "unocc",
				"energy": -0.092,
				"method": "rhf"
			},
			{
				"type": "unocc",
				"energy": -0.02798,
				"method": "rhf"
			},
			{
				"type": "unocc",
				"energy": -0.01123,
				"method": "rhf"
			},
			{
				"type": "unocc",
				"energy": -0.00613,
				"method": "rhf"
			},
			{
				"type": "unocc",
				"energy": 0.0041,
				"method": "rhf"
			}
		],
		"cosmo_sigma_profile": { 
			"-0.025": 0.0,
			"-0.024": 0.0,
			"-0.023": 0.0,
			"-0.022": 0.0,
			"-0.021": 0.0,
			"-0.02": 0.0,
			"-0.019": 0.0,
			"-0.018": 0.0,
			"-0.017": 0.0,
			"-0.016": 0.0,
			"-0.015": 0.0,
			"-0.014": 0.0,
			"-0.013": 0.0,
			"-0.012": 0.0,
			"-0.011": 1.17334363115,
			"-0.01": 7.7848252257,
			"-0.009": 7.20982039693,
			"-0.008": 4.74418072493,
			"-0.007": 4.56308346907,
			"-0.006": 4.65836906011,
			"-0.005": 5.75812311219,
			"-0.004": 7.61422354916,
			"-0.003": 11.057753865,
			"-0.002": 16.6366272141,
			"-0.001": 25.8537819663,
			"0.0": 23.8260541065,
			"0.001": 22.2074798757,
			"0.002": 21.2429984903,
			"0.003": 20.1426937392,
			"0.004": 9.52724040315,
			"0.005": 8.82165791403,
			"0.006": 6.21031099745,
			"0.007": 2.68876596927,
			"0.008": 2.76264869043,
			"0.009": 2.55775512195,
			"0.01": 4.06102003376,
			"0.011": 2.93167504036,
			"0.012": 1.59130618404,
			"0.013": 0.167528818086,
			"0.014": 0.0,
			"0.015": 0.0,
			"0.016": 0.0,
			"0.017": 0.0,
			"0.018": 0.0,
			"0.019": 0.0,
			"0.02": 0.0,
			"0.021": 0.0,
			"0.022": 0.0,
			"0.023": 0.0,
			"0.024": 0.0,
			"0.025": 0.0
		}
	}
}
