{
	 "smiles": "FC1=C(C=O)C=CC(=C1)C1=CC=CS1", 
	 "Tm": 347.15, 
	 "num_atms": 21, 
	 "gaussian": { 
		 "optdone": 1, 
		 "sigma_profile": "yes", 
		 "theory": "DFT", 
		 "functional": "B3LYP", 
		 "basiset": "6-31G**", 
		 "properties": { 
			 "R2extent": 4995.008, 
			 "electric_dipole_moment_norm": 5.46666438059, 
			 "electric_quadrupole_moment_norm": 28.0338086424, 
			 "total_energy": -996.612121717, 
			 "HOMO_LUMO_gap": 0.1522, 
			 "cosmo_polarized_energy": -10.95, 
			 "cosmo_cavitation_energy": 28.01, 
			 "cosmo_dispersion_energy": -20.88, 
			 "cosmo_repulsion_energy": 1.54, 
			 "cosmo_total_nonelectrostatic_energy": 8.67, 
			 "SMD_solvation_energy": 6.17 
		},
		"coords": [
			{
				"x": -0.7759778389,
				"y": -0.5023771934,
				"z": -4.6593634942,
				"element": "F" 
			},
			{
				"x": -0.4629823937,
				"y": -1.0920867469,
				"z": -3.4996214896,
				"element": "C" 
			},
			{
				"x": -0.1551744318,
				"y": -2.4621380979,
				"z": -3.4687969094,
				"element": "C" 
			},
			{
				"x": -0.1423075866,
				"y": -3.3349568833,
				"z": -4.6613650186,
				"element": "C" 
			},
			{
				"x": -0.3928689388,
				"y": -3.0023826743,
				"z": -5.8023812144,
				"element": "O" 
			},
			{
				"x": 0.1595267761,
				"y": -3.0149188407,
				"z": -2.2156474637,
				"element": "C" 
			},
			{
				"x": 0.1713674414,
				"y": -2.2512510215,
				"z": -1.0586211598,
				"element": "C" 
			},
			{
				"x": -0.1496732226,
				"y": -0.8783357485,
				"z": -1.1072199768,
				"element": "C" 
			},
			{
				"x": -0.4676348072,
				"y": -0.3110877672,
				"z": -2.3544867289,
				"element": "C" 
			},
			{
				"x": -0.1515884196,
				"y": -0.0739105032,
				"z": 0.1166750452,
				"element": "C" 
			},
			{
				"x": -0.2962955835,
				"y": -0.5017728569,
				"z": 1.4194446522,
				"element": "C" 
			},
			{
				"x": -0.2552690661,
				"y": 0.5519370734,
				"z": 2.3743051085,
				"element": "C" 
			},
			{
				"x": -0.0764617553,
				"y": 1.7807616374,
				"z": 1.797725892,
				"element": "C" 
			},
			{
				"x": 0.0461057863,
				"y": 1.6679432459,
				"z": 0.0755155698,
				"element": "S" 
			},
			{
				"x": 0.1313894482,
				"y": -4.3883376675,
				"z": -4.4208507452,
				"element": "H" 
			},
			{
				"x": 0.4111970695,
				"y": -4.071753142,
				"z": -2.1664538664,
				"element": "H" 
			},
			{
				"x": 0.4514563101,
				"y": -2.7052144319,
				"z": -0.1147069429,
				"element": "H" 
			},
			{
				"x": -0.7417524594,
				"y": 0.7341722439,
				"z": -2.4474627006,
				"element": "H" 
			},
			{
				"x": -0.4581293139,
				"y": -1.5403397822,
				"z": 1.6836540685,
				"element": "H" 
			},
			{
				"x": -0.3603630527,
				"y": 0.4029280393,
				"z": 3.4427092547,
				"element": "H" 
			},
			{
				"x": -0.0043639616,
				"y": 2.7454211175,
				"z": 2.2806481195,
				"element": "H" 
			}
		],
		 "valence_orbital": [ 
			{
				"type": "occ",
				"energy": -0.29262,
				"method": "rhf"
			},
			{
				"type": "occ",
				"energy": -0.26757,
				"method": "rhf"
			},
			{
				"type": "occ",
				"energy": -0.26244,
				"method": "rhf"
			},
			{
				"type": "occ",
				"energy": -0.25133,
				"method": "rhf"
			},
			{
				"type": "occ",
				"energy": -0.23009,
				"method": "rhf"
			},
			{
				"type": "unocc",
				"energy": -0.07789,
				"method": "rhf"
			},
			{
				"type": "unocc",
				"energy": -0.02167,
				"method": "rhf"
			},
			{
				"type": "unocc",
				"energy": -0.01759,
				"method": "rhf"
			},
			{
				"type": "unocc",
				"energy": 0.01757,
				"method": "rhf"
			},
			{
				"type": "unocc",
				"energy": 0.03394,
				"method": "rhf"
			}
		],
		"cosmo_sigma_profile": { 
			"-0.025": 0.0,
			"-0.024": 0.0,
			"-0.023": 0.0,
			"-0.022": 0.0,
			"-0.021": 0.0,
			"-0.02": 0.0,
			"-0.019": 0.0,
			"-0.018": 0.0,
			"-0.017": 0.0,
			"-0.016": 0.0,
			"-0.015": 0.0,
			"-0.014": 0.0,
			"-0.013": 0.0,
			"-0.012": 0.0,
			"-0.011": 0.0,
			"-0.01": 0.00168346375269,
			"-0.009": 1.38070584311,
			"-0.008": 7.51920573104,
			"-0.007": 12.3977789896,
			"-0.006": 13.172039107,
			"-0.005": 12.9220641174,
			"-0.004": 12.3113438499,
			"-0.003": 12.167004766,
			"-0.002": 12.2270176251,
			"-0.001": 17.0382785442,
			"0.0": 19.325211432,
			"0.001": 21.0238170087,
			"0.002": 22.3901773269,
			"0.003": 21.3967173547,
			"0.004": 16.4520194492,
			"0.005": 6.00210500691,
			"0.006": 1.86881025405,
			"0.007": 1.88290396444,
			"0.008": 1.96977598479,
			"0.009": 2.89552115539,
			"0.01": 2.75098850039,
			"0.011": 4.43888951828,
			"0.012": 3.9766343863,
			"0.013": 0.9147829919,
			"0.014": 0.0,
			"0.015": 0.0,
			"0.016": 0.0,
			"0.017": 0.0,
			"0.018": 0.0,
			"0.019": 0.0,
			"0.02": 0.0,
			"0.021": 0.0,
			"0.022": 0.0,
			"0.023": 0.0,
			"0.024": 0.0,
			"0.025": 0.0
		}
	}
}
