{
	 "smiles": "ClC1C(=O)NC(=O)NC1=O", 
	 "Tm": 593.15, 
	 "num_atms": 13, 
	 "gaussian": { 
		 "optdone": 1, 
		 "sigma_profile": "yes", 
		 "theory": "DFT", 
		 "functional": "B3LYP", 
		 "basiset": "6-31G**", 
		 "properties": { 
			 "R2extent": 2127.5093, 
			 "electric_dipole_moment_norm": 1.05846531356, 
			 "electric_quadrupole_moment_norm": 4.31108154063, 
			 "total_energy": -949.635514312, 
			 "HOMO_LUMO_gap": 0.19103, 
			 "cosmo_polarized_energy": -16.2, 
			 "cosmo_cavitation_energy": 20.36, 
			 "cosmo_dispersion_energy": -15.13, 
			 "cosmo_repulsion_energy": 1.25, 
			 "cosmo_total_nonelectrostatic_energy": 6.49, 
			 "SMD_solvation_energy": 5.63 
		},
		"coords": [
			{
				"x": 0.445637309,
				"y": 1.690305412,
				"z": 2.5742815943,
				"element": "Cl" 
			},
			{
				"x": 0.0939209488,
				"y": 0.2577798072,
				"z": 1.5079901182,
				"element": "C" 
			},
			{
				"x": -1.2497536412,
				"y": -0.3204959601,
				"z": 1.9463550856,
				"element": "C" 
			},
			{
				"x": -1.3636854617,
				"y": -1.1024136688,
				"z": 2.8638026299,
				"element": "O" 
			},
			{
				"x": -2.339092105,
				"y": 0.1612927213,
				"z": 1.2353902638,
				"element": "N" 
			},
			{
				"x": -2.3249237854,
				"y": 0.8706086401,
				"z": 0.0344569,
				"element": "C" 
			},
			{
				"x": -3.3379507868,
				"y": 1.2134759145,
				"z": -0.5344010005,
				"element": "O" 
			},
			{
				"x": -1.0520707295,
				"y": 1.1208335146,
				"z": -0.4782183787,
				"element": "N" 
			},
			{
				"x": 0.1673221687,
				"y": 0.7359584915,
				"z": 0.0595476792,
				"element": "C" 
			},
			{
				"x": 1.2060776125,
				"y": 0.8133505673,
				"z": -0.5577731887,
				"element": "O" 
			},
			{
				"x": 0.8815694893,
				"y": -0.4705135275,
				"z": 1.6917502915,
				"element": "H" 
			},
			{
				"x": -3.2582954763,
				"y": -0.1228918033,
				"z": 1.5545339556,
				"element": "H" 
			},
			{
				"x": -1.0363555425,
				"y": 1.5336098911,
				"z": -1.4039159504,
				"element": "H" 
			}
		],
		 "valence_orbital": [ 
			{
				"type": "occ",
				"energy": -0.327,
				"method": "rhf"
			},
			{
				"type": "occ",
				"energy": -0.3215,
				"method": "rhf"
			},
			{
				"type": "occ",
				"energy": -0.32091,
				"method": "rhf"
			},
			{
				"type": "occ",
				"energy": -0.31459,
				"method": "rhf"
			},
			{
				"type": "occ",
				"energy": -0.28451,
				"method": "rhf"
			},
			{
				"type": "unocc",
				"energy": -0.09348,
				"method": "rhf"
			},
			{
				"type": "unocc",
				"energy": -0.01955,
				"method": "rhf"
			},
			{
				"type": "unocc",
				"energy": -0.00432,
				"method": "rhf"
			},
			{
				"type": "unocc",
				"energy": 0.0519,
				"method": "rhf"
			},
			{
				"type": "unocc",
				"energy": 0.07376,
				"method": "rhf"
			}
		],
		"cosmo_sigma_profile": { 
			"-0.025": 0.0,
			"-0.024": 0.0,
			"-0.023": 0.0,
			"-0.022": 0.0,
			"-0.021": 0.0,
			"-0.02": 0.0,
			"-0.019": 0.0,
			"-0.018": 0.362612057942,
			"-0.017": 1.80571646301,
			"-0.016": 2.00839022411,
			"-0.015": 1.89500203841,
			"-0.014": 1.84475454216,
			"-0.013": 1.66180526962,
			"-0.012": 3.98213413018,
			"-0.011": 4.21690490789,
			"-0.01": 3.72520180675,
			"-0.009": 3.82365971728,
			"-0.008": 3.611673867,
			"-0.007": 4.85396598852,
			"-0.006": 6.04393193888,
			"-0.005": 5.77258382589,
			"-0.004": 6.91045501432,
			"-0.003": 9.30755056659,
			"-0.002": 7.22591053999,
			"-0.001": 5.78540045604,
			"0.0": 5.95014989278,
			"0.001": 8.5280216342,
			"0.002": 10.1167846997,
			"0.003": 12.6728622518,
			"0.004": 6.46712297803,
			"0.005": 2.44928413647,
			"0.006": 3.98871249088,
			"0.007": 5.03255796259,
			"0.008": 3.93817431922,
			"0.009": 6.94941125821,
			"0.01": 14.1255552897,
			"0.011": 9.61625856731,
			"0.012": 0.500211768449,
			"0.013": 0.0,
			"0.014": 0.0,
			"0.015": 0.0,
			"0.016": 0.0,
			"0.017": 0.0,
			"0.018": 0.0,
			"0.019": 0.0,
			"0.02": 0.0,
			"0.021": 0.0,
			"0.022": 0.0,
			"0.023": 0.0,
			"0.024": 0.0,
			"0.025": 0.0
		}
	}
}
