{
	 "smiles": "CN1C(Cl)=CN=C1CO", 
	 "Tm": 384.15, 
	 "num_atms": 16, 
	 "gaussian": { 
		 "optdone": 1, 
		 "sigma_profile": "yes", 
		 "theory": "DFT", 
		 "functional": "B3LYP", 
		 "basiset": "6-31G**", 
		 "properties": { 
			 "R2extent": 1550.8721, 
			 "electric_dipole_moment_norm": 1.86913728495, 
			 "electric_quadrupole_moment_norm": 3.38210788562, 
			 "total_energy": -839.64918126, 
			 "HOMO_LUMO_gap": 0.22979, 
			 "cosmo_polarized_energy": -10.01, 
			 "cosmo_cavitation_energy": 21.42, 
			 "cosmo_dispersion_energy": -16.01, 
			 "cosmo_repulsion_energy": 1.33, 
			 "cosmo_total_nonelectrostatic_energy": 6.73, 
			 "SMD_solvation_energy": 2.15 
		},
		"coords": [
			{
				"x": 2.0614202855,
				"y": -0.146945018,
				"z": 0.2546076005,
				"element": "C" 
			},
			{
				"x": 0.6514950624,
				"y": 0.1744352319,
				"z": 0.0681317407,
				"element": "N" 
			},
			{
				"x": -0.3399982441,
				"y": -0.6567905416,
				"z": -0.4131341271,
				"element": "C" 
			},
			{
				"x": -0.0136186334,
				"y": -2.2766290495,
				"z": -0.9186137647,
				"element": "Cl" 
			},
			{
				"x": -1.5096286466,
				"y": 0.0610421612,
				"z": -0.4019337681,
				"element": "C" 
			},
			{
				"x": -1.2653048739,
				"y": 1.322707171,
				"z": 0.0771044128,
				"element": "N" 
			},
			{
				"x": 0.025764693,
				"y": 1.3656956594,
				"z": 0.3578355595,
				"element": "C" 
			},
			{
				"x": 0.7329613801,
				"y": 2.561211927,
				"z": 0.9196698894,
				"element": "C" 
			},
			{
				"x": 1.8025145547,
				"y": 3.0334246518,
				"z": 0.0973439452,
				"element": "O" 
			},
			{
				"x": 2.6265151367,
				"y": 0.7847192239,
				"z": 0.2421898904,
				"element": "H" 
			},
			{
				"x": 2.2231284034,
				"y": -0.6732649486,
				"z": 1.200896635,
				"element": "H" 
			},
			{
				"x": 2.4019492904,
				"y": -0.7847510913,
				"z": -0.5630005605,
				"element": "H" 
			},
			{
				"x": -2.4905363674,
				"y": -0.2645033889,
				"z": -0.7160685514,
				"element": "H" 
			},
			{
				"x": -0.0327849633,
				"y": 3.3278519463,
				"z": 1.0894619276,
				"element": "H" 
			},
			{
				"x": 1.197704355,
				"y": 2.3326694378,
				"z": 1.8852283463,
				"element": "H" 
			},
			{
				"x": 1.4230185676,
				"y": 3.2716266276,
				"z": -0.7595191754,
				"element": "H" 
			}
		],
		 "valence_orbital": [ 
			{
				"type": "occ",
				"energy": -0.33685,
				"method": "rhf"
			},
			{
				"type": "occ",
				"energy": -0.29042,
				"method": "rhf"
			},
			{
				"type": "occ",
				"energy": -0.27719,
				"method": "rhf"
			},
			{
				"type": "occ",
				"energy": -0.27122,
				"method": "rhf"
			},
			{
				"type": "occ",
				"energy": -0.22397,
				"method": "rhf"
			},
			{
				"type": "unocc",
				"energy": 0.00582,
				"method": "rhf"
			},
			{
				"type": "unocc",
				"energy": 0.03324,
				"method": "rhf"
			},
			{
				"type": "unocc",
				"energy": 0.05551,
				"method": "rhf"
			},
			{
				"type": "unocc",
				"energy": 0.08473,
				"method": "rhf"
			},
			{
				"type": "unocc",
				"energy": 0.10703,
				"method": "rhf"
			}
		],
		"cosmo_sigma_profile": { 
			"-0.025": 0.0,
			"-0.024": 0.0,
			"-0.023": 0.0,
			"-0.022": 0.0,
			"-0.021": 0.0,
			"-0.02": 0.0,
			"-0.019": 0.0,
			"-0.018": 0.0,
			"-0.017": 0.0,
			"-0.016": 0.798758303104,
			"-0.015": 1.01549436221,
			"-0.014": 0.475466773858,
			"-0.013": 1.12816434841,
			"-0.012": 1.2104024174,
			"-0.011": 0.626219273285,
			"-0.01": 0.778804138525,
			"-0.009": 0.88800522275,
			"-0.008": 0.808081036008,
			"-0.007": 4.01783693509,
			"-0.006": 9.70346837375,
			"-0.005": 13.3536978413,
			"-0.004": 15.6775678566,
			"-0.003": 15.6942274423,
			"-0.002": 9.48209804613,
			"-0.001": 11.2737791224,
			"0.0": 10.0462508055,
			"0.001": 11.2701283938,
			"0.002": 13.3754204985,
			"0.003": 12.7494682711,
			"0.004": 10.986489642,
			"0.005": 3.16372105107,
			"0.006": 2.73120923399,
			"0.007": 2.92466491984,
			"0.008": 2.3336290514,
			"0.009": 2.63668996809,
			"0.01": 2.52461132398,
			"0.011": 1.41024808393,
			"0.012": 2.29178055453,
			"0.013": 2.50509043595,
			"0.014": 1.60982911376,
			"0.015": 1.03692836107,
			"0.016": 0.973292242048,
			"0.017": 0.717608244078,
			"0.018": 0.149726226176,
			"0.019": 0.0,
			"0.02": 0.0,
			"0.021": 0.0,
			"0.022": 0.0,
			"0.023": 0.0,
			"0.024": 0.0,
			"0.025": 0.0
		}
	}
}
