{
	 "smiles": "CC(C)(O)CCSC1=CC=C(C=C1)S(N)(=O)=O", 
	 "Tm": 413.15, 
	 "num_atms": 34, 
	 "gaussian": { 
		 "optdone": 1, 
		 "sigma_profile": "yes", 
		 "theory": "DFT", 
		 "functional": "B3LYP", 
		 "basiset": "6-31G**", 
		 "properties": { 
			 "R2extent": 9995.186, 
			 "electric_dipole_moment_norm": 7.21326922068, 
			 "electric_quadrupole_moment_norm": 34.0809642183, 
			 "total_energy": -1506.14714987, 
			 "HOMO_LUMO_gap": 0.18751, 
			 "cosmo_polarized_energy": -24.63, 
			 "cosmo_cavitation_energy": 39.31, 
			 "cosmo_dispersion_energy": -28.89, 
			 "cosmo_repulsion_energy": 2.15, 
			 "cosmo_total_nonelectrostatic_energy": 12.57, 
			 "SMD_solvation_energy": 5.85 
		},
		"coords": [
			{
				"x": 2.4790512615,
				"y": 2.503221738,
				"z": 1.6829016899,
				"element": "C" 
			},
			{
				"x": 3.1966103487,
				"y": 2.0984994808,
				"z": 0.3862644974,
				"element": "C" 
			},
			{
				"x": 3.8428696191,
				"y": 0.712783111,
				"z": 0.5273176683,
				"element": "C" 
			},
			{
				"x": 4.2208239847,
				"y": 3.0642634607,
				"z": 0.0903087814,
				"element": "O" 
			},
			{
				"x": 2.2744656388,
				"y": 2.2186894401,
				"z": -0.8495035626,
				"element": "C" 
			},
			{
				"x": 0.8739197467,
				"y": 1.5938980882,
				"z": -0.8023459884,
				"element": "C" 
			},
			{
				"x": 0.908536217,
				"y": -0.2420873073,
				"z": -0.9241436951,
				"element": "S" 
			},
			{
				"x": -0.8040370408,
				"y": -0.6809469301,
				"z": -1.0999303311,
				"element": "C" 
			},
			{
				"x": -1.0739450821,
				"y": -2.0347840819,
				"z": -1.3788820144,
				"element": "C" 
			},
			{
				"x": -2.3809119805,
				"y": -2.4820352267,
				"z": -1.5210702759,
				"element": "C" 
			},
			{
				"x": -3.4389852148,
				"y": -1.5765164324,
				"z": -1.3841212908,
				"element": "C" 
			},
			{
				"x": -3.1887391322,
				"y": -0.2298262169,
				"z": -1.1226681234,
				"element": "C" 
			},
			{
				"x": -1.87564056,
				"y": 0.2169734779,
				"z": -0.9765698662,
				"element": "C" 
			},
			{
				"x": -5.1307503542,
				"y": -2.1535148496,
				"z": -1.5377307234,
				"element": "S" 
			},
			{
				"x": -5.62262569,
				"y": -2.6515600143,
				"z": -0.0059104906,
				"element": "N" 
			},
			{
				"x": -5.1075769292,
				"y": -3.3676577321,
				"z": -2.351799094,
				"element": "O" 
			},
			{
				"x": -5.9619881067,
				"y": -0.993246153,
				"z": -1.8550160032,
				"element": "O" 
			},
			{
				"x": 1.6979211086,
				"y": 1.788987689,
				"z": 1.9628466028,
				"element": "H" 
			},
			{
				"x": 3.1956833674,
				"y": 2.5404035301,
				"z": 2.5114726503,
				"element": "H" 
			},
			{
				"x": 2.0312641689,
				"y": 3.4967567878,
				"z": 1.5817218234,
				"element": "H" 
			},
			{
				"x": 3.1073567907,
				"y": -0.0664267026,
				"z": 0.7431390321,
				"element": "H" 
			},
			{
				"x": 4.5664820497,
				"y": 0.7189192232,
				"z": 1.3523198219,
				"element": "H" 
			},
			{
				"x": 4.3768660427,
				"y": 0.4465595186,
				"z": -0.3895928935,
				"element": "H" 
			},
			{
				"x": 4.8965795336,
				"y": 2.9939568515,
				"z": 0.7778505868,
				"element": "H" 
			},
			{
				"x": 2.1280631622,
				"y": 3.2937824159,
				"z": -1.0057373832,
				"element": "H" 
			},
			{
				"x": 2.8191917849,
				"y": 1.8547492814,
				"z": -1.7274946985,
				"element": "H" 
			},
			{
				"x": 0.3021613003,
				"y": 1.9624069337,
				"z": -1.6587583103,
				"element": "H" 
			},
			{
				"x": 0.3453840851,
				"y": 1.884081183,
				"z": 0.1097936563,
				"element": "H" 
			},
			{
				"x": -0.2511013272,
				"y": -2.7335176646,
				"z": -1.4987042958,
				"element": "H" 
			},
			{
				"x": -2.5857598414,
				"y": -3.5192232523,
				"z": -1.7650207797,
				"element": "H" 
			},
			{
				"x": -4.0171401145,
				"y": 0.467502786,
				"z": -1.0532360497,
				"element": "H" 
			},
			{
				"x": -1.7016635171,
				"y": 1.2664625605,
				"z": -0.772737943,
				"element": "H" 
			},
			{
				"x": -5.6559852409,
				"y": -1.8879913722,
				"z": 0.6622611549,
				"element": "H" 
			},
			{
				"x": -5.0976800792,
				"y": -3.4515636214,
				"z": 0.333275847,
				"element": "H" 
			}
		],
		 "valence_orbital": [ 
			{
				"type": "occ",
				"energy": -0.30091,
				"method": "rhf"
			},
			{
				"type": "occ",
				"energy": -0.29256,
				"method": "rhf"
			},
			{
				"type": "occ",
				"energy": -0.27649,
				"method": "rhf"
			},
			{
				"type": "occ",
				"energy": -0.27344,
				"method": "rhf"
			},
			{
				"type": "occ",
				"energy": -0.22781,
				"method": "rhf"
			},
			{
				"type": "unocc",
				"energy": -0.0403,
				"method": "rhf"
			},
			{
				"type": "unocc",
				"energy": -0.02675,
				"method": "rhf"
			},
			{
				"type": "unocc",
				"energy": 0.0191,
				"method": "rhf"
			},
			{
				"type": "unocc",
				"energy": 0.04996,
				"method": "rhf"
			},
			{
				"type": "unocc",
				"energy": 0.05883,
				"method": "rhf"
			}
		],
		"cosmo_sigma_profile": { 
			"-0.025": 0.0,
			"-0.024": 0.0,
			"-0.023": 0.0,
			"-0.022": 0.0,
			"-0.021": 0.0,
			"-0.02": 0.0,
			"-0.019": 0.0,
			"-0.018": 0.0,
			"-0.017": 0.0,
			"-0.016": 0.00647577910955,
			"-0.015": 2.18750034835,
			"-0.014": 3.38857693667,
			"-0.013": 3.77383918805,
			"-0.012": 4.05940199833,
			"-0.011": 3.7027348909,
			"-0.01": 3.4212704573,
			"-0.009": 2.60144927519,
			"-0.008": 3.34199687011,
			"-0.007": 10.5879096622,
			"-0.006": 16.3215693384,
			"-0.005": 14.1616285076,
			"-0.004": 17.9197596818,
			"-0.003": 24.7750491702,
			"-0.002": 22.1412548127,
			"-0.001": 21.0662278543,
			"0.0": 20.7265222884,
			"0.001": 22.36231834,
			"0.002": 18.3789316444,
			"0.003": 20.647386813,
			"0.004": 8.31149341087,
			"0.005": 7.72046597457,
			"0.006": 6.0843155606,
			"0.007": 8.43184049176,
			"0.008": 7.27968280959,
			"0.009": 5.17794711951,
			"0.01": 7.26389233781,
			"0.011": 12.7801825097,
			"0.012": 7.70126208282,
			"0.013": 1.94929901921,
			"0.014": 1.51059346103,
			"0.015": 0.509219426513,
			"0.016": 0.0,
			"0.017": 0.0,
			"0.018": 0.0,
			"0.019": 0.0,
			"0.02": 0.0,
			"0.021": 0.0,
			"0.022": 0.0,
			"0.023": 0.0,
			"0.024": 0.0,
			"0.025": 0.0
		}
	}
}
