{
	 "smiles": "COC(=O)C(C)(N)CC1=CNC2=CC=CC=C12", 
	 "Tm": 413.15, 
	 "num_atms": 33, 
	 "gaussian": { 
		 "optdone": 1, 
		 "sigma_profile": "yes", 
		 "theory": "DFT", 
		 "functional": "B3LYP", 
		 "basiset": "6-31G**", 
		 "properties": { 
			 "R2extent": 4999.7982, 
			 "electric_dipole_moment_norm": 3.94921191885, 
			 "electric_quadrupole_moment_norm": 11.1556994778, 
			 "total_energy": -764.992649989, 
			 "HOMO_LUMO_gap": 0.19155, 
			 "cosmo_polarized_energy": -15.02, 
			 "cosmo_cavitation_energy": 35.39, 
			 "cosmo_dispersion_energy": -24.95, 
			 "cosmo_repulsion_energy": 1.94, 
			 "cosmo_total_nonelectrostatic_energy": 12.39, 
			 "SMD_solvation_energy": 6.72 
		},
		"coords": [
			{
				"x": -4.7297732296,
				"y": -2.5252281384,
				"z": -0.1879766901,
				"element": "C" 
			},
			{
				"x": -3.4922137878,
				"y": -1.8966005217,
				"z": 0.1856991743,
				"element": "O" 
			},
			{
				"x": -2.4418879139,
				"y": -2.1676511549,
				"z": -0.6176921068,
				"element": "C" 
			},
			{
				"x": -2.520838812,
				"y": -2.890926412,
				"z": -1.588820337,
				"element": "O" 
			},
			{
				"x": -1.1385900933,
				"y": -1.5283155691,
				"z": -0.1173452717,
				"element": "C" 
			},
			{
				"x": -0.6234264293,
				"y": -2.4310873867,
				"z": 1.0325566221,
				"element": "C" 
			},
			{
				"x": -0.2379063042,
				"y": -1.485646203,
				"z": -1.2708762188,
				"element": "N" 
			},
			{
				"x": -1.3964007725,
				"y": -0.0760914698,
				"z": 0.3870294935,
				"element": "C" 
			},
			{
				"x": -0.1785923373,
				"y": 0.6569021299,
				"z": 0.8804248693,
				"element": "C" 
			},
			{
				"x": 0.1579841763,
				"y": 0.8572021887,
				"z": 2.1981572969,
				"element": "C" 
			},
			{
				"x": 1.3148348478,
				"y": 1.608680112,
				"z": 2.2893341521,
				"element": "N" 
			},
			{
				"x": 1.7501321864,
				"y": 1.9242397963,
				"z": 1.0184331653,
				"element": "C" 
			},
			{
				"x": 2.8553553149,
				"y": 2.6741433573,
				"z": 0.6008041839,
				"element": "C" 
			},
			{
				"x": 3.037687654,
				"y": 2.83893314,
				"z": -0.7671524374,
				"element": "C" 
			},
			{
				"x": 2.1431882674,
				"y": 2.2678403981,
				"z": -1.6962656283,
				"element": "C" 
			},
			{
				"x": 1.0494982347,
				"y": 1.5199895407,
				"z": -1.27829398,
				"element": "C" 
			},
			{
				"x": 0.8349083954,
				"y": 1.3361932675,
				"z": 0.1010147564,
				"element": "C" 
			},
			{
				"x": -5.4595566908,
				"y": -2.2028156109,
				"z": 0.5545876825,
				"element": "H" 
			},
			{
				"x": -4.6266587005,
				"y": -3.6132216485,
				"z": -0.1793763826,
				"element": "H" 
			},
			{
				"x": -5.0340761495,
				"y": -2.2090857992,
				"z": -1.1886284049,
				"element": "H" 
			},
			{
				"x": -0.4356431959,
				"y": -3.444823128,
				"z": 0.6643625825,
				"element": "H" 
			},
			{
				"x": -1.3428950436,
				"y": -2.489826783,
				"z": 1.8561373603,
				"element": "H" 
			},
			{
				"x": 0.3127795557,
				"y": -2.0226829457,
				"z": 1.4244190812,
				"element": "H" 
			},
			{
				"x": -0.2943085331,
				"y": -2.366908979,
				"z": -1.7745419922,
				"element": "H" 
			},
			{
				"x": 0.7188191297,
				"y": -1.3500073157,
				"z": -0.9577829482,
				"element": "H" 
			},
			{
				"x": -2.1410959334,
				"y": -0.1167567,
				"z": 1.1865777748,
				"element": "H" 
			},
			{
				"x": -1.8462241069,
				"y": 0.4806584526,
				"z": -0.4425409547,
				"element": "H" 
			},
			{
				"x": -0.3549051462,
				"y": 0.5303434339,
				"z": 3.0924250169,
				"element": "H" 
			},
			{
				"x": 1.7492283638,
				"y": 1.9070558605,
				"z": 3.1468579021,
				"element": "H" 
			},
			{
				"x": 3.5436975209,
				"y": 3.113280986,
				"z": 1.3179008236,
				"element": "H" 
			},
			{
				"x": 3.8847172612,
				"y": 3.4165074816,
				"z": -1.1261658943,
				"element": "H" 
			},
			{
				"x": 2.3177227601,
				"y": 2.4142773205,
				"z": -2.7583503438,
				"element": "H" 
			},
			{
				"x": 0.3787395116,
				"y": 1.0581282999,
				"z": -1.9953123469,
				"element": "H" 
			}
		],
		 "valence_orbital": [ 
			{
				"type": "occ",
				"energy": -0.27115,
				"method": "rhf"
			},
			{
				"type": "occ",
				"energy": -0.26293,
				"method": "rhf"
			},
			{
				"type": "occ",
				"energy": -0.23015,
				"method": "rhf"
			},
			{
				"type": "occ",
				"energy": -0.21505,
				"method": "rhf"
			},
			{
				"type": "occ",
				"energy": -0.19471,
				"method": "rhf"
			},
			{
				"type": "unocc",
				"energy": -0.00316,
				"method": "rhf"
			},
			{
				"type": "unocc",
				"energy": 0.01349,
				"method": "rhf"
			},
			{
				"type": "unocc",
				"energy": 0.03334,
				"method": "rhf"
			},
			{
				"type": "unocc",
				"energy": 0.06596,
				"method": "rhf"
			},
			{
				"type": "unocc",
				"energy": 0.08192,
				"method": "rhf"
			}
		],
		"cosmo_sigma_profile": { 
			"-0.025": 0.0,
			"-0.024": 0.0,
			"-0.023": 0.0,
			"-0.022": 0.0,
			"-0.021": 0.0,
			"-0.02": 0.0,
			"-0.019": 0.0,
			"-0.018": 0.0,
			"-0.017": 0.0,
			"-0.016": 0.195149617254,
			"-0.015": 1.54442478505,
			"-0.014": 1.39317199216,
			"-0.013": 1.40742337748,
			"-0.012": 0.777477062366,
			"-0.011": 1.3345298978,
			"-0.01": 1.19516451343,
			"-0.009": 1.74596833384,
			"-0.008": 3.29782136216,
			"-0.007": 6.13234901203,
			"-0.006": 11.5820182901,
			"-0.005": 14.4142472241,
			"-0.004": 22.393389824,
			"-0.003": 28.7236391334,
			"-0.002": 25.5061551396,
			"-0.001": 20.9988843372,
			"0.0": 18.7416304483,
			"0.001": 18.5692506359,
			"0.002": 12.2941785472,
			"0.003": 13.0099395442,
			"0.004": 13.1213516013,
			"0.005": 15.2191559828,
			"0.006": 15.1423620365,
			"0.007": 10.412387236,
			"0.008": 5.12585595862,
			"0.009": 1.83627179739,
			"0.01": 3.6504957951,
			"0.011": 4.31077310478,
			"0.012": 3.0993870218,
			"0.013": 0.5915141275,
			"0.014": 0.448649864194,
			"0.015": 0.500820799608,
			"0.016": 0.104877193887,
			"0.017": 0.0,
			"0.018": 0.0,
			"0.019": 0.0,
			"0.02": 0.0,
			"0.021": 0.0,
			"0.022": 0.0,
			"0.023": 0.0,
			"0.024": 0.0,
			"0.025": 0.0
		}
	}
}
