{
	 "smiles": "OC(=O)C(CC1=CC=CO1)NC(=O)OCC1C2=C(C=CC=C2)C2=C1C=CC=C2", 
	 "Tm": 403.15, 
	 "num_atms": 47, 
	 "gaussian": { 
		 "optdone": 1, 
		 "sigma_profile": "yes", 
		 "theory": "DFT", 
		 "functional": "B3LYP", 
		 "basiset": "6-31G**", 
		 "properties": { 
			 "R2extent": 8621.3663, 
			 "electric_dipole_moment_norm": 2.61261894275, 
			 "electric_quadrupole_moment_norm": 20.5630054369, 
			 "total_energy": -1280.68269748, 
			 "HOMO_LUMO_gap": 0.18394, 
			 "cosmo_polarized_energy": -23.3, 
			 "cosmo_cavitation_energy": 51.0, 
			 "cosmo_dispersion_energy": -31.1, 
			 "cosmo_repulsion_energy": 2.34, 
			 "cosmo_total_nonelectrostatic_energy": 22.25, 
			 "SMD_solvation_energy": 10.43 
		},
		"coords": [
			{
				"x": 4.0614614012,
				"y": -1.3297463437,
				"z": -0.9956492609,
				"element": "O" 
			},
			{
				"x": 3.5098390271,
				"y": -0.1254727342,
				"z": -0.7517293902,
				"element": "C" 
			},
			{
				"x": 4.0025716113,
				"y": 0.6612442233,
				"z": 0.0176910892,
				"element": "O" 
			},
			{
				"x": 2.2723814932,
				"y": 0.2047969708,
				"z": -1.6143296759,
				"element": "C" 
			},
			{
				"x": 1.3976610183,
				"y": 1.2962609967,
				"z": -0.9627234447,
				"element": "C" 
			},
			{
				"x": 0.4153306766,
				"y": 1.9096669196,
				"z": -1.9007400697,
				"element": "C" 
			},
			{
				"x": 0.2566424342,
				"y": 3.1690519435,
				"z": -2.4019630446,
				"element": "C" 
			},
			{
				"x": -0.890118471,
				"y": 3.1309595124,
				"z": -3.2641610419,
				"element": "C" 
			},
			{
				"x": -1.3451718417,
				"y": 1.8501040467,
				"z": -3.2296150494,
				"element": "C" 
			},
			{
				"x": -0.5623404896,
				"y": 1.0900677691,
				"z": -2.4079674923,
				"element": "O" 
			},
			{
				"x": 1.5724874887,
				"y": -1.0190792722,
				"z": -2.0328327491,
				"element": "N" 
			},
			{
				"x": 0.81532302,
				"y": -1.820753514,
				"z": -1.1887669585,
				"element": "C" 
			},
			{
				"x": 0.0104319043,
				"y": -2.6355863654,
				"z": -1.5906788469,
				"element": "O" 
			},
			{
				"x": 1.1615450567,
				"y": -1.6170518161,
				"z": 0.1037460426,
				"element": "O" 
			},
			{
				"x": 0.5421287687,
				"y": -2.4688011819,
				"z": 1.0907817797,
				"element": "C" 
			},
			{
				"x": -0.4113206314,
				"y": -1.6822051742,
				"z": 1.9959871413,
				"element": "C" 
			},
			{
				"x": -1.54772081,
				"y": -0.962744237,
				"z": 1.281413652,
				"element": "C" 
			},
			{
				"x": -1.5812276671,
				"y": 0.3928597381,
				"z": 1.6688394949,
				"element": "C" 
			},
			{
				"x": -2.5579982694,
				"y": 1.250664897,
				"z": 1.1586165564,
				"element": "C" 
			},
			{
				"x": -3.4954246312,
				"y": 0.7425541914,
				"z": 0.2565788521,
				"element": "C" 
			},
			{
				"x": -3.4570239518,
				"y": -0.6008656524,
				"z": -0.1314192629,
				"element": "C" 
			},
			{
				"x": -2.4808960571,
				"y": -1.4636588948,
				"z": 0.3806807425,
				"element": "C" 
			},
			{
				"x": -0.478848721,
				"y": 0.6424813378,
				"z": 2.6088173089,
				"element": "C" 
			},
			{
				"x": 0.2311129598,
				"y": -0.5601435999,
				"z": 2.7999095822,
				"element": "C" 
			},
			{
				"x": 1.3338426714,
				"y": -0.6023453148,
				"z": 3.6448969094,
				"element": "C" 
			},
			{
				"x": 1.7309214919,
				"y": 0.5682876612,
				"z": 4.3013848181,
				"element": "C" 
			},
			{
				"x": 1.0252543881,
				"y": 1.7616009157,
				"z": 4.1151338301,
				"element": "C" 
			},
			{
				"x": -0.0851149842,
				"y": 1.808451176,
				"z": 3.2691953022,
				"element": "C" 
			},
			{
				"x": 3.4739788616,
				"y": -1.7998524626,
				"z": -1.6142701884,
				"element": "H" 
			},
			{
				"x": 2.6886713964,
				"y": 0.6188880074,
				"z": -2.5422803956,
				"element": "H" 
			},
			{
				"x": 2.0702087888,
				"y": 2.0733733239,
				"z": -0.5932464549,
				"element": "H" 
			},
			{
				"x": 0.8931712752,
				"y": 0.8725245727,
				"z": -0.0893362177,
				"element": "H" 
			},
			{
				"x": 0.8786922924,
				"y": 4.0241484695,
				"z": -2.178202999,
				"element": "H" 
			},
			{
				"x": -1.3139467292,
				"y": 3.9496375739,
				"z": -3.8278769572,
				"element": "H" 
			},
			{
				"x": -2.1691751252,
				"y": 1.3363924777,
				"z": -3.6996118378,
				"element": "H" 
			},
			{
				"x": 1.1491939224,
				"y": -0.9850392522,
				"z": -2.9509960764,
				"element": "H" 
			},
			{
				"x": 1.3631590848,
				"y": -2.8897353056,
				"z": 1.677835234,
				"element": "H" 
			},
			{
				"x": 0.016961342,
				"y": -3.2739538337,
				"z": 0.57426185,
				"element": "H" 
			},
			{
				"x": -0.8297127773,
				"y": -2.4304795678,
				"z": 2.6884056678,
				"element": "H" 
			},
			{
				"x": -2.590230393,
				"y": 2.2959654759,
				"z": 1.4529179603,
				"element": "H" 
			},
			{
				"x": -4.2601413902,
				"y": 1.3983480503,
				"z": -0.1499125833,
				"element": "H" 
			},
			{
				"x": -4.1895552867,
				"y": -0.9789707151,
				"z": -0.8386031901,
				"element": "H" 
			},
			{
				"x": -2.447203913,
				"y": -2.5001617583,
				"z": 0.0588886759,
				"element": "H" 
			},
			{
				"x": 1.8887187532,
				"y": -1.5247616671,
				"z": 3.7971824563,
				"element": "H" 
			},
			{
				"x": 2.5955381214,
				"y": 0.5502351915,
				"z": 4.9581024886,
				"element": "H" 
			},
			{
				"x": 1.3462785769,
				"y": 2.6613949838,
				"z": 4.6320053565,
				"element": "H" 
			},
			{
				"x": -0.6284356864,
				"y": 2.7387482371,
				"z": 3.1282403961,
				"element": "H" 
			}
		],
		 "valence_orbital": [ 
			{
				"type": "occ",
				"energy": -0.26296,
				"method": "rhf"
			},
			{
				"type": "occ",
				"energy": -0.24932,
				"method": "rhf"
			},
			{
				"type": "occ",
				"energy": -0.24377,
				"method": "rhf"
			},
			{
				"type": "occ",
				"energy": -0.22224,
				"method": "rhf"
			},
			{
				"type": "occ",
				"energy": -0.21465,
				"method": "rhf"
			},
			{
				"type": "unocc",
				"energy": -0.03071,
				"method": "rhf"
			},
			{
				"type": "unocc",
				"energy": -0.01324,
				"method": "rhf"
			},
			{
				"type": "unocc",
				"energy": 0.00848,
				"method": "rhf"
			},
			{
				"type": "unocc",
				"energy": 0.00938,
				"method": "rhf"
			},
			{
				"type": "unocc",
				"energy": 0.01176,
				"method": "rhf"
			}
		],
		"cosmo_sigma_profile": { 
			"-0.025": 0.0,
			"-0.024": 0.0,
			"-0.023": 0.0,
			"-0.022": 0.0,
			"-0.021": 0.0,
			"-0.02": 0.0,
			"-0.019": 0.0,
			"-0.018": 0.0,
			"-0.017": 0.0,
			"-0.016": 0.0266177848725,
			"-0.015": 0.561900665299,
			"-0.014": 1.46991292914,
			"-0.013": 2.33301482053,
			"-0.012": 1.5645431258,
			"-0.011": 2.09451049338,
			"-0.01": 4.5779196126,
			"-0.009": 5.03728684105,
			"-0.008": 4.87970554993,
			"-0.007": 10.7115297114,
			"-0.006": 27.01522924,
			"-0.005": 31.9930198433,
			"-0.004": 30.852621966,
			"-0.003": 28.853981105,
			"-0.002": 20.3528059272,
			"-0.001": 23.2236654225,
			"0.0": 21.8273497111,
			"0.001": 22.9764078183,
			"0.002": 25.7444390432,
			"0.003": 26.2242738613,
			"0.004": 29.1972572855,
			"0.005": 27.1884451072,
			"0.006": 19.1379345463,
			"0.007": 5.98893373874,
			"0.008": 4.02744573722,
			"0.009": 6.09458418454,
			"0.01": 7.08293756681,
			"0.011": 6.56678316956,
			"0.012": 7.3704880706,
			"0.013": 1.97358207158,
			"0.014": 0.0,
			"0.015": 0.0,
			"0.016": 0.0,
			"0.017": 0.0,
			"0.018": 0.0,
			"0.019": 0.0,
			"0.02": 0.0,
			"0.021": 0.0,
			"0.022": 0.0,
			"0.023": 0.0,
			"0.024": 0.0,
			"0.025": 0.0
		}
	}
}
