{
	 "smiles": "OC(=O)C1=C(Cl)C=CS1", 
	 "Tm": 459.15, 
	 "num_atms": 12, 
	 "gaussian": { 
		 "optdone": 1, 
		 "sigma_profile": "yes", 
		 "theory": "DFT", 
		 "functional": "B3LYP", 
		 "basiset": "6-31G**", 
		 "properties": { 
			 "R2extent": 1879.7491, 
			 "electric_dipole_moment_norm": 4.91224923635, 
			 "electric_quadrupole_moment_norm": 15.0503712865, 
			 "total_energy": -1201.15578683, 
			 "HOMO_LUMO_gap": 0.19553, 
			 "cosmo_polarized_energy": -11.32, 
			 "cosmo_cavitation_energy": 19.94, 
			 "cosmo_dispersion_energy": -15.84, 
			 "cosmo_repulsion_energy": 1.24, 
			 "cosmo_total_nonelectrostatic_energy": 5.34, 
			 "SMD_solvation_energy": 4.49 
		},
		"coords": [
			{
				"x": 2.1913087446,
				"y": 1.151301115,
				"z": 0.8237742136,
				"element": "O" 
			},
			{
				"x": 1.6383238583,
				"y": 1.7373420417,
				"z": -0.256394813,
				"element": "C" 
			},
			{
				"x": 2.0625284945,
				"y": 2.7918091057,
				"z": -0.6759433902,
				"element": "O" 
			},
			{
				"x": 0.4959249243,
				"y": 1.0547275627,
				"z": -0.917758612,
				"element": "C" 
			},
			{
				"x": -0.1939637397,
				"y": -0.1182388789,
				"z": -0.6862436505,
				"element": "C" 
			},
			{
				"x": 0.1542815674,
				"y": -1.2381701133,
				"z": 0.616693787,
				"element": "Cl" 
			},
			{
				"x": -1.2476798853,
				"y": -0.3770818172,
				"z": -1.6036282531,
				"element": "C" 
			},
			{
				"x": -1.3470404746,
				"y": 0.6198659979,
				"z": -2.5370130767,
				"element": "C" 
			},
			{
				"x": -0.1747606973,
				"y": 1.8632914129,
				"z": -2.3090802171,
				"element": "S" 
			},
			{
				"x": 1.7494894168,
				"y": 0.3146086654,
				"z": 1.0433748028,
				"element": "H" 
			},
			{
				"x": -1.8818828248,
				"y": -1.2532187809,
				"z": -1.5583433735,
				"element": "H" 
			},
			{
				"x": -2.0549293843,
				"y": 0.6858636888,
				"z": -3.3521374173,
				"element": "H" 
			}
		],
		 "valence_orbital": [ 
			{
				"type": "occ",
				"energy": -0.34908,
				"method": "rhf"
			},
			{
				"type": "occ",
				"energy": -0.32017,
				"method": "rhf"
			},
			{
				"type": "occ",
				"energy": -0.28373,
				"method": "rhf"
			},
			{
				"type": "occ",
				"energy": -0.27556,
				"method": "rhf"
			},
			{
				"type": "occ",
				"energy": -0.26654,
				"method": "rhf"
			},
			{
				"type": "unocc",
				"energy": -0.07101,
				"method": "rhf"
			},
			{
				"type": "unocc",
				"energy": -0.01653,
				"method": "rhf"
			},
			{
				"type": "unocc",
				"energy": 0.01019,
				"method": "rhf"
			},
			{
				"type": "unocc",
				"energy": 0.02724,
				"method": "rhf"
			},
			{
				"type": "unocc",
				"energy": 0.07993,
				"method": "rhf"
			}
		],
		"cosmo_sigma_profile": { 
			"-0.025": 0.0,
			"-0.024": 0.0,
			"-0.023": 0.0,
			"-0.022": 0.0,
			"-0.021": 0.0,
			"-0.02": 0.0,
			"-0.019": 0.0,
			"-0.018": 0.0,
			"-0.017": 0.0,
			"-0.016": 0.0,
			"-0.015": 0.0,
			"-0.014": 0.0,
			"-0.013": 0.250579336429,
			"-0.012": 0.571535984635,
			"-0.011": 1.2202423062,
			"-0.01": 4.05532205133,
			"-0.009": 5.05148651739,
			"-0.008": 5.56687772575,
			"-0.007": 5.94135066396,
			"-0.006": 5.66109239128,
			"-0.005": 6.39571942799,
			"-0.004": 7.57662224917,
			"-0.003": 7.85040668073,
			"-0.002": 10.7935688962,
			"-0.001": 13.1983014616,
			"0.0": 17.9391102559,
			"0.001": 17.3474530197,
			"0.002": 17.7595751844,
			"0.003": 6.81796028427,
			"0.004": 2.29107326724,
			"0.005": 2.72213773966,
			"0.006": 2.15013773538,
			"0.007": 3.0244623862,
			"0.008": 2.99240324168,
			"0.009": 3.56298236591,
			"0.01": 5.40600344872,
			"0.011": 5.00019148911,
			"0.012": 3.38294018162,
			"0.013": 0.95141777845,
			"0.014": 0.0,
			"0.015": 0.0,
			"0.016": 0.0,
			"0.017": 0.0,
			"0.018": 0.0,
			"0.019": 0.0,
			"0.02": 0.0,
			"0.021": 0.0,
			"0.022": 0.0,
			"0.023": 0.0,
			"0.024": 0.0,
			"0.025": 0.0
		}
	}
}
