{
	 "smiles": "ClC1=NC(=CC=C1)C1=NC=CC=C1", 
	 "Tm": 336.15, 
	 "num_atms": 20, 
	 "gaussian": { 
		 "optdone": 1, 
		 "sigma_profile": "yes", 
		 "theory": "DFT", 
		 "functional": "B3LYP", 
		 "basiset": "6-31G**", 
		 "properties": { 
			 "R2extent": 3523.8844, 
			 "electric_dipole_moment_norm": 2.06274371409, 
			 "electric_quadrupole_moment_norm": 13.8632577557, 
			 "total_energy": -954.982783346, 
			 "HOMO_LUMO_gap": 0.17982, 
			 "cosmo_polarized_energy": -7.45, 
			 "cosmo_cavitation_energy": 26.54, 
			 "cosmo_dispersion_energy": -19.95, 
			 "cosmo_repulsion_energy": 1.57, 
			 "cosmo_total_nonelectrostatic_energy": 8.16, 
			 "SMD_solvation_energy": 2.29 
		},
		"coords": [
			{
				"x": 2.9385910344,
				"y": -2.2613637381,
				"z": -1.9019427755,
				"element": "Cl" 
			},
			{
				"x": 1.8425632654,
				"y": -1.4492473419,
				"z": -0.7792792028,
				"element": "C" 
			},
			{
				"x": 0.9888695157,
				"y": -0.5955921683,
				"z": -1.3026628789,
				"element": "N" 
			},
			{
				"x": 0.1379130962,
				"y": 0.0416732733,
				"z": -0.4736989246,
				"element": "C" 
			},
			{
				"x": 0.1423415687,
				"y": -0.1809849341,
				"z": 0.9086292998,
				"element": "C" 
			},
			{
				"x": 1.0577711338,
				"y": -1.0906237429,
				"z": 1.4336652041,
				"element": "C" 
			},
			{
				"x": 1.9395628837,
				"y": -1.7520563275,
				"z": 0.581489425,
				"element": "C" 
			},
			{
				"x": -0.8147781998,
				"y": 1.000515851,
				"z": -1.0974477523,
				"element": "C" 
			},
			{
				"x": -1.6619659332,
				"y": 1.6338739703,
				"z": -0.2666559503,
				"element": "N" 
			},
			{
				"x": -2.5289747836,
				"y": 2.5002342006,
				"z": -0.7954798692,
				"element": "C" 
			},
			{
				"x": -2.603018911,
				"y": 2.7831434665,
				"z": -2.1610975989,
				"element": "C" 
			},
			{
				"x": -1.7221724111,
				"y": 2.1235894592,
				"z": -3.0180372815,
				"element": "C" 
			},
			{
				"x": -0.8116896945,
				"y": 1.2169882703,
				"z": -2.4829578588,
				"element": "C" 
			},
			{
				"x": -0.5621695099,
				"y": 0.3568161081,
				"z": 1.5303188724,
				"element": "H" 
			},
			{
				"x": 1.0872624604,
				"y": -1.2861733682,
				"z": 2.5016741872,
				"element": "H" 
			},
			{
				"x": 2.6681530775,
				"y": -2.467145934,
				"z": 0.9430492936,
				"element": "H" 
			},
			{
				"x": -3.1994323304,
				"y": 2.9945991404,
				"z": -0.0944273423,
				"element": "H" 
			},
			{
				"x": -3.3291541279,
				"y": 3.4978183534,
				"z": -2.5350281479,
				"element": "H" 
			},
			{
				"x": -1.7437951833,
				"y": 2.3123493228,
				"z": -4.0875756232,
				"element": "H" 
			},
			{
				"x": -0.105176951,
				"y": 0.6770861393,
				"z": -3.101735076,
				"element": "H" 
			}
		],
		 "valence_orbital": [ 
			{
				"type": "occ",
				"energy": -0.29187,
				"method": "rhf"
			},
			{
				"type": "occ",
				"energy": -0.28081,
				"method": "rhf"
			},
			{
				"type": "occ",
				"energy": -0.27428,
				"method": "rhf"
			},
			{
				"type": "occ",
				"energy": -0.25938,
				"method": "rhf"
			},
			{
				"type": "occ",
				"energy": -0.24039,
				"method": "rhf"
			},
			{
				"type": "unocc",
				"energy": -0.06057,
				"method": "rhf"
			},
			{
				"type": "unocc",
				"energy": -0.03403,
				"method": "rhf"
			},
			{
				"type": "unocc",
				"energy": -0.01615,
				"method": "rhf"
			},
			{
				"type": "unocc",
				"energy": 0.01936,
				"method": "rhf"
			},
			{
				"type": "unocc",
				"energy": 0.03479,
				"method": "rhf"
			}
		],
		"cosmo_sigma_profile": { 
			"-0.025": 0.0,
			"-0.024": 0.0,
			"-0.023": 0.0,
			"-0.022": 0.0,
			"-0.021": 0.0,
			"-0.02": 0.0,
			"-0.019": 0.0,
			"-0.018": 0.0,
			"-0.017": 0.0,
			"-0.016": 0.0,
			"-0.015": 0.0,
			"-0.014": 0.0,
			"-0.013": 0.0,
			"-0.012": 0.0,
			"-0.011": 0.0,
			"-0.01": 0.0,
			"-0.009": 0.103323291254,
			"-0.008": 3.61950156365,
			"-0.007": 8.9879576144,
			"-0.006": 14.068307907,
			"-0.005": 13.1812985206,
			"-0.004": 12.0618419001,
			"-0.003": 9.14698687902,
			"-0.002": 10.2576915762,
			"-0.001": 13.8201178655,
			"0.0": 23.2467920817,
			"0.001": 28.8769587683,
			"0.002": 26.1945011114,
			"0.003": 14.3966739449,
			"0.004": 13.0397288245,
			"0.005": 9.14382857042,
			"0.006": 4.62178067247,
			"0.007": 3.61444302098,
			"0.008": 3.2262983611,
			"0.009": 2.19298622901,
			"0.01": 1.96415762979,
			"0.011": 1.13559670683,
			"0.012": 0.130392069845,
			"0.013": 0.0,
			"0.014": 0.0,
			"0.015": 0.0,
			"0.016": 0.0,
			"0.017": 0.0,
			"0.018": 0.0,
			"0.019": 0.0,
			"0.02": 0.0,
			"0.021": 0.0,
			"0.022": 0.0,
			"0.023": 0.0,
			"0.024": 0.0,
			"0.025": 0.0
		}
	}
}
