{
	 "smiles": "NS(=O)(=O)C1=CNC(=O)NC1=O", 
	 "Tm": 573.15, 
	 "num_atms": 17, 
	 "gaussian": { 
		 "optdone": 1, 
		 "sigma_profile": "yes", 
		 "theory": "DFT", 
		 "functional": "B3LYP", 
		 "basiset": "6-31G**", 
		 "properties": { 
			 "R2extent": 2360.9401, 
			 "electric_dipole_moment_norm": 2.78692694379, 
			 "electric_quadrupole_moment_norm": 14.1857997173, 
			 "total_energy": -1018.7373758, 
			 "HOMO_LUMO_gap": 0.20252, 
			 "cosmo_polarized_energy": -26.41, 
			 "cosmo_cavitation_energy": 23.51, 
			 "cosmo_dispersion_energy": -18.35, 
			 "cosmo_repulsion_energy": 1.42, 
			 "cosmo_total_nonelectrostatic_energy": 6.58, 
			 "SMD_solvation_energy": 5.44 
		},
		"coords": [
			{
				"x": -1.8126009778,
				"y": 1.8462490635,
				"z": 0.1513019863,
				"element": "N" 
			},
			{
				"x": -1.42548222,
				"y": 0.2891183282,
				"z": 0.6606138802,
				"element": "S" 
			},
			{
				"x": -1.438048495,
				"y": 0.1676294703,
				"z": 2.1193349623,
				"element": "O" 
			},
			{
				"x": -2.211673372,
				"y": -0.6370758985,
				"z": -0.1604878864,
				"element": "O" 
			},
			{
				"x": 0.2641747492,
				"y": 0.1973519372,
				"z": 0.1118039557,
				"element": "C" 
			},
			{
				"x": 0.6593756847,
				"y": -0.8513359351,
				"z": -0.6469439551,
				"element": "C" 
			},
			{
				"x": 1.9647169473,
				"y": -1.0032689767,
				"z": -1.0153938586,
				"element": "N" 
			},
			{
				"x": 2.9857553273,
				"y": -0.1149252213,
				"z": -0.6548054023,
				"element": "C" 
			},
			{
				"x": 4.1404513974,
				"y": -0.2723881321,
				"z": -0.991868107,
				"element": "O" 
			},
			{
				"x": 2.5310688562,
				"y": 0.9492199937,
				"z": 0.1118937075,
				"element": "N" 
			},
			{
				"x": 1.2192065344,
				"y": 1.2206948011,
				"z": 0.5312326766,
				"element": "C" 
			},
			{
				"x": 0.9545505777,
				"y": 2.2341091621,
				"z": 1.1599722691,
				"element": "O" 
			},
			{
				"x": -2.825554126,
				"y": 1.9479133482,
				"z": 0.1458383548,
				"element": "H" 
			},
			{
				"x": -1.3586663178,
				"y": 2.5228983197,
				"z": 0.7655021889,
				"element": "H" 
			},
			{
				"x": -0.0465595236,
				"y": -1.6012683594,
				"z": -0.987496641,
				"element": "H" 
			},
			{
				"x": 2.261849328,
				"y": -1.7861974684,
				"z": -1.5815337299,
				"element": "H" 
			},
			{
				"x": 3.23533563,
				"y": 1.6289755676,
				"z": 0.3758355989,
				"element": "H" 
			}
		],
		 "valence_orbital": [ 
			{
				"type": "occ",
				"energy": -0.31779,
				"method": "rhf"
			},
			{
				"type": "occ",
				"energy": -0.31037,
				"method": "rhf"
			},
			{
				"type": "occ",
				"energy": -0.29318,
				"method": "rhf"
			},
			{
				"type": "occ",
				"energy": -0.28953,
				"method": "rhf"
			},
			{
				"type": "occ",
				"energy": -0.27283,
				"method": "rhf"
			},
			{
				"type": "unocc",
				"energy": -0.07031,
				"method": "rhf"
			},
			{
				"type": "unocc",
				"energy": -0.02085,
				"method": "rhf"
			},
			{
				"type": "unocc",
				"energy": 0.03014,
				"method": "rhf"
			},
			{
				"type": "unocc",
				"energy": 0.05706,
				"method": "rhf"
			},
			{
				"type": "unocc",
				"energy": 0.06517,
				"method": "rhf"
			}
		],
		"cosmo_sigma_profile": { 
			"-0.025": 0.0,
			"-0.024": 0.0,
			"-0.023": 0.0,
			"-0.022": 0.0,
			"-0.021": 0.0,
			"-0.02": 0.0,
			"-0.019": 0.220660786949,
			"-0.018": 1.89203199792,
			"-0.017": 2.25684965793,
			"-0.016": 3.2921195926,
			"-0.015": 2.99550775594,
			"-0.014": 3.94704776621,
			"-0.013": 4.19015907443,
			"-0.012": 5.06216750517,
			"-0.011": 4.47700003884,
			"-0.01": 3.68385941278,
			"-0.009": 3.38636332405,
			"-0.008": 5.51633871918,
			"-0.007": 5.42484569703,
			"-0.006": 7.07918986079,
			"-0.005": 8.14378366464,
			"-0.004": 11.1748643413,
			"-0.003": 8.3222719134,
			"-0.002": 5.18361228838,
			"-0.001": 5.46185439262,
			"0.0": 5.14519763958,
			"0.001": 4.56411282049,
			"0.002": 4.76651557214,
			"0.003": 4.8951210498,
			"0.004": 5.90840608579,
			"0.005": 4.70385999992,
			"0.006": 4.98528908348,
			"0.007": 6.8808964302,
			"0.008": 5.97001319637,
			"0.009": 8.29203186285,
			"0.01": 14.3919022126,
			"0.011": 19.1811374055,
			"0.012": 6.40950557825,
			"0.013": 0.0499238978721,
			"0.014": 0.0,
			"0.015": 0.0,
			"0.016": 0.0,
			"0.017": 0.0,
			"0.018": 0.0,
			"0.019": 0.0,
			"0.02": 0.0,
			"0.021": 0.0,
			"0.022": 0.0,
			"0.023": 0.0,
			"0.024": 0.0,
			"0.025": 0.0
		}
	}
}
