{
	 "smiles": "NC(=O)CNCCS(O)(=O)=O", 
	 "Tm": 555.15, 
	 "num_atms": 21, 
	 "gaussian": { 
		 "optdone": 1, 
		 "sigma_profile": "yes", 
		 "theory": "DFT", 
		 "functional": "B3LYP", 
		 "basiset": "6-31G**", 
		 "properties": { 
			 "R2extent": 3342.1374, 
			 "electric_dipole_moment_norm": 3.09987620559, 
			 "electric_quadrupole_moment_norm": 30.7398035882, 
			 "total_energy": -966.982344407, 
			 "HOMO_LUMO_gap": 0.25121, 
			 "cosmo_polarized_energy": -24.3, 
			 "cosmo_cavitation_energy": 25.91, 
			 "cosmo_dispersion_energy": -19.33, 
			 "cosmo_repulsion_energy": 1.54, 
			 "cosmo_total_nonelectrostatic_energy": 8.12, 
			 "SMD_solvation_energy": 4.29 
		},
		"coords": [
			{
				"x": -1.3960503923,
				"y": -1.6511438214,
				"z": 0.985943701,
				"element": "N" 
			},
			{
				"x": -1.9862399266,
				"y": -0.4294356286,
				"z": 1.0247425259,
				"element": "C" 
			},
			{
				"x": -3.1851592114,
				"y": -0.2284170861,
				"z": 0.8848841747,
				"element": "O" 
			},
			{
				"x": -1.0067342396,
				"y": 0.741946154,
				"z": 1.2155789249,
				"element": "C" 
			},
			{
				"x": 0.2648167062,
				"y": 0.3215083244,
				"z": 1.7885059412,
				"element": "N" 
			},
			{
				"x": 1.4485822052,
				"y": 1.0905890768,
				"z": 1.4567217187,
				"element": "C" 
			},
			{
				"x": 2.7282962787,
				"y": 0.3102352629,
				"z": 1.7657068457,
				"element": "C" 
			},
			{
				"x": 2.9729138691,
				"y": -1.2230008277,
				"z": 0.8249980041,
				"element": "S" 
			},
			{
				"x": 2.8421234195,
				"y": -0.6090649599,
				"z": -0.6986516774,
				"element": "O" 
			},
			{
				"x": 1.8743560293,
				"y": -2.1798724281,
				"z": 0.9871982736,
				"element": "O" 
			},
			{
				"x": 4.347400142,
				"y": -1.6491982054,
				"z": 1.0484192825,
				"element": "O" 
			},
			{
				"x": -1.9811370017,
				"y": -2.4589199682,
				"z": 0.8406105854,
				"element": "H" 
			},
			{
				"x": -0.395614031,
				"y": -1.7471959948,
				"z": 1.1129184318,
				"element": "H" 
			},
			{
				"x": -0.8195283943,
				"y": 1.1568040619,
				"z": 0.2175077744,
				"element": "H" 
			},
			{
				"x": -1.5400988518,
				"y": 1.5193474081,
				"z": 1.7807875226,
				"element": "H" 
			},
			{
				"x": 0.1833011617,
				"y": 0.1835599744,
				"z": 2.7911597206,
				"element": "H" 
			},
			{
				"x": 1.5307421446,
				"y": 2.0597108344,
				"z": 1.9826792939,
				"element": "H" 
			},
			{
				"x": 1.4243880845,
				"y": 1.318828864,
				"z": 0.3866988036,
				"element": "H" 
			},
			{
				"x": 3.6208179745,
				"y": 0.9055436151,
				"z": 1.5561264621,
				"element": "H" 
			},
			{
				"x": 2.7763384568,
				"y": -0.012850474,
				"z": 2.8107854987,
				"element": "H" 
			},
			{
				"x": 2.2755855767,
				"y": -1.2225741817,
				"z": -1.196621808,
				"element": "H" 
			}
		],
		 "valence_orbital": [ 
			{
				"type": "occ",
				"energy": -0.33064,
				"method": "rhf"
			},
			{
				"type": "occ",
				"energy": -0.31441,
				"method": "rhf"
			},
			{
				"type": "occ",
				"energy": -0.25835,
				"method": "rhf"
			},
			{
				"type": "occ",
				"energy": -0.25595,
				"method": "rhf"
			},
			{
				"type": "occ",
				"energy": -0.23192,
				"method": "rhf"
			},
			{
				"type": "unocc",
				"energy": 0.01929,
				"method": "rhf"
			},
			{
				"type": "unocc",
				"energy": 0.03477,
				"method": "rhf"
			},
			{
				"type": "unocc",
				"energy": 0.05015,
				"method": "rhf"
			},
			{
				"type": "unocc",
				"energy": 0.06054,
				"method": "rhf"
			},
			{
				"type": "unocc",
				"energy": 0.07716,
				"method": "rhf"
			}
		],
		"cosmo_sigma_profile": { 
			"-0.025": 0.0,
			"-0.024": 0.0,
			"-0.023": 0.0,
			"-0.022": 0.0,
			"-0.021": 0.0,
			"-0.02": 0.374464555986,
			"-0.019": 1.00728647774,
			"-0.018": 0.941445941685,
			"-0.017": 1.01468344173,
			"-0.016": 0.757652239296,
			"-0.015": 0.3150116985,
			"-0.014": 0.478162041943,
			"-0.013": 1.9838246179,
			"-0.012": 2.72894552602,
			"-0.011": 4.13579699604,
			"-0.01": 4.34950576733,
			"-0.009": 8.10799544697,
			"-0.008": 6.42309649188,
			"-0.007": 8.03038613524,
			"-0.006": 10.7766055802,
			"-0.005": 14.0962953384,
			"-0.004": 14.1948765868,
			"-0.003": 11.7292557846,
			"-0.002": 9.9205317985,
			"-0.001": 6.11702338766,
			"0.0": 6.89930039055,
			"0.001": 7.52252068795,
			"0.002": 6.39665161957,
			"0.003": 6.62338308681,
			"0.004": 6.41713932635,
			"0.005": 5.90921058493,
			"0.006": 5.33161177892,
			"0.007": 5.80488482004,
			"0.008": 5.26640238002,
			"0.009": 7.24380272762,
			"0.01": 9.68731925353,
			"0.011": 8.14926772451,
			"0.012": 1.73057802581,
			"0.013": 1.82339167388,
			"0.014": 5.99167497764,
			"0.015": 4.18470312208,
			"0.016": 0.545638033315,
			"0.017": 0.0,
			"0.018": 0.0,
			"0.019": 0.0,
			"0.02": 0.0,
			"0.021": 0.0,
			"0.022": 0.0,
			"0.023": 0.0,
			"0.024": 0.0,
			"0.025": 0.0
		}
	}
}
