{
	 "smiles": "CCOCCNC(=O)C1=CC(Br)=CC=C1", 
	 "Tm": 336.15, 
	 "num_atms": 29, 
	 "gaussian": { 
		 "optdone": 1, 
		 "sigma_profile": "yes", 
		 "theory": "DFT", 
		 "functional": "B3LYP", 
		 "basiset": "6-31G**", 
		 "properties": { 
			 "R2extent": 5566.0145, 
			 "electric_dipole_moment_norm": 2.19846075926, 
			 "electric_quadrupole_moment_norm": 13.4627298383, 
			 "total_energy": -3204.21184517, 
			 "HOMO_LUMO_gap": 0.19839, 
			 "cosmo_polarized_energy": -13.48, 
			 "cosmo_cavitation_energy": 35.14, 
			 "cosmo_dispersion_energy": -24.1, 
			 "cosmo_repulsion_energy": 1.91, 
			 "cosmo_total_nonelectrostatic_energy": 12.96, 
			 "SMD_solvation_energy": 5.07 
		},
		"coords": [
			{
				"x": 1.0666300347,
				"y": 2.4847307491,
				"z": -3.5308490354,
				"element": "C" 
			},
			{
				"x": 1.663521491,
				"y": 1.2151796914,
				"z": -2.9303368662,
				"element": "C" 
			},
			{
				"x": 2.4895313988,
				"y": 1.4897988321,
				"z": -1.7982785988,
				"element": "O" 
			},
			{
				"x": 1.8047273285,
				"y": 1.5740816214,
				"z": -0.562581861,
				"element": "C" 
			},
			{
				"x": 1.7745769857,
				"y": 0.2074560836,
				"z": 0.1388724988,
				"element": "C" 
			},
			{
				"x": 1.1579799014,
				"y": 0.2828544009,
				"z": 1.4612844053,
				"element": "N" 
			},
			{
				"x": 0.1613318644,
				"y": -0.5022860744,
				"z": 1.9952598676,
				"element": "C" 
			},
			{
				"x": 0.0521432182,
				"y": -0.6416668917,
				"z": 3.2090152412,
				"element": "O" 
			},
			{
				"x": -0.8231074846,
				"y": -1.160360289,
				"z": 1.0646875061,
				"element": "C" 
			},
			{
				"x": -1.3308302302,
				"y": -0.5225148596,
				"z": -0.0745942101,
				"element": "C" 
			},
			{
				"x": -2.2914334679,
				"y": -1.168690738,
				"z": -0.8493631289,
				"element": "C" 
			},
			{
				"x": -2.9797579366,
				"y": -0.2878837898,
				"z": -2.4026285761,
				"element": "Br" 
			},
			{
				"x": -2.7602447328,
				"y": -2.4376870338,
				"z": -0.5166947116,
				"element": "C" 
			},
			{
				"x": -2.2612296635,
				"y": -3.0601592237,
				"z": 0.6303175023,
				"element": "C" 
			},
			{
				"x": -1.3095506591,
				"y": -2.4241085767,
				"z": 1.4236741917,
				"element": "C" 
			},
			{
				"x": 1.8612942371,
				"y": 3.1823559688,
				"z": -3.8107034128,
				"element": "H" 
			},
			{
				"x": 0.4019700917,
				"y": 2.990398934,
				"z": -2.8227630616,
				"element": "H" 
			},
			{
				"x": 0.481347864,
				"y": 2.2457825572,
				"z": -4.4253892541,
				"element": "H" 
			},
			{
				"x": 2.3142183996,
				"y": 0.7213842691,
				"z": -3.6597860182,
				"element": "H" 
			},
			{
				"x": 0.8669379605,
				"y": 0.5019031897,
				"z": -2.6703299411,
				"element": "H" 
			},
			{
				"x": 0.782370923,
				"y": 1.9616267525,
				"z": -0.6824440743,
				"element": "H" 
			},
			{
				"x": 2.3475616449,
				"y": 2.2947943952,
				"z": 0.0611392599,
				"element": "H" 
			},
			{
				"x": 1.2303027409,
				"y": -0.5173720049,
				"z": -0.4684330507,
				"element": "H" 
			},
			{
				"x": 2.805045713,
				"y": -0.1592504977,
				"z": 0.2251981951,
				"element": "H" 
			},
			{
				"x": 1.7367189699,
				"y": 0.6684258212,
				"z": 2.1986559889,
				"element": "H" 
			},
			{
				"x": -1.0052597983,
				"y": 0.4753374237,
				"z": -0.3420538886,
				"element": "H" 
			},
			{
				"x": -3.5048914469,
				"y": -2.9246059137,
				"z": -1.1359304426,
				"element": "H" 
			},
			{
				"x": -2.6273877799,
				"y": -4.0449992709,
				"z": 0.9043809753,
				"element": "H" 
			},
			{
				"x": -0.9359175678,
				"y": -2.8865255262,
				"z": 2.3305745001,
				"element": "H" 
			}
		],
		 "valence_orbital": [ 
			{
				"type": "occ",
				"energy": -0.27491,
				"method": "rhf"
			},
			{
				"type": "occ",
				"energy": -0.27162,
				"method": "rhf"
			},
			{
				"type": "occ",
				"energy": -0.2625,
				"method": "rhf"
			},
			{
				"type": "occ",
				"energy": -0.25107,
				"method": "rhf"
			},
			{
				"type": "occ",
				"energy": -0.24267,
				"method": "rhf"
			},
			{
				"type": "unocc",
				"energy": -0.04428,
				"method": "rhf"
			},
			{
				"type": "unocc",
				"energy": -0.02379,
				"method": "rhf"
			},
			{
				"type": "unocc",
				"energy": -0.00242,
				"method": "rhf"
			},
			{
				"type": "unocc",
				"energy": 0.04269,
				"method": "rhf"
			},
			{
				"type": "unocc",
				"energy": 0.06949,
				"method": "rhf"
			}
		],
		"cosmo_sigma_profile": { 
			"-0.025": 0.0,
			"-0.024": 0.0,
			"-0.023": 0.0,
			"-0.022": 0.0,
			"-0.021": 0.0,
			"-0.02": 0.0,
			"-0.019": 0.0,
			"-0.018": 0.0,
			"-0.017": 0.0,
			"-0.016": 0.0,
			"-0.015": 0.0,
			"-0.014": 0.181520034293,
			"-0.013": 1.33150156117,
			"-0.012": 0.700885631047,
			"-0.011": 1.40050038777,
			"-0.01": 1.27144894893,
			"-0.009": 1.22711610756,
			"-0.008": 2.09167722394,
			"-0.007": 7.66447493405,
			"-0.006": 11.2936248698,
			"-0.005": 16.2419292618,
			"-0.004": 21.8079923019,
			"-0.003": 25.9382020687,
			"-0.002": 28.1849574279,
			"-0.001": 25.0564350838,
			"0.0": 20.7875541419,
			"0.001": 23.8817028565,
			"0.002": 22.8040555595,
			"0.003": 18.2105868911,
			"0.004": 14.9512725481,
			"0.005": 6.22427366775,
			"0.006": 2.55552911034,
			"0.007": 3.08566953056,
			"0.008": 2.99161419455,
			"0.009": 2.52921357923,
			"0.01": 2.32543862489,
			"0.011": 2.09247053575,
			"0.012": 3.7077999172,
			"0.013": 6.56526461134,
			"0.014": 3.89411279546,
			"0.015": 0.115239446139,
			"0.016": 0.0,
			"0.017": 0.0,
			"0.018": 0.0,
			"0.019": 0.0,
			"0.02": 0.0,
			"0.021": 0.0,
			"0.022": 0.0,
			"0.023": 0.0,
			"0.024": 0.0,
			"0.025": 0.0
		}
	}
}
