{
	 "smiles": "CN(C1=CC=CC=C1)C1=C(C=C(C=O)C=C1)[N+]([O-])=O", 
	 "Tm": 369.15, 
	 "num_atms": 31, 
	 "gaussian": { 
		 "optdone": 1, 
		 "sigma_profile": "yes", 
		 "theory": "DFT", 
		 "functional": "B3LYP", 
		 "basiset": "6-31G**", 
		 "properties": { 
			 "R2extent": 5948.9955, 
			 "electric_dipole_moment_norm": 5.83928871182, 
			 "electric_quadrupole_moment_norm": 10.638100776, 
			 "total_energy": -875.770404793, 
			 "HOMO_LUMO_gap": 0.12031, 
			 "cosmo_polarized_energy": -15.73, 
			 "cosmo_cavitation_energy": 35.74, 
			 "cosmo_dispersion_energy": -24.45, 
			 "cosmo_repulsion_energy": 1.86, 
			 "cosmo_total_nonelectrostatic_energy": 13.15, 
			 "SMD_solvation_energy": 9.28 
		},
		"coords": [
			{
				"x": -2.5201930329,
				"y": -1.9936507828,
				"z": 1.0575479974,
				"element": "C" 
			},
			{
				"x": -1.0627596305,
				"y": -2.0217359801,
				"z": 0.9589100927,
				"element": "N" 
			},
			{
				"x": -0.2933417099,
				"y": -1.9140958912,
				"z": 2.1395775305,
				"element": "C" 
			},
			{
				"x": 1.05659364,
				"y": -2.3129917555,
				"z": 2.1360366315,
				"element": "C" 
			},
			{
				"x": 1.8114241937,
				"y": -2.256362625,
				"z": 3.3035192519,
				"element": "C" 
			},
			{
				"x": 1.2392111649,
				"y": -1.8245436629,
				"z": 4.5026760798,
				"element": "C" 
			},
			{
				"x": -0.1014124284,
				"y": -1.4430376012,
				"z": 4.512984752,
				"element": "C" 
			},
			{
				"x": -0.8651026572,
				"y": -1.4789197388,
				"z": 3.3459253835,
				"element": "C" 
			},
			{
				"x": -0.4905372052,
				"y": -1.823523761,
				"z": -0.3069361629,
				"element": "C" 
			},
			{
				"x": 0.3939106627,
				"y": -0.7607238694,
				"z": -0.6199205447,
				"element": "C" 
			},
			{
				"x": 1.0199523351,
				"y": -0.6614912691,
				"z": -1.8538322516,
				"element": "C" 
			},
			{
				"x": 0.7297669935,
				"y": -1.5886470306,
				"z": -2.8603634231,
				"element": "C" 
			},
			{
				"x": 1.3736781883,
				"y": -1.4733805948,
				"z": -4.1865308755,
				"element": "C" 
			},
			{
				"x": 2.171156054,
				"y": -0.6075062417,
				"z": -4.4914681474,
				"element": "O" 
			},
			{
				"x": -0.1851339042,
				"y": -2.6179864094,
				"z": -2.5939104642,
				"element": "C" 
			},
			{
				"x": -0.7682539325,
				"y": -2.7398401525,
				"z": -1.3405411013,
				"element": "C" 
			},
			{
				"x": 0.6191392131,
				"y": 0.3545294023,
				"z": 0.3160941777,
				"element": "N" 
			},
			{
				"x": -0.3431664166,
				"y": 0.7426217163,
				"z": 0.9758285943,
				"element": "O" 
			},
			{
				"x": 1.7404460278,
				"y": 0.8568851124,
				"z": 0.3347999869,
				"element": "O" 
			},
			{
				"x": -2.8577258169,
				"y": -2.6806818384,
				"z": 1.8384401017,
				"element": "H" 
			},
			{
				"x": -2.8874108808,
				"y": -0.9835715758,
				"z": 1.2844903702,
				"element": "H" 
			},
			{
				"x": -2.9551079447,
				"y": -2.3046090262,
				"z": 0.1071679219,
				"element": "H" 
			},
			{
				"x": 1.5076640999,
				"y": -2.6826180394,
				"z": 1.2209684489,
				"element": "H" 
			},
			{
				"x": 2.8516212699,
				"y": -2.5678792913,
				"z": 3.2764346704,
				"element": "H" 
			},
			{
				"x": 1.829788312,
				"y": -1.7881298346,
				"z": 5.4125860495,
				"element": "H" 
			},
			{
				"x": -0.5628461158,
				"y": -1.0990882854,
				"z": 5.4342716123,
				"element": "H" 
			},
			{
				"x": -1.8959578895,
				"y": -1.1476938291,
				"z": 3.3766927766,
				"element": "H" 
			},
			{
				"x": 1.7080736725,
				"y": 0.1523844223,
				"z": -2.0520851588,
				"element": "H" 
			},
			{
				"x": 1.0708659692,
				"y": -2.2572545218,
				"z": -4.9158333522,
				"element": "H" 
			},
			{
				"x": -0.4123755781,
				"y": -3.3474205306,
				"z": -3.3677333314,
				"element": "H" 
			},
			{
				"x": -1.4215666534,
				"y": -3.5779365145,
				"z": -1.1209976167,
				"element": "H" 
			}
		],
		 "valence_orbital": [ 
			{
				"type": "occ",
				"energy": -0.28014,
				"method": "rhf"
			},
			{
				"type": "occ",
				"energy": -0.27563,
				"method": "rhf"
			},
			{
				"type": "occ",
				"energy": -0.26526,
				"method": "rhf"
			},
			{
				"type": "occ",
				"energy": -0.25351,
				"method": "rhf"
			},
			{
				"type": "occ",
				"energy": -0.20914,
				"method": "rhf"
			},
			{
				"type": "unocc",
				"energy": -0.08883,
				"method": "rhf"
			},
			{
				"type": "unocc",
				"energy": -0.07516,
				"method": "rhf"
			},
			{
				"type": "unocc",
				"energy": -0.02312,
				"method": "rhf"
			},
			{
				"type": "unocc",
				"energy": -0.00375,
				"method": "rhf"
			},
			{
				"type": "unocc",
				"energy": 0.0016,
				"method": "rhf"
			}
		],
		"cosmo_sigma_profile": { 
			"-0.025": 0.0,
			"-0.024": 0.0,
			"-0.023": 0.0,
			"-0.022": 0.0,
			"-0.021": 0.0,
			"-0.02": 0.0,
			"-0.019": 0.0,
			"-0.018": 0.0,
			"-0.017": 0.0,
			"-0.016": 0.0,
			"-0.015": 0.0,
			"-0.014": 0.0,
			"-0.013": 0.0,
			"-0.012": 0.0,
			"-0.011": 0.0,
			"-0.01": 0.00677473782644,
			"-0.009": 1.44566529612,
			"-0.008": 6.3426894633,
			"-0.007": 9.49754874584,
			"-0.006": 17.5102019182,
			"-0.005": 23.6198862357,
			"-0.004": 24.5582811424,
			"-0.003": 25.1782145875,
			"-0.002": 21.5220069233,
			"-0.001": 20.1763109769,
			"0.0": 20.0463912295,
			"0.001": 17.0613070851,
			"0.002": 12.3463526135,
			"0.003": 12.116273791,
			"0.004": 12.5819340185,
			"0.005": 12.4245187081,
			"0.006": 12.8209578719,
			"0.007": 11.1673785124,
			"0.008": 7.894977922,
			"0.009": 6.33849840095,
			"0.01": 4.60050127879,
			"0.011": 4.35900267213,
			"0.012": 2.02200290521,
			"0.013": 0.380259953906,
			"0.014": 0.0,
			"0.015": 0.0,
			"0.016": 0.0,
			"0.017": 0.0,
			"0.018": 0.0,
			"0.019": 0.0,
			"0.02": 0.0,
			"0.021": 0.0,
			"0.022": 0.0,
			"0.023": 0.0,
			"0.024": 0.0,
			"0.025": 0.0
		}
	}
}
