{
	 "smiles": "OC1=CC=NC2=CC=CC=C12", 
	 "Tm": 475.15, 
	 "num_atms": 18, 
	 "gaussian": { 
		 "optdone": 1, 
		 "sigma_profile": "yes", 
		 "theory": "DFT", 
		 "functional": "B3LYP", 
		 "basiset": "6-31G**", 
		 "properties": { 
			 "R2extent": 1523.1326, 
			 "electric_dipole_moment_norm": 2.68112884062, 
			 "electric_quadrupole_moment_norm": 6.07063776468, 
			 "total_energy": -477.153280227, 
			 "HOMO_LUMO_gap": 0.17723, 
			 "cosmo_polarized_energy": -11.11, 
			 "cosmo_cavitation_energy": 21.72, 
			 "cosmo_dispersion_energy": -16.71, 
			 "cosmo_repulsion_energy": 1.31, 
			 "cosmo_total_nonelectrostatic_energy": 6.31, 
			 "SMD_solvation_energy": 2.43 
		},
		"coords": [
			{
				"x": -1.764437805,
				"y": 0.3668980922,
				"z": 1.9934344751,
				"element": "O" 
			},
			{
				"x": -0.695477789,
				"y": -0.1346028489,
				"z": 1.3249979822,
				"element": "C" 
			},
			{
				"x": 0.1637419018,
				"y": -0.9724677877,
				"z": 2.0065989246,
				"element": "C" 
			},
			{
				"x": 1.2789782881,
				"y": -1.500964458,
				"z": 1.3243789249,
				"element": "C" 
			},
			{
				"x": 1.578514954,
				"y": -1.2579558269,
				"z": 0.061881458,
				"element": "N" 
			},
			{
				"x": 0.738331404,
				"y": -0.4313661035,
				"z": -0.625356181,
				"element": "C" 
			},
			{
				"x": 1.0394309053,
				"y": -0.1544482231,
				"z": -1.9860761142,
				"element": "C" 
			},
			{
				"x": 0.2336966399,
				"y": 0.6709683572,
				"z": -2.7368240622,
				"element": "C" 
			},
			{
				"x": -0.9167517717,
				"y": 1.2623746245,
				"z": -2.1624331895,
				"element": "C" 
			},
			{
				"x": -1.2386992373,
				"y": 1.0156950752,
				"z": -0.8459905187,
				"element": "C" 
			},
			{
				"x": -0.427624992,
				"y": 0.1689090237,
				"z": -0.0457375222,
				"element": "C" 
			},
			{
				"x": -2.2844769048,
				"y": 0.9345305079,
				"z": 1.4110187141,
				"element": "H" 
			},
			{
				"x": -0.0254160466,
				"y": -1.2125826999,
				"z": 3.046728423,
				"element": "H" 
			},
			{
				"x": 1.9576549332,
				"y": -2.1624668382,
				"z": 1.8620315581,
				"element": "H" 
			},
			{
				"x": 1.9270109127,
				"y": -0.6208944188,
				"z": -2.4006647794,
				"element": "H" 
			},
			{
				"x": 0.47754402,
				"y": 0.8727327782,
				"z": -3.7757520504,
				"element": "H" 
			},
			{
				"x": -1.5467552526,
				"y": 1.9123012788,
				"z": -2.7621103454,
				"element": "H" 
			},
			{
				"x": -2.1301641599,
				"y": 1.4859394673,
				"z": -0.4343256972,
				"element": "H" 
			}
		],
		 "valence_orbital": [ 
			{
				"type": "occ",
				"energy": -0.34203,
				"method": "rhf"
			},
			{
				"type": "occ",
				"energy": -0.27961,
				"method": "rhf"
			},
			{
				"type": "occ",
				"energy": -0.2532,
				"method": "rhf"
			},
			{
				"type": "occ",
				"energy": -0.25223,
				"method": "rhf"
			},
			{
				"type": "occ",
				"energy": -0.22368,
				"method": "rhf"
			},
			{
				"type": "unocc",
				"energy": -0.04645,
				"method": "rhf"
			},
			{
				"type": "unocc",
				"energy": -0.01672,
				"method": "rhf"
			},
			{
				"type": "unocc",
				"energy": 0.02681,
				"method": "rhf"
			},
			{
				"type": "unocc",
				"energy": 0.04855,
				"method": "rhf"
			},
			{
				"type": "unocc",
				"energy": 0.09243,
				"method": "rhf"
			}
		],
		"cosmo_sigma_profile": { 
			"-0.025": 0.0,
			"-0.024": 0.0,
			"-0.023": 0.0,
			"-0.022": 0.0,
			"-0.021": 0.0,
			"-0.02": 0.0,
			"-0.019": 0.09446895098,
			"-0.018": 0.904484137772,
			"-0.017": 1.12792271224,
			"-0.016": 1.08109101496,
			"-0.015": 0.562752807407,
			"-0.014": 0.781363377932,
			"-0.013": 0.686414015836,
			"-0.012": 1.46917712749,
			"-0.011": 1.63130979248,
			"-0.01": 0.660791500794,
			"-0.009": 0.770904216405,
			"-0.008": 1.52497002453,
			"-0.007": 3.54658492903,
			"-0.006": 10.9661501622,
			"-0.005": 13.1020384361,
			"-0.004": 10.3473461464,
			"-0.003": 8.98827850161,
			"-0.002": 7.88534025443,
			"-0.001": 8.34920652189,
			"0.0": 9.65463503537,
			"0.001": 13.3214020269,
			"0.002": 17.7816199724,
			"0.003": 18.5061319864,
			"0.004": 14.8103906541,
			"0.005": 5.78819895916,
			"0.006": 3.08906653428,
			"0.007": 2.12508071264,
			"0.008": 3.49127608194,
			"0.009": 3.18858796101,
			"0.01": 2.53375243539,
			"0.011": 1.3177255179,
			"0.012": 1.15059219094,
			"0.013": 0.657726759072,
			"0.014": 0.712125825781,
			"0.015": 0.99201732711,
			"0.016": 0.884348661733,
			"0.017": 0.347595948209,
			"0.018": 0.0,
			"0.019": 0.0,
			"0.02": 0.0,
			"0.021": 0.0,
			"0.022": 0.0,
			"0.023": 0.0,
			"0.024": 0.0,
			"0.025": 0.0
		}
	}
}
