{
	 "smiles": "O=C1NNC(=O)C2=CC3=C(CCC3)C=C12", 
	 "Tm": 583.15, 
	 "num_atms": 25, 
	 "gaussian": { 
		 "optdone": 1, 
		 "sigma_profile": "yes", 
		 "theory": "DFT", 
		 "functional": "B3LYP", 
		 "basiset": "6-31G**", 
		 "properties": { 
			 "R2extent": 4045.6214, 
			 "electric_dipole_moment_norm": 0.670955773505, 
			 "electric_quadrupole_moment_norm": 20.7549334463, 
			 "total_energy": -685.155202168, 
			 "HOMO_LUMO_gap": 0.17381, 
			 "cosmo_polarized_energy": -19.37, 
			 "cosmo_cavitation_energy": 28.32, 
			 "cosmo_dispersion_energy": -21.55, 
			 "cosmo_repulsion_energy": 1.68, 
			 "cosmo_total_nonelectrostatic_energy": 8.45, 
			 "SMD_solvation_energy": 5.53 
		},
		"coords": [
			{
				"x": 0.3594200403,
				"y": 4.119123767,
				"z": -0.4002412277,
				"element": "O" 
			},
			{
				"x": 1.1915260391,
				"y": 3.305487285,
				"z": -0.008234905,
				"element": "C" 
			},
			{
				"x": 2.4822895299,
				"y": 3.6948999342,
				"z": 0.2496530211,
				"element": "N" 
			},
			{
				"x": 3.4905682181,
				"y": 2.8396248097,
				"z": 0.6960411171,
				"element": "N" 
			},
			{
				"x": 3.321965215,
				"y": 1.4983749118,
				"z": 0.9344914785,
				"element": "C" 
			},
			{
				"x": 4.2606000897,
				"y": 0.810082754,
				"z": 1.3260106457,
				"element": "O" 
			},
			{
				"x": 1.948371449,
				"y": 1.0003059816,
				"z": 0.6779625942,
				"element": "C" 
			},
			{
				"x": 1.6796689716,
				"y": -0.3592419992,
				"z": 0.889066845,
				"element": "C" 
			},
			{
				"x": 0.4010778903,
				"y": -0.8409531733,
				"z": 0.6441618398,
				"element": "C" 
			},
			{
				"x": -0.6172588045,
				"y": 0.0228473698,
				"z": 0.19375574,
				"element": "C" 
			},
			{
				"x": -1.9130700222,
				"y": -0.7396072267,
				"z": 0.0178383305,
				"element": "C" 
			},
			{
				"x": -1.4519899443,
				"y": -2.2189552894,
				"z": -0.0136590915,
				"element": "C" 
			},
			{
				"x": -0.1355943842,
				"y": -2.2473294106,
				"z": 0.803883652,
				"element": "C" 
			},
			{
				"x": -0.3602663328,
				"y": 1.3711387192,
				"z": -0.0133559167,
				"element": "C" 
			},
			{
				"x": 0.9296483114,
				"y": 1.8644373075,
				"z": 0.2272548906,
				"element": "C" 
			},
			{
				"x": 2.7311421776,
				"y": 4.6634238315,
				"z": 0.1123234452,
				"element": "H" 
			},
			{
				"x": 4.4009410078,
				"y": 3.2470224308,
				"z": 0.8511892831,
				"element": "H" 
			},
			{
				"x": 2.4886582997,
				"y": -0.9960278073,
				"z": 1.233000566,
				"element": "H" 
			},
			{
				"x": -2.5746702274,
				"y": -0.5525789369,
				"z": 0.8754918255,
				"element": "H" 
			},
			{
				"x": -2.4678534283,
				"y": -0.4435222082,
				"z": -0.8780553868,
				"element": "H" 
			},
			{
				"x": -1.2405202925,
				"y": -2.5092716021,
				"z": -1.0486910178,
				"element": "H" 
			},
			{
				"x": -2.2074259154,
				"y": -2.90799251,
				"z": 0.3729523381,
				"element": "H" 
			},
			{
				"x": 0.5650928496,
				"y": -3.0160839634,
				"z": 0.4631063697,
				"element": "H" 
			},
			{
				"x": -0.3366053946,
				"y": -2.4510065185,
				"z": 1.8651919702,
				"element": "H" 
			},
			{
				"x": -1.119015343,
				"y": 2.0642015434,
				"z": -0.3629384068,
				"element": "H" 
			}
		],
		 "valence_orbital": [ 
			{
				"type": "occ",
				"energy": -0.26267,
				"method": "rhf"
			},
			{
				"type": "occ",
				"energy": -0.26107,
				"method": "rhf"
			},
			{
				"type": "occ",
				"energy": -0.25939,
				"method": "rhf"
			},
			{
				"type": "occ",
				"energy": -0.2514,
				"method": "rhf"
			},
			{
				"type": "occ",
				"energy": -0.22277,
				"method": "rhf"
			},
			{
				"type": "unocc",
				"energy": -0.04896,
				"method": "rhf"
			},
			{
				"type": "unocc",
				"energy": -0.03578,
				"method": "rhf"
			},
			{
				"type": "unocc",
				"energy": 0.04951,
				"method": "rhf"
			},
			{
				"type": "unocc",
				"energy": 0.05377,
				"method": "rhf"
			},
			{
				"type": "unocc",
				"energy": 0.06891,
				"method": "rhf"
			}
		],
		"cosmo_sigma_profile": { 
			"-0.025": 0.0,
			"-0.024": 0.0,
			"-0.023": 0.0,
			"-0.022": 0.0,
			"-0.021": 0.00822009591869,
			"-0.02": 0.505660903944,
			"-0.019": 0.850834744894,
			"-0.018": 1.56280888104,
			"-0.017": 2.70353506972,
			"-0.016": 2.7234578959,
			"-0.015": 1.89532584538,
			"-0.014": 0.802325711544,
			"-0.013": 1.08267771619,
			"-0.012": 1.64968461871,
			"-0.011": 1.20899973854,
			"-0.01": 0.907261147595,
			"-0.009": 1.01608859412,
			"-0.008": 1.02998223972,
			"-0.007": 0.972806787959,
			"-0.006": 2.48142454393,
			"-0.005": 5.86607683574,
			"-0.004": 17.0687267607,
			"-0.003": 23.9135781916,
			"-0.002": 26.7113496657,
			"-0.001": 23.1713983439,
			"0.0": 22.5523250957,
			"0.001": 15.2929331041,
			"0.002": 14.5387570743,
			"0.003": 10.7966259018,
			"0.004": 2.39347784093,
			"0.005": 3.63656398663,
			"0.006": 2.29453258283,
			"0.007": 3.03976030756,
			"0.008": 2.73439674731,
			"0.009": 2.16044917338,
			"0.01": 2.5252089467,
			"0.011": 3.21096545712,
			"0.012": 3.77431720826,
			"0.013": 9.9667822468,
			"0.014": 7.62940325198,
			"0.015": 0.121806198984,
			"0.016": 0.0,
			"0.017": 0.0,
			"0.018": 0.0,
			"0.019": 0.0,
			"0.02": 0.0,
			"0.021": 0.0,
			"0.022": 0.0,
			"0.023": 0.0,
			"0.024": 0.0,
			"0.025": 0.0
		}
	}
}
