{
	 "smiles": "ClC1(C(=O)C2=CC=CC=C2C1=O)C1=CC=CC=C1", 
	 "Tm": 389.15, 
	 "num_atms": 27, 
	 "gaussian": { 
		 "optdone": 1, 
		 "sigma_profile": "yes", 
		 "theory": "DFT", 
		 "functional": "B3LYP", 
		 "basiset": "6-31G**", 
		 "properties": { 
			 "R2extent": 6065.5255, 
			 "electric_dipole_moment_norm": 4.72793126113, 
			 "electric_quadrupole_moment_norm": 25.9767874369, 
			 "total_energy": -1187.65324349, 
			 "HOMO_LUMO_gap": 0.16026, 
			 "cosmo_polarized_energy": -11.95, 
			 "cosmo_cavitation_energy": 33.32, 
			 "cosmo_dispersion_energy": -23.77, 
			 "cosmo_repulsion_energy": 1.81, 
			 "cosmo_total_nonelectrostatic_energy": 11.35, 
			 "SMD_solvation_energy": 6.13 
		},
		"coords": [
			{
				"x": -1.7588358183,
				"y": -3.0646949977,
				"z": 1.5537465036,
				"element": "Cl" 
			},
			{
				"x": -0.6713874188,
				"y": -2.0750297074,
				"z": 0.4416928879,
				"element": "C" 
			},
			{
				"x": -1.6043316607,
				"y": -1.2011096631,
				"z": -0.4517829668,
				"element": "C" 
			},
			{
				"x": -2.3814128791,
				"y": -0.3512347288,
				"z": -0.0703623343,
				"element": "O" 
			},
			{
				"x": -1.3829976873,
				"y": -1.6019418534,
				"z": -1.8617262312,
				"element": "C" 
			},
			{
				"x": -1.9563895621,
				"y": -1.0587555959,
				"z": -3.0124165475,
				"element": "C" 
			},
			{
				"x": -1.6003277048,
				"y": -1.6160709533,
				"z": -4.2397489412,
				"element": "C" 
			},
			{
				"x": -0.6963652935,
				"y": -2.692320054,
				"z": -4.3130332072,
				"element": "C" 
			},
			{
				"x": -0.1290719172,
				"y": -3.2342697958,
				"z": -3.160560283,
				"element": "C" 
			},
			{
				"x": -0.4853536708,
				"y": -2.6705889259,
				"z": -1.93448817,
				"element": "C" 
			},
			{
				"x": -0.0355994159,
				"y": -3.0678659334,
				"z": -0.5789471142,
				"element": "C" 
			},
			{
				"x": 0.6895144837,
				"y": -4.0051575066,
				"z": -0.3192971202,
				"element": "O" 
			},
			{
				"x": 0.3384654365,
				"y": -1.2805273898,
				"z": 1.2534915081,
				"element": "C" 
			},
			{
				"x": 0.0208086674,
				"y": 0.0043490558,
				"z": 1.7239203102,
				"element": "C" 
			},
			{
				"x": 0.9402295058,
				"y": 0.7215993835,
				"z": 2.4879334967,
				"element": "C" 
			},
			{
				"x": 2.1839402919,
				"y": 0.16969414,
				"z": 2.7981539502,
				"element": "C" 
			},
			{
				"x": 2.499988874,
				"y": -1.1120932221,
				"z": 2.3460926296,
				"element": "C" 
			},
			{
				"x": 1.5860112502,
				"y": -1.8360886247,
				"z": 1.5816000094,
				"element": "C" 
			},
			{
				"x": -2.6553873352,
				"y": -0.2320585553,
				"z": -2.9385929146,
				"element": "H" 
			},
			{
				"x": -2.0267200292,
				"y": -1.2188116352,
				"z": -5.1561228689,
				"element": "H" 
			},
			{
				"x": -0.4420208939,
				"y": -3.1055274263,
				"z": -5.2845959816,
				"element": "H" 
			},
			{
				"x": 0.5656969452,
				"y": -4.0668783753,
				"z": -3.199751628,
				"element": "H" 
			},
			{
				"x": -0.9479881259,
				"y": 0.433947794,
				"z": 1.5004704188,
				"element": "H" 
			},
			{
				"x": 0.6798370201,
				"y": 1.714503384,
				"z": 2.8429869452,
				"element": "H" 
			},
			{
				"x": 2.898698664,
				"y": 0.7317064558,
				"z": 3.3925377662,
				"element": "H" 
			},
			{
				"x": 3.4610621945,
				"y": -1.5554321502,
				"z": 2.5900467615,
				"element": "H" 
			},
			{
				"x": 1.8334360794,
				"y": -2.8365431187,
				"z": 1.2486531211,
				"element": "H" 
			}
		],
		 "valence_orbital": [ 
			{
				"type": "occ",
				"energy": -0.28704,
				"method": "rhf"
			},
			{
				"type": "occ",
				"energy": -0.27835,
				"method": "rhf"
			},
			{
				"type": "occ",
				"energy": -0.25641,
				"method": "rhf"
			},
			{
				"type": "occ",
				"energy": -0.25365,
				"method": "rhf"
			},
			{
				"type": "occ",
				"energy": -0.2519,
				"method": "rhf"
			},
			{
				"type": "unocc",
				"energy": -0.09164,
				"method": "rhf"
			},
			{
				"type": "unocc",
				"energy": -0.08429,
				"method": "rhf"
			},
			{
				"type": "unocc",
				"energy": -0.0291,
				"method": "rhf"
			},
			{
				"type": "unocc",
				"energy": -0.00564,
				"method": "rhf"
			},
			{
				"type": "unocc",
				"energy": 0.01191,
				"method": "rhf"
			}
		],
		"cosmo_sigma_profile": { 
			"-0.025": 0.0,
			"-0.024": 0.0,
			"-0.023": 0.0,
			"-0.022": 0.0,
			"-0.021": 0.0,
			"-0.02": 0.0,
			"-0.019": 0.0,
			"-0.018": 0.0,
			"-0.017": 0.0,
			"-0.016": 0.0,
			"-0.015": 0.0,
			"-0.014": 0.0,
			"-0.013": 0.0,
			"-0.012": 0.0,
			"-0.011": 0.0,
			"-0.01": 0.0,
			"-0.009": 0.089081113672,
			"-0.008": 5.94291136029,
			"-0.007": 11.7194911427,
			"-0.006": 16.573092667,
			"-0.005": 17.5234958668,
			"-0.004": 18.1106885215,
			"-0.003": 15.7775984406,
			"-0.002": 17.6620205096,
			"-0.001": 22.6627764602,
			"0.0": 23.9898611016,
			"0.001": 23.6447253804,
			"0.002": 15.7805316923,
			"0.003": 18.1816751302,
			"0.004": 21.3943523068,
			"0.005": 14.5011738675,
			"0.006": 5.7765549261,
			"0.007": 4.30707479103,
			"0.008": 4.17828298985,
			"0.009": 5.21712484431,
			"0.01": 6.98169903831,
			"0.011": 1.21149431351,
			"0.012": 0.0,
			"0.013": 0.0,
			"0.014": 0.0,
			"0.015": 0.0,
			"0.016": 0.0,
			"0.017": 0.0,
			"0.018": 0.0,
			"0.019": 0.0,
			"0.02": 0.0,
			"0.021": 0.0,
			"0.022": 0.0,
			"0.023": 0.0,
			"0.024": 0.0,
			"0.025": 0.0
		}
	}
}
