{
	 "smiles": "CC1=CC=C(C=C1)S(=O)(=O)CCC(O)=O", 
	 "Tm": 382.15, 
	 "num_atms": 27, 
	 "gaussian": { 
		 "optdone": 1, 
		 "sigma_profile": "yes", 
		 "theory": "DFT", 
		 "functional": "B3LYP", 
		 "basiset": "6-31G**", 
		 "properties": { 
			 "R2extent": 4607.331, 
			 "electric_dipole_moment_norm": 8.25901440972, 
			 "electric_quadrupole_moment_norm": 15.1069179633, 
			 "total_energy": -1087.33734806, 
			 "HOMO_LUMO_gap": 0.2029, 
			 "cosmo_polarized_energy": -20.84, 
			 "cosmo_cavitation_energy": 31.86, 
			 "cosmo_dispersion_energy": -23.26, 
			 "cosmo_repulsion_energy": 1.78, 
			 "cosmo_total_nonelectrostatic_energy": 10.37, 
			 "SMD_solvation_energy": 5.91 
		},
		"coords": [
			{
				"x": 2.0304791408,
				"y": 2.9405429109,
				"z": 2.6672091559,
				"element": "C" 
			},
			{
				"x": 1.6010778201,
				"y": 1.6495654607,
				"z": 2.0144005823,
				"element": "C" 
			},
			{
				"x": 0.2541890057,
				"y": 1.2610704145,
				"z": 2.0065410095,
				"element": "C" 
			},
			{
				"x": -0.1462100175,
				"y": 0.0563258774,
				"z": 1.4300630719,
				"element": "C" 
			},
			{
				"x": 0.8185805735,
				"y": -0.7678253582,
				"z": 0.8479706383,
				"element": "C" 
			},
			{
				"x": 2.170601719,
				"y": -0.4129767524,
				"z": 0.8508589621,
				"element": "C" 
			},
			{
				"x": 2.549464413,
				"y": 0.7946649661,
				"z": 1.4298160495,
				"element": "C" 
			},
			{
				"x": 0.329070532,
				"y": -2.3172744053,
				"z": 0.0944905408,
				"element": "S" 
			},
			{
				"x": -1.0378176383,
				"y": -2.6296777336,
				"z": 0.5920399588,
				"element": "O" 
			},
			{
				"x": 1.4203930284,
				"y": -3.287360394,
				"z": 0.251315306,
				"element": "O" 
			},
			{
				"x": 0.1701319478,
				"y": -1.9623706953,
				"z": -1.6875602013,
				"element": "C" 
			},
			{
				"x": -1.0193954288,
				"y": -1.0694047539,
				"z": -2.0772840401,
				"element": "C" 
			},
			{
				"x": -2.3335498105,
				"y": -1.7998501671,
				"z": -2.3973526095,
				"element": "C" 
			},
			{
				"x": -2.7790575104,
				"y": -2.6902878174,
				"z": -1.5006518773,
				"element": "O" 
			},
			{
				"x": -2.9412833325,
				"y": -1.5701469898,
				"z": -3.4169591138,
				"element": "O" 
			},
			{
				"x": 1.2089241271,
				"y": 3.6604485243,
				"z": 2.7112072286,
				"element": "H" 
			},
			{
				"x": 2.3666851051,
				"y": 2.7620614384,
				"z": 3.6959333231,
				"element": "H" 
			},
			{
				"x": 2.8634806962,
				"y": 3.4028510584,
				"z": 2.1295389086,
				"element": "H" 
			},
			{
				"x": -0.4915693537,
				"y": 1.9063243115,
				"z": 2.4624830042,
				"element": "H" 
			},
			{
				"x": -1.1848155293,
				"y": -0.2554866951,
				"z": 1.4478404193,
				"element": "H" 
			},
			{
				"x": 2.9106991903,
				"y": -1.0826884209,
				"z": 0.4250819573,
				"element": "H" 
			},
			{
				"x": 3.5989413036,
				"y": 1.0762629992,
				"z": 1.4365018404,
				"element": "H" 
			},
			{
				"x": 0.1219139077,
				"y": -2.9556561456,
				"z": -2.1455023888,
				"element": "H" 
			},
			{
				"x": 1.1233252927,
				"y": -1.5111473052,
				"z": -1.9744658578,
				"element": "H" 
			},
			{
				"x": -0.7629606358,
				"y": -0.5181705119,
				"z": -2.9835733339,
				"element": "H" 
			},
			{
				"x": -1.2069006697,
				"y": -0.3198320853,
				"z": -1.2981954333,
				"element": "H" 
			},
			{
				"x": -2.2147978766,
				"y": -2.7265617304,
				"z": -0.6948471009,
				"element": "H" 
			}
		],
		 "valence_orbital": [ 
			{
				"type": "occ",
				"energy": -0.3072,
				"method": "rhf"
			},
			{
				"type": "occ",
				"energy": -0.3005,
				"method": "rhf"
			},
			{
				"type": "occ",
				"energy": -0.28721,
				"method": "rhf"
			},
			{
				"type": "occ",
				"energy": -0.28204,
				"method": "rhf"
			},
			{
				"type": "occ",
				"energy": -0.25985,
				"method": "rhf"
			},
			{
				"type": "unocc",
				"energy": -0.05695,
				"method": "rhf"
			},
			{
				"type": "unocc",
				"energy": -0.03919,
				"method": "rhf"
			},
			{
				"type": "unocc",
				"energy": 0.01508,
				"method": "rhf"
			},
			{
				"type": "unocc",
				"energy": 0.04361,
				"method": "rhf"
			},
			{
				"type": "unocc",
				"energy": 0.05117,
				"method": "rhf"
			}
		],
		"cosmo_sigma_profile": { 
			"-0.025": 0.0,
			"-0.024": 0.0,
			"-0.023": 0.0,
			"-0.022": 0.0,
			"-0.021": 0.0,
			"-0.02": 0.0,
			"-0.019": 0.0,
			"-0.018": 0.0,
			"-0.017": 0.0,
			"-0.016": 0.0,
			"-0.015": 0.0,
			"-0.014": 0.0,
			"-0.013": 0.0,
			"-0.012": 0.0,
			"-0.011": 0.258098461501,
			"-0.01": 2.45534808028,
			"-0.009": 6.71184027686,
			"-0.008": 9.18039295493,
			"-0.007": 14.6574246509,
			"-0.006": 17.3234225758,
			"-0.005": 20.879477235,
			"-0.004": 18.9022120583,
			"-0.003": 15.5644248778,
			"-0.002": 15.7160151372,
			"-0.001": 17.2800045226,
			"0.0": 12.9969018589,
			"0.001": 12.2130040505,
			"0.002": 14.3803693636,
			"0.003": 12.99162339,
			"0.004": 3.80209326529,
			"0.005": 5.32081915433,
			"0.006": 4.03340649426,
			"0.007": 4.44834591861,
			"0.008": 5.54241417445,
			"0.009": 5.82625631527,
			"0.01": 9.77947020181,
			"0.011": 11.6759625326,
			"0.012": 7.38178032257,
			"0.013": 3.23337500925,
			"0.014": 0.636551468371,
			"0.015": 0.0,
			"0.016": 0.0,
			"0.017": 0.0,
			"0.018": 0.0,
			"0.019": 0.0,
			"0.02": 0.0,
			"0.021": 0.0,
			"0.022": 0.0,
			"0.023": 0.0,
			"0.024": 0.0,
			"0.0": 0.0
		}
	}
}
