{
	 "smiles": "CC1=C(Br)C=CC(O)=N1", 
	 "Tm": 473.15, 
	 "num_atms": 15, 
	 "gaussian": { 
		 "optdone": 1, 
		 "sigma_profile": "yes", 
		 "theory": "DFT", 
		 "functional": "B3LYP", 
		 "basiset": "6-31G**", 
		 "properties": { 
			 "R2extent": 3972.2223, 
			 "electric_dipole_moment_norm": 0.487586228271, 
			 "electric_quadrupole_moment_norm": 4.43987373019, 
			 "total_energy": -2933.64413917, 
			 "HOMO_LUMO_gap": 0.20021, 
			 "cosmo_polarized_energy": -6.25, 
			 "cosmo_cavitation_energy": 21.32, 
			 "cosmo_dispersion_energy": -16.41, 
			 "cosmo_repulsion_energy": 1.35, 
			 "cosmo_total_nonelectrostatic_energy": 6.25, 
			 "SMD_solvation_energy": 1.93 
		},
		"coords": [
			{
				"x": -1.0851345988,
				"y": 0.8857350467,
				"z": -1.8514204136,
				"element": "C" 
			},
			{
				"x": -0.2825733537,
				"y": -0.3864667075,
				"z": -1.8472488611,
				"element": "C" 
			},
			{
				"x": 0.9099769209,
				"y": -0.5417235775,
				"z": -2.5647829233,
				"element": "C" 
			},
			{
				"x": 1.6105779568,
				"y": 0.8896484491,
				"z": -3.6212213704,
				"element": "Br" 
			},
			{
				"x": 1.6051876411,
				"y": -1.751980067,
				"z": -2.5160285001,
				"element": "C" 
			},
			{
				"x": 1.1011020375,
				"y": -2.7929480553,
				"z": -1.7511403912,
				"element": "C" 
			},
			{
				"x": -0.0966439523,
				"y": -2.5558736841,
				"z": -1.0643120423,
				"element": "C" 
			},
			{
				"x": -0.621784362,
				"y": -3.544682878,
				"z": -0.3073533168,
				"element": "O" 
			},
			{
				"x": -0.7610003852,
				"y": -1.4047240314,
				"z": -1.1086787366,
				"element": "N" 
			},
			{
				"x": -0.4921791908,
				"y": 1.7275415801,
				"z": -1.4782831189,
				"element": "H" 
			},
			{
				"x": -1.4030017226,
				"y": 1.1484153296,
				"z": -2.866029226,
				"element": "H" 
			},
			{
				"x": -1.9651325507,
				"y": 0.7573331415,
				"z": -1.2202837155,
				"element": "H" 
			},
			{
				"x": 2.5284829964,
				"y": -1.8701100415,
				"z": -3.0724320821,
				"element": "H" 
			},
			{
				"x": 1.5994959694,
				"y": -3.7521715796,
				"z": -1.6779688872,
				"element": "H" 
			},
			{
				"x": -1.4365734061,
				"y": -3.182992925,
				"z": 0.076283585,
				"element": "H" 
			}
		],
		 "valence_orbital": [ 
			{
				"type": "occ",
				"energy": -0.31113,
				"method": "rhf"
			},
			{
				"type": "occ",
				"energy": -0.29751,
				"method": "rhf"
			},
			{
				"type": "occ",
				"energy": -0.28533,
				"method": "rhf"
			},
			{
				"type": "occ",
				"energy": -0.27346,
				"method": "rhf"
			},
			{
				"type": "occ",
				"energy": -0.23013,
				"method": "rhf"
			},
			{
				"type": "unocc",
				"energy": -0.02992,
				"method": "rhf"
			},
			{
				"type": "unocc",
				"energy": -0.00799,
				"method": "rhf"
			},
			{
				"type": "unocc",
				"energy": 0.00642,
				"method": "rhf"
			},
			{
				"type": "unocc",
				"energy": 0.0871,
				"method": "rhf"
			},
			{
				"type": "unocc",
				"energy": 0.12107,
				"method": "rhf"
			}
		],
		"cosmo_sigma_profile": { 
			"-0.025": 0.0,
			"-0.024": 0.0,
			"-0.023": 0.0,
			"-0.022": 0.0,
			"-0.021": 0.0,
			"-0.02": 0.0,
			"-0.019": 0.0,
			"-0.018": 0.0,
			"-0.017": 0.49662409846,
			"-0.016": 0.790436727529,
			"-0.015": 0.620377907346,
			"-0.014": 0.582672676298,
			"-0.013": 0.802513722116,
			"-0.012": 1.21197418857,
			"-0.011": 0.480050569073,
			"-0.01": 0.593365554463,
			"-0.009": 0.516535543115,
			"-0.008": 2.03732289186,
			"-0.007": 4.04835778975,
			"-0.006": 5.38940419319,
			"-0.005": 6.89472898428,
			"-0.004": 9.78514801246,
			"-0.003": 10.8564411738,
			"-0.002": 10.4297058542,
			"-0.001": 14.8623017947,
			"0.0": 19.5247775655,
			"0.001": 20.3718925582,
			"0.002": 17.7310979429,
			"0.003": 11.9347845726,
			"0.004": 12.2278871313,
			"0.005": 7.22030689978,
			"0.006": 1.36178861445,
			"0.007": 2.2633781331,
			"0.008": 3.03238562485,
			"0.009": 2.68418361996,
			"0.01": 2.40863712067,
			"0.011": 1.90217454262,
			"0.012": 0.211038760917,
			"0.013": 0.0,
			"0.014": 0.0,
			"0.015": 0.0,
			"0.016": 0.0,
			"0.017": 0.0,
			"0.018": 0.0,
			"0.019": 0.0,
			"0.02": 0.0,
			"0.021": 0.0,
			"0.022": 0.0,
			"0.023": 0.0,
			"0.024": 0.0,
			"0.025": 0.0
		}
	}
}
