{
	 "smiles": "CC1=CC=C(CC2=C(N)NN=C2N)C=C1", 
	 "Tm": 447.15, 
	 "num_atms": 29, 
	 "gaussian": { 
		 "optdone": 1, 
		 "sigma_profile": "yes", 
		 "theory": "DFT", 
		 "functional": "B3LYP", 
		 "basiset": "6-31G**", 
		 "properties": { 
			 "R2extent": 4593.4307, 
			 "electric_dipole_moment_norm": 3.18920701115, 
			 "electric_quadrupole_moment_norm": 19.1187592432, 
			 "total_energy": -646.605474713, 
			 "HOMO_LUMO_gap": 0.18875, 
			 "cosmo_polarized_energy": -17.39, 
			 "cosmo_cavitation_energy": 32.43, 
			 "cosmo_dispersion_energy": -23.03, 
			 "cosmo_repulsion_energy": 1.84, 
			 "cosmo_total_nonelectrostatic_energy": 11.25, 
			 "SMD_solvation_energy": 4.06 
		},
		"coords": [
			{
				"x": -0.4050367941,
				"y": -3.6603318193,
				"z": 1.2437209545,
				"element": "C" 
			},
			{
				"x": -0.116054458,
				"y": -2.3745444422,
				"z": 0.5047856694,
				"element": "C" 
			},
			{
				"x": -1.1282219028,
				"y": -1.6783919768,
				"z": -0.1653339329,
				"element": "C" 
			},
			{
				"x": -0.8627024002,
				"y": -0.4756385186,
				"z": -0.8233977105,
				"element": "C" 
			},
			{
				"x": 0.4255809895,
				"y": 0.0712266866,
				"z": -0.8383846409,
				"element": "C" 
			},
			{
				"x": 0.7170116586,
				"y": 1.36245362,
				"z": -1.5961472496,
				"element": "C" 
			},
			{
				"x": 1.5818207686,
				"y": 2.3478039614,
				"z": -0.8641005792,
				"element": "C" 
			},
			{
				"x": 2.7914544431,
				"y": 2.9029219204,
				"z": -1.2575080994,
				"element": "C" 
			},
			{
				"x": 3.5462846688,
				"y": 2.7931478587,
				"z": -2.4360386195,
				"element": "N" 
			},
			{
				"x": 3.1979759456,
				"y": 3.7229273941,
				"z": -0.253764458,
				"element": "N" 
			},
			{
				"x": 2.3095459559,
				"y": 3.7631910006,
				"z": 0.7920859714,
				"element": "N" 
			},
			{
				"x": 1.3398016366,
				"y": 2.9391284844,
				"z": 0.4141105249,
				"element": "C" 
			},
			{
				"x": 0.2037652792,
				"y": 2.743091681,
				"z": 1.2019954237,
				"element": "N" 
			},
			{
				"x": 1.4397143897,
				"y": -0.6227527349,
				"z": -0.1628926191,
				"element": "C" 
			},
			{
				"x": 1.173724398,
				"y": -1.823478435,
				"z": 0.491878962,
				"element": "C" 
			},
			{
				"x": 0.4218948227,
				"y": -4.3714880648,
				"z": 1.148817498,
				"element": "H" 
			},
			{
				"x": -0.5532464167,
				"y": -3.4797849872,
				"z": 2.315972858,
				"element": "H" 
			},
			{
				"x": -1.3111188106,
				"y": -4.1436654453,
				"z": 0.866665843,
				"element": "H" 
			},
			{
				"x": -2.1392202823,
				"y": -2.0791701223,
				"z": -0.1718222015,
				"element": "H" 
			},
			{
				"x": -1.6690572363,
				"y": 0.0435770216,
				"z": -1.3364682866,
				"element": "H" 
			},
			{
				"x": 1.1989795819,
				"y": 1.1038060902,
				"z": -2.5511175726,
				"element": "H" 
			},
			{
				"x": -0.2408929976,
				"y": 1.8249847438,
				"z": -1.8687495662,
				"element": "H" 
			},
			{
				"x": 4.4593729256,
				"y": 2.3748078789,
				"z": -2.2841396007,
				"element": "H" 
			},
			{
				"x": 3.0547340692,
				"y": 2.2635410227,
				"z": -3.145940641,
				"element": "H" 
			},
			{
				"x": 3.928427687,
				"y": 4.4138258046,
				"z": -0.306907323,
				"element": "H" 
			},
			{
				"x": 0.334783041,
				"y": 3.1162764532,
				"z": 2.1351888022,
				"element": "H" 
			},
			{
				"x": -0.0892776109,
				"y": 1.773227111,
				"z": 1.237882739,
				"element": "H" 
			},
			{
				"x": 2.4449434292,
				"y": -0.2099742133,
				"z": -0.1477706856,
				"element": "H" 
			},
			{
				"x": 1.9808132192,
				"y": -2.3428179735,
				"z": 1.0039785403,
				"element": "H" 
			}
		],
		 "valence_orbital": [ 
			{
				"type": "occ",
				"energy": -0.26675,
				"method": "rhf"
			},
			{
				"type": "occ",
				"energy": -0.247,
				"method": "rhf"
			},
			{
				"type": "occ",
				"energy": -0.23341,
				"method": "rhf"
			},
			{
				"type": "occ",
				"energy": -0.20418,
				"method": "rhf"
			},
			{
				"type": "occ",
				"energy": -0.18873,
				"method": "rhf"
			},
			{
				"type": "unocc",
				"energy": 2e-05,
				"method": "rhf"
			},
			{
				"type": "unocc",
				"energy": 0.00132,
				"method": "rhf"
			},
			{
				"type": "unocc",
				"energy": 0.04569,
				"method": "rhf"
			},
			{
				"type": "unocc",
				"energy": 0.06685,
				"method": "rhf"
			},
			{
				"type": "unocc",
				"energy": 0.08388,
				"method": "rhf"
			}
		],
		"cosmo_sigma_profile": { 
			"-0.025": 0.0,
			"-0.024": 0.0,
			"-0.023": 0.0,
			"-0.022": 0.0,
			"-0.021": 0.0,
			"-0.02": 0.0,
			"-0.019": 0.0,
			"-0.018": 0.0,
			"-0.017": 0.0,
			"-0.016": 0.0,
			"-0.015": 0.986272930131,
			"-0.014": 0.907715277279,
			"-0.013": 1.45753359095,
			"-0.012": 4.36025233406,
			"-0.011": 4.65224968462,
			"-0.01": 4.27332488638,
			"-0.009": 6.29477397844,
			"-0.008": 5.74593666439,
			"-0.007": 4.57535277265,
			"-0.006": 4.79575009048,
			"-0.005": 10.217670437,
			"-0.004": 19.0920002341,
			"-0.003": 20.681832858,
			"-0.002": 19.9474068064,
			"-0.001": 20.790651032,
			"0.0": 20.3392282197,
			"0.001": 16.7729344087,
			"0.002": 10.4353615245,
			"0.003": 12.0733992165,
			"0.004": 11.7033931587,
			"0.005": 12.4507923173,
			"0.006": 9.98577934542,
			"0.007": 6.49942168627,
			"0.008": 4.01679195578,
			"0.009": 3.63217512022,
			"0.01": 2.65881806202,
			"0.011": 2.6272361564,
			"0.012": 3.19405807393,
			"0.013": 2.1520711458,
			"0.014": 2.8229690949,
			"0.015": 2.12830471576,
			"0.016": 1.93496784926,
			"0.017": 0.973402038086,
			"0.018": 0.355040261939,
			"0.019": 0.0,
			"0.02": 0.0,
			"0.021": 0.0,
			"0.022": 0.0,
			"0.023": 0.0,
			"0.024": 0.0,
			"0.025": 0.0
		}
	}
}
