{
	 "smiles": "CN1N=C(C)C(N=C=O)=C1C", 
	 "Tm": 311.15, 
	 "num_atms": 20, 
	 "gaussian": { 
		 "optdone": 1, 
		 "sigma_profile": "yes", 
		 "theory": "DFT", 
		 "functional": "B3LYP", 
		 "basiset": "6-31G**", 
		 "properties": { 
			 "R2extent": 3039.5249, 
			 "electric_dipole_moment_norm": 3.67521153949, 
			 "electric_quadrupole_moment_norm": 14.2242002889, 
			 "total_energy": -511.639454567, 
			 "HOMO_LUMO_gap": 0.23102, 
			 "cosmo_polarized_energy": -8.27, 
			 "cosmo_cavitation_energy": 25.1, 
			 "cosmo_dispersion_energy": -17.67, 
			 "cosmo_repulsion_energy": 1.45, 
			 "cosmo_total_nonelectrostatic_energy": 8.87, 
			 "SMD_solvation_energy": 5.92 
		},
		"coords": [
			{
				"x": -0.0262465972,
				"y": 0.8834584734,
				"z": -1.6366139735,
				"element": "C" 
			},
			{
				"x": 0.4380467532,
				"y": 0.624595754,
				"z": -0.288361115,
				"element": "N" 
			},
			{
				"x": 0.0764266648,
				"y": -0.5270287437,
				"z": 0.3322449903,
				"element": "N" 
			},
			{
				"x": 0.6458891872,
				"y": -0.4821115829,
				"z": 1.534724829,
				"element": "C" 
			},
			{
				"x": 0.4759990185,
				"y": -1.5897393702,
				"z": 2.5251380118,
				"element": "C" 
			},
			{
				"x": 1.3842803968,
				"y": 0.7236698619,
				"z": 1.6791668501,
				"element": "C" 
			},
			{
				"x": 2.1240294298,
				"y": 1.1688528492,
				"z": 2.7645854156,
				"element": "N" 
			},
			{
				"x": 2.4537357248,
				"y": 0.8528945475,
				"z": 3.8819915072,
				"element": "C" 
			},
			{
				"x": 2.8470236329,
				"y": 0.6662060202,
				"z": 4.9806078048,
				"element": "O" 
			},
			{
				"x": 1.2310690186,
				"y": 1.4173537607,
				"z": 0.485568707,
				"element": "C" 
			},
			{
				"x": 1.7748693787,
				"y": 2.7389911164,
				"z": 0.0571057256,
				"element": "C" 
			},
			{
				"x": -0.641153013,
				"y": 0.0336070139,
				"z": -1.9303174547,
				"element": "H" 
			},
			{
				"x": -0.6281323657,
				"y": 1.7974002643,
				"z": -1.678806888,
				"element": "H" 
			},
			{
				"x": 0.8136923851,
				"y": 0.9800301951,
				"z": -2.3327831519,
				"element": "H" 
			},
			{
				"x": 1.438213253,
				"y": -2.0373206446,
				"z": 2.8008207079,
				"element": "H" 
			},
			{
				"x": -0.1544997134,
				"y": -2.3711301564,
				"z": 2.0959009649,
				"element": "H" 
			},
			{
				"x": 0.004410726,
				"y": -1.2369879045,
				"z": 3.4499895555,
				"element": "H" 
			},
			{
				"x": 2.3767175293,
				"y": 3.1596950334,
				"z": 0.865444299,
				"element": "H" 
			},
			{
				"x": 0.9778614792,
				"y": 3.4543256014,
				"z": -0.1786955376,
				"element": "H" 
			},
			{
				"x": 2.4133671112,
				"y": 2.6524379107,
				"z": -0.8302112481,
				"element": "H" 
			}
		],
		 "valence_orbital": [ 
			{
				"type": "occ",
				"energy": -0.33055,
				"method": "rhf"
			},
			{
				"type": "occ",
				"energy": -0.31521,
				"method": "rhf"
			},
			{
				"type": "occ",
				"energy": -0.27755,
				"method": "rhf"
			},
			{
				"type": "occ",
				"energy": -0.24044,
				"method": "rhf"
			},
			{
				"type": "occ",
				"energy": -0.21627,
				"method": "rhf"
			},
			{
				"type": "unocc",
				"energy": 0.01475,
				"method": "rhf"
			},
			{
				"type": "unocc",
				"energy": 0.02531,
				"method": "rhf"
			},
			{
				"type": "unocc",
				"energy": 0.03601,
				"method": "rhf"
			},
			{
				"type": "unocc",
				"energy": 0.08249,
				"method": "rhf"
			},
			{
				"type": "unocc",
				"energy": 0.10252,
				"method": "rhf"
			}
		],
		"cosmo_sigma_profile": { 
			"-0.025": 0.0,
			"-0.024": 0.0,
			"-0.023": 0.0,
			"-0.022": 0.0,
			"-0.021": 0.0,
			"-0.02": 0.0,
			"-0.019": 0.0,
			"-0.018": 0.0,
			"-0.017": 0.0,
			"-0.016": 0.0,
			"-0.015": 0.0,
			"-0.014": 0.0,
			"-0.013": 0.0,
			"-0.012": 0.0,
			"-0.011": 0.0,
			"-0.01": 0.0,
			"-0.009": 0.0,
			"-0.008": 0.0,
			"-0.007": 0.266084872067,
			"-0.006": 9.30250866487,
			"-0.005": 19.4020562844,
			"-0.004": 19.8982109487,
			"-0.003": 21.9611423306,
			"-0.002": 21.7446928043,
			"-0.001": 19.6692663167,
			"0.0": 14.5757545551,
			"0.001": 10.5899399187,
			"0.002": 8.21894948873,
			"0.003": 14.1888687457,
			"0.004": 9.08794841742,
			"0.005": 3.69199357287,
			"0.006": 4.41345555772,
			"0.007": 5.08076240932,
			"0.008": 9.0272137162,
			"0.009": 2.4045878443,
			"0.01": 1.53393859217,
			"0.011": 0.862588083987,
			"0.012": 0.865747965295,
			"0.013": 1.39281018661,
			"0.014": 0.572169694476,
			"0.015": 1.02107290274,
			"0.016": 0.275787872022,
			"0.017": 0.0,
			"0.018": 0.0,
			"0.019": 0.0,
			"0.02": 0.0,
			"0.021": 0.0,
			"0.022": 0.0,
			"0.023": 0.0,
			"0.024": 0.0,
			"0.025": 0.0
		}
	}
}
