{
	 "smiles": "CC1=CC(N)=CC=C1Br", 
	 "Tm": 353.15, 
	 "num_atms": 17, 
	 "gaussian": { 
		 "optdone": 1, 
		 "sigma_profile": "yes", 
		 "theory": "DFT", 
		 "functional": "B3LYP", 
		 "basiset": "6-31G**", 
		 "properties": { 
			 "R2extent": 3092.4941, 
			 "electric_dipole_moment_norm": 3.29149500683, 
			 "electric_quadrupole_moment_norm": 7.41578681935, 
			 "total_energy": -2897.73295725, 
			 "HOMO_LUMO_gap": 0.19891, 
			 "cosmo_polarized_energy": -8.49, 
			 "cosmo_cavitation_energy": 22.58, 
			 "cosmo_dispersion_energy": -17.22, 
			 "cosmo_repulsion_energy": 1.41, 
			 "cosmo_total_nonelectrostatic_energy": 6.76, 
			 "SMD_solvation_energy": 2.8 
		},
		"coords": [
			{
				"x": -0.6002877576,
				"y": 3.027383177,
				"z": 0.6509633655,
				"element": "C" 
			},
			{
				"x": -0.1026062111,
				"y": 1.7514292785,
				"z": 0.0220476033,
				"element": "C" 
			},
			{
				"x": 0.2334088896,
				"y": 0.6554573992,
				"z": 0.8232617056,
				"element": "C" 
			},
			{
				"x": 0.7009925085,
				"y": -0.5550361873,
				"z": 0.28618585,
				"element": "C" 
			},
			{
				"x": 1.0803129264,
				"y": -1.6049926722,
				"z": 1.1235370144,
				"element": "N" 
			},
			{
				"x": 0.8319854421,
				"y": -0.661181205,
				"z": -1.1075576559,
				"element": "C" 
			},
			{
				"x": 0.5033576166,
				"y": 0.4157522857,
				"z": -1.9247054699,
				"element": "C" 
			},
			{
				"x": 0.0421124083,
				"y": 1.6049210336,
				"z": -1.3654527532,
				"element": "C" 
			},
			{
				"x": -0.3993679513,
				"y": 3.0537355205,
				"z": -2.5450124411,
				"element": "Br" 
			},
			{
				"x": -0.6440420069,
				"y": 2.9346962715,
				"z": 1.7390184294,
				"element": "H" 
			},
			{
				"x": -1.5998290462,
				"y": 3.2861293994,
				"z": 0.2855870043,
				"element": "H" 
			},
			{
				"x": 0.052413846,
				"y": 3.8711901316,
				"z": 0.402882061,
				"element": "H" 
			},
			{
				"x": 0.1323309372,
				"y": 0.7495075605,
				"z": 1.9022697975,
				"element": "H" 
			},
			{
				"x": 1.0633376003,
				"y": -2.5218228981,
				"z": 0.6987111501,
				"element": "H" 
			},
			{
				"x": 0.6485949577,
				"y": -1.6052204627,
				"z": 2.0373125219,
				"element": "H" 
			},
			{
				"x": 1.1955348543,
				"y": -1.5843291833,
				"z": -1.5511785851,
				"element": "H" 
			},
			{
				"x": 0.6034509862,
				"y": 0.3310805512,
				"z": -3.0010695979,
				"element": "H" 
			}
		],
		 "valence_orbital": [ 
			{
				"type": "occ",
				"energy": -0.32934,
				"method": "rhf"
			},
			{
				"type": "occ",
				"energy": -0.27594,
				"method": "rhf"
			},
			{
				"type": "occ",
				"energy": -0.2756,
				"method": "rhf"
			},
			{
				"type": "occ",
				"energy": -0.24709,
				"method": "rhf"
			},
			{
				"type": "occ",
				"energy": -0.2008,
				"method": "rhf"
			},
			{
				"type": "unocc",
				"energy": -0.00189,
				"method": "rhf"
			},
			{
				"type": "unocc",
				"energy": 0.00918,
				"method": "rhf"
			},
			{
				"type": "unocc",
				"energy": 0.01906,
				"method": "rhf"
			},
			{
				"type": "unocc",
				"energy": 0.07936,
				"method": "rhf"
			},
			{
				"type": "unocc",
				"energy": 0.11313,
				"method": "rhf"
			}
		],
		"cosmo_sigma_profile": { 
			"-0.025": 0.0,
			"-0.024": 0.0,
			"-0.023": 0.0,
			"-0.022": 0.0,
			"-0.021": 0.0,
			"-0.02": 0.0,
			"-0.019": 0.0,
			"-0.018": 0.0,
			"-0.017": 0.0,
			"-0.016": 0.0,
			"-0.015": 0.0,
			"-0.014": 0.0,
			"-0.013": 0.497515868466,
			"-0.012": 2.4258649839,
			"-0.011": 3.20307955717,
			"-0.01": 2.62925692276,
			"-0.009": 3.56395640057,
			"-0.008": 3.33424407473,
			"-0.007": 3.04844732567,
			"-0.006": 6.35961399359,
			"-0.005": 8.15919862479,
			"-0.004": 9.82722724836,
			"-0.003": 10.9682071395,
			"-0.002": 12.0655824447,
			"-0.001": 11.7608449625,
			"0.0": 15.3337512231,
			"0.001": 11.5668394047,
			"0.002": 11.4781787,
			"0.003": 12.4789309092,
			"0.004": 17.754188558,
			"0.005": 20.6624666286,
			"0.006": 8.55034914281,
			"0.007": 1.45165621501,
			"0.008": 0.708559402519,
			"0.009": 0.865543629775,
			"0.01": 0.50702259282,
			"0.011": 0.691393808907,
			"0.012": 0.840423250327,
			"0.013": 0.709257747394,
			"0.014": 0.485324006317,
			"0.015": 0.0958926127052,
			"0.016": 0.0,
			"0.017": 0.0,
			"0.018": 0.0,
			"0.019": 0.0,
			"0.02": 0.0,
			"0.021": 0.0,
			"0.022": 0.0,
			"0.023": 0.0,
			"0.024": 0.0,
			"0.025": 0.0
		}
	}
}
