{
	 "smiles": "CS(=O)(=O)C1CCCCC1=O", 
	 "Tm": 343.15, 
	 "num_atms": 23, 
	 "gaussian": { 
		 "optdone": 1, 
		 "sigma_profile": "yes", 
		 "theory": "DFT", 
		 "functional": "B3LYP", 
		 "basiset": "6-31G**", 
		 "properties": { 
			 "R2extent": 2197.0357, 
			 "electric_dipole_moment_norm": 3.07088045355, 
			 "electric_quadrupole_moment_norm": 11.2942381469, 
			 "total_energy": -897.778529231, 
			 "HOMO_LUMO_gap": 0.21313, 
			 "cosmo_polarized_energy": -15.07, 
			 "cosmo_cavitation_energy": 25.34, 
			 "cosmo_dispersion_energy": -19.23, 
			 "cosmo_repulsion_energy": 1.48, 
			 "cosmo_total_nonelectrostatic_energy": 7.58, 
			 "SMD_solvation_energy": 4.05 
		},
		"coords": [
			{
				"x": -1.0716945142,
				"y": -2.293740714,
				"z": -1.3126599384,
				"element": "C" 
			},
			{
				"x": -0.5980459963,
				"y": -0.8153959574,
				"z": -0.3903172805,
				"element": "S" 
			},
			{
				"x": -1.2040383675,
				"y": 0.3585456236,
				"z": -1.0404250136,
				"element": "O" 
			},
			{
				"x": -0.8383411933,
				"y": -1.0727634283,
				"z": 1.041151667,
				"element": "O" 
			},
			{
				"x": 1.2313708156,
				"y": -0.6962867191,
				"z": -0.668578095,
				"element": "C" 
			},
			{
				"x": 1.7357918171,
				"y": 0.7099256369,
				"z": -0.3161277053,
				"element": "C" 
			},
			{
				"x": 1.7633754206,
				"y": 1.0030842111,
				"z": 1.2002542685,
				"element": "C" 
			},
			{
				"x": 2.1208091972,
				"y": -0.2347851291,
				"z": 2.0640761203,
				"element": "C" 
			},
			{
				"x": 2.8203762576,
				"y": -1.3462402401,
				"z": 1.2584274286,
				"element": "C" 
			},
			{
				"x": 1.9604298911,
				"y": -1.8093480846,
				"z": 0.1004387187,
				"element": "C" 
			},
			{
				"x": 1.8418674663,
				"y": -2.9758473615,
				"z": -0.2270002156,
				"element": "O" 
			},
			{
				"x": -2.1131309455,
				"y": -2.4885030786,
				"z": -1.0500896742,
				"element": "H" 
			},
			{
				"x": -0.9768150646,
				"y": -2.0881129425,
				"z": -2.3797083773,
				"element": "H" 
			},
			{
				"x": -0.4230359673,
				"y": -3.1151527411,
				"z": -1.0073761643,
				"element": "H" 
			},
			{
				"x": 1.3438367086,
				"y": -0.8932374411,
				"z": -1.7402365408,
				"element": "H" 
			},
			{
				"x": 1.1318286148,
				"y": 1.4533024771,
				"z": -0.843429086,
				"element": "H" 
			},
			{
				"x": 2.749539897,
				"y": 0.7827960867,
				"z": -0.7283627402,
				"element": "H" 
			},
			{
				"x": 2.483726113,
				"y": 1.8099764236,
				"z": 1.372567416,
				"element": "H" 
			},
			{
				"x": 0.7883105076,
				"y": 1.3851957817,
				"z": 1.5150540869,
				"element": "H" 
			},
			{
				"x": 1.2041276454,
				"y": -0.6511036643,
				"z": 2.4898526626,
				"element": "H" 
			},
			{
				"x": 2.7601151114,
				"y": 0.0566937762,
				"z": 2.9031316517,
				"element": "H" 
			},
			{
				"x": 3.7674393274,
				"y": -0.9737648742,
				"z": 0.8393597412,
				"element": "H" 
			},
			{
				"x": 3.0605572579,
				"y": -2.218437641,
				"z": 1.8717970697,
				"element": "H" 
			}
		],
		 "valence_orbital": [ 
			{
				"type": "occ",
				"energy": -0.32515,
				"method": "rhf"
			},
			{
				"type": "occ",
				"energy": -0.31448,
				"method": "rhf"
			},
			{
				"type": "occ",
				"energy": -0.29958,
				"method": "rhf"
			},
			{
				"type": "occ",
				"energy": -0.28811,
				"method": "rhf"
			},
			{
				"type": "occ",
				"energy": -0.2603,
				"method": "rhf"
			},
			{
				"type": "unocc",
				"energy": -0.04717,
				"method": "rhf"
			},
			{
				"type": "unocc",
				"energy": 0.04608,
				"method": "rhf"
			},
			{
				"type": "unocc",
				"energy": 0.07167,
				"method": "rhf"
			},
			{
				"type": "unocc",
				"energy": 0.08138,
				"method": "rhf"
			},
			{
				"type": "unocc",
				"energy": 0.09013,
				"method": "rhf"
			}
		],
		"cosmo_sigma_profile": { 
			"-0.025": 0.0,
			"-0.024": 0.0,
			"-0.023": 0.0,
			"-0.022": 0.0,
			"-0.021": 0.0,
			"-0.02": 0.0,
			"-0.019": 0.0,
			"-0.018": 0.0,
			"-0.017": 0.0,
			"-0.016": 0.0,
			"-0.015": 0.0,
			"-0.014": 0.0,
			"-0.013": 0.0,
			"-0.012": 0.122069845558,
			"-0.011": 0.89624974455,
			"-0.01": 1.79437292175,
			"-0.009": 5.33062047985,
			"-0.008": 7.33923802393,
			"-0.007": 6.98478086185,
			"-0.006": 9.47985857568,
			"-0.005": 11.8178862003,
			"-0.004": 16.5929329286,
			"-0.003": 21.7100043399,
			"-0.002": 21.1264804286,
			"-0.001": 16.0251820508,
			"0.0": 11.7851157918,
			"0.001": 5.1324929818,
			"0.002": 5.18852894542,
			"0.003": 5.19825438226,
			"0.004": 3.37931971875,
			"0.005": 4.00695219959,
			"0.006": 4.52072718546,
			"0.007": 3.53805379848,
			"0.008": 4.6374823855,
			"0.009": 5.15002398282,
			"0.01": 7.16527933475,
			"0.011": 10.5262101671,
			"0.012": 7.88706324433,
			"0.013": 0.616176970586,
			"0.014": 0.0,
			"0.015": 0.0,
			"0.016": 0.0,
			"0.017": 0.0,
			"0.018": 0.0,
			"0.019": 0.0,
			"0.02": 0.0,
			"0.021": 0.0,
			"0.022": 0.0,
			"0.023": 0.0,
			"0.024": 0.0,
			"0.025": 0.0
		}
	}
}
