{
	 "smiles": "COCCNC1=NC2=C(N1)C=CC=C2", 
	 "Tm": 444.15, 
	 "num_atms": 27, 
	 "gaussian": { 
		 "optdone": 1, 
		 "sigma_profile": "yes", 
		 "theory": "DFT", 
		 "functional": "B3LYP", 
		 "basiset": "6-31G**", 
		 "properties": { 
			 "R2extent": 4743.9034, 
			 "electric_dipole_moment_norm": 4.65355163934, 
			 "electric_quadrupole_moment_norm": 11.1048566218, 
			 "total_energy": -628.378243952, 
			 "HOMO_LUMO_gap": 0.19923, 
			 "cosmo_polarized_energy": -15.9, 
			 "cosmo_cavitation_energy": 30.61, 
			 "cosmo_dispersion_energy": -22.92, 
			 "cosmo_repulsion_energy": 1.83, 
			 "cosmo_total_nonelectrostatic_energy": 9.52, 
			 "SMD_solvation_energy": 2.73 
		},
		"coords": [
			{
				"x": -0.8939046183,
				"y": -3.4421543362,
				"z": 3.4457937069,
				"element": "C" 
			},
			{
				"x": -0.7956244577,
				"y": -2.4177577969,
				"z": 2.4777265225,
				"element": "O" 
			},
			{
				"x": -0.1052637639,
				"y": -1.2694095398,
				"z": 2.9478080087,
				"element": "C" 
			},
			{
				"x": -0.012190863,
				"y": -0.2848336888,
				"z": 1.7953545053,
				"element": "C" 
			},
			{
				"x": 0.6828265475,
				"y": -0.9198721497,
				"z": 0.6805875366,
				"element": "N" 
			},
			{
				"x": 0.986887525,
				"y": -0.1522285882,
				"z": -0.417434473,
				"element": "C" 
			},
			{
				"x": 0.9137606347,
				"y": 1.157499843,
				"z": -0.4782503158,
				"element": "N" 
			},
			{
				"x": 1.3944374322,
				"y": 1.4792785914,
				"z": -1.7442186194,
				"element": "C" 
			},
			{
				"x": 1.7526583719,
				"y": 0.3082010966,
				"z": -2.4567512932,
				"element": "C" 
			},
			{
				"x": 1.4642730522,
				"y": -0.7347124206,
				"z": -1.5794043781,
				"element": "N" 
			},
			{
				"x": 2.2589355857,
				"y": 0.3388978797,
				"z": -3.751895906,
				"element": "C" 
			},
			{
				"x": 2.4084571728,
				"y": 1.597596311,
				"z": -4.3417173356,
				"element": "C" 
			},
			{
				"x": 2.0558806142,
				"y": 2.7702175979,
				"z": -3.6537277048,
				"element": "C" 
			},
			{
				"x": 1.5463158835,
				"y": 2.7269868495,
				"z": -2.3548262336,
				"element": "C" 
			},
			{
				"x": 0.0978071089,
				"y": -3.7931815715,
				"z": 3.7712116816,
				"element": "H" 
			},
			{
				"x": -1.431885101,
				"y": -4.2747973338,
				"z": 2.9863519354,
				"element": "H" 
			},
			{
				"x": -1.4500778148,
				"y": -3.1080424103,
				"z": 4.3350975263,
				"element": "H" 
			},
			{
				"x": -0.6429482783,
				"y": -0.8092392214,
				"z": 3.7922089801,
				"element": "H" 
			},
			{
				"x": 0.9032515083,
				"y": -1.5466031369,
				"z": 3.2950225237,
				"element": "H" 
			},
			{
				"x": 0.5510977559,
				"y": 0.601067272,
				"z": 2.0987586457,
				"element": "H" 
			},
			{
				"x": -1.0191974687,
				"y": 0.0517200724,
				"z": 1.5095655499,
				"element": "H" 
			},
			{
				"x": 0.3231860586,
				"y": -1.8467266446,
				"z": 0.4854911533,
				"element": "H" 
			},
			{
				"x": 1.7200395277,
				"y": -1.7025033369,
				"z": -1.694651361,
				"element": "H" 
			},
			{
				"x": 2.5288779781,
				"y": -0.568171041,
				"z": -4.2852115846,
				"element": "H" 
			},
			{
				"x": 2.8036496593,
				"y": 1.6670445921,
				"z": -5.3508758019,
				"element": "H" 
			},
			{
				"x": 2.1833256167,
				"y": 3.7307444065,
				"z": -4.1447537778,
				"element": "H" 
			},
			{
				"x": 1.2733243327,
				"y": 3.6319787045,
				"z": -1.8214594913,
				"element": "H" 
			}
		],
		 "valence_orbital": [ 
			{
				"type": "occ",
				"energy": -0.26984,
				"method": "rhf"
			},
			{
				"type": "occ",
				"energy": -0.26906,
				"method": "rhf"
			},
			{
				"type": "occ",
				"energy": -0.25945,
				"method": "rhf"
			},
			{
				"type": "occ",
				"energy": -0.21326,
				"method": "rhf"
			},
			{
				"type": "occ",
				"energy": -0.19006,
				"method": "rhf"
			},
			{
				"type": "unocc",
				"energy": 0.00917,
				"method": "rhf"
			},
			{
				"type": "unocc",
				"energy": 0.03537,
				"method": "rhf"
			},
			{
				"type": "unocc",
				"energy": 0.07371,
				"method": "rhf"
			},
			{
				"type": "unocc",
				"energy": 0.07818,
				"method": "rhf"
			},
			{
				"type": "unocc",
				"energy": 0.08376,
				"method": "rhf"
			}
		],
		"cosmo_sigma_profile": { 
			"-0.025": 0.0,
			"-0.024": 0.0,
			"-0.023": 0.0,
			"-0.022": 0.0,
			"-0.021": 0.0,
			"-0.02": 0.0,
			"-0.019": 0.0,
			"-0.018": 0.0,
			"-0.017": 0.0943471680418,
			"-0.016": 1.5470938585,
			"-0.015": 2.12030380882,
			"-0.014": 1.77525573503,
			"-0.013": 1.76334289678,
			"-0.012": 1.71821383074,
			"-0.011": 1.50046708906,
			"-0.01": 1.66094816168,
			"-0.009": 1.58391868155,
			"-0.008": 1.13794476334,
			"-0.007": 1.92157413151,
			"-0.006": 3.84561708038,
			"-0.005": 11.4776237668,
			"-0.004": 26.556063072,
			"-0.003": 30.0679963299,
			"-0.002": 26.1800192622,
			"-0.001": 14.1002082146,
			"0.0": 10.9736668424,
			"0.001": 10.8232845012,
			"0.002": 12.0402724125,
			"0.003": 11.6569708177,
			"0.004": 12.0890221928,
			"0.005": 13.1640912456,
			"0.006": 13.2188638607,
			"0.007": 10.7648425953,
			"0.008": 4.0754495678,
			"0.009": 2.78409137084,
			"0.01": 2.63165723127,
			"0.011": 2.25204924953,
			"0.012": 1.84848899336,
			"0.013": 0.82384355031,
			"0.014": 1.06311182692,
			"0.015": 1.11857212225,
			"0.016": 0.867235524912,
			"0.017": 0.631592987106,
			"0.018": 0.0943013505432,
			"0.019": 0.0,
			"0.02": 0.0,
			"0.021": 0.0,
			"0.022": 0.0,
			"0.023": 0.0,
			"0.024": 0.0,
			"0.025": 0.0
		}
	}
}
