{
	 "smiles": "CC[C@]1(O)CCC2C3CCC4CC(CCC4(C)C3CCC12C)OC(C)=O", 
	 "Tm": 437.15, 
	 "num_atms": 64, 
	 "gaussian": { 
		 "optdone": 1, 
		 "sigma_profile": "yes", 
		 "theory": "DFT", 
		 "functional": "B3LYP", 
		 "basiset": "6-31G**", 
		 "properties": { 
			 "R2extent": 12849.6449, 
			 "electric_dipole_moment_norm": 3.4389487289, 
			 "electric_quadrupole_moment_norm": 14.3211174117, 
			 "total_energy": -1125.07933398, 
			 "HOMO_LUMO_gap": 0.27488, 
			 "cosmo_polarized_energy": -11.23, 
			 "cosmo_cavitation_energy": 54.07, 
			 "cosmo_dispersion_energy": -37.28, 
			 "cosmo_repulsion_energy": 2.74, 
			 "cosmo_total_nonelectrostatic_energy": 19.54, 
			 "SMD_solvation_energy": 8.62 
		},
		"coords": [
			{
				"x": -0.0230509156,
				"y": 2.7602230249,
				"z": -5.3713580679,
				"element": "C" 
			},
			{
				"x": -0.618675158,
				"y": 1.3492266632,
				"z": -5.3286335983,
				"element": "C" 
			},
			{
				"x": -0.2098129472,
				"y": 0.4775441345,
				"z": -4.123383943,
				"element": "C" 
			},
			{
				"x": 1.227376131,
				"y": 0.4211472217,
				"z": -4.0532019684,
				"element": "O" 
			},
			{
				"x": -0.7849940841,
				"y": -0.9705317593,
				"z": -4.2624464162,
				"element": "C" 
			},
			{
				"x": -1.0529073985,
				"y": -1.5023829476,
				"z": -2.8275609638,
				"element": "C" 
			},
			{
				"x": -0.4526891958,
				"y": -0.4193895088,
				"z": -1.9138570973,
				"element": "C" 
			},
			{
				"x": -0.8641321692,
				"y": -0.3732650665,
				"z": -0.4363334037,
				"element": "C" 
			},
			{
				"x": -0.6298806193,
				"y": -1.7266976552,
				"z": 0.2586111361,
				"element": "C" 
			},
			{
				"x": -0.8833823981,
				"y": -1.6672709848,
				"z": 1.7693832125,
				"element": "C" 
			},
			{
				"x": -0.0601079641,
				"y": -0.5488221074,
				"z": 2.4211005583,
				"element": "C" 
			},
			{
				"x": -0.1561883711,
				"y": -0.5696517501,
				"z": 3.9564965839,
				"element": "C" 
			},
			{
				"x": 0.7466214934,
				"y": 0.4732067466,
				"z": 4.6132308946,
				"element": "C" 
			},
			{
				"x": 0.5360611188,
				"y": 1.8659518739,
				"z": 4.0151378241,
				"element": "C" 
			},
			{
				"x": 0.5978183356,
				"y": 1.8702849835,
				"z": 2.4786472823,
				"element": "C" 
			},
			{
				"x": -0.3686842631,
				"y": 0.8560098978,
				"z": 1.806746474,
				"element": "C" 
			},
			{
				"x": -1.8284270955,
				"y": 1.2958893472,
				"z": 2.0665057316,
				"element": "C" 
			},
			{
				"x": -0.0718593257,
				"y": 0.7675685697,
				"z": 0.2688110374,
				"element": "C" 
			},
			{
				"x": -0.2245418053,
				"y": 2.1064588305,
				"z": -0.4885867191,
				"element": "C" 
			},
			{
				"x": 0.1221334923,
				"y": 2.0130412454,
				"z": -1.9899496964,
				"element": "C" 
			},
			{
				"x": -0.6895893865,
				"y": 0.9076129588,
				"z": -2.6923660668,
				"element": "C" 
			},
			{
				"x": -2.1825535255,
				"y": 1.3017918174,
				"z": -2.7539709201,
				"element": "C" 
			},
			{
				"x": 2.1196543421,
				"y": 0.0336107153,
				"z": 4.3748345723,
				"element": "O" 
			},
			{
				"x": 3.058587934,
				"y": 0.4339587384,
				"z": 5.2614969213,
				"element": "C" 
			},
			{
				"x": 4.4180401266,
				"y": -0.1068433325,
				"z": 4.8800492541,
				"element": "C" 
			},
			{
				"x": 2.8314336276,
				"y": 1.129686184,
				"z": 6.2285235492,
				"element": "O" 
			},
			{
				"x": -0.4562833377,
				"y": 3.409763825,
				"z": -4.6052971653,
				"element": "H" 
			},
			{
				"x": 1.0573581876,
				"y": 2.727262679,
				"z": -5.2071299087,
				"element": "H" 
			},
			{
				"x": -0.209778358,
				"y": 3.2289422283,
				"z": -6.3431668214,
				"element": "H" 
			},
			{
				"x": -0.3000827769,
				"y": 0.8043674691,
				"z": -6.2310122532,
				"element": "H" 
			},
			{
				"x": -1.7111378537,
				"y": 1.3973077203,
				"z": -5.3930552828,
				"element": "H" 
			},
			{
				"x": 1.5417950702,
				"y": 0.0298977148,
				"z": -4.8790129054,
				"element": "H" 
			},
			{
				"x": -0.0605065018,
				"y": -1.592130273,
				"z": -4.80094466,
				"element": "H" 
			},
			{
				"x": -1.6993763033,
				"y": -0.9690804496,
				"z": -4.8650464466,
				"element": "H" 
			},
			{
				"x": -0.6033522695,
				"y": -2.4853207113,
				"z": -2.6601297848,
				"element": "H" 
			},
			{
				"x": -2.1292307198,
				"y": -1.6141998237,
				"z": -2.6493625387,
				"element": "H" 
			},
			{
				"x": 0.63557671,
				"y": -0.5687187073,
				"z": -1.9298616609,
				"element": "H" 
			},
			{
				"x": -1.9392262318,
				"y": -0.1512234853,
				"z": -0.3751804566,
				"element": "H" 
			},
			{
				"x": -1.2611170222,
				"y": -2.4968283468,
				"z": -0.2005728315,
				"element": "H" 
			},
			{
				"x": 0.4116374519,
				"y": -2.0363033439,
				"z": 0.0850819416,
				"element": "H" 
			},
			{
				"x": -0.6217304136,
				"y": -2.6295048173,
				"z": 2.2287202941,
				"element": "H" 
			},
			{
				"x": -1.9533697238,
				"y": -1.5175221665,
				"z": 1.9679205746,
				"element": "H" 
			},
			{
				"x": 0.99377291,
				"y": -0.7533253691,
				"z": 2.1800994414,
				"element": "H" 
			},
			{
				"x": -1.1869047903,
				"y": -0.3868851229,
				"z": 4.2855264317,
				"element": "H" 
			},
			{
				"x": 0.1162701635,
				"y": -1.5642516235,
				"z": 4.3291846706,
				"element": "H" 
			},
			{
				"x": 0.600286616,
				"y": 0.5035805927,
				"z": 5.6960325492,
				"element": "H" 
			},
			{
				"x": 1.2802888581,
				"y": 2.5514414209,
				"z": 4.432624088,
				"element": "H" 
			},
			{
				"x": -0.4399917018,
				"y": 2.2304162493,
				"z": 4.3585504752,
				"element": "H" 
			},
			{
				"x": 0.3893003704,
				"y": 2.8856988317,
				"z": 2.1249225543,
				"element": "H" 
			},
			{
				"x": 1.6237934603,
				"y": 1.6354279335,
				"z": 2.1660464201,
				"element": "H" 
			},
			{
				"x": -2.0825857871,
				"y": 1.2728363773,
				"z": 3.1296004,
				"element": "H" 
			},
			{
				"x": -1.9906575742,
				"y": 2.3228776721,
				"z": 1.7247914312,
				"element": "H" 
			},
			{
				"x": -2.5549633487,
				"y": 0.6619514562,
				"z": 1.5521500899,
				"element": "H" 
			},
			{
				"x": 0.991468774,
				"y": 0.4850938241,
				"z": 0.1903078019,
				"element": "H" 
			},
			{
				"x": 0.4255967247,
				"y": 2.862882826,
				"z": -0.0364127079,
				"element": "H" 
			},
			{
				"x": -1.2475861076,
				"y": 2.4838991629,
				"z": -0.3740606527,
				"element": "H" 
			},
			{
				"x": -0.0530243811,
				"y": 2.990150964,
				"z": -2.4546371237,
				"element": "H" 
			},
			{
				"x": 1.1878806833,
				"y": 1.7946758648,
				"z": -2.1085574989,
				"element": "H" 
			},
			{
				"x": -2.612290924,
				"y": 1.4219630678,
				"z": -1.7572605024,
				"element": "H" 
			},
			{
				"x": -2.7932828867,
				"y": 0.5612071977,
				"z": -3.2786786591,
				"element": "H" 
			},
			{
				"x": -2.3067849642,
				"y": 2.2575207018,
				"z": -3.2734257177,
				"element": "H" 
			},
			{
				"x": 5.1526349673,
				"y": 0.2011390972,
				"z": 5.6234670481,
				"element": "H" 
			},
			{
				"x": 4.7068956138,
				"y": 0.2696477452,
				"z": 3.8940769247,
				"element": "H" 
			},
			{
				"x": 4.3851574376,
				"y": -1.1982162221,
				"z": 4.8143762704,
				"element": "H" 
			}
		],
		 "valence_orbital": [ 
			{
				"type": "occ",
				"energy": -0.28277,
				"method": "rhf"
			},
			{
				"type": "occ",
				"energy": -0.26603,
				"method": "rhf"
			},
			{
				"type": "occ",
				"energy": -0.2633,
				"method": "rhf"
			},
			{
				"type": "occ",
				"energy": -0.25871,
				"method": "rhf"
			},
			{
				"type": "occ",
				"energy": -0.25562,
				"method": "rhf"
			},
			{
				"type": "unocc",
				"energy": 0.01926,
				"method": "rhf"
			},
			{
				"type": "unocc",
				"energy": 0.0657,
				"method": "rhf"
			},
			{
				"type": "unocc",
				"energy": 0.07581,
				"method": "rhf"
			},
			{
				"type": "unocc",
				"energy": 0.08744,
				"method": "rhf"
			},
			{
				"type": "unocc",
				"energy": 0.09467,
				"method": "rhf"
			}
		],
		"cosmo_sigma_profile": { 
			"-0.025": 0.0,
			"-0.024": 0.0,
			"-0.023": 0.0,
			"-0.022": 0.0,
			"-0.021": 0.0,
			"-0.02": 0.0,
			"-0.019": 0.0,
			"-0.018": 0.0,
			"-0.017": 0.0,
			"-0.016": 0.0,
			"-0.015": 0.0,
			"-0.014": 0.90353411694,
			"-0.013": 0.71845780578,
			"-0.012": 0.658158238094,
			"-0.011": 0.848783759205,
			"-0.01": 1.15098999305,
			"-0.009": 1.34569313872,
			"-0.008": 1.18038722247,
			"-0.007": 0.872547588171,
			"-0.006": 4.96247524222,
			"-0.005": 7.77646557879,
			"-0.004": 14.7074225541,
			"-0.003": 27.0964077447,
			"-0.002": 64.6704833425,
			"-0.001": 72.9439138168,
			"0.0": 75.4158206001,
			"0.001": 57.6421847141,
			"0.002": 29.2350775189,
			"0.003": 8.48249892646,
			"0.004": 5.66993207388,
			"0.005": 4.69207488596,
			"0.006": 4.8044866935,
			"0.007": 4.2251540587,
			"0.008": 3.8708989123,
			"0.009": 2.6956679794,
			"0.01": 3.69014428001,
			"0.011": 3.54507151774,
			"0.012": 5.98818440701,
			"0.013": 3.13633897458,
			"0.014": 0.170874062884,
			"0.015": 0.0,
			"0.016": 0.0,
			"0.017": 0.0,
			"0.018": 0.0,
			"0.019": 0.0,
			"0.02": 0.0,
			"0.021": 0.0,
			"0.022": 0.0,
			"0.023": 0.0,
			"0.024": 0.0,
			"0.025": 0.0
		}
	}
}
