{
	 "smiles": "FC(F)(F)C(Cl)Br", 
	 "Tm": 155.15, 
	 "num_atms": 8, 
	 "gaussian": { 
		 "optdone": 1, 
		 "sigma_profile": "yes", 
		 "theory": "DFT", 
		 "functional": "B3LYP", 
		 "basiset": "6-31G**", 
		 "properties": { 
			 "R2extent": 2567.2249, 
			 "electric_dipole_moment_norm": 1.22096228443, 
			 "electric_quadrupole_moment_norm": 5.04644626941, 
			 "total_energy": -3407.92375096, 
			 "HOMO_LUMO_gap": 0.25655, 
			 "cosmo_polarized_energy": -3.71, 
			 "cosmo_cavitation_energy": 17.5, 
			 "cosmo_dispersion_energy": -13.09, 
			 "cosmo_repulsion_energy": 1.06, 
			 "cosmo_total_nonelectrostatic_energy": 5.47, 
			 "SMD_solvation_energy": 2.8 
		},
		"coords": [
			{
				"x": 1.6214724691,
				"y": -0.5795568388,
				"z": 1.3547369874,
				"element": "F" 
			},
			{
				"x": 1.3952871759,
				"y": -0.0839343072,
				"z": 0.1251631538,
				"element": "C" 
			},
			{
				"x": 0.0757658685,
				"y": -0.0222056175,
				"z": -0.0726898424,
				"element": "F" 
			},
			{
				"x": 1.927109328,
				"y": -0.9354542971,
				"z": -0.7671882292,
				"element": "F" 
			},
			{
				"x": 2.0740606096,
				"y": 1.2891192084,
				"z": -0.00431634,
				"element": "C" 
			},
			{
				"x": 1.4600077854,
				"y": 2.417278117,
				"z": 1.229424307,
				"element": "Cl" 
			},
			{
				"x": 1.8543932643,
				"y": 1.9865634627,
				"z": -1.8187622902,
				"element": "Br" 
			},
			{
				"x": 3.1431034993,
				"y": 1.1647902724,
				"z": 0.1516322536,
				"element": "H" 
			}
		],
		 "valence_orbital": [ 
			{
				"type": "occ",
				"energy": -0.41883,
				"method": "rhf"
			},
			{
				"type": "occ",
				"energy": -0.33997,
				"method": "rhf"
			},
			{
				"type": "occ",
				"energy": -0.33569,
				"method": "rhf"
			},
			{
				"type": "occ",
				"energy": -0.30721,
				"method": "rhf"
			},
			{
				"type": "occ",
				"energy": -0.3044,
				"method": "rhf"
			},
			{
				"type": "unocc",
				"energy": -0.04785,
				"method": "rhf"
			},
			{
				"type": "unocc",
				"energy": -0.00672,
				"method": "rhf"
			},
			{
				"type": "unocc",
				"energy": 0.07992,
				"method": "rhf"
			},
			{
				"type": "unocc",
				"energy": 0.15804,
				"method": "rhf"
			},
			{
				"type": "unocc",
				"energy": 0.16902,
				"method": "rhf"
			}
		],
		"cosmo_sigma_profile": { 
			"-0.025": 0.0,
			"-0.024": 0.0,
			"-0.023": 0.0,
			"-0.022": 0.0,
			"-0.021": 0.0,
			"-0.02": 0.0,
			"-0.019": 0.0,
			"-0.018": 0.0,
			"-0.017": 0.0,
			"-0.016": 0.0,
			"-0.015": 0.0,
			"-0.014": 0.0395993241864,
			"-0.013": 2.11867273099,
			"-0.012": 1.87625048665,
			"-0.011": 1.83977050634,
			"-0.01": 1.31374329066,
			"-0.009": 1.07960359528,
			"-0.008": 0.960106500699,
			"-0.007": 1.28398166638,
			"-0.006": 2.88176977027,
			"-0.005": 2.81060928673,
			"-0.004": 3.56782197916,
			"-0.003": 4.86559179526,
			"-0.002": 6.54257331415,
			"-0.001": 7.42375088731,
			"0.0": 13.5279069971,
			"0.001": 25.9381799022,
			"0.002": 41.7938480927,
			"0.003": 22.9010940392,
			"0.004": 2.90961673482,
			"0.005": 0.0,
			"0.006": 0.0,
			"0.007": 0.0,
			"0.008": 0.0,
			"0.009": 0.0,
			"0.01": 0.0,
			"0.011": 0.0,
			"0.012": 0.0,
			"0.013": 0.0,
			"0.014": 0.0,
			"0.015": 0.0,
			"0.016": 0.0,
			"0.017": 0.0,
			"0.018": 0.0,
			"0.019": 0.0,
			"0.02": 0.0,
			"0.021": 0.0,
			"0.022": 0.0,
			"0.023": 0.0,
			"0.024": 0.0,
			"0.025": 0.0
		}
	}
}
