{
	 "smiles": "OC(=O)CSCC1=CC=C(C=C1)C#N", 
	 "Tm": 360.15, 
	 "num_atms": 23, 
	 "gaussian": { 
		 "optdone": 1, 
		 "sigma_profile": "yes", 
		 "theory": "DFT", 
		 "functional": "B3LYP", 
		 "basiset": "6-31G**", 
		 "properties": { 
			 "R2extent": 3635.2942, 
			 "electric_dipole_moment_norm": 6.6665676146, 
			 "electric_quadrupole_moment_norm": 13.4533649482, 
			 "total_energy": -989.86764506, 
			 "HOMO_LUMO_gap": 0.1914, 
			 "cosmo_polarized_energy": -20.72, 
			 "cosmo_cavitation_energy": 30.22, 
			 "cosmo_dispersion_energy": -20.61, 
			 "cosmo_repulsion_energy": 1.59, 
			 "cosmo_total_nonelectrostatic_energy": 11.19, 
			 "SMD_solvation_energy": 7.01 
		},
		"coords": [
			{
				"x": -1.7556615245,
				"y": -1.3769371976,
				"z": -1.8623925265,
				"element": "O" 
			},
			{
				"x": -0.7747036017,
				"y": -2.2615152489,
				"z": -2.1095793286,
				"element": "C" 
			},
			{
				"x": -0.0182217161,
				"y": -2.1408948823,
				"z": -3.0412576756,
				"element": "O" 
			},
			{
				"x": -0.7048022355,
				"y": -3.4848552423,
				"z": -1.1833249159,
				"element": "C" 
			},
			{
				"x": -1.4201661782,
				"y": -3.3110637667,
				"z": 0.492766905,
				"element": "S" 
			},
			{
				"x": -0.0711263828,
				"y": -2.4002699406,
				"z": 1.3815526504,
				"element": "C" 
			},
			{
				"x": 0.1309177528,
				"y": -0.9649942701,
				"z": 0.9694613283,
				"element": "C" 
			},
			{
				"x": -0.7357347497,
				"y": 0.0376378855,
				"z": 1.4323657638,
				"element": "C" 
			},
			{
				"x": -0.557760682,
				"y": 1.3633250004,
				"z": 1.0576916248,
				"element": "C" 
			},
			{
				"x": 0.5021611792,
				"y": 1.7121227941,
				"z": 0.2017344446,
				"element": "C" 
			},
			{
				"x": 1.3740814002,
				"y": 0.7179447229,
				"z": -0.2669782717,
				"element": "C" 
			},
			{
				"x": 1.1865775294,
				"y": -0.6061328765,
				"z": 0.1209363877,
				"element": "C" 
			},
			{
				"x": 0.6940087509,
				"y": 3.0806224104,
				"z": -0.1815744027,
				"element": "C" 
			},
			{
				"x": 0.8500887976,
				"y": 4.192584642,
				"z": -0.4851619318,
				"element": "N" 
			},
			{
				"x": -2.1931303665,
				"y": -1.6189891577,
				"z": -1.0243459488,
				"element": "H" 
			},
			{
				"x": -1.2822373617,
				"y": -4.2863007986,
				"z": -1.6575301476,
				"element": "H" 
			},
			{
				"x": 0.3323875086,
				"y": -3.8224645138,
				"z": -1.1344794534,
				"element": "H" 
			},
			{
				"x": 0.8477949522,
				"y": -2.9812404486,
				"z": 1.2649177661,
				"element": "H" 
			},
			{
				"x": -0.3744867704,
				"y": -2.4679959164,
				"z": 2.4302432226,
				"element": "H" 
			},
			{
				"x": -1.5568402039,
				"y": -0.2253188012,
				"z": 2.0939464165,
				"element": "H" 
			},
			{
				"x": -1.2275767064,
				"y": 2.1343628092,
				"z": 1.4231001836,
				"element": "H" 
			},
			{
				"x": 2.1898708755,
				"y": 0.9858659902,
				"z": -0.9293653547,
				"element": "H" 
			},
			{
				"x": 1.8700597329,
				"y": -1.3673931933,
				"z": -0.2442267361,
				"element": "H" 
			}
		],
		 "valence_orbital": [ 
			{
				"type": "occ",
				"energy": -0.32019,
				"method": "rhf"
			},
			{
				"type": "occ",
				"energy": -0.29207,
				"method": "rhf"
			},
			{
				"type": "occ",
				"energy": -0.284,
				"method": "rhf"
			},
			{
				"type": "occ",
				"energy": -0.2704,
				"method": "rhf"
			},
			{
				"type": "occ",
				"energy": -0.25659,
				"method": "rhf"
			},
			{
				"type": "unocc",
				"energy": -0.06519,
				"method": "rhf"
			},
			{
				"type": "unocc",
				"energy": -0.03576,
				"method": "rhf"
			},
			{
				"type": "unocc",
				"energy": -0.0043,
				"method": "rhf"
			},
			{
				"type": "unocc",
				"energy": 0.01317,
				"method": "rhf"
			},
			{
				"type": "unocc",
				"energy": 0.03346,
				"method": "rhf"
			}
		],
		"cosmo_sigma_profile": { 
			"-0.025": 0.0,
			"-0.024": 0.0,
			"-0.023": 0.0,
			"-0.022": 0.0,
			"-0.021": 0.0,
			"-0.02": 0.0,
			"-0.019": 0.00048557961186,
			"-0.018": 0.0158215949338,
			"-0.017": 2.57014543348e-05,
			"-0.016": 0.0427521479308,
			"-0.015": 0.052662897787,
			"-0.014": 0.0780982832079,
			"-0.013": 0.195082728359,
			"-0.012": 0.42846823386,
			"-0.011": 1.22197723829,
			"-0.01": 2.68638812833,
			"-0.009": 5.89352210154,
			"-0.008": 13.2152154475,
			"-0.007": 18.9943622721,
			"-0.006": 17.399224376,
			"-0.005": 13.2346720281,
			"-0.004": 13.2401334447,
			"-0.003": 11.9602545184,
			"-0.002": 11.3978292919,
			"-0.001": 14.0317117556,
			"0.0": 11.7248297997,
			"0.001": 12.173668628,
			"0.002": 14.3005170859,
			"0.003": 12.0738640234,
			"0.004": 8.6594063744,
			"0.005": 7.21890672253,
			"0.006": 7.00195737421,
			"0.007": 5.91752146217,
			"0.008": 7.43554453915,
			"0.009": 6.81823266284,
			"0.01": 7.85903347241,
			"0.011": 7.21548766782,
			"0.012": 7.84828446151,
			"0.013": 3.34832057567,
			"0.014": 0.0751690996321,
			"0.015": 0.0,
			"0.016": 0.0,
			"0.017": 0.0,
			"0.018": 0.0,
			"0.019": 0.0,
			"0.02": 0.0,
			"0.021": 0.0,
			"0.022": 0.0,
			"0.023": 0.0,
			"0.024": 0.0,
			"0.025": 0.0
		}
	}
}
