{
	 "smiles": "COC1=CC=C(C=C1)C(=O)C1=C(Cl)C=CC=C1", 
	 "Tm": 351.15, 
	 "num_atms": 28, 
	 "gaussian": { 
		 "optdone": 1, 
		 "sigma_profile": "yes", 
		 "theory": "DFT", 
		 "functional": "B3LYP", 
		 "basiset": "6-31G**", 
		 "properties": { 
			 "R2extent": 5441.4486, 
			 "electric_dipole_moment_norm": 2.79101675022, 
			 "electric_quadrupole_moment_norm": 24.4361086264, 
			 "total_energy": -1150.74584116, 
			 "HOMO_LUMO_gap": 0.17275, 
			 "cosmo_polarized_energy": -11.47, 
			 "cosmo_cavitation_energy": 34.21, 
			 "cosmo_dispersion_energy": -24.42, 
			 "cosmo_repulsion_energy": 1.89, 
			 "cosmo_total_nonelectrostatic_energy": 11.68, 
			 "SMD_solvation_energy": 6.8 
		},
		"coords": [
			{
				"x": -4.4243231462,
				"y": 2.6980604331,
				"z": 0.0109723619,
				"element": "C" 
			},
			{
				"x": -3.4625694402,
				"y": 2.0741478041,
				"z": 0.8516667821,
				"element": "O" 
			},
			{
				"x": -2.4503641987,
				"y": 1.3754676488,
				"z": 0.2757167529,
				"element": "C" 
			},
			{
				"x": -1.536760621,
				"y": 0.7849894171,
				"z": 1.1652593977,
				"element": "C" 
			},
			{
				"x": -0.4642587672,
				"y": 0.0563041723,
				"z": 0.6769763375,
				"element": "C" 
			},
			{
				"x": -0.2776698129,
				"y": -0.109633691,
				"z": -0.7077944994,
				"element": "C" 
			},
			{
				"x": -1.2041284875,
				"y": 0.4743413656,
				"z": -1.5838631098,
				"element": "C" 
			},
			{
				"x": -2.2794089027,
				"y": 1.2171384301,
				"z": -1.1091618918,
				"element": "C" 
			},
			{
				"x": 0.821261881,
				"y": -0.9238088485,
				"z": -1.2858803387,
				"element": "C" 
			},
			{
				"x": 0.8270755618,
				"y": -1.2507960742,
				"z": -2.4665128883,
				"element": "O" 
			},
			{
				"x": 1.9263536884,
				"y": -1.4491070311,
				"z": -0.3912942186,
				"element": "C" 
			},
			{
				"x": 2.8505212978,
				"y": -0.652472771,
				"z": 0.2974570172,
				"element": "C" 
			},
			{
				"x": 2.7976832554,
				"y": 1.1040073352,
				"z": 0.1725424949,
				"element": "Cl" 
			},
			{
				"x": 3.8725686674,
				"y": -1.2187625845,
				"z": 1.0616265164,
				"element": "C" 
			},
			{
				"x": 3.9799327711,
				"y": -2.6056488389,
				"z": 1.1478217807,
				"element": "C" 
			},
			{
				"x": 3.083178664,
				"y": -3.4211174997,
				"z": 0.4546935909,
				"element": "C" 
			},
			{
				"x": 2.0783834003,
				"y": -2.8425282702,
				"z": -0.3155408571,
				"element": "C" 
			},
			{
				"x": -3.9613209553,
				"y": 3.444915795,
				"z": -0.6455813871,
				"element": "H" 
			},
			{
				"x": -4.961980202,
				"y": 1.9631677723,
				"z": -0.6007298278,
				"element": "H" 
			},
			{
				"x": -5.1289696846,
				"y": 3.194146313,
				"z": 0.6796052723,
				"element": "H" 
			},
			{
				"x": -1.6946354568,
				"y": 0.9159711041,
				"z": 2.2304733799,
				"element": "H" 
			},
			{
				"x": 0.2315486916,
				"y": -0.3972348397,
				"z": 1.3751600544,
				"element": "H" 
			},
			{
				"x": -1.0613454181,
				"y": 0.3319138318,
				"z": -2.649940231,
				"element": "H" 
			},
			{
				"x": -2.9735307023,
				"y": 1.6630274976,
				"z": -1.8113784756,
				"element": "H" 
			},
			{
				"x": 4.5777728966,
				"y": -0.5721643314,
				"z": 1.5720842995,
				"element": "H" 
			},
			{
				"x": 4.7721304099,
				"y": -3.0444512256,
				"z": 1.7470048264,
				"element": "H" 
			},
			{
				"x": 3.1721099391,
				"y": -4.5017965863,
				"z": 0.5069763731,
				"element": "H" 
			},
			{
				"x": 1.388744671,
				"y": -3.464476328,
				"z": -0.8775595125,
				"element": "H" 
			}
		],
		 "valence_orbital": [ 
			{
				"type": "occ",
				"energy": -0.26891,
				"method": "rhf"
			},
			{
				"type": "occ",
				"energy": -0.2604,
				"method": "rhf"
			},
			{
				"type": "occ",
				"energy": -0.25085,
				"method": "rhf"
			},
			{
				"type": "occ",
				"energy": -0.24394,
				"method": "rhf"
			},
			{
				"type": "occ",
				"energy": -0.22852,
				"method": "rhf"
			},
			{
				"type": "unocc",
				"energy": -0.05577,
				"method": "rhf"
			},
			{
				"type": "unocc",
				"energy": -0.01698,
				"method": "rhf"
			},
			{
				"type": "unocc",
				"energy": -0.01437,
				"method": "rhf"
			},
			{
				"type": "unocc",
				"energy": -0.00687,
				"method": "rhf"
			},
			{
				"type": "unocc",
				"energy": 0.02915,
				"method": "rhf"
			}
		],
		"cosmo_sigma_profile": { 
			"-0.025": 0.0,
			"-0.024": 0.0,
			"-0.023": 0.0,
			"-0.022": 0.0,
			"-0.021": 0.0,
			"-0.02": 0.0,
			"-0.019": 0.0,
			"-0.018": 0.0,
			"-0.017": 0.0,
			"-0.016": 0.0,
			"-0.015": 0.0,
			"-0.014": 0.0,
			"-0.013": 0.0,
			"-0.012": 0.0,
			"-0.011": 0.0,
			"-0.01": 0.0,
			"-0.009": 0.0,
			"-0.008": 0.410132736596,
			"-0.007": 9.30002956095,
			"-0.006": 21.7535914115,
			"-0.005": 24.3177887074,
			"-0.004": 22.5971478733,
			"-0.003": 18.0339042684,
			"-0.002": 14.8056023892,
			"-0.001": 16.2570271506,
			"0.0": 17.5422813101,
			"0.001": 20.1514009318,
			"0.002": 26.360872471,
			"0.003": 30.9570112604,
			"0.004": 22.4819719644,
			"0.005": 7.94706563579,
			"0.006": 3.79536126565,
			"0.007": 3.15052725364,
			"0.008": 2.80199622406,
			"0.009": 2.98659157708,
			"0.01": 3.01352603378,
			"0.011": 2.96074492935,
			"0.012": 3.7858036604,
			"0.013": 0.964271116852,
			"0.014": 0.0156288517228,
			"0.015": 0.0,
			"0.016": 0.0,
			"0.017": 0.0,
			"0.018": 0.0,
			"0.019": 0.0,
			"0.02": 0.0,
			"0.021": 0.0,
			"0.022": 0.0,
			"0.023": 0.0,
			"0.024": 0.0,
			"0.025": 0.0
		}
	}
}
