{
	 "smiles": "ClC(C1=NC(=NO1)C1=CC=CC=C1)C1=CC=CC=C1", 
	 "Tm": 348.15, 
	 "num_atms": 30, 
	 "gaussian": { 
		 "optdone": 1, 
		 "sigma_profile": "yes", 
		 "theory": "DFT", 
		 "functional": "B3LYP", 
		 "basiset": "6-31G**", 
		 "properties": { 
			 "R2extent": 8102.1257, 
			 "electric_dipole_moment_norm": 2.7688125722, 
			 "electric_quadrupole_moment_norm": 19.011071751, 
			 "total_energy": -1223.11113606, 
			 "HOMO_LUMO_gap": 0.1845, 
			 "cosmo_polarized_energy": -9.91, 
			 "cosmo_cavitation_energy": 37.12, 
			 "cosmo_dispersion_energy": -26.78, 
			 "cosmo_repulsion_energy": 2.06, 
			 "cosmo_total_nonelectrostatic_energy": 12.4, 
			 "SMD_solvation_energy": 3.9 
		},
		"coords": [
			{
				"x": -2.3040953435,
				"y": -1.0767397449,
				"z": 3.2975204936,
				"element": "Cl" 
			},
			{
				"x": -1.2663978094,
				"y": -1.0398177443,
				"z": 1.7724742993,
				"element": "C" 
			},
			{
				"x": -0.8904189242,
				"y": 0.3794386809,
				"z": 1.4845403812,
				"element": "C" 
			},
			{
				"x": 0.3137364322,
				"y": 0.8655278453,
				"z": 1.4787777671,
				"element": "N" 
			},
			{
				"x": 0.0991772535,
				"y": 2.1890448272,
				"z": 1.1339854844,
				"element": "C" 
			},
			{
				"x": -1.1669357038,
				"y": 2.4933366924,
				"z": 0.9439003681,
				"element": "N" 
			},
			{
				"x": -1.8345521476,
				"y": 1.2812365031,
				"z": 1.1772451841,
				"element": "O" 
			},
			{
				"x": 1.1867541582,
				"y": 3.1660889817,
				"z": 0.995154126,
				"element": "C" 
			},
			{
				"x": 2.5115928241,
				"y": 2.7649781416,
				"z": 1.2176505959,
				"element": "C" 
			},
			{
				"x": 3.5498136466,
				"y": 3.6861422774,
				"z": 1.0877326813,
				"element": "C" 
			},
			{
				"x": 3.2745622881,
				"y": 5.0089708171,
				"z": 0.7363512281,
				"element": "C" 
			},
			{
				"x": 1.9540878542,
				"y": 5.4112869569,
				"z": 0.5142162448,
				"element": "C" 
			},
			{
				"x": 0.9122785873,
				"y": 4.497128825,
				"z": 0.6420645263,
				"element": "C" 
			},
			{
				"x": -1.9341448116,
				"y": -1.7706208573,
				"z": 0.6315113324,
				"element": "C" 
			},
			{
				"x": -3.1050191405,
				"y": -1.291299042,
				"z": 0.0266245913,
				"element": "C" 
			},
			{
				"x": -3.6847038033,
				"y": -1.9954682533,
				"z": -1.0262351574,
				"element": "C" 
			},
			{
				"x": -3.1054420711,
				"y": -3.1814604443,
				"z": -1.4861985402,
				"element": "C" 
			},
			{
				"x": -1.9421821864,
				"y": -3.6636207272,
				"z": -0.8865489126,
				"element": "C" 
			},
			{
				"x": -1.360359096,
				"y": -2.9611205433,
				"z": 0.169640157,
				"element": "C" 
			},
			{
				"x": -0.3419648833,
				"y": -1.5434876595,
				"z": 2.0510901813,
				"element": "H" 
			},
			{
				"x": 2.7122794295,
				"y": 1.7347891489,
				"z": 1.4907652947,
				"element": "H" 
			},
			{
				"x": 4.5742760207,
				"y": 3.3703954848,
				"z": 1.2615067585,
				"element": "H" 
			},
			{
				"x": 4.084945812,
				"y": 5.7252184914,
				"z": 0.6358441197,
				"element": "H" 
			},
			{
				"x": 1.7370431436,
				"y": 6.4397218649,
				"z": 0.241145324,
				"element": "H" 
			},
			{
				"x": -0.1148444941,
				"y": 4.802378605,
				"z": 0.4716565374,
				"element": "H" 
			},
			{
				"x": -3.5597119439,
				"y": -0.3727361622,
				"z": 0.3815971754,
				"element": "H" 
			},
			{
				"x": -4.5913294412,
				"y": -1.6176408417,
				"z": -1.4893607918,
				"element": "H" 
			},
			{
				"x": -3.561015882,
				"y": -3.7265188783,
				"z": -2.3077202332,
				"element": "H" 
			},
			{
				"x": -1.4871301943,
				"y": -4.5852071144,
				"z": -1.2369392951,
				"element": "H" 
			},
			{
				"x": -0.455599574,
				"y": -3.3400461311,
				"z": 0.6377080784,
				"element": "H" 
			}
		],
		 "valence_orbital": [ 
			{
				"type": "occ",
				"energy": -0.30032,
				"method": "rhf"
			},
			{
				"type": "occ",
				"energy": -0.2641,
				"method": "rhf"
			},
			{
				"type": "occ",
				"energy": -0.26064,
				"method": "rhf"
			},
			{
				"type": "occ",
				"energy": -0.25871,
				"method": "rhf"
			},
			{
				"type": "occ",
				"energy": -0.24628,
				"method": "rhf"
			},
			{
				"type": "unocc",
				"energy": -0.06178,
				"method": "rhf"
			},
			{
				"type": "unocc",
				"energy": -0.0396,
				"method": "rhf"
			},
			{
				"type": "unocc",
				"energy": -0.01492,
				"method": "rhf"
			},
			{
				"type": "unocc",
				"energy": -0.00922,
				"method": "rhf"
			},
			{
				"type": "unocc",
				"energy": -0.00091,
				"method": "rhf"
			}
		],
		"cosmo_sigma_profile": { 
			"-0.025": 0.0,
			"-0.024": 0.0,
			"-0.023": 0.0,
			"-0.022": 0.0,
			"-0.021": 0.0,
			"-0.02": 0.0,
			"-0.019": 0.0,
			"-0.018": 0.0,
			"-0.017": 0.0,
			"-0.016": 0.0,
			"-0.015": 0.0,
			"-0.014": 0.0,
			"-0.013": 0.0,
			"-0.012": 0.0,
			"-0.011": 0.0247486222738,
			"-0.01": 2.09605891388,
			"-0.009": 1.86859874278,
			"-0.008": 2.21741991465,
			"-0.007": 5.25632493018,
			"-0.006": 18.4557521718,
			"-0.005": 21.8432064709,
			"-0.004": 24.3389436062,
			"-0.003": 17.5327347573,
			"-0.002": 20.1502970757,
			"-0.001": 19.0203183956,
			"0.0": 21.5889770722,
			"0.001": 25.1583386935,
			"0.002": 24.6912642835,
			"0.003": 26.5660553165,
			"0.004": 35.5311980996,
			"0.005": 18.8653876076,
			"0.006": 5.41390130372,
			"0.007": 1.75642296608,
			"0.008": 2.16107060153,
			"0.009": 2.85603092371,
			"0.01": 1.82377143141,
			"0.011": 1.64046213784,
			"0.012": 0.460908296644,
			"0.013": 0.0,
			"0.014": 0.0,
			"0.015": 0.0,
			"0.016": 0.0,
			"0.017": 0.0,
			"0.018": 0.0,
			"0.019": 0.0,
			"0.02": 0.0,
			"0.021": 0.0,
			"0.022": 0.0,
			"0.023": 0.0,
			"0.024": 0.0,
			"0.025": 0.0
		}
	}
}
