{
	 "smiles": "NCCCNC1CCCCC1", 
	 "Tm": 255.15, 
	 "num_atms": 31, 
	 "gaussian": { 
		 "optdone": 1, 
		 "sigma_profile": "yes", 
		 "theory": "DFT", 
		 "functional": "B3LYP", 
		 "basiset": "6-31G**", 
		 "properties": { 
			 "R2extent": 3004.5672, 
			 "electric_dipole_moment_norm": 1.23080939223, 
			 "electric_quadrupole_moment_norm": 7.90871824697, 
			 "total_energy": -464.524461381, 
			 "HOMO_LUMO_gap": 0.28186, 
			 "cosmo_polarized_energy": -7.88, 
			 "cosmo_cavitation_energy": 30.2, 
			 "cosmo_dispersion_energy": -22.06, 
			 "cosmo_repulsion_energy": 1.82, 
			 "cosmo_total_nonelectrostatic_energy": 9.96, 
			 "SMD_solvation_energy": 0.75 
		},
		"coords": [
			{
				"x": -2.9757157894,
				"y": -1.4393849182,
				"z": 2.3375573646,
				"element": "N" 
			},
			{
				"x": -2.1882205511,
				"y": -2.4613309705,
				"z": 1.6417740939,
				"element": "C" 
			},
			{
				"x": -2.0794252807,
				"y": -2.3356542347,
				"z": 0.1082892066,
				"element": "C" 
			},
			{
				"x": -1.401952762,
				"y": -1.0568306046,
				"z": -0.3973631123,
				"element": "C" 
			},
			{
				"x": 0.0232482456,
				"y": -1.0314092056,
				"z": -0.0722217879,
				"element": "N" 
			},
			{
				"x": 0.7289292333,
				"y": 0.1984059745,
				"z": -0.4498796581,
				"element": "C" 
			},
			{
				"x": 0.9725938935,
				"y": 0.2566930138,
				"z": -1.9688885179,
				"element": "C" 
			},
			{
				"x": 1.790927546,
				"y": 1.4941898746,
				"z": -2.3701101055,
				"element": "C" 
			},
			{
				"x": 3.1230426069,
				"y": 1.5610369178,
				"z": -1.6093175573,
				"element": "C" 
			},
			{
				"x": 2.896634131,
				"y": 1.4963918424,
				"z": -0.091584865,
				"element": "C" 
			},
			{
				"x": 2.0685514833,
				"y": 0.2639295897,
				"z": 0.3005597252,
				"element": "C" 
			},
			{
				"x": -2.576096906,
				"y": -0.5169600581,
				"z": 2.1819695494,
				"element": "H" 
			},
			{
				"x": -3.9167858601,
				"y": -1.4067527494,
				"z": 1.9503360662,
				"element": "H" 
			},
			{
				"x": -2.6268924048,
				"y": -3.4377762365,
				"z": 1.880228705,
				"element": "H" 
			},
			{
				"x": -1.1876318353,
				"y": -2.4746824637,
				"z": 2.0935754147,
				"element": "H" 
			},
			{
				"x": -1.5282472766,
				"y": -3.1993226188,
				"z": -0.2848012263,
				"element": "H" 
			},
			{
				"x": -3.0918171323,
				"y": -2.3830780622,
				"z": -0.3163804319,
				"element": "H" 
			},
			{
				"x": -1.9443387128,
				"y": -0.1709738124,
				"z": -0.0070939332,
				"element": "H" 
			},
			{
				"x": -1.5101303063,
				"y": -1.0157387198,
				"z": -1.4866743894,
				"element": "H" 
			},
			{
				"x": 0.1336717614,
				"y": -1.1632290916,
				"z": 0.9304815413,
				"element": "H" 
			},
			{
				"x": 0.1408152353,
				"y": 1.0981785028,
				"z": -0.1705864702,
				"element": "H" 
			},
			{
				"x": 1.5046378479,
				"y": -0.6587347357,
				"z": -2.2603186863,
				"element": "H" 
			},
			{
				"x": 0.0192249455,
				"y": 0.252427102,
				"z": -2.5095920421,
				"element": "H" 
			},
			{
				"x": 1.9690805601,
				"y": 1.4889206152,
				"z": -3.4519918585,
				"element": "H" 
			},
			{
				"x": 1.2077154136,
				"y": 2.4016680507,
				"z": -2.1572742771,
				"element": "H" 
			},
			{
				"x": 3.6692024814,
				"y": 2.4745354312,
				"z": -1.8738315936,
				"element": "H" 
			},
			{
				"x": 3.7567538168,
				"y": 0.7169640586,
				"z": -1.9162467939,
				"element": "H" 
			},
			{
				"x": 3.8562188448,
				"y": 1.4857306549,
				"z": 0.438802657,
				"element": "H" 
			},
			{
				"x": 2.371798497,
				"y": 2.4055751177,
				"z": 0.2344032482,
				"element": "H" 
			},
			{
				"x": 1.884780206,
				"y": 0.2634993774,
				"z": 1.3840147248,
				"element": "H" 
			},
			{
				"x": 2.6313280679,
				"y": -0.6523876415,
				"z": 0.0758650095,
				"element": "H" 
			}
		],
		 "valence_orbital": [ 
			{
				"type": "occ",
				"energy": -0.31567,
				"method": "rhf"
			},
			{
				"type": "occ",
				"energy": -0.30063,
				"method": "rhf"
			},
			{
				"type": "occ",
				"energy": -0.29274,
				"method": "rhf"
			},
			{
				"type": "occ",
				"energy": -0.23167,
				"method": "rhf"
			},
			{
				"type": "occ",
				"energy": -0.21652,
				"method": "rhf"
			},
			{
				"type": "unocc",
				"energy": 0.06534,
				"method": "rhf"
			},
			{
				"type": "unocc",
				"energy": 0.0889,
				"method": "rhf"
			},
			{
				"type": "unocc",
				"energy": 0.10064,
				"method": "rhf"
			},
			{
				"type": "unocc",
				"energy": 0.10779,
				"method": "rhf"
			},
			{
				"type": "unocc",
				"energy": 0.11926,
				"method": "rhf"
			}
		],
		"cosmo_sigma_profile": { 
			"-0.025": 0.0,
			"-0.024": 0.0,
			"-0.023": 0.0,
			"-0.022": 0.0,
			"-0.021": 0.0,
			"-0.02": 0.0,
			"-0.019": 0.0,
			"-0.018": 0.0,
			"-0.017": 0.0,
			"-0.016": 0.0,
			"-0.015": 0.0,
			"-0.014": 0.0,
			"-0.013": 0.0,
			"-0.012": 0.0,
			"-0.011": 0.0,
			"-0.01": 0.0618483976292,
			"-0.009": 1.18584825202,
			"-0.008": 4.47796719062,
			"-0.007": 5.0976778348,
			"-0.006": 5.11301935618,
			"-0.005": 5.61621770028,
			"-0.004": 5.89488725411,
			"-0.003": 12.0520392709,
			"-0.002": 29.3374799323,
			"-0.001": 42.7206177743,
			"0.0": 50.9729345677,
			"0.001": 32.1285642646,
			"0.002": 9.34565619631,
			"0.003": 2.84129078955,
			"0.004": 3.59957635297,
			"0.005": 1.60911475665,
			"0.006": 1.49109279566,
			"0.007": 1.55422631804,
			"0.008": 1.44778115004,
			"0.009": 1.79597198645,
			"0.01": 1.63288471643,
			"0.011": 1.0671545307,
			"0.012": 1.73276108454,
			"0.013": 1.3477016516,
			"0.014": 0.821585340005,
			"0.015": 1.18949494213,
			"0.016": 0.897520093228,
			"0.017": 1.18063805758,
			"0.018": 0.933825627567,
			"0.019": 0.804714916194,
			"0.02": 0.470237461189,
			"0.021": 0.0273178008101,
			"0.022": 0.0,
			"0.023": 0.0,
			"0.024": 0.0,
			"0.025": 0.0
		}
	}
}
