{
	 "smiles": "CC(C)OC1=CC(=CC=C1)C(O)CN", 
	 "Tm": 326.15, 
	 "num_atms": 31, 
	 "gaussian": { 
		 "optdone": 1, 
		 "sigma_profile": "yes", 
		 "theory": "DFT", 
		 "functional": "B3LYP", 
		 "basiset": "6-31G**", 
		 "properties": { 
			 "R2extent": 3770.6496, 
			 "electric_dipole_moment_norm": 1.37771591048, 
			 "electric_quadrupole_moment_norm": 7.54807128875, 
			 "total_energy": -634.608896003, 
			 "HOMO_LUMO_gap": 0.21118, 
			 "cosmo_polarized_energy": -11.38, 
			 "cosmo_cavitation_energy": 32.98, 
			 "cosmo_dispersion_energy": -23.19, 
			 "cosmo_repulsion_energy": 1.89, 
			 "cosmo_total_nonelectrostatic_energy": 11.69, 
			 "SMD_solvation_energy": 4.77 
		},
		"coords": [
			{
				"x": -2.3750905978,
				"y": 2.0838363921,
				"z": -0.0157646419,
				"element": "C" 
			},
			{
				"x": -0.8828314513,
				"y": 2.1601416948,
				"z": -0.3413198208,
				"element": "C" 
			},
			{
				"x": -0.4454388482,
				"y": 3.5610902637,
				"z": -0.7550685462,
				"element": "C" 
			},
			{
				"x": -0.094391908,
				"y": 1.8349758221,
				"z": 0.8182377171,
				"element": "O" 
			},
			{
				"x": 0.1028316799,
				"y": 0.5355643057,
				"z": 1.1873640992,
				"element": "C" 
			},
			{
				"x": -0.3744457355,
				"y": -0.5838566262,
				"z": 0.49357639,
				"element": "C" 
			},
			{
				"x": -0.0890893765,
				"y": -1.8780973544,
				"z": 0.9566956416,
				"element": "C" 
			},
			{
				"x": 0.6672974441,
				"y": -2.0505253594,
				"z": 2.1193822386,
				"element": "C" 
			},
			{
				"x": 1.1325975414,
				"y": -0.9295039824,
				"z": 2.8135447554,
				"element": "C" 
			},
			{
				"x": 0.8571073627,
				"y": 0.3543977633,
				"z": 2.3580457583,
				"element": "C" 
			},
			{
				"x": -0.5846187921,
				"y": -3.0835500897,
				"z": 0.1704779345,
				"element": "C" 
			},
			{
				"x": -0.809449654,
				"y": -4.2179787334,
				"z": 1.0035527476,
				"element": "O" 
			},
			{
				"x": 0.4266420145,
				"y": -3.5507926412,
				"z": -0.8892214354,
				"element": "C" 
			},
			{
				"x": 0.6397140226,
				"y": -2.5139702858,
				"z": -1.9004079778,
				"element": "N" 
			},
			{
				"x": -2.6615874433,
				"y": 1.0853785997,
				"z": 0.3242730094,
				"element": "H" 
			},
			{
				"x": -2.9720300344,
				"y": 2.3272436592,
				"z": -0.9007629536,
				"element": "H" 
			},
			{
				"x": -2.6223156659,
				"y": 2.7984447625,
				"z": 0.7756969706,
				"element": "H" 
			},
			{
				"x": -0.6369064307,
				"y": 1.4581122644,
				"z": -1.1491802451,
				"element": "H" 
			},
			{
				"x": -0.6431552949,
				"y": 4.2749485216,
				"z": 0.0507117137,
				"element": "H" 
			},
			{
				"x": -0.9924445789,
				"y": 3.883808736,
				"z": -1.6461891033,
				"element": "H" 
			},
			{
				"x": 0.6250301809,
				"y": 3.5806350534,
				"z": -0.9763927256,
				"element": "H" 
			},
			{
				"x": -0.9669388441,
				"y": -0.4761853602,
				"z": -0.4073498609,
				"element": "H" 
			},
			{
				"x": 0.8787392328,
				"y": -3.0539443033,
				"z": 2.4734841703,
				"element": "H" 
			},
			{
				"x": 1.7171782366,
				"y": -1.0590727115,
				"z": 3.7204051565,
				"element": "H" 
			},
			{
				"x": 1.2111194593,
				"y": 1.2339427957,
				"z": 2.8857960047,
				"element": "H" 
			},
			{
				"x": -1.5059122127,
				"y": -2.8014397356,
				"z": -0.3624009346,
				"element": "H" 
			},
			{
				"x": -1.3822483358,
				"y": -3.937416474,
				"z": 1.7292456556,
				"element": "H" 
			},
			{
				"x": 1.3377858802,
				"y": -3.8810166577,
				"z": -0.3632376793,
				"element": "H" 
			},
			{
				"x": -0.0020239222,
				"y": -4.4323541667,
				"z": -1.3777329363,
				"element": "H" 
			},
			{
				"x": 1.1728437101,
				"y": -2.89648687,
				"z": -2.6762040482,
				"element": "H" 
			},
			{
				"x": 1.2003323611,
				"y": -1.7618292825,
				"z": -1.5071570541,
				"element": "H" 
			}
		],
		 "valence_orbital": [ 
			{
				"type": "occ",
				"energy": -0.30548,
				"method": "rhf"
			},
			{
				"type": "occ",
				"energy": -0.27052,
				"method": "rhf"
			},
			{
				"type": "occ",
				"energy": -0.24243,
				"method": "rhf"
			},
			{
				"type": "occ",
				"energy": -0.23258,
				"method": "rhf"
			},
			{
				"type": "occ",
				"energy": -0.21312,
				"method": "rhf"
			},
			{
				"type": "unocc",
				"energy": -0.00194,
				"method": "rhf"
			},
			{
				"type": "unocc",
				"energy": 0.01414,
				"method": "rhf"
			},
			{
				"type": "unocc",
				"energy": 0.08595,
				"method": "rhf"
			},
			{
				"type": "unocc",
				"energy": 0.09097,
				"method": "rhf"
			},
			{
				"type": "unocc",
				"energy": 0.10016,
				"method": "rhf"
			}
		],
		"cosmo_sigma_profile": { 
			"-0.025": 0.0,
			"-0.024": 0.0,
			"-0.023": 0.0,
			"-0.022": 0.0,
			"-0.021": 0.0,
			"-0.02": 0.0,
			"-0.019": 0.0,
			"-0.018": 0.0,
			"-0.017": 0.0,
			"-0.016": 0.0141010704409,
			"-0.015": 0.595838631694,
			"-0.014": 1.05499542939,
			"-0.013": 0.554386060335,
			"-0.012": 0.881835161963,
			"-0.011": 0.777641371102,
			"-0.01": 1.94066955623,
			"-0.009": 2.71742100786,
			"-0.008": 2.43754264569,
			"-0.007": 3.35661194941,
			"-0.006": 6.22356316032,
			"-0.005": 10.3398241353,
			"-0.004": 21.3436735601,
			"-0.003": 30.5588664743,
			"-0.002": 27.4083429685,
			"-0.001": 25.6867651474,
			"0.0": 25.6436488798,
			"0.001": 18.1232625357,
			"0.002": 11.1077588768,
			"0.003": 10.1566509227,
			"0.004": 11.6417190865,
			"0.005": 10.7653180871,
			"0.006": 10.166876135,
			"0.007": 3.80673038907,
			"0.008": 3.55389114633,
			"0.009": 3.2038501527,
			"0.01": 2.72534605029,
			"0.011": 2.13594969441,
			"0.012": 2.17062891327,
			"0.013": 1.81792618718,
			"0.014": 1.80480346748,
			"0.015": 0.758256317805,
			"0.016": 0.506158818781,
			"0.017": 0.469681119605,
			"0.018": 0.252695722546,
			"0.019": 0.435527193126,
			"0.02": 0.0,
			"0.021": 0.0,
			"0.022": 0.0,
			"0.023": 0.0,
			"0.024": 0.0,
			"0.025": 0.0
		}
	}
}
