{
	 "smiles": "CC1=CC=C(Br)C(O)=C1C(O)=O", 
	 "Tm": 330.15, 
	 "num_atms": 19, 
	 "gaussian": { 
		 "optdone": 1, 
		 "sigma_profile": "yes", 
		 "theory": "DFT", 
		 "functional": "B3LYP", 
		 "basiset": "6-31G**", 
		 "properties": { 
			 "R2extent": 4639.2528, 
			 "electric_dipole_moment_norm": 1.46379349295, 
			 "electric_quadrupole_moment_norm": 8.01552964688, 
			 "total_energy": -3106.16001338, 
			 "HOMO_LUMO_gap": 0.18918, 
			 "cosmo_polarized_energy": -11.18, 
			 "cosmo_cavitation_energy": 25.4, 
			 "cosmo_dispersion_energy": -19.35, 
			 "cosmo_repulsion_energy": 1.54, 
			 "cosmo_total_nonelectrostatic_energy": 7.59, 
			 "SMD_solvation_energy": 4.76 
		},
		"coords": [
			{
				"x": 1.5513301862,
				"y": 0.5514078934,
				"z": 0.7498348977,
				"element": "C" 
			},
			{
				"x": 0.4537719716,
				"y": -0.3903502849,
				"z": 0.3123785277,
				"element": "C" 
			},
			{
				"x": -0.3120929673,
				"y": -1.0363451798,
				"z": 1.2887859823,
				"element": "C" 
			},
			{
				"x": -1.3463960751,
				"y": -1.9023447039,
				"z": 0.9430379134,
				"element": "C" 
			},
			{
				"x": -1.6217475279,
				"y": -2.1315194926,
				"z": -0.3963466692,
				"element": "C" 
			},
			{
				"x": -3.0569300207,
				"y": -3.3020283103,
				"z": -0.8977834424,
				"element": "Br" 
			},
			{
				"x": -0.8718385183,
				"y": -1.5188198035,
				"z": -1.4137316489,
				"element": "C" 
			},
			{
				"x": -1.1498350074,
				"y": -1.7063530349,
				"z": -2.7210323544,
				"element": "O" 
			},
			{
				"x": 0.181609803,
				"y": -0.6499080464,
				"z": -1.0501111348,
				"element": "C" 
			},
			{
				"x": 0.9978009571,
				"y": 0.033654807,
				"z": -2.1009934455,
				"element": "C" 
			},
			{
				"x": 1.340933868,
				"y": -0.7726445738,
				"z": -3.1279974634,
				"element": "O" 
			},
			{
				"x": 1.366662536,
				"y": 1.190559826,
				"z": -2.0417182188,
				"element": "O" 
			},
			{
				"x": 1.6849728255,
				"y": 0.4970840667,
				"z": 1.8330849598,
				"element": "H" 
			},
			{
				"x": 1.3164774785,
				"y": 1.5818534104,
				"z": 0.4722678674,
				"element": "H" 
			},
			{
				"x": 2.5073371521,
				"y": 0.3154273798,
				"z": 0.2730388495,
				"element": "H" 
			},
			{
				"x": -0.098842988,
				"y": -0.856656428,
				"z": 2.3376640763,
				"element": "H" 
			},
			{
				"x": -1.9386001521,
				"y": -2.3924823871,
				"z": 1.7076896662,
				"element": "H" 
			},
			{
				"x": -1.907486401,
				"y": -2.3107871969,
				"z": -2.7894170966,
				"element": "H" 
			},
			{
				"x": 1.8475728798,
				"y": -0.2128479412,
				"z": -3.7406512663,
				"element": "H" 
			}
		],
		 "valence_orbital": [ 
			{
				"type": "occ",
				"energy": -0.31451,
				"method": "rhf"
			},
			{
				"type": "occ",
				"energy": -0.31096,
				"method": "rhf"
			},
			{
				"type": "occ",
				"energy": -0.27849,
				"method": "rhf"
			},
			{
				"type": "occ",
				"energy": -0.2544,
				"method": "rhf"
			},
			{
				"type": "occ",
				"energy": -0.23408,
				"method": "rhf"
			},
			{
				"type": "unocc",
				"energy": -0.0449,
				"method": "rhf"
			},
			{
				"type": "unocc",
				"energy": -0.00987,
				"method": "rhf"
			},
			{
				"type": "unocc",
				"energy": -0.00572,
				"method": "rhf"
			},
			{
				"type": "unocc",
				"energy": 0.03552,
				"method": "rhf"
			},
			{
				"type": "unocc",
				"energy": 0.08311,
				"method": "rhf"
			}
		],
		"cosmo_sigma_profile": { 
			"-0.025": 0.0,
			"-0.024": 0.0,
			"-0.023": 0.0,
			"-0.022": 0.0,
			"-0.021": 0.0,
			"-0.02": 0.0,
			"-0.019": 0.0,
			"-0.018": 0.680747703938,
			"-0.017": 1.12308781249,
			"-0.016": 0.851801214832,
			"-0.015": 0.719118472558,
			"-0.014": 0.960482567166,
			"-0.013": 0.930373098561,
			"-0.012": 1.82024042193,
			"-0.011": 2.00199481739,
			"-0.01": 1.45151734344,
			"-0.009": 1.10187620576,
			"-0.008": 1.97206294806,
			"-0.007": 5.37815665236,
			"-0.006": 8.1083013745,
			"-0.005": 9.63305203536,
			"-0.004": 10.6918645276,
			"-0.003": 11.7173033678,
			"-0.002": 14.0294396337,
			"-0.001": 16.830965025,
			"0.0": 20.0278085829,
			"0.001": 18.4368847942,
			"0.002": 19.2723333493,
			"0.003": 17.9327538829,
			"0.004": 9.23097876263,
			"0.005": 2.99228455292,
			"0.006": 3.05379622577,
			"0.007": 3.77295613635,
			"0.008": 4.09129141865,
			"0.009": 3.81273048238,
			"0.01": 3.19943865379,
			"0.011": 5.22571816384,
			"0.012": 4.0472002948,
			"0.013": 0.618384137455,
			"0.014": 0.015860246644,
			"0.015": 0.0,
			"0.016": 0.0,
			"0.017": 0.0,
			"0.018": 0.0,
			"0.019": 0.0,
			"0.02": 0.0,
			"0.021": 0.0,
			"0.022": 0.0,
			"0.023": 0.0,
			"0.024": 0.0,
			"0.025": 0.0
		}
	}
}
