{
	 "smiles": "CC1=NC(=NO1)C1=CC(O)=CC=C1", 
	 "Tm": 400.15, 
	 "num_atms": 21, 
	 "gaussian": { 
		 "optdone": 1, 
		 "sigma_profile": "yes", 
		 "theory": "DFT", 
		 "functional": "B3LYP", 
		 "basiset": "6-31G**", 
		 "properties": { 
			 "R2extent": 2998.1327, 
			 "electric_dipole_moment_norm": 1.71305029407, 
			 "electric_quadrupole_moment_norm": 9.86716060273, 
			 "total_energy": -607.698563881, 
			 "HOMO_LUMO_gap": 0.18033, 
			 "cosmo_polarized_energy": -12.0, 
			 "cosmo_cavitation_energy": 26.1, 
			 "cosmo_dispersion_energy": -19.57, 
			 "cosmo_repulsion_energy": 1.54, 
			 "cosmo_total_nonelectrostatic_energy": 8.07, 
			 "SMD_solvation_energy": 3.54 
		},
		"coords": [
			{
				"x": 0.4449474096,
				"y": 0.7962049707,
				"z": 4.2473809747,
				"element": "C" 
			},
			{
				"x": 0.0780288098,
				"y": 0.4777865391,
				"z": 2.8411670517,
				"element": "C" 
			},
			{
				"x": 0.6021277932,
				"y": 0.932639448,
				"z": 1.7426342472,
				"element": "N" 
			},
			{
				"x": -0.138808916,
				"y": 0.2896810302,
				"z": 0.7663408719,
				"element": "C" 
			},
			{
				"x": -1.0660206461,
				"y": -0.515180069,
				"z": 1.2373448844,
				"element": "N" 
			},
			{
				"x": -0.9261756787,
				"y": -0.3935303683,
				"z": 2.6290655077,
				"element": "O" 
			},
			{
				"x": 0.0889804679,
				"y": 0.4874108969,
				"z": -0.6716061936,
				"element": "C" 
			},
			{
				"x": -0.6995606407,
				"y": -0.197426196,
				"z": -1.6088993503,
				"element": "C" 
			},
			{
				"x": -0.4794991002,
				"y": -0.0062973776,
				"z": -2.9722441681,
				"element": "C" 
			},
			{
				"x": -1.2130326638,
				"y": -0.6433391775,
				"z": -3.931755569,
				"element": "O" 
			},
			{
				"x": 0.52650228,
				"y": 0.8674118965,
				"z": -3.4081539279,
				"element": "C" 
			},
			{
				"x": 1.3032981654,
				"y": 1.5420396721,
				"z": -2.4708396943,
				"element": "C" 
			},
			{
				"x": 1.0946280463,
				"y": 1.3607847735,
				"z": -1.1022975989,
				"element": "C" 
			},
			{
				"x": 1.2682173436,
				"y": 1.5103901959,
				"z": 4.2492279723,
				"element": "H" 
			},
			{
				"x": -0.4089059656,
				"y": 1.2252924561,
				"z": 4.780580074,
				"element": "H" 
			},
			{
				"x": 0.7491127413,
				"y": -0.1096280127,
				"z": 4.7807066243,
				"element": "H" 
			},
			{
				"x": -1.4772600585,
				"y": -0.8728101486,
				"z": -1.262304684,
				"element": "H" 
			},
			{
				"x": -1.8673084783,
				"y": -1.2118105732,
				"z": -3.5047888216,
				"element": "H" 
			},
			{
				"x": 0.6787523847,
				"y": 0.9996298806,
				"z": -4.4741962585,
				"element": "H" 
			},
			{
				"x": 2.0819465516,
				"y": 2.2182695851,
				"z": -2.8112991324,
				"element": "H" 
			},
			{
				"x": 1.6958301544,
				"y": 1.8828805782,
				"z": -0.3673628096,
				"element": "H" 
			}
		],
		 "valence_orbital": [ 
			{
				"type": "occ",
				"energy": -0.3217,
				"method": "rhf"
			},
			{
				"type": "occ",
				"energy": -0.29445,
				"method": "rhf"
			},
			{
				"type": "occ",
				"energy": -0.29254,
				"method": "rhf"
			},
			{
				"type": "occ",
				"energy": -0.24543,
				"method": "rhf"
			},
			{
				"type": "occ",
				"energy": -0.22471,
				"method": "rhf"
			},
			{
				"type": "unocc",
				"energy": -0.04438,
				"method": "rhf"
			},
			{
				"type": "unocc",
				"energy": -0.00161,
				"method": "rhf"
			},
			{
				"type": "unocc",
				"energy": 0.00771,
				"method": "rhf"
			},
			{
				"type": "unocc",
				"energy": 0.07089,
				"method": "rhf"
			},
			{
				"type": "unocc",
				"energy": 0.07779,
				"method": "rhf"
			}
		],
		"cosmo_sigma_profile": { 
			"-0.025": 0.0,
			"-0.024": 0.0,
			"-0.023": 0.0,
			"-0.022": 0.0,
			"-0.021": 0.0,
			"-0.02": 0.0,
			"-0.019": 0.0032704607171,
			"-0.018": 0.653913341934,
			"-0.017": 1.41989082978,
			"-0.016": 1.1447998308,
			"-0.015": 0.724346275786,
			"-0.014": 0.970516561987,
			"-0.013": 0.77962257827,
			"-0.012": 0.447736835241,
			"-0.011": 1.64604954513,
			"-0.01": 1.70116550974,
			"-0.009": 0.874950190543,
			"-0.008": 1.38209282547,
			"-0.007": 7.20832391317,
			"-0.006": 12.3005498331,
			"-0.005": 12.3417790044,
			"-0.004": 15.5520680261,
			"-0.003": 15.6040651063,
			"-0.002": 12.4688410134,
			"-0.001": 9.73302009967,
			"0.0": 10.4892470195,
			"0.001": 12.5199547122,
			"0.002": 14.0148830482,
			"0.003": 18.3654344067,
			"0.004": 16.1480868717,
			"0.005": 8.29350084676,
			"0.006": 7.24774074106,
			"0.007": 7.11562664857,
			"0.008": 3.11704585068,
			"0.009": 4.12088091038,
			"0.01": 4.30901477736,
			"0.011": 4.50098057002,
			"0.012": 1.68852847434,
			"0.013": 0.356593999127,
			"0.014": 0.0,
			"0.015": 0.0,
			"0.016": 0.0,
			"0.017": 0.0,
			"0.018": 0.0,
			"0.019": 0.0,
			"0.02": 0.0,
			"0.021": 0.0,
			"0.022": 0.0,
			"0.023": 0.0,
			"0.024": 0.0,
			"0.025": 0.0
		}
	}
}
