{
	 "smiles": "CC(N)C(=O)NC1=C(C)C=CC=C1C", 
	 "Tm": 529.15, 
	 "num_atms": 30, 
	 "gaussian": { 
		 "optdone": 1, 
		 "sigma_profile": "yes", 
		 "theory": "DFT", 
		 "functional": "B3LYP", 
		 "basiset": "6-31G**", 
		 "properties": { 
			 "R2extent": 3215.8419, 
			 "electric_dipole_moment_norm": 3.33192612463, 
			 "electric_quadrupole_moment_norm": 13.6863998257, 
			 "total_energy": -613.560179384, 
			 "HOMO_LUMO_gap": 0.21616, 
			 "cosmo_polarized_energy": -12.82, 
			 "cosmo_cavitation_energy": 31.67, 
			 "cosmo_dispersion_energy": -21.75, 
			 "cosmo_repulsion_energy": 1.72, 
			 "cosmo_total_nonelectrostatic_energy": 11.64, 
			 "SMD_solvation_energy": 6.3 
		},
		"coords": [
			{
				"x": 1.1461143254,
				"y": -3.0787577208,
				"z": 0.2845835646,
				"element": "C" 
			},
			{
				"x": 1.7272103149,
				"y": -1.8557854985,
				"z": 1.0237126747,
				"element": "C" 
			},
			{
				"x": 2.0312634404,
				"y": -0.7055777793,
				"z": 0.1700899523,
				"element": "N" 
			},
			{
				"x": 0.8556386494,
				"y": -1.5568629948,
				"z": 2.2586714811,
				"element": "C" 
			},
			{
				"x": 0.8655343159,
				"y": -2.3642383223,
				"z": 3.1821274537,
				"element": "O" 
			},
			{
				"x": 0.0636538367,
				"y": -0.4333899554,
				"z": 2.3484018457,
				"element": "N" 
			},
			{
				"x": -0.3092450208,
				"y": 0.5737677996,
				"z": 1.3945544566,
				"element": "C" 
			},
			{
				"x": -1.4664925872,
				"y": 0.3771767982,
				"z": 0.6148908283,
				"element": "C" 
			},
			{
				"x": -2.2990810943,
				"y": -0.8760887815,
				"z": 0.7530010516,
				"element": "C" 
			},
			{
				"x": -1.8522839673,
				"y": 1.3885901415,
				"z": -0.274505692,
				"element": "C" 
			},
			{
				"x": -1.1203228706,
				"y": 2.5697218365,
				"z": -0.3709329606,
				"element": "C" 
			},
			{
				"x": 0.0058563701,
				"y": 2.7589326318,
				"z": 0.4285644738,
				"element": "C" 
			},
			{
				"x": 0.4286704964,
				"y": 1.7720620308,
				"z": 1.3258692395,
				"element": "C" 
			},
			{
				"x": 1.6579907581,
				"y": 1.974999517,
				"z": 2.1720854172,
				"element": "C" 
			},
			{
				"x": 0.9537422179,
				"y": -3.8970132212,
				"z": 0.9830434229,
				"element": "H" 
			},
			{
				"x": 1.8513042755,
				"y": -3.426430954,
				"z": -0.477978736,
				"element": "H" 
			},
			{
				"x": 0.2073001358,
				"y": -2.823342322,
				"z": -0.2209225758,
				"element": "H" 
			},
			{
				"x": 2.674063835,
				"y": -2.1666277234,
				"z": 1.4784876634,
				"element": "H" 
			},
			{
				"x": 1.2397825541,
				"y": -0.475447472,
				"z": -0.4257156011,
				"element": "H" 
			},
			{
				"x": 2.7984336791,
				"y": -0.9513778992,
				"z": -0.4509729311,
				"element": "H" 
			},
			{
				"x": -0.4618400375,
				"y": -0.4514559494,
				"z": 3.2168552702,
				"element": "H" 
			},
			{
				"x": -2.7367809377,
				"y": -0.9579797293,
				"z": 1.755094791,
				"element": "H" 
			},
			{
				"x": -1.7109767101,
				"y": -1.7859494973,
				"z": 0.5989207128,
				"element": "H" 
			},
			{
				"x": -3.1198981078,
				"y": -0.8766632476,
				"z": 0.0312136979,
				"element": "H" 
			},
			{
				"x": -2.7401485035,
				"y": 1.2471843183,
				"z": -0.885070997,
				"element": "H" 
			},
			{
				"x": -1.432701417,
				"y": 3.3472881443,
				"z": -1.0624333133,
				"element": "H" 
			},
			{
				"x": 0.5687994154,
				"y": 3.6860034525,
				"z": 0.3608030169,
				"element": "H" 
			},
			{
				"x": 2.4553395598,
				"y": 1.3118669935,
				"z": 1.8203280526,
				"element": "H" 
			},
			{
				"x": 1.4710589344,
				"y": 1.731981049,
				"z": 3.2227204474,
				"element": "H" 
			},
			{
				"x": 2.0067141397,
				"y": 3.0095143548,
				"z": 2.1124132926,
				"element": "H" 
			}
		],
		 "valence_orbital": [ 
			{
				"type": "occ",
				"energy": -0.25598,
				"method": "rhf"
			},
			{
				"type": "occ",
				"energy": -0.25164,
				"method": "rhf"
			},
			{
				"type": "occ",
				"energy": -0.24957,
				"method": "rhf"
			},
			{
				"type": "occ",
				"energy": -0.24054,
				"method": "rhf"
			},
			{
				"type": "occ",
				"energy": -0.22618,
				"method": "rhf"
			},
			{
				"type": "unocc",
				"energy": -0.01002,
				"method": "rhf"
			},
			{
				"type": "unocc",
				"energy": 0.00099,
				"method": "rhf"
			},
			{
				"type": "unocc",
				"energy": 0.0281,
				"method": "rhf"
			},
			{
				"type": "unocc",
				"energy": 0.06776,
				"method": "rhf"
			},
			{
				"type": "unocc",
				"energy": 0.09658,
				"method": "rhf"
			}
		],
		"cosmo_sigma_profile": { 
			"-0.025": 0.0,
			"-0.024": 0.0,
			"-0.023": 0.0,
			"-0.022": 0.0,
			"-0.021": 0.0,
			"-0.02": 0.0,
			"-0.019": 0.0,
			"-0.018": 0.0,
			"-0.017": 0.0,
			"-0.016": 0.0,
			"-0.015": 0.0,
			"-0.014": 0.0,
			"-0.013": 0.433234212653,
			"-0.012": 1.22120983027,
			"-0.011": 0.930432567221,
			"-0.01": 1.96926331767,
			"-0.009": 2.18946133787,
			"-0.008": 3.39819323321,
			"-0.007": 4.18160853467,
			"-0.006": 6.9529700344,
			"-0.005": 15.3022852211,
			"-0.004": 23.279418019,
			"-0.003": 23.4862402912,
			"-0.002": 21.2595375955,
			"-0.001": 20.7284026904,
			"0.0": 27.9601123928,
			"0.001": 22.7615034795,
			"0.002": 12.5677177477,
			"0.003": 9.64226099185,
			"0.004": 9.69670861837,
			"0.005": 9.93755654602,
			"0.006": 6.87256515483,
			"0.007": 1.85476915155,
			"0.008": 2.19581227165,
			"0.009": 3.16633130984,
			"0.01": 2.33884299824,
			"0.011": 1.52235798452,
			"0.012": 1.44189287188,
			"0.013": 2.37597891613,
			"0.014": 5.61932149116,
			"0.015": 2.47889489117,
			"0.016": 0.0604848426508,
			"0.017": 0.0,
			"0.018": 0.0,
			"0.019": 0.0,
			"0.02": 0.0,
			"0.021": 0.0,
			"0.022": 0.0,
			"0.023": 0.0,
			"0.024": 0.0,
			"0.025": 0.0
		}
	}
}
