{
	 "smiles": "ClC1=C(Br)C(=C(Cl)S1)S(Cl)(=O)=O", 
	 "Tm": 342.15, 
	 "num_atms": 12, 
	 "gaussian": { 
		 "optdone": 1, 
		 "sigma_profile": "yes", 
		 "theory": "DFT", 
		 "functional": "B3LYP", 
		 "basiset": "6-31G**", 
		 "properties": { 
			 "R2extent": 5117.4036, 
			 "electric_dipole_moment_norm": 3.95807588861, 
			 "electric_quadrupole_moment_norm": 10.8037420239, 
			 "total_energy": -5051.10217323, 
			 "HOMO_LUMO_gap": 0.16289, 
			 "cosmo_polarized_energy": -7.13, 
			 "cosmo_cavitation_energy": 27.55, 
			 "cosmo_dispersion_energy": -21.74, 
			 "cosmo_repulsion_energy": 1.64, 
			 "cosmo_total_nonelectrostatic_energy": 7.45, 
			 "SMD_solvation_energy": 1.82 
		},
		"coords": [
			{
				"x": 2.1305334003,
				"y": -0.8585640819,
				"z": -2.5707933213,
				"element": "Cl" 
			},
			{
				"x": 1.7359126321,
				"y": 0.3847965462,
				"z": -1.4545576284,
				"element": "C" 
			},
			{
				"x": 0.8363060606,
				"y": 0.3376222653,
				"z": -0.4266281076,
				"element": "C" 
			},
			{
				"x": -0.1939339573,
				"y": -1.19278603,
				"z": -0.0680784604,
				"element": "Br" 
			},
			{
				"x": 0.7780357287,
				"y": 1.585579972,
				"z": 0.300848961,
				"element": "C" 
			},
			{
				"x": 1.6305758642,
				"y": 2.5385560033,
				"z": -0.2137138389,
				"element": "C" 
			},
			{
				"x": 1.9250215027,
				"y": 4.158879677,
				"z": 0.2658357697,
				"element": "Cl" 
			},
			{
				"x": 2.5317917586,
				"y": 1.9318743942,
				"z": -1.5706453151,
				"element": "S" 
			},
			{
				"x": -0.2708280845,
				"y": 1.8496856829,
				"z": 1.7258080262,
				"element": "S" 
			},
			{
				"x": -2.1784165583,
				"y": 1.9375167606,
				"z": 0.8034183868,
				"element": "Cl" 
			},
			{
				"x": -0.0181569516,
				"y": 3.1734257588,
				"z": 2.2689093184,
				"element": "O" 
			},
			{
				"x": -0.2534413954,
				"y": 0.6575130516,
				"z": 2.5568962097,
				"element": "O" 
			}
		],
		 "valence_orbital": [ 
			{
				"type": "occ",
				"energy": -0.33485,
				"method": "rhf"
			},
			{
				"type": "occ",
				"energy": -0.32289,
				"method": "rhf"
			},
			{
				"type": "occ",
				"energy": -0.3105,
				"method": "rhf"
			},
			{
				"type": "occ",
				"energy": -0.29926,
				"method": "rhf"
			},
			{
				"type": "occ",
				"energy": -0.26356,
				"method": "rhf"
			},
			{
				"type": "unocc",
				"energy": -0.10067,
				"method": "rhf"
			},
			{
				"type": "unocc",
				"energy": -0.07417,
				"method": "rhf"
			},
			{
				"type": "unocc",
				"energy": -0.05198,
				"method": "rhf"
			},
			{
				"type": "unocc",
				"energy": -0.03651,
				"method": "rhf"
			},
			{
				"type": "unocc",
				"energy": -0.01662,
				"method": "rhf"
			}
		],
		"cosmo_sigma_profile": { 
			"-0.025": 0.0,
			"-0.024": 0.0,
			"-0.023": 0.0,
			"-0.022": 0.0,
			"-0.021": 0.0,
			"-0.02": 0.0,
			"-0.019": 0.0,
			"-0.018": 0.0,
			"-0.017": 0.0,
			"-0.016": 0.0,
			"-0.015": 0.0,
			"-0.014": 0.0,
			"-0.013": 0.0,
			"-0.012": 0.0,
			"-0.011": 0.0,
			"-0.01": 0.0,
			"-0.009": 0.0283773561385,
			"-0.008": 0.735144269513,
			"-0.007": 2.12886664834,
			"-0.006": 6.13368426342,
			"-0.005": 13.9432185654,
			"-0.004": 20.589941027,
			"-0.003": 22.0273315366,
			"-0.002": 23.4087401294,
			"-0.001": 20.4095226568,
			"0.0": 21.6483477998,
			"0.001": 23.5314352131,
			"0.002": 29.9429030482,
			"0.003": 19.0898079067,
			"0.004": 4.7048145271,
			"0.005": 3.96339928765,
			"0.006": 5.04245859156,
			"0.007": 9.96192192479,
			"0.008": 7.66589389191,
			"0.009": 0.359983761613,
			"0.01": 0.0,
			"0.011": 0.0,
			"0.012": 0.0,
			"0.013": 0.0,
			"0.014": 0.0,
			"0.015": 0.0,
			"0.016": 0.0,
			"0.017": 0.0,
			"0.018": 0.0,
			"0.019": 0.0,
			"0.02": 0.0,
			"0.021": 0.0,
			"0.022": 0.0,
			"0.023": 0.0,
			"0.024": 0.0,
			"0.025": 0.0
		}
	}
}
