{
	 "smiles": "NC1=NC2=CC=CC=C2S1", 
	 "Tm": 403.15, 
	 "num_atms": 16, 
	 "gaussian": { 
		 "optdone": 1, 
		 "sigma_profile": "yes", 
		 "theory": "DFT", 
		 "functional": "B3LYP", 
		 "basiset": "6-31G**", 
		 "properties": { 
			 "R2extent": 1812.0071, 
			 "electric_dipole_moment_norm": 1.9288235741, 
			 "electric_quadrupole_moment_norm": 14.4686266722, 
			 "total_energy": -778.063558183, 
			 "HOMO_LUMO_gap": 0.19926, 
			 "cosmo_polarized_energy": -10.62, 
			 "cosmo_cavitation_energy": 21.62, 
			 "cosmo_dispersion_energy": -17.08, 
			 "cosmo_repulsion_energy": 1.33, 
			 "cosmo_total_nonelectrostatic_energy": 5.87, 
			 "SMD_solvation_energy": 1.49 
		},
		"coords": [
			{
				"x": 2.2126811325,
				"y": -0.6796472435,
				"z": 2.5768201409,
				"element": "N" 
			},
			{
				"x": 1.5073712923,
				"y": -0.6483030377,
				"z": 1.4015210729,
				"element": "C" 
			},
			{
				"x": 1.3729239537,
				"y": 0.4064729483,
				"z": 0.6628536718,
				"element": "N" 
			},
			{
				"x": 0.6693487633,
				"y": 0.1090281946,
				"z": -0.4957640422,
				"element": "C" 
			},
			{
				"x": 0.3525455782,
				"y": 1.0271214344,
				"z": -1.5050506005,
				"element": "C" 
			},
			{
				"x": -0.3731609062,
				"y": 0.5973775005,
				"z": -2.6132978406,
				"element": "C" 
			},
			{
				"x": -0.789856859,
				"y": -0.7364740505,
				"z": -2.7312357009,
				"element": "C" 
			},
			{
				"x": -0.4856146155,
				"y": -1.6683614818,
				"z": -1.7375956286,
				"element": "C" 
			},
			{
				"x": 0.242339611,
				"y": -1.2354554805,
				"z": -0.6315312963,
				"element": "C" 
			},
			{
				"x": 0.783847645,
				"y": -2.1588400493,
				"z": 0.7697247995,
				"element": "S" 
			},
			{
				"x": 1.9397693006,
				"y": -1.3619835998,
				"z": 3.2686794841,
				"element": "H" 
			},
			{
				"x": 2.4250452829,
				"y": 0.2375108589,
				"z": 2.9463513333,
				"element": "H" 
			},
			{
				"x": 0.6788091091,
				"y": 2.0570351202,
				"z": -1.404198525,
				"element": "H" 
			},
			{
				"x": -0.620046208,
				"y": 1.3063543913,
				"z": -3.3980986971,
				"element": "H" 
			},
			{
				"x": -1.3547432805,
				"y": -1.051760783,
				"z": -3.6032608247,
				"element": "H" 
			},
			{
				"x": -0.8074597992,
				"y": -2.7009747221,
				"z": -1.8289173468,
				"element": "H" 
			}
		],
		 "valence_orbital": [ 
			{
				"type": "occ",
				"energy": -0.29701,
				"method": "rhf"
			},
			{
				"type": "occ",
				"energy": -0.29379,
				"method": "rhf"
			},
			{
				"type": "occ",
				"energy": -0.27364,
				"method": "rhf"
			},
			{
				"type": "occ",
				"energy": -0.22867,
				"method": "rhf"
			},
			{
				"type": "occ",
				"energy": -0.21103,
				"method": "rhf"
			},
			{
				"type": "unocc",
				"energy": -0.01177,
				"method": "rhf"
			},
			{
				"type": "unocc",
				"energy": 0.00156,
				"method": "rhf"
			},
			{
				"type": "unocc",
				"energy": 0.00389,
				"method": "rhf"
			},
			{
				"type": "unocc",
				"energy": 0.0492,
				"method": "rhf"
			},
			{
				"type": "unocc",
				"energy": 0.0688,
				"method": "rhf"
			}
		],
		"cosmo_sigma_profile": { 
			"-0.025": 0.0,
			"-0.024": 0.0,
			"-0.023": 0.0,
			"-0.022": 0.0,
			"-0.021": 0.0,
			"-0.02": 0.0,
			"-0.019": 0.0,
			"-0.018": 0.0,
			"-0.017": 0.0,
			"-0.016": 0.0169955543364,
			"-0.015": 0.867186870667,
			"-0.014": 2.62655524967,
			"-0.013": 2.36210694704,
			"-0.012": 2.29285820365,
			"-0.011": 2.75855711006,
			"-0.01": 2.59231053675,
			"-0.009": 1.82057363867,
			"-0.008": 1.83310945834,
			"-0.007": 2.70457043667,
			"-0.006": 7.75844463437,
			"-0.005": 9.94268603775,
			"-0.004": 9.6068338571,
			"-0.003": 10.4426235902,
			"-0.002": 7.62729066938,
			"-0.001": 8.17827962847,
			"0.0": 9.79985749816,
			"0.001": 12.0251504577,
			"0.002": 13.6038356883,
			"0.003": 15.269868482,
			"0.004": 15.9474462342,
			"0.005": 14.8508511699,
			"0.006": 8.20202514422,
			"0.007": 2.11443529048,
			"0.008": 1.91392927592,
			"0.009": 1.69938770765,
			"0.01": 1.79876641023,
			"0.011": 1.54620711453,
			"0.012": 0.784023329037,
			"0.013": 0.945689727177,
			"0.014": 1.08221153704,
			"0.015": 0.518850446977,
			"0.016": 0.14495564442,
			"0.017": 0.0,
			"0.018": 0.0,
			"0.019": 0.0,
			"0.02": 0.0,
			"0.021": 0.0,
			"0.022": 0.0,
			"0.023": 0.0,
			"0.024": 0.0,
			"0.025": 0.0
		}
	}
}
