{
	 "smiles": "COC1=CC=C(OC2=C(N)C=CC=N2)C=C1", 
	 "Tm": 423.15, 
	 "num_atms": 28, 
	 "gaussian": { 
		 "optdone": 1, 
		 "sigma_profile": "yes", 
		 "theory": "DFT", 
		 "functional": "B3LYP", 
		 "basiset": "6-31G**", 
		 "properties": { 
			 "R2extent": 5088.3777, 
			 "electric_dipole_moment_norm": 1.13556927133, 
			 "electric_quadrupole_moment_norm": 21.78137349, 
			 "total_energy": -724.4404121, 
			 "HOMO_LUMO_gap": 0.18536, 
			 "cosmo_polarized_energy": -13.02, 
			 "cosmo_cavitation_energy": 32.43, 
			 "cosmo_dispersion_energy": -23.78, 
			 "cosmo_repulsion_energy": 1.87, 
			 "cosmo_total_nonelectrostatic_energy": 10.52, 
			 "SMD_solvation_energy": 5.66 
		},
		"coords": [
			{
				"x": 5.3979573793,
				"y": -0.6950837828,
				"z": 0.8367224609,
				"element": "C" 
			},
			{
				"x": 4.4072647975,
				"y": -1.5545686494,
				"z": 0.2999294863,
				"element": "O" 
			},
			{
				"x": 3.1144250335,
				"y": -1.1094671667,
				"z": 0.271517456,
				"element": "C" 
			},
			{
				"x": 2.6932303875,
				"y": 0.1443114071,
				"z": 0.7318784971,
				"element": "C" 
			},
			{
				"x": 1.3450696753,
				"y": 0.5016610354,
				"z": 0.6537840321,
				"element": "C" 
			},
			{
				"x": 0.4197109493,
				"y": -0.3931962389,
				"z": 0.1255659182,
				"element": "C" 
			},
			{
				"x": -0.9174141826,
				"y": -0.0570017501,
				"z": -0.0662158739,
				"element": "O" 
			},
			{
				"x": -1.703557296,
				"y": 0.377512939,
				"z": 0.9767713422,
				"element": "C" 
			},
			{
				"x": -3.0035622968,
				"y": 0.7923102132,
				"z": 0.5862610983,
				"element": "C" 
			},
			{
				"x": -3.351244895,
				"y": 0.8236542658,
				"z": -0.7585388621,
				"element": "N" 
			},
			{
				"x": -3.8488148584,
				"y": 1.2022000808,
				"z": 1.6168380651,
				"element": "C" 
			},
			{
				"x": -3.3878387709,
				"y": 1.1939370388,
				"z": 2.9386465086,
				"element": "C" 
			},
			{
				"x": -2.0900110103,
				"y": 0.7728397934,
				"z": 3.1912554939,
				"element": "C" 
			},
			{
				"x": -1.2596793207,
				"y": 0.3647517434,
				"z": 2.2126917775,
				"element": "N" 
			},
			{
				"x": 0.8332046177,
				"y": -1.6445201706,
				"z": -0.3336417869,
				"element": "C" 
			},
			{
				"x": 2.1751239456,
				"y": -2.0005743397,
				"z": -0.2654870108,
				"element": "C" 
			},
			{
				"x": 5.4800377857,
				"y": 0.238793314,
				"z": 0.264870615,
				"element": "H" 
			},
			{
				"x": 6.3409680279,
				"y": -1.2400044738,
				"z": 0.767755298,
				"element": "H" 
			},
			{
				"x": 5.1990890594,
				"y": -0.4521850727,
				"z": 1.8889193208,
				"element": "H" 
			},
			{
				"x": 3.3994573006,
				"y": 0.8513099568,
				"z": 1.1504049046,
				"element": "H" 
			},
			{
				"x": 1.0178843423,
				"y": 1.4703157622,
				"z": 1.0120914386,
				"element": "H" 
			},
			{
				"x": -2.7717444059,
				"y": 0.2447182891,
				"z": -1.3499659682,
				"element": "H" 
			},
			{
				"x": -4.3384092517,
				"y": 0.7411729629,
				"z": -0.9562734319,
				"element": "H" 
			},
			{
				"x": -4.858201368,
				"y": 1.5312627579,
				"z": 1.3829720799,
				"element": "H" 
			},
			{
				"x": -4.0336110032,
				"y": 1.5117858633,
				"z": 3.7507499904,
				"element": "H" 
			},
			{
				"x": -1.6882494408,
				"y": 0.7500766072,
				"z": 4.201082014,
				"element": "H" 
			},
			{
				"x": 0.0969922663,
				"y": -2.3271974586,
				"z": -0.7453899211,
				"element": "H" 
			},
			{
				"x": 2.5180225323,
				"y": -2.9672149271,
				"z": -0.6190949426,
				"element": "H" 
			}
		],
		 "valence_orbital": [ 
			{
				"type": "occ",
				"energy": -0.26013,
				"method": "rhf"
			},
			{
				"type": "occ",
				"energy": -0.25743,
				"method": "rhf"
			},
			{
				"type": "occ",
				"energy": -0.24573,
				"method": "rhf"
			},
			{
				"type": "occ",
				"energy": -0.21189,
				"method": "rhf"
			},
			{
				"type": "occ",
				"energy": -0.19387,
				"method": "rhf"
			},
			{
				"type": "unocc",
				"energy": -0.00851,
				"method": "rhf"
			},
			{
				"type": "unocc",
				"energy": 0.00275,
				"method": "rhf"
			},
			{
				"type": "unocc",
				"energy": 0.01416,
				"method": "rhf"
			},
			{
				"type": "unocc",
				"energy": 0.02659,
				"method": "rhf"
			},
			{
				"type": "unocc",
				"energy": 0.08689,
				"method": "rhf"
			}
		],
		"cosmo_sigma_profile": { 
			"-0.025": 0.0,
			"-0.024": 0.0,
			"-0.023": 0.0,
			"-0.022": 0.0,
			"-0.021": 0.0,
			"-0.02": 0.0,
			"-0.019": 0.0,
			"-0.018": 0.0,
			"-0.017": 0.0,
			"-0.016": 0.0,
			"-0.015": 0.0,
			"-0.014": 0.0,
			"-0.013": 1.00483633917,
			"-0.012": 1.53418225374,
			"-0.011": 1.80689745598,
			"-0.01": 2.29042459705,
			"-0.009": 2.9176906732,
			"-0.008": 3.05458653512,
			"-0.007": 4.33799697285,
			"-0.006": 15.3772882086,
			"-0.005": 21.6277062421,
			"-0.004": 21.6454517516,
			"-0.003": 20.782084608,
			"-0.002": 13.936704246,
			"-0.001": 13.6977350376,
			"0.0": 12.2298899918,
			"0.001": 14.6493752577,
			"0.002": 17.0379046479,
			"0.003": 20.5516909968,
			"0.004": 24.9335532304,
			"0.005": 17.4519027061,
			"0.006": 6.3140922897,
			"0.007": 4.30995917939,
			"0.008": 3.14403417791,
			"0.009": 3.85519787894,
			"0.01": 3.37852759826,
			"0.011": 2.13237978196,
			"0.012": 1.57813927559,
			"0.013": 1.66373364127,
			"0.014": 1.3424618522,
			"0.015": 0.24978656216,
			"0.016": 0.0,
			"0.017": 0.0,
			"0.018": 0.0,
			"0.019": 0.0,
			"0.02": 0.0,
			"0.021": 0.0,
			"0.022": 0.0,
			"0.023": 0.0,
			"0.024": 0.0,
			"0.025": 0.0
		}
	}
}
