{
	 "smiles": "COC(=O)CCC1=NN=C(N)S1", 
	 "Tm": 409.15, 
	 "num_atms": 21, 
	 "gaussian": { 
		 "optdone": 1, 
		 "sigma_profile": "yes", 
		 "theory": "DFT", 
		 "functional": "B3LYP", 
		 "basiset": "6-31G**", 
		 "properties": { 
			 "R2extent": 2764.5296, 
			 "electric_dipole_moment_norm": 3.38058729069, 
			 "electric_quadrupole_moment_norm": 20.7981036585, 
			 "total_energy": -946.933499684, 
			 "HOMO_LUMO_gap": 0.21128, 
			 "cosmo_polarized_energy": -18.46, 
			 "cosmo_cavitation_energy": 27.19, 
			 "cosmo_dispersion_energy": -19.89, 
			 "cosmo_repulsion_energy": 1.59, 
			 "cosmo_total_nonelectrostatic_energy": 8.89, 
			 "SMD_solvation_energy": 3.89 
		},
		"coords": [
			{
				"x": 1.0707048316,
				"y": 1.2298549412,
				"z": -3.2984141036,
				"element": "C" 
			},
			{
				"x": 0.4045034971,
				"y": 0.3136318798,
				"z": -2.4120077913,
				"element": "O" 
			},
			{
				"x": 1.2220804029,
				"y": -0.5075091579,
				"z": -1.7086116214,
				"element": "C" 
			},
			{
				"x": 2.4284286349,
				"y": -0.4861095598,
				"z": -1.8048323149,
				"element": "O" 
			},
			{
				"x": 0.4401833453,
				"y": -1.4790541119,
				"z": -0.8427098407,
				"element": "C" 
			},
			{
				"x": -0.8959555324,
				"y": -0.9683992888,
				"z": -0.2663823742,
				"element": "C" 
			},
			{
				"x": -0.7551063073,
				"y": 0.0869296147,
				"z": 0.7913627235,
				"element": "C" 
			},
			{
				"x": -0.9130372539,
				"y": -0.1458627225,
				"z": 2.057089364,
				"element": "N" 
			},
			{
				"x": -0.7083339626,
				"y": 0.9409140143,
				"z": 2.8652353227,
				"element": "N" 
			},
			{
				"x": -0.4063178088,
				"y": 2.0167669299,
				"z": 2.189391936,
				"element": "C" 
			},
			{
				"x": -0.2341743244,
				"y": 3.2505815517,
				"z": 2.7717724682,
				"element": "N" 
			},
			{
				"x": -0.3403470657,
				"y": 1.7796956978,
				"z": 0.4457472074,
				"element": "S" 
			},
			{
				"x": 1.7390472199,
				"y": 1.8873358402,
				"z": -2.73758953,
				"element": "H" 
			},
			{
				"x": 1.655039423,
				"y": 0.6842989778,
				"z": -4.0432562256,
				"element": "H" 
			},
			{
				"x": 0.2784229814,
				"y": 1.8049355279,
				"z": -3.7771305233,
				"element": "H" 
			},
			{
				"x": 0.2347541097,
				"y": -2.3553752525,
				"z": -1.4717595229,
				"element": "H" 
			},
			{
				"x": 1.1107958285,
				"y": -1.8108309445,
				"z": -0.0466640483,
				"element": "H" 
			},
			{
				"x": -1.4092730987,
				"y": -1.8047971193,
				"z": 0.2163255509,
				"element": "H" 
			},
			{
				"x": -1.531758349,
				"y": -0.6100205424,
				"z": -1.0809741764,
				"element": "H" 
			},
			{
				"x": -0.1556135394,
				"y": 3.1927040588,
				"z": 3.7797257414,
				"element": "H" 
			},
			{
				"x": 0.4468569679,
				"y": 3.8632096656,
				"z": 2.3461817586,
				"element": "H" 
			}
		],
		 "valence_orbital": [ 
			{
				"type": "occ",
				"energy": -0.2954,
				"method": "rhf"
			},
			{
				"type": "occ",
				"energy": -0.28625,
				"method": "rhf"
			},
			{
				"type": "occ",
				"energy": -0.27508,
				"method": "rhf"
			},
			{
				"type": "occ",
				"energy": -0.25632,
				"method": "rhf"
			},
			{
				"type": "occ",
				"energy": -0.23074,
				"method": "rhf"
			},
			{
				"type": "unocc",
				"energy": -0.01946,
				"method": "rhf"
			},
			{
				"type": "unocc",
				"energy": 0.00186,
				"method": "rhf"
			},
			{
				"type": "unocc",
				"energy": 0.00587,
				"method": "rhf"
			},
			{
				"type": "unocc",
				"energy": 0.04559,
				"method": "rhf"
			},
			{
				"type": "unocc",
				"energy": 0.06582,
				"method": "rhf"
			}
		],
		"cosmo_sigma_profile": { 
			"-0.025": 0.0,
			"-0.024": 0.0,
			"-0.023": 0.0,
			"-0.022": 0.0,
			"-0.021": 0.0,
			"-0.02": 0.0,
			"-0.019": 0.0,
			"-0.018": 0.0,
			"-0.017": 0.0,
			"-0.016": 0.0,
			"-0.015": 0.746410118429,
			"-0.014": 2.76043603801,
			"-0.013": 2.61252258017,
			"-0.012": 2.51409637402,
			"-0.011": 2.85135269583,
			"-0.01": 2.60667538026,
			"-0.009": 1.86070806248,
			"-0.008": 2.1436690017,
			"-0.007": 4.91625557059,
			"-0.006": 12.3699977413,
			"-0.005": 17.7295163274,
			"-0.004": 18.3450802657,
			"-0.003": 19.7190640643,
			"-0.002": 11.9124670062,
			"-0.001": 13.6821015031,
			"0.0": 13.0749543031,
			"0.001": 12.9220926994,
			"0.002": 10.5001218613,
			"0.003": 7.88667930594,
			"0.004": 5.66566602768,
			"0.005": 4.44641915458,
			"0.006": 6.18164734129,
			"0.007": 3.9496712659,
			"0.008": 4.74972749981,
			"0.009": 2.83834813026,
			"0.01": 4.64564639292,
			"0.011": 6.82787684336,
			"0.012": 7.88088232365,
			"0.013": 3.8906888394,
			"0.014": 2.62360339008,
			"0.015": 1.88306676062,
			"0.016": 0.386975218359,
			"0.017": 0.0,
			"0.018": 0.0,
			"0.019": 0.0,
			"0.02": 0.0,
			"0.021": 0.0,
			"0.022": 0.0,
			"0.023": 0.0,
			"0.024": 0.0,
			"0.025": 0.0
		}
	}
}
