{
	 "smiles": "CC1=CC=C(N)C(=C1)[N+]([O-])=O", 
	 "Tm": 389.65, 
	 "num_atms": 19, 
	 "gaussian": { 
		 "optdone": 1, 
		 "sigma_profile": "yes", 
		 "theory": "DFT", 
		 "functional": "B3LYP", 
		 "basiset": "6-31G**", 
		 "properties": { 
			 "R2extent": 1994.6295, 
			 "electric_dipole_moment_norm": 4.8432297829, 
			 "electric_quadrupole_moment_norm": 12.5552490923, 
			 "total_energy": -531.432948797, 
			 "HOMO_LUMO_gap": 0.13833, 
			 "cosmo_polarized_energy": -11.1, 
			 "cosmo_cavitation_energy": 23.03, 
			 "cosmo_dispersion_energy": -17.39, 
			 "cosmo_repulsion_energy": 1.4, 
			 "cosmo_total_nonelectrostatic_energy": 7.04, 
			 "SMD_solvation_energy": 6.03 
		},
		"coords": [
			{
				"x": 0.9199635982,
				"y": -2.7164716669,
				"z": 1.3505116866,
				"element": "C" 
			},
			{
				"x": 0.4906337853,
				"y": -1.397058413,
				"z": 0.7556714065,
				"element": "C" 
			},
			{
				"x": -0.5789992447,
				"y": -1.3281353714,
				"z": -0.1652823458,
				"element": "C" 
			},
			{
				"x": -0.9852304937,
				"y": -0.1344647856,
				"z": -0.7242666765,
				"element": "C" 
			},
			{
				"x": -0.3523807456,
				"y": 1.0953300355,
				"z": -0.406148932,
				"element": "C" 
			},
			{
				"x": -0.7726492888,
				"y": 2.2429686825,
				"z": -0.998481145,
				"element": "N" 
			},
			{
				"x": 0.7192729081,
				"y": 1.0199822349,
				"z": 0.5246880125,
				"element": "C" 
			},
			{
				"x": 1.1193236349,
				"y": -0.2086344795,
				"z": 1.0820348318,
				"element": "C" 
			},
			{
				"x": 1.4417534341,
				"y": 2.1995637078,
				"z": 0.9514025768,
				"element": "N" 
			},
			{
				"x": 1.1068781455,
				"y": 3.3101907259,
				"z": 0.493217714,
				"element": "O" 
			},
			{
				"x": 2.3650725994,
				"y": 2.0684842318,
				"z": 1.7569212579,
				"element": "O" 
			},
			{
				"x": 0.0941143385,
				"y": -3.2063639416,
				"z": 1.87960105,
				"element": "H" 
			},
			{
				"x": 1.7378426643,
				"y": -2.5814576699,
				"z": 2.0630175243,
				"element": "H" 
			},
			{
				"x": 1.2643041322,
				"y": -3.4130094214,
				"z": 0.5767790898,
				"element": "H" 
			},
			{
				"x": -1.0999760839,
				"y": -2.2410283052,
				"z": -0.4446762381,
				"element": "H" 
			},
			{
				"x": -1.8096335577,
				"y": -0.1174992761,
				"z": -1.4322341839,
				"element": "H" 
			},
			{
				"x": -0.3579395932,
				"y": 3.1127041628,
				"z": -0.6967514702,
				"element": "H" 
			},
			{
				"x": -1.6040520468,
				"y": 2.2305253592,
				"z": -1.5649227112,
				"element": "H" 
			},
			{
				"x": 1.9440018139,
				"y": -0.1867258098,
				"z": 1.7838185524,
				"element": "H" 
			}
		],
		 "valence_orbital": [ 
			{
				"type": "occ",
				"energy": -0.29868,
				"method": "rhf"
			},
			{
				"type": "occ",
				"energy": -0.29708,
				"method": "rhf"
			},
			{
				"type": "occ",
				"energy": -0.27969,
				"method": "rhf"
			},
			{
				"type": "occ",
				"energy": -0.27148,
				"method": "rhf"
			},
			{
				"type": "occ",
				"energy": -0.21575,
				"method": "rhf"
			},
			{
				"type": "unocc",
				"energy": -0.07742,
				"method": "rhf"
			},
			{
				"type": "unocc",
				"energy": -0.00072,
				"method": "rhf"
			},
			{
				"type": "unocc",
				"energy": 0.01161,
				"method": "rhf"
			},
			{
				"type": "unocc",
				"energy": 0.07947,
				"method": "rhf"
			},
			{
				"type": "unocc",
				"energy": 0.0906,
				"method": "rhf"
			}
		],
		"cosmo_sigma_profile": { 
			"-0.025": 0.0,
			"-0.024": 0.0,
			"-0.023": 0.0,
			"-0.022": 0.0,
			"-0.021": 0.0,
			"-0.02": 0.0,
			"-0.019": 0.0,
			"-0.018": 0.0,
			"-0.017": 0.0,
			"-0.016": 0.0,
			"-0.015": 0.195143856786,
			"-0.014": 1.26217206725,
			"-0.013": 1.80264102618,
			"-0.012": 1.23086613443,
			"-0.011": 1.63887174919,
			"-0.01": 2.34047424282,
			"-0.009": 2.1613460917,
			"-0.008": 2.27207679073,
			"-0.007": 3.3726080784,
			"-0.006": 5.85962500774,
			"-0.005": 8.17340332836,
			"-0.004": 13.4784810801,
			"-0.003": 14.3173763388,
			"-0.002": 13.1633615909,
			"-0.001": 12.83678641,
			"0.0": 17.2390832518,
			"0.001": 14.9070282113,
			"0.002": 14.4742974863,
			"0.003": 12.8546742103,
			"0.004": 9.2213891261,
			"0.005": 2.75532314025,
			"0.006": 4.37290071375,
			"0.007": 3.26574521306,
			"0.008": 5.23257948529,
			"0.009": 6.53408003855,
			"0.01": 3.74749320439,
			"0.011": 3.91495256532,
			"0.012": 0.614117553142,
			"0.013": 0.0,
			"0.014": 0.0,
			"0.015": 0.0,
			"0.016": 0.0,
			"0.017": 0.0,
			"0.018": 0.0,
			"0.019": 0.0,
			"0.02": 0.0,
			"0.021": 0.0,
			"0.022": 0.0,
			"0.023": 0.0,
			"0.024": 0.0,
			"0.025": 0.0
		}
	}
}
