{
	 "smiles": "CCCCCCCCCCCCCCCCCCOC=C", 
	 "Tm": 303.15, 
	 "num_atms": 61, 
	 "gaussian": { 
		 "optdone": 1, 
		 "sigma_profile": "yes", 
		 "theory": "DFT", 
		 "functional": "B3LYP", 
		 "basiset": "6-31G**", 
		 "properties": { 
			 "R2extent": 12776.4971, 
			 "electric_dipole_moment_norm": 2.14366960841, 
			 "electric_quadrupole_moment_norm": 14.7925389734, 
			 "total_energy": -861.465187587, 
			 "HOMO_LUMO_gap": 0.25622, 
			 "cosmo_polarized_energy": -5.29, 
			 "cosmo_cavitation_energy": 58.85, 
			 "cosmo_dispersion_energy": -36.74, 
			 "cosmo_repulsion_energy": 2.95, 
			 "cosmo_total_nonelectrostatic_energy": 25.06, 
			 "SMD_solvation_energy": 8.85 
		},
		"coords": [
			{
				"x": -2.7021839768,
				"y": 1.7139634908,
				"z": -2.8524703295,
				"element": "C" 
			},
			{
				"x": -2.3650878604,
				"y": 0.4856149074,
				"z": -2.0011430099,
				"element": "C" 
			},
			{
				"x": -3.5127356336,
				"y": 0.0515785726,
				"z": -1.08023701,
				"element": "C" 
			},
			{
				"x": -3.1854053569,
				"y": -1.1906343479,
				"z": -0.2392494479,
				"element": "C" 
			},
			{
				"x": -4.3267727836,
				"y": -1.6317201622,
				"z": 0.6968624213,
				"element": "C" 
			},
			{
				"x": -4.5586205262,
				"y": -0.7292020729,
				"z": 1.9330509907,
				"element": "C" 
			},
			{
				"x": -3.946051439,
				"y": -1.1967387041,
				"z": 3.268782827,
				"element": "C" 
			},
			{
				"x": -2.4065883745,
				"y": -1.2247256115,
				"z": 3.3890181694,
				"element": "C" 
			},
			{
				"x": -1.7315919075,
				"y": -2.5221588896,
				"z": 2.9077047252,
				"element": "C" 
			},
			{
				"x": -0.2273553431,
				"y": -2.6528982547,
				"z": 3.2297252606,
				"element": "C" 
			},
			{
				"x": 0.7631506413,
				"y": -2.0028891353,
				"z": 2.243933657,
				"element": "C" 
			},
			{
				"x": 0.7858260144,
				"y": -0.4665879071,
				"z": 2.2219992652,
				"element": "C" 
			},
			{
				"x": 1.959666006,
				"y": 0.1743176759,
				"z": 1.4572404639,
				"element": "C" 
			},
			{
				"x": 1.9910876642,
				"y": -0.0666119353,
				"z": -0.0693232293,
				"element": "C" 
			},
			{
				"x": 2.7896965749,
				"y": -1.3022691995,
				"z": -0.5158010836,
				"element": "C" 
			},
			{
				"x": 2.7395145466,
				"y": -1.5807010094,
				"z": -2.0302326373,
				"element": "C" 
			},
			{
				"x": 3.3273850414,
				"y": -0.4914926783,
				"z": -2.9447066632,
				"element": "C" 
			},
			{
				"x": 4.8287174947,
				"y": -0.2727468354,
				"z": -2.7562444012,
				"element": "C" 
			},
			{
				"x": 5.3644656767,
				"y": 0.6328944136,
				"z": -3.723488602,
				"element": "O" 
			},
			{
				"x": 5.2081213163,
				"y": 1.9589314883,
				"z": -3.4565998905,
				"element": "C" 
			},
			{
				"x": 5.4054887062,
				"y": 2.9076025524,
				"z": -4.3723518268,
				"element": "C" 
			},
			{
				"x": -3.567440375,
				"y": 1.5229941199,
				"z": -3.4975933935,
				"element": "H" 
			},
			{
				"x": -2.945568457,
				"y": 2.5777479382,
				"z": -2.2231354269,
				"element": "H" 
			},
			{
				"x": -1.8638664223,
				"y": 1.9982747506,
				"z": -3.4969390783,
				"element": "H" 
			},
			{
				"x": -1.4739180587,
				"y": 0.6958815472,
				"z": -1.393326017,
				"element": "H" 
			},
			{
				"x": -2.0921257512,
				"y": -0.3516106927,
				"z": -2.6582218587,
				"element": "H" 
			},
			{
				"x": -3.7800754929,
				"y": 0.8906182616,
				"z": -0.4231405089,
				"element": "H" 
			},
			{
				"x": -4.4067676896,
				"y": -0.1519729396,
				"z": -1.6873771584,
				"element": "H" 
			},
			{
				"x": -2.941357847,
				"y": -2.017854154,
				"z": -0.9200203346,
				"element": "H" 
			},
			{
				"x": -2.2745281662,
				"y": -1.0004278586,
				"z": 0.3437690337,
				"element": "H" 
			},
			{
				"x": -5.2491713729,
				"y": -1.6719829834,
				"z": 0.1023129661,
				"element": "H" 
			},
			{
				"x": -4.1496217876,
				"y": -2.6614560979,
				"z": 1.0311955501,
				"element": "H" 
			},
			{
				"x": -5.6388704598,
				"y": -0.6306492971,
				"z": 2.0977014946,
				"element": "H" 
			},
			{
				"x": -4.2043666956,
				"y": 0.2885192531,
				"z": 1.7194160618,
				"element": "H" 
			},
			{
				"x": -4.3433119303,
				"y": -2.1916659051,
				"z": 3.5174435924,
				"element": "H" 
			},
			{
				"x": -4.3315010958,
				"y": -0.5234759981,
				"z": 4.0455306733,
				"element": "H" 
			},
			{
				"x": -2.1461702131,
				"y": -1.0972148965,
				"z": 4.4487344683,
				"element": "H" 
			},
			{
				"x": -1.9880321128,
				"y": -0.3507358679,
				"z": 2.8759652777,
				"element": "H" 
			},
			{
				"x": -2.2548348632,
				"y": -3.3586925853,
				"z": 3.3908465229,
				"element": "H" 
			},
			{
				"x": -1.88010691,
				"y": -2.6632284175,
				"z": 1.8303080016,
				"element": "H" 
			},
			{
				"x": -0.037711828,
				"y": -2.2684194366,
				"z": 4.2425643147,
				"element": "H" 
			},
			{
				"x": 0.0148614426,
				"y": -3.7227374901,
				"z": 3.2688002833,
				"element": "H" 
			},
			{
				"x": 0.5555965037,
				"y": -2.3874579727,
				"z": 1.2364263647,
				"element": "H" 
			},
			{
				"x": 1.7712858425,
				"y": -2.3576979675,
				"z": 2.5007322927,
				"element": "H" 
			},
			{
				"x": -0.1510390206,
				"y": -0.0852410283,
				"z": 1.7962808392,
				"element": "H" 
			},
			{
				"x": 0.8159489509,
				"y": -0.1031170209,
				"z": 3.2586195335,
				"element": "H" 
			},
			{
				"x": 1.9135199438,
				"y": 1.2554039506,
				"z": 1.6385251687,
				"element": "H" 
			},
			{
				"x": 2.9095708463,
				"y": -0.1605269701,
				"z": 1.8984069778,
				"element": "H" 
			},
			{
				"x": 0.9612906374,
				"y": -0.1408787773,
				"z": -0.4488015886,
				"element": "H" 
			},
			{
				"x": 2.4196497528,
				"y": 0.8202482847,
				"z": -0.5523987665,
				"element": "H" 
			},
			{
				"x": 3.8318648504,
				"y": -1.188629666,
				"z": -0.1866406973,
				"element": "H" 
			},
			{
				"x": 2.414681198,
				"y": -2.1910535183,
				"z": 0.0031481463,
				"element": "H" 
			},
			{
				"x": 1.6942684291,
				"y": -1.7467709317,
				"z": -2.321987008,
				"element": "H" 
			},
			{
				"x": 3.2602530287,
				"y": -2.5271404217,
				"z": -2.2310365773,
				"element": "H" 
			},
			{
				"x": 3.1616808168,
				"y": -0.77129632,
				"z": -3.9917582504,
				"element": "H" 
			},
			{
				"x": 2.8043652257,
				"y": 0.4612541959,
				"z": -2.7969033727,
				"element": "H" 
			},
			{
				"x": 5.3727542078,
				"y": -1.2119441316,
				"z": -2.9013997237,
				"element": "H" 
			},
			{
				"x": 5.0584632258,
				"y": 0.0912993624,
				"z": -1.7445596237,
				"element": "H" 
			},
			{
				"x": 4.9406138514,
				"y": 2.1971876407,
				"z": -2.4252020668,
				"element": "H" 
			},
			{
				"x": 5.3180666078,
				"y": 3.9509846037,
				"z": -4.0961572512,
				"element": "H" 
			},
			{
				"x": 5.6688247076,
				"y": 2.6608390801,
				"z": -5.39479851,
				"element": "H" 
			}
		],
		 "valence_orbital": [ 
			{
				"type": "occ",
				"energy": -0.30455,
				"method": "rhf"
			},
			{
				"type": "occ",
				"energy": -0.2996,
				"method": "rhf"
			},
			{
				"type": "occ",
				"energy": -0.29661,
				"method": "rhf"
			},
			{
				"type": "occ",
				"energy": -0.29342,
				"method": "rhf"
			},
			{
				"type": "occ",
				"energy": -0.21456,
				"method": "rhf"
			},
			{
				"type": "unocc",
				"energy": 0.04166,
				"method": "rhf"
			},
			{
				"type": "unocc",
				"energy": 0.05878,
				"method": "rhf"
			},
			{
				"type": "unocc",
				"energy": 0.0761,
				"method": "rhf"
			},
			{
				"type": "unocc",
				"energy": 0.08688,
				"method": "rhf"
			},
			{
				"type": "unocc",
				"energy": 0.08956,
				"method": "rhf"
			}
		],
		"cosmo_sigma_profile": { 
			"-0.025": 0.0,
			"-0.024": 0.0,
			"-0.023": 0.0,
			"-0.022": 0.0,
			"-0.021": 0.0,
			"-0.02": 0.0,
			"-0.019": 0.0,
			"-0.018": 0.0,
			"-0.017": 0.0,
			"-0.016": 0.0,
			"-0.015": 0.0,
			"-0.014": 0.0,
			"-0.013": 0.0,
			"-0.012": 0.0,
			"-0.011": 0.0,
			"-0.01": 0.0,
			"-0.009": 0.0,
			"-0.008": 0.0,
			"-0.007": 0.492617439643,
			"-0.006": 3.36502591018,
			"-0.005": 6.59976864018,
			"-0.004": 12.1455977557,
			"-0.003": 18.0156309081,
			"-0.002": 50.3024833324,
			"-0.001": 100.604976996,
			"0.0": 109.894609237,
			"0.001": 79.4774168596,
			"0.002": 38.4859159102,
			"0.003": 3.89164334697,
			"0.004": 4.49925062152,
			"0.005": 4.11191549546,
			"0.006": 4.63943973149,
			"0.007": 5.27265597848,
			"0.008": 3.72322931505,
			"0.009": 1.53355920799,
			"0.01": 1.6986485438,
			"0.011": 1.63304123048,
			"0.012": 0.626501088519,
			"0.013": 0.0,
			"0.014": 0.0,
			"0.015": 0.0,
			"0.016": 0.0,
			"0.017": 0.0,
			"0.018": 0.0,
			"0.019": 0.0,
			"0.02": 0.0,
			"0.021": 0.0,
			"0.022": 0.0,
			"0.023": 0.0,
			"0.024": 0.0,
			"0.025": 0.0
		}
	}
}
