{
	 "smiles": "OC(=O)C1CCCCN1C(=O)OCC1=CC=CC=C1", 
	 "Tm": 360.15, 
	 "num_atms": 36, 
	 "gaussian": { 
		 "optdone": 1, 
		 "sigma_profile": "yes", 
		 "theory": "DFT", 
		 "functional": "B3LYP", 
		 "basiset": "6-31G**", 
		 "properties": { 
			 "R2extent": 5435.5932, 
			 "electric_dipole_moment_norm": 1.47799885656, 
			 "electric_quadrupole_moment_norm": 18.6085354749, 
			 "total_energy": -899.420688145, 
			 "HOMO_LUMO_gap": 0.22673, 
			 "cosmo_polarized_energy": -14.78, 
			 "cosmo_cavitation_energy": 38.29, 
			 "cosmo_dispersion_energy": -26.1, 
			 "cosmo_repulsion_energy": 2.03, 
			 "cosmo_total_nonelectrostatic_energy": 14.22, 
			 "SMD_solvation_energy": 7.45 
		},
		"coords": [
			{
				"x": -1.8245297391,
				"y": -0.8680097016,
				"z": -0.6687686415,
				"element": "O" 
			},
			{
				"x": -2.3796110735,
				"y": -0.7641936441,
				"z": 0.556932492,
				"element": "C" 
			},
			{
				"x": -3.4678599354,
				"y": -0.2688129459,
				"z": 0.7507601919,
				"element": "O" 
			},
			{
				"x": -1.5300146663,
				"y": -1.3644341627,
				"z": 1.6843527983,
				"element": "C" 
			},
			{
				"x": -2.1530137919,
				"y": -2.6904356602,
				"z": 2.1647995784,
				"element": "C" 
			},
			{
				"x": -2.02424197,
				"y": -3.8241533302,
				"z": 1.1288247312,
				"element": "C" 
			},
			{
				"x": -0.6589616435,
				"y": -3.7866062175,
				"z": 0.3920459971,
				"element": "C" 
			},
			{
				"x": 0.3737491134,
				"y": -2.9423475506,
				"z": 1.1428572918,
				"element": "C" 
			},
			{
				"x": -0.1248416474,
				"y": -1.5751172203,
				"z": 1.3412793198,
				"element": "N" 
			},
			{
				"x": 0.7145758194,
				"y": -0.5248918352,
				"z": 1.0935786293,
				"element": "C" 
			},
			{
				"x": 1.88577102,
				"y": -0.6244103574,
				"z": 0.7588564914,
				"element": "O" 
			},
			{
				"x": 0.0682413119,
				"y": 0.6594848596,
				"z": 1.284848099,
				"element": "O" 
			},
			{
				"x": 0.8223994991,
				"y": 1.8574757481,
				"z": 0.9688720933,
				"element": "C" 
			},
			{
				"x": 0.594162452,
				"y": 2.3006871113,
				"z": -0.455962212,
				"element": "C" 
			},
			{
				"x": 1.3406109834,
				"y": 1.7412595637,
				"z": -1.5033030787,
				"element": "C" 
			},
			{
				"x": 1.1182378759,
				"y": 2.1442269177,
				"z": -2.8200043911,
				"element": "C" 
			},
			{
				"x": 0.1500726313,
				"y": 3.1103978479,
				"z": -3.1057571208,
				"element": "C" 
			},
			{
				"x": -0.5974227556,
				"y": 3.6718387422,
				"z": -2.0689989325,
				"element": "C" 
			},
			{
				"x": -0.3752200401,
				"y": 3.2667202613,
				"z": -0.7517325937,
				"element": "C" 
			},
			{
				"x": -2.4421153648,
				"y": -0.4352830435,
				"z": -1.2822977895,
				"element": "H" 
			},
			{
				"x": -1.6041141102,
				"y": -0.6332779431,
				"z": 2.494081885,
				"element": "H" 
			},
			{
				"x": -1.64503682,
				"y": -2.9702393983,
				"z": 3.0941094587,
				"element": "H" 
			},
			{
				"x": -3.1999744698,
				"y": -2.5036509025,
				"z": 2.4179500001,
				"element": "H" 
			},
			{
				"x": -2.1598988252,
				"y": -4.7813283141,
				"z": 1.6435673749,
				"element": "H" 
			},
			{
				"x": -2.8371272172,
				"y": -3.752743746,
				"z": 0.3979324598,
				"element": "H" 
			},
			{
				"x": -0.786327593,
				"y": -3.3547198473,
				"z": -0.6048899862,
				"element": "H" 
			},
			{
				"x": -0.2628739501,
				"y": -4.7985497786,
				"z": 0.256547766,
				"element": "H" 
			},
			{
				"x": 0.6146082817,
				"y": -3.3992642676,
				"z": 2.1134746038,
				"element": "H" 
			},
			{
				"x": 1.3060205887,
				"y": -2.8610650552,
				"z": 0.5836921621,
				"element": "H" 
			},
			{
				"x": 1.8783796661,
				"y": 1.6590875716,
				"z": 1.1601518359,
				"element": "H" 
			},
			{
				"x": 0.4534829075,
				"y": 2.6057676947,
				"z": 1.6738174243,
				"element": "H" 
			},
			{
				"x": 2.0842323094,
				"y": 0.9841817192,
				"z": -1.2740508318,
				"element": "H" 
			},
			{
				"x": 1.7037617243,
				"y": 1.7071054178,
				"z": -3.6240460107,
				"element": "H" 
			},
			{
				"x": -0.0181892023,
				"y": 3.4266689693,
				"z": -4.1314868617,
				"element": "H" 
			},
			{
				"x": -1.3496387745,
				"y": 4.4255182817,
				"z": -2.2843778059,
				"element": "H" 
			},
			{
				"x": -0.9575925943,
				"y": 3.7056142157,
				"z": 0.0549435721,
				"element": "H" 
			}
		],
		 "valence_orbital": [ 
			{
				"type": "occ",
				"energy": -0.28489,
				"method": "rhf"
			},
			{
				"type": "occ",
				"energy": -0.26941,
				"method": "rhf"
			},
			{
				"type": "occ",
				"energy": -0.24958,
				"method": "rhf"
			},
			{
				"type": "occ",
				"energy": -0.24731,
				"method": "rhf"
			},
			{
				"type": "occ",
				"energy": -0.23563,
				"method": "rhf"
			},
			{
				"type": "unocc",
				"energy": -0.0089,
				"method": "rhf"
			},
			{
				"type": "unocc",
				"energy": -0.00058,
				"method": "rhf"
			},
			{
				"type": "unocc",
				"energy": 0.00685,
				"method": "rhf"
			},
			{
				"type": "unocc",
				"energy": 0.05236,
				"method": "rhf"
			},
			{
				"type": "unocc",
				"energy": 0.06855,
				"method": "rhf"
			}
		],
		"cosmo_sigma_profile": { 
			"-0.025": 0.0,
			"-0.024": 0.0,
			"-0.023": 0.0,
			"-0.022": 0.0,
			"-0.021": 0.0,
			"-0.02": 0.0,
			"-0.019": 0.0280798290531,
			"-0.018": 1.17558604609,
			"-0.017": 0.647088317165,
			"-0.016": 0.705838139093,
			"-0.015": 0.654527891657,
			"-0.014": 0.774806143979,
			"-0.013": 0.47132786265,
			"-0.012": 0.862193505214,
			"-0.011": 0.888260069759,
			"-0.01": 0.520640227864,
			"-0.009": 0.568280882019,
			"-0.008": 0.595730376037,
			"-0.007": 1.50399151781,
			"-0.006": 11.7351976843,
			"-0.005": 16.946080705,
			"-0.004": 29.7901687387,
			"-0.003": 35.9792395919,
			"-0.002": 32.8050534438,
			"-0.001": 25.4837058388,
			"0.0": 21.455510256,
			"0.001": 14.9168269166,
			"0.002": 13.2905243131,
			"0.003": 18.6814232739,
			"0.004": 17.4460928437,
			"0.005": 17.7775369561,
			"0.006": 7.8250532474,
			"0.007": 3.4972268986,
			"0.008": 2.15156298712,
			"0.009": 3.00222799616,
			"0.01": 3.01376900115,
			"0.011": 5.9660472902,
			"0.012": 5.94337386712,
			"0.013": 3.92135913082,
			"0.014": 0.278827301252,
			"0.015": 0.0,
			"0.016": 0.0,
			"0.017": 0.0,
			"0.018": 0.0,
			"0.019": 0.0,
			"0.02": 0.0,
			"0.021": 0.0,
			"0.022": 0.0,
			"0.023": 0.0,
			"0.024": 0.0,
			"0.025": 0.0
		}
	}
}
