{
	 "smiles": "C(SC1=CC=CC=C1)C1=CC=C(CN2CCOCC2)C=C1", 
	 "Tm": 492.15, 
	 "num_atms": 42, 
	 "gaussian": { 
		 "optdone": 1, 
		 "sigma_profile": "yes", 
		 "theory": "DFT", 
		 "functional": "B3LYP", 
		 "basiset": "6-31G**", 
		 "properties": { 
			 "R2extent": 10492.3519, 
			 "electric_dipole_moment_norm": 1.06684400453, 
			 "electric_quadrupole_moment_norm": 22.6749628253, 
			 "total_energy": -1226.70500663, 
			 "HOMO_LUMO_gap": 0.18661, 
			 "cosmo_polarized_energy": -11.29, 
			 "cosmo_cavitation_energy": 45.38, 
			 "cosmo_dispersion_energy": -31.46, 
			 "cosmo_repulsion_energy": 2.41, 
			 "cosmo_total_nonelectrostatic_energy": 16.32, 
			 "SMD_solvation_energy": 5.03 
		},
		"coords": [
			{
				"x": 0.9049746379,
				"y": -0.8241714836,
				"z": 3.2373860498,
				"element": "C" 
			},
			{
				"x": 0.8473705248,
				"y": -2.6476195526,
				"z": 3.6175075064,
				"element": "S" 
			},
			{
				"x": 1.8444742035,
				"y": -3.3239967829,
				"z": 2.2870568422,
				"element": "C" 
			},
			{
				"x": 1.2410929464,
				"y": -3.7572069141,
				"z": 1.0984840321,
				"element": "C" 
			},
			{
				"x": 2.0181337346,
				"y": -4.3149921558,
				"z": 0.081474586,
				"element": "C" 
			},
			{
				"x": 3.3986828027,
				"y": -4.4445635688,
				"z": 0.2435304879,
				"element": "C" 
			},
			{
				"x": 4.003904475,
				"y": -4.017272251,
				"z": 1.427661425,
				"element": "C" 
			},
			{
				"x": 3.2307418304,
				"y": -3.4615814687,
				"z": 2.4478546799,
				"element": "C" 
			},
			{
				"x": 0.1782545458,
				"y": -0.4060833107,
				"z": 1.9880419494,
				"element": "C" 
			},
			{
				"x": 0.8817729875,
				"y": -0.123590908,
				"z": 0.8089912693,
				"element": "C" 
			},
			{
				"x": 0.2128466843,
				"y": 0.2661959569,
				"z": -0.3505958337,
				"element": "C" 
			},
			{
				"x": -1.1818310904,
				"y": 0.3856579148,
				"z": -0.3651737734,
				"element": "C" 
			},
			{
				"x": -1.9179234749,
				"y": 0.7625797777,
				"z": -1.6376345776,
				"element": "C" 
			},
			{
				"x": -1.2473260334,
				"y": 1.803124028,
				"z": -2.4114159657,
				"element": "N" 
			},
			{
				"x": -1.7619256181,
				"y": 1.8790813561,
				"z": -3.7841060975,
				"element": "C" 
			},
			{
				"x": -1.3490747599,
				"y": 3.1978145405,
				"z": -4.4252639143,
				"element": "C" 
			},
			{
				"x": -1.9298670025,
				"y": 4.3237870721,
				"z": -3.7684237868,
				"element": "O" 
			},
			{
				"x": -2.1978079194,
				"y": 4.1130344853,
				"z": -2.3825324533,
				"element": "C" 
			},
			{
				"x": -1.2142114553,
				"y": 3.1276582904,
				"z": -1.7538330691,
				"element": "C" 
			},
			{
				"x": -1.885901663,
				"y": 0.1084741763,
				"z": 0.8136338711,
				"element": "C" 
			},
			{
				"x": -1.217932662,
				"y": -0.2863614106,
				"z": 1.9711319357,
				"element": "C" 
			},
			{
				"x": 0.4531224563,
				"y": -0.3752028877,
				"z": 4.1272771322,
				"element": "H" 
			},
			{
				"x": 1.9546282937,
				"y": -0.5218446449,
				"z": 3.2062581766,
				"element": "H" 
			},
			{
				"x": 0.1676912412,
				"y": -3.6555011425,
				"z": 0.9790267591,
				"element": "H" 
			},
			{
				"x": 1.5435534077,
				"y": -4.6487275688,
				"z": -0.8369645081,
				"element": "H" 
			},
			{
				"x": 4.0009567903,
				"y": -4.8811494012,
				"z": -0.5481366877,
				"element": "H" 
			},
			{
				"x": 5.077075316,
				"y": -4.1221591724,
				"z": 1.5602539825,
				"element": "H" 
			},
			{
				"x": 3.6942481924,
				"y": -3.1389334228,
				"z": 3.3751535778,
				"element": "H" 
			},
			{
				"x": 1.9654879412,
				"y": -0.207453343,
				"z": 0.8013216001,
				"element": "H" 
			},
			{
				"x": 0.7674486817,
				"y": 0.4958004477,
				"z": -1.2552769597,
				"element": "H" 
			},
			{
				"x": -1.9800499141,
				"y": -0.1231291439,
				"z": -2.2855516685,
				"element": "H" 
			},
			{
				"x": -2.9653367835,
				"y": 1.0254439163,
				"z": -1.3887625925,
				"element": "H" 
			},
			{
				"x": -1.3647798284,
				"y": 1.0394604672,
				"z": -4.3696606172,
				"element": "H" 
			},
			{
				"x": -2.8653784054,
				"y": 1.8046147479,
				"z": -3.8243751269,
				"element": "H" 
			},
			{
				"x": -1.6812707705,
				"y": 3.2325872674,
				"z": -5.4681121253,
				"element": "H" 
			},
			{
				"x": -0.2505242237,
				"y": 3.2764767767,
				"z": -4.4193699682,
				"element": "H" 
			},
			{
				"x": -3.2301645514,
				"y": 3.7515409659,
				"z": -2.2471842807,
				"element": "H" 
			},
			{
				"x": -2.1263969639,
				"y": 5.0912931891,
				"z": -1.894242657,
				"element": "H" 
			},
			{
				"x": -0.2018549992,
				"y": 3.5473704817,
				"z": -1.8216772542,
				"element": "H" 
			},
			{
				"x": -1.4345452711,
				"y": 3.0111528437,
				"z": -0.6883200783,
				"element": "H" 
			},
			{
				"x": -2.9691210426,
				"y": 0.206477331,
				"z": 0.8260955699,
				"element": "H" 
			},
			{
				"x": -1.7848372605,
				"y": -0.500685499,
				"z": 2.8737725627,
				"element": "H" 
			}
		],
		 "valence_orbital": [ 
			{
				"type": "occ",
				"energy": -0.24755,
				"method": "rhf"
			},
			{
				"type": "occ",
				"energy": -0.24537,
				"method": "rhf"
			},
			{
				"type": "occ",
				"energy": -0.23821,
				"method": "rhf"
			},
			{
				"type": "occ",
				"energy": -0.22173,
				"method": "rhf"
			},
			{
				"type": "occ",
				"energy": -0.20982,
				"method": "rhf"
			},
			{
				"type": "unocc",
				"energy": -0.02321,
				"method": "rhf"
			},
			{
				"type": "unocc",
				"energy": -0.00801,
				"method": "rhf"
			},
			{
				"type": "unocc",
				"energy": -0.00315,
				"method": "rhf"
			},
			{
				"type": "unocc",
				"energy": 0.0013,
				"method": "rhf"
			},
			{
				"type": "unocc",
				"energy": 0.05552,
				"method": "rhf"
			}
		],
		"cosmo_sigma_profile": { 
			"-0.025": 0.0,
			"-0.024": 0.0,
			"-0.023": 0.0,
			"-0.022": 0.0,
			"-0.021": 0.0,
			"-0.02": 0.0,
			"-0.019": 0.0,
			"-0.018": 0.0,
			"-0.017": 0.0,
			"-0.016": 0.0,
			"-0.015": 0.0,
			"-0.014": 0.0,
			"-0.013": 0.0,
			"-0.012": 0.0,
			"-0.011": 0.0,
			"-0.01": 0.0,
			"-0.009": 0.0,
			"-0.008": 0.0,
			"-0.007": 0.709778035789,
			"-0.006": 11.2563623732,
			"-0.005": 24.650474507,
			"-0.004": 38.6554377644,
			"-0.003": 49.5754426909,
			"-0.002": 42.1824428269,
			"-0.001": 28.9492908483,
			"0.0": 20.4669876,
			"0.001": 19.968696968,
			"0.002": 21.923358114,
			"0.003": 21.0892676423,
			"0.004": 23.6539302139,
			"0.005": 23.6553225093,
			"0.006": 10.6461705224,
			"0.007": 4.88310584781,
			"0.008": 3.97726985543,
			"0.009": 4.41061867275,
			"0.01": 2.6213894483,
			"0.011": 1.53986487136,
			"0.012": 1.12767205814,
			"0.013": 2.0215592207,
			"0.014": 1.42719746873,
			"0.015": 0.025295952388,
			"0.016": 0.0,
			"0.017": 0.0,
			"0.018": 0.0,
			"0.019": 0.0,
			"0.02": 0.0,
			"0.021": 0.0,
			"0.022": 0.0,
			"0.023": 0.0,
			"0.024": 0.0,
			"0.025": 0.0
		}
	}
}
