{
	 "smiles": "OC(=O)C1=CC2=C(C=C1)C(=O)N(CC=C)C2=O", 
	 "Tm": 428.15, 
	 "num_atms": 26, 
	 "gaussian": { 
		 "optdone": 1, 
		 "sigma_profile": "yes", 
		 "theory": "DFT", 
		 "functional": "B3LYP", 
		 "basiset": "6-31G**", 
		 "properties": { 
			 "R2extent": 5517.1817, 
			 "electric_dipole_moment_norm": 2.75820427271, 
			 "electric_quadrupole_moment_norm": 16.4204310607, 
			 "total_energy": -818.35940806, 
			 "HOMO_LUMO_gap": 0.16681, 
			 "cosmo_polarized_energy": -20.11, 
			 "cosmo_cavitation_energy": 32.25, 
			 "cosmo_dispersion_energy": -22.42, 
			 "cosmo_repulsion_energy": 1.72, 
			 "cosmo_total_nonelectrostatic_energy": 11.54, 
			 "SMD_solvation_energy": 8.6 
		},
		"coords": [
			{
				"x": -3.6865429579,
				"y": -3.5796986776,
				"z": -2.7743274636,
				"element": "O" 
			},
			{
				"x": -3.3918987079,
				"y": -3.78932109,
				"z": -1.4669686197,
				"element": "C" 
			},
			{
				"x": -3.821400109,
				"y": -4.7622106312,
				"z": -0.8946959578,
				"element": "O" 
			},
			{
				"x": -2.5235496969,
				"y": -2.7633904593,
				"z": -0.7906583398,
				"element": "C" 
			},
			{
				"x": -2.3720345306,
				"y": -1.45442854,
				"z": -1.2814043661,
				"element": "C" 
			},
			{
				"x": -1.5590319347,
				"y": -0.5890906289,
				"z": -0.567555131,
				"element": "C" 
			},
			{
				"x": -0.9125236302,
				"y": -0.9898570919,
				"z": 0.6014064191,
				"element": "C" 
			},
			{
				"x": -1.0641495008,
				"y": -2.273251644,
				"z": 1.1093426068,
				"element": "C" 
			},
			{
				"x": -1.8846564585,
				"y": -3.1542798634,
				"z": 0.3999220074,
				"element": "C" 
			},
			{
				"x": -0.1307917031,
				"y": 0.1739820093,
				"z": 1.1252514488,
				"element": "C" 
			},
			{
				"x": 0.5445853225,
				"y": 0.2474691773,
				"z": 2.1301026018,
				"element": "O" 
			},
			{
				"x": -0.3498956282,
				"y": 1.2170383602,
				"z": 0.2078665735,
				"element": "N" 
			},
			{
				"x": 0.2252926866,
				"y": 2.5456682289,
				"z": 0.3419253538,
				"element": "C" 
			},
			{
				"x": 1.5600427878,
				"y": 2.7298713376,
				"z": -0.3387461203,
				"element": "C" 
			},
			{
				"x": 2.2329063261,
				"y": 1.8092944863,
				"z": -1.0239962908,
				"element": "C" 
			},
			{
				"x": -1.2188131948,
				"y": 0.8424021776,
				"z": -0.8300779443,
				"element": "C" 
			},
			{
				"x": -1.602454178,
				"y": 1.5621722923,
				"z": -1.7289199561,
				"element": "O" 
			},
			{
				"x": -3.1552146463,
				"y": -2.8574825892,
				"z": -3.1368212159,
				"element": "H" 
			},
			{
				"x": -2.8906426279,
				"y": -1.094211471,
				"z": -2.1659314,
				"element": "H" 
			},
			{
				"x": -0.5662839048,
				"y": -2.5741570859,
				"z": 2.0251908208,
				"element": "H" 
			},
			{
				"x": -2.0532688146,
				"y": -4.1659870684,
				"z": 0.7525349544,
				"element": "H" 
			},
			{
				"x": 0.3248438903,
				"y": 2.7480765385,
				"z": 1.4142397366,
				"element": "H" 
			},
			{
				"x": -0.5014452207,
				"y": 3.2559075019,
				"z": -0.0680683737,
				"element": "H" 
			},
			{
				"x": 1.9724577503,
				"y": 3.7322422283,
				"z": -0.229134515,
				"element": "H" 
			},
			{
				"x": 3.1909395716,
				"y": 2.0368202528,
				"z": -1.4795915914,
				"element": "H" 
			},
			{
				"x": 1.8577291097,
				"y": 0.7987222499,
				"z": -1.1562852374,
				"element": "H" 
			}
		],
		 "valence_orbital": [ 
			{
				"type": "occ",
				"energy": -0.29838,
				"method": "rhf"
			},
			{
				"type": "occ",
				"energy": -0.29071,
				"method": "rhf"
			},
			{
				"type": "occ",
				"energy": -0.28257,
				"method": "rhf"
			},
			{
				"type": "occ",
				"energy": -0.28036,
				"method": "rhf"
			},
			{
				"type": "occ",
				"energy": -0.2701,
				"method": "rhf"
			},
			{
				"type": "unocc",
				"energy": -0.10329,
				"method": "rhf"
			},
			{
				"type": "unocc",
				"energy": -0.06874,
				"method": "rhf"
			},
			{
				"type": "unocc",
				"energy": -0.01966,
				"method": "rhf"
			},
			{
				"type": "unocc",
				"energy": 0.00935,
				"method": "rhf"
			},
			{
				"type": "unocc",
				"energy": 0.04386,
				"method": "rhf"
			}
		],
		"cosmo_sigma_profile": { 
			"-0.025": 0.0,
			"-0.024": 0.0,
			"-0.023": 0.0,
			"-0.022": 0.0,
			"-0.021": 0.0,
			"-0.02": 0.13497254614,
			"-0.019": 0.827796701782,
			"-0.018": 1.1663913799,
			"-0.017": 1.20790940483,
			"-0.016": 0.8157925132,
			"-0.015": 1.13114018416,
			"-0.014": 1.44961086803,
			"-0.013": 1.19000601334,
			"-0.012": 1.05124658266,
			"-0.011": 1.06805268815,
			"-0.01": 0.879688180263,
			"-0.009": 1.89460321747,
			"-0.008": 5.16292185743,
			"-0.007": 9.8231677993,
			"-0.006": 15.5192474562,
			"-0.005": 19.618391673,
			"-0.004": 19.0528410441,
			"-0.003": 17.2272127231,
			"-0.002": 18.2860994707,
			"-0.001": 21.0977566312,
			"0.0": 18.5765361799,
			"0.001": 10.8874145455,
			"0.002": 8.11031542671,
			"0.003": 7.32977903858,
			"0.004": 8.59920340575,
			"0.005": 9.68578654327,
			"0.006": 6.91549831285,
			"0.007": 6.62583822012,
			"0.008": 6.10887855989,
			"0.009": 7.66196399361,
			"0.01": 12.6074487831,
			"0.011": 13.5894589775,
			"0.012": 3.44660918527,
			"0.013": 0.391497571945,
			"0.014": 0.0,
			"0.015": 0.0,
			"0.016": 0.0,
			"0.017": 0.0,
			"0.018": 0.0,
			"0.019": 0.0,
			"0.02": 0.0,
			"0.021": 0.0,
			"0.022": 0.0,
			"0.023": 0.0,
			"0.024": 0.0,
			"0.025": 0.0
		}
	}
}
