{
	 "smiles": "COC1=C(C)C=C2C(Cl)CC2=C1", 
	 "Tm": 314.15, 
	 "num_atms": 23, 
	 "gaussian": { 
		 "optdone": 1, 
		 "sigma_profile": "yes", 
		 "theory": "DFT", 
		 "functional": "B3LYP", 
		 "basiset": "6-31G**", 
		 "properties": { 
			 "R2extent": 3096.8814, 
			 "electric_dipole_moment_norm": 3.66630543736, 
			 "electric_quadrupole_moment_norm": 9.46007008854, 
			 "total_energy": -923.072323096, 
			 "HOMO_LUMO_gap": 0.20251, 
			 "cosmo_polarized_energy": -7.03, 
			 "cosmo_cavitation_energy": 27.79, 
			 "cosmo_dispersion_energy": -20.48, 
			 "cosmo_repulsion_energy": 1.66, 
			 "cosmo_total_nonelectrostatic_energy": 8.97, 
			 "SMD_solvation_energy": 4.72 
		},
		"coords": [
			{
				"x": 2.0936333322,
				"y": -2.665283821,
				"z": 0.197452923,
				"element": "C" 
			},
			{
				"x": 0.8258844769,
				"y": -2.2225159584,
				"z": 0.6537061478,
				"element": "O" 
			},
			{
				"x": 0.5128091322,
				"y": -0.8970838376,
				"z": 0.5334982651,
				"element": "C" 
			},
			{
				"x": -0.7840994129,
				"y": -0.5623072233,
				"z": 1.0158733451,
				"element": "C" 
			},
			{
				"x": -1.6548249988,
				"y": -1.6534228018,
				"z": 1.5877617566,
				"element": "C" 
			},
			{
				"x": -1.2256676801,
				"y": 0.7635267785,
				"z": 0.9550431991,
				"element": "C" 
			},
			{
				"x": -0.3582236461,
				"y": 1.7005691247,
				"z": 0.4034409112,
				"element": "C" 
			},
			{
				"x": -0.1519295596,
				"y": 3.1672361172,
				"z": 0.1272016321,
				"element": "C" 
			},
			{
				"x": -1.3285730251,
				"y": 3.9778030373,
				"z": -1.0147885027,
				"element": "Cl" 
			},
			{
				"x": 1.2411225781,
				"y": 2.7774124382,
				"z": -0.4972779841,
				"element": "C" 
			},
			{
				"x": 0.8967762831,
				"y": 1.355413186,
				"z": -0.0774141257,
				"element": "C" 
			},
			{
				"x": 1.3858023571,
				"y": 0.0558652461,
				"z": -0.0185180027,
				"element": "C" 
			},
			{
				"x": 2.9128238688,
				"y": -2.1790626401,
				"z": 0.7426971746,
				"element": "H" 
			},
			{
				"x": 2.12403173,
				"y": -3.7392799654,
				"z": 0.3877003504,
				"element": "H" 
			},
			{
				"x": 2.2223404552,
				"y": -2.4852881097,
				"z": -0.8775457252,
				"element": "H" 
			},
			{
				"x": -1.1734345412,
				"y": -2.1422447151,
				"z": 2.4418355537,
				"element": "H" 
			},
			{
				"x": -2.6152962576,
				"y": -1.2490888053,
				"z": 1.9173555002,
				"element": "H" 
			},
			{
				"x": -1.8460463637,
				"y": -2.438933642,
				"z": 0.8485354805,
				"element": "H" 
			},
			{
				"x": -2.2142374314,
				"y": 1.0218777204,
				"z": 1.3247177757,
				"element": "H" 
			},
			{
				"x": -0.1031153785,
				"y": 3.8286030318,
				"z": 0.9937992459,
				"element": "H" 
			},
			{
				"x": 1.2927298884,
				"y": 2.9511797367,
				"z": -1.5757499233,
				"element": "H" 
			},
			{
				"x": 2.1079621551,
				"y": 3.2451419135,
				"z": -0.0171402335,
				"element": "H" 
			},
			{
				"x": 2.3695320376,
				"y": -0.2152168108,
				"z": -0.3827847635,
				"element": "H" 
			}
		],
		 "valence_orbital": [ 
			{
				"type": "occ",
				"energy": -0.31842,
				"method": "rhf"
			},
			{
				"type": "occ",
				"energy": -0.28323,
				"method": "rhf"
			},
			{
				"type": "occ",
				"energy": -0.28244,
				"method": "rhf"
			},
			{
				"type": "occ",
				"energy": -0.24828,
				"method": "rhf"
			},
			{
				"type": "occ",
				"energy": -0.21596,
				"method": "rhf"
			},
			{
				"type": "unocc",
				"energy": -0.01345,
				"method": "rhf"
			},
			{
				"type": "unocc",
				"energy": 0.00218,
				"method": "rhf"
			},
			{
				"type": "unocc",
				"energy": 0.04996,
				"method": "rhf"
			},
			{
				"type": "unocc",
				"energy": 0.09556,
				"method": "rhf"
			},
			{
				"type": "unocc",
				"energy": 0.1038,
				"method": "rhf"
			}
		],
		"cosmo_sigma_profile": { 
			"-0.025": 0.0,
			"-0.024": 0.0,
			"-0.023": 0.0,
			"-0.022": 0.0,
			"-0.021": 0.0,
			"-0.02": 0.0,
			"-0.019": 0.0,
			"-0.018": 0.0,
			"-0.017": 0.0,
			"-0.016": 0.0,
			"-0.015": 0.0,
			"-0.014": 0.0,
			"-0.013": 0.0,
			"-0.012": 0.0,
			"-0.011": 0.0,
			"-0.01": 0.0,
			"-0.009": 0.0,
			"-0.008": 0.0963450883199,
			"-0.007": 2.72543026282,
			"-0.006": 9.86058112856,
			"-0.005": 19.1050629257,
			"-0.004": 20.2106783312,
			"-0.003": 21.0144358712,
			"-0.002": 19.0457113851,
			"-0.001": 17.2912028992,
			"0.0": 16.6662245817,
			"0.001": 16.7636992936,
			"0.002": 12.1665934809,
			"0.003": 13.925085649,
			"0.004": 15.2047785325,
			"0.005": 15.4419696881,
			"0.006": 10.7219782405,
			"0.007": 9.84859085052,
			"0.008": 1.53909378392,
			"0.009": 0.793217123207,
			"0.01": 0.0,
			"0.011": 0.0,
			"0.012": 0.0,
			"0.013": 0.0,
			"0.014": 0.0,
			"0.015": 0.0,
			"0.016": 0.0,
			"0.017": 0.0,
			"0.018": 0.0,
			"0.019": 0.0,
			"0.02": 0.0,
			"0.021": 0.0,
			"0.022": 0.0,
			"0.023": 0.0,
			"0.024": 0.0,
			"0.025": 0.0
		}
	}
}
