{
	 "smiles": "CC1=CC=C(C=C1)C1=NNC(=C1)C(O)=O", 
	 "Tm": 525.15, 
	 "num_atms": 25, 
	 "gaussian": { 
		 "optdone": 1, 
		 "sigma_profile": "yes", 
		 "theory": "DFT", 
		 "functional": "B3LYP", 
		 "basiset": "6-31G**", 
		 "properties": { 
			 "R2extent": 5352.9807, 
			 "electric_dipole_moment_norm": 3.7087927982, 
			 "electric_quadrupole_moment_norm": 16.1681880729, 
			 "total_energy": -685.151283278, 
			 "HOMO_LUMO_gap": 0.17244, 
			 "cosmo_polarized_energy": -17.39, 
			 "cosmo_cavitation_energy": 30.07, 
			 "cosmo_dispersion_energy": -22.22, 
			 "cosmo_repulsion_energy": 1.72, 
			 "cosmo_total_nonelectrostatic_energy": 9.57, 
			 "SMD_solvation_energy": 5.45 
		},
		"coords": [
			{
				"x": 3.9232404825,
				"y": -1.9692162762,
				"z": -2.0439071905,
				"element": "C" 
			},
			{
				"x": 2.7588184882,
				"y": -1.1228180656,
				"z": -1.5881855387,
				"element": "C" 
			},
			{
				"x": 1.6628641884,
				"y": -1.6991699367,
				"z": -0.9279821014,
				"element": "C" 
			},
			{
				"x": 0.5968350742,
				"y": -0.9254119741,
				"z": -0.4832542977,
				"element": "C" 
			},
			{
				"x": 0.5867074629,
				"y": 0.4649962904,
				"z": -0.6862613851,
				"element": "C" 
			},
			{
				"x": 1.6777871199,
				"y": 1.0447429173,
				"z": -1.3482478733,
				"element": "C" 
			},
			{
				"x": 2.7428251353,
				"y": 0.2621152174,
				"z": -1.7908844575,
				"element": "C" 
			},
			{
				"x": -0.5456268649,
				"y": 1.2789682662,
				"z": -0.2156848053,
				"element": "C" 
			},
			{
				"x": -1.5912094649,
				"y": 0.7072097191,
				"z": 0.4110240789,
				"element": "N" 
			},
			{
				"x": -2.4204926512,
				"y": 1.7103177564,
				"z": 0.6977693717,
				"element": "N" 
			},
			{
				"x": -1.9651480608,
				"y": 2.9234689237,
				"z": 0.2854915403,
				"element": "C" 
			},
			{
				"x": -0.7387208806,
				"y": 2.6803234205,
				"z": -0.3175831548,
				"element": "C" 
			},
			{
				"x": -2.7977901781,
				"y": 4.1129159009,
				"z": 0.5473330934,
				"element": "C" 
			},
			{
				"x": -2.315781162,
				"y": 5.30416046,
				"z": 0.123583604,
				"element": "O" 
			},
			{
				"x": -3.8655909632,
				"y": 4.0376528877,
				"z": 1.1147887212,
				"element": "O" 
			},
			{
				"x": 4.5789534315,
				"y": -2.2280729546,
				"z": -1.2030530984,
				"element": "H" 
			},
			{
				"x": 4.5331216867,
				"y": -1.4457841893,
				"z": -2.7857518483,
				"element": "H" 
			},
			{
				"x": 3.583965501,
				"y": -2.9107825234,
				"z": -2.4880150357,
				"element": "H" 
			},
			{
				"x": 1.6453953268,
				"y": -2.7736900467,
				"z": -0.7614567777,
				"element": "H" 
			},
			{
				"x": -0.2428540519,
				"y": -1.3880940193,
				"z": 0.0240089391,
				"element": "H" 
			},
			{
				"x": 1.701691719,
				"y": 2.1159030331,
				"z": -1.5271319845,
				"element": "H" 
			},
			{
				"x": 3.575296849,
				"y": 0.736979926,
				"z": -2.3041847637,
				"element": "H" 
			},
			{
				"x": -3.2965386566,
				"y": 1.5518423048,
				"z": 1.1763911154,
				"element": "H" 
			},
			{
				"x": -0.0711909689,
				"y": 3.4004741419,
				"z": -0.7682937072,
				"element": "H" 
			},
			{
				"x": -1.4571585624,
				"y": 5.1903688204,
				"z": -0.3079124444,
				"element": "H" 
			}
		],
		 "valence_orbital": [ 
			{
				"type": "occ",
				"energy": -0.29498,
				"method": "rhf"
			},
			{
				"type": "occ",
				"energy": -0.29048,
				"method": "rhf"
			},
			{
				"type": "occ",
				"energy": -0.27418,
				"method": "rhf"
			},
			{
				"type": "occ",
				"energy": -0.25268,
				"method": "rhf"
			},
			{
				"type": "occ",
				"energy": -0.22401,
				"method": "rhf"
			},
			{
				"type": "unocc",
				"energy": -0.05157,
				"method": "rhf"
			},
			{
				"type": "unocc",
				"energy": -0.0274,
				"method": "rhf"
			},
			{
				"type": "unocc",
				"energy": -0.00265,
				"method": "rhf"
			},
			{
				"type": "unocc",
				"energy": 0.04421,
				"method": "rhf"
			},
			{
				"type": "unocc",
				"energy": 0.06432,
				"method": "rhf"
			}
		],
		"cosmo_sigma_profile": { 
			"-0.025": 0.0,
			"-0.024": 0.0,
			"-0.023": 0.0,
			"-0.022": 0.0,
			"-0.021": 0.0,
			"-0.02": 0.0238025309204,
			"-0.019": 0.840584072493,
			"-0.018": 1.71636538473,
			"-0.017": 1.29645825665,
			"-0.016": 1.55708655279,
			"-0.015": 2.04064133858,
			"-0.014": 1.32201167009,
			"-0.013": 1.91376785099,
			"-0.012": 2.23742424785,
			"-0.011": 2.02463448838,
			"-0.01": 1.74817434847,
			"-0.009": 3.17836013179,
			"-0.008": 3.65013665709,
			"-0.007": 3.26107461919,
			"-0.006": 3.81613725642,
			"-0.005": 9.45789682807,
			"-0.004": 19.3815297445,
			"-0.003": 17.8159934383,
			"-0.002": 16.4019083253,
			"-0.001": 15.7892485398,
			"0.0": 18.4736576511,
			"0.001": 14.2069916159,
			"0.002": 14.510365221,
			"0.003": 17.3843987148,
			"0.004": 14.2581029861,
			"0.005": 13.9647258374,
			"0.006": 8.24859232004,
			"0.007": 3.5962161723,
			"0.008": 4.64304104365,
			"0.009": 5.78360016126,
			"0.01": 5.49816900174,
			"0.011": 5.63354375349,
			"0.012": 3.67910601541,
			"0.013": 1.0055968513,
			"0.014": 0.0,
			"0.015": 0.0,
			"0.016": 0.0,
			"0.017": 0.0,
			"0.018": 0.0,
			"0.019": 0.0,
			"0.02": 0.0,
			"0.021": 0.0,
			"0.022": 0.0,
			"0.023": 0.0,
			"0.024": 0.0,
			"0.025": 0.0
		}
	}
}
