{
	 "smiles": "OC(=O)C1=C(O)C(Cl)=CC(Cl)=C1Cl", 
	 "Tm": 483.15, 
	 "num_atms": 16, 
	 "gaussian": { 
		 "optdone": 1, 
		 "sigma_profile": "yes", 
		 "theory": "DFT", 
		 "functional": "B3LYP", 
		 "basiset": "6-31G**", 
		 "properties": { 
			 "R2extent": 4464.7022, 
			 "electric_dipole_moment_norm": 5.62944828735, 
			 "electric_quadrupole_moment_norm": 20.7354272893, 
			 "total_energy": -1874.79061539, 
			 "HOMO_LUMO_gap": 0.18556, 
			 "cosmo_polarized_energy": -15.15, 
			 "cosmo_cavitation_energy": 26.0, 
			 "cosmo_dispersion_energy": -20.08, 
			 "cosmo_repulsion_energy": 1.58, 
			 "cosmo_total_nonelectrostatic_energy": 7.5, 
			 "SMD_solvation_energy": 5.11 
		},
		"coords": [
			{
				"x": -3.2342738727,
				"y": 2.1476490379,
				"z": -1.3981242108,
				"element": "O" 
			},
			{
				"x": -2.1252643006,
				"y": 2.7699718991,
				"z": -0.951983151,
				"element": "C" 
			},
			{
				"x": -1.9807559032,
				"y": 3.9550333091,
				"z": -1.1133789159,
				"element": "O" 
			},
			{
				"x": -1.0787719938,
				"y": 1.9039897501,
				"z": -0.2636693125,
				"element": "C" 
			},
			{
				"x": -1.4719678259,
				"y": 0.8165944602,
				"z": 0.5423966111,
				"element": "C" 
			},
			{
				"x": -2.7962588775,
				"y": 0.4999109162,
				"z": 0.6052347013,
				"element": "O" 
			},
			{
				"x": -0.5162185232,
				"y": 0.0821335773,
				"z": 1.2535668699,
				"element": "C" 
			},
			{
				"x": -1.0555354416,
				"y": -1.2552831792,
				"z": 2.2577063996,
				"element": "Cl" 
			},
			{
				"x": 0.8313472443,
				"y": 0.3900886445,
				"z": 1.1661597389,
				"element": "C" 
			},
			{
				"x": 1.241217939,
				"y": 1.441941367,
				"z": 0.3497546304,
				"element": "C" 
			},
			{
				"x": 2.9518984211,
				"y": 1.7671238772,
				"z": 0.2505854468,
				"element": "Cl" 
			},
			{
				"x": 0.2990376574,
				"y": 2.2028401514,
				"z": -0.3636735422,
				"element": "C" 
			},
			{
				"x": 0.8739030075,
				"y": 3.4673402225,
				"z": -1.4021863875,
				"element": "Cl" 
			},
			{
				"x": -3.3038259684,
				"y": 1.2524370384,
				"z": -1.0282234016,
				"element": "H" 
			},
			{
				"x": -2.9172415524,
				"y": -0.272397926,
				"z": 1.1809900206,
				"element": "H" 
			},
			{
				"x": 1.5630099902,
				"y": -0.1863731459,
				"z": 1.718444503,
				"element": "H" 
			}
		],
		 "valence_orbital": [ 
			{
				"type": "occ",
				"energy": -0.32583,
				"method": "rhf"
			},
			{
				"type": "occ",
				"energy": -0.31139,
				"method": "rhf"
			},
			{
				"type": "occ",
				"energy": -0.28249,
				"method": "rhf"
			},
			{
				"type": "occ",
				"energy": -0.27524,
				"method": "rhf"
			},
			{
				"type": "occ",
				"energy": -0.25783,
				"method": "rhf"
			},
			{
				"type": "unocc",
				"energy": -0.07227,
				"method": "rhf"
			},
			{
				"type": "unocc",
				"energy": -0.04185,
				"method": "rhf"
			},
			{
				"type": "unocc",
				"energy": -0.02817,
				"method": "rhf"
			},
			{
				"type": "unocc",
				"energy": 0.00624,
				"method": "rhf"
			},
			{
				"type": "unocc",
				"energy": 0.02286,
				"method": "rhf"
			}
		],
		"cosmo_sigma_profile": { 
			"-0.025": 0.0,
			"-0.024": 0.0,
			"-0.023": 0.0,
			"-0.022": 0.0,
			"-0.021": 0.0,
			"-0.02": 0.0,
			"-0.019": 0.0,
			"-0.018": 0.0994431084452,
			"-0.017": 0.494750633405,
			"-0.016": 0.93008933289,
			"-0.015": 0.431514667278,
			"-0.014": 1.0237078298,
			"-0.013": 1.63557938082,
			"-0.012": 2.00357771955,
			"-0.011": 1.90385959642,
			"-0.01": 2.98022114703,
			"-0.009": 3.96831664544,
			"-0.008": 3.0680505489,
			"-0.007": 4.01211719279,
			"-0.006": 4.88642167478,
			"-0.005": 6.24989541371,
			"-0.004": 10.2311367851,
			"-0.003": 15.0110520077,
			"-0.002": 20.5862088931,
			"-0.001": 25.2038372586,
			"0.0": 15.1774572762,
			"0.001": 14.4069085723,
			"0.002": 17.7359960166,
			"0.003": 19.854714035,
			"0.004": 11.889664894,
			"0.005": 4.69902346834,
			"0.006": 2.95187982651,
			"0.007": 2.8513005682,
			"0.008": 3.28571188625,
			"0.009": 4.02646758106,
			"0.01": 5.41314809082,
			"0.011": 5.88074511205,
			"0.012": 3.13159020626,
			"0.013": 0.282770347659,
			"0.014": 0.0,
			"0.015": 0.0,
			"0.016": 0.0,
			"0.017": 0.0,
			"0.018": 0.0,
			"0.019": 0.0,
			"0.02": 0.0,
			"0.021": 0.0,
			"0.022": 0.0,
			"0.023": 0.0,
			"0.024": 0.0,
			"0.025": 0.0
		}
	}
}
