{
	 "smiles": "CNC1=C(C=O)C(=O)OC2=CC=CC=C12", 
	 "Tm": 489.15, 
	 "num_atms": 24, 
	 "gaussian": { 
		 "optdone": 1, 
		 "sigma_profile": "yes", 
		 "theory": "DFT", 
		 "functional": "B3LYP", 
		 "basiset": "6-31G**", 
		 "properties": { 
			 "R2extent": 3486.7929, 
			 "electric_dipole_moment_norm": 7.20868790627, 
			 "electric_quadrupole_moment_norm": 10.6964205265, 
			 "total_energy": -705.013343131, 
			 "HOMO_LUMO_gap": 0.15823, 
			 "cosmo_polarized_energy": -19.14, 
			 "cosmo_cavitation_energy": 27.87, 
			 "cosmo_dispersion_energy": -20.92, 
			 "cosmo_repulsion_energy": 1.59, 
			 "cosmo_total_nonelectrostatic_energy": 8.55, 
			 "SMD_solvation_energy": 6.19 
		},
		"coords": [
			{
				"x": -2.0496151622,
				"y": 2.2417825119,
				"z": 0.6509395116,
				"element": "C" 
			},
			{
				"x": -2.0940873974,
				"y": 1.0013875953,
				"z": -0.1168305779,
				"element": "N" 
			},
			{
				"x": -1.1579671565,
				"y": 0.0340492809,
				"z": -0.1708892831,
				"element": "C" 
			},
			{
				"x": 0.1904304808,
				"y": 0.2029761741,
				"z": 0.1815748549,
				"element": "C" 
			},
			{
				"x": 0.9236105789,
				"y": 1.4736589617,
				"z": 0.1564345914,
				"element": "C" 
			},
			{
				"x": 0.522050951,
				"y": 2.5303921303,
				"z": -0.319315113,
				"element": "O" 
			},
			{
				"x": 1.0304499386,
				"y": -0.9579710182,
				"z": 0.4626796524,
				"element": "C" 
			},
			{
				"x": 2.1565491778,
				"y": -0.9372666852,
				"z": 0.9056078747,
				"element": "O" 
			},
			{
				"x": 0.4882808155,
				"y": -2.2242939776,
				"z": 0.2119942268,
				"element": "O" 
			},
			{
				"x": -0.7266325771,
				"y": -2.3816329538,
				"z": -0.3717628706,
				"element": "C" 
			},
			{
				"x": -1.0829996649,
				"y": -3.6889610047,
				"z": -0.7216853414,
				"element": "C" 
			},
			{
				"x": -2.3092734714,
				"y": -3.9287582951,
				"z": -1.3250861395,
				"element": "C" 
			},
			{
				"x": -3.1866162787,
				"y": -2.8666820146,
				"z": -1.5847498306,
				"element": "C" 
			},
			{
				"x": -2.833413621,
				"y": -1.5754658559,
				"z": -1.2199450279,
				"element": "C" 
			},
			{
				"x": -1.5986136239,
				"y": -1.3020089133,
				"z": -0.5973388796,
				"element": "C" 
			},
			{
				"x": -1.5180982631,
				"y": 2.0754637211,
				"z": 1.5931097764,
				"element": "H" 
			},
			{
				"x": -1.5302153951,
				"y": 3.0317778661,
				"z": 0.1086875581,
				"element": "H" 
			},
			{
				"x": -3.0791704121,
				"y": 2.532421696,
				"z": 0.8718765027,
				"element": "H" 
			},
			{
				"x": -3.0176452168,
				"y": 0.7194604886,
				"z": -0.4031561705,
				"element": "H" 
			},
			{
				"x": 1.9513467638,
				"y": 1.3856954954,
				"z": 0.5501856775,
				"element": "H" 
			},
			{
				"x": -0.3780784219,
				"y": -4.4865676741,
				"z": -0.514831875,
				"element": "H" 
			},
			{
				"x": -2.5830712308,
				"y": -4.9417877311,
				"z": -1.603314952,
				"element": "H" 
			},
			{
				"x": -4.1378278075,
				"y": -3.0491841276,
				"z": -2.0737305863,
				"element": "H" 
			},
			{
				"x": -3.520893006,
				"y": -0.7694856705,
				"z": -1.4613535792,
				"element": "H" 
			}
		],
		 "valence_orbital": [ 
			{
				"type": "occ",
				"energy": -0.27823,
				"method": "rhf"
			},
			{
				"type": "occ",
				"energy": -0.27619,
				"method": "rhf"
			},
			{
				"type": "occ",
				"energy": -0.25337,
				"method": "rhf"
			},
			{
				"type": "occ",
				"energy": -0.23601,
				"method": "rhf"
			},
			{
				"type": "occ",
				"energy": -0.23309,
				"method": "rhf"
			},
			{
				"type": "unocc",
				"energy": -0.07486,
				"method": "rhf"
			},
			{
				"type": "unocc",
				"energy": -0.02358,
				"method": "rhf"
			},
			{
				"type": "unocc",
				"energy": 0.00097,
				"method": "rhf"
			},
			{
				"type": "unocc",
				"energy": 0.00346,
				"method": "rhf"
			},
			{
				"type": "unocc",
				"energy": 0.04682,
				"method": "rhf"
			}
		],
		"cosmo_sigma_profile": { 
			"-0.025": 0.0,
			"-0.024": 0.0,
			"-0.023": 0.0,
			"-0.022": 0.0,
			"-0.021": 0.0,
			"-0.02": 0.0,
			"-0.019": 0.0,
			"-0.018": 0.0,
			"-0.017": 0.482941189601,
			"-0.016": 1.07527647997,
			"-0.015": 1.02639075479,
			"-0.014": 1.40526092359,
			"-0.013": 1.21384942437,
			"-0.012": 1.20031770832,
			"-0.011": 1.72682536779,
			"-0.01": 1.37087519239,
			"-0.009": 1.73670739926,
			"-0.008": 2.95891381378,
			"-0.007": 7.61537455198,
			"-0.006": 11.6214508462,
			"-0.005": 13.6150524444,
			"-0.004": 14.5708499136,
			"-0.003": 18.7076891847,
			"-0.002": 23.4868623402,
			"-0.001": 13.9305908857,
			"0.0": 14.4070272497,
			"0.001": 14.9086001742,
			"0.002": 13.3931981308,
			"0.003": 13.5268452216,
			"0.004": 5.8831439103,
			"0.005": 4.75914367106,
			"0.006": 3.5637444202,
			"0.007": 3.65941335349,
			"0.008": 4.49507545839,
			"0.009": 3.11894182899,
			"0.01": 4.92966490115,
			"0.011": 5.51546490247,
			"0.012": 8.06481784524,
			"0.013": 4.61050679856,
			"0.014": 1.39149067216,
			"0.015": 0.0288129751784,
			"0.016": 0.0,
			"0.017": 0.0,
			"0.018": 0.0,
			"0.019": 0.0,
			"0.02": 0.0,
			"0.021": 0.0,
			"0.022": 0.0,
			"0.023": 0.0,
			"0.024": 0.0,
			"0.025": 0.0
		}
	}
}
