{
	 "smiles": "BrC1=CC2=CC=C1CCC1=CC(Br)=C(CC2)C=C1", 
	 "Tm": 524.15, 
	 "num_atms": 32, 
	 "gaussian": { 
		 "optdone": 1, 
		 "sigma_profile": "yes", 
		 "theory": "DFT", 
		 "functional": "B3LYP", 
		 "basiset": "6-31G**", 
		 "properties": { 
			 "R2extent": 5633.6123, 
			 "electric_dipole_moment_norm": 2.86981789143, 
			 "electric_quadrupole_moment_norm": 12.2682312323, 
			 "total_energy": -5760.9180966, 
			 "HOMO_LUMO_gap": 0.19418, 
			 "cosmo_polarized_energy": -6.35, 
			 "cosmo_cavitation_energy": 35.91, 
			 "cosmo_dispersion_energy": -25.35, 
			 "cosmo_repulsion_energy": 1.85, 
			 "cosmo_total_nonelectrostatic_energy": 12.4, 
			 "SMD_solvation_energy": 2.54 
		},
		"coords": [
			{
				"x": -1.0109514594,
				"y": -0.0176166484,
				"z": -3.4584248972,
				"element": "Br" 
			},
			{
				"x": -0.8283371124,
				"y": 0.9856541974,
				"z": -1.8286015692,
				"element": "C" 
			},
			{
				"x": 0.4531129055,
				"y": 1.1322660538,
				"z": -1.3016573733,
				"element": "C" 
			},
			{
				"x": 0.634173704,
				"y": 1.733271483,
				"z": -0.0478973144,
				"element": "C" 
			},
			{
				"x": -0.4537364781,
				"y": 2.4357202201,
				"z": 0.4866645947,
				"element": "C" 
			},
			{
				"x": -1.7297169945,
				"y": 2.2578811239,
				"z": -0.0440405408,
				"element": "C" 
			},
			{
				"x": -1.9698235561,
				"y": 1.3955609303,
				"z": -1.1265516961,
				"element": "C" 
			},
			{
				"x": -3.326406694,
				"y": 0.7400514375,
				"z": -1.2786175657,
				"element": "C" 
			},
			{
				"x": -3.3874165216,
				"y": -0.73513651,
				"z": -0.6505612778,
				"element": "C" 
			},
			{
				"x": -2.2468916035,
				"y": -1.0171192527,
				"z": 0.3076849332,
				"element": "C" 
			},
			{
				"x": -1.0897164778,
				"y": -1.6604738378,
				"z": -0.1538715967,
				"element": "C" 
			},
			{
				"x": 0.1327551536,
				"y": -1.4383864594,
				"z": 0.4766210909,
				"element": "C" 
			},
			{
				"x": 1.7018920083,
				"y": -2.2027074878,
				"z": -0.3294240781,
				"element": "Br" 
			},
			{
				"x": 0.2597669432,
				"y": -0.5550992012,
				"z": 1.5571914059,
				"element": "C" 
			},
			{
				"x": 1.5275022749,
				"y": 0.2135677869,
				"z": 1.8655142325,
				"element": "C" 
			},
			{
				"x": 1.8391446997,
				"y": 1.3692274534,
				"z": 0.7971419749,
				"element": "C" 
			},
			{
				"x": -0.9470106922,
				"y": -0.1848800731,
				"z": 2.173323219,
				"element": "C" 
			},
			{
				"x": -2.1821368368,
				"y": -0.4148712282,
				"z": 1.5709274164,
				"element": "C" 
			},
			{
				"x": 1.2868511109,
				"y": 0.6489589127,
				"z": -1.798911422,
				"element": "H" 
			},
			{
				"x": -0.3357965392,
				"y": 2.9976591145,
				"z": 1.4098746845,
				"element": "H" 
			},
			{
				"x": -2.5833841399,
				"y": 2.6804091081,
				"z": 0.4802937407,
				"element": "H" 
			},
			{
				"x": -3.6277765335,
				"y": 0.6692138093,
				"z": -2.3272650387,
				"element": "H" 
			},
			{
				"x": -4.0687458153,
				"y": 1.362278522,
				"z": -0.7697218097,
				"element": "H" 
			},
			{
				"x": -4.3600151487,
				"y": -0.8427198773,
				"z": -0.1580518708,
				"element": "H" 
			},
			{
				"x": -3.3590764648,
				"y": -1.4582858199,
				"z": -1.4701155568,
				"element": "H" 
			},
			{
				"x": -1.1103039293,
				"y": -2.2143824686,
				"z": -1.0859367918,
				"element": "H" 
			},
			{
				"x": 2.4000560278,
				"y": -0.4438005954,
				"z": 1.910467179,
				"element": "H" 
			},
			{
				"x": 1.4191197533,
				"y": 0.6756774058,
				"z": 2.8513725524,
				"element": "H" 
			},
			{
				"x": 2.6475931599,
				"y": 1.025663625,
				"z": 0.1461382813,
				"element": "H" 
			},
			{
				"x": 2.2163713347,
				"y": 2.2358759461,
				"z": 1.3509513375,
				"element": "H" 
			},
			{
				"x": -0.9032149946,
				"y": 0.425214912,
				"z": 3.0722539931,
				"element": "H" 
			},
			{
				"x": -3.0774810843,
				"y": 0.0145274179,
				"z": 2.013629763,
				"element": "H" 
			}
		],
		 "valence_orbital": [ 
			{
				"type": "occ",
				"energy": -0.2809,
				"method": "rhf"
			},
			{
				"type": "occ",
				"energy": -0.25328,
				"method": "rhf"
			},
			{
				"type": "occ",
				"energy": -0.23761,
				"method": "rhf"
			},
			{
				"type": "occ",
				"energy": -0.22596,
				"method": "rhf"
			},
			{
				"type": "occ",
				"energy": -0.22495,
				"method": "rhf"
			},
			{
				"type": "unocc",
				"energy": -0.03077,
				"method": "rhf"
			},
			{
				"type": "unocc",
				"energy": -0.02656,
				"method": "rhf"
			},
			{
				"type": "unocc",
				"energy": -0.01797,
				"method": "rhf"
			},
			{
				"type": "unocc",
				"energy": 0.00892,
				"method": "rhf"
			},
			{
				"type": "unocc",
				"energy": 0.01749,
				"method": "rhf"
			}
		],
		"cosmo_sigma_profile": { 
			"-0.025": 0.0,
			"-0.024": 0.0,
			"-0.023": 0.0,
			"-0.022": 0.0,
			"-0.021": 0.0,
			"-0.02": 0.0,
			"-0.019": 0.0,
			"-0.018": 0.0,
			"-0.017": 0.0,
			"-0.016": 0.0,
			"-0.015": 0.0,
			"-0.014": 0.0,
			"-0.013": 0.0,
			"-0.012": 0.0,
			"-0.011": 0.0,
			"-0.01": 0.0,
			"-0.009": 0.0,
			"-0.008": 0.0,
			"-0.007": 0.0,
			"-0.006": 1.51011156032,
			"-0.005": 13.5141942966,
			"-0.004": 27.9829719759,
			"-0.003": 32.9506801474,
			"-0.002": 27.7654722219,
			"-0.001": 27.527585229,
			"0.0": 30.1199735244,
			"0.001": 29.3432175684,
			"0.002": 22.3680121157,
			"0.003": 27.9148649929,
			"0.004": 26.9061488149,
			"0.005": 21.3291672048,
			"0.006": 0.951929667708,
			"0.007": 0.0,
			"0.008": 0.0,
			"0.009": 0.0,
			"0.01": 0.0,
			"0.011": 0.0,
			"0.012": 0.0,
			"0.013": 0.0,
			"0.014": 0.0,
			"0.015": 0.0,
			"0.016": 0.0,
			"0.017": 0.0,
			"0.018": 0.0,
			"0.019": 0.0,
			"0.02": 0.0,
			"0.021": 0.0,
			"0.022": 0.0,
			"0.023": 0.0,
			"0.024": 0.0,
			"0.025": 0.0
		}
	}
}
