{
	 "smiles": "NC1=C(SC2=CC=CS2)C=CC(=C1)[N+]([O-])=O", 
	 "Tm": 368.15, 
	 "num_atms": 24, 
	 "gaussian": { 
		 "optdone": 1, 
		 "sigma_profile": "yes", 
		 "theory": "DFT", 
		 "functional": "B3LYP", 
		 "basiset": "6-31G**", 
		 "properties": { 
			 "R2extent": 6428.7242, 
			 "electric_dipole_moment_norm": 4.75618155036, 
			 "electric_quadrupole_moment_norm": 29.093419121, 
			 "total_energy": -1442.0933759, 
			 "HOMO_LUMO_gap": 0.14002, 
			 "cosmo_polarized_energy": -12.79, 
			 "cosmo_cavitation_energy": 32.86, 
			 "cosmo_dispersion_energy": -24.14, 
			 "cosmo_repulsion_energy": 1.79, 
			 "cosmo_total_nonelectrostatic_energy": 10.51, 
			 "SMD_solvation_energy": 7.43 
		},
		"coords": [
			{
				"x": -0.2774627748,
				"y": -2.6260551486,
				"z": 3.1127712172,
				"element": "N" 
			},
			{
				"x": -0.5067233868,
				"y": -1.3174429412,
				"z": 2.7326961631,
				"element": "C" 
			},
			{
				"x": 0.33634673,
				"y": -0.6550300951,
				"z": 1.8028048653,
				"element": "C" 
			},
			{
				"x": 1.8086672918,
				"y": -1.4838647357,
				"z": 1.172658366,
				"element": "S" 
			},
			{
				"x": 1.1857338432,
				"y": -2.3573402781,
				"z": -0.2411526541,
				"element": "C" 
			},
			{
				"x": 0.5998467667,
				"y": -3.5996711667,
				"z": -0.2899151649,
				"element": "C" 
			},
			{
				"x": 0.2494855342,
				"y": -3.9994764376,
				"z": -1.6117216476,
				"element": "C" 
			},
			{
				"x": 0.5776091636,
				"y": -3.0616614377,
				"z": -2.5551124919,
				"element": "C" 
			},
			{
				"x": 1.3170714805,
				"y": -1.6685352108,
				"z": -1.8458976668,
				"element": "S" 
			},
			{
				"x": 0.0625681609,
				"y": 0.6592184101,
				"z": 1.4107593804,
				"element": "C" 
			},
			{
				"x": -1.0418393644,
				"y": 1.3488074815,
				"z": 1.9022125934,
				"element": "C" 
			},
			{
				"x": -1.8624490441,
				"y": 0.6794132452,
				"z": 2.8076359624,
				"element": "C" 
			},
			{
				"x": -1.6214342666,
				"y": -0.620107448,
				"z": 3.2303430727,
				"element": "C" 
			},
			{
				"x": -3.0400758315,
				"y": 1.3812078728,
				"z": 3.3529781666,
				"element": "N" 
			},
			{
				"x": -3.7468553362,
				"y": 0.7751186595,
				"z": 4.1580637603,
				"element": "O" 
			},
			{
				"x": -3.2447702569,
				"y": 2.5318606687,
				"z": 2.970019769,
				"element": "O" 
			},
			{
				"x": 0.6701061419,
				"y": -2.9546717991,
				"z": 2.979855098,
				"element": "H" 
			},
			{
				"x": -0.7045265439,
				"y": -2.9204411463,
				"z": 3.9788946395,
				"element": "H" 
			},
			{
				"x": 0.41534411,
				"y": -4.1952858455,
				"z": 0.5957607526,
				"element": "H" 
			},
			{
				"x": -0.2226230776,
				"y": -4.9456030598,
				"z": -1.8505394855,
				"element": "H" 
			},
			{
				"x": 0.4341012103,
				"y": -3.1143651633,
				"z": -3.6258871597,
				"element": "H" 
			},
			{
				"x": 0.7333272809,
				"y": 1.1432861323,
				"z": 0.7087555351,
				"element": "H" 
			},
			{
				"x": -1.2688556928,
				"y": 2.3643711041,
				"z": 1.607705872,
				"element": "H" 
			},
			{
				"x": -2.2999921384,
				"y": -1.0808316605,
				"z": 3.938211057,
				"element": "H" 
			}
		],
		 "valence_orbital": [ 
			{
				"type": "occ",
				"energy": -0.27859,
				"method": "rhf"
			},
			{
				"type": "occ",
				"energy": -0.26341,
				"method": "rhf"
			},
			{
				"type": "occ",
				"energy": -0.26093,
				"method": "rhf"
			},
			{
				"type": "occ",
				"energy": -0.24455,
				"method": "rhf"
			},
			{
				"type": "occ",
				"energy": -0.22957,
				"method": "rhf"
			},
			{
				"type": "unocc",
				"energy": -0.08955,
				"method": "rhf"
			},
			{
				"type": "unocc",
				"energy": -0.03597,
				"method": "rhf"
			},
			{
				"type": "unocc",
				"energy": -0.01718,
				"method": "rhf"
			},
			{
				"type": "unocc",
				"energy": -0.0047,
				"method": "rhf"
			},
			{
				"type": "unocc",
				"energy": 0.01808,
				"method": "rhf"
			}
		],
		"cosmo_sigma_profile": { 
			"-0.025": 0.0,
			"-0.024": 0.0,
			"-0.023": 0.0,
			"-0.022": 0.0,
			"-0.021": 0.0,
			"-0.02": 0.0,
			"-0.019": 0.0,
			"-0.018": 0.0,
			"-0.017": 0.0,
			"-0.016": 0.0,
			"-0.015": 0.0,
			"-0.014": 0.610766045916,
			"-0.013": 1.84719464967,
			"-0.012": 1.56249259605,
			"-0.011": 2.7128751139,
			"-0.01": 2.79692363438,
			"-0.009": 3.40676455668,
			"-0.008": 4.56236009705,
			"-0.007": 8.98350721703,
			"-0.006": 13.2063591148,
			"-0.005": 12.7111156488,
			"-0.004": 13.5100250924,
			"-0.003": 12.8112856074,
			"-0.002": 13.5726935392,
			"-0.001": 17.627317751,
			"0.0": 22.1204665443,
			"0.001": 24.4485225053,
			"0.002": 25.761005397,
			"0.003": 26.0523730261,
			"0.004": 19.0970542945,
			"0.005": 8.78676512398,
			"0.006": 6.85767903454,
			"0.007": 8.48419660797,
			"0.008": 8.82679348606,
			"0.009": 4.42969416063,
			"0.01": 3.11238206431,
			"0.011": 0.127315206994,
			"0.012": 0.0,
			"0.013": 0.0,
			"0.014": 0.0,
			"0.015": 0.0,
			"0.016": 0.0,
			"0.017": 0.0,
			"0.018": 0.0,
			"0.019": 0.0,
			"0.02": 0.0,
			"0.021": 0.0,
			"0.022": 0.0,
			"0.023": 0.0,
			"0.024": 0.0,
			"0.025": 0.0
		}
	}
}
