{
	 "smiles": "CC1(O)CCC2C3CCC4CC(=O)OCC4(C)C3CCC12C", 
	 "Tm": 509.15, 
	 "num_atms": 52, 
	 "gaussian": { 
		 "optdone": 1, 
		 "sigma_profile": "yes", 
		 "theory": "DFT", 
		 "functional": "B3LYP", 
		 "basiset": "6-31G**", 
		 "properties": { 
			 "R2extent": 8524.8688, 
			 "electric_dipole_moment_norm": 4.62410984515, 
			 "electric_quadrupole_moment_norm": 38.0527233954, 
			 "total_energy": -967.796639563, 
			 "HOMO_LUMO_gap": 0.2711, 
			 "cosmo_polarized_energy": -16.25, 
			 "cosmo_cavitation_energy": 44.39, 
			 "cosmo_dispersion_energy": -31.3, 
			 "cosmo_repulsion_energy": 2.28, 
			 "cosmo_total_nonelectrostatic_energy": 15.36, 
			 "SMD_solvation_energy": 7.04 
		},
		"coords": [
			{
				"x": -4.4999062791,
				"y": 0.1152185318,
				"z": 1.1251037721,
				"element": "C" 
			},
			{
				"x": -3.1256395957,
				"y": 0.7254305814,
				"z": 0.8599487738,
				"element": "C" 
			},
			{
				"x": -3.2414292575,
				"y": 1.2549696543,
				"z": -0.4726606023,
				"element": "O" 
			},
			{
				"x": -2.7427797499,
				"y": 1.862241273,
				"z": 1.8636173292,
				"element": "C" 
			},
			{
				"x": -1.2002054161,
				"y": 1.7919529626,
				"z": 2.0726196693,
				"element": "C" 
			},
			{
				"x": -0.7307327942,
				"y": 0.7518516238,
				"z": 1.0359364808,
				"element": "C" 
			},
			{
				"x": 0.6637147425,
				"y": 0.1238143245,
				"z": 1.1682300059,
				"element": "C" 
			},
			{
				"x": 1.7728913117,
				"y": 1.2171380364,
				"z": 1.1900554135,
				"element": "C" 
			},
			{
				"x": 2.9801098058,
				"y": 0.8747661138,
				"z": 0.3085885616,
				"element": "C" 
			},
			{
				"x": 3.4196761783,
				"y": -0.5835536939,
				"z": 0.4756621427,
				"element": "C" 
			},
			{
				"x": 4.7053705677,
				"y": -0.8431652442,
				"z": -0.3519152773,
				"element": "C" 
			},
			{
				"x": 4.9531996961,
				"y": -2.2950524921,
				"z": -0.7074884491,
				"element": "C" 
			},
			{
				"x": 6.0109660808,
				"y": -2.8674813736,
				"z": -0.6029142694,
				"element": "O" 
			},
			{
				"x": 3.8712340935,
				"y": -2.9541998681,
				"z": -1.2054415395,
				"element": "O" 
			},
			{
				"x": 2.625548025,
				"y": -2.2342832275,
				"z": -1.2450517307,
				"element": "C" 
			},
			{
				"x": 2.2771260898,
				"y": -1.6093438963,
				"z": 0.1203068766,
				"element": "C" 
			},
			{
				"x": 2.2714486586,
				"y": -2.7257553864,
				"z": 1.1877203846,
				"element": "C" 
			},
			{
				"x": 0.8856689002,
				"y": -0.8913717431,
				"z": 0.0074730763,
				"element": "C" 
			},
			{
				"x": -0.301559131,
				"y": -1.874973048,
				"z": -0.1475815923,
				"element": "C" 
			},
			{
				"x": -1.6764843742,
				"y": -1.1831005769,
				"z": -0.2346593289,
				"element": "C" 
			},
			{
				"x": -1.9045247369,
				"y": -0.2591438107,
				"z": 0.9701490316,
				"element": "C" 
			},
			{
				"x": -2.0286996422,
				"y": -1.0930799363,
				"z": 2.2669053098,
				"element": "C" 
			},
			{
				"x": -5.2663008745,
				"y": 0.88533475,
				"z": 0.9979532215,
				"element": "H" 
			},
			{
				"x": -4.5814128976,
				"y": -0.2887224092,
				"z": 2.1362197161,
				"element": "H" 
			},
			{
				"x": -4.7103457515,
				"y": -0.6847781961,
				"z": 0.4083839118,
				"element": "H" 
			},
			{
				"x": -2.4665192039,
				"y": 1.8002009902,
				"z": -0.6566808716,
				"element": "H" 
			},
			{
				"x": -3.0670327565,
				"y": 2.8204282767,
				"z": 1.4454910566,
				"element": "H" 
			},
			{
				"x": -3.2747744148,
				"y": 1.7426367606,
				"z": 2.8123270268,
				"element": "H" 
			},
			{
				"x": -0.9591258677,
				"y": 1.4557794858,
				"z": 3.0873835344,
				"element": "H" 
			},
			{
				"x": -0.7173094961,
				"y": 2.7650779565,
				"z": 1.9435456209,
				"element": "H" 
			},
			{
				"x": -0.7128749267,
				"y": 1.2617215015,
				"z": 0.0562737263,
				"element": "H" 
			},
			{
				"x": 0.7091833569,
				"y": -0.4282680856,
				"z": 2.1158504043,
				"element": "H" 
			},
			{
				"x": 1.3587734568,
				"y": 2.1770051577,
				"z": 0.8592328277,
				"element": "H" 
			},
			{
				"x": 2.1089568884,
				"y": 1.3747009992,
				"z": 2.2217275856,
				"element": "H" 
			},
			{
				"x": 2.7411027933,
				"y": 1.059301526,
				"z": -0.7475878628,
				"element": "H" 
			},
			{
				"x": 3.8179075718,
				"y": 1.5420011417,
				"z": 0.5451715822,
				"element": "H" 
			},
			{
				"x": 3.673523253,
				"y": -0.7312414703,
				"z": 1.5331590293,
				"element": "H" 
			},
			{
				"x": 4.6291424079,
				"y": -0.2978796649,
				"z": -1.3039404784,
				"element": "H" 
			},
			{
				"x": 5.5943396766,
				"y": -0.4677196052,
				"z": 0.1576929602,
				"element": "H" 
			},
			{
				"x": 1.8898767574,
				"y": -2.9795645951,
				"z": -1.5512084086,
				"element": "H" 
			},
			{
				"x": 2.6691919472,
				"y": -1.4632481402,
				"z": -2.0269325603,
				"element": "H" 
			},
			{
				"x": 3.2767522911,
				"y": -3.1287741557,
				"z": 1.3363401622,
				"element": "H" 
			},
			{
				"x": 1.6290280801,
				"y": -3.564441894,
				"z": 0.9055150794,
				"element": "H" 
			},
			{
				"x": 1.9267769849,
				"y": -2.3422780724,
				"z": 2.1535258815,
				"element": "H" 
			},
			{
				"x": 0.910254423,
				"y": -0.294354461,
				"z": -0.9182273902,
				"element": "H" 
			},
			{
				"x": -0.3109487653,
				"y": -2.5778931441,
				"z": 0.6911974329,
				"element": "H" 
			},
			{
				"x": -0.1603546301,
				"y": -2.485365213,
				"z": -1.0468676173,
				"element": "H" 
			},
			{
				"x": -1.746118385,
				"y": -0.5909578228,
				"z": -1.1535444427,
				"element": "H" 
			},
			{
				"x": -2.4618700475,
				"y": -1.9469516551,
				"z": -0.2983925609,
				"element": "H" 
			},
			{
				"x": -2.80736006,
				"y": -1.8539149032,
				"z": 2.1555229494,
				"element": "H" 
			},
			{
				"x": -1.1016901817,
				"y": -1.6163576643,
				"z": 2.5122099074,
				"element": "H" 
			},
			{
				"x": -2.289964803,
				"y": -0.4823561983,
				"z": 3.1356545379,
				"element": "H" 
			}
		],
		 "valence_orbital": [ 
			{
				"type": "occ",
				"energy": -0.29742,
				"method": "rhf"
			},
			{
				"type": "occ",
				"energy": -0.28503,
				"method": "rhf"
			},
			{
				"type": "occ",
				"energy": -0.28017,
				"method": "rhf"
			},
			{
				"type": "occ",
				"energy": -0.25749,
				"method": "rhf"
			},
			{
				"type": "occ",
				"energy": -0.25456,
				"method": "rhf"
			},
			{
				"type": "unocc",
				"energy": 0.01654,
				"method": "rhf"
			},
			{
				"type": "unocc",
				"energy": 0.05403,
				"method": "rhf"
			},
			{
				"type": "unocc",
				"energy": 0.06287,
				"method": "rhf"
			},
			{
				"type": "unocc",
				"energy": 0.06947,
				"method": "rhf"
			},
			{
				"type": "unocc",
				"energy": 0.08356,
				"method": "rhf"
			}
		],
		"cosmo_sigma_profile": { 
			"-0.025": 0.0,
			"-0.024": 0.0,
			"-0.023": 0.0,
			"-0.022": 0.0,
			"-0.021": 0.0,
			"-0.02": 0.0,
			"-0.019": 0.0,
			"-0.018": 0.0,
			"-0.017": 0.0,
			"-0.016": 0.0,
			"-0.015": 0.0,
			"-0.014": 0.279896338537,
			"-0.013": 0.634290252125,
			"-0.012": 1.07431890539,
			"-0.011": 0.616017907976,
			"-0.01": 0.974261593784,
			"-0.009": 0.680894132457,
			"-0.008": 1.72526312542,
			"-0.007": 3.4646905974,
			"-0.006": 6.73282441794,
			"-0.005": 11.80245158,
			"-0.004": 15.1525478308,
			"-0.003": 41.4627158705,
			"-0.002": 59.282237967,
			"-0.001": 53.1603860557,
			"0.0": 38.7778682058,
			"0.001": 35.7414898206,
			"0.002": 14.600481993,
			"0.003": 4.72752485984,
			"0.004": 3.96691464142,
			"0.005": 4.09117532113,
			"0.006": 2.50221578829,
			"0.007": 3.35088571196,
			"0.008": 4.0148764876,
			"0.009": 4.42956851703,
			"0.01": 3.62168580052,
			"0.011": 6.10657467763,
			"0.012": 6.98461888566,
			"0.013": 5.58196559794,
			"0.014": 2.89816635292,
			"0.015": 1.13248034864,
			"0.016": 0.0,
			"0.017": 0.0,
			"0.018": 0.0,
			"0.019": 0.0,
			"0.02": 0.0,
			"0.021": 0.0,
			"0.022": 0.0,
			"0.023": 0.0,
			"0.024": 0.0,
			"0.025": 0.0
		}
	}
}
