{
	 "smiles": "COC1=C(OC(C)=O)C=CC(=C1)C(O)=O", 
	 "Tm": 418.15, 
	 "num_atms": 25, 
	 "gaussian": { 
		 "optdone": 1, 
		 "sigma_profile": "yes", 
		 "theory": "DFT", 
		 "functional": "B3LYP", 
		 "basiset": "6-31G**", 
		 "properties": { 
			 "R2extent": 3919.9395, 
			 "electric_dipole_moment_norm": 6.98589379607, 
			 "electric_quadrupole_moment_norm": 8.33005060069, 
			 "total_energy": -763.206781919, 
			 "HOMO_LUMO_gap": 0.19663, 
			 "cosmo_polarized_energy": -18.85, 
			 "cosmo_cavitation_energy": 30.54, 
			 "cosmo_dispersion_energy": -21.5, 
			 "cosmo_repulsion_energy": 1.71, 
			 "cosmo_total_nonelectrostatic_energy": 10.74, 
			 "SMD_solvation_energy": 8.57 
		},
		"coords": [
			{
				"x": 2.1097586268,
				"y": -2.8656065588,
				"z": -0.2139200943,
				"element": "C" 
			},
			{
				"x": 0.9111393323,
				"y": -2.5524461353,
				"z": 0.5038960638,
				"element": "O" 
			},
			{
				"x": 0.5487989256,
				"y": -1.2306883386,
				"z": 0.5108045339,
				"element": "C" 
			},
			{
				"x": 0.0121081946,
				"y": -0.6021854944,
				"z": -0.6255676677,
				"element": "C" 
			},
			{
				"x": -0.015092923,
				"y": -1.3456193701,
				"z": -1.797869802,
				"element": "O" 
			},
			{
				"x": -1.1878778616,
				"y": -1.4604869748,
				"z": -2.5192408266,
				"element": "C" 
			},
			{
				"x": -0.9582486621,
				"y": -2.353931736,
				"z": -3.7103303517,
				"element": "C" 
			},
			{
				"x": -2.2188010849,
				"y": -0.9213267732,
				"z": -2.2139761925,
				"element": "O" 
			},
			{
				"x": -0.4184717431,
				"y": 0.7235535816,
				"z": -0.5672191592,
				"element": "C" 
			},
			{
				"x": -0.3233197192,
				"y": 1.4285169305,
				"z": 0.6280536726,
				"element": "C" 
			},
			{
				"x": 0.2179290339,
				"y": 0.8234730473,
				"z": 1.7693143684,
				"element": "C" 
			},
			{
				"x": 0.6481254812,
				"y": -0.5082135439,
				"z": 1.6996111621,
				"element": "C" 
			},
			{
				"x": 0.2843280034,
				"y": 1.6405996733,
				"z": 3.0245916012,
				"element": "C" 
			},
			{
				"x": 1.1204535575,
				"y": 1.1997513061,
				"z": 4.002948558,
				"element": "O" 
			},
			{
				"x": -0.3573914056,
				"y": 2.6509773257,
				"z": 3.1913186615,
				"element": "O" 
			},
			{
				"x": 2.9695629334,
				"y": -2.3289811021,
				"z": 0.2071344972,
				"element": "H" 
			},
			{
				"x": 2.2622073157,
				"y": -3.9397452877,
				"z": -0.0940983199,
				"element": "H" 
			},
			{
				"x": 2.01591145,
				"y": -2.6251983364,
				"z": -1.2772409735,
				"element": "H" 
			},
			{
				"x": -0.6972635062,
				"y": -3.3613881302,
				"z": -3.3723506594,
				"element": "H" 
			},
			{
				"x": -1.8646643468,
				"y": -2.3898634911,
				"z": -4.3133096777,
				"element": "H" 
			},
			{
				"x": -0.1214340747,
				"y": -1.9807167635,
				"z": -4.3074093841,
				"element": "H" 
			},
			{
				"x": -0.8393991368,
				"y": 1.1876962704,
				"z": -1.450322714,
				"element": "H" 
			},
			{
				"x": -0.6678160738,
				"y": 2.4538661608,
				"z": 0.698476292,
				"element": "H" 
			},
			{
				"x": 1.020766211,
				"y": -1.0473392453,
				"z": 2.5664224075,
				"element": "H" 
			},
			{
				"x": 1.6751914724,
				"y": 0.4804029857,
				"z": 3.6719840044,
				"element": "H" 
			}
		],
		 "valence_orbital": [ 
			{
				"type": "occ",
				"energy": -0.30113,
				"method": "rhf"
			},
			{
				"type": "occ",
				"energy": -0.29006,
				"method": "rhf"
			},
			{
				"type": "occ",
				"energy": -0.27441,
				"method": "rhf"
			},
			{
				"type": "occ",
				"energy": -0.26917,
				"method": "rhf"
			},
			{
				"type": "occ",
				"energy": -0.2503,
				"method": "rhf"
			},
			{
				"type": "unocc",
				"energy": -0.05367,
				"method": "rhf"
			},
			{
				"type": "unocc",
				"energy": -0.02121,
				"method": "rhf"
			},
			{
				"type": "unocc",
				"energy": -0.00799,
				"method": "rhf"
			},
			{
				"type": "unocc",
				"energy": 0.04992,
				"method": "rhf"
			},
			{
				"type": "unocc",
				"energy": 0.05621,
				"method": "rhf"
			}
		],
		"cosmo_sigma_profile": { 
			"-0.025": 0.0,
			"-0.024": 0.0,
			"-0.023": 0.0,
			"-0.022": 0.0,
			"-0.021": 0.0,
			"-0.02": 0.0,
			"-0.019": 0.0880481736167,
			"-0.018": 1.1534256858,
			"-0.017": 0.833973388442,
			"-0.016": 0.862208782418,
			"-0.015": 1.36914285697,
			"-0.014": 1.00876743486,
			"-0.013": 1.03211273168,
			"-0.012": 0.987888337552,
			"-0.011": 1.36677348628,
			"-0.01": 1.21579136085,
			"-0.009": 1.0493906962,
			"-0.008": 1.75428283105,
			"-0.007": 8.80648666663,
			"-0.006": 13.8113042042,
			"-0.005": 16.6955960392,
			"-0.004": 18.9732401026,
			"-0.003": 24.5188792537,
			"-0.002": 19.5639735696,
			"-0.001": 14.3515904082,
			"0.0": 13.5196859178,
			"0.001": 16.6453699293,
			"0.002": 13.0133973405,
			"0.003": 9.12156614213,
			"0.004": 7.05745723752,
			"0.005": 5.0398264797,
			"0.006": 5.22667746762,
			"0.007": 5.78537790386,
			"0.008": 5.43820733002,
			"0.009": 7.02558542256,
			"0.01": 9.13878033773,
			"0.011": 10.4091788569,
			"0.012": 5.46954035141,
			"0.013": 1.25063015092,
			"0.014": 0.0185417072946,
			"0.015": 0.0,
			"0.016": 0.0,
			"0.017": 0.0,
			"0.018": 0.0,
			"0.019": 0.0,
			"0.02": 0.0,
			"0.021": 0.0,
			"0.022": 0.0,
			"0.023": 0.0,
			"0.024": 0.0,
			"0.025": 0.0
		}
	}
}
