{
	 "smiles": "NC(=O)C1=C(OCC2=CC(=CC=C2)C(O)=O)C=CC=C1", 
	 "Tm": 512.15, 
	 "num_atms": 33, 
	 "gaussian": { 
		 "optdone": 1, 
		 "sigma_profile": "yes", 
		 "theory": "DFT", 
		 "functional": "B3LYP", 
		 "basiset": "6-31G**", 
		 "properties": { 
			 "R2extent": 5813.6305, 
			 "electric_dipole_moment_norm": 7.80435828176, 
			 "electric_quadrupole_moment_norm": 26.7440416891, 
			 "total_energy": -935.103183242, 
			 "HOMO_LUMO_gap": 0.19831, 
			 "cosmo_polarized_energy": -21.33, 
			 "cosmo_cavitation_energy": 36.29, 
			 "cosmo_dispersion_energy": -25.14, 
			 "cosmo_repulsion_energy": 1.89, 
			 "cosmo_total_nonelectrostatic_energy": 13.04, 
			 "SMD_solvation_energy": 7.53 
		},
		"coords": [
			{
				"x": 0.5529923962,
				"y": 1.5437393989,
				"z": 3.0026519607,
				"element": "N" 
			},
			{
				"x": -0.3934588518,
				"y": 0.571481808,
				"z": 2.9761665739,
				"element": "C" 
			},
			{
				"x": -1.5767770683,
				"y": 0.8043730038,
				"z": 3.2528414804,
				"element": "O" 
			},
			{
				"x": 0.0588855332,
				"y": -0.8187394503,
				"z": 2.6399841636,
				"element": "C" 
			},
			{
				"x": 0.9903601494,
				"y": -1.1036119588,
				"z": 1.6259879331,
				"element": "C" 
			},
			{
				"x": 1.5659591996,
				"y": -0.0563505757,
				"z": 0.9289197606,
				"element": "O" 
			},
			{
				"x": 1.2444184965,
				"y": 0.029461465,
				"z": -0.4806244684,
				"element": "C" 
			},
			{
				"x": -0.2361919497,
				"y": 0.1755798849,
				"z": -0.7616794979,
				"element": "C" 
			},
			{
				"x": -1.0013913584,
				"y": 1.1427535119,
				"z": -0.0965783124,
				"element": "C" 
			},
			{
				"x": -2.3701867041,
				"y": 1.2727661442,
				"z": -0.3450930378,
				"element": "C" 
			},
			{
				"x": -2.9759471428,
				"y": 0.4589373604,
				"z": -1.3127600077,
				"element": "C" 
			},
			{
				"x": -2.2262109426,
				"y": -0.5079741545,
				"z": -1.9754080853,
				"element": "C" 
			},
			{
				"x": -0.8655667068,
				"y": -0.6581335806,
				"z": -1.6910579548,
				"element": "C" 
			},
			{
				"x": -3.2098485398,
				"y": 2.3170425496,
				"z": 0.3419818821,
				"element": "C" 
			},
			{
				"x": -2.8942398315,
				"y": 2.6303590195,
				"z": 1.6132089074,
				"element": "O" 
			},
			{
				"x": -4.1162278095,
				"y": 2.880204301,
				"z": -0.2330504212,
				"element": "O" 
			},
			{
				"x": 1.3395742098,
				"y": -2.4259095149,
				"z": 1.3409902305,
				"element": "C" 
			},
			{
				"x": 0.7604830776,
				"y": -3.4695725457,
				"z": 2.060736042,
				"element": "C" 
			},
			{
				"x": -0.1818653439,
				"y": -3.2000491039,
				"z": 3.0569590564,
				"element": "C" 
			},
			{
				"x": -0.534804844,
				"y": -1.8827192199,
				"z": 3.333303657,
				"element": "C" 
			},
			{
				"x": 0.2401631261,
				"y": 2.4902105843,
				"z": 3.1682417242,
				"element": "H" 
			},
			{
				"x": 1.4472226405,
				"y": 1.3895987008,
				"z": 2.5599041268,
				"element": "H" 
			},
			{
				"x": 1.8049328488,
				"y": 0.906242552,
				"z": -0.8187984148,
				"element": "H" 
			},
			{
				"x": 1.6429501266,
				"y": -0.8459867946,
				"z": -1.0071097413,
				"element": "H" 
			},
			{
				"x": -0.5218664197,
				"y": 1.8064799035,
				"z": 0.6139191136,
				"element": "H" 
			},
			{
				"x": -4.0308399959,
				"y": 0.597699508,
				"z": -1.5242426179,
				"element": "H" 
			},
			{
				"x": -2.6990648276,
				"y": -1.1534403637,
				"z": -2.7096034544,
				"element": "H" 
			},
			{
				"x": -0.2892117543,
				"y": -1.425975683,
				"z": -2.2013470393,
				"element": "H" 
			},
			{
				"x": -2.4050054084,
				"y": 1.9237575227,
				"z": 2.0928218879,
				"element": "H" 
			},
			{
				"x": 2.0694348768,
				"y": -2.6269262876,
				"z": 0.563152023,
				"element": "H" 
			},
			{
				"x": 1.0441980138,
				"y": -4.4945576696,
				"z": 1.8406203715,
				"element": "H" 
			},
			{
				"x": -0.6402511475,
				"y": -4.0129943215,
				"z": 3.6109951126,
				"element": "H" 
			},
			{
				"x": -1.2805180482,
				"y": -1.6500459941,
				"z": 4.0861670457,
				"element": "H" 
			}
		],
		 "valence_orbital": [ 
			{
				"type": "occ",
				"energy": -0.26806,
				"method": "rhf"
			},
			{
				"type": "occ",
				"energy": -0.26509,
				"method": "rhf"
			},
			{
				"type": "occ",
				"energy": -0.26138,
				"method": "rhf"
			},
			{
				"type": "occ",
				"energy": -0.2556,
				"method": "rhf"
			},
			{
				"type": "occ",
				"energy": -0.24775,
				"method": "rhf"
			},
			{
				"type": "unocc",
				"energy": -0.04944,
				"method": "rhf"
			},
			{
				"type": "unocc",
				"energy": -0.03578,
				"method": "rhf"
			},
			{
				"type": "unocc",
				"energy": -0.02469,
				"method": "rhf"
			},
			{
				"type": "unocc",
				"energy": -0.0174,
				"method": "rhf"
			},
			{
				"type": "unocc",
				"energy": 0.02845,
				"method": "rhf"
			}
		],
		"cosmo_sigma_profile": { 
			"-0.025": 0.0,
			"-0.024": 0.0,
			"-0.023": 0.0,
			"-0.022": 0.0,
			"-0.021": 0.0,
			"-0.02": 0.0,
			"-0.019": 0.0,
			"-0.018": 0.0,
			"-0.017": 0.0,
			"-0.016": 0.0,
			"-0.015": 0.249084581944,
			"-0.014": 1.21202420695,
			"-0.013": 1.12620614273,
			"-0.012": 1.62729323724,
			"-0.011": 2.24633237772,
			"-0.01": 2.06419169844,
			"-0.009": 2.92389393042,
			"-0.008": 3.39355694532,
			"-0.007": 12.4090174222,
			"-0.006": 21.9146559087,
			"-0.005": 23.0446582618,
			"-0.004": 21.3492813653,
			"-0.003": 18.0997980871,
			"-0.002": 15.7826140325,
			"-0.001": 13.9788614854,
			"0.0": 16.4670288722,
			"0.001": 15.4476994841,
			"0.002": 20.6963821649,
			"0.003": 27.0719257959,
			"0.004": 19.5194515085,
			"0.005": 5.49719660724,
			"0.006": 5.49499126124,
			"0.007": 4.62464293861,
			"0.008": 4.09394860893,
			"0.009": 4.5427805236,
			"0.01": 5.07691549947,
			"0.011": 6.97066748779,
			"0.012": 8.75417112355,
			"0.013": 3.58643227212,
			"0.014": 0.750660650875,
			"0.015": 0.0,
			"0.016": 0.0,
			"0.017": 0.0,
			"0.018": 0.0,
			"0.019": 0.0,
			"0.02": 0.0,
			"0.021": 0.0,
			"0.022": 0.0,
			"0.023": 0.0,
			"0.024": 0.0,
			"0.025": 0.0
		}
	}
}
