{
	 "smiles": "CCOC(=O)C1=CC(=CC=C1OCC)C(C)=O", 
	 "Tm": 326.15, 
	 "num_atms": 33, 
	 "gaussian": { 
		 "optdone": 1, 
		 "sigma_profile": "yes", 
		 "theory": "DFT", 
		 "functional": "B3LYP", 
		 "basiset": "6-31G**", 
		 "properties": { 
			 "R2extent": 5522.3202, 
			 "electric_dipole_moment_norm": 1.79096848102, 
			 "electric_quadrupole_moment_norm": 22.4596606197, 
			 "total_energy": -805.935409725, 
			 "HOMO_LUMO_gap": 0.18949, 
			 "cosmo_polarized_energy": -12.95, 
			 "cosmo_cavitation_energy": 37.21, 
			 "cosmo_dispersion_energy": -25.99, 
			 "cosmo_repulsion_energy": 2.07, 
			 "cosmo_total_nonelectrostatic_energy": 13.28, 
			 "SMD_solvation_energy": 8.34 
		},
		"coords": [
			{
				"x": 3.8416747276,
				"y": 0.6790481987,
				"z": 0.8741814602,
				"element": "C" 
			},
			{
				"x": 2.7077083696,
				"y": -0.2126995683,
				"z": 1.342543582,
				"element": "C" 
			},
			{
				"x": 1.5190154333,
				"y": 0.1835517213,
				"z": 0.6210952895,
				"element": "O" 
			},
			{
				"x": 0.3916966983,
				"y": -0.4973567743,
				"z": 0.9232074782,
				"element": "C" 
			},
			{
				"x": 0.3679671866,
				"y": -1.4087033593,
				"z": 1.7281757039,
				"element": "O" 
			},
			{
				"x": -0.7834103315,
				"y": 0.0285614508,
				"z": 0.1631723141,
				"element": "C" 
			},
			{
				"x": -0.760861867,
				"y": 1.3324873905,
				"z": -0.3409114929,
				"element": "C" 
			},
			{
				"x": -1.8434554148,
				"y": 1.8709562312,
				"z": -1.0463077886,
				"element": "C" 
			},
			{
				"x": -2.9695597363,
				"y": 1.0638467873,
				"z": -1.2699667078,
				"element": "C" 
			},
			{
				"x": -3.0054348335,
				"y": -0.2405279862,
				"z": -0.7901265543,
				"element": "C" 
			},
			{
				"x": -1.9284910716,
				"y": -0.7716067758,
				"z": -0.0699556723,
				"element": "C" 
			},
			{
				"x": -1.9893880055,
				"y": -2.0793276674,
				"z": 0.308585147,
				"element": "O" 
			},
			{
				"x": -2.4987817139,
				"y": -2.3413648624,
				"z": 1.6346376785,
				"element": "C" 
			},
			{
				"x": -2.3151923064,
				"y": -3.8211670054,
				"z": 1.9059780378,
				"element": "C" 
			},
			{
				"x": -1.7366961704,
				"y": 3.2832877684,
				"z": -1.5349814427,
				"element": "C" 
			},
			{
				"x": -2.8948018676,
				"y": 3.8744064914,
				"z": -2.3220453529,
				"element": "C" 
			},
			{
				"x": -0.7378751032,
				"y": 3.9487324339,
				"z": -1.3054159923,
				"element": "O" 
			},
			{
				"x": 4.7645307217,
				"y": 0.4096372324,
				"z": 1.3972963962,
				"element": "H" 
			},
			{
				"x": 4.0094913375,
				"y": 0.5663619229,
				"z": -0.200629263,
				"element": "H" 
			},
			{
				"x": 3.623612855,
				"y": 1.7308876494,
				"z": 1.0799476693,
				"element": "H" 
			},
			{
				"x": 2.5192606194,
				"y": -0.1126716689,
				"z": 2.4162866733,
				"element": "H" 
			},
			{
				"x": 2.9039786904,
				"y": -1.2704953739,
				"z": 1.14132717,
				"element": "H" 
			},
			{
				"x": 0.1103687599,
				"y": 1.9572708402,
				"z": -0.1866332995,
				"element": "H" 
			},
			{
				"x": -3.8215728937,
				"y": 1.4470285382,
				"z": -1.8224671977,
				"element": "H" 
			},
			{
				"x": -3.8599585766,
				"y": -0.8832960231,
				"z": -0.9750040455,
				"element": "H" 
			},
			{
				"x": -3.5593101343,
				"y": -2.0533208787,
				"z": 1.6710371865,
				"element": "H" 
			},
			{
				"x": -1.9397668944,
				"y": -1.741866422,
				"z": 2.3584670897,
				"element": "H" 
			},
			{
				"x": -2.7161653405,
				"y": -4.074039243,
				"z": 2.8926552794,
				"element": "H" 
			},
			{
				"x": -2.8351037346,
				"y": -4.423066183,
				"z": 1.1546935157,
				"element": "H" 
			},
			{
				"x": -1.2521606082,
				"y": -4.0735515159,
				"z": 1.8844048644,
				"element": "H" 
			},
			{
				"x": -3.0909183731,
				"y": 3.2939852742,
				"z": -3.2304163059,
				"element": "H" 
			},
			{
				"x": -2.6428897873,
				"y": 4.8993290665,
				"z": -2.5953145045,
				"element": "H" 
			},
			{
				"x": -3.8158106349,
				"y": 3.8732823104,
				"z": -1.7284169157,
				"element": "H" 
			}
		],
		 "valence_orbital": [ 
			{
				"type": "occ",
				"energy": -0.27802,
				"method": "rhf"
			},
			{
				"type": "occ",
				"energy": -0.2711,
				"method": "rhf"
			},
			{
				"type": "occ",
				"energy": -0.26393,
				"method": "rhf"
			},
			{
				"type": "occ",
				"energy": -0.25135,
				"method": "rhf"
			},
			{
				"type": "occ",
				"energy": -0.24855,
				"method": "rhf"
			},
			{
				"type": "unocc",
				"energy": -0.05906,
				"method": "rhf"
			},
			{
				"type": "unocc",
				"energy": -0.04145,
				"method": "rhf"
			},
			{
				"type": "unocc",
				"energy": 0.02019,
				"method": "rhf"
			},
			{
				"type": "unocc",
				"energy": 0.06443,
				"method": "rhf"
			},
			{
				"type": "unocc",
				"energy": 0.08713,
				"method": "rhf"
			}
		],
		"cosmo_sigma_profile": { 
			"-0.025": 0.0,
			"-0.024": 0.0,
			"-0.023": 0.0,
			"-0.022": 0.0,
			"-0.021": 0.0,
			"-0.02": 0.0,
			"-0.019": 0.0,
			"-0.018": 0.0,
			"-0.017": 0.0,
			"-0.016": 0.0,
			"-0.015": 0.0,
			"-0.014": 0.0,
			"-0.013": 0.0,
			"-0.012": 0.0,
			"-0.011": 0.0,
			"-0.01": 0.0,
			"-0.009": 0.0,
			"-0.008": 0.545159956568,
			"-0.007": 5.81519169993,
			"-0.006": 11.1116977029,
			"-0.005": 15.7488576205,
			"-0.004": 28.3353485011,
			"-0.003": 34.8505794615,
			"-0.002": 33.9354315861,
			"-0.001": 30.640168246,
			"0.0": 28.8023464277,
			"0.001": 23.0697343625,
			"0.002": 19.6369090596,
			"0.003": 10.2682936328,
			"0.004": 5.1275009388,
			"0.005": 6.11698735856,
			"0.006": 6.28152893503,
			"0.007": 5.17823660199,
			"0.008": 5.01525742052,
			"0.009": 4.34056451267,
			"0.01": 6.57599660796,
			"0.011": 5.85871032093,
			"0.012": 5.19428575918,
			"0.013": 1.3444670688,
			"0.014": 0.109667607457,
			"0.015": 0.0,
			"0.016": 0.0,
			"0.017": 0.0,
			"0.018": 0.0,
			"0.019": 0.0,
			"0.02": 0.0,
			"0.021": 0.0,
			"0.022": 0.0,
			"0.023": 0.0,
			"0.024": 0.0,
			"0.025": 0.0
		}
	}
}
