{
	 "smiles": "CC1CCCC(C1)N1C(C)=NN=C1S", 
	 "Tm": 403.15, 
	 "num_atms": 31, 
	 "gaussian": { 
		 "optdone": 1, 
		 "sigma_profile": "yes", 
		 "theory": "DFT", 
		 "functional": "B3LYP", 
		 "basiset": "6-31G**", 
		 "properties": { 
			 "R2extent": 4873.4925, 
			 "electric_dipole_moment_norm": 5.48146127324, 
			 "electric_quadrupole_moment_norm": 23.7018698581, 
			 "total_energy": -953.743735178, 
			 "HOMO_LUMO_gap": 0.23157, 
			 "cosmo_polarized_energy": -15.0, 
			 "cosmo_cavitation_energy": 32.79, 
			 "cosmo_dispersion_energy": -23.45, 
			 "cosmo_repulsion_energy": 1.8, 
			 "cosmo_total_nonelectrostatic_energy": 11.14, 
			 "SMD_solvation_energy": 2.68 
		},
		"coords": [
			{
				"x": 0.1774871277,
				"y": -2.0607189393,
				"z": -0.0512807216,
				"element": "C" 
			},
			{
				"x": 1.3754507176,
				"y": -1.1021325761,
				"z": -0.0208783647,
				"element": "C" 
			},
			{
				"x": 1.6461570299,
				"y": -0.502473464,
				"z": -1.4249559888,
				"element": "C" 
			},
			{
				"x": 2.4105625771,
				"y": 0.8247540458,
				"z": -1.3379685543,
				"element": "C" 
			},
			{
				"x": 1.5721176799,
				"y": 1.9098180017,
				"z": -0.6232692883,
				"element": "C" 
			},
			{
				"x": 0.6088631714,
				"y": 1.2875196639,
				"z": 0.418207692,
				"element": "C" 
			},
			{
				"x": 1.2009511152,
				"y": 0.0158699498,
				"z": 1.0477906265,
				"element": "C" 
			},
			{
				"x": 0.1645967108,
				"y": 2.2732163919,
				"z": 1.4178863452,
				"element": "N" 
			},
			{
				"x": -1.122364437,
				"y": 2.7590537361,
				"z": 1.5789564876,
				"element": "C" 
			},
			{
				"x": -2.3008292649,
				"y": 2.3489449027,
				"z": 0.7601252422,
				"element": "C" 
			},
			{
				"x": -1.163927401,
				"y": 3.6328792519,
				"z": 2.5554803485,
				"element": "N" 
			},
			{
				"x": 0.1102893556,
				"y": 3.7489617022,
				"z": 3.0752734879,
				"element": "N" 
			},
			{
				"x": 0.879925661,
				"y": 2.9380891122,
				"z": 2.388441097,
				"element": "C" 
			},
			{
				"x": 2.6157833968,
				"y": 2.7421948663,
				"z": 2.6867438328,
				"element": "S" 
			},
			{
				"x": 0.0492838231,
				"y": -2.5711597709,
				"z": 0.9090359251,
				"element": "H" 
			},
			{
				"x": 0.3048151741,
				"y": -2.8264545442,
				"z": -0.8243770875,
				"element": "H" 
			},
			{
				"x": -0.7549897473,
				"y": -1.5259977594,
				"z": -0.2718794455,
				"element": "H" 
			},
			{
				"x": 2.2604461309,
				"y": -1.6835434107,
				"z": 0.2676211741,
				"element": "H" 
			},
			{
				"x": 2.1966691649,
				"y": -1.2283266344,
				"z": -2.0336448349,
				"element": "H" 
			},
			{
				"x": 0.692308775,
				"y": -0.3348574397,
				"z": -1.9458446398,
				"element": "H" 
			},
			{
				"x": 2.6960468383,
				"y": 1.1753092641,
				"z": -2.3352790786,
				"element": "H" 
			},
			{
				"x": 3.3480347195,
				"y": 0.6609041107,
				"z": -0.7917278563,
				"element": "H" 
			},
			{
				"x": 2.2346123745,
				"y": 2.6282713476,
				"z": -0.1313528066,
				"element": "H" 
			},
			{
				"x": 0.9802810941,
				"y": 2.4793676201,
				"z": -1.3489705575,
				"element": "H" 
			},
			{
				"x": -0.3093994568,
				"y": 0.9943073077,
				"z": -0.0974055481,
				"element": "H" 
			},
			{
				"x": 2.1683143207,
				"y": 0.2508140774,
				"z": 1.5037555273,
				"element": "H" 
			},
			{
				"x": 0.5520499939,
				"y": -0.3302079314,
				"z": 1.8596143168,
				"element": "H" 
			},
			{
				"x": -2.1671651411,
				"y": 2.5738211957,
				"z": -0.3041854277,
				"element": "H" 
			},
			{
				"x": -3.1642387337,
				"y": 2.9087636934,
				"z": 1.1229069417,
				"element": "H" 
			},
			{
				"x": -2.520502374,
				"y": 1.2791714631,
				"z": 0.853804294,
				"element": "H" 
			},
			{
				"x": 2.6098696039,
				"y": 3.6905407661,
				"z": 3.6432768616,
				"element": "H" 
			}
		],
		 "valence_orbital": [ 
			{
				"type": "occ",
				"energy": -0.30132,
				"method": "rhf"
			},
			{
				"type": "occ",
				"energy": -0.29578,
				"method": "rhf"
			},
			{
				"type": "occ",
				"energy": -0.27575,
				"method": "rhf"
			},
			{
				"type": "occ",
				"energy": -0.24616,
				"method": "rhf"
			},
			{
				"type": "occ",
				"energy": -0.22133,
				"method": "rhf"
			},
			{
				"type": "unocc",
				"energy": 0.01024,
				"method": "rhf"
			},
			{
				"type": "unocc",
				"energy": 0.02327,
				"method": "rhf"
			},
			{
				"type": "unocc",
				"energy": 0.05307,
				"method": "rhf"
			},
			{
				"type": "unocc",
				"energy": 0.05463,
				"method": "rhf"
			},
			{
				"type": "unocc",
				"energy": 0.06489,
				"method": "rhf"
			}
		],
		"cosmo_sigma_profile": { 
			"-0.025": 0.0,
			"-0.024": 0.0,
			"-0.023": 0.0,
			"-0.022": 0.0,
			"-0.021": 0.0,
			"-0.02": 0.0,
			"-0.019": 0.0,
			"-0.018": 0.0,
			"-0.017": 0.0,
			"-0.016": 0.0,
			"-0.015": 0.0,
			"-0.014": 0.0,
			"-0.013": 0.0,
			"-0.012": 0.665364151574,
			"-0.011": 1.6499709785,
			"-0.01": 1.05679361113,
			"-0.009": 1.03312936962,
			"-0.008": 1.11350717377,
			"-0.007": 1.51014534524,
			"-0.006": 10.1788612039,
			"-0.005": 12.8896930476,
			"-0.004": 13.7421684782,
			"-0.003": 26.6750729948,
			"-0.002": 39.9615067267,
			"-0.001": 39.5533772828,
			"0.0": 31.1142039137,
			"0.001": 21.0574794255,
			"0.002": 10.162107791,
			"0.003": 6.78564397556,
			"0.004": 4.34620336573,
			"0.005": 4.14821745344,
			"0.006": 3.889919226,
			"0.007": 3.13682171973,
			"0.008": 1.5525426624,
			"0.009": 1.44253696495,
			"0.01": 2.27973577336,
			"0.011": 2.59871694841,
			"0.012": 2.07161535335,
			"0.013": 2.86875586706,
			"0.014": 3.47582020734,
			"0.015": 2.78810965319,
			"0.016": 2.41764387586,
			"0.017": 1.62519586732,
			"0.018": 0.16548965215,
			"0.019": 0.0,
			"0.02": 0.0,
			"0.021": 0.0,
			"0.022": 0.0,
			"0.023": 0.0,
			"0.024": 0.0,
			"0.025": 0.0
		}
	}
}
