{
	 "smiles": "CC(N1C=NC2=C1C=C(C)C(C)=C2)C(N)=S", 
	 "Tm": 478.15, 
	 "num_atms": 31, 
	 "gaussian": { 
		 "optdone": 1, 
		 "sigma_profile": "yes", 
		 "theory": "DFT", 
		 "functional": "B3LYP", 
		 "basiset": "6-31G**", 
		 "properties": { 
			 "R2extent": 5328.2517, 
			 "electric_dipole_moment_norm": 1.2761841795, 
			 "electric_quadrupole_moment_norm": 24.1873178631, 
			 "total_energy": -1028.79062493, 
			 "HOMO_LUMO_gap": 0.17376, 
			 "cosmo_polarized_energy": -18.9, 
			 "cosmo_cavitation_energy": 35.31, 
			 "cosmo_dispersion_energy": -24.96, 
			 "cosmo_repulsion_energy": 1.89, 
			 "cosmo_total_nonelectrostatic_energy": 12.25, 
			 "SMD_solvation_energy": 3.08 
		},
		"coords": [
			{
				"x": -1.8568390928,
				"y": -4.1461116359,
				"z": 1.1661328267,
				"element": "C" 
			},
			{
				"x": -1.6199873411,
				"y": -2.6279068822,
				"z": 1.156949005,
				"element": "C" 
			},
			{
				"x": -0.2792146544,
				"y": -2.2824981311,
				"z": 0.6854976596,
				"element": "N" 
			},
			{
				"x": 0.6099698075,
				"y": -3.0397007383,
				"z": -0.0642288261,
				"element": "C" 
			},
			{
				"x": 1.7424136197,
				"y": -2.4371835372,
				"z": -0.3190875833,
				"element": "N" 
			},
			{
				"x": 1.6269469897,
				"y": -1.1963139829,
				"z": 0.2970269129,
				"element": "C" 
			},
			{
				"x": 0.3740585188,
				"y": -1.0759204649,
				"z": 0.9306484464,
				"element": "C" 
			},
			{
				"x": -0.0024046675,
				"y": 0.0773769818,
				"z": 1.6220454505,
				"element": "C" 
			},
			{
				"x": 0.9100266724,
				"y": 1.1316747146,
				"z": 1.6843707759,
				"element": "C" 
			},
			{
				"x": 0.5352963984,
				"y": 2.3923734664,
				"z": 2.4282617801,
				"element": "C" 
			},
			{
				"x": 2.1856932743,
				"y": 1.0259981248,
				"z": 1.0513537657,
				"element": "C" 
			},
			{
				"x": 3.1637536879,
				"y": 2.176180267,
				"z": 1.1266303025,
				"element": "C" 
			},
			{
				"x": 2.5358144055,
				"y": -0.1331436559,
				"z": 0.3621857754,
				"element": "C" 
			},
			{
				"x": -2.7342905899,
				"y": -1.9205837642,
				"z": 0.3595935583,
				"element": "C" 
			},
			{
				"x": -2.3988141953,
				"y": -1.5411552455,
				"z": -0.8812852847,
				"element": "N" 
			},
			{
				"x": -4.2506996878,
				"y": -1.7186305127,
				"z": 1.011051025,
				"element": "S" 
			},
			{
				"x": -1.8648662594,
				"y": -4.5594529769,
				"z": 0.1533675982,
				"element": "H" 
			},
			{
				"x": -1.080850448,
				"y": -4.6476745689,
				"z": 1.7506274841,
				"element": "H" 
			},
			{
				"x": -2.8287423867,
				"y": -4.3443739634,
				"z": 1.6190848673,
				"element": "H" 
			},
			{
				"x": -1.7054049642,
				"y": -2.2630579448,
				"z": 2.1840653349,
				"element": "H" 
			},
			{
				"x": 0.360037337,
				"y": -4.0409568978,
				"z": -0.386759075,
				"element": "H" 
			},
			{
				"x": -0.9750646267,
				"y": 0.1673295249,
				"z": 2.0973903781,
				"element": "H" 
			},
			{
				"x": 0.5581301705,
				"y": 3.2725108871,
				"z": 1.7741527009,
				"element": "H" 
			},
			{
				"x": -0.4705613579,
				"y": 2.3174904573,
				"z": 2.8494725447,
				"element": "H" 
			},
			{
				"x": 1.2279462169,
				"y": 2.597456673,
				"z": 3.2536326893,
				"element": "H" 
			},
			{
				"x": 3.4299501853,
				"y": 2.4180346911,
				"z": 2.1628841112,
				"element": "H" 
			},
			{
				"x": 4.087959344,
				"y": 1.9384500084,
				"z": 0.593794264,
				"element": "H" 
			},
			{
				"x": 2.7517360021,
				"y": 3.0924727253,
				"z": 0.6862294703,
				"element": "H" 
			},
			{
				"x": 3.5037903067,
				"y": -0.2210050984,
				"z": -0.1221773885,
				"element": "H" 
			},
			{
				"x": -1.4428464973,
				"y": -1.5937230782,
				"z": -1.2056599072,
				"element": "H" 
			},
			{
				"x": -3.0863361675,
				"y": -1.0667554425,
				"z": -1.4485506623,
				"element": "H" 
			}
		],
		 "valence_orbital": [ 
			{
				"type": "occ",
				"energy": -0.2744,
				"method": "rhf"
			},
			{
				"type": "occ",
				"energy": -0.24119,
				"method": "rhf"
			},
			{
				"type": "occ",
				"energy": -0.22845,
				"method": "rhf"
			},
			{
				"type": "occ",
				"energy": -0.22262,
				"method": "rhf"
			},
			{
				"type": "occ",
				"energy": -0.21634,
				"method": "rhf"
			},
			{
				"type": "unocc",
				"energy": -0.04258,
				"method": "rhf"
			},
			{
				"type": "unocc",
				"energy": -0.01859,
				"method": "rhf"
			},
			{
				"type": "unocc",
				"energy": 0.01473,
				"method": "rhf"
			},
			{
				"type": "unocc",
				"energy": 0.04472,
				"method": "rhf"
			},
			{
				"type": "unocc",
				"energy": 0.06255,
				"method": "rhf"
			}
		],
		"cosmo_sigma_profile": { 
			"-0.025": 0.0,
			"-0.024": 0.0,
			"-0.023": 0.0,
			"-0.022": 0.0,
			"-0.021": 0.0,
			"-0.02": 0.0,
			"-0.019": 0.0,
			"-0.018": 0.0,
			"-0.017": 0.0,
			"-0.016": 0.123335373073,
			"-0.015": 1.8024190124,
			"-0.014": 1.82715923717,
			"-0.013": 2.63121352326,
			"-0.012": 1.79277379078,
			"-0.011": 2.1436621447,
			"-0.01": 1.968641588,
			"-0.009": 4.77853064795,
			"-0.008": 5.51746499677,
			"-0.007": 6.56150424797,
			"-0.006": 8.54667524484,
			"-0.005": 15.289325877,
			"-0.004": 21.6534079333,
			"-0.003": 23.6462038959,
			"-0.002": 22.5208716626,
			"-0.001": 22.5636636819,
			"0.0": 24.0863905434,
			"0.001": 16.6848772608,
			"0.002": 11.9430393631,
			"0.003": 11.4123371737,
			"0.004": 11.928681314,
			"0.005": 13.8983948599,
			"0.006": 10.2634153806,
			"0.007": 6.00942010912,
			"0.008": 6.85205861397,
			"0.009": 7.93559540063,
			"0.01": 4.92531547355,
			"0.011": 4.46931745773,
			"0.012": 2.13017412404,
			"0.013": 1.41730088637,
			"0.014": 1.43512824415,
			"0.015": 0.588340499295,
			"0.016": 1.06263138325,
			"0.017": 1.10623523244,
			"0.018": 0.25058578032,
			"0.019": 0.0,
			"0.02": 0.0,
			"0.021": 0.0,
			"0.022": 0.0,
			"0.023": 0.0,
			"0.024": 0.0,
			"0.025": 0.0
		}
	}
}
