{
	 "smiles": "COC1=C(C=CC=C1)C1=NN(C(N)=C1)C1=CC=CC=C1", 
	 "Tm": 393.15, 
	 "num_atms": 35, 
	 "gaussian": { 
		 "optdone": 1, 
		 "sigma_profile": "yes", 
		 "theory": "DFT", 
		 "functional": "B3LYP", 
		 "basiset": "6-31G**", 
		 "properties": { 
			 "R2extent": 7293.7353, 
			 "electric_dipole_moment_norm": 2.61565403102, 
			 "electric_quadrupole_moment_norm": 12.6719460905, 
			 "total_energy": -858.19175293, 
			 "HOMO_LUMO_gap": 0.17368, 
			 "cosmo_polarized_energy": -14.26, 
			 "cosmo_cavitation_energy": 38.62, 
			 "cosmo_dispersion_energy": -27.73, 
			 "cosmo_repulsion_energy": 2.12, 
			 "cosmo_total_nonelectrostatic_energy": 13.01, 
			 "SMD_solvation_energy": 6.42 
		},
		"coords": [
			{
				"x": -4.2567115474,
				"y": 1.0396081942,
				"z": 0.7419539924,
				"element": "C" 
			},
			{
				"x": -3.4979660491,
				"y": -0.0828797302,
				"z": 1.1936031392,
				"element": "O" 
			},
			{
				"x": -3.1800211943,
				"y": -0.9866125396,
				"z": 0.1935465728,
				"element": "C" 
			},
			{
				"x": -1.9604530435,
				"y": -0.8963839583,
				"z": -0.5066170893,
				"element": "C" 
			},
			{
				"x": -1.7067286194,
				"y": -1.8625310719,
				"z": -1.4982698655,
				"element": "C" 
			},
			{
				"x": -2.6192932737,
				"y": -2.8728978329,
				"z": -1.7826853531,
				"element": "C" 
			},
			{
				"x": -3.8181656273,
				"y": -2.9529510215,
				"z": -1.0690732291,
				"element": "C" 
			},
			{
				"x": -4.0934477364,
				"y": -2.0066529916,
				"z": -0.0848187771,
				"element": "C" 
			},
			{
				"x": -0.9525824777,
				"y": 0.1459379157,
				"z": -0.2376754605,
				"element": "C" 
			},
			{
				"x": 0.0130135815,
				"y": 0.3666346744,
				"z": -1.1312802174,
				"element": "N" 
			},
			{
				"x": 0.7841114721,
				"y": 1.3614898966,
				"z": -0.591717817,
				"element": "N" 
			},
			{
				"x": 0.3223242263,
				"y": 1.739655322,
				"z": 0.6472239905,
				"element": "C" 
			},
			{
				"x": 0.9263035515,
				"y": 2.739355724,
				"z": 1.4102737397,
				"element": "N" 
			},
			{
				"x": -0.8057902499,
				"y": 0.9854903385,
				"z": 0.9008040674,
				"element": "C" 
			},
			{
				"x": 1.92809192,
				"y": 1.813282335,
				"z": -1.2983805443,
				"element": "C" 
			},
			{
				"x": 2.6385924071,
				"y": 0.9014747109,
				"z": -2.0908019543,
				"element": "C" 
			},
			{
				"x": 3.7577329967,
				"y": 1.3299358075,
				"z": -2.7995460768,
				"element": "C" 
			},
			{
				"x": 4.184763649,
				"y": 2.6584549242,
				"z": -2.7200833264,
				"element": "C" 
			},
			{
				"x": 3.469107728,
				"y": 3.5632625037,
				"z": -1.9360843216,
				"element": "C" 
			},
			{
				"x": 2.3359357451,
				"y": 3.1526236355,
				"z": -1.2316326732,
				"element": "C" 
			},
			{
				"x": -3.686987501,
				"y": 1.6438954663,
				"z": 0.0252675801,
				"element": "H" 
			},
			{
				"x": -4.480552569,
				"y": 1.6422866923,
				"z": 1.6252049588,
				"element": "H" 
			},
			{
				"x": -5.1970761343,
				"y": 0.7202879782,
				"z": 0.2745025638,
				"element": "H" 
			},
			{
				"x": -0.7694010253,
				"y": -1.7985551172,
				"z": -2.0398703964,
				"element": "H" 
			},
			{
				"x": -2.3910175739,
				"y": -3.6045665261,
				"z": -2.5522370171,
				"element": "H" 
			},
			{
				"x": -4.530800362,
				"y": -3.7464982775,
				"z": -1.274635294,
				"element": "H" 
			},
			{
				"x": -5.0125117747,
				"y": -2.0440650829,
				"z": 0.4922778444,
				"element": "H" 
			},
			{
				"x": 1.9396820572,
				"y": 2.7310809863,
				"z": 1.3656574459,
				"element": "H" 
			},
			{
				"x": 0.6152826888,
				"y": 2.7082346275,
				"z": 2.3732104586,
				"element": "H" 
			},
			{
				"x": -1.417953964,
				"y": 1.0005571822,
				"z": 1.7869014932,
				"element": "H" 
			},
			{
				"x": 2.2928399957,
				"y": -0.1235810181,
				"z": -2.1442776467,
				"element": "H" 
			},
			{
				"x": 4.3036141907,
				"y": 0.6188073648,
				"z": -3.4128617871,
				"element": "H" 
			},
			{
				"x": 5.0621799628,
				"y": 2.9851807214,
				"z": -3.2699521196,
				"element": "H" 
			},
			{
				"x": 3.779647283,
				"y": 4.602735069,
				"z": -1.8816233929,
				"element": "H" 
			},
			{
				"x": 1.7593372675,
				"y": 3.8667030977,
				"z": -0.6549034876,
				"element": "H" 
			}
		],
		 "valence_orbital": [ 
			{
				"type": "occ",
				"energy": -0.25535,
				"method": "rhf"
			},
			{
				"type": "occ",
				"energy": -0.24779,
				"method": "rhf"
			},
			{
				"type": "occ",
				"energy": -0.2341,
				"method": "rhf"
			},
			{
				"type": "occ",
				"energy": -0.2124,
				"method": "rhf"
			},
			{
				"type": "occ",
				"energy": -0.19862,
				"method": "rhf"
			},
			{
				"type": "unocc",
				"energy": -0.02494,
				"method": "rhf"
			},
			{
				"type": "unocc",
				"energy": -0.00712,
				"method": "rhf"
			},
			{
				"type": "unocc",
				"energy": 0.0015,
				"method": "rhf"
			},
			{
				"type": "unocc",
				"energy": 0.01042,
				"method": "rhf"
			},
			{
				"type": "unocc",
				"energy": 0.05549,
				"method": "rhf"
			}
		],
		"cosmo_sigma_profile": { 
			"-0.025": 0.0,
			"-0.024": 0.0,
			"-0.023": 0.0,
			"-0.022": 0.0,
			"-0.021": 0.0,
			"-0.02": 0.0,
			"-0.019": 0.0,
			"-0.018": 0.0,
			"-0.017": 0.0,
			"-0.016": 0.0,
			"-0.015": 0.0,
			"-0.014": 0.334538042925,
			"-0.013": 1.67931812911,
			"-0.012": 2.17168062883,
			"-0.011": 3.36691934365,
			"-0.01": 2.64687975696,
			"-0.009": 2.14523228776,
			"-0.008": 2.57277486633,
			"-0.007": 2.5673408868,
			"-0.006": 12.5228894587,
			"-0.005": 21.1527099581,
			"-0.004": 26.2991925904,
			"-0.003": 28.321956136,
			"-0.002": 22.2885376306,
			"-0.001": 18.3034523395,
			"0.0": 17.9747855526,
			"0.001": 16.5831970886,
			"0.002": 19.116133895,
			"0.003": 25.5416160497,
			"0.004": 27.066493963,
			"0.005": 28.9714116173,
			"0.006": 8.8821639049,
			"0.007": 3.71971982792,
			"0.008": 4.04599177997,
			"0.009": 2.47059247078,
			"0.01": 2.41510583842,
			"0.011": 2.40012472324,
			"0.012": 1.92963390698,
			"0.013": 0.899074655634,
			"0.014": 0.408859438306,
			"0.015": 0.0,
			"0.016": 0.0,
			"0.017": 0.0,
			"0.018": 0.0,
			"0.019": 0.0,
			"0.02": 0.0,
			"0.021": 0.0,
			"0.022": 0.0,
			"0.023": 0.0,
			"0.024": 0.0,
			"0.025": 0.0
		}
	}
}
