{
	 "smiles": "CCCC(=O)N1CCCC(C1)C(O)=O", 
	 "Tm": 370.15, 
	 "num_atms": 31, 
	 "gaussian": { 
		 "optdone": 1, 
		 "sigma_profile": "yes", 
		 "theory": "DFT", 
		 "functional": "B3LYP", 
		 "basiset": "6-31G**", 
		 "properties": { 
			 "R2extent": 3665.0419, 
			 "electric_dipole_moment_norm": 4.35535115691, 
			 "electric_quadrupole_moment_norm": 8.06005609348, 
			 "total_energy": -671.780889178, 
			 "HOMO_LUMO_gap": 0.22715, 
			 "cosmo_polarized_energy": -14.38, 
			 "cosmo_cavitation_energy": 31.47, 
			 "cosmo_dispersion_energy": -22.79, 
			 "cosmo_repulsion_energy": 1.82, 
			 "cosmo_total_nonelectrostatic_energy": 10.5, 
			 "SMD_solvation_energy": 6.09 
		},
		"coords": [
			{
				"x": 1.2772525369,
				"y": -1.8443004709,
				"z": -2.727740918,
				"element": "C" 
			},
			{
				"x": 0.1492760792,
				"y": -1.9404971292,
				"z": -1.6953736066,
				"element": "C" 
			},
			{
				"x": 0.3378323172,
				"y": -1.0170504822,
				"z": -0.4850626804,
				"element": "C" 
			},
			{
				"x": 0.11316258,
				"y": 0.4577454186,
				"z": -0.8247402357,
				"element": "C" 
			},
			{
				"x": -0.2735418821,
				"y": 0.8081257113,
				"z": -1.9370674912,
				"element": "O" 
			},
			{
				"x": 0.3469434066,
				"y": 1.3877595736,
				"z": 0.1708509219,
				"element": "N" 
			},
			{
				"x": 0.1744514463,
				"y": 2.8112047221,
				"z": -0.1252051857,
				"element": "C" 
			},
			{
				"x": -0.8164481002,
				"y": 3.4570188943,
				"z": 0.8504709219,
				"element": "C" 
			},
			{
				"x": -0.400373686,
				"y": 3.2023864514,
				"z": 2.3059668186,
				"element": "C" 
			},
			{
				"x": -0.1809647495,
				"y": 1.6979472569,
				"z": 2.5692438904,
				"element": "C" 
			},
			{
				"x": 0.7838774954,
				"y": 1.0930642095,
				"z": 1.529680347,
				"element": "C" 
			},
			{
				"x": -1.4672203838,
				"y": 0.8802177748,
				"z": 2.6319518807,
				"element": "C" 
			},
			{
				"x": -2.4968678797,
				"y": 1.5656345788,
				"z": 3.1802089415,
				"element": "O" 
			},
			{
				"x": -1.5797785888,
				"y": -0.2778702328,
				"z": 2.2880343429,
				"element": "O" 
			},
			{
				"x": 2.2473561448,
				"y": -2.0943237857,
				"z": -2.2803488409,
				"element": "H" 
			},
			{
				"x": 1.3369560987,
				"y": -0.8330066211,
				"z": -3.1372805477,
				"element": "H" 
			},
			{
				"x": 1.1092916368,
				"y": -2.5371283941,
				"z": -3.5591187578,
				"element": "H" 
			},
			{
				"x": -0.8052064873,
				"y": -1.7009163753,
				"z": -2.1743390665,
				"element": "H" 
			},
			{
				"x": 0.074703521,
				"y": -2.9712513132,
				"z": -1.3272175601,
				"element": "H" 
			},
			{
				"x": 1.3467646093,
				"y": -1.1501170139,
				"z": -0.0715662699,
				"element": "H" 
			},
			{
				"x": -0.3597797732,
				"y": -1.2871052948,
				"z": 0.3166867914,
				"element": "H" 
			},
			{
				"x": 1.1519024042,
				"y": 3.3128917943,
				"z": -0.0444029209,
				"element": "H" 
			},
			{
				"x": -0.1638322637,
				"y": 2.8862950367,
				"z": -1.1580614357,
				"element": "H" 
			},
			{
				"x": -0.8721083701,
				"y": 4.5344846261,
				"z": 0.6573614965,
				"element": "H" 
			},
			{
				"x": -1.8179790453,
				"y": 3.0467802805,
				"z": 0.6713820137,
				"element": "H" 
			},
			{
				"x": -1.1389219833,
				"y": 3.6050312678,
				"z": 3.0032434805,
				"element": "H" 
			},
			{
				"x": 0.5478844941,
				"y": 3.7183373986,
				"z": 2.5070943652,
				"element": "H" 
			},
			{
				"x": 0.2746837649,
				"y": 1.5796440524,
				"z": 3.5637193323,
				"element": "H" 
			},
			{
				"x": 1.7825183943,
				"y": 1.5252417051,
				"z": 1.6959817591,
				"element": "H" 
			},
			{
				"x": 0.8534622969,
				"y": 0.0187524784,
				"z": 1.678681629,
				"element": "H" 
			},
			{
				"x": -3.2467960335,
				"y": 0.9472038819,
				"z": 3.2084665847,
				"element": "H" 
			}
		],
		 "valence_orbital": [ 
			{
				"type": "occ",
				"energy": -0.32031,
				"method": "rhf"
			},
			{
				"type": "occ",
				"energy": -0.31749,
				"method": "rhf"
			},
			{
				"type": "occ",
				"energy": -0.28421,
				"method": "rhf"
			},
			{
				"type": "occ",
				"energy": -0.23741,
				"method": "rhf"
			},
			{
				"type": "occ",
				"energy": -0.23202,
				"method": "rhf"
			},
			{
				"type": "unocc",
				"energy": -0.00487,
				"method": "rhf"
			},
			{
				"type": "unocc",
				"energy": 0.0351,
				"method": "rhf"
			},
			{
				"type": "unocc",
				"energy": 0.06603,
				"method": "rhf"
			},
			{
				"type": "unocc",
				"energy": 0.08772,
				"method": "rhf"
			},
			{
				"type": "unocc",
				"energy": 0.10986,
				"method": "rhf"
			}
		],
		"cosmo_sigma_profile": { 
			"-0.025": 0.0,
			"-0.024": 0.0,
			"-0.023": 0.0,
			"-0.022": 0.0,
			"-0.021": 0.0,
			"-0.02": 0.0,
			"-0.019": 0.0808522480864,
			"-0.018": 0.651974140536,
			"-0.017": 1.04472824024,
			"-0.016": 0.747705067696,
			"-0.015": 0.861990502106,
			"-0.014": 0.361762526335,
			"-0.013": 0.136384786939,
			"-0.012": 1.44398504241,
			"-0.011": 0.8968719374,
			"-0.01": 0.819311000171,
			"-0.009": 0.356796135438,
			"-0.008": 0.896464345312,
			"-0.007": 3.2555660855,
			"-0.006": 5.53044894728,
			"-0.005": 11.8281759764,
			"-0.004": 17.588184127,
			"-0.003": 24.0450575256,
			"-0.002": 30.1088696696,
			"-0.001": 30.683728051,
			"0.0": 26.3901150668,
			"0.001": 20.2929734168,
			"0.002": 13.7001351176,
			"0.003": 6.99670634664,
			"0.004": 6.03102653313,
			"0.005": 4.3888865118,
			"0.006": 4.45810461909,
			"0.007": 4.99526369845,
			"0.008": 4.06550343608,
			"0.009": 3.63303533565,
			"0.01": 3.98265342552,
			"0.011": 3.58047377366,
			"0.012": 3.04284743131,
			"0.013": 2.52730821707,
			"0.014": 3.83822604004,
			"0.015": 0.970072474311,
			"0.016": 0.0,
			"0.017": 0.0,
			"0.018": 0.0,
			"0.019": 0.0,
			"0.02": 0.0,
			"0.021": 0.0,
			"0.022": 0.0,
			"0.023": 0.0,
			"0.024": 0.0,
			"0.025": 0.0
		}
	}
}
