{
	 "smiles": "NC1=NC2=C(S1)C=C(SC(F)F)C=C2", 
	 "Tm": 379.15, 
	 "num_atms": 20, 
	 "gaussian": { 
		 "optdone": 1, 
		 "sigma_profile": "yes", 
		 "theory": "DFT", 
		 "functional": "B3LYP", 
		 "basiset": "6-31G**", 
		 "properties": { 
			 "R2extent": 4399.654, 
			 "electric_dipole_moment_norm": 2.94566856418, 
			 "electric_quadrupole_moment_norm": 18.8064235255, 
			 "total_energy": -1414.0216617, 
			 "HOMO_LUMO_gap": 0.18929, 
			 "cosmo_polarized_energy": -13.04, 
			 "cosmo_cavitation_energy": 28.87, 
			 "cosmo_dispersion_energy": -21.82, 
			 "cosmo_repulsion_energy": 1.61, 
			 "cosmo_total_nonelectrostatic_energy": 8.65, 
			 "SMD_solvation_energy": 3.13 
		},
		"coords": [
			{
				"x": 1.1481319219,
				"y": 4.7157755121,
				"z": 1.5546873822,
				"element": "N" 
			},
			{
				"x": 0.5724508714,
				"y": 3.5748756615,
				"z": 1.0699647106,
				"element": "C" 
			},
			{
				"x": 0.6121940556,
				"y": 3.2156569126,
				"z": -0.1756963512,
				"element": "N" 
			},
			{
				"x": -0.1127027377,
				"y": 2.0535656031,
				"z": -0.3730568833,
				"element": "C" 
			},
			{
				"x": -0.7246017822,
				"y": 1.5013885318,
				"z": 0.7811010931,
				"element": "C" 
			},
			{
				"x": -0.3694127085,
				"y": 2.5255861544,
				"z": 2.1713558393,
				"element": "S" 
			},
			{
				"x": -1.4703416352,
				"y": 0.328811167,
				"z": 0.7313674542,
				"element": "C" 
			},
			{
				"x": -1.6174299621,
				"y": -0.3053256398,
				"z": -0.5084870597,
				"element": "C" 
			},
			{
				"x": -2.6083744053,
				"y": -1.7949412022,
				"z": -0.6177772791,
				"element": "S" 
			},
			{
				"x": -1.2871187392,
				"y": -3.0516791419,
				"z": -0.542347274,
				"element": "C" 
			},
			{
				"x": -0.5643975013,
				"y": -2.953667339,
				"z": 0.6046406852,
				"element": "F" 
			},
			{
				"x": -0.4111542345,
				"y": -2.9233299246,
				"z": -1.5757696399,
				"element": "F" 
			},
			{
				"x": -1.0216686379,
				"y": 0.2312002481,
				"z": -1.6647709201,
				"element": "C" 
			},
			{
				"x": -0.2705703758,
				"y": 1.3995650797,
				"z": -1.6024402341,
				"element": "C" 
			},
			{
				"x": 1.8025795823,
				"y": 5.1527016221,
				"z": 0.9200184008,
				"element": "H" 
			},
			{
				"x": 1.4032725291,
				"y": 4.7464304192,
				"z": 2.5301606791,
				"element": "H" 
			},
			{
				"x": -1.9302888026,
				"y": -0.092908929,
				"z": 1.6178753843,
				"element": "H" 
			},
			{
				"x": -1.7616663521,
				"y": -4.0382654541,
				"z": -0.5909728513,
				"element": "H" 
			},
			{
				"x": -1.1527206169,
				"y": -0.280865696,
				"z": -2.6113139822,
				"element": "H" 
			},
			{
				"x": 0.1948195311,
				"y": 1.8175264148,
				"z": -2.4887391536,
				"element": "H" 
			}
		],
		 "valence_orbital": [ 
			{
				"type": "occ",
				"energy": -0.29833,
				"method": "rhf"
			},
			{
				"type": "occ",
				"energy": -0.28247,
				"method": "rhf"
			},
			{
				"type": "occ",
				"energy": -0.25152,
				"method": "rhf"
			},
			{
				"type": "occ",
				"energy": -0.23909,
				"method": "rhf"
			},
			{
				"type": "occ",
				"energy": -0.22023,
				"method": "rhf"
			},
			{
				"type": "unocc",
				"energy": -0.03094,
				"method": "rhf"
			},
			{
				"type": "unocc",
				"energy": -0.00928,
				"method": "rhf"
			},
			{
				"type": "unocc",
				"energy": -0.00589,
				"method": "rhf"
			},
			{
				"type": "unocc",
				"energy": 0.02341,
				"method": "rhf"
			},
			{
				"type": "unocc",
				"energy": 0.04108,
				"method": "rhf"
			}
		],
		"cosmo_sigma_profile": { 
			"-0.025": 0.0,
			"-0.024": 0.0,
			"-0.023": 0.0,
			"-0.022": 0.0,
			"-0.021": 0.0,
			"-0.02": 0.0,
			"-0.019": 0.0,
			"-0.018": 0.0,
			"-0.017": 0.0,
			"-0.016": 0.236240105473,
			"-0.015": 1.37940464576,
			"-0.014": 2.96595240797,
			"-0.013": 2.60949214305,
			"-0.012": 2.39973815728,
			"-0.011": 3.05147335462,
			"-0.01": 6.31953260618,
			"-0.009": 3.79732592025,
			"-0.008": 4.84603716982,
			"-0.007": 5.0944109132,
			"-0.006": 8.16288156744,
			"-0.005": 7.56176755244,
			"-0.004": 8.28503466771,
			"-0.003": 8.08659076899,
			"-0.002": 8.59096968311,
			"-0.001": 11.3928417384,
			"0.0": 15.9818877831,
			"0.001": 18.95990426,
			"0.002": 20.5499795514,
			"0.003": 31.1345273489,
			"0.004": 37.1161741369,
			"0.005": 10.268431757,
			"0.006": 4.03804038822,
			"0.007": 4.18425797158,
			"0.008": 1.72420113919,
			"0.009": 1.39277857302,
			"0.01": 1.43489325404,
			"0.011": 1.14369066511,
			"0.012": 0.999838350634,
			"0.013": 0.761788481008,
			"0.014": 0.888847259703,
			"0.015": 0.465179280196,
			"0.016": 0.0283630003387,
			"0.017": 0.0,
			"0.018": 0.0,
			"0.019": 0.0,
			"0.02": 0.0,
			"0.021": 0.0,
			"0.022": 0.0,
			"0.023": 0.0,
			"0.024": 0.0,
			"0.025": 0.0
		}
	}
}
