{
	 "smiles": "CC1=C(N)C=CC(=C1)N=NC1=C(C)C=CC=C1", 
	 "Tm": 375.15, 
	 "num_atms": 32, 
	 "gaussian": { 
		 "optdone": 1, 
		 "sigma_profile": "yes", 
		 "theory": "DFT", 
		 "functional": "B3LYP", 
		 "basiset": "6-31G**", 
		 "properties": { 
			 "R2extent": 6543.8797, 
			 "electric_dipole_moment_norm": 3.56423176154, 
			 "electric_quadrupole_moment_norm": 20.5095845163, 
			 "total_energy": -706.764429953, 
			 "HOMO_LUMO_gap": 0.12756, 
			 "cosmo_polarized_energy": -12.58, 
			 "cosmo_cavitation_energy": 35.95, 
			 "cosmo_dispersion_energy": -25.84, 
			 "cosmo_repulsion_energy": 2.0, 
			 "cosmo_total_nonelectrostatic_energy": 12.11, 
			 "SMD_solvation_energy": 4.97 
		},
		"coords": [
			{
				"x": -1.2396477487,
				"y": 2.3941803791,
				"z": -3.063144791,
				"element": "C" 
			},
			{
				"x": -1.698724107,
				"y": 1.1072420607,
				"z": -2.4223014005,
				"element": "C" 
			},
			{
				"x": -3.0389134131,
				"y": 0.6640222149,
				"z": -2.5985967188,
				"element": "C" 
			},
			{
				"x": -3.9140656611,
				"y": 1.3922295015,
				"z": -3.3925265011,
				"element": "N" 
			},
			{
				"x": -3.4534053905,
				"y": -0.5435983299,
				"z": -2.0095624401,
				"element": "C" 
			},
			{
				"x": -2.5678172385,
				"y": -1.3025434209,
				"z": -1.2589360238,
				"element": "C" 
			},
			{
				"x": -1.2454622703,
				"y": -0.8758763454,
				"z": -1.0715538358,
				"element": "C" 
			},
			{
				"x": -0.8326195603,
				"y": 0.3331016368,
				"z": -1.6639190996,
				"element": "C" 
			},
			{
				"x": -0.4312460488,
				"y": -1.714943362,
				"z": -0.2905529808,
				"element": "N" 
			},
			{
				"x": 0.7591764926,
				"y": -1.319790964,
				"z": -0.1264039511,
				"element": "N" 
			},
			{
				"x": 1.5681975985,
				"y": -2.1752465722,
				"z": 0.6621545846,
				"element": "C" 
			},
			{
				"x": 2.9035218537,
				"y": -1.7561077574,
				"z": 0.8599801159,
				"element": "C" 
			},
			{
				"x": 3.4179533941,
				"y": -0.4705467369,
				"z": 0.258275677,
				"element": "C" 
			},
			{
				"x": 3.7424372631,
				"y": -2.5677116571,
				"z": 1.6322263494,
				"element": "C" 
			},
			{
				"x": 3.2858279976,
				"y": -3.7589415263,
				"z": 2.1962564269,
				"element": "C" 
			},
			{
				"x": 1.9624509537,
				"y": -4.1636979956,
				"z": 1.9937976169,
				"element": "C" 
			},
			{
				"x": 1.1093934368,
				"y": -3.3760371124,
				"z": 1.2311914375,
				"element": "C" 
			},
			{
				"x": -1.3809234115,
				"y": 2.3757168156,
				"z": -4.151190432,
				"element": "H" 
			},
			{
				"x": -1.7903652033,
				"y": 3.2655474535,
				"z": -2.6803370772,
				"element": "H" 
			},
			{
				"x": -0.1800107555,
				"y": 2.571037611,
				"z": -2.8654617415,
				"element": "H" 
			},
			{
				"x": -3.7303357611,
				"y": 2.3798662392,
				"z": -3.488629889,
				"element": "H" 
			},
			{
				"x": -4.8951215358,
				"y": 1.1809897726,
				"z": -3.2802754341,
				"element": "H" 
			},
			{
				"x": -4.4778133559,
				"y": -0.8795467767,
				"z": -2.150421819,
				"element": "H" 
			},
			{
				"x": -2.878400485,
				"y": -2.2353203162,
				"z": -0.7989875945,
				"element": "H" 
			},
			{
				"x": 0.1937128628,
				"y": 0.6514101067,
				"z": -1.5144426832,
				"element": "H" 
			},
			{
				"x": 4.4685746583,
				"y": -0.3160492892,
				"z": 0.5201652408,
				"element": "H" 
			},
			{
				"x": 2.844809039,
				"y": 0.3930348674,
				"z": 0.6096545552,
				"element": "H" 
			},
			{
				"x": 3.3324006465,
				"y": -0.4773160761,
				"z": -0.8327651111,
				"element": "H" 
			},
			{
				"x": 4.771883325,
				"y": -2.2570878698,
				"z": 1.7921587437,
				"element": "H" 
			},
			{
				"x": 3.9594189661,
				"y": -4.3692883846,
				"z": 2.791335571,
				"element": "H" 
			},
			{
				"x": 1.6011146578,
				"y": -5.0905900282,
				"z": 2.4305266249,
				"element": "H" 
			},
			{
				"x": 0.0788988009,
				"y": -3.663438138,
				"z": 1.0565865804,
				"element": "H" 
			}
		],
		 "valence_orbital": [ 
			{
				"type": "occ",
				"energy": -0.24587,
				"method": "rhf"
			},
			{
				"type": "occ",
				"energy": -0.24252,
				"method": "rhf"
			},
			{
				"type": "occ",
				"energy": -0.23549,
				"method": "rhf"
			},
			{
				"type": "occ",
				"energy": -0.20958,
				"method": "rhf"
			},
			{
				"type": "occ",
				"energy": -0.19355,
				"method": "rhf"
			},
			{
				"type": "unocc",
				"energy": -0.06599,
				"method": "rhf"
			},
			{
				"type": "unocc",
				"energy": 0.00371,
				"method": "rhf"
			},
			{
				"type": "unocc",
				"energy": 0.01114,
				"method": "rhf"
			},
			{
				"type": "unocc",
				"energy": 0.02406,
				"method": "rhf"
			},
			{
				"type": "unocc",
				"energy": 0.05946,
				"method": "rhf"
			}
		],
		"cosmo_sigma_profile": { 
			"-0.025": 0.0,
			"-0.024": 0.0,
			"-0.023": 0.0,
			"-0.022": 0.0,
			"-0.021": 0.0,
			"-0.02": 0.0,
			"-0.019": 0.0,
			"-0.018": 0.0,
			"-0.017": 0.0,
			"-0.016": 0.0,
			"-0.015": 0.0,
			"-0.014": 0.113451091282,
			"-0.013": 1.51563019188,
			"-0.012": 2.37927234418,
			"-0.011": 2.4597721799,
			"-0.01": 3.72925934045,
			"-0.009": 2.81298444017,
			"-0.008": 3.10061441141,
			"-0.007": 2.57623011446,
			"-0.006": 7.27222744843,
			"-0.005": 14.736142933,
			"-0.004": 22.7705135104,
			"-0.003": 21.2358817016,
			"-0.002": 21.0248815587,
			"-0.001": 21.5152893196,
			"0.0": 21.4162118052,
			"0.001": 19.8541621281,
			"0.002": 15.473733111,
			"0.003": 26.7863466612,
			"0.004": 30.0885880707,
			"0.005": 25.1095100998,
			"0.006": 8.82373212502,
			"0.007": 4.76080793488,
			"0.008": 2.34424341157,
			"0.009": 1.94870498826,
			"0.01": 0.750742622485,
			"0.011": 0.531717893835,
			"0.012": 0.50742075785,
			"0.013": 0.0724541944939,
			"0.014": 0.0,
			"0.015": 0.0,
			"0.016": 0.0,
			"0.017": 0.0,
			"0.018": 0.0,
			"0.019": 0.0,
			"0.02": 0.0,
			"0.021": 0.0,
			"0.022": 0.0,
			"0.023": 0.0,
			"0.024": 0.0,
			"0.025": 0.0
		}
	}
}
