{
	 "smiles": "ClC1=CC=C(C=C1)N1C(=O)C2=CC=CC=C2C1=O", 
	 "Tm": 470.15, 
	 "num_atms": 26, 
	 "gaussian": { 
		 "optdone": 1, 
		 "sigma_profile": "yes", 
		 "theory": "DFT", 
		 "functional": "B3LYP", 
		 "basiset": "6-31G**", 
		 "properties": { 
			 "R2extent": 6756.4074, 
			 "electric_dipole_moment_norm": 4.77227350222, 
			 "electric_quadrupole_moment_norm": 13.9133337766, 
			 "total_energy": -1203.73295686, 
			 "HOMO_LUMO_gap": 0.14533, 
			 "cosmo_polarized_energy": -10.91, 
			 "cosmo_cavitation_energy": 33.22, 
			 "cosmo_dispersion_energy": -24.35, 
			 "cosmo_repulsion_energy": 1.83, 
			 "cosmo_total_nonelectrostatic_energy": 10.71, 
			 "SMD_solvation_energy": 6.45 
		},
		"coords": [
			{
				"x": -4.5609453428,
				"y": -2.5374042501,
				"z": -2.3300793415,
				"element": "Cl" 
			},
			{
				"x": -3.0257238388,
				"y": -2.0370311924,
				"z": -1.6368486935,
				"element": "C" 
			},
			{
				"x": -2.0400764067,
				"y": -2.9906844883,
				"z": -1.3884961098,
				"element": "C" 
			},
			{
				"x": -0.8258664389,
				"y": -2.5946505721,
				"z": -0.8321230463,
				"element": "C" 
			},
			{
				"x": -0.5949881557,
				"y": -1.244732082,
				"z": -0.5391156317,
				"element": "C" 
			},
			{
				"x": -1.5902346675,
				"y": -0.2944521108,
				"z": -0.7996849328,
				"element": "C" 
			},
			{
				"x": -2.8100790626,
				"y": -0.691826713,
				"z": -1.3425962249,
				"element": "C" 
			},
			{
				"x": 0.6502494244,
				"y": -0.8390802422,
				"z": 0.0232388163,
				"element": "N" 
			},
			{
				"x": 0.7956833261,
				"y": 0.1765040396,
				"z": 1.0063754397,
				"element": "C" 
			},
			{
				"x": -0.1024464185,
				"y": 0.8299009306,
				"z": 1.4940089245,
				"element": "O" 
			},
			{
				"x": 2.2542444635,
				"y": 0.2592279165,
				"z": 1.2929541978,
				"element": "C" 
			},
			{
				"x": 2.9407472853,
				"y": 1.0826060654,
				"z": 2.1743510995,
				"element": "C" 
			},
			{
				"x": 4.3330753906,
				"y": 0.9399493534,
				"z": 2.234216444,
				"element": "C" 
			},
			{
				"x": 4.999845541,
				"y": 0.0023493242,
				"z": 1.4337879049,
				"element": "C" 
			},
			{
				"x": 4.295870723,
				"y": -0.824079275,
				"z": 0.548374362,
				"element": "C" 
			},
			{
				"x": 2.9170442729,
				"y": -0.674302386,
				"z": 0.4984016632,
				"element": "C" 
			},
			{
				"x": 1.9097753185,
				"y": -1.3960544173,
				"z": -0.3267545722,
				"element": "C" 
			},
			{
				"x": 2.0976555702,
				"y": -2.2811379893,
				"z": -1.1346427872,
				"element": "O" 
			},
			{
				"x": -2.2199851014,
				"y": -4.0340744825,
				"z": -1.6215072485,
				"element": "H" 
			},
			{
				"x": -0.055788551,
				"y": -3.3305733964,
				"z": -0.6422916809,
				"element": "H" 
			},
			{
				"x": -1.4202737866,
				"y": 0.7479191739,
				"z": -0.564696448,
				"element": "H" 
			},
			{
				"x": -3.5846099368,
				"y": 0.0404664726,
				"z": -1.5405353574,
				"element": "H" 
			},
			{
				"x": 2.4128909235,
				"y": 1.805115132,
				"z": 2.7881387894,
				"element": "H" 
			},
			{
				"x": 4.9074363868,
				"y": 1.5655610476,
				"z": 2.9107993743,
				"element": "H" 
			},
			{
				"x": 6.0800433827,
				"y": -0.0835860596,
				"z": 1.5033031308,
				"element": "H" 
			},
			{
				"x": 4.8001556989,
				"y": -1.5543297985,
				"z": -0.0759780715,
				"element": "H" 
			}
		],
		 "valence_orbital": [ 
			{
				"type": "occ",
				"energy": -0.28487,
				"method": "rhf"
			},
			{
				"type": "occ",
				"energy": -0.28453,
				"method": "rhf"
			},
			{
				"type": "occ",
				"energy": -0.27549,
				"method": "rhf"
			},
			{
				"type": "occ",
				"energy": -0.26428,
				"method": "rhf"
			},
			{
				"type": "occ",
				"energy": -0.23516,
				"method": "rhf"
			},
			{
				"type": "unocc",
				"energy": -0.08983,
				"method": "rhf"
			},
			{
				"type": "unocc",
				"energy": -0.05304,
				"method": "rhf"
			},
			{
				"type": "unocc",
				"energy": -0.01459,
				"method": "rhf"
			},
			{
				"type": "unocc",
				"energy": -0.01301,
				"method": "rhf"
			},
			{
				"type": "unocc",
				"energy": 0.02116,
				"method": "rhf"
			}
		],
		"cosmo_sigma_profile": { 
			"-0.025": 0.0,
			"-0.024": 0.0,
			"-0.023": 0.0,
			"-0.022": 0.0,
			"-0.021": 0.0,
			"-0.02": 0.0,
			"-0.019": 0.0,
			"-0.018": 0.0,
			"-0.017": 0.0,
			"-0.016": 0.0,
			"-0.015": 0.0,
			"-0.014": 0.0,
			"-0.013": 0.0,
			"-0.012": 0.0,
			"-0.011": 0.0,
			"-0.01": 0.0,
			"-0.009": 0.0,
			"-0.008": 3.86697302069,
			"-0.007": 14.1961841975,
			"-0.006": 19.4076452218,
			"-0.005": 19.2475586797,
			"-0.004": 14.9294605272,
			"-0.003": 15.00328659,
			"-0.002": 16.8130255424,
			"-0.001": 19.5189196306,
			"0.0": 21.4201686749,
			"0.001": 26.4603513315,
			"0.002": 28.3318065546,
			"0.003": 20.3877317469,
			"0.004": 14.6934103605,
			"0.005": 8.90853333274,
			"0.006": 2.76311434409,
			"0.007": 4.03582426344,
			"0.008": 3.1266521767,
			"0.009": 4.63377828851,
			"0.01": 6.91481032355,
			"0.011": 6.01470997336,
			"0.012": 0.517647457352,
			"0.013": 0.0,
			"0.014": 0.0,
			"0.015": 0.0,
			"0.016": 0.0,
			"0.017": 0.0,
			"0.018": 0.0,
			"0.019": 0.0,
			"0.02": 0.0,
			"0.021": 0.0,
			"0.022": 0.0,
			"0.023": 0.0,
			"0.024": 0.0,
			"0.025": 0.0
		}
	}
}
