{
	 "smiles": "NC1=C(C=CC=C1)C1=CC=NC=C1", 
	 "Tm": 357.15, 
	 "num_atms": 23, 
	 "gaussian": { 
		 "optdone": 1, 
		 "sigma_profile": "yes", 
		 "theory": "DFT", 
		 "functional": "B3LYP", 
		 "basiset": "6-31G**", 
		 "properties": { 
			 "R2extent": 3095.4859, 
			 "electric_dipole_moment_norm": 2.81956629466, 
			 "electric_quadrupole_moment_norm": 11.8584358425, 
			 "total_energy": -534.702838793, 
			 "HOMO_LUMO_gap": 0.16907, 
			 "cosmo_polarized_energy": -10.37, 
			 "cosmo_cavitation_energy": 26.47, 
			 "cosmo_dispersion_energy": -19.65, 
			 "cosmo_repulsion_energy": 1.54, 
			 "cosmo_total_nonelectrostatic_energy": 8.36, 
			 "SMD_solvation_energy": 2.97 
		},
		"coords": [
			{
				"x": -0.8856602187,
				"y": 3.0117690085,
				"z": -1.8638060953,
				"element": "N" 
			},
			{
				"x": 0.1490687149,
				"y": 2.0796785217,
				"z": -1.9638068234,
				"element": "C" 
			},
			{
				"x": 0.4311084639,
				"y": 1.1584707466,
				"z": -0.9216722122,
				"element": "C" 
			},
			{
				"x": 1.4798756945,
				"y": 0.2418425223,
				"z": -1.1014107056,
				"element": "C" 
			},
			{
				"x": 2.2339505583,
				"y": 0.1995774247,
				"z": -2.2704595744,
				"element": "C" 
			},
			{
				"x": 1.9430608128,
				"y": 1.1038065279,
				"z": -3.2942839974,
				"element": "C" 
			},
			{
				"x": 0.9189453773,
				"y": 2.0310945361,
				"z": -3.139622332,
				"element": "C" 
			},
			{
				"x": -0.3342919606,
				"y": 1.1408397602,
				"z": 0.3519226026,
				"element": "C" 
			},
			{
				"x": 0.3240307933,
				"y": 1.0439294513,
				"z": 1.5893719105,
				"element": "C" 
			},
			{
				"x": -0.4223986525,
				"y": 0.9933939424,
				"z": 2.7648269544,
				"element": "C" 
			},
			{
				"x": -1.7609592974,
				"y": 1.0353651933,
				"z": 2.80572205,
				"element": "N" 
			},
			{
				"x": -2.3893228804,
				"y": 1.125921538,
				"z": 1.6267114658,
				"element": "C" 
			},
			{
				"x": -1.7389068202,
				"y": 1.1813831588,
				"z": 0.3941517605,
				"element": "C" 
			},
			{
				"x": -1.1425199222,
				"y": 3.2796796934,
				"z": -0.923313928,
				"element": "H" 
			},
			{
				"x": -0.7883764414,
				"y": 3.8114261981,
				"z": -2.4744646366,
				"element": "H" 
			},
			{
				"x": 1.6833827772,
				"y": -0.4680702542,
				"z": -0.3046969384,
				"element": "H" 
			},
			{
				"x": 3.0293455367,
				"y": -0.5299785831,
				"z": -2.3834173409,
				"element": "H" 
			},
			{
				"x": 2.5170239806,
				"y": 1.0913298895,
				"z": -4.216603774,
				"element": "H" 
			},
			{
				"x": 0.7017676249,
				"y": 2.7385741007,
				"z": -3.936541765,
				"element": "H" 
			},
			{
				"x": 1.4085572959,
				"y": 1.024611874,
				"z": 1.633066498,
				"element": "H" 
			},
			{
				"x": 0.0836397908,
				"y": 0.9221089042,
				"z": 3.7265398741,
				"element": "H" 
			},
			{
				"x": -3.4774797593,
				"y": 1.149873077,
				"z": 1.6653311093,
				"element": "H" 
			},
			{
				"x": -2.3169414682,
				"y": 1.2361727688,
				"z": -0.522344102,
				"element": "H" 
			}
		],
		 "valence_orbital": [ 
			{
				"type": "occ",
				"energy": -0.29237,
				"method": "rhf"
			},
			{
				"type": "occ",
				"energy": -0.2603,
				"method": "rhf"
			},
			{
				"type": "occ",
				"energy": -0.25119,
				"method": "rhf"
			},
			{
				"type": "occ",
				"energy": -0.24261,
				"method": "rhf"
			},
			{
				"type": "occ",
				"energy": -0.20613,
				"method": "rhf"
			},
			{
				"type": "unocc",
				"energy": -0.03706,
				"method": "rhf"
			},
			{
				"type": "unocc",
				"energy": -0.01026,
				"method": "rhf"
			},
			{
				"type": "unocc",
				"energy": 0.00598,
				"method": "rhf"
			},
			{
				"type": "unocc",
				"energy": 0.02117,
				"method": "rhf"
			},
			{
				"type": "unocc",
				"energy": 0.08669,
				"method": "rhf"
			}
		],
		"cosmo_sigma_profile": { 
			"-0.025": 0.0,
			"-0.024": 0.0,
			"-0.023": 0.0,
			"-0.022": 0.0,
			"-0.021": 0.0,
			"-0.02": 0.0,
			"-0.019": 0.0,
			"-0.018": 0.0,
			"-0.017": 0.0,
			"-0.016": 0.0,
			"-0.015": 0.0,
			"-0.014": 0.0,
			"-0.013": 0.346867873019,
			"-0.012": 1.34729419253,
			"-0.011": 2.06708873262,
			"-0.01": 3.16949632188,
			"-0.009": 2.12049223373,
			"-0.008": 2.57969647554,
			"-0.007": 4.14760713701,
			"-0.006": 10.5323416819,
			"-0.005": 17.04446831,
			"-0.004": 16.2129114854,
			"-0.003": 16.2240738917,
			"-0.002": 14.3007137122,
			"-0.001": 11.20260828,
			"0.0": 11.6594788874,
			"0.001": 14.9007684226,
			"0.002": 17.2531055859,
			"0.003": 16.8485545451,
			"0.004": 10.5787249992,
			"0.005": 11.2689053385,
			"0.006": 10.3241223165,
			"0.007": 4.32026316428,
			"0.008": 2.34098546869,
			"0.009": 2.2969106738,
			"0.01": 1.25317211183,
			"0.011": 1.28625250569,
			"0.012": 1.46533953806,
			"0.013": 1.49991163659,
			"0.014": 1.12404254637,
			"0.015": 0.773023924677,
			"0.016": 0.783447345862,
			"0.017": 0.584259073462,
			"0.018": 0.0,
			"0.019": 0.0,
			"0.02": 0.0,
			"0.021": 0.0,
			"0.022": 0.0,
			"0.023": 0.0,
			"0.024": 0.0,
			"0.025": 0.0
		}
	}
}
