{
	 "smiles": "CC(=O)NCC1=CC=C(S1)C1=C(C)SC(N)=N1", 
	 "Tm": 428.15, 
	 "num_atms": 30, 
	 "gaussian": { 
		 "optdone": 1, 
		 "sigma_profile": "yes", 
		 "theory": "DFT", 
		 "functional": "B3LYP", 
		 "basiset": "6-31G**", 
		 "properties": { 
			 "R2extent": 7429.5984, 
			 "electric_dipole_moment_norm": 4.17433395885, 
			 "electric_quadrupole_moment_norm": 21.4739103295, 
			 "total_energy": -1462.87086233, 
			 "HOMO_LUMO_gap": 0.15879, 
			 "cosmo_polarized_energy": -19.99, 
			 "cosmo_cavitation_energy": 37.42, 
			 "cosmo_dispersion_energy": -27.74, 
			 "cosmo_repulsion_energy": 2.1, 
			 "cosmo_total_nonelectrostatic_energy": 11.78, 
			 "SMD_solvation_energy": 4.53 
		},
		"coords": [
			{
				"x": -1.0413306291,
				"y": -3.1917630905,
				"z": -4.559656004,
				"element": "C" 
			},
			{
				"x": -1.3965256418,
				"y": -1.8245134703,
				"z": -3.9961082776,
				"element": "C" 
			},
			{
				"x": -1.1268769218,
				"y": -0.7864006012,
				"z": -4.5887908993,
				"element": "O" 
			},
			{
				"x": -2.045843211,
				"y": -1.8365774431,
				"z": -2.7882952868,
				"element": "N" 
			},
			{
				"x": -2.2964190718,
				"y": -0.5911884513,
				"z": -2.0621934356,
				"element": "C" 
			},
			{
				"x": -1.1651984532,
				"y": -0.1648364416,
				"z": -1.1640110487,
				"element": "C" 
			},
			{
				"x": -0.0223757381,
				"y": 0.5096122777,
				"z": -1.510041707,
				"element": "C" 
			},
			{
				"x": 0.8750234963,
				"y": 0.6988250209,
				"z": -0.4251178845,
				"element": "C" 
			},
			{
				"x": 0.4290067172,
				"y": 0.1650345832,
				"z": 0.7654145672,
				"element": "C" 
			},
			{
				"x": -1.1413281679,
				"y": -0.5842719578,
				"z": 0.5319869391,
				"element": "S" 
			},
			{
				"x": 1.1340823363,
				"y": 0.223778736,
				"z": 2.0418740138,
				"element": "C" 
			},
			{
				"x": 0.7424296398,
				"y": -0.2984022956,
				"z": 3.2530299067,
				"element": "C" 
			},
			{
				"x": -0.4845633135,
				"y": -1.0725345417,
				"z": 3.6363052674,
				"element": "C" 
			},
			{
				"x": 1.9672652685,
				"y": 0.0730870322,
				"z": 4.4610566576,
				"element": "S" 
			},
			{
				"x": 2.9104996915,
				"y": 0.8807241416,
				"z": 3.2055019588,
				"element": "C" 
			},
			{
				"x": 4.0930575528,
				"y": 1.5227097052,
				"z": 3.5073234077,
				"element": "N" 
			},
			{
				"x": 2.3638532627,
				"y": 0.8787616029,
				"z": 2.030801522,
				"element": "N" 
			},
			{
				"x": 0.0429672012,
				"y": -3.3287943799,
				"z": -4.4976986571,
				"element": "H" 
			},
			{
				"x": -1.5312036278,
				"y": -4.0209069223,
				"z": -4.0414737675,
				"element": "H" 
			},
			{
				"x": -1.314676451,
				"y": -3.2150595802,
				"z": -5.6167436232,
				"element": "H" 
			},
			{
				"x": -2.0851176848,
				"y": -2.7025188239,
				"z": -2.2707919235,
				"element": "H" 
			},
			{
				"x": -2.4528179152,
				"y": 0.1757774007,
				"z": -2.8237627482,
				"element": "H" 
			},
			{
				"x": -3.2269447337,
				"y": -0.7029618485,
				"z": -1.4968916149,
				"element": "H" 
			},
			{
				"x": 0.1618138981,
				"y": 0.845435662,
				"z": -2.5244895654,
				"element": "H" 
			},
			{
				"x": 1.8241096872,
				"y": 1.214946773,
				"z": -0.4902195541,
				"element": "H" 
			},
			{
				"x": -0.4434652149,
				"y": -1.3862282445,
				"z": 4.6825483522,
				"element": "H" 
			},
			{
				"x": -1.3958459494,
				"y": -0.4760859648,
				"z": 3.5085686115,
				"element": "H" 
			},
			{
				"x": -0.5956956132,
				"y": -1.9771091829,
				"z": 3.0270860995,
				"element": "H" 
			},
			{
				"x": 4.6114800382,
				"y": 1.7858943726,
				"z": 2.6787453151,
				"element": "H" 
			},
			{
				"x": 4.6659395483,
				"y": 1.0997659319,
				"z": 4.224143379,
				"element": "H" 
			}
		],
		 "valence_orbital": [ 
			{
				"type": "occ",
				"energy": -0.25832,
				"method": "rhf"
			},
			{
				"type": "occ",
				"energy": -0.24578,
				"method": "rhf"
			},
			{
				"type": "occ",
				"energy": -0.24374,
				"method": "rhf"
			},
			{
				"type": "occ",
				"energy": -0.23382,
				"method": "rhf"
			},
			{
				"type": "occ",
				"energy": -0.18957,
				"method": "rhf"
			},
			{
				"type": "unocc",
				"energy": -0.03078,
				"method": "rhf"
			},
			{
				"type": "unocc",
				"energy": 0.00303,
				"method": "rhf"
			},
			{
				"type": "unocc",
				"energy": 0.01286,
				"method": "rhf"
			},
			{
				"type": "unocc",
				"energy": 0.02751,
				"method": "rhf"
			},
			{
				"type": "unocc",
				"energy": 0.03287,
				"method": "rhf"
			}
		],
		"cosmo_sigma_profile": { 
			"-0.025": 0.0,
			"-0.024": 0.0,
			"-0.023": 0.0,
			"-0.022": 0.0,
			"-0.021": 0.0,
			"-0.02": 0.0,
			"-0.019": 0.0,
			"-0.018": 0.0,
			"-0.017": 0.0,
			"-0.016": 0.0,
			"-0.015": 0.145722319065,
			"-0.014": 2.44531801708,
			"-0.013": 4.13280663617,
			"-0.012": 4.41958464738,
			"-0.011": 3.39409926067,
			"-0.01": 4.17275745931,
			"-0.009": 3.41222137732,
			"-0.008": 4.0028569725,
			"-0.007": 6.05207760273,
			"-0.006": 9.28281276543,
			"-0.005": 15.2155109061,
			"-0.004": 19.4906218163,
			"-0.003": 22.1260872684,
			"-0.002": 22.4809746794,
			"-0.001": 25.9774229636,
			"0.0": 16.3989851136,
			"0.001": 15.4865287524,
			"0.002": 19.7934277374,
			"0.003": 22.5030796245,
			"0.004": 24.2120224534,
			"0.005": 18.3274763031,
			"0.006": 7.70798471059,
			"0.007": 4.67974221367,
			"0.008": 4.33685897639,
			"0.009": 2.72126581022,
			"0.01": 3.78343320416,
			"0.011": 3.54624975073,
			"0.012": 2.43034349864,
			"0.013": 2.54886994824,
			"0.014": 3.65102768025,
			"0.015": 1.82097181251,
			"0.016": 0.136472725756,
			"0.017": 0.0,
			"0.018": 0.0,
			"0.019": 0.0,
			"0.02": 0.0,
			"0.021": 0.0,
			"0.022": 0.0,
			"0.023": 0.0,
			"0.024": 0.0,
			"0.025": 0.0
		}
	}
}
