{
	 "smiles": "CC(C)NCC(O)COC1=CC=C(O)C=C1", 
	 "Tm": 401.15, 
	 "num_atms": 35, 
	 "gaussian": { 
		 "optdone": 1, 
		 "sigma_profile": "yes", 
		 "theory": "DFT", 
		 "functional": "B3LYP", 
		 "basiset": "6-31G**", 
		 "properties": { 
			 "R2extent": 5176.8914, 
			 "electric_dipole_moment_norm": 2.89266438427, 
			 "electric_quadrupole_moment_norm": 11.2900284787, 
			 "total_energy": -749.136574829, 
			 "HOMO_LUMO_gap": 0.20004, 
			 "cosmo_polarized_energy": -12.63, 
			 "cosmo_cavitation_energy": 36.53, 
			 "cosmo_dispersion_energy": -25.48, 
			 "cosmo_repulsion_energy": 2.03, 
			 "cosmo_total_nonelectrostatic_energy": 13.07, 
			 "SMD_solvation_energy": 6.03 
		},
		"coords": [
			{
				"x": -4.1767058608,
				"y": 0.5104664735,
				"z": 0.2083933784,
				"element": "C" 
			},
			{
				"x": -2.856801834,
				"y": 1.277336434,
				"z": 0.3506615501,
				"element": "C" 
			},
			{
				"x": -2.602673817,
				"y": 2.1569961507,
				"z": -0.8767550898,
				"element": "C" 
			},
			{
				"x": -1.7241075557,
				"y": 0.3485508625,
				"z": 0.5020204081,
				"element": "N" 
			},
			{
				"x": -1.5822037364,
				"y": -0.2902201822,
				"z": 1.8118143578,
				"element": "C" 
			},
			{
				"x": -0.5749640091,
				"y": -1.4549822858,
				"z": 1.6962117097,
				"element": "C" 
			},
			{
				"x": -0.8621729407,
				"y": -2.2034244953,
				"z": 0.5273923102,
				"element": "O" 
			},
			{
				"x": 0.8883784301,
				"y": -0.9998209893,
				"z": 1.7505097873,
				"element": "C" 
			},
			{
				"x": 1.1972341901,
				"y": 0.0497075501,
				"z": 0.8212283325,
				"element": "O" 
			},
			{
				"x": 1.9737823751,
				"y": -0.2419469266,
				"z": -0.284360897,
				"element": "C" 
			},
			{
				"x": 1.8589656951,
				"y": -1.4286500036,
				"z": -1.0182164826,
				"element": "C" 
			},
			{
				"x": 2.663114962,
				"y": -1.6311385043,
				"z": -2.1385912164,
				"element": "C" 
			},
			{
				"x": 3.5711746485,
				"y": -0.6494486334,
				"z": -2.5462931689,
				"element": "C" 
			},
			{
				"x": 4.3279242312,
				"y": -0.9069580454,
				"z": -3.6597508339,
				"element": "O" 
			},
			{
				"x": 3.671456042,
				"y": 0.5417234554,
				"z": -1.8202139744,
				"element": "C" 
			},
			{
				"x": 2.8806429534,
				"y": 0.7399906802,
				"z": -0.6889267874,
				"element": "C" 
			},
			{
				"x": -4.1474555303,
				"y": -0.131043659,
				"z": -0.6785972619,
				"element": "H" 
			},
			{
				"x": -5.0143678517,
				"y": 1.2081669578,
				"z": 0.1065238557,
				"element": "H" 
			},
			{
				"x": -4.3824749544,
				"y": -0.1230107263,
				"z": 1.0764648421,
				"element": "H" 
			},
			{
				"x": -2.9364179643,
				"y": 1.938226167,
				"z": 1.2341104099,
				"element": "H" 
			},
			{
				"x": -1.6853717368,
				"y": 2.7455759919,
				"z": -0.7614433007,
				"element": "H" 
			},
			{
				"x": -3.4305352933,
				"y": 2.8547135415,
				"z": -1.0339667005,
				"element": "H" 
			},
			{
				"x": -2.4981371121,
				"y": 1.5374662529,
				"z": -1.773970089,
				"element": "H" 
			},
			{
				"x": -0.8514197208,
				"y": 0.8287005964,
				"z": 0.2944653495,
				"element": "H" 
			},
			{
				"x": -2.5527069002,
				"y": -0.7065339828,
				"z": 2.0983575194,
				"element": "H" 
			},
			{
				"x": -1.2765852376,
				"y": 0.4052939135,
				"z": 2.6122164085,
				"element": "H" 
			},
			{
				"x": -0.7092917201,
				"y": -2.1200463792,
				"z": 2.562607555,
				"element": "H" 
			},
			{
				"x": -1.2808217181,
				"y": -1.5482209598,
				"z": -0.0666848222,
				"element": "H" 
			},
			{
				"x": 1.0973280484,
				"y": -0.5948495919,
				"z": 2.7498734881,
				"element": "H" 
			},
			{
				"x": 1.5459563978,
				"y": -1.8593520369,
				"z": 1.5825421328,
				"element": "H" 
			},
			{
				"x": 1.1243945452,
				"y": -2.1710266201,
				"z": -0.7238999976,
				"element": "H" 
			},
			{
				"x": 2.5859719634,
				"y": -2.5454914109,
				"z": -2.7179147872,
				"element": "H" 
			},
			{
				"x": 4.9053968305,
				"y": -0.1516040984,
				"z": -3.8278481215,
				"element": "H" 
			},
			{
				"x": 4.3753889743,
				"y": 1.3120260941,
				"z": -2.1292453618,
				"element": "H" 
			},
			{
				"x": 2.9599052065,
				"y": 1.6538284093,
				"z": -0.1089145025,
				"element": "H" 
			}
		],
		 "valence_orbital": [ 
			{
				"type": "occ",
				"energy": -0.29214,
				"method": "rhf"
			},
			{
				"type": "occ",
				"energy": -0.25501,
				"method": "rhf"
			},
			{
				"type": "occ",
				"energy": -0.24679,
				"method": "rhf"
			},
			{
				"type": "occ",
				"energy": -0.23426,
				"method": "rhf"
			},
			{
				"type": "occ",
				"energy": -0.19914,
				"method": "rhf"
			},
			{
				"type": "unocc",
				"energy": 0.0009,
				"method": "rhf"
			},
			{
				"type": "unocc",
				"energy": 0.02731,
				"method": "rhf"
			},
			{
				"type": "unocc",
				"energy": 0.07325,
				"method": "rhf"
			},
			{
				"type": "unocc",
				"energy": 0.07949,
				"method": "rhf"
			},
			{
				"type": "unocc",
				"energy": 0.10139,
				"method": "rhf"
			}
		],
		"cosmo_sigma_profile": { 
			"-0.025": 0.0,
			"-0.024": 0.0,
			"-0.023": 0.0,
			"-0.022": 0.0,
			"-0.021": 0.0,
			"-0.02": 0.0,
			"-0.019": 0.0,
			"-0.018": 0.127032515477,
			"-0.017": 1.08460376701,
			"-0.016": 1.15609519468,
			"-0.015": 0.845446522779,
			"-0.014": 0.856896774682,
			"-0.013": 1.23007232223,
			"-0.012": 0.918991862919,
			"-0.011": 0.697811632602,
			"-0.01": 1.07426078568,
			"-0.009": 1.1801610948,
			"-0.008": 1.19292589315,
			"-0.007": 1.68248956815,
			"-0.006": 4.85541267379,
			"-0.005": 16.3764438361,
			"-0.004": 22.1846961287,
			"-0.003": 26.9484401597,
			"-0.002": 30.1032445866,
			"-0.001": 31.4769764807,
			"0.0": 25.4271927161,
			"0.001": 25.8309489516,
			"0.002": 16.748772254,
			"0.003": 11.8646247805,
			"0.004": 14.7383615581,
			"0.005": 15.1502144961,
			"0.006": 9.47258786792,
			"0.007": 3.57473137356,
			"0.008": 3.19220220399,
			"0.009": 3.24623846479,
			"0.01": 3.50800547246,
			"0.011": 2.16334825008,
			"0.012": 2.82791074357,
			"0.013": 1.08552903621,
			"0.014": 1.55060766075,
			"0.015": 0.984077959531,
			"0.016": 0.0,
			"0.017": 0.0,
			"0.018": 0.0,
			"0.019": 0.0,
			"0.02": 0.0,
			"0.021": 0.0,
			"0.022": 0.0,
			"0.023": 0.0,
			"0.024": 0.0,
			"0.025": 0.0
		}
	}
}
