{
	 "smiles": "COC1=CC(CBr)=C(OC)C=C1", 
	 "Tm": 351.15, 
	 "num_atms": 23, 
	 "gaussian": { 
		 "optdone": 1, 
		 "sigma_profile": "yes", 
		 "theory": "DFT", 
		 "functional": "B3LYP", 
		 "basiset": "6-31G**", 
		 "properties": { 
			 "R2extent": 4807.6365, 
			 "electric_dipole_moment_norm": 4.17296253278, 
			 "electric_quadrupole_moment_norm": 10.1308904589, 
			 "total_energy": -3071.41860631, 
			 "HOMO_LUMO_gap": 0.17273, 
			 "cosmo_polarized_energy": -9.97, 
			 "cosmo_cavitation_energy": 28.77, 
			 "cosmo_dispersion_energy": -21.14, 
			 "cosmo_repulsion_energy": 1.71, 
			 "cosmo_total_nonelectrostatic_energy": 9.33, 
			 "SMD_solvation_energy": 5.21 
		},
		"coords": [
			{
				"x": -0.2817915793,
				"y": -0.8209847708,
				"z": -3.1302960922,
				"element": "C" 
			},
			{
				"x": -0.4805685172,
				"y": 0.3748801248,
				"z": -2.397114394,
				"element": "O" 
			},
			{
				"x": 0.0141253766,
				"y": 0.4351261849,
				"z": -1.1227375188,
				"element": "C" 
			},
			{
				"x": -0.2193014446,
				"y": 1.6340497465,
				"z": -0.4354710312,
				"element": "C" 
			},
			{
				"x": 0.2352983709,
				"y": 1.824765769,
				"z": 0.8660909828,
				"element": "C" 
			},
			{
				"x": -0.0106129202,
				"y": 3.110987197,
				"z": 1.5758912711,
				"element": "C" 
			},
			{
				"x": -1.6464758444,
				"y": 3.0387510173,
				"z": 2.746955878,
				"element": "Br" 
			},
			{
				"x": 0.9455778871,
				"y": 0.7819239818,
				"z": 1.5063881602,
				"element": "C" 
			},
			{
				"x": 1.3633856412,
				"y": 1.0450135493,
				"z": 2.7805632042,
				"element": "O" 
			},
			{
				"x": 2.0543157058,
				"y": 0.0280781192,
				"z": 3.4859497557,
				"element": "C" 
			},
			{
				"x": 1.179765125,
				"y": -0.4110463663,
				"z": 0.8254623355,
				"element": "C" 
			},
			{
				"x": 0.7155185076,
				"y": -0.5887241439,
				"z": -0.4849753164,
				"element": "C" 
			},
			{
				"x": -0.753827006,
				"y": -1.6823843769,
				"z": -2.6390779942,
				"element": "H" 
			},
			{
				"x": -0.7516146846,
				"y": -0.6623340929,
				"z": -4.1023083973,
				"element": "H" 
			},
			{
				"x": 0.7852717232,
				"y": -1.0356349869,
				"z": -3.2777008407,
				"element": "H" 
			},
			{
				"x": -0.7722160528,
				"y": 2.4192853263,
				"z": -0.9420001536,
				"element": "H" 
			},
			{
				"x": 0.7877338914,
				"y": 3.3685880311,
				"z": 2.2664553486,
				"element": "H" 
			},
			{
				"x": -0.2127856471,
				"y": 3.9302779903,
				"z": 0.8896825955,
				"element": "H" 
			},
			{
				"x": 2.2733156833,
				"y": 0.440283026,
				"z": 4.4720188792,
				"element": "H" 
			},
			{
				"x": 1.4378882982,
				"y": -0.8727618751,
				"z": 3.6002719891,
				"element": "H" 
			},
			{
				"x": 2.9959596909,
				"y": -0.2419147821,
				"z": 2.989739004,
				"element": "H" 
			},
			{
				"x": 1.7235958971,
				"y": -1.2198730168,
				"z": 1.2984610259,
				"element": "H" 
			},
			{
				"x": 0.9137418981,
				"y": -1.5287516518,
				"z": -0.9859486915,
				"element": "H" 
			}
		],
		 "valence_orbital": [ 
			{
				"type": "occ",
				"energy": -0.29227,
				"method": "rhf"
			},
			{
				"type": "occ",
				"energy": -0.26307,
				"method": "rhf"
			},
			{
				"type": "occ",
				"energy": -0.257,
				"method": "rhf"
			},
			{
				"type": "occ",
				"energy": -0.24707,
				"method": "rhf"
			},
			{
				"type": "occ",
				"energy": -0.20341,
				"method": "rhf"
			},
			{
				"type": "unocc",
				"energy": -0.03068,
				"method": "rhf"
			},
			{
				"type": "unocc",
				"energy": 0.0131,
				"method": "rhf"
			},
			{
				"type": "unocc",
				"energy": 0.04146,
				"method": "rhf"
			},
			{
				"type": "unocc",
				"energy": 0.08777,
				"method": "rhf"
			},
			{
				"type": "unocc",
				"energy": 0.10052,
				"method": "rhf"
			}
		],
		"cosmo_sigma_profile": { 
			"-0.025": 0.0,
			"-0.024": 0.0,
			"-0.023": 0.0,
			"-0.022": 0.0,
			"-0.021": 0.0,
			"-0.02": 0.0,
			"-0.019": 0.0,
			"-0.018": 0.0,
			"-0.017": 0.0,
			"-0.016": 0.0,
			"-0.015": 0.0,
			"-0.014": 0.0,
			"-0.013": 0.0,
			"-0.012": 0.0,
			"-0.011": 0.0,
			"-0.01": 0.0,
			"-0.009": 0.0,
			"-0.008": 1.22413010507,
			"-0.007": 5.18157374025,
			"-0.006": 15.2201310404,
			"-0.005": 25.0954125508,
			"-0.004": 23.7666561273,
			"-0.003": 22.7943597316,
			"-0.002": 14.0068674252,
			"-0.001": 10.6197467695,
			"0.0": 9.96677068404,
			"0.001": 10.7540203366,
			"0.002": 10.9762426664,
			"0.003": 13.7751598169,
			"0.004": 18.5992379676,
			"0.005": 16.1066207826,
			"0.006": 13.5807174106,
			"0.007": 11.2555396368,
			"0.008": 3.62221284158,
			"0.009": 2.27730435124,
			"0.01": 1.93265366512,
			"0.011": 0.560856961425,
			"0.012": 0.0,
			"0.013": 0.0,
			"0.014": 0.0,
			"0.015": 0.0,
			"0.016": 0.0,
			"0.017": 0.0,
			"0.018": 0.0,
			"0.019": 0.0,
			"0.02": 0.0,
			"0.021": 0.0,
			"0.022": 0.0,
			"0.023": 0.0,
			"0.024": 0.0,
			"0.025": 0.0
		}
	}
}
