{
	 "smiles": "SC1=NC2=C(S1)C=CC=C2", 
	 "Tm": 453.15, 
	 "num_atms": 15, 
	 "gaussian": { 
		 "optdone": 1, 
		 "sigma_profile": "yes", 
		 "theory": "DFT", 
		 "functional": "B3LYP", 
		 "basiset": "6-31G**", 
		 "properties": { 
			 "R2extent": 3976.1873, 
			 "electric_dipole_moment_norm": 2.00479440592, 
			 "electric_quadrupole_moment_norm": 12.4280326842, 
			 "total_energy": -1120.88301377, 
			 "HOMO_LUMO_gap": 0.19146, 
			 "cosmo_polarized_energy": -7.84, 
			 "cosmo_cavitation_energy": 22.55, 
			 "cosmo_dispersion_energy": -18.12, 
			 "cosmo_repulsion_energy": 1.36, 
			 "cosmo_total_nonelectrostatic_energy": 5.79, 
			 "SMD_solvation_energy": 1.12 
		},
		"coords": [
			{
				"x": -0.7456932803,
				"y": 4.2264774974,
				"z": -2.6859034638,
				"element": "S" 
			},
			{
				"x": -1.0491877617,
				"y": 2.5364987256,
				"z": -2.2654919057,
				"element": "C" 
			},
			{
				"x": -1.2565828445,
				"y": 2.1813183325,
				"z": -1.043718012,
				"element": "N" 
			},
			{
				"x": -1.4705760573,
				"y": 0.8132875955,
				"z": -0.9529585168,
				"element": "C" 
			},
			{
				"x": -1.420097285,
				"y": 0.1051222886,
				"z": -2.1789098462,
				"element": "C" 
			},
			{
				"x": -1.0876805861,
				"y": 1.2338566983,
				"z": -3.4849184095,
				"element": "S" 
			},
			{
				"x": -1.6173749802,
				"y": -1.2751795255,
				"z": -2.2345124265,
				"element": "C" 
			},
			{
				"x": -1.8684020332,
				"y": -1.9492830163,
				"z": -1.0405098195,
				"element": "C" 
			},
			{
				"x": -1.9212136586,
				"y": -1.259690684,
				"z": 0.1819180848,
				"element": "C" 
			},
			{
				"x": -1.7244712135,
				"y": 0.1158405352,
				"z": 0.2360249303,
				"element": "C" 
			},
			{
				"x": -0.6083976078,
				"y": 4.0271855843,
				"z": -4.0115644337,
				"element": "H" 
			},
			{
				"x": -1.5774518392,
				"y": -1.8117705995,
				"z": -3.1768872181,
				"element": "H" 
			},
			{
				"x": -2.0250792729,
				"y": -3.0235495086,
				"z": -1.059058121,
				"element": "H" 
			},
			{
				"x": -2.1185774794,
				"y": -1.8094974932,
				"z": 1.0971430447,
				"element": "H" 
			},
			{
				"x": -1.7622141002,
				"y": 0.6623835698,
				"z": 1.1723461131,
				"element": "H" 
			}
		],
		 "valence_orbital": [ 
			{
				"type": "occ",
				"energy": -0.30851,
				"method": "rhf"
			},
			{
				"type": "occ",
				"energy": -0.29073,
				"method": "rhf"
			},
			{
				"type": "occ",
				"energy": -0.28436,
				"method": "rhf"
			},
			{
				"type": "occ",
				"energy": -0.2406,
				"method": "rhf"
			},
			{
				"type": "occ",
				"energy": -0.22846,
				"method": "rhf"
			},
			{
				"type": "unocc",
				"energy": -0.037,
				"method": "rhf"
			},
			{
				"type": "unocc",
				"energy": -0.02498,
				"method": "rhf"
			},
			{
				"type": "unocc",
				"energy": -0.01015,
				"method": "rhf"
			},
			{
				"type": "unocc",
				"energy": 0.02926,
				"method": "rhf"
			},
			{
				"type": "unocc",
				"energy": 0.02963,
				"method": "rhf"
			}
		],
		"cosmo_sigma_profile": { 
			"-0.025": 0.0,
			"-0.024": 0.0,
			"-0.023": 0.0,
			"-0.022": 0.0,
			"-0.021": 0.0,
			"-0.02": 0.0,
			"-0.019": 0.0,
			"-0.018": 0.0,
			"-0.017": 0.0,
			"-0.016": 0.0,
			"-0.015": 0.0,
			"-0.014": 0.0,
			"-0.013": 0.533461157998,
			"-0.012": 2.43123476996,
			"-0.011": 2.19234367665,
			"-0.01": 1.82889345124,
			"-0.009": 1.48769678782,
			"-0.008": 2.05395872917,
			"-0.007": 5.30827995147,
			"-0.006": 9.05392506021,
			"-0.005": 11.0088741418,
			"-0.004": 10.0744225849,
			"-0.003": 9.59939013936,
			"-0.002": 8.1564709046,
			"-0.001": 10.9450092506,
			"0.0": 14.5622154801,
			"0.001": 16.8367725385,
			"0.002": 19.0239822355,
			"0.003": 21.0247355667,
			"0.004": 17.9032204249,
			"0.005": 10.3003871661,
			"0.006": 4.1734529099,
			"0.007": 2.04530124504,
			"0.008": 1.06799043832,
			"0.009": 1.52790375067,
			"0.01": 0.929577556684,
			"0.011": 0.874604847408,
			"0.012": 0.701244389376,
			"0.013": 0.992272628329,
			"0.014": 0.267163222776,
			"0.015": 0.0,
			"0.016": 0.0,
			"0.017": 0.0,
			"0.018": 0.0,
			"0.019": 0.0,
			"0.02": 0.0,
			"0.021": 0.0,
			"0.022": 0.0,
			"0.023": 0.0,
			"0.024": 0.0,
			"0.025": 0.0
		}
	}
}
