{
	 "smiles": "CC(=O)CCN1C=C(N=C1C)[N+]([O-])=O", 
	 "Tm": 372.15, 
	 "num_atms": 25, 
	 "gaussian": { 
		 "optdone": 1, 
		 "sigma_profile": "yes", 
		 "theory": "DFT", 
		 "functional": "B3LYP", 
		 "basiset": "6-31G**", 
		 "properties": { 
			 "R2extent": 3469.4838, 
			 "electric_dipole_moment_norm": 8.82522554329, 
			 "electric_quadrupole_moment_norm": 20.4093970362, 
			 "total_energy": -701.30946847, 
			 "HOMO_LUMO_gap": 0.18136, 
			 "cosmo_polarized_energy": -22.77, 
			 "cosmo_cavitation_energy": 29.78, 
			 "cosmo_dispersion_energy": -20.86, 
			 "cosmo_repulsion_energy": 1.67, 
			 "cosmo_total_nonelectrostatic_energy": 10.59, 
			 "SMD_solvation_energy": 6.76 
		},
		"coords": [
			{
				"x": -1.2413385926,
				"y": 3.3622297269,
				"z": 1.2620465541,
				"element": "C" 
			},
			{
				"x": -0.7807336553,
				"y": 1.9848170488,
				"z": 1.6874168617,
				"element": "C" 
			},
			{
				"x": -1.4646068016,
				"y": 1.2603562424,
				"z": 2.385971934,
				"element": "O" 
			},
			{
				"x": 0.6078635046,
				"y": 1.5523167035,
				"z": 1.2128547969,
				"element": "C" 
			},
			{
				"x": 0.8601467004,
				"y": 0.0461269762,
				"z": 1.3270852626,
				"element": "C" 
			},
			{
				"x": 0.1609615553,
				"y": -0.7286650801,
				"z": 0.3004020897,
				"element": "N" 
			},
			{
				"x": 0.4262660821,
				"y": -0.6686749158,
				"z": -1.0452669543,
				"element": "C" 
			},
			{
				"x": -0.4579327394,
				"y": -1.5553591295,
				"z": -1.6085482057,
				"element": "C" 
			},
			{
				"x": -1.2471697905,
				"y": -2.159314772,
				"z": -0.6782246189,
				"element": "N" 
			},
			{
				"x": -0.8617849922,
				"y": -1.651831122,
				"z": 0.4749360769,
				"element": "C" 
			},
			{
				"x": -1.4297950164,
				"y": -2.0245423523,
				"z": 1.8046869935,
				"element": "C" 
			},
			{
				"x": -0.5552436239,
				"y": -1.8323212715,
				"z": -3.0196762508,
				"element": "N" 
			},
			{
				"x": -1.3846275884,
				"y": -2.6513991949,
				"z": -3.4002641598,
				"element": "O" 
			},
			{
				"x": 0.2233982074,
				"y": -1.2062050044,
				"z": -3.7517443539,
				"element": "O" 
			},
			{
				"x": -1.4717801909,
				"y": 3.3513622179,
				"z": 0.1894973865,
				"element": "H" 
			},
			{
				"x": -2.1373489454,
				"y": 3.6431188939,
				"z": 1.816644994,
				"element": "H" 
			},
			{
				"x": -0.4536870089,
				"y": 4.1088663064,
				"z": 1.4114495406,
				"element": "H" 
			},
			{
				"x": 0.7826838928,
				"y": 1.9090510646,
				"z": 0.1913228873,
				"element": "H" 
			},
			{
				"x": 1.3374557187,
				"y": 2.0843372998,
				"z": 1.8403403315,
				"element": "H" 
			},
			{
				"x": 1.9317496925,
				"y": -0.1607861276,
				"z": 1.2463012007,
				"element": "H" 
			},
			{
				"x": 0.5178926545,
				"y": -0.3062803432,
				"z": 2.3003125662,
				"element": "H" 
			},
			{
				"x": 1.1882045139,
				"y": -0.0435843112,
				"z": -1.4807998932,
				"element": "H" 
			},
			{
				"x": -0.690935046,
				"y": -2.539290637,
				"z": 2.4308610388,
				"element": "H" 
			},
			{
				"x": -2.2635351153,
				"y": -2.7061461353,
				"z": 1.6332109586,
				"element": "H" 
			},
			{
				"x": -1.7844034155,
				"y": -1.1448820838,
				"z": 2.3486829632,
				"element": "H" 
			}
		],
		 "valence_orbital": [ 
			{
				"type": "occ",
				"energy": -0.28842,
				"method": "rhf"
			},
			{
				"type": "occ",
				"energy": -0.28798,
				"method": "rhf"
			},
			{
				"type": "occ",
				"energy": -0.27618,
				"method": "rhf"
			},
			{
				"type": "occ",
				"energy": -0.27148,
				"method": "rhf"
			},
			{
				"type": "occ",
				"energy": -0.24597,
				"method": "rhf"
			},
			{
				"type": "unocc",
				"energy": -0.06461,
				"method": "rhf"
			},
			{
				"type": "unocc",
				"energy": -0.0423,
				"method": "rhf"
			},
			{
				"type": "unocc",
				"energy": 0.00866,
				"method": "rhf"
			},
			{
				"type": "unocc",
				"energy": 0.05964,
				"method": "rhf"
			},
			{
				"type": "unocc",
				"energy": 0.07717,
				"method": "rhf"
			}
		],
		"cosmo_sigma_profile": { 
			"-0.025": 0.0,
			"-0.024": 0.0,
			"-0.023": 0.0,
			"-0.022": 0.0,
			"-0.021": 0.0,
			"-0.02": 0.0,
			"-0.019": 0.0,
			"-0.018": 0.0,
			"-0.017": 0.0,
			"-0.016": 0.0,
			"-0.015": 0.0,
			"-0.014": 0.0,
			"-0.013": 0.0,
			"-0.012": 0.0,
			"-0.011": 0.976699224847,
			"-0.01": 2.55688431604,
			"-0.009": 2.22411654242,
			"-0.008": 5.16048209148,
			"-0.007": 16.2476310701,
			"-0.006": 19.7883021501,
			"-0.005": 19.3522062011,
			"-0.004": 17.7035227445,
			"-0.003": 15.1427813744,
			"-0.002": 19.9821539152,
			"-0.001": 18.9211502968,
			"0.0": 12.559753334,
			"0.001": 7.54376690599,
			"0.002": 6.74613664788,
			"0.003": 5.45266390683,
			"0.004": 5.14891136525,
			"0.005": 5.37159743541,
			"0.006": 4.74007960521,
			"0.007": 5.92218113125,
			"0.008": 12.6162321148,
			"0.009": 10.0138299929,
			"0.01": 7.79337346718,
			"0.011": 5.33957364072,
			"0.012": 2.70425899466,
			"0.013": 2.18751718638,
			"0.014": 1.50574603555,
			"0.015": 0.824980996453,
			"0.016": 1.26812987465,
			"0.017": 0.233595671802,
			"0.018": 0.0,
			"0.019": 0.0,
			"0.02": 0.0,
			"0.021": 0.0,
			"0.022": 0.0,
			"0.023": 0.0,
			"0.024": 0.0,
			"0.025": 0.0
		}
	}
}
