{
	 "smiles": "[O-][N+](=O)C1=CC=C(C=C1C(C#N)C(=O)OCC1=CC=CC=C1)C(F)(F)F", 
	 "Tm": 344.15, 
	 "num_atms": 37, 
	 "gaussian": { 
		 "optdone": 1, 
		 "sigma_profile": "yes", 
		 "theory": "DFT", 
		 "functional": "B3LYP", 
		 "basiset": "6-31G**", 
		 "properties": { 
			 "R2extent": 8665.1312, 
			 "electric_dipole_moment_norm": 5.07079021455, 
			 "electric_quadrupole_moment_norm": 18.0294801908, 
			 "total_energy": -1364.24008143, 
			 "HOMO_LUMO_gap": 0.1496, 
			 "cosmo_polarized_energy": -16.41, 
			 "cosmo_cavitation_energy": 45.96, 
			 "cosmo_dispersion_energy": -28.07, 
			 "cosmo_repulsion_energy": 2.09, 
			 "cosmo_total_nonelectrostatic_energy": 19.97, 
			 "SMD_solvation_energy": 12.95 
		},
		"coords": [
			{
				"x": 2.8482426288,
				"y": -2.3205039517,
				"z": 1.098517182,
				"element": "O" 
			},
			{
				"x": 1.6677677835,
				"y": -2.6181705025,
				"z": 0.9383227428,
				"element": "N" 
			},
			{
				"x": 1.2733207309,
				"y": -3.6496430474,
				"z": 0.3970576773,
				"element": "O" 
			},
			{
				"x": 0.6609437201,
				"y": -1.6857576375,
				"z": 1.4861794558,
				"element": "C" 
			},
			{
				"x": 1.015673844,
				"y": -1.055056419,
				"z": 2.6780569649,
				"element": "C" 
			},
			{
				"x": 0.1204325236,
				"y": -0.1902155883,
				"z": 3.2953186403,
				"element": "C" 
			},
			{
				"x": -1.1162553583,
				"y": 0.0516139906,
				"z": 2.6965309162,
				"element": "C" 
			},
			{
				"x": -1.4508371925,
				"y": -0.5633772578,
				"z": 1.4900228374,
				"element": "C" 
			},
			{
				"x": -0.5765714705,
				"y": -1.4552267252,
				"z": 0.8607922805,
				"element": "C" 
			},
			{
				"x": -0.9473730582,
				"y": -2.0389243049,
				"z": -0.5072426812,
				"element": "C" 
			},
			{
				"x": -2.3959598574,
				"y": -2.1527141107,
				"z": -0.6906184742,
				"element": "C" 
			},
			{
				"x": -3.5433823954,
				"y": -2.2669600386,
				"z": -0.8123595356,
				"element": "N" 
			},
			{
				"x": -0.3267181641,
				"y": -1.1626043823,
				"z": -1.6258760474,
				"element": "C" 
			},
			{
				"x": -0.950813019,
				"y": -0.4552618549,
				"z": -2.3769779932,
				"element": "O" 
			},
			{
				"x": 1.0040445195,
				"y": -1.3166173809,
				"z": -1.6011669797,
				"element": "O" 
			},
			{
				"x": 1.7891491265,
				"y": -0.4672317461,
				"z": -2.5006316283,
				"element": "C" 
			},
			{
				"x": 2.1043817193,
				"y": 0.8572685644,
				"z": -1.8577654583,
				"element": "C" 
			},
			{
				"x": 3.0533443288,
				"y": 0.9294781796,
				"z": -0.8279027981,
				"element": "C" 
			},
			{
				"x": 3.3430208052,
				"y": 2.1516133334,
				"z": -0.2229406989,
				"element": "C" 
			},
			{
				"x": 2.6891872424,
				"y": 3.3130353179,
				"z": -0.6435222981,
				"element": "C" 
			},
			{
				"x": 1.7398709391,
				"y": 3.2471141532,
				"z": -1.6645318391,
				"element": "C" 
			},
			{
				"x": 1.4451542306,
				"y": 2.0226251968,
				"z": -2.2666400625,
				"element": "C" 
			},
			{
				"x": -2.1175479214,
				"y": 0.9504702378,
				"z": 3.3820855469,
				"element": "C" 
			},
			{
				"x": -1.5018013507,
				"y": 1.9286643946,
				"z": 4.079257904,
				"element": "F" 
			},
			{
				"x": -2.8742838186,
				"y": 0.2532799595,
				"z": 4.2557954184,
				"element": "F" 
			},
			{
				"x": -2.9522691814,
				"y": 1.5330525257,
				"z": 2.500159357,
				"element": "F" 
			},
			{
				"x": 1.9906858546,
				"y": -1.2547763235,
				"z": 3.1047187731,
				"element": "H" 
			},
			{
				"x": 0.3842459077,
				"y": 0.2988802044,
				"z": 4.2258729143,
				"element": "H" 
			},
			{
				"x": -2.4076113505,
				"y": -0.3462848759,
				"z": 1.0282569082,
				"element": "H" 
			},
			{
				"x": -0.50810659,
				"y": -3.0364436209,
				"z": -0.5893529543,
				"element": "H" 
			},
			{
				"x": 2.6894415701,
				"y": -1.0571178049,
				"z": -2.6802554303,
				"element": "H" 
			},
			{
				"x": 1.2328700855,
				"y": -0.3453384096,
				"z": -3.4310099393,
				"element": "H" 
			},
			{
				"x": 3.5553990069,
				"y": 0.0245028225,
				"z": -0.4950489663,
				"element": "H" 
			},
			{
				"x": 4.0818704101,
				"y": 2.1999462214,
				"z": 0.5717708849,
				"element": "H" 
			},
			{
				"x": 2.9196210722,
				"y": 4.2660370983,
				"z": -0.1759361221,
				"element": "H" 
			},
			{
				"x": 1.2267257732,
				"y": 4.1468635849,
				"z": -1.9910468116,
				"element": "H" 
			},
			{
				"x": 0.6960369055,
				"y": 1.9653801976,
				"z": -3.0509896855,
				"element": "H" 
			}
		],
		 "valence_orbital": [ 
			{
				"type": "occ",
				"energy": -0.31455,
				"method": "rhf"
			},
			{
				"type": "occ",
				"energy": -0.29909,
				"method": "rhf"
			},
			{
				"type": "occ",
				"energy": -0.29059,
				"method": "rhf"
			},
			{
				"type": "occ",
				"energy": -0.26316,
				"method": "rhf"
			},
			{
				"type": "occ",
				"energy": -0.26226,
				"method": "rhf"
			},
			{
				"type": "unocc",
				"energy": -0.11266,
				"method": "rhf"
			},
			{
				"type": "unocc",
				"energy": -0.05678,
				"method": "rhf"
			},
			{
				"type": "unocc",
				"energy": -0.04466,
				"method": "rhf"
			},
			{
				"type": "unocc",
				"energy": -0.02565,
				"method": "rhf"
			},
			{
				"type": "unocc",
				"energy": -0.0151,
				"method": "rhf"
			}
		],
		"cosmo_sigma_profile": { 
			"-0.025": 0.0,
			"-0.024": 0.0,
			"-0.023": 0.0,
			"-0.022": 0.0,
			"-0.021": 0.0,
			"-0.02": 0.0,
			"-0.019": 0.0,
			"-0.018": 0.0,
			"-0.017": 0.0,
			"-0.016": 0.0,
			"-0.015": 0.0,
			"-0.014": 0.0,
			"-0.013": 0.0,
			"-0.012": 0.242523894006,
			"-0.011": 1.15332295876,
			"-0.01": 1.65963694644,
			"-0.009": 4.98509631455,
			"-0.008": 7.17522157181,
			"-0.007": 11.5635496931,
			"-0.006": 20.25480268,
			"-0.005": 22.7840782498,
			"-0.004": 26.3880937775,
			"-0.003": 26.0955505516,
			"-0.002": 26.5319550417,
			"-0.001": 28.1024280757,
			"0.0": 22.6805803271,
			"0.001": 24.4860806876,
			"0.002": 39.805884054,
			"0.003": 25.0753954035,
			"0.004": 17.3762741086,
			"0.005": 15.8453016202,
			"0.006": 11.6478661465,
			"0.007": 10.449680749,
			"0.008": 8.60943170576,
			"0.009": 7.13145539043,
			"0.01": 6.09142211523,
			"0.011": 2.96134655092,
			"0.012": 1.41364882183,
			"0.013": 0.018478176428,
			"0.014": 0.0,
			"0.015": 0.0,
			"0.016": 0.0,
			"0.017": 0.0,
			"0.018": 0.0,
			"0.019": 0.0,
			"0.02": 0.0,
			"0.021": 0.0,
			"0.022": 0.0,
			"0.023": 0.0,
			"0.024": 0.0,
			"0.025": 0.0
		}
	}
}
