{
	 "smiles": "CC1=C(C)C=C(NC(=O)C2(CN)CCCC2)C=C1", 
	 "Tm": 387.15, 
	 "num_atms": 40, 
	 "gaussian": { 
		 "optdone": 1, 
		 "sigma_profile": "yes", 
		 "theory": "DFT", 
		 "functional": "B3LYP", 
		 "basiset": "6-31G**", 
		 "properties": { 
			 "R2extent": 6194.5361, 
			 "electric_dipole_moment_norm": 3.25016167444, 
			 "electric_quadrupole_moment_norm": 14.020403614, 
			 "total_energy": -769.616279453, 
			 "HOMO_LUMO_gap": 0.20226, 
			 "cosmo_polarized_energy": -15.74, 
			 "cosmo_cavitation_energy": 40.02, 
			 "cosmo_dispersion_energy": -28.17, 
			 "cosmo_repulsion_energy": 2.19, 
			 "cosmo_total_nonelectrostatic_energy": 14.04, 
			 "SMD_solvation_energy": 5.41 
		},
		"coords": [
			{
				"x": 4.7859765049,
				"y": -1.7684931515,
				"z": -0.9535160813,
				"element": "C" 
			},
			{
				"x": 3.3622100461,
				"y": -1.3399833837,
				"z": -0.690541882,
				"element": "C" 
			},
			{
				"x": 3.0423391004,
				"y": 0.0044675011,
				"z": -0.4062285621,
				"element": "C" 
			},
			{
				"x": 4.125468935,
				"y": 1.0569746739,
				"z": -0.3564064973,
				"element": "C" 
			},
			{
				"x": 1.716401498,
				"y": 0.3783385363,
				"z": -0.1661879501,
				"element": "C" 
			},
			{
				"x": 0.684874452,
				"y": -0.5714697508,
				"z": -0.2022183512,
				"element": "C" 
			},
			{
				"x": -0.6728218874,
				"y": -0.257689424,
				"z": 0.0230237442,
				"element": "N" 
			},
			{
				"x": -1.2459746626,
				"y": 0.9442778477,
				"z": 0.3667773752,
				"element": "C" 
			},
			{
				"x": -0.6093815562,
				"y": 1.9845227817,
				"z": 0.4853793158,
				"element": "O" 
			},
			{
				"x": -2.7893501857,
				"y": 0.9009326047,
				"z": 0.5254041362,
				"element": "C" 
			},
			{
				"x": -3.2216738255,
				"y": -0.1614090245,
				"z": 1.55532157,
				"element": "C" 
			},
			{
				"x": -2.5105064873,
				"y": 0.0030618077,
				"z": 2.8219497403,
				"element": "N" 
			},
			{
				"x": -3.2937197272,
				"y": 2.3187219377,
				"z": 0.8950606368,
				"element": "C" 
			},
			{
				"x": -3.4353926053,
				"y": 3.097087344,
				"z": -0.4405801911,
				"element": "C" 
			},
			{
				"x": -3.3322726806,
				"y": 2.0360299366,
				"z": -1.5706909257,
				"element": "C" 
			},
			{
				"x": -3.4556232968,
				"y": 0.6767786233,
				"z": -0.8592920904,
				"element": "C" 
			},
			{
				"x": 1.0014522164,
				"y": -1.9066331619,
				"z": -0.484042701,
				"element": "C" 
			},
			{
				"x": 2.3220797738,
				"y": -2.2741145171,
				"z": -0.7227812471,
				"element": "C" 
			},
			{
				"x": 5.2173049912,
				"y": -1.2459727943,
				"z": -1.8165440238,
				"element": "H" 
			},
			{
				"x": 5.4411005325,
				"y": -1.5553849521,
				"z": -0.0995687995,
				"element": "H" 
			},
			{
				"x": 4.8427576702,
				"y": -2.8419710044,
				"z": -1.1543385013,
				"element": "H" 
			},
			{
				"x": 4.8800121968,
				"y": 0.8241615312,
				"z": 0.4051182598,
				"element": "H" 
			},
			{
				"x": 4.6582975926,
				"y": 1.1342648871,
				"z": -1.3122684021,
				"element": "H" 
			},
			{
				"x": 3.7087234114,
				"y": 2.0400780313,
				"z": -0.1247806569,
				"element": "H" 
			},
			{
				"x": 1.4698830896,
				"y": 1.407379715,
				"z": 0.0548813322,
				"element": "H" 
			},
			{
				"x": -1.2932984455,
				"y": -1.0529535128,
				"z": -0.0025357679,
				"element": "H" 
			},
			{
				"x": -3.0036994655,
				"y": -1.1717268836,
				"z": 1.1812958742,
				"element": "H" 
			},
			{
				"x": -4.3228704603,
				"y": -0.1081939697,
				"z": 1.6348749209,
				"element": "H" 
			},
			{
				"x": -2.7954996412,
				"y": -0.7119762132,
				"z": 3.4854683118,
				"element": "H" 
			},
			{
				"x": -2.7426722856,
				"y": 0.9002107041,
				"z": 3.2400325184,
				"element": "H" 
			},
			{
				"x": -2.6142882114,
				"y": 2.8190268774,
				"z": 1.5872125254,
				"element": "H" 
			},
			{
				"x": -4.2722572595,
				"y": 2.2205474412,
				"z": 1.3812628233,
				"element": "H" 
			},
			{
				"x": -2.6435404632,
				"y": 3.8429658699,
				"z": -0.5385830749,
				"element": "H" 
			},
			{
				"x": -4.3905639722,
				"y": 3.6305729587,
				"z": -0.4790365176,
				"element": "H" 
			},
			{
				"x": -2.3570388829,
				"y": 2.1064688038,
				"z": -2.0633556403,
				"element": "H" 
			},
			{
				"x": -4.0925374393,
				"y": 2.165002801,
				"z": -2.3471152088,
				"element": "H" 
			},
			{
				"x": -3.010176029,
				"y": -0.1460075008,
				"z": -1.4288165287,
				"element": "H" 
			},
			{
				"x": -4.5120194308,
				"y": 0.4242322749,
				"z": -0.696993508,
				"element": "H" 
			},
			{
				"x": 0.2152881416,
				"y": -2.6581558066,
				"z": -0.516491261,
				"element": "H" 
			},
			{
				"x": 2.5495087485,
				"y": -3.3150704391,
				"z": -0.9395487145,
				"element": "H" 
			}
		],
		 "valence_orbital": [ 
			{
				"type": "occ",
				"energy": -0.2857,
				"method": "rhf"
			},
			{
				"type": "occ",
				"energy": -0.24546,
				"method": "rhf"
			},
			{
				"type": "occ",
				"energy": -0.23407,
				"method": "rhf"
			},
			{
				"type": "occ",
				"energy": -0.23307,
				"method": "rhf"
			},
			{
				"type": "occ",
				"energy": -0.20209,
				"method": "rhf"
			},
			{
				"type": "unocc",
				"energy": 0.00017,
				"method": "rhf"
			},
			{
				"type": "unocc",
				"energy": 0.0122,
				"method": "rhf"
			},
			{
				"type": "unocc",
				"energy": 0.0519,
				"method": "rhf"
			},
			{
				"type": "unocc",
				"energy": 0.05981,
				"method": "rhf"
			},
			{
				"type": "unocc",
				"energy": 0.08617,
				"method": "rhf"
			}
		],
		"cosmo_sigma_profile": { 
			"-0.025": 0.0,
			"-0.024": 0.0,
			"-0.023": 0.0,
			"-0.022": 0.0,
			"-0.021": 0.0,
			"-0.02": 0.0,
			"-0.019": 0.0,
			"-0.018": 0.0,
			"-0.017": 0.0,
			"-0.016": 0.0,
			"-0.015": 0.0,
			"-0.014": 0.411137803769,
			"-0.013": 0.997438506941,
			"-0.012": 1.75431902197,
			"-0.011": 1.02789916493,
			"-0.01": 2.65909021366,
			"-0.009": 4.29294963655,
			"-0.008": 3.7641929586,
			"-0.007": 4.16864314772,
			"-0.006": 5.955908721,
			"-0.005": 8.71926967626,
			"-0.004": 19.5077452611,
			"-0.003": 32.6045231568,
			"-0.002": 37.2299021445,
			"-0.001": 37.0713392371,
			"0.0": 36.9565137481,
			"0.001": 27.2879863501,
			"0.002": 15.3134183938,
			"0.003": 9.82294598849,
			"0.004": 12.2620139009,
			"0.005": 11.8747678138,
			"0.006": 11.3618088622,
			"0.007": 5.05582756613,
			"0.008": 3.45925511918,
			"0.009": 2.47309848571,
			"0.01": 2.88290031473,
			"0.011": 3.47484260641,
			"0.012": 2.75642939281,
			"0.013": 3.18292501189,
			"0.014": 1.12319103237,
			"0.015": 0.68986278535,
			"0.016": 0.671270052005,
			"0.017": 0.531524146405,
			"0.018": 0.137248496743,
			"0.019": 0.0,
			"0.02": 0.0,
			"0.021": 0.0,
			"0.022": 0.0,
			"0.023": 0.0,
			"0.024": 0.0,
			"0.025": 0.0
		}
	}
}
