{
	 "smiles": "CC1=CC2=C(C=C1)N=C(NCC1=CC=CC=C1)S2", 
	 "Tm": 449.15, 
	 "num_atms": 32, 
	 "gaussian": { 
		 "optdone": 1, 
		 "sigma_profile": "yes", 
		 "theory": "DFT", 
		 "functional": "B3LYP", 
		 "basiset": "6-31G**", 
		 "properties": { 
			 "R2extent": 7503.9676, 
			 "electric_dipole_moment_norm": 1.52474192242, 
			 "electric_quadrupole_moment_norm": 12.4087526363, 
			 "total_energy": -1087.74639367, 
			 "HOMO_LUMO_gap": 0.18631, 
			 "cosmo_polarized_energy": -10.64, 
			 "cosmo_cavitation_energy": 37.34, 
			 "cosmo_dispersion_energy": -27.31, 
			 "cosmo_repulsion_energy": 2.06, 
			 "cosmo_total_nonelectrostatic_energy": 12.1, 
			 "SMD_solvation_energy": 3.83 
		},
		"coords": [
			{
				"x": 5.9541764562,
				"y": -0.9615887703,
				"z": 0.7711060007,
				"element": "C" 
			},
			{
				"x": 4.453070662,
				"y": -0.8336024187,
				"z": 0.6474465586,
				"element": "C" 
			},
			{
				"x": 3.608887395,
				"y": -1.3014091631,
				"z": 1.6606839284,
				"element": "C" 
			},
			{
				"x": 2.2296194656,
				"y": -1.1777958458,
				"z": 1.5070185781,
				"element": "C" 
			},
			{
				"x": 1.6525978963,
				"y": -0.5887825458,
				"z": 0.3584297581,
				"element": "C" 
			},
			{
				"x": 2.5036440313,
				"y": -0.1206433535,
				"z": -0.6511111668,
				"element": "C" 
			},
			{
				"x": 3.8802096696,
				"y": -0.2469714845,
				"z": -0.4977337143,
				"element": "C" 
			},
			{
				"x": 0.2669870647,
				"y": -0.5146822221,
				"z": 0.3420953092,
				"element": "N" 
			},
			{
				"x": -0.2369345418,
				"y": -1.0329759554,
				"z": 1.420559927,
				"element": "C" 
			},
			{
				"x": -1.5697182018,
				"y": -1.1710936239,
				"z": 1.6780195531,
				"element": "N" 
			},
			{
				"x": -2.5820576684,
				"y": -0.5317415774,
				"z": 0.8273168513,
				"element": "C" 
			},
			{
				"x": -2.9739822487,
				"y": 0.8638650557,
				"z": 1.2761546851,
				"element": "C" 
			},
			{
				"x": -4.1809615539,
				"y": 1.0791847099,
				"z": 1.9516824788,
				"element": "C" 
			},
			{
				"x": -4.5369620503,
				"y": 2.357259793,
				"z": 2.3884757536,
				"element": "C" 
			},
			{
				"x": -3.6843389836,
				"y": 3.4359704198,
				"z": 2.1527834166,
				"element": "C" 
			},
			{
				"x": -2.4780972774,
				"y": 3.2314391164,
				"z": 1.4768399588,
				"element": "C" 
			},
			{
				"x": -2.1246052753,
				"y": 1.9555850076,
				"z": 1.0394123194,
				"element": "C" 
			},
			{
				"x": 0.9450858761,
				"y": -1.6766352447,
				"z": 2.6083688627,
				"element": "S" 
			},
			{
				"x": 6.2434571463,
				"y": -1.3450299796,
				"z": 1.7536290652,
				"element": "H" 
			},
			{
				"x": 6.4515730655,
				"y": 0.004838892,
				"z": 0.6304746187,
				"element": "H" 
			},
			{
				"x": 6.3617904516,
				"y": -1.6448687405,
				"z": 0.0161827813,
				"element": "H" 
			},
			{
				"x": 4.030434674,
				"y": -1.7556867674,
				"z": 2.552799812,
				"element": "H" 
			},
			{
				"x": 2.0744395151,
				"y": 0.3345370308,
				"z": -1.5379452742,
				"element": "H" 
			},
			{
				"x": 4.5358417279,
				"y": 0.1182047038,
				"z": -1.2845052086,
				"element": "H" 
			},
			{
				"x": -1.8270722997,
				"y": -1.3138317188,
				"z": 2.6443946925,
				"element": "H" 
			},
			{
				"x": -2.16761962,
				"y": -0.5152452744,
				"z": -0.1823385127,
				"element": "H" 
			},
			{
				"x": -3.463048256,
				"y": -1.1822996462,
				"z": 0.8198663556,
				"element": "H" 
			},
			{
				"x": -4.8514535536,
				"y": 0.24141288,
				"z": 2.1319876574,
				"element": "H" 
			},
			{
				"x": -5.4786891493,
				"y": 2.5089336545,
				"z": 2.9085414656,
				"element": "H" 
			},
			{
				"x": -3.9587393802,
				"y": 4.4316433749,
				"z": 2.4895688023,
				"element": "H" 
			},
			{
				"x": -1.8138614715,
				"y": 4.0696927925,
				"z": 1.2857696053,
				"element": "H" 
			},
			{
				"x": -1.1889735654,
				"y": 1.7926169009,
				"z": 0.5126250815,
				"element": "H" 
			}
		],
		 "valence_orbital": [ 
			{
				"type": "occ",
				"energy": -0.26994,
				"method": "rhf"
			},
			{
				"type": "occ",
				"energy": -0.25107,
				"method": "rhf"
			},
			{
				"type": "occ",
				"energy": -0.24651,
				"method": "rhf"
			},
			{
				"type": "occ",
				"energy": -0.22548,
				"method": "rhf"
			},
			{
				"type": "occ",
				"energy": -0.19872,
				"method": "rhf"
			},
			{
				"type": "unocc",
				"energy": -0.01241,
				"method": "rhf"
			},
			{
				"type": "unocc",
				"energy": -0.00199,
				"method": "rhf"
			},
			{
				"type": "unocc",
				"energy": -0.00029,
				"method": "rhf"
			},
			{
				"type": "unocc",
				"energy": 0.00339,
				"method": "rhf"
			},
			{
				"type": "unocc",
				"energy": 0.0048,
				"method": "rhf"
			}
		],
		"cosmo_sigma_profile": { 
			"-0.025": 0.0,
			"-0.024": 0.0,
			"-0.023": 0.0,
			"-0.022": 0.0,
			"-0.021": 0.0,
			"-0.02": 0.0,
			"-0.019": 0.0,
			"-0.018": 0.0,
			"-0.017": 0.0,
			"-0.016": 0.015853772515,
			"-0.015": 0.698182047017,
			"-0.014": 1.1089538283,
			"-0.013": 1.36995087285,
			"-0.012": 0.911853357513,
			"-0.011": 0.940258837489,
			"-0.01": 1.88182826593,
			"-0.009": 0.9803274998,
			"-0.008": 1.31870528395,
			"-0.007": 1.62301202633,
			"-0.006": 11.107929884,
			"-0.005": 19.9561651197,
			"-0.004": 23.3103744357,
			"-0.003": 26.9580263827,
			"-0.002": 23.4287227862,
			"-0.001": 20.3291339939,
			"0.0": 23.3382676651,
			"0.001": 23.0938803955,
			"0.002": 22.2908265283,
			"0.003": 22.7596385229,
			"0.004": 24.9701090559,
			"0.005": 24.0955106555,
			"0.006": 16.6946873392,
			"0.007": 2.67034542113,
			"0.008": 0.980338343233,
			"0.009": 0.882961667444,
			"0.01": 0.788800255576,
			"0.011": 1.03421951624,
			"0.012": 0.819633652783,
			"0.013": 0.0286194343138,
			"0.014": 0.0,
			"0.015": 0.0,
			"0.016": 0.0,
			"0.017": 0.0,
			"0.018": 0.0,
			"0.019": 0.0,
			"0.02": 0.0,
			"0.021": 0.0,
			"0.022": 0.0,
			"0.023": 0.0,
			"0.024": 0.0,
			"0.025": 0.0
		}
	}
}
