{
	 "smiles": "NCC(O)(C1=CC=CC=C1)C(F)(F)F", 
	 "Tm": 350.15, 
	 "num_atms": 24, 
	 "gaussian": { 
		 "optdone": 1, 
		 "sigma_profile": "yes", 
		 "theory": "DFT", 
		 "functional": "B3LYP", 
		 "basiset": "6-31G**", 
		 "properties": { 
			 "R2extent": 3105.7286, 
			 "electric_dipole_moment_norm": 2.3940522488, 
			 "electric_quadrupole_moment_norm": 10.830696539, 
			 "total_energy": -778.468283461, 
			 "HOMO_LUMO_gap": 0.22855, 
			 "cosmo_polarized_energy": -11.8, 
			 "cosmo_cavitation_energy": 27.38, 
			 "cosmo_dispersion_energy": -19.64, 
			 "cosmo_repulsion_energy": 1.49, 
			 "cosmo_total_nonelectrostatic_energy": 9.23, 
			 "SMD_solvation_energy": 4.84 
		},
		"coords": [
			{
				"x": -1.1475973561,
				"y": -1.2317132427,
				"z": -2.3207809287,
				"element": "N" 
			},
			{
				"x": -0.8835805212,
				"y": 0.2046697473,
				"z": -2.3802031143,
				"element": "C" 
			},
			{
				"x": 0.4771868855,
				"y": 0.6513814318,
				"z": -1.7845460116,
				"element": "C" 
			},
			{
				"x": 0.782642825,
				"y": 1.9419345349,
				"z": -2.3099334744,
				"element": "O" 
			},
			{
				"x": 0.4839197549,
				"y": 0.8029589056,
				"z": -0.2613643907,
				"element": "C" 
			},
			{
				"x": -0.5288000279,
				"y": 0.2823013235,
				"z": 0.5528334407,
				"element": "C" 
			},
			{
				"x": -0.4899622669,
				"y": 0.4496016585,
				"z": 1.9388901874,
				"element": "C" 
			},
			{
				"x": 0.5597495962,
				"y": 1.1494234881,
				"z": 2.5311444967,
				"element": "C" 
			},
			{
				"x": 1.5671314116,
				"y": 1.6862709983,
				"z": 1.7268220479,
				"element": "C" 
			},
			{
				"x": 1.5293599585,
				"y": 1.5166238819,
				"z": 0.3444266787,
				"element": "C" 
			},
			{
				"x": 1.6126628962,
				"y": -0.3045672356,
				"z": -2.2340627141,
				"element": "C" 
			},
			{
				"x": 1.5828003142,
				"y": -0.45325778,
				"z": -3.5829508769,
				"element": "F" 
			},
			{
				"x": 1.5345421008,
				"y": -1.5185918927,
				"z": -1.6688701832,
				"element": "F" 
			},
			{
				"x": 2.8301221969,
				"y": 0.1984861785,
				"z": -1.9355006838,
				"element": "F" 
			},
			{
				"x": -1.1046782386,
				"y": -1.5911574674,
				"z": -1.3733268101,
				"element": "H" 
			},
			{
				"x": -2.075857183,
				"y": -1.4276208366,
				"z": -2.6830322979,
				"element": "H" 
			},
			{
				"x": -1.6416361189,
				"y": 0.8486130655,
				"z": -1.9062050543,
				"element": "H" 
			},
			{
				"x": -0.8611393872,
				"y": 0.4796320335,
				"z": -3.4405315756,
				"element": "H" 
			},
			{
				"x": 0.9222111396,
				"y": 1.8445860745,
				"z": -3.2633613555,
				"element": "H" 
			},
			{
				"x": -1.3682654671,
				"y": -0.2495067911,
				"z": 0.1182169278,
				"element": "H" 
			},
			{
				"x": -1.2865300189,
				"y": 0.0366188045,
				"z": 2.5510074314,
				"element": "H" 
			},
			{
				"x": 0.5898588897,
				"y": 1.2819378722,
				"z": 3.6087997904,
				"element": "H" 
			},
			{
				"x": 2.3840763736,
				"y": 2.2435852456,
				"z": 2.1761591392,
				"element": "H" 
			},
			{
				"x": 2.3045822432,
				"y": 1.9466900017,
				"z": -0.2770306691,
				"element": "H" 
			}
		],
		 "valence_orbital": [ 
			{
				"type": "occ",
				"energy": -0.33368,
				"method": "rhf"
			},
			{
				"type": "occ",
				"energy": -0.29158,
				"method": "rhf"
			},
			{
				"type": "occ",
				"energy": -0.25579,
				"method": "rhf"
			},
			{
				"type": "occ",
				"energy": -0.25128,
				"method": "rhf"
			},
			{
				"type": "occ",
				"energy": -0.24124,
				"method": "rhf"
			},
			{
				"type": "unocc",
				"energy": -0.01269,
				"method": "rhf"
			},
			{
				"type": "unocc",
				"energy": -0.00529,
				"method": "rhf"
			},
			{
				"type": "unocc",
				"energy": 0.06892,
				"method": "rhf"
			},
			{
				"type": "unocc",
				"energy": 0.07932,
				"method": "rhf"
			},
			{
				"type": "unocc",
				"energy": 0.09819,
				"method": "rhf"
			}
		],
		"cosmo_sigma_profile": { 
			"-0.025": 0.0,
			"-0.024": 0.0,
			"-0.023": 0.0,
			"-0.022": 0.0,
			"-0.021": 0.0,
			"-0.02": 0.0,
			"-0.019": 0.0,
			"-0.018": 0.0,
			"-0.017": 0.0,
			"-0.016": 0.432710988559,
			"-0.015": 0.546001511788,
			"-0.014": 1.12607357182,
			"-0.013": 0.351049161805,
			"-0.012": 0.759356998935,
			"-0.011": 1.86562344459,
			"-0.01": 3.42994657334,
			"-0.009": 3.62354845994,
			"-0.008": 4.64340075785,
			"-0.007": 4.27977061429,
			"-0.006": 9.9303153975,
			"-0.005": 12.7856503769,
			"-0.004": 17.2352376005,
			"-0.003": 13.7960379271,
			"-0.002": 11.3645167116,
			"-0.001": 10.056291217,
			"0.0": 9.18723767325,
			"0.001": 11.8548771963,
			"0.002": 19.3757450775,
			"0.003": 31.6284884279,
			"0.004": 13.3292477295,
			"0.005": 13.3539929858,
			"0.006": 4.38407036101,
			"0.007": 3.17032914707,
			"0.008": 2.27718034058,
			"0.009": 2.57531089884,
			"0.01": 1.36351192056,
			"0.011": 2.0995239187,
			"0.012": 2.65188173432,
			"0.013": 1.14552436431,
			"0.014": 0.606293467041,
			"0.015": 0.666835036934,
			"0.016": 0.526097181862,
			"0.017": 0.0879304428914,
			"0.018": 0.0,
			"0.019": 0.0,
			"0.02": 0.0,
			"0.021": 0.0,
			"0.022": 0.0,
			"0.023": 0.0,
			"0.024": 0.0,
			"0.025": 0.0
		}
	}
}
