{
	 "smiles": "COC1=C2N=CC=CC2=C(C=C1)[N+]([O-])=O", 
	 "Tm": 419.15, 
	 "num_atms": 23, 
	 "gaussian": { 
		 "optdone": 1, 
		 "sigma_profile": "yes", 
		 "theory": "DFT", 
		 "functional": "B3LYP", 
		 "basiset": "6-31G**", 
		 "properties": { 
			 "R2extent": 4432.4231, 
			 "electric_dipole_moment_norm": 4.87669525191, 
			 "electric_quadrupole_moment_norm": 21.5518146781, 
			 "total_energy": -720.943615194, 
			 "HOMO_LUMO_gap": 0.14102, 
			 "cosmo_polarized_energy": -9.03, 
			 "cosmo_cavitation_energy": 27.45, 
			 "cosmo_dispersion_energy": -20.61, 
			 "cosmo_repulsion_energy": 1.58, 
			 "cosmo_total_nonelectrostatic_energy": 8.42, 
			 "SMD_solvation_energy": 7.16 
		},
		"coords": [
			{
				"x": -0.4507427355,
				"y": 2.6854244317,
				"z": -1.6221540376,
				"element": "C" 
			},
			{
				"x": 0.1801160005,
				"y": 1.6720605494,
				"z": -0.8262670254,
				"element": "O" 
			},
			{
				"x": -0.215934208,
				"y": 0.3926899049,
				"z": -0.7231786773,
				"element": "C" 
			},
			{
				"x": -1.2032629177,
				"y": -0.2721347741,
				"z": -1.5373139014,
				"element": "C" 
			},
			{
				"x": -1.7926152886,
				"y": 0.4418746627,
				"z": -2.5328559173,
				"element": "N" 
			},
			{
				"x": -2.6846102703,
				"y": -0.1445936274,
				"z": -3.3029273968,
				"element": "C" 
			},
			{
				"x": -3.0647186475,
				"y": -1.4936051928,
				"z": -3.1495008926,
				"element": "C" 
			},
			{
				"x": -2.4894654129,
				"y": -2.2430767308,
				"z": -2.1508402768,
				"element": "C" 
			},
			{
				"x": -1.5194784417,
				"y": -1.6576291592,
				"z": -1.2883404641,
				"element": "C" 
			},
			{
				"x": -0.8196164922,
				"y": -2.3306989011,
				"z": -0.2372161308,
				"element": "C" 
			},
			{
				"x": 0.1447755329,
				"y": -1.667669153,
				"z": 0.5042309955,
				"element": "C" 
			},
			{
				"x": 0.4408288899,
				"y": -0.3275435554,
				"z": 0.2703624526,
				"element": "C" 
			},
			{
				"x": -1.0582182583,
				"y": -3.7268511462,
				"z": 0.1292354384,
				"element": "N" 
			},
			{
				"x": -2.0445344754,
				"y": -4.3127122455,
				"z": -0.3312118319,
				"element": "O" 
			},
			{
				"x": -0.2602917382,
				"y": -4.2593741158,
				"z": 0.9050738852,
				"element": "O" 
			},
			{
				"x": -1.5178616343,
				"y": 2.7569724729,
				"z": -1.4053631203,
				"element": "H" 
			},
			{
				"x": 0.0571112014,
				"y": 3.6068039747,
				"z": -1.3294380452,
				"element": "H" 
			},
			{
				"x": -0.3192794204,
				"y": 2.4974685606,
				"z": -2.6876032853,
				"element": "H" 
			},
			{
				"x": -3.1285734499,
				"y": 0.4673965985,
				"z": -4.0868664464,
				"element": "H" 
			},
			{
				"x": -3.8021514633,
				"y": -1.9314505017,
				"z": -3.814690816,
				"element": "H" 
			},
			{
				"x": -2.7609783531,
				"y": -3.2773442142,
				"z": -2.0061304663,
				"element": "H" 
			},
			{
				"x": 0.659586018,
				"y": -2.2149179514,
				"z": 1.2832021692,
				"element": "H" 
			},
			{
				"x": 1.1852155645,
				"y": 0.1874101132,
				"z": 0.8666937906,
				"element": "H" 
			}
		],
		 "valence_orbital": [ 
			{
				"type": "occ",
				"energy": -0.29905,
				"method": "rhf"
			},
			{
				"type": "occ",
				"energy": -0.28031,
				"method": "rhf"
			},
			{
				"type": "occ",
				"energy": -0.27363,
				"method": "rhf"
			},
			{
				"type": "occ",
				"energy": -0.26933,
				"method": "rhf"
			},
			{
				"type": "occ",
				"energy": -0.23181,
				"method": "rhf"
			},
			{
				"type": "unocc",
				"energy": -0.09079,
				"method": "rhf"
			},
			{
				"type": "unocc",
				"energy": -0.0477,
				"method": "rhf"
			},
			{
				"type": "unocc",
				"energy": -0.035,
				"method": "rhf"
			},
			{
				"type": "unocc",
				"energy": 0.02287,
				"method": "rhf"
			},
			{
				"type": "unocc",
				"energy": 0.07753,
				"method": "rhf"
			}
		],
		"cosmo_sigma_profile": { 
			"-0.025": 0.0,
			"-0.024": 0.0,
			"-0.023": 0.0,
			"-0.022": 0.0,
			"-0.021": 0.0,
			"-0.02": 0.0,
			"-0.019": 0.0,
			"-0.018": 0.0,
			"-0.017": 0.0,
			"-0.016": 0.0,
			"-0.015": 0.0,
			"-0.014": 0.0,
			"-0.013": 0.0,
			"-0.012": 0.0,
			"-0.011": 0.0,
			"-0.01": 0.0,
			"-0.009": 0.0,
			"-0.008": 1.29336849853,
			"-0.007": 8.29646519373,
			"-0.006": 11.2276832127,
			"-0.005": 14.8747600493,
			"-0.004": 16.0277049225,
			"-0.003": 18.2414186398,
			"-0.002": 15.8689424658,
			"-0.001": 22.0911995879,
			"0.0": 25.744490638,
			"0.001": 22.5505274912,
			"0.002": 13.2943147571,
			"0.003": 7.04389762208,
			"0.004": 6.10443936557,
			"0.005": 6.41648545822,
			"0.006": 6.23379608278,
			"0.007": 6.13969651925,
			"0.008": 8.31241859611,
			"0.009": 4.93718983516,
			"0.01": 4.23575784172,
			"0.011": 2.13349608436,
			"0.012": 0.00526392921799,
			"0.013": 0.0,
			"0.014": 0.0,
			"0.015": 0.0,
			"0.016": 0.0,
			"0.017": 0.0,
			"0.018": 0.0,
			"0.019": 0.0,
			"0.02": 0.0,
			"0.021": 0.0,
			"0.022": 0.0,
			"0.023": 0.0,
			"0.024": 0.0,
			"0.025": 0.0
		}
	}
}
