{
	 "smiles": "CCOC(=O)C1=CC=C(NC(=O)C(F)(F)C(F)(F)C(F)(F)C(F)(F)C(F)(F)C(F)(F)C(F)(F)C(F)(F)F)C=C1", 
	 "Tm": 409.15, 
	 "num_atms": 49, 
	 "gaussian": { 
		 "optdone": 1, 
		 "sigma_profile": "yes", 
		 "theory": "DFT", 
		 "functional": "B3LYP", 
		 "basiset": "6-31G**", 
		 "properties": { 
			 "R2extent": 32932.8691, 
			 "electric_dipole_moment_norm": 4.35535435642, 
			 "electric_quadrupole_moment_norm": 19.3113071466, 
			 "total_energy": -2669.61164602, 
			 "HOMO_LUMO_gap": 0.18289, 
			 "cosmo_polarized_energy": -13.9, 
			 "cosmo_cavitation_energy": 59.63, 
			 "cosmo_dispersion_energy": -39.45, 
			 "cosmo_repulsion_energy": 2.63, 
			 "cosmo_total_nonelectrostatic_energy": 22.81, 
			 "SMD_solvation_energy": 16.47 
		},
		"coords": [
			{
				"x": 4.7262394363,
				"y": -7.0107685089,
				"z": -2.5940827252,
				"element": "C" 
			},
			{
				"x": 4.352699679,
				"y": -5.6334379302,
				"z": -3.1212415382,
				"element": "C" 
			},
			{
				"x": 3.195345809,
				"y": -5.1014388555,
				"z": -2.4333612915,
				"element": "O" 
			},
			{
				"x": 3.4311829976,
				"y": -4.4532045891,
				"z": -1.2690458187,
				"element": "C" 
			},
			{
				"x": 4.5411881259,
				"y": -4.2985683811,
				"z": -0.7953997458,
				"element": "O" 
			},
			{
				"x": 2.1787083773,
				"y": -3.9488404747,
				"z": -0.6411927445,
				"element": "C" 
			},
			{
				"x": 0.9137315601,
				"y": -4.1478150382,
				"z": -1.2118902776,
				"element": "C" 
			},
			{
				"x": -0.219905709,
				"y": -3.6544337001,
				"z": -0.5807008937,
				"element": "C" 
			},
			{
				"x": -0.1089921853,
				"y": -2.9538204169,
				"z": 0.631426205,
				"element": "C" 
			},
			{
				"x": -1.3063315758,
				"y": -2.4802536189,
				"z": 1.2079148531,
				"element": "N" 
			},
			{
				"x": -1.4704366077,
				"y": -1.7947663898,
				"z": 2.3739004589,
				"element": "C" 
			},
			{
				"x": -0.6118924557,
				"y": -1.4527445918,
				"z": 3.1654679421,
				"element": "O" 
			},
			{
				"x": -2.9525092357,
				"y": -1.4197393957,
				"z": 2.6507452878,
				"element": "C" 
			},
			{
				"x": -3.7915702483,
				"y": -2.2927753654,
				"z": 2.0001248565,
				"element": "F" 
			},
			{
				"x": -3.1956544763,
				"y": -1.506719833,
				"z": 3.969933547,
				"element": "F" 
			},
			{
				"x": -3.3729996733,
				"y": -0.0109216835,
				"z": 2.141151907,
				"element": "C" 
			},
			{
				"x": -3.2614839983,
				"y": -0.0368591675,
				"z": 0.7857302271,
				"element": "F" 
			},
			{
				"x": -4.6697073668,
				"y": 0.1739452572,
				"z": 2.4767493191,
				"element": "F" 
			},
			{
				"x": -2.5327688928,
				"y": 1.1796453735,
				"z": 2.6716595239,
				"element": "C" 
			},
			{
				"x": -1.3383304914,
				"y": 1.1648727561,
				"z": 2.0367823035,
				"element": "F" 
			},
			{
				"x": -2.3353118475,
				"y": 1.0135804027,
				"z": 3.9983143407,
				"element": "F" 
			},
			{
				"x": -3.1393258562,
				"y": 2.6165933867,
				"z": 2.5250269923,
				"element": "C" 
			},
			{
				"x": -4.2348074586,
				"y": 2.7050829025,
				"z": 3.3075227159,
				"element": "F" 
			},
			{
				"x": -2.184978478,
				"y": 3.4499048115,
				"z": 3.0061960191,
				"element": "F" 
			},
			{
				"x": -3.5126082337,
				"y": 3.0773443771,
				"z": 1.0940763302,
				"element": "C" 
			},
			{
				"x": -4.5218502097,
				"y": 2.2831761443,
				"z": 0.6590737395,
				"element": "F" 
			},
			{
				"x": -2.4441720604,
				"y": 2.9130280651,
				"z": 0.2792657623,
				"element": "F" 
			},
			{
				"x": -4.0439451561,
				"y": 4.5353062145,
				"z": 0.9199371698,
				"element": "C" 
			},
			{
				"x": -4.3891736993,
				"y": 4.6345573213,
				"z": -0.3855828014,
				"element": "F" 
			},
			{
				"x": -5.1561266569,
				"y": 4.660724826,
				"z": 1.6796391605,
				"element": "F" 
			},
			{
				"x": -3.1514123122,
				"y": 5.7701736416,
				"z": 1.2472021961,
				"element": "C" 
			},
			{
				"x": -3.8507393503,
				"y": 6.8453582981,
				"z": 0.8113482091,
				"element": "F" 
			},
			{
				"x": -2.9989298938,
				"y": 5.8698312052,
				"z": 2.5847497591,
				"element": "F" 
			},
			{
				"x": -1.7522348358,
				"y": 5.8446665357,
				"z": 0.5869915382,
				"element": "C" 
			},
			{
				"x": -1.2517905296,
				"y": 7.0700915153,
				"z": 0.7780688324,
				"element": "F" 
			},
			{
				"x": -1.8432103428,
				"y": 5.6114393147,
				"z": -0.7282918188,
				"element": "F" 
			},
			{
				"x": -0.9202094036,
				"y": 4.9515085719,
				"z": 1.1352879767,
				"element": "F" 
			},
			{
				"x": 1.1530250492,
				"y": -2.7497916369,
				"z": 1.211351628,
				"element": "C" 
			},
			{
				"x": 2.2801971326,
				"y": -3.2496267728,
				"z": 0.5680750954,
				"element": "C" 
			},
			{
				"x": 5.0441461863,
				"y": -6.9487445918,
				"z": -1.5506194466,
				"element": "H" 
			},
			{
				"x": 5.554693605,
				"y": -7.4202994625,
				"z": -3.1816526058,
				"element": "H" 
			},
			{
				"x": 3.8796749469,
				"y": -7.6998465539,
				"z": -2.6675148105,
				"element": "H" 
			},
			{
				"x": 5.1814671423,
				"y": -4.9306129364,
				"z": -3.0091218313,
				"element": "H" 
			},
			{
				"x": 4.0489478777,
				"y": -5.6740530905,
				"z": -4.1700651059,
				"element": "H" 
			},
			{
				"x": 0.8250198028,
				"y": -4.6879724412,
				"z": -2.1469727134,
				"element": "H" 
			},
			{
				"x": -1.1992488993,
				"y": -3.8095234232,
				"z": -1.027103426,
				"element": "H" 
			},
			{
				"x": -2.1568549611,
				"y": -2.7059471842,
				"z": 0.7098997071,
				"element": "H" 
			},
			{
				"x": 1.2355070446,
				"y": -2.2126530674,
				"z": 2.1454529895,
				"element": "H" 
			},
			{
				"x": 3.2650383286,
				"y": -3.1035518197,
				"z": 0.998473002,
				"element": "H" 
			}
		],
		 "valence_orbital": [ 
			{
				"type": "occ",
				"energy": -0.30147,
				"method": "rhf"
			},
			{
				"type": "occ",
				"energy": -0.29157,
				"method": "rhf"
			},
			{
				"type": "occ",
				"energy": -0.27629,
				"method": "rhf"
			},
			{
				"type": "occ",
				"energy": -0.27154,
				"method": "rhf"
			},
			{
				"type": "occ",
				"energy": -0.24711,
				"method": "rhf"
			},
			{
				"type": "unocc",
				"energy": -0.06422,
				"method": "rhf"
			},
			{
				"type": "unocc",
				"energy": -0.02049,
				"method": "rhf"
			},
			{
				"type": "unocc",
				"energy": -0.01793,
				"method": "rhf"
			},
			{
				"type": "unocc",
				"energy": 0.00824,
				"method": "rhf"
			},
			{
				"type": "unocc",
				"energy": 0.01375,
				"method": "rhf"
			}
		],
		"cosmo_sigma_profile": { 
			"-0.025": 0.0,
			"-0.024": 0.0,
			"-0.023": 0.0,
			"-0.022": 0.0,
			"-0.021": 0.0,
			"-0.02": 0.0,
			"-0.019": 0.0,
			"-0.018": 0.0,
			"-0.017": 0.0596468463064,
			"-0.016": 0.921698796849,
			"-0.015": 0.927953621448,
			"-0.014": 1.08781589209,
			"-0.013": 0.745438617519,
			"-0.012": 1.21125949607,
			"-0.011": 1.21902348611,
			"-0.01": 1.13986279667,
			"-0.009": 2.3572166243,
			"-0.008": 2.41446987777,
			"-0.007": 3.49808590012,
			"-0.006": 8.07575426486,
			"-0.005": 13.0946662104,
			"-0.004": 19.8094003788,
			"-0.003": 24.3786865539,
			"-0.002": 34.1646510518,
			"-0.001": 47.0919762373,
			"0.0": 101.914397455,
			"0.001": 123.93926276,
			"0.002": 32.2299331091,
			"0.003": 17.3561311385,
			"0.004": 5.98017444964,
			"0.005": 6.56778183001,
			"0.006": 4.93991847325,
			"0.007": 4.38048169438,
			"0.008": 3.35005470385,
			"0.009": 3.83561496249,
			"0.01": 4.23120502481,
			"0.011": 3.34147340481,
			"0.012": 3.74932157628,
			"0.013": 0.130640275004,
			"0.014": 0.0,
			"0.015": 0.0,
			"0.016": 0.0,
			"0.017": 0.0,
			"0.018": 0.0,
			"0.019": 0.0,
			"0.02": 0.0,
			"0.021": 0.0,
			"0.022": 0.0,
			"0.023": 0.0,
			"0.024": 0.0,
			"0.025": 0.0
		}
	}
}
