{
	 "smiles": "NN1C(S)=NN=C1C1CCOC1", 
	 "Tm": 390.15, 
	 "num_atms": 22, 
	 "gaussian": { 
		 "optdone": 1, 
		 "sigma_profile": "yes", 
		 "theory": "DFT", 
		 "functional": "B3LYP", 
		 "basiset": "6-31G**", 
		 "properties": { 
			 "R2extent": 3943.6284, 
			 "electric_dipole_moment_norm": 3.93062836071, 
			 "electric_quadrupole_moment_norm": 16.3438773671, 
			 "total_energy": -927.004890634, 
			 "HOMO_LUMO_gap": 0.22787, 
			 "cosmo_polarized_energy": -19.74, 
			 "cosmo_cavitation_energy": 26.98, 
			 "cosmo_dispersion_energy": -20.39, 
			 "cosmo_repulsion_energy": 1.6, 
			 "cosmo_total_nonelectrostatic_energy": 8.2, 
			 "SMD_solvation_energy": 2.62 
		},
		"coords": [
			{
				"x": -2.3209422782,
				"y": 1.3432435321,
				"z": 2.1777295759,
				"element": "N" 
			},
			{
				"x": -2.5857937802,
				"y": 0.5922085389,
				"z": 1.028892485,
				"element": "N" 
			},
			{
				"x": -3.7340147595,
				"y": 0.5271177686,
				"z": 0.2737670576,
				"element": "C" 
			},
			{
				"x": -5.160175751,
				"y": 1.480564898,
				"z": 0.6937895328,
				"element": "S" 
			},
			{
				"x": -3.5837645987,
				"y": -0.3034204069,
				"z": -0.7239354614,
				"element": "N" 
			},
			{
				"x": -2.2913082484,
				"y": -0.8131640953,
				"z": -0.6317216371,
				"element": "N" 
			},
			{
				"x": -1.706382672,
				"y": -0.2776666786,
				"z": 0.4114605132,
				"element": "C" 
			},
			{
				"x": -0.3071962903,
				"y": -0.4992721563,
				"z": 0.8826072001,
				"element": "C" 
			},
			{
				"x": 0.3544306668,
				"y": -1.7788020896,
				"z": 0.3105010861,
				"element": "C" 
			},
			{
				"x": 1.8086517489,
				"y": -1.3346210175,
				"z": 0.0075754367,
				"element": "C" 
			},
			{
				"x": 1.9598637135,
				"y": -0.018185838,
				"z": 0.5448918353,
				"element": "O" 
			},
			{
				"x": 0.6920102143,
				"y": 0.6009432544,
				"z": 0.4432508381,
				"element": "C" 
			},
			{
				"x": -2.4198059216,
				"y": 2.3337664157,
				"z": 1.9666485325,
				"element": "H" 
			},
			{
				"x": -2.9823813334,
				"y": 1.0906058382,
				"z": 2.9087140455,
				"element": "H" 
			},
			{
				"x": -5.8723060576,
				"y": 1.0099930875,
				"z": -0.3468520597,
				"element": "H" 
			},
			{
				"x": -0.307165273,
				"y": -0.5249415673,
				"z": 1.9768444937,
				"element": "H" 
			},
			{
				"x": -0.1652062266,
				"y": -2.1029473906,
				"z": -0.5931411696,
				"element": "H" 
			},
			{
				"x": 0.3136997984,
				"y": -2.5966334601,
				"z": 1.0341985916,
				"element": "H" 
			},
			{
				"x": 2.5668643441,
				"y": -1.9684733885,
				"z": 0.4753738657,
				"element": "H" 
			},
			{
				"x": 1.9911968647,
				"y": -1.3228109987,
				"z": -1.0774729652,
				"element": "H" 
			},
			{
				"x": 0.4763746065,
				"y": 0.9139393802,
				"z": -0.5924313166,
				"element": "H" 
			},
			{
				"x": 0.6839512336,
				"y": 1.4808563737,
				"z": 1.0915095199,
				"element": "H" 
			}
		],
		 "valence_orbital": [ 
			{
				"type": "occ",
				"energy": -0.30325,
				"method": "rhf"
			},
			{
				"type": "occ",
				"energy": -0.29818,
				"method": "rhf"
			},
			{
				"type": "occ",
				"energy": -0.25375,
				"method": "rhf"
			},
			{
				"type": "occ",
				"energy": -0.25331,
				"method": "rhf"
			},
			{
				"type": "occ",
				"energy": -0.23343,
				"method": "rhf"
			},
			{
				"type": "unocc",
				"energy": -0.00556,
				"method": "rhf"
			},
			{
				"type": "unocc",
				"energy": 0.01182,
				"method": "rhf"
			},
			{
				"type": "unocc",
				"energy": 0.03888,
				"method": "rhf"
			},
			{
				"type": "unocc",
				"energy": 0.04278,
				"method": "rhf"
			},
			{
				"type": "unocc",
				"energy": 0.06781,
				"method": "rhf"
			}
		],
		"cosmo_sigma_profile": { 
			"-0.025": 0.0,
			"-0.024": 0.0,
			"-0.023": 0.0,
			"-0.022": 0.0,
			"-0.021": 0.0,
			"-0.02": 0.0,
			"-0.019": 0.0,
			"-0.018": 0.0,
			"-0.017": 0.0,
			"-0.016": 0.0,
			"-0.015": 0.0,
			"-0.014": 1.52317374208,
			"-0.013": 3.85092785471,
			"-0.012": 4.80131533985,
			"-0.011": 4.29525741523,
			"-0.01": 4.57127789557,
			"-0.009": 3.28319947199,
			"-0.008": 3.53833852783,
			"-0.007": 3.53438401571,
			"-0.006": 3.35432361028,
			"-0.005": 7.07504577781,
			"-0.004": 19.3660750698,
			"-0.003": 26.5662823038,
			"-0.002": 19.3730297082,
			"-0.001": 14.2528346765,
			"0.0": 10.9775997052,
			"0.001": 9.95695922852,
			"0.002": 10.166179371,
			"0.003": 6.94106314276,
			"0.004": 7.18176016992,
			"0.005": 7.47215826012,
			"0.006": 6.01375858134,
			"0.007": 4.48048582053,
			"0.008": 3.47037535238,
			"0.009": 2.85167710278,
			"0.01": 4.38708814614,
			"0.011": 3.9659888226,
			"0.012": 3.47354494136,
			"0.013": 5.40745908139,
			"0.014": 4.23812200566,
			"0.015": 2.74904665815,
			"0.016": 1.63572639529,
			"0.017": 0.307198948477,
			"0.018": 0.0,
			"0.019": 0.0,
			"0.02": 0.0,
			"0.021": 0.0,
			"0.022": 0.0,
			"0.023": 0.0,
			"0.024": 0.0,
			"0.025": 0.0
		}
	}
}
