{
	 "smiles": "COC(=O)C1=C(O)C(Br)=CS1", 
	 "Tm": 353.15, 
	 "num_atms": 16, 
	 "gaussian": { 
		 "optdone": 1, 
		 "sigma_profile": "yes", 
		 "theory": "DFT", 
		 "functional": "B3LYP", 
		 "basiset": "6-31G**", 
		 "properties": { 
			 "R2extent": 3933.2772, 
			 "electric_dipole_moment_norm": 1.57407156127, 
			 "electric_quadrupole_moment_norm": 18.6169162001, 
			 "total_energy": -3426.90456235, 
			 "HOMO_LUMO_gap": 0.1796, 
			 "cosmo_polarized_energy": -9.49, 
			 "cosmo_cavitation_energy": 24.74, 
			 "cosmo_dispersion_energy": -19.38, 
			 "cosmo_repulsion_energy": 1.52, 
			 "cosmo_total_nonelectrostatic_energy": 6.87, 
			 "SMD_solvation_energy": 5.07 
		},
		"coords": [
			{
				"x": 2.1810468006,
				"y": -3.7673815451,
				"z": 0.7781538407,
				"element": "C" 
			},
			{
				"x": 1.3688365445,
				"y": -2.6068942751,
				"z": 1.0404643981,
				"element": "O" 
			},
			{
				"x": 1.1248843444,
				"y": -1.8017570816,
				"z": -0.0482801062,
				"element": "C" 
			},
			{
				"x": 1.5608823378,
				"y": -2.0457689196,
				"z": -1.1545126976,
				"element": "O" 
			},
			{
				"x": 0.3001288543,
				"y": -0.6627423654,
				"z": 0.31942142,
				"element": "C" 
			},
			{
				"x": -0.2227356346,
				"y": -0.3374514152,
				"z": 1.5637156337,
				"element": "C" 
			},
			{
				"x": -0.0698058517,
				"y": -1.0224920974,
				"z": 2.7041455208,
				"element": "O" 
			},
			{
				"x": -0.9878067876,
				"y": 0.8709721057,
				"z": 1.5161489456,
				"element": "C" 
			},
			{
				"x": -1.8388989662,
				"y": 1.5961719665,
				"z": 3.0392867551,
				"element": "Br" 
			},
			{
				"x": -1.0321044629,
				"y": 1.4285643081,
				"z": 0.26993848,
				"element": "C" 
			},
			{
				"x": -0.1480182878,
				"y": 0.5112813179,
				"z": -0.8971083863,
				"element": "S" 
			},
			{
				"x": 3.1629836003,
				"y": -3.4673995397,
				"z": 0.4061914772,
				"element": "H" 
			},
			{
				"x": 1.6985815815,
				"y": -4.4090137524,
				"z": 0.0378256479,
				"element": "H" 
			},
			{
				"x": 2.2728996987,
				"y": -4.2838664436,
				"z": 1.7332281184,
				"element": "H" 
			},
			{
				"x": 0.4819997455,
				"y": -1.8012696597,
				"z": 2.5015543163,
				"element": "H" 
			},
			{
				"x": -1.5425735169,
				"y": 2.3357473966,
				"z": -0.0193733638,
				"element": "H" 
			}
		],
		 "valence_orbital": [ 
			{
				"type": "occ",
				"energy": -0.31724,
				"method": "rhf"
			},
			{
				"type": "occ",
				"energy": -0.29547,
				"method": "rhf"
			},
			{
				"type": "occ",
				"energy": -0.28956,
				"method": "rhf"
			},
			{
				"type": "occ",
				"energy": -0.24703,
				"method": "rhf"
			},
			{
				"type": "occ",
				"energy": -0.2382,
				"method": "rhf"
			},
			{
				"type": "unocc",
				"energy": -0.0586,
				"method": "rhf"
			},
			{
				"type": "unocc",
				"energy": -0.00365,
				"method": "rhf"
			},
			{
				"type": "unocc",
				"energy": 0.01836,
				"method": "rhf"
			},
			{
				"type": "unocc",
				"energy": 0.02164,
				"method": "rhf"
			},
			{
				"type": "unocc",
				"energy": 0.07519,
				"method": "rhf"
			}
		],
		"cosmo_sigma_profile": { 
			"-0.025": 0.0,
			"-0.024": 0.0,
			"-0.023": 0.0,
			"-0.022": 0.0,
			"-0.021": 0.0,
			"-0.02": 0.0,
			"-0.019": 0.0,
			"-0.018": 0.0,
			"-0.017": 0.0,
			"-0.016": 0.0,
			"-0.015": 0.0,
			"-0.014": 0.0,
			"-0.013": 0.0873848417342,
			"-0.012": 0.438062161827,
			"-0.011": 1.43369573724,
			"-0.01": 2.55023096111,
			"-0.009": 2.71822879321,
			"-0.008": 2.63101736264,
			"-0.007": 5.1854654511,
			"-0.006": 9.0961727091,
			"-0.005": 13.3632754493,
			"-0.004": 14.0786158334,
			"-0.003": 13.0996775186,
			"-0.002": 12.0793500932,
			"-0.001": 14.2015246276,
			"0.0": 19.5631277571,
			"0.001": 22.0897635965,
			"0.002": 16.9169379924,
			"0.003": 13.4109886707,
			"0.004": 12.4508740887,
			"0.005": 4.80989784474,
			"0.006": 3.05712230887,
			"0.007": 3.84109817337,
			"0.008": 3.68575254979,
			"0.009": 3.49712755175,
			"0.01": 3.10989037598,
			"0.011": 4.46330983152,
			"0.012": 2.26668502839,
			"0.013": 0.0,
			"0.014": 0.0,
			"0.015": 0.0,
			"0.016": 0.0,
			"0.017": 0.0,
			"0.018": 0.0,
			"0.019": 0.0,
			"0.02": 0.0,
			"0.021": 0.0,
			"0.022": 0.0,
			"0.023": 0.0,
			"0.024": 0.0,
			"0.025": 0.0
		}
	}
}
