{
	 "smiles": "FC(F)(F)C(F)(F)C(F)(F)C(F)(F)C(F)(F)C(F)(F)C(F)(F)C(F)(F)C(F)(F)C(F)(F)CCI", 
	 "Tm": 355.65, 
	 "num_atms": 38, 
	 "gaussian": { 
		 "optdone": 1, 
		 "sigma_profile": "no", 
		 "theory": "DFT", 
		 "functional": "B3LYP", 
		 "basiset": "6-31G**", 
		 "properties": { 
			 "R2extent": 15351.6875, 
			 "electric_dipole_moment_norm": 0.245893066189, 
			 "electric_quadrupole_moment_norm": 3.55741988806, 
			 "total_energy": -2567.64283325, 
			 "HOMO_LUMO_gap": 0.21346, 
			 "cosmo_polarized_energy": -103272.95, 
			 "cosmo_cavitation_energy": 50.65, 
			 "cosmo_dispersion_energy": -34.29, 
			 "cosmo_repulsion_energy": 2.21, 
			 "cosmo_total_nonelectrostatic_energy": 18.57, 
			 "SMD_solvation_energy": 13.39 
		},
		"coords": [
			{
				"x": -2.5620301796,
				"y": -0.3669636602,
				"z": 3.3934199125,
				"element": "F" 
			},
			{
				"x": -3.6849769348,
				"y": -0.2367380044,
				"z": 2.6771141126,
				"element": "C" 
			},
			{
				"x": -3.7197424397,
				"y": -1.1897263808,
				"z": 1.7363232169,
				"element": "F" 
			},
			{
				"x": -4.7382200633,
				"y": -0.3936812769,
				"z": 3.4857840974,
				"element": "F" 
			},
			{
				"x": -3.7572567896,
				"y": 1.1663909409,
				"z": 2.0273643995,
				"element": "C" 
			},
			{
				"x": -3.9291777756,
				"y": 2.0626283036,
				"z": 3.0269850959,
				"element": "F" 
			},
			{
				"x": -4.8361025168,
				"y": 1.2003401299,
				"z": 1.2171997998,
				"element": "F" 
			},
			{
				"x": -2.5064485354,
				"y": 1.6534374459,
				"z": 1.2312870684,
				"element": "C" 
			},
			{
				"x": -2.8395698559,
				"y": 2.8604178988,
				"z": 0.7177406298,
				"element": "F" 
			},
			{
				"x": -1.4929422798,
				"y": 1.8097104682,
				"z": 2.1110419165,
				"element": "F" 
			},
			{
				"x": -2.0247885223,
				"y": 0.7311281466,
				"z": 0.0781029938,
				"element": "C" 
			},
			{
				"x": -3.1120927191,
				"y": 0.2931694413,
				"z": -0.6009973173,
				"element": "F" 
			},
			{
				"x": -1.3930834585,
				"y": -0.3342802563,
				"z": 0.6235941885,
				"element": "F" 
			},
			{
				"x": -1.0921141733,
				"y": 1.3586222491,
				"z": -1.0059371263,
				"element": "C" 
			},
			{
				"x": -0.8033030792,
				"y": 0.358179415,
				"z": -1.8749945218,
				"element": "F" 
			},
			{
				"x": -1.8048591323,
				"y": 2.301601265,
				"z": -1.6600024261,
				"element": "F" 
			},
			{
				"x": 0.2485915046,
				"y": 2.032887023,
				"z": -0.5975887655,
				"element": "C" 
			},
			{
				"x": 0.7737215871,
				"y": 2.5430226031,
				"z": -1.7338965406,
				"element": "F" 
			},
			{
				"x": -0.0430372726,
				"y": 3.0584351204,
				"z": 0.2390443698,
				"element": "F" 
			},
			{
				"x": 1.3670578097,
				"y": 1.200803234,
				"z": 0.1076634439,
				"element": "C" 
			},
			{
				"x": 2.3992804076,
				"y": 2.0636388885,
				"z": 0.2700693588,
				"element": "F" 
			},
			{
				"x": 0.9173158703,
				"y": 0.8212381969,
				"z": 1.3225226762,
				"element": "F" 
			},
			{
				"x": 1.9004980707,
				"y": -0.0590260425,
				"z": -0.6367961296,
				"element": "C" 
			},
			{
				"x": 2.0143012363,
				"y": 0.2150656174,
				"z": -1.961477482,
				"element": "F" 
			},
			{
				"x": 1.0006250276,
				"y": -1.0584769781,
				"z": -0.4786668593,
				"element": "F" 
			},
			{
				"x": 3.2911828904,
				"y": -0.540453325,
				"z": -0.1314327499,
				"element": "C" 
			},
			{
				"x": 3.309632631,
				"y": -0.4657680633,
				"z": 1.2203405314,
				"element": "F" 
			},
			{
				"x": 4.2312023132,
				"y": 0.2972183272,
				"z": -0.6344826516,
				"element": "F" 
			},
			{
				"x": 3.6839988659,
				"y": -1.9902272536,
				"z": -0.536306036,
				"element": "C" 
			},
			{
				"x": 4.9431338574,
				"y": -2.1694544349,
				"z": -0.0333760148,
				"element": "F" 
			},
			{
				"x": 2.8599870748,
				"y": -2.8493089259,
				"z": 0.1289550568,
				"element": "F" 
			},
			{
				"x": 3.6778749264,
				"y": -2.2863347732,
				"z": -2.0302374645,
				"element": "C" 
			},
			{
				"x": 4.2064170572,
				"y": -3.6925588864,
				"z": -2.2970182174,
				"element": "C" 
			},
			{
				"x": 4.1856548651,
				"y": -4.1633044203,
				"z": -4.4197471137,
				"element": "I" 
			},
			{
				"x": 4.2938667444,
				"y": -1.5348446705,
				"z": -2.5302175862,
				"element": "H" 
			},
			{
				"x": 2.6566637735,
				"y": -2.1813381833,
				"z": -2.4022526924,
				"element": "H" 
			},
			{
				"x": 5.2411080289,
				"y": -3.8068510442,
				"z": -1.9815967095,
				"element": "H" 
			},
			{
				"x": 3.5909311859,
				"y": -4.4545981351,
				"z": -1.8228284637,
				"element": "H" 
			}
		],
		 "valence_orbital": [ 
			{
				"type": "occ",
				"energy": -0.36166,
				"method": "rhf"
			},
			{
				"type": "occ",
				"energy": -0.35646,
				"method": "rhf"
			},
			{
				"type": "occ",
				"energy": -0.34259,
				"method": "rhf"
			},
			{
				"type": "occ",
				"energy": -0.27221,
				"method": "rhf"
			},
			{
				"type": "occ",
				"energy": -0.27078,
				"method": "rhf"
			},
			{
				"type": "unocc",
				"energy": -0.05732,
				"method": "rhf"
			},
			{
				"type": "unocc",
				"energy": -0.00032,
				"method": "rhf"
			},
			{
				"type": "unocc",
				"energy": 0.00479,
				"method": "rhf"
			},
			{
				"type": "unocc",
				"energy": 0.02236,
				"method": "rhf"
			},
			{
				"type": "unocc",
				"energy": 0.02602,
				"method": "rhf"
			}
		],
		"cosmo_sigma_profile": { 
			"0.0": 0.0,
			"0.0": 0.0,
			"0.0": 0.0,
			"0.0": 0.0,
			"0.0": 0.0,
			"0.0": 0.0,
			"0.0": 0.0,
			"0.0": 0.0,
			"0.0": 0.0,
			"0.0": 0.0,
			"0.0": 0.0,
			"0.0": 0.0,
			"0.0": 0.0,
			"0.0": 0.0,
			"0.0": 0.0,
			"0.0": 0.0,
			"0.0": 0.0,
			"0.0": 0.0,
			"0.0": 0.0,
			"0.0": 0.0,
			"0.0": 0.0,
			"0.0": 0.0,
			"0.0": 0.0,
			"0.0": 0.0,
			"0.0": 0.0,
			"0.0": 0.0,
			"0.0": 0.0,
			"0.0": 0.0,
			"0.0": 0.0,
			"0.0": 0.0,
			"0.0": 0.0,
			"0.0": 0.0,
			"0.0": 0.0,
			"0.0": 0.0,
			"0.0": 0.0,
			"0.0": 0.0,
			"0.0": 0.0,
			"0.0": 0.0,
			"0.0": 0.0,
			"0.0": 0.0,
			"0.0": 0.0,
			"0.0": 0.0,
			"0.0": 0.0,
			"0.0": 0.0,
			"0.0": 0.0,
			"0.0": 0.0,
			"0.0": 0.0,
			"0.0": 0.0,
			"0.0": 0.0,
			"0.0": 0.0,
			"0.0": 0.0
		}
	}
}
