{
	 "smiles": "CC(C)(C)OC(=O)N1C=CN=C1", 
	 "Tm": 319.15, 
	 "num_atms": 24, 
	 "gaussian": { 
		 "optdone": 1, 
		 "sigma_profile": "yes", 
		 "theory": "DFT", 
		 "functional": "B3LYP", 
		 "basiset": "6-31G**", 
		 "properties": { 
			 "R2extent": 2814.5346, 
			 "electric_dipole_moment_norm": 4.6491811892, 
			 "electric_quadrupole_moment_norm": 11.5555901874, 
			 "total_energy": -572.052432549, 
			 "HOMO_LUMO_gap": 0.21095, 
			 "cosmo_polarized_energy": -9.44, 
			 "cosmo_cavitation_energy": 27.32, 
			 "cosmo_dispersion_energy": -19.28, 
			 "cosmo_repulsion_energy": 1.52, 
			 "cosmo_total_nonelectrostatic_energy": 9.55, 
			 "SMD_solvation_energy": 5.26 
		},
		"coords": [
			{
				"x": -0.7716442294,
				"y": -1.8292794627,
				"z": -0.0580796593,
				"element": "C" 
			},
			{
				"x": 0.3104551113,
				"y": -0.9033552018,
				"z": 0.5029072781,
				"element": "C" 
			},
			{
				"x": 1.7085708889,
				"y": -1.4570038716,
				"z": 0.2243253227,
				"element": "C" 
			},
			{
				"x": 0.1201507197,
				"y": -0.6092311224,
				"z": 1.9929545473,
				"element": "C" 
			},
			{
				"x": 0.3181928798,
				"y": 0.371583039,
				"z": -0.2588746609,
				"element": "O" 
			},
			{
				"x": -0.7499368027,
				"y": 1.1719026117,
				"z": -0.2698394741,
				"element": "C" 
			},
			{
				"x": -1.8128615357,
				"y": 1.0104251293,
				"z": 0.2894706783,
				"element": "O" 
			},
			{
				"x": -0.4876474802,
				"y": 2.3090792416,
				"z": -1.0611578654,
				"element": "N" 
			},
			{
				"x": 0.6665720455,
				"y": 2.6489156844,
				"z": -1.7665069322,
				"element": "C" 
			},
			{
				"x": 0.3839493811,
				"y": 3.8459914403,
				"z": -2.3561206937,
				"element": "C" 
			},
			{
				"x": -0.9028518939,
				"y": 4.2658036117,
				"z": -2.0453636094,
				"element": "N" 
			},
			{
				"x": -1.3953907923,
				"y": 3.3338336398,
				"z": -1.2758161608,
				"element": "C" 
			},
			{
				"x": -1.7692535615,
				"y": -1.4275514293,
				"z": 0.1215713774,
				"element": "H" 
			},
			{
				"x": -0.6959339323,
				"y": -2.8081267798,
				"z": 0.4257488846,
				"element": "H" 
			},
			{
				"x": -0.6326517327,
				"y": -1.9715665313,
				"z": -1.1341719441,
				"element": "H" 
			},
			{
				"x": 1.8561124879,
				"y": -1.6166449133,
				"z": -0.8475607602,
				"element": "H" 
			},
			{
				"x": 1.8378318962,
				"y": -2.4142071972,
				"z": 0.7374776124,
				"element": "H" 
			},
			{
				"x": 2.4776189688,
				"y": -0.7664161818,
				"z": 0.5818869171,
				"element": "H" 
			},
			{
				"x": 0.8793024873,
				"y": 0.0968713131,
				"z": 2.3431666375,
				"element": "H" 
			},
			{
				"x": 0.2327483677,
				"y": -1.5375806191,
				"z": 2.5616854546,
				"element": "H" 
			},
			{
				"x": -0.8689201327,
				"y": -0.1957993092,
				"z": 2.1921895841,
				"element": "H" 
			},
			{
				"x": 1.5347455027,
				"y": 2.0122989922,
				"z": -1.7657995132,
				"element": "H" 
			},
			{
				"x": 1.0276227979,
				"y": 4.4397242851,
				"z": -2.9901457189,
				"element": "H" 
			},
			{
				"x": -2.3786814414,
				"y": 3.3055336313,
				"z": -0.8305473018,
				"element": "H" 
			}
		],
		 "valence_orbital": [ 
			{
				"type": "occ",
				"energy": -0.31531,
				"method": "rhf"
			},
			{
				"type": "occ",
				"energy": -0.29499,
				"method": "rhf"
			},
			{
				"type": "occ",
				"energy": -0.28759,
				"method": "rhf"
			},
			{
				"type": "occ",
				"energy": -0.2717,
				"method": "rhf"
			},
			{
				"type": "occ",
				"energy": -0.23744,
				"method": "rhf"
			},
			{
				"type": "unocc",
				"energy": -0.02649,
				"method": "rhf"
			},
			{
				"type": "unocc",
				"energy": 0.0645,
				"method": "rhf"
			},
			{
				"type": "unocc",
				"energy": 0.06966,
				"method": "rhf"
			},
			{
				"type": "unocc",
				"energy": 0.07211,
				"method": "rhf"
			},
			{
				"type": "unocc",
				"energy": 0.08352,
				"method": "rhf"
			}
		],
		"cosmo_sigma_profile": { 
			"-0.025": 0.0,
			"-0.024": 0.0,
			"-0.023": 0.0,
			"-0.022": 0.0,
			"-0.021": 0.0,
			"-0.02": 0.0,
			"-0.019": 0.0,
			"-0.018": 0.0,
			"-0.017": 0.0,
			"-0.016": 0.0,
			"-0.015": 0.0,
			"-0.014": 0.0,
			"-0.013": 0.0,
			"-0.012": 0.0,
			"-0.011": 0.0,
			"-0.01": 0.0835125333524,
			"-0.009": 1.48123782536,
			"-0.008": 2.34941231994,
			"-0.007": 3.88921987026,
			"-0.006": 3.60713215226,
			"-0.005": 10.2488110543,
			"-0.004": 21.5798905429,
			"-0.003": 21.9654036312,
			"-0.002": 25.108900544,
			"-0.001": 26.1430853406,
			"0.0": 29.9676582834,
			"0.001": 14.3693955621,
			"0.002": 8.9073756368,
			"0.003": 8.80555993869,
			"0.004": 7.27815434513,
			"0.005": 5.03714491046,
			"0.006": 3.20324031781,
			"0.007": 2.41191829893,
			"0.008": 3.29306787539,
			"0.009": 3.19832779337,
			"0.01": 3.33591138343,
			"0.011": 3.33618330079,
			"0.012": 1.11237467158,
			"0.013": 1.21695828827,
			"0.014": 1.01084090176,
			"0.015": 1.20264574922,
			"0.016": 0.996401553302,
			"0.017": 0.70341547626,
			"0.018": 0.0,
			"0.019": 0.0,
			"0.02": 0.0,
			"0.021": 0.0,
			"0.022": 0.0,
			"0.023": 0.0,
			"0.024": 0.0,
			"0.025": 0.0
		}
	}
}
