{
	 "smiles": "CCCCNC(=O)C(C(F)(F)F)C(F)(F)F", 
	 "Tm": 367.15, 
	 "num_atms": 27, 
	 "gaussian": { 
		 "optdone": 1, 
		 "sigma_profile": "yes", 
		 "theory": "DFT", 
		 "functional": "B3LYP", 
		 "basiset": "6-31G**", 
		 "properties": { 
			 "R2extent": 4124.3209, 
			 "electric_dipole_moment_norm": 3.05750460997, 
			 "electric_quadrupole_moment_norm": 7.52067788567, 
			 "total_energy": -1040.52547708, 
			 "HOMO_LUMO_gap": 0.26153, 
			 "cosmo_polarized_energy": -9.03, 
			 "cosmo_cavitation_energy": 31.72, 
			 "cosmo_dispersion_energy": -21.41, 
			 "cosmo_repulsion_energy": 1.6, 
			 "cosmo_total_nonelectrostatic_energy": 11.9, 
			 "SMD_solvation_energy": 7.35 
		},
		"coords": [
			{
				"x": -3.7256913355,
				"y": 2.8294804219,
				"z": -1.6524395215,
				"element": "C" 
			},
			{
				"x": -2.2251664332,
				"y": 3.0072525332,
				"z": -1.9165669415,
				"element": "C" 
			},
			{
				"x": -1.4484011927,
				"y": 1.696018332,
				"z": -2.1191628177,
				"element": "C" 
			},
			{
				"x": -1.391515258,
				"y": 0.8162841364,
				"z": -0.8609558836,
				"element": "C" 
			},
			{
				"x": -0.6214658457,
				"y": -0.41144025,
				"z": -1.0644339003,
				"element": "N" 
			},
			{
				"x": 0.6580459419,
				"y": -0.762285866,
				"z": -0.761981238,
				"element": "C" 
			},
			{
				"x": 1.1557825984,
				"y": -1.7942671107,
				"z": -1.1918112938,
				"element": "O" 
			},
			{
				"x": 1.5395069843,
				"y": 0.0952490957,
				"z": 0.1924599336,
				"element": "C" 
			},
			{
				"x": 1.9021601938,
				"y": 1.5035761313,
				"z": -0.2882067805,
				"element": "C" 
			},
			{
				"x": 2.011963716,
				"y": 1.517242495,
				"z": -1.6339196713,
				"element": "F" 
			},
			{
				"x": 3.0855020781,
				"y": 1.8856600528,
				"z": 0.2221957997,
				"element": "F" 
			},
			{
				"x": 1.0012626575,
				"y": 2.4511390322,
				"z": 0.0534485386,
				"element": "F" 
			},
			{
				"x": 1.1026696221,
				"y": 0.0456723702,
				"z": 1.6577326661,
				"element": "C" 
			},
			{
				"x": 2.0348025296,
				"y": 0.6089961302,
				"z": 2.4504489499,
				"element": "F" 
			},
			{
				"x": 0.9491992838,
				"y": -1.2344651078,
				"z": 2.0393292938,
				"element": "F" 
			},
			{
				"x": -0.0634247584,
				"y": 0.680696629,
				"z": 1.899204898,
				"element": "F" 
			},
			{
				"x": -4.204837817,
				"y": 2.2656268306,
				"z": -2.4613101496,
				"element": "H" 
			},
			{
				"x": -4.2277506414,
				"y": 3.7997111812,
				"z": -1.5835171607,
				"element": "H" 
			},
			{
				"x": -3.9215746154,
				"y": 2.2969515213,
				"z": -0.7158189801,
				"element": "H" 
			},
			{
				"x": -1.7677357396,
				"y": 3.5699843276,
				"z": -1.0917544956,
				"element": "H" 
			},
			{
				"x": -2.0918079266,
				"y": 3.6253122443,
				"z": -2.8125551557,
				"element": "H" 
			},
			{
				"x": -1.8993004194,
				"y": 1.1227865326,
				"z": -2.9414125864,
				"element": "H" 
			},
			{
				"x": -0.421762774,
				"y": 1.9236204624,
				"z": -2.4246433175,
				"element": "H" 
			},
			{
				"x": -2.3990831464,
				"y": 0.5179510633,
				"z": -0.5520177387,
				"element": "H" 
			},
			{
				"x": -0.9649336444,
				"y": 1.3724516224,
				"z": -0.0309639168,
				"element": "H" 
			},
			{
				"x": -1.0271366291,
				"y": -1.0893234391,
				"z": -1.6997191118,
				"element": "H" 
			},
			{
				"x": 2.4832925715,
				"y": -0.453281372,
				"z": 0.1663705816,
				"element": "H" 
			}
		],
		 "valence_orbital": [ 
			{
				"type": "occ",
				"energy": -0.3498,
				"method": "rhf"
			},
			{
				"type": "occ",
				"energy": -0.34128,
				"method": "rhf"
			},
			{
				"type": "occ",
				"energy": -0.33998,
				"method": "rhf"
			},
			{
				"type": "occ",
				"energy": -0.26956,
				"method": "rhf"
			},
			{
				"type": "occ",
				"energy": -0.26223,
				"method": "rhf"
			},
			{
				"type": "unocc",
				"energy": -0.0007,
				"method": "rhf"
			},
			{
				"type": "unocc",
				"energy": 0.06847,
				"method": "rhf"
			},
			{
				"type": "unocc",
				"energy": 0.08025,
				"method": "rhf"
			},
			{
				"type": "unocc",
				"energy": 0.08478,
				"method": "rhf"
			},
			{
				"type": "unocc",
				"energy": 0.09544,
				"method": "rhf"
			}
		],
		"cosmo_sigma_profile": { 
			"-0.025": 0.0,
			"-0.024": 0.0,
			"-0.023": 0.0,
			"-0.022": 0.0,
			"-0.021": 0.0,
			"-0.02": 0.0,
			"-0.019": 0.0,
			"-0.018": 0.0,
			"-0.017": 0.0,
			"-0.016": 0.0,
			"-0.015": 0.0,
			"-0.014": 0.703603752936,
			"-0.013": 1.11673606241,
			"-0.012": 1.03560668653,
			"-0.011": 2.67915872812,
			"-0.01": 2.44311181801,
			"-0.009": 1.94607325309,
			"-0.008": 2.77840007622,
			"-0.007": 2.64426566828,
			"-0.006": 2.58380090616,
			"-0.005": 4.83909836441,
			"-0.004": 6.91695248379,
			"-0.003": 15.8871358083,
			"-0.002": 24.245960903,
			"-0.001": 29.2093881103,
			"0.0": 36.1955556351,
			"0.001": 43.7844799618,
			"0.002": 47.0489732125,
			"0.003": 4.25238478095,
			"0.004": 1.73676639446,
			"0.005": 0.867215190086,
			"0.006": 1.09789938801,
			"0.007": 0.908936938041,
			"0.008": 1.09231010871,
			"0.009": 1.9147724292,
			"0.01": 1.15702321819,
			"0.011": 1.4728419416,
			"0.012": 4.23647739622,
			"0.013": 4.47010142893,
			"0.014": 0.266140314728,
			"0.015": 0.0,
			"0.016": 0.0,
			"0.017": 0.0,
			"0.018": 0.0,
			"0.019": 0.0,
			"0.02": 0.0,
			"0.021": 0.0,
			"0.022": 0.0,
			"0.023": 0.0,
			"0.024": 0.0,
			"0.025": 0.0
		}
	}
}
