{
	 "smiles": "CCC1=CC=C(C=C1)C1=CSC(NC(=O)C(C)Cl)=N1", 
	 "Tm": 382.15, 
	 "num_atms": 34, 
	 "gaussian": { 
		 "optdone": 1, 
		 "sigma_profile": "yes", 
		 "theory": "DFT", 
		 "functional": "B3LYP", 
		 "basiset": "6-31G**", 
		 "properties": { 
			 "R2extent": 9055.3413, 
			 "electric_dipole_moment_norm": 3.04067823684, 
			 "electric_quadrupole_moment_norm": 18.2018452499, 
			 "total_energy": -1585.65768905, 
			 "HOMO_LUMO_gap": 0.16678, 
			 "cosmo_polarized_energy": -12.84, 
			 "cosmo_cavitation_energy": 41.21, 
			 "cosmo_dispersion_energy": -28.82, 
			 "cosmo_repulsion_energy": 2.19, 
			 "cosmo_total_nonelectrostatic_energy": 14.58, 
			 "SMD_solvation_energy": 6.71 
		},
		"coords": [
			{
				"x": -4.3647922671,
				"y": -2.3950688597,
				"z": 1.4730920372,
				"element": "C" 
			},
			{
				"x": -4.0062832284,
				"y": -0.8988205462,
				"z": 1.4122188095,
				"element": "C" 
			},
			{
				"x": -2.6831707818,
				"y": -0.6394541697,
				"z": 0.7248098569,
				"element": "C" 
			},
			{
				"x": -1.4836334426,
				"y": -0.6117163175,
				"z": 1.448687362,
				"element": "C" 
			},
			{
				"x": -0.2595364953,
				"y": -0.4097573893,
				"z": 0.8159428266,
				"element": "C" 
			},
			{
				"x": -0.1955421208,
				"y": -0.2290306837,
				"z": -0.5745801452,
				"element": "C" 
			},
			{
				"x": -1.3955818053,
				"y": -0.2459790753,
				"z": -1.303517166,
				"element": "C" 
			},
			{
				"x": -2.6141261956,
				"y": -0.4508888099,
				"z": -0.662938619,
				"element": "C" 
			},
			{
				"x": 1.1063592412,
				"y": -0.0344146254,
				"z": -1.2389610611,
				"element": "C" 
			},
			{
				"x": 1.3842331769,
				"y": -0.2934052402,
				"z": -2.5559350654,
				"element": "C" 
			},
			{
				"x": 3.0497803,
				"y": 0.04434677,
				"z": -2.9129510859,
				"element": "S" 
			},
			{
				"x": 3.248196757,
				"y": 0.5454535176,
				"z": -1.2292355582,
				"element": "C" 
			},
			{
				"x": 4.4927619576,
				"y": 1.0144928018,
				"z": -0.8252729071,
				"element": "N" 
			},
			{
				"x": 5.1237999678,
				"y": 1.1504760835,
				"z": 0.4084730901,
				"element": "C" 
			},
			{
				"x": 6.1885608461,
				"y": 1.7459427312,
				"z": 0.4446331953,
				"element": "O" 
			},
			{
				"x": 4.5457231536,
				"y": 0.5959520573,
				"z": 1.7117203334,
				"element": "C" 
			},
			{
				"x": 3.4131470222,
				"y": 1.4343948986,
				"z": 2.2980637423,
				"element": "C" 
			},
			{
				"x": 4.0884085717,
				"y": -1.1674166709,
				"z": 1.5726415733,
				"element": "Cl" 
			},
			{
				"x": 2.1793443295,
				"y": 0.4533298643,
				"z": -0.5055982189,
				"element": "N" 
			},
			{
				"x": -5.3257359618,
				"y": -2.5474628937,
				"z": 1.9756589129,
				"element": "H" 
			},
			{
				"x": -4.4354376894,
				"y": -2.8226623057,
				"z": 0.4676707477,
				"element": "H" 
			},
			{
				"x": -3.6018983704,
				"y": -2.958911854,
				"z": 2.0195235254,
				"element": "H" 
			},
			{
				"x": -4.8033907864,
				"y": -0.3585517595,
				"z": 0.8873971609,
				"element": "H" 
			},
			{
				"x": -3.9743247661,
				"y": -0.4943226169,
				"z": 2.4309043536,
				"element": "H" 
			},
			{
				"x": -1.5084825367,
				"y": -0.750380936,
				"z": 2.5271372335,
				"element": "H" 
			},
			{
				"x": 0.6597580868,
				"y": -0.4017497837,
				"z": 1.3912590158,
				"element": "H" 
			},
			{
				"x": -1.3798330212,
				"y": -0.0703449228,
				"z": -2.3754259848,
				"element": "H" 
			},
			{
				"x": -3.5309059659,
				"y": -0.4494400549,
				"z": -1.2479821609,
				"element": "H" 
			},
			{
				"x": 0.7287973256,
				"y": -0.6838099856,
				"z": -3.3198027374,
				"element": "H" 
			},
			{
				"x": 5.0864999657,
				"y": 1.3892109007,
				"z": -1.5560966506,
				"element": "H" 
			},
			{
				"x": 5.4025158426,
				"y": 0.5995630709,
				"z": 2.3841183754,
				"element": "H" 
			},
			{
				"x": 3.1435060308,
				"y": 1.0481579294,
				"z": 3.284111346,
				"element": "H" 
			},
			{
				"x": 3.7658063285,
				"y": 2.4651782858,
				"z": 2.4168706503,
				"element": "H" 
			},
			{
				"x": 2.5393765312,
				"y": 1.4218905895,
				"z": 1.6469632126,
				"element": "H" 
			}
		],
		 "valence_orbital": [ 
			{
				"type": "occ",
				"energy": -0.28446,
				"method": "rhf"
			},
			{
				"type": "occ",
				"energy": -0.27167,
				"method": "rhf"
			},
			{
				"type": "occ",
				"energy": -0.25707,
				"method": "rhf"
			},
			{
				"type": "occ",
				"energy": -0.25117,
				"method": "rhf"
			},
			{
				"type": "occ",
				"energy": -0.21481,
				"method": "rhf"
			},
			{
				"type": "unocc",
				"energy": -0.04803,
				"method": "rhf"
			},
			{
				"type": "unocc",
				"energy": -0.02666,
				"method": "rhf"
			},
			{
				"type": "unocc",
				"energy": -0.0075,
				"method": "rhf"
			},
			{
				"type": "unocc",
				"energy": -0.00115,
				"method": "rhf"
			},
			{
				"type": "unocc",
				"energy": 0.00827,
				"method": "rhf"
			}
		],
		"cosmo_sigma_profile": { 
			"-0.025": 0.0,
			"-0.024": 0.0,
			"-0.023": 0.0,
			"-0.022": 0.0,
			"-0.021": 0.0,
			"-0.02": 0.0,
			"-0.019": 0.0,
			"-0.018": 0.0,
			"-0.017": 0.129088297017,
			"-0.016": 1.14777085897,
			"-0.015": 0.879046782734,
			"-0.014": 1.2587387367,
			"-0.013": 1.13196349383,
			"-0.012": 0.638103112838,
			"-0.011": 0.975248014062,
			"-0.01": 1.18344204971,
			"-0.009": 2.73590102353,
			"-0.008": 4.27052466716,
			"-0.007": 6.3052922514,
			"-0.006": 7.88055309489,
			"-0.005": 13.6644808568,
			"-0.004": 20.0156780713,
			"-0.003": 26.7661020675,
			"-0.002": 28.2359005202,
			"-0.001": 34.9630603558,
			"0.0": 32.4468033677,
			"0.001": 29.3698477471,
			"0.002": 27.2606383985,
			"0.003": 24.0686256324,
			"0.004": 18.6625547201,
			"0.005": 20.5170216202,
			"0.006": 12.4054038542,
			"0.007": 1.57883048133,
			"0.008": 1.49431991739,
			"0.009": 1.39795481271,
			"0.01": 1.89539119592,
			"0.011": 4.32472431664,
			"0.012": 3.79407093395,
			"0.013": 0.235138960645,
			"0.014": 0.0,
			"0.015": 0.0,
			"0.016": 0.0,
			"0.017": 0.0,
			"0.018": 0.0,
			"0.019": 0.0,
			"0.02": 0.0,
			"0.021": 0.0,
			"0.022": 0.0,
			"0.023": 0.0,
			"0.024": 0.0,
			"0.025": 0.0
		}
	}
}
