{
	 "smiles": "CCN(CC)C(C)O", 
	 "Tm": 203.15, 
	 "num_atms": 23, 
	 "gaussian": { 
		 "optdone": 1, 
		 "sigma_profile": "yes", 
		 "theory": "DFT", 
		 "functional": "B3LYP", 
		 "basiset": "6-31G**", 
		 "properties": { 
			 "R2extent": 1361.1444, 
			 "electric_dipole_moment_norm": 1.23329554041, 
			 "electric_quadrupole_moment_norm": 6.76821519974, 
			 "total_energy": -367.647606262, 
			 "HOMO_LUMO_gap": 0.27885, 
			 "cosmo_polarized_energy": -6.53, 
			 "cosmo_cavitation_energy": 23.5, 
			 "cosmo_dispersion_energy": -17.08, 
			 "cosmo_repulsion_energy": 1.43, 
			 "cosmo_total_nonelectrostatic_energy": 7.86, 
			 "SMD_solvation_energy": 2.61 
		},
		"coords": [
			{
				"x": 0.3988273684,
				"y": -0.3817612288,
				"z": 1.6163360915,
				"element": "C" 
			},
			{
				"x": 0.929039523,
				"y": -0.4680694751,
				"z": 0.1746127867,
				"element": "C" 
			},
			{
				"x": -0.0630331043,
				"y": -0.578587114,
				"z": -0.9025360873,
				"element": "N" 
			},
			{
				"x": -0.959371686,
				"y": 0.5755028019,
				"z": -1.0453400183,
				"element": "C" 
			},
			{
				"x": -0.2270843262,
				"y": 1.8659953648,
				"z": -1.4209268658,
				"element": "C" 
			},
			{
				"x": -0.7311645438,
				"y": -1.8385599156,
				"z": -1.069397966,
				"element": "C" 
			},
			{
				"x": 0.2157934696,
				"y": -3.0352802448,
				"z": -1.183481159,
				"element": "C" 
			},
			{
				"x": -1.6770636121,
				"y": -2.0557518101,
				"z": 0.0055899023,
				"element": "O" 
			},
			{
				"x": -0.233887898,
				"y": 0.4998155028,
				"z": 1.7621608392,
				"element": "H" 
			},
			{
				"x": -0.1954379189,
				"y": -1.2620060693,
				"z": 1.8692823331,
				"element": "H" 
			},
			{
				"x": 1.2382163856,
				"y": -0.3038150765,
				"z": 2.3172228342,
				"element": "H" 
			},
			{
				"x": 1.5423821715,
				"y": 0.4150207537,
				"z": -0.0365903845,
				"element": "H" 
			},
			{
				"x": 1.6111987204,
				"y": -1.3190220011,
				"z": 0.0907108456,
				"element": "H" 
			},
			{
				"x": -1.5720952772,
				"y": 0.7439862326,
				"z": -0.1459124971,
				"element": "H" 
			},
			{
				"x": -1.664991192,
				"y": 0.3289971062,
				"z": -1.8473669556,
				"element": "H" 
			},
			{
				"x": 0.4087448081,
				"y": 2.2364924824,
				"z": -0.6109321233,
				"element": "H" 
			},
			{
				"x": 0.4016809364,
				"y": 1.7107086271,
				"z": -2.3033872742,
				"element": "H" 
			},
			{
				"x": -0.9536654947,
				"y": 2.6533966046,
				"z": -1.6472763995,
				"element": "H" 
			},
			{
				"x": -1.2965183053,
				"y": -1.7587059209,
				"z": -2.012130307,
				"element": "H" 
			},
			{
				"x": 0.9821702938,
				"y": -2.8546302149,
				"z": -1.9426849356,
				"element": "H" 
			},
			{
				"x": -0.3507145439,
				"y": -3.9252425514,
				"z": -1.4789754576,
				"element": "H" 
			},
			{
				"x": 0.7000425181,
				"y": -3.2568057608,
				"z": -0.2291519142,
				"element": "H" 
			},
			{
				"x": -2.1676682925,
				"y": -2.8664780927,
				"z": -0.1871252876,
				"element": "H" 
			}
		],
		 "valence_orbital": [ 
			{
				"type": "occ",
				"energy": -0.33421,
				"method": "rhf"
			},
			{
				"type": "occ",
				"energy": -0.32851,
				"method": "rhf"
			},
			{
				"type": "occ",
				"energy": -0.31379,
				"method": "rhf"
			},
			{
				"type": "occ",
				"energy": -0.26,
				"method": "rhf"
			},
			{
				"type": "occ",
				"energy": -0.20681,
				"method": "rhf"
			},
			{
				"type": "unocc",
				"energy": 0.07204,
				"method": "rhf"
			},
			{
				"type": "unocc",
				"energy": 0.09843,
				"method": "rhf"
			},
			{
				"type": "unocc",
				"energy": 0.11853,
				"method": "rhf"
			},
			{
				"type": "unocc",
				"energy": 0.1247,
				"method": "rhf"
			},
			{
				"type": "unocc",
				"energy": 0.14486,
				"method": "rhf"
			}
		],
		"cosmo_sigma_profile": { 
			"-0.025": 0.0,
			"-0.024": 0.0,
			"-0.023": 0.0,
			"-0.022": 0.0,
			"-0.021": 0.0,
			"-0.02": 0.0,
			"-0.019": 0.0,
			"-0.018": 0.0,
			"-0.017": 0.0,
			"-0.016": 0.0,
			"-0.015": 0.305834761236,
			"-0.014": 0.987362766052,
			"-0.013": 0.975591917534,
			"-0.012": 0.992154281894,
			"-0.011": 1.00973166506,
			"-0.01": 0.783060905585,
			"-0.009": 0.861482539653,
			"-0.008": 1.61359227505,
			"-0.007": 0.824145006819,
			"-0.006": 0.707495869886,
			"-0.005": 1.81931948619,
			"-0.004": 6.75863184224,
			"-0.003": 19.0220222058,
			"-0.002": 23.2036117544,
			"-0.001": 28.7752373716,
			"0.0": 27.4816335007,
			"0.001": 23.8768421173,
			"0.002": 11.4665543823,
			"0.003": 5.47909464821,
			"0.004": 2.29143762014,
			"0.005": 2.68197209692,
			"0.006": 2.45736367343,
			"0.007": 2.93092151634,
			"0.008": 2.20976033924,
			"0.009": 2.24080038516,
			"0.01": 2.88787869768,
			"0.011": 2.23973467073,
			"0.012": 0.961863057287,
			"0.013": 1.88915165937,
			"0.014": 0.84443630818,
			"0.015": 0.0,
			"0.016": 0.0,
			"0.017": 0.0,
			"0.018": 0.0,
			"0.019": 0.0,
			"0.02": 0.0,
			"0.021": 0.0,
			"0.022": 0.0,
			"0.023": 0.0,
			"0.024": 0.0,
			"0.025": 0.0
		}
	}
}
