{
	 "smiles": "OC(=O)C1=CN(CCC#N)N=C1C1=CC(=CC=C1)[N+]([O-])=O", 
	 "Tm": 516.15, 
	 "num_atms": 31, 
	 "gaussian": { 
		 "optdone": 1, 
		 "sigma_profile": "yes", 
		 "theory": "DFT", 
		 "functional": "B3LYP", 
		 "basiset": "6-31G**", 
		 "properties": { 
			 "R2extent": 7411.4681, 
			 "electric_dipole_moment_norm": 5.74785011026, 
			 "electric_quadrupole_moment_norm": 48.0004247806, 
			 "total_energy": -1021.18619716, 
			 "HOMO_LUMO_gap": 0.1691, 
			 "cosmo_polarized_energy": -28.84, 
			 "cosmo_cavitation_energy": 38.62, 
			 "cosmo_dispersion_energy": -26.48, 
			 "cosmo_repulsion_energy": 2.04, 
			 "cosmo_total_nonelectrostatic_energy": 14.17, 
			 "SMD_solvation_energy": 10.37 
		},
		"coords": [
			{
				"x": 0.9842169702,
				"y": 2.8596808501,
				"z": 2.62997246,
				"element": "O" 
			},
			{
				"x": 0.2052672647,
				"y": 2.3433023993,
				"z": 1.6383893458,
				"element": "C" 
			},
			{
				"x": -0.9026349062,
				"y": 2.7960033354,
				"z": 1.4618358719,
				"element": "O" 
			},
			{
				"x": 0.8434071745,
				"y": 1.273987717,
				"z": 0.8341425461,
				"element": "C" 
			},
			{
				"x": 2.211136983,
				"y": 1.1918729508,
				"z": 0.5977395501,
				"element": "C" 
			},
			{
				"x": 2.4171346364,
				"y": 0.0984157141,
				"z": -0.1682089477,
				"element": "N" 
			},
			{
				"x": 3.652103553,
				"y": -0.3681387089,
				"z": -0.7757005762,
				"element": "C" 
			},
			{
				"x": 3.7977569088,
				"y": 0.0897689094,
				"z": -2.2428557697,
				"element": "C" 
			},
			{
				"x": 3.9772417763,
				"y": 1.5388594161,
				"z": -2.3548208126,
				"element": "C" 
			},
			{
				"x": 4.1265169852,
				"y": 2.6888291226,
				"z": -2.3989198221,
				"element": "N" 
			},
			{
				"x": 1.267199494,
				"y": -0.5450162241,
				"z": -0.4602035623,
				"element": "N" 
			},
			{
				"x": 0.2898358488,
				"y": 0.1485738914,
				"z": 0.1318141888,
				"element": "C" 
			},
			{
				"x": -1.0894730129,
				"y": -0.3755098222,
				"z": 0.0261313369,
				"element": "C" 
			},
			{
				"x": -1.2589872987,
				"y": -1.7486598845,
				"z": -0.2117742657,
				"element": "C" 
			},
			{
				"x": -2.5424885321,
				"y": -2.2619470227,
				"z": -0.3460304268,
				"element": "C" 
			},
			{
				"x": -3.6816443418,
				"y": -1.4627884108,
				"z": -0.2518023571,
				"element": "C" 
			},
			{
				"x": -3.5065395822,
				"y": -0.1022391902,
				"z": -0.0179049019,
				"element": "C" 
			},
			{
				"x": -2.227633943,
				"y": 0.4434711648,
				"z": 0.1180241162,
				"element": "C" 
			},
			{
				"x": -2.7034743608,
				"y": -3.7055395667,
				"z": -0.5911881143,
				"element": "N" 
			},
			{
				"x": -3.8491568605,
				"y": -4.1387381157,
				"z": -0.7106461954,
				"element": "O" 
			},
			{
				"x": -1.6848931971,
				"y": -4.3927091622,
				"z": -0.6625431219,
				"element": "O" 
			},
			{
				"x": 1.7456731455,
				"y": 2.2845916691,
				"z": 2.7871184336,
				"element": "H" 
			},
			{
				"x": 3.0213944393,
				"y": 1.8530470892,
				"z": 0.8721984312,
				"element": "H" 
			},
			{
				"x": 3.6369780546,
				"y": -1.4592977634,
				"z": -0.7431433466,
				"element": "H" 
			},
			{
				"x": 4.4895731863,
				"y": -0.0091197031,
				"z": -0.1733044835,
				"element": "H" 
			},
			{
				"x": 4.6620283467,
				"y": -0.4119797816,
				"z": -2.6921606386,
				"element": "H" 
			},
			{
				"x": 2.908639882,
				"y": -0.2143032864,
				"z": -2.8048128825,
				"element": "H" 
			},
			{
				"x": -0.4061077187,
				"y": -2.4087826321,
				"z": -0.2918647723,
				"element": "H" 
			},
			{
				"x": -4.661180635,
				"y": -1.9108710695,
				"z": -0.3601407631,
				"element": "H" 
			},
			{
				"x": -4.373494244,
				"y": 0.5464606115,
				"z": 0.0563269552,
				"element": "H" 
			},
			{
				"x": -2.1048960164,
				"y": 1.5037755033,
				"z": 0.3002325246,
				"element": "H" 
			}
		],
		 "valence_orbital": [ 
			{
				"type": "occ",
				"energy": -0.29421,
				"method": "rhf"
			},
			{
				"type": "occ",
				"energy": -0.28809,
				"method": "rhf"
			},
			{
				"type": "occ",
				"energy": -0.28362,
				"method": "rhf"
			},
			{
				"type": "occ",
				"energy": -0.27649,
				"method": "rhf"
			},
			{
				"type": "occ",
				"energy": -0.25485,
				"method": "rhf"
			},
			{
				"type": "unocc",
				"energy": -0.08575,
				"method": "rhf"
			},
			{
				"type": "unocc",
				"energy": -0.05287,
				"method": "rhf"
			},
			{
				"type": "unocc",
				"energy": -0.04444,
				"method": "rhf"
			},
			{
				"type": "unocc",
				"energy": -0.00289,
				"method": "rhf"
			},
			{
				"type": "unocc",
				"energy": 0.00513,
				"method": "rhf"
			}
		],
		"cosmo_sigma_profile": { 
			"-0.025": 0.0,
			"-0.024": 0.0,
			"-0.023": 0.0,
			"-0.022": 0.0,
			"-0.021": 0.0,
			"-0.02": 0.0,
			"-0.019": 0.234010690975,
			"-0.018": 1.22049252131,
			"-0.017": 1.08772121266,
			"-0.016": 0.876325355761,
			"-0.015": 1.01692765811,
			"-0.014": 1.19231874677,
			"-0.013": 1.27193711955,
			"-0.012": 2.83594199992,
			"-0.011": 3.56936859035,
			"-0.01": 4.64520921701,
			"-0.009": 10.9959665664,
			"-0.008": 11.8059349399,
			"-0.007": 14.6641206793,
			"-0.006": 15.9376747333,
			"-0.005": 12.3367915806,
			"-0.004": 12.4022283556,
			"-0.003": 13.3252908043,
			"-0.002": 14.8262361012,
			"-0.001": 19.6559275606,
			"0.0": 23.067841995,
			"0.001": 23.9701225277,
			"0.002": 18.1997689787,
			"0.003": 9.96539571845,
			"0.004": 8.74086780598,
			"0.005": 8.55996802032,
			"0.006": 9.75144160078,
			"0.007": 14.1868737141,
			"0.008": 14.785407776,
			"0.009": 11.3628270844,
			"0.01": 10.7866941162,
			"0.011": 6.88789020979,
			"0.012": 4.84253272705,
			"0.013": 2.15464083378,
			"0.014": 0.00922257807329,
			"0.015": 0.0,
			"0.016": 0.0,
			"0.017": 0.0,
			"0.018": 0.0,
			"0.019": 0.0,
			"0.02": 0.0,
			"0.021": 0.0,
			"0.022": 0.0,
			"0.023": 0.0,
			"0.024": 0.0,
			"0.025": 0.0
		}
	}
}
