{
	 "smiles": "OC(=O)CN(CC(O)=O)C1=CC=CC=C1", 
	 "Tm": 431.15, 
	 "num_atms": 26, 
	 "gaussian": { 
		 "optdone": 1, 
		 "sigma_profile": "yes", 
		 "theory": "DFT", 
		 "functional": "B3LYP", 
		 "basiset": "6-31G**", 
		 "properties": { 
			 "R2extent": 3995.4636, 
			 "electric_dipole_moment_norm": 5.23722572647, 
			 "electric_quadrupole_moment_norm": 23.2966460957, 
			 "total_energy": -743.352550746, 
			 "HOMO_LUMO_gap": 0.20124, 
			 "cosmo_polarized_energy": -18.82, 
			 "cosmo_cavitation_energy": 29.85, 
			 "cosmo_dispersion_energy": -21.42, 
			 "cosmo_repulsion_energy": 1.68, 
			 "cosmo_total_nonelectrostatic_energy": 10.11, 
			 "SMD_solvation_energy": 7.25 
		},
		"coords": [
			{
				"x": -0.9800227543,
				"y": 3.4177111834,
				"z": 1.4684519382,
				"element": "O" 
			},
			{
				"x": -1.1708806552,
				"y": 2.3492293304,
				"z": 2.253741861,
				"element": "C" 
			},
			{
				"x": -1.6392349321,
				"y": 2.438253765,
				"z": 3.3639063104,
				"element": "O" 
			},
			{
				"x": -0.8314935559,
				"y": 0.9776735225,
				"z": 1.6462035395,
				"element": "C" 
			},
			{
				"x": 0.1247663331,
				"y": 1.0239636857,
				"z": 0.5507436728,
				"element": "N" 
			},
			{
				"x": 1.4935717883,
				"y": 1.3549506324,
				"z": 0.9166851976,
				"element": "C" 
			},
			{
				"x": 1.9655975686,
				"y": 2.7047286928,
				"z": 0.3850772137,
				"element": "C" 
			},
			{
				"x": 3.2596883384,
				"y": 2.9151973493,
				"z": 0.6842279141,
				"element": "O" 
			},
			{
				"x": 1.2860707491,
				"y": 3.4989274522,
				"z": -0.2312299836,
				"element": "O" 
			},
			{
				"x": -0.0451342711,
				"y": 0.158406706,
				"z": -0.5668922873,
				"element": "C" 
			},
			{
				"x": 0.616325256,
				"y": 0.4580294637,
				"z": -1.7707884072,
				"element": "C" 
			},
			{
				"x": 0.4822644289,
				"y": -0.3741250408,
				"z": -2.8799817859,
				"element": "C" 
			},
			{
				"x": -0.326214489,
				"y": -1.5109999133,
				"z": -2.8233699896,
				"element": "C" 
			},
			{
				"x": -0.9921594231,
				"y": -1.8085369245,
				"z": -1.6351008985,
				"element": "C" 
			},
			{
				"x": -0.8484008227,
				"y": -0.9924148577,
				"z": -0.5119485832,
				"element": "C" 
			},
			{
				"x": -0.5269997448,
				"y": 3.1677924835,
				"z": 0.6369026224,
				"element": "H" 
			},
			{
				"x": -1.7808190431,
				"y": 0.5948645229,
				"z": 1.2626874847,
				"element": "H" 
			},
			{
				"x": -0.530655802,
				"y": 0.3244120909,
				"z": 2.4768527693,
				"element": "H" 
			},
			{
				"x": 1.6027482803,
				"y": 1.38078094,
				"z": 2.0084100458,
				"element": "H" 
			},
			{
				"x": 2.1991726595,
				"y": 0.5956140607,
				"z": 0.5581437182,
				"element": "H" 
			},
			{
				"x": 3.4925229923,
				"y": 3.7942117603,
				"z": 0.3396085201,
				"element": "H" 
			},
			{
				"x": 1.2022282956,
				"y": 1.3672286861,
				"z": -1.8483362143,
				"element": "H" 
			},
			{
				"x": 0.9990224982,
				"y": -0.1177495799,
				"z": -3.8005131597,
				"element": "H" 
			},
			{
				"x": -0.4370092062,
				"y": -2.1522686995,
				"z": -3.6921506297,
				"element": "H" 
			},
			{
				"x": -1.618873393,
				"y": -2.6933508535,
				"z": -1.5681560111,
				"element": "H" 
			},
			{
				"x": -1.3467810957,
				"y": -1.2736304585,
				"z": 0.4092251423,
				"element": "H" 
			}
		],
		 "valence_orbital": [ 
			{
				"type": "occ",
				"energy": -0.3016,
				"method": "rhf"
			},
			{
				"type": "occ",
				"energy": -0.29616,
				"method": "rhf"
			},
			{
				"type": "occ",
				"energy": -0.26519,
				"method": "rhf"
			},
			{
				"type": "occ",
				"energy": -0.25958,
				"method": "rhf"
			},
			{
				"type": "occ",
				"energy": -0.22138,
				"method": "rhf"
			},
			{
				"type": "unocc",
				"energy": -0.02014,
				"method": "rhf"
			},
			{
				"type": "unocc",
				"energy": -0.01336,
				"method": "rhf"
			},
			{
				"type": "unocc",
				"energy": -0.00388,
				"method": "rhf"
			},
			{
				"type": "unocc",
				"energy": 0.01661,
				"method": "rhf"
			},
			{
				"type": "unocc",
				"energy": 0.05453,
				"method": "rhf"
			}
		],
		"cosmo_sigma_profile": { 
			"-0.025": 0.0,
			"-0.024": 0.0,
			"-0.023": 0.0,
			"-0.022": 0.0,
			"-0.021": 0.0,
			"-0.02": 0.00646781650896,
			"-0.019": 0.701995911769,
			"-0.018": 0.889730471571,
			"-0.017": 1.18985005361,
			"-0.016": 0.907068307255,
			"-0.015": 0.338226032825,
			"-0.014": 0.712733321103,
			"-0.013": 0.756164405491,
			"-0.012": 1.07577893546,
			"-0.011": 0.883022625638,
			"-0.01": 1.84502799992,
			"-0.009": 4.58029924728,
			"-0.008": 7.42680394403,
			"-0.007": 9.94959446273,
			"-0.006": 14.7578605411,
			"-0.005": 19.8267037671,
			"-0.004": 17.0605936557,
			"-0.003": 16.0706832675,
			"-0.002": 10.8122116772,
			"-0.001": 10.6910012269,
			"0.0": 8.02452965166,
			"0.001": 11.2139991214,
			"0.002": 9.73187645239,
			"0.003": 10.6730595919,
			"0.004": 13.4059201825,
			"0.005": 14.6083633362,
			"0.006": 11.9628103289,
			"0.007": 4.54003411309,
			"0.008": 5.36362078602,
			"0.009": 5.5202066038,
			"0.01": 6.37071258964,
			"0.011": 5.84023967115,
			"0.012": 6.11994550247,
			"0.013": 3.14554430334,
			"0.014": 0.27155688883,
			"0.015": 0.0,
			"0.016": 0.0,
			"0.017": 0.0,
			"0.018": 0.0,
			"0.019": 0.0,
			"0.02": 0.0,
			"0.021": 0.0,
			"0.022": 0.0,
			"0.023": 0.0,
			"0.024": 0.0,
			"0.025": 0.0
		}
	}
}
