{
	 "smiles": "CC(=O)C1=CC=C(C=C1)C1=CC=C(O1)C=O", 
	 "Tm": 407.15, 
	 "num_atms": 26, 
	 "gaussian": { 
		 "optdone": 1, 
		 "sigma_profile": "yes", 
		 "theory": "DFT", 
		 "functional": "B3LYP", 
		 "basiset": "6-31G**", 
		 "properties": { 
			 "R2extent": 5360.828, 
			 "electric_dipole_moment_norm": 6.27097771085, 
			 "electric_quadrupole_moment_norm": 7.80800485335, 
			 "total_energy": -727.059923863, 
			 "HOMO_LUMO_gap": 0.1438, 
			 "cosmo_polarized_energy": -16.19, 
			 "cosmo_cavitation_energy": 31.9, 
			 "cosmo_dispersion_energy": -22.8, 
			 "cosmo_repulsion_energy": 1.74, 
			 "cosmo_total_nonelectrostatic_energy": 10.84, 
			 "SMD_solvation_energy": 7.67 
		},
		"coords": [
			{
				"x": 1.7504933675,
				"y": -3.9425376696,
				"z": -2.0312114955,
				"element": "C" 
			},
			{
				"x": 1.0976898512,
				"y": -3.6047630052,
				"z": -0.7014193082,
				"element": "C" 
			},
			{
				"x": 0.9425272876,
				"y": -4.4649921321,
				"z": 0.1522582393,
				"element": "O" 
			},
			{
				"x": 0.6459018324,
				"y": -2.1968221886,
				"z": -0.4527711595,
				"element": "C" 
			},
			{
				"x": 0.7976188089,
				"y": -1.1676976987,
				"z": -1.3956128742,
				"element": "C" 
			},
			{
				"x": 0.3609603589,
				"y": 0.1212557012,
				"z": -1.1143978195,
				"element": "C" 
			},
			{
				"x": -0.2414727207,
				"y": 0.4174620426,
				"z": 0.1216815713,
				"element": "C" 
			},
			{
				"x": -0.3941875188,
				"y": -0.6144964732,
				"z": 1.0685405383,
				"element": "C" 
			},
			{
				"x": 0.044218715,
				"y": -1.8987510431,
				"z": 0.7805472532,
				"element": "C" 
			},
			{
				"x": -0.6985334369,
				"y": 1.7682457222,
				"z": 0.4150510609,
				"element": "C" 
			},
			{
				"x": -0.6797438686,
				"y": 2.9488647766,
				"z": -0.3026415653,
				"element": "C" 
			},
			{
				"x": -1.2754586455,
				"y": 3.9315733787,
				"z": 0.523738089,
				"element": "C" 
			},
			{
				"x": -1.6247375609,
				"y": 3.3007858148,
				"z": 1.6968358866,
				"element": "C" 
			},
			{
				"x": -1.2724132699,
				"y": 1.9822486135,
				"z": 1.6290963483,
				"element": "O" 
			},
			{
				"x": -2.2656129968,
				"y": 3.80443317,
				"z": 2.9013848338,
				"element": "C" 
			},
			{
				"x": -2.5266422406,
				"y": 3.1397244943,
				"z": 3.8881599369,
				"element": "O" 
			},
			{
				"x": 2.6564350255,
				"y": -3.3464903076,
				"z": -2.1878793656,
				"element": "H" 
			},
			{
				"x": 2.0100848395,
				"y": -5.001381043,
				"z": -2.0324495592,
				"element": "H" 
			},
			{
				"x": 1.0731829353,
				"y": -3.733801527,
				"z": -2.8668081544,
				"element": "H" 
			},
			{
				"x": 1.2588059006,
				"y": -1.3678614119,
				"z": -2.3571181577,
				"element": "H" 
			},
			{
				"x": 0.4879166474,
				"y": 0.9021212189,
				"z": -1.8575622325,
				"element": "H" 
			},
			{
				"x": -0.8575059159,
				"y": -0.3947842495,
				"z": 2.0239262241,
				"element": "H" 
			},
			{
				"x": -0.0678150561,
				"y": -2.7015621561,
				"z": 1.5013601777,
				"element": "H" 
			},
			{
				"x": -0.2864089408,
				"y": 3.0890799092,
				"z": -1.2984674217,
				"element": "H" 
			},
			{
				"x": -1.4325653658,
				"y": 4.9761542999,
				"z": 0.293465428,
				"element": "H" 
			},
			{
				"x": -2.5051380325,
				"y": 4.8881917635,
				"z": 2.8405935259,
				"element": "H" 
			}
		],
		 "valence_orbital": [ 
			{
				"type": "occ",
				"energy": -0.29388,
				"method": "rhf"
			},
			{
				"type": "occ",
				"energy": -0.27107,
				"method": "rhf"
			},
			{
				"type": "occ",
				"energy": -0.25876,
				"method": "rhf"
			},
			{
				"type": "occ",
				"energy": -0.2531,
				"method": "rhf"
			},
			{
				"type": "occ",
				"energy": -0.23063,
				"method": "rhf"
			},
			{
				"type": "unocc",
				"energy": -0.08683,
				"method": "rhf"
			},
			{
				"type": "unocc",
				"energy": -0.04692,
				"method": "rhf"
			},
			{
				"type": "unocc",
				"energy": -0.0195,
				"method": "rhf"
			},
			{
				"type": "unocc",
				"energy": 0.00758,
				"method": "rhf"
			},
			{
				"type": "unocc",
				"energy": 0.07051,
				"method": "rhf"
			}
		],
		"cosmo_sigma_profile": { 
			"-0.025": 0.0,
			"-0.024": 0.0,
			"-0.023": 0.0,
			"-0.022": 0.0,
			"-0.021": 0.0,
			"-0.02": 0.0,
			"-0.019": 0.0,
			"-0.018": 0.0,
			"-0.017": 0.0,
			"-0.016": 0.0,
			"-0.015": 0.0,
			"-0.014": 0.0,
			"-0.013": 0.0,
			"-0.012": 0.0,
			"-0.011": 0.0,
			"-0.01": 0.27098195063,
			"-0.009": 3.77355671532,
			"-0.008": 7.21607936594,
			"-0.007": 10.6394644185,
			"-0.006": 18.8007303215,
			"-0.005": 17.9387960386,
			"-0.004": 16.0424494141,
			"-0.003": 15.3441064507,
			"-0.002": 16.2218557556,
			"-0.001": 22.9610099578,
			"0.0": 23.4123736251,
			"0.001": 18.8836429864,
			"0.002": 21.2526777395,
			"0.003": 17.2152349756,
			"0.004": 3.88492661568,
			"0.005": 3.92206615063,
			"0.006": 3.27248807031,
			"0.007": 3.38315298162,
			"0.008": 4.16989134648,
			"0.009": 3.91721849706,
			"0.01": 4.35157437467,
			"0.011": 7.78788130827,
			"0.012": 8.28314464334,
			"0.013": 3.3923277424,
			"0.014": 0.191091430139,
			"0.015": 0.0,
			"0.016": 0.0,
			"0.017": 0.0,
			"0.018": 0.0,
			"0.019": 0.0,
			"0.02": 0.0,
			"0.021": 0.0,
			"0.022": 0.0,
			"0.023": 0.0,
			"0.024": 0.0,
			"0.0": 0.0
		}
	}
}
