{
	 "smiles": "COC1=CC=C2C(=O)CCCC2=C1", 
	 "Tm": 351.65, 
	 "num_atms": 25, 
	 "gaussian": { 
		 "optdone": 1, 
		 "sigma_profile": "yes", 
		 "theory": "DFT", 
		 "functional": "B3LYP", 
		 "basiset": "6-31G**", 
		 "properties": { 
			 "R2extent": 3221.0622, 
			 "electric_dipole_moment_norm": 3.28717874476, 
			 "electric_quadrupole_moment_norm": 19.5389030337, 
			 "total_energy": -576.856933093, 
			 "HOMO_LUMO_gap": 0.18414, 
			 "cosmo_polarized_energy": -10.1, 
			 "cosmo_cavitation_energy": 27.48, 
			 "cosmo_dispersion_energy": -20.6, 
			 "cosmo_repulsion_energy": 1.62, 
			 "cosmo_total_nonelectrostatic_energy": 8.49, 
			 "SMD_solvation_energy": 5.39 
		},
		"coords": [
			{
				"x": 3.8526836445,
				"y": -0.2664077404,
				"z": 1.1303119935,
				"element": "C" 
			},
			{
				"x": 2.8950042012,
				"y": 0.0777584853,
				"z": 0.138203198,
				"element": "O" 
			},
			{
				"x": 1.6856571404,
				"y": -0.5431491141,
				"z": 0.158506127,
				"element": "C" 
			},
			{
				"x": 1.3066262986,
				"y": -1.5146834325,
				"z": 1.0996281072,
				"element": "C" 
			},
			{
				"x": 0.0365375544,
				"y": -2.0706987344,
				"z": 1.0164088586,
				"element": "C" 
			},
			{
				"x": -0.867828706,
				"y": -1.6887682458,
				"z": 0.0159185941,
				"element": "C" 
			},
			{
				"x": -2.2114625128,
				"y": -2.3252780467,
				"z": -0.0145709619,
				"element": "C" 
			},
			{
				"x": -2.5486577304,
				"y": -3.1688817953,
				"z": 0.8061046931,
				"element": "O" 
			},
			{
				"x": -3.1553260594,
				"y": -1.8982353482,
				"z": -1.1336490789,
				"element": "C" 
			},
			{
				"x": -2.9024837431,
				"y": -0.4636735517,
				"z": -1.6116795239,
				"element": "C" 
			},
			{
				"x": -1.4371316246,
				"y": -0.2910783083,
				"z": -2.0301246153,
				"element": "C" 
			},
			{
				"x": -0.4828648119,
				"y": -0.7104639394,
				"z": -0.9310431627,
				"element": "C" 
			},
			{
				"x": 0.7876096202,
				"y": -0.1493974748,
				"z": -0.8445158284,
				"element": "C" 
			},
			{
				"x": 4.7313669029,
				"y": 0.3458893529,
				"z": 0.9231160827,
				"element": "H" 
			},
			{
				"x": 4.1293602276,
				"y": -1.3264430914,
				"z": 1.0737562897,
				"element": "H" 
			},
			{
				"x": 3.4861312627,
				"y": -0.0429511342,
				"z": 2.1398407202,
				"element": "H" 
			},
			{
				"x": 1.9844368441,
				"y": -1.8308925453,
				"z": 1.8832934026,
				"element": "H" 
			},
			{
				"x": -0.288021317,
				"y": -2.8216214147,
				"z": 1.7297279313,
				"element": "H" 
			},
			{
				"x": -4.1798354913,
				"y": -2.0526065428,
				"z": -0.783544808,
				"element": "H" 
			},
			{
				"x": -2.9989181384,
				"y": -2.5968870992,
				"z": -1.9698422372,
				"element": "H" 
			},
			{
				"x": -3.1354013386,
				"y": 0.2398329802,
				"z": -0.802234799,
				"element": "H" 
			},
			{
				"x": -3.5672492609,
				"y": -0.2177219669,
				"z": -2.4468794546,
				"element": "H" 
			},
			{
				"x": -1.2331862761,
				"y": 0.7446025733,
				"z": -2.3231425084,
				"element": "H" 
			},
			{
				"x": -1.2458922297,
				"y": -0.905242947,
				"z": -2.9232270459,
				"element": "H" 
			},
			{
				"x": 1.1110455438,
				"y": 0.610399081,
				"z": -1.5498619736,
				"element": "H" 
			}
		],
		 "valence_orbital": [ 
			{
				"type": "occ",
				"energy": -0.32553,
				"method": "rhf"
			},
			{
				"type": "occ",
				"energy": -0.31302,
				"method": "rhf"
			},
			{
				"type": "occ",
				"energy": -0.25088,
				"method": "rhf"
			},
			{
				"type": "occ",
				"energy": -0.23289,
				"method": "rhf"
			},
			{
				"type": "occ",
				"energy": -0.22598,
				"method": "rhf"
			},
			{
				"type": "unocc",
				"energy": -0.04184,
				"method": "rhf"
			},
			{
				"type": "unocc",
				"energy": -0.0063,
				"method": "rhf"
			},
			{
				"type": "unocc",
				"energy": 0.05314,
				"method": "rhf"
			},
			{
				"type": "unocc",
				"energy": 0.09158,
				"method": "rhf"
			},
			{
				"type": "unocc",
				"energy": 0.09832,
				"method": "rhf"
			}
		],
		"cosmo_sigma_profile": { 
			"-0.025": 0.0,
			"-0.024": 0.0,
			"-0.023": 0.0,
			"-0.022": 0.0,
			"-0.021": 0.0,
			"-0.02": 0.0,
			"-0.019": 0.0,
			"-0.018": 0.0,
			"-0.017": 0.0,
			"-0.016": 0.0,
			"-0.015": 0.0,
			"-0.014": 0.0,
			"-0.013": 0.0,
			"-0.012": 0.0,
			"-0.011": 0.0,
			"-0.01": 0.0,
			"-0.009": 0.0,
			"-0.008": 0.0,
			"-0.007": 1.47803044049,
			"-0.006": 9.63016309516,
			"-0.005": 18.9640758028,
			"-0.004": 25.4454434136,
			"-0.003": 26.1412698315,
			"-0.002": 23.5710952279,
			"-0.001": 20.8510367936,
			"0.0": 11.714521916,
			"0.001": 8.50251210728,
			"0.002": 10.7452845676,
			"0.003": 14.9074070611,
			"0.004": 14.4127007813,
			"0.005": 5.25604783607,
			"0.006": 2.78651737186,
			"0.007": 2.86701290009,
			"0.008": 2.6583805744,
			"0.009": 3.52314210182,
			"0.01": 2.46181595559,
			"0.011": 2.215097939,
			"0.012": 3.55424680504,
			"0.013": 4.09303196838,
			"0.014": 1.13656623058,
			"0.015": 0.0905881167475,
			"0.016": 0.0,
			"0.017": 0.0,
			"0.018": 0.0,
			"0.019": 0.0,
			"0.02": 0.0,
			"0.021": 0.0,
			"0.022": 0.0,
			"0.023": 0.0,
			"0.024": 0.0,
			"0.025": 0.0
		}
	}
}
