{
	 "smiles": "CC(C)CC(=O)OC1CC2(COC(C)=O)C(OC3C(O)C(OC(C)=O)C2(C)C32CO2)C=C1C", 
	 "Tm": 425.15, 
	 "num_atms": 67, 
	 "gaussian": { 
		 "optdone": 1, 
		 "sigma_profile": "yes", 
		 "theory": "DFT", 
		 "functional": "B3LYP", 
		 "basiset": "6-31G**", 
		 "properties": { 
			 "R2extent": 14656.8673, 
			 "electric_dipole_moment_norm": 3.67954406551, 
			 "electric_quadrupole_moment_norm": 16.6110439244, 
			 "total_energy": -1612.0225958, 
			 "HOMO_LUMO_gap": 0.22269, 
			 "cosmo_polarized_energy": -24.33, 
			 "cosmo_cavitation_energy": 62.8, 
			 "cosmo_dispersion_energy": -38.88, 
			 "cosmo_repulsion_energy": 2.89, 
			 "cosmo_total_nonelectrostatic_energy": 26.81, 
			 "SMD_solvation_energy": 12.67 
		},
		"coords": [
			{
				"x": -3.8749018331,
				"y": -3.8461611919,
				"z": 1.9931660731,
				"element": "C" 
			},
			{
				"x": -2.7069193799,
				"y": -4.6323780787,
				"z": 2.6089987312,
				"element": "C" 
			},
			{
				"x": -2.5023992027,
				"y": -5.9853097637,
				"z": 1.9088449302,
				"element": "C" 
			},
			{
				"x": -1.4123994068,
				"y": -3.799187345,
				"z": 2.6762480521,
				"element": "C" 
			},
			{
				"x": -0.8493548868,
				"y": -3.3159400472,
				"z": 1.3510657629,
				"element": "C" 
			},
			{
				"x": -1.2003877069,
				"y": -3.6580090795,
				"z": 0.2391507226,
				"element": "O" 
			},
			{
				"x": 0.1525080055,
				"y": -2.4317230391,
				"z": 1.5740522397,
				"element": "O" 
			},
			{
				"x": 0.8875255201,
				"y": -1.9331515184,
				"z": 0.409350934,
				"element": "C" 
			},
			{
				"x": 0.1696060264,
				"y": -0.7225130457,
				"z": -0.229857898,
				"element": "C" 
			},
			{
				"x": 0.5959610118,
				"y": 0.6413437848,
				"z": 0.3637049738,
				"element": "C" 
			},
			{
				"x": 0.2499634134,
				"y": 0.6646874258,
				"z": 1.8737630646,
				"element": "C" 
			},
			{
				"x": -1.1867492666,
				"y": 0.6009239115,
				"z": 2.0464825947,
				"element": "O" 
			},
			{
				"x": -1.641851614,
				"y": 0.1616958858,
				"z": 3.2404752379,
				"element": "C" 
			},
			{
				"x": -3.1517243125,
				"y": 0.2335631594,
				"z": 3.2921985843,
				"element": "C" 
			},
			{
				"x": -0.9309709284,
				"y": -0.226686433,
				"z": 4.1418991477,
				"element": "O" 
			},
			{
				"x": 2.1381512875,
				"y": 0.7084406225,
				"z": 0.2271574533,
				"element": "C" 
			},
			{
				"x": 2.6566052497,
				"y": 1.9348828686,
				"z": 0.756298779,
				"element": "O" 
			},
			{
				"x": 2.0798106665,
				"y": 3.0765404672,
				"z": 0.1347422258,
				"element": "C" 
			},
			{
				"x": 2.0797169974,
				"y": 3.0182454648,
				"z": -1.4105729621,
				"element": "C" 
			},
			{
				"x": 3.2635383428,
				"y": 2.4586316085,
				"z": -1.9202927154,
				"element": "O" 
			},
			{
				"x": 0.7363772161,
				"y": 2.2486802249,
				"z": -1.758508646,
				"element": "C" 
			},
			{
				"x": 0.9060897718,
				"y": 1.0805874515,
				"z": -2.5856141339,
				"element": "O" 
			},
			{
				"x": 1.3269081368,
				"y": 1.2812307246,
				"z": -3.853005973,
				"element": "C" 
			},
			{
				"x": 1.3559935375,
				"y": -0.0103039337,
				"z": -4.6299134759,
				"element": "C" 
			},
			{
				"x": 1.6431470873,
				"y": 2.3721508362,
				"z": -4.2891196096,
				"element": "O" 
			},
			{
				"x": 0.0191851069,
				"y": 1.9215634859,
				"z": -0.402175004,
				"element": "C" 
			},
			{
				"x": -1.5024412264,
				"y": 1.9041212874,
				"z": -0.5874675023,
				"element": "C" 
			},
			{
				"x": 0.5701045513,
				"y": 3.1470208803,
				"z": 0.364539741,
				"element": "C" 
			},
			{
				"x": -0.1173995214,
				"y": 4.4458024241,
				"z": 0.4875593963,
				"element": "C" 
			},
			{
				"x": 0.0374369377,
				"y": 3.565737582,
				"z": 1.6113760141,
				"element": "O" 
			},
			{
				"x": 2.8388430142,
				"y": -0.4603447957,
				"z": 0.8534182074,
				"element": "C" 
			},
			{
				"x": 2.2991321898,
				"y": -1.683901365,
				"z": 0.9049250869,
				"element": "C" 
			},
			{
				"x": 3.0336781114,
				"y": -2.879204091,
				"z": 1.4525838168,
				"element": "C" 
			},
			{
				"x": -4.0492195949,
				"y": -2.9072366616,
				"z": 2.5316835123,
				"element": "H" 
			},
			{
				"x": -3.6767012137,
				"y": -3.6096926337,
				"z": 0.944093401,
				"element": "H" 
			},
			{
				"x": -4.8004041884,
				"y": -4.4299535826,
				"z": 2.0398464217,
				"element": "H" 
			},
			{
				"x": -2.9673143693,
				"y": -4.8406010573,
				"z": 3.6564722788,
				"element": "H" 
			},
			{
				"x": -3.4151743911,
				"y": -6.5884903768,
				"z": 1.9635216221,
				"element": "H" 
			},
			{
				"x": -1.6976970126,
				"y": -6.5588265626,
				"z": 2.3835882247,
				"element": "H" 
			},
			{
				"x": -2.245894081,
				"y": -5.8450006051,
				"z": 0.8561435053,
				"element": "H" 
			},
			{
				"x": -0.6146519774,
				"y": -4.383819989,
				"z": 3.1546394888,
				"element": "H" 
			},
			{
				"x": -1.5402634924,
				"y": -2.9190127396,
				"z": 3.3170578555,
				"element": "H" 
			},
			{
				"x": 0.8848026033,
				"y": -2.7493508684,
				"z": -0.3210272017,
				"element": "H" 
			},
			{
				"x": -0.9061693723,
				"y": -0.8785514261,
				"z": -0.1267838661,
				"element": "H" 
			},
			{
				"x": 0.3888672988,
				"y": -0.7330664516,
				"z": -1.2988478695,
				"element": "H" 
			},
			{
				"x": 0.6885682671,
				"y": -0.1939581047,
				"z": 2.3761775076,
				"element": "H" 
			},
			{
				"x": 0.6158335188,
				"y": 1.5640667893,
				"z": 2.3649993496,
				"element": "H" 
			},
			{
				"x": -3.5909747402,
				"y": -0.2744889831,
				"z": 2.4291707169,
				"element": "H" 
			},
			{
				"x": -3.4712347158,
				"y": 1.2798712713,
				"z": 3.2546721372,
				"element": "H" 
			},
			{
				"x": -3.5052811566,
				"y": -0.2204233353,
				"z": 4.2176380747,
				"element": "H" 
			},
			{
				"x": 2.3869869325,
				"y": 0.6733937489,
				"z": -0.8391242931,
				"element": "H" 
			},
			{
				"x": 2.6215622641,
				"y": 3.9385431522,
				"z": 0.5299999798,
				"element": "H" 
			},
			{
				"x": 1.9541634661,
				"y": 4.0462590389,
				"z": -1.7748808278,
				"element": "H" 
			},
			{
				"x": 3.2485547425,
				"y": 2.6244417337,
				"z": -2.8744822703,
				"element": "H" 
			},
			{
				"x": 0.0933563855,
				"y": 2.9331329622,
				"z": -2.319054183,
				"element": "H" 
			},
			{
				"x": 0.3759047737,
				"y": -0.4942862028,
				"z": -4.5998584622,
				"element": "H" 
			},
			{
				"x": 1.6436896678,
				"y": 0.1931860888,
				"z": -5.660667373,
				"element": "H" 
			},
			{
				"x": 2.0752500858,
				"y": -0.6979429329,
				"z": -4.1743920122,
				"element": "H" 
			},
			{
				"x": -1.8186674273,
				"y": 1.0061638141,
				"z": -1.1253211737,
				"element": "H" 
			},
			{
				"x": -1.8265456736,
				"y": 2.766235202,
				"z": -1.1799759459,
				"element": "H" 
			},
			{
				"x": -2.0175180333,
				"y": 1.9223263696,
				"z": 0.371848479,
				"element": "H" 
			},
			{
				"x": -1.1384380661,
				"y": 4.5661690281,
				"z": 0.1308182464,
				"element": "H" 
			},
			{
				"x": 0.471330331,
				"y": 5.3626923629,
				"z": 0.5317165406,
				"element": "H" 
			},
			{
				"x": 3.8578110298,
				"y": -0.2822288838,
				"z": 1.1892869439,
				"element": "H" 
			},
			{
				"x": 4.0421219168,
				"y": -2.6105765066,
				"z": 1.777317487,
				"element": "H" 
			},
			{
				"x": 3.1173430558,
				"y": -3.672384872,
				"z": 0.6978370618,
				"element": "H" 
			},
			{
				"x": 2.4982202702,
				"y": -3.3073251543,
				"z": 2.3067127944,
				"element": "H" 
			}
		],
		 "valence_orbital": [ 
			{
				"type": "occ",
				"energy": -0.27367,
				"method": "rhf"
			},
			{
				"type": "occ",
				"energy": -0.26769,
				"method": "rhf"
			},
			{
				"type": "occ",
				"energy": -0.26353,
				"method": "rhf"
			},
			{
				"type": "occ",
				"energy": -0.25272,
				"method": "rhf"
			},
			{
				"type": "occ",
				"energy": -0.23644,
				"method": "rhf"
			},
			{
				"type": "unocc",
				"energy": -0.01375,
				"method": "rhf"
			},
			{
				"type": "unocc",
				"energy": 0.00649,
				"method": "rhf"
			},
			{
				"type": "unocc",
				"energy": 0.01486,
				"method": "rhf"
			},
			{
				"type": "unocc",
				"energy": 0.01919,
				"method": "rhf"
			},
			{
				"type": "unocc",
				"energy": 0.04678,
				"method": "rhf"
			}
		],
		"cosmo_sigma_profile": { 
			"-0.025": 0.0,
			"-0.024": 0.0,
			"-0.023": 0.0,
			"-0.022": 0.0,
			"-0.021": 0.0,
			"-0.02": 0.0,
			"-0.019": 0.0,
			"-0.018": 0.0,
			"-0.017": 0.0,
			"-0.016": 0.0,
			"-0.015": 0.0,
			"-0.014": 0.0,
			"-0.013": 0.0,
			"-0.012": 0.116007647765,
			"-0.011": 0.517834417322,
			"-0.01": 0.730175533149,
			"-0.009": 1.09627884932,
			"-0.008": 0.921152855488,
			"-0.007": 11.3314829639,
			"-0.006": 28.148792868,
			"-0.005": 31.7595130631,
			"-0.004": 39.3624578931,
			"-0.003": 49.8769222859,
			"-0.002": 59.1332883357,
			"-0.001": 48.4031342584,
			"0.0": 43.9761418076,
			"0.001": 36.0411125325,
			"0.002": 26.280463632,
			"0.003": 16.4507232885,
			"0.004": 12.7477029412,
			"0.005": 9.89923736669,
			"0.006": 9.81004484282,
			"0.007": 11.0531662345,
			"0.008": 8.18577768973,
			"0.009": 7.41057919209,
			"0.01": 10.4550830799,
			"0.011": 10.9176434919,
			"0.012": 10.9527642019,
			"0.013": 3.45782267378,
			"0.014": 0.485460106728,
			"0.015": 0.0,
			"0.016": 0.0,
			"0.017": 0.0,
			"0.018": 0.0,
			"0.019": 0.0,
			"0.02": 0.0,
			"0.021": 0.0,
			"0.022": 0.0,
			"0.023": 0.0,
			"0.024": 0.0,
			"0.025": 0.0
		}
	}
}
