{
	 "smiles": "CC(Cl)CCl", 
	 "Tm": 173.15, 
	 "num_atms": 11, 
	 "gaussian": { 
		 "optdone": 1, 
		 "sigma_profile": "yes", 
		 "theory": "DFT", 
		 "functional": "B3LYP", 
		 "basiset": "6-31G**", 
		 "properties": { 
			 "R2extent": 1217.7424, 
			 "electric_dipole_moment_norm": 3.24107559924, 
			 "electric_quadrupole_moment_norm": 5.09055481259, 
			 "total_energy": -1038.33279697, 
			 "HOMO_LUMO_gap": 0.30142, 
			 "cosmo_polarized_energy": -7.13, 
			 "cosmo_cavitation_energy": 17.34, 
			 "cosmo_dispersion_energy": -13.11, 
			 "cosmo_repulsion_energy": 1.16, 
			 "cosmo_total_nonelectrostatic_energy": 5.39, 
			 "SMD_solvation_energy": 2.43 
		},
		"coords": [
			{
				"x": 0.1535884346,
				"y": 2.4027795792,
				"z": 1.6175515453,
				"element": "C" 
			},
			{
				"x": -0.6419411615,
				"y": 1.500319668,
				"z": 0.6777166815,
				"element": "C" 
			},
			{
				"x": -1.7560775697,
				"y": 2.5209533217,
				"z": -0.3470486851,
				"element": "Cl" 
			},
			{
				"x": 0.2829089497,
				"y": 0.6737093047,
				"z": -0.2054927417,
				"element": "C" 
			},
			{
				"x": -0.5759586637,
				"y": -0.6075771144,
				"z": -1.1460924578,
				"element": "Cl" 
			},
			{
				"x": 0.7714199422,
				"y": 1.7921391558,
				"z": 2.2854001702,
				"element": "H" 
			},
			{
				"x": 0.8063377769,
				"y": 3.0777595664,
				"z": 1.056571279,
				"element": "H" 
			},
			{
				"x": -0.5205722239,
				"y": 3.0066122037,
				"z": 2.2284281329,
				"element": "H" 
			},
			{
				"x": -1.3038238572,
				"y": 0.8398103229,
				"z": 1.2411982383,
				"element": "H" 
			},
			{
				"x": 1.0109545765,
				"y": 0.156313648,
				"z": 0.4238233549,
				"element": "H" 
			},
			{
				"x": 0.8085637961,
				"y": 1.3046803439,
				"z": -0.9235555175,
				"element": "H" 
			}
		],
		 "valence_orbital": [ 
			{
				"type": "occ",
				"energy": -0.37777,
				"method": "rhf"
			},
			{
				"type": "occ",
				"energy": -0.30851,
				"method": "rhf"
			},
			{
				"type": "occ",
				"energy": -0.30489,
				"method": "rhf"
			},
			{
				"type": "occ",
				"energy": -0.29826,
				"method": "rhf"
			},
			{
				"type": "occ",
				"energy": -0.29509,
				"method": "rhf"
			},
			{
				"type": "unocc",
				"energy": 0.00633,
				"method": "rhf"
			},
			{
				"type": "unocc",
				"energy": 0.02776,
				"method": "rhf"
			},
			{
				"type": "unocc",
				"energy": 0.08333,
				"method": "rhf"
			},
			{
				"type": "unocc",
				"energy": 0.11508,
				"method": "rhf"
			},
			{
				"type": "unocc",
				"energy": 0.12782,
				"method": "rhf"
			}
		],
		"cosmo_sigma_profile": { 
			"-0.025": 0.0,
			"-0.024": 0.0,
			"-0.023": 0.0,
			"-0.022": 0.0,
			"-0.021": 0.0,
			"-0.02": 0.0,
			"-0.019": 0.0,
			"-0.018": 0.0,
			"-0.017": 0.0,
			"-0.016": 0.0,
			"-0.015": 0.0,
			"-0.014": 0.0,
			"-0.013": 0.0,
			"-0.012": 0.0,
			"-0.011": 0.0,
			"-0.01": 0.0,
			"-0.009": 0.461108791714,
			"-0.008": 4.65685010795,
			"-0.007": 9.10741153987,
			"-0.006": 8.31866151507,
			"-0.005": 10.4957993047,
			"-0.004": 10.6708036749,
			"-0.003": 7.74144651695,
			"-0.002": 7.73114222683,
			"-0.001": 9.04433090662,
			"0.0": 6.56587554904,
			"0.001": 6.38527391854,
			"0.002": 7.03081916637,
			"0.003": 6.1449715554,
			"0.004": 9.04192209286,
			"0.005": 10.1718634136,
			"0.006": 18.3897383521,
			"0.007": 7.20394745686,
			"0.008": 1.2955841546,
			"0.009": 0.0,
			"0.01": 0.0,
			"0.011": 0.0,
			"0.012": 0.0,
			"0.013": 0.0,
			"0.014": 0.0,
			"0.015": 0.0,
			"0.016": 0.0,
			"0.017": 0.0,
			"0.018": 0.0,
			"0.019": 0.0,
			"0.02": 0.0,
			"0.021": 0.0,
			"0.022": 0.0,
			"0.023": 0.0,
			"0.024": 0.0,
			"0.025": 0.0
		}
	}
}
