{
	 "smiles": "COC1=NC(OC)=NC(Cl)=N1", 
	 "Tm": 350.15, 
	 "num_atms": 17, 
	 "gaussian": { 
		 "optdone": 1, 
		 "sigma_profile": "yes", 
		 "theory": "DFT", 
		 "functional": "B3LYP", 
		 "basiset": "6-31G**", 
		 "properties": { 
			 "R2extent": 3062.9399, 
			 "electric_dipole_moment_norm": 5.41763418662, 
			 "electric_quadrupole_moment_norm": 7.48036946815, 
			 "total_energy": -969.038839644, 
			 "HOMO_LUMO_gap": 0.24024, 
			 "cosmo_polarized_energy": -10.95, 
			 "cosmo_cavitation_energy": 23.93, 
			 "cosmo_dispersion_energy": -17.95, 
			 "cosmo_repulsion_energy": 1.47, 
			 "cosmo_total_nonelectrostatic_energy": 7.45, 
			 "SMD_solvation_energy": 2.25 
		},
		"coords": [
			{
				"x": -2.2642644656,
				"y": 1.1701120078,
				"z": 2.3097776674,
				"element": "C" 
			},
			{
				"x": -2.1868190571,
				"y": -0.26090506,
				"z": 2.3800624153,
				"element": "O" 
			},
			{
				"x": -1.3277892806,
				"y": -0.878594941,
				"z": 1.5757223361,
				"element": "C" 
			},
			{
				"x": -0.5746085083,
				"y": -0.1562608652,
				"z": 0.7388749789,
				"element": "N" 
			},
			{
				"x": 0.2491409456,
				"y": -0.8897906199,
				"z": -0.0179236555,
				"element": "C" 
			},
			{
				"x": 1.0487823428,
				"y": -0.283854059,
				"z": -0.8896153674,
				"element": "O" 
			},
			{
				"x": 0.9877247108,
				"y": 1.1470466752,
				"z": -0.9764638682,
				"element": "C" 
			},
			{
				"x": 0.3634822222,
				"y": -2.2250298846,
				"z": 0.0050062131,
				"element": "N" 
			},
			{
				"x": -0.4469996933,
				"y": -2.795534186,
				"z": 0.8836810971,
				"element": "C" 
			},
			{
				"x": -0.3626156309,
				"y": -4.537629743,
				"z": 0.9794151507,
				"element": "Cl" 
			},
			{
				"x": -1.3130780225,
				"y": -2.2131364237,
				"z": 1.6992408255,
				"element": "N" 
			},
			{
				"x": -2.5644542892,
				"y": 1.4955467069,
				"z": 1.3105773837,
				"element": "H" 
			},
			{
				"x": -1.3023373756,
				"y": 1.625144951,
				"z": 2.5589113094,
				"element": "H" 
			},
			{
				"x": -3.0192772357,
				"y": 1.4493434816,
				"z": 3.0441411829,
				"element": "H" 
			},
			{
				"x": 1.250062611,
				"y": 1.6070413317,
				"z": -0.0204253283,
				"element": "H" 
			},
			{
				"x": -0.0122517049,
				"y": 1.4774329882,
				"z": -1.268552886,
				"element": "H" 
			},
			{
				"x": 1.7161024314,
				"y": 1.4157676398,
				"z": -1.7410294547,
				"element": "H" 
			}
		],
		 "valence_orbital": [ 
			{
				"type": "occ",
				"energy": -0.31696,
				"method": "rhf"
			},
			{
				"type": "occ",
				"energy": -0.29883,
				"method": "rhf"
			},
			{
				"type": "occ",
				"energy": -0.29181,
				"method": "rhf"
			},
			{
				"type": "occ",
				"energy": -0.28554,
				"method": "rhf"
			},
			{
				"type": "occ",
				"energy": -0.2817,
				"method": "rhf"
			},
			{
				"type": "unocc",
				"energy": -0.04146,
				"method": "rhf"
			},
			{
				"type": "unocc",
				"energy": -0.02965,
				"method": "rhf"
			},
			{
				"type": "unocc",
				"energy": 0.0353,
				"method": "rhf"
			},
			{
				"type": "unocc",
				"energy": 0.08773,
				"method": "rhf"
			},
			{
				"type": "unocc",
				"energy": 0.10511,
				"method": "rhf"
			}
		],
		"cosmo_sigma_profile": { 
			"-0.025": 0.0,
			"-0.024": 0.0,
			"-0.023": 0.0,
			"-0.022": 0.0,
			"-0.021": 0.0,
			"-0.02": 0.0,
			"-0.019": 0.0,
			"-0.018": 0.0,
			"-0.017": 0.0,
			"-0.016": 0.0,
			"-0.015": 0.0,
			"-0.014": 0.0,
			"-0.013": 0.0,
			"-0.012": 0.0,
			"-0.011": 0.0,
			"-0.01": 0.0,
			"-0.009": 0.0,
			"-0.008": 0.613273704612,
			"-0.007": 6.38255880095,
			"-0.006": 14.1844455363,
			"-0.005": 19.7652273201,
			"-0.004": 25.6465551144,
			"-0.003": 15.2952467003,
			"-0.002": 11.3672386905,
			"-0.001": 10.2128996138,
			"0.0": 10.0632362764,
			"0.001": 8.65096562875,
			"0.002": 10.4854959798,
			"0.003": 14.3001272397,
			"0.004": 9.8330506833,
			"0.005": 6.44872832332,
			"0.006": 4.56139592748,
			"0.007": 5.53890332318,
			"0.008": 4.83973892402,
			"0.009": 4.5155279364,
			"0.01": 4.43864438637,
			"0.011": 2.85022501646,
			"0.012": 2.07208554273,
			"0.013": 1.98251803569,
			"0.014": 0.0542596105424,
			"0.015": 0.0,
			"0.016": 0.0,
			"0.017": 0.0,
			"0.018": 0.0,
			"0.019": 0.0,
			"0.02": 0.0,
			"0.021": 0.0,
			"0.022": 0.0,
			"0.023": 0.0,
			"0.024": 0.0,
			"0.025": 0.0
		}
	}
}
