{
	 "smiles": "CC1=CC(O)=CC=C1Cl", 
	 "Tm": 339.65, 
	 "num_atms": 16, 
	 "gaussian": { 
		 "optdone": 1, 
		 "sigma_profile": "yes", 
		 "theory": "DFT", 
		 "functional": "B3LYP", 
		 "basiset": "6-31G**", 
		 "properties": { 
			 "R2extent": 1665.7053, 
			 "electric_dipole_moment_norm": 2.45963426956, 
			 "electric_quadrupole_moment_norm": 6.31894742738, 
			 "total_energy": -806.383391746, 
			 "HOMO_LUMO_gap": 0.21032, 
			 "cosmo_polarized_energy": -8.32, 
			 "cosmo_cavitation_energy": 21.49, 
			 "cosmo_dispersion_energy": -16.13, 
			 "cosmo_repulsion_energy": 1.32, 
			 "cosmo_total_nonelectrostatic_energy": 6.68, 
			 "SMD_solvation_energy": 3.84 
		},
		"coords": [
			{
				"x": -1.9378136567,
				"y": -0.6019063855,
				"z": -1.5926001428,
				"element": "C" 
			},
			{
				"x": -0.5964593795,
				"y": -0.2411833319,
				"z": -1.0075722054,
				"element": "C" 
			},
			{
				"x": -0.2192102886,
				"y": 1.1000231576,
				"z": -0.8633341534,
				"element": "C" 
			},
			{
				"x": 1.0187279535,
				"y": 1.4610754817,
				"z": -0.3240398265,
				"element": "C" 
			},
			{
				"x": 1.4055712334,
				"y": 2.7623128654,
				"z": -0.1749522928,
				"element": "O" 
			},
			{
				"x": 1.9146270438,
				"y": 0.4695811129,
				"z": 0.0867474049,
				"element": "C" 
			},
			{
				"x": 1.5595401471,
				"y": -0.8684187017,
				"z": -0.0477086408,
				"element": "C" 
			},
			{
				"x": 0.3209085462,
				"y": -1.2148972293,
				"z": -0.5875551421,
				"element": "C" 
			},
			{
				"x": -0.0824993602,
				"y": -2.9259135911,
				"z": -0.7371540609,
				"element": "Cl" 
			},
			{
				"x": -2.5027600457,
				"y": 0.2956594931,
				"z": -1.8558704552,
				"element": "H" 
			},
			{
				"x": -2.5337748089,
				"y": -1.188983994,
				"z": -0.885756285,
				"element": "H" 
			},
			{
				"x": -1.8256745987,
				"y": -1.2147950583,
				"z": -2.4933011484,
				"element": "H" 
			},
			{
				"x": -0.9132795787,
				"y": 1.8759391381,
				"z": -1.1817092182,
				"element": "H" 
			},
			{
				"x": 0.7021587826,
				"y": 3.3421487399,
				"z": -0.4942242652,
				"element": "H" 
			},
			{
				"x": 2.8731673197,
				"y": 0.7576475355,
				"z": 0.5041969768,
				"element": "H" 
			},
			{
				"x": 2.2432706906,
				"y": -1.6495892325,
				"z": 0.266233455,
				"element": "H" 
			}
		],
		 "valence_orbital": [ 
			{
				"type": "occ",
				"energy": -0.35032,
				"method": "rhf"
			},
			{
				"type": "occ",
				"energy": -0.30806,
				"method": "rhf"
			},
			{
				"type": "occ",
				"energy": -0.30679,
				"method": "rhf"
			},
			{
				"type": "occ",
				"energy": -0.25538,
				"method": "rhf"
			},
			{
				"type": "occ",
				"energy": -0.21953,
				"method": "rhf"
			},
			{
				"type": "unocc",
				"energy": -0.00921,
				"method": "rhf"
			},
			{
				"type": "unocc",
				"energy": 0.00343,
				"method": "rhf"
			},
			{
				"type": "unocc",
				"energy": 0.03482,
				"method": "rhf"
			},
			{
				"type": "unocc",
				"energy": 0.06722,
				"method": "rhf"
			},
			{
				"type": "unocc",
				"energy": 0.10395,
				"method": "rhf"
			}
		],
		"cosmo_sigma_profile": { 
			"-0.025": 0.0,
			"-0.024": 0.0,
			"-0.023": 0.0,
			"-0.022": 0.0,
			"-0.021": 0.0,
			"-0.02": 0.0,
			"-0.019": 0.0,
			"-0.018": 0.52502062402,
			"-0.017": 1.13734681821,
			"-0.016": 1.40472098403,
			"-0.015": 0.675550767079,
			"-0.014": 0.993902490352,
			"-0.013": 1.03824805596,
			"-0.012": 1.18690967645,
			"-0.011": 0.820855805739,
			"-0.01": 1.10927674645,
			"-0.009": 0.980073812832,
			"-0.008": 0.997553627028,
			"-0.007": 3.28515817344,
			"-0.006": 6.4640910641,
			"-0.005": 6.62921309295,
			"-0.004": 10.3727038678,
			"-0.003": 9.64765181542,
			"-0.002": 10.2792293103,
			"-0.001": 13.1148569025,
			"0.0": 14.9597994486,
			"0.001": 11.0073465867,
			"0.002": 12.666349824,
			"0.003": 17.9855817051,
			"0.004": 21.5635353757,
			"0.005": 12.655966893,
			"0.006": 3.07691544337,
			"0.007": 1.55087951832,
			"0.008": 1.32948990528,
			"0.009": 1.50791238422,
			"0.01": 1.74406381077,
			"0.011": 1.75586811116,
			"0.012": 0.442988818169,
			"0.013": 0.0,
			"0.014": 0.0,
			"0.015": 0.0,
			"0.016": 0.0,
			"0.017": 0.0,
			"0.018": 0.0,
			"0.019": 0.0,
			"0.02": 0.0,
			"0.021": 0.0,
			"0.022": 0.0,
			"0.023": 0.0,
			"0.024": 0.0,
			"0.025": 0.0
		}
	}
}
