{
	 "smiles": "CN1C=C(NC(=O)OCC(F)(F)F)C=CC1=O", 
	 "Tm": 482.15, 
	 "num_atms": 26, 
	 "gaussian": { 
		 "optdone": 1, 
		 "sigma_profile": "yes", 
		 "theory": "DFT", 
		 "functional": "B3LYP", 
		 "basiset": "6-31G**", 
		 "properties": { 
			 "R2extent": 5353.2297, 
			 "electric_dipole_moment_norm": 1.81081473652, 
			 "electric_quadrupole_moment_norm": 22.6613750911, 
			 "total_energy": -983.099345097, 
			 "HOMO_LUMO_gap": 0.16318, 
			 "cosmo_polarized_energy": -18.27, 
			 "cosmo_cavitation_energy": 32.57, 
			 "cosmo_dispersion_energy": -22.34, 
			 "cosmo_repulsion_energy": 1.67, 
			 "cosmo_total_nonelectrostatic_energy": 11.91, 
			 "SMD_solvation_energy": 8.8 
		},
		"coords": [
			{
				"x": -1.140981569,
				"y": -2.0258963901,
				"z": -0.3713584313,
				"element": "C" 
			},
			{
				"x": -1.4618982468,
				"y": -0.8671503939,
				"z": 0.4639056395,
				"element": "N" 
			},
			{
				"x": -0.4780117836,
				"y": -0.0185632741,
				"z": 0.883439701,
				"element": "C" 
			},
			{
				"x": -0.7672631041,
				"y": 1.0896757745,
				"z": 1.6369588231,
				"element": "C" 
			},
			{
				"x": 0.2218113023,
				"y": 1.9959281187,
				"z": 2.1040926384,
				"element": "N" 
			},
			{
				"x": 1.3652075166,
				"y": 2.4442126459,
				"z": 1.5067216299,
				"element": "C" 
			},
			{
				"x": 2.1545193663,
				"y": 3.2052726948,
				"z": 2.0287596726,
				"element": "O" 
			},
			{
				"x": 1.4985413333,
				"y": 1.935515481,
				"z": 0.240908103,
				"element": "O" 
			},
			{
				"x": 2.7535993718,
				"y": 2.1515564908,
				"z": -0.3889609081,
				"element": "C" 
			},
			{
				"x": 3.5588771583,
				"y": 0.8650070177,
				"z": -0.3217770556,
				"element": "C" 
			},
			{
				"x": 4.7226601812,
				"y": 1.0134167208,
				"z": -0.9816276351,
				"element": "F" 
			},
			{
				"x": 2.8878711661,
				"y": -0.1662342179,
				"z": -0.8857002828,
				"element": "F" 
			},
			{
				"x": 3.8294272978,
				"y": 0.5173887521,
				"z": 0.9495823955,
				"element": "F" 
			},
			{
				"x": -2.1272764612,
				"y": 1.3140774215,
				"z": 2.0013003863,
				"element": "C" 
			},
			{
				"x": -3.1091962442,
				"y": 0.4504212476,
				"z": 1.6145357797,
				"element": "C" 
			},
			{
				"x": -2.8317613472,
				"y": -0.7150896082,
				"z": 0.7996655506,
				"element": "C" 
			},
			{
				"x": -3.6548008844,
				"y": -1.5348833905,
				"z": 0.3951342983,
				"element": "O" 
			},
			{
				"x": -1.4249046761,
				"y": -2.9458635334,
				"z": 0.1449383167,
				"element": "H" 
			},
			{
				"x": -1.7121111163,
				"y": -1.9782541092,
				"z": -1.3011098437,
				"element": "H" 
			},
			{
				"x": -0.0720977032,
				"y": -2.0288631248,
				"z": -0.5862958141,
				"element": "H" 
			},
			{
				"x": 0.5264885359,
				"y": -0.2528500492,
				"z": 0.5595927433,
				"element": "H" 
			},
			{
				"x": 0.0855873558,
				"y": 2.3998853909,
				"z": 3.0199617264,
				"element": "H" 
			},
			{
				"x": 3.3051410479,
				"y": 2.9527360594,
				"z": 0.1062988791,
				"element": "H" 
			},
			{
				"x": 2.5675101606,
				"y": 2.3997437074,
				"z": -1.4356032036,
				"element": "H" 
			},
			{
				"x": -2.3740025154,
				"y": 2.1913632949,
				"z": 2.595145808,
				"element": "H" 
			},
			{
				"x": -4.1465361426,
				"y": 0.6044472736,
				"z": 1.8868910829,
				"element": "H" 
			}
		],
		 "valence_orbital": [ 
			{
				"type": "occ",
				"energy": -0.3113,
				"method": "rhf"
			},
			{
				"type": "occ",
				"energy": -0.29896,
				"method": "rhf"
			},
			{
				"type": "occ",
				"energy": -0.28672,
				"method": "rhf"
			},
			{
				"type": "occ",
				"energy": -0.25075,
				"method": "rhf"
			},
			{
				"type": "occ",
				"energy": -0.20917,
				"method": "rhf"
			},
			{
				"type": "unocc",
				"energy": -0.04599,
				"method": "rhf"
			},
			{
				"type": "unocc",
				"energy": -0.00093,
				"method": "rhf"
			},
			{
				"type": "unocc",
				"energy": 0.04391,
				"method": "rhf"
			},
			{
				"type": "unocc",
				"energy": 0.06518,
				"method": "rhf"
			},
			{
				"type": "unocc",
				"energy": 0.08068,
				"method": "rhf"
			}
		],
		"cosmo_sigma_profile": { 
			"-0.025": 0.0,
			"-0.024": 0.0,
			"-0.023": 0.0,
			"-0.022": 0.0,
			"-0.021": 0.0,
			"-0.02": 0.0,
			"-0.019": 0.0,
			"-0.018": 0.0,
			"-0.017": 0.0,
			"-0.016": 0.448050288317,
			"-0.015": 1.37879826815,
			"-0.014": 0.534504989613,
			"-0.013": 1.65885193012,
			"-0.012": 1.24496052013,
			"-0.011": 1.01733514126,
			"-0.01": 1.74485694265,
			"-0.009": 5.03720742647,
			"-0.008": 7.17145106869,
			"-0.007": 8.32026757563,
			"-0.006": 13.8533502669,
			"-0.005": 16.3715394278,
			"-0.004": 15.2050211735,
			"-0.003": 17.5913127514,
			"-0.002": 14.3569598559,
			"-0.001": 17.6436450026,
			"0.0": 18.359517169,
			"0.001": 19.5748966949,
			"0.002": 32.5134729244,
			"0.003": 21.4549152096,
			"0.004": 4.72397115076,
			"0.005": 3.58525193274,
			"0.006": 3.52490363838,
			"0.007": 2.65182001167,
			"0.008": 2.59998345868,
			"0.009": 3.06015236237,
			"0.01": 2.72240058188,
			"0.011": 3.29958559456,
			"0.012": 6.42672449504,
			"0.013": 2.91291979761,
			"0.014": 4.86122583881,
			"0.015": 3.55529683418,
			"0.016": 0.602590022248,
			"0.017": 0.0,
			"0.018": 0.0,
			"0.019": 0.0,
			"0.02": 0.0,
			"0.021": 0.0,
			"0.022": 0.0,
			"0.023": 0.0,
			"0.024": 0.0,
			"0.025": 0.0
		}
	}
}
