{
	 "smiles": "CC(C)(C)OC(=O)NC1(CC2=C(C1)C=CC=C2)C(O)=O", 
	 "Tm": 436.15, 
	 "num_atms": 39, 
	 "gaussian": { 
		 "optdone": 1, 
		 "sigma_profile": "yes", 
		 "theory": "DFT", 
		 "functional": "B3LYP", 
		 "basiset": "6-31G**", 
		 "properties": { 
			 "R2extent": 6574.1035, 
			 "electric_dipole_moment_norm": 6.07060736171, 
			 "electric_quadrupole_moment_norm": 16.6617544511, 
			 "total_energy": -938.757816741, 
			 "HOMO_LUMO_gap": 0.22999, 
			 "cosmo_polarized_energy": -14.89, 
			 "cosmo_cavitation_energy": 40.43, 
			 "cosmo_dispersion_energy": -28.03, 
			 "cosmo_repulsion_energy": 2.17, 
			 "cosmo_total_nonelectrostatic_energy": 14.57, 
			 "SMD_solvation_energy": 7.95 
		},
		"coords": [
			{
				"x": 1.0829158799,
				"y": -2.6280607333,
				"z": -2.2366935466,
				"element": "C" 
			},
			{
				"x": 1.7289810582,
				"y": -2.8743196328,
				"z": -0.8705889297,
				"element": "C" 
			},
			{
				"x": 3.2224441739,
				"y": -2.53722758,
				"z": -0.8564049192,
				"element": "C" 
			},
			{
				"x": 1.4874309519,
				"y": -4.3105675801,
				"z": -0.4014368061,
				"element": "C" 
			},
			{
				"x": 1.0232487201,
				"y": -2.0842753949,
				"z": 0.1650025465,
				"element": "O" 
			},
			{
				"x": 1.0214070816,
				"y": -0.7442357715,
				"z": 0.1519307439,
				"element": "C" 
			},
			{
				"x": 1.5146752661,
				"y": -0.0340565431,
				"z": -0.7340335361,
				"element": "O" 
			},
			{
				"x": 0.4102369204,
				"y": -0.255539734,
				"z": 1.2620211183,
				"element": "N" 
			},
			{
				"x": -0.0211750625,
				"y": 1.1439290405,
				"z": 1.4734564549,
				"element": "C" 
			},
			{
				"x": -0.9642068066,
				"y": 1.1432209181,
				"z": 2.7027416693,
				"element": "C" 
			},
			{
				"x": -2.3314358126,
				"y": 0.8933224968,
				"z": 2.1073877658,
				"element": "C" 
			},
			{
				"x": -2.3189817226,
				"y": 1.175923702,
				"z": 0.7348328599,
				"element": "C" 
			},
			{
				"x": -0.9416649706,
				"y": 1.6291229074,
				"z": 0.303457278,
				"element": "C" 
			},
			{
				"x": -3.4781836799,
				"y": 1.0438077191,
				"z": -0.0255728618,
				"element": "C" 
			},
			{
				"x": -4.6553411506,
				"y": 0.6204604695,
				"z": 0.6013032331,
				"element": "C" 
			},
			{
				"x": -4.6674638512,
				"y": 0.3377296024,
				"z": 1.9700200523,
				"element": "C" 
			},
			{
				"x": -3.5028501593,
				"y": 0.4741760934,
				"z": 2.7335017548,
				"element": "C" 
			},
			{
				"x": 1.1851835567,
				"y": 2.1008945319,
				"z": 1.678307265,
				"element": "C" 
			},
			{
				"x": 2.1294090748,
				"y": 2.0725776264,
				"z": 0.73594859,
				"element": "O" 
			},
			{
				"x": 1.2399695492,
				"y": 2.8705358844,
				"z": 2.6120330855,
				"element": "O" 
			},
			{
				"x": 1.2376936921,
				"y": -1.6006412002,
				"z": -2.5668994833,
				"element": "H" 
			},
			{
				"x": 1.5247334212,
				"y": -3.3048365837,
				"z": -2.9749404661,
				"element": "H" 
			},
			{
				"x": 0.0082962396,
				"y": -2.8303610269,
				"z": -2.1918826067,
				"element": "H" 
			},
			{
				"x": 3.4010765525,
				"y": -1.5108076678,
				"z": -1.1777403533,
				"element": "H" 
			},
			{
				"x": 3.6353399968,
				"y": -2.6731883414,
				"z": 0.1479520817,
				"element": "H" 
			},
			{
				"x": 3.7528476092,
				"y": -3.2129989405,
				"z": -1.5346767612,
				"element": "H" 
			},
			{
				"x": 1.9105700099,
				"y": -4.4693224529,
				"z": 0.5945245474,
				"element": "H" 
			},
			{
				"x": 0.4167032837,
				"y": -4.5300574214,
				"z": -0.362120235,
				"element": "H" 
			},
			{
				"x": 1.9597986025,
				"y": -5.0127914371,
				"z": -1.0942928412,
				"element": "H" 
			},
			{
				"x": 0.033127452,
				"y": -0.9514817069,
				"z": 1.8888610878,
				"element": "H" 
			},
			{
				"x": -0.6553680448,
				"y": 0.4107819826,
				"z": 3.457773944,
				"element": "H" 
			},
			{
				"x": -0.8987560451,
				"y": 2.1249798144,
				"z": 3.1821816038,
				"element": "H" 
			},
			{
				"x": -0.6144897916,
				"y": 1.2373490212,
				"z": -0.6619333713,
				"element": "H" 
			},
			{
				"x": -0.8990175282,
				"y": 2.7248180782,
				"z": 0.2383889128,
				"element": "H" 
			},
			{
				"x": -3.4715097322,
				"y": 1.2599024597,
				"z": -1.0908175475,
				"element": "H" 
			},
			{
				"x": -5.56498982,
				"y": 0.5059007078,
				"z": 0.0187278012,
				"element": "H" 
			},
			{
				"x": -5.5867208257,
				"y": 0.0056500429,
				"z": 2.4440346983,
				"element": "H" 
			},
			{
				"x": -3.5162265795,
				"y": 0.2532373181,
				"z": 3.7977790261,
				"element": "H" 
			},
			{
				"x": 1.9416924908,
				"y": 1.3753493316,
				"z": 0.0550661445,
				"element": "H" 
			}
		],
		 "valence_orbital": [ 
			{
				"type": "occ",
				"energy": -0.29639,
				"method": "rhf"
			},
			{
				"type": "occ",
				"energy": -0.28896,
				"method": "rhf"
			},
			{
				"type": "occ",
				"energy": -0.25239,
				"method": "rhf"
			},
			{
				"type": "occ",
				"energy": -0.25068,
				"method": "rhf"
			},
			{
				"type": "occ",
				"energy": -0.23975,
				"method": "rhf"
			},
			{
				"type": "unocc",
				"energy": -0.00976,
				"method": "rhf"
			},
			{
				"type": "unocc",
				"energy": -0.0039,
				"method": "rhf"
			},
			{
				"type": "unocc",
				"energy": 0.01615,
				"method": "rhf"
			},
			{
				"type": "unocc",
				"energy": 0.02723,
				"method": "rhf"
			},
			{
				"type": "unocc",
				"energy": 0.0701,
				"method": "rhf"
			}
		],
		"cosmo_sigma_profile": { 
			"-0.025": 0.0,
			"-0.024": 0.0,
			"-0.023": 0.0,
			"-0.022": 0.0,
			"-0.021": 0.0,
			"-0.02": 0.0,
			"-0.019": 0.0,
			"-0.018": 0.0,
			"-0.017": 0.0,
			"-0.016": 0.0,
			"-0.015": 0.321076000348,
			"-0.014": 0.644014864433,
			"-0.013": 1.18777241907,
			"-0.012": 0.661167207578,
			"-0.011": 1.0616199823,
			"-0.01": 0.995154674199,
			"-0.009": 1.18855029388,
			"-0.008": 1.55876344213,
			"-0.007": 1.93681855477,
			"-0.006": 6.54205647923,
			"-0.005": 16.2636407763,
			"-0.004": 33.5401025757,
			"-0.003": 37.4008695537,
			"-0.002": 35.0455427238,
			"-0.001": 33.8782520001,
			"0.0": 35.004688196,
			"0.001": 20.1502875507,
			"0.002": 12.6169842039,
			"0.003": 10.8732165367,
			"0.004": 12.1482162811,
			"0.005": 13.2895319537,
			"0.006": 11.9855368571,
			"0.007": 3.78995007505,
			"0.008": 3.98278193566,
			"0.009": 3.8934936295,
			"0.01": 4.84135716599,
			"0.011": 5.89612333064,
			"0.012": 5.19876518592,
			"0.013": 2.07060255584,
			"0.014": 0.267940172606,
			"0.015": 0.0,
			"0.016": 0.0,
			"0.017": 0.0,
			"0.018": 0.0,
			"0.019": 0.0,
			"0.02": 0.0,
			"0.021": 0.0,
			"0.022": 0.0,
			"0.023": 0.0,
			"0.024": 0.0,
			"0.025": 0.0
		}
	}
}
