{
	 "smiles": "COC1=C(CC(C)(C)C(O)=O)C=CC=C1", 
	 "Tm": 318.15, 
	 "num_atms": 31, 
	 "gaussian": { 
		 "optdone": 1, 
		 "sigma_profile": "yes", 
		 "theory": "DFT", 
		 "functional": "B3LYP", 
		 "basiset": "6-31G**", 
		 "properties": { 
			 "R2extent": 3638.3868, 
			 "electric_dipole_moment_norm": 5.8328833736, 
			 "electric_quadrupole_moment_norm": 14.4929553128, 
			 "total_energy": -692.599050093, 
			 "HOMO_LUMO_gap": 0.21419, 
			 "cosmo_polarized_energy": -14.05, 
			 "cosmo_cavitation_energy": 32.62, 
			 "cosmo_dispersion_energy": -22.55, 
			 "cosmo_repulsion_energy": 1.75, 
			 "cosmo_total_nonelectrostatic_energy": 11.81, 
			 "SMD_solvation_energy": 7.22 
		},
		"coords": [
			{
				"x": -1.000810383,
				"y": -3.4146189123,
				"z": 1.3302893341,
				"element": "C" 
			},
			{
				"x": -0.6368901368,
				"y": -2.1056486046,
				"z": 0.9178054527,
				"element": "O" 
			},
			{
				"x": -0.0619064997,
				"y": -1.9453608292,
				"z": -0.318692487,
				"element": "C" 
			},
			{
				"x": 0.3564464982,
				"y": -0.6342447806,
				"z": -0.6399679457,
				"element": "C" 
			},
			{
				"x": 0.1733760916,
				"y": 0.4989258516,
				"z": 0.3454116383,
				"element": "C" 
			},
			{
				"x": -1.1353738279,
				"y": 1.3550240646,
				"z": 0.1819065799,
				"element": "C" 
			},
			{
				"x": -1.0598917343,
				"y": 2.2329238202,
				"z": -1.0754772862,
				"element": "C" 
			},
			{
				"x": -2.4022424695,
				"y": 0.4719951154,
				"z": 0.1117231421,
				"element": "C" 
			},
			{
				"x": -1.2187561646,
				"y": 2.2775781932,
				"z": 1.4151346681,
				"element": "C" 
			},
			{
				"x": -1.4292358885,
				"y": 1.6596666043,
				"z": 2.611630069,
				"element": "O" 
			},
			{
				"x": -1.0986422796,
				"y": 3.4776539834,
				"z": 1.383683244,
				"element": "O" 
			},
			{
				"x": 0.9752411193,
				"y": -0.4316396912,
				"z": -1.8767650044,
				"element": "C" 
			},
			{
				"x": 1.1618855812,
				"y": -1.47274123,
				"z": -2.7896943766,
				"element": "C" 
			},
			{
				"x": 0.7302686681,
				"y": -2.7535097171,
				"z": -2.458270266,
				"element": "C" 
			},
			{
				"x": 0.1232293469,
				"y": -2.996136725,
				"z": -1.2231648721,
				"element": "C" 
			},
			{
				"x": -1.7784200518,
				"y": -3.841965037,
				"z": 0.6846960082,
				"element": "H" 
			},
			{
				"x": -0.1351646423,
				"y": -4.0884281749,
				"z": 1.3441740635,
				"element": "H" 
			},
			{
				"x": -1.3930700947,
				"y": -3.3139730248,
				"z": 2.3436291721,
				"element": "H" 
			},
			{
				"x": 0.2094048383,
				"y": 0.084019775,
				"z": 1.3565217813,
				"element": "H" 
			},
			{
				"x": 1.0222915964,
				"y": 1.1866996852,
				"z": 0.2613024257,
				"element": "H" 
			},
			{
				"x": -0.2031961614,
				"y": 2.9096804965,
				"z": -1.0316872544,
				"element": "H" 
			},
			{
				"x": -1.9576555848,
				"y": 2.849992587,
				"z": -1.1688240398,
				"element": "H" 
			},
			{
				"x": -0.9759490142,
				"y": 1.6084364138,
				"z": -1.9690936082,
				"element": "H" 
			},
			{
				"x": -2.478314445,
				"y": -0.239518656,
				"z": 0.9394330567,
				"element": "H" 
			},
			{
				"x": -3.3036407992,
				"y": 1.0928332805,
				"z": 0.1039923569,
				"element": "H" 
			},
			{
				"x": -2.3903092177,
				"y": -0.1184722016,
				"z": -0.8083657961,
				"element": "H" 
			},
			{
				"x": -1.5209070361,
				"y": 0.7050124807,
				"z": 2.4823722876,
				"element": "H" 
			},
			{
				"x": 1.3289211001,
				"y": 0.5661613931,
				"z": -2.1218046069,
				"element": "H" 
			},
			{
				"x": 1.645744465,
				"y": -1.2824085905,
				"z": -3.7425163086,
				"element": "H" 
			},
			{
				"x": 0.8680553667,
				"y": -3.5770806999,
				"z": -3.1529110741,
				"element": "H" 
			},
			{
				"x": -0.1978882408,
				"y": -4.00095687,
				"z": -0.976470354,
				"element": "H" 
			}
		],
		 "valence_orbital": [ 
			{
				"type": "occ",
				"energy": -0.32708,
				"method": "rhf"
			},
			{
				"type": "occ",
				"energy": -0.30584,
				"method": "rhf"
			},
			{
				"type": "occ",
				"energy": -0.25994,
				"method": "rhf"
			},
			{
				"type": "occ",
				"energy": -0.25088,
				"method": "rhf"
			},
			{
				"type": "occ",
				"energy": -0.22661,
				"method": "rhf"
			},
			{
				"type": "unocc",
				"energy": -0.01242,
				"method": "rhf"
			},
			{
				"type": "unocc",
				"energy": 0.00329,
				"method": "rhf"
			},
			{
				"type": "unocc",
				"energy": 0.02054,
				"method": "rhf"
			},
			{
				"type": "unocc",
				"energy": 0.05447,
				"method": "rhf"
			},
			{
				"type": "unocc",
				"energy": 0.08404,
				"method": "rhf"
			}
		],
		"cosmo_sigma_profile": { 
			"-0.025": 0.0,
			"-0.024": 0.0,
			"-0.023": 0.0,
			"-0.022": 0.0,
			"-0.021": 0.0,
			"-0.02": 0.0,
			"-0.019": 0.0,
			"-0.018": 0.0,
			"-0.017": 0.0,
			"-0.016": 0.120984612887,
			"-0.015": 0.840005309363,
			"-0.014": 0.837966403261,
			"-0.013": 0.479077271618,
			"-0.012": 0.847638246971,
			"-0.011": 0.968424813228,
			"-0.01": 0.787771463895,
			"-0.009": 1.34775286715,
			"-0.008": 1.32446406995,
			"-0.007": 1.1515815272,
			"-0.006": 6.88541390029,
			"-0.005": 20.1618597605,
			"-0.004": 27.3637729595,
			"-0.003": 30.0008074619,
			"-0.002": 25.1392328004,
			"-0.001": 19.4830120745,
			"0.0": 21.2887180451,
			"0.001": 16.6836791035,
			"0.002": 12.4343015021,
			"0.003": 10.6869678244,
			"0.004": 10.5997344932,
			"0.005": 9.18444547142,
			"0.006": 9.47018419402,
			"0.007": 3.96375053603,
			"0.008": 3.25640851523,
			"0.009": 3.09351863445,
			"0.01": 4.21696019092,
			"0.011": 5.1132364153,
			"0.012": 5.97665314757,
			"0.013": 2.28888503674,
			"0.014": 0.134212962495,
			"0.015": 0.0,
			"0.016": 0.0,
			"0.017": 0.0,
			"0.018": 0.0,
			"0.019": 0.0,
			"0.02": 0.0,
			"0.021": 0.0,
			"0.022": 0.0,
			"0.023": 0.0,
			"0.024": 0.0,
			"0.025": 0.0
		}
	}
}
