{
	 "smiles": "OC(=O)CC1=CC=C(S1)S(Cl)(=O)=O", 
	 "Tm": 359.15, 
	 "num_atms": 18, 
	 "gaussian": { 
		 "optdone": 1, 
		 "sigma_profile": "yes", 
		 "theory": "DFT", 
		 "functional": "B3LYP", 
		 "basiset": "6-31G**", 
		 "properties": { 
			 "R2extent": 4645.5847, 
			 "electric_dipole_moment_norm": 4.14666598607, 
			 "electric_quadrupole_moment_norm": 26.5924203064, 
			 "total_energy": -1789.02833893, 
			 "HOMO_LUMO_gap": 0.1692, 
			 "cosmo_polarized_energy": -19.94, 
			 "cosmo_cavitation_energy": 28.59, 
			 "cosmo_dispersion_energy": -21.25, 
			 "cosmo_repulsion_energy": 1.62, 
			 "cosmo_total_nonelectrostatic_energy": 8.96, 
			 "SMD_solvation_energy": 4.36 
		},
		"coords": [
			{
				"x": -1.7414400217,
				"y": 2.497235001,
				"z": -3.0919055125,
				"element": "O" 
			},
			{
				"x": -1.9639644457,
				"y": 1.2300274027,
				"z": -3.4979246309,
				"element": "C" 
			},
			{
				"x": -2.1700859943,
				"y": 0.9648717172,
				"z": -4.6530024234,
				"element": "O" 
			},
			{
				"x": -1.9988876118,
				"y": 0.144670934,
				"z": -2.3986886061,
				"element": "C" 
			},
			{
				"x": -1.2740397757,
				"y": 0.4689558974,
				"z": -1.1252917724,
				"element": "C" 
			},
			{
				"x": -1.7884570779,
				"y": 1.0649577314,
				"z": 0.0083475593,
				"element": "C" 
			},
			{
				"x": -0.8230372845,
				"y": 1.264128142,
				"z": 1.0307863562,
				"element": "C" 
			},
			{
				"x": 0.4141643716,
				"y": 0.8081772666,
				"z": 0.6508229572,
				"element": "C" 
			},
			{
				"x": 0.427074592,
				"y": 0.1350654411,
				"z": -0.9518759486,
				"element": "S" 
			},
			{
				"x": 1.8613614566,
				"y": 0.8701347315,
				"z": 1.6503580171,
				"element": "S" 
			},
			{
				"x": 2.7295737958,
				"y": 2.7159799145,
				"z": 1.0504110138,
				"element": "Cl" 
			},
			{
				"x": 2.7801562367,
				"y": -0.1705306711,
				"z": 1.2118037794,
				"element": "O" 
			},
			{
				"x": 1.4555946472,
				"y": 1.0454707511,
				"z": 3.0372224823,
				"element": "O" 
			},
			{
				"x": -1.5682581347,
				"y": 2.5183454409,
				"z": -2.1370100981,
				"element": "H" 
			},
			{
				"x": -1.6290904051,
				"y": -0.7728021581,
				"z": -2.8617341137,
				"element": "H" 
			},
			{
				"x": -3.0575397375,
				"y": -0.0273292862,
				"z": -2.1700007775,
				"element": "H" 
			},
			{
				"x": -2.8362829224,
				"y": 1.3262482648,
				"z": 0.1118947424,
				"element": "H" 
			},
			{
				"x": -1.0206416886,
				"y": 1.7057934792,
				"z": 1.9996869754,
				"element": "H" 
			}
		],
		 "valence_orbital": [ 
			{
				"type": "occ",
				"energy": -0.33292,
				"method": "rhf"
			},
			{
				"type": "occ",
				"energy": -0.32559,
				"method": "rhf"
			},
			{
				"type": "occ",
				"energy": -0.30732,
				"method": "rhf"
			},
			{
				"type": "occ",
				"energy": -0.30704,
				"method": "rhf"
			},
			{
				"type": "occ",
				"energy": -0.27763,
				"method": "rhf"
			},
			{
				"type": "unocc",
				"energy": -0.10843,
				"method": "rhf"
			},
			{
				"type": "unocc",
				"energy": -0.06797,
				"method": "rhf"
			},
			{
				"type": "unocc",
				"energy": -0.02528,
				"method": "rhf"
			},
			{
				"type": "unocc",
				"energy": -0.01309,
				"method": "rhf"
			},
			{
				"type": "unocc",
				"energy": 0.00237,
				"method": "rhf"
			}
		],
		"cosmo_sigma_profile": { 
			"-0.025": 0.0,
			"-0.024": 0.0,
			"-0.023": 0.0,
			"-0.022": 0.0,
			"-0.021": 0.0,
			"-0.02": 0.0,
			"-0.019": 0.0,
			"-0.018": 0.0,
			"-0.017": 0.0,
			"-0.016": 0.0807591925257,
			"-0.015": 0.613369274441,
			"-0.014": 0.654506253157,
			"-0.013": 1.14815244627,
			"-0.012": 1.92332863888,
			"-0.011": 2.09595856026,
			"-0.01": 5.24732673523,
			"-0.009": 10.5975689997,
			"-0.008": 9.68805764908,
			"-0.007": 9.1172641107,
			"-0.006": 9.05561781043,
			"-0.005": 9.7489361537,
			"-0.004": 9.27946536072,
			"-0.003": 9.39937748699,
			"-0.002": 13.5354686186,
			"-0.001": 18.4122597802,
			"0.0": 16.761049349,
			"0.001": 14.4191259478,
			"0.002": 12.6376705438,
			"0.003": 16.7912319291,
			"0.004": 8.42867183412,
			"0.005": 4.26872428656,
			"0.006": 5.79983535986,
			"0.007": 10.6144823253,
			"0.008": 12.1119539282,
			"0.009": 6.60986987019,
			"0.01": 4.6933425126,
			"0.011": 5.41221125405,
			"0.012": 4.30930046288,
			"0.013": 0.717361630679,
			"0.014": 0.0,
			"0.015": 0.0,
			"0.016": 0.0,
			"0.017": 0.0,
			"0.018": 0.0,
			"0.019": 0.0,
			"0.02": 0.0,
			"0.021": 0.0,
			"0.022": 0.0,
			"0.023": 0.0,
			"0.024": 0.0,
			"0.025": 0.0
		}
	}
}
