{
	 "smiles": "CC(=O)NCC1=CC=C(S1)S(=O)(=O)NCC(O)=O", 
	 "Tm": 466.15, 
	 "num_atms": 30, 
	 "gaussian": { 
		 "optdone": 1, 
		 "sigma_profile": "yes", 
		 "theory": "DFT", 
		 "functional": "B3LYP", 
		 "basiset": "6-31G**", 
		 "properties": { 
			 "R2extent": 7916.9646, 
			 "electric_dipole_moment_norm": 5.62731476461, 
			 "electric_quadrupole_moment_norm": 17.841115552, 
			 "total_energy": -1632.12010926, 
			 "HOMO_LUMO_gap": 0.19644, 
			 "cosmo_polarized_energy": -31.65, 
			 "cosmo_cavitation_energy": 38.41, 
			 "cosmo_dispersion_energy": -27.37, 
			 "cosmo_repulsion_energy": 2.1, 
			 "cosmo_total_nonelectrostatic_energy": 13.14, 
			 "SMD_solvation_energy": 6.58 
		},
		"coords": [
			{
				"x": -1.0419087035,
				"y": -2.6029113769,
				"z": -3.7102923801,
				"element": "C" 
			},
			{
				"x": -0.4737592644,
				"y": -1.2197664511,
				"z": -3.4395302927,
				"element": "C" 
			},
			{
				"x": 0.5549380323,
				"y": -0.8195880958,
				"z": -3.9721906916,
				"element": "O" 
			},
			{
				"x": -1.1936749953,
				"y": -0.4420268493,
				"z": -2.569919763,
				"element": "N" 
			},
			{
				"x": -0.708699993,
				"y": 0.8760877691,
				"z": -2.1735652369,
				"element": "C" 
			},
			{
				"x": 0.2972872265,
				"y": 0.8466521256,
				"z": -1.0475164964,
				"element": "C" 
			},
			{
				"x": 1.6439406519,
				"y": 0.5850206281,
				"z": -1.1405400327,
				"element": "C" 
			},
			{
				"x": 2.3060562963,
				"y": 0.6053085303,
				"z": 0.1167406958,
				"element": "C" 
			},
			{
				"x": 1.4488996116,
				"y": 0.8751320771,
				"z": 1.1558352761,
				"element": "C" 
			},
			{
				"x": -0.1827021887,
				"y": 1.1304130357,
				"z": 0.6030119303,
				"element": "S" 
			},
			{
				"x": 1.8879124043,
				"y": 0.9808119448,
				"z": 2.8722281248,
				"element": "S" 
			},
			{
				"x": 0.8663944822,
				"y": 1.8051948315,
				"z": 3.5160260675,
				"element": "O" 
			},
			{
				"x": 3.3202903498,
				"y": 1.2589186241,
				"z": 2.9278904058,
				"element": "O" 
			},
			{
				"x": 1.7103362997,
				"y": -0.5508763853,
				"z": 3.5280001167,
				"element": "N" 
			},
			{
				"x": 0.3821011673,
				"y": -1.1169678449,
				"z": 3.7078914853,
				"element": "C" 
			},
			{
				"x": -0.3748154581,
				"y": -0.6095511655,
				"z": 4.9325357403,
				"element": "C" 
			},
			{
				"x": 0.4295955353,
				"y": -0.3033555987,
				"z": 5.9631783584,
				"element": "O" 
			},
			{
				"x": -1.5833585406,
				"y": -0.564156741,
				"z": 4.9766822935,
				"element": "O" 
			},
			{
				"x": -1.1258506299,
				"y": -2.7391437306,
				"z": -4.7911864103,
				"element": "H" 
			},
			{
				"x": -0.3359354448,
				"y": -3.3527644572,
				"z": -3.3413272659,
				"element": "H" 
			},
			{
				"x": -2.0184636679,
				"y": -2.7773589283,
				"z": -3.2505373344,
				"element": "H" 
			},
			{
				"x": -1.9595327817,
				"y": -0.8516290215,
				"z": -2.056567304,
				"element": "H" 
			},
			{
				"x": -0.2307256043,
				"y": 1.3134442516,
				"z": -3.0532345509,
				"element": "H" 
			},
			{
				"x": -1.5700692747,
				"y": 1.4968684898,
				"z": -1.9114386451,
				"element": "H" 
			},
			{
				"x": 2.1258813705,
				"y": 0.3822305695,
				"z": -2.0896905813,
				"element": "H" 
			},
			{
				"x": 3.3695140257,
				"y": 0.4543971455,
				"z": 0.2595177613,
				"element": "H" 
			},
			{
				"x": 2.4505934139,
				"y": -1.1805126851,
				"z": 3.2429475904,
				"element": "H" 
			},
			{
				"x": -0.2801485223,
				"y": -0.9704093378,
				"z": 2.8465817264,
				"element": "H" 
			},
			{
				"x": 0.5045079829,
				"y": -2.1977534262,
				"z": 3.8379291163,
				"element": "H" 
			},
			{
				"x": -0.1520037808,
				"y": 0.0078920726,
				"z": 6.6770402966,
				"element": "H" 
			}
		],
		 "valence_orbital": [ 
			{
				"type": "occ",
				"energy": -0.27865,
				"method": "rhf"
			},
			{
				"type": "occ",
				"energy": -0.27389,
				"method": "rhf"
			},
			{
				"type": "occ",
				"energy": -0.2727,
				"method": "rhf"
			},
			{
				"type": "occ",
				"energy": -0.26063,
				"method": "rhf"
			},
			{
				"type": "occ",
				"energy": -0.24879,
				"method": "rhf"
			},
			{
				"type": "unocc",
				"energy": -0.05235,
				"method": "rhf"
			},
			{
				"type": "unocc",
				"energy": 0.00019,
				"method": "rhf"
			},
			{
				"type": "unocc",
				"energy": 0.0022,
				"method": "rhf"
			},
			{
				"type": "unocc",
				"energy": 0.01445,
				"method": "rhf"
			},
			{
				"type": "unocc",
				"energy": 0.0312,
				"method": "rhf"
			}
		],
		"cosmo_sigma_profile": { 
			"-0.025": 0.0,
			"-0.024": 0.0,
			"-0.023": 0.0,
			"-0.022": 0.0,
			"-0.021": 0.0,
			"-0.02": 0.0,
			"-0.019": 0.240807434903,
			"-0.018": 1.21197205624,
			"-0.017": 0.705960378756,
			"-0.016": 1.99543094745,
			"-0.015": 2.59828165685,
			"-0.014": 3.51625889142,
			"-0.013": 3.47092550505,
			"-0.012": 3.94771688281,
			"-0.011": 3.8852768252,
			"-0.01": 5.58824240528,
			"-0.009": 6.44785071646,
			"-0.008": 7.4947205878,
			"-0.007": 9.43255494731,
			"-0.006": 12.7941077877,
			"-0.005": 18.1636175529,
			"-0.004": 17.8461657811,
			"-0.003": 18.7862587059,
			"-0.002": 17.1986998967,
			"-0.001": 17.7099490279,
			"0.0": 13.6289445699,
			"0.001": 18.252716214,
			"0.002": 17.4030053861,
			"0.003": 13.7116274122,
			"0.004": 8.79533673752,
			"0.005": 7.19238060843,
			"0.006": 8.56425201145,
			"0.007": 8.86342223628,
			"0.008": 6.08628598891,
			"0.009": 11.2816222431,
			"0.01": 13.8722366086,
			"0.011": 12.9336640185,
			"0.012": 5.61068542675,
			"0.013": 2.81570493877,
			"0.014": 3.09436491452,
			"0.015": 1.34089454614,
			"0.016": 0.0737190679248,
			"0.017": 0.0,
			"0.018": 0.0,
			"0.019": 0.0,
			"0.02": 0.0,
			"0.021": 0.0,
			"0.022": 0.0,
			"0.023": 0.0,
			"0.024": 0.0,
			"0.025": 0.0
		}
	}
}
