{
	 "smiles": "NC1=C(C=CC=C1)N1CCOCC1", 
	 "Tm": 371.65, 
	 "num_atms": 27, 
	 "gaussian": { 
		 "optdone": 1, 
		 "sigma_profile": "yes", 
		 "theory": "DFT", 
		 "functional": "B3LYP", 
		 "basiset": "6-31G**", 
		 "properties": { 
			 "R2extent": 2651.0138, 
			 "electric_dipole_moment_norm": 1.52926629467, 
			 "electric_quadrupole_moment_norm": 5.52334291802, 
			 "total_energy": -574.206859146, 
			 "HOMO_LUMO_gap": 0.19487, 
			 "cosmo_polarized_energy": -9.43, 
			 "cosmo_cavitation_energy": 27.7, 
			 "cosmo_dispersion_energy": -20.84, 
			 "cosmo_repulsion_energy": 1.64, 
			 "cosmo_total_nonelectrostatic_energy": 8.5, 
			 "SMD_solvation_energy": 3.8 
		},
		"coords": [
			{
				"x": 2.4104275077,
				"y": -0.6262776118,
				"z": -0.7700630269,
				"element": "N" 
			},
			{
				"x": 1.9253362468,
				"y": 0.6791254461,
				"z": -0.9200993359,
				"element": "C" 
			},
			{
				"x": 0.5352664172,
				"y": 0.9252651717,
				"z": -0.7527802014,
				"element": "C" 
			},
			{
				"x": 0.0629258458,
				"y": 2.2308262832,
				"z": -0.9356686358,
				"element": "C" 
			},
			{
				"x": 0.9258809736,
				"y": 3.2840247828,
				"z": -1.2502456638,
				"element": "C" 
			},
			{
				"x": 2.2925557603,
				"y": 3.041812594,
				"z": -1.3684712021,
				"element": "C" 
			},
			{
				"x": 2.7843068909,
				"y": 1.7468294985,
				"z": -1.2061571096,
				"element": "C" 
			},
			{
				"x": -0.2961946301,
				"y": -0.2013897786,
				"z": -0.481523492,
				"element": "N" 
			},
			{
				"x": -1.7029509233,
				"y": -0.1713946987,
				"z": -0.893661632,
				"element": "C" 
			},
			{
				"x": -2.6509409676,
				"y": 0.3602253175,
				"z": 0.1922612952,
				"element": "C" 
			},
			{
				"x": -2.4618833706,
				"y": -0.332278044,
				"z": 1.4199248299,
				"element": "O" 
			},
			{
				"x": -1.1135391221,
				"y": -0.220661311,
				"z": 1.8677960185,
				"element": "C" 
			},
			{
				"x": -0.1542423554,
				"y": -0.8318845272,
				"z": 0.8474208731,
				"element": "C" 
			},
			{
				"x": 1.7174275005,
				"y": -1.3166820371,
				"z": -1.04159738,
				"element": "H" 
			},
			{
				"x": 3.2986356367,
				"y": -0.7849182265,
				"z": -1.2284712323,
				"element": "H" 
			},
			{
				"x": -0.996885083,
				"y": 2.433873428,
				"z": -0.8291302062,
				"element": "H" 
			},
			{
				"x": 0.5278651167,
				"y": 4.2851642104,
				"z": -1.3848534857,
				"element": "H" 
			},
			{
				"x": 2.9777352534,
				"y": 3.8519087518,
				"z": -1.6008004837,
				"element": "H" 
			},
			{
				"x": 3.8469381107,
				"y": 1.5477537354,
				"z": -1.3267542455,
				"element": "H" 
			},
			{
				"x": -1.7978604217,
				"y": 0.4111974878,
				"z": -1.8146976478,
				"element": "H" 
			},
			{
				"x": -2.0018306537,
				"y": -1.2045888217,
				"z": -1.1202767058,
				"element": "H" 
			},
			{
				"x": -3.6935581512,
				"y": 0.1969483592,
				"z": -0.0999725472,
				"element": "H" 
			},
			{
				"x": -2.5052937299,
				"y": 1.4410504635,
				"z": 0.3489709416,
				"element": "H" 
			},
			{
				"x": -1.0593623547,
				"y": -0.7535123725,
				"z": 2.822622696,
				"element": "H" 
			},
			{
				"x": -0.8555110535,
				"y": 0.8369930114,
				"z": 2.0438930028,
				"element": "H" 
			},
			{
				"x": 0.8826571869,
				"y": -0.74688928,
				"z": 1.1795513967,
				"element": "H" 
			},
			{
				"x": -0.3921056305,
				"y": -1.9002218321,
				"z": 0.7473831798,
				"element": "H" 
			}
		],
		 "valence_orbital": [ 
			{
				"type": "occ",
				"energy": -0.2985,
				"method": "rhf"
			},
			{
				"type": "occ",
				"energy": -0.27398,
				"method": "rhf"
			},
			{
				"type": "occ",
				"energy": -0.24853,
				"method": "rhf"
			},
			{
				"type": "occ",
				"energy": -0.21134,
				"method": "rhf"
			},
			{
				"type": "occ",
				"energy": -0.18423,
				"method": "rhf"
			},
			{
				"type": "unocc",
				"energy": 0.01064,
				"method": "rhf"
			},
			{
				"type": "unocc",
				"energy": 0.02236,
				"method": "rhf"
			},
			{
				"type": "unocc",
				"energy": 0.08809,
				"method": "rhf"
			},
			{
				"type": "unocc",
				"energy": 0.0943,
				"method": "rhf"
			},
			{
				"type": "unocc",
				"energy": 0.10772,
				"method": "rhf"
			}
		],
		"cosmo_sigma_profile": { 
			"-0.025": 0.0,
			"-0.024": 0.0,
			"-0.023": 0.0,
			"-0.022": 0.0,
			"-0.021": 0.0,
			"-0.02": 0.0,
			"-0.019": 0.0,
			"-0.018": 0.0,
			"-0.017": 0.0,
			"-0.016": 0.0,
			"-0.015": 0.0,
			"-0.014": 0.0,
			"-0.013": 0.0,
			"-0.012": 0.862602650828,
			"-0.011": 1.27914571221,
			"-0.01": 1.62411344427,
			"-0.009": 2.24432521108,
			"-0.008": 3.05953568055,
			"-0.007": 2.38273173298,
			"-0.006": 4.20295770576,
			"-0.005": 14.0497992119,
			"-0.004": 21.6494417004,
			"-0.003": 29.296617038,
			"-0.002": 24.891896671,
			"-0.001": 16.8429621774,
			"0.0": 11.4566453214,
			"0.001": 11.1204720834,
			"0.002": 8.97817975011,
			"0.003": 8.2774293461,
			"0.004": 9.15706156364,
			"0.005": 9.92786185646,
			"0.006": 9.61246400372,
			"0.007": 9.4155215399,
			"0.008": 6.23274276486,
			"0.009": 2.06289740709,
			"0.01": 1.35040073363,
			"0.011": 1.85036812263,
			"0.012": 1.89482524354,
			"0.013": 2.5954378678,
			"0.014": 1.04466949524,
			"0.015": 0.0,
			"0.016": 0.0,
			"0.017": 0.0,
			"0.018": 0.0,
			"0.019": 0.0,
			"0.02": 0.0,
			"0.021": 0.0,
			"0.022": 0.0,
			"0.023": 0.0,
			"0.024": 0.0,
			"0.025": 0.0
		}
	}
}
