{
	 "smiles": "O=S(=O)(CC#N)C1=CC=CC=C1", 
	 "Tm": 385.15, 
	 "num_atms": 19, 
	 "gaussian": { 
		 "optdone": 1, 
		 "sigma_profile": "yes", 
		 "theory": "DFT", 
		 "functional": "B3LYP", 
		 "basiset": "6-31G**", 
		 "properties": { 
			 "R2extent": 2361.5888, 
			 "electric_dipole_moment_norm": 4.34459931524, 
			 "electric_quadrupole_moment_norm": 16.7468738241, 
			 "total_energy": -912.362156589, 
			 "HOMO_LUMO_gap": 0.22615, 
			 "cosmo_polarized_energy": -16.65, 
			 "cosmo_cavitation_energy": 25.83, 
			 "cosmo_dispersion_energy": -18.34, 
			 "cosmo_repulsion_energy": 1.42, 
			 "cosmo_total_nonelectrostatic_energy": 8.91, 
			 "SMD_solvation_energy": 5.12 
		},
		"coords": [
			{
				"x": 0.6126802939,
				"y": -0.7545236471,
				"z": -2.2166341516,
				"element": "O" 
			},
			{
				"x": 0.3493235937,
				"y": 0.1140124997,
				"z": -1.0652940977,
				"element": "S" 
			},
			{
				"x": -0.4750128123,
				"y": 1.3246019139,
				"z": -1.1753201346,
				"element": "O" 
			},
			{
				"x": 1.9933381754,
				"y": 0.7337565247,
				"z": -0.4639750661,
				"element": "C" 
			},
			{
				"x": 2.9474499971,
				"y": -0.3252519607,
				"z": -0.1866424524,
				"element": "C" 
			},
			{
				"x": 3.6891333643,
				"y": -1.1875501764,
				"z": 0.0446381852,
				"element": "N" 
			},
			{
				"x": -0.2662689902,
				"y": -0.8847039964,
				"z": 0.2901337329,
				"element": "C" 
			},
			{
				"x": -1.0862827113,
				"y": -0.2866915111,
				"z": 1.2502029447,
				"element": "C" 
			},
			{
				"x": -1.562102751,
				"y": -1.0671753732,
				"z": 2.3034923952,
				"element": "C" 
			},
			{
				"x": -1.217353498,
				"y": -2.4189838422,
				"z": 2.3842573145,
				"element": "C" 
			},
			{
				"x": -0.402554473,
				"y": -3.0030044311,
				"z": 1.4111525239,
				"element": "C" 
			},
			{
				"x": 0.0791389758,
				"y": -2.2373345642,
				"z": 0.3494391385,
				"element": "C" 
			},
			{
				"x": 1.8039389786,
				"y": 1.3429631387,
				"z": 0.4235172345,
				"element": "H" 
			},
			{
				"x": 2.3433695308,
				"y": 1.3807462989,
				"z": -1.2744345534,
				"element": "H" 
			},
			{
				"x": -1.356767205,
				"y": 0.7594146379,
				"z": 1.1548453161,
				"element": "H" 
			},
			{
				"x": -2.2058758719,
				"y": -0.6221637836,
				"z": 3.055824125,
				"element": "H" 
			},
			{
				"x": -1.5905846856,
				"y": -3.0218116905,
				"z": 3.2068278298,
				"element": "H" 
			},
			{
				"x": -0.1447554131,
				"y": -4.0554216136,
				"z": 1.4746742178,
				"element": "H" 
			},
			{
				"x": 0.6996855019,
				"y": -2.6750784238,
				"z": -0.4243045021,
				"element": "H" 
			}
		],
		 "valence_orbital": [ 
			{
				"type": "occ",
				"energy": -0.33341,
				"method": "rhf"
			},
			{
				"type": "occ",
				"energy": -0.31737,
				"method": "rhf"
			},
			{
				"type": "occ",
				"energy": -0.30335,
				"method": "rhf"
			},
			{
				"type": "occ",
				"energy": -0.28822,
				"method": "rhf"
			},
			{
				"type": "occ",
				"energy": -0.28222,
				"method": "rhf"
			},
			{
				"type": "unocc",
				"energy": -0.05607,
				"method": "rhf"
			},
			{
				"type": "unocc",
				"energy": -0.03314,
				"method": "rhf"
			},
			{
				"type": "unocc",
				"energy": -0.01534,
				"method": "rhf"
			},
			{
				"type": "unocc",
				"energy": 0.01687,
				"method": "rhf"
			},
			{
				"type": "unocc",
				"energy": 0.053,
				"method": "rhf"
			}
		],
		"cosmo_sigma_profile": { 
			"-0.025": 0.0,
			"-0.024": 0.0,
			"-0.023": 0.0,
			"-0.022": 0.0,
			"-0.021": 0.0,
			"-0.02": 0.0,
			"-0.019": 0.0,
			"-0.018": 0.0,
			"-0.017": 0.0,
			"-0.016": 0.0,
			"-0.015": 0.0,
			"-0.014": 0.0,
			"-0.013": 0.574547595957,
			"-0.012": 4.24681675504,
			"-0.011": 4.66092063614,
			"-0.01": 4.18114555331,
			"-0.009": 3.35504434315,
			"-0.008": 5.85796465213,
			"-0.007": 11.966419443,
			"-0.006": 12.9782933829,
			"-0.005": 13.5401821009,
			"-0.004": 8.65968727055,
			"-0.003": 8.96934543072,
			"-0.002": 8.76167569961,
			"-0.001": 10.1192203359,
			"0.0": 11.661321855,
			"0.001": 13.0518227046,
			"0.002": 18.3088996672,
			"0.003": 10.9288432327,
			"0.004": 4.7536003656,
			"0.005": 4.66736889982,
			"0.006": 6.30003780925,
			"0.007": 5.2864936398,
			"0.008": 6.31711612664,
			"0.009": 7.30437643666,
			"0.01": 12.2741595818,
			"0.011": 8.09245805899,
			"0.012": 1.4514832077,
			"0.013": 0.0629686588521,
			"0.014": 0.0,
			"0.015": 0.0,
			"0.016": 0.0,
			"0.017": 0.0,
			"0.018": 0.0,
			"0.019": 0.0,
			"0.02": 0.0,
			"0.021": 0.0,
			"0.022": 0.0,
			"0.023": 0.0,
			"0.024": 0.0,
			"0.025": 0.0
		}
	}
}
