{
	 "smiles": "CC12CCC3C(CCC4CC=CCC34C)C1CC=C2CCC1=CC=CC=C1", 
	 "Tm": 391.15, 
	 "num_atms": 63, 
	 "gaussian": { 
		 "optdone": 1, 
		 "sigma_profile": "yes", 
		 "theory": "DFT", 
		 "functional": "B3LYP", 
		 "basiset": "6-31G**", 
		 "properties": { 
			 "R2extent": 10597.5024, 
			 "electric_dipole_moment_norm": 0.182722467146, 
			 "electric_quadrupole_moment_norm": 5.3261192251, 
			 "total_energy": -1050.55815378, 
			 "HOMO_LUMO_gap": 0.22358, 
			 "cosmo_polarized_energy": -5.12, 
			 "cosmo_cavitation_energy": 54.52, 
			 "cosmo_dispersion_energy": -36.03, 
			 "cosmo_repulsion_energy": 2.68, 
			 "cosmo_total_nonelectrostatic_energy": 21.18, 
			 "SMD_solvation_energy": 7.19 
		},
		"coords": [
			{
				"x": -0.4362700015,
				"y": 2.860571351,
				"z": 0.0755537754,
				"element": "C" 
			},
			{
				"x": 0.2147246372,
				"y": 1.5900553821,
				"z": -0.5372355642,
				"element": "C" 
			},
			{
				"x": 0.4858641849,
				"y": 0.5575785548,
				"z": 0.5720000587,
				"element": "C" 
			},
			{
				"x": -0.8393133714,
				"y": -0.0664442954,
				"z": 1.0740616896,
				"element": "C" 
			},
			{
				"x": -1.6763570615,
				"y": -0.7326291469,
				"z": -0.05046021,
				"element": "C" 
			},
			{
				"x": -1.9458301001,
				"y": 0.2450660019,
				"z": -1.2427516625,
				"element": "C" 
			},
			{
				"x": -3.1208910054,
				"y": 1.2040436353,
				"z": -0.980264036,
				"element": "C" 
			},
			{
				"x": -4.3948009005,
				"y": 0.4282085251,
				"z": -0.6087034037,
				"element": "C" 
			},
			{
				"x": -4.1909247611,
				"y": -0.4998455145,
				"z": 0.6075454827,
				"element": "C" 
			},
			{
				"x": -4.1366297255,
				"y": 0.3228728729,
				"z": 1.9156847355,
				"element": "C" 
			},
			{
				"x": -3.63211303,
				"y": -0.4475526319,
				"z": 3.1025131288,
				"element": "C" 
			},
			{
				"x": -3.0083689074,
				"y": -1.6220548069,
				"z": 2.9939311049,
				"element": "C" 
			},
			{
				"x": -2.7672267979,
				"y": -2.324518549,
				"z": 1.6849932269,
				"element": "C" 
			},
			{
				"x": -2.9875779495,
				"y": -1.4767644478,
				"z": 0.399638248,
				"element": "C" 
			},
			{
				"x": -3.3545632718,
				"y": -2.494845038,
				"z": -0.7108004865,
				"element": "C" 
			},
			{
				"x": -0.598493277,
				"y": 0.8616123385,
				"z": -1.6456604418,
				"element": "C" 
			},
			{
				"x": -0.4258876032,
				"y": 1.7536480196,
				"z": -2.8897672226,
				"element": "C" 
			},
			{
				"x": 0.9876919428,
				"y": 2.2575985721,
				"z": -2.6623233618,
				"element": "C" 
			},
			{
				"x": 1.3867338688,
				"y": 2.1104461946,
				"z": -1.3880272967,
				"element": "C" 
			},
			{
				"x": 2.7170842446,
				"y": 2.5374939157,
				"z": -0.8102625272,
				"element": "C" 
			},
			{
				"x": 3.9365495729,
				"y": 1.7522904429,
				"z": -1.3643170565,
				"element": "C" 
			},
			{
				"x": 3.9498741773,
				"y": 0.2839007273,
				"z": -0.9977296949,
				"element": "C" 
			},
			{
				"x": 3.4626074332,
				"y": -0.6904256678,
				"z": -1.8800437467,
				"element": "C" 
			},
			{
				"x": 3.4530955602,
				"y": -2.0409077998,
				"z": -1.5243639835,
				"element": "C" 
			},
			{
				"x": 3.9337230018,
				"y": -2.4413908453,
				"z": -0.2765362,
				"element": "C" 
			},
			{
				"x": 4.4262133346,
				"y": -1.4818841488,
				"z": 0.6108416464,
				"element": "C" 
			},
			{
				"x": 4.4338977768,
				"y": -0.1340854942,
				"z": 0.2504018897,
				"element": "C" 
			},
			{
				"x": 0.3281914584,
				"y": 3.4370825174,
				"z": 0.609995326,
				"element": "H" 
			},
			{
				"x": -1.2232428126,
				"y": 2.6349510306,
				"z": 0.7983147336,
				"element": "H" 
			},
			{
				"x": -0.8570975805,
				"y": 3.5134726424,
				"z": -0.6945395712,
				"element": "H" 
			},
			{
				"x": 1.0111016676,
				"y": 1.0113048054,
				"z": 1.422844204,
				"element": "H" 
			},
			{
				"x": 1.1400255572,
				"y": -0.232994503,
				"z": 0.184590615,
				"element": "H" 
			},
			{
				"x": -0.5983679407,
				"y": -0.8138788027,
				"z": 1.835693789,
				"element": "H" 
			},
			{
				"x": -1.4249962868,
				"y": 0.6968101792,
				"z": 1.5931067891,
				"element": "H" 
			},
			{
				"x": -1.0234181736,
				"y": -1.5209635387,
				"z": -0.4577840798,
				"element": "H" 
			},
			{
				"x": -2.2543217528,
				"y": -0.3736314806,
				"z": -2.0978836682,
				"element": "H" 
			},
			{
				"x": -3.3085435468,
				"y": 1.8091971191,
				"z": -1.8760357413,
				"element": "H" 
			},
			{
				"x": -2.8808975828,
				"y": 1.9136266434,
				"z": -0.1847069764,
				"element": "H" 
			},
			{
				"x": -4.7229579065,
				"y": -0.161831572,
				"z": -1.4731451645,
				"element": "H" 
			},
			{
				"x": -5.2116144733,
				"y": 1.1297897855,
				"z": -0.394526407,
				"element": "H" 
			},
			{
				"x": -5.0817337587,
				"y": -1.1384466908,
				"z": 0.6935469163,
				"element": "H" 
			},
			{
				"x": -3.5242256766,
				"y": 1.226864103,
				"z": 1.7875683473,
				"element": "H" 
			},
			{
				"x": -5.1479269487,
				"y": 0.7002413129,
				"z": 2.124925112,
				"element": "H" 
			},
			{
				"x": -3.7819224179,
				"y": -0.002963771,
				"z": 4.0853520782,
				"element": "H" 
			},
			{
				"x": -2.6707415902,
				"y": -2.1374629253,
				"z": 3.8923549437,
				"element": "H" 
			},
			{
				"x": -3.4334585592,
				"y": -3.2003182063,
				"z": 1.648073648,
				"element": "H" 
			},
			{
				"x": -1.7534842248,
				"y": -2.7492568693,
				"z": 1.6680353526,
				"element": "H" 
			},
			{
				"x": -2.5852458482,
				"y": -3.2726659028,
				"z": -0.7801964867,
				"element": "H" 
			},
			{
				"x": -3.4506629793,
				"y": -2.0430489235,
				"z": -1.7003327067,
				"element": "H" 
			},
			{
				"x": -4.3049964831,
				"y": -2.9895949336,
				"z": -0.4813490763,
				"element": "H" 
			},
			{
				"x": 0.0328381389,
				"y": -0.0115899271,
				"z": -1.8704038324,
				"element": "H" 
			},
			{
				"x": -0.5431029756,
				"y": 1.1966708197,
				"z": -3.8276352833,
				"element": "H" 
			},
			{
				"x": -1.1445247558,
				"y": 2.5866518354,
				"z": -2.9278083967,
				"element": "H" 
			},
			{
				"x": 1.5843157612,
				"y": 2.708829255,
				"z": -3.451980492,
				"element": "H" 
			},
			{
				"x": 2.7000602959,
				"y": 2.4335180065,
				"z": 0.2809071793,
				"element": "H" 
			},
			{
				"x": 2.8878326504,
				"y": 3.6026187758,
				"z": -1.0147096658,
				"element": "H" 
			},
			{
				"x": 3.957980733,
				"y": 1.8608918899,
				"z": -2.454227399,
				"element": "H" 
			},
			{
				"x": 4.8481460633,
				"y": 2.2287327997,
				"z": -0.9827004694,
				"element": "H" 
			},
			{
				"x": 3.0869683578,
				"y": -0.3849092878,
				"z": -2.8526356393,
				"element": "H" 
			},
			{
				"x": 3.0741271683,
				"y": -2.7802453159,
				"z": -2.2247890874,
				"element": "H" 
			},
			{
				"x": 3.9305917127,
				"y": -3.4918958225,
				"z": 0.000073228,
				"element": "H" 
			},
			{
				"x": 4.8096952002,
				"y": -1.7837552747,
				"z": 1.58170088,
				"element": "H" 
			},
			{
				"x": 4.8250975381,
				"y": 0.6059620791,
				"z": 0.9452889096,
				"element": "H" 
			}
		],
		 "valence_orbital": [ 
			{
				"type": "occ",
				"energy": -0.26325,
				"method": "rhf"
			},
			{
				"type": "occ",
				"energy": -0.24491,
				"method": "rhf"
			},
			{
				"type": "occ",
				"energy": -0.23655,
				"method": "rhf"
			},
			{
				"type": "occ",
				"energy": -0.23037,
				"method": "rhf"
			},
			{
				"type": "occ",
				"energy": -0.22064,
				"method": "rhf"
			},
			{
				"type": "unocc",
				"energy": 0.00294,
				"method": "rhf"
			},
			{
				"type": "unocc",
				"energy": 0.00414,
				"method": "rhf"
			},
			{
				"type": "unocc",
				"energy": 0.02455,
				"method": "rhf"
			},
			{
				"type": "unocc",
				"energy": 0.03535,
				"method": "rhf"
			},
			{
				"type": "unocc",
				"energy": 0.07383,
				"method": "rhf"
			}
		],
		"cosmo_sigma_profile": { 
			"-0.025": 0.0,
			"-0.024": 0.0,
			"-0.023": 0.0,
			"-0.022": 0.0,
			"-0.021": 0.0,
			"-0.02": 0.0,
			"-0.019": 0.0,
			"-0.018": 0.0,
			"-0.017": 0.0,
			"-0.016": 0.0,
			"-0.015": 0.0,
			"-0.014": 0.0,
			"-0.013": 0.0,
			"-0.012": 0.0,
			"-0.011": 0.0,
			"-0.01": 0.0,
			"-0.009": 0.0,
			"-0.008": 0.0,
			"-0.007": 0.0116239657951,
			"-0.006": 1.3088232339,
			"-0.005": 8.56799480044,
			"-0.004": 16.5678991319,
			"-0.003": 32.9896384713,
			"-0.002": 60.5910778384,
			"-0.001": 73.6117696812,
			"0.0": 71.0138910353,
			"0.001": 55.6349885338,
			"0.002": 35.9446134408,
			"0.003": 20.9274323212,
			"0.004": 18.0673892191,
			"0.005": 14.1062879904,
			"0.006": 7.63936799927,
			"0.007": 3.80792360447,
			"0.008": 0.73435513802,
			"0.009": 4.75591592816e-07,
			"0.01": 0.0,
			"0.011": 0.0,
			"0.012": 0.0,
			"0.013": 0.0,
			"0.014": 0.0,
			"0.015": 0.0,
			"0.016": 0.0,
			"0.017": 0.0,
			"0.018": 0.0,
			"0.019": 0.0,
			"0.02": 0.0,
			"0.021": 0.0,
			"0.022": 0.0,
			"0.023": 0.0,
			"0.024": 0.0,
			"0.025": 0.0
		}
	}
}
