{
	 "smiles": "CC1=CC=C(O)C=C1", 
	 "Tm": 308.65, 
	 "num_atms": 16, 
	 "gaussian": { 
		 "optdone": 1, 
		 "sigma_profile": "yes", 
		 "theory": "DFT", 
		 "functional": "B3LYP", 
		 "basiset": "6-31G**", 
		 "properties": { 
			 "R2extent": 1167.6301, 
			 "electric_dipole_moment_norm": 1.2972420283, 
			 "electric_quadrupole_moment_norm": 7.08582725375, 
			 "total_energy": -346.791639026, 
			 "HOMO_LUMO_gap": 0.21287, 
			 "cosmo_polarized_energy": -7.55, 
			 "cosmo_cavitation_energy": 19.44, 
			 "cosmo_dispersion_energy": -14.61, 
			 "cosmo_repulsion_energy": 1.21, 
			 "cosmo_total_nonelectrostatic_energy": 6.05, 
			 "SMD_solvation_energy": 3.8 
		},
		"coords": [
			{
				"x": -1.9476342056,
				"y": -1.5352963643,
				"z": -1.5182301039,
				"element": "C" 
			},
			{
				"x": -1.0958114596,
				"y": -0.3990015307,
				"z": -1.0013121117,
				"element": "C" 
			},
			{
				"x": -0.3264225611,
				"y": 0.388098111,
				"z": -1.8633132359,
				"element": "C" 
			},
			{
				"x": 0.469752167,
				"y": 1.431385945,
				"z": -1.3848893864,
				"element": "C" 
			},
			{
				"x": 0.5073592108,
				"y": 1.7065184293,
				"z": -0.0162636931,
				"element": "C" 
			},
			{
				"x": 1.2637571275,
				"y": 2.7132538118,
				"z": 0.5199556669,
				"element": "O" 
			},
			{
				"x": -0.2563170898,
				"y": 0.9319745693,
				"z": 0.8649402192,
				"element": "C" 
			},
			{
				"x": -1.0431889626,
				"y": -0.102773605,
				"z": 0.3702481436,
				"element": "C" 
			},
			{
				"x": -1.5695332683,
				"y": -2.5085394973,
				"z": -1.1818554498,
				"element": "H" 
			},
			{
				"x": -1.9686879477,
				"y": -1.5514081712,
				"z": -2.6117347602,
				"element": "H" 
			},
			{
				"x": -2.9826904624,
				"y": -1.4552415184,
				"z": -1.166895298,
				"element": "H" 
			},
			{
				"x": -0.345499529,
				"y": 0.1874590815,
				"z": -2.9317472645,
				"element": "H" 
			},
			{
				"x": 1.0581614153,
				"y": 2.0297604043,
				"z": -2.0780324635,
				"element": "H" 
			},
			{
				"x": 1.7356342965,
				"y": 3.1643489239,
				"z": -0.1918362681,
				"element": "H" 
			},
			{
				"x": -0.2208111929,
				"y": 1.1567199053,
				"z": 1.9260242239,
				"element": "H" 
			},
			{
				"x": -1.6322675382,
				"y": -0.6952584946,
				"z": 1.0666417815,
				"element": "H" 
			}
		],
		 "valence_orbital": [ 
			{
				"type": "occ",
				"energy": -0.34939,
				"method": "rhf"
			},
			{
				"type": "occ",
				"energy": -0.33079,
				"method": "rhf"
			},
			{
				"type": "occ",
				"energy": -0.31905,
				"method": "rhf"
			},
			{
				"type": "occ",
				"energy": -0.24656,
				"method": "rhf"
			},
			{
				"type": "occ",
				"energy": -0.21091,
				"method": "rhf"
			},
			{
				"type": "unocc",
				"energy": 0.00196,
				"method": "rhf"
			},
			{
				"type": "unocc",
				"energy": 0.01928,
				"method": "rhf"
			},
			{
				"type": "unocc",
				"energy": 0.07414,
				"method": "rhf"
			},
			{
				"type": "unocc",
				"energy": 0.09789,
				"method": "rhf"
			},
			{
				"type": "unocc",
				"energy": 0.12628,
				"method": "rhf"
			}
		],
		"cosmo_sigma_profile": { 
			"-0.025": 0.0,
			"-0.024": 0.0,
			"-0.023": 0.0,
			"-0.022": 0.0,
			"-0.021": 0.0,
			"-0.02": 0.0,
			"-0.019": 0.0,
			"-0.018": 0.051076956659,
			"-0.017": 0.99893626826,
			"-0.016": 1.05703087412,
			"-0.015": 1.28643711167,
			"-0.014": 0.983292479642,
			"-0.013": 0.612038956527,
			"-0.012": 1.08663085284,
			"-0.011": 0.863411529074,
			"-0.01": 0.713273113877,
			"-0.009": 1.58001938249,
			"-0.008": 1.17883082065,
			"-0.007": 0.862480123167,
			"-0.006": 2.54692003444,
			"-0.005": 7.33969627973,
			"-0.004": 12.4646162806,
			"-0.003": 13.0010564372,
			"-0.002": 13.4148436489,
			"-0.001": 11.8002377278,
			"0.0": 13.1181667612,
			"0.001": 10.6048978052,
			"0.002": 7.49853132836,
			"0.003": 7.81419367156,
			"0.004": 10.6957479654,
			"0.005": 9.34717876722,
			"0.006": 10.7963826793,
			"0.007": 4.50608487458,
			"0.008": 1.17229443594,
			"0.009": 1.81601722046,
			"0.01": 1.12858715237,
			"0.011": 2.1901862657,
			"0.012": 1.37650045113,
			"0.013": 0.0,
			"0.014": 0.0,
			"0.015": 0.0,
			"0.016": 0.0,
			"0.017": 0.0,
			"0.018": 0.0,
			"0.019": 0.0,
			"0.02": 0.0,
			"0.021": 0.0,
			"0.022": 0.0,
			"0.023": 0.0,
			"0.024": 0.0,
			"0.025": 0.0
		}
	}
}
