{
	 "smiles": "COC(=O)C1=CC2=C(N1)C=C(OC)C(OC)=C2", 
	 "Tm": 438.15, 
	 "num_atms": 30, 
	 "gaussian": { 
		 "optdone": 1, 
		 "sigma_profile": "yes", 
		 "theory": "DFT", 
		 "functional": "B3LYP", 
		 "basiset": "6-31G**", 
		 "properties": { 
			 "R2extent": 5822.8746, 
			 "electric_dipole_moment_norm": 0.515908189507, 
			 "electric_quadrupole_moment_norm": 14.4795769596, 
			 "total_energy": -820.742521553, 
			 "HOMO_LUMO_gap": 0.16429, 
			 "cosmo_polarized_energy": -11.59, 
			 "cosmo_cavitation_energy": 34.54, 
			 "cosmo_dispersion_energy": -24.94, 
			 "cosmo_repulsion_energy": 1.94, 
			 "cosmo_total_nonelectrostatic_energy": 11.54, 
			 "SMD_solvation_energy": 8.56 
		},
		"coords": [
			{
				"x": -4.4467180514,
				"y": 1.0531170722,
				"z": -3.6708345267,
				"element": "C" 
			},
			{
				"x": -3.5362319921,
				"y": 0.5453144986,
				"z": -2.683602541,
				"element": "O" 
			},
			{
				"x": -2.4229929996,
				"y": 1.285362701,
				"z": -2.497545931,
				"element": "C" 
			},
			{
				"x": -2.1766267266,
				"y": 2.3149794022,
				"z": -3.1057847351,
				"element": "O" 
			},
			{
				"x": -1.536062013,
				"y": 0.7189779939,
				"z": -1.4823330966,
				"element": "C" 
			},
			{
				"x": -1.6173540921,
				"y": -0.4106477017,
				"z": -0.6935889946,
				"element": "C" 
			},
			{
				"x": -0.4390794099,
				"y": -0.4398857619,
				"z": 0.1125815894,
				"element": "C" 
			},
			{
				"x": 0.3310066573,
				"y": 0.7108413704,
				"z": -0.2325162866,
				"element": "C" 
			},
			{
				"x": -0.3598659443,
				"y": 1.3926434694,
				"z": -1.2006097493,
				"element": "N" 
			},
			{
				"x": 1.5684512982,
				"y": 0.9850003447,
				"z": 0.3663322918,
				"element": "C" 
			},
			{
				"x": 2.0289801128,
				"y": 0.103161453,
				"z": 1.3323453317,
				"element": "C" 
			},
			{
				"x": 3.2253834804,
				"y": 0.3767428953,
				"z": 1.9565246602,
				"element": "O" 
			},
			{
				"x": 4.2925604938,
				"y": -0.5254533912,
				"z": 1.638858358,
				"element": "C" 
			},
			{
				"x": 1.2616572276,
				"y": -1.0404046943,
				"z": 1.7123426895,
				"element": "C" 
			},
			{
				"x": 1.7499620411,
				"y": -1.9098585515,
				"z": 2.6678245925,
				"element": "O" 
			},
			{
				"x": 1.6915301938,
				"y": -1.4098714249,
				"z": 4.0077889143,
				"element": "C" 
			},
			{
				"x": 0.0476670413,
				"y": -1.3121385642,
				"z": 1.1076493331,
				"element": "C" 
			},
			{
				"x": -3.9634961285,
				"y": 1.1086401395,
				"z": -4.6496715155,
				"element": "H" 
			},
			{
				"x": -4.7983972879,
				"y": 2.050612315,
				"z": -3.3951126764,
				"element": "H" 
			},
			{
				"x": -5.2771219744,
				"y": 0.3476616102,
				"z": -3.6938339587,
				"element": "H" 
			},
			{
				"x": -2.4289213823,
				"y": -1.1229312633,
				"z": -0.7012673924,
				"element": "H" 
			},
			{
				"x": -0.0991920139,
				"y": 2.2470330793,
				"z": -1.6690528945,
				"element": "H" 
			},
			{
				"x": 2.1694054525,
				"y": 1.8493109095,
				"z": 0.1039631086,
				"element": "H" 
			},
			{
				"x": 4.5254206572,
				"y": -0.4866716245,
				"z": 0.5670867906,
				"element": "H" 
			},
			{
				"x": 4.0429454083,
				"y": -1.5520085883,
				"z": 1.9225770246,
				"element": "H" 
			},
			{
				"x": 5.1597472002,
				"y": -0.1842975861,
				"z": 2.2081996949,
				"element": "H" 
			},
			{
				"x": 2.1018564935,
				"y": -2.1945179425,
				"z": 4.6473681347,
				"element": "H" 
			},
			{
				"x": 2.2854071395,
				"y": -0.4967052846,
				"z": 4.1183642433,
				"element": "H" 
			},
			{
				"x": 0.6538031344,
				"y": -1.2081796164,
				"z": 4.3030342634,
				"element": "H" 
			},
			{
				"x": -0.505924016,
				"y": -2.1939272587,
				"z": 1.414213278,
				"element": "H" 
			}
		],
		 "valence_orbital": [ 
			{
				"type": "occ",
				"energy": -0.27994,
				"method": "rhf"
			},
			{
				"type": "occ",
				"energy": -0.27838,
				"method": "rhf"
			},
			{
				"type": "occ",
				"energy": -0.25881,
				"method": "rhf"
			},
			{
				"type": "occ",
				"energy": -0.21564,
				"method": "rhf"
			},
			{
				"type": "occ",
				"energy": -0.2091,
				"method": "rhf"
			},
			{
				"type": "unocc",
				"energy": -0.04481,
				"method": "rhf"
			},
			{
				"type": "unocc",
				"energy": 0.01668,
				"method": "rhf"
			},
			{
				"type": "unocc",
				"energy": 0.03069,
				"method": "rhf"
			},
			{
				"type": "unocc",
				"energy": 0.08983,
				"method": "rhf"
			},
			{
				"type": "unocc",
				"energy": 0.09891,
				"method": "rhf"
			}
		],
		"cosmo_sigma_profile": { 
			"-0.025": 0.0,
			"-0.024": 0.0,
			"-0.023": 0.0,
			"-0.022": 0.0,
			"-0.021": 0.0,
			"-0.02": 0.0,
			"-0.019": 0.0,
			"-0.018": 0.0,
			"-0.017": 0.0,
			"-0.016": 0.0460144122913,
			"-0.015": 0.757572572474,
			"-0.014": 1.03547428384,
			"-0.013": 0.812757112025,
			"-0.012": 0.828503309552,
			"-0.011": 0.944267960517,
			"-0.01": 1.09615492929,
			"-0.009": 1.14636394909,
			"-0.008": 1.17534631639,
			"-0.007": 4.20475650778,
			"-0.006": 11.4552922361,
			"-0.005": 17.7106651698,
			"-0.004": 24.070472869,
			"-0.003": 29.276949257,
			"-0.002": 26.1952887132,
			"-0.001": 18.8749605597,
			"0.0": 19.7843166124,
			"0.001": 13.5853991076,
			"0.002": 16.7833734742,
			"0.003": 23.1257930069,
			"0.004": 21.2156648211,
			"0.005": 8.8943052069,
			"0.006": 5.59685121797,
			"0.007": 5.44627163271,
			"0.008": 2.92657220035,
			"0.009": 3.50001078968,
			"0.01": 3.84779913884,
			"0.011": 4.96557982429,
			"0.012": 5.0825834562,
			"0.013": 0.317444476764,
			"0.014": 0.0,
			"0.015": 0.0,
			"0.016": 0.0,
			"0.017": 0.0,
			"0.018": 0.0,
			"0.019": 0.0,
			"0.02": 0.0,
			"0.021": 0.0,
			"0.022": 0.0,
			"0.023": 0.0,
			"0.024": 0.0,
			"0.025": 0.0
		}
	}
}
