{
	 "smiles": "CCOC(=O)C1=NN(C(C1)C#N)C1=CC=CC=C1", 
	 "Tm": 373.15, 
	 "num_atms": 31, 
	 "gaussian": { 
		 "optdone": 1, 
		 "sigma_profile": "yes", 
		 "theory": "DFT", 
		 "functional": "B3LYP", 
		 "basiset": "6-31G**", 
		 "properties": { 
			 "R2extent": 6350.3915, 
			 "electric_dipole_moment_norm": 3.03445458855, 
			 "electric_quadrupole_moment_norm": 18.2864317736, 
			 "total_energy": -817.87333666, 
			 "HOMO_LUMO_gap": 0.14723, 
			 "cosmo_polarized_energy": -15.84, 
			 "cosmo_cavitation_energy": 36.46, 
			 "cosmo_dispersion_energy": -25.47, 
			 "cosmo_repulsion_energy": 2.0, 
			 "cosmo_total_nonelectrostatic_energy": 12.99, 
			 "SMD_solvation_energy": 7.48 
		},
		"coords": [
			{
				"x": 1.7670877511,
				"y": 3.4297937464,
				"z": 4.7304733892,
				"element": "C" 
			},
			{
				"x": 0.7386865173,
				"y": 2.31100116,
				"z": 4.8002902485,
				"element": "C" 
			},
			{
				"x": 0.6734913887,
				"y": 1.576717079,
				"z": 3.5531079525,
				"element": "O" 
			},
			{
				"x": 1.5652412473,
				"y": 0.5817332107,
				"z": 3.4015197781,
				"element": "C" 
			},
			{
				"x": 2.4020744925,
				"y": 0.2567505986,
				"z": 4.2281929091,
				"element": "O" 
			},
			{
				"x": 1.4465362921,
				"y": -0.1210711203,
				"z": 2.1144698242,
				"element": "C" 
			},
			{
				"x": 0.5584235582,
				"y": 0.149727854,
				"z": 1.2148205114,
				"element": "N" 
			},
			{
				"x": 0.709867675,
				"y": -0.66991238,
				"z": 0.1561449039,
				"element": "N" 
			},
			{
				"x": 1.8633035523,
				"y": -1.5908584579,
				"z": 0.3039981258,
				"element": "C" 
			},
			{
				"x": 2.3523513653,
				"y": -1.276501542,
				"z": 1.7477185358,
				"element": "C" 
			},
			{
				"x": 2.9030023123,
				"y": -1.3393114526,
				"z": -0.7118302605,
				"element": "C" 
			},
			{
				"x": 3.738828439,
				"y": -1.1542283459,
				"z": -1.4952854855,
				"element": "N" 
			},
			{
				"x": -0.208937909,
				"y": -0.6723017034,
				"z": -0.907596074,
				"element": "C" 
			},
			{
				"x": -0.0470961293,
				"y": -1.5611072157,
				"z": -1.9813847835,
				"element": "C" 
			},
			{
				"x": -0.9724994712,
				"y": -1.5615761883,
				"z": -3.0259099975,
				"element": "C" 
			},
			{
				"x": -2.0579853182,
				"y": -0.6877209044,
				"z": -3.018115149,
				"element": "C" 
			},
			{
				"x": -2.2108407456,
				"y": 0.1970861713,
				"z": -1.9464363163,
				"element": "C" 
			},
			{
				"x": -1.3009340851,
				"y": 0.2126174155,
				"z": -0.8947321544,
				"element": "C" 
			},
			{
				"x": 1.7375070164,
				"y": 4.0177024893,
				"z": 5.6539363935,
				"element": "H" 
			},
			{
				"x": 1.5585362352,
				"y": 4.0982327684,
				"z": 3.8901607277,
				"element": "H" 
			},
			{
				"x": 2.7739915301,
				"y": 3.0206795904,
				"z": 4.6174779348,
				"element": "H" 
			},
			{
				"x": 0.9678049107,
				"y": 1.613699206,
				"z": 5.6097023517,
				"element": "H" 
			},
			{
				"x": -0.2723168431,
				"y": 2.7030084158,
				"z": 4.9324887433,
				"element": "H" 
			},
			{
				"x": 1.5295563318,
				"y": -2.6291392519,
				"z": 0.1958827262,
				"element": "H" 
			},
			{
				"x": 3.4096336689,
				"y": -1.0060750575,
				"z": 1.7828828887,
				"element": "H" 
			},
			{
				"x": 2.2095653854,
				"y": -2.1263325503,
				"z": 2.4216331991,
				"element": "H" 
			},
			{
				"x": 0.7970340952,
				"y": -2.2399295719,
				"z": -2.023249513,
				"element": "H" 
			},
			{
				"x": -0.8326199176,
				"y": -2.2527168934,
				"z": -3.8518169261,
				"element": "H" 
			},
			{
				"x": -2.7733193564,
				"y": -0.6920851229,
				"z": -3.8343592611,
				"element": "H" 
			},
			{
				"x": -3.050748189,
				"y": 0.8856195568,
				"z": -1.9255683051,
				"element": "H" 
			},
			{
				"x": -1.4194258001,
				"y": 0.8945984959,
				"z": -0.0622169174,
				"element": "H" 
			}
		],
		 "valence_orbital": [ 
			{
				"type": "occ",
				"energy": -0.30216,
				"method": "rhf"
			},
			{
				"type": "occ",
				"energy": -0.28845,
				"method": "rhf"
			},
			{
				"type": "occ",
				"energy": -0.28189,
				"method": "rhf"
			},
			{
				"type": "occ",
				"energy": -0.25797,
				"method": "rhf"
			},
			{
				"type": "occ",
				"energy": -0.21249,
				"method": "rhf"
			},
			{
				"type": "unocc",
				"energy": -0.06526,
				"method": "rhf"
			},
			{
				"type": "unocc",
				"energy": -0.00937,
				"method": "rhf"
			},
			{
				"type": "unocc",
				"energy": 0.0034,
				"method": "rhf"
			},
			{
				"type": "unocc",
				"energy": 0.01219,
				"method": "rhf"
			},
			{
				"type": "unocc",
				"energy": 0.01763,
				"method": "rhf"
			}
		],
		"cosmo_sigma_profile": { 
			"-0.025": 0.0,
			"-0.024": 0.0,
			"-0.023": 0.0,
			"-0.022": 0.0,
			"-0.021": 0.0,
			"-0.02": 0.0,
			"-0.019": 0.0,
			"-0.018": 0.0,
			"-0.017": 0.0,
			"-0.016": 0.0,
			"-0.015": 0.0,
			"-0.014": 0.0,
			"-0.013": 0.0,
			"-0.012": 0.0525896814485,
			"-0.011": 2.80373782846,
			"-0.01": 3.84451200974,
			"-0.009": 3.64928468331,
			"-0.008": 6.09381443714,
			"-0.007": 8.7061423692,
			"-0.006": 14.0952018603,
			"-0.005": 19.687508055,
			"-0.004": 26.713180563,
			"-0.003": 23.3318709712,
			"-0.002": 21.4874339231,
			"-0.001": 19.854605356,
			"0.0": 19.025587327,
			"0.001": 15.4581027955,
			"0.002": 16.2226987539,
			"0.003": 14.5151582087,
			"0.004": 14.7958632512,
			"0.005": 14.6188519626,
			"0.006": 9.41855252036,
			"0.007": 5.58483054412,
			"0.008": 7.0175309609,
			"0.009": 5.64558975925,
			"0.01": 5.45831338097,
			"0.011": 7.05862395168,
			"0.012": 6.07978926095,
			"0.013": 0.324009195863,
			"0.014": 0.0,
			"0.015": 0.0,
			"0.016": 0.0,
			"0.017": 0.0,
			"0.018": 0.0,
			"0.019": 0.0,
			"0.02": 0.0,
			"0.021": 0.0,
			"0.022": 0.0,
			"0.023": 0.0,
			"0.024": 0.0,
			"0.025": 0.0
		}
	}
}
