{
	 "smiles": "CC1=NC(=CS1)C1=CNC(=C1)C(O)=O", 
	 "Tm": 483.15, 
	 "num_atms": 22, 
	 "gaussian": { 
		 "optdone": 1, 
		 "sigma_profile": "yes", 
		 "theory": "DFT", 
		 "functional": "B3LYP", 
		 "basiset": "6-31G**", 
		 "properties": { 
			 "R2extent": 5026.1592, 
			 "electric_dipole_moment_norm": 5.72758922584, 
			 "electric_quadrupole_moment_norm": 42.6581710358, 
			 "total_energy": -1005.91517658, 
			 "HOMO_LUMO_gap": 0.17699, 
			 "cosmo_polarized_energy": -23.5, 
			 "cosmo_cavitation_energy": 29.26, 
			 "cosmo_dispersion_energy": -21.89, 
			 "cosmo_repulsion_energy": 1.68, 
			 "cosmo_total_nonelectrostatic_energy": 9.04, 
			 "SMD_solvation_energy": 4.94 
		},
		"coords": [
			{
				"x": -0.1382243903,
				"y": 3.7186253853,
				"z": 1.6031009582,
				"element": "C" 
			},
			{
				"x": -0.2997915097,
				"y": 2.276783371,
				"z": 1.2293280999,
				"element": "C" 
			},
			{
				"x": 0.6417144302,
				"y": 1.5413594601,
				"z": 0.7200556494,
				"element": "N" 
			},
			{
				"x": 0.218347257,
				"y": 0.244589705,
				"z": 0.4723023913,
				"element": "C" 
			},
			{
				"x": -1.0895236988,
				"y": -0.0027642222,
				"z": 0.803967862,
				"element": "C" 
			},
			{
				"x": -1.828083831,
				"y": 1.4224343419,
				"z": 1.4543335609,
				"element": "S" 
			},
			{
				"x": 1.1778029403,
				"y": -0.7009040226,
				"z": -0.0981997488,
				"element": "C" 
			},
			{
				"x": 0.9891695387,
				"y": -2.052559519,
				"z": -0.3608447544,
				"element": "C" 
			},
			{
				"x": 2.1281751922,
				"y": -2.544301198,
				"z": -0.9371314079,
				"element": "N" 
			},
			{
				"x": 3.082897199,
				"y": -1.5356529323,
				"z": -1.006064285,
				"element": "C" 
			},
			{
				"x": 2.5075215734,
				"y": -0.3874903113,
				"z": -0.4976330319,
				"element": "C" 
			},
			{
				"x": 4.4265626853,
				"y": -1.7282473473,
				"z": -1.5659949376,
				"element": "C" 
			},
			{
				"x": 4.572778053,
				"y": -2.822599513,
				"z": -2.3863666717,
				"element": "O" 
			},
			{
				"x": 5.3700762129,
				"y": -1.0112152901,
				"z": -1.3351962644,
				"element": "O" 
			},
			{
				"x": -0.321411313,
				"y": 3.8797136885,
				"z": 2.6706811705,
				"element": "H" 
			},
			{
				"x": -0.8310591435,
				"y": 4.3583020718,
				"z": 1.0462842814,
				"element": "H" 
			},
			{
				"x": 0.8841892667,
				"y": 4.0229480073,
				"z": 1.3723492322,
				"element": "H" 
			},
			{
				"x": -1.6506351564,
				"y": -0.9202940233,
				"z": 0.7003985926,
				"element": "H" 
			},
			{
				"x": 0.1411808828,
				"y": -2.6946324642,
				"z": -0.1726179747,
				"element": "H" 
			},
			{
				"x": 2.3328209503,
				"y": -3.5282310332,
				"z": -1.0286911428,
				"element": "H" 
			},
			{
				"x": 2.976376349,
				"y": 0.5827916762,
				"z": -0.4440768221,
				"element": "H" 
			},
			{
				"x": 3.7108165118,
				"y": -3.0764558305,
				"z": -2.7461847573,
				"element": "H" 
			}
		],
		 "valence_orbital": [ 
			{
				"type": "occ",
				"energy": -0.27813,
				"method": "rhf"
			},
			{
				"type": "occ",
				"energy": -0.27464,
				"method": "rhf"
			},
			{
				"type": "occ",
				"energy": -0.2724,
				"method": "rhf"
			},
			{
				"type": "occ",
				"energy": -0.24497,
				"method": "rhf"
			},
			{
				"type": "occ",
				"energy": -0.21386,
				"method": "rhf"
			},
			{
				"type": "unocc",
				"energy": -0.03687,
				"method": "rhf"
			},
			{
				"type": "unocc",
				"energy": -0.02669,
				"method": "rhf"
			},
			{
				"type": "unocc",
				"energy": 0.01352,
				"method": "rhf"
			},
			{
				"type": "unocc",
				"energy": 0.01553,
				"method": "rhf"
			},
			{
				"type": "unocc",
				"energy": 0.03913,
				"method": "rhf"
			}
		],
		"cosmo_sigma_profile": { 
			"-0.025": 0.0,
			"-0.024": 0.0,
			"-0.023": 0.0,
			"-0.022": 0.0,
			"-0.021": 0.0,
			"-0.02": 0.0646373513692,
			"-0.019": 0.927291720049,
			"-0.018": 2.20055204893,
			"-0.017": 2.69899820982,
			"-0.016": 1.70941729096,
			"-0.015": 1.3770606566,
			"-0.014": 1.89776790718,
			"-0.013": 1.57267095585,
			"-0.012": 2.19009618834,
			"-0.011": 1.59675443555,
			"-0.01": 1.53816250347,
			"-0.009": 6.13026024633,
			"-0.008": 5.2204636116,
			"-0.007": 4.78328590229,
			"-0.006": 7.94066699098,
			"-0.005": 12.224027256,
			"-0.004": 12.8371504279,
			"-0.003": 12.0851270588,
			"-0.002": 13.210723777,
			"-0.001": 13.3537209653,
			"0.0": 11.2988776791,
			"0.001": 14.8665192718,
			"0.002": 15.0558843974,
			"0.003": 21.0668638647,
			"0.004": 19.8547031595,
			"0.005": 8.55529940695,
			"0.006": 4.73323011314,
			"0.007": 4.54042098044,
			"0.008": 3.91879935719,
			"0.009": 4.50313515355,
			"0.01": 5.1408429989,
			"0.011": 6.57706455673,
			"0.012": 7.63167698107,
			"0.013": 2.97217000975,
			"0.014": 0.270988883394,
			"0.015": 0.0,
			"0.016": 0.0,
			"0.017": 0.0,
			"0.018": 0.0,
			"0.019": 0.0,
			"0.02": 0.0,
			"0.021": 0.0,
			"0.022": 0.0,
			"0.023": 0.0,
			"0.024": 0.0,
			"0.025": 0.0
		}
	}
}
