{
	 "smiles": "CN1CCN(CC1)C1=CC=C(C=C1)C(O)=O", 
	 "Tm": 543.15, 
	 "num_atms": 32, 
	 "gaussian": { 
		 "optdone": 1, 
		 "sigma_profile": "yes", 
		 "theory": "DFT", 
		 "functional": "B3LYP", 
		 "basiset": "6-31G**", 
		 "properties": { 
			 "R2extent": 5576.0531, 
			 "electric_dipole_moment_norm": 7.28773454923, 
			 "electric_quadrupole_moment_norm": 39.6776086444, 
			 "total_energy": -726.866876077, 
			 "HOMO_LUMO_gap": 0.17119, 
			 "cosmo_polarized_energy": -17.79, 
			 "cosmo_cavitation_energy": 33.56, 
			 "cosmo_dispersion_energy": -24.63, 
			 "cosmo_repulsion_energy": 1.89, 
			 "cosmo_total_nonelectrostatic_energy": 10.81, 
			 "SMD_solvation_energy": 3.14 
		},
		"coords": [
			{
				"x": -0.8496200029,
				"y": 1.2315770761,
				"z": -4.0099428618,
				"element": "C" 
			},
			{
				"x": -0.0024660749,
				"y": 0.54557599,
				"z": -3.0455031384,
				"element": "N" 
			},
			{
				"x": 0.7641998906,
				"y": 1.4821907187,
				"z": -2.2247524737,
				"element": "C" 
			},
			{
				"x": 1.6948841449,
				"y": 0.7012109867,
				"z": -1.2908158363,
				"element": "C" 
			},
			{
				"x": 0.9539690343,
				"y": -0.231209513,
				"z": -0.446187591,
				"element": "N" 
			},
			{
				"x": 0.1646697599,
				"y": -1.1537401088,
				"z": -1.2633462511,
				"element": "C" 
			},
			{
				"x": -0.7647119998,
				"y": -0.3817743667,
				"z": -2.211399334,
				"element": "C" 
			},
			{
				"x": 0.6432114089,
				"y": 0.03957235,
				"z": 0.8804822274,
				"element": "C" 
			},
			{
				"x": 0.0822472616,
				"y": -0.9616533494,
				"z": 1.7138761503,
				"element": "C" 
			},
			{
				"x": -0.1952500253,
				"y": -0.7161290291,
				"z": 3.0467218538,
				"element": "C" 
			},
			{
				"x": 0.0567757818,
				"y": 0.5360220517,
				"z": 3.6307562559,
				"element": "C" 
			},
			{
				"x": 0.6319888995,
				"y": 1.5238169768,
				"z": 2.8201488608,
				"element": "C" 
			},
			{
				"x": 0.9151575922,
				"y": 1.2921485054,
				"z": 1.4795562131,
				"element": "C" 
			},
			{
				"x": -0.2641761889,
				"y": 0.715382095,
				"z": 5.0729571517,
				"element": "C" 
			},
			{
				"x": -0.3090182978,
				"y": 1.9967046025,
				"z": 5.5428292059,
				"element": "O" 
			},
			{
				"x": -0.4848039595,
				"y": -0.2024189214,
				"z": 5.8315990897,
				"element": "O" 
			},
			{
				"x": -1.3544745486,
				"y": 0.4973760474,
				"z": -4.6461074574,
				"element": "H" 
			},
			{
				"x": -1.6250424274,
				"y": 1.8657214616,
				"z": -3.5390459922,
				"element": "H" 
			},
			{
				"x": -0.2347629828,
				"y": 1.8703963846,
				"z": -4.6522795889,
				"element": "H" 
			},
			{
				"x": 1.358992315,
				"y": 2.1225958059,
				"z": -2.8869566113,
				"element": "H" 
			},
			{
				"x": 0.1061895942,
				"y": 2.1428350322,
				"z": -1.6249457995,
				"element": "H" 
			},
			{
				"x": 2.30035838,
				"y": 1.3707173407,
				"z": -0.6800556658,
				"element": "H" 
			},
			{
				"x": 2.3847395299,
				"y": 0.1117870983,
				"z": -1.9093246506,
				"element": "H" 
			},
			{
				"x": 0.8483112703,
				"y": -1.7755606137,
				"z": -1.8556374828,
				"element": "H" 
			},
			{
				"x": -0.4286676909,
				"y": -1.813867299,
				"z": -0.6326706429,
				"element": "H" 
			},
			{
				"x": -1.2861127621,
				"y": -1.0919338191,
				"z": -2.864237016,
				"element": "H" 
			},
			{
				"x": -1.5345252215,
				"y": 0.1417644564,
				"z": -1.6090732078,
				"element": "H" 
			},
			{
				"x": -0.1016382771,
				"y": -1.9547282049,
				"z": 1.3207472351,
				"element": "H" 
			},
			{
				"x": -0.606243683,
				"y": -1.4998228722,
				"z": 3.6744468262,
				"element": "H" 
			},
			{
				"x": 0.894215526,
				"y": 2.4981448339,
				"z": 3.2279539285,
				"element": "H" 
			},
			{
				"x": 1.3351245459,
				"y": 2.1020651346,
				"z": 0.8963464595,
				"element": "H" 
			},
			{
				"x": -0.2850207925,
				"y": 2.6199331487,
				"z": 4.8043601437,
				"element": "H" 
			}
		],
		 "valence_orbital": [ 
			{
				"type": "occ",
				"energy": -0.29045,
				"method": "rhf"
			},
			{
				"type": "occ",
				"energy": -0.26204,
				"method": "rhf"
			},
			{
				"type": "occ",
				"energy": -0.25671,
				"method": "rhf"
			},
			{
				"type": "occ",
				"energy": -0.23042,
				"method": "rhf"
			},
			{
				"type": "occ",
				"energy": -0.2024,
				"method": "rhf"
			},
			{
				"type": "unocc",
				"energy": -0.03121,
				"method": "rhf"
			},
			{
				"type": "unocc",
				"energy": -0.01147,
				"method": "rhf"
			},
			{
				"type": "unocc",
				"energy": 0.06134,
				"method": "rhf"
			},
			{
				"type": "unocc",
				"energy": 0.0667,
				"method": "rhf"
			},
			{
				"type": "unocc",
				"energy": 0.07994,
				"method": "rhf"
			}
		],
		"cosmo_sigma_profile": { 
			"-0.025": 0.0,
			"-0.024": 0.0,
			"-0.023": 0.0,
			"-0.022": 0.0,
			"-0.021": 0.0,
			"-0.02": 0.0,
			"-0.019": 0.0,
			"-0.018": 0.43980251277,
			"-0.017": 0.929687512768,
			"-0.016": 0.847465391292,
			"-0.015": 1.37462097152,
			"-0.014": 0.481887877391,
			"-0.013": 0.803152318449,
			"-0.012": 0.926869369792,
			"-0.011": 1.58262796829,
			"-0.01": 0.856820723305,
			"-0.009": 0.83161431735,
			"-0.008": 3.05404251417,
			"-0.007": 6.59633779798,
			"-0.006": 6.76803275581,
			"-0.005": 10.8193094142,
			"-0.004": 26.1464947207,
			"-0.003": 26.2697991128,
			"-0.002": 30.4567898938,
			"-0.001": 29.7892276248,
			"0.0": 20.5983771783,
			"0.001": 11.0077222515,
			"0.002": 9.69923350719,
			"0.003": 10.2762805075,
			"0.004": 13.9490782584,
			"0.005": 13.2187237038,
			"0.006": 3.29338307793,
			"0.007": 3.51430904501,
			"0.008": 3.41557610672,
			"0.009": 3.32850317186,
			"0.01": 4.03263944149,
			"0.011": 5.12149335553,
			"0.012": 6.49245453513,
			"0.013": 4.70375998741,
			"0.014": 1.73740002231,
			"0.015": 0.369916150964,
			"0.016": 0.202569936776,
			"0.017": 0.0,
			"0.018": 0.0,
			"0.019": 0.0,
			"0.02": 0.0,
			"0.021": 0.0,
			"0.022": 0.0,
			"0.023": 0.0,
			"0.024": 0.0,
			"0.025": 0.0
		}
	}
}
