{
	 "smiles": "COC1=CC(=CC(OC)=C1OC)N1CC(CC1=O)C(O)=O", 
	 "Tm": 417.15, 
	 "num_atms": 38, 
	 "gaussian": { 
		 "optdone": 1, 
		 "sigma_profile": "yes", 
		 "theory": "DFT", 
		 "functional": "B3LYP", 
		 "basiset": "6-31G**", 
		 "properties": { 
			 "R2extent": 8002.0096, 
			 "electric_dipole_moment_norm": 2.59972957632, 
			 "electric_quadrupole_moment_norm": 19.722936975, 
			 "total_energy": -1049.81204164, 
			 "HOMO_LUMO_gap": 0.18798, 
			 "cosmo_polarized_energy": -20.01, 
			 "cosmo_cavitation_energy": 41.36, 
			 "cosmo_dispersion_energy": -28.92, 
			 "cosmo_repulsion_energy": 2.24, 
			 "cosmo_total_nonelectrostatic_energy": 14.68, 
			 "SMD_solvation_energy": 10.61 
		},
		"coords": [
			{
				"x": 1.5890236215,
				"y": 2.3229390561,
				"z": -2.7227009858,
				"element": "C" 
			},
			{
				"x": 0.2538531927,
				"y": 1.8448097546,
				"z": -2.8127437434,
				"element": "O" 
			},
			{
				"x": -0.252805499,
				"y": 1.1521193936,
				"z": -1.7524795154,
				"element": "C" 
			},
			{
				"x": 0.4556913178,
				"y": 0.9106086691,
				"z": -0.5754740749,
				"element": "C" 
			},
			{
				"x": -0.1544552415,
				"y": 0.191868195,
				"z": 0.4687585928,
				"element": "C" 
			},
			{
				"x": -1.4613852394,
				"y": -0.2838928607,
				"z": 0.3120009702,
				"element": "C" 
			},
			{
				"x": -2.1665977217,
				"y": -0.0261779909,
				"z": -0.8683317735,
				"element": "C" 
			},
			{
				"x": -3.4682571695,
				"y": -0.4607219247,
				"z": -0.9356844298,
				"element": "O" 
			},
			{
				"x": -3.751946122,
				"y": -1.4350495364,
				"z": -1.9447957508,
				"element": "C" 
			},
			{
				"x": -1.577710001,
				"y": 0.6933850171,
				"z": -1.9126255675,
				"element": "C" 
			},
			{
				"x": -2.2679921419,
				"y": 0.9153415319,
				"z": -3.0817054521,
				"element": "O" 
			},
			{
				"x": -2.7861095922,
				"y": 2.241424182,
				"z": -3.2227926686,
				"element": "C" 
			},
			{
				"x": 0.5361952616,
				"y": -0.0633315357,
				"z": 1.6814925961,
				"element": "N" 
			},
			{
				"x": -0.1459367781,
				"y": -0.7123100184,
				"z": 2.807433532,
				"element": "C" 
			},
			{
				"x": 0.8353477012,
				"y": -0.5875065129,
				"z": 3.9856524336,
				"element": "C" 
			},
			{
				"x": 2.2065987527,
				"y": -0.3997850651,
				"z": 3.3104929924,
				"element": "C" 
			},
			{
				"x": 1.885897978,
				"y": 0.1375418872,
				"z": 1.9183384225,
				"element": "C" 
			},
			{
				"x": 2.7051333839,
				"y": 0.6338456848,
				"z": 1.1606891992,
				"element": "O" 
			},
			{
				"x": 0.4626836565,
				"y": 0.5721301324,
				"z": 4.9030806037,
				"element": "C" 
			},
			{
				"x": 1.4094220905,
				"y": 0.7699760721,
				"z": 5.8496212222,
				"element": "O" 
			},
			{
				"x": -0.550233099,
				"y": 1.2321795094,
				"z": 4.8440435677,
				"element": "O" 
			},
			{
				"x": 1.7080596977,
				"y": 3.0404165885,
				"z": -1.9013406691,
				"element": "H" 
			},
			{
				"x": 1.7912342811,
				"y": 2.8220723934,
				"z": -3.6716812676,
				"element": "H" 
			},
			{
				"x": 2.3024213928,
				"y": 1.5017857492,
				"z": -2.5837399756,
				"element": "H" 
			},
			{
				"x": 1.4688773429,
				"y": 1.2553270269,
				"z": -0.4477968359,
				"element": "H" 
			},
			{
				"x": -1.9744978917,
				"y": -0.8476815128,
				"z": 1.0793425641,
				"element": "H" 
			},
			{
				"x": -3.1557876881,
				"y": -2.343498875,
				"z": -1.7867671498,
				"element": "H" 
			},
			{
				"x": -3.5603351676,
				"y": -1.0410059214,
				"z": -2.9459941542,
				"element": "H" 
			},
			{
				"x": -4.8111233039,
				"y": -1.6797278605,
				"z": -1.8385162794,
				"element": "H" 
			},
			{
				"x": -3.3236352128,
				"y": 2.2614996621,
				"z": -4.1734923947,
				"element": "H" 
			},
			{
				"x": -3.4800629397,
				"y": 2.4798849609,
				"z": -2.4075281285,
				"element": "H" 
			},
			{
				"x": -1.9773233569,
				"y": 2.9790324485,
				"z": -3.2472418037,
				"element": "H" 
			},
			{
				"x": -1.0864515049,
				"y": -0.2039180516,
				"z": 3.0294206453,
				"element": "H" 
			},
			{
				"x": -0.3573146923,
				"y": -1.7637784353,
				"z": 2.5746491748,
				"element": "H" 
			},
			{
				"x": 0.8193557017,
				"y": -1.4855429233,
				"z": 4.612001018,
				"element": "H" 
			},
			{
				"x": 2.8776272442,
				"y": 0.2786988443,
				"z": 3.8384511208,
				"element": "H" 
			},
			{
				"x": 2.7312176379,
				"y": -1.3548625362,
				"z": 3.1954837573,
				"element": "H" 
			},
			{
				"x": 1.0962201088,
				"y": 1.5071048015,
				"z": 6.4005802078,
				"element": "H" 
			}
		],
		 "valence_orbital": [ 
			{
				"type": "occ",
				"energy": -0.269,
				"method": "rhf"
			},
			{
				"type": "occ",
				"energy": -0.25517,
				"method": "rhf"
			},
			{
				"type": "occ",
				"energy": -0.25201,
				"method": "rhf"
			},
			{
				"type": "occ",
				"energy": -0.21775,
				"method": "rhf"
			},
			{
				"type": "occ",
				"energy": -0.20149,
				"method": "rhf"
			},
			{
				"type": "unocc",
				"energy": -0.01351,
				"method": "rhf"
			},
			{
				"type": "unocc",
				"energy": -0.00364,
				"method": "rhf"
			},
			{
				"type": "unocc",
				"energy": 0.01754,
				"method": "rhf"
			},
			{
				"type": "unocc",
				"energy": 0.04498,
				"method": "rhf"
			},
			{
				"type": "unocc",
				"energy": 0.06401,
				"method": "rhf"
			}
		],
		"cosmo_sigma_profile": { 
			"-0.025": 0.0,
			"-0.024": 0.0,
			"-0.023": 0.0,
			"-0.022": 0.0,
			"-0.021": 0.0,
			"-0.02": 0.0,
			"-0.019": 0.0819582595166,
			"-0.018": 1.07729925528,
			"-0.017": 0.666072252398,
			"-0.016": 0.839053974187,
			"-0.015": 1.05809229087,
			"-0.014": 0.640752279874,
			"-0.013": 0.958838676545,
			"-0.012": 0.331849588805,
			"-0.011": 0.821581720215,
			"-0.01": 0.968094052841,
			"-0.009": 0.228737909973,
			"-0.008": 3.41918874567,
			"-0.007": 11.7876599879,
			"-0.006": 19.9905760065,
			"-0.005": 23.7193710984,
			"-0.004": 29.3575609304,
			"-0.003": 34.3607045279,
			"-0.002": 28.0915180668,
			"-0.001": 17.8629075092,
			"0.0": 15.0485226147,
			"0.001": 15.5941712124,
			"0.002": 15.7909988373,
			"0.003": 19.6008553761,
			"0.004": 18.759718445,
			"0.005": 10.7268217117,
			"0.006": 7.95030016904,
			"0.007": 7.77103644804,
			"0.008": 6.33231761811,
			"0.009": 5.8138076679,
			"0.01": 7.09676965428,
			"0.011": 9.79027993919,
			"0.012": 6.44898693313,
			"0.013": 3.20354230766,
			"0.014": 0.846330974233,
			"0.015": 0.0,
			"0.016": 0.0,
			"0.017": 0.0,
			"0.018": 0.0,
			"0.019": 0.0,
			"0.02": 0.0,
			"0.021": 0.0,
			"0.022": 0.0,
			"0.023": 0.0,
			"0.024": 0.0,
			"0.025": 0.0
		}
	}
}
