{
	 "smiles": "O=C1NC(C#N)=C(NCC2=CC=CC=C2)N1CC1=CC=CC=C1", 
	 "Tm": 414.15, 
	 "num_atms": 39, 
	 "gaussian": { 
		 "optdone": 1, 
		 "sigma_profile": "yes", 
		 "theory": "DFT", 
		 "functional": "B3LYP", 
		 "basiset": "6-31G**", 
		 "properties": { 
			 "R2extent": 8732.6588, 
			 "electric_dipole_moment_norm": 5.55148459243, 
			 "electric_quadrupole_moment_norm": 21.2418898088, 
			 "total_energy": -989.789080371, 
			 "HOMO_LUMO_gap": 0.17387, 
			 "cosmo_polarized_energy": -20.47, 
			 "cosmo_cavitation_energy": 44.54, 
			 "cosmo_dispersion_energy": -29.23, 
			 "cosmo_repulsion_energy": 2.25, 
			 "cosmo_total_nonelectrostatic_energy": 17.56, 
			 "SMD_solvation_energy": 8.43 
		},
		"coords": [
			{
				"x": -0.776843883,
				"y": -2.2141137164,
				"z": -4.8202316749,
				"element": "O" 
			},
			{
				"x": -0.7169192791,
				"y": -1.1418495901,
				"z": -4.2341092294,
				"element": "C" 
			},
			{
				"x": -0.511980912,
				"y": 0.1185221707,
				"z": -4.7288138201,
				"element": "N" 
			},
			{
				"x": -0.4843909256,
				"y": 1.0849472183,
				"z": -3.6876770679,
				"element": "C" 
			},
			{
				"x": -0.232687893,
				"y": 2.4436856735,
				"z": -3.9334153948,
				"element": "C" 
			},
			{
				"x": -0.0197007234,
				"y": 3.566946183,
				"z": -4.1759724193,
				"element": "N" 
			},
			{
				"x": -0.7082569887,
				"y": 0.3907861288,
				"z": -2.5144138731,
				"element": "C" 
			},
			{
				"x": -0.8522561899,
				"y": 0.7965616266,
				"z": -1.2119509899,
				"element": "N" 
			},
			{
				"x": -0.6698251391,
				"y": 2.2033720682,
				"z": -0.8391416358,
				"element": "C" 
			},
			{
				"x": -1.0124727702,
				"y": 2.412086188,
				"z": 0.6206117111,
				"element": "C" 
			},
			{
				"x": -0.0933602763,
				"y": 3.0127965866,
				"z": 1.4872070691,
				"element": "C" 
			},
			{
				"x": -0.4145247689,
				"y": 3.2235780473,
				"z": 2.8302063261,
				"element": "C" 
			},
			{
				"x": -1.6586263285,
				"y": 2.8278374488,
				"z": 3.321327061,
				"element": "C" 
			},
			{
				"x": -2.5816647303,
				"y": 2.2228429432,
				"z": 2.4637385176,
				"element": "C" 
			},
			{
				"x": -2.2613464898,
				"y": 2.018065896,
				"z": 1.1225040849,
				"element": "C" 
			},
			{
				"x": -0.8540543429,
				"y": -0.9464170944,
				"z": -2.8438605373,
				"element": "N" 
			},
			{
				"x": -1.1880884789,
				"y": -2.0415069758,
				"z": -1.9404004182,
				"element": "C" 
			},
			{
				"x": -0.0356332507,
				"y": -2.4676590113,
				"z": -1.0484370711,
				"element": "C" 
			},
			{
				"x": 1.1464428379,
				"y": -2.9624849425,
				"z": -1.6186130284,
				"element": "C" 
			},
			{
				"x": 2.2074674794,
				"y": -3.3566618048,
				"z": -0.8062175845,
				"element": "C" 
			},
			{
				"x": 2.1018703287,
				"y": -3.2632903759,
				"z": 0.5854382273,
				"element": "C" 
			},
			{
				"x": 0.9286349406,
				"y": -2.776962249,
				"z": 1.1603232805,
				"element": "C" 
			},
			{
				"x": -0.1360627907,
				"y": -2.3809523432,
				"z": 0.3447806708,
				"element": "C" 
			},
			{
				"x": -0.3666793465,
				"y": 0.3065913653,
				"z": -5.7068451503,
				"element": "H" 
			},
			{
				"x": -0.4703163827,
				"y": 0.1429378296,
				"z": -0.536041828,
				"element": "H" 
			},
			{
				"x": -1.3315438531,
				"y": 2.8007152666,
				"z": -1.4760533091,
				"element": "H" 
			},
			{
				"x": 0.354367332,
				"y": 2.5481949553,
				"z": -1.037400484,
				"element": "H" 
			},
			{
				"x": 0.8783125757,
				"y": 3.3197430557,
				"z": 1.108496231,
				"element": "H" 
			},
			{
				"x": 0.308887183,
				"y": 3.6928834719,
				"z": 3.4906361608,
				"element": "H" 
			},
			{
				"x": -1.9096207801,
				"y": 2.989470274,
				"z": 4.3656548755,
				"element": "H" 
			},
			{
				"x": -3.5534181784,
				"y": 1.9156762821,
				"z": 2.8399039613,
				"element": "H" 
			},
			{
				"x": -2.979091721,
				"y": 1.5490807984,
				"z": 0.4551079381,
				"element": "H" 
			},
			{
				"x": -2.052524248,
				"y": -1.7478022218,
				"z": -1.3354905857,
				"element": "H" 
			},
			{
				"x": -1.489735646,
				"y": -2.8616032706,
				"z": -2.5986380631,
				"element": "H" 
			},
			{
				"x": 1.2221620942,
				"y": -3.0420318628,
				"z": -2.6999041091,
				"element": "H" 
			},
			{
				"x": 3.1175587245,
				"y": -3.741644213,
				"z": -1.2571224232,
				"element": "H" 
			},
			{
				"x": 2.9306578899,
				"y": -3.5715318879,
				"z": 1.2160203225,
				"element": "H" 
			},
			{
				"x": 0.8377067954,
				"y": -2.704606911,
				"z": 2.2401968187,
				"element": "H" 
			},
			{
				"x": -1.0545418644,
				"y": -2.0119030075,
				"z": 0.7968974409,
				"element": "H" 
			}
		],
		 "valence_orbital": [ 
			{
				"type": "occ",
				"energy": -0.26514,
				"method": "rhf"
			},
			{
				"type": "occ",
				"energy": -0.26175,
				"method": "rhf"
			},
			{
				"type": "occ",
				"energy": -0.25933,
				"method": "rhf"
			},
			{
				"type": "occ",
				"energy": -0.25598,
				"method": "rhf"
			},
			{
				"type": "occ",
				"energy": -0.19525,
				"method": "rhf"
			},
			{
				"type": "unocc",
				"energy": -0.02138,
				"method": "rhf"
			},
			{
				"type": "unocc",
				"energy": -0.01933,
				"method": "rhf"
			},
			{
				"type": "unocc",
				"energy": -0.01702,
				"method": "rhf"
			},
			{
				"type": "unocc",
				"energy": -0.01283,
				"method": "rhf"
			},
			{
				"type": "unocc",
				"energy": -0.00773,
				"method": "rhf"
			}
		],
		"cosmo_sigma_profile": { 
			"-0.025": 0.0,
			"-0.024": 0.0,
			"-0.023": 0.0,
			"-0.022": 0.0,
			"-0.021": 0.0,
			"-0.02": 0.0,
			"-0.019": 0.0,
			"-0.018": 0.0,
			"-0.017": 0.47309885006,
			"-0.016": 1.12499699141,
			"-0.015": 1.4220212304,
			"-0.014": 0.880364693258,
			"-0.013": 1.01159383581,
			"-0.012": 1.2194536646,
			"-0.011": 0.797481490746,
			"-0.01": 1.27525604916,
			"-0.009": 1.49297729029,
			"-0.008": 3.16083179881,
			"-0.007": 5.88616096176,
			"-0.006": 21.3704471735,
			"-0.005": 30.8471127106,
			"-0.004": 32.9793119236,
			"-0.003": 29.6248028539,
			"-0.002": 25.5162783835,
			"-0.001": 23.7130016728,
			"0.0": 23.9648427287,
			"0.001": 23.9251159312,
			"0.002": 21.8124558659,
			"0.003": 17.9843404485,
			"0.004": 19.9034402466,
			"0.005": 20.1592515322,
			"0.006": 9.76495944733,
			"0.007": 2.71623403051,
			"0.008": 3.7142268299,
			"0.009": 4.52880381159,
			"0.01": 3.67029335847,
			"0.011": 4.30972503846,
			"0.012": 4.88514572943,
			"0.013": 7.12942843239,
			"0.014": 5.24158181506,
			"0.015": 0.377147534564,
			"0.016": 0.0,
			"0.017": 0.0,
			"0.018": 0.0,
			"0.019": 0.0,
			"0.02": 0.0,
			"0.021": 0.0,
			"0.022": 0.0,
			"0.023": 0.0,
			"0.024": 0.0,
			"0.025": 0.0
		}
	}
}
