{
	 "smiles": "CC(C)(C)OOC(C)(C)C", 
	 "Tm": 243.15, 
	 "num_atms": 28, 
	 "gaussian": { 
		 "optdone": 1, 
		 "sigma_profile": "yes", 
		 "theory": "DFT", 
		 "functional": "B3LYP", 
		 "basiset": "6-31G**", 
		 "properties": { 
			 "R2extent": 2048.5529, 
			 "electric_dipole_moment_norm": 0.477555023008, 
			 "electric_quadrupole_moment_norm": 4.08563842135, 
			 "total_energy": -466.085342226, 
			 "HOMO_LUMO_gap": 0.25493, 
			 "cosmo_polarized_energy": -4.32, 
			 "cosmo_cavitation_energy": 28.88, 
			 "cosmo_dispersion_energy": -19.37, 
			 "cosmo_repulsion_energy": 1.58, 
			 "cosmo_total_nonelectrostatic_energy": 11.1, 
			 "SMD_solvation_energy": 5.26 
		},
		"coords": [
			{
				"x": 2.4762261061,
				"y": -0.3440423782,
				"z": 2.2197689917,
				"element": "C" 
			},
			{
				"x": 1.6291195143,
				"y": -1.0470650451,
				"z": 1.1506394269,
				"element": "C" 
			},
			{
				"x": 2.4928431755,
				"y": -1.978444463,
				"z": 0.2900377563,
				"element": "C" 
			},
			{
				"x": 0.4489355528,
				"y": -1.8047277695,
				"z": 1.7712804212,
				"element": "C" 
			},
			{
				"x": 1.1650935814,
				"y": -0.0905630529,
				"z": 0.1762987148,
				"element": "O" 
			},
			{
				"x": 0.3352378665,
				"y": 0.8987125103,
				"z": 0.8847614413,
				"element": "O" 
			},
			{
				"x": -0.5248579678,
				"y": 1.522915945,
				"z": -0.0900490863,
				"element": "C" 
			},
			{
				"x": -1.4763065566,
				"y": 0.4932500889,
				"z": -0.7118147998,
				"element": "C" 
			},
			{
				"x": -1.2919942701,
				"y": 2.5356636333,
				"z": 0.7701937984,
				"element": "C" 
			},
			{
				"x": 0.3161604623,
				"y": 2.2346908229,
				"z": -1.1581690045,
				"element": "C" 
			},
			{
				"x": 2.9030335003,
				"y": -1.0762055424,
				"z": 2.9131115155,
				"element": "H" 
			},
			{
				"x": 1.869671155,
				"y": 0.3614467687,
				"z": 2.7915104308,
				"element": "H" 
			},
			{
				"x": 3.2953165473,
				"y": 0.2085466074,
				"z": 1.7499341139,
				"element": "H" 
			},
			{
				"x": 1.8928307626,
				"y": -2.4477320126,
				"z": -0.4951314608,
				"element": "H" 
			},
			{
				"x": 2.9246181332,
				"y": -2.7667638918,
				"z": 0.9138101778,
				"element": "H" 
			},
			{
				"x": 3.3083840111,
				"y": -1.4227055163,
				"z": -0.181436812,
				"element": "H" 
			},
			{
				"x": 0.8079917485,
				"y": -2.5685051269,
				"z": 2.4687707881,
				"element": "H" 
			},
			{
				"x": -0.1396108846,
				"y": -2.2986231404,
				"z": 0.9920245641,
				"element": "H" 
			},
			{
				"x": -0.203347249,
				"y": -1.1180546569,
				"z": 2.3144969178,
				"element": "H" 
			},
			{
				"x": -2.1653592357,
				"y": 0.9803179318,
				"z": -1.4094741219,
				"element": "H" 
			},
			{
				"x": -0.9134841863,
				"y": -0.2684545942,
				"z": -1.2550205335,
				"element": "H" 
			},
			{
				"x": -2.065744826,
				"y": -0.0005204232,
				"z": 0.0668467067,
				"element": "H" 
			},
			{
				"x": -1.9924152047,
				"y": 3.0984799366,
				"z": 0.1459921856,
				"element": "H" 
			},
			{
				"x": -0.6028735017,
				"y": 3.2416491041,
				"z": 1.2423643947,
				"element": "H" 
			},
			{
				"x": -1.8594018733,
				"y": 2.0265113007,
				"z": 1.5547651703,
				"element": "H" 
			},
			{
				"x": -0.3296105951,
				"y": 2.7832335553,
				"z": -1.8517224151,
				"element": "H" 
			},
			{
				"x": 1.0029574594,
				"y": 2.9444017737,
				"z": -0.687393868,
				"element": "H" 
			},
			{
				"x": 0.9052867747,
				"y": 1.5144876349,
				"z": -1.729795414,
				"element": "H" 
			}
		],
		 "valence_orbital": [ 
			{
				"type": "occ",
				"energy": -0.33762,
				"method": "rhf"
			},
			{
				"type": "occ",
				"energy": -0.33559,
				"method": "rhf"
			},
			{
				"type": "occ",
				"energy": -0.30473,
				"method": "rhf"
			},
			{
				"type": "occ",
				"energy": -0.29282,
				"method": "rhf"
			},
			{
				"type": "occ",
				"energy": -0.22285,
				"method": "rhf"
			},
			{
				"type": "unocc",
				"energy": 0.03208,
				"method": "rhf"
			},
			{
				"type": "unocc",
				"energy": 0.08199,
				"method": "rhf"
			},
			{
				"type": "unocc",
				"energy": 0.10555,
				"method": "rhf"
			},
			{
				"type": "unocc",
				"energy": 0.1182,
				"method": "rhf"
			},
			{
				"type": "unocc",
				"energy": 0.13226,
				"method": "rhf"
			}
		],
		"cosmo_sigma_profile": { 
			"-0.025": 0.0,
			"-0.024": 0.0,
			"-0.023": 0.0,
			"-0.022": 0.0,
			"-0.021": 0.0,
			"-0.02": 0.0,
			"-0.019": 0.0,
			"-0.018": 0.0,
			"-0.017": 0.0,
			"-0.016": 0.0,
			"-0.015": 0.0,
			"-0.014": 0.0,
			"-0.013": 0.0,
			"-0.012": 0.0,
			"-0.011": 0.0,
			"-0.01": 0.0,
			"-0.009": 0.0,
			"-0.008": 0.0,
			"-0.007": 0.0,
			"-0.006": 0.0,
			"-0.005": 0.272430889933,
			"-0.004": 11.2286583917,
			"-0.003": 30.3864715155,
			"-0.002": 32.9426269684,
			"-0.001": 29.5120401417,
			"0.0": 38.3013066814,
			"0.001": 37.2872163477,
			"0.002": 12.2945730886,
			"0.003": 5.11138140006,
			"0.004": 4.57588267621,
			"0.005": 5.47377273045,
			"0.006": 3.8727457535,
			"0.007": 3.79773836625,
			"0.008": 2.44978953718,
			"0.009": 1.80788404977,
			"0.01": 2.12151922495,
			"0.011": 0.550514206804,
			"0.012": 0.0,
			"0.013": 0.0,
			"0.014": 0.0,
			"0.015": 0.0,
			"0.016": 0.0,
			"0.017": 0.0,
			"0.018": 0.0,
			"0.019": 0.0,
			"0.02": 0.0,
			"0.021": 0.0,
			"0.022": 0.0,
			"0.023": 0.0,
			"0.024": 0.0,
			"0.025": 0.0
		}
	}
}
