{
	 "smiles": "FC1=NC(Br)=CC=C1", 
	 "Tm": 305.15, 
	 "num_atms": 11, 
	 "gaussian": { 
		 "optdone": 1, 
		 "sigma_profile": "yes", 
		 "theory": "DFT", 
		 "functional": "B3LYP", 
		 "basiset": "6-31G**", 
		 "properties": { 
			 "R2extent": 1597.3418, 
			 "electric_dipole_moment_norm": 3.60578178347, 
			 "electric_quadrupole_moment_norm": 8.8936808471, 
			 "total_energy": -2918.32716177, 
			 "HOMO_LUMO_gap": 0.21248, 
			 "cosmo_polarized_energy": -6.49, 
			 "cosmo_cavitation_energy": 18.41, 
			 "cosmo_dispersion_energy": -14.19, 
			 "cosmo_repulsion_energy": 1.16, 
			 "cosmo_total_nonelectrostatic_energy": 5.38, 
			 "SMD_solvation_energy": 1.13 
		},
		"coords": [
			{
				"x": 1.8069595043,
				"y": 3.0476884035,
				"z": -0.0492003342,
				"element": "F" 
			},
			{
				"x": 1.684248214,
				"y": 1.7391406481,
				"z": -0.3000504117,
				"element": "C" 
			},
			{
				"x": 0.5564889929,
				"y": 1.179089722,
				"z": 0.0918326011,
				"element": "N" 
			},
			{
				"x": 0.4187816293,
				"y": -0.1154755507,
				"z": -0.1488277897,
				"element": "C" 
			},
			{
				"x": -1.2218399676,
				"y": -0.925105964,
				"z": 0.42271872,
				"element": "Br" 
			},
			{
				"x": 1.3751603156,
				"y": -0.9099096901,
				"z": -0.7797906461,
				"element": "C" 
			},
			{
				"x": 2.5556789726,
				"y": -0.2807082674,
				"z": -1.1799418475,
				"element": "C" 
			},
			{
				"x": 2.7312053998,
				"y": 1.0802287151,
				"z": -0.9412661824,
				"element": "C" 
			},
			{
				"x": 1.2003457022,
				"y": -1.9647717581,
				"z": -0.9467429796,
				"element": "H" 
			},
			{
				"x": 3.3339912811,
				"y": -0.8526638494,
				"z": -1.6758952137,
				"element": "H" 
			},
			{
				"x": 3.6257799557,
				"y": 1.6179875909,
				"z": -1.2301359163,
				"element": "H" 
			}
		],
		 "valence_orbital": [ 
			{
				"type": "occ",
				"energy": -0.32598,
				"method": "rhf"
			},
			{
				"type": "occ",
				"energy": -0.30225,
				"method": "rhf"
			},
			{
				"type": "occ",
				"energy": -0.29985,
				"method": "rhf"
			},
			{
				"type": "occ",
				"energy": -0.28978,
				"method": "rhf"
			},
			{
				"type": "occ",
				"energy": -0.25856,
				"method": "rhf"
			},
			{
				"type": "unocc",
				"energy": -0.04608,
				"method": "rhf"
			},
			{
				"type": "unocc",
				"energy": -0.02703,
				"method": "rhf"
			},
			{
				"type": "unocc",
				"energy": 0.00219,
				"method": "rhf"
			},
			{
				"type": "unocc",
				"energy": 0.09011,
				"method": "rhf"
			},
			{
				"type": "unocc",
				"energy": 0.12593,
				"method": "rhf"
			}
		],
		"cosmo_sigma_profile": { 
			"-0.025": 0.0,
			"-0.024": 0.0,
			"-0.023": 0.0,
			"-0.022": 0.0,
			"-0.021": 0.0,
			"-0.02": 0.0,
			"-0.019": 0.0,
			"-0.018": 0.0,
			"-0.017": 0.0,
			"-0.016": 0.0,
			"-0.015": 0.0,
			"-0.014": 0.0,
			"-0.013": 0.0,
			"-0.012": 0.0,
			"-0.011": 0.0,
			"-0.01": 0.0,
			"-0.009": 2.04236290673,
			"-0.008": 6.78964132783,
			"-0.007": 6.80126480386,
			"-0.006": 5.62812561491,
			"-0.005": 4.79186172401,
			"-0.004": 6.03380326519,
			"-0.003": 7.13009511293,
			"-0.002": 12.6002592284,
			"-0.001": 14.1797834739,
			"0.0": 15.8406150877,
			"0.001": 13.5651398159,
			"0.002": 8.92965580549,
			"0.003": 15.4747585128,
			"0.004": 16.1710450751,
			"0.005": 5.70986907972,
			"0.006": 2.57463312415,
			"0.007": 1.95493555887,
			"0.008": 1.32891198377,
			"0.009": 1.58352670797,
			"0.01": 1.10541488322,
			"0.011": 0.978522179844,
			"0.012": 0.865258223942,
			"0.013": 0.333455250825,
			"0.014": 0.0,
			"0.015": 0.0,
			"0.016": 0.0,
			"0.017": 0.0,
			"0.018": 0.0,
			"0.019": 0.0,
			"0.02": 0.0,
			"0.021": 0.0,
			"0.022": 0.0,
			"0.023": 0.0,
			"0.024": 0.0,
			"0.025": 0.0
		}
	}
}
