{
	 "smiles": "CC(=O)NC1=CC(F)=C(C=C1)C1=CSC(N)=N1", 
	 "Tm": 478.15, 
	 "num_atms": 27, 
	 "gaussian": { 
		 "optdone": 1, 
		 "sigma_profile": "yes", 
		 "theory": "DFT", 
		 "functional": "B3LYP", 
		 "basiset": "6-31G**", 
		 "properties": { 
			 "R2extent": 7305.0527, 
			 "electric_dipole_moment_norm": 4.53965594401, 
			 "electric_quadrupole_moment_norm": 17.0177365745, 
			 "total_energy": -1162.71690121, 
			 "HOMO_LUMO_gap": 0.16375, 
			 "cosmo_polarized_energy": -17.64, 
			 "cosmo_cavitation_energy": 33.76, 
			 "cosmo_dispersion_energy": -25.33, 
			 "cosmo_repulsion_energy": 1.9, 
			 "cosmo_total_nonelectrostatic_energy": 10.32, 
			 "SMD_solvation_energy": 5.63 
		},
		"coords": [
			{
				"x": 2.2382059549,
				"y": 1.6679003102,
				"z": 2.4224509304,
				"element": "C" 
			},
			{
				"x": 3.0909728789,
				"y": 1.9728313791,
				"z": 1.2066246056,
				"element": "C" 
			},
			{
				"x": 4.1975321207,
				"y": 2.482585471,
				"z": 1.3026901025,
				"element": "O" 
			},
			{
				"x": 2.6082824561,
				"y": 1.6443804944,
				"z": -0.0529663157,
				"element": "N" 
			},
			{
				"x": 1.4076189931,
				"y": 1.0451768119,
				"z": -0.4815085685,
				"element": "C" 
			},
			{
				"x": 1.4611754457,
				"y": 0.1632906289,
				"z": -1.5713112891,
				"element": "C" 
			},
			{
				"x": 0.2960825597,
				"y": -0.4136936958,
				"z": -2.047346226,
				"element": "C" 
			},
			{
				"x": 0.4159806228,
				"y": -1.2549346278,
				"z": -3.1024796365,
				"element": "F" 
			},
			{
				"x": -0.9671486732,
				"y": -0.1798404844,
				"z": -1.4855483831,
				"element": "C" 
			},
			{
				"x": -0.9908665276,
				"y": 0.7122495124,
				"z": -0.3988672226,
				"element": "C" 
			},
			{
				"x": 0.1570590739,
				"y": 1.3263326265,
				"z": 0.0898067151,
				"element": "C" 
			},
			{
				"x": -2.2139419416,
				"y": -0.7922717382,
				"z": -1.9710069711,
				"element": "C" 
			},
			{
				"x": -2.3562340805,
				"y": -1.6800243392,
				"z": -3.0045148783,
				"element": "C" 
			},
			{
				"x": -4.0303960895,
				"y": -2.1299037015,
				"z": -3.1953350574,
				"element": "S" 
			},
			{
				"x": -4.4179450095,
				"y": -1.0488950953,
				"z": -1.8496255057,
				"element": "C" 
			},
			{
				"x": -5.7039926169,
				"y": -0.9448720766,
				"z": -1.3702055356,
				"element": "N" 
			},
			{
				"x": -3.3964023548,
				"y": -0.4402919696,
				"z": -1.32861704,
				"element": "N" 
			},
			{
				"x": 2.9139937278,
				"y": 1.5674135064,
				"z": 3.272395993,
				"element": "H" 
			},
			{
				"x": 1.6376292317,
				"y": 0.7630140709,
				"z": 2.308076577,
				"element": "H" 
			},
			{
				"x": 1.5608958738,
				"y": 2.5033184733,
				"z": 2.6294948097,
				"element": "H" 
			},
			{
				"x": 3.3194026444,
				"y": 1.7852118865,
				"z": -0.7606274867,
				"element": "H" 
			},
			{
				"x": 2.4030572848,
				"y": -0.0910237819,
				"z": -2.0458489928,
				"element": "H" 
			},
			{
				"x": -1.954238873,
				"y": 0.9310226839,
				"z": 0.0463018505,
				"element": "H" 
			},
			{
				"x": 0.0734877852,
				"y": 2.0438588983,
				"z": 0.8961512749,
				"element": "H" 
			},
			{
				"x": -1.6006503973,
				"y": -2.0873240472,
				"z": -3.6541928529,
				"element": "H" 
			},
			{
				"x": -6.4518955118,
				"y": -1.0538154401,
				"z": -2.0400337176,
				"element": "H" 
			},
			{
				"x": -5.8283645778,
				"y": -0.1635957561,
				"z": -0.7396571791,
				"element": "H" 
			}
		],
		 "valence_orbital": [ 
			{
				"type": "occ",
				"energy": -0.2769,
				"method": "rhf"
			},
			{
				"type": "occ",
				"energy": -0.25631,
				"method": "rhf"
			},
			{
				"type": "occ",
				"energy": -0.25457,
				"method": "rhf"
			},
			{
				"type": "occ",
				"energy": -0.23931,
				"method": "rhf"
			},
			{
				"type": "occ",
				"energy": -0.20191,
				"method": "rhf"
			},
			{
				"type": "unocc",
				"energy": -0.03816,
				"method": "rhf"
			},
			{
				"type": "unocc",
				"energy": -0.01139,
				"method": "rhf"
			},
			{
				"type": "unocc",
				"energy": 0.00494,
				"method": "rhf"
			},
			{
				"type": "unocc",
				"energy": 0.00958,
				"method": "rhf"
			},
			{
				"type": "unocc",
				"energy": 0.02861,
				"method": "rhf"
			}
		],
		"cosmo_sigma_profile": { 
			"-0.025": 0.0,
			"-0.024": 0.0,
			"-0.023": 0.0,
			"-0.022": 0.0,
			"-0.021": 0.0,
			"-0.02": 0.0,
			"-0.019": 0.0,
			"-0.018": 0.0,
			"-0.017": 0.0,
			"-0.016": 0.0,
			"-0.015": 0.493680257382,
			"-0.014": 2.72047322005,
			"-0.013": 4.15473117978,
			"-0.012": 4.31494144366,
			"-0.011": 3.51407075248,
			"-0.01": 3.09422066653,
			"-0.009": 3.65956410048,
			"-0.008": 6.2271271175,
			"-0.007": 9.13484624844,
			"-0.006": 7.92457902551,
			"-0.005": 11.8582131592,
			"-0.004": 13.6599628892,
			"-0.003": 15.609094458,
			"-0.002": 14.1191564438,
			"-0.001": 15.8015307372,
			"0.0": 15.9742901195,
			"0.001": 22.6765033338,
			"0.002": 26.7582647882,
			"0.003": 28.5622192576,
			"0.004": 22.0382766021,
			"0.005": 6.85398366239,
			"0.006": 4.13599917506,
			"0.007": 4.48217814126,
			"0.008": 3.13528086003,
			"0.009": 3.10232183722,
			"0.01": 3.79915417816,
			"0.011": 3.13891760542,
			"0.012": 2.44928702869,
			"0.013": 5.65986706804,
			"0.014": 3.03265023048,
			"0.015": 0.247304874828,
			"0.016": 0.0,
			"0.017": 0.0,
			"0.018": 0.0,
			"0.019": 0.0,
			"0.02": 0.0,
			"0.021": 0.0,
			"0.022": 0.0,
			"0.023": 0.0,
			"0.024": 0.0,
			"0.025": 0.0
		}
	}
}
