{
	 "smiles": "NC1=NC=NC(=C1)C1=CC(Br)=CC=C1", 
	 "Tm": 503.15, 
	 "num_atms": 22, 
	 "gaussian": { 
		 "optdone": 1, 
		 "sigma_profile": "yes", 
		 "theory": "DFT", 
		 "functional": "B3LYP", 
		 "basiset": "6-31G**", 
		 "properties": { 
			 "R2extent": 6280.6866, 
			 "electric_dipole_moment_norm": 2.40729115397, 
			 "electric_quadrupole_moment_norm": 13.0170068979, 
			 "total_energy": -3121.56118456, 
			 "HOMO_LUMO_gap": 0.18386, 
			 "cosmo_polarized_energy": -12.67, 
			 "cosmo_cavitation_energy": 29.0, 
			 "cosmo_dispersion_energy": -22.06, 
			 "cosmo_repulsion_energy": 1.73, 
			 "cosmo_total_nonelectrostatic_energy": 8.67, 
			 "SMD_solvation_energy": 1.35 
		},
		"coords": [
			{
				"x": 1.323446052,
				"y": 2.6361488093,
				"z": -0.9210670583,
				"element": "N" 
			},
			{
				"x": 0.7723277517,
				"y": 1.8614512965,
				"z": 0.0600188956,
				"element": "C" 
			},
			{
				"x": 0.8346776364,
				"y": 2.3470316667,
				"z": 1.3133214596,
				"element": "N" 
			},
			{
				"x": 0.3157272907,
				"y": 1.565484371,
				"z": 2.2621651901,
				"element": "C" 
			},
			{
				"x": -0.2463868189,
				"y": 0.3680853993,
				"z": 2.1216559015,
				"element": "N" 
			},
			{
				"x": -0.3023925209,
				"y": -0.1217900387,
				"z": 0.8604197482,
				"element": "C" 
			},
			{
				"x": 0.1924168238,
				"y": 0.6073275083,
				"z": -0.2164413328,
				"element": "C" 
			},
			{
				"x": -0.9321233176,
				"y": -1.4611129923,
				"z": 0.7012110205,
				"element": "C" 
			},
			{
				"x": -0.7741821453,
				"y": -2.2142904046,
				"z": -0.4729709823,
				"element": "C" 
			},
			{
				"x": -1.387939427,
				"y": -3.4576452259,
				"z": -0.5840599115,
				"element": "C" 
			},
			{
				"x": -1.1535076294,
				"y": -4.4715873987,
				"z": -2.1908657096,
				"element": "Br" 
			},
			{
				"x": -2.1617565696,
				"y": -3.98456861,
				"z": 0.4482000972,
				"element": "C" 
			},
			{
				"x": -2.3093336586,
				"y": -3.2373561343,
				"z": 1.6184005585,
				"element": "C" 
			},
			{
				"x": -1.7004117617,
				"y": -1.9918751605,
				"z": 1.7493420985,
				"element": "C" 
			},
			{
				"x": 1.5505401634,
				"y": 3.5849172894,
				"z": -0.6641427948,
				"element": "H" 
			},
			{
				"x": 1.0961267205,
				"y": 2.4577619416,
				"z": -1.8857733371,
				"element": "H" 
			},
			{
				"x": 0.3583307258,
				"y": 1.9606513545,
				"z": 3.2764073114,
				"element": "H" 
			},
			{
				"x": 0.128431068,
				"y": 0.2458365745,
				"z": -1.2363841482,
				"element": "H" 
			},
			{
				"x": -0.1620080011,
				"y": -1.8537844455,
				"z": -1.2904247787,
				"element": "H" 
			},
			{
				"x": -2.631094704,
				"y": -4.9556728101,
				"z": 0.3405269585,
				"element": "H" 
			},
			{
				"x": -2.9064016434,
				"y": -3.6360386666,
				"z": 2.4332856391,
				"element": "H" 
			},
			{
				"x": -1.8032860347,
				"y": -1.4096743239,
				"z": 2.6571751746,
				"element": "H" 
			}
		],
		 "valence_orbital": [ 
			{
				"type": "occ",
				"energy": -0.28863,
				"method": "rhf"
			},
			{
				"type": "occ",
				"energy": -0.25585,
				"method": "rhf"
			},
			{
				"type": "occ",
				"energy": -0.25294,
				"method": "rhf"
			},
			{
				"type": "occ",
				"energy": -0.24107,
				"method": "rhf"
			},
			{
				"type": "occ",
				"energy": -0.23869,
				"method": "rhf"
			},
			{
				"type": "unocc",
				"energy": -0.05483,
				"method": "rhf"
			},
			{
				"type": "unocc",
				"energy": -0.01905,
				"method": "rhf"
			},
			{
				"type": "unocc",
				"energy": -0.00474,
				"method": "rhf"
			},
			{
				"type": "unocc",
				"energy": 0.00567,
				"method": "rhf"
			},
			{
				"type": "unocc",
				"energy": 0.0227,
				"method": "rhf"
			}
		],
		"cosmo_sigma_profile": { 
			"-0.025": 0.0,
			"-0.024": 0.0,
			"-0.023": 0.0,
			"-0.022": 0.0,
			"-0.021": 0.0,
			"-0.02": 0.0,
			"-0.019": 0.0,
			"-0.018": 0.0,
			"-0.017": 0.0,
			"-0.016": 0.0,
			"-0.015": 0.229385474408,
			"-0.014": 1.88384600893,
			"-0.013": 2.08801843404,
			"-0.012": 2.71399076037,
			"-0.011": 2.73337580815,
			"-0.01": 2.78263778146,
			"-0.009": 3.98881661543,
			"-0.008": 4.54417001336,
			"-0.007": 6.80009092902,
			"-0.006": 9.56776180318,
			"-0.005": 10.6846677535,
			"-0.004": 9.91537924962,
			"-0.003": 10.716407408,
			"-0.002": 10.3174572401,
			"-0.001": 12.051865091,
			"0.0": 18.0627859902,
			"0.001": 26.7051188219,
			"0.002": 25.4157933164,
			"0.003": 23.5157011278,
			"0.004": 19.6791462158,
			"0.005": 9.94227813651,
			"0.006": 3.65767078211,
			"0.007": 3.87463433007,
			"0.008": 3.25811490988,
			"0.009": 2.90471597266,
			"0.01": 2.64605116948,
			"0.011": 1.21143686728,
			"0.012": 0.91173501066,
			"0.013": 2.16318112848,
			"0.014": 0.94357220146,
			"0.015": 0.60230090685,
			"0.016": 0.0,
			"0.017": 0.0,
			"0.018": 0.0,
			"0.019": 0.0,
			"0.02": 0.0,
			"0.021": 0.0,
			"0.022": 0.0,
			"0.023": 0.0,
			"0.024": 0.0,
			"0.025": 0.0
		}
	}
}
