{
	 "smiles": "ON=C1CCCOC2=C1C=C(Br)C=C2", 
	 "Tm": 381.15, 
	 "num_atms": 24, 
	 "gaussian": { 
		 "optdone": 1, 
		 "sigma_profile": "yes", 
		 "theory": "DFT", 
		 "functional": "B3LYP", 
		 "basiset": "6-31G**", 
		 "properties": { 
			 "R2extent": 6315.5901, 
			 "electric_dipole_moment_norm": 2.45755019888, 
			 "electric_quadrupole_moment_norm": 12.499991084, 
			 "total_energy": -3163.62222252, 
			 "HOMO_LUMO_gap": 0.18317, 
			 "cosmo_polarized_energy": -9.7, 
			 "cosmo_cavitation_energy": 29.13, 
			 "cosmo_dispersion_energy": -22.02, 
			 "cosmo_repulsion_energy": 1.75, 
			 "cosmo_total_nonelectrostatic_energy": 8.86, 
			 "SMD_solvation_energy": 3.53 
		},
		"coords": [
			{
				"x": 0.7711115205,
				"y": 2.6056746648,
				"z": -1.4356522367,
				"element": "O" 
			},
			{
				"x": 0.8437579625,
				"y": 2.008934507,
				"z": -0.1681126658,
				"element": "N" 
			},
			{
				"x": 0.5746841205,
				"y": 0.7490369073,
				"z": -0.1444908256,
				"element": "C" 
			},
			{
				"x": 0.608283297,
				"y": 0.1763187516,
				"z": 1.2719965532,
				"element": "C" 
			},
			{
				"x": 0.9084536906,
				"y": -1.3273860104,
				"z": 1.3390826512,
				"element": "C" 
			},
			{
				"x": -0.3495084096,
				"y": -2.1485316215,
				"z": 1.0400129231,
				"element": "C" 
			},
			{
				"x": -1.1819721073,
				"y": -1.5294319443,
				"z": 0.0444904495,
				"element": "O" 
			},
			{
				"x": -0.5631584286,
				"y": -1.2601655697,
				"z": -1.1547902475,
				"element": "C" 
			},
			{
				"x": 0.2747640272,
				"y": -0.1324345462,
				"z": -1.3059250287,
				"element": "C" 
			},
			{
				"x": 0.844166582,
				"y": 0.0947921967,
				"z": -2.5737319513,
				"element": "C" 
			},
			{
				"x": 0.5688809143,
				"y": -0.7606143525,
				"z": -3.6340831232,
				"element": "C" 
			},
			{
				"x": 1.3692958141,
				"y": -0.4208973231,
				"z": -5.3391023307,
				"element": "Br" 
			},
			{
				"x": -0.2801297695,
				"y": -1.8556510911,
				"z": -3.4863959773,
				"element": "C" 
			},
			{
				"x": -0.8395194591,
				"y": -2.0994182002,
				"z": -2.2349730525,
				"element": "C" 
			},
			{
				"x": 0.9716388106,
				"y": 3.5279824307,
				"z": -1.228985594,
				"element": "H" 
			},
			{
				"x": 1.3531435847,
				"y": 0.7477338538,
				"z": 1.8315796684,
				"element": "H" 
			},
			{
				"x": -0.3594305292,
				"y": 0.3699851239,
				"z": 1.7519872596,
				"element": "H" 
			},
			{
				"x": 1.2671592841,
				"y": -1.5964739612,
				"z": 2.3390957207,
				"element": "H" 
			},
			{
				"x": 1.7143327337,
				"y": -1.581786927,
				"z": 0.6418187083,
				"element": "H" 
			},
			{
				"x": -0.0971998504,
				"y": -3.1729847523,
				"z": 0.7327092117,
				"element": "H" 
			},
			{
				"x": -0.9917097134,
				"y": -2.2038586606,
				"z": 1.9236399776,
				"element": "H" 
			},
			{
				"x": 1.4941152617,
				"y": 0.9437637774,
				"z": -2.7221050036,
				"element": "H" 
			},
			{
				"x": -0.4960711376,
				"y": -2.5039565294,
				"z": -4.3277949326,
				"element": "H" 
			},
			{
				"x": -1.5072881989,
				"y": -2.9399307237,
				"z": -2.0764701536,
				"element": "H" 
			}
		],
		 "valence_orbital": [ 
			{
				"type": "occ",
				"energy": -0.28146,
				"method": "rhf"
			},
			{
				"type": "occ",
				"energy": -0.27999,
				"method": "rhf"
			},
			{
				"type": "occ",
				"energy": -0.26835,
				"method": "rhf"
			},
			{
				"type": "occ",
				"energy": -0.24315,
				"method": "rhf"
			},
			{
				"type": "occ",
				"energy": -0.22785,
				"method": "rhf"
			},
			{
				"type": "unocc",
				"energy": -0.04468,
				"method": "rhf"
			},
			{
				"type": "unocc",
				"energy": -0.01027,
				"method": "rhf"
			},
			{
				"type": "unocc",
				"energy": 0.00905,
				"method": "rhf"
			},
			{
				"type": "unocc",
				"energy": 0.03486,
				"method": "rhf"
			},
			{
				"type": "unocc",
				"energy": 0.07517,
				"method": "rhf"
			}
		],
		"cosmo_sigma_profile": { 
			"-0.025": 0.0,
			"-0.024": 0.0,
			"-0.023": 0.0,
			"-0.022": 0.0,
			"-0.021": 0.0,
			"-0.02": 0.0,
			"-0.019": 0.0,
			"-0.018": 0.187801415353,
			"-0.017": 0.869269605807,
			"-0.016": 0.984721470077,
			"-0.015": 0.66685561606,
			"-0.014": 0.94672783311,
			"-0.013": 0.754256771036,
			"-0.012": 0.528685506401,
			"-0.011": 0.341619868222,
			"-0.01": 0.813342349496,
			"-0.009": 0.437393267415,
			"-0.008": 1.6413819219,
			"-0.007": 3.93385527804,
			"-0.006": 4.44714389923,
			"-0.005": 12.5610075234,
			"-0.004": 22.4487479794,
			"-0.003": 24.4687864156,
			"-0.002": 18.3530314921,
			"-0.001": 17.3222614684,
			"0.0": 13.0510946005,
			"0.001": 15.8641992583,
			"0.002": 24.4986909894,
			"0.003": 18.2184652905,
			"0.004": 17.1537829593,
			"0.005": 11.0982274472,
			"0.006": 5.30901734935,
			"0.007": 4.19287005187,
			"0.008": 3.10232620045,
			"0.009": 3.36159208348,
			"0.01": 2.68121580312,
			"0.011": 2.06627116135,
			"0.012": 1.15991465306,
			"0.013": 0.694290811977,
			"0.014": 0.134981898137,
			"0.015": 0.0,
			"0.016": 0.0,
			"0.017": 0.0,
			"0.018": 0.0,
			"0.019": 0.0,
			"0.02": 0.0,
			"0.021": 0.0,
			"0.022": 0.0,
			"0.023": 0.0,
			"0.024": 0.0,
			"0.025": 0.0
		}
	}
}
