{
	 "smiles": "CC(=O)NC1=CC=C(C)C=C1Br", 
	 "Tm": 391.15, 
	 "num_atms": 22, 
	 "gaussian": { 
		 "optdone": 1, 
		 "sigma_profile": "yes", 
		 "theory": "DFT", 
		 "functional": "B3LYP", 
		 "basiset": "6-31G**", 
		 "properties": { 
			 "R2extent": 4448.9613, 
			 "electric_dipole_moment_norm": 4.57390011587, 
			 "electric_quadrupole_moment_norm": 10.7505331421, 
			 "total_energy": -3050.38776666, 
			 "HOMO_LUMO_gap": 0.20214, 
			 "cosmo_polarized_energy": -10.36, 
			 "cosmo_cavitation_energy": 27.91, 
			 "cosmo_dispersion_energy": -20.56, 
			 "cosmo_repulsion_energy": 1.65, 
			 "cosmo_total_nonelectrostatic_energy": 9.0, 
			 "SMD_solvation_energy": 4.63 
		},
		"coords": [
			{
				"x": 2.4363013466,
				"y": -1.9554580298,
				"z": -1.4999386428,
				"element": "C" 
			},
			{
				"x": 2.3315406156,
				"y": -0.5880496936,
				"z": -2.1479686158,
				"element": "C" 
			},
			{
				"x": 3.2167756208,
				"y": -0.1430196279,
				"z": -2.8618879599,
				"element": "O" 
			},
			{
				"x": 1.1883090988,
				"y": 0.1734474119,
				"z": -1.9379042384,
				"element": "N" 
			},
			{
				"x": 0.0174605054,
				"y": -0.0843282971,
				"z": -1.2080496328,
				"element": "C" 
			},
			{
				"x": 0.0356362532,
				"y": -0.6834469543,
				"z": 0.0624437431,
				"element": "C" 
			},
			{
				"x": -1.1391854476,
				"y": -0.9155157737,
				"z": 0.7704193767,
				"element": "C" 
			},
			{
				"x": -2.3859482095,
				"y": -0.5293124072,
				"z": 0.2631505021,
				"element": "C" 
			},
			{
				"x": -3.6621424718,
				"y": -0.7976956035,
				"z": 1.024271132,
				"element": "C" 
			},
			{
				"x": -2.4105862645,
				"y": 0.106957108,
				"z": -0.9823304979,
				"element": "C" 
			},
			{
				"x": -1.2377594584,
				"y": 0.3161913782,
				"z": -1.7020024012,
				"element": "C" 
			},
			{
				"x": -1.358824183,
				"y": 1.1952819326,
				"z": -3.3994010513,
				"element": "Br" 
			},
			{
				"x": 1.4739561445,
				"y": -2.4644102485,
				"z": -1.4128337955,
				"element": "H" 
			},
			{
				"x": 2.8705651768,
				"y": -1.8698646679,
				"z": -0.4980867355,
				"element": "H" 
			},
			{
				"x": 3.1205134982,
				"y": -2.5466890504,
				"z": -2.1094698094,
				"element": "H" 
			},
			{
				"x": 1.1623491574,
				"y": 0.9779020028,
				"z": -2.5546138538,
				"element": "H" 
			},
			{
				"x": 0.98809362,
				"y": -0.943634119,
				"z": 0.5080983044,
				"element": "H" 
			},
			{
				"x": -1.0800170606,
				"y": -1.3849219664,
				"z": 1.7488052952,
				"element": "H" 
			},
			{
				"x": -4.4633073391,
				"y": -0.1208437483,
				"z": 0.7146418197,
				"element": "H" 
			},
			{
				"x": -3.5152918237,
				"y": -0.6774574665,
				"z": 2.1021494796,
				"element": "H" 
			},
			{
				"x": -4.015805469,
				"y": -1.8226765438,
				"z": 0.8571589676,
				"element": "H" 
			},
			{
				"x": -3.35273331,
				"y": 0.4389443645,
				"z": -1.4054513861,
				"element": "H" 
			}
		],
		 "valence_orbital": [ 
			{
				"type": "occ",
				"energy": -0.30309,
				"method": "rhf"
			},
			{
				"type": "occ",
				"energy": -0.29491,
				"method": "rhf"
			},
			{
				"type": "occ",
				"energy": -0.25628,
				"method": "rhf"
			},
			{
				"type": "occ",
				"energy": -0.25395,
				"method": "rhf"
			},
			{
				"type": "occ",
				"energy": -0.22627,
				"method": "rhf"
			},
			{
				"type": "unocc",
				"energy": -0.02413,
				"method": "rhf"
			},
			{
				"type": "unocc",
				"energy": -0.02106,
				"method": "rhf"
			},
			{
				"type": "unocc",
				"energy": -0.00126,
				"method": "rhf"
			},
			{
				"type": "unocc",
				"energy": 0.0299,
				"method": "rhf"
			},
			{
				"type": "unocc",
				"energy": 0.09115,
				"method": "rhf"
			}
		],
		"cosmo_sigma_profile": { 
			"-0.025": 0.0,
			"-0.024": 0.0,
			"-0.023": 0.0,
			"-0.022": 0.0,
			"-0.021": 0.0,
			"-0.02": 0.0,
			"-0.019": 0.0,
			"-0.018": 0.0,
			"-0.017": 0.0,
			"-0.016": 0.0,
			"-0.015": 0.0,
			"-0.014": 0.0,
			"-0.013": 0.0,
			"-0.012": 0.00698881309127,
			"-0.011": 0.431778601183,
			"-0.01": 0.871736653136,
			"-0.009": 0.897005945166,
			"-0.008": 2.78442866597,
			"-0.007": 5.34946126057,
			"-0.006": 8.96169369911,
			"-0.005": 14.5200771193,
			"-0.004": 19.5594768922,
			"-0.003": 18.8739231044,
			"-0.002": 21.0969115588,
			"-0.001": 22.5364352747,
			"0.0": 19.5786442653,
			"0.001": 14.9649557993,
			"0.002": 17.790166581,
			"0.003": 17.6961491572,
			"0.004": 16.3181622028,
			"0.005": 3.22468581005,
			"0.006": 1.38868680932,
			"0.007": 1.64357048272,
			"0.008": 1.44975239145,
			"0.009": 0.890339680052,
			"0.01": 1.31413619707,
			"0.011": 1.18243437955,
			"0.012": 2.79951543312,
			"0.013": 5.72603093234,
			"0.014": 2.84531486517,
			"0.015": 0.335367711137,
			"0.016": 0.0,
			"0.017": 0.0,
			"0.018": 0.0,
			"0.019": 0.0,
			"0.02": 0.0,
			"0.021": 0.0,
			"0.022": 0.0,
			"0.023": 0.0,
			"0.024": 0.0,
			"0.025": 0.0
		}
	}
}
