{
	 "smiles": "C1CN(CCN1)C1=NOC2=CC=CC=C12", 
	 "Tm": 348.15, 
	 "num_atms": 28, 
	 "gaussian": { 
		 "optdone": 1, 
		 "sigma_profile": "yes", 
		 "theory": "DFT", 
		 "functional": "B3LYP", 
		 "basiset": "6-31G**", 
		 "properties": { 
			 "R2extent": 3734.7344, 
			 "electric_dipole_moment_norm": 2.75887168241, 
			 "electric_quadrupole_moment_norm": 15.495602683, 
			 "total_energy": -666.418418048, 
			 "HOMO_LUMO_gap": 0.17388, 
			 "cosmo_polarized_energy": -12.41, 
			 "cosmo_cavitation_energy": 29.81, 
			 "cosmo_dispersion_energy": -22.57, 
			 "cosmo_repulsion_energy": 1.74, 
			 "cosmo_total_nonelectrostatic_energy": 8.98, 
			 "SMD_solvation_energy": 1.16 
		},
		"coords": [
			{
				"x": 1.0119480865,
				"y": 3.1854920052,
				"z": -0.7568385717,
				"element": "C" 
			},
			{
				"x": -0.2008237129,
				"y": 2.2537224102,
				"z": -0.7159213473,
				"element": "C" 
			},
			{
				"x": 0.2712265375,
				"y": 0.8671624078,
				"z": -0.6368079566,
				"element": "N" 
			},
			{
				"x": 1.549795628,
				"y": 0.565291308,
				"z": -1.2947337731,
				"element": "C" 
			},
			{
				"x": 1.8238274289,
				"y": 1.5618635253,
				"z": -2.4224752756,
				"element": "C" 
			},
			{
				"x": 1.9208571824,
				"y": 2.9255317833,
				"z": -1.8874730397,
				"element": "N" 
			},
			{
				"x": -0.6630655721,
				"y": -0.1105142951,
				"z": -0.4106091871,
				"element": "C" 
			},
			{
				"x": -1.944390644,
				"y": 0.2018445248,
				"z": -0.3298459657,
				"element": "N" 
			},
			{
				"x": -2.6430044251,
				"y": -0.9971263394,
				"z": -0.0189085322,
				"element": "O" 
			},
			{
				"x": -1.7466819659,
				"y": -2.0020875714,
				"z": 0.0589690769,
				"element": "C" 
			},
			{
				"x": -2.0302026161,
				"y": -3.3384975293,
				"z": 0.3482363939,
				"element": "C" 
			},
			{
				"x": -0.9434217629,
				"y": -4.2033153023,
				"z": 0.416724336,
				"element": "C" 
			},
			{
				"x": 0.3751067391,
				"y": -3.7480915243,
				"z": 0.2143679346,
				"element": "C" 
			},
			{
				"x": 0.6372677429,
				"y": -2.4135542143,
				"z": -0.0754626985,
				"element": "C" 
			},
			{
				"x": -0.4483002428,
				"y": -1.5272457166,
				"z": -0.1689874998,
				"element": "C" 
			},
			{
				"x": 0.6725220744,
				"y": 4.2248301188,
				"z": -0.7999232802,
				"element": "H" 
			},
			{
				"x": 1.5638395477,
				"y": 3.0748136013,
				"z": 0.1866239726,
				"element": "H" 
			},
			{
				"x": -0.8436483299,
				"y": 2.406092251,
				"z": -1.596978774,
				"element": "H" 
			},
			{
				"x": -0.821866216,
				"y": 2.4569218845,
				"z": 0.1624686829,
				"element": "H" 
			},
			{
				"x": 1.5125697526,
				"y": -0.4403467364,
				"z": -1.7183177599,
				"element": "H" 
			},
			{
				"x": 2.3778329154,
				"y": 0.5969306771,
				"z": -0.5721199168,
				"element": "H" 
			},
			{
				"x": 2.7694404852,
				"y": 1.2937108601,
				"z": -2.9105485154,
				"element": "H" 
			},
			{
				"x": 1.0272531515,
				"y": 1.4448441465,
				"z": -3.1770483821,
				"element": "H" 
			},
			{
				"x": 1.7483565945,
				"y": 3.5917528991,
				"z": -2.6321928986,
				"element": "H" 
			},
			{
				"x": -3.0482890088,
				"y": -3.6719371149,
				"z": 0.5149556336,
				"element": "H" 
			},
			{
				"x": -1.1137991678,
				"y": -5.2525813286,
				"z": 0.639539341,
				"element": "H" 
			},
			{
				"x": 1.1984804734,
				"y": -4.4511761063,
				"z": 0.2920396226,
				"element": "H" 
			},
			{
				"x": 1.6589693244,
				"y": -2.0763306238,
				"z": -0.2099316199,
				"element": "H" 
			}
		],
		 "valence_orbital": [ 
			{
				"type": "occ",
				"energy": -0.29115,
				"method": "rhf"
			},
			{
				"type": "occ",
				"energy": -0.25528,
				"method": "rhf"
			},
			{
				"type": "occ",
				"energy": -0.24348,
				"method": "rhf"
			},
			{
				"type": "occ",
				"energy": -0.2225,
				"method": "rhf"
			},
			{
				"type": "occ",
				"energy": -0.2037,
				"method": "rhf"
			},
			{
				"type": "unocc",
				"energy": -0.02982,
				"method": "rhf"
			},
			{
				"type": "unocc",
				"energy": 0.00809,
				"method": "rhf"
			},
			{
				"type": "unocc",
				"energy": 0.06132,
				"method": "rhf"
			},
			{
				"type": "unocc",
				"energy": 0.07265,
				"method": "rhf"
			},
			{
				"type": "unocc",
				"energy": 0.08808,
				"method": "rhf"
			}
		],
		"cosmo_sigma_profile": { 
			"-0.025": 0.0,
			"-0.024": 0.0,
			"-0.023": 0.0,
			"-0.022": 0.0,
			"-0.021": 0.0,
			"-0.02": 0.0,
			"-0.019": 0.0,
			"-0.018": 0.0,
			"-0.017": 0.0,
			"-0.016": 0.0,
			"-0.015": 0.0,
			"-0.014": 0.0,
			"-0.013": 0.0,
			"-0.012": 0.0,
			"-0.011": 0.158083041845,
			"-0.01": 1.27477759821,
			"-0.009": 1.76288931393,
			"-0.008": 1.11588124265,
			"-0.007": 5.13231186468,
			"-0.006": 12.5838374836,
			"-0.005": 16.1288479337,
			"-0.004": 24.8831159,
			"-0.003": 31.1253741683,
			"-0.002": 21.0521407647,
			"-0.001": 15.5363185459,
			"0.0": 11.8155888316,
			"0.001": 13.5506385004,
			"0.002": 15.0078369969,
			"0.003": 14.0020910293,
			"0.004": 13.4797611126,
			"0.005": 7.03343028827,
			"0.006": 2.73521955196,
			"0.007": 2.90375026357,
			"0.008": 2.91561845521,
			"0.009": 5.56789528011,
			"0.01": 5.60394718921,
			"0.011": 1.87233782862,
			"0.012": 1.39793332153,
			"0.013": 2.42802090789,
			"0.014": 1.57075607361,
			"0.015": 1.45017922571,
			"0.016": 0.778169703838,
			"0.017": 0.381392908642,
			"0.018": 0.363344969636,
			"0.019": 0.0351660928801,
			"0.02": 0.0,
			"0.021": 0.0,
			"0.022": 0.0,
			"0.023": 0.0,
			"0.024": 0.0,
			"0.025": 0.0
		}
	}
}
