{
	 "smiles": "O=NN1CCC2=CC=CC=C12", 
	 "Tm": 356.15, 
	 "num_atms": 19, 
	 "gaussian": { 
		 "optdone": 1, 
		 "sigma_profile": "yes", 
		 "theory": "DFT", 
		 "functional": "B3LYP", 
		 "basiset": "6-31G**", 
		 "properties": { 
			 "R2extent": 1817.8773, 
			 "electric_dipole_moment_norm": 4.30362625004, 
			 "electric_quadrupole_moment_norm": 13.329849426, 
			 "total_energy": -494.322083966, 
			 "HOMO_LUMO_gap": 0.17146, 
			 "cosmo_polarized_energy": -9.46, 
			 "cosmo_cavitation_energy": 22.49, 
			 "cosmo_dispersion_energy": -17.05, 
			 "cosmo_repulsion_energy": 1.36, 
			 "cosmo_total_nonelectrostatic_energy": 6.81, 
			 "SMD_solvation_energy": 3.8 
		},
		"coords": [
			{
				"x": -3.0967651231,
				"y": 1.0428949365,
				"z": -1.5018228265,
				"element": "O" 
			},
			{
				"x": -2.4595016887,
				"y": 0.1403457181,
				"z": -2.0430838092,
				"element": "N" 
			},
			{
				"x": -1.2066521652,
				"y": -0.0223258871,
				"z": -1.6004829607,
				"element": "N" 
			},
			{
				"x": -0.3681361062,
				"y": -1.0553034951,
				"z": -2.2397297006,
				"element": "C" 
			},
			{
				"x": 0.8354491787,
				"y": -1.2060465762,
				"z": -1.2799693596,
				"element": "C" 
			},
			{
				"x": 0.7445044186,
				"y": 0.0281546491,
				"z": -0.4053983697,
				"element": "C" 
			},
			{
				"x": 1.6496504304,
				"y": 0.5273879218,
				"z": 0.5209967499,
				"element": "C" 
			},
			{
				"x": 1.3133539697,
				"y": 1.6743313531,
				"z": 1.2515146862,
				"element": "C" 
			},
			{
				"x": 0.0811262062,
				"y": 2.3012168931,
				"z": 1.0529062286,
				"element": "C" 
			},
			{
				"x": -0.8447953937,
				"y": 1.8134751203,
				"z": 0.1244622125,
				"element": "C" 
			},
			{
				"x": -0.4875833757,
				"y": 0.6735841342,
				"z": -0.5999259504,
				"element": "C" 
			},
			{
				"x": -0.9489199072,
				"y": -1.9696111548,
				"z": -2.3703485203,
				"element": "H" 
			},
			{
				"x": -0.0504653172,
				"y": -0.7029947375,
				"z": -3.2272115298,
				"element": "H" 
			},
			{
				"x": 0.7473163308,
				"y": -2.1158979722,
				"z": -0.6736225185,
				"element": "H" 
			},
			{
				"x": 1.7808740956,
				"y": -1.2727104276,
				"z": -1.8260019415,
				"element": "H" 
			},
			{
				"x": 2.6055159638,
				"y": 0.034945024,
				"z": 0.6783438807,
				"element": "H" 
			},
			{
				"x": 2.0144067017,
				"y": 2.0764003251,
				"z": 1.976704046,
				"element": "H" 
			},
			{
				"x": -0.1689647102,
				"y": 3.1885509926,
				"z": 1.6269183195,
				"element": "H" 
			},
			{
				"x": -1.7994135083,
				"y": 2.2911031828,
				"z": -0.0357486365,
				"element": "H" 
			}
		],
		 "valence_orbital": [ 
			{
				"type": "occ",
				"energy": -0.35005,
				"method": "rhf"
			},
			{
				"type": "occ",
				"energy": -0.30545,
				"method": "rhf"
			},
			{
				"type": "occ",
				"energy": -0.25674,
				"method": "rhf"
			},
			{
				"type": "occ",
				"energy": -0.22378,
				"method": "rhf"
			},
			{
				"type": "occ",
				"energy": -0.2211,
				"method": "rhf"
			},
			{
				"type": "unocc",
				"energy": -0.04964,
				"method": "rhf"
			},
			{
				"type": "unocc",
				"energy": -0.01242,
				"method": "rhf"
			},
			{
				"type": "unocc",
				"energy": 0.01935,
				"method": "rhf"
			},
			{
				"type": "unocc",
				"energy": 0.08721,
				"method": "rhf"
			},
			{
				"type": "unocc",
				"energy": 0.09482,
				"method": "rhf"
			}
		],
		"cosmo_sigma_profile": { 
			"-0.025": 0.0,
			"-0.024": 0.0,
			"-0.023": 0.0,
			"-0.022": 0.0,
			"-0.021": 0.0,
			"-0.02": 0.0,
			"-0.019": 0.0,
			"-0.018": 0.0,
			"-0.017": 0.0,
			"-0.016": 0.0,
			"-0.015": 0.0,
			"-0.014": 0.0,
			"-0.013": 0.0,
			"-0.012": 0.0,
			"-0.011": 0.0,
			"-0.01": 0.0,
			"-0.009": 0.0,
			"-0.008": 0.0,
			"-0.007": 2.12760901618,
			"-0.006": 14.8213788588,
			"-0.005": 21.0264122197,
			"-0.004": 20.148560573,
			"-0.003": 15.7680558096,
			"-0.002": 11.6554917902,
			"-0.001": 10.2233610637,
			"0.0": 8.39922047598,
			"0.001": 9.66333840758,
			"0.002": 10.1774772328,
			"0.003": 11.1309630375,
			"0.004": 12.4341518936,
			"0.005": 9.03616482738,
			"0.006": 2.61808489291,
			"0.007": 2.49666207379,
			"0.008": 3.13686850503,
			"0.009": 4.70679160201,
			"0.01": 4.453593216,
			"0.011": 2.50235460725,
			"0.012": 2.03592446747,
			"0.013": 1.06634474142,
			"0.014": 0.0624682981232,
			"0.015": 0.0,
			"0.016": 0.0,
			"0.017": 0.0,
			"0.018": 0.0,
			"0.019": 0.0,
			"0.02": 0.0,
			"0.021": 0.0,
			"0.022": 0.0,
			"0.023": 0.0,
			"0.024": 0.0,
			"0.025": 0.0
		}
	}
}
