{
	 "smiles": "CCCCS(Cl)(=O)=O", 
	 "Tm": 244.15, 
	 "num_atms": 17, 
	 "gaussian": { 
		 "optdone": 1, 
		 "sigma_profile": "yes", 
		 "theory": "DFT", 
		 "functional": "B3LYP", 
		 "basiset": "6-31G**", 
		 "properties": { 
			 "R2extent": 3523.9116, 
			 "electric_dipole_moment_norm": 4.7989190835, 
			 "electric_quadrupole_moment_norm": 13.8039157586, 
			 "total_energy": -1166.6255985, 
			 "HOMO_LUMO_gap": 0.23258, 
			 "cosmo_polarized_energy": -9.45, 
			 "cosmo_cavitation_energy": 23.39, 
			 "cosmo_dispersion_energy": -17.53, 
			 "cosmo_repulsion_energy": 1.44, 
			 "cosmo_total_nonelectrostatic_energy": 7.29, 
			 "SMD_solvation_energy": 2.47 
		},
		"coords": [
			{
				"x": 0.4109491382,
				"y": -1.1554138287,
				"z": 0.4893712577,
				"element": "C" 
			},
			{
				"x": -0.9561471059,
				"y": -1.0410969507,
				"z": -0.1942418899,
				"element": "C" 
			},
			{
				"x": -1.0348195329,
				"y": 0.0319845457,
				"z": -1.2960208397,
				"element": "C" 
			},
			{
				"x": -0.8675653142,
				"y": 1.4478866003,
				"z": -0.7335639433,
				"element": "C" 
			},
			{
				"x": -1.0222831456,
				"y": 2.6768320668,
				"z": -2.0640553359,
				"element": "S" 
			},
			{
				"x": -0.7518860983,
				"y": 4.4635384908,
				"z": -0.9186890887,
				"element": "Cl" 
			},
			{
				"x": 0.1192387609,
				"y": 2.5718283375,
				"z": -2.9655123092,
				"element": "O" 
			},
			{
				"x": -2.392660931,
				"y": 2.6944726098,
				"z": -2.5624857022,
				"element": "O" 
			},
			{
				"x": 1.2046898291,
				"y": -1.3422996623,
				"z": -0.2424606029,
				"element": "H" 
			},
			{
				"x": 0.4170927462,
				"y": -1.9832594374,
				"z": 1.2048357045,
				"element": "H" 
			},
			{
				"x": 0.6755996445,
				"y": -0.2486715055,
				"z": 1.0437813135,
				"element": "H" 
			},
			{
				"x": -1.7347304749,
				"y": -0.8497491452,
				"z": 0.5557215401,
				"element": "H" 
			},
			{
				"x": -1.2098518173,
				"y": -2.0025600475,
				"z": -0.6558648917,
				"element": "H" 
			},
			{
				"x": -2.0034841768,
				"y": -0.0333307,
				"z": -1.8020595403,
				"element": "H" 
			},
			{
				"x": -0.2603069875,
				"y": -0.1490833208,
				"z": -2.0495909682,
				"element": "H" 
			},
			{
				"x": 0.1162836437,
				"y": 1.6230599648,
				"z": -0.2940563139,
				"element": "H" 
			},
			{
				"x": -1.6432181781,
				"y": 1.7044619823,
				"z": -0.0074083899,
				"element": "H" 
			}
		],
		 "valence_orbital": [ 
			{
				"type": "occ",
				"energy": -0.35588,
				"method": "rhf"
			},
			{
				"type": "occ",
				"energy": -0.33917,
				"method": "rhf"
			},
			{
				"type": "occ",
				"energy": -0.33221,
				"method": "rhf"
			},
			{
				"type": "occ",
				"energy": -0.32771,
				"method": "rhf"
			},
			{
				"type": "occ",
				"energy": -0.31458,
				"method": "rhf"
			},
			{
				"type": "unocc",
				"energy": -0.082,
				"method": "rhf"
			},
			{
				"type": "unocc",
				"energy": 0.03224,
				"method": "rhf"
			},
			{
				"type": "unocc",
				"energy": 0.06287,
				"method": "rhf"
			},
			{
				"type": "unocc",
				"energy": 0.07867,
				"method": "rhf"
			},
			{
				"type": "unocc",
				"energy": 0.08423,
				"method": "rhf"
			}
		],
		"cosmo_sigma_profile": { 
			"-0.025": 0.0,
			"-0.024": 0.0,
			"-0.023": 0.0,
			"-0.022": 0.0,
			"-0.021": 0.0,
			"-0.02": 0.0,
			"-0.019": 0.0,
			"-0.018": 0.0,
			"-0.017": 0.0,
			"-0.016": 0.0,
			"-0.015": 0.0,
			"-0.014": 0.0,
			"-0.013": 0.0,
			"-0.012": 0.0,
			"-0.011": 0.0,
			"-0.01": 0.696054497436,
			"-0.009": 3.71558923697,
			"-0.008": 4.19098714401,
			"-0.007": 4.6516951964,
			"-0.006": 5.0485259782,
			"-0.005": 7.80771394517,
			"-0.004": 14.8652008357,
			"-0.003": 19.8032907486,
			"-0.002": 17.5804129286,
			"-0.001": 17.872225487,
			"0.0": 15.6610438415,
			"0.001": 11.918211248,
			"0.002": 7.92211211985,
			"0.003": 11.9557496844,
			"0.004": 11.8221820296,
			"0.005": 3.41723148326,
			"0.006": 2.9561490492,
			"0.007": 3.59122035055,
			"0.008": 10.4134771132,
			"0.009": 9.14402049407,
			"0.01": 0.789191949332,
			"0.011": 0.0,
			"0.012": 0.0,
			"0.013": 0.0,
			"0.014": 0.0,
			"0.015": 0.0,
			"0.016": 0.0,
			"0.017": 0.0,
			"0.018": 0.0,
			"0.019": 0.0,
			"0.02": 0.0,
			"0.021": 0.0,
			"0.022": 0.0,
			"0.023": 0.0,
			"0.024": 0.0,
			"0.025": 0.0
		}
	}
}
