{
	 "smiles": "OC1CCN(CC1)C(=O)CCC(O)=O", 
	 "Tm": 395.15, 
	 "num_atms": 29, 
	 "gaussian": { 
		 "optdone": 1, 
		 "sigma_profile": "yes", 
		 "theory": "DFT", 
		 "functional": "B3LYP", 
		 "basiset": "6-31G**", 
		 "properties": { 
			 "R2extent": 4257.7613, 
			 "electric_dipole_moment_norm": 6.35298911852, 
			 "electric_quadrupole_moment_norm": 13.1534284728, 
			 "total_energy": -707.669114603, 
			 "HOMO_LUMO_gap": 0.26155, 
			 "cosmo_polarized_energy": -21.78, 
			 "cosmo_cavitation_energy": 30.97, 
			 "cosmo_dispersion_energy": -22.52, 
			 "cosmo_repulsion_energy": 1.82, 
			 "cosmo_total_nonelectrostatic_energy": 10.27, 
			 "SMD_solvation_energy": 5.59 
		},
		"coords": [
			{
				"x": -4.2184591841,
				"y": 0.8116933426,
				"z": -1.2458672027,
				"element": "O" 
			},
			{
				"x": -3.1974324155,
				"y": 1.8059479666,
				"z": -1.1543440274,
				"element": "C" 
			},
			{
				"x": -1.9152071066,
				"y": 1.3742457645,
				"z": -1.8932039959,
				"element": "C" 
			},
			{
				"x": -1.0725208159,
				"y": 0.4164765904,
				"z": -1.0491792485,
				"element": "C" 
			},
			{
				"x": -0.6321771993,
				"y": 1.0949589342,
				"z": 0.1777828257,
				"element": "N" 
			},
			{
				"x": -1.4399892447,
				"y": 2.2272947486,
				"z": 0.6564806411,
				"element": "C" 
			},
			{
				"x": -2.9204744911,
				"y": 1.9951314879,
				"z": 0.3512565796,
				"element": "C" 
			},
			{
				"x": 0.4209828048,
				"y": 0.674967436,
				"z": 0.9461384938,
				"element": "C" 
			},
			{
				"x": 0.7482878477,
				"y": 1.2546877073,
				"z": 1.9806468311,
				"element": "O" 
			},
			{
				"x": 1.1870481221,
				"y": -0.5598731557,
				"z": 0.4678468838,
				"element": "C" 
			},
			{
				"x": 2.2512608869,
				"y": -0.9771768452,
				"z": 1.4839351659,
				"element": "C" 
			},
			{
				"x": 3.3539679328,
				"y": 0.0337906589,
				"z": 1.7250682888,
				"element": "C" 
			},
			{
				"x": 3.6183398713,
				"y": 0.7875569349,
				"z": 0.6255909229,
				"element": "O" 
			},
			{
				"x": 3.996892917,
				"y": 0.1308277707,
				"z": 2.7447048746,
				"element": "O" 
			},
			{
				"x": -4.5069044489,
				"y": 0.7609776903,
				"z": -2.1666205455,
				"element": "H" 
			},
			{
				"x": -3.552756798,
				"y": 2.750514318,
				"z": -1.5944023104,
				"element": "H" 
			},
			{
				"x": -2.1802461723,
				"y": 0.8930557045,
				"z": -2.8420254237,
				"element": "H" 
			},
			{
				"x": -1.3155599161,
				"y": 2.257742655,
				"z": -2.1431417108,
				"element": "H" 
			},
			{
				"x": -0.2014517777,
				"y": 0.0864232704,
				"z": -1.6210955276,
				"element": "H" 
			},
			{
				"x": -1.6721531787,
				"y": -0.4755100566,
				"z": -0.8151108797,
				"element": "H" 
			},
			{
				"x": -1.0898732274,
				"y": 3.1639519584,
				"z": 0.1988000395,
				"element": "H" 
			},
			{
				"x": -1.2630752692,
				"y": 2.3160732999,
				"z": 1.7288232715,
				"element": "H" 
			},
			{
				"x": -3.5180174714,
				"y": 2.817459817,
				"z": 0.7561495113,
				"element": "H" 
			},
			{
				"x": -3.2515339792,
				"y": 1.0805451991,
				"z": 0.855292323,
				"element": "H" 
			},
			{
				"x": 0.4913777324,
				"y": -1.3911652277,
				"z": 0.3011204805,
				"element": "H" 
			},
			{
				"x": 1.6560328848,
				"y": -0.3464126953,
				"z": -0.4990861485,
				"element": "H" 
			},
			{
				"x": 1.8081748239,
				"y": -1.1886443062,
				"z": 2.4583044935,
				"element": "H" 
			},
			{
				"x": 2.7379470144,
				"y": -1.8983943773,
				"z": 1.1381417585,
				"element": "H" 
			},
			{
				"x": 4.3371198582,
				"y": 1.3864534085,
				"z": 0.8875936355,
				"element": "H" 
			}
		],
		 "valence_orbital": [ 
			{
				"type": "occ",
				"energy": -0.30282,
				"method": "rhf"
			},
			{
				"type": "occ",
				"energy": -0.27649,
				"method": "rhf"
			},
			{
				"type": "occ",
				"energy": -0.25886,
				"method": "rhf"
			},
			{
				"type": "occ",
				"energy": -0.24547,
				"method": "rhf"
			},
			{
				"type": "occ",
				"energy": -0.2346,
				"method": "rhf"
			},
			{
				"type": "unocc",
				"energy": 0.02695,
				"method": "rhf"
			},
			{
				"type": "unocc",
				"energy": 0.03183,
				"method": "rhf"
			},
			{
				"type": "unocc",
				"energy": 0.05931,
				"method": "rhf"
			},
			{
				"type": "unocc",
				"energy": 0.07929,
				"method": "rhf"
			},
			{
				"type": "unocc",
				"energy": 0.08996,
				"method": "rhf"
			}
		],
		"cosmo_sigma_profile": { 
			"-0.025": 0.0,
			"-0.024": 0.0,
			"-0.023": 0.0,
			"-0.022": 0.0,
			"-0.021": 0.0,
			"-0.02": 0.0,
			"-0.019": 0.0,
			"-0.018": 0.343160405178,
			"-0.017": 0.999230918323,
			"-0.016": 0.757175232533,
			"-0.015": 1.58845715621,
			"-0.014": 1.89701480666,
			"-0.013": 2.23225567172,
			"-0.012": 1.54258738556,
			"-0.011": 0.821268995479,
			"-0.01": 2.15893204967,
			"-0.009": 1.41206821239,
			"-0.008": 1.81488409725,
			"-0.007": 4.22012844096,
			"-0.006": 9.1918863411,
			"-0.005": 16.1641303585,
			"-0.004": 30.6066442401,
			"-0.003": 30.5466308306,
			"-0.002": 24.6685761866,
			"-0.001": 15.3808274017,
			"0.0": 10.242376316,
			"0.001": 6.71331740598,
			"0.002": 6.21158364549,
			"0.003": 6.42992754862,
			"0.004": 4.32392570294,
			"0.005": 5.36633075488,
			"0.006": 5.02355806232,
			"0.007": 6.9447295715,
			"0.008": 5.84309365447,
			"0.009": 5.03568070881,
			"0.01": 4.96099693155,
			"0.011": 6.24175504145,
			"0.012": 8.53275522757,
			"0.013": 6.34090775807,
			"0.014": 5.25594503346,
			"0.015": 0.355305298341,
			"0.016": 0.0,
			"0.017": 0.0,
			"0.018": 0.0,
			"0.019": 0.0,
			"0.02": 0.0,
			"0.021": 0.0,
			"0.022": 0.0,
			"0.023": 0.0,
			"0.024": 0.0,
			"0.025": 0.0
		}
	}
}
