{
	 "smiles": "OCC1CCCN(C1)C1=NC=NC(Cl)=C1", 
	 "Tm": 385.15, 
	 "num_atms": 29, 
	 "gaussian": { 
		 "optdone": 1, 
		 "sigma_profile": "yes", 
		 "theory": "DFT", 
		 "functional": "B3LYP", 
		 "basiset": "6-31G**", 
		 "properties": { 
			 "R2extent": 4978.4575, 
			 "electric_dipole_moment_norm": 6.42104863476, 
			 "electric_quadrupole_moment_norm": 12.5031750408, 
			 "total_energy": -1089.16340893, 
			 "HOMO_LUMO_gap": 0.19546, 
			 "cosmo_polarized_energy": -14.0, 
			 "cosmo_cavitation_energy": 32.19, 
			 "cosmo_dispersion_energy": -23.86, 
			 "cosmo_repulsion_energy": 1.88, 
			 "cosmo_total_nonelectrostatic_energy": 10.22, 
			 "SMD_solvation_energy": 2.06 
		},
		"coords": [
			{
				"x": -2.1018357683,
				"y": -0.3234211499,
				"z": -3.6435814626,
				"element": "O" 
			},
			{
				"x": -0.7128272088,
				"y": -0.2861589081,
				"z": -3.3399985775,
				"element": "C" 
			},
			{
				"x": -0.5460856439,
				"y": 0.4975793485,
				"z": -2.0352898047,
				"element": "C" 
			},
			{
				"x": 0.9333061755,
				"y": 0.7339814512,
				"z": -1.6777939399,
				"element": "C" 
			},
			{
				"x": 1.6705108189,
				"y": -0.5634335143,
				"z": -1.2773355569,
				"element": "C" 
			},
			{
				"x": 0.7147569558,
				"y": -1.5208684554,
				"z": -0.5255772465,
				"element": "C" 
			},
			{
				"x": -0.3657097868,
				"y": -0.7816816254,
				"z": 0.1145903659,
				"element": "N" 
			},
			{
				"x": -1.2984980318,
				"y": -0.1653074824,
				"z": -0.8392798048,
				"element": "C" 
			},
			{
				"x": -0.4210360799,
				"y": -0.5186760315,
				"z": 1.4520553564,
				"element": "C" 
			},
			{
				"x": -1.4784652327,
				"y": 0.201659151,
				"z": 1.8993651141,
				"element": "N" 
			},
			{
				"x": -1.5463202911,
				"y": 0.4396486485,
				"z": 3.2026233959,
				"element": "C" 
			},
			{
				"x": -0.6933888601,
				"y": 0.0496805175,
				"z": 4.1583630548,
				"element": "N" 
			},
			{
				"x": 0.3409563033,
				"y": -0.6448077339,
				"z": 3.6991871822,
				"element": "C" 
			},
			{
				"x": 1.5203947106,
				"y": -1.1782764828,
				"z": 4.8962009386,
				"element": "Cl" 
			},
			{
				"x": 0.5616032438,
				"y": -0.9680315339,
				"z": 2.3732771022,
				"element": "C" 
			},
			{
				"x": -2.2310674434,
				"y": -0.8820003303,
				"z": -4.4196092278,
				"element": "H" 
			},
			{
				"x": -0.1433737893,
				"y": 0.2175241561,
				"z": -4.1380084977,
				"element": "H" 
			},
			{
				"x": -0.3042530526,
				"y": -1.3052625375,
				"z": -3.2424280266,
				"element": "H" 
			},
			{
				"x": -1.016600921,
				"y": 1.4705194529,
				"z": -2.2189895672,
				"element": "H" 
			},
			{
				"x": 1.4528624991,
				"y": 1.225219902,
				"z": -2.5081421554,
				"element": "H" 
			},
			{
				"x": 0.9675752417,
				"y": 1.4345433661,
				"z": -0.8364864904,
				"element": "H" 
			},
			{
				"x": 2.5294821799,
				"y": -0.3106532586,
				"z": -0.6465808741,
				"element": "H" 
			},
			{
				"x": 2.0716281662,
				"y": -1.0790383437,
				"z": -2.1574219992,
				"element": "H" 
			},
			{
				"x": 0.2489840241,
				"y": -2.2186961044,
				"z": -1.2330831265,
				"element": "H" 
			},
			{
				"x": 1.2449695441,
				"y": -2.1371511907,
				"z": 0.1999913603,
				"element": "H" 
			},
			{
				"x": -1.9956805383,
				"y": -0.9233544883,
				"z": -1.2179081323,
				"element": "H" 
			},
			{
				"x": -1.8844757436,
				"y": 0.5679788246,
				"z": -0.2896465831,
				"element": "H" 
			},
			{
				"x": -2.4027167608,
				"y": 1.021691065,
				"z": 3.5392907991,
				"element": "H" 
			},
			{
				"x": 1.4445052891,
				"y": -1.5190067121,
				"z": 2.0848164036,
				"element": "H" 
			}
		],
		 "valence_orbital": [ 
			{
				"type": "occ",
				"energy": -0.29433,
				"method": "rhf"
			},
			{
				"type": "occ",
				"energy": -0.27906,
				"method": "rhf"
			},
			{
				"type": "occ",
				"energy": -0.27261,
				"method": "rhf"
			},
			{
				"type": "occ",
				"energy": -0.25581,
				"method": "rhf"
			},
			{
				"type": "occ",
				"energy": -0.22059,
				"method": "rhf"
			},
			{
				"type": "unocc",
				"energy": -0.02513,
				"method": "rhf"
			},
			{
				"type": "unocc",
				"energy": -0.00909,
				"method": "rhf"
			},
			{
				"type": "unocc",
				"energy": 0.03706,
				"method": "rhf"
			},
			{
				"type": "unocc",
				"energy": 0.06057,
				"method": "rhf"
			},
			{
				"type": "unocc",
				"energy": 0.06599,
				"method": "rhf"
			}
		],
		"cosmo_sigma_profile": { 
			"-0.025": 0.0,
			"-0.024": 0.0,
			"-0.023": 0.0,
			"-0.022": 0.0,
			"-0.021": 0.0,
			"-0.02": 0.0,
			"-0.019": 0.0,
			"-0.018": 0.0,
			"-0.017": 0.0,
			"-0.016": 0.404423201809,
			"-0.015": 1.09589848771,
			"-0.014": 0.733554542433,
			"-0.013": 1.18442480235,
			"-0.012": 0.720409516698,
			"-0.011": 0.785758908839,
			"-0.01": 1.29642320869,
			"-0.009": 2.88051937867,
			"-0.008": 2.54606289243,
			"-0.007": 4.41116620592,
			"-0.006": 4.97646590407,
			"-0.005": 10.1777174126,
			"-0.004": 15.1363651124,
			"-0.003": 32.3665435368,
			"-0.002": 32.0284819172,
			"-0.001": 23.6104158926,
			"0.0": 25.2185485229,
			"0.001": 16.9131683859,
			"0.002": 12.2913104808,
			"0.003": 12.0330694559,
			"0.004": 13.359053452,
			"0.005": 8.6704393154,
			"0.006": 5.51903810398,
			"0.007": 4.53473047461,
			"0.008": 3.74822930974,
			"0.009": 4.19289945346,
			"0.01": 3.63606738291,
			"0.011": 3.33933746813,
			"0.012": 2.23367782583,
			"0.013": 2.56178363088,
			"0.014": 2.05522283085,
			"0.015": 0.782334514277,
			"0.016": 0.0666344822193,
			"0.017": 0.0,
			"0.018": 0.0,
			"0.019": 0.0,
			"0.02": 0.0,
			"0.021": 0.0,
			"0.022": 0.0,
			"0.023": 0.0,
			"0.024": 0.0,
			"0.025": 0.0
		}
	}
}
