{
	 "smiles": "BrC1=CC2=C(NC=C2CC#N)C=C1", 
	 "Tm": 377.15, 
	 "num_atms": 20, 
	 "gaussian": { 
		 "optdone": 1, 
		 "sigma_profile": "yes", 
		 "theory": "DFT", 
		 "functional": "B3LYP", 
		 "basiset": "6-31G**", 
		 "properties": { 
			 "R2extent": 5359.1342, 
			 "electric_dipole_moment_norm": 6.67643565235, 
			 "electric_quadrupole_moment_norm": 22.1312406871, 
			 "total_energy": -3066.17578126, 
			 "HOMO_LUMO_gap": 0.19196, 
			 "cosmo_polarized_energy": -17.13, 
			 "cosmo_cavitation_energy": 27.9, 
			 "cosmo_dispersion_energy": -20.05, 
			 "cosmo_repulsion_energy": 1.6, 
			 "cosmo_total_nonelectrostatic_energy": 9.45, 
			 "SMD_solvation_energy": 4.81 
		},
		"coords": [
			{
				"x": -4.69354404,
				"y": 0.9787599863,
				"z": -1.0601294353,
				"element": "Br" 
			},
			{
				"x": -2.8173717997,
				"y": 1.0300964268,
				"z": -0.6772717769,
				"element": "C" 
			},
			{
				"x": -2.2673520588,
				"y": 0.0548717816,
				"z": 0.1397019187,
				"element": "C" 
			},
			{
				"x": -0.8872030196,
				"y": 0.1154611628,
				"z": 0.4003647913,
				"element": "C" 
			},
			{
				"x": -0.1162084518,
				"y": 1.1647825165,
				"z": -0.1692849025,
				"element": "C" 
			},
			{
				"x": 1.1883031328,
				"y": 0.9862463634,
				"z": 0.2452616766,
				"element": "N" 
			},
			{
				"x": 1.2611326024,
				"y": -0.1329358618,
				"z": 1.0482720134,
				"element": "C" 
			},
			{
				"x": 0.0175494357,
				"y": -0.7003157556,
				"z": 1.1697526145,
				"element": "C" 
			},
			{
				"x": -0.3180495077,
				"y": -1.946846421,
				"z": 1.9458590554,
				"element": "C" 
			},
			{
				"x": -1.1533226929,
				"y": -1.694623429,
				"z": 3.1315698899,
				"element": "C" 
			},
			{
				"x": -1.8145840595,
				"y": -1.4936415072,
				"z": 4.0638684075,
				"element": "N" 
			},
			{
				"x": -0.6849813111,
				"y": 2.1438292015,
				"z": -0.9895727059,
				"element": "C" 
			},
			{
				"x": -2.0489118643,
				"y": 2.0666280392,
				"z": -1.2412605601,
				"element": "C" 
			},
			{
				"x": -2.8907779584,
				"y": -0.7216601603,
				"z": 0.5681744622,
				"element": "H" 
			},
			{
				"x": 1.9661588406,
				"y": 1.5767444969,
				"z": 0.0003730527,
				"element": "H" 
			},
			{
				"x": 2.2036290921,
				"y": -0.4448804174,
				"z": 1.4763358875,
				"element": "H" 
			},
			{
				"x": 0.6002998951,
				"y": -2.443118277,
				"z": 2.2790916408,
				"element": "H" 
			},
			{
				"x": -0.848600592,
				"y": -2.6702474088,
				"z": 1.3126365557,
				"element": "H" 
			},
			{
				"x": -0.0881417813,
				"y": 2.9422797463,
				"z": -1.4203634636,
				"element": "H" 
			},
			{
				"x": -2.5300238615,
				"y": 2.8049695168,
				"z": -1.871679122,
				"element": "H" 
			}
		],
		 "valence_orbital": [ 
			{
				"type": "occ",
				"energy": -0.29805,
				"method": "rhf"
			},
			{
				"type": "occ",
				"energy": -0.28948,
				"method": "rhf"
			},
			{
				"type": "occ",
				"energy": -0.2813,
				"method": "rhf"
			},
			{
				"type": "occ",
				"energy": -0.22983,
				"method": "rhf"
			},
			{
				"type": "occ",
				"energy": -0.22151,
				"method": "rhf"
			},
			{
				"type": "unocc",
				"energy": -0.02955,
				"method": "rhf"
			},
			{
				"type": "unocc",
				"energy": 0.00607,
				"method": "rhf"
			},
			{
				"type": "unocc",
				"energy": 0.01154,
				"method": "rhf"
			},
			{
				"type": "unocc",
				"energy": 0.0288,
				"method": "rhf"
			},
			{
				"type": "unocc",
				"energy": 0.04068,
				"method": "rhf"
			}
		],
		"cosmo_sigma_profile": { 
			"-0.025": 0.0,
			"-0.024": 0.0,
			"-0.023": 0.0,
			"-0.022": 0.0,
			"-0.021": 0.0,
			"-0.02": 0.0,
			"-0.019": 0.0,
			"-0.018": 0.0,
			"-0.017": 0.0228714172648,
			"-0.016": 1.27730638083,
			"-0.015": 1.8986118241,
			"-0.014": 1.13938087878,
			"-0.013": 1.56872651666,
			"-0.012": 1.12423353609,
			"-0.011": 1.00028552962,
			"-0.01": 1.71494524557,
			"-0.009": 5.15269632563,
			"-0.008": 10.1054730983,
			"-0.007": 12.1854347235,
			"-0.006": 11.5211333061,
			"-0.005": 10.6115207871,
			"-0.004": 9.02757345439,
			"-0.003": 9.35725359873,
			"-0.002": 10.5043456592,
			"-0.001": 7.50377977218,
			"0.0": 9.82173531557,
			"0.001": 12.2254256358,
			"0.002": 13.6899661807,
			"0.003": 25.6572627836,
			"0.004": 28.322114829,
			"0.005": 17.6469954251,
			"0.006": 4.75769049606,
			"0.007": 2.07686021567,
			"0.008": 3.2660704561,
			"0.009": 3.60999062475,
			"0.01": 3.15341713256,
			"0.011": 3.34727383795,
			"0.012": 2.28932024664,
			"0.013": 2.22310129467,
			"0.014": 0.44208965667,
			"0.015": 0.0,
			"0.016": 0.0,
			"0.017": 0.0,
			"0.018": 0.0,
			"0.019": 0.0,
			"0.02": 0.0,
			"0.021": 0.0,
			"0.022": 0.0,
			"0.023": 0.0,
			"0.024": 0.0,
			"0.025": 0.0
		}
	}
}
