{
	 "smiles": "OC1=C(C=C(F)C=C1[N+]([O-])=O)[N+]([O-])=O", 
	 "Tm": 328.15, 
	 "num_atms": 17, 
	 "gaussian": { 
		 "optdone": 1, 
		 "sigma_profile": "yes", 
		 "theory": "DFT", 
		 "functional": "B3LYP", 
		 "basiset": "6-31G**", 
		 "properties": { 
			 "R2extent": 2790.9137, 
			 "electric_dipole_moment_norm": 2.77646575704, 
			 "electric_quadrupole_moment_norm": 12.1671965284, 
			 "total_energy": -815.684294769, 
			 "HOMO_LUMO_gap": 0.14256, 
			 "cosmo_polarized_energy": -12.42, 
			 "cosmo_cavitation_energy": 23.88, 
			 "cosmo_dispersion_energy": -17.78, 
			 "cosmo_repulsion_energy": 1.35, 
			 "cosmo_total_nonelectrostatic_energy": 7.46, 
			 "SMD_solvation_energy": 9.42 
		},
		"coords": [
			{
				"x": 0.2182259491,
				"y": -1.9550350775,
				"z": 0.0393956857,
				"element": "O" 
			},
			{
				"x": -0.0479592214,
				"y": -0.6873794439,
				"z": 0.3084820862,
				"element": "C" 
			},
			{
				"x": 0.5257262464,
				"y": 0.4019535255,
				"z": -0.4067557718,
				"element": "C" 
			},
			{
				"x": 0.256727926,
				"y": 1.7387123247,
				"z": -0.0962101034,
				"element": "C" 
			},
			{
				"x": -0.588823689,
				"y": 2.0164238523,
				"z": 0.9586814702,
				"element": "C" 
			},
			{
				"x": -0.8573552641,
				"y": 3.2924892,
				"z": 1.2767616035,
				"element": "F" 
			},
			{
				"x": -1.1696643427,
				"y": 0.9958936829,
				"z": 1.7044071422,
				"element": "C" 
			},
			{
				"x": -0.9133013469,
				"y": -0.3283084283,
				"z": 1.3744871519,
				"element": "C" 
			},
			{
				"x": -1.5915768287,
				"y": -1.351249547,
				"z": 2.1907584543,
				"element": "N" 
			},
			{
				"x": -1.9547613234,
				"y": -1.0040465682,
				"z": 3.3156146877,
				"element": "O" 
			},
			{
				"x": -1.77161164,
				"y": -2.4572962633,
				"z": 1.6974798984,
				"element": "O" 
			},
			{
				"x": 1.4367318962,
				"y": 0.1535703667,
				"z": -1.5118931498,
				"element": "N" 
			},
			{
				"x": 1.8994057833,
				"y": 1.1058581407,
				"z": -2.1229107683,
				"element": "O" 
			},
			{
				"x": 1.7127457926,
				"y": -1.0345484791,
				"z": -1.793606713,
				"element": "O" 
			},
			{
				"x": 0.8592224446,
				"y": -1.9490399288,
				"z": -0.7170383733,
				"element": "H" 
			},
			{
				"x": 0.7146645646,
				"y": 2.5282608884,
				"z": -0.6777279338,
				"element": "H" 
			},
			{
				"x": -1.8186969467,
				"y": 1.216341755,
				"z": 2.5426746333,
				"element": "H" 
			}
		],
		 "valence_orbital": [ 
			{
				"type": "occ",
				"energy": -0.32958,
				"method": "rhf"
			},
			{
				"type": "occ",
				"energy": -0.32307,
				"method": "rhf"
			},
			{
				"type": "occ",
				"energy": -0.31862,
				"method": "rhf"
			},
			{
				"type": "occ",
				"energy": -0.30198,
				"method": "rhf"
			},
			{
				"type": "occ",
				"energy": -0.27417,
				"method": "rhf"
			},
			{
				"type": "unocc",
				"energy": -0.13161,
				"method": "rhf"
			},
			{
				"type": "unocc",
				"energy": -0.09985,
				"method": "rhf"
			},
			{
				"type": "unocc",
				"energy": -0.02985,
				"method": "rhf"
			},
			{
				"type": "unocc",
				"energy": -0.02506,
				"method": "rhf"
			},
			{
				"type": "unocc",
				"energy": 0.04066,
				"method": "rhf"
			}
		],
		"cosmo_sigma_profile": { 
			"-0.025": 0.0,
			"-0.024": 0.0,
			"-0.023": 0.0,
			"-0.022": 0.0,
			"-0.021": 0.0,
			"-0.02": 0.0,
			"-0.019": 0.0,
			"-0.018": 0.0,
			"-0.017": 0.0,
			"-0.016": 0.0,
			"-0.015": 0.0,
			"-0.014": 0.0,
			"-0.013": 0.0,
			"-0.012": 0.0155431793756,
			"-0.011": 0.789269434039,
			"-0.01": 4.33105369115,
			"-0.009": 5.14970170714,
			"-0.008": 7.94508003827,
			"-0.007": 6.69907289621,
			"-0.006": 10.8921030367,
			"-0.005": 12.5829408761,
			"-0.004": 15.0756925616,
			"-0.003": 17.809427179,
			"-0.002": 8.8848588597,
			"-0.001": 6.81065509425,
			"0.0": 7.31483765723,
			"0.001": 6.60884602777,
			"0.002": 8.61285903768,
			"0.003": 14.117514226,
			"0.004": 5.63495842603,
			"0.005": 8.58858482483,
			"0.006": 10.9539340899,
			"0.007": 14.5246714947,
			"0.008": 10.3148274505,
			"0.009": 6.53914432629,
			"0.01": 1.90230510827,
			"0.011": 1.22366571856,
			"0.012": 0.122386582673,
			"0.013": 0.0,
			"0.014": 0.0,
			"0.015": 0.0,
			"0.016": 0.0,
			"0.017": 0.0,
			"0.018": 0.0,
			"0.019": 0.0,
			"0.02": 0.0,
			"0.021": 0.0,
			"0.022": 0.0,
			"0.023": 0.0,
			"0.024": 0.0,
			"0.025": 0.0
		}
	}
}
