{
	 "smiles": "O=C1CCNC2=C(N1)C=CC=N2", 
	 "Tm": 537.15, 
	 "num_atms": 21, 
	 "gaussian": { 
		 "optdone": 1, 
		 "sigma_profile": "yes", 
		 "theory": "DFT", 
		 "functional": "B3LYP", 
		 "basiset": "6-31G**", 
		 "properties": { 
			 "R2extent": 3123.8767, 
			 "electric_dipole_moment_norm": 1.81696732222, 
			 "electric_quadrupole_moment_norm": 21.6033431448, 
			 "total_energy": -549.768177709, 
			 "HOMO_LUMO_gap": 0.17826, 
			 "cosmo_polarized_energy": -13.8, 
			 "cosmo_cavitation_energy": 24.06, 
			 "cosmo_dispersion_energy": -18.49, 
			 "cosmo_repulsion_energy": 1.46, 
			 "cosmo_total_nonelectrostatic_energy": 7.03, 
			 "SMD_solvation_energy": 2.36 
		},
		"coords": [
			{
				"x": 4.947267636,
				"y": 1.529584582,
				"z": -0.6788965509,
				"element": "O" 
			},
			{
				"x": 3.8542788896,
				"y": 1.1504035967,
				"z": -0.2772609234,
				"element": "C" 
			},
			{
				"x": 3.7299543951,
				"y": 0.1604044414,
				"z": 0.8632807448,
				"element": "C" 
			},
			{
				"x": 2.5833196679,
				"y": -0.8464551505,
				"z": 0.7455802786,
				"element": "C" 
			},
			{
				"x": 1.2927663164,
				"y": -0.2443460973,
				"z": 1.0307911046,
				"element": "N" 
			},
			{
				"x": 0.6500866843,
				"y": 0.6417682773,
				"z": 0.1840884895,
				"element": "C" 
			},
			{
				"x": 1.3205983472,
				"y": 1.5292400068,
				"z": -0.7024106759,
				"element": "C" 
			},
			{
				"x": 2.7155038101,
				"y": 1.636712814,
				"z": -0.8932485756,
				"element": "N" 
			},
			{
				"x": 0.5176931816,
				"y": 2.3809950209,
				"z": -1.467440633,
				"element": "C" 
			},
			{
				"x": -0.8691400306,
				"y": 2.3670543618,
				"z": -1.3451033362,
				"element": "C" 
			},
			{
				"x": -1.4230438802,
				"y": 1.4747762096,
				"z": -0.4335124595,
				"element": "C" 
			},
			{
				"x": -0.6867044151,
				"y": 0.636426304,
				"z": 0.2979974846,
				"element": "N" 
			},
			{
				"x": 3.6161023079,
				"y": 0.7170815803,
				"z": 1.8009440797,
				"element": "H" 
			},
			{
				"x": 4.6929215081,
				"y": -0.3549513298,
				"z": 0.901174863,
				"element": "H" 
			},
			{
				"x": 2.7348833663,
				"y": -1.6309395058,
				"z": 1.4916647806,
				"element": "H" 
			},
			{
				"x": 2.6110664393,
				"y": -1.3357121691,
				"z": -0.2409069036,
				"element": "H" 
			},
			{
				"x": 0.6136438384,
				"y": -0.8424191284,
				"z": 1.4834126865,
				"element": "H" 
			},
			{
				"x": 2.9830432515,
				"y": 2.2893392797,
				"z": -1.6214278136,
				"element": "H" 
			},
			{
				"x": 0.997323093,
				"y": 3.0694837919,
				"z": -2.1596435681,
				"element": "H" 
			},
			{
				"x": -1.4911718405,
				"y": 3.029190889,
				"z": -1.9369065776,
				"element": "H" 
			},
			{
				"x": -2.4994925663,
				"y": 1.4181622256,
				"z": -0.2853764946,
				"element": "H" 
			}
		],
		 "valence_orbital": [ 
			{
				"type": "occ",
				"energy": -0.30854,
				"method": "rhf"
			},
			{
				"type": "occ",
				"energy": -0.26423,
				"method": "rhf"
			},
			{
				"type": "occ",
				"energy": -0.257,
				"method": "rhf"
			},
			{
				"type": "occ",
				"energy": -0.2513,
				"method": "rhf"
			},
			{
				"type": "occ",
				"energy": -0.20165,
				"method": "rhf"
			},
			{
				"type": "unocc",
				"energy": -0.02339,
				"method": "rhf"
			},
			{
				"type": "unocc",
				"energy": -0.0069,
				"method": "rhf"
			},
			{
				"type": "unocc",
				"energy": 0.03655,
				"method": "rhf"
			},
			{
				"type": "unocc",
				"energy": 0.072,
				"method": "rhf"
			},
			{
				"type": "unocc",
				"energy": 0.08377,
				"method": "rhf"
			}
		],
		"cosmo_sigma_profile": { 
			"-0.025": 0.0,
			"-0.024": 0.0,
			"-0.023": 0.0,
			"-0.022": 0.0,
			"-0.021": 0.0,
			"-0.02": 0.0,
			"-0.019": 0.0,
			"-0.018": 0.0,
			"-0.017": 0.0,
			"-0.016": 0.0,
			"-0.015": 0.0803584161006,
			"-0.014": 1.32432413327,
			"-0.013": 0.843240557296,
			"-0.012": 2.3135041059,
			"-0.011": 2.1118720805,
			"-0.01": 2.32012575556,
			"-0.009": 2.79067074296,
			"-0.008": 2.42064544803,
			"-0.007": 3.69130798061,
			"-0.006": 10.8656824848,
			"-0.005": 16.7991392851,
			"-0.004": 19.2026446162,
			"-0.003": 14.6213793172,
			"-0.002": 13.2162646387,
			"-0.001": 7.73738631855,
			"0.0": 9.19984275124,
			"0.001": 10.804717007,
			"0.002": 11.9649616342,
			"0.003": 9.76571410156,
			"0.004": 10.5708405072,
			"0.005": 5.84927183709,
			"0.006": 3.45446578493,
			"0.007": 3.15298187368,
			"0.008": 3.82987837112,
			"0.009": 2.4749115221,
			"0.01": 2.92823485533,
			"0.011": 2.320366592,
			"0.012": 2.80342101589,
			"0.013": 6.12726337436,
			"0.014": 4.39935878294,
			"0.015": 0.960741751129,
			"0.016": 0.0446556223626,
			"0.017": 0.0,
			"0.018": 0.0,
			"0.019": 0.0,
			"0.02": 0.0,
			"0.021": 0.0,
			"0.022": 0.0,
			"0.023": 0.0,
			"0.024": 0.0,
			"0.025": 0.0
		}
	}
}
