{
	 "smiles": "CCCOC1=C(OC)C=CC(C=O)=C1", 
	 "Tm": 309.15, 
	 "num_atms": 28, 
	 "gaussian": { 
		 "optdone": 1, 
		 "sigma_profile": "yes", 
		 "theory": "DFT", 
		 "functional": "B3LYP", 
		 "basiset": "6-31G**", 
		 "properties": { 
			 "R2extent": 4319.1997, 
			 "electric_dipole_moment_norm": 2.88256151712, 
			 "electric_quadrupole_moment_norm": 19.2096553514, 
			 "total_energy": -653.254636929, 
			 "HOMO_LUMO_gap": 0.17032, 
			 "cosmo_polarized_energy": -9.75, 
			 "cosmo_cavitation_energy": 31.78, 
			 "cosmo_dispersion_energy": -22.11, 
			 "cosmo_repulsion_energy": 1.77, 
			 "cosmo_total_nonelectrostatic_energy": 11.44, 
			 "SMD_solvation_energy": 7.53 
		},
		"coords": [
			{
				"x": -3.2605667948,
				"y": -0.4331787609,
				"z": 0.8140058347,
				"element": "C" 
			},
			{
				"x": -2.7058504472,
				"y": 0.9907833193,
				"z": 0.9175951336,
				"element": "C" 
			},
			{
				"x": -1.8233980535,
				"y": 1.3855306301,
				"z": -0.2591502952,
				"element": "C" 
			},
			{
				"x": -0.6797458787,
				"y": 0.5242260814,
				"z": -0.2621162451,
				"element": "O" 
			},
			{
				"x": 0.2188962468,
				"y": 0.6390334142,
				"z": -1.2793384073,
				"element": "C" 
			},
			{
				"x": 1.2912483847,
				"y": -0.2946376189,
				"z": -1.2742294218,
				"element": "C" 
			},
			{
				"x": 1.3929611545,
				"y": -1.271101784,
				"z": -0.3232113401,
				"element": "O" 
			},
			{
				"x": 1.6155959775,
				"y": -0.8422628367,
				"z": 1.0253576438,
				"element": "C" 
			},
			{
				"x": 2.2324685565,
				"y": -0.2771904895,
				"z": -2.3025511085,
				"element": "C" 
			},
			{
				"x": 2.1422282756,
				"y": 0.6561238941,
				"z": -3.3344005679,
				"element": "C" 
			},
			{
				"x": 1.1031817492,
				"y": 1.5896441531,
				"z": -3.3299747753,
				"element": "C" 
			},
			{
				"x": 1.0010911083,
				"y": 2.5905378165,
				"z": -4.4094515518,
				"element": "C" 
			},
			{
				"x": 0.1325145337,
				"y": 3.441119765,
				"z": -4.4897127947,
				"element": "O" 
			},
			{
				"x": 0.1434400773,
				"y": 1.5781926811,
				"z": -2.3023645057,
				"element": "C" 
			},
			{
				"x": -3.877339288,
				"y": -0.6778523909,
				"z": 1.6841488838,
				"element": "H" 
			},
			{
				"x": -3.8833747952,
				"y": -0.5491816295,
				"z": -0.0802674146,
				"element": "H" 
			},
			{
				"x": -2.4495795077,
				"y": -1.1637691379,
				"z": 0.7535372299,
				"element": "H" 
			},
			{
				"x": -2.1281683045,
				"y": 1.1069575045,
				"z": 1.8426840141,
				"element": "H" 
			},
			{
				"x": -3.5276940421,
				"y": 1.7158535447,
				"z": 0.9694357381,
				"element": "H" 
			},
			{
				"x": -1.498770017,
				"y": 2.4314983618,
				"z": -0.1726913068,
				"element": "H" 
			},
			{
				"x": -2.3674982641,
				"y": 1.2754418973,
				"z": -1.2078133796,
				"element": "H" 
			},
			{
				"x": 2.5478637312,
				"y": -0.2681276318,
				"z": 1.0991861991,
				"element": "H" 
			},
			{
				"x": 0.7832896384,
				"y": -0.2420924142,
				"z": 1.4001406004,
				"element": "H" 
			},
			{
				"x": 1.7083906897,
				"y": -1.7547333298,
				"z": 1.6171402773,
				"element": "H" 
			},
			{
				"x": 3.0266741783,
				"y": -1.01580476,
				"z": -2.2707897137,
				"element": "H" 
			},
			{
				"x": 2.8789067194,
				"y": 0.6656982233,
				"z": -4.1334427531,
				"element": "H" 
			},
			{
				"x": 1.8006250731,
				"y": 2.5190188572,
				"z": -5.180524366,
				"element": "H" 
			},
			{
				"x": -0.6503907013,
				"y": 2.3137726403,
				"z": -2.3496016075,
				"element": "H" 
			}
		],
		 "valence_orbital": [ 
			{
				"type": "occ",
				"energy": -0.32096,
				"method": "rhf"
			},
			{
				"type": "occ",
				"energy": -0.28548,
				"method": "rhf"
			},
			{
				"type": "occ",
				"energy": -0.25009,
				"method": "rhf"
			},
			{
				"type": "occ",
				"energy": -0.24952,
				"method": "rhf"
			},
			{
				"type": "occ",
				"energy": -0.22608,
				"method": "rhf"
			},
			{
				"type": "unocc",
				"energy": -0.05576,
				"method": "rhf"
			},
			{
				"type": "unocc",
				"energy": -0.00071,
				"method": "rhf"
			},
			{
				"type": "unocc",
				"energy": 0.04773,
				"method": "rhf"
			},
			{
				"type": "unocc",
				"energy": 0.08053,
				"method": "rhf"
			},
			{
				"type": "unocc",
				"energy": 0.09141,
				"method": "rhf"
			}
		],
		"cosmo_sigma_profile": { 
			"-0.025": 0.0,
			"-0.024": 0.0,
			"-0.023": 0.0,
			"-0.022": 0.0,
			"-0.021": 0.0,
			"-0.02": 0.0,
			"-0.019": 0.0,
			"-0.018": 0.0,
			"-0.017": 0.0,
			"-0.016": 0.0,
			"-0.015": 0.0,
			"-0.014": 0.0,
			"-0.013": 0.0,
			"-0.012": 0.0,
			"-0.011": 0.0,
			"-0.01": 0.0,
			"-0.009": 0.0,
			"-0.008": 0.592660143431,
			"-0.007": 4.08689054238,
			"-0.006": 10.8919627449,
			"-0.005": 16.6277141879,
			"-0.004": 22.4245683357,
			"-0.003": 29.5644955504,
			"-0.002": 25.2173060986,
			"-0.001": 21.3257391199,
			"0.0": 22.5064517758,
			"0.001": 20.8209765779,
			"0.002": 19.1615747431,
			"0.003": 16.4551485292,
			"0.004": 7.43532166824,
			"0.005": 5.00601057588,
			"0.006": 4.28275986359,
			"0.007": 3.2182015459,
			"0.008": 3.55407943795,
			"0.009": 3.52917136927,
			"0.01": 3.43739600207,
			"0.011": 5.49210312842,
			"0.012": 4.05101091111,
			"0.013": 1.23613935992,
			"0.014": 0.076352741484,
			"0.015": 0.0,
			"0.016": 0.0,
			"0.017": 0.0,
			"0.018": 0.0,
			"0.019": 0.0,
			"0.02": 0.0,
			"0.021": 0.0,
			"0.022": 0.0,
			"0.023": 0.0,
			"0.024": 0.0,
			"0.025": 0.0
		}
	}
}
