{
	 "smiles": "CC(NC1=NS(=O)(=O)C2=C1C=CC=C2)C(O)=O", 
	 "Tm": 494.15, 
	 "num_atms": 27, 
	 "gaussian": { 
		 "optdone": 1, 
		 "sigma_profile": "yes", 
		 "theory": "DFT", 
		 "functional": "B3LYP", 
		 "basiset": "6-31G**", 
		 "properties": { 
			 "R2extent": 5098.8426, 
			 "electric_dipole_moment_norm": 6.9468968799, 
			 "electric_quadrupole_moment_norm": 22.7076753709, 
			 "total_energy": -1195.60792648, 
			 "HOMO_LUMO_gap": 0.1871, 
			 "cosmo_polarized_energy": -31.48, 
			 "cosmo_cavitation_energy": 33.11, 
			 "cosmo_dispersion_energy": -24.13, 
			 "cosmo_repulsion_energy": 1.83, 
			 "cosmo_total_nonelectrostatic_energy": 10.81, 
			 "SMD_solvation_energy": 4.87 
		},
		"coords": [
			{
				"x": 0.0623507412,
				"y": -2.187442199,
				"z": 2.7278588093,
				"element": "C" 
			},
			{
				"x": -1.2268450487,
				"y": -1.4682376127,
				"z": 2.2930555811,
				"element": "C" 
			},
			{
				"x": -1.1133860675,
				"y": -0.863202617,
				"z": 0.9494459974,
				"element": "N" 
			},
			{
				"x": -0.2607026324,
				"y": 0.1713129727,
				"z": 0.6803881927,
				"element": "C" 
			},
			{
				"x": 0.6520468714,
				"y": 0.5622903572,
				"z": 1.5173943011,
				"element": "N" 
			},
			{
				"x": 1.5537736064,
				"y": 1.8391314817,
				"z": 0.8392157333,
				"element": "S" 
			},
			{
				"x": 2.92052413,
				"y": 1.3892505542,
				"z": 0.578451894,
				"element": "O" 
			},
			{
				"x": 1.3196403754,
				"y": 3.0551165192,
				"z": 1.6157105531,
				"element": "O" 
			},
			{
				"x": 0.6113482859,
				"y": 1.8794627643,
				"z": -0.6971045947,
				"element": "C" 
			},
			{
				"x": -0.3540733787,
				"y": 0.8776952952,
				"z": -0.6327779905,
				"element": "C" 
			},
			{
				"x": -1.2125534247,
				"y": 0.6676723981,
				"z": -1.7115286465,
				"element": "C" 
			},
			{
				"x": -1.0836282967,
				"y": 1.4918313269,
				"z": -2.8339173869,
				"element": "C" 
			},
			{
				"x": -0.1125541117,
				"y": 2.4979554001,
				"z": -2.8786543321,
				"element": "C" 
			},
			{
				"x": 0.7582866661,
				"y": 2.7026074893,
				"z": -1.80149243,
				"element": "C" 
			},
			{
				"x": -2.3785502429,
				"y": -2.4795011895,
				"z": 2.2661872117,
				"element": "C" 
			},
			{
				"x": -2.4476040374,
				"y": -3.2450739749,
				"z": 1.1437581031,
				"element": "O" 
			},
			{
				"x": -3.157689766,
				"y": -2.6261916607,
				"z": 3.1702398003,
				"element": "O" 
			},
			{
				"x": 0.3432801139,
				"y": -2.9602141631,
				"z": 2.0051293426,
				"element": "H" 
			},
			{
				"x": 0.8805602577,
				"y": -1.4741579901,
				"z": 2.8183509267,
				"element": "H" 
			},
			{
				"x": -0.1080480507,
				"y": -2.663136633,
				"z": 3.6973171037,
				"element": "H" 
			},
			{
				"x": -1.4861568032,
				"y": -0.7055941225,
				"z": 3.0345738884,
				"element": "H" 
			},
			{
				"x": -1.9886548612,
				"y": -0.7994345636,
				"z": 0.4434979583,
				"element": "H" 
			},
			{
				"x": -1.9621397935,
				"y": -0.1187101607,
				"z": -1.7029755481,
				"element": "H" 
			},
			{
				"x": -1.7437995858,
				"y": 1.345404643,
				"z": -3.6829032847,
				"element": "H" 
			},
			{
				"x": -0.0302213551,
				"y": 3.1250156332,
				"z": -3.7609538214,
				"element": "H" 
			},
			{
				"x": 1.5187571299,
				"y": 3.4757846679,
				"z": -1.8312466242,
				"element": "H" 
			},
			{
				"x": -1.6967607214,
				"y": -3.0399346163,
				"z": 0.5633792621,
				"element": "H" 
			}
		],
		 "valence_orbital": [ 
			{
				"type": "occ",
				"energy": -0.3021,
				"method": "rhf"
			},
			{
				"type": "occ",
				"energy": -0.29744,
				"method": "rhf"
			},
			{
				"type": "occ",
				"energy": -0.28911,
				"method": "rhf"
			},
			{
				"type": "occ",
				"energy": -0.28611,
				"method": "rhf"
			},
			{
				"type": "occ",
				"energy": -0.27236,
				"method": "rhf"
			},
			{
				"type": "unocc",
				"energy": -0.08526,
				"method": "rhf"
			},
			{
				"type": "unocc",
				"energy": -0.0544,
				"method": "rhf"
			},
			{
				"type": "unocc",
				"energy": -0.0162,
				"method": "rhf"
			},
			{
				"type": "unocc",
				"energy": 0.01177,
				"method": "rhf"
			},
			{
				"type": "unocc",
				"energy": 0.02751,
				"method": "rhf"
			}
		],
		"cosmo_sigma_profile": { 
			"-0.025": 0.0,
			"-0.024": 0.0,
			"-0.023": 0.0,
			"-0.022": 0.0,
			"-0.021": 0.0,
			"-0.02": 0.0,
			"-0.019": 0.0,
			"-0.018": 0.190949460621,
			"-0.017": 1.43044879347,
			"-0.016": 1.83214734611,
			"-0.015": 3.58281655043,
			"-0.014": 3.13963336512,
			"-0.013": 2.35959790791,
			"-0.012": 2.12898462517,
			"-0.011": 3.35663962855,
			"-0.01": 2.36179614384,
			"-0.009": 4.42251097052,
			"-0.008": 8.81317720281,
			"-0.007": 14.4382884755,
			"-0.006": 12.4652549215,
			"-0.005": 14.7839873859,
			"-0.004": 14.3529876353,
			"-0.003": 12.8164456917,
			"-0.002": 14.3572624509,
			"-0.001": 17.0068575638,
			"0.0": 16.5940386567,
			"0.001": 17.9010771525,
			"0.002": 10.306863547,
			"0.003": 5.41078586105,
			"0.004": 5.24604655951,
			"0.005": 4.90989286677,
			"0.006": 5.24088410218,
			"0.007": 7.5845214931,
			"0.008": 7.32713198267,
			"0.009": 9.59537646505,
			"0.01": 17.380389743,
			"0.011": 19.0503855496,
			"0.012": 4.34438532928,
			"0.013": 0.159970638415,
			"0.014": 0.0,
			"0.015": 0.0,
			"0.016": 0.0,
			"0.017": 0.0,
			"0.018": 0.0,
			"0.019": 0.0,
			"0.02": 0.0,
			"0.021": 0.0,
			"0.022": 0.0,
			"0.023": 0.0,
			"0.024": 0.0,
			"0.025": 0.0
		}
	}
}
