{
	 "smiles": "CCCCCCC1=CC=C(C=C1)C#CC1=CC=C(CC)C=C1", 
	 "Tm": 283.15, 
	 "num_atms": 48, 
	 "gaussian": { 
		 "optdone": 1, 
		 "sigma_profile": "yes", 
		 "theory": "DFT", 
		 "functional": "B3LYP", 
		 "basiset": "6-31G**", 
		 "properties": { 
			 "R2extent": 17533.9603, 
			 "electric_dipole_moment_norm": 0.211868308154, 
			 "electric_quadrupole_moment_norm": 15.7526174473, 
			 "total_energy": -853.994981095, 
			 "HOMO_LUMO_gap": 0.15895, 
			 "cosmo_polarized_energy": -6.79, 
			 "cosmo_cavitation_energy": 51.31, 
			 "cosmo_dispersion_energy": -35.44, 
			 "cosmo_repulsion_energy": 2.78, 
			 "cosmo_total_nonelectrostatic_energy": 18.65, 
			 "SMD_solvation_energy": 7.88 
		},
		"coords": [
			{
				"x": -6.0209932042,
				"y": 5.8223960362,
				"z": -0.0920899666,
				"element": "C" 
			},
			{
				"x": -5.1010679855,
				"y": 5.8260870322,
				"z": -1.3206991005,
				"element": "C" 
			},
			{
				"x": -3.8175714862,
				"y": 4.9768733927,
				"z": -1.1865747653,
				"element": "C" 
			},
			{
				"x": -3.9186207658,
				"y": 3.5058250172,
				"z": -1.6295630293,
				"element": "C" 
			},
			{
				"x": -4.8704636725,
				"y": 2.6194781459,
				"z": -0.8158940531,
				"element": "C" 
			},
			{
				"x": -4.8263531049,
				"y": 1.1267170031,
				"z": -1.2186918316,
				"element": "C" 
			},
			{
				"x": -3.5156214809,
				"y": 0.4358806468,
				"z": -0.9070844421,
				"element": "C" 
			},
			{
				"x": -2.5864336742,
				"y": 0.1351340838,
				"z": -1.9128870867,
				"element": "C" 
			},
			{
				"x": -1.3755199526,
				"y": -0.4859150229,
				"z": -1.6197765832,
				"element": "C" 
			},
			{
				"x": -1.0514459972,
				"y": -0.8317740163,
				"z": -0.2936123545,
				"element": "C" 
			},
			{
				"x": -1.9845428564,
				"y": -0.5344620234,
				"z": 0.7212905042,
				"element": "C" 
			},
			{
				"x": -3.1894339314,
				"y": 0.0858174115,
				"z": 0.4130174586,
				"element": "C" 
			},
			{
				"x": 0.1841173036,
				"y": -1.4693146031,
				"z": 0.0150390062,
				"element": "C" 
			},
			{
				"x": 1.2399644784,
				"y": -2.0133059567,
				"z": 0.279646255,
				"element": "C" 
			},
			{
				"x": 2.4761382561,
				"y": -2.6492501086,
				"z": 0.5893484331,
				"element": "C" 
			},
			{
				"x": 2.7972562259,
				"y": -2.9968039203,
				"z": 1.9169396474,
				"element": "C" 
			},
			{
				"x": 4.0048823985,
				"y": -3.6209645439,
				"z": 2.2112293695,
				"element": "C" 
			},
			{
				"x": 4.9348742637,
				"y": -3.9217827436,
				"z": 1.2053903225,
				"element": "C" 
			},
			{
				"x": 6.2643667826,
				"y": -4.5627768956,
				"z": 1.5393660477,
				"element": "C" 
			},
			{
				"x": 7.3654197048,
				"y": -3.5309438331,
				"z": 1.8465628557,
				"element": "C" 
			},
			{
				"x": 4.6107270511,
				"y": -3.5763484132,
				"z": -0.1147191408,
				"element": "C" 
			},
			{
				"x": 3.4071463106,
				"y": -2.9518946803,
				"z": -0.4245737387,
				"element": "C" 
			},
			{
				"x": -5.4899327275,
				"y": 6.1946088482,
				"z": 0.7916472574,
				"element": "H" 
			},
			{
				"x": -6.3932946047,
				"y": 4.8223473962,
				"z": 0.1477557265,
				"element": "H" 
			},
			{
				"x": -6.8908496732,
				"y": 6.4691412916,
				"z": -0.2507947017,
				"element": "H" 
			},
			{
				"x": -5.6627296144,
				"y": 5.4984069594,
				"z": -2.2065979629,
				"element": "H" 
			},
			{
				"x": -4.8125315283,
				"y": 6.8654911002,
				"z": -1.5218973388,
				"element": "H" 
			},
			{
				"x": -3.0287448285,
				"y": 5.4414174445,
				"z": -1.7916112997,
				"element": "H" 
			},
			{
				"x": -3.4595896528,
				"y": 5.0217101584,
				"z": -0.1480503539,
				"element": "H" 
			},
			{
				"x": -2.9128604822,
				"y": 3.0688684092,
				"z": -1.5905809101,
				"element": "H" 
			},
			{
				"x": -4.2211066947,
				"y": 3.473658015,
				"z": -2.6867817784,
				"element": "H" 
			},
			{
				"x": -4.6344347005,
				"y": 2.7092360679,
				"z": 0.2531527151,
				"element": "H" 
			},
			{
				"x": -5.9023139493,
				"y": 2.9697153658,
				"z": -0.9362197309,
				"element": "H" 
			},
			{
				"x": -5.6387014897,
				"y": 0.6038216954,
				"z": -0.6982306124,
				"element": "H" 
			},
			{
				"x": -5.0392624064,
				"y": 1.0390866303,
				"z": -2.2913484002,
				"element": "H" 
			},
			{
				"x": -2.8180782108,
				"y": 0.3887787111,
				"z": -2.9443533239,
				"element": "H" 
			},
			{
				"x": -0.6700106885,
				"y": -0.7116688884,
				"z": -2.4130812703,
				"element": "H" 
			},
			{
				"x": -1.7519071531,
				"y": -0.8010930964,
				"z": 1.7474016244,
				"element": "H" 
			},
			{
				"x": -3.8964413885,
				"y": 0.299050464,
				"z": 1.2114840636,
				"element": "H" 
			},
			{
				"x": 2.0876827111,
				"y": -2.7752931106,
				"z": 2.7078310655,
				"element": "H" 
			},
			{
				"x": 4.2304553428,
				"y": -3.8847511919,
				"z": 3.2419238523,
				"element": "H" 
			},
			{
				"x": 6.5861607995,
				"y": -5.1943791008,
				"z": 0.7026588032,
				"element": "H" 
			},
			{
				"x": 6.1430106393,
				"y": -5.2276852728,
				"z": 2.4029223931,
				"element": "H" 
			},
			{
				"x": 7.5330609144,
				"y": -2.8698212564,
				"z": 0.9901713579,
				"element": "H" 
			},
			{
				"x": 7.0875929888,
				"y": -2.9033944697,
				"z": 2.6995464999,
				"element": "H" 
			},
			{
				"x": 8.3122836295,
				"y": -4.0274698148,
				"z": 2.0835675259,
				"element": "H" 
			},
			{
				"x": 5.3127734209,
				"y": -3.8050523982,
				"z": -0.9132331924,
				"element": "H" 
			},
			{
				"x": 3.1713446834,
				"y": -2.6955019655,
				"z": -1.4525458166,
				"element": "H" 
			}
		],
		 "valence_orbital": [ 
			{
				"type": "occ",
				"energy": -0.25975,
				"method": "rhf"
			},
			{
				"type": "occ",
				"energy": -0.25523,
				"method": "rhf"
			},
			{
				"type": "occ",
				"energy": -0.25093,
				"method": "rhf"
			},
			{
				"type": "occ",
				"energy": -0.2508,
				"method": "rhf"
			},
			{
				"type": "occ",
				"energy": -0.20097,
				"method": "rhf"
			},
			{
				"type": "unocc",
				"energy": -0.04202,
				"method": "rhf"
			},
			{
				"type": "unocc",
				"energy": -0.00107,
				"method": "rhf"
			},
			{
				"type": "unocc",
				"energy": -0.0005,
				"method": "rhf"
			},
			{
				"type": "unocc",
				"energy": 0.01256,
				"method": "rhf"
			},
			{
				"type": "unocc",
				"energy": 0.05943,
				"method": "rhf"
			}
		],
		"cosmo_sigma_profile": { 
			"-0.025": 0.0,
			"-0.024": 0.0,
			"-0.023": 0.0,
			"-0.022": 0.0,
			"-0.021": 0.0,
			"-0.02": 0.0,
			"-0.019": 0.0,
			"-0.018": 0.0,
			"-0.017": 0.0,
			"-0.016": 0.0,
			"-0.015": 0.0,
			"-0.014": 0.0,
			"-0.013": 0.0,
			"-0.012": 0.0,
			"-0.011": 0.0,
			"-0.01": 0.0,
			"-0.009": 0.0,
			"-0.008": 0.0,
			"-0.007": 0.10370172856,
			"-0.006": 7.51343500962,
			"-0.005": 15.9989729091,
			"-0.004": 22.9703534954,
			"-0.003": 33.2635799062,
			"-0.002": 44.4735019233,
			"-0.001": 57.3616326096,
			"0.0": 57.4974955968,
			"0.001": 51.5539846724,
			"0.002": 28.9458292962,
			"0.003": 23.7567053661,
			"0.004": 27.2354168007,
			"0.005": 25.7553251975,
			"0.006": 6.62667933041,
			"0.007": 0.839301052215,
			"0.008": 0.0,
			"0.009": 0.0,
			"0.01": 0.0,
			"0.011": 0.0,
			"0.012": 0.0,
			"0.013": 0.0,
			"0.014": 0.0,
			"0.015": 0.0,
			"0.016": 0.0,
			"0.017": 0.0,
			"0.018": 0.0,
			"0.019": 0.0,
			"0.02": 0.0,
			"0.021": 0.0,
			"0.022": 0.0,
			"0.023": 0.0,
			"0.024": 0.0,
			"0.025": 0.0
		}
	}
}
