{
	 "smiles": "OC(=O)C1=C(F)C(F)=NC=C1F", 
	 "Tm": 383.15, 
	 "num_atms": 14, 
	 "gaussian": { 
		 "optdone": 1, 
		 "sigma_profile": "yes", 
		 "theory": "DFT", 
		 "functional": "B3LYP", 
		 "basiset": "6-31G**", 
		 "properties": { 
			 "R2extent": 2248.5234, 
			 "electric_dipole_moment_norm": 3.85729034557, 
			 "electric_quadrupole_moment_norm": 17.364206256, 
			 "total_energy": -734.529930172, 
			 "HOMO_LUMO_gap": 0.18956, 
			 "cosmo_polarized_energy": -12.61, 
			 "cosmo_cavitation_energy": 20.79, 
			 "cosmo_dispersion_energy": -15.41, 
			 "cosmo_repulsion_energy": 1.15, 
			 "cosmo_total_nonelectrostatic_energy": 6.53, 
			 "SMD_solvation_energy": 4.74 
		},
		"coords": [
			{
				"x": 1.3406357411,
				"y": -2.5420726291,
				"z": -2.1235833994,
				"element": "O" 
			},
			{
				"x": 0.6896946189,
				"y": -1.9181470908,
				"z": -1.1236233854,
				"element": "C" 
			},
			{
				"x": 0.0787895641,
				"y": -2.5452499958,
				"z": -0.2960740943,
				"element": "O" 
			},
			{
				"x": 0.7642558288,
				"y": -0.4024520183,
				"z": -1.0928907971,
				"element": "C" 
			},
			{
				"x": 0.1135440981,
				"y": 0.3153834324,
				"z": -0.0823132713,
				"element": "C" 
			},
			{
				"x": -0.5847712485,
				"y": -0.2734357139,
				"z": 0.8776490919,
				"element": "F" 
			},
			{
				"x": 0.1943184524,
				"y": 1.7180705569,
				"z": -0.070971138,
				"element": "C" 
			},
			{
				"x": -0.4389167051,
				"y": 2.3645280395,
				"z": 0.9077237005,
				"element": "F" 
			},
			{
				"x": 0.8475066106,
				"y": 2.4276753524,
				"z": -0.9544650679,
				"element": "N" 
			},
			{
				"x": 1.4839158092,
				"y": 1.7772819946,
				"z": -1.9381614922,
				"element": "C" 
			},
			{
				"x": 1.4544699373,
				"y": 0.3975401309,
				"z": -2.0217444176,
				"element": "C" 
			},
			{
				"x": 2.1278453789,
				"y": -0.1852631718,
				"z": -3.052705398,
				"element": "F" 
			},
			{
				"x": 1.785881908,
				"y": -1.9118991501,
				"z": -2.7109281621,
				"element": "H" 
			},
			{
				"x": 2.0276300062,
				"y": 2.3614402632,
				"z": -2.674112169,
				"element": "H" 
			}
		],
		 "valence_orbital": [ 
			{
				"type": "occ",
				"energy": -0.33922,
				"method": "rhf"
			},
			{
				"type": "occ",
				"energy": -0.32195,
				"method": "rhf"
			},
			{
				"type": "occ",
				"energy": -0.3218,
				"method": "rhf"
			},
			{
				"type": "occ",
				"energy": -0.29331,
				"method": "rhf"
			},
			{
				"type": "occ",
				"energy": -0.28356,
				"method": "rhf"
			},
			{
				"type": "unocc",
				"energy": -0.094,
				"method": "rhf"
			},
			{
				"type": "unocc",
				"energy": -0.04273,
				"method": "rhf"
			},
			{
				"type": "unocc",
				"energy": 0.02293,
				"method": "rhf"
			},
			{
				"type": "unocc",
				"energy": 0.04015,
				"method": "rhf"
			},
			{
				"type": "unocc",
				"energy": 0.08513,
				"method": "rhf"
			}
		],
		"cosmo_sigma_profile": { 
			"-0.025": 0.0,
			"-0.024": 0.0,
			"-0.023": 0.0,
			"-0.022": 0.0,
			"-0.021": 0.0,
			"-0.02": 0.0,
			"-0.019": 0.0,
			"-0.018": 0.0,
			"-0.017": 0.0,
			"-0.016": 0.0,
			"-0.015": 0.0954700585445,
			"-0.014": 0.617253984777,
			"-0.013": 0.731354201046,
			"-0.012": 1.6324308153,
			"-0.011": 2.08675747131,
			"-0.01": 3.10558433582,
			"-0.009": 3.7413660956,
			"-0.008": 3.70407600588,
			"-0.007": 5.84686631103,
			"-0.006": 9.56514377134,
			"-0.005": 13.8012883237,
			"-0.004": 10.7263403068,
			"-0.003": 10.0833449187,
			"-0.002": 7.36684589366,
			"-0.001": 6.04887620884,
			"0.0": 8.65005870666,
			"0.001": 10.2160580695,
			"0.002": 16.8786335206,
			"0.003": 12.0736357722,
			"0.004": 5.24488035228,
			"0.005": 4.0702736164,
			"0.006": 4.37965151932,
			"0.007": 3.92419649181,
			"0.008": 4.57388290185,
			"0.009": 5.98039854145,
			"0.01": 7.28170413415,
			"0.011": 4.91420417632,
			"0.012": 1.94267478826,
			"0.013": 0.0493513538505,
			"0.014": 0.0,
			"0.015": 0.0,
			"0.016": 0.0,
			"0.017": 0.0,
			"0.018": 0.0,
			"0.019": 0.0,
			"0.02": 0.0,
			"0.021": 0.0,
			"0.022": 0.0,
			"0.023": 0.0,
			"0.024": 0.0,
			"0.025": 0.0
		}
	}
}
