{
	 "smiles": "O=C1CCC(C(=O)O1)C1=CC=CC=C1", 
	 "Tm": 368.15, 
	 "num_atms": 24, 
	 "gaussian": { 
		 "optdone": 1, 
		 "sigma_profile": "yes", 
		 "theory": "DFT", 
		 "functional": "B3LYP", 
		 "basiset": "6-31G**", 
		 "properties": { 
			 "R2extent": 3099.2196, 
			 "electric_dipole_moment_norm": 5.31151390189, 
			 "electric_quadrupole_moment_norm": 13.8474313983, 
			 "total_energy": -650.883014336, 
			 "HOMO_LUMO_gap": 0.22016, 
			 "cosmo_polarized_energy": -16.35, 
			 "cosmo_cavitation_energy": 28.0, 
			 "cosmo_dispersion_energy": -20.26, 
			 "cosmo_repulsion_energy": 1.6, 
			 "cosmo_total_nonelectrostatic_energy": 9.35, 
			 "SMD_solvation_energy": 6.34 
		},
		"coords": [
			{
				"x": -2.6558261781,
				"y": -2.8829765444,
				"z": -1.6531055032,
				"element": "O" 
			},
			{
				"x": -1.8291785864,
				"y": -2.2020787637,
				"z": -1.1123849874,
				"element": "C" 
			},
			{
				"x": -0.3902172362,
				"y": -2.6116515791,
				"z": -0.881562141,
				"element": "C" 
			},
			{
				"x": 0.5516741772,
				"y": -1.4257612714,
				"z": -0.6879949566,
				"element": "C" 
			},
			{
				"x": -0.0090801181,
				"y": -0.4812224583,
				"z": 0.3939900362,
				"element": "C" 
			},
			{
				"x": -1.4180055572,
				"y": -0.0287260324,
				"z": 0.0187605827,
				"element": "C" 
			},
			{
				"x": -1.9034592028,
				"y": 1.0371108903,
				"z": 0.2739015988,
				"element": "O" 
			},
			{
				"x": -2.2207545596,
				"y": -0.9517441298,
				"z": -0.6489317193,
				"element": "O" 
			},
			{
				"x": 0.9181596147,
				"y": 0.6773782902,
				"z": 0.708882641,
				"element": "C" 
			},
			{
				"x": 1.6700748193,
				"y": 0.6662646634,
				"z": 1.888677586,
				"element": "C" 
			},
			{
				"x": 2.5797584636,
				"y": 1.6883630134,
				"z": 2.1664216012,
				"element": "C" 
			},
			{
				"x": 2.7472481864,
				"y": 2.7373354455,
				"z": 1.2627717051,
				"element": "C" 
			},
			{
				"x": 1.9989941916,
				"y": 2.7590755163,
				"z": 0.0833540153,
				"element": "C" 
			},
			{
				"x": 1.0922666002,
				"y": 1.7369001088,
				"z": -0.1919517435,
				"element": "C" 
			},
			{
				"x": -0.3854947777,
				"y": -3.2486983469,
				"z": 0.0139130991,
				"element": "H" 
			},
			{
				"x": -0.1021799285,
				"y": -3.2511927707,
				"z": -1.7192895367,
				"element": "H" 
			},
			{
				"x": 0.676215312,
				"y": -0.8752748332,
				"z": -1.6278283756,
				"element": "H" 
			},
			{
				"x": 1.5455403342,
				"y": -1.77034163,
				"z": -0.3900863123,
				"element": "H" 
			},
			{
				"x": -0.1386070135,
				"y": -1.0754000541,
				"z": 1.3116197523,
				"element": "H" 
			},
			{
				"x": 1.54213172,
				"y": -0.1471119236,
				"z": 2.5992305077,
				"element": "H" 
			},
			{
				"x": 3.1522225,
				"y": 1.6647330215,
				"z": 3.0891518817,
				"element": "H" 
			},
			{
				"x": 3.4515671606,
				"y": 3.5358411564,
				"z": 1.4768383679,
				"element": "H" 
			},
			{
				"x": 2.1173283098,
				"y": 3.5767846733,
				"z": -0.6216088449,
				"element": "H" 
			},
			{
				"x": 0.5030217687,
				"y": 1.7758935587,
				"z": -1.1035692545,
				"element": "H" 
			}
		],
		 "valence_orbital": [ 
			{
				"type": "occ",
				"energy": -0.32395,
				"method": "rhf"
			},
			{
				"type": "occ",
				"energy": -0.3003,
				"method": "rhf"
			},
			{
				"type": "occ",
				"energy": -0.27982,
				"method": "rhf"
			},
			{
				"type": "occ",
				"energy": -0.25898,
				"method": "rhf"
			},
			{
				"type": "occ",
				"energy": -0.2549,
				"method": "rhf"
			},
			{
				"type": "unocc",
				"energy": -0.03474,
				"method": "rhf"
			},
			{
				"type": "unocc",
				"energy": -0.01375,
				"method": "rhf"
			},
			{
				"type": "unocc",
				"energy": -0.01034,
				"method": "rhf"
			},
			{
				"type": "unocc",
				"energy": 0.001,
				"method": "rhf"
			},
			{
				"type": "unocc",
				"energy": 0.07806,
				"method": "rhf"
			}
		],
		"cosmo_sigma_profile": { 
			"-0.025": 0.0,
			"-0.024": 0.0,
			"-0.023": 0.0,
			"-0.022": 0.0,
			"-0.021": 0.0,
			"-0.02": 0.0,
			"-0.019": 0.0,
			"-0.018": 0.0,
			"-0.017": 0.0,
			"-0.016": 0.0,
			"-0.015": 0.0,
			"-0.014": 0.0,
			"-0.013": 0.0,
			"-0.012": 0.399970844623,
			"-0.011": 0.947274265357,
			"-0.01": 1.97367374174,
			"-0.009": 4.88080824199,
			"-0.008": 7.99927318258,
			"-0.007": 9.2516636399,
			"-0.006": 15.9958892241,
			"-0.005": 21.3567678009,
			"-0.004": 19.3389601392,
			"-0.003": 15.5779039109,
			"-0.002": 11.5331282569,
			"-0.001": 9.56336155671,
			"0.0": 8.44046058115,
			"0.001": 8.63556602137,
			"0.002": 8.10893359368,
			"0.003": 9.82861060907,
			"0.004": 10.1961596638,
			"0.005": 11.0625361613,
			"0.006": 8.90667768031,
			"0.007": 4.92924973174,
			"0.008": 5.81092603576,
			"0.009": 8.59644614623,
			"0.01": 10.5131201297,
			"0.011": 7.85226495075,
			"0.012": 1.10072449923,
			"0.013": 0.0,
			"0.014": 0.0,
			"0.015": 0.0,
			"0.016": 0.0,
			"0.017": 0.0,
			"0.018": 0.0,
			"0.019": 0.0,
			"0.02": 0.0,
			"0.021": 0.0,
			"0.022": 0.0,
			"0.023": 0.0,
			"0.024": 0.0,
			"0.025": 0.0
		}
	}
}
