{
	 "smiles": "C=CC(=O)ON1C(=O)CCC1=O", 
	 "Tm": 342.15, 
	 "num_atms": 19, 
	 "gaussian": { 
		 "optdone": 1, 
		 "sigma_profile": "yes", 
		 "theory": "DFT", 
		 "functional": "B3LYP", 
		 "basiset": "6-31G**", 
		 "properties": { 
			 "R2extent": 2595.8196, 
			 "electric_dipole_moment_norm": 0.604498602149, 
			 "electric_quadrupole_moment_norm": 21.60534995, 
			 "total_energy": -626.560778383, 
			 "HOMO_LUMO_gap": 0.20015, 
			 "cosmo_polarized_energy": -15.23, 
			 "cosmo_cavitation_energy": 25.09, 
			 "cosmo_dispersion_energy": -17.53, 
			 "cosmo_repulsion_energy": 1.43, 
			 "cosmo_total_nonelectrostatic_energy": 8.99, 
			 "SMD_solvation_energy": 7.98 
		},
		"coords": [
			{
				"x": -2.6548367481,
				"y": -1.4109839879,
				"z": 2.2206733132,
				"element": "C" 
			},
			{
				"x": -1.3925519736,
				"y": -1.0377305741,
				"z": 1.9974189122,
				"element": "C" 
			},
			{
				"x": -1.1099011332,
				"y": 0.1594624637,
				"z": 1.1816336658,
				"element": "C" 
			},
			{
				"x": -1.8882006632,
				"y": 0.9047248295,
				"z": 0.6486434616,
				"element": "O" 
			},
			{
				"x": 0.2809941396,
				"y": 0.3257544654,
				"z": 1.1038095238,
				"element": "O" 
			},
			{
				"x": 0.6396630171,
				"y": 1.4237894616,
				"z": 0.3582036893,
				"element": "N" 
			},
			{
				"x": 0.7752653912,
				"y": 1.3470311379,
				"z": -1.0327240564,
				"element": "C" 
			},
			{
				"x": 0.637790527,
				"y": 0.3455575315,
				"z": -1.6916574496,
				"element": "O" 
			},
			{
				"x": 1.1297327149,
				"y": 2.7598818217,
				"z": -1.4845879161,
				"element": "C" 
			},
			{
				"x": 1.0973423523,
				"y": 3.6341963319,
				"z": -0.2125724227,
				"element": "C" 
			},
			{
				"x": 0.7244628469,
				"y": 2.6976207567,
				"z": 0.9318825852,
				"element": "C" 
			},
			{
				"x": 0.5394264658,
				"y": 2.9503637585,
				"z": 2.0971835282,
				"element": "O" 
			},
			{
				"x": -3.4800999494,
				"y": -0.8399930548,
				"z": 1.806137824,
				"element": "H" 
			},
			{
				"x": -2.8901130881,
				"y": -2.286486698,
				"z": 2.8165344485,
				"element": "H" 
			},
			{
				"x": -0.540508186,
				"y": -1.5801930347,
				"z": 2.3930329995,
				"element": "H" 
			},
			{
				"x": 2.1094037771,
				"y": 2.7385037989,
				"z": -1.9699917521,
				"element": "H" 
			},
			{
				"x": 0.4014021477,
				"y": 3.0704152061,
				"z": -2.2382371091,
				"element": "H" 
			},
			{
				"x": 0.3515245048,
				"y": 4.432032119,
				"z": -0.2581760046,
				"element": "H" 
			},
			{
				"x": 2.0591038573,
				"y": 4.1021536672,
				"z": 0.0151927595,
				"element": "H" 
			}
		],
		 "valence_orbital": [ 
			{
				"type": "occ",
				"energy": -0.30716,
				"method": "rhf"
			},
			{
				"type": "occ",
				"energy": -0.29962,
				"method": "rhf"
			},
			{
				"type": "occ",
				"energy": -0.29585,
				"method": "rhf"
			},
			{
				"type": "occ",
				"energy": -0.28456,
				"method": "rhf"
			},
			{
				"type": "occ",
				"energy": -0.26522,
				"method": "rhf"
			},
			{
				"type": "unocc",
				"energy": -0.06507,
				"method": "rhf"
			},
			{
				"type": "unocc",
				"energy": -0.02533,
				"method": "rhf"
			},
			{
				"type": "unocc",
				"energy": 0.01884,
				"method": "rhf"
			},
			{
				"type": "unocc",
				"energy": 0.06656,
				"method": "rhf"
			},
			{
				"type": "unocc",
				"energy": 0.0691,
				"method": "rhf"
			}
		],
		"cosmo_sigma_profile": { 
			"-0.025": 0.0,
			"-0.024": 0.0,
			"-0.023": 0.0,
			"-0.022": 0.0,
			"-0.021": 0.0,
			"-0.02": 0.0,
			"-0.019": 0.0,
			"-0.018": 0.0,
			"-0.017": 0.0,
			"-0.016": 0.0,
			"-0.015": 0.0,
			"-0.014": 0.0,
			"-0.013": 0.0,
			"-0.012": 0.0,
			"-0.011": 0.0,
			"-0.01": 0.000210027847986,
			"-0.009": 0.958802006816,
			"-0.008": 13.8310988905,
			"-0.007": 20.5157911422,
			"-0.006": 13.8078246792,
			"-0.005": 12.7135774321,
			"-0.004": 13.5789641586,
			"-0.003": 13.2143818165,
			"-0.002": 7.77503448182,
			"-0.001": 10.3053766215,
			"0.0": 10.3705685127,
			"0.001": 8.86606434344,
			"0.002": 7.76511799393,
			"0.003": 6.45227539771,
			"0.004": 7.48539593598,
			"0.005": 6.69952085495,
			"0.006": 5.97369946933,
			"0.007": 5.36777502835,
			"0.008": 4.94733157467,
			"0.009": 6.87884792557,
			"0.01": 10.0248028606,
			"0.011": 10.3730870664,
			"0.012": 2.6590038347,
			"0.013": 0.0073629185331,
			"0.014": 0.0,
			"0.015": 0.0,
			"0.016": 0.0,
			"0.017": 0.0,
			"0.018": 0.0,
			"0.019": 0.0,
			"0.02": 0.0,
			"0.021": 0.0,
			"0.022": 0.0,
			"0.023": 0.0,
			"0.024": 0.0,
			"0.025": 0.0
		}
	}
}
