{
	 "smiles": "C=CC=C", 
	 "Tm": 162.15, 
	 "num_atms": 10, 
	 "gaussian": { 
		 "optdone": 1, 
		 "sigma_profile": "yes", 
		 "theory": "DFT", 
		 "functional": "B3LYP", 
		 "basiset": "6-31G**", 
		 "properties": { 
			 "R2extent": 365.1265, 
			 "electric_dipole_moment_norm": 0.117235702753, 
			 "electric_quadrupole_moment_norm": 3.450509587, 
			 "total_energy": -155.992522368, 
			 "HOMO_LUMO_gap": 0.20787, 
			 "cosmo_polarized_energy": -2.22, 
			 "cosmo_cavitation_energy": 13.73, 
			 "cosmo_dispersion_energy": -9.68, 
			 "cosmo_repulsion_energy": 0.87, 
			 "cosmo_total_nonelectrostatic_energy": 4.92, 
			 "SMD_solvation_energy": 3.95 
		},
		"coords": [
			{
				"x": -0.0147735764,
				"y": 1.2287280721,
				"z": -0.1530985314,
				"element": "C" 
			},
			{
				"x": -0.1652337811,
				"y": -0.0615926773,
				"z": 0.1715539216,
				"element": "C" 
			},
			{
				"x": 0.7669017621,
				"y": -1.1474306855,
				"z": -0.1655567654,
				"element": "C" 
			},
			{
				"x": 2.0919920612,
				"y": -1.0242912738,
				"z": -0.3136689275,
				"element": "C" 
			},
			{
				"x": -0.740192772,
				"y": 1.976985095,
				"z": 0.1504867443,
				"element": "H" 
			},
			{
				"x": 0.8303207591,
				"y": 1.5753062095,
				"z": -0.7416962947,
				"element": "H" 
			},
			{
				"x": -1.0610096367,
				"y": -0.3604108773,
				"z": 0.7161895461,
				"element": "H" 
			},
			{
				"x": 0.3197666028,
				"y": -2.1350159184,
				"z": -0.279923549,
				"element": "H" 
			},
			{
				"x": 2.7125581197,
				"y": -1.8729891201,
				"z": -0.5836610744,
				"element": "H" 
			},
			{
				"x": 2.5988704613,
				"y": -0.0757888241,
				"z": -0.1582250695,
				"element": "H" 
			}
		],
		 "valence_orbital": [ 
			{
				"type": "occ",
				"energy": -0.42008,
				"method": "rhf"
			},
			{
				"type": "occ",
				"energy": -0.36528,
				"method": "rhf"
			},
			{
				"type": "occ",
				"energy": -0.34525,
				"method": "rhf"
			},
			{
				"type": "occ",
				"energy": -0.30689,
				"method": "rhf"
			},
			{
				"type": "occ",
				"energy": -0.23173,
				"method": "rhf"
			},
			{
				"type": "unocc",
				"energy": -0.02386,
				"method": "rhf"
			},
			{
				"type": "unocc",
				"energy": 0.07686,
				"method": "rhf"
			},
			{
				"type": "unocc",
				"energy": 0.10972,
				"method": "rhf"
			},
			{
				"type": "unocc",
				"energy": 0.12632,
				"method": "rhf"
			},
			{
				"type": "unocc",
				"energy": 0.15097,
				"method": "rhf"
			}
		],
		"cosmo_sigma_profile": { 
			"-0.025": 0.0,
			"-0.024": 0.0,
			"-0.023": 0.0,
			"-0.022": 0.0,
			"-0.021": 0.0,
			"-0.02": 0.0,
			"-0.019": 0.0,
			"-0.018": 0.0,
			"-0.017": 0.0,
			"-0.016": 0.0,
			"-0.015": 0.0,
			"-0.014": 0.0,
			"-0.013": 0.0,
			"-0.012": 0.0,
			"-0.011": 0.0,
			"-0.01": 0.0,
			"-0.009": 0.0,
			"-0.008": 0.0,
			"-0.007": 0.0,
			"-0.006": 0.762706339199,
			"-0.005": 9.47044166263,
			"-0.004": 11.9361821081,
			"-0.003": 11.6784920481,
			"-0.002": 10.8906396576,
			"-0.001": 10.1791281033,
			"0.0": 9.50851605748,
			"0.001": 7.24724150141,
			"0.002": 6.94486968219,
			"0.003": 7.26430444072,
			"0.004": 6.28819234263,
			"0.005": 7.32295672451,
			"0.006": 6.90316421706,
			"0.007": 2.81159746069,
			"0.008": 0.00405660729744,
			"0.009": 0.0,
			"0.01": 0.0,
			"0.011": 0.0,
			"0.012": 0.0,
			"0.013": 0.0,
			"0.014": 0.0,
			"0.015": 0.0,
			"0.016": 0.0,
			"0.017": 0.0,
			"0.018": 0.0,
			"0.019": 0.0,
			"0.02": 0.0,
			"0.021": 0.0,
			"0.022": 0.0,
			"0.023": 0.0,
			"0.024": 0.0,
			"0.025": 0.0
		}
	}
}
