{
	 "smiles": "C(CC1=CC=NC=C1)CC1=CC=NC=C1", 
	 "Tm": 328.15, 
	 "num_atms": 29, 
	 "gaussian": { 
		 "optdone": 1, 
		 "sigma_profile": "yes", 
		 "theory": "DFT", 
		 "functional": "B3LYP", 
		 "basiset": "6-31G**", 
		 "properties": { 
			 "R2extent": 3160.8218, 
			 "electric_dipole_moment_norm": 4.75400019142, 
			 "electric_quadrupole_moment_norm": 11.6427019879, 
			 "total_energy": -613.32062979, 
			 "HOMO_LUMO_gap": 0.22078, 
			 "cosmo_polarized_energy": -13.02, 
			 "cosmo_cavitation_energy": 32.2, 
			 "cosmo_dispersion_energy": -21.57, 
			 "cosmo_repulsion_energy": 1.7, 
			 "cosmo_total_nonelectrostatic_energy": 12.33, 
			 "SMD_solvation_energy": 2.15 
		},
		"coords": [
			{
				"x": -2.3532496138,
				"y": -0.2028425106,
				"z": -0.5685676357,
				"element": "C" 
			},
			{
				"x": -2.0905545778,
				"y": 1.2051250977,
				"z": 0.0061776272,
				"element": "C" 
			},
			{
				"x": -0.9892988343,
				"y": 1.3244259111,
				"z": 1.0389395724,
				"element": "C" 
			},
			{
				"x": 0.102662908,
				"y": 2.1769132778,
				"z": 0.8467380146,
				"element": "C" 
			},
			{
				"x": 1.0783996539,
				"y": 2.2810645244,
				"z": 1.839345596,
				"element": "C" 
			},
			{
				"x": 1.0424662311,
				"y": 1.6053954049,
				"z": 2.993126489,
				"element": "N" 
			},
			{
				"x": -0.005696936,
				"y": 0.7907885504,
				"z": 3.1768878994,
				"element": "C" 
			},
			{
				"x": -1.0319368364,
				"y": 0.6208872822,
				"z": 2.2494770054,
				"element": "C" 
			},
			{
				"x": -1.2230056646,
				"y": -0.7965902101,
				"z": -1.4428302778,
				"element": "C" 
			},
			{
				"x": -0.0905940441,
				"y": -1.4667133558,
				"z": -0.6918879191,
				"element": "C" 
			},
			{
				"x": -0.3062478084,
				"y": -2.6445927603,
				"z": 0.036256206,
				"element": "C" 
			},
			{
				"x": 0.7621079358,
				"y": -3.2494215152,
				"z": 0.6952950653,
				"element": "C" 
			},
			{
				"x": 2.0150213153,
				"y": -2.7749859337,
				"z": 0.6795186854,
				"element": "N" 
			},
			{
				"x": 2.219828973,
				"y": -1.6527092156,
				"z": -0.0195651221,
				"element": "C" 
			},
			{
				"x": 1.2171495817,
				"y": -0.9736486153,
				"z": -0.7138804176,
				"element": "C" 
			},
			{
				"x": -3.2574599419,
				"y": -0.1338669668,
				"z": -1.1849303925,
				"element": "H" 
			},
			{
				"x": -2.593214265,
				"y": -0.9003293704,
				"z": 0.2428302153,
				"element": "H" 
			},
			{
				"x": -1.8785784379,
				"y": 1.8914944187,
				"z": -0.8226281958,
				"element": "H" 
			},
			{
				"x": -3.0266862834,
				"y": 1.5577276842,
				"z": 0.4598341883,
				"element": "H" 
			},
			{
				"x": 0.1933125917,
				"y": 2.7604404514,
				"z": -0.0658035628,
				"element": "H" 
			},
			{
				"x": 1.9309728319,
				"y": 2.9439563795,
				"z": 1.6978259748,
				"element": "H" 
			},
			{
				"x": -0.0279678764,
				"y": 0.2459908817,
				"z": 4.1193410274,
				"element": "H" 
			},
			{
				"x": -1.8537094435,
				"y": -0.0535935823,
				"z": 2.4738604177,
				"element": "H" 
			},
			{
				"x": -1.6736980427,
				"y": -1.5454005051,
				"z": -2.1065695875,
				"element": "H" 
			},
			{
				"x": -0.8192154955,
				"y": -0.0140363337,
				"z": -2.0964074192,
				"element": "H" 
			},
			{
				"x": -1.2947083426,
				"y": -3.0946150582,
				"z": 0.0848216896,
				"element": "H" 
			},
			{
				"x": 0.6046640516,
				"y": -4.166340989,
				"z": 1.2615056048,
				"element": "H" 
			},
			{
				"x": 3.24030618,
				"y": -1.272945574,
				"z": -0.0282981052,
				"element": "H" 
			},
			{
				"x": 1.4566301902,
				"y": -0.066277368,
				"z": -1.2608126434,
				"element": "H" 
			}
		],
		 "valence_orbital": [ 
			{
				"type": "occ",
				"energy": -0.26213,
				"method": "rhf"
			},
			{
				"type": "occ",
				"energy": -0.25933,
				"method": "rhf"
			},
			{
				"type": "occ",
				"energy": -0.25424,
				"method": "rhf"
			},
			{
				"type": "occ",
				"energy": -0.24914,
				"method": "rhf"
			},
			{
				"type": "occ",
				"energy": -0.24778,
				"method": "rhf"
			},
			{
				"type": "unocc",
				"energy": -0.027,
				"method": "rhf"
			},
			{
				"type": "unocc",
				"energy": -0.01398,
				"method": "rhf"
			},
			{
				"type": "unocc",
				"energy": -0.01077,
				"method": "rhf"
			},
			{
				"type": "unocc",
				"energy": -0.00191,
				"method": "rhf"
			},
			{
				"type": "unocc",
				"energy": 0.07989,
				"method": "rhf"
			}
		],
		"cosmo_sigma_profile": { 
			"-0.025": 0.0,
			"-0.024": 0.0,
			"-0.023": 0.0,
			"-0.022": 0.0,
			"-0.021": 0.0,
			"-0.02": 0.0,
			"-0.019": 0.0,
			"-0.018": 0.0,
			"-0.017": 0.0,
			"-0.016": 0.0,
			"-0.015": 0.0,
			"-0.014": 0.0,
			"-0.013": 0.0,
			"-0.012": 0.0,
			"-0.011": 0.0,
			"-0.01": 0.0,
			"-0.009": 0.0,
			"-0.008": 0.0,
			"-0.007": 0.384763668458,
			"-0.006": 13.1857902593,
			"-0.005": 23.3646120596,
			"-0.004": 31.7024177548,
			"-0.003": 28.4366271995,
			"-0.002": 24.1411365407,
			"-0.001": 22.1600524778,
			"0.0": 15.486905574,
			"0.001": 11.565586166,
			"0.002": 14.5646370881,
			"0.003": 24.2454583946,
			"0.004": 14.0794122345,
			"0.005": 5.80516539654,
			"0.006": 3.29053987773,
			"0.007": 1.83255240416,
			"0.008": 3.41922419929,
			"0.009": 2.76164419853,
			"0.01": 2.3925852788,
			"0.011": 1.73656022831,
			"0.012": 1.92026036643,
			"0.013": 1.73291116456,
			"0.014": 1.94469955057,
			"0.015": 1.54308739074,
			"0.016": 2.06566534918,
			"0.017": 1.37663538765,
			"0.018": 0.208420096208,
			"0.019": 0.0,
			"0.02": 0.0,
			"0.021": 0.0,
			"0.022": 0.0,
			"0.023": 0.0,
			"0.024": 0.0,
			"0.025": 0.0
		}
	}
}
