{
	 "smiles": "CC(C)(C)C1=CC2=C(C=C1)C=C1C=CC=CC1=C2", 
	 "Tm": 420.15, 
	 "num_atms": 36, 
	 "gaussian": { 
		 "optdone": 1, 
		 "sigma_profile": "yes", 
		 "theory": "DFT", 
		 "functional": "B3LYP", 
		 "basiset": "6-31G**", 
		 "properties": { 
			 "R2extent": 6121.8787, 
			 "electric_dipole_moment_norm": 0.575465533286, 
			 "electric_quadrupole_moment_norm": 8.60161557034, 
			 "total_energy": -696.798498231, 
			 "HOMO_LUMO_gap": 0.13239, 
			 "cosmo_polarized_energy": -6.01, 
			 "cosmo_cavitation_energy": 37.16, 
			 "cosmo_dispersion_energy": -26.78, 
			 "cosmo_repulsion_energy": 2.0, 
			 "cosmo_total_nonelectrostatic_energy": 12.37, 
			 "SMD_solvation_energy": 5.76 
		},
		"coords": [
			{
				"x": -2.2876031916,
				"y": -3.0647689685,
				"z": 0.8719886054,
				"element": "C" 
			},
			{
				"x": -2.4342697232,
				"y": -2.2422518877,
				"z": -0.4215355114,
				"element": "C" 
			},
			{
				"x": -2.3047404682,
				"y": -3.2078413026,
				"z": -1.6244253498,
				"element": "C" 
			},
			{
				"x": -3.843194007,
				"y": -1.6011497232,
				"z": -0.4283198328,
				"element": "C" 
			},
			{
				"x": -1.370758249,
				"y": -1.138291866,
				"z": -0.5361584944,
				"element": "C" 
			},
			{
				"x": -0.4036213299,
				"y": -0.9196387004,
				"z": 0.4157095978,
				"element": "C" 
			},
			{
				"x": 0.5772769245,
				"y": 0.1153587237,
				"z": 0.2885064714,
				"element": "C" 
			},
			{
				"x": 0.5533864113,
				"y": 0.9613063111,
				"z": -0.8790270138,
				"element": "C" 
			},
			{
				"x": -0.4596747267,
				"y": 0.7179802041,
				"z": -1.8573358512,
				"element": "C" 
			},
			{
				"x": -1.3760301806,
				"y": -0.2833643464,
				"z": -1.6920995549,
				"element": "C" 
			},
			{
				"x": 1.5078468811,
				"y": 1.9759725261,
				"z": -1.0125329693,
				"element": "C" 
			},
			{
				"x": 2.4911555626,
				"y": 2.1936353063,
				"z": -0.0377910926,
				"element": "C" 
			},
			{
				"x": 3.4731817489,
				"y": 3.2257161938,
				"z": -0.1588713779,
				"element": "C" 
			},
			{
				"x": 4.4221475176,
				"y": 3.4136698835,
				"z": 0.8117051952,
				"element": "C" 
			},
			{
				"x": 4.4480657561,
				"y": 2.5785174692,
				"z": 1.9672162519,
				"element": "C" 
			},
			{
				"x": 3.5245830589,
				"y": 1.5778893515,
				"z": 2.1214082417,
				"element": "C" 
			},
			{
				"x": 2.5171968295,
				"y": 1.3471565423,
				"z": 1.1331297886,
				"element": "C" 
			},
			{
				"x": 1.5594633158,
				"y": 0.3320111703,
				"z": 1.2629429245,
				"element": "C" 
			},
			{
				"x": -2.3981839584,
				"y": -2.4410959915,
				"z": 1.7651029027,
				"element": "H" 
			},
			{
				"x": -1.317697982,
				"y": -3.5700962669,
				"z": 0.9246994355,
				"element": "H" 
			},
			{
				"x": -3.0640931754,
				"y": -3.835711867,
				"z": 0.9093722269,
				"element": "H" 
			},
			{
				"x": -2.438615505,
				"y": -2.6927277713,
				"z": -2.5802708021,
				"element": "H" 
			},
			{
				"x": -3.0641019994,
				"y": -3.9955926722,
				"z": -1.5629903885,
				"element": "H" 
			},
			{
				"x": -1.3195615466,
				"y": -3.6854088058,
				"z": -1.6376708024,
				"element": "H" 
			},
			{
				"x": -4.0296971187,
				"y": -1.0302675704,
				"z": -1.3427805226,
				"element": "H" 
			},
			{
				"x": -3.9670111055,
				"y": -0.9211697566,
				"z": 0.420870181,
				"element": "H" 
			},
			{
				"x": -4.6141660915,
				"y": -2.3768416193,
				"z": -0.3585009813,
				"element": "H" 
			},
			{
				"x": -0.3550661494,
				"y": -1.5362697173,
				"z": 1.306895604,
				"element": "H" 
			},
			{
				"x": -0.4901540529,
				"y": 1.3477976226,
				"z": -2.743066329,
				"element": "H" 
			},
			{
				"x": -2.1295596018,
				"y": -0.4351832716,
				"z": -2.4588801526,
				"element": "H" 
			},
			{
				"x": 1.48627036,
				"y": 2.6120084703,
				"z": -1.8949186619,
				"element": "H" 
			},
			{
				"x": 3.4513519952,
				"y": 3.861092192,
				"z": -1.0407232348,
				"element": "H" 
			},
			{
				"x": 5.1620263977,
				"y": 4.2019053865,
				"z": 0.7062331107,
				"element": "H" 
			},
			{
				"x": 5.2074392922,
				"y": 2.7417876444,
				"z": 2.7265587314,
				"element": "H" 
			},
			{
				"x": 3.5428200038,
				"y": 0.9402014455,
				"z": 3.0016688787,
				"element": "H" 
			},
			{
				"x": 1.5803881077,
				"y": -0.3044343385,
				"z": 2.145090776,
				"element": "H" 
			}
		],
		 "valence_orbital": [ 
			{
				"type": "occ",
				"energy": -0.29356,
				"method": "rhf"
			},
			{
				"type": "occ",
				"energy": -0.29081,
				"method": "rhf"
			},
			{
				"type": "occ",
				"energy": -0.25092,
				"method": "rhf"
			},
			{
				"type": "occ",
				"energy": -0.23173,
				"method": "rhf"
			},
			{
				"type": "occ",
				"energy": -0.18961,
				"method": "rhf"
			},
			{
				"type": "unocc",
				"energy": -0.05722,
				"method": "rhf"
			},
			{
				"type": "unocc",
				"energy": -0.00921,
				"method": "rhf"
			},
			{
				"type": "unocc",
				"energy": 0.01082,
				"method": "rhf"
			},
			{
				"type": "unocc",
				"energy": 0.04709,
				"method": "rhf"
			},
			{
				"type": "unocc",
				"energy": 0.06685,
				"method": "rhf"
			}
		],
		"cosmo_sigma_profile": { 
			"-0.025": 0.0,
			"-0.024": 0.0,
			"-0.023": 0.0,
			"-0.022": 0.0,
			"-0.021": 0.0,
			"-0.02": 0.0,
			"-0.019": 0.0,
			"-0.018": 0.0,
			"-0.017": 0.0,
			"-0.016": 0.0,
			"-0.015": 0.0,
			"-0.014": 0.0,
			"-0.013": 0.0,
			"-0.012": 0.0,
			"-0.011": 0.0,
			"-0.01": 0.0,
			"-0.009": 0.0,
			"-0.008": 0.0,
			"-0.007": 0.0,
			"-0.006": 8.63658526539,
			"-0.005": 23.2972008335,
			"-0.004": 18.3694238176,
			"-0.003": 28.1320768104,
			"-0.002": 31.8775649967,
			"-0.001": 26.0290192158,
			"0.0": 23.21086456,
			"0.001": 32.643601909,
			"0.002": 20.2109807566,
			"0.003": 16.6103485131,
			"0.004": 36.9901802322,
			"0.005": 24.0510353371,
			"0.006": 3.7724198238,
			"0.007": 0.0,
			"0.008": 0.0,
			"0.009": 0.0,
			"0.01": 0.0,
			"0.011": 0.0,
			"0.012": 0.0,
			"0.013": 0.0,
			"0.014": 0.0,
			"0.015": 0.0,
			"0.016": 0.0,
			"0.017": 0.0,
			"0.018": 0.0,
			"0.019": 0.0,
			"0.02": 0.0,
			"0.021": 0.0,
			"0.022": 0.0,
			"0.023": 0.0,
			"0.024": 0.0,
			"0.025": 0.0
		}
	}
}
