{
	 "smiles": "CC1=C(Br)SC(=C1)S(Cl)(=O)=O", 
	 "Tm": 309.15, 
	 "num_atms": 15, 
	 "gaussian": { 
		 "optdone": 1, 
		 "sigma_profile": "yes", 
		 "theory": "DFT", 
		 "functional": "B3LYP", 
		 "basiset": "6-31G**", 
		 "properties": { 
			 "R2extent": 5838.9049, 
			 "electric_dipole_moment_norm": 5.16570878583, 
			 "electric_quadrupole_moment_norm": 14.3393819644, 
			 "total_energy": -4171.26954733, 
			 "HOMO_LUMO_gap": 0.16402, 
			 "cosmo_polarized_energy": -7.84, 
			 "cosmo_cavitation_energy": 26.96, 
			 "cosmo_dispersion_energy": -20.97, 
			 "cosmo_repulsion_energy": 1.61, 
			 "cosmo_total_nonelectrostatic_energy": 7.6, 
			 "SMD_solvation_energy": 2.03 
		},
		"coords": [
			{
				"x": -0.240348987,
				"y": 1.3899211597,
				"z": 0.0921745361,
				"element": "C" 
			},
			{
				"x": -0.1572529827,
				"y": -0.0895156024,
				"z": -0.1559106027,
				"element": "C" 
			},
			{
				"x": -1.0525612746,
				"y": -1.03841435,
				"z": 0.2894416941,
				"element": "C" 
			},
			{
				"x": -2.6030656757,
				"y": -0.7348001505,
				"z": 1.3152469849,
				"element": "Br" 
			},
			{
				"x": -0.6820683342,
				"y": -2.6633749711,
				"z": -0.2014465178,
				"element": "S" 
			},
			{
				"x": 0.7267523624,
				"y": -2.0672168047,
				"z": -1.0294482855,
				"element": "C" 
			},
			{
				"x": 0.8782824513,
				"y": -0.7093060466,
				"z": -0.9179292135,
				"element": "C" 
			},
			{
				"x": 1.8274515235,
				"y": -3.1364498774,
				"z": -1.8807136481,
				"element": "S" 
			},
			{
				"x": 3.184153616,
				"y": -3.7121393453,
				"z": -0.3411256856,
				"element": "Cl" 
			},
			{
				"x": 2.6068212575,
				"y": -2.3470202151,
				"z": -2.8241103133,
				"element": "O" 
			},
			{
				"x": 1.1115902426,
				"y": -4.3484884365,
				"z": -2.2550486224,
				"element": "O" 
			},
			{
				"x": 0.7230085184,
				"y": 1.7809824362,
				"z": 0.4337233077,
				"element": "H" 
			},
			{
				"x": -0.9925798044,
				"y": 1.621624853,
				"z": 0.8480855055,
				"element": "H" 
			},
			{
				"x": -0.5080181343,
				"y": 1.9254311936,
				"z": -0.8256192511,
				"element": "H" 
			},
			{
				"x": 1.7030352211,
				"y": -0.1707338429,
				"z": -1.3703198882,
				"element": "H" 
			}
		],
		 "valence_orbital": [ 
			{
				"type": "occ",
				"energy": -0.3305,
				"method": "rhf"
			},
			{
				"type": "occ",
				"energy": -0.32171,
				"method": "rhf"
			},
			{
				"type": "occ",
				"energy": -0.31741,
				"method": "rhf"
			},
			{
				"type": "occ",
				"energy": -0.28946,
				"method": "rhf"
			},
			{
				"type": "occ",
				"energy": -0.26374,
				"method": "rhf"
			},
			{
				"type": "unocc",
				"energy": -0.09972,
				"method": "rhf"
			},
			{
				"type": "unocc",
				"energy": -0.05659,
				"method": "rhf"
			},
			{
				"type": "unocc",
				"energy": -0.02982,
				"method": "rhf"
			},
			{
				"type": "unocc",
				"energy": -0.0126,
				"method": "rhf"
			},
			{
				"type": "unocc",
				"energy": 0.01143,
				"method": "rhf"
			}
		],
		"cosmo_sigma_profile": { 
			"-0.025": 0.0,
			"-0.024": 0.0,
			"-0.023": 0.0,
			"-0.022": 0.0,
			"-0.021": 0.0,
			"-0.02": 0.0,
			"-0.019": 0.0,
			"-0.018": 0.0,
			"-0.017": 0.0,
			"-0.016": 0.0,
			"-0.015": 0.0,
			"-0.014": 0.0,
			"-0.013": 0.0,
			"-0.012": 0.0,
			"-0.011": 0.0,
			"-0.01": 0.687515702145,
			"-0.009": 1.59149474558,
			"-0.008": 1.59785004769,
			"-0.007": 2.74950587548,
			"-0.006": 7.39855477351,
			"-0.005": 10.0686339651,
			"-0.004": 12.382786508,
			"-0.003": 16.9933817584,
			"-0.002": 25.4385609833,
			"-0.001": 33.5860422026,
			"0.0": 23.1544126693,
			"0.001": 18.9157121449,
			"0.002": 17.4112307643,
			"0.003": 18.9916422074,
			"0.004": 7.46467375697,
			"0.005": 2.75610697481,
			"0.006": 3.78145107741,
			"0.007": 7.95654246022,
			"0.008": 9.47134753906,
			"0.009": 2.34661502589,
			"0.01": 0.0,
			"0.011": 0.0,
			"0.012": 0.0,
			"0.013": 0.0,
			"0.014": 0.0,
			"0.015": 0.0,
			"0.016": 0.0,
			"0.017": 0.0,
			"0.018": 0.0,
			"0.019": 0.0,
			"0.02": 0.0,
			"0.021": 0.0,
			"0.022": 0.0,
			"0.023": 0.0,
			"0.024": 0.0,
			"0.025": 0.0
		}
	}
}
