{
	 "smiles": "CN1N=C(C(C=O)=C1Cl)C(F)(F)F", 
	 "Tm": 314.65, 
	 "num_atms": 17, 
	 "gaussian": { 
		 "optdone": 1, 
		 "sigma_profile": "yes", 
		 "theory": "DFT", 
		 "functional": "B3LYP", 
		 "basiset": "6-31G**", 
		 "properties": { 
			 "R2extent": 3502.7393, 
			 "electric_dipole_moment_norm": 6.29357417292, 
			 "electric_quadrupole_moment_norm": 10.5984965476, 
			 "total_energy": -1175.4503138, 
			 "HOMO_LUMO_gap": 0.20029, 
			 "cosmo_polarized_energy": -11.71, 
			 "cosmo_cavitation_energy": 25.48, 
			 "cosmo_dispersion_energy": -18.0, 
			 "cosmo_repulsion_energy": 1.38, 
			 "cosmo_total_nonelectrostatic_energy": 8.85, 
			 "SMD_solvation_energy": 5.6 
		},
		"coords": [
			{
				"x": 1.7569920619,
				"y": 0.3464168292,
				"z": 0.9484450232,
				"element": "C" 
			},
			{
				"x": 0.6209673522,
				"y": 0.4088617597,
				"z": 0.0400838865,
				"element": "N" 
			},
			{
				"x": 0.782354038,
				"y": 0.0957804825,
				"z": -1.2687272332,
				"element": "N" 
			},
			{
				"x": -0.4139984443,
				"y": 0.247750537,
				"z": -1.8175416538,
				"element": "C" 
			},
			{
				"x": -1.3921482214,
				"y": 0.6669370572,
				"z": -0.8720561617,
				"element": "C" 
			},
			{
				"x": -2.8196977353,
				"y": 0.9492403064,
				"z": -1.0491330052,
				"element": "C" 
			},
			{
				"x": -3.4075832383,
				"y": 0.8574279935,
				"z": -2.1092396299,
				"element": "O" 
			},
			{
				"x": -0.6595503943,
				"y": 0.7527281395,
				"z": 0.309015253,
				"element": "C" 
			},
			{
				"x": -1.164164293,
				"y": 1.2008525724,
				"z": 1.8922344833,
				"element": "Cl" 
			},
			{
				"x": -0.5995440222,
				"y": -0.0218232896,
				"z": -3.287871421,
				"element": "C" 
			},
			{
				"x": -1.4983174774,
				"y": -1.0027543997,
				"z": -3.4906079334,
				"element": "F" 
			},
			{
				"x": 0.5600283146,
				"y": -0.4009800556,
				"z": -3.8534438415,
				"element": "F" 
			},
			{
				"x": -1.0326731311,
				"y": 1.0781850313,
				"z": -3.9309254302,
				"element": "F" 
			},
			{
				"x": 1.5684655032,
				"y": -0.3755844176,
				"z": 1.7468104695,
				"element": "H" 
			},
			{
				"x": 2.6128941901,
				"y": 0.0291040837,
				"z": 0.3554113504,
				"element": "H" 
			},
			{
				"x": 1.9505003997,
				"y": 1.3288252794,
				"z": 1.3862150776,
				"element": "H" 
			},
			{
				"x": -3.3437249023,
				"y": 1.2637320909,
				"z": -0.1226692335,
				"element": "H" 
			}
		],
		 "valence_orbital": [ 
			{
				"type": "occ",
				"energy": -0.37145,
				"method": "rhf"
			},
			{
				"type": "occ",
				"energy": -0.32747,
				"method": "rhf"
			},
			{
				"type": "occ",
				"energy": -0.29034,
				"method": "rhf"
			},
			{
				"type": "occ",
				"energy": -0.27812,
				"method": "rhf"
			},
			{
				"type": "occ",
				"energy": -0.26351,
				"method": "rhf"
			},
			{
				"type": "unocc",
				"energy": -0.06322,
				"method": "rhf"
			},
			{
				"type": "unocc",
				"energy": -0.02238,
				"method": "rhf"
			},
			{
				"type": "unocc",
				"energy": -0.00042,
				"method": "rhf"
			},
			{
				"type": "unocc",
				"energy": 0.07274,
				"method": "rhf"
			},
			{
				"type": "unocc",
				"energy": 0.08584,
				"method": "rhf"
			}
		],
		"cosmo_sigma_profile": { 
			"-0.025": 0.0,
			"-0.024": 0.0,
			"-0.023": 0.0,
			"-0.022": 0.0,
			"-0.021": 0.0,
			"-0.02": 0.0,
			"-0.019": 0.0,
			"-0.018": 0.0,
			"-0.017": 0.0,
			"-0.016": 0.0,
			"-0.015": 0.0,
			"-0.014": 0.0,
			"-0.013": 0.0,
			"-0.012": 0.0,
			"-0.011": 0.0,
			"-0.01": 0.0,
			"-0.009": 0.0,
			"-0.008": 4.3030014213,
			"-0.007": 8.96858351023,
			"-0.006": 12.9169388422,
			"-0.005": 15.1435854961,
			"-0.004": 15.0592496747,
			"-0.003": 13.6253884121,
			"-0.002": 14.2495058765,
			"-0.001": 14.8586648978,
			"0.0": 14.6673094817,
			"0.001": 13.7995811235,
			"0.002": 25.3504056505,
			"0.003": 18.4674924135,
			"0.004": 5.2586594336,
			"0.005": 4.36145570822,
			"0.006": 4.22611475774,
			"0.007": 3.46888694695,
			"0.008": 3.51528331219,
			"0.009": 4.06416524882,
			"0.01": 5.01195056365,
			"0.011": 3.53291678901,
			"0.012": 2.18673368186,
			"0.013": 0.244535075927,
			"0.014": 0.0,
			"0.015": 0.0,
			"0.016": 0.0,
			"0.017": 0.0,
			"0.018": 0.0,
			"0.019": 0.0,
			"0.02": 0.0,
			"0.021": 0.0,
			"0.022": 0.0,
			"0.023": 0.0,
			"0.024": 0.0,
			"0.025": 0.0
		}
	}
}
