{
	 "smiles": "CC1C2CC(OC(C)=O)C3C(C2O)(C(O)CC2C(C)(C)CCCC32CO)C1=O", 
	 "Tm": 393.15, 
	 "num_atms": 62, 
	 "gaussian": { 
		 "optdone": 1, 
		 "sigma_profile": "yes", 
		 "theory": "DFT", 
		 "functional": "B3LYP", 
		 "basiset": "6-31G**", 
		 "properties": { 
			 "R2extent": 9958.9172, 
			 "electric_dipole_moment_norm": 0.899129478996, 
			 "electric_quadrupole_moment_norm": 11.6281484816, 
			 "total_energy": -1310.15832507, 
			 "HOMO_LUMO_gap": 0.20747, 
			 "cosmo_polarized_energy": -22.81, 
			 "cosmo_cavitation_energy": 51.12, 
			 "cosmo_dispersion_energy": -34.76, 
			 "cosmo_repulsion_energy": 2.54, 
			 "cosmo_total_nonelectrostatic_energy": 18.91, 
			 "SMD_solvation_energy": 9.26 
		},
		"coords": [
			{
				"x": -0.1038909283,
				"y": 0.641910262,
				"z": -5.9487082248,
				"element": "C" 
			},
			{
				"x": -0.3966530406,
				"y": 0.0537094759,
				"z": -4.5575643869,
				"element": "C" 
			},
			{
				"x": 0.7869287287,
				"y": -0.67832033,
				"z": -3.8883033309,
				"element": "C" 
			},
			{
				"x": 0.3387365213,
				"y": -1.6928037612,
				"z": -2.8286551514,
				"element": "C" 
			},
			{
				"x": -0.6009857791,
				"y": -1.0743324235,
				"z": -1.7709960742,
				"element": "C" 
			},
			{
				"x": -0.9196068895,
				"y": -2.0941279725,
				"z": -0.7759943054,
				"element": "O" 
			},
			{
				"x": 0.0302084708,
				"y": -2.7081909209,
				"z": -0.0436392162,
				"element": "C" 
			},
			{
				"x": -0.5979623636,
				"y": -3.7653329887,
				"z": 0.839426749,
				"element": "C" 
			},
			{
				"x": 1.2162027726,
				"y": -2.4457132251,
				"z": -0.0573704928,
				"element": "O" 
			},
			{
				"x": -0.113763603,
				"y": 0.2940366631,
				"z": -1.1897455011,
				"element": "C" 
			},
			{
				"x": 0.3360955637,
				"y": 1.1790500398,
				"z": -2.4270239225,
				"element": "C" 
			},
			{
				"x": 1.5042512574,
				"y": 0.4738233278,
				"z": -3.1619817488,
				"element": "C" 
			},
			{
				"x": 2.5077858912,
				"y": 0.0954516149,
				"z": -2.2354425661,
				"element": "O" 
			},
			{
				"x": 0.7645049705,
				"y": 2.5822529435,
				"z": -1.9912226053,
				"element": "C" 
			},
			{
				"x": 1.052371032,
				"y": 3.3140867903,
				"z": -3.1881021923,
				"element": "O" 
			},
			{
				"x": -0.2850184075,
				"y": 3.2802197599,
				"z": -1.1400730575,
				"element": "C" 
			},
			{
				"x": -0.6372899441,
				"y": 2.5174141262,
				"z": 0.1541484372,
				"element": "C" 
			},
			{
				"x": 0.3840268586,
				"y": 2.6867037609,
				"z": 1.3709220029,
				"element": "C" 
			},
			{
				"x": -0.4070311589,
				"y": 3.1264376134,
				"z": 2.6284789508,
				"element": "C" 
			},
			{
				"x": 1.4467166628,
				"y": 3.7830038869,
				"z": 1.1397102323,
				"element": "C" 
			},
			{
				"x": 1.1220811187,
				"y": 1.3640663517,
				"z": 1.6675672566,
				"element": "C" 
			},
			{
				"x": 0.1801899263,
				"y": 0.1774909456,
				"z": 1.9483488657,
				"element": "C" 
			},
			{
				"x": -1.1569392466,
				"y": 0.2631146305,
				"z": 1.1795713543,
				"element": "C" 
			},
			{
				"x": -1.0908945623,
				"y": 1.0253425202,
				"z": -0.1687030975,
				"element": "C" 
			},
			{
				"x": -2.549165395,
				"y": 1.1588024887,
				"z": -0.6850441292,
				"element": "C" 
			},
			{
				"x": -3.1643439181,
				"y": -0.1225277558,
				"z": -0.8415623858,
				"element": "O" 
			},
			{
				"x": -0.7297015091,
				"y": 1.1719843861,
				"z": -3.5524565443,
				"element": "C" 
			},
			{
				"x": -1.6873002277,
				"y": 1.9104885657,
				"z": -3.6641888965,
				"element": "O" 
			},
			{
				"x": 0.7709813396,
				"y": 1.2991591515,
				"z": -5.9361383643,
				"element": "H" 
			},
			{
				"x": 0.0799430893,
				"y": -0.1587685654,
				"z": -6.6722220179,
				"element": "H" 
			},
			{
				"x": -0.9583523342,
				"y": 1.2319542233,
				"z": -6.2909509579,
				"element": "H" 
			},
			{
				"x": -1.278193235,
				"y": -0.5948181761,
				"z": -4.6415051864,
				"element": "H" 
			},
			{
				"x": 1.4308828047,
				"y": -1.1723419403,
				"z": -4.6266948701,
				"element": "H" 
			},
			{
				"x": 1.2240585756,
				"y": -2.0864296197,
				"z": -2.3294478413,
				"element": "H" 
			},
			{
				"x": -0.1902184513,
				"y": -2.531115958,
				"z": -3.2980204503,
				"element": "H" 
			},
			{
				"x": -1.5856393771,
				"y": -0.9170285744,
				"z": -2.2099029257,
				"element": "H" 
			},
			{
				"x": 0.1853809059,
				"y": -4.3917965371,
				"z": 1.265980938,
				"element": "H" 
			},
			{
				"x": -1.1506578859,
				"y": -3.2787950272,
				"z": 1.6501062198,
				"element": "H" 
			},
			{
				"x": -1.3110163544,
				"y": -4.370722396,
				"z": 0.2749177535,
				"element": "H" 
			},
			{
				"x": 0.8143068619,
				"y": 0.086303004,
				"z": -0.6560976761,
				"element": "H" 
			},
			{
				"x": 1.917056101,
				"y": 1.1847015709,
				"z": -3.8893992347,
				"element": "H" 
			},
			{
				"x": 3.2591777427,
				"y": -0.2604419457,
				"z": -2.7258111162,
				"element": "H" 
			},
			{
				"x": 1.6930369152,
				"y": 2.4510830375,
				"z": -1.415427238,
				"element": "H" 
			},
			{
				"x": 1.2443660794,
				"y": 4.2260430301,
				"z": -2.9362428547,
				"element": "H" 
			},
			{
				"x": 0.0596702315,
				"y": 4.2922416631,
				"z": -0.899203711,
				"element": "H" 
			},
			{
				"x": -1.1791751268,
				"y": 3.3999235345,
				"z": -1.7576724235,
				"element": "H" 
			},
			{
				"x": -1.5529572074,
				"y": 3.0004120598,
				"z": 0.5152560471,
				"element": "H" 
			},
			{
				"x": -1.1883662897,
				"y": 2.4155663829,
				"z": 2.9075770365,
				"element": "H" 
			},
			{
				"x": -0.8897527378,
				"y": 4.0967666278,
				"z": 2.462223313,
				"element": "H" 
			},
			{
				"x": 0.2649777951,
				"y": 3.234298018,
				"z": 3.4878690057,
				"element": "H" 
			},
			{
				"x": 0.9972500849,
				"y": 4.7702619739,
				"z": 0.9889088102,
				"element": "H" 
			},
			{
				"x": 2.1000581969,
				"y": 3.569645819,
				"z": 0.2891664323,
				"element": "H" 
			},
			{
				"x": 2.0874938084,
				"y": 3.8552835599,
				"z": 2.0255070565,
				"element": "H" 
			},
			{
				"x": 1.7910946524,
				"y": 1.5140628785,
				"z": 2.5246237317,
				"element": "H" 
			},
			{
				"x": 1.7790342399,
				"y": 1.1292608585,
				"z": 0.8222121386,
				"element": "H" 
			},
			{
				"x": 0.7083784172,
				"y": -0.7481909295,
				"z": 1.7072009544,
				"element": "H" 
			},
			{
				"x": -0.0443109291,
				"y": 0.1276148993,
				"z": 3.0205065639,
				"element": "H" 
			},
			{
				"x": -1.8916772559,
				"y": 0.7976650293,
				"z": 1.7944135136,
				"element": "H" 
			},
			{
				"x": -1.5825960305,
				"y": -0.7272796717,
				"z": 1.0218776885,
				"element": "H" 
			},
			{
				"x": -3.1065975631,
				"y": 1.7394237623,
				"z": 0.0669630065,
				"element": "H" 
			},
			{
				"x": -2.5799495521,
				"y": 1.7147348047,
				"z": -1.625671823,
				"element": "H" 
			},
			{
				"x": -4.0185403126,
				"y": 0.018482677,
				"z": -1.2675975379,
				"element": "H" 
			}
		],
		 "valence_orbital": [ 
			{
				"type": "occ",
				"energy": -0.26195,
				"method": "rhf"
			},
			{
				"type": "occ",
				"energy": -0.25808,
				"method": "rhf"
			},
			{
				"type": "occ",
				"energy": -0.25681,
				"method": "rhf"
			},
			{
				"type": "occ",
				"energy": -0.25079,
				"method": "rhf"
			},
			{
				"type": "occ",
				"energy": -0.22962,
				"method": "rhf"
			},
			{
				"type": "unocc",
				"energy": -0.02215,
				"method": "rhf"
			},
			{
				"type": "unocc",
				"energy": 0.01882,
				"method": "rhf"
			},
			{
				"type": "unocc",
				"energy": 0.06679,
				"method": "rhf"
			},
			{
				"type": "unocc",
				"energy": 0.07652,
				"method": "rhf"
			},
			{
				"type": "unocc",
				"energy": 0.07785,
				"method": "rhf"
			}
		],
		"cosmo_sigma_profile": { 
			"-0.025": 0.0,
			"-0.024": 0.0,
			"-0.023": 0.0,
			"-0.022": 0.0,
			"-0.021": 0.0,
			"-0.02": 0.0,
			"-0.019": 0.0,
			"-0.018": 0.0,
			"-0.017": 0.0,
			"-0.016": 0.968536932777,
			"-0.015": 2.92317624192,
			"-0.014": 2.91319279159,
			"-0.013": 2.68204027925,
			"-0.012": 2.06102097609,
			"-0.011": 3.0894392177,
			"-0.01": 2.95415459894,
			"-0.009": 2.17725197665,
			"-0.008": 2.16048580008,
			"-0.007": 3.4394313156,
			"-0.006": 7.09714306483,
			"-0.005": 13.4251115357,
			"-0.004": 22.8054649303,
			"-0.003": 39.3337432827,
			"-0.002": 53.4591464673,
			"-0.001": 49.8913300834,
			"0.0": 38.7274404752,
			"0.001": 35.1281911552,
			"0.002": 22.7054901327,
			"0.003": 9.12526968911,
			"0.004": 7.40256175829,
			"0.005": 7.11404240582,
			"0.006": 7.32755746655,
			"0.007": 7.30572125634,
			"0.008": 6.75656160281,
			"0.009": 7.04623756154,
			"0.01": 6.33671530636,
			"0.011": 10.5440075281,
			"0.012": 7.93432898066,
			"0.013": 5.26669134629,
			"0.014": 1.78420978464,
			"0.015": 0.676319141033,
			"0.016": 0.0465069734236,
			"0.017": 0.0,
			"0.018": 0.0,
			"0.019": 0.0,
			"0.02": 0.0,
			"0.021": 0.0,
			"0.022": 0.0,
			"0.023": 0.0,
			"0.024": 0.0,
			"0.025": 0.0
		}
	}
}
