{
	 "smiles": "COC1=CC=C2NC(=O)OC2=C1", 
	 "Tm": 427.15, 
	 "num_atms": 19, 
	 "gaussian": { 
		 "optdone": 1, 
		 "sigma_profile": "yes", 
		 "theory": "DFT", 
		 "functional": "B3LYP", 
		 "basiset": "6-31G**", 
		 "properties": { 
			 "R2extent": 2371.2524, 
			 "electric_dipole_moment_norm": 3.69921189985, 
			 "electric_quadrupole_moment_norm": 22.2875144772, 
			 "total_energy": -589.495785814, 
			 "HOMO_LUMO_gap": 0.19384, 
			 "cosmo_polarized_energy": -13.84, 
			 "cosmo_cavitation_energy": 23.61, 
			 "cosmo_dispersion_energy": -18.04, 
			 "cosmo_repulsion_energy": 1.43, 
			 "cosmo_total_nonelectrostatic_energy": 6.99, 
			 "SMD_solvation_energy": 6.06 
		},
		"coords": [
			{
				"x": -2.3762662402,
				"y": -2.8414602184,
				"z": 0.4294695977,
				"element": "C" 
			},
			{
				"x": -1.1087373966,
				"y": -3.0457525525,
				"z": -0.1736990261,
				"element": "O" 
			},
			{
				"x": -0.2822472575,
				"y": -1.9688033878,
				"z": -0.3221177677,
				"element": "C" 
			},
			{
				"x": 0.9576430057,
				"y": -2.2410736845,
				"z": -0.9268130363,
				"element": "C" 
			},
			{
				"x": 1.9024075609,
				"y": -1.2356647878,
				"z": -1.1420203861,
				"element": "C" 
			},
			{
				"x": 1.573985962,
				"y": 0.0523773017,
				"z": -0.7356816421,
				"element": "C" 
			},
			{
				"x": 2.2250010185,
				"y": 1.2876492207,
				"z": -0.7742347522,
				"element": "N" 
			},
			{
				"x": 1.4295906663,
				"y": 2.2731360394,
				"z": -0.2222308349,
				"element": "C" 
			},
			{
				"x": 1.6492592605,
				"y": 3.4482165627,
				"z": -0.0817642115,
				"element": "O" 
			},
			{
				"x": 0.2461324497,
				"y": 1.6467678641,
				"z": 0.1755730948,
				"element": "O" 
			},
			{
				"x": 0.3413843761,
				"y": 0.3099517798,
				"z": -0.1372211863,
				"element": "C" 
			},
			{
				"x": -0.614858322,
				"y": -0.6659114367,
				"z": 0.0890504983,
				"element": "C" 
			},
			{
				"x": -2.8622880521,
				"y": -3.8179438557,
				"z": 0.4473836943,
				"element": "H" 
			},
			{
				"x": -2.9933326291,
				"y": -2.142503027,
				"z": -0.1501958917,
				"element": "H" 
			},
			{
				"x": -2.2807721622,
				"y": -2.4676701694,
				"z": 1.4573241843,
				"element": "H" 
			},
			{
				"x": 1.1619167308,
				"y": -3.2634858699,
				"z": -1.2243290451,
				"element": "H" 
			},
			{
				"x": 2.854624532,
				"y": -1.4623859591,
				"z": -1.6099940273,
				"element": "H" 
			},
			{
				"x": 3.1408516738,
				"y": 1.4931235547,
				"z": -1.1385823373,
				"element": "H" 
			},
			{
				"x": -1.5569951765,
				"y": -0.4151673743,
				"z": 0.5573830748,
				"element": "H" 
			}
		],
		 "valence_orbital": [ 
			{
				"type": "occ",
				"energy": -0.34278,
				"method": "rhf"
			},
			{
				"type": "occ",
				"energy": -0.2913,
				"method": "rhf"
			},
			{
				"type": "occ",
				"energy": -0.28765,
				"method": "rhf"
			},
			{
				"type": "occ",
				"energy": -0.25506,
				"method": "rhf"
			},
			{
				"type": "occ",
				"energy": -0.20771,
				"method": "rhf"
			},
			{
				"type": "unocc",
				"energy": -0.01387,
				"method": "rhf"
			},
			{
				"type": "unocc",
				"energy": 0.0105,
				"method": "rhf"
			},
			{
				"type": "unocc",
				"energy": 0.05129,
				"method": "rhf"
			},
			{
				"type": "unocc",
				"energy": 0.07404,
				"method": "rhf"
			},
			{
				"type": "unocc",
				"energy": 0.08642,
				"method": "rhf"
			}
		],
		"cosmo_sigma_profile": { 
			"-0.025": 0.0,
			"-0.024": 0.0,
			"-0.023": 0.0,
			"-0.022": 0.0,
			"-0.021": 0.0,
			"-0.02": 0.0,
			"-0.019": 0.0,
			"-0.018": 0.00966155025497,
			"-0.017": 1.0905086076,
			"-0.016": 1.67362670099,
			"-0.015": 1.16604138084,
			"-0.014": 1.12538839809,
			"-0.013": 0.785397645942,
			"-0.012": 1.19446128845,
			"-0.011": 1.24827323589,
			"-0.01": 0.91677926042,
			"-0.009": 0.933419743617,
			"-0.008": 2.72756318599,
			"-0.007": 6.42353970474,
			"-0.006": 9.91021880739,
			"-0.005": 13.6958886676,
			"-0.004": 14.4562652071,
			"-0.003": 15.5026566082,
			"-0.002": 10.1796544327,
			"-0.001": 9.71730999216,
			"0.0": 10.3768878664,
			"0.001": 10.6868506682,
			"0.002": 11.0254155529,
			"0.003": 14.6464452951,
			"0.004": 10.5022649309,
			"0.005": 6.11448288679,
			"0.006": 4.86208538565,
			"0.007": 3.42876447573,
			"0.008": 4.50641805608,
			"0.009": 4.06007947252,
			"0.01": 3.6706853633,
			"0.011": 3.58483559309,
			"0.012": 7.02772077686,
			"0.013": 1.90596147043,
			"0.014": 0.0,
			"0.015": 0.0,
			"0.016": 0.0,
			"0.017": 0.0,
			"0.018": 0.0,
			"0.019": 0.0,
			"0.02": 0.0,
			"0.021": 0.0,
			"0.022": 0.0,
			"0.023": 0.0,
			"0.024": 0.0,
			"0.025": 0.0
		}
	}
}
