{
	 "smiles": "NC(=O)C1=CC=CC=C1F", 
	 "Tm": 390.15, 
	 "num_atms": 16, 
	 "gaussian": { 
		 "optdone": 1, 
		 "sigma_profile": "yes", 
		 "theory": "DFT", 
		 "functional": "B3LYP", 
		 "basiset": "6-31G**", 
		 "properties": { 
			 "R2extent": 1410.8972, 
			 "electric_dipole_moment_norm": 4.41685519912, 
			 "electric_quadrupole_moment_norm": 13.259354315, 
			 "total_energy": -500.182700711, 
			 "HOMO_LUMO_gap": 0.20911, 
			 "cosmo_polarized_energy": -14.01, 
			 "cosmo_cavitation_energy": 20.97, 
			 "cosmo_dispersion_energy": -15.44, 
			 "cosmo_repulsion_energy": 1.25, 
			 "cosmo_total_nonelectrostatic_energy": 6.78, 
			 "SMD_solvation_energy": 4.96 
		},
		"coords": [
			{
				"x": 1.2446142015,
				"y": 2.7854341807,
				"z": -0.5021326278,
				"element": "N" 
			},
			{
				"x": 1.3724513584,
				"y": 1.4487151698,
				"z": -0.1942012051,
				"element": "C" 
			},
			{
				"x": 2.4518102853,
				"y": 0.9382731067,
				"z": 0.0594787085,
				"element": "O" 
			},
			{
				"x": 0.0874591627,
				"y": 0.6686349853,
				"z": -0.2587125567,
				"element": "C" 
			},
			{
				"x": -0.8851092701,
				"y": 0.9317356526,
				"z": -1.2363724244,
				"element": "C" 
			},
			{
				"x": -2.0502091611,
				"y": 0.1712363756,
				"z": -1.3229128016,
				"element": "C" 
			},
			{
				"x": -2.2656604002,
				"y": -0.8701923513,
				"z": -0.4178794876,
				"element": "C" 
			},
			{
				"x": -1.3177511882,
				"y": -1.1503273167,
				"z": 0.5658863361,
				"element": "C" 
			},
			{
				"x": -0.1568736013,
				"y": -0.3871310887,
				"z": 0.6287777682,
				"element": "C" 
			},
			{
				"x": 0.7278057981,
				"y": -0.6651751972,
				"z": 1.5987063447,
				"element": "F" 
			},
			{
				"x": 0.3563019049,
				"y": 3.24924201,
				"z": -0.3893960492,
				"element": "H" 
			},
			{
				"x": 2.0768899062,
				"y": 3.3427847455,
				"z": -0.3706823387,
				"element": "H" 
			},
			{
				"x": -0.7023800715,
				"y": 1.7263438687,
				"z": -1.9534035938,
				"element": "H" 
			},
			{
				"x": -2.7815326207,
				"y": 0.3850952157,
				"z": -2.0958830587,
				"element": "H" 
			},
			{
				"x": -3.1705044367,
				"y": -1.4676775799,
				"z": -0.4756782976,
				"element": "H" 
			},
			{
				"x": -1.4586118673,
				"y": -1.9477917768,
				"z": 1.2874052835,
				"element": "H" 
			}
		],
		 "valence_orbital": [ 
			{
				"type": "occ",
				"energy": -0.35591,
				"method": "rhf"
			},
			{
				"type": "occ",
				"energy": -0.27304,
				"method": "rhf"
			},
			{
				"type": "occ",
				"energy": -0.26958,
				"method": "rhf"
			},
			{
				"type": "occ",
				"energy": -0.25429,
				"method": "rhf"
			},
			{
				"type": "occ",
				"energy": -0.24618,
				"method": "rhf"
			},
			{
				"type": "unocc",
				"energy": -0.03707,
				"method": "rhf"
			},
			{
				"type": "unocc",
				"energy": -0.00999,
				"method": "rhf"
			},
			{
				"type": "unocc",
				"energy": 0.04606,
				"method": "rhf"
			},
			{
				"type": "unocc",
				"energy": 0.07691,
				"method": "rhf"
			},
			{
				"type": "unocc",
				"energy": 0.09292,
				"method": "rhf"
			}
		],
		"cosmo_sigma_profile": { 
			"-0.025": 0.0,
			"-0.024": 0.0,
			"-0.023": 0.0,
			"-0.022": 0.0,
			"-0.021": 0.0,
			"-0.02": 0.0,
			"-0.019": 0.0,
			"-0.018": 0.0,
			"-0.017": 0.0,
			"-0.016": 0.0,
			"-0.015": 0.0160195878057,
			"-0.014": 1.63661413843,
			"-0.013": 2.2348000212,
			"-0.012": 2.10110734231,
			"-0.011": 2.70511844418,
			"-0.01": 2.38638245703,
			"-0.009": 2.63765767918,
			"-0.008": 2.3662191259,
			"-0.007": 6.3088596851,
			"-0.006": 10.1290330812,
			"-0.005": 10.1293795282,
			"-0.004": 8.97206929469,
			"-0.003": 7.92275044457,
			"-0.002": 7.22686956524,
			"-0.001": 8.82053272616,
			"0.0": 11.4657823845,
			"0.001": 11.8942398293,
			"0.002": 12.9022673475,
			"0.003": 13.8675573238,
			"0.004": 13.726817204,
			"0.005": 4.11009515834,
			"0.006": 2.61088656232,
			"0.007": 2.15829117876,
			"0.008": 2.5243568801,
			"0.009": 1.30534279073,
			"0.01": 1.53291945795,
			"0.011": 2.27426227551,
			"0.012": 2.84862638014,
			"0.013": 5.53121296663,
			"0.014": 3.31544286453,
			"0.015": 0.11446131776,
			"0.016": 0.0,
			"0.017": 0.0,
			"0.018": 0.0,
			"0.019": 0.0,
			"0.02": 0.0,
			"0.021": 0.0,
			"0.022": 0.0,
			"0.023": 0.0,
			"0.024": 0.0,
			"0.025": 0.0
		}
	}
}
