{
	 "smiles": "O=C1C=CC(=O)N1C1CC1", 
	 "Tm": 328.15, 
	 "num_atms": 17, 
	 "gaussian": { 
		 "optdone": 1, 
		 "sigma_profile": "yes", 
		 "theory": "DFT", 
		 "functional": "B3LYP", 
		 "basiset": "6-31G**", 
		 "properties": { 
			 "R2extent": 1309.7282, 
			 "electric_dipole_moment_norm": 0.954608621373, 
			 "electric_quadrupole_moment_norm": 15.340323125, 
			 "total_energy": -476.126282698, 
			 "HOMO_LUMO_gap": 0.17168, 
			 "cosmo_polarized_energy": -10.38, 
			 "cosmo_cavitation_energy": 21.56, 
			 "cosmo_dispersion_energy": -15.5, 
			 "cosmo_repulsion_energy": 1.27, 
			 "cosmo_total_nonelectrostatic_energy": 7.33, 
			 "SMD_solvation_energy": 4.93 
		},
		"coords": [
			{
				"x": -0.3874938454,
				"y": 0.3046950098,
				"z": -2.2575085601,
				"element": "O" 
			},
			{
				"x": 0.2084200639,
				"y": 0.425554938,
				"z": -1.2080570512,
				"element": "C" 
			},
			{
				"x": 1.2844559885,
				"y": 1.418169024,
				"z": -0.8693788015,
				"element": "C" 
			},
			{
				"x": 1.6994025493,
				"y": 1.1943577522,
				"z": 0.3807006157,
				"element": "C" 
			},
			{
				"x": 0.9245201224,
				"y": 0.039304921,
				"z": 0.9492666568,
				"element": "C" 
			},
			{
				"x": 1.0409651038,
				"y": -0.4657401534,
				"z": 2.0458268572,
				"element": "O" 
			},
			{
				"x": 0.0214847315,
				"y": -0.3529189417,
				"z": -0.0532828903,
				"element": "N" 
			},
			{
				"x": -0.8616563395,
				"y": -1.4818737541,
				"z": 0.0377079268,
				"element": "C" 
			},
			{
				"x": -2.3285817888,
				"y": -1.2773071087,
				"z": -0.2428350278,
				"element": "C" 
			},
			{
				"x": -1.861238999,
				"y": -1.5295122448,
				"z": 1.1650851491,
				"element": "C" 
			},
			{
				"x": 1.6156368512,
				"y": 2.1623690302,
				"z": -1.581799523,
				"element": "H" 
			},
			{
				"x": 2.458203385,
				"y": 1.707903875,
				"z": 0.9565020196,
				"element": "H" 
			},
			{
				"x": -0.4142236988,
				"y": -2.4209462008,
				"z": -0.2790296383,
				"element": "H" 
			},
			{
				"x": -2.8435814475,
				"y": -2.0673763599,
				"z": -0.7792200938,
				"element": "H" 
			},
			{
				"x": -2.6478421847,
				"y": -0.2752456811,
				"z": -0.5063759207,
				"element": "H" 
			},
			{
				"x": -1.8614866882,
				"y": -0.699675712,
				"z": 1.8628534087,
				"element": "H" 
			},
			{
				"x": -2.0473838038,
				"y": -2.4970583936,
				"z": 1.6193448728,
				"element": "H" 
			}
		],
		 "valence_orbital": [ 
			{
				"type": "occ",
				"energy": -0.30935,
				"method": "rhf"
			},
			{
				"type": "occ",
				"energy": -0.30605,
				"method": "rhf"
			},
			{
				"type": "occ",
				"energy": -0.29312,
				"method": "rhf"
			},
			{
				"type": "occ",
				"energy": -0.26988,
				"method": "rhf"
			},
			{
				"type": "occ",
				"energy": -0.26606,
				"method": "rhf"
			},
			{
				"type": "unocc",
				"energy": -0.09438,
				"method": "rhf"
			},
			{
				"type": "unocc",
				"energy": 0.05055,
				"method": "rhf"
			},
			{
				"type": "unocc",
				"energy": 0.0667,
				"method": "rhf"
			},
			{
				"type": "unocc",
				"energy": 0.09712,
				"method": "rhf"
			},
			{
				"type": "unocc",
				"energy": 0.10461,
				"method": "rhf"
			}
		],
		"cosmo_sigma_profile": { 
			"-0.025": 0.0,
			"-0.024": 0.0,
			"-0.023": 0.0,
			"-0.022": 0.0,
			"-0.021": 0.0,
			"-0.02": 0.0,
			"-0.019": 0.0,
			"-0.018": 0.0,
			"-0.017": 0.0,
			"-0.016": 0.0,
			"-0.015": 0.0,
			"-0.014": 0.0,
			"-0.013": 0.0,
			"-0.012": 0.0,
			"-0.011": 0.0,
			"-0.01": 0.692348056214,
			"-0.009": 4.08071344902,
			"-0.008": 3.4731105833,
			"-0.007": 3.89248696672,
			"-0.006": 7.94183856689,
			"-0.005": 18.3227659507,
			"-0.004": 19.5730795413,
			"-0.003": 16.2862884816,
			"-0.002": 13.7608249543,
			"-0.001": 13.1427504685,
			"0.0": 9.63134249284,
			"0.001": 7.11127556213,
			"0.002": 5.96881894137,
			"0.003": 3.88343325268,
			"0.004": 6.09279752937,
			"0.005": 4.38679338478,
			"0.006": 1.82706675426,
			"0.007": 3.2399476175,
			"0.008": 3.98041764498,
			"0.009": 4.19053212751,
			"0.01": 6.55681028084,
			"0.011": 9.86329079369,
			"0.012": 4.43397582538,
			"0.013": 0.0311739322329,
			"0.014": 0.0,
			"0.015": 0.0,
			"0.016": 0.0,
			"0.017": 0.0,
			"0.018": 0.0,
			"0.019": 0.0,
			"0.02": 0.0,
			"0.021": 0.0,
			"0.022": 0.0,
			"0.023": 0.0,
			"0.024": 0.0,
			"0.025": 0.0
		}
	}
}
