{
	 "smiles": "CC1=CC=C(C=C1)C(=O)OC(C(OC(=O)C1=CC=C(C)C=C1)C(O)=O)C(O)=O", 
	 "Tm": 439.15, 
	 "num_atms": 46, 
	 "gaussian": { 
		 "optdone": 1, 
		 "sigma_profile": "yes", 
		 "theory": "DFT", 
		 "functional": "B3LYP", 
		 "basiset": "6-31G**", 
		 "properties": { 
			 "R2extent": 13164.3725, 
			 "electric_dipole_moment_norm": 3.74035176287, 
			 "electric_quadrupole_moment_norm": 14.8978382878, 
			 "total_energy": -1374.82620168, 
			 "HOMO_LUMO_gap": 0.19687, 
			 "cosmo_polarized_energy": -24.06, 
			 "cosmo_cavitation_energy": 52.43, 
			 "cosmo_dispersion_energy": -34.47, 
			 "cosmo_repulsion_energy": 2.65, 
			 "cosmo_total_nonelectrostatic_energy": 20.6, 
			 "SMD_solvation_energy": 12.56 
		},
		"coords": [
			{
				"x": 0.8751240273,
				"y": -4.98178308,
				"z": -3.2516341056,
				"element": "C" 
			},
			{
				"x": 0.914976701,
				"y": -3.913330802,
				"z": -2.1863955672,
				"element": "C" 
			},
			{
				"x": 2.0319430064,
				"y": -3.0768540149,
				"z": -2.0468770128,
				"element": "C" 
			},
			{
				"x": 2.0879330663,
				"y": -2.1097980426,
				"z": -1.0470786832,
				"element": "C" 
			},
			{
				"x": 1.0132950944,
				"y": -1.9570717153,
				"z": -0.1598229264,
				"element": "C" 
			},
			{
				"x": -0.1099471074,
				"y": -2.7857250823,
				"z": -0.2919062842,
				"element": "C" 
			},
			{
				"x": -0.1552151519,
				"y": -3.7485992903,
				"z": -1.2935194756,
				"element": "C" 
			},
			{
				"x": 1.0048150913,
				"y": -0.9456602001,
				"z": 0.9263347978,
				"element": "C" 
			},
			{
				"x": 0.0947670333,
				"y": -0.7771286531,
				"z": 1.7111620212,
				"element": "O" 
			},
			{
				"x": 2.1599517773,
				"y": -0.2157072631,
				"z": 0.9464033912,
				"element": "O" 
			},
			{
				"x": 2.3322301191,
				"y": 0.7965040133,
				"z": 1.9422888066,
				"element": "C" 
			},
			{
				"x": 1.7400754456,
				"y": 2.1483359478,
				"z": 1.5230499689,
				"element": "C" 
			},
			{
				"x": 0.3291840385,
				"y": 2.0701704562,
				"z": 1.4274718876,
				"element": "O" 
			},
			{
				"x": -0.3519048278,
				"y": 3.2335162989,
				"z": 1.6496610951,
				"element": "C" 
			},
			{
				"x": 0.2107222684,
				"y": 4.2908990574,
				"z": 1.852585501,
				"element": "O" 
			},
			{
				"x": -1.8198135705,
				"y": 3.03269627,
				"z": 1.6142254953,
				"element": "C" 
			},
			{
				"x": -2.4027242616,
				"y": 1.7612972506,
				"z": 1.5108039762,
				"element": "C" 
			},
			{
				"x": -3.7899824481,
				"y": 1.6397735379,
				"z": 1.4894112601,
				"element": "C" 
			},
			{
				"x": -4.6220170755,
				"y": 2.7658301799,
				"z": 1.5687492574,
				"element": "C" 
			},
			{
				"x": -6.1245769936,
				"y": 2.6204586802,
				"z": 1.5736270739,
				"element": "C" 
			},
			{
				"x": -4.0232487989,
				"y": 4.0312377283,
				"z": 1.6708220025,
				"element": "C" 
			},
			{
				"x": -2.63999855,
				"y": 4.1667350563,
				"z": 1.6976317248,
				"element": "C" 
			},
			{
				"x": 2.4104207407,
				"y": 2.5981715139,
				"z": 0.2209035788,
				"element": "C" 
			},
			{
				"x": 1.5442411781,
				"y": 2.8602645811,
				"z": -0.7686885603,
				"element": "O" 
			},
			{
				"x": 3.6127821786,
				"y": 2.703378179,
				"z": 0.1189893219,
				"element": "O" 
			},
			{
				"x": 1.9666589559,
				"y": 0.2952682013,
				"z": 3.345074422,
				"element": "C" 
			},
			{
				"x": 1.435709016,
				"y": 1.2715803209,
				"z": 4.1084366163,
				"element": "O" 
			},
			{
				"x": 2.2339115374,
				"y": -0.8092782969,
				"z": 3.7490546374,
				"element": "O" 
			},
			{
				"x": 1.2500087885,
				"y": -5.9365315345,
				"z": -2.8617816883,
				"element": "H" 
			},
			{
				"x": 1.4964656183,
				"y": -4.7148391709,
				"z": -4.1112996339,
				"element": "H" 
			},
			{
				"x": -0.1449775048,
				"y": -5.1553130142,
				"z": -3.6070170039,
				"element": "H" 
			},
			{
				"x": 2.8687947571,
				"y": -3.1859614998,
				"z": -2.7318619986,
				"element": "H" 
			},
			{
				"x": 2.9584644867,
				"y": -1.4714062153,
				"z": -0.9511438614,
				"element": "H" 
			},
			{
				"x": -0.9355173596,
				"y": -2.6580114498,
				"z": 0.399998267,
				"element": "H" 
			},
			{
				"x": -1.0321836371,
				"y": -4.383838777,
				"z": -1.3880481567,
				"element": "H" 
			},
			{
				"x": 3.4161822251,
				"y": 0.9544874061,
				"z": 1.9602773195,
				"element": "H" 
			},
			{
				"x": 2.0192988174,
				"y": 2.894328838,
				"z": 2.2735912091,
				"element": "H" 
			},
			{
				"x": -1.7716080911,
				"y": 0.8806830719,
				"z": 1.4588366941,
				"element": "H" 
			},
			{
				"x": -4.2369847757,
				"y": 0.6520303759,
				"z": 1.4101433188,
				"element": "H" 
			},
			{
				"x": -6.5088639835,
				"y": 2.5569808004,
				"z": 2.5995726998,
				"element": "H" 
			},
			{
				"x": -6.4414913561,
				"y": 1.7133237486,
				"z": 1.0509992543,
				"element": "H" 
			},
			{
				"x": -6.6116811288,
				"y": 3.4772055484,
				"z": 1.098260656,
				"element": "H" 
			},
			{
				"x": -4.6512955577,
				"y": 4.9166652417,
				"z": 1.7287622732,
				"element": "H" 
			},
			{
				"x": -2.1734961962,
				"y": 5.1428871203,
				"z": 1.7789066014,
				"element": "H" 
			},
			{
				"x": 2.0767139103,
				"y": 3.1619800231,
				"z": -1.5243827175,
				"element": "H" 
			},
			{
				"x": 1.2972584969,
				"y": 0.885948655,
				"z": 4.9901225464,
				"element": "H" 
			}
		],
		 "valence_orbital": [ 
			{
				"type": "occ",
				"energy": -0.27304,
				"method": "rhf"
			},
			{
				"type": "occ",
				"energy": -0.26027,
				"method": "rhf"
			},
			{
				"type": "occ",
				"energy": -0.25329,
				"method": "rhf"
			},
			{
				"type": "occ",
				"energy": -0.2531,
				"method": "rhf"
			},
			{
				"type": "occ",
				"energy": -0.24669,
				"method": "rhf"
			},
			{
				"type": "unocc",
				"energy": -0.04982,
				"method": "rhf"
			},
			{
				"type": "unocc",
				"energy": -0.04243,
				"method": "rhf"
			},
			{
				"type": "unocc",
				"energy": -0.0099,
				"method": "rhf"
			},
			{
				"type": "unocc",
				"energy": -0.00663,
				"method": "rhf"
			},
			{
				"type": "unocc",
				"energy": -0.00303,
				"method": "rhf"
			}
		],
		"cosmo_sigma_profile": { 
			"-0.025": 0.0,
			"-0.024": 0.0,
			"-0.023": 0.0,
			"-0.022": 0.0,
			"-0.021": 0.0,
			"-0.02": 0.165465166062,
			"-0.019": 1.74428144971,
			"-0.018": 2.13214634196,
			"-0.017": 1.74780743845,
			"-0.016": 1.27252899063,
			"-0.015": 1.49464438973,
			"-0.014": 1.27763099324,
			"-0.013": 1.72654175245,
			"-0.012": 1.83107171228,
			"-0.011": 2.67784038464,
			"-0.01": 3.33800514592,
			"-0.009": 2.95106662342,
			"-0.008": 3.86602922615,
			"-0.007": 3.63425496968,
			"-0.006": 12.9782032504,
			"-0.005": 26.9387948517,
			"-0.004": 30.2037947193,
			"-0.003": 26.4323178683,
			"-0.002": 28.4196231954,
			"-0.001": 37.2954691976,
			"0.0": 35.5230870939,
			"0.001": 29.4032807507,
			"0.002": 31.9173930558,
			"0.003": 29.5924490154,
			"0.004": 32.1718860248,
			"0.005": 11.8698254547,
			"0.006": 6.18397775147,
			"0.007": 7.48530211786,
			"0.008": 7.79999305554,
			"0.009": 8.61765022723,
			"0.01": 10.6490334204,
			"0.011": 12.9024855592,
			"0.012": 1.16942852013,
			"0.013": 0.0,
			"0.014": 0.0,
			"0.015": 0.0,
			"0.016": 0.0,
			"0.017": 0.0,
			"0.018": 0.0,
			"0.019": 0.0,
			"0.02": 0.0,
			"0.021": 0.0,
			"0.022": 0.0,
			"0.023": 0.0,
			"0.024": 0.0,
			"0.025": 0.0
		}
	}
}
