{
	 "smiles": "CC1=C(C)C2=C(N1)C=CC(=C2)C(N)=O", 
	 "Tm": 443.15, 
	 "num_atms": 26, 
	 "gaussian": { 
		 "optdone": 1, 
		 "sigma_profile": "yes", 
		 "theory": "DFT", 
		 "functional": "B3LYP", 
		 "basiset": "6-31G**", 
		 "properties": { 
			 "R2extent": 3439.7525, 
			 "electric_dipole_moment_norm": 5.38699804065, 
			 "electric_quadrupole_moment_norm": 20.4744833398, 
			 "total_energy": -611.171598212, 
			 "HOMO_LUMO_gap": 0.18021, 
			 "cosmo_polarized_energy": -17.86, 
			 "cosmo_cavitation_energy": 29.54, 
			 "cosmo_dispersion_energy": -21.67, 
			 "cosmo_repulsion_energy": 1.71, 
			 "cosmo_total_nonelectrostatic_energy": 9.58, 
			 "SMD_solvation_energy": 5.53 
		},
		"coords": [
			{
				"x": 3.5663546594,
				"y": -1.7897733233,
				"z": 2.4580383852,
				"element": "C" 
			},
			{
				"x": 2.4186822993,
				"y": -1.1036723775,
				"z": 1.7903273739,
				"element": "C" 
			},
			{
				"x": 2.3836044686,
				"y": -0.19982923,
				"z": 0.7526119089,
				"element": "C" 
			},
			{
				"x": 3.5390371555,
				"y": 0.3630701844,
				"z": -0.0188983154,
				"element": "C" 
			},
			{
				"x": 0.9934206108,
				"y": 0.1200479255,
				"z": 0.5278867014,
				"element": "C" 
			},
			{
				"x": 0.2274432184,
				"y": -0.6215015114,
				"z": 1.4685833313,
				"element": "C" 
			},
			{
				"x": 1.1163453027,
				"y": -1.3572313091,
				"z": 2.2164608487,
				"element": "N" 
			},
			{
				"x": -1.1671557525,
				"y": -0.5268711119,
				"z": 1.534537917,
				"element": "C" 
			},
			{
				"x": -1.7971530403,
				"y": 0.3211561404,
				"z": 0.6362529947,
				"element": "C" 
			},
			{
				"x": -1.0654747253,
				"y": 1.0580033708,
				"z": -0.3241453237,
				"element": "C" 
			},
			{
				"x": 0.3286729007,
				"y": 0.964081383,
				"z": -0.3717605794,
				"element": "C" 
			},
			{
				"x": -1.8542360015,
				"y": 1.9377302411,
				"z": -1.2442877854,
				"element": "C" 
			},
			{
				"x": -1.202012083,
				"y": 2.3838387725,
				"z": -2.3762501614,
				"element": "N" 
			},
			{
				"x": -3.0108841894,
				"y": 2.2695823106,
				"z": -1.0070682968,
				"element": "O" 
			},
			{
				"x": 4.5139517818,
				"y": -1.4806830482,
				"z": 2.0133573052,
				"element": "H" 
			},
			{
				"x": 3.6106218592,
				"y": -1.554776921,
				"z": 3.5291082424,
				"element": "H" 
			},
			{
				"x": 3.4959032348,
				"y": -2.8809383431,
				"z": 2.3645808061,
				"element": "H" 
			},
			{
				"x": 3.4656166419,
				"y": 0.1236947308,
				"z": -1.0872588757,
				"element": "H" 
			},
			{
				"x": 4.496722447,
				"y": -0.0269586634,
				"z": 0.3363726897,
				"element": "H" 
			},
			{
				"x": 3.581531052,
				"y": 1.4564075595,
				"z": 0.0614343644,
				"element": "H" 
			},
			{
				"x": 0.8710361258,
				"y": -1.9686878224,
				"z": 2.9783125757,
				"element": "H" 
			},
			{
				"x": -1.7389157736,
				"y": -1.0925425602,
				"z": 2.2649570121,
				"element": "H" 
			},
			{
				"x": -2.8743238917,
				"y": 0.4441212338,
				"z": 0.6482335174,
				"element": "H" 
			},
			{
				"x": 0.9016333931,
				"y": 1.5663574179,
				"z": -1.0711646594,
				"element": "H" 
			},
			{
				"x": -0.4425555786,
				"y": 1.8420437676,
				"z": -2.7587524631,
				"element": "H" 
			},
			{
				"x": -1.7961661151,
				"y": 2.8565311835,
				"z": -3.0424695139,
				"element": "H" 
			}
		],
		 "valence_orbital": [ 
			{
				"type": "occ",
				"energy": -0.27074,
				"method": "rhf"
			},
			{
				"type": "occ",
				"energy": -0.2595,
				"method": "rhf"
			},
			{
				"type": "occ",
				"energy": -0.23673,
				"method": "rhf"
			},
			{
				"type": "occ",
				"energy": -0.21808,
				"method": "rhf"
			},
			{
				"type": "occ",
				"energy": -0.19993,
				"method": "rhf"
			},
			{
				"type": "unocc",
				"energy": -0.01972,
				"method": "rhf"
			},
			{
				"type": "unocc",
				"energy": 0.00032,
				"method": "rhf"
			},
			{
				"type": "unocc",
				"energy": 0.06552,
				"method": "rhf"
			},
			{
				"type": "unocc",
				"energy": 0.07516,
				"method": "rhf"
			},
			{
				"type": "unocc",
				"energy": 0.07793,
				"method": "rhf"
			}
		],
		"cosmo_sigma_profile": { 
			"-0.025": 0.0,
			"-0.024": 0.0,
			"-0.023": 0.0,
			"-0.022": 0.0,
			"-0.021": 0.0,
			"-0.02": 0.0,
			"-0.019": 0.0,
			"-0.018": 0.0,
			"-0.017": 0.0,
			"-0.016": 0.0566865683689,
			"-0.015": 1.16230266204,
			"-0.014": 1.63649720085,
			"-0.013": 3.21282241264,
			"-0.012": 3.13727600606,
			"-0.011": 3.66363750298,
			"-0.01": 3.82316227908,
			"-0.009": 4.42960643105,
			"-0.008": 3.18378840751,
			"-0.007": 4.26606060857,
			"-0.006": 5.96190077052,
			"-0.005": 11.1257933053,
			"-0.004": 13.3644788298,
			"-0.003": 17.0862791541,
			"-0.002": 17.5271116909,
			"-0.001": 19.3425107949,
			"0.0": 18.0277634884,
			"0.001": 13.6793717729,
			"0.002": 12.4871580518,
			"0.003": 9.72205688227,
			"0.004": 14.7242276343,
			"0.005": 17.9231151289,
			"0.006": 12.4631651651,
			"0.007": 2.2729679216,
			"0.008": 2.19069323713,
			"0.009": 2.34118807793,
			"0.01": 2.05307179693,
			"0.011": 1.34250464802,
			"0.012": 1.65850437407,
			"0.013": 2.84688609668,
			"0.014": 5.93403961837,
			"0.015": 1.41438237485,
			"0.016": 0.0,
			"0.017": 0.0,
			"0.018": 0.0,
			"0.019": 0.0,
			"0.02": 0.0,
			"0.021": 0.0,
			"0.022": 0.0,
			"0.023": 0.0,
			"0.024": 0.0,
			"0.025": 0.0
		}
	}
}
