{
	 "smiles": "OC(CC1=CC=CC=C1)C(CC1=CC=CC=C1)=NNC1=CC=C(Br)C=C1", 
	 "Tm": 412.15, 
	 "num_atms": 47, 
	 "gaussian": { 
		 "optdone": 1, 
		 "sigma_profile": "yes", 
		 "theory": "DFT", 
		 "functional": "B3LYP", 
		 "basiset": "6-31G**", 
		 "properties": { 
			 "R2extent": 20697.1099, 
			 "electric_dipole_moment_norm": 4.08255085333, 
			 "electric_quadrupole_moment_norm": 27.8644452873, 
			 "total_energy": -3607.09841979, 
			 "HOMO_LUMO_gap": 0.17422, 
			 "cosmo_polarized_energy": -15.24, 
			 "cosmo_cavitation_energy": 53.4, 
			 "cosmo_dispersion_energy": -36.73, 
			 "cosmo_repulsion_energy": 2.8, 
			 "cosmo_total_nonelectrostatic_energy": 19.47, 
			 "SMD_solvation_energy": 6.7 
		},
		"coords": [
			{
				"x": -1.7470559425,
				"y": 1.8214341807,
				"z": 0.3621808346,
				"element": "O" 
			},
			{
				"x": -0.4425489753,
				"y": 1.4883316237,
				"z": -0.1226439382,
				"element": "C" 
			},
			{
				"x": 0.5310553288,
				"y": 2.6762769173,
				"z": 0.0091703285,
				"element": "C" 
			},
			{
				"x": 0.0471354016,
				"y": 3.884757418,
				"z": -0.7620547,
				"element": "C" 
			},
			{
				"x": -0.8098461293,
				"y": 4.823659419,
				"z": -0.1658126006,
				"element": "C" 
			},
			{
				"x": -1.2937151168,
				"y": 5.9160426027,
				"z": -0.8902280115,
				"element": "C" 
			},
			{
				"x": -0.928439858,
				"y": 6.0879966233,
				"z": -2.2258657305,
				"element": "C" 
			},
			{
				"x": -0.0757361096,
				"y": 5.1619903712,
				"z": -2.8316344752,
				"element": "C" 
			},
			{
				"x": 0.4044261665,
				"y": 4.0716822683,
				"z": -2.1060369589,
				"element": "C" 
			},
			{
				"x": -0.0032964431,
				"y": 0.2393891493,
				"z": 0.6248137686,
				"element": "C" 
			},
			{
				"x": -1.0429121245,
				"y": -0.8658949505,
				"z": 0.748629149,
				"element": "C" 
			},
			{
				"x": -1.3139236841,
				"y": -1.5708567138,
				"z": -0.5719461363,
				"element": "C" 
			},
			{
				"x": -0.5092111091,
				"y": -2.6350206959,
				"z": -1.0011971468,
				"element": "C" 
			},
			{
				"x": -0.7531008383,
				"y": -3.2680850275,
				"z": -2.2203614251,
				"element": "C" 
			},
			{
				"x": -1.8061411982,
				"y": -2.8424628906,
				"z": -3.0326648657,
				"element": "C" 
			},
			{
				"x": -2.6107118353,
				"y": -1.780082006,
				"z": -2.6173473194,
				"element": "C" 
			},
			{
				"x": -2.3659414689,
				"y": -1.1493058744,
				"z": -1.3963572698,
				"element": "C" 
			},
			{
				"x": 1.2116778236,
				"y": 0.2061127888,
				"z": 1.0440117326,
				"element": "N" 
			},
			{
				"x": 1.7175373204,
				"y": -0.8949139578,
				"z": 1.6413905632,
				"element": "N" 
			},
			{
				"x": 2.9915103229,
				"y": -0.8810303255,
				"z": 2.2044790265,
				"element": "C" 
			},
			{
				"x": 3.4456188838,
				"y": -2.0251986172,
				"z": 2.8815445503,
				"element": "C" 
			},
			{
				"x": 4.7184744168,
				"y": -2.0583969862,
				"z": 3.4436182631,
				"element": "C" 
			},
			{
				"x": 5.5487498839,
				"y": -0.9446603927,
				"z": 3.332313723,
				"element": "C" 
			},
			{
				"x": 7.2997060913,
				"y": -0.9856998129,
				"z": 4.1035786666,
				"element": "Br" 
			},
			{
				"x": 5.1114669199,
				"y": 0.1983211589,
				"z": 2.6644106746,
				"element": "C" 
			},
			{
				"x": 3.8382982154,
				"y": 0.2344487209,
				"z": 2.1021320714,
				"element": "C" 
			},
			{
				"x": -2.0519723366,
				"y": 2.5847014674,
				"z": -0.1484827652,
				"element": "H" 
			},
			{
				"x": -0.5161936465,
				"y": 1.2229529895,
				"z": -1.1920655105,
				"element": "H" 
			},
			{
				"x": 0.6383494498,
				"y": 2.9133228336,
				"z": 1.0721669949,
				"element": "H" 
			},
			{
				"x": 1.5135196426,
				"y": 2.3602635262,
				"z": -0.3513927757,
				"element": "H" 
			},
			{
				"x": -1.0856401985,
				"y": 4.7024249768,
				"z": 0.878802861,
				"element": "H" 
			},
			{
				"x": -1.9501466192,
				"y": 6.6348993747,
				"z": -0.4077150669,
				"element": "H" 
			},
			{
				"x": -1.299836351,
				"y": 6.9390640457,
				"z": -2.789319132,
				"element": "H" 
			},
			{
				"x": 0.2187303807,
				"y": 5.291388218,
				"z": -3.8694095901,
				"element": "H" 
			},
			{
				"x": 1.0714759155,
				"y": 3.3578116222,
				"z": -2.5836611964,
				"element": "H" 
			},
			{
				"x": -0.7511590285,
				"y": -1.6006160469,
				"z": 1.5072140722,
				"element": "H" 
			},
			{
				"x": -1.9634345112,
				"y": -0.398934467,
				"z": 1.1072164687,
				"element": "H" 
			},
			{
				"x": 0.3150731694,
				"y": -2.9728976792,
				"z": -0.3774143073,
				"element": "H" 
			},
			{
				"x": -0.1217635936,
				"y": -4.0944724563,
				"z": -2.5346248059,
				"element": "H" 
			},
			{
				"x": -1.9985245873,
				"y": -3.3363350294,
				"z": -3.980723896,
				"element": "H" 
			},
			{
				"x": -3.4332342961,
				"y": -1.4432875881,
				"z": -3.2422648707,
				"element": "H" 
			},
			{
				"x": -2.9876939898,
				"y": -0.3186559826,
				"z": -1.0738648213,
				"element": "H" 
			},
			{
				"x": 1.1240634844,
				"y": -1.6927832935,
				"z": 1.8360009955,
				"element": "H" 
			},
			{
				"x": 2.8001742826,
				"y": -2.8960460804,
				"z": 2.9687997059,
				"element": "H" 
			},
			{
				"x": 5.0602391573,
				"y": -2.9454030541,
				"z": 3.9648830047,
				"element": "H" 
			},
			{
				"x": 5.7621528065,
				"y": 1.0619777107,
				"z": 2.5834954256,
				"element": "H" 
			},
			{
				"x": 3.4884449277,
				"y": 1.1183899215,
				"z": 1.5844364356,
				"element": "H" 
			}
		],
		 "valence_orbital": [ 
			{
				"type": "occ",
				"energy": -0.25523,
				"method": "rhf"
			},
			{
				"type": "occ",
				"energy": -0.25307,
				"method": "rhf"
			},
			{
				"type": "occ",
				"energy": -0.24782,
				"method": "rhf"
			},
			{
				"type": "occ",
				"energy": -0.24158,
				"method": "rhf"
			},
			{
				"type": "occ",
				"energy": -0.19559,
				"method": "rhf"
			},
			{
				"type": "unocc",
				"energy": -0.02137,
				"method": "rhf"
			},
			{
				"type": "unocc",
				"energy": -0.00875,
				"method": "rhf"
			},
			{
				"type": "unocc",
				"energy": -0.00745,
				"method": "rhf"
			},
			{
				"type": "unocc",
				"energy": -0.00706,
				"method": "rhf"
			},
			{
				"type": "unocc",
				"energy": -0.00551,
				"method": "rhf"
			}
		],
		"cosmo_sigma_profile": { 
			"-0.025": 0.0,
			"-0.024": 0.0,
			"-0.023": 0.0,
			"-0.022": 0.0,
			"-0.021": 0.0,
			"-0.02": 0.0,
			"-0.019": 0.0,
			"-0.018": 0.0,
			"-0.017": 0.0,
			"-0.016": 0.0,
			"-0.015": 0.0,
			"-0.014": 0.963981129141,
			"-0.013": 1.16129082343,
			"-0.012": 1.56421231048,
			"-0.011": 2.69982346014,
			"-0.01": 3.55908307891,
			"-0.009": 2.2532168144,
			"-0.008": 2.7568393132,
			"-0.007": 5.73768977119,
			"-0.006": 13.9607551575,
			"-0.005": 27.1265232887,
			"-0.004": 34.8832241451,
			"-0.003": 39.308661676,
			"-0.002": 32.5313031849,
			"-0.001": 25.602012315,
			"0.0": 27.4132798608,
			"0.001": 28.409160196,
			"0.002": 30.8465714012,
			"0.003": 39.2294618103,
			"0.004": 43.6042710394,
			"0.005": 37.8039146202,
			"0.006": 18.7328879661,
			"0.007": 3.20908356853,
			"0.008": 1.05176971439,
			"0.009": 0.915541858454,
			"0.01": 0.954519095476,
			"0.011": 0.867324742711,
			"0.012": 0.684883273259,
			"0.013": 0.737904038698,
			"0.014": 0.105475722541,
			"0.015": 0.0,
			"0.016": 0.0,
			"0.017": 0.0,
			"0.018": 0.0,
			"0.019": 0.0,
			"0.02": 0.0,
			"0.021": 0.0,
			"0.022": 0.0,
			"0.023": 0.0,
			"0.024": 0.0,
			"0.025": 0.0
		}
	}
}
