{
	 "smiles": "CC(C)(C)CNC1=CN=CC=C1", 
	 "Tm": 336.15, 
	 "num_atms": 28, 
	 "gaussian": { 
		 "optdone": 1, 
		 "sigma_profile": "yes", 
		 "theory": "DFT", 
		 "functional": "B3LYP", 
		 "basiset": "6-31G**", 
		 "properties": { 
			 "R2extent": 3260.3892, 
			 "electric_dipole_moment_norm": 3.61026500551, 
			 "electric_quadrupole_moment_norm": 12.0973719171, 
			 "total_energy": -500.217491593, 
			 "HOMO_LUMO_gap": 0.1903, 
			 "cosmo_polarized_energy": -9.31, 
			 "cosmo_cavitation_energy": 29.6, 
			 "cosmo_dispersion_energy": -21.12, 
			 "cosmo_repulsion_energy": 1.67, 
			 "cosmo_total_nonelectrostatic_energy": 10.16, 
			 "SMD_solvation_energy": 3.07 
		},
		"coords": [
			{
				"x": -0.7362445459,
				"y": -3.5445629322,
				"z": -1.1125737475,
				"element": "C" 
			},
			{
				"x": -0.7393403925,
				"y": -2.2374518016,
				"z": -0.2965683222,
				"element": "C" 
			},
			{
				"x": -2.1764080799,
				"y": -1.6902976947,
				"z": -0.2071113414,
				"element": "C" 
			},
			{
				"x": -0.2000327962,
				"y": -2.5345556762,
				"z": 1.1179087084,
				"element": "C" 
			},
			{
				"x": 0.1751480207,
				"y": -1.2311796866,
				"z": -1.0347212259,
				"element": "C" 
			},
			{
				"x": 0.2462351779,
				"y": 0.064579589,
				"z": -0.375629784,
				"element": "N" 
			},
			{
				"x": 0.9880826368,
				"y": 1.115585414,
				"z": -0.8998035707,
				"element": "C" 
			},
			{
				"x": 1.4789139538,
				"y": 1.1272987807,
				"z": -2.2224298964,
				"element": "C" 
			},
			{
				"x": 2.1544010676,
				"y": 2.1488191614,
				"z": -2.7576331332,
				"element": "N" 
			},
			{
				"x": 2.3913796033,
				"y": 3.2221454749,
				"z": -1.9978856205,
				"element": "C" 
			},
			{
				"x": 1.9620850737,
				"y": 3.3132920225,
				"z": -0.6707611549,
				"element": "C" 
			},
			{
				"x": 1.2553068832,
				"y": 2.2548325536,
				"z": -0.1173143054,
				"element": "C" 
			},
			{
				"x": -1.3786649326,
				"y": -4.2959767834,
				"z": -0.6414878848,
				"element": "H" 
			},
			{
				"x": 0.2720335756,
				"y": -3.9671706765,
				"z": -1.1880440634,
				"element": "H" 
			},
			{
				"x": -1.1085514249,
				"y": -3.3781132284,
				"z": -2.1295534825,
				"element": "H" 
			},
			{
				"x": -2.2109708461,
				"y": -0.7401293746,
				"z": 0.3335017832,
				"element": "H" 
			},
			{
				"x": -2.8297816747,
				"y": -2.401811622,
				"z": 0.3096647323,
				"element": "H" 
			},
			{
				"x": -2.592378878,
				"y": -1.5171788704,
				"z": -1.2057990178,
				"element": "H" 
			},
			{
				"x": -0.2460401535,
				"y": -1.6605728988,
				"z": 1.7785744687,
				"element": "H" 
			},
			{
				"x": 0.8397240349,
				"y": -2.8790906128,
				"z": 1.0843305445,
				"element": "H" 
			},
			{
				"x": -0.7964772273,
				"y": -3.3185212518,
				"z": 1.5964780224,
				"element": "H" 
			},
			{
				"x": 1.1768261333,
				"y": -1.6799867035,
				"z": -1.1581854721,
				"element": "H" 
			},
			{
				"x": -0.2282366245,
				"y": -1.0803624663,
				"z": -2.0434629913,
				"element": "H" 
			},
			{
				"x": 0.2711645966,
				"y": 0.0173043989,
				"z": 0.6335917023,
				"element": "H" 
			},
			{
				"x": 1.3182338276,
				"y": 0.2730322505,
				"z": -2.8748127076,
				"element": "H" 
			},
			{
				"x": 2.94590392,
				"y": 4.0352303517,
				"z": -2.4617171717,
				"element": "H" 
			},
			{
				"x": 2.1781620465,
				"y": 4.2003047358,
				"z": -0.0824572439,
				"element": "H" 
			},
			{
				"x": 0.9013270243,
				"y": 2.2994375468,
				"z": 0.9105021755,
				"element": "H" 
			}
		],
		 "valence_orbital": [ 
			{
				"type": "occ",
				"energy": -0.33071,
				"method": "rhf"
			},
			{
				"type": "occ",
				"energy": -0.30569,
				"method": "rhf"
			},
			{
				"type": "occ",
				"energy": -0.26534,
				"method": "rhf"
			},
			{
				"type": "occ",
				"energy": -0.23981,
				"method": "rhf"
			},
			{
				"type": "occ",
				"energy": -0.20137,
				"method": "rhf"
			},
			{
				"type": "unocc",
				"energy": -0.01107,
				"method": "rhf"
			},
			{
				"type": "unocc",
				"energy": 0.01446,
				"method": "rhf"
			},
			{
				"type": "unocc",
				"energy": 0.06447,
				"method": "rhf"
			},
			{
				"type": "unocc",
				"energy": 0.08447,
				"method": "rhf"
			},
			{
				"type": "unocc",
				"energy": 0.10891,
				"method": "rhf"
			}
		],
		"cosmo_sigma_profile": { 
			"-0.025": 0.0,
			"-0.024": 0.0,
			"-0.023": 0.0,
			"-0.022": 0.0,
			"-0.021": 0.0,
			"-0.02": 0.0,
			"-0.019": 0.0,
			"-0.018": 0.0,
			"-0.017": 0.0,
			"-0.016": 0.0,
			"-0.015": 0.0,
			"-0.014": 0.0,
			"-0.013": 0.0,
			"-0.012": 0.572256529004,
			"-0.011": 0.980043993574,
			"-0.01": 1.59666071812,
			"-0.009": 1.57192023011,
			"-0.008": 1.55840920555,
			"-0.007": 2.76119044159,
			"-0.006": 5.73991214598,
			"-0.005": 9.70703380683,
			"-0.004": 11.0811883511,
			"-0.003": 22.9436315046,
			"-0.002": 36.1892948117,
			"-0.001": 23.3589343744,
			"0.0": 22.0280828048,
			"0.001": 24.9235042815,
			"0.002": 16.7754058433,
			"0.003": 9.46796794473,
			"0.004": 13.4226585057,
			"0.005": 6.76404670175,
			"0.006": 3.62637197864,
			"0.007": 3.2364181928,
			"0.008": 2.02655275802,
			"0.009": 2.5452896253,
			"0.01": 1.25575437998,
			"0.011": 1.21655206787,
			"0.012": 1.06596487535,
			"0.013": 1.07850469705,
			"0.014": 0.961857573085,
			"0.015": 0.978232752449,
			"0.016": 0.701047879095,
			"0.017": 1.06252756412,
			"0.018": 0.0952499549591,
			"0.019": 0.0,
			"0.02": 0.0,
			"0.021": 0.0,
			"0.022": 0.0,
			"0.023": 0.0,
			"0.024": 0.0,
			"0.025": 0.0
		}
	}
}
