{
	 "smiles": "CC(=NNC1=CC=CC=C1)C1=CC2=CC=CC=C2C1", 
	 "Tm": 498.15, 
	 "num_atms": 35, 
	 "gaussian": { 
		 "optdone": 1, 
		 "sigma_profile": "yes", 
		 "theory": "DFT", 
		 "functional": "B3LYP", 
		 "basiset": "6-31G**", 
		 "properties": { 
			 "R2extent": 7552.9206, 
			 "electric_dipole_moment_norm": 1.96601518305, 
			 "electric_quadrupole_moment_norm": 9.19199934889, 
			 "total_energy": -766.922456935, 
			 "HOMO_LUMO_gap": 0.12946, 
			 "cosmo_polarized_energy": -10.96, 
			 "cosmo_cavitation_energy": 38.43, 
			 "cosmo_dispersion_energy": -27.77, 
			 "cosmo_repulsion_energy": 2.11, 
			 "cosmo_total_nonelectrostatic_energy": 12.77, 
			 "SMD_solvation_energy": 5.33 
		},
		"coords": [
			{
				"x": 0.4814365852,
				"y": -2.6000903584,
				"z": -2.0159530277,
				"element": "C" 
			},
			{
				"x": 0.1551224793,
				"y": -1.4727016573,
				"z": -1.0589016858,
				"element": "C" 
			},
			{
				"x": -0.6486451903,
				"y": -0.5775232693,
				"z": -1.5584158122,
				"element": "N" 
			},
			{
				"x": -1.0650130196,
				"y": 0.5028985501,
				"z": -0.8813622559,
				"element": "N" 
			},
			{
				"x": -1.9278211367,
				"y": 1.4283882503,
				"z": -1.4732549258,
				"element": "C" 
			},
			{
				"x": -2.394450161,
				"y": 1.2725629637,
				"z": -2.7880776232,
				"element": "C" 
			},
			{
				"x": -3.2535259243,
				"y": 2.2258418061,
				"z": -3.329275272,
				"element": "C" 
			},
			{
				"x": -3.6609146514,
				"y": 3.3373585798,
				"z": -2.5864949297,
				"element": "C" 
			},
			{
				"x": -3.1936387879,
				"y": 3.4872023263,
				"z": -1.2791122429,
				"element": "C" 
			},
			{
				"x": -2.3340755194,
				"y": 2.5436737793,
				"z": -0.722021723,
				"element": "C" 
			},
			{
				"x": 0.7648086218,
				"y": -1.5274364837,
				"z": 0.2677817374,
				"element": "C" 
			},
			{
				"x": 1.6009935949,
				"y": -2.5239913284,
				"z": 0.686997431,
				"element": "C" 
			},
			{
				"x": 2.0419411165,
				"y": -2.2967543494,
				"z": 2.0528978887,
				"element": "C" 
			},
			{
				"x": 2.8886754366,
				"y": -3.037432756,
				"z": 2.885022376,
				"element": "C" 
			},
			{
				"x": 3.1370743403,
				"y": -2.5666044835,
				"z": 4.1757160785,
				"element": "C" 
			},
			{
				"x": 2.5528782688,
				"y": -1.3784845496,
				"z": 4.6315254498,
				"element": "C" 
			},
			{
				"x": 1.7047310156,
				"y": -0.6351345058,
				"z": 3.8001839494,
				"element": "C" 
			},
			{
				"x": 1.4553538377,
				"y": -1.100068144,
				"z": 2.5160809266,
				"element": "C" 
			},
			{
				"x": 0.6008027267,
				"y": -0.525533029,
				"z": 1.411983378,
				"element": "C" 
			},
			{
				"x": -0.0378634721,
				"y": -2.4311934702,
				"z": -2.9597648029,
				"element": "H" 
			},
			{
				"x": 0.1702256375,
				"y": -3.5713673134,
				"z": -1.613186941,
				"element": "H" 
			},
			{
				"x": 1.5583533631,
				"y": -2.659628187,
				"z": -2.2138519067,
				"element": "H" 
			},
			{
				"x": -0.7717073208,
				"y": 0.684392561,
				"z": 0.0684102706,
				"element": "H" 
			},
			{
				"x": -2.0758225716,
				"y": 0.409766752,
				"z": -3.3592129096,
				"element": "H" 
			},
			{
				"x": -3.6090365422,
				"y": 2.096003847,
				"z": -4.3479323609,
				"element": "H" 
			},
			{
				"x": -4.3308339328,
				"y": 4.0738459472,
				"z": -3.0190213671,
				"element": "H" 
			},
			{
				"x": -3.4983968923,
				"y": 4.3441574587,
				"z": -0.684846128,
				"element": "H" 
			},
			{
				"x": -1.9749615818,
				"y": 2.6685102428,
				"z": 0.297415013,
				"element": "H" 
			},
			{
				"x": 1.9051089308,
				"y": -3.3771449118,
				"z": 0.0930626036,
				"element": "H" 
			},
			{
				"x": 3.3443682311,
				"y": -3.959944528,
				"z": 2.5359665681,
				"element": "H" 
			},
			{
				"x": 3.7918591296,
				"y": -3.1283554957,
				"z": 4.8358949454,
				"element": "H" 
			},
			{
				"x": 2.7592469532,
				"y": -1.0298427063,
				"z": 5.6391975514,
				"element": "H" 
			},
			{
				"x": 1.2546664154,
				"y": 0.2864774141,
				"z": 4.1607938996,
				"element": "H" 
			},
			{
				"x": 0.9462504417,
				"y": 0.47970245,
				"z": 1.130012118,
				"element": "H" 
			},
			{
				"x": -0.4474904218,
				"y": -0.4356514019,
				"z": 1.7318437293,
				"element": "H" 
			}
		],
		 "valence_orbital": [ 
			{
				"type": "occ",
				"energy": -0.271,
				"method": "rhf"
			},
			{
				"type": "occ",
				"energy": -0.24941,
				"method": "rhf"
			},
			{
				"type": "occ",
				"energy": -0.24446,
				"method": "rhf"
			},
			{
				"type": "occ",
				"energy": -0.22795,
				"method": "rhf"
			},
			{
				"type": "occ",
				"energy": -0.1823,
				"method": "rhf"
			},
			{
				"type": "unocc",
				"energy": -0.05284,
				"method": "rhf"
			},
			{
				"type": "unocc",
				"energy": -0.00565,
				"method": "rhf"
			},
			{
				"type": "unocc",
				"energy": 0.00543,
				"method": "rhf"
			},
			{
				"type": "unocc",
				"energy": 0.0142,
				"method": "rhf"
			},
			{
				"type": "unocc",
				"energy": 0.03539,
				"method": "rhf"
			}
		],
		"cosmo_sigma_profile": { 
			"-0.025": 0.0,
			"-0.024": 0.0,
			"-0.023": 0.0,
			"-0.022": 0.0,
			"-0.021": 0.0,
			"-0.02": 0.0,
			"-0.019": 0.0,
			"-0.018": 0.0,
			"-0.017": 0.0,
			"-0.016": 0.0,
			"-0.015": 0.0,
			"-0.014": 0.0,
			"-0.013": 0.144582890228,
			"-0.012": 1.70963341349,
			"-0.011": 1.53588262098,
			"-0.01": 1.54875571859,
			"-0.009": 2.26461066353,
			"-0.008": 2.54369724754,
			"-0.007": 3.88046477702,
			"-0.006": 9.56800213428,
			"-0.005": 20.9428985481,
			"-0.004": 28.433935399,
			"-0.003": 29.8267494878,
			"-0.002": 22.8108947425,
			"-0.001": 20.3286979893,
			"0.0": 19.2804428048,
			"0.001": 20.4864342744,
			"0.002": 20.0920931406,
			"0.003": 20.122769977,
			"0.004": 26.95149921,
			"0.005": 22.1287677403,
			"0.006": 19.6626175078,
			"0.007": 8.76854834451,
			"0.008": 2.00871104026,
			"0.009": 1.47993273806,
			"0.01": 0.456194836921,
			"0.011": 0.0,
			"0.012": 0.0,
			"0.013": 0.0,
			"0.014": 0.0,
			"0.015": 0.0,
			"0.016": 0.0,
			"0.017": 0.0,
			"0.018": 0.0,
			"0.019": 0.0,
			"0.02": 0.0,
			"0.021": 0.0,
			"0.022": 0.0,
			"0.023": 0.0,
			"0.024": 0.0,
			"0.025": 0.0
		}
	}
}
