{
	 "smiles": "CC1=NC=C(C(N)=N1)S(=O)(=O)C(C)(C)C", 
	 "Tm": 437.15, 
	 "num_atms": 30, 
	 "gaussian": { 
		 "optdone": 1, 
		 "sigma_profile": "yes", 
		 "theory": "DFT", 
		 "functional": "B3LYP", 
		 "basiset": "6-31G**", 
		 "properties": { 
			 "R2extent": 3730.6589, 
			 "electric_dipole_moment_norm": 3.9393477455, 
			 "electric_quadrupole_moment_norm": 13.8247808927, 
			 "total_energy": -1064.86133997, 
			 "HOMO_LUMO_gap": 0.20377, 
			 "cosmo_polarized_energy": -14.99, 
			 "cosmo_cavitation_energy": 32.71, 
			 "cosmo_dispersion_energy": -23.69, 
			 "cosmo_repulsion_energy": 1.79, 
			 "cosmo_total_nonelectrostatic_energy": 10.82, 
			 "SMD_solvation_energy": 2.19 
		},
		"coords": [
			{
				"x": 1.8227560597,
				"y": 2.689045649,
				"z": 2.4742535759,
				"element": "C" 
			},
			{
				"x": 1.0047602663,
				"y": 1.8902666798,
				"z": 1.4975700841,
				"element": "C" 
			},
			{
				"x": -0.3191877769,
				"y": 1.8121115481,
				"z": 1.7477024833,
				"element": "N" 
			},
			{
				"x": -1.0242584479,
				"y": 1.0798852383,
				"z": 0.8849829643,
				"element": "C" 
			},
			{
				"x": -0.4591940792,
				"y": 0.4145673319,
				"z": -0.2022138647,
				"element": "C" 
			},
			{
				"x": 0.9326415795,
				"y": 0.6124587024,
				"z": -0.4177641005,
				"element": "C" 
			},
			{
				"x": 1.6126118664,
				"y": 0.092075742,
				"z": -1.4633022133,
				"element": "N" 
			},
			{
				"x": 1.6458997109,
				"y": 1.3466622305,
				"z": 0.463252795,
				"element": "N" 
			},
			{
				"x": -1.5212269665,
				"y": -0.5324158009,
				"z": -1.2880105708,
				"element": "S" 
			},
			{
				"x": -0.8522001065,
				"y": -0.5899067689,
				"z": -2.6127142908,
				"element": "O" 
			},
			{
				"x": -2.8802352443,
				"y": 0.0266501911,
				"z": -1.176172868,
				"element": "O" 
			},
			{
				"x": -1.5858115169,
				"y": -2.2817329689,
				"z": -0.6300759269,
				"element": "C" 
			},
			{
				"x": -0.1670726783,
				"y": -2.8609818298,
				"z": -0.6123879938,
				"element": "C" 
			},
			{
				"x": -2.4844780052,
				"y": -3.0371137932,
				"z": -1.6235006112,
				"element": "C" 
			},
			{
				"x": -2.2094343476,
				"y": -2.2550235404,
				"z": 0.769882837,
				"element": "C" 
			},
			{
				"x": 1.4969136712,
				"y": 3.7345847681,
				"z": 2.4631873418,
				"element": "H" 
			},
			{
				"x": 2.8824734584,
				"y": 2.6363986485,
				"z": 2.2239180372,
				"element": "H" 
			},
			{
				"x": 1.6594637611,
				"y": 2.3176549553,
				"z": 3.4905672221,
				"element": "H" 
			},
			{
				"x": -2.0981349759,
				"y": 1.0183998939,
				"z": 1.0465453149,
				"element": "H" 
			},
			{
				"x": 2.5609830795,
				"y": 0.416755373,
				"z": -1.5775762181,
				"element": "H" 
			},
			{
				"x": 1.0832628219,
				"y": -0.2368084407,
				"z": -2.2624966186,
				"element": "H" 
			},
			{
				"x": 0.4911288857,
				"y": -2.3141234259,
				"z": 0.0686690196,
				"element": "H" 
			},
			{
				"x": 0.2784295159,
				"y": -2.8552504246,
				"z": -1.6096229627,
				"element": "H" 
			},
			{
				"x": -0.2158353929,
				"y": -3.8987930134,
				"z": -0.2658724908,
				"element": "H" 
			},
			{
				"x": -2.5659950618,
				"y": -4.0797403794,
				"z": -1.2989830346,
				"element": "H" 
			},
			{
				"x": -3.48742334,
				"y": -2.6047516296,
				"z": -1.6561028649,
				"element": "H" 
			},
			{
				"x": -2.0625066644,
				"y": -3.019594519,
				"z": -2.6312334803,
				"element": "H" 
			},
			{
				"x": -3.2005339359,
				"y": -1.7958183122,
				"z": 0.7526951359,
				"element": "H" 
			},
			{
				"x": -2.3134240273,
				"y": -3.2844972222,
				"z": 1.1286610594,
				"element": "H" 
			},
			{
				"x": -1.5822721091,
				"y": -1.7166648826,
				"z": 1.4863422393,
				"element": "H" 
			}
		],
		 "valence_orbital": [ 
			{
				"type": "occ",
				"energy": -0.30149,
				"method": "rhf"
			},
			{
				"type": "occ",
				"energy": -0.29892,
				"method": "rhf"
			},
			{
				"type": "occ",
				"energy": -0.27658,
				"method": "rhf"
			},
			{
				"type": "occ",
				"energy": -0.25621,
				"method": "rhf"
			},
			{
				"type": "occ",
				"energy": -0.24905,
				"method": "rhf"
			},
			{
				"type": "unocc",
				"energy": -0.04528,
				"method": "rhf"
			},
			{
				"type": "unocc",
				"energy": -0.02403,
				"method": "rhf"
			},
			{
				"type": "unocc",
				"energy": 0.05209,
				"method": "rhf"
			},
			{
				"type": "unocc",
				"energy": 0.06204,
				"method": "rhf"
			},
			{
				"type": "unocc",
				"energy": 0.07744,
				"method": "rhf"
			}
		],
		"cosmo_sigma_profile": { 
			"-0.025": 0.0,
			"-0.024": 0.0,
			"-0.023": 0.0,
			"-0.022": 0.0,
			"-0.021": 0.0,
			"-0.02": 0.0,
			"-0.019": 0.0,
			"-0.018": 0.0,
			"-0.017": 0.0,
			"-0.016": 0.0,
			"-0.015": 0.0953555553684,
			"-0.014": 0.958666144859,
			"-0.013": 1.25421376299,
			"-0.012": 0.717954624842,
			"-0.011": 1.55361200428,
			"-0.01": 1.69296214596,
			"-0.009": 1.70031221079,
			"-0.008": 1.96344206638,
			"-0.007": 1.66633002324,
			"-0.006": 5.93896263941,
			"-0.005": 17.7682192064,
			"-0.004": 24.4961449697,
			"-0.003": 27.2681135213,
			"-0.002": 29.8702455397,
			"-0.001": 36.5652078454,
			"0.0": 22.3800300182,
			"0.001": 10.5793021831,
			"0.002": 7.48624014243,
			"0.003": 8.11281981704,
			"0.004": 6.80405225426,
			"0.005": 5.07263836448,
			"0.006": 4.49599045039,
			"0.007": 4.62827442738,
			"0.008": 5.48881237558,
			"0.009": 5.5018950588,
			"0.01": 5.90726517573,
			"0.011": 7.16053657779,
			"0.012": 6.64991981394,
			"0.013": 1.61451401276,
			"0.014": 0.466105362504,
			"0.015": 0.900638759482,
			"0.016": 0.297693449516,
			"0.017": 0.0,
			"0.018": 0.0,
			"0.019": 0.0,
			"0.02": 0.0,
			"0.021": 0.0,
			"0.022": 0.0,
			"0.023": 0.0,
			"0.024": 0.0,
			"0.025": 0.0
		}
	}
}
