{
	 "smiles": "CC(C)=O", 
	 "Tm": 178.65, 
	 "num_atms": 10, 
	 "gaussian": { 
		 "optdone": 1, 
		 "sigma_profile": "yes", 
		 "theory": "DFT", 
		 "functional": "B3LYP", 
		 "basiset": "6-31G**", 
		 "properties": { 
			 "R2extent": 441.3762, 
			 "electric_dipole_moment_norm": 2.82118570108, 
			 "electric_quadrupole_moment_norm": 3.11871884594, 
			 "total_energy": -193.160576643, 
			 "HOMO_LUMO_gap": 0.23297, 
			 "cosmo_polarized_energy": -6.8, 
			 "cosmo_cavitation_energy": 13.38, 
			 "cosmo_dispersion_energy": -9.8, 
			 "cosmo_repulsion_energy": 0.91, 
			 "cosmo_total_nonelectrostatic_energy": 4.49, 
			 "SMD_solvation_energy": 3.64 
		},
		"coords": [
			{
				"x": -0.7918337579,
				"y": -1.9954721954,
				"z": 0.7220816114,
				"element": "C" 
			},
			{
				"x": -0.3332250168,
				"y": -0.9705132039,
				"z": -0.3025580843,
				"element": "C" 
			},
			{
				"x": -1.4205084396,
				"y": -0.1394308504,
				"z": -0.9642698391,
				"element": "C" 
			},
			{
				"x": 0.8416074725,
				"y": -0.8235948519,
				"z": -0.5788208614,
				"element": "O" 
			},
			{
				"x": 0.0710795077,
				"y": -2.5269036787,
				"z": 1.1253234241,
				"element": "H" 
			},
			{
				"x": -1.4847082949,
				"y": -2.7113241407,
				"z": 0.2643513598,
				"element": "H" 
			},
			{
				"x": -1.3366103276,
				"y": -1.504919953,
				"z": 1.5373189803,
				"element": "H" 
			},
			{
				"x": -1.9887327701,
				"y": 0.4181407533,
				"z": -0.2104400446,
				"element": "H" 
			},
			{
				"x": -2.1357047068,
				"y": -0.7879852026,
				"z": -1.4838030525,
				"element": "H" 
			},
			{
				"x": -0.9730636666,
				"y": 0.5564033232,
				"z": -1.6750834936,
				"element": "H" 
			}
		],
		 "valence_orbital": [ 
			{
				"type": "occ",
				"energy": -0.40289,
				"method": "rhf"
			},
			{
				"type": "occ",
				"energy": -0.39229,
				"method": "rhf"
			},
			{
				"type": "occ",
				"energy": -0.3778,
				"method": "rhf"
			},
			{
				"type": "occ",
				"energy": -0.34628,
				"method": "rhf"
			},
			{
				"type": "occ",
				"energy": -0.24371,
				"method": "rhf"
			},
			{
				"type": "unocc",
				"energy": -0.01074,
				"method": "rhf"
			},
			{
				"type": "unocc",
				"energy": 0.0883,
				"method": "rhf"
			},
			{
				"type": "unocc",
				"energy": 0.13791,
				"method": "rhf"
			},
			{
				"type": "unocc",
				"energy": 0.14881,
				"method": "rhf"
			},
			{
				"type": "unocc",
				"energy": 0.16082,
				"method": "rhf"
			}
		],
		"cosmo_sigma_profile": { 
			"-0.025": 0.0,
			"-0.024": 0.0,
			"-0.023": 0.0,
			"-0.022": 0.0,
			"-0.021": 0.0,
			"-0.02": 0.0,
			"-0.019": 0.0,
			"-0.018": 0.0,
			"-0.017": 0.0,
			"-0.016": 0.0,
			"-0.015": 0.0,
			"-0.014": 0.0,
			"-0.013": 0.0,
			"-0.012": 0.0,
			"-0.011": 0.0,
			"-0.01": 0.0,
			"-0.009": 0.0,
			"-0.008": 0.0,
			"-0.007": 0.42003745151,
			"-0.006": 9.51451649662,
			"-0.005": 10.6560236823,
			"-0.004": 10.7988169775,
			"-0.003": 11.476764389,
			"-0.002": 11.8522244435,
			"-0.001": 13.3061114318,
			"0.0": 8.67330902851,
			"0.001": 2.13493534086,
			"0.002": 1.93249985178,
			"0.003": 1.60513152097,
			"0.004": 1.67142446488,
			"0.005": 1.12753705355,
			"0.006": 1.80673238433,
			"0.007": 1.8407072335,
			"0.008": 1.1866116383,
			"0.009": 1.38429552365,
			"0.01": 2.42194827469,
			"0.011": 2.62271717362,
			"0.012": 4.73831049329,
			"0.013": 3.12505134142,
			"0.014": 0.574493666351,
			"0.015": 0.0,
			"0.016": 0.0,
			"0.017": 0.0,
			"0.018": 0.0,
			"0.019": 0.0,
			"0.02": 0.0,
			"0.021": 0.0,
			"0.022": 0.0,
			"0.023": 0.0,
			"0.024": 0.0,
			"0.025": 0.0
		}
	}
}
