{
	 "smiles": "OC(=O)C1=CC(=C(F)C=C1)S(=O)(=O)N1CCCCC1", 
	 "Tm": 477.15, 
	 "num_atms": 33, 
	 "gaussian": { 
		 "optdone": 1, 
		 "sigma_profile": "yes", 
		 "theory": "DFT", 
		 "functional": "B3LYP", 
		 "basiset": "6-31G**", 
		 "properties": { 
			 "R2extent": 6924.8776, 
			 "electric_dipole_moment_norm": 4.12119162015, 
			 "electric_quadrupole_moment_norm": 12.4792631505, 
			 "total_energy": -1319.32876513, 
			 "HOMO_LUMO_gap": 0.18161, 
			 "cosmo_polarized_energy": -16.5, 
			 "cosmo_cavitation_energy": 37.22, 
			 "cosmo_dispersion_energy": -26.83, 
			 "cosmo_repulsion_energy": 2.01, 
			 "cosmo_total_nonelectrostatic_energy": 12.4, 
			 "SMD_solvation_energy": 6.21 
		},
		"coords": [
			{
				"x": 3.4791955171,
				"y": 1.5347001955,
				"z": -4.3808046277,
				"element": "O" 
			},
			{
				"x": 2.4552895726,
				"y": 2.4141447559,
				"z": -4.2795385882,
				"element": "C" 
			},
			{
				"x": 2.4253246966,
				"y": 3.4569233906,
				"z": -4.9023790354,
				"element": "O" 
			},
			{
				"x": 1.3963487602,
				"y": 1.964880519,
				"z": -3.3366915171,
				"element": "C" 
			},
			{
				"x": 1.4817482244,
				"y": 0.75006188,
				"z": -2.6438425693,
				"element": "C" 
			},
			{
				"x": 0.4641977984,
				"y": 0.3748972937,
				"z": -1.7694093416,
				"element": "C" 
			},
			{
				"x": -0.6334152903,
				"y": 1.2234382996,
				"z": -1.6004260385,
				"element": "C" 
			},
			{
				"x": -1.6139778609,
				"y": 0.876459521,
				"z": -0.7510119142,
				"element": "F" 
			},
			{
				"x": -0.7346836854,
				"y": 2.4319406307,
				"z": -2.2796734328,
				"element": "C" 
			},
			{
				"x": 0.28567777,
				"y": 2.7990421412,
				"z": -3.1514560914,
				"element": "C" 
			},
			{
				"x": 0.5628551962,
				"y": -1.210174501,
				"z": -0.9112558722,
				"element": "S" 
			},
			{
				"x": -0.6438974932,
				"y": -1.9680094241,
				"z": -1.2459728321,
				"element": "O" 
			},
			{
				"x": 1.9011195735,
				"y": -1.728099203,
				"z": -1.2120603434,
				"element": "O" 
			},
			{
				"x": 0.5057257754,
				"y": -0.8169631862,
				"z": 0.6979450107,
				"element": "N" 
			},
			{
				"x": -0.698150194,
				"y": -1.085943556,
				"z": 1.5105425182,
				"element": "C" 
			},
			{
				"x": -0.3000370119,
				"y": -1.8145022148,
				"z": 2.796742108,
				"element": "C" 
			},
			{
				"x": 0.6982034051,
				"y": -0.9859769205,
				"z": 3.6441583966,
				"element": "C" 
			},
			{
				"x": 1.480561362,
				"y": 0.0268617724,
				"z": 2.7809075983,
				"element": "C" 
			},
			{
				"x": 1.7819284361,
				"y": -0.5193193449,
				"z": 1.3834623466,
				"element": "C" 
			},
			{
				"x": 4.1036156941,
				"y": 1.9201679267,
				"z": -5.0170869606,
				"element": "H" 
			},
			{
				"x": 2.3302529456,
				"y": 0.0896631315,
				"z": -2.7754981913,
				"element": "H" 
			},
			{
				"x": -1.6043441296,
				"y": 3.0587663889,
				"z": -2.1164505586,
				"element": "H" 
			},
			{
				"x": 0.2410215858,
				"y": 3.733774841,
				"z": -3.6995383907,
				"element": "H" 
			},
			{
				"x": -1.2086302416,
				"y": -0.1413362598,
				"z": 1.7397181963,
				"element": "H" 
			},
			{
				"x": -1.3787672738,
				"y": -1.691261111,
				"z": 0.9121308104,
				"element": "H" 
			},
			{
				"x": -1.2027711759,
				"y": -2.0429172011,
				"z": 3.3735803411,
				"element": "H" 
			},
			{
				"x": 0.1465307715,
				"y": -2.775588749,
				"z": 2.5182724396,
				"element": "H" 
			},
			{
				"x": 1.3966208426,
				"y": -1.6637283933,
				"z": 4.1473959617,
				"element": "H" 
			},
			{
				"x": 0.1694526726,
				"y": -0.4446322401,
				"z": 4.4363213045,
				"element": "H" 
			},
			{
				"x": 0.907197153,
				"y": 0.9554413262,
				"z": 2.6757168611,
				"element": "H" 
			},
			{
				"x": 2.4250398013,
				"y": 0.2971287846,
				"z": 3.2646259171,
				"element": "H" 
			},
			{
				"x": 2.3402642562,
				"y": 0.2198588787,
				"z": 0.7995887117,
				"element": "H" 
			},
			{
				"x": 2.4048025463,
				"y": -1.4203993725,
				"z": 1.4457877833,
				"element": "H" 
			}
		],
		 "valence_orbital": [ 
			{
				"type": "occ",
				"energy": -0.30253,
				"method": "rhf"
			},
			{
				"type": "occ",
				"energy": -0.28848,
				"method": "rhf"
			},
			{
				"type": "occ",
				"energy": -0.28475,
				"method": "rhf"
			},
			{
				"type": "occ",
				"energy": -0.27401,
				"method": "rhf"
			},
			{
				"type": "occ",
				"energy": -0.24391,
				"method": "rhf"
			},
			{
				"type": "unocc",
				"energy": -0.0623,
				"method": "rhf"
			},
			{
				"type": "unocc",
				"energy": -0.0422,
				"method": "rhf"
			},
			{
				"type": "unocc",
				"energy": 0.03456,
				"method": "rhf"
			},
			{
				"type": "unocc",
				"energy": 0.04895,
				"method": "rhf"
			},
			{
				"type": "unocc",
				"energy": 0.06713,
				"method": "rhf"
			}
		],
		"cosmo_sigma_profile": { 
			"-0.025": 0.0,
			"-0.024": 0.0,
			"-0.023": 0.0,
			"-0.022": 0.0,
			"-0.021": 0.0,
			"-0.02": 0.0,
			"-0.019": 0.13929530694,
			"-0.018": 1.11308476725,
			"-0.017": 0.849966177763,
			"-0.016": 0.744316365758,
			"-0.015": 0.621275042731,
			"-0.014": 0.989376938295,
			"-0.013": 0.445293437295,
			"-0.012": 1.20815657564,
			"-0.011": 0.807780498888,
			"-0.01": 0.390119900919,
			"-0.009": 1.72717088755,
			"-0.008": 3.27913191248,
			"-0.007": 4.55265778649,
			"-0.006": 4.96399530305,
			"-0.005": 5.86063366562,
			"-0.004": 20.1826517979,
			"-0.003": 39.2371361486,
			"-0.002": 45.2448032483,
			"-0.001": 34.9808461556,
			"0.0": 31.0713575247,
			"0.001": 16.1966876183,
			"0.002": 10.2447682379,
			"0.003": 8.87460994267,
			"0.004": 6.25972309973,
			"0.005": 5.78259787499,
			"0.006": 7.07490161041,
			"0.007": 5.38178383127,
			"0.008": 4.8244137822,
			"0.009": 5.66392718785,
			"0.01": 10.1553408842,
			"0.011": 11.6467042072,
			"0.012": 3.79686594947,
			"0.013": 0.0,
			"0.014": 0.0,
			"0.015": 0.0,
			"0.016": 0.0,
			"0.017": 0.0,
			"0.018": 0.0,
			"0.019": 0.0,
			"0.02": 0.0,
			"0.021": 0.0,
			"0.022": 0.0,
			"0.023": 0.0,
			"0.024": 0.0,
			"0.0": 0.0
		}
	}
}
