{
	 "smiles": "OS(=O)(=O)C1=CC=C2C=CC=CC2=C1", 
	 "Tm": 364.15, 
	 "num_atms": 22, 
	 "gaussian": { 
		 "optdone": 1, 
		 "sigma_profile": "yes", 
		 "theory": "DFT", 
		 "functional": "B3LYP", 
		 "basiset": "6-31G**", 
		 "properties": { 
			 "R2extent": 3509.0773, 
			 "electric_dipole_moment_norm": 5.1623826776, 
			 "electric_quadrupole_moment_norm": 10.0870101502, 
			 "total_energy": -1009.68611312, 
			 "HOMO_LUMO_gap": 0.17368, 
			 "cosmo_polarized_energy": -14.38, 
			 "cosmo_cavitation_energy": 27.77, 
			 "cosmo_dispersion_energy": -21.23, 
			 "cosmo_repulsion_energy": 1.59, 
			 "cosmo_total_nonelectrostatic_energy": 8.13, 
			 "SMD_solvation_energy": 3.54 
		},
		"coords": [
			{
				"x": 0.7939491346,
				"y": 2.8022943354,
				"z": 0.879459276,
				"element": "O" 
			},
			{
				"x": -0.5795050873,
				"y": 2.0932863695,
				"z": 0.3098000587,
				"element": "S" 
			},
			{
				"x": -1.5403150699,
				"y": 2.1062717849,
				"z": 1.4141752041,
				"element": "O" 
			},
			{
				"x": -0.8615175932,
				"y": 2.7222056067,
				"z": -0.9714358616,
				"element": "O" 
			},
			{
				"x": -0.0350676524,
				"y": 0.420559235,
				"z": 0.0163860284,
				"element": "C" 
			},
			{
				"x": 0.7599839718,
				"y": 0.1492198439,
				"z": -1.1255794331,
				"element": "C" 
			},
			{
				"x": 1.1822558108,
				"y": -1.1387766885,
				"z": -1.3494124527,
				"element": "C" 
			},
			{
				"x": 0.8284140307,
				"y": -2.1953937934,
				"z": -0.4642905396,
				"element": "C" 
			},
			{
				"x": 1.2507622518,
				"y": -3.5340657337,
				"z": -0.6785132937,
				"element": "C" 
			},
			{
				"x": 0.8846906694,
				"y": -4.5349881576,
				"z": 0.1937266884,
				"element": "C" 
			},
			{
				"x": 0.0773683686,
				"y": -4.2460220614,
				"z": 1.3215135245,
				"element": "C" 
			},
			{
				"x": -0.3497823368,
				"y": -2.9590670135,
				"z": 1.557980064,
				"element": "C" 
			},
			{
				"x": 0.0130664944,
				"y": -1.9037851586,
				"z": 0.6783706368,
				"element": "C" 
			},
			{
				"x": -0.4094240839,
				"y": -0.5665871458,
				"z": 0.898752302,
				"element": "C" 
			},
			{
				"x": 0.6368857186,
				"y": 2.9876301912,
				"z": 1.8203829262,
				"element": "H" 
			},
			{
				"x": 1.0121983711,
				"y": 0.9521264226,
				"z": -1.8089303854,
				"element": "H" 
			},
			{
				"x": 1.7919656263,
				"y": -1.3667929142,
				"z": -2.2193022173,
				"element": "H" 
			},
			{
				"x": 1.8683260999,
				"y": -3.7563917872,
				"z": -1.5445264844,
				"element": "H" 
			},
			{
				"x": 1.2142415563,
				"y": -5.5548993534,
				"z": 0.0188120054,
				"element": "H" 
			},
			{
				"x": -0.203876395,
				"y": -5.046416722,
				"z": 1.9992385348,
				"element": "H" 
			},
			{
				"x": -0.9700833289,
				"y": -2.7319263626,
				"z": 2.4207090914,
				"element": "H" 
			},
			{
				"x": -1.0340365568,
				"y": -0.3254808975,
				"z": 1.7527843272,
				"element": "H" 
			}
		],
		 "valence_orbital": [ 
			{
				"type": "occ",
				"energy": -0.31966,
				"method": "rhf"
			},
			{
				"type": "occ",
				"energy": -0.30925,
				"method": "rhf"
			},
			{
				"type": "occ",
				"energy": -0.30506,
				"method": "rhf"
			},
			{
				"type": "occ",
				"energy": -0.26496,
				"method": "rhf"
			},
			{
				"type": "occ",
				"energy": -0.23798,
				"method": "rhf"
			},
			{
				"type": "unocc",
				"energy": -0.0643,
				"method": "rhf"
			},
			{
				"type": "unocc",
				"energy": -0.03877,
				"method": "rhf"
			},
			{
				"type": "unocc",
				"energy": 0.00972,
				"method": "rhf"
			},
			{
				"type": "unocc",
				"energy": 0.03914,
				"method": "rhf"
			},
			{
				"type": "unocc",
				"energy": 0.05566,
				"method": "rhf"
			}
		],
		"cosmo_sigma_profile": { 
			"-0.025": 0.0,
			"-0.024": 0.0,
			"-0.023": 0.0,
			"-0.022": 0.0,
			"-0.021": 0.0,
			"-0.02": 0.486245596766,
			"-0.019": 0.81975870172,
			"-0.018": 0.830184936175,
			"-0.017": 1.09441609651,
			"-0.016": 0.674565487515,
			"-0.015": 0.537342424354,
			"-0.014": 0.526232410176,
			"-0.013": 1.14516469676,
			"-0.012": 0.799419384334,
			"-0.011": 0.441923419426,
			"-0.01": 0.932800256634,
			"-0.009": 0.818028297805,
			"-0.008": 2.61028898847,
			"-0.007": 10.8863663714,
			"-0.006": 14.8724821531,
			"-0.005": 14.2914627158,
			"-0.004": 14.0203440056,
			"-0.003": 10.8018287053,
			"-0.002": 11.1578723281,
			"-0.001": 10.5360363521,
			"0.0": 12.397352561,
			"0.001": 17.7057665768,
			"0.002": 23.7202358524,
			"0.003": 19.0834278173,
			"0.004": 10.566149445,
			"0.005": 4.78444964391,
			"0.006": 4.47863551002,
			"0.007": 3.90137135547,
			"0.008": 5.62287068591,
			"0.009": 8.63613697466,
			"0.01": 10.5259637821,
			"0.011": 3.37162398732,
			"0.012": 0.0,
			"0.013": 0.0,
			"0.014": 0.0,
			"0.015": 0.0,
			"0.016": 0.0,
			"0.017": 0.0,
			"0.018": 0.0,
			"0.019": 0.0,
			"0.02": 0.0,
			"0.021": 0.0,
			"0.022": 0.0,
			"0.023": 0.0,
			"0.024": 0.0,
			"0.025": 0.0
		}
	}
}
