{
	 "smiles": "NC1=CC2=CC=C(N)C=C2C=C1", 
	 "Tm": 486.15, 
	 "num_atms": 22, 
	 "gaussian": { 
		 "optdone": 1, 
		 "sigma_profile": "yes", 
		 "theory": "DFT", 
		 "functional": "B3LYP", 
		 "basiset": "6-31G**", 
		 "properties": { 
			 "R2extent": 2300.1896, 
			 "electric_dipole_moment_norm": 0.0, 
			 "electric_quadrupole_moment_norm": 17.5966532807, 
			 "total_energy": -496.610425555, 
			 "HOMO_LUMO_gap": 0.14895, 
			 "cosmo_polarized_energy": -13.62, 
			 "cosmo_cavitation_energy": 25.42, 
			 "cosmo_dispersion_energy": -19.15, 
			 "cosmo_repulsion_energy": 1.51, 
			 "cosmo_total_nonelectrostatic_energy": 7.77, 
			 "SMD_solvation_energy": 3.89 
		},
		"coords": [
			{
				"x": -1.6058541457,
				"y": 3.1239743718,
				"z": 1.1425804628,
				"element": "N" 
			},
			{
				"x": -0.877608949,
				"y": 2.0427358823,
				"z": 0.6263590623,
				"element": "C" 
			},
			{
				"x": -1.295507424,
				"y": 0.7323717415,
				"z": 0.7870368449,
				"element": "C" 
			},
			{
				"x": -0.5831174275,
				"y": -0.3452186813,
				"z": 0.2030298929,
				"element": "C" 
			},
			{
				"x": -0.9912347534,
				"y": -1.6992306904,
				"z": 0.351026139,
				"element": "C" 
			},
			{
				"x": -0.2803485846,
				"y": -2.7274685924,
				"z": -0.2192865539,
				"element": "C" 
			},
			{
				"x": 0.8924182114,
				"y": -2.4731361084,
				"z": -0.9870951282,
				"element": "C" 
			},
			{
				"x": 1.6206643266,
				"y": -3.554373521,
				"z": -1.5033179449,
				"element": "N" 
			},
			{
				"x": 1.3103168449,
				"y": -1.1627714726,
				"z": -1.1477723269,
				"element": "C" 
			},
			{
				"x": 0.5979269597,
				"y": -0.085181686,
				"z": -0.5637659875,
				"element": "C" 
			},
			{
				"x": 1.0060446421,
				"y": 1.2688309953,
				"z": -0.711761731,
				"element": "C" 
			},
			{
				"x": 0.2951584489,
				"y": 2.2970685223,
				"z": -0.1414498117,
				"element": "C" 
			},
			{
				"x": -2.2191385995,
				"y": 2.8843986262,
				"z": 1.9104728896,
				"element": "H" 
			},
			{
				"x": -1.0454668802,
				"y": 3.936085908,
				"z": 1.3656294895,
				"element": "H" 
			},
			{
				"x": -2.1893422809,
				"y": 0.5154276426,
				"z": 1.3687915624,
				"element": "H" 
			},
			{
				"x": -1.8856158915,
				"y": -1.9178339435,
				"z": 0.9293420796,
				"element": "H" 
			},
			{
				"x": -0.606605371,
				"y": -3.7560967731,
				"z": -0.0831290502,
				"element": "H" 
			},
			{
				"x": 1.0602778435,
				"y": -4.3664873625,
				"z": -1.7263609321,
				"element": "H" 
			},
			{
				"x": 2.2339404987,
				"y": -3.3147973011,
				"z": -2.2712171894,
				"element": "H" 
			},
			{
				"x": 2.2041522005,
				"y": -0.9458279618,
				"z": -1.7295265228,
				"element": "H" 
			},
			{
				"x": 1.9004260504,
				"y": 1.4874333852,
				"z": -1.290077901,
				"element": "H" 
			},
			{
				"x": 0.6214142806,
				"y": 3.3256970188,
				"z": -0.2776073434,
				"element": "H" 
			}
		],
		 "valence_orbital": [ 
			{
				"type": "occ",
				"energy": -0.30861,
				"method": "rhf"
			},
			{
				"type": "occ",
				"energy": -0.27832,
				"method": "rhf"
			},
			{
				"type": "occ",
				"energy": -0.23355,
				"method": "rhf"
			},
			{
				"type": "occ",
				"energy": -0.21502,
				"method": "rhf"
			},
			{
				"type": "occ",
				"energy": -0.17052,
				"method": "rhf"
			},
			{
				"type": "unocc",
				"energy": -0.02157,
				"method": "rhf"
			},
			{
				"type": "unocc",
				"energy": 0.01992,
				"method": "rhf"
			},
			{
				"type": "unocc",
				"energy": 0.04743,
				"method": "rhf"
			},
			{
				"type": "unocc",
				"energy": 0.0826,
				"method": "rhf"
			},
			{
				"type": "unocc",
				"energy": 0.08978,
				"method": "rhf"
			}
		],
		"cosmo_sigma_profile": { 
			"-0.025": 0.0,
			"-0.024": 0.0,
			"-0.023": 0.0,
			"-0.022": 0.0,
			"-0.021": 0.0,
			"-0.02": 0.0,
			"-0.019": 0.0,
			"-0.018": 0.0,
			"-0.017": 0.0,
			"-0.016": 0.0,
			"-0.015": 0.0,
			"-0.014": 0.0,
			"-0.013": 0.0,
			"-0.012": 2.88645818922,
			"-0.011": 5.7008662369,
			"-0.01": 5.86311649649,
			"-0.009": 5.7802791827,
			"-0.008": 5.45887041334,
			"-0.007": 6.70390926418,
			"-0.006": 7.56406661831,
			"-0.005": 14.997910533,
			"-0.004": 12.7294631747,
			"-0.003": 12.6941514998,
			"-0.002": 7.79226588455,
			"-0.001": 8.25541718609,
			"0.0": 8.61205231305,
			"0.001": 7.05329531545,
			"0.002": 7.69773376787,
			"0.003": 9.16068211035,
			"0.004": 10.4846429146,
			"0.005": 13.2419446957,
			"0.006": 26.5688388529,
			"0.007": 9.84421495862,
			"0.008": 1.67853012315,
			"0.009": 1.75444198334,
			"0.01": 1.96243127628,
			"0.011": 1.66253593334,
			"0.012": 1.43522349036,
			"0.013": 0.843250810371,
			"0.014": 1.38842459872,
			"0.015": 1.49028207047,
			"0.016": 0.188684137017,
			"0.017": 0.0,
			"0.018": 0.0,
			"0.019": 0.0,
			"0.02": 0.0,
			"0.021": 0.0,
			"0.022": 0.0,
			"0.023": 0.0,
			"0.024": 0.0,
			"0.025": 0.0
		}
	}
}
