{
	 "smiles": "CS(=O)(=O)C1=CC(=CC=C1)C(=O)C1=CC=C(F)C=C1", 
	 "Tm": 340.15, 
	 "num_atms": 30, 
	 "gaussian": { 
		 "optdone": 1, 
		 "sigma_profile": "yes", 
		 "theory": "DFT", 
		 "functional": "B3LYP", 
		 "basiset": "6-31G**", 
		 "properties": { 
			 "R2extent": 6817.4202, 
			 "electric_dipole_moment_norm": 4.62878014816, 
			 "electric_quadrupole_moment_norm": 25.2995598183, 
			 "total_energy": -1263.74917946, 
			 "HOMO_LUMO_gap": 0.17671, 
			 "cosmo_polarized_energy": -19.31, 
			 "cosmo_cavitation_energy": 36.97, 
			 "cosmo_dispersion_energy": -26.05, 
			 "cosmo_repulsion_energy": 1.92, 
			 "cosmo_total_nonelectrostatic_energy": 12.84, 
			 "SMD_solvation_energy": 6.93 
		},
		"coords": [
			{
				"x": -3.623070094,
				"y": -0.5381855659,
				"z": -1.9077993075,
				"element": "C" 
			},
			{
				"x": -2.0931706894,
				"y": -1.2327503644,
				"z": -2.5798572256,
				"element": "S" 
			},
			{
				"x": -2.4351234168,
				"y": -2.5145724173,
				"z": -3.214366351,
				"element": "O" 
			},
			{
				"x": -1.4140034346,
				"y": -0.1636172562,
				"z": -3.3275256701,
				"element": "O" 
			},
			{
				"x": -1.1074918357,
				"y": -1.5887464351,
				"z": -1.1122743964,
				"element": "C" 
			},
			{
				"x": -0.2077929545,
				"y": -0.6270584153,
				"z": -0.6509300733,
				"element": "C" 
			},
			{
				"x": 0.5730425158,
				"y": -0.9054935595,
				"z": 0.4792633678,
				"element": "C" 
			},
			{
				"x": 0.4443566841,
				"y": -2.1545833688,
				"z": 1.1089580288,
				"element": "C" 
			},
			{
				"x": -0.46125431,
				"y": -3.1024696694,
				"z": 0.639878272,
				"element": "C" 
			},
			{
				"x": -1.2446179238,
				"y": -2.826707172,
				"z": -0.4832060041,
				"element": "C" 
			},
			{
				"x": 1.6336412591,
				"y": 0.0290907854,
				"z": 0.9974162901,
				"element": "C" 
			},
			{
				"x": 2.6135141344,
				"y": -0.4402500002,
				"z": 1.5650266786,
				"element": "O" 
			},
			{
				"x": 1.5040844701,
				"y": 1.5085106864,
				"z": 0.8228055774,
				"element": "C" 
			},
			{
				"x": 2.6859849995,
				"y": 2.2701056473,
				"z": 0.8366761485,
				"element": "C" 
			},
			{
				"x": 2.6446178116,
				"y": 3.6543321122,
				"z": 0.7266813935,
				"element": "C" 
			},
			{
				"x": 1.4021838347,
				"y": 4.2773729837,
				"z": 0.6283588607,
				"element": "C" 
			},
			{
				"x": 1.3530507903,
				"y": 5.6173682796,
				"z": 0.5279220907,
				"element": "F" 
			},
			{
				"x": 0.2107550555,
				"y": 3.5600285821,
				"z": 0.6381934646,
				"element": "C" 
			},
			{
				"x": 0.2690753218,
				"y": 2.1709245234,
				"z": 0.7308762846,
				"element": "C" 
			},
			{
				"x": -3.3931806697,
				"y": 0.3745191609,
				"z": -1.3564712904,
				"element": "H" 
			},
			{
				"x": -4.2570252522,
				"y": -0.3124039637,
				"z": -2.76779247,
				"element": "H" 
			},
			{
				"x": -4.1037712221,
				"y": -1.2778426105,
				"z": -1.2661415616,
				"element": "H" 
			},
			{
				"x": -0.0937615939,
				"y": 0.2996069476,
				"z": -1.2020971248,
				"element": "H" 
			},
			{
				"x": 1.0810040437,
				"y": -2.3656368727,
				"z": 1.9615965595,
				"element": "H" 
			},
			{
				"x": -0.5475462645,
				"y": -4.0642588709,
				"z": 1.135948015,
				"element": "H" 
			},
			{
				"x": -1.9307188635,
				"y": -3.5640424781,
				"z": -0.8868859705,
				"element": "H" 
			},
			{
				"x": 3.6329676332,
				"y": 1.750860183,
				"z": 0.9359909841,
				"element": "H" 
			},
			{
				"x": 3.5470019098,
				"y": 4.2558044439,
				"z": 0.7204050927,
				"element": "H" 
			},
			{
				"x": -0.733604396,
				"y": 4.0895242597,
				"z": 0.5782495774,
				"element": "H" 
			},
			{
				"x": -0.6555475424,
				"y": 1.6050704248,
				"z": 0.7605007594,
				"element": "H" 
			}
		],
		 "valence_orbital": [ 
			{
				"type": "occ",
				"energy": -0.28611,
				"method": "rhf"
			},
			{
				"type": "occ",
				"energy": -0.28405,
				"method": "rhf"
			},
			{
				"type": "occ",
				"energy": -0.27865,
				"method": "rhf"
			},
			{
				"type": "occ",
				"energy": -0.26769,
				"method": "rhf"
			},
			{
				"type": "occ",
				"energy": -0.25751,
				"method": "rhf"
			},
			{
				"type": "unocc",
				"energy": -0.0808,
				"method": "rhf"
			},
			{
				"type": "unocc",
				"energy": -0.04745,
				"method": "rhf"
			},
			{
				"type": "unocc",
				"energy": -0.0322,
				"method": "rhf"
			},
			{
				"type": "unocc",
				"energy": -0.02568,
				"method": "rhf"
			},
			{
				"type": "unocc",
				"energy": 0.03515,
				"method": "rhf"
			}
		],
		"cosmo_sigma_profile": { 
			"-0.025": 0.0,
			"-0.024": 0.0,
			"-0.023": 0.0,
			"-0.022": 0.0,
			"-0.021": 0.0,
			"-0.02": 0.0,
			"-0.019": 0.0,
			"-0.018": 0.0,
			"-0.017": 0.0,
			"-0.016": 0.0,
			"-0.015": 0.0,
			"-0.014": 0.0,
			"-0.013": 0.0,
			"-0.012": 0.0,
			"-0.011": 0.0,
			"-0.01": 0.0471599454471,
			"-0.009": 2.6405750647,
			"-0.008": 11.5043337173,
			"-0.007": 18.1510470397,
			"-0.006": 21.4890460947,
			"-0.005": 22.0246598699,
			"-0.004": 18.7761270902,
			"-0.003": 16.9127010025,
			"-0.002": 16.0778479936,
			"-0.001": 18.2061586953,
			"0.0": 23.2912426754,
			"0.001": 26.5787003196,
			"0.002": 23.3597797909,
			"0.003": 13.0353418084,
			"0.004": 12.5207168402,
			"0.005": 4.58305483855,
			"0.006": 4.02742487295,
			"0.007": 3.95196179317,
			"0.008": 4.81364089675,
			"0.009": 5.16124225694,
			"0.01": 7.03865671972,
			"0.011": 12.6796352551,
			"0.012": 10.0863911913,
			"0.013": 0.337717627748,
			"0.014": 0.0,
			"0.015": 0.0,
			"0.016": 0.0,
			"0.017": 0.0,
			"0.018": 0.0,
			"0.019": 0.0,
			"0.02": 0.0,
			"0.021": 0.0,
			"0.022": 0.0,
			"0.023": 0.0,
			"0.024": 0.0,
			"0.025": 0.0
		}
	}
}
