{
	 "smiles": "CCOC(=O)NC(=S)NC1=NC=CS1", 
	 "Tm": 443.15, 
	 "num_atms": 23, 
	 "gaussian": { 
		 "optdone": 1, 
		 "sigma_profile": "yes", 
		 "theory": "DFT", 
		 "functional": "B3LYP", 
		 "basiset": "6-31G**", 
		 "properties": { 
			 "R2extent": 4552.7082, 
			 "electric_dipole_moment_norm": 4.21308975456, 
			 "electric_quadrupole_moment_norm": 13.1898582248, 
			 "total_energy": -1383.25779905, 
			 "HOMO_LUMO_gap": 0.15906, 
			 "cosmo_polarized_energy": -15.93, 
			 "cosmo_cavitation_energy": 31.44, 
			 "cosmo_dispersion_energy": -22.85, 
			 "cosmo_repulsion_energy": 1.75, 
			 "cosmo_total_nonelectrostatic_energy": 10.34, 
			 "SMD_solvation_energy": 4.38 
		},
		"coords": [
			{
				"x": 0.3360273716,
				"y": -2.4435819858,
				"z": -2.9982234845,
				"element": "C" 
			},
			{
				"x": 1.2225562664,
				"y": -1.3109614685,
				"z": -3.4904945802,
				"element": "C" 
			},
			{
				"x": 1.6561748538,
				"y": -0.4699550663,
				"z": -2.391649495,
				"element": "O" 
			},
			{
				"x": 0.8002485723,
				"y": 0.5058199648,
				"z": -2.0257889174,
				"element": "C" 
			},
			{
				"x": -0.2685668004,
				"y": 0.7468524321,
				"z": -2.5397467131,
				"element": "O" 
			},
			{
				"x": 1.3859773512,
				"y": 1.2112749326,
				"z": -0.9729042446,
				"element": "N" 
			},
			{
				"x": 0.9109106762,
				"y": 2.3405099518,
				"z": -0.3373366688,
				"element": "C" 
			},
			{
				"x": 1.9618115868,
				"y": 3.4887549551,
				"z": 0.2626840691,
				"element": "S" 
			},
			{
				"x": -0.4471702325,
				"y": 2.4950349329,
				"z": -0.2146562769,
				"element": "N" 
			},
			{
				"x": -1.4287542796,
				"y": 1.5074406511,
				"z": -0.1011890707,
				"element": "C" 
			},
			{
				"x": -1.2247081533,
				"y": 0.2793601328,
				"z": 0.2669133556,
				"element": "N" 
			},
			{
				"x": -2.4129600581,
				"y": -0.4149922188,
				"z": 0.292164599,
				"element": "C" 
			},
			{
				"x": -3.5339147556,
				"y": 0.2871682729,
				"z": -0.037395484,
				"element": "C" 
			},
			{
				"x": -3.1032146495,
				"y": 1.9193322443,
				"z": -0.4537497681,
				"element": "S" 
			},
			{
				"x": -0.5884121193,
				"y": -2.0481450423,
				"z": -2.5704881537,
				"element": "H" 
			},
			{
				"x": 0.8511650442,
				"y": -3.0406567054,
				"z": -2.2403028766,
				"element": "H" 
			},
			{
				"x": 0.0758347826,
				"y": -3.0991078478,
				"z": -3.8359225302,
				"element": "H" 
			},
			{
				"x": 2.1532883187,
				"y": -1.6839437203,
				"z": -3.923460889,
				"element": "H" 
			},
			{
				"x": 0.7041067816,
				"y": -0.6889810718,
				"z": -4.2237459912,
				"element": "H" 
			},
			{
				"x": 2.3771780305,
				"y": 1.0555912736,
				"z": -0.84422492,
				"element": "H" 
			},
			{
				"x": -0.6926427163,
				"y": 3.4149409068,
				"z": 0.1293776879,
				"element": "H" 
			},
			{
				"x": -2.4041184966,
				"y": -1.4569171091,
				"z": 0.5896964295,
				"element": "H" 
			},
			{
				"x": -4.5629173745,
				"y": -0.0411384146,
				"z": -0.0501560773,
				"element": "H" 
			}
		],
		 "valence_orbital": [ 
			{
				"type": "occ",
				"energy": -0.29155,
				"method": "rhf"
			},
			{
				"type": "occ",
				"energy": -0.28785,
				"method": "rhf"
			},
			{
				"type": "occ",
				"energy": -0.25422,
				"method": "rhf"
			},
			{
				"type": "occ",
				"energy": -0.23247,
				"method": "rhf"
			},
			{
				"type": "occ",
				"energy": -0.22069,
				"method": "rhf"
			},
			{
				"type": "unocc",
				"energy": -0.06163,
				"method": "rhf"
			},
			{
				"type": "unocc",
				"energy": -0.01277,
				"method": "rhf"
			},
			{
				"type": "unocc",
				"energy": 0.00105,
				"method": "rhf"
			},
			{
				"type": "unocc",
				"energy": 0.04432,
				"method": "rhf"
			},
			{
				"type": "unocc",
				"energy": 0.04955,
				"method": "rhf"
			}
		],
		"cosmo_sigma_profile": { 
			"-0.025": 0.0,
			"-0.024": 0.0,
			"-0.023": 0.0,
			"-0.022": 0.0,
			"-0.021": 0.0,
			"-0.02": 0.0,
			"-0.019": 0.0,
			"-0.018": 0.0,
			"-0.017": 0.386038404304,
			"-0.016": 1.12728654206,
			"-0.015": 1.56624149894,
			"-0.014": 2.30129393296,
			"-0.013": 1.49115027964,
			"-0.012": 1.2269635595,
			"-0.011": 1.69459764447,
			"-0.01": 2.14803451033,
			"-0.009": 4.32347177995,
			"-0.008": 5.44665834122,
			"-0.007": 6.19929106037,
			"-0.006": 8.59216903959,
			"-0.005": 13.1546613509,
			"-0.004": 18.5049448945,
			"-0.003": 17.2178307521,
			"-0.002": 16.3138028752,
			"-0.001": 18.0103975902,
			"0.0": 21.0919233724,
			"0.001": 17.9475457201,
			"0.002": 14.6150160268,
			"0.003": 14.9485053919,
			"0.004": 10.9244507055,
			"0.005": 8.69333799477,
			"0.006": 9.63819557512,
			"0.007": 10.6281614562,
			"0.008": 9.80398734114,
			"0.009": 6.65722248965,
			"0.01": 5.56154064393,
			"0.011": 3.87064614506,
			"0.012": 1.1082584835,
			"0.013": 0.525819169643,
			"0.014": 0.0842572350395,
			"0.015": 0.0,
			"0.016": 0.0,
			"0.017": 0.0,
			"0.018": 0.0,
			"0.019": 0.0,
			"0.02": 0.0,
			"0.021": 0.0,
			"0.022": 0.0,
			"0.023": 0.0,
			"0.024": 0.0,
			"0.025": 0.0
		}
	}
}
