{
	 "smiles": "CC(Cl)C(=O)NC1=CC(=C(F)C=C1)[N+]([O-])=O", 
	 "Tm": 370.15, 
	 "num_atms": 24, 
	 "gaussian": { 
		 "optdone": 1, 
		 "sigma_profile": "yes", 
		 "theory": "DFT", 
		 "functional": "B3LYP", 
		 "basiset": "6-31G**", 
		 "properties": { 
			 "R2extent": 4507.8224, 
			 "electric_dipole_moment_norm": 5.10693854868, 
			 "electric_quadrupole_moment_norm": 20.350613604, 
			 "total_energy": -1242.87653745, 
			 "HOMO_LUMO_gap": 0.16744, 
			 "cosmo_polarized_energy": -17.04, 
			 "cosmo_cavitation_energy": 31.45, 
			 "cosmo_dispersion_energy": -21.78, 
			 "cosmo_repulsion_energy": 1.7, 
			 "cosmo_total_nonelectrostatic_energy": 11.37, 
			 "SMD_solvation_energy": 8.59 
		},
		"coords": [
			{
				"x": -1.4919033993,
				"y": -0.8224472723,
				"z": 2.9585036734,
				"element": "C" 
			},
			{
				"x": 0.0022611909,
				"y": -0.5543904103,
				"z": 2.791995398,
				"element": "C" 
			},
			{
				"x": 0.3065669301,
				"y": 1.2223911198,
				"z": 2.4868052682,
				"element": "Cl" 
			},
			{
				"x": 0.693642656,
				"y": -1.4792184744,
				"z": 1.7782367502,
				"element": "C" 
			},
			{
				"x": 1.3137382872,
				"y": -2.4387185936,
				"z": 2.2117482789,
				"element": "O" 
			},
			{
				"x": 0.6048992396,
				"y": -1.2683615649,
				"z": 0.4204456353,
				"element": "N" 
			},
			{
				"x": -0.1489171073,
				"y": -0.3308045317,
				"z": -0.349618489,
				"element": "C" 
			},
			{
				"x": 0.4884398525,
				"y": 0.7675181945,
				"z": -0.9242605946,
				"element": "C" 
			},
			{
				"x": -0.2258329944,
				"y": 1.6574402205,
				"z": -1.7251728767,
				"element": "C" 
			},
			{
				"x": -1.5920791005,
				"y": 1.4459067076,
				"z": -1.9629964479,
				"element": "C" 
			},
			{
				"x": -2.3112640865,
				"y": 2.2565254304,
				"z": -2.7367784408,
				"element": "F" 
			},
			{
				"x": -2.2262845582,
				"y": 0.3378559332,
				"z": -1.4087095547,
				"element": "C" 
			},
			{
				"x": -1.5077165008,
				"y": -0.5496586313,
				"z": -0.6129585996,
				"element": "C" 
			},
			{
				"x": 0.4986862699,
				"y": 2.8066119674,
				"z": -2.2900569874,
				"element": "N" 
			},
			{
				"x": 1.7281012256,
				"y": 2.7600968301,
				"z": -2.2562832713,
				"element": "O" 
			},
			{
				"x": -0.1618356305,
				"y": 3.7336419094,
				"z": -2.7472585068,
				"element": "O" 
			},
			{
				"x": -2.058958795,
				"y": -0.5277559533,
				"z": 2.0739152499,
				"element": "H" 
			},
			{
				"x": -1.6449392644,
				"y": -1.8911939293,
				"z": 3.1432591852,
				"element": "H" 
			},
			{
				"x": -1.8767289108,
				"y": -0.2643328732,
				"z": 3.8151418235,
				"element": "H" 
			},
			{
				"x": 0.523045703,
				"y": -0.7650657627,
				"z": 3.7247595384,
				"element": "H" 
			},
			{
				"x": 1.146140535,
				"y": -1.956554154,
				"z": -0.0913689438,
				"element": "H" 
			},
			{
				"x": 1.5402892353,
				"y": 0.9550779781,
				"z": -0.7509900577,
				"element": "H" 
			},
			{
				"x": -3.2770120465,
				"y": 0.1834626667,
				"z": -1.6269722035,
				"element": "H" 
			},
			{
				"x": -1.9958387308,
				"y": -1.4272268068,
				"z": -0.2021858272,
				"element": "H" 
			}
		],
		 "valence_orbital": [ 
			{
				"type": "occ",
				"energy": -0.30908,
				"method": "rhf"
			},
			{
				"type": "occ",
				"energy": -0.29618,
				"method": "rhf"
			},
			{
				"type": "occ",
				"energy": -0.29224,
				"method": "rhf"
			},
			{
				"type": "occ",
				"energy": -0.27865,
				"method": "rhf"
			},
			{
				"type": "occ",
				"energy": -0.26788,
				"method": "rhf"
			},
			{
				"type": "unocc",
				"energy": -0.10044,
				"method": "rhf"
			},
			{
				"type": "unocc",
				"energy": -0.04768,
				"method": "rhf"
			},
			{
				"type": "unocc",
				"energy": -0.02266,
				"method": "rhf"
			},
			{
				"type": "unocc",
				"energy": -0.01993,
				"method": "rhf"
			},
			{
				"type": "unocc",
				"energy": 0.03305,
				"method": "rhf"
			}
		],
		"cosmo_sigma_profile": { 
			"-0.025": 0.0,
			"-0.024": 0.0,
			"-0.023": 0.0,
			"-0.022": 0.0,
			"-0.021": 0.0,
			"-0.02": 0.0,
			"-0.019": 0.0,
			"-0.018": 0.0,
			"-0.017": 0.0,
			"-0.016": 0.0,
			"-0.015": 0.711065901964,
			"-0.014": 1.1601625768,
			"-0.013": 1.06207614437,
			"-0.012": 1.08925193096,
			"-0.011": 1.11953349181,
			"-0.01": 0.746538918548,
			"-0.009": 3.44912998074,
			"-0.008": 7.71609896954,
			"-0.007": 10.9161701638,
			"-0.006": 11.6995035082,
			"-0.005": 16.060581415,
			"-0.004": 16.696653343,
			"-0.003": 17.2084235123,
			"-0.002": 22.9934252089,
			"-0.001": 19.6334455531,
			"0.0": 16.0540771591,
			"0.001": 11.8795364734,
			"0.002": 10.9127921331,
			"0.003": 13.782819646,
			"0.004": 8.60245444192,
			"0.005": 10.5036849171,
			"0.006": 10.5604076026,
			"0.007": 10.9442646369,
			"0.008": 9.0152573496,
			"0.009": 5.03966404101,
			"0.01": 2.99131098388,
			"0.011": 1.8291151122,
			"0.012": 4.56836492035,
			"0.013": 3.96580128221,
			"0.014": 0.169727511684,
			"0.015": 0.0,
			"0.016": 0.0,
			"0.017": 0.0,
			"0.018": 0.0,
			"0.019": 0.0,
			"0.02": 0.0,
			"0.021": 0.0,
			"0.022": 0.0,
			"0.023": 0.0,
			"0.024": 0.0,
			"0.025": 0.0
		}
	}
}
