{
	 "smiles": "OC(=O)C1=CC=CC2=C1SC=C2", 
	 "Tm": 451.15, 
	 "num_atms": 18, 
	 "gaussian": { 
		 "optdone": 1, 
		 "sigma_profile": "yes", 
		 "theory": "DFT", 
		 "functional": "B3LYP", 
		 "basiset": "6-31G**", 
		 "properties": { 
			 "R2extent": 2315.7091, 
			 "electric_dipole_moment_norm": 4.81448096995, 
			 "electric_quadrupole_moment_norm": 18.0082950237, 
			 "total_energy": -895.217117983, 
			 "HOMO_LUMO_gap": 0.17045, 
			 "cosmo_polarized_energy": -14.91, 
			 "cosmo_cavitation_energy": 23.64, 
			 "cosmo_dispersion_energy": -18.51, 
			 "cosmo_repulsion_energy": 1.39, 
			 "cosmo_total_nonelectrostatic_energy": 6.52, 
			 "SMD_solvation_energy": 4.98 
		},
		"coords": [
			{
				"x": 1.7167457166,
				"y": 1.9139822727,
				"z": -3.1586016858,
				"element": "O" 
			},
			{
				"x": 0.9094094207,
				"y": 0.9686865825,
				"z": -2.6133248076,
				"element": "C" 
			},
			{
				"x": 0.341386393,
				"y": 0.1771541073,
				"z": -3.334009412,
				"element": "O" 
			},
			{
				"x": 0.7570383704,
				"y": 0.9627108058,
				"z": -1.128909952,
				"element": "C" 
			},
			{
				"x": 1.6167602192,
				"y": 1.6559949409,
				"z": -0.2698994443,
				"element": "C" 
			},
			{
				"x": 1.4342616632,
				"y": 1.637848907,
				"z": 1.1197833458,
				"element": "C" 
			},
			{
				"x": 0.3840671872,
				"y": 0.9237338656,
				"z": 1.6811422016,
				"element": "C" 
			},
			{
				"x": -0.4896275294,
				"y": 0.1972383112,
				"z": 0.8536604709,
				"element": "C" 
			},
			{
				"x": -0.284877788,
				"y": 0.2097442204,
				"z": -0.5518236231,
				"element": "C" 
			},
			{
				"x": -1.4693681181,
				"y": -0.7826046111,
				"z": -1.3745967763,
				"element": "S" 
			},
			{
				"x": -2.2289622129,
				"y": -1.1749878086,
				"z": 0.1534710761,
				"element": "C" 
			},
			{
				"x": -1.6222539217,
				"y": -0.6087127953,
				"z": 1.2276460647,
				"element": "C" 
			},
			{
				"x": 1.9612496517,
				"y": 2.5720205646,
				"z": -2.493715303,
				"element": "H" 
			},
			{
				"x": 2.4719911916,
				"y": 2.1956643297,
				"z": -0.6693771321,
				"element": "H" 
			},
			{
				"x": 2.1227154289,
				"y": 2.1840586919,
				"z": 1.7567113977,
				"element": "H" 
			},
			{
				"x": 0.2382148529,
				"y": 0.9157600869,
				"z": 2.7576127036,
				"element": "H" 
			},
			{
				"x": -3.091454962,
				"y": -1.8289163392,
				"z": 0.1559873295,
				"element": "H" 
			},
			{
				"x": -1.9463955636,
				"y": -0.7461761322,
				"z": 2.2528435465,
				"element": "H" 
			}
		],
		 "valence_orbital": [ 
			{
				"type": "occ",
				"energy": -0.32152,
				"method": "rhf"
			},
			{
				"type": "occ",
				"energy": -0.29293,
				"method": "rhf"
			},
			{
				"type": "occ",
				"energy": -0.27504,
				"method": "rhf"
			},
			{
				"type": "occ",
				"energy": -0.24916,
				"method": "rhf"
			},
			{
				"type": "occ",
				"energy": -0.23091,
				"method": "rhf"
			},
			{
				"type": "unocc",
				"energy": -0.06046,
				"method": "rhf"
			},
			{
				"type": "unocc",
				"energy": -0.02494,
				"method": "rhf"
			},
			{
				"type": "unocc",
				"energy": 0.01775,
				"method": "rhf"
			},
			{
				"type": "unocc",
				"energy": 0.03245,
				"method": "rhf"
			},
			{
				"type": "unocc",
				"energy": 0.06051,
				"method": "rhf"
			}
		],
		"cosmo_sigma_profile": { 
			"-0.025": 0.0,
			"-0.024": 0.0,
			"-0.023": 0.0,
			"-0.022": 0.0,
			"-0.021": 0.0,
			"-0.02": 0.0,
			"-0.019": 0.290635098499,
			"-0.018": 1.1004600439,
			"-0.017": 0.566749005778,
			"-0.016": 1.03275820247,
			"-0.015": 1.48505081092,
			"-0.014": 1.16448643044,
			"-0.013": 0.543258458805,
			"-0.012": 1.08642225458,
			"-0.011": 1.18216868101,
			"-0.01": 1.49196940838,
			"-0.009": 1.98799853453,
			"-0.008": 4.32483596776,
			"-0.007": 9.15938721551,
			"-0.006": 11.1963619259,
			"-0.005": 11.1908830206,
			"-0.004": 8.34235362075,
			"-0.003": 9.61792646956,
			"-0.002": 8.84791999374,
			"-0.001": 7.86347644908,
			"0.0": 9.98571216332,
			"0.001": 10.729695494,
			"0.002": 20.4583563972,
			"0.003": 21.3793599089,
			"0.004": 12.3521193862,
			"0.005": 6.59738044022,
			"0.006": 3.79223138476,
			"0.007": 3.16186905512,
			"0.008": 3.92538495259,
			"0.009": 3.78958015659,
			"0.01": 5.45932676578,
			"0.011": 4.40172161533,
			"0.012": 3.17943414617,
			"0.013": 0.965007848589,
			"0.014": 0.0,
			"0.015": 0.0,
			"0.016": 0.0,
			"0.017": 0.0,
			"0.018": 0.0,
			"0.019": 0.0,
			"0.02": 0.0,
			"0.021": 0.0,
			"0.022": 0.0,
			"0.023": 0.0,
			"0.024": 0.0,
			"0.025": 0.0
		}
	}
}
