{
	 "smiles": "CN1CCCC1=O", 
	 "Tm": 249.65, 
	 "num_atms": 16, 
	 "gaussian": { 
		 "optdone": 1, 
		 "sigma_profile": "yes", 
		 "theory": "DFT", 
		 "functional": "B3LYP", 
		 "basiset": "6-31G**", 
		 "properties": { 
			 "R2extent": 870.4202, 
			 "electric_dipole_moment_norm": 3.73656569325, 
			 "electric_quadrupole_moment_norm": 5.33069843735, 
			 "total_energy": -325.950868645, 
			 "HOMO_LUMO_gap": 0.26972, 
			 "cosmo_polarized_energy": -9.23, 
			 "cosmo_cavitation_energy": 18.3, 
			 "cosmo_dispersion_energy": -13.95, 
			 "cosmo_repulsion_energy": 1.2, 
			 "cosmo_total_nonelectrostatic_energy": 5.54, 
			 "SMD_solvation_energy": 3.43 
		},
		"coords": [
			{
				"x": -0.1197564673,
				"y": -2.2440451278,
				"z": 1.2008923884,
				"element": "C" 
			},
			{
				"x": -0.2225674416,
				"y": -0.8088603752,
				"z": 1.0627890327,
				"element": "N" 
			},
			{
				"x": -1.0139341324,
				"y": 0.012431533,
				"z": 1.9662992239,
				"element": "C" 
			},
			{
				"x": -0.978249912,
				"y": 1.4070064937,
				"z": 1.3021665313,
				"element": "C" 
			},
			{
				"x": 0.3247265442,
				"y": 1.3936307746,
				"z": 0.4868649817,
				"element": "C" 
			},
			{
				"x": 0.5986852642,
				"y": -0.0894753062,
				"z": 0.2273106145,
				"element": "C" 
			},
			{
				"x": 1.4085221106,
				"y": -0.5635643546,
				"z": -0.5544938622,
				"element": "O" 
			},
			{
				"x": 0.5632839234,
				"y": -2.6006284415,
				"z": 0.4278414607,
				"element": "H" 
			},
			{
				"x": 0.2754856625,
				"y": -2.5252442972,
				"z": 2.1866321644,
				"element": "H" 
			},
			{
				"x": -1.0982578804,
				"y": -2.7222031583,
				"z": 1.0726024572,
				"element": "H" 
			},
			{
				"x": -2.0324537188,
				"y": -0.3824228715,
				"z": 2.0621059415,
				"element": "H" 
			},
			{
				"x": -0.5709162112,
				"y": 0.0260928254,
				"z": 2.9751647142,
				"element": "H" 
			},
			{
				"x": -1.0269773566,
				"y": 2.213207458,
				"z": 2.0379091144,
				"element": "H" 
			},
			{
				"x": -1.8376763202,
				"y": 1.5142998315,
				"z": 0.6330922069,
				"element": "H" 
			},
			{
				"x": 1.1731860272,
				"y": 1.7959595651,
				"z": 1.0539892451,
				"element": "H" 
			},
			{
				"x": 0.2745999084,
				"y": 1.9434154509,
				"z": -0.4553662146,
				"element": "H" 
			}
		],
		 "valence_orbital": [ 
			{
				"type": "occ",
				"energy": -0.37427,
				"method": "rhf"
			},
			{
				"type": "occ",
				"energy": -0.35713,
				"method": "rhf"
			},
			{
				"type": "occ",
				"energy": -0.3303,
				"method": "rhf"
			},
			{
				"type": "occ",
				"energy": -0.24077,
				"method": "rhf"
			},
			{
				"type": "occ",
				"energy": -0.23326,
				"method": "rhf"
			},
			{
				"type": "unocc",
				"energy": 0.03646,
				"method": "rhf"
			},
			{
				"type": "unocc",
				"energy": 0.08112,
				"method": "rhf"
			},
			{
				"type": "unocc",
				"energy": 0.11119,
				"method": "rhf"
			},
			{
				"type": "unocc",
				"energy": 0.11353,
				"method": "rhf"
			},
			{
				"type": "unocc",
				"energy": 0.13549,
				"method": "rhf"
			}
		],
		"cosmo_sigma_profile": { 
			"-0.025": 0.0,
			"-0.024": 0.0,
			"-0.023": 0.0,
			"-0.022": 0.0,
			"-0.021": 0.0,
			"-0.02": 0.0,
			"-0.019": 0.0,
			"-0.018": 0.0,
			"-0.017": 0.0,
			"-0.016": 0.0,
			"-0.015": 0.0,
			"-0.014": 0.0,
			"-0.013": 0.0,
			"-0.012": 0.0,
			"-0.011": 0.0,
			"-0.01": 0.0,
			"-0.009": 0.0,
			"-0.008": 0.0,
			"-0.007": 0.0,
			"-0.006": 0.264325700107,
			"-0.005": 8.3222687857,
			"-0.004": 23.0873445201,
			"-0.003": 28.9185875484,
			"-0.002": 23.7037970507,
			"-0.001": 16.0214026743,
			"0.0": 8.40938971338,
			"0.001": 3.84018895544,
			"0.002": 2.5424689015,
			"0.003": 3.33686137727,
			"0.004": 1.14623390024,
			"0.005": 1.22911165266,
			"0.006": 2.32332460352,
			"0.007": 0.957636669169,
			"0.008": 1.10245573532,
			"0.009": 2.3631981025,
			"0.01": 1.09936683912,
			"0.011": 1.08021817365,
			"0.012": 1.81934653801,
			"0.013": 2.33268722183,
			"0.014": 6.10810024832,
			"0.015": 2.69853596714,
			"0.016": 0.300206724655,
			"0.017": 0.0,
			"0.018": 0.0,
			"0.019": 0.0,
			"0.02": 0.0,
			"0.021": 0.0,
			"0.022": 0.0,
			"0.023": 0.0,
			"0.024": 0.0,
			"0.025": 0.0
		}
	}
}
