{
	 "smiles": "NC1=NN(C=C1)S(=O)(=O)C1=CC(=CC=C1)C#N", 
	 "Tm": 457.15, 
	 "num_atms": 25, 
	 "gaussian": { 
		 "optdone": 1, 
		 "sigma_profile": "yes", 
		 "theory": "DFT", 
		 "functional": "B3LYP", 
		 "basiset": "6-31G**", 
		 "properties": { 
			 "R2extent": 4758.0247, 
			 "electric_dipole_moment_norm": 5.01422226572, 
			 "electric_quadrupole_moment_norm": 29.1357839115, 
			 "total_energy": -1153.40304846, 
			 "HOMO_LUMO_gap": 0.15509, 
			 "cosmo_polarized_energy": -20.78, 
			 "cosmo_cavitation_energy": 33.17, 
			 "cosmo_dispersion_energy": -23.28, 
			 "cosmo_repulsion_energy": 1.79, 
			 "cosmo_total_nonelectrostatic_energy": 11.67, 
			 "SMD_solvation_energy": 6.1 
		},
		"coords": [
			{
				"x": 2.7838323882,
				"y": 0.6134015734,
				"z": 2.4691978949,
				"element": "N" 
			},
			{
				"x": 1.6209481283,
				"y": -0.1236224861,
				"z": 2.3175444913,
				"element": "C" 
			},
			{
				"x": 1.4420427987,
				"y": -0.9150618129,
				"z": 1.2662159683,
				"element": "N" 
			},
			{
				"x": 0.1744592878,
				"y": -1.4105560412,
				"z": 1.4387300755,
				"element": "N" 
			},
			{
				"x": -0.4380236407,
				"y": -0.9264832221,
				"z": 2.5676041777,
				"element": "C" 
			},
			{
				"x": 0.4728853725,
				"y": -0.1008525409,
				"z": 3.1725387077,
				"element": "C" 
			},
			{
				"x": -0.5271777161,
				"y": -2.3788215527,
				"z": 0.2088152766,
				"element": "S" 
			},
			{
				"x": 0.439233227,
				"y": -3.4061987987,
				"z": -0.1470845784,
				"element": "O" 
			},
			{
				"x": -1.8642068488,
				"y": -2.6871389381,
				"z": 0.7128733978,
				"element": "O" 
			},
			{
				"x": -0.6715548041,
				"y": -1.2372815359,
				"z": -1.1652646408,
				"element": "C" 
			},
			{
				"x": 0.4710625072,
				"y": -0.9106757205,
				"z": -1.8936897136,
				"element": "C" 
			},
			{
				"x": 0.3425650059,
				"y": -0.0196099739,
				"z": -2.968726556,
				"element": "C" 
			},
			{
				"x": -0.9159451935,
				"y": 0.5159651427,
				"z": -3.2988529501,
				"element": "C" 
			},
			{
				"x": -2.0408017424,
				"y": 0.1648967689,
				"z": -2.5574021417,
				"element": "C" 
			},
			{
				"x": -1.9268548923,
				"y": -0.7145831771,
				"z": -1.479021449,
				"element": "C" 
			},
			{
				"x": 1.4981475829,
				"y": 0.3449416962,
				"z": -3.7375402664,
				"element": "C" 
			},
			{
				"x": 2.4294868386,
				"y": 0.6465704687,
				"z": -4.3649544984,
				"element": "N" 
			},
			{
				"x": 3.5375688864,
				"y": 0.2928286341,
				"z": 1.874666933,
				"element": "H" 
			},
			{
				"x": 3.0810702741,
				"y": 0.7391606108,
				"z": 3.4270492207,
				"element": "H" 
			},
			{
				"x": -1.4394189856,
				"y": -1.2288531852,
				"z": 2.8312153418,
				"element": "H" 
			},
			{
				"x": 0.3448449482,
				"y": 0.4505913402,
				"z": 4.092153609,
				"element": "H" 
			},
			{
				"x": 1.4333892016,
				"y": -1.3322805277,
				"z": -1.6304253028,
				"element": "H" 
			},
			{
				"x": -0.9991545621,
				"y": 1.2006126364,
				"z": -4.1360666612,
				"element": "H" 
			},
			{
				"x": -3.010490885,
				"y": 0.5751051381,
				"z": -2.8196937988,
				"element": "H" 
			},
			{
				"x": -2.7913071766,
				"y": -1.0052544963,
				"z": -0.8925825372,
				"element": "H" 
			}
		],
		 "valence_orbital": [ 
			{
				"type": "occ",
				"energy": -0.31086,
				"method": "rhf"
			},
			{
				"type": "occ",
				"energy": -0.29758,
				"method": "rhf"
			},
			{
				"type": "occ",
				"energy": -0.28557,
				"method": "rhf"
			},
			{
				"type": "occ",
				"energy": -0.26595,
				"method": "rhf"
			},
			{
				"type": "occ",
				"energy": -0.22871,
				"method": "rhf"
			},
			{
				"type": "unocc",
				"energy": -0.07362,
				"method": "rhf"
			},
			{
				"type": "unocc",
				"energy": -0.0595,
				"method": "rhf"
			},
			{
				"type": "unocc",
				"energy": -0.0069,
				"method": "rhf"
			},
			{
				"type": "unocc",
				"energy": 0.02315,
				"method": "rhf"
			},
			{
				"type": "unocc",
				"energy": 0.03488,
				"method": "rhf"
			}
		],
		"cosmo_sigma_profile": { 
			"-0.025": 0.0,
			"-0.024": 0.0,
			"-0.023": 0.0,
			"-0.022": 0.0,
			"-0.021": 0.0,
			"-0.02": 0.0,
			"-0.019": 0.0,
			"-0.018": 0.0,
			"-0.017": 0.0,
			"-0.016": 0.0,
			"-0.015": 0.0,
			"-0.014": 0.307318690373,
			"-0.013": 1.83187397422,
			"-0.012": 3.14792357475,
			"-0.011": 1.82880935781,
			"-0.01": 3.78368912934,
			"-0.009": 8.19269553063,
			"-0.008": 13.9865904398,
			"-0.007": 12.6651576043,
			"-0.006": 10.5376651067,
			"-0.005": 13.0964279914,
			"-0.004": 12.2321877955,
			"-0.003": 17.8735852891,
			"-0.002": 16.1836342095,
			"-0.001": 21.3856774897,
			"0.0": 17.2513973343,
			"0.001": 11.7518821517,
			"0.002": 11.3675582253,
			"0.003": 10.8309114092,
			"0.004": 10.3252493791,
			"0.005": 8.37658451895,
			"0.006": 8.90242297755,
			"0.007": 9.36885867073,
			"0.008": 9.27022019795,
			"0.009": 13.6418947079,
			"0.01": 10.5436796746,
			"0.011": 4.34808900124,
			"0.012": 3.58047199567,
			"0.013": 1.2672252148,
			"0.014": 0.258223793099,
			"0.015": 0.0,
			"0.016": 0.0,
			"0.017": 0.0,
			"0.018": 0.0,
			"0.019": 0.0,
			"0.02": 0.0,
			"0.021": 0.0,
			"0.022": 0.0,
			"0.023": 0.0,
			"0.024": 0.0,
			"0.025": 0.0
		}
	}
}
