{
	 "smiles": "NC(=O)C1=CC(O)=CN=C1", 
	 "Tm": 523.15, 
	 "num_atms": 16, 
	 "gaussian": { 
		 "optdone": 1, 
		 "sigma_profile": "yes", 
		 "theory": "DFT", 
		 "functional": "B3LYP", 
		 "basiset": "6-31G**", 
		 "properties": { 
			 "R2extent": 1931.0521, 
			 "electric_dipole_moment_norm": 4.56710090101, 
			 "electric_quadrupole_moment_norm": 14.0987467291, 
			 "total_energy": -492.208098314, 
			 "HOMO_LUMO_gap": 0.19224, 
			 "cosmo_polarized_energy": -19.4, 
			 "cosmo_cavitation_energy": 20.92, 
			 "cosmo_dispersion_energy": -15.68, 
			 "cosmo_repulsion_energy": 1.28, 
			 "cosmo_total_nonelectrostatic_energy": 6.52, 
			 "SMD_solvation_energy": 3.47 
		},
		"coords": [
			{
				"x": -3.4116585157,
				"y": 0.6070025944,
				"z": -1.846512545,
				"element": "N" 
			},
			{
				"x": -2.7710628868,
				"y": 1.2551468742,
				"z": -0.8177627825,
				"element": "C" 
			},
			{
				"x": -3.0625302772,
				"y": 2.3964311633,
				"z": -0.4859932919,
				"element": "O" 
			},
			{
				"x": -1.6714510089,
				"y": 0.4892728156,
				"z": -0.1376844098,
				"element": "C" 
			},
			{
				"x": -1.0152435231,
				"y": -0.5991481557,
				"z": -0.7162884792,
				"element": "C" 
			},
			{
				"x": -0.0027802202,
				"y": -1.2303123153,
				"z": 0.0080944976,
				"element": "C" 
			},
			{
				"x": 0.638136262,
				"y": -2.2880609627,
				"z": -0.5626523078,
				"element": "O" 
			},
			{
				"x": 0.3085216775,
				"y": -0.7409665882,
				"z": 1.2829085504,
				"element": "C" 
			},
			{
				"x": -0.3083159789,
				"y": 0.3045409165,
				"z": 1.839708291,
				"element": "N" 
			},
			{
				"x": -1.2723500402,
				"y": 0.9083109184,
				"z": 1.1405260206,
				"element": "C" 
			},
			{
				"x": -3.4072779275,
				"y": -0.3995817567,
				"z": -1.9011009648,
				"element": "H" 
			},
			{
				"x": -4.2209726744,
				"y": 1.0821221443,
				"z": -2.2199999594,
				"element": "H" 
			},
			{
				"x": -1.2413193762,
				"y": -0.9486288355,
				"z": -1.7186337588,
				"element": "H" 
			},
			{
				"x": 1.3237448502,
				"y": -2.6096867414,
				"z": 0.0382563882,
				"element": "H" 
			},
			{
				"x": 1.0966346178,
				"y": -1.2158111014,
				"z": 1.8705876326,
				"element": "H" 
			},
			{
				"x": -1.7631749784,
				"y": 1.76336903,
				"z": 1.5951471188,
				"element": "H" 
			}
		],
		 "valence_orbital": [ 
			{
				"type": "occ",
				"energy": -0.29017,
				"method": "rhf"
			},
			{
				"type": "occ",
				"energy": -0.27924,
				"method": "rhf"
			},
			{
				"type": "occ",
				"energy": -0.26916,
				"method": "rhf"
			},
			{
				"type": "occ",
				"energy": -0.25167,
				"method": "rhf"
			},
			{
				"type": "occ",
				"energy": -0.24305,
				"method": "rhf"
			},
			{
				"type": "unocc",
				"energy": -0.05081,
				"method": "rhf"
			},
			{
				"type": "unocc",
				"energy": -0.01729,
				"method": "rhf"
			},
			{
				"type": "unocc",
				"energy": 0.05052,
				"method": "rhf"
			},
			{
				"type": "unocc",
				"energy": 0.05538,
				"method": "rhf"
			},
			{
				"type": "unocc",
				"energy": 0.07413,
				"method": "rhf"
			}
		],
		"cosmo_sigma_profile": { 
			"-0.025": 0.0,
			"-0.024": 0.0,
			"-0.023": 0.0,
			"-0.022": 0.0,
			"-0.021": 0.0,
			"-0.02": 0.0,
			"-0.019": 0.14441277374,
			"-0.018": 1.23277848845,
			"-0.017": 1.25100272457,
			"-0.016": 1.15491177861,
			"-0.015": 1.69470531435,
			"-0.014": 2.86007522736,
			"-0.013": 3.72736053104,
			"-0.012": 3.26121567238,
			"-0.011": 3.42045293772,
			"-0.01": 4.61073099006,
			"-0.009": 3.87683474088,
			"-0.008": 3.66069855332,
			"-0.007": 4.55266387757,
			"-0.006": 4.38294961136,
			"-0.005": 5.39985503946,
			"-0.004": 5.19639558753,
			"-0.003": 5.55011842193,
			"-0.002": 6.3921827961,
			"-0.001": 9.30345978764,
			"0.0": 12.2073708535,
			"0.001": 16.0898961858,
			"0.002": 8.97107284496,
			"0.003": 7.62053982436,
			"0.004": 5.66112071257,
			"0.005": 5.49838230324,
			"0.006": 3.81090148466,
			"0.007": 4.76086786718,
			"0.008": 5.07002584694,
			"0.009": 3.54061247326,
			"0.01": 4.368934238,
			"0.011": 3.37778849462,
			"0.012": 3.28228733299,
			"0.013": 6.13261716249,
			"0.014": 3.37114221254,
			"0.015": 0.857175069405,
			"0.016": 0.621629079193,
			"0.017": 0.0119790282775,
			"0.018": 0.0,
			"0.019": 0.0,
			"0.02": 0.0,
			"0.021": 0.0,
			"0.022": 0.0,
			"0.023": 0.0,
			"0.024": 0.0,
			"0.025": 0.0
		}
	}
}
