{
	 "smiles": "OCC1=NOC(=N1)C1=CC=C(F)C=C1", 
	 "Tm": 370.15, 
	 "num_atms": 21, 
	 "gaussian": { 
		 "optdone": 1, 
		 "sigma_profile": "yes", 
		 "theory": "DFT", 
		 "functional": "B3LYP", 
		 "basiset": "6-31G**", 
		 "properties": { 
			 "R2extent": 4054.5068, 
			 "electric_dipole_moment_norm": 2.45577283966, 
			 "electric_quadrupole_moment_norm": 9.44046146065, 
			 "total_energy": -706.914243762, 
			 "HOMO_LUMO_gap": 0.18815, 
			 "cosmo_polarized_energy": -9.93, 
			 "cosmo_cavitation_energy": 26.93, 
			 "cosmo_dispersion_energy": -20.04, 
			 "cosmo_repulsion_energy": 1.55, 
			 "cosmo_total_nonelectrostatic_energy": 8.43, 
			 "SMD_solvation_energy": 3.46 
		},
		"coords": [
			{
				"x": 4.3828570909,
				"y": 1.2627179391,
				"z": -0.6403296955,
				"element": "O" 
			},
			{
				"x": 3.3113539606,
				"y": 1.7415145825,
				"z": 0.1380682407,
				"element": "C" 
			},
			{
				"x": 2.0417911696,
				"y": 0.9624076539,
				"z": -0.0550555459,
				"element": "C" 
			},
			{
				"x": 2.0252434514,
				"y": -0.1575133095,
				"z": -0.7334765564,
				"element": "N" 
			},
			{
				"x": 0.6873109315,
				"y": -0.5769016119,
				"z": -0.6258820827,
				"element": "O" 
			},
			{
				"x": 0.050640078,
				"y": 0.3548980053,
				"z": 0.111541784,
				"element": "C" 
			},
			{
				"x": 0.8376853937,
				"y": 1.3267801548,
				"z": 0.495475123,
				"element": "N" 
			},
			{
				"x": -1.372425699,
				"y": 0.1878419451,
				"z": 0.3845751553,
				"element": "C" 
			},
			{
				"x": -2.0802629744,
				"y": -0.921659745,
				"z": -0.106260924,
				"element": "C" 
			},
			{
				"x": -3.437162353,
				"y": -1.0628624872,
				"z": 0.165961989,
				"element": "C" 
			},
			{
				"x": -4.0713522943,
				"y": -0.0869478557,
				"z": 0.9297056183,
				"element": "C" 
			},
			{
				"x": -5.3829223215,
				"y": -0.2205787103,
				"z": 1.1946144205,
				"element": "F" 
			},
			{
				"x": -3.3942674058,
				"y": 1.023123273,
				"z": 1.4287725577,
				"element": "C" 
			},
			{
				"x": -2.0385566688,
				"y": 1.1575576376,
				"z": 1.152604244,
				"element": "C" 
			},
			{
				"x": 4.3436154399,
				"y": 0.2964250104,
				"z": -0.6416618654,
				"element": "H" 
			},
			{
				"x": 3.1333402818,
				"y": 2.7845875841,
				"z": -0.1454975633,
				"element": "H" 
			},
			{
				"x": 3.5413706574,
				"y": 1.7442689593,
				"z": 1.2173387853,
				"element": "H" 
			},
			{
				"x": -1.5653267894,
				"y": -1.6692310386,
				"z": -0.6995619414,
				"element": "H" 
			},
			{
				"x": -4.0062813543,
				"y": -1.9095060195,
				"z": -0.2012094851,
				"element": "H" 
			},
			{
				"x": -3.9312858677,
				"y": 1.7573959512,
				"z": 2.0187815546,
				"element": "H" 
			},
			{
				"x": -1.4800647264,
				"y": 2.0093820813,
				"z": 1.5246961871,
				"element": "H" 
			}
		],
		 "valence_orbital": [ 
			{
				"type": "occ",
				"energy": -0.3117,
				"method": "rhf"
			},
			{
				"type": "occ",
				"energy": -0.3043,
				"method": "rhf"
			},
			{
				"type": "occ",
				"energy": -0.28182,
				"method": "rhf"
			},
			{
				"type": "occ",
				"energy": -0.27765,
				"method": "rhf"
			},
			{
				"type": "occ",
				"energy": -0.25261,
				"method": "rhf"
			},
			{
				"type": "unocc",
				"energy": -0.06446,
				"method": "rhf"
			},
			{
				"type": "unocc",
				"energy": -0.03028,
				"method": "rhf"
			},
			{
				"type": "unocc",
				"energy": 0.0108,
				"method": "rhf"
			},
			{
				"type": "unocc",
				"energy": 0.0534,
				"method": "rhf"
			},
			{
				"type": "unocc",
				"energy": 0.05864,
				"method": "rhf"
			}
		],
		"cosmo_sigma_profile": { 
			"-0.025": 0.0,
			"-0.024": 0.0,
			"-0.023": 0.0,
			"-0.022": 0.0,
			"-0.021": 0.0,
			"-0.02": 0.0,
			"-0.019": 0.0,
			"-0.018": 0.0,
			"-0.017": 0.0,
			"-0.016": 0.0,
			"-0.015": 0.24147855859,
			"-0.014": 0.350121725038,
			"-0.013": 0.765042983848,
			"-0.012": 1.06114310164,
			"-0.011": 0.761683362807,
			"-0.01": 0.718857005903,
			"-0.009": 0.431476723447,
			"-0.008": 4.72622899713,
			"-0.007": 10.5008713067,
			"-0.006": 12.5662975695,
			"-0.005": 12.2374757035,
			"-0.004": 12.7870507951,
			"-0.003": 13.429129779,
			"-0.002": 14.9779852947,
			"-0.001": 16.0622975381,
			"0.0": 19.4229786401,
			"0.001": 19.3810296223,
			"0.002": 16.8497059866,
			"0.003": 12.3329090277,
			"0.004": 11.6806080271,
			"0.005": 5.10225395182,
			"0.006": 6.79956628765,
			"0.007": 4.17114157919,
			"0.008": 3.27187720766,
			"0.009": 3.41752221727,
			"0.01": 3.63002690778,
			"0.011": 3.57896244078,
			"0.012": 2.79166816569,
			"0.013": 2.18196114574,
			"0.014": 0.387234363643,
			"0.015": 0.0,
			"0.016": 0.0,
			"0.017": 0.0,
			"0.018": 0.0,
			"0.019": 0.0,
			"0.02": 0.0,
			"0.021": 0.0,
			"0.022": 0.0,
			"0.023": 0.0,
			"0.024": 0.0,
			"0.025": 0.0
		}
	}
}
