{
	 "smiles": "BrC1=C(NN=C1C1=CC=CC=C1)N1N=C(SC1=N)C(=O)C1=CC=CS1", 
	 "Tm": 375.15, 
	 "num_atms": 35, 
	 "gaussian": { 
		 "optdone": 1, 
		 "sigma_profile": "yes", 
		 "theory": "DFT", 
		 "functional": "B3LYP", 
		 "basiset": "6-31G**", 
		 "properties": { 
			 "R2extent": 15247.2644, 
			 "electric_dipole_moment_norm": 5.10246521301, 
			 "electric_quadrupole_moment_norm": 30.7025215149, 
			 "total_energy": -4332.40592575, 
			 "HOMO_LUMO_gap": 0.13267, 
			 "cosmo_polarized_energy": -19.24, 
			 "cosmo_cavitation_energy": 46.85, 
			 "cosmo_dispersion_energy": -34.24, 
			 "cosmo_repulsion_energy": 2.49, 
			 "cosmo_total_nonelectrostatic_energy": 15.1, 
			 "SMD_solvation_energy": 4.76 
		},
		"coords": [
			{
				"x": -0.542411123,
				"y": 2.5982478997,
				"z": -0.0529331346,
				"element": "Br" 
			},
			{
				"x": 0.5638906133,
				"y": 1.1481224813,
				"z": -0.5150648944,
				"element": "C" 
			},
			{
				"x": 0.894916081,
				"y": 0.1151822523,
				"z": 0.3476890843,
				"element": "C" 
			},
			{
				"x": 1.6247049508,
				"y": -0.7636448339,
				"z": -0.3893036015,
				"element": "N" 
			},
			{
				"x": 1.773216884,
				"y": -0.3780800973,
				"z": -1.6654877393,
				"element": "N" 
			},
			{
				"x": 1.143271001,
				"y": 0.80129595,
				"z": -1.7710639172,
				"element": "C" 
			},
			{
				"x": 1.1158560651,
				"y": 1.4973394544,
				"z": -3.0708830983,
				"element": "C" 
			},
			{
				"x": 1.0223862282,
				"y": 2.8944166952,
				"z": -3.1653884027,
				"element": "C" 
			},
			{
				"x": 1.0200690961,
				"y": 3.5186729423,
				"z": -4.4127975447,
				"element": "C" 
			},
			{
				"x": 1.1145668764,
				"y": 2.7613697184,
				"z": -5.5807531693,
				"element": "C" 
			},
			{
				"x": 1.2157178635,
				"y": 1.3704480697,
				"z": -5.4950525698,
				"element": "C" 
			},
			{
				"x": 1.2155004187,
				"y": 0.7425912957,
				"z": -4.2524987424,
				"element": "C" 
			},
			{
				"x": 0.6065186584,
				"y": -0.1066591521,
				"z": 1.6972756036,
				"element": "N" 
			},
			{
				"x": -0.0080812086,
				"y": -1.2780684087,
				"z": 2.0411156239,
				"element": "N" 
			},
			{
				"x": -0.1082912067,
				"y": -1.3903199114,
				"z": 3.3244359193,
				"element": "C" 
			},
			{
				"x": 0.5624180067,
				"y": -0.0656605867,
				"z": 4.2793893586,
				"element": "S" 
			},
			{
				"x": 1.0699711233,
				"y": 0.7292951738,
				"z": 2.7594408526,
				"element": "C" 
			},
			{
				"x": 1.7185815786,
				"y": 1.8136567242,
				"z": 2.7186976595,
				"element": "N" 
			},
			{
				"x": -0.7258935033,
				"y": -2.5319566223,
				"z": 4.0611564712,
				"element": "C" 
			},
			{
				"x": -0.6719613277,
				"y": -2.4972640224,
				"z": 5.2893814673,
				"element": "O" 
			},
			{
				"x": -1.3634039516,
				"y": -3.6369502992,
				"z": 3.3461209729,
				"element": "C" 
			},
			{
				"x": -1.6004484966,
				"y": -3.8583398061,
				"z": 2.0015537246,
				"element": "C" 
			},
			{
				"x": -2.2759166954,
				"y": -5.0799175043,
				"z": 1.7556049974,
				"element": "C" 
			},
			{
				"x": -2.5461345378,
				"y": -5.7717995879,
				"z": 2.9124230204,
				"element": "C" 
			},
			{
				"x": -1.9891197023,
				"y": -4.9509697235,
				"z": 4.3203495092,
				"element": "S" 
			},
			{
				"x": 2.0108948526,
				"y": -1.6424267664,
				"z": -0.0770074032,
				"element": "H" 
			},
			{
				"x": 0.9637837508,
				"y": 3.4964346781,
				"z": -2.2662842986,
				"element": "H" 
			},
			{
				"x": 0.9500995773,
				"y": 4.6010987164,
				"z": -4.4689780899,
				"element": "H" 
			},
			{
				"x": 1.1106945494,
				"y": 3.2502557587,
				"z": -6.5506570183,
				"element": "H" 
			},
			{
				"x": 1.2903533193,
				"y": 0.77281905,
				"z": -6.3990338614,
				"element": "H" 
			},
			{
				"x": 1.2920032495,
				"y": -0.3370023175,
				"z": -4.1810010934,
				"element": "H" 
			},
			{
				"x": 1.9078818651,
				"y": 2.1254704654,
				"z": 1.7662135709,
				"element": "H" 
			},
			{
				"x": -1.298415055,
				"y": -3.1593225623,
				"z": 1.2336356061,
				"element": "H" 
			},
			{
				"x": -2.5521740554,
				"y": -5.430917413,
				"z": 0.7682485426,
				"element": "H" 
			},
			{
				"x": -3.0481457456,
				"y": -6.7254177104,
				"z": 3.0085565947,
				"element": "H" 
			}
		],
		 "valence_orbital": [ 
			{
				"type": "occ",
				"energy": -0.26335,
				"method": "rhf"
			},
			{
				"type": "occ",
				"energy": -0.2591,
				"method": "rhf"
			},
			{
				"type": "occ",
				"energy": -0.25464,
				"method": "rhf"
			},
			{
				"type": "occ",
				"energy": -0.23868,
				"method": "rhf"
			},
			{
				"type": "occ",
				"energy": -0.23201,
				"method": "rhf"
			},
			{
				"type": "unocc",
				"energy": -0.09934,
				"method": "rhf"
			},
			{
				"type": "unocc",
				"energy": -0.03621,
				"method": "rhf"
			},
			{
				"type": "unocc",
				"energy": -0.0339,
				"method": "rhf"
			},
			{
				"type": "unocc",
				"energy": -0.02052,
				"method": "rhf"
			},
			{
				"type": "unocc",
				"energy": -0.0048,
				"method": "rhf"
			}
		],
		"cosmo_sigma_profile": { 
			"-0.025": 0.0,
			"-0.024": 0.0,
			"-0.023": 0.0,
			"-0.022": 0.0,
			"-0.021": 0.0,
			"-0.02": 0.0,
			"-0.019": 0.0261363501071,
			"-0.018": 0.960506827514,
			"-0.017": 1.42332894783,
			"-0.016": 1.18373133962,
			"-0.015": 0.560657996845,
			"-0.014": 1.08761905286,
			"-0.013": 1.66264137505,
			"-0.012": 0.938984704619,
			"-0.011": 0.929059725028,
			"-0.01": 2.75512754796,
			"-0.009": 4.97753808879,
			"-0.008": 5.30498240491,
			"-0.007": 7.120730281,
			"-0.006": 13.654161612,
			"-0.005": 20.4791611503,
			"-0.004": 25.1649482757,
			"-0.003": 22.6641586123,
			"-0.002": 23.7439624456,
			"-0.001": 28.4966553501,
			"0.0": 34.2869920454,
			"0.001": 40.6874440955,
			"0.002": 43.0965771111,
			"0.003": 33.6555761095,
			"0.004": 19.1659240042,
			"0.005": 16.2164255436,
			"0.006": 6.64957001819,
			"0.007": 4.14320090731,
			"0.008": 3.95973594018,
			"0.009": 5.12113768936,
			"0.01": 5.58852960222,
			"0.011": 5.0819043497,
			"0.012": 1.63580572286,
			"0.013": 1.15763786506,
			"0.014": 1.45635078801,
			"0.015": 0.923713251646,
			"0.016": 0.521963678013,
			"0.017": 0.0,
			"0.018": 0.0,
			"0.019": 0.0,
			"0.02": 0.0,
			"0.021": 0.0,
			"0.022": 0.0,
			"0.023": 0.0,
			"0.024": 0.0,
			"0.025": 0.0
		}
	}
}
