{
	 "smiles": "OC(=O)C1=CC=C(C=C1)N1C=NN=N1", 
	 "Tm": 498.15, 
	 "num_atms": 20, 
	 "gaussian": { 
		 "optdone": 1, 
		 "sigma_profile": "yes", 
		 "theory": "DFT", 
		 "functional": "B3LYP", 
		 "basiset": "6-31G**", 
		 "properties": { 
			 "R2extent": 4081.0737, 
			 "electric_dipole_moment_norm": 4.43139708444, 
			 "electric_quadrupole_moment_norm": 30.7666637774, 
			 "total_energy": -677.863366033, 
			 "HOMO_LUMO_gap": 0.19319, 
			 "cosmo_polarized_energy": -24.74, 
			 "cosmo_cavitation_energy": 26.04, 
			 "cosmo_dispersion_energy": -19.2, 
			 "cosmo_repulsion_energy": 1.47, 
			 "cosmo_total_nonelectrostatic_energy": 8.31, 
			 "SMD_solvation_energy": 4.38 
		},
		"coords": [
			{
				"x": 3.6114409256,
				"y": -0.4872579713,
				"z": -1.8842221718,
				"element": "O" 
			},
			{
				"x": 2.558007889,
				"y": -1.2259797795,
				"z": -2.321908724,
				"element": "C" 
			},
			{
				"x": 2.7010312894,
				"y": -2.0101024532,
				"z": -3.2288448373,
				"element": "O" 
			},
			{
				"x": 1.2432216898,
				"y": -1.0086477472,
				"z": -1.6311541768,
				"element": "C" 
			},
			{
				"x": 0.2776783747,
				"y": -2.0196996085,
				"z": -1.7388108531,
				"element": "C" 
			},
			{
				"x": -0.968093908,
				"y": -1.8811883731,
				"z": -1.1406299637,
				"element": "C" 
			},
			{
				"x": -1.2593580337,
				"y": -0.7093663502,
				"z": -0.4324301313,
				"element": "C" 
			},
			{
				"x": -0.3143638924,
				"y": 0.314248803,
				"z": -0.3216355397,
				"element": "C" 
			},
			{
				"x": 0.9302804102,
				"y": 0.1615842303,
				"z": -0.9276963143,
				"element": "C" 
			},
			{
				"x": -2.5356728285,
				"y": -0.5632530282,
				"z": 0.1725873122,
				"element": "N" 
			},
			{
				"x": -3.247126818,
				"y": 0.5455380493,
				"z": 0.4928501671,
				"element": "C" 
			},
			{
				"x": -4.3899147888,
				"y": 0.1837498171,
				"z": 1.0301774161,
				"element": "N" 
			},
			{
				"x": -4.3772195389,
				"y": -1.181131739,
				"z": 1.038219757,
				"element": "N" 
			},
			{
				"x": -3.2863625981,
				"y": -1.6431982164,
				"z": 0.5309473865,
				"element": "N" 
			},
			{
				"x": 3.39632111,
				"y": -0.0485023007,
				"z": -1.0497480072,
				"element": "H" 
			},
			{
				"x": 0.5232710211,
				"y": -2.9101585156,
				"z": -2.3067824056,
				"element": "H" 
			},
			{
				"x": -1.7176931094,
				"y": -2.6598134378,
				"z": -1.2134292248,
				"element": "H" 
			},
			{
				"x": -0.5376946767,
				"y": 1.2149168356,
				"z": 0.2397415783,
				"element": "H" 
			},
			{
				"x": 1.6399811251,
				"y": 0.9820562731,
				"z": -0.8639820498,
				"element": "H" 
			},
			{
				"x": -2.9228336425,
				"y": 1.5570055124,
				"z": 0.305950782,
				"element": "H" 
			}
		],
		 "valence_orbital": [ 
			{
				"type": "occ",
				"energy": -0.31283,
				"method": "rhf"
			},
			{
				"type": "occ",
				"energy": -0.30063,
				"method": "rhf"
			},
			{
				"type": "occ",
				"energy": -0.29904,
				"method": "rhf"
			},
			{
				"type": "occ",
				"energy": -0.29127,
				"method": "rhf"
			},
			{
				"type": "occ",
				"energy": -0.27741,
				"method": "rhf"
			},
			{
				"type": "unocc",
				"energy": -0.08422,
				"method": "rhf"
			},
			{
				"type": "unocc",
				"energy": -0.05032,
				"method": "rhf"
			},
			{
				"type": "unocc",
				"energy": -0.02612,
				"method": "rhf"
			},
			{
				"type": "unocc",
				"energy": 0.00495,
				"method": "rhf"
			},
			{
				"type": "unocc",
				"energy": 0.03272,
				"method": "rhf"
			}
		],
		"cosmo_sigma_profile": { 
			"-0.025": 0.0,
			"-0.024": 0.0,
			"-0.023": 0.0,
			"-0.022": 0.0,
			"-0.021": 0.0,
			"-0.02": 0.0274034465521,
			"-0.019": 0.585088734913,
			"-0.018": 0.918435557223,
			"-0.017": 1.03996512115,
			"-0.016": 1.54514028801,
			"-0.015": 0.512713465885,
			"-0.014": 1.49288546477,
			"-0.013": 3.19216880228,
			"-0.012": 3.4686626341,
			"-0.011": 4.2277223607,
			"-0.01": 3.54174613357,
			"-0.009": 4.49230298409,
			"-0.008": 6.69283488518,
			"-0.007": 8.63133654943,
			"-0.006": 8.07530596,
			"-0.005": 11.0711338599,
			"-0.004": 10.9765454199,
			"-0.003": 10.1383186101,
			"-0.002": 11.3432503271,
			"-0.001": 10.845657185,
			"0.0": 12.7301021812,
			"0.001": 16.1775929944,
			"0.002": 7.19368811277,
			"0.003": 5.78076109516,
			"0.004": 4.04834404111,
			"0.005": 5.02275114949,
			"0.006": 5.8352934951,
			"0.007": 7.36114369921,
			"0.008": 7.61017629233,
			"0.009": 8.05695302279,
			"0.01": 9.6512984135,
			"0.011": 7.7916880497,
			"0.012": 6.41690399953,
			"0.013": 3.03664452003,
			"0.014": 1.04733145027,
			"0.015": 0.204699786486,
			"0.016": 0.0,
			"0.017": 0.0,
			"0.018": 0.0,
			"0.019": 0.0,
			"0.02": 0.0,
			"0.021": 0.0,
			"0.022": 0.0,
			"0.023": 0.0,
			"0.024": 0.0,
			"0.025": 0.0
		}
	}
}
