{
	 "smiles": "CCC1=C(N)ON=C1C(C)(C)C", 
	 "Tm": 349.15, 
	 "num_atms": 28, 
	 "gaussian": { 
		 "optdone": 1, 
		 "sigma_profile": "yes", 
		 "theory": "DFT", 
		 "functional": "B3LYP", 
		 "basiset": "6-31G**", 
		 "properties": { 
			 "R2extent": 2481.2914, 
			 "electric_dipole_moment_norm": 3.55708845265, 
			 "electric_quadrupole_moment_norm": 10.6354694462, 
			 "total_energy": -537.299243026, 
			 "HOMO_LUMO_gap": 0.22607, 
			 "cosmo_polarized_energy": -12.35, 
			 "cosmo_cavitation_energy": 29.14, 
			 "cosmo_dispersion_energy": -20.52, 
			 "cosmo_repulsion_energy": 1.64, 
			 "cosmo_total_nonelectrostatic_energy": 10.25, 
			 "SMD_solvation_energy": 5.4 
		},
		"coords": [
			{
				"x": 1.1984296338,
				"y": 2.5360239617,
				"z": -2.7163351114,
				"element": "C" 
			},
			{
				"x": 0.2460803523,
				"y": 2.4449327037,
				"z": -1.5088104597,
				"element": "C" 
			},
			{
				"x": 0.5931519912,
				"y": 1.3462884552,
				"z": -0.5384343348,
				"element": "C" 
			},
			{
				"x": 1.6244850931,
				"y": 1.3909780265,
				"z": 0.3675844886,
				"element": "C" 
			},
			{
				"x": 2.5829751063,
				"y": 2.3465655425,
				"z": 0.6335330931,
				"element": "N" 
			},
			{
				"x": 1.7076974815,
				"y": 0.2527207486,
				"z": 1.0696413418,
				"element": "O" 
			},
			{
				"x": 0.6844191826,
				"y": -0.6211657779,
				"z": 0.6259597171,
				"element": "N" 
			},
			{
				"x": 0.0419781093,
				"y": 0.0366926793,
				"z": -0.317098332,
				"element": "C" 
			},
			{
				"x": -1.1526251092,
				"y": -0.6386201777,
				"z": -0.9830069564,
				"element": "C" 
			},
			{
				"x": -1.3034565476,
				"y": -2.0868724681,
				"z": -0.4747376992,
				"element": "C" 
			},
			{
				"x": -0.9563493422,
				"y": -0.6726493185,
				"z": -2.5153630864,
				"element": "C" 
			},
			{
				"x": -2.4403221192,
				"y": 0.143738577,
				"z": -0.6331571241,
				"element": "C" 
			},
			{
				"x": 0.9253839257,
				"y": 3.370647369,
				"z": -3.3713299839,
				"element": "H" 
			},
			{
				"x": 1.1713489028,
				"y": 1.6156642655,
				"z": -3.3072798555,
				"element": "H" 
			},
			{
				"x": 2.2325186425,
				"y": 2.6842132806,
				"z": -2.3889821706,
				"element": "H" 
			},
			{
				"x": 0.2533922756,
				"y": 3.4104376837,
				"z": -0.9801939191,
				"element": "H" 
			},
			{
				"x": -0.781303404,
				"y": 2.324975864,
				"z": -1.8633344042,
				"element": "H" 
			},
			{
				"x": 2.2963788019,
				"y": 3.2938448825,
				"z": 0.4257652552,
				"element": "H" 
			},
			{
				"x": 3.0057987707,
				"y": 2.2587423542,
				"z": 1.5488685476,
				"element": "H" 
			},
			{
				"x": -2.1698531905,
				"y": -2.5536639766,
				"z": -0.9558916182,
				"element": "H" 
			},
			{
				"x": -1.4483911235,
				"y": -2.1168526303,
				"z": 0.6077241348,
				"element": "H" 
			},
			{
				"x": -0.4164745733,
				"y": -2.6832068412,
				"z": -0.7039369934,
				"element": "H" 
			},
			{
				"x": -0.041351455,
				"y": -1.2123017632,
				"z": -2.779888883,
				"element": "H" 
			},
			{
				"x": -1.8002361199,
				"y": -1.187842849,
				"z": -2.9874565297,
				"element": "H" 
			},
			{
				"x": -0.8960680042,
				"y": 0.3289073293,
				"z": -2.9494619937,
				"element": "H" 
			},
			{
				"x": -3.308581052,
				"y": -0.3361821004,
				"z": -1.0984103174,
				"element": "H" 
			},
			{
				"x": -2.6014274595,
				"y": 0.1604176963,
				"z": 0.4492878953,
				"element": "H" 
			},
			{
				"x": -2.4047987693,
				"y": 1.1793664836,
				"z": -0.9836547006,
				"element": "H" 
			}
		],
		 "valence_orbital": [ 
			{
				"type": "occ",
				"energy": -0.32545,
				"method": "rhf"
			},
			{
				"type": "occ",
				"energy": -0.32209,
				"method": "rhf"
			},
			{
				"type": "occ",
				"energy": -0.28136,
				"method": "rhf"
			},
			{
				"type": "occ",
				"energy": -0.26614,
				"method": "rhf"
			},
			{
				"type": "occ",
				"energy": -0.20604,
				"method": "rhf"
			},
			{
				"type": "unocc",
				"energy": 0.02003,
				"method": "rhf"
			},
			{
				"type": "unocc",
				"energy": 0.05434,
				"method": "rhf"
			},
			{
				"type": "unocc",
				"energy": 0.07402,
				"method": "rhf"
			},
			{
				"type": "unocc",
				"energy": 0.08473,
				"method": "rhf"
			},
			{
				"type": "unocc",
				"energy": 0.11401,
				"method": "rhf"
			}
		],
		"cosmo_sigma_profile": { 
			"-0.025": 0.0,
			"-0.024": 0.0,
			"-0.023": 0.0,
			"-0.022": 0.0,
			"-0.021": 0.0,
			"-0.02": 0.0,
			"-0.019": 0.0,
			"-0.018": 0.0,
			"-0.017": 0.0,
			"-0.016": 0.0,
			"-0.015": 0.0334559112376,
			"-0.014": 0.971264194866,
			"-0.013": 2.67413258982,
			"-0.012": 2.24759616422,
			"-0.011": 2.97354465819,
			"-0.01": 2.85187034503,
			"-0.009": 2.03066681079,
			"-0.008": 2.39414109553,
			"-0.007": 2.46844403598,
			"-0.006": 2.026523134,
			"-0.005": 3.40472821879,
			"-0.004": 6.79585767459,
			"-0.003": 19.7114889502,
			"-0.002": 28.00875367,
			"-0.001": 29.0086911146,
			"0.0": 28.2332595554,
			"0.001": 30.6887628454,
			"0.002": 14.0237349432,
			"0.003": 8.59963898105,
			"0.004": 6.15100098412,
			"0.005": 3.79519671608,
			"0.006": 3.0729252194,
			"0.007": 3.76257456261,
			"0.008": 2.85732352043,
			"0.009": 5.08140754989,
			"0.01": 4.16256398047,
			"0.011": 2.13010043979,
			"0.012": 2.16461665133,
			"0.013": 1.34643020219,
			"0.014": 1.33713895673,
			"0.015": 1.03531868427,
			"0.016": 0.31531677588,
			"0.017": 0.0,
			"0.018": 0.0,
			"0.019": 0.0,
			"0.02": 0.0,
			"0.021": 0.0,
			"0.022": 0.0,
			"0.023": 0.0,
			"0.024": 0.0,
			"0.025": 0.0
		}
	}
}
