{
	 "smiles": "OC(=O)CCCOC1=CC=CC=C1", 
	 "Tm": 336.15, 
	 "num_atms": 25, 
	 "gaussian": { 
		 "optdone": 1, 
		 "sigma_profile": "yes", 
		 "theory": "DFT", 
		 "functional": "B3LYP", 
		 "basiset": "6-31G**", 
		 "properties": { 
			 "R2extent": 4729.9236, 
			 "electric_dipole_moment_norm": 2.4242182245, 
			 "electric_quadrupole_moment_norm": 16.5557477065, 
			 "total_energy": -613.978639607, 
			 "HOMO_LUMO_gap": 0.219, 
			 "cosmo_polarized_energy": -12.0, 
			 "cosmo_cavitation_energy": 29.1, 
			 "cosmo_dispersion_energy": -20.85, 
			 "cosmo_repulsion_energy": 1.69, 
			 "cosmo_total_nonelectrostatic_energy": 9.94, 
			 "SMD_solvation_energy": 6.17 
		},
		"coords": [
			{
				"x": -3.8146717005,
				"y": -2.1987649782,
				"z": -0.9606077538,
				"element": "O" 
			},
			{
				"x": -2.7918831434,
				"y": -3.091712684,
				"z": -0.8871515522,
				"element": "C" 
			},
			{
				"x": -2.743564912,
				"y": -4.07251877,
				"z": -1.5944633117,
				"element": "O" 
			},
			{
				"x": -1.7801740332,
				"y": -2.7407252271,
				"z": 0.1861831735,
				"element": "C" 
			},
			{
				"x": -1.6307380039,
				"y": -1.2500089704,
				"z": 0.5195230799,
				"element": "C" 
			},
			{
				"x": -1.0671249306,
				"y": -0.4151303886,
				"z": -0.6241502731,
				"element": "C" 
			},
			{
				"x": 0.2351458744,
				"y": -0.9110416444,
				"z": -0.92386242,
				"element": "O" 
			},
			{
				"x": 0.9455913724,
				"y": -0.3299005023,
				"z": -1.9374781968,
				"element": "C" 
			},
			{
				"x": 0.4932655272,
				"y": 0.7492973257,
				"z": -2.706016602,
				"element": "C" 
			},
			{
				"x": 1.312033074,
				"y": 1.2637036278,
				"z": -3.7170142206,
				"element": "C" 
			},
			{
				"x": 2.5687240386,
				"y": 0.7185138974,
				"z": -3.9687038687,
				"element": "C" 
			},
			{
				"x": 3.0121978069,
				"y": -0.3599274335,
				"z": -3.1948962055,
				"element": "C" 
			},
			{
				"x": 2.2105987796,
				"y": -0.8830012299,
				"z": -2.1865965606,
				"element": "C" 
			},
			{
				"x": -4.4094406348,
				"y": -2.5360361766,
				"z": -1.6518022307,
				"element": "H" 
			},
			{
				"x": -2.090247258,
				"y": -3.2868358724,
				"z": 1.0868323083,
				"element": "H" 
			},
			{
				"x": -0.8262367905,
				"y": -3.169595105,
				"z": -0.1276823107,
				"element": "H" 
			},
			{
				"x": -2.6000465793,
				"y": -0.829621072,
				"z": 0.8046177362,
				"element": "H" 
			},
			{
				"x": -0.9646274324,
				"y": -1.1506129296,
				"z": 1.3836054355,
				"element": "H" 
			},
			{
				"x": -1.7135373945,
				"y": -0.4824932236,
				"z": -1.5102151924,
				"element": "H" 
			},
			{
				"x": -1.0104446372,
				"y": 0.6418224275,
				"z": -0.3280520167,
				"element": "H" 
			},
			{
				"x": -0.4801136518,
				"y": 1.1913303706,
				"z": -2.5297392505,
				"element": "H" 
			},
			{
				"x": 0.9536555135,
				"y": 2.1011252665,
				"z": -4.3093870624,
				"element": "H" 
			},
			{
				"x": 3.1963696542,
				"y": 1.1248423489,
				"z": -4.7556967565,
				"element": "H" 
			},
			{
				"x": 3.9895839662,
				"y": -0.7971038567,
				"z": -3.3790518005,
				"element": "H" 
			},
			{
				"x": 2.538185495,
				"y": -1.7196052003,
				"z": -1.5778941483,
				"element": "H" 
			}
		],
		 "valence_orbital": [ 
			{
				"type": "occ",
				"energy": -0.31968,
				"method": "rhf"
			},
			{
				"type": "occ",
				"energy": -0.3134,
				"method": "rhf"
			},
			{
				"type": "occ",
				"energy": -0.27323,
				"method": "rhf"
			},
			{
				"type": "occ",
				"energy": -0.24756,
				"method": "rhf"
			},
			{
				"type": "occ",
				"energy": -0.2172,
				"method": "rhf"
			},
			{
				"type": "unocc",
				"energy": 0.0018,
				"method": "rhf"
			},
			{
				"type": "unocc",
				"energy": 0.00723,
				"method": "rhf"
			},
			{
				"type": "unocc",
				"energy": 0.01586,
				"method": "rhf"
			},
			{
				"type": "unocc",
				"energy": 0.07044,
				"method": "rhf"
			},
			{
				"type": "unocc",
				"energy": 0.09287,
				"method": "rhf"
			}
		],
		"cosmo_sigma_profile": { 
			"-0.025": 0.0,
			"-0.024": 0.0,
			"-0.023": 0.0,
			"-0.022": 0.0,
			"-0.021": 0.0,
			"-0.02": 0.0,
			"-0.019": 0.0,
			"-0.018": 0.335979445598,
			"-0.017": 1.21601854692,
			"-0.016": 0.624656471794,
			"-0.015": 0.786181188719,
			"-0.014": 0.819689134431,
			"-0.013": 0.685461714708,
			"-0.012": 0.826160333466,
			"-0.011": 0.728558368581,
			"-0.01": 0.84918408433,
			"-0.009": 0.484347027095,
			"-0.008": 0.488640611238,
			"-0.007": 2.64921107489,
			"-0.006": 8.88816353398,
			"-0.005": 18.7021214644,
			"-0.004": 24.9807751557,
			"-0.003": 24.4819379509,
			"-0.002": 19.3831764647,
			"-0.001": 15.2072537017,
			"0.0": 10.5808308242,
			"0.001": 9.89131166345,
			"0.002": 10.6313386449,
			"0.003": 12.2465413885,
			"0.004": 14.6311252273,
			"0.005": 13.6340470748,
			"0.006": 13.2606843412,
			"0.007": 4.92849042762,
			"0.008": 3.56041756494,
			"0.009": 2.11807241337,
			"0.01": 2.36775504978,
			"0.011": 3.38463313649,
			"0.012": 5.06192406317,
			"0.013": 1.39916900425,
			"0.014": 0.0249527309225,
			"0.015": 0.0,
			"0.016": 0.0,
			"0.017": 0.0,
			"0.018": 0.0,
			"0.019": 0.0,
			"0.02": 0.0,
			"0.021": 0.0,
			"0.022": 0.0,
			"0.023": 0.0,
			"0.024": 0.0,
			"0.025": 0.0
		}
	}
}
