{
	 "smiles": "CCCC(=O)OC", 
	 "Tm": 188.65, 
	 "num_atms": 17, 
	 "gaussian": { 
		 "optdone": 1, 
		 "sigma_profile": "yes", 
		 "theory": "DFT", 
		 "functional": "B3LYP", 
		 "basiset": "6-31G**", 
		 "properties": { 
			 "R2extent": 1976.8084, 
			 "electric_dipole_moment_norm": 1.56953145556, 
			 "electric_quadrupole_moment_norm": 9.67925394026, 
			 "total_energy": -347.024452338, 
			 "HOMO_LUMO_gap": 0.28371, 
			 "cosmo_polarized_energy": -6.03, 
			 "cosmo_cavitation_energy": 20.05, 
			 "cosmo_dispersion_energy": -14.7, 
			 "cosmo_repulsion_energy": 1.28, 
			 "cosmo_total_nonelectrostatic_energy": 6.63, 
			 "SMD_solvation_energy": 5.06 
		},
		"coords": [
			{
				"x": 2.069058454,
				"y": -0.3286312801,
				"z": -0.8443311378,
				"element": "C" 
			},
			{
				"x": 0.8900274895,
				"y": 0.0691577989,
				"z": 0.0497471164,
				"element": "C" 
			},
			{
				"x": -0.0147349523,
				"y": -1.1089326072,
				"z": 0.4263967924,
				"element": "C" 
			},
			{
				"x": 0.6436410548,
				"y": -2.0931118469,
				"z": 1.3752472252,
				"element": "C" 
			},
			{
				"x": 1.6406300472,
				"y": -1.8849904453,
				"z": 2.033912748,
				"element": "O" 
			},
			{
				"x": -0.0478819286,
				"y": -3.2551519568,
				"z": 1.4241723931,
				"element": "O" 
			},
			{
				"x": 0.4696225006,
				"y": -4.2402319472,
				"z": 2.3330137313,
				"element": "C" 
			},
			{
				"x": 2.7172313728,
				"y": -1.0487424885,
				"z": -0.3367501011,
				"element": "H" 
			},
			{
				"x": 1.7227601171,
				"y": -0.7808075854,
				"z": -1.781281159,
				"element": "H" 
			},
			{
				"x": 2.6774874299,
				"y": 0.544068396,
				"z": -1.1021850377,
				"element": "H" 
			},
			{
				"x": 1.2663790958,
				"y": 0.5296451671,
				"z": 0.9693081751,
				"element": "H" 
			},
			{
				"x": 0.278578424,
				"y": 0.8241598896,
				"z": -0.4585459335,
				"element": "H" 
			},
			{
				"x": -0.3567585188,
				"y": -1.656662774,
				"z": -0.4592529634,
				"element": "H" 
			},
			{
				"x": -0.9254187521,
				"y": -0.7528290098,
				"z": 0.9266328662,
				"element": "H" 
			},
			{
				"x": 1.4908017561,
				"y": -4.518192865,
				"z": 2.0600771669,
				"element": "H" 
			},
			{
				"x": 0.4726951661,
				"y": -3.8579741889,
				"z": 3.3570564303,
				"element": "H" 
			},
			{
				"x": -0.196118756,
				"y": -5.0991722564,
				"z": 2.2477816877,
				"element": "H" 
			}
		],
		 "valence_orbital": [ 
			{
				"type": "occ",
				"energy": -0.34022,
				"method": "rhf"
			},
			{
				"type": "occ",
				"energy": -0.33654,
				"method": "rhf"
			},
			{
				"type": "occ",
				"energy": -0.33496,
				"method": "rhf"
			},
			{
				"type": "occ",
				"energy": -0.29894,
				"method": "rhf"
			},
			{
				"type": "occ",
				"energy": -0.26863,
				"method": "rhf"
			},
			{
				"type": "unocc",
				"energy": 0.01508,
				"method": "rhf"
			},
			{
				"type": "unocc",
				"energy": 0.09463,
				"method": "rhf"
			},
			{
				"type": "unocc",
				"energy": 0.11734,
				"method": "rhf"
			},
			{
				"type": "unocc",
				"energy": 0.12833,
				"method": "rhf"
			},
			{
				"type": "unocc",
				"energy": 0.14436,
				"method": "rhf"
			}
		],
		"cosmo_sigma_profile": { 
			"-0.025": 0.0,
			"-0.024": 0.0,
			"-0.023": 0.0,
			"-0.022": 0.0,
			"-0.021": 0.0,
			"-0.02": 0.0,
			"-0.019": 0.0,
			"-0.018": 0.0,
			"-0.017": 0.0,
			"-0.016": 0.0,
			"-0.015": 0.0,
			"-0.014": 0.0,
			"-0.013": 0.0,
			"-0.012": 0.0,
			"-0.011": 0.0,
			"-0.01": 0.0,
			"-0.009": 0.0,
			"-0.008": 0.0,
			"-0.007": 0.340586703296,
			"-0.006": 5.71937318153,
			"-0.005": 10.2618238039,
			"-0.004": 11.6478285053,
			"-0.003": 21.6106396471,
			"-0.002": 22.1299400972,
			"-0.001": 18.4583312415,
			"0.0": 14.9948483144,
			"0.001": 12.7895841238,
			"0.002": 7.38057221463,
			"0.003": 3.57726629371,
			"0.004": 3.43526423668,
			"0.005": 3.11535164259,
			"0.006": 2.29605582464,
			"0.007": 2.91987221333,
			"0.008": 2.94110701508,
			"0.009": 3.11620342902,
			"0.01": 1.87210583814,
			"0.011": 2.13925679021,
			"0.012": 4.43384854538,
			"0.013": 1.0808966016,
			"0.014": 0.0,
			"0.015": 0.0,
			"0.016": 0.0,
			"0.017": 0.0,
			"0.018": 0.0,
			"0.019": 0.0,
			"0.02": 0.0,
			"0.021": 0.0,
			"0.022": 0.0,
			"0.023": 0.0,
			"0.024": 0.0,
			"0.025": 0.0
		}
	}
}
