{
	 "smiles": "OC[C@H]1N[C@H](CO)[C@@H](O)[C@@H]1O", 
	 "Tm": 375.15, 
	 "num_atms": 24, 
	 "gaussian": { 
		 "optdone": 1, 
		 "sigma_profile": "yes", 
		 "theory": "DFT", 
		 "functional": "B3LYP", 
		 "basiset": "6-31G**", 
		 "properties": { 
			 "R2extent": 2095.1434, 
			 "electric_dipole_moment_norm": 2.43772330464, 
			 "electric_quadrupole_moment_norm": 17.9636079722, 
			 "total_energy": -592.067266695, 
			 "HOMO_LUMO_gap": 0.28268, 
			 "cosmo_polarized_energy": -21.65, 
			 "cosmo_cavitation_energy": 25.56, 
			 "cosmo_dispersion_energy": -18.72, 
			 "cosmo_repulsion_energy": 1.54, 
			 "cosmo_total_nonelectrostatic_energy": 8.39, 
			 "SMD_solvation_energy": 2.2 
		},
		"coords": [
			{
				"x": -0.765481055,
				"y": 2.2102841608,
				"z": 3.2936423755,
				"element": "O" 
			},
			{
				"x": 0.3494437057,
				"y": 1.9478175964,
				"z": 2.4440367401,
				"element": "C" 
			},
			{
				"x": -0.0297105647,
				"y": 1.9820790642,
				"z": 0.9537321865,
				"element": "C" 
			},
			{
				"x": 1.1566744644,
				"y": 1.7135037249,
				"z": 0.1188308893,
				"element": "N" 
			},
			{
				"x": 1.0954855311,
				"y": 0.3194257909,
				"z": -0.3776041828,
				"element": "C" 
			},
			{
				"x": 1.1066579041,
				"y": 0.2719118359,
				"z": -1.9116788916,
				"element": "C" 
			},
			{
				"x": 1.1431444794,
				"y": -1.0510144241,
				"z": -2.4210777071,
				"element": "O" 
			},
			{
				"x": -0.1800754152,
				"y": -0.3118346338,
				"z": 0.219819511,
				"element": "C" 
			},
			{
				"x": 0.2069539931,
				"y": -1.0604774722,
				"z": 1.3713857026,
				"element": "O" 
			},
			{
				"x": -1.0601835119,
				"y": 0.8978560524,
				"z": 0.580231332,
				"element": "C" 
			},
			{
				"x": -1.7790814778,
				"y": 1.2308995366,
				"z": -0.6090773313,
				"element": "O" 
			},
			{
				"x": -0.9948949856,
				"y": 3.1437929497,
				"z": 3.1999719906,
				"element": "H" 
			},
			{
				"x": 1.1736428855,
				"y": 2.6543880759,
				"z": 2.6147404721,
				"element": "H" 
			},
			{
				"x": 0.7045887413,
				"y": 0.9482064523,
				"z": 2.7032777966,
				"element": "H" 
			},
			{
				"x": -0.4299312789,
				"y": 2.9822759062,
				"z": 0.7264079802,
				"element": "H" 
			},
			{
				"x": 1.188556498,
				"y": 2.3586669834,
				"z": -0.6638595604,
				"element": "H" 
			},
			{
				"x": 1.9547208094,
				"y": -0.2552717876,
				"z": -0.0011701518,
				"element": "H" 
			},
			{
				"x": 1.9561154904,
				"y": 0.8708893285,
				"z": -2.2822936789,
				"element": "H" 
			},
			{
				"x": 0.1846279034,
				"y": 0.7214880308,
				"z": -2.292041818,
				"element": "H" 
			},
			{
				"x": 1.9482413188,
				"y": -1.4723058491,
				"z": -2.0918203146,
				"element": "H" 
			},
			{
				"x": -0.6838794516,
				"y": -0.9510803579,
				"z": -0.5153003956,
				"element": "H" 
			},
			{
				"x": -0.5896847822,
				"y": -1.4490437762,
				"z": 1.7562683221,
				"element": "H" 
			},
			{
				"x": -1.7447361461,
				"y": 0.6816028571,
				"z": 1.4120874122,
				"element": "H" 
			},
			{
				"x": -2.2970950552,
				"y": 2.0264399548,
				"z": -0.4322086788,
				"element": "H" 
			}
		],
		 "valence_orbital": [ 
			{
				"type": "occ",
				"energy": -0.28469,
				"method": "rhf"
			},
			{
				"type": "occ",
				"energy": -0.27106,
				"method": "rhf"
			},
			{
				"type": "occ",
				"energy": -0.26873,
				"method": "rhf"
			},
			{
				"type": "occ",
				"energy": -0.26027,
				"method": "rhf"
			},
			{
				"type": "occ",
				"energy": -0.21873,
				"method": "rhf"
			},
			{
				"type": "unocc",
				"energy": 0.06395,
				"method": "rhf"
			},
			{
				"type": "unocc",
				"energy": 0.06758,
				"method": "rhf"
			},
			{
				"type": "unocc",
				"energy": 0.07242,
				"method": "rhf"
			},
			{
				"type": "unocc",
				"energy": 0.08519,
				"method": "rhf"
			},
			{
				"type": "unocc",
				"energy": 0.09686,
				"method": "rhf"
			}
		],
		"cosmo_sigma_profile": { 
			"-0.025": 0.0,
			"-0.024": 0.0,
			"-0.023": 0.0,
			"-0.022": 0.0,
			"-0.021": 0.0,
			"-0.02": 0.0,
			"-0.019": 0.0,
			"-0.018": 0.0,
			"-0.017": 0.0,
			"-0.016": 0.928775980735,
			"-0.015": 4.38627949664,
			"-0.014": 3.71318145339,
			"-0.013": 3.23111368296,
			"-0.012": 4.04609244118,
			"-0.011": 4.17743078139,
			"-0.01": 4.78931146806,
			"-0.009": 4.84177905059,
			"-0.008": 5.63354896039,
			"-0.007": 6.07710566437,
			"-0.006": 8.34032578261,
			"-0.005": 8.2716013796,
			"-0.004": 9.05885456114,
			"-0.003": 10.6708551436,
			"-0.002": 10.7596237255,
			"-0.001": 9.30425877018,
			"0.0": 8.32622454828,
			"0.001": 8.01086038513,
			"0.002": 7.75627685865,
			"0.003": 6.97509309057,
			"0.004": 6.75949042572,
			"0.005": 7.51030731053,
			"0.006": 7.42749317224,
			"0.007": 5.42640593085,
			"0.008": 6.19469055398,
			"0.009": 5.18049471731,
			"0.01": 4.96199098471,
			"0.011": 4.33559927095,
			"0.012": 5.36078491181,
			"0.013": 5.91583587436,
			"0.014": 5.3114916253,
			"0.015": 1.71247410088,
			"0.016": 0.457649600847,
			"0.017": 0.260377213437,
			"0.018": 0.0146297081644,
			"0.019": 0.0,
			"0.02": 0.0,
			"0.021": 0.0,
			"0.022": 0.0,
			"0.023": 0.0,
			"0.024": 0.0,
			"0.025": 0.0
		}
	}
}
