{
	 "smiles": "CC1=C(CS(C)=O)C=CC=C1N", 
	 "Tm": 457.15, 
	 "num_atms": 25, 
	 "gaussian": { 
		 "optdone": 1, 
		 "sigma_profile": "yes", 
		 "theory": "DFT", 
		 "functional": "B3LYP", 
		 "basiset": "6-31G**", 
		 "properties": { 
			 "R2extent": 3028.4744, 
			 "electric_dipole_moment_norm": 4.97850794516, 
			 "electric_quadrupole_moment_norm": 17.1589929244, 
			 "total_energy": -878.915920623, 
			 "HOMO_LUMO_gap": 0.19453, 
			 "cosmo_polarized_energy": -19.62, 
			 "cosmo_cavitation_energy": 29.0, 
			 "cosmo_dispersion_energy": -21.21, 
			 "cosmo_repulsion_energy": 1.65, 
			 "cosmo_total_nonelectrostatic_energy": 9.44, 
			 "SMD_solvation_energy": 4.54 
		},
		"coords": [
			{
				"x": -0.8997049788,
				"y": -0.9211152258,
				"z": -0.9030376233,
				"element": "C" 
			},
			{
				"x": 0.4617982933,
				"y": -0.7206242124,
				"z": -0.2770691452,
				"element": "C" 
			},
			{
				"x": 1.0090840592,
				"y": 0.5495221177,
				"z": -0.0057735729,
				"element": "C" 
			},
			{
				"x": 0.2877315246,
				"y": 1.822772211,
				"z": -0.3545552642,
				"element": "C" 
			},
			{
				"x": -0.7526131886,
				"y": 2.4330837207,
				"z": 1.0765437274,
				"element": "S" 
			},
			{
				"x": -1.4241419203,
				"y": 3.898621409,
				"z": 0.1932399522,
				"element": "C" 
			},
			{
				"x": 0.1998160113,
				"y": 2.9505723396,
				"z": 2.12976,
				"element": "O" 
			},
			{
				"x": 2.2493476313,
				"y": 0.6632939338,
				"z": 0.6401939606,
				"element": "C" 
			},
			{
				"x": 2.9623718199,
				"y": -0.4776015842,
				"z": 0.995616889,
				"element": "C" 
			},
			{
				"x": 2.456404623,
				"y": -1.7379631513,
				"z": 0.6961903445,
				"element": "C" 
			},
			{
				"x": 1.2137529594,
				"y": -1.8707865396,
				"z": 0.0597266079,
				"element": "C" 
			},
			{
				"x": 0.6856158993,
				"y": -3.1471901044,
				"z": -0.1832506927,
				"element": "N" 
			},
			{
				"x": -1.4543435258,
				"y": -1.6978643614,
				"z": -0.3646041369,
				"element": "H" 
			},
			{
				"x": -0.8325912204,
				"y": -1.2426216044,
				"z": -1.9533157162,
				"element": "H" 
			},
			{
				"x": -1.5120834197,
				"y": -0.0191508234,
				"z": -0.8820682654,
				"element": "H" 
			},
			{
				"x": 0.9982289842,
				"y": 2.6321972562,
				"z": -0.5477399273,
				"element": "H" 
			},
			{
				"x": -0.3787301727,
				"y": 1.7263541293,
				"z": -1.2151249582,
				"element": "H" 
			},
			{
				"x": -2.0615387206,
				"y": 3.5770945464,
				"z": -0.6351927619,
				"element": "H" 
			},
			{
				"x": -2.0154187621,
				"y": 4.4595843628,
				"z": 0.9195061164,
				"element": "H" 
			},
			{
				"x": -0.6004222999,
				"y": 4.5208917243,
				"z": -0.1661272293,
				"element": "H" 
			},
			{
				"x": 2.6369045604,
				"y": 1.6493808435,
				"z": 0.873349791,
				"element": "H" 
			},
			{
				"x": 3.9212122388,
				"y": -0.3864524491,
				"z": 1.4975528619,
				"element": "H" 
			},
			{
				"x": 3.0185995299,
				"y": -2.6316437219,
				"z": 0.9575133819,
				"element": "H" 
			},
			{
				"x": 1.3669520525,
				"y": -3.8917910082,
				"z": -0.1195520051,
				"element": "H" 
			},
			{
				"x": 0.1322680219,
				"y": -3.2332638081,
				"z": -1.0248823341,
				"element": "H" 
			}
		],
		 "valence_orbital": [ 
			{
				"type": "occ",
				"energy": -0.30219,
				"method": "rhf"
			},
			{
				"type": "occ",
				"energy": -0.25955,
				"method": "rhf"
			},
			{
				"type": "occ",
				"energy": -0.23548,
				"method": "rhf"
			},
			{
				"type": "occ",
				"energy": -0.21449,
				"method": "rhf"
			},
			{
				"type": "occ",
				"energy": -0.20007,
				"method": "rhf"
			},
			{
				"type": "unocc",
				"energy": -0.00554,
				"method": "rhf"
			},
			{
				"type": "unocc",
				"energy": 0.01699,
				"method": "rhf"
			},
			{
				"type": "unocc",
				"energy": 0.0455,
				"method": "rhf"
			},
			{
				"type": "unocc",
				"energy": 0.05461,
				"method": "rhf"
			},
			{
				"type": "unocc",
				"energy": 0.07128,
				"method": "rhf"
			}
		],
		"cosmo_sigma_profile": { 
			"-0.025": 0.0,
			"-0.024": 0.0,
			"-0.023": 0.0,
			"-0.022": 0.0,
			"-0.021": 0.0,
			"-0.02": 0.0,
			"-0.019": 0.0,
			"-0.018": 0.0,
			"-0.017": 0.0,
			"-0.016": 0.0,
			"-0.015": 0.0,
			"-0.014": 0.0,
			"-0.013": 0.0,
			"-0.012": 1.24586507746,
			"-0.011": 2.75037767239,
			"-0.01": 3.06854395298,
			"-0.009": 4.74681158026,
			"-0.008": 5.55308204531,
			"-0.007": 10.8081682473,
			"-0.006": 12.9204743281,
			"-0.005": 14.7817118389,
			"-0.004": 17.9076193622,
			"-0.003": 21.171505745,
			"-0.002": 17.7986613614,
			"-0.001": 14.2868933745,
			"0.0": 12.3381888595,
			"0.001": 11.3476012498,
			"0.002": 8.84053932984,
			"0.003": 9.00833066165,
			"0.004": 8.76322469396,
			"0.005": 8.1139808548,
			"0.006": 10.1760110856,
			"0.007": 8.0100896759,
			"0.008": 2.73444634561,
			"0.009": 1.97840045789,
			"0.01": 2.33953724289,
			"0.011": 2.23089589139,
			"0.012": 2.13187222589,
			"0.013": 1.56697818777,
			"0.014": 4.366454344,
			"0.015": 5.0832231153,
			"0.016": 2.98554106048,
			"0.017": 0.262864358761,
			"0.018": 0.0,
			"0.019": 0.0,
			"0.02": 0.0,
			"0.021": 0.0,
			"0.022": 0.0,
			"0.023": 0.0,
			"0.024": 0.0,
			"0.025": 0.0
		}
	}
}
