{
	 "smiles": "FC(F)(F)C1=C(Br)C=CC(Br)=C1", 
	 "Tm": 322.15, 
	 "num_atms": 15, 
	 "gaussian": { 
		 "optdone": 1, 
		 "sigma_profile": "yes", 
		 "theory": "DFT", 
		 "functional": "B3LYP", 
		 "basiset": "6-31G**", 
		 "properties": { 
			 "R2extent": 5630.987, 
			 "electric_dipole_moment_norm": 2.14790093114, 
			 "electric_quadrupole_moment_norm": 3.83954736785, 
			 "total_energy": -5710.88131417, 
			 "HOMO_LUMO_gap": 0.20262, 
			 "cosmo_polarized_energy": -4.2, 
			 "cosmo_cavitation_energy": 25.32, 
			 "cosmo_dispersion_energy": -19.06, 
			 "cosmo_repulsion_energy": 1.46, 
			 "cosmo_total_nonelectrostatic_energy": 7.72, 
			 "SMD_solvation_energy": 3.28 
		},
		"coords": [
			{
				"x": 1.7877438661,
				"y": -0.7908634818,
				"z": -0.0030080861,
				"element": "F" 
			},
			{
				"x": 0.7698950497,
				"y": -1.5581784247,
				"z": 0.4335693676,
				"element": "C" 
			},
			{
				"x": 1.2673834882,
				"y": -2.3733241265,
				"z": 1.3893850278,
				"element": "F" 
			},
			{
				"x": 0.3796064441,
				"y": -2.3404718086,
				"z": -0.5916492626,
				"element": "F" 
			},
			{
				"x": -0.3741668519,
				"y": -0.7210288353,
				"z": 0.966443522,
				"element": "C" 
			},
			{
				"x": -1.0632842842,
				"y": 0.2065110602,
				"z": 0.1708506695,
				"element": "C" 
			},
			{
				"x": -0.623964484,
				"y": 0.5015335529,
				"z": -1.6592169299,
				"element": "Br" 
			},
			{
				"x": -2.1106566546,
				"y": 0.9535461707,
				"z": 0.7091154731,
				"element": "C" 
			},
			{
				"x": -2.484923483,
				"y": 0.7883291296,
				"z": 2.0412462257,
				"element": "C" 
			},
			{
				"x": -1.8002515834,
				"y": -0.1324208339,
				"z": 2.8298744328,
				"element": "C" 
			},
			{
				"x": -2.298263298,
				"y": -0.3714805776,
				"z": 4.6531319517,
				"element": "Br" 
			},
			{
				"x": -0.7536072052,
				"y": -0.8829563127,
				"z": 2.3024349339,
				"element": "C" 
			},
			{
				"x": -2.6342972986,
				"y": 1.6664982796,
				"z": 0.0829083745,
				"element": "H" 
			},
			{
				"x": -3.299499809,
				"y": 1.3707439719,
				"z": 2.4561114861,
				"element": "H" 
			},
			{
				"x": -0.2268138962,
				"y": -1.5963377639,
				"z": 2.9221028138,
				"element": "H" 
			}
		],
		 "valence_orbital": [ 
			{
				"type": "occ",
				"energy": -0.30564,
				"method": "rhf"
			},
			{
				"type": "occ",
				"energy": -0.3046,
				"method": "rhf"
			},
			{
				"type": "occ",
				"energy": -0.29941,
				"method": "rhf"
			},
			{
				"type": "occ",
				"energy": -0.29288,
				"method": "rhf"
			},
			{
				"type": "occ",
				"energy": -0.25388,
				"method": "rhf"
			},
			{
				"type": "unocc",
				"energy": -0.05126,
				"method": "rhf"
			},
			{
				"type": "unocc",
				"energy": -0.04069,
				"method": "rhf"
			},
			{
				"type": "unocc",
				"energy": -0.01604,
				"method": "rhf"
			},
			{
				"type": "unocc",
				"energy": -0.00183,
				"method": "rhf"
			},
			{
				"type": "unocc",
				"energy": 0.09994,
				"method": "rhf"
			}
		],
		"cosmo_sigma_profile": { 
			"-0.025": 0.0,
			"-0.024": 0.0,
			"-0.023": 0.0,
			"-0.022": 0.0,
			"-0.021": 0.0,
			"-0.02": 0.0,
			"-0.019": 0.0,
			"-0.018": 0.0,
			"-0.017": 0.0,
			"-0.016": 0.0,
			"-0.015": 0.0,
			"-0.014": 0.0,
			"-0.013": 0.0,
			"-0.012": 0.0,
			"-0.011": 0.0,
			"-0.01": 0.0,
			"-0.009": 0.834945186094,
			"-0.008": 5.33167361912,
			"-0.007": 4.83692746963,
			"-0.006": 5.41812801076,
			"-0.005": 7.28994793041,
			"-0.004": 9.82033327242,
			"-0.003": 10.1871981136,
			"-0.002": 11.5148189456,
			"-0.001": 18.4138823441,
			"0.0": 29.9885161084,
			"0.001": 23.6283955255,
			"0.002": 31.3922160594,
			"0.003": 33.4100201978,
			"0.004": 18.2913983615,
			"0.005": 0.476834859789,
			"0.006": 0.0,
			"0.007": 0.0,
			"0.008": 0.0,
			"0.009": 0.0,
			"0.01": 0.0,
			"0.011": 0.0,
			"0.012": 0.0,
			"0.013": 0.0,
			"0.014": 0.0,
			"0.015": 0.0,
			"0.016": 0.0,
			"0.017": 0.0,
			"0.018": 0.0,
			"0.019": 0.0,
			"0.02": 0.0,
			"0.021": 0.0,
			"0.022": 0.0,
			"0.023": 0.0,
			"0.024": 0.0,
			"0.025": 0.0
		}
	}
}
