{
	 "smiles": "O=C1C=CC(=O)C2=C1C=C1C=CC=CC1=C2", 
	 "Tm": 497.15, 
	 "num_atms": 24, 
	 "gaussian": { 
		 "optdone": 1, 
		 "sigma_profile": "yes", 
		 "theory": "DFT", 
		 "functional": "B3LYP", 
		 "basiset": "6-31G**", 
		 "properties": { 
			 "R2extent": 3652.8209, 
			 "electric_dipole_moment_norm": 2.50509375872, 
			 "electric_quadrupole_moment_norm": 14.8794894479, 
			 "total_energy": -688.759561933, 
			 "HOMO_LUMO_gap": 0.12519, 
			 "cosmo_polarized_energy": -10.73, 
			 "cosmo_cavitation_energy": 28.81, 
			 "cosmo_dispersion_energy": -21.28, 
			 "cosmo_repulsion_energy": 1.59, 
			 "cosmo_total_nonelectrostatic_energy": 9.12, 
			 "SMD_solvation_energy": 5.61 
		},
		"coords": [
			{
				"x": -3.398215831,
				"y": 0.9805272717,
				"z": 1.594430864,
				"element": "O" 
			},
			{
				"x": -2.8073441598,
				"y": 0.2024008164,
				"z": 0.8524879815,
				"element": "C" 
			},
			{
				"x": -3.5295491078,
				"y": -0.9326502728,
				"z": 0.2240220643,
				"element": "C" 
			},
			{
				"x": -2.9238449095,
				"y": -1.8101156693,
				"z": -0.5949575245,
				"element": "C" 
			},
			{
				"x": -1.4823081441,
				"y": -1.7171892652,
				"z": -0.938823266,
				"element": "C" 
			},
			{
				"x": -0.9686654055,
				"y": -2.5389122454,
				"z": -1.6911738306,
				"element": "O" 
			},
			{
				"x": -0.7132466532,
				"y": -0.5942076086,
				"z": -0.3327533431,
				"element": "C" 
			},
			{
				"x": -1.3573564542,
				"y": 0.3388803526,
				"z": 0.5381912885,
				"element": "C" 
			},
			{
				"x": -0.634854443,
				"y": 1.3744316659,
				"z": 1.0936171923,
				"element": "C" 
			},
			{
				"x": 0.7463086954,
				"y": 1.535874429,
				"z": 0.8172924084,
				"element": "C" 
			},
			{
				"x": 1.5102155062,
				"y": 2.593720965,
				"z": 1.3773439507,
				"element": "C" 
			},
			{
				"x": 2.8509938242,
				"y": 2.7210743139,
				"z": 1.0874890423,
				"element": "C" 
			},
			{
				"x": 3.4891339907,
				"y": 1.796675177,
				"z": 0.2245255015,
				"element": "C" 
			},
			{
				"x": 2.7768125681,
				"y": 0.7589382417,
				"z": -0.3354924026,
				"element": "C" 
			},
			{
				"x": 1.39354534,
				"y": 0.5982958008,
				"z": -0.0579744262,
				"element": "C" 
			},
			{
				"x": 0.6297691534,
				"y": -0.4575190789,
				"z": -0.6164888959,
				"element": "C" 
			},
			{
				"x": -4.5848121369,
				"y": -1.0062777137,
				"z": 0.4717546353,
				"element": "H" 
			},
			{
				"x": -3.4580635795,
				"y": -2.6385552608,
				"z": -1.0517659346,
				"element": "H" 
			},
			{
				"x": -1.1474580914,
				"y": 2.0698362876,
				"z": 1.7520151093,
				"element": "H" 
			},
			{
				"x": 1.0183196561,
				"y": 3.3014288117,
				"z": 2.0389480217,
				"element": "H" 
			},
			{
				"x": 3.4253838461,
				"y": 3.5340503479,
				"z": 1.5215346188,
				"element": "H" 
			},
			{
				"x": 4.5466604431,
				"y": 1.9097910436,
				"z": 0.0052289663,
				"element": "H" 
			},
			{
				"x": 3.2639014473,
				"y": 0.0484887998,
				"z": -0.9977148429,
				"element": "H" 
			},
			{
				"x": 1.0955744451,
				"y": -1.1794872098,
				"z": -1.2810371786,
				"element": "H" 
			}
		],
		 "valence_orbital": [ 
			{
				"type": "occ",
				"energy": -0.29508,
				"method": "rhf"
			},
			{
				"type": "occ",
				"energy": -0.26766,
				"method": "rhf"
			},
			{
				"type": "occ",
				"energy": -0.26352,
				"method": "rhf"
			},
			{
				"type": "occ",
				"energy": -0.25909,
				"method": "rhf"
			},
			{
				"type": "occ",
				"energy": -0.23514,
				"method": "rhf"
			},
			{
				"type": "unocc",
				"energy": -0.10995,
				"method": "rhf"
			},
			{
				"type": "unocc",
				"energy": -0.07071,
				"method": "rhf"
			},
			{
				"type": "unocc",
				"energy": -0.02659,
				"method": "rhf"
			},
			{
				"type": "unocc",
				"energy": 0.00239,
				"method": "rhf"
			},
			{
				"type": "unocc",
				"energy": 0.0474,
				"method": "rhf"
			}
		],
		"cosmo_sigma_profile": { 
			"-0.025": 0.0,
			"-0.024": 0.0,
			"-0.023": 0.0,
			"-0.022": 0.0,
			"-0.021": 0.0,
			"-0.02": 0.0,
			"-0.019": 0.0,
			"-0.018": 0.0,
			"-0.017": 0.0,
			"-0.016": 0.0,
			"-0.015": 0.0,
			"-0.014": 0.0,
			"-0.013": 0.0,
			"-0.012": 0.0,
			"-0.011": 0.0,
			"-0.01": 0.0,
			"-0.009": 0.144872958227,
			"-0.008": 3.44942911449,
			"-0.007": 12.4052971977,
			"-0.006": 16.5800161906,
			"-0.005": 15.6706307735,
			"-0.004": 16.688275883,
			"-0.003": 14.5190997523,
			"-0.002": 16.2438364003,
			"-0.001": 16.2344484116,
			"0.0": 18.8469587167,
			"0.001": 26.6398686771,
			"0.002": 21.0735391968,
			"0.003": 13.2244431998,
			"0.004": 6.99431649972,
			"0.005": 3.01129200519,
			"0.006": 3.3123050484,
			"0.007": 2.75795953011,
			"0.008": 2.98370946022,
			"0.009": 3.99328655677,
			"0.01": 4.29938819342,
			"0.011": 8.47851815806,
			"0.012": 4.94798373375,
			"0.013": 0.52605395239,
			"0.014": 0.0,
			"0.015": 0.0,
			"0.016": 0.0,
			"0.017": 0.0,
			"0.018": 0.0,
			"0.019": 0.0,
			"0.02": 0.0,
			"0.021": 0.0,
			"0.022": 0.0,
			"0.023": 0.0,
			"0.024": 0.0,
			"0.025": 0.0
		}
	}
}
