{
	 "smiles": "CC1=C2NC=C(CCN)C2=CC=C1", 
	 "Tm": 399.15, 
	 "num_atms": 27, 
	 "gaussian": { 
		 "optdone": 1, 
		 "sigma_profile": "yes", 
		 "theory": "DFT", 
		 "functional": "B3LYP", 
		 "basiset": "6-31G**", 
		 "properties": { 
			 "R2extent": 3146.8847, 
			 "electric_dipole_moment_norm": 1.93643950073, 
			 "electric_quadrupole_moment_norm": 10.5248324433, 
			 "total_energy": -537.12355627, 
			 "HOMO_LUMO_gap": 0.19115, 
			 "cosmo_polarized_energy": -11.07, 
			 "cosmo_cavitation_energy": 29.42, 
			 "cosmo_dispersion_energy": -21.22, 
			 "cosmo_repulsion_energy": 1.7, 
			 "cosmo_total_nonelectrostatic_energy": 9.91, 
			 "SMD_solvation_energy": 3.28 
		},
		"coords": [
			{
				"x": -0.2856319898,
				"y": -4.5651862255,
				"z": 1.6286841977,
				"element": "C" 
			},
			{
				"x": 0.5050607122,
				"y": -3.3090324442,
				"z": 1.3634872404,
				"element": "C" 
			},
			{
				"x": -0.0071919354,
				"y": -2.2801460047,
				"z": 0.554870422,
				"element": "C" 
			},
			{
				"x": -1.2170331541,
				"y": -2.2017599924,
				"z": -0.106403682,
				"element": "N" 
			},
			{
				"x": -1.2837784559,
				"y": -0.9996815162,
				"z": -0.7896361893,
				"element": "C" 
			},
			{
				"x": -0.1330201376,
				"y": -0.2765648171,
				"z": -0.5879784651,
				"element": "C" 
			},
			{
				"x": 0.1787346,
				"y": 1.088687714,
				"z": -1.1351971253,
				"element": "C" 
			},
			{
				"x": -0.0299641486,
				"y": 2.2244281987,
				"z": -0.1161748208,
				"element": "C" 
			},
			{
				"x": -1.4460362368,
				"y": 2.3283077301,
				"z": 0.245239059,
				"element": "N" 
			},
			{
				"x": 0.7012491104,
				"y": -1.0804635703,
				"z": 0.2761080372,
				"element": "C" 
			},
			{
				"x": 1.9821134116,
				"y": -0.906557746,
				"z": 0.8319619078,
				"element": "C" 
			},
			{
				"x": 2.5043043956,
				"y": -1.9125493842,
				"z": 1.6329300509,
				"element": "C" 
			},
			{
				"x": 1.7748952522,
				"y": -3.0915570035,
				"z": 1.8930878564,
				"element": "C" 
			},
			{
				"x": -0.5121880099,
				"y": -5.1062442656,
				"z": 0.7003970797,
				"element": "H" 
			},
			{
				"x": 0.2666785428,
				"y": -5.2475114837,
				"z": 2.2798972254,
				"element": "H" 
			},
			{
				"x": -1.2445007144,
				"y": -4.3463273645,
				"z": 2.1169023704,
				"element": "H" 
			},
			{
				"x": -1.9266850107,
				"y": -2.914961009,
				"z": -0.1148751098,
				"element": "H" 
			},
			{
				"x": -2.1530630561,
				"y": -0.7499708879,
				"z": -1.3821380073,
				"element": "H" 
			},
			{
				"x": -0.4578218391,
				"y": 1.2923775886,
				"z": -2.0033716406,
				"element": "H" 
			},
			{
				"x": 1.2190567357,
				"y": 1.1187205469,
				"z": -1.484081932,
				"element": "H" 
			},
			{
				"x": 0.6429309596,
				"y": 2.058568737,
				"z": 0.7439243423,
				"element": "H" 
			},
			{
				"x": 0.2734088866,
				"y": 3.1717443858,
				"z": -0.5788709626,
				"element": "H" 
			},
			{
				"x": -1.5758777311,
				"y": 3.0684393301,
				"z": 0.9305638085,
				"element": "H" 
			},
			{
				"x": -1.7321650751,
				"y": 1.462902182,
				"z": 0.6987534812,
				"element": "H" 
			},
			{
				"x": 2.5526013958,
				"y": -0.0027857954,
				"z": 0.6370356844,
				"element": "H" 
			},
			{
				"x": 3.4917548675,
				"y": -1.796165539,
				"z": 2.0703541018,
				"element": "H" 
			},
			{
				"x": 2.2154686247,
				"y": -3.858411364,
				"z": 2.5255310697,
				"element": "H" 
			}
		],
		 "valence_orbital": [ 
			{
				"type": "occ",
				"energy": -0.31866,
				"method": "rhf"
			},
			{
				"type": "occ",
				"energy": -0.25793,
				"method": "rhf"
			},
			{
				"type": "occ",
				"energy": -0.225,
				"method": "rhf"
			},
			{
				"type": "occ",
				"energy": -0.21326,
				"method": "rhf"
			},
			{
				"type": "occ",
				"energy": -0.19329,
				"method": "rhf"
			},
			{
				"type": "unocc",
				"energy": -0.00214,
				"method": "rhf"
			},
			{
				"type": "unocc",
				"energy": 0.0324,
				"method": "rhf"
			},
			{
				"type": "unocc",
				"energy": 0.07034,
				"method": "rhf"
			},
			{
				"type": "unocc",
				"energy": 0.07372,
				"method": "rhf"
			},
			{
				"type": "unocc",
				"energy": 0.09885,
				"method": "rhf"
			}
		],
		"cosmo_sigma_profile": { 
			"-0.025": 0.0,
			"-0.024": 0.0,
			"-0.023": 0.0,
			"-0.022": 0.0,
			"-0.021": 0.0,
			"-0.02": 0.0,
			"-0.019": 0.0,
			"-0.018": 0.0,
			"-0.017": 0.0,
			"-0.016": 0.0,
			"-0.015": 0.552667335142,
			"-0.014": 1.22217494156,
			"-0.013": 1.07590877656,
			"-0.012": 1.13513033907,
			"-0.011": 1.00370048773,
			"-0.01": 1.3047088208,
			"-0.009": 2.56560955439,
			"-0.008": 3.40782270084,
			"-0.007": 6.53835317693,
			"-0.006": 5.41069483199,
			"-0.005": 7.44132292974,
			"-0.004": 16.2605741012,
			"-0.003": 21.2496373235,
			"-0.002": 25.4326398565,
			"-0.001": 22.7656227099,
			"0.0": 23.3009848232,
			"0.001": 15.7271967699,
			"0.002": 10.817696031,
			"0.003": 8.7543046398,
			"0.004": 10.2560563653,
			"0.005": 11.5889197587,
			"0.006": 11.9669400481,
			"0.007": 9.09756196263,
			"0.008": 4.69968620864,
			"0.009": 0.882513364367,
			"0.01": 0.423907539925,
			"0.011": 1.13641976926,
			"0.012": 0.593216108774,
			"0.013": 0.697501330448,
			"0.014": 0.408162636173,
			"0.015": 0.180460625319,
			"0.016": 1.03722240501,
			"0.017": 0.736132248398,
			"0.018": 0.312925516656,
			"0.019": 0.721136073646,
			"0.02": 0.308356604051,
			"0.021": 0.129826453949,
			"0.022": 0.0,
			"0.023": 0.0,
			"0.024": 0.0,
			"0.025": 0.0
		}
	}
}
