{
	 "smiles": "NS(=O)(=O)N1CCOCC1", 
	 "Tm": 435.15, 
	 "num_atms": 20, 
	 "gaussian": { 
		 "optdone": 1, 
		 "sigma_profile": "yes", 
		 "theory": "DFT", 
		 "functional": "B3LYP", 
		 "basiset": "6-31G**", 
		 "properties": { 
			 "R2extent": 2211.1346, 
			 "electric_dipole_moment_norm": 2.92612994414, 
			 "electric_quadrupole_moment_norm": 17.1363161275, 
			 "total_energy": -891.715127678, 
			 "HOMO_LUMO_gap": 0.29423, 
			 "cosmo_polarized_energy": -15.85, 
			 "cosmo_cavitation_energy": 23.27, 
			 "cosmo_dispersion_energy": -18.23, 
			 "cosmo_repulsion_energy": 1.44, 
			 "cosmo_total_nonelectrostatic_energy": 6.48, 
			 "SMD_solvation_energy": 2.18 
		},
		"coords": [
			{
				"x": -0.2222685702,
				"y": -2.875148485,
				"z": -0.3235434719,
				"element": "N" 
			},
			{
				"x": -0.3550075529,
				"y": -2.3966667039,
				"z": 1.311799936,
				"element": "S" 
			},
			{
				"x": 0.944045261,
				"y": -2.6639415168,
				"z": 1.9219909186,
				"element": "O" 
			},
			{
				"x": -1.6112809104,
				"y": -2.9514087188,
				"z": 1.8098641353,
				"element": "O" 
			},
			{
				"x": -0.5302871439,
				"y": -0.7410278663,
				"z": 1.287655684,
				"element": "N" 
			},
			{
				"x": -1.8347004973,
				"y": -0.1850710198,
				"z": 0.857157679,
				"element": "C" 
			},
			{
				"x": -1.6742833808,
				"y": 0.6334027822,
				"z": -0.4202795216,
				"element": "C" 
			},
			{
				"x": -0.7545308199,
				"y": 1.7132217786,
				"z": -0.2625044475,
				"element": "O" 
			},
			{
				"x": 0.2638899858,
				"y": 1.4871840429,
				"z": 0.707423131,
				"element": "C" 
			},
			{
				"x": 0.6529751673,
				"y": 0.0178565225,
				"z": 0.8281413832,
				"element": "C" 
			},
			{
				"x": 0.665693078,
				"y": -3.3515604037,
				"z": -0.4570856363,
				"element": "H" 
			},
			{
				"x": -0.9956950982,
				"y": -3.4957515533,
				"z": -0.5471200041,
				"element": "H" 
			},
			{
				"x": -2.2254872122,
				"y": 0.4458357973,
				"z": 1.6635881667,
				"element": "H" 
			},
			{
				"x": -2.5493660528,
				"y": -0.9972421305,
				"z": 0.7116181839,
				"element": "H" 
			},
			{
				"x": -2.6358444462,
				"y": 1.0739942064,
				"z": -0.7050515091,
				"element": "H" 
			},
			{
				"x": -1.3478507578,
				"y": -0.0266067875,
				"z": -1.237732367,
				"element": "H" 
			},
			{
				"x": 1.135898188,
				"y": 2.0695156857,
				"z": 0.3936439885,
				"element": "H" 
			},
			{
				"x": -0.0528315456,
				"y": 1.8620136704,
				"z": 1.6926872497,
				"element": "H" 
			},
			{
				"x": 1.4581385777,
				"y": -0.1059088533,
				"z": 1.5557013042,
				"element": "H" 
			},
			{
				"x": 1.0061937305,
				"y": -0.3457904471,
				"z": -0.1478548027,
				"element": "H" 
			}
		],
		 "valence_orbital": [ 
			{
				"type": "occ",
				"energy": -0.31405,
				"method": "rhf"
			},
			{
				"type": "occ",
				"energy": -0.30994,
				"method": "rhf"
			},
			{
				"type": "occ",
				"energy": -0.29947,
				"method": "rhf"
			},
			{
				"type": "occ",
				"energy": -0.2633,
				"method": "rhf"
			},
			{
				"type": "occ",
				"energy": -0.25283,
				"method": "rhf"
			},
			{
				"type": "unocc",
				"energy": 0.0414,
				"method": "rhf"
			},
			{
				"type": "unocc",
				"energy": 0.07605,
				"method": "rhf"
			},
			{
				"type": "unocc",
				"energy": 0.08185,
				"method": "rhf"
			},
			{
				"type": "unocc",
				"energy": 0.09298,
				"method": "rhf"
			},
			{
				"type": "unocc",
				"energy": 0.10059,
				"method": "rhf"
			}
		],
		"cosmo_sigma_profile": { 
			"-0.025": 0.0,
			"-0.024": 0.0,
			"-0.023": 0.0,
			"-0.022": 0.0,
			"-0.021": 0.0,
			"-0.02": 0.0,
			"-0.019": 0.0,
			"-0.018": 0.0,
			"-0.017": 0.0,
			"-0.016": 0.0,
			"-0.015": 0.406259008495,
			"-0.014": 2.62377148795,
			"-0.013": 2.46727120684,
			"-0.012": 2.48031966984,
			"-0.011": 2.05129116557,
			"-0.01": 1.97650891742,
			"-0.009": 1.79982322724,
			"-0.008": 1.49114954114,
			"-0.007": 3.07739096323,
			"-0.006": 12.1945010763,
			"-0.005": 19.2954980894,
			"-0.004": 19.2546878693,
			"-0.003": 14.8071316913,
			"-0.002": 10.7461949813,
			"-0.001": 7.19518147131,
			"0.0": 5.15303386639,
			"0.001": 5.36810195721,
			"0.002": 5.30022496084,
			"0.003": 5.63026188109,
			"0.004": 6.70817744507,
			"0.005": 5.25591678552,
			"0.006": 5.18527150303,
			"0.007": 6.17129051405,
			"0.008": 5.45096456397,
			"0.009": 4.17394260738,
			"0.01": 10.0117319262,
			"0.011": 10.1682202636,
			"0.012": 3.49921665942,
			"0.013": 1.5466486419,
			"0.014": 0.255002234648,
			"0.015": 0.0,
			"0.016": 0.0,
			"0.017": 0.0,
			"0.018": 0.0,
			"0.019": 0.0,
			"0.02": 0.0,
			"0.021": 0.0,
			"0.022": 0.0,
			"0.023": 0.0,
			"0.024": 0.0,
			"0.025": 0.0
		}
	}
}
