{
	 "smiles": "NC1=CC=C(C=C1)C1=NN=C2CCCN12", 
	 "Tm": 585.15, 
	 "num_atms": 27, 
	 "gaussian": { 
		 "optdone": 1, 
		 "sigma_profile": "yes", 
		 "theory": "DFT", 
		 "functional": "B3LYP", 
		 "basiset": "6-31G**", 
		 "properties": { 
			 "R2extent": 3946.6812, 
			 "electric_dipole_moment_norm": 6.61949980361, 
			 "electric_quadrupole_moment_norm": 26.1617789261, 
			 "total_energy": -645.396775019, 
			 "HOMO_LUMO_gap": 0.17926, 
			 "cosmo_polarized_energy": -23.24, 
			 "cosmo_cavitation_energy": 30.0, 
			 "cosmo_dispersion_energy": -22.58, 
			 "cosmo_repulsion_energy": 1.75, 
			 "cosmo_total_nonelectrostatic_energy": 9.18, 
			 "SMD_solvation_energy": 2.15 
		},
		"coords": [
			{
				"x": 0.3409376242,
				"y": 0.5887616052,
				"z": -4.6457308784,
				"element": "N" 
			},
			{
				"x": 0.4158341622,
				"y": 0.2723153537,
				"z": -3.2916778394,
				"element": "C" 
			},
			{
				"x": -0.201208364,
				"y": 1.0830386643,
				"z": -2.3245391445,
				"element": "C" 
			},
			{
				"x": -0.1697601171,
				"y": 0.7325576484,
				"z": -0.97833434,
				"element": "C" 
			},
			{
				"x": 0.482872396,
				"y": -0.4318443302,
				"z": -0.5442401314,
				"element": "C" 
			},
			{
				"x": 1.0940958678,
				"y": -1.2441417417,
				"z": -1.5177421548,
				"element": "C" 
			},
			{
				"x": 1.0618859842,
				"y": -0.9025650761,
				"z": -2.860619737,
				"element": "C" 
			},
			{
				"x": 0.5437471232,
				"y": -0.8475575971,
				"z": 0.8571504558,
				"element": "C" 
			},
			{
				"x": 0.9225378856,
				"y": -2.050857481,
				"z": 1.2702676365,
				"element": "N" 
			},
			{
				"x": 0.8751440097,
				"y": -2.0865741546,
				"z": 2.6520282287,
				"element": "N" 
			},
			{
				"x": 0.4687946859,
				"y": -0.9030204352,
				"z": 3.0342220336,
				"element": "C" 
			},
			{
				"x": 0.1600493901,
				"y": -0.194083879,
				"z": 4.3177281418,
				"element": "C" 
			},
			{
				"x": 0.1366043302,
				"y": 1.2922419703,
				"z": 3.8570472248,
				"element": "C" 
			},
			{
				"x": -0.1860219153,
				"y": 1.2616111163,
				"z": 2.3355731051,
				"element": "C" 
			},
			{
				"x": 0.2499035628,
				"y": -0.081963426,
				"z": 1.9626171671,
				"element": "N" 
			},
			{
				"x": 0.1859578002,
				"y": 1.563731959,
				"z": -4.8603517693,
				"element": "H" 
			},
			{
				"x": 1.0537162215,
				"y": 0.1752826134,
				"z": -5.2303026778,
				"element": "H" 
			},
			{
				"x": -0.7196344973,
				"y": 1.9870876568,
				"z": -2.6343899984,
				"element": "H" 
			},
			{
				"x": -0.6783519672,
				"y": 1.3758436137,
				"z": -0.2678069009,
				"element": "H" 
			},
			{
				"x": 1.594872466,
				"y": -2.1495220188,
				"z": -1.1924804369,
				"element": "H" 
			},
			{
				"x": 1.5406677358,
				"y": -1.5482013177,
				"z": -3.5929176536,
				"element": "H" 
			},
			{
				"x": 0.9030492907,
				"y": -0.3827251394,
				"z": 5.0960146733,
				"element": "H" 
			},
			{
				"x": -0.8144049754,
				"y": -0.5096493799,
				"z": 4.7109587368,
				"element": "H" 
			},
			{
				"x": 1.1269618467,
				"y": 1.7339876792,
				"z": 4.0021376979,
				"element": "H" 
			},
			{
				"x": -0.582374421,
				"y": 1.8998730374,
				"z": 4.4114600189,
				"element": "H" 
			},
			{
				"x": -1.2579942359,
				"y": 1.3844849583,
				"z": 2.1383866025,
				"element": "H" 
			},
			{
				"x": 0.3571181103,
				"y": 2.0266881007,
				"z": 1.7750419396,
				"element": "H" 
			}
		],
		 "valence_orbital": [ 
			{
				"type": "occ",
				"energy": -0.2729,
				"method": "rhf"
			},
			{
				"type": "occ",
				"energy": -0.2513,
				"method": "rhf"
			},
			{
				"type": "occ",
				"energy": -0.24741,
				"method": "rhf"
			},
			{
				"type": "occ",
				"energy": -0.23378,
				"method": "rhf"
			},
			{
				"type": "occ",
				"energy": -0.19191,
				"method": "rhf"
			},
			{
				"type": "unocc",
				"energy": -0.01265,
				"method": "rhf"
			},
			{
				"type": "unocc",
				"energy": -0.00034,
				"method": "rhf"
			},
			{
				"type": "unocc",
				"energy": 0.04618,
				"method": "rhf"
			},
			{
				"type": "unocc",
				"energy": 0.07015,
				"method": "rhf"
			},
			{
				"type": "unocc",
				"energy": 0.07374,
				"method": "rhf"
			}
		],
		"cosmo_sigma_profile": { 
			"-0.025": 0.0,
			"-0.024": 0.0,
			"-0.023": 0.0,
			"-0.022": 0.0,
			"-0.021": 0.0,
			"-0.02": 0.0,
			"-0.019": 0.0,
			"-0.018": 0.0,
			"-0.017": 0.0,
			"-0.016": 0.0,
			"-0.015": 0.0,
			"-0.014": 0.0,
			"-0.013": 1.03906795543,
			"-0.012": 2.68322714511,
			"-0.011": 3.1815216834,
			"-0.01": 3.0952697994,
			"-0.009": 2.40606149467,
			"-0.008": 3.33957664757,
			"-0.007": 6.38736798213,
			"-0.006": 17.8875670292,
			"-0.005": 25.2999651615,
			"-0.004": 25.8390765356,
			"-0.003": 17.7665599181,
			"-0.002": 15.3261457394,
			"-0.001": 10.8915430291,
			"0.0": 7.74449721912,
			"0.001": 8.53591699256,
			"0.002": 8.47082965333,
			"0.003": 10.3203089268,
			"0.004": 10.7699110808,
			"0.005": 14.7809862459,
			"0.006": 9.22736296731,
			"0.007": 2.83554184557,
			"0.008": 2.93540211234,
			"0.009": 2.92105634493,
			"0.01": 2.76140512852,
			"0.011": 2.55336093208,
			"0.012": 3.61308812896,
			"0.013": 3.14717629656,
			"0.014": 2.99951357861,
			"0.015": 3.69405835002,
			"0.016": 3.04243509465,
			"0.017": 2.20016617572,
			"0.018": 0.659072720563,
			"0.019": 0.0,
			"0.02": 0.0,
			"0.021": 0.0,
			"0.022": 0.0,
			"0.023": 0.0,
			"0.024": 0.0,
			"0.025": 0.0
		}
	}
}
