{
	 "smiles": "CC1N(C(=O)NC1=O)C1=CC=C(F)C=C1", 
	 "Tm": 461.15, 
	 "num_atms": 24, 
	 "gaussian": { 
		 "optdone": 1, 
		 "sigma_profile": "yes", 
		 "theory": "DFT", 
		 "functional": "B3LYP", 
		 "basiset": "6-31G**", 
		 "properties": { 
			 "R2extent": 3623.6088, 
			 "electric_dipole_moment_norm": 1.47846105461, 
			 "electric_quadrupole_moment_norm": 9.65677236658, 
			 "total_energy": -746.315004475, 
			 "HOMO_LUMO_gap": 0.20287, 
			 "cosmo_polarized_energy": -14.42, 
			 "cosmo_cavitation_energy": 28.61, 
			 "cosmo_dispersion_energy": -20.67, 
			 "cosmo_repulsion_energy": 1.58, 
			 "cosmo_total_nonelectrostatic_energy": 9.52, 
			 "SMD_solvation_energy": 6.73 
		},
		"coords": [
			{
				"x": 0.0292479534,
				"y": -1.6469095399,
				"z": 2.5388037299,
				"element": "C" 
			},
			{
				"x": -1.135371168,
				"y": -1.0462954133,
				"z": 1.7460677879,
				"element": "C" 
			},
			{
				"x": -0.8565863497,
				"y": -0.8362076686,
				"z": 0.3180391204,
				"element": "N" 
			},
			{
				"x": -1.7416877468,
				"y": -1.5409646667,
				"z": -0.4834322833,
				"element": "C" 
			},
			{
				"x": -1.8037814973,
				"y": -1.5938824121,
				"z": -1.695203237,
				"element": "O" 
			},
			{
				"x": -2.6035017105,
				"y": -2.2263032686,
				"z": 0.3934556554,
				"element": "N" 
			},
			{
				"x": -2.3359020353,
				"y": -2.0009139946,
				"z": 1.7237698462,
				"element": "C" 
			},
			{
				"x": -2.9091344571,
				"y": -2.4682483592,
				"z": 2.6840640688,
				"element": "O" 
			},
			{
				"x": 0.1208634883,
				"y": 0.0734312714,
				"z": -0.1649852164,
				"element": "C" 
			},
			{
				"x": 0.5604300557,
				"y": 1.1230104647,
				"z": 0.6563785336,
				"element": "C" 
			},
			{
				"x": 1.5319705563,
				"y": 2.0179480143,
				"z": 0.2096831887,
				"element": "C" 
			},
			{
				"x": 2.0530038659,
				"y": 1.8642671089,
				"z": -1.0676745751,
				"element": "C" 
			},
			{
				"x": 2.9911106262,
				"y": 2.7297446385,
				"z": -1.5060460209,
				"element": "F" 
			},
			{
				"x": 1.6298019519,
				"y": 0.8374245874,
				"z": -1.9031770614,
				"element": "C" 
			},
			{
				"x": 0.6692304176,
				"y": -0.0641513704,
				"z": -1.4515876694,
				"element": "C" 
			},
			{
				"x": 0.3675285907,
				"y": -2.5778541492,
				"z": 2.0750555342,
				"element": "H" 
			},
			{
				"x": 0.874141522,
				"y": -0.956595504,
				"z": 2.5849978515,
				"element": "H" 
			},
			{
				"x": -0.3100038249,
				"y": -1.864858871,
				"z": 3.5544569523,
				"element": "H" 
			},
			{
				"x": -1.470356383,
				"y": -0.1125456769,
				"z": 2.2166329342,
				"element": "H" 
			},
			{
				"x": -3.3382876108,
				"y": -2.8276178347,
				"z": 0.0485283978,
				"element": "H" 
			},
			{
				"x": 0.1457700493,
				"y": 1.2583547496,
				"z": 1.6487647652,
				"element": "H" 
			},
			{
				"x": 1.8779419416,
				"y": 2.8303465993,
				"z": 0.8391793113,
				"element": "H" 
			},
			{
				"x": 2.0565623423,
				"y": 0.7443090402,
				"z": -2.8959247676,
				"element": "H" 
			},
			{
				"x": 0.3265094223,
				"y": -0.8605877453,
				"z": -2.0969468463,
				"element": "H" 
			}
		],
		 "valence_orbital": [ 
			{
				"type": "occ",
				"energy": -0.29902,
				"method": "rhf"
			},
			{
				"type": "occ",
				"energy": -0.29873,
				"method": "rhf"
			},
			{
				"type": "occ",
				"energy": -0.27276,
				"method": "rhf"
			},
			{
				"type": "occ",
				"energy": -0.26718,
				"method": "rhf"
			},
			{
				"type": "occ",
				"energy": -0.22681,
				"method": "rhf"
			},
			{
				"type": "unocc",
				"energy": -0.02394,
				"method": "rhf"
			},
			{
				"type": "unocc",
				"energy": -0.01957,
				"method": "rhf"
			},
			{
				"type": "unocc",
				"energy": -0.00414,
				"method": "rhf"
			},
			{
				"type": "unocc",
				"energy": 0.05695,
				"method": "rhf"
			},
			{
				"type": "unocc",
				"energy": 0.07438,
				"method": "rhf"
			}
		],
		"cosmo_sigma_profile": { 
			"-0.025": 0.0,
			"-0.024": 0.0,
			"-0.023": 0.0,
			"-0.022": 0.0,
			"-0.021": 0.0,
			"-0.02": 0.0,
			"-0.019": 0.0,
			"-0.018": 0.0,
			"-0.017": 0.852693197992,
			"-0.016": 1.59796956945,
			"-0.015": 0.696597578684,
			"-0.014": 0.672212016964,
			"-0.013": 0.79119777291,
			"-0.012": 0.615444620666,
			"-0.011": 1.39201127815,
			"-0.01": 1.48612105123,
			"-0.009": 3.09466418878,
			"-0.008": 6.53427793501,
			"-0.007": 9.11684510697,
			"-0.006": 9.80900357465,
			"-0.005": 13.9997744773,
			"-0.004": 14.306378853,
			"-0.003": 14.4695043088,
			"-0.002": 16.1187252226,
			"-0.001": 16.7329440746,
			"0.0": 13.7085111265,
			"0.001": 14.3875954411,
			"0.002": 13.9105524983,
			"0.003": 17.2357629188,
			"0.004": 17.0292342865,
			"0.005": 7.69932207553,
			"0.006": 3.14478941149,
			"0.007": 2.23012216393,
			"0.008": 2.47146158843,
			"0.009": 2.70195416187,
			"0.01": 4.53002598608,
			"0.011": 6.65679104837,
			"0.012": 8.87425905664,
			"0.013": 1.84561757161,
			"0.014": 0.0,
			"0.015": 0.0,
			"0.016": 0.0,
			"0.017": 0.0,
			"0.018": 0.0,
			"0.019": 0.0,
			"0.02": 0.0,
			"0.021": 0.0,
			"0.022": 0.0,
			"0.023": 0.0,
			"0.024": 0.0,
			"0.025": 0.0
		}
	}
}
