{
	 "smiles": "BrC1=CC=C(OC2=CC=C(Br)C(Br)=C2Br)C(Br)=C1Br", 
	 "Tm": 456.15, 
	 "num_atms": 23, 
	 "gaussian": { 
		 "optdone": 1, 
		 "sigma_profile": "yes", 
		 "theory": "DFT", 
		 "functional": "B3LYP", 
		 "basiset": "6-31G**", 
		 "properties": { 
			 "R2extent": 22987.5183, 
			 "electric_dipole_moment_norm": 2.16362438977, 
			 "electric_quadrupole_moment_norm": 7.71055643323, 
			 "total_energy": -15963.2945882, 
			 "HOMO_LUMO_gap": 0.18788, 
			 "cosmo_polarized_energy": -8.67, 
			 "cosmo_cavitation_energy": 41.82, 
			 "cosmo_dispersion_energy": -31.46, 
			 "cosmo_repulsion_energy": 2.43, 
			 "cosmo_total_nonelectrostatic_energy": 12.79, 
			 "SMD_solvation_energy": 1.04 
		},
		"coords": [
			{
				"x": -4.0333105338,
				"y": 4.587700751,
				"z": 0.8272900192,
				"element": "Br" 
			},
			{
				"x": -3.2039834783,
				"y": 2.8920666855,
				"z": 1.0504421945,
				"element": "C" 
			},
			{
				"x": -1.8167445195,
				"y": 2.8306063067,
				"z": 0.9173491027,
				"element": "C" 
			},
			{
				"x": -1.147691236,
				"y": 1.6240511333,
				"z": 1.0723835858,
				"element": "C" 
			},
			{
				"x": -1.8668193814,
				"y": 0.4619280048,
				"z": 1.3518037662,
				"element": "C" 
			},
			{
				"x": -1.238559432,
				"y": -0.7379269751,
				"z": 1.5832115307,
				"element": "O" 
			},
			{
				"x": -0.1998163425,
				"y": -1.138807112,
				"z": 0.7780754143,
				"element": "C" 
			},
			{
				"x": -0.2579889443,
				"y": -1.0142798701,
				"z": -0.6100429479,
				"element": "C" 
			},
			{
				"x": 0.7820341913,
				"y": -1.4986783907,
				"z": -1.3918009575,
				"element": "C" 
			},
			{
				"x": 1.8814551562,
				"y": -2.1204091544,
				"z": -0.7996587088,
				"element": "C" 
			},
			{
				"x": 3.254399075,
				"y": -2.7576930687,
				"z": -1.9493217062,
				"element": "Br" 
			},
			{
				"x": 1.9492838765,
				"y": -2.260515519,
				"z": 0.594713694,
				"element": "C" 
			},
			{
				"x": 3.4371823979,
				"y": -3.1044703334,
				"z": 1.4040804439,
				"element": "Br" 
			},
			{
				"x": 0.9009533452,
				"y": -1.7594791395,
				"z": 1.3871862479,
				"element": "C" 
			},
			{
				"x": 0.917633517,
				"y": -1.8946431345,
				"z": 3.2764532907,
				"element": "Br" 
			},
			{
				"x": -3.2624730452,
				"y": 0.5085565729,
				"z": 1.4856574765,
				"element": "C" 
			},
			{
				"x": -4.1780142598,
				"y": -1.1059910952,
				"z": 1.8635334315,
				"element": "Br" 
			},
			{
				"x": -3.9393219566,
				"y": 1.732772215,
				"z": 1.3399870221,
				"element": "C" 
			},
			{
				"x": -5.8212621885,
				"y": 1.8096716019,
				"z": 1.5229571193,
				"element": "Br" 
			},
			{
				"x": -1.2637807971,
				"y": 3.7370974291,
				"z": 0.7027664525,
				"element": "H" 
			},
			{
				"x": -0.0679939618,
				"y": 1.5781891263,
				"z": 0.9855497913,
				"element": "H" 
			},
			{
				"x": -1.1205365098,
				"y": -0.5457273972,
				"z": -1.0703301311,
				"element": "H" 
			},
			{
				"x": 0.7416550276,
				"y": -1.4073186367,
				"z": -2.4704861316,
				"element": "H" 
			}
		],
		 "valence_orbital": [ 
			{
				"type": "occ",
				"energy": -0.27544,
				"method": "rhf"
			},
			{
				"type": "occ",
				"energy": -0.26244,
				"method": "rhf"
			},
			{
				"type": "occ",
				"energy": -0.26007,
				"method": "rhf"
			},
			{
				"type": "occ",
				"energy": -0.25914,
				"method": "rhf"
			},
			{
				"type": "occ",
				"energy": -0.24026,
				"method": "rhf"
			},
			{
				"type": "unocc",
				"energy": -0.05238,
				"method": "rhf"
			},
			{
				"type": "unocc",
				"energy": -0.04989,
				"method": "rhf"
			},
			{
				"type": "unocc",
				"energy": -0.04856,
				"method": "rhf"
			},
			{
				"type": "unocc",
				"energy": -0.04271,
				"method": "rhf"
			},
			{
				"type": "unocc",
				"energy": -0.03939,
				"method": "rhf"
			}
		],
		"cosmo_sigma_profile": { 
			"-0.025": 0.0,
			"-0.024": 0.0,
			"-0.023": 0.0,
			"-0.022": 0.0,
			"-0.021": 0.0,
			"-0.02": 0.0,
			"-0.019": 0.0,
			"-0.018": 0.0,
			"-0.017": 0.0,
			"-0.016": 0.0,
			"-0.015": 0.0,
			"-0.014": 0.0,
			"-0.013": 0.0,
			"-0.012": 0.0,
			"-0.011": 0.0,
			"-0.01": 0.00637119138543,
			"-0.009": 3.28932079207,
			"-0.008": 8.33425574066,
			"-0.007": 8.18535708646,
			"-0.006": 10.729878414,
			"-0.005": 14.2840431415,
			"-0.004": 15.3187690749,
			"-0.003": 16.9781287931,
			"-0.002": 20.5406830524,
			"-0.001": 42.0770291334,
			"0.0": 45.5830364357,
			"0.001": 36.1441737207,
			"0.002": 30.5566866042,
			"0.003": 48.8852326017,
			"0.004": 41.4645294748,
			"0.005": 9.64831416876,
			"0.006": 2.50884654964,
			"0.007": 1.96880013735,
			"0.008": 0.273220550235,
			"0.009": 0.0,
			"0.01": 0.0,
			"0.011": 0.0,
			"0.012": 0.0,
			"0.013": 0.0,
			"0.014": 0.0,
			"0.015": 0.0,
			"0.016": 0.0,
			"0.017": 0.0,
			"0.018": 0.0,
			"0.019": 0.0,
			"0.02": 0.0,
			"0.021": 0.0,
			"0.022": 0.0,
			"0.023": 0.0,
			"0.024": 0.0,
			"0.025": 0.0
		}
	}
}
