{
	 "smiles": "[O-][N+](=O)C1=C(Cl)C=CC(=C1)C(F)(F)F", 
	 "Tm": 270.4, 
	 "num_atms": 17, 
	 "gaussian": { 
		 "optdone": 1, 
		 "sigma_profile": "yes", 
		 "theory": "DFT", 
		 "functional": "B3LYP", 
		 "basiset": "6-31G**", 
		 "properties": { 
			 "R2extent": 4473.161, 
			 "electric_dipole_moment_norm": 3.65916608669, 
			 "electric_quadrupole_moment_norm": 6.53396526085, 
			 "total_energy": -1233.35563221, 
			 "HOMO_LUMO_gap": 0.18433, 
			 "cosmo_polarized_energy": -8.42, 
			 "cosmo_cavitation_energy": 25.93, 
			 "cosmo_dispersion_energy": -18.53, 
			 "cosmo_repulsion_energy": 1.4, 
			 "cosmo_total_nonelectrostatic_energy": 8.8, 
			 "SMD_solvation_energy": 7.65 
		},
		"coords": [
			{
				"x": -0.4759404854,
				"y": -1.3573430873,
				"z": 2.1476551592,
				"element": "O" 
			},
			{
				"x": 0.1628584881,
				"y": -1.3729150337,
				"z": 1.0964607992,
				"element": "N" 
			},
			{
				"x": 1.2810559357,
				"y": -1.852277877,
				"z": 0.9507255773,
				"element": "O" 
			},
			{
				"x": -0.5036968025,
				"y": -0.7956702929,
				"z": -0.0870587588,
				"element": "C" 
			},
			{
				"x": 0.191254761,
				"y": -0.1655171051,
				"z": -1.1306305838,
				"element": "C" 
			},
			{
				"x": 1.9093343621,
				"y": 0.0967254894,
				"z": -1.1278428679,
				"element": "Cl" 
			},
			{
				"x": -0.5381938774,
				"y": 0.3367166358,
				"z": -2.2144352824,
				"element": "C" 
			},
			{
				"x": -1.9201691566,
				"y": 0.1992249553,
				"z": -2.2655107259,
				"element": "C" 
			},
			{
				"x": -2.6019594708,
				"y": -0.4266103173,
				"z": -1.217453416,
				"element": "C" 
			},
			{
				"x": -1.8933858492,
				"y": -0.9111652911,
				"z": -0.124643276,
				"element": "C" 
			},
			{
				"x": -4.0957229616,
				"y": -0.6127937509,
				"z": -1.2982923296,
				"element": "C" 
			},
			{
				"x": -4.6458504156,
				"y": -0.7806952881,
				"z": -0.0798429755,
				"element": "F" 
			},
			{
				"x": -4.6899624851,
				"y": 0.4507687889,
				"z": -1.8801469299,
				"element": "F" 
			},
			{
				"x": -4.4142254781,
				"y": -1.6974621792,
				"z": -2.037750193,
				"element": "F" 
			},
			{
				"x": -0.0052490179,
				"y": 0.8409347971,
				"z": -3.0121920339,
				"element": "H" 
			},
			{
				"x": -2.47071855,
				"y": 0.5928861657,
				"z": -3.1129874519,
				"element": "H" 
			},
			{
				"x": -2.3976289967,
				"y": -1.3766066095,
				"z": 0.712545289,
				"element": "H" 
			}
		],
		 "valence_orbital": [ 
			{
				"type": "occ",
				"energy": -0.32367,
				"method": "rhf"
			},
			{
				"type": "occ",
				"energy": -0.32239,
				"method": "rhf"
			},
			{
				"type": "occ",
				"energy": -0.31189,
				"method": "rhf"
			},
			{
				"type": "occ",
				"energy": -0.29515,
				"method": "rhf"
			},
			{
				"type": "occ",
				"energy": -0.28758,
				"method": "rhf"
			},
			{
				"type": "unocc",
				"energy": -0.10325,
				"method": "rhf"
			},
			{
				"type": "unocc",
				"energy": -0.06117,
				"method": "rhf"
			},
			{
				"type": "unocc",
				"energy": -0.0341,
				"method": "rhf"
			},
			{
				"type": "unocc",
				"energy": -0.00071,
				"method": "rhf"
			},
			{
				"type": "unocc",
				"energy": 0.08996,
				"method": "rhf"
			}
		],
		"cosmo_sigma_profile": { 
			"-0.025": 0.0,
			"-0.024": 0.0,
			"-0.023": 0.0,
			"-0.022": 0.0,
			"-0.021": 0.0,
			"-0.02": 0.0,
			"-0.019": 0.0,
			"-0.018": 0.0,
			"-0.017": 0.0,
			"-0.016": 0.0,
			"-0.015": 0.0,
			"-0.014": 0.0,
			"-0.013": 0.0,
			"-0.012": 0.0,
			"-0.011": 0.0,
			"-0.01": 0.417408977162,
			"-0.009": 4.22427619395,
			"-0.008": 7.90700429568,
			"-0.007": 6.11356815938,
			"-0.006": 6.82015086725,
			"-0.005": 7.25291748045,
			"-0.004": 8.97366722815,
			"-0.003": 13.8053839105,
			"-0.002": 21.288713424,
			"-0.001": 19.2272328398,
			"0.0": 14.1587463849,
			"0.001": 14.9216886614,
			"0.002": 33.8189631166,
			"0.003": 19.1973480989,
			"0.004": 3.59286800433,
			"0.005": 3.74437203073,
			"0.006": 6.72382145751,
			"0.007": 10.5510112742,
			"0.008": 5.88518476851,
			"0.009": 2.76641544334,
			"0.01": 0.248746082204,
			"0.011": 0.0,
			"0.012": 0.0,
			"0.013": 0.0,
			"0.014": 0.0,
			"0.015": 0.0,
			"0.016": 0.0,
			"0.017": 0.0,
			"0.018": 0.0,
			"0.019": 0.0,
			"0.02": 0.0,
			"0.021": 0.0,
			"0.022": 0.0,
			"0.023": 0.0,
			"0.024": 0.0,
			"0.025": 0.0
		}
	}
}
