{
	 "smiles": "CC1=C2C=CC=CC2=C(NCC2CC2)N=N1", 
	 "Tm": 363.15, 
	 "num_atms": 31, 
	 "gaussian": { 
		 "optdone": 1, 
		 "sigma_profile": "yes", 
		 "theory": "DFT", 
		 "functional": "B3LYP", 
		 "basiset": "6-31G**", 
		 "properties": { 
			 "R2extent": 5536.9408, 
			 "electric_dipole_moment_norm": 4.35064202274, 
			 "electric_quadrupole_moment_norm": 14.8883322676, 
			 "total_energy": -668.634890463, 
			 "HOMO_LUMO_gap": 0.16028, 
			 "cosmo_polarized_energy": -15.26, 
			 "cosmo_cavitation_energy": 33.81, 
			 "cosmo_dispersion_energy": -24.69, 
			 "cosmo_repulsion_energy": 1.92, 
			 "cosmo_total_nonelectrostatic_energy": 11.04, 
			 "SMD_solvation_energy": 2.57 
		},
		"coords": [
			{
				"x": 4.8591731155,
				"y": -0.9072741577,
				"z": -2.4278307466,
				"element": "C" 
			},
			{
				"x": 3.5294957293,
				"y": -0.7938374864,
				"z": -1.7276741891,
				"element": "C" 
			},
			{
				"x": 2.3779251154,
				"y": -1.538824933,
				"z": -2.1641247767,
				"element": "C" 
			},
			{
				"x": 2.3887939208,
				"y": -2.4216263317,
				"z": -3.2707312448,
				"element": "C" 
			},
			{
				"x": 1.235921497,
				"y": -3.0780858553,
				"z": -3.6559202365,
				"element": "C" 
			},
			{
				"x": 0.0292542904,
				"y": -2.8656362267,
				"z": -2.9582744476,
				"element": "C" 
			},
			{
				"x": -0.0048275856,
				"y": -2.0108756132,
				"z": -1.8725975418,
				"element": "C" 
			},
			{
				"x": 1.1689646802,
				"y": -1.3485051566,
				"z": -1.4486070477,
				"element": "C" 
			},
			{
				"x": 1.2399014601,
				"y": -0.4562375799,
				"z": -0.3130477113,
				"element": "C" 
			},
			{
				"x": 0.1200502107,
				"y": -0.2202585109,
				"z": 0.4522149544,
				"element": "N" 
			},
			{
				"x": 0.2015135924,
				"y": 0.5835550932,
				"z": 1.670157129,
				"element": "C" 
			},
			{
				"x": -1.1770816631,
				"y": 0.7639228282,
				"z": 2.2615793725,
				"element": "C" 
			},
			{
				"x": -1.3335560818,
				"y": 0.9764486292,
				"z": 3.7443310895,
				"element": "C" 
			},
			{
				"x": -1.7771775326,
				"y": -0.326927161,
				"z": 3.1256175732,
				"element": "C" 
			},
			{
				"x": 2.3450215729,
				"y": 0.1903523715,
				"z": 0.0211045835,
				"element": "N" 
			},
			{
				"x": 3.481727236,
				"y": 0.0318297427,
				"z": -0.7056618677,
				"element": "N" 
			},
			{
				"x": 5.2475988038,
				"y": -1.9325281022,
				"z": -2.3992807584,
				"element": "H" 
			},
			{
				"x": 5.5724522082,
				"y": -0.2502858779,
				"z": -1.928169694,
				"element": "H" 
			},
			{
				"x": 4.7905590567,
				"y": -0.613391973,
				"z": -3.4820974936,
				"element": "H" 
			},
			{
				"x": 3.3109181203,
				"y": -2.5774626718,
				"z": -3.8203985589,
				"element": "H" 
			},
			{
				"x": 1.2540864225,
				"y": -3.7533038623,
				"z": -4.506454729,
				"element": "H" 
			},
			{
				"x": -0.8770403993,
				"y": -3.3697065114,
				"z": -3.2805567731,
				"element": "H" 
			},
			{
				"x": -0.947431646,
				"y": -1.8319531233,
				"z": -1.3648347358,
				"element": "H" 
			},
			{
				"x": -0.5515640331,
				"y": -0.9731392199,
				"z": 0.4989994769,
				"element": "H" 
			},
			{
				"x": 0.876598074,
				"y": 0.1227868564,
				"z": 2.4081780194,
				"element": "H" 
			},
			{
				"x": 0.6498069445,
				"y": 1.546299042,
				"z": 1.4096720103,
				"element": "H" 
			},
			{
				"x": -1.8721179382,
				"y": 1.3029223499,
				"z": 1.6207121554,
				"element": "H" 
			},
			{
				"x": -0.435779293,
				"y": 0.9668227256,
				"z": 4.3559844573,
				"element": "H" 
			},
			{
				"x": -2.0944243701,
				"y": 1.6716159885,
				"z": 4.0850126039,
				"element": "H" 
			},
			{
				"x": -1.1735969523,
				"y": -1.2087145337,
				"z": 3.3260247345,
				"element": "H" 
			},
			{
				"x": -2.8418645558,
				"y": -0.5249807392,
				"z": 3.0466743929,
				"element": "H" 
			}
		],
		 "valence_orbital": [ 
			{
				"type": "occ",
				"energy": -0.28364,
				"method": "rhf"
			},
			{
				"type": "occ",
				"energy": -0.27017,
				"method": "rhf"
			},
			{
				"type": "occ",
				"energy": -0.25886,
				"method": "rhf"
			},
			{
				"type": "occ",
				"energy": -0.21304,
				"method": "rhf"
			},
			{
				"type": "occ",
				"energy": -0.20686,
				"method": "rhf"
			},
			{
				"type": "unocc",
				"energy": -0.04658,
				"method": "rhf"
			},
			{
				"type": "unocc",
				"energy": -0.03099,
				"method": "rhf"
			},
			{
				"type": "unocc",
				"energy": 0.0373,
				"method": "rhf"
			},
			{
				"type": "unocc",
				"energy": 0.07364,
				"method": "rhf"
			},
			{
				"type": "unocc",
				"energy": 0.08352,
				"method": "rhf"
			}
		],
		"cosmo_sigma_profile": { 
			"-0.025": 0.0,
			"-0.024": 0.0,
			"-0.023": 0.0,
			"-0.022": 0.0,
			"-0.021": 0.0,
			"-0.02": 0.0,
			"-0.019": 0.0,
			"-0.018": 0.0,
			"-0.017": 0.0,
			"-0.016": 0.0,
			"-0.015": 0.0,
			"-0.014": 0.0,
			"-0.013": 0.37446513752,
			"-0.012": 1.08762602345,
			"-0.011": 1.02103411702,
			"-0.01": 1.14157110944,
			"-0.009": 1.24398103693,
			"-0.008": 1.57353478009,
			"-0.007": 4.50049301645,
			"-0.006": 9.17906841979,
			"-0.005": 16.6089227277,
			"-0.004": 28.511896652,
			"-0.003": 25.5506294895,
			"-0.002": 23.3877780959,
			"-0.001": 22.440494639,
			"0.0": 26.7135248474,
			"0.001": 21.826888804,
			"0.002": 20.9631590441,
			"0.003": 18.6018007422,
			"0.004": 10.3065428527,
			"0.005": 5.4251236359,
			"0.006": 4.12993370603,
			"0.007": 2.30416598758,
			"0.008": 1.80188031005,
			"0.009": 3.42314685555,
			"0.01": 1.93311319211,
			"0.011": 1.42076184029,
			"0.012": 2.03150131296,
			"0.013": 1.97613905535,
			"0.014": 1.68944855125,
			"0.015": 2.2806188434,
			"0.016": 2.53181096837,
			"0.017": 1.72181888855,
			"0.018": 0.313844817471,
			"0.019": 0.0,
			"0.02": 0.0,
			"0.021": 0.0,
			"0.022": 0.0,
			"0.023": 0.0,
			"0.024": 0.0,
			"0.025": 0.0
		}
	}
}
