{
	 "smiles": "CN(C(C)=O)C1=C(C=CC=C1)C(O)=O", 
	 "Tm": 470.15, 
	 "num_atms": 25, 
	 "gaussian": { 
		 "optdone": 1, 
		 "sigma_profile": "yes", 
		 "theory": "DFT", 
		 "functional": "B3LYP", 
		 "basiset": "6-31G**", 
		 "properties": { 
			 "R2extent": 2892.4311, 
			 "electric_dipole_moment_norm": 3.26596150161, 
			 "electric_quadrupole_moment_norm": 13.0975929212, 
			 "total_energy": -668.142181434, 
			 "HOMO_LUMO_gap": 0.17577, 
			 "cosmo_polarized_energy": -14.88, 
			 "cosmo_cavitation_energy": 28.94, 
			 "cosmo_dispersion_energy": -20.05, 
			 "cosmo_repulsion_energy": 1.58, 
			 "cosmo_total_nonelectrostatic_energy": 10.48, 
			 "SMD_solvation_energy": 7.58 
		},
		"coords": [
			{
				"x": -0.69951529,
				"y": -2.0991837376,
				"z": -1.30430166,
				"element": "C" 
			},
			{
				"x": -0.6273077869,
				"y": -0.7572290228,
				"z": -0.7283665649,
				"element": "N" 
			},
			{
				"x": -1.4713214712,
				"y": 0.2285563104,
				"z": -1.2140644065,
				"element": "C" 
			},
			{
				"x": -1.4237564355,
				"y": 1.5739380041,
				"z": -0.5091991854,
				"element": "C" 
			},
			{
				"x": -2.2159410578,
				"y": 0.0252504447,
				"z": -2.1637309722,
				"element": "O" 
			},
			{
				"x": 0.2194323135,
				"y": -0.5853043277,
				"z": 0.4113657582,
				"element": "C" 
			},
			{
				"x": -0.1912684923,
				"y": -0.8419893613,
				"z": 1.7409871071,
				"element": "C" 
			},
			{
				"x": 0.7395972397,
				"y": -0.6920614129,
				"z": 2.7825623311,
				"element": "C" 
			},
			{
				"x": 2.0487343169,
				"y": -0.2963348311,
				"z": 2.533482924,
				"element": "C" 
			},
			{
				"x": 2.4541309845,
				"y": -0.0462740515,
				"z": 1.221434242,
				"element": "C" 
			},
			{
				"x": 1.5448076796,
				"y": -0.1970649187,
				"z": 0.1763867276,
				"element": "C" 
			},
			{
				"x": -1.5578204961,
				"y": -1.267410342,
				"z": 2.1769484225,
				"element": "C" 
			},
			{
				"x": -2.4892082563,
				"y": -1.2892888872,
				"z": 1.1971067328,
				"element": "O" 
			},
			{
				"x": -1.8346729489,
				"y": -1.563770385,
				"z": 3.3232500737,
				"element": "O" 
			},
			{
				"x": -1.1961157769,
				"y": -2.7942903118,
				"z": -0.6178421306,
				"element": "H" 
			},
			{
				"x": 0.3061348221,
				"y": -2.4711675586,
				"z": -1.5244313264,
				"element": "H" 
			},
			{
				"x": -1.280728075,
				"y": -2.028837681,
				"z": -2.2231505127,
				"element": "H" 
			},
			{
				"x": -0.4032932112,
				"y": 1.9441669577,
				"z": -0.3806900015,
				"element": "H" 
			},
			{
				"x": -2.0006711675,
				"y": 2.2807197966,
				"z": -1.1051497656,
				"element": "H" 
			},
			{
				"x": -1.8757553325,
				"y": 1.4950631178,
				"z": 0.4846898469,
				"element": "H" 
			},
			{
				"x": 0.3998855745,
				"y": -0.8964442255,
				"z": 3.7917732758,
				"element": "H" 
			},
			{
				"x": 2.7480041995,
				"y": -0.185034443,
				"z": 3.3563130068,
				"element": "H" 
			},
			{
				"x": 3.4739795047,
				"y": 0.2617345403,
				"z": 1.0101665586,
				"element": "H" 
			},
			{
				"x": 1.846424418,
				"y": -0.0142253254,
				"z": -0.8504183036,
				"element": "H" 
			},
			{
				"x": -3.313755255,
				"y": -1.5746183484,
				"z": 1.6263778223,
				"element": "H" 
			}
		],
		 "valence_orbital": [ 
			{
				"type": "occ",
				"energy": -0.28792,
				"method": "rhf"
			},
			{
				"type": "occ",
				"energy": -0.2778,
				"method": "rhf"
			},
			{
				"type": "occ",
				"energy": -0.27362,
				"method": "rhf"
			},
			{
				"type": "occ",
				"energy": -0.2426,
				"method": "rhf"
			},
			{
				"type": "occ",
				"energy": -0.23805,
				"method": "rhf"
			},
			{
				"type": "unocc",
				"energy": -0.06228,
				"method": "rhf"
			},
			{
				"type": "unocc",
				"energy": -0.02598,
				"method": "rhf"
			},
			{
				"type": "unocc",
				"energy": 0.0328,
				"method": "rhf"
			},
			{
				"type": "unocc",
				"energy": 0.04397,
				"method": "rhf"
			},
			{
				"type": "unocc",
				"energy": 0.0685,
				"method": "rhf"
			}
		],
		"cosmo_sigma_profile": { 
			"-0.025": 0.0,
			"-0.024": 0.0,
			"-0.023": 0.0,
			"-0.022": 0.0,
			"-0.021": 0.0,
			"-0.02": 0.0,
			"-0.019": 0.176461676954,
			"-0.018": 0.829791185651,
			"-0.017": 0.589806489305,
			"-0.016": 1.03572308027,
			"-0.015": 1.13902512982,
			"-0.014": 0.657191305999,
			"-0.013": 0.175584324641,
			"-0.012": 0.542177540881,
			"-0.011": 1.00396462932,
			"-0.01": 0.708281717232,
			"-0.009": 0.364802673655,
			"-0.008": 0.901952967398,
			"-0.007": 4.97152222549,
			"-0.006": 9.20555155199,
			"-0.005": 14.1498301952,
			"-0.004": 20.5668317116,
			"-0.003": 23.9301379586,
			"-0.002": 23.4688235736,
			"-0.001": 24.0646204913,
			"0.0": 16.0539180814,
			"0.001": 13.8087067627,
			"0.002": 13.9880711605,
			"0.003": 11.9227571121,
			"0.004": 5.26707071899,
			"0.005": 3.96572961325,
			"0.006": 2.98456707187,
			"0.007": 3.12185705501,
			"0.008": 4.14176757702,
			"0.009": 2.92363867305,
			"0.01": 3.37364470282,
			"0.011": 5.84373337564,
			"0.012": 4.75770115035,
			"0.013": 3.8731394245,
			"0.014": 4.13253417178,
			"0.015": 1.09219064012,
			"0.016": 0.0,
			"0.017": 0.0,
			"0.018": 0.0,
			"0.019": 0.0,
			"0.02": 0.0,
			"0.021": 0.0,
			"0.022": 0.0,
			"0.023": 0.0,
			"0.024": 0.0,
			"0.025": 0.0
		}
	}
}
