{
	 "smiles": "FC1=CC(=CC(F)=C1)C(=O)C1=CC=CC=C1", 
	 "Tm": 331.15, 
	 "num_atms": 24, 
	 "gaussian": { 
		 "optdone": 1, 
		 "sigma_profile": "yes", 
		 "theory": "DFT", 
		 "functional": "B3LYP", 
		 "basiset": "6-31G**", 
		 "properties": { 
			 "R2extent": 5084.6571, 
			 "electric_dipole_moment_norm": 2.87583186748, 
			 "electric_quadrupole_moment_norm": 11.6933003237, 
			 "total_energy": -775.09612551, 
			 "HOMO_LUMO_gap": 0.17797, 
			 "cosmo_polarized_energy": -8.03, 
			 "cosmo_cavitation_energy": 30.03, 
			 "cosmo_dispersion_energy": -21.38, 
			 "cosmo_repulsion_energy": 1.6, 
			 "cosmo_total_nonelectrostatic_energy": 10.26, 
			 "SMD_solvation_energy": 6.56 
		},
		"coords": [
			{
				"x": 4.1956462009,
				"y": -3.8688136202,
				"z": -0.0736139981,
				"element": "F" 
			},
			{
				"x": 3.3103382479,
				"y": -2.8630511043,
				"z": -0.2003559645,
				"element": "C" 
			},
			{
				"x": 2.3489264803,
				"y": -2.679751286,
				"z": 0.781773194,
				"element": "C" 
			},
			{
				"x": 1.4177094184,
				"y": -1.641723337,
				"z": 0.6329836686,
				"element": "C" 
			},
			{
				"x": 1.4853351718,
				"y": -0.7898795079,
				"z": -0.4791165886,
				"element": "C" 
			},
			{
				"x": 2.4809612607,
				"y": -1.0057393743,
				"z": -1.4257005608,
				"element": "C" 
			},
			{
				"x": 2.5568749465,
				"y": -0.1819769261,
				"z": -2.4885249803,
				"element": "F" 
			},
			{
				"x": 3.4032108411,
				"y": -2.0394715935,
				"z": -1.3195948411,
				"element": "C" 
			},
			{
				"x": 0.4280455727,
				"y": -1.439390274,
				"z": 1.7505416696,
				"element": "C" 
			},
			{
				"x": 0.7285606359,
				"y": -1.7916266202,
				"z": 2.8846304618,
				"element": "O" 
			},
			{
				"x": -0.9063604408,
				"y": -0.8123340848,
				"z": 1.4856627173,
				"element": "C" 
			},
			{
				"x": -1.5406756619,
				"y": -0.1576786987,
				"z": 2.5546048348,
				"element": "C" 
			},
			{
				"x": -2.8014977742,
				"y": 0.4061370424,
				"z": 2.3875910936,
				"element": "C" 
			},
			{
				"x": -3.4576592293,
				"y": 0.3002172031,
				"z": 1.157020274,
				"element": "C" 
			},
			{
				"x": -2.8476676832,
				"y": -0.3717714123,
				"z": 0.0966909357,
				"element": "C" 
			},
			{
				"x": -1.5749694922,
				"y": -0.9212980826,
				"z": 0.2559485711,
				"element": "C" 
			},
			{
				"x": 2.317606499,
				"y": -3.318670493,
				"z": 1.6558197921,
				"element": "H" 
			},
			{
				"x": 0.8040060486,
				"y": 0.0421213307,
				"z": -0.6054241212,
				"element": "H" 
			},
			{
				"x": 4.1662293233,
				"y": -2.194588452,
				"z": -2.0725539164,
				"element": "H" 
			},
			{
				"x": -1.0243613956,
				"y": -0.1054935716,
				"z": 3.5072999984,
				"element": "H" 
			},
			{
				"x": -3.2779877027,
				"y": 0.9229750712,
				"z": 3.2154251255,
				"element": "H" 
			},
			{
				"x": -4.4447370525,
				"y": 0.7350403549,
				"z": 1.0282493277,
				"element": "H" 
			},
			{
				"x": -3.3628791704,
				"y": -0.4716555387,
				"z": -0.854057774,
				"element": "H" 
			},
			{
				"x": -1.1149550442,
				"y": -1.4574770251,
				"z": -0.5671989192,
				"element": "H" 
			}
		],
		 "valence_orbital": [ 
			{
				"type": "occ",
				"energy": -0.27329,
				"method": "rhf"
			},
			{
				"type": "occ",
				"energy": -0.26813,
				"method": "rhf"
			},
			{
				"type": "occ",
				"energy": -0.26577,
				"method": "rhf"
			},
			{
				"type": "occ",
				"energy": -0.25886,
				"method": "rhf"
			},
			{
				"type": "occ",
				"energy": -0.25275,
				"method": "rhf"
			},
			{
				"type": "unocc",
				"energy": -0.07478,
				"method": "rhf"
			},
			{
				"type": "unocc",
				"energy": -0.02476,
				"method": "rhf"
			},
			{
				"type": "unocc",
				"energy": -0.01601,
				"method": "rhf"
			},
			{
				"type": "unocc",
				"energy": -0.0085,
				"method": "rhf"
			},
			{
				"type": "unocc",
				"energy": 0.04824,
				"method": "rhf"
			}
		],
		"cosmo_sigma_profile": { 
			"-0.025": 0.0,
			"-0.024": 0.0,
			"-0.023": 0.0,
			"-0.022": 0.0,
			"-0.021": 0.0,
			"-0.02": 0.0,
			"-0.019": 0.0,
			"-0.018": 0.0,
			"-0.017": 0.0,
			"-0.016": 0.0,
			"-0.015": 0.0,
			"-0.014": 0.0,
			"-0.013": 0.0,
			"-0.012": 0.0,
			"-0.011": 0.0,
			"-0.01": 0.0851745620222,
			"-0.009": 1.50157934375,
			"-0.008": 1.96702215675,
			"-0.007": 5.16093834012,
			"-0.006": 13.7089286844,
			"-0.005": 16.278999227,
			"-0.004": 17.7247943017,
			"-0.003": 14.6252717206,
			"-0.002": 15.3330676055,
			"-0.001": 21.6172838164,
			"0.0": 27.8083932025,
			"0.001": 21.2881187404,
			"0.002": 15.8662004034,
			"0.003": 23.2395915403,
			"0.004": 28.2456537261,
			"0.005": 2.53872607283,
			"0.006": 2.07844931234,
			"0.007": 1.15829387206,
			"0.008": 1.86291488386,
			"0.009": 2.26172177303,
			"0.01": 1.94583276658,
			"0.011": 3.67538072735,
			"0.012": 2.63015983009,
			"0.013": 0.0238319359363,
			"0.014": 0.0,
			"0.015": 0.0,
			"0.016": 0.0,
			"0.017": 0.0,
			"0.018": 0.0,
			"0.019": 0.0,
			"0.02": 0.0,
			"0.021": 0.0,
			"0.022": 0.0,
			"0.023": 0.0,
			"0.024": 0.0,
			"0.025": 0.0
		}
	}
}
