{
	 "smiles": "CC(C)C(C)=O", 
	 "Tm": 180.65, 
	 "num_atms": 16, 
	 "gaussian": { 
		 "optdone": 1, 
		 "sigma_profile": "yes", 
		 "theory": "DFT", 
		 "functional": "B3LYP", 
		 "basiset": "6-31G**", 
		 "properties": { 
			 "R2extent": 692.0018, 
			 "electric_dipole_moment_norm": 2.81529556885, 
			 "electric_quadrupole_moment_norm": 3.4216508691, 
			 "total_energy": -271.790242122, 
			 "HOMO_LUMO_gap": 0.22744, 
			 "cosmo_polarized_energy": -6.66, 
			 "cosmo_cavitation_energy": 18.53, 
			 "cosmo_dispersion_energy": -13.25, 
			 "cosmo_repulsion_energy": 1.15, 
			 "cosmo_total_nonelectrostatic_energy": 6.43, 
			 "SMD_solvation_energy": 4.25 
		},
		"coords": [
			{
				"x": 1.1201958482,
				"y": 1.6309420974,
				"z": 1.0035142203,
				"element": "C" 
			},
			{
				"x": -0.1742963593,
				"y": 1.245301134,
				"z": 0.2581009334,
				"element": "C" 
			},
			{
				"x": -0.3218589949,
				"y": 2.0300012721,
				"z": -1.054803749,
				"element": "C" 
			},
			{
				"x": -0.222514677,
				"y": -0.2757822007,
				"z": 0.0703182937,
				"element": "C" 
			},
			{
				"x": 0.57391478,
				"y": -0.8907320435,
				"z": -1.0704564595,
				"element": "C" 
			},
			{
				"x": -0.869271294,
				"y": -0.9730139046,
				"z": 0.8302160409,
				"element": "O" 
			},
			{
				"x": 1.2054236293,
				"y": 1.0918977352,
				"z": 1.951746684,
				"element": "H" 
			},
			{
				"x": 1.1244524966,
				"y": 2.7039996629,
				"z": 1.2213793611,
				"element": "H" 
			},
			{
				"x": 2.0112576172,
				"y": 1.4123042452,
				"z": 0.4042021344,
				"element": "H" 
			},
			{
				"x": -1.0231433959,
				"y": 1.472142398,
				"z": 0.9128025082,
				"element": "H" 
			},
			{
				"x": 0.5256922734,
				"y": 1.8598344081,
				"z": -1.7275148151,
				"element": "H" 
			},
			{
				"x": -0.3646682918,
				"y": 3.1043849646,
				"z": -0.8481618891,
				"element": "H" 
			},
			{
				"x": -1.2385056326,
				"y": 1.7582372996,
				"z": -1.5888665369,
				"element": "H" 
			},
			{
				"x": 0.6210257992,
				"y": -1.9719404317,
				"z": -0.9339628993,
				"element": "H" 
			},
			{
				"x": 0.0824542493,
				"y": -0.6753992843,
				"z": -2.0265935642,
				"element": "H" 
			},
			{
				"x": 1.5856419524,
				"y": -0.4762773523,
				"z": -1.131820263,
				"element": "H" 
			}
		],
		 "valence_orbital": [ 
			{
				"type": "occ",
				"energy": -0.36564,
				"method": "rhf"
			},
			{
				"type": "occ",
				"energy": -0.36016,
				"method": "rhf"
			},
			{
				"type": "occ",
				"energy": -0.34148,
				"method": "rhf"
			},
			{
				"type": "occ",
				"energy": -0.33208,
				"method": "rhf"
			},
			{
				"type": "occ",
				"energy": -0.23689,
				"method": "rhf"
			},
			{
				"type": "unocc",
				"energy": -0.00945,
				"method": "rhf"
			},
			{
				"type": "unocc",
				"energy": 0.0753,
				"method": "rhf"
			},
			{
				"type": "unocc",
				"energy": 0.11842,
				"method": "rhf"
			},
			{
				"type": "unocc",
				"energy": 0.12806,
				"method": "rhf"
			},
			{
				"type": "unocc",
				"energy": 0.1402,
				"method": "rhf"
			}
		],
		"cosmo_sigma_profile": { 
			"-0.025": 0.0,
			"-0.024": 0.0,
			"-0.023": 0.0,
			"-0.022": 0.0,
			"-0.021": 0.0,
			"-0.02": 0.0,
			"-0.019": 0.0,
			"-0.018": 0.0,
			"-0.017": 0.0,
			"-0.016": 0.0,
			"-0.015": 0.0,
			"-0.014": 0.0,
			"-0.013": 0.0,
			"-0.012": 0.0,
			"-0.011": 0.0,
			"-0.01": 0.0,
			"-0.009": 0.0,
			"-0.008": 0.0,
			"-0.007": 0.0,
			"-0.006": 1.57455821411,
			"-0.005": 7.90757188674,
			"-0.004": 14.128499423,
			"-0.003": 22.6709996487,
			"-0.002": 21.0508873411,
			"-0.001": 20.7575246711,
			"0.0": 19.0056715561,
			"0.001": 10.5949667358,
			"0.002": 2.15612645554,
			"0.003": 1.29846141224,
			"0.004": 1.92036767213,
			"0.005": 1.27170728273,
			"0.006": 1.56169334243,
			"0.007": 1.42966738122,
			"0.008": 1.51057787445,
			"0.009": 1.90884260293,
			"0.01": 1.97370975388,
			"0.011": 2.4011139261,
			"0.012": 4.26887650526,
			"0.013": 3.69213021836,
			"0.014": 0.696915510003,
			"0.015": 0.0,
			"0.016": 0.0,
			"0.017": 0.0,
			"0.018": 0.0,
			"0.019": 0.0,
			"0.02": 0.0,
			"0.021": 0.0,
			"0.022": 0.0,
			"0.023": 0.0,
			"0.024": 0.0,
			"0.025": 0.0
		}
	}
}
