{
	 "smiles": "CC1=C(NC(=O)CCl)C(C)=NN1", 
	 "Tm": 434.15, 
	 "num_atms": 22, 
	 "gaussian": { 
		 "optdone": 1, 
		 "sigma_profile": "yes", 
		 "theory": "DFT", 
		 "functional": "B3LYP", 
		 "basiset": "6-31G**", 
		 "properties": { 
			 "R2extent": 2963.5493, 
			 "electric_dipole_moment_norm": 5.57880561052, 
			 "electric_quadrupole_moment_norm": 16.0251148598, 
			 "total_energy": -972.442664475, 
			 "HOMO_LUMO_gap": 0.25216, 
			 "cosmo_polarized_energy": -19.63, 
			 "cosmo_cavitation_energy": 28.38, 
			 "cosmo_dispersion_energy": -19.71, 
			 "cosmo_repulsion_energy": 1.64, 
			 "cosmo_total_nonelectrostatic_energy": 10.3, 
			 "SMD_solvation_energy": 4.77 
		},
		"coords": [
			{
				"x": -0.6589295431,
				"y": 2.1642340686,
				"z": -2.5527296686,
				"element": "C" 
			},
			{
				"x": -0.2362242591,
				"y": 2.3691870658,
				"z": -1.1351599421,
				"element": "C" 
			},
			{
				"x": -0.7123281875,
				"y": 1.8164201701,
				"z": 0.0492207933,
				"element": "C" 
			},
			{
				"x": -1.7793417244,
				"y": 0.8950326924,
				"z": 0.1780898139,
				"element": "N" 
			},
			{
				"x": -1.6974081937,
				"y": -0.4821831181,
				"z": 0.2238556152,
				"element": "C" 
			},
			{
				"x": -2.6750034087,
				"y": -1.1769749304,
				"z": 0.4197820759,
				"element": "O" 
			},
			{
				"x": -0.2807450065,
				"y": -1.0291454821,
				"z": -0.0066284275,
				"element": "C" 
			},
			{
				"x": -0.225608553,
				"y": -2.8169587741,
				"z": 0.0434282345,
				"element": "Cl" 
			},
			{
				"x": 0.0673983437,
				"y": 2.3981346126,
				"z": 1.0920811567,
				"element": "C" 
			},
			{
				"x": -0.0375136034,
				"y": 2.1672907047,
				"z": 2.5675358516,
				"element": "C" 
			},
			{
				"x": 0.9646128016,
				"y": 3.2412095203,
				"z": 0.5901334574,
				"element": "N" 
			},
			{
				"x": 0.7613396972,
				"y": 3.2042182637,
				"z": -0.7519328977,
				"element": "N" 
			},
			{
				"x": 0.146174441,
				"y": 1.7390482688,
				"z": -3.1631205431,
				"element": "H" 
			},
			{
				"x": -0.9708747217,
				"y": 3.1038963039,
				"z": -3.0223581606,
				"element": "H" 
			},
			{
				"x": -1.5061452393,
				"y": 1.4753840684,
				"z": -2.5833999038,
				"element": "H" 
			},
			{
				"x": -2.7129665428,
				"y": 1.2382031966,
				"z": 0.3734967112,
				"element": "H" 
			},
			{
				"x": 0.4020417643,
				"y": -0.6497800459,
				"z": 0.7559728097,
				"element": "H" 
			},
			{
				"x": 0.0964203771,
				"y": -0.7091512384,
				"z": -0.9795065179,
				"element": "H" 
			},
			{
				"x": 0.1279782445,
				"y": 1.1155976878,
				"z": 2.826991639,
				"element": "H" 
			},
			{
				"x": 0.707799618,
				"y": 2.7720511172,
				"z": 3.0878318865,
				"element": "H" 
			},
			{
				"x": -1.0298206418,
				"y": 2.4379184784,
				"z": 2.9448247428,
				"element": "H" 
			},
			{
				"x": 1.3412443376,
				"y": 3.7781673698,
				"z": -1.3445087264,
				"element": "H" 
			}
		],
		 "valence_orbital": [ 
			{
				"type": "occ",
				"energy": -0.29362,
				"method": "rhf"
			},
			{
				"type": "occ",
				"energy": -0.27176,
				"method": "rhf"
			},
			{
				"type": "occ",
				"energy": -0.26269,
				"method": "rhf"
			},
			{
				"type": "occ",
				"energy": -0.25758,
				"method": "rhf"
			},
			{
				"type": "occ",
				"energy": -0.24918,
				"method": "rhf"
			},
			{
				"type": "unocc",
				"energy": 0.00298,
				"method": "rhf"
			},
			{
				"type": "unocc",
				"energy": 0.01665,
				"method": "rhf"
			},
			{
				"type": "unocc",
				"energy": 0.02608,
				"method": "rhf"
			},
			{
				"type": "unocc",
				"energy": 0.04979,
				"method": "rhf"
			},
			{
				"type": "unocc",
				"energy": 0.06708,
				"method": "rhf"
			}
		],
		"cosmo_sigma_profile": { 
			"-0.025": 0.0,
			"-0.024": 0.0,
			"-0.023": 0.0,
			"-0.022": 0.0,
			"-0.021": 0.0,
			"-0.02": 0.0,
			"-0.019": 0.0,
			"-0.018": 0.0,
			"-0.017": 0.0,
			"-0.016": 1.15254717659,
			"-0.015": 1.27453300557,
			"-0.014": 2.3368543589,
			"-0.013": 2.12135584392,
			"-0.012": 1.80972903956,
			"-0.011": 1.91140123399,
			"-0.01": 1.36445997554,
			"-0.009": 2.75054593083,
			"-0.008": 3.21100878791,
			"-0.007": 7.37404317306,
			"-0.006": 10.9190882356,
			"-0.005": 15.4454416235,
			"-0.004": 17.5736027143,
			"-0.003": 17.1454645722,
			"-0.002": 18.2898314025,
			"-0.001": 18.1437393692,
			"0.0": 16.0623772247,
			"0.001": 9.36848199779,
			"0.002": 7.71666216856,
			"0.003": 7.48400392955,
			"0.004": 8.38392701317,
			"0.005": 9.10055637253,
			"0.006": 11.0891272674,
			"0.007": 4.97466565546,
			"0.008": 2.37601341451,
			"0.009": 2.96394923073,
			"0.01": 3.65195808051,
			"0.011": 3.39545259052,
			"0.012": 4.57651742541,
			"0.013": 6.68145448851,
			"0.014": 3.26704284464,
			"0.015": 1.45311267167,
			"0.016": 0.948340921798,
			"0.017": 0.133902211468,
			"0.018": 0.0,
			"0.019": 0.0,
			"0.02": 0.0,
			"0.021": 0.0,
			"0.022": 0.0,
			"0.023": 0.0,
			"0.024": 0.0,
			"0.025": 0.0
		}
	}
}
