{
	 "smiles": "OC1=CC(F)=C(F)C=C1", 
	 "Tm": 309.15, 
	 "num_atms": 13, 
	 "gaussian": { 
		 "optdone": 1, 
		 "sigma_profile": "yes", 
		 "theory": "DFT", 
		 "functional": "B3LYP", 
		 "basiset": "6-31G**", 
		 "properties": { 
			 "R2extent": 1204.7127, 
			 "electric_dipole_moment_norm": 2.11337001493, 
			 "electric_quadrupole_moment_norm": 8.87368850141, 
			 "total_energy": -505.925962214, 
			 "HOMO_LUMO_gap": 0.21097, 
			 "cosmo_polarized_energy": -8.05, 
			 "cosmo_cavitation_energy": 18.48, 
			 "cosmo_dispersion_energy": -13.61, 
			 "cosmo_repulsion_energy": 1.07, 
			 "cosmo_total_nonelectrostatic_energy": 5.94, 
			 "SMD_solvation_energy": 4.65 
		},
		"coords": [
			{
				"x": -1.1682259705,
				"y": -0.713855852,
				"z": -2.5680901805,
				"element": "O" 
			},
			{
				"x": -0.6826297681,
				"y": -0.5529305477,
				"z": -1.3015906558,
				"element": "C" 
			},
			{
				"x": 0.3198125096,
				"y": -1.3735777978,
				"z": -0.7715315815,
				"element": "C" 
			},
			{
				"x": 0.7642182947,
				"y": -1.1496469169,
				"z": 0.5261539247,
				"element": "C" 
			},
			{
				"x": 1.7260845269,
				"y": -1.9313136661,
				"z": 1.0450962375,
				"element": "F" 
			},
			{
				"x": 0.226996259,
				"y": -0.1247861181,
				"z": 1.2999200973,
				"element": "C" 
			},
			{
				"x": 0.6802291208,
				"y": 0.0652802727,
				"z": 2.5541603794,
				"element": "F" 
			},
			{
				"x": -0.7679334388,
				"y": 0.6880754163,
				"z": 0.7707788937,
				"element": "C" 
			},
			{
				"x": -1.2266662332,
				"y": 0.4791797042,
				"z": -0.5284931415,
				"element": "C" 
			},
			{
				"x": -0.7158349461,
				"y": -1.4524949477,
				"z": -2.9944688799,
				"element": "H" 
			},
			{
				"x": 0.7636439127,
				"y": -2.1830768054,
				"z": -1.3435997251,
				"element": "H" 
			},
			{
				"x": -1.1751911,
				"y": 1.4818086319,
				"z": 1.3877020595,
				"element": "H" 
			},
			{
				"x": -2.0021031672,
				"y": 1.1051386264,
				"z": -0.9545374277,
				"element": "H" 
			}
		],
		 "valence_orbital": [ 
			{
				"type": "occ",
				"energy": -0.37044,
				"method": "rhf"
			},
			{
				"type": "occ",
				"energy": -0.35847,
				"method": "rhf"
			},
			{
				"type": "occ",
				"energy": -0.32931,
				"method": "rhf"
			},
			{
				"type": "occ",
				"energy": -0.2617,
				"method": "rhf"
			},
			{
				"type": "occ",
				"energy": -0.22523,
				"method": "rhf"
			},
			{
				"type": "unocc",
				"energy": -0.01426,
				"method": "rhf"
			},
			{
				"type": "unocc",
				"energy": 0.0095,
				"method": "rhf"
			},
			{
				"type": "unocc",
				"energy": 0.05658,
				"method": "rhf"
			},
			{
				"type": "unocc",
				"energy": 0.07353,
				"method": "rhf"
			},
			{
				"type": "unocc",
				"energy": 0.13733,
				"method": "rhf"
			}
		],
		"cosmo_sigma_profile": { 
			"-0.025": 0.0,
			"-0.024": 0.0,
			"-0.023": 0.0,
			"-0.022": 0.0,
			"-0.021": 0.0,
			"-0.02": 0.0,
			"-0.019": 0.0118389805709,
			"-0.018": 1.23494504952,
			"-0.017": 0.928000201912,
			"-0.016": 1.15072794558,
			"-0.015": 1.37437022018,
			"-0.014": 0.706351558844,
			"-0.013": 0.989856028619,
			"-0.012": 0.949116146426,
			"-0.011": 1.09431783717,
			"-0.01": 1.1918221726,
			"-0.009": 1.60832471484,
			"-0.008": 2.7633538178,
			"-0.007": 4.03602715573,
			"-0.006": 5.44744164034,
			"-0.005": 5.44911361774,
			"-0.004": 4.48763887958,
			"-0.003": 3.95810108075,
			"-0.002": 4.58147083576,
			"-0.001": 7.86744001699,
			"0.0": 11.0894357912,
			"0.001": 14.1621543488,
			"0.002": 16.0473787605,
			"0.003": 19.5149337475,
			"0.004": 24.0529509916,
			"0.005": 4.91071187122,
			"0.006": 1.26593024691,
			"0.007": 1.04356844208,
			"0.008": 1.38797790369,
			"0.009": 1.64968911441,
			"0.01": 1.7517396567,
			"0.011": 1.63395252033,
			"0.012": 0.194879588093,
			"0.013": 0.0,
			"0.014": 0.0,
			"0.015": 0.0,
			"0.016": 0.0,
			"0.017": 0.0,
			"0.018": 0.0,
			"0.019": 0.0,
			"0.02": 0.0,
			"0.021": 0.0,
			"0.022": 0.0,
			"0.023": 0.0,
			"0.024": 0.0,
			"0.025": 0.0
		}
	}
}
