{
	 "smiles": "CC1=C(NC=O)C=CC=C1", 
	 "Tm": 335.15, 
	 "num_atms": 19, 
	 "gaussian": { 
		 "optdone": 1, 
		 "sigma_profile": "yes", 
		 "theory": "DFT", 
		 "functional": "B3LYP", 
		 "basiset": "6-31G**", 
		 "properties": { 
			 "R2extent": 1829.0648, 
			 "electric_dipole_moment_norm": 3.52223029769, 
			 "electric_quadrupole_moment_norm": 8.28403185532, 
			 "total_energy": -440.261480085, 
			 "HOMO_LUMO_gap": 0.21739, 
			 "cosmo_polarized_energy": -10.44, 
			 "cosmo_cavitation_energy": 22.81, 
			 "cosmo_dispersion_energy": -16.61, 
			 "cosmo_repulsion_energy": 1.35, 
			 "cosmo_total_nonelectrostatic_energy": 7.55, 
			 "SMD_solvation_energy": 5.47 
		},
		"coords": [
			{
				"x": 0.7997147229,
				"y": -1.5548095819,
				"z": -0.3927286731,
				"element": "C" 
			},
			{
				"x": -0.6381199344,
				"y": -1.1247606957,
				"z": -0.5712542042,
				"element": "C" 
			},
			{
				"x": -1.0055830183,
				"y": 0.2137821185,
				"z": -0.8201732505,
				"element": "C" 
			},
			{
				"x": -0.0341554433,
				"y": 1.2521592464,
				"z": -0.8866889305,
				"element": "N" 
			},
			{
				"x": 0.8556387158,
				"y": 1.5954786716,
				"z": 0.1010794273,
				"element": "C" 
			},
			{
				"x": 1.5973813824,
				"y": 2.5579205571,
				"z": 0.0424083182,
				"element": "O" 
			},
			{
				"x": -2.3464897882,
				"y": 0.5493439807,
				"z": -1.0536094076,
				"element": "C" 
			},
			{
				"x": -3.3395546653,
				"y": -0.4252134997,
				"z": -1.0288337252,
				"element": "C" 
			},
			{
				"x": -2.9963035115,
				"y": -1.7492534251,
				"z": -0.7516681413,
				"element": "C" 
			},
			{
				"x": -1.6620435674,
				"y": -2.0821702278,
				"z": -0.528060185,
				"element": "C" 
			},
			{
				"x": 0.9183996824,
				"y": -2.6061629237,
				"z": -0.6685337063,
				"element": "H" 
			},
			{
				"x": 1.4752455352,
				"y": -0.9596221875,
				"z": -1.0138785147,
				"element": "H" 
			},
			{
				"x": 1.1399551316,
				"y": -1.4537777203,
				"z": 0.6446600092,
				"element": "H" 
			},
			{
				"x": -0.1217837298,
				"y": 1.9410231968,
				"z": -1.6249394365,
				"element": "H" 
			},
			{
				"x": 0.821683268,
				"y": 0.9031512935,
				"z": 0.961809673,
				"element": "H" 
			},
			{
				"x": -2.601187589,
				"y": 1.5883796297,
				"z": -1.2445018642,
				"element": "H" 
			},
			{
				"x": -4.3733705012,
				"y": -0.1496389094,
				"z": -1.2140760563,
				"element": "H" 
			},
			{
				"x": -3.7604510515,
				"y": -2.5201534142,
				"z": -0.7216908059,
				"element": "H" 
			},
			{
				"x": -1.3939756385,
				"y": -3.118176109,
				"z": -0.3368205266,
				"element": "H" 
			}
		],
		 "valence_orbital": [ 
			{
				"type": "occ",
				"energy": -0.35375,
				"method": "rhf"
			},
			{
				"type": "occ",
				"energy": -0.29326,
				"method": "rhf"
			},
			{
				"type": "occ",
				"energy": -0.25852,
				"method": "rhf"
			},
			{
				"type": "occ",
				"energy": -0.25425,
				"method": "rhf"
			},
			{
				"type": "occ",
				"energy": -0.234,
				"method": "rhf"
			},
			{
				"type": "unocc",
				"energy": -0.01661,
				"method": "rhf"
			},
			{
				"type": "unocc",
				"energy": -0.01053,
				"method": "rhf"
			},
			{
				"type": "unocc",
				"energy": 0.02684,
				"method": "rhf"
			},
			{
				"type": "unocc",
				"energy": 0.08658,
				"method": "rhf"
			},
			{
				"type": "unocc",
				"energy": 0.09314,
				"method": "rhf"
			}
		],
		"cosmo_sigma_profile": { 
			"-0.025": 0.0,
			"-0.024": 0.0,
			"-0.023": 0.0,
			"-0.022": 0.0,
			"-0.021": 0.0,
			"-0.02": 0.0,
			"-0.019": 0.0,
			"-0.018": 0.0,
			"-0.017": 0.0,
			"-0.016": 0.0,
			"-0.015": 0.175797687328,
			"-0.014": 0.992947580486,
			"-0.013": 1.12575902289,
			"-0.012": 1.24634020456,
			"-0.011": 0.742785346026,
			"-0.01": 1.20686699359,
			"-0.009": 1.15216820653,
			"-0.008": 0.96460217143,
			"-0.007": 4.48964212291,
			"-0.006": 8.96502496948,
			"-0.005": 13.8017382937,
			"-0.004": 16.5485843311,
			"-0.003": 15.2962194695,
			"-0.002": 13.3721198364,
			"-0.001": 15.8477838391,
			"0.0": 13.4516131507,
			"0.001": 11.4847056273,
			"0.002": 9.82623825308,
			"0.003": 7.40455359535,
			"0.004": 8.47196122382,
			"0.005": 10.6465831019,
			"0.006": 4.83289633802,
			"0.007": 1.2559210724,
			"0.008": 0.98512204677,
			"0.009": 1.57514639283,
			"0.01": 1.69523988988,
			"0.011": 1.84912673935,
			"0.012": 3.03590137561,
			"0.013": 5.90650096157,
			"0.014": 2.60270308696,
			"0.015": 0.227463410482,
			"0.016": 0.0,
			"0.017": 0.0,
			"0.018": 0.0,
			"0.019": 0.0,
			"0.02": 0.0,
			"0.021": 0.0,
			"0.022": 0.0,
			"0.023": 0.0,
			"0.024": 0.0,
			"0.025": 0.0
		}
	}
}
