{
	 "smiles": "CCOC(=O)NC1=CC=C2SC3=CC=CC=C3N(C(=O)CCN3CCOCC3)C2=C1", 
	 "Tm": 429.15, 
	 "num_atms": 55, 
	 "gaussian": { 
		 "optdone": 1, 
		 "sigma_profile": "yes", 
		 "theory": "DFT", 
		 "functional": "B3LYP", 
		 "basiset": "6-31G**", 
		 "properties": { 
			 "R2extent": 17791.3349, 
			 "electric_dipole_moment_norm": 2.29666843058, 
			 "electric_quadrupole_moment_norm": 13.6866911578, 
			 "total_energy": -1716.74883781, 
			 "HOMO_LUMO_gap": 0.17928, 
			 "cosmo_polarized_energy": -22.2, 
			 "cosmo_cavitation_energy": 58.35, 
			 "cosmo_dispersion_energy": -40.7, 
			 "cosmo_repulsion_energy": 3.06, 
			 "cosmo_total_nonelectrostatic_energy": 20.72, 
			 "SMD_solvation_energy": 8.33 
		},
		"coords": [
			{
				"x": 5.3003821545,
				"y": 0.4474508371,
				"z": 4.8876194457,
				"element": "C" 
			},
			{
				"x": 5.0591431589,
				"y": 0.9966038986,
				"z": 3.4908720126,
				"element": "C" 
			},
			{
				"x": 3.6925303368,
				"y": 0.767502124,
				"z": 3.0594716589,
				"element": "O" 
			},
			{
				"x": 3.4462820404,
				"y": -0.4451785605,
				"z": 2.5232446124,
				"element": "C" 
			},
			{
				"x": 4.2746960285,
				"y": -1.3255317767,
				"z": 2.3748868915,
				"element": "O" 
			},
			{
				"x": 2.1331811323,
				"y": -0.6153936846,
				"z": 2.1346848592,
				"element": "N" 
			},
			{
				"x": 0.9922246234,
				"y": 0.2088030859,
				"z": 2.1615346461,
				"element": "C" 
			},
			{
				"x": 0.9365092243,
				"y": 1.4800342258,
				"z": 2.7548445502,
				"element": "C" 
			},
			{
				"x": -0.2641327957,
				"y": 2.1858936203,
				"z": 2.7636298204,
				"element": "C" 
			},
			{
				"x": -1.4108432054,
				"y": 1.6768356543,
				"z": 2.1516292356,
				"element": "C" 
			},
			{
				"x": -2.9538996847,
				"y": 2.5649645506,
				"z": 2.1685668671,
				"element": "S" 
			},
			{
				"x": -4.0460265569,
				"y": 1.1592939131,
				"z": 2.3263050879,
				"element": "C" 
			},
			{
				"x": -5.2170214209,
				"y": 1.2570559814,
				"z": 3.0836969713,
				"element": "C" 
			},
			{
				"x": -6.0830039154,
				"y": 0.1676550287,
				"z": 3.1648368443,
				"element": "C" 
			},
			{
				"x": -5.7659749556,
				"y": -1.0271549173,
				"z": 2.5151990691,
				"element": "C" 
			},
			{
				"x": -4.5877890549,
				"y": -1.1369447945,
				"z": 1.7780131009,
				"element": "C" 
			},
			{
				"x": -3.7318499231,
				"y": -0.0382208882,
				"z": 1.6657792679,
				"element": "C" 
			},
			{
				"x": -2.5227601886,
				"y": -0.0964543917,
				"z": 0.8930453622,
				"element": "N" 
			},
			{
				"x": -2.5939280012,
				"y": -0.4509409414,
				"z": -0.4643862196,
				"element": "C" 
			},
			{
				"x": -3.6127959282,
				"y": -0.9323198255,
				"z": -0.9339300529,
				"element": "O" 
			},
			{
				"x": -1.3688055966,
				"y": -0.1756116097,
				"z": -1.3292696774,
				"element": "C" 
			},
			{
				"x": -1.7452257434,
				"y": -0.1555382435,
				"z": -2.8169468917,
				"element": "C" 
			},
			{
				"x": -0.6097849889,
				"y": 0.2212428758,
				"z": -3.6511494495,
				"element": "N" 
			},
			{
				"x": -0.9840973911,
				"y": 0.6178501757,
				"z": -5.0029319308,
				"element": "C" 
			},
			{
				"x": 0.2184190069,
				"y": 1.3008776542,
				"z": -5.6750571611,
				"element": "C" 
			},
			{
				"x": 1.4616962986,
				"y": 0.6922424659,
				"z": -5.32569936,
				"element": "O" 
			},
			{
				"x": 1.3055314163,
				"y": -0.6617941565,
				"z": -4.9486248783,
				"element": "C" 
			},
			{
				"x": 0.4621376548,
				"y": -0.7854408647,
				"z": -3.6666360315,
				"element": "C" 
			},
			{
				"x": -1.3491346948,
				"y": 0.4248752422,
				"z": 1.5208987481,
				"element": "C" 
			},
			{
				"x": -0.1688355811,
				"y": -0.3156941356,
				"z": 1.5708294415,
				"element": "C" 
			},
			{
				"x": 5.200917107,
				"y": -0.6404642845,
				"z": 4.892677008,
				"element": "H" 
			},
			{
				"x": 4.5925946182,
				"y": 0.874558559,
				"z": 5.6042324219,
				"element": "H" 
			},
			{
				"x": 6.3144661863,
				"y": 0.70144264,
				"z": 5.2137216709,
				"element": "H" 
			},
			{
				"x": 5.1669691208,
				"y": 2.0831752666,
				"z": 3.45967684,
				"element": "H" 
			},
			{
				"x": 5.734660963,
				"y": 0.5423910215,
				"z": 2.7633276176,
				"element": "H" 
			},
			{
				"x": 2.0066077515,
				"y": -1.5305418597,
				"z": 1.725900933,
				"element": "H" 
			},
			{
				"x": 1.8127712685,
				"y": 1.8976043899,
				"z": 3.2269302408,
				"element": "H" 
			},
			{
				"x": -0.3092978182,
				"y": 3.1492616392,
				"z": 3.2621578043,
				"element": "H" 
			},
			{
				"x": -5.4415401369,
				"y": 2.1822226287,
				"z": 3.605430028,
				"element": "H" 
			},
			{
				"x": -6.9966218915,
				"y": 0.2489768014,
				"z": 3.7459867006,
				"element": "H" 
			},
			{
				"x": -6.4344394334,
				"y": -1.8797576689,
				"z": 2.5845156423,
				"element": "H" 
			},
			{
				"x": -4.3389358877,
				"y": -2.0559264352,
				"z": 1.2630275557,
				"element": "H" 
			},
			{
				"x": -0.6173229635,
				"y": -0.9510316662,
				"z": -1.1428735839,
				"element": "H" 
			},
			{
				"x": -0.9008192052,
				"y": 0.7742690271,
				"z": -1.0536071894,
				"element": "H" 
			},
			{
				"x": -2.1714826813,
				"y": -1.1347591766,
				"z": -3.0978425851,
				"element": "H" 
			},
			{
				"x": -2.5399242721,
				"y": 0.5823212459,
				"z": -2.9662028179,
				"element": "H" 
			},
			{
				"x": -1.3449457134,
				"y": -0.2317783831,
				"z": -5.6150027871,
				"element": "H" 
			},
			{
				"x": -1.8122816505,
				"y": 1.3324395199,
				"z": -4.9500427445,
				"element": "H" 
			},
			{
				"x": 0.0847462547,
				"y": 1.2934553479,
				"z": -6.7689370093,
				"element": "H" 
			},
			{
				"x": 0.2902295518,
				"y": 2.3423049814,
				"z": -5.3451379525,
				"element": "H" 
			},
			{
				"x": 0.8526043461,
				"y": -1.2468416711,
				"z": -5.7651867157,
				"element": "H" 
			},
			{
				"x": 2.3096720147,
				"y": -1.0615964661,
				"z": -4.78163841,
				"element": "H" 
			},
			{
				"x": 1.1024163135,
				"y": -0.6395494171,
				"z": -2.7881200329,
				"element": "H" 
			},
			{
				"x": 0.0597292697,
				"y": -1.8163679724,
				"z": -3.6131874779,
				"element": "H" 
			},
			{
				"x": -0.1544965613,
				"y": -1.3123706107,
				"z": 1.1400380031,
				"element": "H" 
			}
		],
		 "valence_orbital": [ 
			{
				"type": "occ",
				"energy": -0.24502,
				"method": "rhf"
			},
			{
				"type": "occ",
				"energy": -0.24447,
				"method": "rhf"
			},
			{
				"type": "occ",
				"energy": -0.23618,
				"method": "rhf"
			},
			{
				"type": "occ",
				"energy": -0.20846,
				"method": "rhf"
			},
			{
				"type": "occ",
				"energy": -0.20706,
				"method": "rhf"
			},
			{
				"type": "unocc",
				"energy": -0.02778,
				"method": "rhf"
			},
			{
				"type": "unocc",
				"energy": -0.0222,
				"method": "rhf"
			},
			{
				"type": "unocc",
				"energy": -0.01331,
				"method": "rhf"
			},
			{
				"type": "unocc",
				"energy": -0.00592,
				"method": "rhf"
			},
			{
				"type": "unocc",
				"energy": 0.02146,
				"method": "rhf"
			}
		],
		"cosmo_sigma_profile": { 
			"-0.025": 0.0,
			"-0.024": 0.0,
			"-0.023": 0.0,
			"-0.022": 0.0,
			"-0.021": 0.0,
			"-0.02": 0.0,
			"-0.019": 0.0,
			"-0.018": 0.0,
			"-0.017": 0.0,
			"-0.016": 0.1355501914,
			"-0.015": 0.999061293353,
			"-0.014": 1.32811412124,
			"-0.013": 1.37440882845,
			"-0.012": 0.677411904612,
			"-0.011": 1.22823453435,
			"-0.01": 1.20417812661,
			"-0.009": 2.55526739312,
			"-0.008": 3.11257942322,
			"-0.007": 6.14164127709,
			"-0.006": 14.5183538167,
			"-0.005": 24.9659272017,
			"-0.004": 46.0789207247,
			"-0.003": 53.455211996,
			"-0.002": 50.7269180818,
			"-0.001": 39.5344721583,
			"0.0": 37.0479631932,
			"0.001": 30.2379369763,
			"0.002": 29.9584162004,
			"0.003": 28.2178392693,
			"0.004": 21.6241425237,
			"0.005": 11.3523246863,
			"0.006": 8.17615864413,
			"0.007": 6.09098805593,
			"0.008": 5.93756181254,
			"0.009": 4.86893882597,
			"0.01": 4.87057752118,
			"0.011": 5.73535153029,
			"0.012": 9.23203110405,
			"0.013": 9.93831982816,
			"0.014": 1.42866443535,
			"0.015": 0.113203455618,
			"0.016": 0.0,
			"0.017": 0.0,
			"0.018": 0.0,
			"0.019": 0.0,
			"0.02": 0.0,
			"0.021": 0.0,
			"0.022": 0.0,
			"0.023": 0.0,
			"0.024": 0.0,
			"0.025": 0.0
		}
	}
}
