{
	 "smiles": "ClC1=CC2=C(OC3=C(O2)C=C(Cl)C(Cl)=C3Cl)C=C1Cl", 
	 "Tm": 513.15, 
	 "num_atms": 22, 
	 "gaussian": { 
		 "optdone": 1, 
		 "sigma_profile": "yes", 
		 "theory": "DFT", 
		 "functional": "B3LYP", 
		 "basiset": "6-31G**", 
		 "properties": { 
			 "R2extent": 10334.7072, 
			 "electric_dipole_moment_norm": 1.10671653101, 
			 "electric_quadrupole_moment_norm": 11.9586745971, 
			 "total_energy": -2910.45609964, 
			 "HOMO_LUMO_gap": 0.1732, 
			 "cosmo_polarized_energy": -6.2, 
			 "cosmo_cavitation_energy": 36.23, 
			 "cosmo_dispersion_energy": -27.65, 
			 "cosmo_repulsion_energy": 2.1, 
			 "cosmo_total_nonelectrostatic_energy": 10.68, 
			 "SMD_solvation_energy": 5.29 
		},
		"coords": [
			{
				"x": 3.6986768163,
				"y": 4.2085578449,
				"z": 0.2296575442,
				"element": "Cl" 
			},
			{
				"x": 2.8298227379,
				"y": 2.7319828895,
				"z": -0.0923126695,
				"element": "C" 
			},
			{
				"x": 1.7764870481,
				"y": 2.3796758466,
				"z": 0.7569390611,
				"element": "C" 
			},
			{
				"x": 1.0632073993,
				"y": 1.2121414505,
				"z": 0.5311050138,
				"element": "C" 
			},
			{
				"x": 1.3947714735,
				"y": 0.384730765,
				"z": -0.5452603664,
				"element": "C" 
			},
			{
				"x": 0.7092533368,
				"y": -0.7840021987,
				"z": -0.802695898,
				"element": "O" 
			},
			{
				"x": -0.3165647432,
				"y": -1.0904222826,
				"z": 0.0558900321,
				"element": "C" 
			},
			{
				"x": -0.6513591249,
				"y": -0.2649206445,
				"z": 1.1341893099,
				"element": "C" 
			},
			{
				"x": 0.0323299045,
				"y": 0.9019440905,
				"z": 1.3920519663,
				"element": "O" 
			},
			{
				"x": -1.6929094239,
				"y": -0.6015348899,
				"z": 1.9840331952,
				"element": "C" 
			},
			{
				"x": -2.4166184657,
				"y": -1.7740468722,
				"z": 1.7651477704,
				"element": "C" 
			},
			{
				"x": -3.7170764063,
				"y": -2.1527226782,
				"z": 2.8620986203,
				"element": "Cl" 
			},
			{
				"x": -2.1019386528,
				"y": -2.6192299806,
				"z": 0.6918537547,
				"element": "C" 
			},
			{
				"x": -2.9975711284,
				"y": -4.0786343212,
				"z": 0.4136330118,
				"element": "Cl" 
			},
			{
				"x": -1.0405156466,
				"y": -2.2651269986,
				"z": -0.1646187903,
				"element": "C" 
			},
			{
				"x": -0.5942618216,
				"y": -3.2624392061,
				"z": -1.5130461262,
				"element": "Cl" 
			},
			{
				"x": 2.4380055326,
				"y": 0.7269879737,
				"z": -1.3921179651,
				"element": "C" 
			},
			{
				"x": 3.16191666,
				"y": 1.9024911594,
				"z": -1.1710054791,
				"element": "C" 
			},
			{
				"x": 4.4652597182,
				"y": 2.2936899825,
				"z": -2.2603962569,
				"element": "Cl" 
			},
			{
				"x": 1.5086760525,
				"y": 3.0118225028,
				"z": 1.5950447117,
				"element": "H" 
			},
			{
				"x": -1.934854744,
				"y": 0.0523730233,
				"z": 2.8127213074,
				"element": "H" 
			},
			{
				"x": 2.6827634776,
				"y": 0.0750825438,
				"z": -2.2221117474,
				"element": "H" 
			}
		],
		 "valence_orbital": [ 
			{
				"type": "occ",
				"energy": -0.31482,
				"method": "rhf"
			},
			{
				"type": "occ",
				"energy": -0.28294,
				"method": "rhf"
			},
			{
				"type": "occ",
				"energy": -0.27153,
				"method": "rhf"
			},
			{
				"type": "occ",
				"energy": -0.25979,
				"method": "rhf"
			},
			{
				"type": "occ",
				"energy": -0.22597,
				"method": "rhf"
			},
			{
				"type": "unocc",
				"energy": -0.05277,
				"method": "rhf"
			},
			{
				"type": "unocc",
				"energy": -0.04426,
				"method": "rhf"
			},
			{
				"type": "unocc",
				"energy": -0.04038,
				"method": "rhf"
			},
			{
				"type": "unocc",
				"energy": -0.03177,
				"method": "rhf"
			},
			{
				"type": "unocc",
				"energy": -0.01088,
				"method": "rhf"
			}
		],
		"cosmo_sigma_profile": { 
			"-0.025": 0.0,
			"-0.024": 0.0,
			"-0.023": 0.0,
			"-0.022": 0.0,
			"-0.021": 0.0,
			"-0.02": 0.0,
			"-0.019": 0.0,
			"-0.018": 0.0,
			"-0.017": 0.0,
			"-0.016": 0.0,
			"-0.015": 0.0,
			"-0.014": 0.0,
			"-0.013": 0.0,
			"-0.012": 0.0,
			"-0.011": 0.0,
			"-0.01": 0.821280808819,
			"-0.009": 4.18348670905,
			"-0.008": 4.36187959515,
			"-0.007": 5.45937153585,
			"-0.006": 5.75459018667,
			"-0.005": 6.13468252744,
			"-0.004": 10.3595323831,
			"-0.003": 17.6206532713,
			"-0.002": 28.0221921124,
			"-0.001": 43.732080446,
			"0.0": 42.7704331003,
			"0.001": 27.7328544371,
			"0.002": 25.8084357937,
			"0.003": 42.1168098744,
			"0.004": 30.5987276705,
			"0.005": 6.82173033342,
			"0.006": 2.35097437,
			"0.007": 0.434551852799,
			"0.008": 0.0,
			"0.009": 0.0,
			"0.01": 0.0,
			"0.011": 0.0,
			"0.012": 0.0,
			"0.013": 0.0,
			"0.014": 0.0,
			"0.015": 0.0,
			"0.016": 0.0,
			"0.017": 0.0,
			"0.018": 0.0,
			"0.019": 0.0,
			"0.02": 0.0,
			"0.021": 0.0,
			"0.022": 0.0,
			"0.023": 0.0,
			"0.024": 0.0,
			"0.025": 0.0
		}
	}
}
