{
	 "smiles": "COC1=CC(CC=C)=CC(C=O)=C1O", 
	 "Tm": 323.15, 
	 "num_atms": 26, 
	 "gaussian": { 
		 "optdone": 1, 
		 "sigma_profile": "yes", 
		 "theory": "DFT", 
		 "functional": "B3LYP", 
		 "basiset": "6-31G**", 
		 "properties": { 
			 "R2extent": 3415.7423, 
			 "electric_dipole_moment_norm": 5.9669628933, 
			 "electric_quadrupole_moment_norm": 12.2153572162, 
			 "total_energy": -652.031827171, 
			 "HOMO_LUMO_gap": 0.16496, 
			 "cosmo_polarized_energy": -11.43, 
			 "cosmo_cavitation_energy": 30.54, 
			 "cosmo_dispersion_energy": -21.48, 
			 "cosmo_repulsion_energy": 1.71, 
			 "cosmo_total_nonelectrostatic_energy": 10.77, 
			 "SMD_solvation_energy": 7.81 
		},
		"coords": [
			{
				"x": -0.8593102426,
				"y": -2.7931260458,
				"z": -1.4663217102,
				"element": "C" 
			},
			{
				"x": -0.5259078874,
				"y": -2.4958235239,
				"z": -0.117485254,
				"element": "O" 
			},
			{
				"x": -0.1000510926,
				"y": -1.2243785903,
				"z": 0.1816289907,
				"element": "C" 
			},
			{
				"x": 0.0365632641,
				"y": -0.1731607494,
				"z": -0.7118945803,
				"element": "C" 
			},
			{
				"x": 0.4863522132,
				"y": 1.0906819611,
				"z": -0.2700219243,
				"element": "C" 
			},
			{
				"x": 0.6059907189,
				"y": 2.2380970546,
				"z": -1.2618646928,
				"element": "C" 
			},
			{
				"x": 1.4323794908,
				"y": 1.8971148401,
				"z": -2.4763488708,
				"element": "C" 
			},
			{
				"x": 0.9929055621,
				"y": 1.9392556036,
				"z": -3.7349336294,
				"element": "C" 
			},
			{
				"x": 0.7959728095,
				"y": 1.2549511809,
				"z": 1.0713417434,
				"element": "C" 
			},
			{
				"x": 0.6646924832,
				"y": 0.1979530931,
				"z": 1.9946015704,
				"element": "C" 
			},
			{
				"x": 1.0066554059,
				"y": 0.4177565757,
				"z": 3.4159802805,
				"element": "C" 
			},
			{
				"x": 1.4069690349,
				"y": 1.482232413,
				"z": 3.8576015686,
				"element": "O" 
			},
			{
				"x": 0.2129868508,
				"y": -1.048897754,
				"z": 1.5486780853,
				"element": "C" 
			},
			{
				"x": 0.074510762,
				"y": -2.0927819616,
				"z": 2.4058582072,
				"element": "O" 
			},
			{
				"x": -1.1647673966,
				"y": -3.8401063705,
				"z": -1.4806909359,
				"element": "H" 
			},
			{
				"x": -1.6881930525,
				"y": -2.1668090524,
				"z": -1.8181116682,
				"element": "H" 
			},
			{
				"x": 0.0039628592,
				"y": -2.6556410838,
				"z": -2.1286824348,
				"element": "H" 
			},
			{
				"x": -0.1903136339,
				"y": -0.311839073,
				"z": -1.7634656834,
				"element": "H" 
			},
			{
				"x": -0.3929987813,
				"y": 2.5583826006,
				"z": -1.5869362923,
				"element": "H" 
			},
			{
				"x": 1.0538308038,
				"y": 3.0953253247,
				"z": -0.7431858807,
				"element": "H" 
			},
			{
				"x": 2.4591946577,
				"y": 1.5893849109,
				"z": -2.2774856731,
				"element": "H" 
			},
			{
				"x": 1.6352053336,
				"y": 1.686860353,
				"z": -4.5735727453,
				"element": "H" 
			},
			{
				"x": -0.024756659,
				"y": 2.2410874754,
				"z": -3.9733829701,
				"element": "H" 
			},
			{
				"x": 1.1485768831,
				"y": 2.2071479595,
				"z": 1.4557557224,
				"element": "H" 
			},
			{
				"x": 0.8766602419,
				"y": -0.4596076873,
				"z": 4.0778355681,
				"element": "H" 
			},
			{
				"x": -0.244210629,
				"y": -2.8466594542,
				"z": 1.884603209,
				"element": "H" 
			}
		],
		 "valence_orbital": [ 
			{
				"type": "occ",
				"energy": -0.31776,
				"method": "rhf"
			},
			{
				"type": "occ",
				"energy": -0.26486,
				"method": "rhf"
			},
			{
				"type": "occ",
				"energy": -0.24584,
				"method": "rhf"
			},
			{
				"type": "occ",
				"energy": -0.24105,
				"method": "rhf"
			},
			{
				"type": "occ",
				"energy": -0.21693,
				"method": "rhf"
			},
			{
				"type": "unocc",
				"energy": -0.05197,
				"method": "rhf"
			},
			{
				"type": "unocc",
				"energy": 0.00043,
				"method": "rhf"
			},
			{
				"type": "unocc",
				"energy": 0.02243,
				"method": "rhf"
			},
			{
				"type": "unocc",
				"energy": 0.04789,
				"method": "rhf"
			},
			{
				"type": "unocc",
				"energy": 0.06737,
				"method": "rhf"
			}
		],
		"cosmo_sigma_profile": { 
			"-0.025": 0.0,
			"-0.024": 0.0,
			"-0.023": 0.0,
			"-0.022": 0.0,
			"-0.021": 0.0,
			"-0.02": 0.0,
			"-0.019": 0.0,
			"-0.018": 0.0,
			"-0.017": 0.0,
			"-0.016": 0.0,
			"-0.015": 0.348141676879,
			"-0.014": 0.4263181007,
			"-0.013": 0.62055894453,
			"-0.012": 0.627414055466,
			"-0.011": 0.441378536091,
			"-0.01": 0.628432005876,
			"-0.009": 0.929057785762,
			"-0.008": 0.43566717444,
			"-0.007": 1.46574492886,
			"-0.006": 9.8136901378,
			"-0.005": 20.5013638632,
			"-0.004": 24.316482476,
			"-0.003": 22.1060373472,
			"-0.002": 19.8524681077,
			"-0.001": 18.3767397739,
			"0.0": 18.814483787,
			"0.001": 20.0077969092,
			"0.002": 18.7068434608,
			"0.003": 17.1409757687,
			"0.004": 13.0340102524,
			"0.005": 6.83832894369,
			"0.006": 5.47817937227,
			"0.007": 3.51634567428,
			"0.008": 2.80286753278,
			"0.009": 3.94330585631,
			"0.01": 2.11533361084,
			"0.011": 3.64429662867,
			"0.012": 4.0432901015,
			"0.013": 1.51240655838,
			"0.014": 0.131802627822,
			"0.015": 0.0,
			"0.016": 0.0,
			"0.017": 0.0,
			"0.018": 0.0,
			"0.019": 0.0,
			"0.02": 0.0,
			"0.021": 0.0,
			"0.022": 0.0,
			"0.023": 0.0,
			"0.024": 0.0,
			"0.025": 0.0
		}
	}
}
