{
	 "smiles": "CCC(C)(C)C1=CC(O)=C(C=C1O)C(C)(C)CC", 
	 "Tm": 453.15, 
	 "num_atms": 44, 
	 "gaussian": { 
		 "optdone": 1, 
		 "sigma_profile": "yes", 
		 "theory": "DFT", 
		 "functional": "B3LYP", 
		 "basiset": "6-31G**", 
		 "properties": { 
			 "R2extent": 5655.322, 
			 "electric_dipole_moment_norm": 0.0627424895904, 
			 "electric_quadrupole_moment_norm": 10.3939408085, 
			 "total_energy": -775.839843718, 
			 "HOMO_LUMO_gap": 0.19726, 
			 "cosmo_polarized_energy": -10.39, 
			 "cosmo_cavitation_energy": 41.38, 
			 "cosmo_dispersion_energy": -28.36, 
			 "cosmo_repulsion_energy": 2.2, 
			 "cosmo_total_nonelectrostatic_energy": 15.22, 
			 "SMD_solvation_energy": 7.87 
		},
		"coords": [
			{
				"x": -2.2648813134,
				"y": 2.641484089,
				"z": -0.9252065387,
				"element": "C" 
			},
			{
				"x": -1.2606010931,
				"y": 2.3058615781,
				"z": -2.0337809706,
				"element": "C" 
			},
			{
				"x": 0.1478448326,
				"y": 1.8327968254,
				"z": -1.5583402321,
				"element": "C" 
			},
			{
				"x": 1.0110753515,
				"y": 1.5179959891,
				"z": -2.8062947067,
				"element": "C" 
			},
			{
				"x": 0.8379239944,
				"y": 2.9933834825,
				"z": -0.8122243334,
				"element": "C" 
			},
			{
				"x": 0.0364196785,
				"y": 0.5696467101,
				"z": -0.6822425984,
				"element": "C" 
			},
			{
				"x": 0.5098820251,
				"y": 0.5341026343,
				"z": 0.6350485125,
				"element": "C" 
			},
			{
				"x": 0.4397263896,
				"y": -0.5949786199,
				"z": 1.454487802,
				"element": "C" 
			},
			{
				"x": 0.9337070482,
				"y": -0.5383420227,
				"z": 2.7411175473,
				"element": "O" 
			},
			{
				"x": -0.1283931989,
				"y": -1.7966573953,
				"z": 0.990193215,
				"element": "C" 
			},
			{
				"x": -0.6044423829,
				"y": -1.760269064,
				"z": -0.3261483301,
				"element": "C" 
			},
			{
				"x": -0.5333758639,
				"y": -0.6314796714,
				"z": -1.1459150811,
				"element": "C" 
			},
			{
				"x": -1.0278269848,
				"y": -0.6879643675,
				"z": -2.432370016,
				"element": "O" 
			},
			{
				"x": -0.212067572,
				"y": -3.0690086703,
				"z": 1.8559633761,
				"element": "C" 
			},
			{
				"x": -0.8534396386,
				"y": -4.2456858771,
				"z": 1.0918208127,
				"element": "C" 
			},
			{
				"x": 1.2177626774,
				"y": -3.5128916273,
				"z": 2.2563753494,
				"element": "C" 
			},
			{
				"x": -1.0332659174,
				"y": -2.8044970093,
				"z": 3.1556402351,
				"element": "C" 
			},
			{
				"x": -2.4767054424,
				"y": -2.3298955568,
				"z": 2.9520306116,
				"element": "C" 
			},
			{
				"x": -1.9313885535,
				"y": 3.4755733683,
				"z": -0.2989024293,
				"element": "H" 
			},
			{
				"x": -3.2287732315,
				"y": 2.9279729257,
				"z": -1.3591822594,
				"element": "H" 
			},
			{
				"x": -2.4387514404,
				"y": 1.7817796372,
				"z": -0.2702010222,
				"element": "H" 
			},
			{
				"x": -1.6868442332,
				"y": 1.5332012042,
				"z": -2.6781715083,
				"element": "H" 
			},
			{
				"x": -1.110054556,
				"y": 3.1915921289,
				"z": -2.6660886846,
				"element": "H" 
			},
			{
				"x": 1.1025424122,
				"y": 2.4117049724,
				"z": -3.4345911841,
				"element": "H" 
			},
			{
				"x": 0.5716449069,
				"y": 0.7202841796,
				"z": -3.406804078,
				"element": "H" 
			},
			{
				"x": 2.0200013224,
				"y": 1.2105959522,
				"z": -2.5105876189,
				"element": "H" 
			},
			{
				"x": 0.8870642284,
				"y": 3.8664945448,
				"z": -1.4710694003,
				"element": "H" 
			},
			{
				"x": 1.8651814976,
				"y": 2.7383223013,
				"z": -0.53082603,
				"element": "H" 
			},
			{
				"x": 0.3029957744,
				"y": 3.2958126808,
				"z": 0.0928397196,
				"element": "H" 
			},
			{
				"x": 0.9616285485,
				"y": 1.4269638134,
				"z": 1.0570375545,
				"element": "H" 
			},
			{
				"x": 1.2839427622,
				"y": 0.3479879422,
				"z": 2.896042218,
				"element": "H" 
			},
			{
				"x": -1.0556247874,
				"y": -2.6533276574,
				"z": -0.7483271243,
				"element": "H" 
			},
			{
				"x": -1.3790999706,
				"y": -1.5739516898,
				"z": -2.5869049661,
				"element": "H" 
			},
			{
				"x": -0.2633042747,
				"y": -4.5257932237,
				"z": 0.2127474645,
				"element": "H" 
			},
			{
				"x": -1.8745243292,
				"y": -4.033140881,
				"z": 0.761762938,
				"element": "H" 
			},
			{
				"x": -0.8966993344,
				"y": -5.1207433904,
				"z": 1.7484837379,
				"element": "H" 
			},
			{
				"x": 1.8160421898,
				"y": -3.7371221275,
				"z": 1.3666202932,
				"element": "H" 
			},
			{
				"x": 1.1711881923,
				"y": -4.4215301695,
				"z": 2.8679484699,
				"element": "H" 
			},
			{
				"x": 1.7317135697,
				"y": -2.7399126095,
				"z": 2.8294278097,
				"element": "H" 
			},
			{
				"x": -0.4984214038,
				"y": -2.0679196607,
				"z": 3.7600645461,
				"element": "H" 
			},
			{
				"x": -1.0375165196,
				"y": -3.7387747081,
				"z": 3.7336462016,
				"element": "H" 
			},
			{
				"x": -2.5137520998,
				"y": -1.4000267661,
				"z": 2.3755705918,
				"element": "H" 
			},
			{
				"x": -3.0895994985,
				"y": -3.0711505712,
				"z": 2.4285041779,
				"element": "H" 
			},
			{
				"x": -2.9545337619,
				"y": -2.1397936229,
				"z": 3.9190059281,
				"element": "H" 
			}
		],
		 "valence_orbital": [ 
			{
				"type": "occ",
				"energy": -0.30005,
				"method": "rhf"
			},
			{
				"type": "occ",
				"energy": -0.29869,
				"method": "rhf"
			},
			{
				"type": "occ",
				"energy": -0.29077,
				"method": "rhf"
			},
			{
				"type": "occ",
				"energy": -0.23783,
				"method": "rhf"
			},
			{
				"type": "occ",
				"energy": -0.19409,
				"method": "rhf"
			},
			{
				"type": "unocc",
				"energy": 0.00317,
				"method": "rhf"
			},
			{
				"type": "unocc",
				"energy": 0.02607,
				"method": "rhf"
			},
			{
				"type": "unocc",
				"energy": 0.06289,
				"method": "rhf"
			},
			{
				"type": "unocc",
				"energy": 0.07725,
				"method": "rhf"
			},
			{
				"type": "unocc",
				"energy": 0.09495,
				"method": "rhf"
			}
		],
		"cosmo_sigma_profile": { 
			"-0.025": 0.0,
			"-0.024": 0.0,
			"-0.023": 0.0,
			"-0.022": 0.0,
			"-0.021": 0.0,
			"-0.02": 0.0,
			"-0.019": 0.0,
			"-0.018": 0.0,
			"-0.017": 1.07925047288,
			"-0.016": 2.50684370745,
			"-0.015": 1.66234013209,
			"-0.014": 1.88371502642,
			"-0.013": 2.47032396027,
			"-0.012": 1.25513986191,
			"-0.011": 1.12927020801,
			"-0.01": 1.90084376697,
			"-0.009": 2.31962504689,
			"-0.008": 2.89397360666,
			"-0.007": 1.77049614922,
			"-0.006": 1.0640775406,
			"-0.005": 2.35945830778,
			"-0.004": 4.7025287794,
			"-0.003": 16.0567588005,
			"-0.002": 39.1998470302,
			"-0.001": 35.1432983872,
			"0.0": 40.7320260428,
			"0.001": 50.3073835834,
			"0.002": 45.6253761695,
			"0.003": 16.8013486817,
			"0.004": 13.6904300225,
			"0.005": 13.4049981898,
			"0.006": 10.9459773535,
			"0.007": 6.26452847246,
			"0.008": 2.16556278564,
			"0.009": 0.273180564278,
			"0.01": 0.0,
			"0.011": 0.0,
			"0.012": 0.0,
			"0.013": 0.0,
			"0.014": 0.0,
			"0.015": 0.0,
			"0.016": 0.0,
			"0.017": 0.0,
			"0.018": 0.0,
			"0.019": 0.0,
			"0.02": 0.0,
			"0.021": 0.0,
			"0.022": 0.0,
			"0.023": 0.0,
			"0.024": 0.0,
			"0.025": 0.0
		}
	}
}
