{
	 "smiles": "CCCCCCCCCCCC(C)=C", 
	 "Tm": 251.15, 
	 "num_atms": 42, 
	 "gaussian": { 
		 "optdone": 1, 
		 "sigma_profile": "yes", 
		 "theory": "DFT", 
		 "functional": "B3LYP", 
		 "basiset": "6-31G**", 
		 "properties": { 
			 "R2extent": 6453.2534, 
			 "electric_dipole_moment_norm": 0.500123544737, 
			 "electric_quadrupole_moment_norm": 3.24077636995, 
			 "total_energy": -550.379892978, 
			 "HOMO_LUMO_gap": 0.26708, 
			 "cosmo_polarized_energy": -1.94, 
			 "cosmo_cavitation_energy": 41.24, 
			 "cosmo_dispersion_energy": -28.01, 
			 "cosmo_repulsion_energy": 2.27, 
			 "cosmo_total_nonelectrostatic_energy": 15.51, 
			 "SMD_solvation_energy": 6.41 
		},
		"coords": [
			{
				"x": 3.7607808361,
				"y": -0.6791161482,
				"z": 4.370163686,
				"element": "C" 
			},
			{
				"x": 2.7805900695,
				"y": 0.1473496696,
				"z": 3.530258921,
				"element": "C" 
			},
			{
				"x": 3.4598803549,
				"y": 1.3220993683,
				"z": 2.813188232,
				"element": "C" 
			},
			{
				"x": 2.5340277255,
				"y": 2.2704913458,
				"z": 2.0300152256,
				"element": "C" 
			},
			{
				"x": 1.7812599037,
				"y": 1.6457032545,
				"z": 0.8326345014,
				"element": "C" 
			},
			{
				"x": 0.3718469397,
				"y": 1.1239837536,
				"z": 1.1598034481,
				"element": "C" 
			},
			{
				"x": -0.3403718794,
				"y": 0.4252678482,
				"z": -0.0115387533,
				"element": "C" 
			},
			{
				"x": -0.6574300048,
				"y": 1.3452491465,
				"z": -1.2009254846,
				"element": "C" 
			},
			{
				"x": -1.5541807148,
				"y": 0.741589581,
				"z": -2.29791453,
				"element": "C" 
			},
			{
				"x": -0.9491930838,
				"y": -0.4348824495,
				"z": -3.0951310064,
				"element": "C" 
			},
			{
				"x": -1.2395583459,
				"y": -1.848809568,
				"z": -2.535558667,
				"element": "C" 
			},
			{
				"x": -2.7045094552,
				"y": -2.2365659855,
				"z": -2.5191178831,
				"element": "C" 
			},
			{
				"x": -3.3978400615,
				"y": -2.3421374148,
				"z": -3.856443258,
				"element": "C" 
			},
			{
				"x": -3.3500461857,
				"y": -2.4918340451,
				"z": -1.3752733792,
				"element": "C" 
			},
			{
				"x": 4.5603767914,
				"y": -1.0975245276,
				"z": 3.7478852484,
				"element": "H" 
			},
			{
				"x": 4.2346216894,
				"y": -0.0647459521,
				"z": 5.1444658884,
				"element": "H" 
			},
			{
				"x": 3.2577110885,
				"y": -1.513870811,
				"z": 4.8693472697,
				"element": "H" 
			},
			{
				"x": 2.2970198175,
				"y": -0.5084691329,
				"z": 2.795805277,
				"element": "H" 
			},
			{
				"x": 1.9774059238,
				"y": 0.5295429905,
				"z": 4.1752803867,
				"element": "H" 
			},
			{
				"x": 4.2235063586,
				"y": 0.9260766146,
				"z": 2.1278074004,
				"element": "H" 
			},
			{
				"x": 4.0074708017,
				"y": 1.9148042661,
				"z": 3.5595880082,
				"element": "H" 
			},
			{
				"x": 1.8074171589,
				"y": 2.7234437246,
				"z": 2.7196024333,
				"element": "H" 
			},
			{
				"x": 3.1517490644,
				"y": 3.1005060544,
				"z": 1.6649108716,
				"element": "H" 
			},
			{
				"x": 2.3840702336,
				"y": 0.8293894724,
				"z": 0.4079359295,
				"element": "H" 
			},
			{
				"x": 1.6990116653,
				"y": 2.3970739184,
				"z": 0.0384334991,
				"element": "H" 
			},
			{
				"x": -0.2450808529,
				"y": 1.9660613851,
				"z": 1.5059050417,
				"element": "H" 
			},
			{
				"x": 0.4250931684,
				"y": 0.4255939743,
				"z": 2.0029840402,
				"element": "H" 
			},
			{
				"x": -1.2792676273,
				"y": -0.0093749531,
				"z": 0.3577309705,
				"element": "H" 
			},
			{
				"x": 0.2764659885,
				"y": -0.4196889432,
				"z": -0.3458576993,
				"element": "H" 
			},
			{
				"x": -1.1522185783,
				"y": 2.248252568,
				"z": -0.8154007891,
				"element": "H" 
			},
			{
				"x": 0.2775424343,
				"y": 1.68931174,
				"z": -1.6632555334,
				"element": "H" 
			},
			{
				"x": -1.7952320729,
				"y": 1.548385383,
				"z": -3.0014783024,
				"element": "H" 
			},
			{
				"x": -2.511519545,
				"y": 0.4294556127,
				"z": -1.8599079684,
				"element": "H" 
			},
			{
				"x": 0.1392857662,
				"y": -0.3072964405,
				"z": -3.1664952391,
				"element": "H" 
			},
			{
				"x": -1.316317326,
				"y": -0.3927016552,
				"z": -4.1277694336,
				"element": "H" 
			},
			{
				"x": -0.6931155606,
				"y": -2.5726149423,
				"z": -3.158481657,
				"element": "H" 
			},
			{
				"x": -0.8338618318,
				"y": -1.9415799137,
				"z": -1.523758816,
				"element": "H" 
			},
			{
				"x": -2.8687809409,
				"y": -3.0397053364,
				"z": -4.5189296583,
				"element": "H" 
			},
			{
				"x": -3.4223352804,
				"y": -1.3769116923,
				"z": -4.3768337598,
				"element": "H" 
			},
			{
				"x": -4.4286725929,
				"y": -2.6898172422,
				"z": -3.7483944769,
				"element": "H" 
			},
			{
				"x": -4.3970376755,
				"y": -2.7834513386,
				"z": -1.3618745968,
				"element": "H" 
			},
			{
				"x": -2.8513641643,
				"y": -2.4242331793,
				"z": -0.4121053868,
				"element": "H" 
			}
		],
		 "valence_orbital": [ 
			{
				"type": "occ",
				"energy": -0.31286,
				"method": "rhf"
			},
			{
				"type": "occ",
				"energy": -0.3054,
				"method": "rhf"
			},
			{
				"type": "occ",
				"energy": -0.29521,
				"method": "rhf"
			},
			{
				"type": "occ",
				"energy": -0.29247,
				"method": "rhf"
			},
			{
				"type": "occ",
				"energy": -0.23932,
				"method": "rhf"
			},
			{
				"type": "unocc",
				"energy": 0.02776,
				"method": "rhf"
			},
			{
				"type": "unocc",
				"energy": 0.08218,
				"method": "rhf"
			},
			{
				"type": "unocc",
				"energy": 0.0902,
				"method": "rhf"
			},
			{
				"type": "unocc",
				"energy": 0.10449,
				"method": "rhf"
			},
			{
				"type": "unocc",
				"energy": 0.1093,
				"method": "rhf"
			}
		],
		"cosmo_sigma_profile": { 
			"-0.025": 0.0,
			"-0.024": 0.0,
			"-0.023": 0.0,
			"-0.022": 0.0,
			"-0.021": 0.0,
			"-0.02": 0.0,
			"-0.019": 0.0,
			"-0.018": 0.0,
			"-0.017": 0.0,
			"-0.016": 0.0,
			"-0.015": 0.0,
			"-0.014": 0.0,
			"-0.013": 0.0,
			"-0.012": 0.0,
			"-0.011": 0.0,
			"-0.01": 0.0,
			"-0.009": 0.0,
			"-0.008": 0.0,
			"-0.007": 0.0,
			"-0.006": 0.0,
			"-0.005": 0.00425126170755,
			"-0.004": 3.07426864835,
			"-0.003": 15.4536477618,
			"-0.002": 39.4945528423,
			"-0.001": 68.450356147,
			"0.0": 78.6699154732,
			"0.001": 64.0168569097,
			"0.002": 28.2369646854,
			"0.003": 6.08547409773,
			"0.004": 4.19478291978,
			"0.005": 4.09916596429,
			"0.006": 2.60137298159,
			"0.007": 1.49797475477,
			"0.008": 0.453964010351,
			"0.009": 0.0,
			"0.01": 0.0,
			"0.011": 0.0,
			"0.012": 0.0,
			"0.013": 0.0,
			"0.014": 0.0,
			"0.015": 0.0,
			"0.016": 0.0,
			"0.017": 0.0,
			"0.018": 0.0,
			"0.019": 0.0,
			"0.02": 0.0,
			"0.021": 0.0,
			"0.022": 0.0,
			"0.023": 0.0,
			"0.024": 0.0,
			"0.025": 0.0
		}
	}
}
