{
	 "smiles": "OCC1=C(F)C(F)=C(F)C(F)=C1F", 
	 "Tm": 308.95, 
	 "num_atms": 16, 
	 "gaussian": { 
		 "optdone": 1, 
		 "sigma_profile": "yes", 
		 "theory": "DFT", 
		 "functional": "B3LYP", 
		 "basiset": "6-31G**", 
		 "properties": { 
			 "R2extent": 2359.9187, 
			 "electric_dipole_moment_norm": 1.39720196822, 
			 "electric_quadrupole_moment_norm": 8.02419330213, 
			 "total_energy": -842.900573272, 
			 "HOMO_LUMO_gap": 0.22812, 
			 "cosmo_polarized_energy": -6.21, 
			 "cosmo_cavitation_energy": 23.22, 
			 "cosmo_dispersion_energy": -16.51, 
			 "cosmo_repulsion_energy": 1.21, 
			 "cosmo_total_nonelectrostatic_energy": 7.92, 
			 "SMD_solvation_energy": 6.33 
		},
		"coords": [
			{
				"x": -0.904084833,
				"y": 0.5013772297,
				"z": -3.2011888392,
				"element": "O" 
			},
			{
				"x": -0.2212844973,
				"y": 1.4405918608,
				"z": -2.3902637218,
				"element": "C" 
			},
			{
				"x": 0.0340980945,
				"y": 0.9361659184,
				"z": -0.979857796,
				"element": "C" 
			},
			{
				"x": 1.3149022446,
				"y": 0.8150587158,
				"z": -0.4437154362,
				"element": "C" 
			},
			{
				"x": 2.3861447075,
				"y": 1.1707971407,
				"z": -1.1714716995,
				"element": "F" 
			},
			{
				"x": 1.532504352,
				"y": 0.3369840885,
				"z": 0.8482718597,
				"element": "C" 
			},
			{
				"x": 2.7734207134,
				"y": 0.2362019477,
				"z": 1.3356727943,
				"element": "F" 
			},
			{
				"x": 0.4457141113,
				"y": -0.0406755227,
				"z": 1.6327136152,
				"element": "C" 
			},
			{
				"x": 0.6410486287,
				"y": -0.5024817904,
				"z": 2.8700380449,
				"element": "F" 
			},
			{
				"x": -0.8491936217,
				"y": 0.0638471505,
				"z": 1.1246208306,
				"element": "C" 
			},
			{
				"x": -1.8948278519,
				"y": -0.2981129837,
				"z": 1.8751526019,
				"element": "F" 
			},
			{
				"x": -1.0293185349,
				"y": 0.5487718605,
				"z": -0.1653956866,
				"element": "C" 
			},
			{
				"x": -2.2889701923,
				"y": 0.644068255,
				"z": -0.6464481785,
				"element": "F" 
			},
			{
				"x": -1.7921218371,
				"y": 0.3937070278,
				"z": -2.8359513363,
				"element": "H" 
			},
			{
				"x": 0.7365000519,
				"y": 1.6353065826,
				"z": -2.8747997729,
				"element": "H" 
			},
			{
				"x": -0.7644315357,
				"y": 2.3958925189,
				"z": -2.3336772798,
				"element": "H" 
			}
		],
		 "valence_orbital": [ 
			{
				"type": "occ",
				"energy": -0.36369,
				"method": "rhf"
			},
			{
				"type": "occ",
				"energy": -0.34531,
				"method": "rhf"
			},
			{
				"type": "occ",
				"energy": -0.28877,
				"method": "rhf"
			},
			{
				"type": "occ",
				"energy": -0.26929,
				"method": "rhf"
			},
			{
				"type": "occ",
				"energy": -0.26278,
				"method": "rhf"
			},
			{
				"type": "unocc",
				"energy": -0.03466,
				"method": "rhf"
			},
			{
				"type": "unocc",
				"energy": -0.02199,
				"method": "rhf"
			},
			{
				"type": "unocc",
				"energy": 0.00568,
				"method": "rhf"
			},
			{
				"type": "unocc",
				"energy": 0.07649,
				"method": "rhf"
			},
			{
				"type": "unocc",
				"energy": 0.10254,
				"method": "rhf"
			}
		],
		"cosmo_sigma_profile": { 
			"-0.025": 0.0,
			"-0.024": 0.0,
			"-0.023": 0.0,
			"-0.022": 0.0,
			"-0.021": 0.0,
			"-0.02": 0.0,
			"-0.019": 0.0,
			"-0.018": 0.0,
			"-0.017": 0.0,
			"-0.016": 0.0,
			"-0.015": 0.0,
			"-0.014": 0.170265554199,
			"-0.013": 0.841496168113,
			"-0.012": 0.767153491057,
			"-0.011": 0.498932231474,
			"-0.01": 0.762139042734,
			"-0.009": 1.10494597487,
			"-0.008": 1.24744073262,
			"-0.007": 1.71969269622,
			"-0.006": 5.54104638692,
			"-0.005": 6.94435659212,
			"-0.004": 14.2379971408,
			"-0.003": 24.551635924,
			"-0.002": 15.410711714,
			"-0.001": 12.5622531629,
			"0.0": 8.01287729501,
			"0.001": 12.7705502534,
			"0.002": 35.5014614064,
			"0.003": 30.3419274143,
			"0.004": 1.55789616226,
			"0.005": 1.43288899475,
			"0.006": 0.922033500893,
			"0.007": 0.69415290986,
			"0.008": 1.55009682559,
			"0.009": 0.978158631728,
			"0.01": 1.30602311884,
			"0.011": 1.64113188185,
			"0.012": 1.48606709143,
			"0.013": 2.28136810861,
			"0.014": 0.630305170089,
			"0.015": 0.0,
			"0.016": 0.0,
			"0.017": 0.0,
			"0.018": 0.0,
			"0.019": 0.0,
			"0.02": 0.0,
			"0.021": 0.0,
			"0.022": 0.0,
			"0.023": 0.0,
			"0.024": 0.0,
			"0.025": 0.0
		}
	}
}
