{
	 "smiles": "CC(N1C=NC2=C1C=C(C)C(C)=C2)C1=CC=CC=C1", 
	 "Tm": 443.15, 
	 "num_atms": 37, 
	 "gaussian": { 
		 "optdone": 1, 
		 "sigma_profile": "yes", 
		 "theory": "DFT", 
		 "functional": "B3LYP", 
		 "basiset": "6-31G**", 
		 "properties": { 
			 "R2extent": 6414.8494, 
			 "electric_dipole_moment_norm": 3.81117904198, 
			 "electric_quadrupole_moment_norm": 12.2565726873, 
			 "total_energy": -768.188050276, 
			 "HOMO_LUMO_gap": 0.19826, 
			 "cosmo_polarized_energy": -12.5, 
			 "cosmo_cavitation_energy": 39.31, 
			 "cosmo_dispersion_energy": -27.03, 
			 "cosmo_repulsion_energy": 2.07, 
			 "cosmo_total_nonelectrostatic_energy": 14.35, 
			 "SMD_solvation_energy": 4.65 
		},
		"coords": [
			{
				"x": -2.0449073968,
				"y": 3.8682680033,
				"z": 1.623442852,
				"element": "C" 
			},
			{
				"x": -1.3539086963,
				"y": 2.5376604297,
				"z": 1.287935003,
				"element": "C" 
			},
			{
				"x": -0.7211504414,
				"y": 2.5791651281,
				"z": -0.0328810204,
				"element": "N" 
			},
			{
				"x": -0.413263248,
				"y": 3.6742351244,
				"z": -0.8190748428,
				"element": "C" 
			},
			{
				"x": 0.1554621319,
				"y": 3.3758726067,
				"z": -1.9602706143,
				"element": "N" 
			},
			{
				"x": 0.2423589502,
				"y": 1.9899644829,
				"z": -1.9514918343,
				"element": "C" 
			},
			{
				"x": -0.2949656159,
				"y": 1.4708473145,
				"z": -0.7553615045,
				"element": "C" 
			},
			{
				"x": -0.3291330151,
				"y": 0.0995250542,
				"z": -0.4928891731,
				"element": "C" 
			},
			{
				"x": 0.1812970945,
				"y": -0.7691257872,
				"z": -1.4583663108,
				"element": "C" 
			},
			{
				"x": 0.159296591,
				"y": -2.2583427792,
				"z": -1.2020133591,
				"element": "C" 
			},
			{
				"x": 0.7248939278,
				"y": -0.2607295788,
				"z": -2.6764372693,
				"element": "C" 
			},
			{
				"x": 1.2761356663,
				"y": -1.2125420923,
				"z": -3.7137519071,
				"element": "C" 
			},
			{
				"x": 0.7535254769,
				"y": 1.1117127441,
				"z": -2.9147259935,
				"element": "C" 
			},
			{
				"x": -0.3761652754,
				"y": 2.1326788145,
				"z": 2.3893810001,
				"element": "C" 
			},
			{
				"x": 0.9458577121,
				"y": 2.5922808303,
				"z": 2.3991215537,
				"element": "C" 
			},
			{
				"x": 1.8036837596,
				"y": 2.255218198,
				"z": 3.4465918198,
				"element": "C" 
			},
			{
				"x": 1.3507746583,
				"y": 1.4557787787,
				"z": 4.4981846669,
				"element": "C" 
			},
			{
				"x": 0.0346686249,
				"y": 0.9913593725,
				"z": 4.4946756786,
				"element": "C" 
			},
			{
				"x": -0.8209769165,
				"y": 1.3271054224,
				"z": 3.4443037877,
				"element": "C" 
			},
			{
				"x": -2.7628323098,
				"y": 4.1502998619,
				"z": 0.8474308163,
				"element": "H" 
			},
			{
				"x": -1.3175633496,
				"y": 4.6757288373,
				"z": 1.7483290477,
				"element": "H" 
			},
			{
				"x": -2.5807315421,
				"y": 3.7617327474,
				"z": 2.569619663,
				"element": "H" 
			},
			{
				"x": -2.1317962257,
				"y": 1.7654979238,
				"z": 1.2304663765,
				"element": "H" 
			},
			{
				"x": -0.6422768828,
				"y": 4.6798278407,
				"z": -0.4953260449,
				"element": "H" 
			},
			{
				"x": -0.7254940848,
				"y": -0.2922402281,
				"z": 0.4391598081,
				"element": "H" 
			},
			{
				"x": 1.167943101,
				"y": -2.6894425229,
				"z": -1.2168543583,
				"element": "H" 
			},
			{
				"x": -0.4212101703,
				"y": -2.7945295115,
				"z": -1.9630272318,
				"element": "H" 
			},
			{
				"x": -0.2827438459,
				"y": -2.4837515592,
				"z": -0.227719722,
				"element": "H" 
			},
			{
				"x": 1.6513110517,
				"y": -0.6669738353,
				"z": -4.5835357004,
				"element": "H" 
			},
			{
				"x": 0.5144946246,
				"y": -1.918534587,
				"z": -4.0676431349,
				"element": "H" 
			},
			{
				"x": 2.1028993202,
				"y": -1.8155420566,
				"z": -3.3179510134,
				"element": "H" 
			},
			{
				"x": 1.1668491939,
				"y": 1.5064514382,
				"z": -3.8383232504,
				"element": "H" 
			},
			{
				"x": 1.3091274963,
				"y": 3.2028907626,
				"z": 1.5775045172,
				"element": "H" 
			},
			{
				"x": 2.8289432223,
				"y": 2.6140338142,
				"z": 3.4383949497,
				"element": "H" 
			},
			{
				"x": 2.0209043122,
				"y": 1.1915584063,
				"z": 5.3110436094,
				"element": "H" 
			},
			{
				"x": -0.3246376883,
				"y": 0.3621304964,
				"z": 5.3040203804,
				"element": "H" 
			},
			{
				"x": -1.8443702113,
				"y": 0.9575301053,
				"z": 3.4433387552,
				"element": "H" 
			}
		],
		 "valence_orbital": [ 
			{
				"type": "occ",
				"energy": -0.25946,
				"method": "rhf"
			},
			{
				"type": "occ",
				"energy": -0.25654,
				"method": "rhf"
			},
			{
				"type": "occ",
				"energy": -0.25069,
				"method": "rhf"
			},
			{
				"type": "occ",
				"energy": -0.21136,
				"method": "rhf"
			},
			{
				"type": "occ",
				"energy": -0.20868,
				"method": "rhf"
			},
			{
				"type": "unocc",
				"energy": -0.01042,
				"method": "rhf"
			},
			{
				"type": "unocc",
				"energy": -0.00936,
				"method": "rhf"
			},
			{
				"type": "unocc",
				"energy": -0.00414,
				"method": "rhf"
			},
			{
				"type": "unocc",
				"energy": 0.02843,
				"method": "rhf"
			},
			{
				"type": "unocc",
				"energy": 0.06236,
				"method": "rhf"
			}
		],
		"cosmo_sigma_profile": { 
			"-0.025": 0.0,
			"-0.024": 0.0,
			"-0.023": 0.0,
			"-0.022": 0.0,
			"-0.021": 0.0,
			"-0.02": 0.0,
			"-0.019": 0.0,
			"-0.018": 0.0,
			"-0.017": 0.0,
			"-0.016": 0.0,
			"-0.015": 0.0,
			"-0.014": 0.0,
			"-0.013": 0.0,
			"-0.012": 0.0,
			"-0.011": 0.0,
			"-0.01": 0.0,
			"-0.009": 0.514856752071,
			"-0.008": 1.41811978303,
			"-0.007": 3.56945567513,
			"-0.006": 11.4391913418,
			"-0.005": 23.1841751727,
			"-0.004": 33.2601594436,
			"-0.003": 34.5958408856,
			"-0.002": 27.4166754761,
			"-0.001": 27.5267688816,
			"0.0": 27.6592334075,
			"0.001": 22.2145938701,
			"0.002": 15.9624576274,
			"0.003": 14.4910015826,
			"0.004": 17.6422356658,
			"0.005": 18.6198120325,
			"0.006": 16.0307558434,
			"0.007": 2.80081440996,
			"0.008": 1.41491550767,
			"0.009": 2.03673238106,
			"0.01": 0.93083763398,
			"0.011": 0.826699590838,
			"0.012": 1.30558296229,
			"0.013": 1.53323470315,
			"0.014": 1.24093303708,
			"0.015": 1.11584751284,
			"0.016": 0.781072089557,
			"0.017": 1.05390001577,
			"0.018": 0.880090249346,
			"0.019": 0.0084725264116,
			"0.02": 0.0,
			"0.021": 0.0,
			"0.022": 0.0,
			"0.023": 0.0,
			"0.024": 0.0,
			"0.025": 0.0
		}
	}
}
