{
	 "smiles": "CCCCN(CCC#N)C1=CC=C(C=C1)N=NC1=CC=C(C=C1)[N+]([O-])=O", 
	 "Tm": 391.15, 
	 "num_atms": 47, 
	 "gaussian": { 
		 "optdone": 1, 
		 "sigma_profile": "yes", 
		 "theory": "DFT", 
		 "functional": "B3LYP", 
		 "basiset": "6-31G**", 
		 "properties": { 
			 "R2extent": 14497.8124, 
			 "electric_dipole_moment_norm": 4.82036697877, 
			 "electric_quadrupole_moment_norm": 42.3729496908, 
			 "total_energy": -1160.70951624, 
			 "HOMO_LUMO_gap": 0.11617, 
			 "cosmo_polarized_energy": -24.47, 
			 "cosmo_cavitation_energy": 52.38, 
			 "cosmo_dispersion_energy": -34.52, 
			 "cosmo_repulsion_energy": 2.67, 
			 "cosmo_total_nonelectrostatic_energy": 20.53, 
			 "SMD_solvation_energy": 9.93 
		},
		"coords": [
			{
				"x": -4.0115995401,
				"y": -0.7135943069,
				"z": 0.3860510463,
				"element": "C" 
			},
			{
				"x": -3.415512418,
				"y": -0.7823869934,
				"z": 1.7979555639,
				"element": "C" 
			},
			{
				"x": -1.8791990719,
				"y": -0.8315085799,
				"z": 1.8403823209,
				"element": "C" 
			},
			{
				"x": -1.2870312582,
				"y": -2.1336197004,
				"z": 1.2751258383,
				"element": "C" 
			},
			{
				"x": 0.1731881219,
				"y": -2.2111774767,
				"z": 1.3769473642,
				"element": "N" 
			},
			{
				"x": 0.7054805013,
				"y": -2.8426381211,
				"z": 2.5709461854,
				"element": "C" 
			},
			{
				"x": 0.9892666853,
				"y": -4.3563945979,
				"z": 2.3674383466,
				"element": "C" 
			},
			{
				"x": 1.5065143749,
				"y": -4.9826353081,
				"z": 3.5847020345,
				"element": "C" 
			},
			{
				"x": 1.9132073224,
				"y": -5.4447616357,
				"z": 4.5687537007,
				"element": "N" 
			},
			{
				"x": 1.0066352647,
				"y": -1.696936602,
				"z": 0.3991113966,
				"element": "C" 
			},
			{
				"x": 0.4863815564,
				"y": -0.9953064262,
				"z": -0.719921934,
				"element": "C" 
			},
			{
				"x": 1.3161195052,
				"y": -0.4596430117,
				"z": -1.6907112673,
				"element": "C" 
			},
			{
				"x": 2.7140721562,
				"y": -0.6099221441,
				"z": -1.6103412307,
				"element": "C" 
			},
			{
				"x": 3.2314308926,
				"y": -1.3566369196,
				"z": -0.538449274,
				"element": "C" 
			},
			{
				"x": 2.4138184552,
				"y": -1.864715247,
				"z": 0.4568395232,
				"element": "C" 
			},
			{
				"x": 3.6782855207,
				"y": -0.2105727521,
				"z": -2.5693588173,
				"element": "N" 
			},
			{
				"x": 3.5509666332,
				"y": 0.7555305291,
				"z": -3.358696999,
				"element": "N" 
			},
			{
				"x": 2.5392735008,
				"y": 1.7517013549,
				"z": -3.2854225285,
				"element": "C" 
			},
			{
				"x": 1.8033854282,
				"y": 2.0391410765,
				"z": -4.4482815144,
				"element": "C" 
			},
			{
				"x": 0.9139587775,
				"y": 3.1055482286,
				"z": -4.4677002412,
				"element": "C" 
			},
			{
				"x": 0.7979657073,
				"y": 3.9099098184,
				"z": -3.3325011786,
				"element": "C" 
			},
			{
				"x": 1.5541206585,
				"y": 3.670680961,
				"z": -2.1830526565,
				"element": "C" 
			},
			{
				"x": 2.4228285351,
				"y": 2.5884884029,
				"z": -2.1589778546,
				"element": "C" 
			},
			{
				"x": -0.1346812373,
				"y": 5.038300079,
				"z": -3.3498270224,
				"element": "N" 
			},
			{
				"x": -0.2137270005,
				"y": 5.7327899023,
				"z": -2.3346247629,
				"element": "O" 
			},
			{
				"x": -0.7900186224,
				"y": 5.2252124914,
				"z": -4.3766367463,
				"element": "O" 
			},
			{
				"x": -3.7829994114,
				"y": -1.6067584728,
				"z": -0.2053859764,
				"element": "H" 
			},
			{
				"x": -3.6295806838,
				"y": 0.1558625012,
				"z": -0.1611999205,
				"element": "H" 
			},
			{
				"x": -5.1015947177,
				"y": -0.6242074603,
				"z": 0.4263405782,
				"element": "H" 
			},
			{
				"x": -3.8218767196,
				"y": -1.6554229088,
				"z": 2.3273303037,
				"element": "H" 
			},
			{
				"x": -3.7467872468,
				"y": 0.0941743597,
				"z": 2.3670473646,
				"element": "H" 
			},
			{
				"x": -1.540933503,
				"y": -0.7224159863,
				"z": 2.8786431669,
				"element": "H" 
			},
			{
				"x": -1.4634438824,
				"y": 0.0228712029,
				"z": 1.2918815782,
				"element": "H" 
			},
			{
				"x": -1.5817490416,
				"y": -2.2821350777,
				"z": 0.2328504024,
				"element": "H" 
			},
			{
				"x": -1.7016280144,
				"y": -2.987137605,
				"z": 1.8248649464,
				"element": "H" 
			},
			{
				"x": -0.0204169875,
				"y": -2.7231157468,
				"z": 3.3798521283,
				"element": "H" 
			},
			{
				"x": 1.6168054335,
				"y": -2.3363937376,
				"z": 2.8995999153,
				"element": "H" 
			},
			{
				"x": 0.0681646952,
				"y": -4.8690797892,
				"z": 2.0682464496,
				"element": "H" 
			},
			{
				"x": 1.7112446085,
				"y": -4.4972858193,
				"z": 1.5562522659,
				"element": "H" 
			},
			{
				"x": -0.5812620504,
				"y": -0.8535739511,
				"z": -0.8277194316,
				"element": "H" 
			},
			{
				"x": 0.8654524995,
				"y": 0.0563831188,
				"z": -2.5292167495,
				"element": "H" 
			},
			{
				"x": 4.3037369438,
				"y": -1.5217146017,
				"z": -0.503518619,
				"element": "H" 
			},
			{
				"x": 2.8740274417,
				"y": -2.4183703616,
				"z": 1.2656726722,
				"element": "H" 
			},
			{
				"x": 1.9381882656,
				"y": 1.4138599132,
				"z": -5.324692047,
				"element": "H" 
			},
			{
				"x": 0.3194375706,
				"y": 3.3346711201,
				"z": -5.3432719221,
				"element": "H" 
			},
			{
				"x": 1.4448477579,
				"y": 4.3297545484,
				"z": -1.3307335236,
				"element": "H" 
			},
			{
				"x": 3.0198365933,
				"y": 2.3848817325,
				"z": -1.2766928751,
				"element": "H" 
			}
		],
		 "valence_orbital": [ 
			{
				"type": "occ",
				"energy": -0.28277,
				"method": "rhf"
			},
			{
				"type": "occ",
				"energy": -0.27987,
				"method": "rhf"
			},
			{
				"type": "occ",
				"energy": -0.27212,
				"method": "rhf"
			},
			{
				"type": "occ",
				"energy": -0.23535,
				"method": "rhf"
			},
			{
				"type": "occ",
				"energy": -0.21064,
				"method": "rhf"
			},
			{
				"type": "unocc",
				"energy": -0.09447,
				"method": "rhf"
			},
			{
				"type": "unocc",
				"energy": -0.06991,
				"method": "rhf"
			},
			{
				"type": "unocc",
				"energy": -0.03332,
				"method": "rhf"
			},
			{
				"type": "unocc",
				"energy": -0.02022,
				"method": "rhf"
			},
			{
				"type": "unocc",
				"energy": 0.00284,
				"method": "rhf"
			}
		],
		"cosmo_sigma_profile": { 
			"-0.025": 0.0,
			"-0.024": 0.0,
			"-0.023": 0.0,
			"-0.022": 0.0,
			"-0.021": 0.0,
			"-0.02": 0.0,
			"-0.019": 0.0,
			"-0.018": 0.0,
			"-0.017": 0.0,
			"-0.016": 0.0,
			"-0.015": 0.0,
			"-0.014": 0.0,
			"-0.013": 0.0,
			"-0.012": 0.0,
			"-0.011": 0.0,
			"-0.01": 0.399641050067,
			"-0.009": 2.40180093415,
			"-0.008": 11.2478979442,
			"-0.007": 17.9327462597,
			"-0.006": 23.8105686208,
			"-0.005": 30.173746151,
			"-0.004": 27.5617609499,
			"-0.003": 31.2225616859,
			"-0.002": 35.2660337728,
			"-0.001": 36.6988620959,
			"0.0": 36.6497203632,
			"0.001": 33.9667355196,
			"0.002": 22.2739097709,
			"0.003": 16.6533851974,
			"0.004": 15.067039499,
			"0.005": 7.18658654193,
			"0.006": 8.2046617496,
			"0.007": 9.85679851724,
			"0.008": 14.2374531037,
			"0.009": 10.1958243953,
			"0.01": 9.04536596971,
			"0.011": 5.82073143989,
			"0.012": 5.50716411127,
			"0.013": 3.89813370976,
			"0.014": 1.40713862449,
			"0.015": 0.102881538363,
			"0.016": 0.0,
			"0.017": 0.0,
			"0.018": 0.0,
			"0.019": 0.0,
			"0.02": 0.0,
			"0.021": 0.0,
			"0.022": 0.0,
			"0.023": 0.0,
			"0.024": 0.0,
			"0.025": 0.0
		}
	}
}
