{
	 "smiles": "FC1=CC=C(C=C1)C(=O)CC1=C(Cl)C=C(Cl)C=C1", 
	 "Tm": 382.15, 
	 "num_atms": 27, 
	 "gaussian": { 
		 "optdone": 1, 
		 "sigma_profile": "yes", 
		 "theory": "DFT", 
		 "functional": "B3LYP", 
		 "basiset": "6-31G**", 
		 "properties": { 
			 "R2extent": 7188.3014, 
			 "electric_dipole_moment_norm": 0.879813309742, 
			 "electric_quadrupole_moment_norm": 4.92468798809, 
			 "total_energy": -1634.36148868, 
			 "HOMO_LUMO_gap": 0.18124, 
			 "cosmo_polarized_energy": -7.84, 
			 "cosmo_cavitation_energy": 35.65, 
			 "cosmo_dispersion_energy": -25.28, 
			 "cosmo_repulsion_energy": 1.91, 
			 "cosmo_total_nonelectrostatic_energy": 12.28, 
			 "SMD_solvation_energy": 6.3 
		},
		"coords": [
			{
				"x": -4.6996632553,
				"y": 0.8219349844,
				"z": 2.511114279,
				"element": "F" 
			},
			{
				"x": -3.7266411601,
				"y": 0.7827720739,
				"z": 1.5837266381,
				"element": "C" 
			},
			{
				"x": -3.3124672622,
				"y": -0.4521022356,
				"z": 1.0956336136,
				"element": "C" 
			},
			{
				"x": -2.3071935797,
				"y": -0.4866874227,
				"z": 0.1318248615,
				"element": "C" 
			},
			{
				"x": -1.7202293345,
				"y": 0.7013663899,
				"z": -0.3336405265,
				"element": "C" 
			},
			{
				"x": -2.1623316571,
				"y": 1.9310328714,
				"z": 0.1876427306,
				"element": "C" 
			},
			{
				"x": -3.1671266956,
				"y": 1.9813750495,
				"z": 1.1446265074,
				"element": "C" 
			},
			{
				"x": -0.635091047,
				"y": 0.733756977,
				"z": -1.3576991878,
				"element": "C" 
			},
			{
				"x": -0.1184238599,
				"y": 1.7914785311,
				"z": -1.6926643692,
				"element": "O" 
			},
			{
				"x": -0.1321174289,
				"y": -0.572918049,
				"z": -1.987126232,
				"element": "C" 
			},
			{
				"x": 0.9747463507,
				"y": -1.2058721265,
				"z": -1.1601336538,
				"element": "C" 
			},
			{
				"x": 0.9756622947,
				"y": -2.5461610932,
				"z": -0.747603828,
				"element": "C" 
			},
			{
				"x": -0.354162128,
				"y": -3.6286554322,
				"z": -1.1659840374,
				"element": "Cl" 
			},
			{
				"x": 2.0204071762,
				"y": -3.0968911141,
				"z": -0.0027846363,
				"element": "C" 
			},
			{
				"x": 3.0976300928,
				"y": -2.2860777734,
				"z": 0.3411076426,
				"element": "C" 
			},
			{
				"x": 4.4158916058,
				"y": -2.9665041849,
				"z": 1.2773189124,
				"element": "Cl" 
			},
			{
				"x": 3.14255591,
				"y": -0.9484308378,
				"z": -0.0503140359,
				"element": "C" 
			},
			{
				"x": 2.0863287273,
				"y": -0.4298841296,
				"z": -0.7921434877,
				"element": "C" 
			},
			{
				"x": -3.7748369562,
				"y": -1.358787374,
				"z": 1.469666364,
				"element": "H" 
			},
			{
				"x": -1.9826888342,
				"y": -1.4504243538,
				"z": -0.2444032782,
				"element": "H" 
			},
			{
				"x": -1.6965905031,
				"y": 2.8390476127,
				"z": -0.1795645488,
				"element": "H" 
			},
			{
				"x": -3.5224137238,
				"y": 2.9202118123,
				"z": 1.5552590571,
				"element": "H" 
			},
			{
				"x": 0.2667687673,
				"y": -0.293715911,
				"z": -2.9671584871,
				"element": "H" 
			},
			{
				"x": -0.9453898721,
				"y": -1.2805806959,
				"z": -2.1476038764,
				"element": "H" 
			},
			{
				"x": 1.9898017993,
				"y": -4.1365216349,
				"z": 0.2984306031,
				"element": "H" 
			},
			{
				"x": 3.9884968025,
				"y": -0.3270856672,
				"z": 0.2203085133,
				"element": "H" 
			},
			{
				"x": 2.1097777711,
				"y": 0.6107237333,
				"z": -1.1013355375,
				"element": "H" 
			}
		],
		 "valence_orbital": [ 
			{
				"type": "occ",
				"energy": -0.27608,
				"method": "rhf"
			},
			{
				"type": "occ",
				"energy": -0.27027,
				"method": "rhf"
			},
			{
				"type": "occ",
				"energy": -0.266,
				"method": "rhf"
			},
			{
				"type": "occ",
				"energy": -0.25981,
				"method": "rhf"
			},
			{
				"type": "occ",
				"energy": -0.24827,
				"method": "rhf"
			},
			{
				"type": "unocc",
				"energy": -0.06703,
				"method": "rhf"
			},
			{
				"type": "unocc",
				"energy": -0.03241,
				"method": "rhf"
			},
			{
				"type": "unocc",
				"energy": -0.0273,
				"method": "rhf"
			},
			{
				"type": "unocc",
				"energy": -0.02303,
				"method": "rhf"
			},
			{
				"type": "unocc",
				"energy": -0.00031,
				"method": "rhf"
			}
		],
		"cosmo_sigma_profile": { 
			"-0.025": 0.0,
			"-0.024": 0.0,
			"-0.023": 0.0,
			"-0.022": 0.0,
			"-0.021": 0.0,
			"-0.02": 0.0,
			"-0.019": 0.0,
			"-0.018": 0.0,
			"-0.017": 0.0,
			"-0.016": 0.0,
			"-0.015": 0.0,
			"-0.014": 0.0,
			"-0.013": 0.0,
			"-0.012": 0.0,
			"-0.011": 0.0,
			"-0.01": 0.0,
			"-0.009": 0.251164467034,
			"-0.008": 4.61324868772,
			"-0.007": 7.52873910787,
			"-0.006": 14.6137162648,
			"-0.005": 14.1143842835,
			"-0.004": 16.146632802,
			"-0.003": 17.3345274166,
			"-0.002": 19.9172238205,
			"-0.001": 24.9321891323,
			"0.0": 32.7113475786,
			"0.001": 37.506885733,
			"0.002": 35.1525297207,
			"0.003": 24.6717405603,
			"0.004": 24.7902569383,
			"0.005": 4.15658655638,
			"0.006": 1.51558422671,
			"0.007": 1.3806292074,
			"0.008": 1.61736136222,
			"0.009": 0.89099457505,
			"0.01": 2.28387611004,
			"0.011": 3.31279138349,
			"0.012": 2.14431868776,
			"0.013": 0.254736990596,
			"0.014": 0.0,
			"0.015": 0.0,
			"0.016": 0.0,
			"0.017": 0.0,
			"0.018": 0.0,
			"0.019": 0.0,
			"0.02": 0.0,
			"0.021": 0.0,
			"0.022": 0.0,
			"0.023": 0.0,
			"0.024": 0.0,
			"0.025": 0.0
		}
	}
}
