{
	 "smiles": "CC1(C)CC(=O)C(=NNC2=CC=CC(=C2)[N+]([O-])=O)C(=O)C1", 
	 "Tm": 459.15, 
	 "num_atms": 36, 
	 "gaussian": { 
		 "optdone": 1, 
		 "sigma_profile": "yes", 
		 "theory": "DFT", 
		 "functional": "B3LYP", 
		 "basiset": "6-31G**", 
		 "properties": { 
			 "R2extent": 9820.7033, 
			 "electric_dipole_moment_norm": 6.84788243839, 
			 "electric_quadrupole_moment_norm": 21.8938516579, 
			 "total_energy": -1007.56209529, 
			 "HOMO_LUMO_gap": 0.13983, 
			 "cosmo_polarized_energy": -19.77, 
			 "cosmo_cavitation_energy": 40.36, 
			 "cosmo_dispersion_energy": -28.48, 
			 "cosmo_repulsion_energy": 2.16, 
			 "cosmo_total_nonelectrostatic_energy": 14.03, 
			 "SMD_solvation_energy": 9.4 
		},
		"coords": [
			{
				"x": 2.1960543905,
				"y": 0.7245315501,
				"z": 4.5428874448,
				"element": "C" 
			},
			{
				"x": 1.5810141634,
				"y": 0.1272156056,
				"z": 3.2658375161,
				"element": "C" 
			},
			{
				"x": 0.6306267277,
				"y": -1.0246582794,
				"z": 3.6519307585,
				"element": "C" 
			},
			{
				"x": 2.7112494616,
				"y": -0.3912545722,
				"z": 2.3505973502,
				"element": "C" 
			},
			{
				"x": 2.2644803271,
				"y": -0.8364516835,
				"z": 0.9706537562,
				"element": "C" 
			},
			{
				"x": 2.9173282159,
				"y": -1.6962075248,
				"z": 0.3569401777,
				"element": "O" 
			},
			{
				"x": 1.0738262278,
				"y": -0.2080579809,
				"z": 0.3799908054,
				"element": "C" 
			},
			{
				"x": 0.620622172,
				"y": -0.4895751595,
				"z": -0.8310799476,
				"element": "N" 
			},
			{
				"x": 1.2367287012,
				"y": -1.3616811143,
				"z": -1.5792727912,
				"element": "N" 
			},
			{
				"x": 0.768240305,
				"y": -1.6579142553,
				"z": -2.8685654905,
				"element": "C" 
			},
			{
				"x": 1.473005752,
				"y": -2.6034136867,
				"z": -3.6277467037,
				"element": "C" 
			},
			{
				"x": 1.041889426,
				"y": -2.9277072633,
				"z": -4.9128586984,
				"element": "C" 
			},
			{
				"x": -0.0882930171,
				"y": -2.3192302393,
				"z": -5.4552092002,
				"element": "C" 
			},
			{
				"x": -0.7670793549,
				"y": -1.3833576694,
				"z": -4.6750420584,
				"element": "C" 
			},
			{
				"x": -0.3699839897,
				"y": -1.0331972703,
				"z": -3.3911417864,
				"element": "C" 
			},
			{
				"x": -1.966849334,
				"y": -0.7314536025,
				"z": -5.2396363569,
				"element": "N" 
			},
			{
				"x": -2.3036724677,
				"y": -1.0549940118,
				"z": -6.3779296594,
				"element": "O" 
			},
			{
				"x": -2.5518544496,
				"y": 0.0908604489,
				"z": -4.5395060033,
				"element": "O" 
			},
			{
				"x": 0.2658997059,
				"y": 0.7980322174,
				"z": 1.1407342328,
				"element": "C" 
			},
			{
				"x": -0.7632794162,
				"y": 1.2742261728,
				"z": 0.6953799272,
				"element": "O" 
			},
			{
				"x": 0.8131812626,
				"y": 1.2248327442,
				"z": 2.4986288195,
				"element": "C" 
			},
			{
				"x": 1.4155006563,
				"y": 1.1090062125,
				"z": 5.2080976093,
				"element": "H" 
			},
			{
				"x": 2.8757817968,
				"y": 1.5517710588,
				"z": 4.3097355569,
				"element": "H" 
			},
			{
				"x": 2.7637591013,
				"y": -0.031841894,
				"z": 5.0962234897,
				"element": "H" 
			},
			{
				"x": -0.1747626152,
				"y": -0.6598666188,
				"z": 4.2978825001,
				"element": "H" 
			},
			{
				"x": 0.1647250636,
				"y": -1.4892000019,
				"z": 2.7763381411,
				"element": "H" 
			},
			{
				"x": 1.1699220407,
				"y": -1.8073715669,
				"z": 4.1963256961,
				"element": "H" 
			},
			{
				"x": 3.4473164317,
				"y": 0.412262463,
				"z": 2.1940648636,
				"element": "H" 
			},
			{
				"x": 3.2567493805,
				"y": -1.2253637014,
				"z": 2.8038326883,
				"element": "H" 
			},
			{
				"x": 2.0729048448,
				"y": -1.8179860534,
				"z": -1.1835848577,
				"element": "H" 
			},
			{
				"x": 2.3548500502,
				"y": -3.080415198,
				"z": -3.2092890921,
				"element": "H" 
			},
			{
				"x": 1.5922375378,
				"y": -3.6601286835,
				"z": -5.4942295543,
				"element": "H" 
			},
			{
				"x": -0.4478441144,
				"y": -2.5493161079,
				"z": -6.4494252224,
				"element": "H" 
			},
			{
				"x": -0.9213357449,
				"y": -0.3030693267,
				"z": -2.8137038249,
				"element": "H" 
			},
			{
				"x": 1.4886316416,
				"y": 2.0746704705,
				"z": 2.3154402925,
				"element": "H" 
			},
			{
				"x": -0.0277708804,
				"y": 1.6137045217,
				"z": 3.0805996218,
				"element": "H" 
			}
		],
		 "valence_orbital": [ 
			{
				"type": "occ",
				"energy": -0.29246,
				"method": "rhf"
			},
			{
				"type": "occ",
				"energy": -0.28928,
				"method": "rhf"
			},
			{
				"type": "occ",
				"energy": -0.2643,
				"method": "rhf"
			},
			{
				"type": "occ",
				"energy": -0.24396,
				"method": "rhf"
			},
			{
				"type": "occ",
				"energy": -0.23936,
				"method": "rhf"
			},
			{
				"type": "unocc",
				"energy": -0.09953,
				"method": "rhf"
			},
			{
				"type": "unocc",
				"energy": -0.09137,
				"method": "rhf"
			},
			{
				"type": "unocc",
				"energy": -0.02896,
				"method": "rhf"
			},
			{
				"type": "unocc",
				"energy": -0.01828,
				"method": "rhf"
			},
			{
				"type": "unocc",
				"energy": 0.00237,
				"method": "rhf"
			}
		],
		"cosmo_sigma_profile": { 
			"-0.025": 0.0,
			"-0.024": 0.0,
			"-0.023": 0.0,
			"-0.022": 0.0,
			"-0.021": 0.0,
			"-0.02": 0.0,
			"-0.019": 0.0,
			"-0.018": 0.0,
			"-0.017": 0.0,
			"-0.016": 0.0,
			"-0.015": 0.0,
			"-0.014": 0.026268051598,
			"-0.013": 0.644128271259,
			"-0.012": 0.825127406476,
			"-0.011": 0.985160377693,
			"-0.01": 1.32446144567,
			"-0.009": 2.31431623364,
			"-0.008": 5.33386594026,
			"-0.007": 10.8912615073,
			"-0.006": 13.7781388071,
			"-0.005": 15.0598823795,
			"-0.004": 27.5435666216,
			"-0.003": 34.8350572901,
			"-0.002": 30.8684598973,
			"-0.001": 34.7586485375,
			"0.0": 30.4802254088,
			"0.001": 23.2403695802,
			"0.002": 10.9644275893,
			"0.003": 6.4937318395,
			"0.004": 4.9377104889,
			"0.005": 5.91514630955,
			"0.006": 7.41039866547,
			"0.007": 12.0939771924,
			"0.008": 9.52070887936,
			"0.009": 7.39555742572,
			"0.01": 5.22863782655,
			"0.011": 4.16821805647,
			"0.012": 6.44435661664,
			"0.013": 4.37340842323,
			"0.014": 2.24235523309,
			"0.015": 0.0368190318649,
			"0.016": 0.0,
			"0.017": 0.0,
			"0.018": 0.0,
			"0.019": 0.0,
			"0.02": 0.0,
			"0.021": 0.0,
			"0.022": 0.0,
			"0.023": 0.0,
			"0.024": 0.0,
			"0.025": 0.0
		}
	}
}
