{
	 "smiles": "OC(=O)C1=C2C=NN(C3CCCCC3)C2=NC(=C1)C1CC1", 
	 "Tm": 484.15, 
	 "num_atms": 40, 
	 "gaussian": { 
		 "optdone": 1, 
		 "sigma_profile": "yes", 
		 "theory": "DFT", 
		 "functional": "B3LYP", 
		 "basiset": "6-31G**", 
		 "properties": { 
			 "R2extent": 7405.3901, 
			 "electric_dipole_moment_norm": 2.67207519542, 
			 "electric_quadrupole_moment_norm": 15.4214692682, 
			 "total_energy": -935.849406726, 
			 "HOMO_LUMO_gap": 0.15467, 
			 "cosmo_polarized_energy": -11.32, 
			 "cosmo_cavitation_energy": 41.38, 
			 "cosmo_dispersion_energy": -29.37, 
			 "cosmo_repulsion_energy": 2.26, 
			 "cosmo_total_nonelectrostatic_energy": 14.27, 
			 "SMD_solvation_energy": 5.72 
		},
		"coords": [
			{
				"x": 1.9713914838,
				"y": -4.5589305429,
				"z": -1.1881302869,
				"element": "O" 
			},
			{
				"x": 1.7203141834,
				"y": -3.4006898924,
				"z": -1.8446585267,
				"element": "C" 
			},
			{
				"x": 1.8994522472,
				"y": -3.2795868788,
				"z": -3.0402702762,
				"element": "O" 
			},
			{
				"x": 1.2127639844,
				"y": -2.3213315945,
				"z": -0.9557846303,
				"element": "C" 
			},
			{
				"x": 0.9043982569,
				"y": -1.055378622,
				"z": -1.4917922208,
				"element": "C" 
			},
			{
				"x": 0.9212455103,
				"y": -0.3840977876,
				"z": -2.7447525135,
				"element": "C" 
			},
			{
				"x": 0.5002874561,
				"y": 0.8659381422,
				"z": -2.6148316378,
				"element": "N" 
			},
			{
				"x": 0.2010505793,
				"y": 1.058912498,
				"z": -1.3012945768,
				"element": "N" 
			},
			{
				"x": -0.3402284371,
				"y": 2.3289786233,
				"z": -0.7991252034,
				"element": "C" 
			},
			{
				"x": 0.5231311417,
				"y": 3.5427675237,
				"z": -1.2568275004,
				"element": "C" 
			},
			{
				"x": -0.2526277912,
				"y": 4.5415316117,
				"z": -2.1348881026,
				"element": "C" 
			},
			{
				"x": -1.0230822955,
				"y": 3.813810753,
				"z": -3.2452920358,
				"element": "C" 
			},
			{
				"x": -2.0565757684,
				"y": 2.807034639,
				"z": -2.6708120138,
				"element": "C" 
			},
			{
				"x": -1.8235477279,
				"y": 2.5036379317,
				"z": -1.1784267303,
				"element": "C" 
			},
			{
				"x": 0.4253950088,
				"y": -0.0794312455,
				"z": -0.5783013156,
				"element": "C" 
			},
			{
				"x": 0.2349448283,
				"y": -0.2347385695,
				"z": 0.7353907025,
				"element": "N" 
			},
			{
				"x": 0.5346641526,
				"y": -1.4433089148,
				"z": 1.2233522026,
				"element": "C" 
			},
			{
				"x": 1.0214023234,
				"y": -2.5012022753,
				"z": 0.4095396642,
				"element": "C" 
			},
			{
				"x": 0.3415506688,
				"y": -1.6653240027,
				"z": 2.680726302,
				"element": "C" 
			},
			{
				"x": -0.8049094555,
				"y": -0.9782784768,
				"z": 3.4043038454,
				"element": "C" 
			},
			{
				"x": 0.5998079663,
				"y": -0.5306470487,
				"z": 3.6584869097,
				"element": "C" 
			},
			{
				"x": 2.2932388405,
				"y": -5.1809931483,
				"z": -1.8611962113,
				"element": "H" 
			},
			{
				"x": 1.2232314094,
				"y": -0.7680148018,
				"z": -3.70733088,
				"element": "H" 
			},
			{
				"x": -0.2783588068,
				"y": 2.2142268123,
				"z": 0.2859076599,
				"element": "H" 
			},
			{
				"x": 1.3786202204,
				"y": 3.163550931,
				"z": -1.8230754789,
				"element": "H" 
			},
			{
				"x": 0.9271550118,
				"y": 4.0530326907,
				"z": -0.3755545547,
				"element": "H" 
			},
			{
				"x": 0.4518851408,
				"y": 5.2607011608,
				"z": -2.5683332443,
				"element": "H" 
			},
			{
				"x": -0.9458413984,
				"y": 5.1291722163,
				"z": -1.5181547377,
				"element": "H" 
			},
			{
				"x": -1.5192958324,
				"y": 4.5390253768,
				"z": -3.8997598585,
				"element": "H" 
			},
			{
				"x": -0.2998909422,
				"y": 3.2698300577,
				"z": -3.8618311774,
				"element": "H" 
			},
			{
				"x": -3.0755177789,
				"y": 3.1953063382,
				"z": -2.7844854516,
				"element": "H" 
			},
			{
				"x": -2.0126251173,
				"y": 1.8762556572,
				"z": -3.2435785399,
				"element": "H" 
			},
			{
				"x": -2.3846376217,
				"y": 1.614076482,
				"z": -0.8718317103,
				"element": "H" 
			},
			{
				"x": -2.2064567611,
				"y": 3.3325954438,
				"z": -0.5700970443,
				"element": "H" 
			},
			{
				"x": 1.2451954678,
				"y": -3.4594923613,
				"z": 0.8622326345,
				"element": "H" 
			},
			{
				"x": 0.5990541272,
				"y": -2.6646911744,
				"z": 3.018905738,
				"element": "H" 
			},
			{
				"x": -1.4327286069,
				"y": -0.3352577344,
				"z": 2.7961305626,
				"element": "H" 
			},
			{
				"x": -1.3234160412,
				"y": -1.5448641136,
				"z": 4.1717597064,
				"element": "H" 
			},
			{
				"x": 1.0692194363,
				"y": -0.7824446485,
				"z": 4.6045925654,
				"element": "H" 
			},
			{
				"x": 0.9119409369,
				"y": 0.4118189445,
				"z": 3.2204879666,
				"element": "H" 
			}
		],
		 "valence_orbital": [ 
			{
				"type": "occ",
				"energy": -0.29037,
				"method": "rhf"
			},
			{
				"type": "occ",
				"energy": -0.28685,
				"method": "rhf"
			},
			{
				"type": "occ",
				"energy": -0.26893,
				"method": "rhf"
			},
			{
				"type": "occ",
				"energy": -0.23681,
				"method": "rhf"
			},
			{
				"type": "occ",
				"energy": -0.22891,
				"method": "rhf"
			},
			{
				"type": "unocc",
				"energy": -0.07424,
				"method": "rhf"
			},
			{
				"type": "unocc",
				"energy": -0.00072,
				"method": "rhf"
			},
			{
				"type": "unocc",
				"energy": 0.03868,
				"method": "rhf"
			},
			{
				"type": "unocc",
				"energy": 0.05587,
				"method": "rhf"
			},
			{
				"type": "unocc",
				"energy": 0.07304,
				"method": "rhf"
			}
		],
		"cosmo_sigma_profile": { 
			"-0.025": 0.0,
			"-0.024": 0.0,
			"-0.023": 0.0,
			"-0.022": 0.0,
			"-0.021": 0.0,
			"-0.02": 0.0,
			"-0.019": 0.130895348093,
			"-0.018": 1.24285031001,
			"-0.017": 0.550835196565,
			"-0.016": 0.782820571386,
			"-0.015": 1.08058108852,
			"-0.014": 0.787844537206,
			"-0.013": 0.586218089114,
			"-0.012": 0.664210348279,
			"-0.011": 0.897495589874,
			"-0.01": 0.634727116511,
			"-0.009": 0.261268546234,
			"-0.008": 1.30076540335,
			"-0.007": 3.34634757039,
			"-0.006": 4.95702305497,
			"-0.005": 8.57067319185,
			"-0.004": 17.4524346196,
			"-0.003": 26.5202773059,
			"-0.002": 32.7211666136,
			"-0.001": 39.4695827769,
			"0.0": 50.3305249099,
			"0.001": 40.6613130102,
			"0.002": 25.3394491098,
			"0.003": 17.280278881,
			"0.004": 11.9398419572,
			"0.005": 8.62861472128,
			"0.006": 7.40902096079,
			"0.007": 7.41580985336,
			"0.008": 2.99322179079,
			"0.009": 4.24599582302,
			"0.01": 3.11758888182,
			"0.011": 3.73612890329,
			"0.012": 0.751016462182,
			"0.013": 0.0,
			"0.014": 0.0,
			"0.015": 0.0,
			"0.016": 0.0,
			"0.017": 0.0,
			"0.018": 0.0,
			"0.019": 0.0,
			"0.02": 0.0,
			"0.021": 0.0,
			"0.022": 0.0,
			"0.023": 0.0,
			"0.024": 0.0,
			"0.025": 0.0
		}
	}
}
