{
	 "smiles": "CC1=CC(Br)=CC(C)=C1O", 
	 "Tm": 349.15, 
	 "num_atms": 19, 
	 "gaussian": { 
		 "optdone": 1, 
		 "sigma_profile": "yes", 
		 "theory": "DFT", 
		 "functional": "B3LYP", 
		 "basiset": "6-31G**", 
		 "properties": { 
			 "R2extent": 3167.0927, 
			 "electric_dipole_moment_norm": 2.90660154476, 
			 "electric_quadrupole_moment_norm": 6.9921533357, 
			 "total_energy": -2956.91485176, 
			 "HOMO_LUMO_gap": 0.20904, 
			 "cosmo_polarized_energy": -7.9, 
			 "cosmo_cavitation_energy": 24.51, 
			 "cosmo_dispersion_energy": -18.56, 
			 "cosmo_repulsion_energy": 1.5, 
			 "cosmo_total_nonelectrostatic_energy": 7.46, 
			 "SMD_solvation_energy": 3.31 
		},
		"coords": [
			{
				"x": -0.1286316929,
				"y": 2.6454922403,
				"z": 1.6417568803,
				"element": "C" 
			},
			{
				"x": 0.0575277582,
				"y": 1.2236477282,
				"z": 1.1778097227,
				"element": "C" 
			},
			{
				"x": 0.6004660445,
				"y": 0.2436526246,
				"z": 2.0116011457,
				"element": "C" 
			},
			{
				"x": 0.7591623449,
				"y": -1.0615494391,
				"z": 1.5517438695,
				"element": "C" 
			},
			{
				"x": 1.5059537684,
				"y": -2.3875778476,
				"z": 2.7139423028,
				"element": "Br" 
			},
			{
				"x": 0.3833347739,
				"y": -1.41622009,
				"z": 0.2611581256,
				"element": "C" 
			},
			{
				"x": -0.163660952,
				"y": -0.4571293917,
				"z": -0.5983017988,
				"element": "C" 
			},
			{
				"x": -0.5799616515,
				"y": -0.8177169931,
				"z": -2.0052439213,
				"element": "C" 
			},
			{
				"x": -0.3197002737,
				"y": 0.8564135613,
				"z": -0.1252802179,
				"element": "C" 
			},
			{
				"x": -0.8474119059,
				"y": 1.8514572619,
				"z": -0.9061473425,
				"element": "O" 
			},
			{
				"x": 0.4280319553,
				"y": 3.3442244201,
				"z": 1.0077576734,
				"element": "H" 
			},
			{
				"x": -1.1808893004,
				"y": 2.9449534728,
				"z": 1.5858172494,
				"element": "H" 
			},
			{
				"x": 0.2114423993,
				"y": 2.7681842053,
				"z": 2.6730181694,
				"element": "H" 
			},
			{
				"x": 0.8988258963,
				"y": 0.5039033762,
				"z": 3.0214252288,
				"element": "H" 
			},
			{
				"x": 0.5128098535,
				"y": -2.4365524529,
				"z": -0.0832756952,
				"element": "H" 
			},
			{
				"x": -0.3910328777,
				"y": -1.8740443399,
				"z": -2.2087270444,
				"element": "H" 
			},
			{
				"x": -0.026772411,
				"y": -0.2410025737,
				"z": -2.7592325379,
				"element": "H" 
			},
			{
				"x": -1.6514586753,
				"y": -0.6441113061,
				"z": -2.1751556341,
				"element": "H" 
			},
			{
				"x": -1.0714350542,
				"y": 1.4961755433,
				"z": -1.7749661755,
				"element": "H" 
			}
		],
		 "valence_orbital": [ 
			{
				"type": "occ",
				"energy": -0.34218,
				"method": "rhf"
			},
			{
				"type": "occ",
				"energy": -0.28583,
				"method": "rhf"
			},
			{
				"type": "occ",
				"energy": -0.27901,
				"method": "rhf"
			},
			{
				"type": "occ",
				"energy": -0.24747,
				"method": "rhf"
			},
			{
				"type": "occ",
				"energy": -0.21383,
				"method": "rhf"
			},
			{
				"type": "unocc",
				"energy": -0.00479,
				"method": "rhf"
			},
			{
				"type": "unocc",
				"energy": 0.00365,
				"method": "rhf"
			},
			{
				"type": "unocc",
				"energy": 0.0148,
				"method": "rhf"
			},
			{
				"type": "unocc",
				"energy": 0.05772,
				"method": "rhf"
			},
			{
				"type": "unocc",
				"energy": 0.1221,
				"method": "rhf"
			}
		],
		"cosmo_sigma_profile": { 
			"-0.025": 0.0,
			"-0.024": 0.0,
			"-0.023": 0.0,
			"-0.022": 0.0,
			"-0.021": 0.0,
			"-0.02": 0.0,
			"-0.019": 0.0,
			"-0.018": 0.0,
			"-0.017": 0.0942411054826,
			"-0.016": 0.432730674729,
			"-0.015": 0.845487010089,
			"-0.014": 0.997425802614,
			"-0.013": 0.836334977169,
			"-0.012": 0.84205937398,
			"-0.011": 1.33960532386,
			"-0.01": 1.07631120809,
			"-0.009": 1.30555893479,
			"-0.008": 1.26535842955,
			"-0.007": 2.46990987824,
			"-0.006": 7.06744005409,
			"-0.005": 9.77008319365,
			"-0.004": 12.5357280927,
			"-0.003": 13.4508648479,
			"-0.002": 14.3981279733,
			"-0.001": 17.9494763625,
			"0.0": 18.6052406991,
			"0.001": 11.8218940179,
			"0.002": 13.2375479718,
			"0.003": 18.750029719,
			"0.004": 19.9085664502,
			"0.005": 17.4749272407,
			"0.006": 3.71114779392,
			"0.007": 1.69424909124,
			"0.008": 1.40698272706,
			"0.009": 1.96680508672,
			"0.01": 1.80700264698,
			"0.011": 0.270257817606,
			"0.012": 0.0,
			"0.013": 0.0,
			"0.014": 0.0,
			"0.015": 0.0,
			"0.016": 0.0,
			"0.017": 0.0,
			"0.018": 0.0,
			"0.019": 0.0,
			"0.02": 0.0,
			"0.021": 0.0,
			"0.022": 0.0,
			"0.023": 0.0,
			"0.024": 0.0,
			"0.025": 0.0
		}
	}
}
