{
	 "smiles": "COC1=CC(=CC=C1)C1=NN(C=C1C(O)=O)C1=CC=CC=C1", 
	 "Tm": 430.15, 
	 "num_atms": 36, 
	 "gaussian": { 
		 "optdone": 1, 
		 "sigma_profile": "yes", 
		 "theory": "DFT", 
		 "functional": "B3LYP", 
		 "basiset": "6-31G**", 
		 "properties": { 
			 "R2extent": 9668.5691, 
			 "electric_dipole_moment_norm": 1.4752351338, 
			 "electric_quadrupole_moment_norm": 23.2545431224, 
			 "total_energy": -991.412284129, 
			 "HOMO_LUMO_gap": 0.17363, 
			 "cosmo_polarized_energy": -16.18, 
			 "cosmo_cavitation_energy": 41.24, 
			 "cosmo_dispersion_energy": -29.59, 
			 "cosmo_repulsion_energy": 2.24, 
			 "cosmo_total_nonelectrostatic_energy": 13.89, 
			 "SMD_solvation_energy": 8.37 
		},
		"coords": [
			{
				"x": 2.508748245,
				"y": 4.4105570882,
				"z": 2.8044055763,
				"element": "C" 
			},
			{
				"x": 1.8501262021,
				"y": 3.1578106758,
				"z": 2.7301894971,
				"element": "O" 
			},
			{
				"x": 0.9219499541,
				"y": 2.9740852937,
				"z": 1.7429283497,
				"element": "C" 
			},
			{
				"x": 0.3215048794,
				"y": 1.7084467383,
				"z": 1.7152001835,
				"element": "C" 
			},
			{
				"x": -0.640818839,
				"y": 1.4014237023,
				"z": 0.7520934754,
				"element": "C" 
			},
			{
				"x": -0.9939457312,
				"y": 2.373347299,
				"z": -0.2039716204,
				"element": "C" 
			},
			{
				"x": -0.39409778,
				"y": 3.6256210641,
				"z": -0.1695844779,
				"element": "C" 
			},
			{
				"x": 0.5648782279,
				"y": 3.9423607201,
				"z": 0.7987871103,
				"element": "C" 
			},
			{
				"x": -1.2547496623,
				"y": 0.05840366,
				"z": 0.6655058855,
				"element": "C" 
			},
			{
				"x": -1.4881123949,
				"y": -0.4420609915,
				"z": -0.5481098566,
				"element": "N" 
			},
			{
				"x": -2.0509338156,
				"y": -1.6661035912,
				"z": -0.3525535552,
				"element": "N" 
			},
			{
				"x": -2.1708159739,
				"y": -1.9581230285,
				"z": 0.9617675113,
				"element": "C" 
			},
			{
				"x": -1.6808399559,
				"y": -0.8744253718,
				"z": 1.6727984012,
				"element": "C" 
			},
			{
				"x": -1.7537425846,
				"y": -0.8650783462,
				"z": 3.1393965864,
				"element": "C" 
			},
			{
				"x": -1.3816885308,
				"y": 0.3025611554,
				"z": 3.7142604946,
				"element": "O" 
			},
			{
				"x": -2.1352342672,
				"y": -1.8142792766,
				"z": 3.8018713034,
				"element": "O" 
			},
			{
				"x": -2.4054758352,
				"y": -2.471376304,
				"z": -1.4708279924,
				"element": "C" 
			},
			{
				"x": -3.3297968847,
				"y": -3.5113874556,
				"z": -1.3258065309,
				"element": "C" 
			},
			{
				"x": -3.6511143469,
				"y": -4.3022631387,
				"z": -2.4281349958,
				"element": "C" 
			},
			{
				"x": -3.0699456143,
				"y": -4.0525646643,
				"z": -3.6723498047,
				"element": "C" 
			},
			{
				"x": -2.1603096551,
				"y": -3.0017007186,
				"z": -3.8088545433,
				"element": "C" 
			},
			{
				"x": -1.8205949036,
				"y": -2.2095632227,
				"z": -2.7140705878,
				"element": "C" 
			},
			{
				"x": 3.2012569516,
				"y": 4.3386886539,
				"z": 3.6447650966,
				"element": "H" 
			},
			{
				"x": 3.0752389689,
				"y": 4.6274713914,
				"z": 1.8891424626,
				"element": "H" 
			},
			{
				"x": 1.8031810804,
				"y": 5.2312988684,
				"z": 2.9894932744,
				"element": "H" 
			},
			{
				"x": 0.6238826701,
				"y": 0.9831591138,
				"z": 2.4591373584,
				"element": "H" 
			},
			{
				"x": -1.7342144156,
				"y": 2.131313319,
				"z": -0.9576949183,
				"element": "H" 
			},
			{
				"x": -0.6726253916,
				"y": 4.376809472,
				"z": -0.9033275461,
				"element": "H" 
			},
			{
				"x": 1.0170442942,
				"y": 4.9269232425,
				"z": 0.8058730284,
				"element": "H" 
			},
			{
				"x": -2.5736798807,
				"y": -2.8864045171,
				"z": 1.3336262429,
				"element": "H" 
			},
			{
				"x": -1.4927563377,
				"y": 0.1680375342,
				"z": 4.6702752171,
				"element": "H" 
			},
			{
				"x": -3.8109698163,
				"y": -3.6934257795,
				"z": -0.3709445518,
				"element": "H" 
			},
			{
				"x": -4.3690589834,
				"y": -5.1085559387,
				"z": -2.3120782076,
				"element": "H" 
			},
			{
				"x": -3.3275510905,
				"y": -4.6683051197,
				"z": -4.5285575605,
				"element": "H" 
			},
			{
				"x": -1.7047111082,
				"y": -2.7975372913,
				"z": -4.7732280425,
				"element": "H" 
			},
			{
				"x": -1.1151276748,
				"y": -1.392764236,
				"z": -2.8015222632,
				"element": "H" 
			}
		],
		 "valence_orbital": [ 
			{
				"type": "occ",
				"energy": -0.2651,
				"method": "rhf"
			},
			{
				"type": "occ",
				"energy": -0.26235,
				"method": "rhf"
			},
			{
				"type": "occ",
				"energy": -0.24782,
				"method": "rhf"
			},
			{
				"type": "occ",
				"energy": -0.22474,
				"method": "rhf"
			},
			{
				"type": "occ",
				"energy": -0.21351,
				"method": "rhf"
			},
			{
				"type": "unocc",
				"energy": -0.03988,
				"method": "rhf"
			},
			{
				"type": "unocc",
				"energy": -0.0276,
				"method": "rhf"
			},
			{
				"type": "unocc",
				"energy": -0.01237,
				"method": "rhf"
			},
			{
				"type": "unocc",
				"energy": 0.01023,
				"method": "rhf"
			},
			{
				"type": "unocc",
				"energy": 0.01656,
				"method": "rhf"
			}
		],
		"cosmo_sigma_profile": { 
			"-0.025": 0.0,
			"-0.024": 0.0,
			"-0.023": 0.0,
			"-0.022": 0.0,
			"-0.021": 0.0,
			"-0.02": 0.0,
			"-0.019": 0.0323439487774,
			"-0.018": 0.714220748914,
			"-0.017": 0.938266794099,
			"-0.016": 0.531306198736,
			"-0.015": 1.12401405889,
			"-0.014": 0.484461702448,
			"-0.013": 0.850115678343,
			"-0.012": 0.575535272165,
			"-0.011": 2.14167623851,
			"-0.01": 1.82342909683,
			"-0.009": 2.44293152342,
			"-0.008": 2.20289548536,
			"-0.007": 5.40626456571,
			"-0.006": 17.5176752474,
			"-0.005": 25.7176369293,
			"-0.004": 27.770165108,
			"-0.003": 24.1259108047,
			"-0.002": 20.0824479319,
			"-0.001": 20.0800105998,
			"0.0": 22.333860991,
			"0.001": 25.4807485332,
			"0.002": 20.091537628,
			"0.003": 23.3825998665,
			"0.004": 25.5386776488,
			"0.005": 19.4370882712,
			"0.006": 9.04090215398,
			"0.007": 6.92369363395,
			"0.008": 5.9317833515,
			"0.009": 4.76370900257,
			"0.01": 4.34044171201,
			"0.011": 3.25233811545,
			"0.012": 5.28488073332,
			"0.013": 0.447329541112,
			"0.014": 0.0,
			"0.015": 0.0,
			"0.016": 0.0,
			"0.017": 0.0,
			"0.018": 0.0,
			"0.019": 0.0,
			"0.02": 0.0,
			"0.021": 0.0,
			"0.022": 0.0,
			"0.023": 0.0,
			"0.024": 0.0,
			"0.0": 0.0
		}
	}
}
