{
	 "smiles": "OC(=O)C1CCCN1S(=O)(=O)C1=CC=C(Cl)S1", 
	 "Tm": 318.15, 
	 "num_atms": 27, 
	 "gaussian": { 
		 "optdone": 1, 
		 "sigma_profile": "yes", 
		 "theory": "DFT", 
		 "functional": "B3LYP", 
		 "basiset": "6-31G**", 
		 "properties": { 
			 "R2extent": 6314.5809, 
			 "electric_dipole_moment_norm": 4.44498881213, 
			 "electric_quadrupole_moment_norm": 21.1484408262, 
			 "total_energy": -1961.11004418, 
			 "HOMO_LUMO_gap": 0.18896, 
			 "cosmo_polarized_energy": -18.79, 
			 "cosmo_cavitation_energy": 35.47, 
			 "cosmo_dispersion_energy": -25.49, 
			 "cosmo_repulsion_energy": 1.92, 
			 "cosmo_total_nonelectrostatic_energy": 11.91, 
			 "SMD_solvation_energy": 5.23 
		},
		"coords": [
			{
				"x": 3.6035301004,
				"y": -1.4242685904,
				"z": -0.2609490321,
				"element": "O" 
			},
			{
				"x": 2.4178603173,
				"y": -1.6022879074,
				"z": -0.877243576,
				"element": "C" 
			},
			{
				"x": 2.2009057074,
				"y": -2.4914880139,
				"z": -1.6690693053,
				"element": "O" 
			},
			{
				"x": 1.3997732915,
				"y": -0.5120692726,
				"z": -0.5488578696,
				"element": "C" 
			},
			{
				"x": 1.6297332741,
				"y": 0.763689477,
				"z": -1.4054671407,
				"element": "C" 
			},
			{
				"x": 2.4060462566,
				"y": 1.7077380284,
				"z": -0.4724103047,
				"element": "C" 
			},
			{
				"x": 1.7707126387,
				"y": 1.4441434463,
				"z": 0.8966371985,
				"element": "C" 
			},
			{
				"x": 1.4985473796,
				"y": -0.0051593256,
				"z": 0.8271584707,
				"element": "N" 
			},
			{
				"x": 0.7638912817,
				"y": -0.8196951367,
				"z": 2.0729665276,
				"element": "S" 
			},
			{
				"x": 0.9634288658,
				"y": -2.2436542421,
				"z": 1.807381277,
				"element": "O" 
			},
			{
				"x": 1.1871431639,
				"y": -0.1559089917,
				"z": 3.3045185094,
				"element": "O" 
			},
			{
				"x": -0.9847035831,
				"y": -0.5388791992,
				"z": 1.9029350569,
				"element": "C" 
			},
			{
				"x": -1.8692862681,
				"y": -1.3634962032,
				"z": 1.2545363811,
				"element": "C" 
			},
			{
				"x": -3.1956199579,
				"y": -0.8461049402,
				"z": 1.23881926,
				"element": "C" 
			},
			{
				"x": -3.2791563139,
				"y": 0.3623226266,
				"z": 1.8786529047,
				"element": "C" 
			},
			{
				"x": -4.7025420375,
				"y": 1.3187632723,
				"z": 2.0956769857,
				"element": "Cl" 
			},
			{
				"x": -1.7549361935,
				"y": 0.8962022111,
				"z": 2.5309380289,
				"element": "S" 
			},
			{
				"x": 4.1713848188,
				"y": -2.1580068397,
				"z": -0.5512988971,
				"element": "H" 
			},
			{
				"x": 0.4195471513,
				"y": -0.951488021,
				"z": -0.7592092664,
				"element": "H" 
			},
			{
				"x": 0.6562328293,
				"y": 1.1952542695,
				"z": -1.6597456765,
				"element": "H" 
			},
			{
				"x": 2.1495656151,
				"y": 0.5443214468,
				"z": -2.3410872109,
				"element": "H" 
			},
			{
				"x": 2.3274340387,
				"y": 2.7564877766,
				"z": -0.7700441263,
				"element": "H" 
			},
			{
				"x": 3.4639792842,
				"y": 1.431219231,
				"z": -0.4474217186,
				"element": "H" 
			},
			{
				"x": 0.8424791013,
				"y": 2.0222387682,
				"z": 1.0189981511,
				"element": "H" 
			},
			{
				"x": 2.4293068743,
				"y": 1.6602838799,
				"z": 1.7386649067,
				"element": "H" 
			},
			{
				"x": -1.5737644494,
				"y": -2.3151286172,
				"z": 0.8296610325,
				"element": "H" 
			},
			{
				"x": -4.0459931868,
				"y": -1.3429291326,
				"z": 0.7890594333,
				"element": "H" 
			}
		],
		 "valence_orbital": [ 
			{
				"type": "occ",
				"energy": -0.31172,
				"method": "rhf"
			},
			{
				"type": "occ",
				"energy": -0.2955,
				"method": "rhf"
			},
			{
				"type": "occ",
				"energy": -0.28386,
				"method": "rhf"
			},
			{
				"type": "occ",
				"energy": -0.26854,
				"method": "rhf"
			},
			{
				"type": "occ",
				"energy": -0.24691,
				"method": "rhf"
			},
			{
				"type": "unocc",
				"energy": -0.05795,
				"method": "rhf"
			},
			{
				"type": "unocc",
				"energy": -0.00734,
				"method": "rhf"
			},
			{
				"type": "unocc",
				"energy": -0.0002,
				"method": "rhf"
			},
			{
				"type": "unocc",
				"energy": 0.0037,
				"method": "rhf"
			},
			{
				"type": "unocc",
				"energy": 0.02422,
				"method": "rhf"
			}
		],
		"cosmo_sigma_profile": { 
			"-0.025": 0.0,
			"-0.024": 0.0,
			"-0.023": 0.0,
			"-0.022": 0.0,
			"-0.021": 0.0,
			"-0.02": 0.0,
			"-0.019": 0.177607007344,
			"-0.018": 1.02391943275,
			"-0.017": 1.1198080062,
			"-0.016": 0.408749266532,
			"-0.015": 0.568217745651,
			"-0.014": 1.0333058084,
			"-0.013": 1.06655978121,
			"-0.012": 0.592186569538,
			"-0.011": 0.43442010239,
			"-0.01": 0.599878742772,
			"-0.009": 2.62277699707,
			"-0.008": 4.63877169779,
			"-0.007": 5.12395958254,
			"-0.006": 14.6002969304,
			"-0.005": 19.2214138766,
			"-0.004": 24.4649585775,
			"-0.003": 24.5191353862,
			"-0.002": 24.6142849641,
			"-0.001": 18.7092177394,
			"0.0": 23.1101801358,
			"0.001": 20.456885491,
			"0.002": 18.7013054209,
			"0.003": 14.9437968432,
			"0.004": 5.60802448251,
			"0.005": 5.77107120087,
			"0.006": 7.80477463826,
			"0.007": 6.53701947001,
			"0.008": 5.95199592241,
			"0.009": 8.60707212309,
			"0.01": 9.91270303545,
			"0.011": 9.40620662044,
			"0.012": 3.71692634658,
			"0.013": 0.230954500024,
			"0.014": 0.0,
			"0.015": 0.0,
			"0.016": 0.0,
			"0.017": 0.0,
			"0.018": 0.0,
			"0.019": 0.0,
			"0.02": 0.0,
			"0.021": 0.0,
			"0.022": 0.0,
			"0.023": 0.0,
			"0.024": 0.0,
			"0.025": 0.0
		}
	}
}
