{
	 "smiles": "O=C1NC(=NO1)C1=CC=CS1", 
	 "Tm": 457.15, 
	 "num_atms": 15, 
	 "gaussian": { 
		 "optdone": 1, 
		 "sigma_profile": "yes", 
		 "theory": "DFT", 
		 "functional": "B3LYP", 
		 "basiset": "6-31G**", 
		 "properties": { 
			 "R2extent": 2917.7995, 
			 "electric_dipole_moment_norm": 6.42208143517, 
			 "electric_quadrupole_moment_norm": 13.2925259906, 
			 "total_energy": -889.139341853, 
			 "HOMO_LUMO_gap": 0.17174, 
			 "cosmo_polarized_energy": -15.7, 
			 "cosmo_cavitation_energy": 22.12, 
			 "cosmo_dispersion_energy": -17.25, 
			 "cosmo_repulsion_energy": 1.33, 
			 "cosmo_total_nonelectrostatic_energy": 6.2, 
			 "SMD_solvation_energy": 4.82 
		},
		"coords": [
			{
				"x": 0.3522862787,
				"y": -0.8373812301,
				"z": -3.9027886366,
				"element": "O" 
			},
			{
				"x": 0.7736753791,
				"y": -0.3288448545,
				"z": -2.8970955396,
				"element": "C" 
			},
			{
				"x": 0.9772582239,
				"y": -0.8819692677,
				"z": -1.6384000474,
				"element": "N" 
			},
			{
				"x": 1.476981994,
				"y": 0.0947017008,
				"z": -0.8073188068,
				"element": "C" 
			},
			{
				"x": 1.6097205511,
				"y": 1.2298838209,
				"z": -1.4337330199,
				"element": "N" 
			},
			{
				"x": 1.1689563284,
				"y": 0.9800437229,
				"z": -2.7585080231,
				"element": "O" 
			},
			{
				"x": 1.8197948035,
				"y": -0.0908563145,
				"z": 0.5902518494,
				"element": "C" 
			},
			{
				"x": 2.3213107094,
				"y": 0.8593753665,
				"z": 1.4507213167,
				"element": "C" 
			},
			{
				"x": 2.5511723921,
				"y": 0.3522930412,
				"z": 2.7583590318,
				"element": "C" 
			},
			{
				"x": 2.2247086636,
				"y": -0.9723879416,
				"z": 2.8823331241,
				"element": "C" 
			},
			{
				"x": 1.6272393502,
				"y": -1.6288735345,
				"z": 1.3966384314,
				"element": "S" 
			},
			{
				"x": 0.7760770543,
				"y": -1.8453804601,
				"z": -1.4219541904,
				"element": "H" 
			},
			{
				"x": 2.5121365549,
				"y": 1.8793385807,
				"z": 1.1400706416,
				"element": "H" 
			},
			{
				"x": 2.9432811406,
				"y": 0.9462038581,
				"z": 3.5754125622,
				"element": "H" 
			},
			{
				"x": 2.2975005761,
				"y": -1.6062464882,
				"z": 3.7549113066,
				"element": "H" 
			}
		],
		 "valence_orbital": [ 
			{
				"type": "occ",
				"energy": -0.34732,
				"method": "rhf"
			},
			{
				"type": "occ",
				"energy": -0.28676,
				"method": "rhf"
			},
			{
				"type": "occ",
				"energy": -0.28554,
				"method": "rhf"
			},
			{
				"type": "occ",
				"energy": -0.2796,
				"method": "rhf"
			},
			{
				"type": "occ",
				"energy": -0.2408,
				"method": "rhf"
			},
			{
				"type": "unocc",
				"energy": -0.06906,
				"method": "rhf"
			},
			{
				"type": "unocc",
				"energy": -0.00803,
				"method": "rhf"
			},
			{
				"type": "unocc",
				"energy": 0.01112,
				"method": "rhf"
			},
			{
				"type": "unocc",
				"energy": 0.03899,
				"method": "rhf"
			},
			{
				"type": "unocc",
				"energy": 0.04007,
				"method": "rhf"
			}
		],
		"cosmo_sigma_profile": { 
			"-0.025": 0.0,
			"-0.024": 0.0,
			"-0.023": 0.0,
			"-0.022": 0.0,
			"-0.021": 0.0,
			"-0.02": 0.0,
			"-0.019": 0.222877280691,
			"-0.018": 0.899141280664,
			"-0.017": 1.11469374295,
			"-0.016": 0.994278871188,
			"-0.015": 0.866512209927,
			"-0.014": 1.64330395535,
			"-0.013": 1.19136384073,
			"-0.012": 1.04444726779,
			"-0.011": 1.00105785289,
			"-0.01": 1.23522233859,
			"-0.009": 3.62501516344,
			"-0.008": 5.86308195659,
			"-0.007": 6.91516388324,
			"-0.006": 6.6313019038,
			"-0.005": 10.6828205607,
			"-0.004": 10.9112667523,
			"-0.003": 10.0293162054,
			"-0.002": 8.10987388731,
			"-0.001": 8.55473728149,
			"0.0": 10.7869658761,
			"0.001": 15.2096993082,
			"0.002": 16.2449905815,
			"0.003": 11.8937530002,
			"0.004": 4.50729821517,
			"0.005": 3.80913566367,
			"0.006": 4.71703356156,
			"0.007": 6.7809438834,
			"0.008": 5.65500799933,
			"0.009": 3.5156614455,
			"0.01": 3.30346989462,
			"0.011": 7.77328356055,
			"0.012": 5.16061332898,
			"0.013": 0.3016095833,
			"0.014": 0.0,
			"0.015": 0.0,
			"0.016": 0.0,
			"0.017": 0.0,
			"0.018": 0.0,
			"0.019": 0.0,
			"0.02": 0.0,
			"0.021": 0.0,
			"0.022": 0.0,
			"0.023": 0.0,
			"0.024": 0.0,
			"0.025": 0.0
		}
	}
}
