{
	 "smiles": "OCC1=CC=CN=C1Cl", 
	 "Tm": 327.65, 
	 "num_atms": 15, 
	 "gaussian": { 
		 "optdone": 1, 
		 "sigma_profile": "yes", 
		 "theory": "DFT", 
		 "functional": "B3LYP", 
		 "basiset": "6-31G**", 
		 "properties": { 
			 "R2extent": 1837.5836, 
			 "electric_dipole_moment_norm": 3.03468159944, 
			 "electric_quadrupole_moment_norm": 9.12166152189, 
			 "total_energy": -822.406325805, 
			 "HOMO_LUMO_gap": 0.22399, 
			 "cosmo_polarized_energy": -9.45, 
			 "cosmo_cavitation_energy": 20.63, 
			 "cosmo_dispersion_energy": -15.8, 
			 "cosmo_repulsion_energy": 1.31, 
			 "cosmo_total_nonelectrostatic_energy": 6.13, 
			 "SMD_solvation_energy": 2.11 
		},
		"coords": [
			{
				"x": -1.6435750951,
				"y": -2.4825419679,
				"z": -0.8052895113,
				"element": "O" 
			},
			{
				"x": -1.0631896825,
				"y": -1.6391507528,
				"z": 0.1755801732,
				"element": "C" 
			},
			{
				"x": 0.3727366887,
				"y": -1.3652608348,
				"z": -0.1996159339,
				"element": "C" 
			},
			{
				"x": 0.9479790032,
				"y": -1.9039213884,
				"z": -1.352071965,
				"element": "C" 
			},
			{
				"x": 2.2798190578,
				"y": -1.6233957002,
				"z": -1.6590678152,
				"element": "C" 
			},
			{
				"x": 3.0018124715,
				"y": -0.8049653844,
				"z": -0.7954812166,
				"element": "C" 
			},
			{
				"x": 2.4711237128,
				"y": -0.2763331214,
				"z": 0.3167077079,
				"element": "N" 
			},
			{
				"x": 1.2125360935,
				"y": -0.5571287237,
				"z": 0.5825033654,
				"element": "C" 
			},
			{
				"x": 0.554292081,
				"y": 0.1636369594,
				"z": 2.0625832741,
				"element": "Cl" 
			},
			{
				"x": -2.5590727472,
				"y": -2.6480361462,
				"z": -0.5520487235,
				"element": "H" 
			},
			{
				"x": -1.6010290294,
				"y": -0.681435857,
				"z": 0.2578338093,
				"element": "H" 
			},
			{
				"x": -1.0906346574,
				"y": -2.1000686794,
				"z": 1.1756110178,
				"element": "H" 
			},
			{
				"x": 0.338359719,
				"y": -2.5349118513,
				"z": -1.9883369401,
				"element": "H" 
			},
			{
				"x": 2.7471459754,
				"y": -2.0312666761,
				"z": -2.5493853442,
				"element": "H" 
			},
			{
				"x": 4.0424964087,
				"y": -0.5576198759,
				"z": -0.9918218979,
				"element": "H" 
			}
		],
		 "valence_orbital": [ 
			{
				"type": "occ",
				"energy": -0.31312,
				"method": "rhf"
			},
			{
				"type": "occ",
				"energy": -0.2962,
				"method": "rhf"
			},
			{
				"type": "occ",
				"energy": -0.2825,
				"method": "rhf"
			},
			{
				"type": "occ",
				"energy": -0.27139,
				"method": "rhf"
			},
			{
				"type": "occ",
				"energy": -0.25285,
				"method": "rhf"
			},
			{
				"type": "unocc",
				"energy": -0.02886,
				"method": "rhf"
			},
			{
				"type": "unocc",
				"energy": -0.01989,
				"method": "rhf"
			},
			{
				"type": "unocc",
				"energy": 0.03529,
				"method": "rhf"
			},
			{
				"type": "unocc",
				"energy": 0.06262,
				"method": "rhf"
			},
			{
				"type": "unocc",
				"energy": 0.11023,
				"method": "rhf"
			}
		],
		"cosmo_sigma_profile": { 
			"-0.025": 0.0,
			"-0.024": 0.0,
			"-0.023": 0.0,
			"-0.022": 0.0,
			"-0.021": 0.0,
			"-0.02": 0.0,
			"-0.019": 0.0,
			"-0.018": 0.0,
			"-0.017": 0.454777847544,
			"-0.016": 0.895421646605,
			"-0.015": 1.26348339781,
			"-0.014": 0.910791180836,
			"-0.013": 0.835642043719,
			"-0.012": 0.834012327794,
			"-0.011": 0.879010791601,
			"-0.01": 0.702911551142,
			"-0.009": 0.839568275413,
			"-0.008": 1.48410325358,
			"-0.007": 5.85362773274,
			"-0.006": 8.1702195787,
			"-0.005": 11.5224710941,
			"-0.004": 9.44656341353,
			"-0.003": 8.84896583456,
			"-0.002": 8.40849575146,
			"-0.001": 10.3781644077,
			"0.0": 13.5650018966,
			"0.001": 16.946685745,
			"0.002": 16.4301772213,
			"0.003": 9.34003454261,
			"0.004": 9.22487246185,
			"0.005": 7.20394981584,
			"0.006": 4.3822080598,
			"0.007": 3.77949918428,
			"0.008": 2.51022780141,
			"0.009": 3.1551987339,
			"0.01": 2.66923464744,
			"0.011": 2.52405467496,
			"0.012": 1.25411391809,
			"0.013": 0.970954834559,
			"0.014": 0.680344185078,
			"0.015": 0.399552257436,
			"0.016": 0.0,
			"0.017": 0.0,
			"0.018": 0.0,
			"0.019": 0.0,
			"0.02": 0.0,
			"0.021": 0.0,
			"0.022": 0.0,
			"0.023": 0.0,
			"0.024": 0.0,
			"0.025": 0.0
		}
	}
}
