{
	 "smiles": "CCC(C)C1=CSC(NC)=N1", 
	 "Tm": 323.15, 
	 "num_atms": 25, 
	 "gaussian": { 
		 "optdone": 1, 
		 "sigma_profile": "yes", 
		 "theory": "DFT", 
		 "functional": "B3LYP", 
		 "basiset": "6-31G**", 
		 "properties": { 
			 "R2extent": 3007.0938, 
			 "electric_dipole_moment_norm": 1.50560822925, 
			 "electric_quadrupole_moment_norm": 11.5348363894, 
			 "total_energy": -820.986809731, 
			 "HOMO_LUMO_gap": 0.20331, 
			 "cosmo_polarized_energy": -8.08, 
			 "cosmo_cavitation_energy": 28.75, 
			 "cosmo_dispersion_energy": -21.2, 
			 "cosmo_repulsion_energy": 1.69, 
			 "cosmo_total_nonelectrostatic_energy": 9.24, 
			 "SMD_solvation_energy": 3.2 
		},
		"coords": [
			{
				"x": 2.5702070409,
				"y": -3.5314202882,
				"z": 0.4978347568,
				"element": "C" 
			},
			{
				"x": 1.3233489187,
				"y": -2.6902976589,
				"z": 0.7909733461,
				"element": "C" 
			},
			{
				"x": 1.3788067008,
				"y": -1.2466748781,
				"z": 0.2325367621,
				"element": "C" 
			},
			{
				"x": 2.4746285186,
				"y": -0.4005834159,
				"z": 0.8924704062,
				"element": "C" 
			},
			{
				"x": 0.0116052187,
				"y": -0.6050166562,
				"z": 0.3260927199,
				"element": "C" 
			},
			{
				"x": -0.3298392011,
				"y": 0.4897285866,
				"z": 1.0617862169,
				"element": "C" 
			},
			{
				"x": -2.0341100804,
				"y": 0.8520457258,
				"z": 0.8710454229,
				"element": "S" 
			},
			{
				"x": -2.1404592937,
				"y": -0.5382064068,
				"z": -0.2266110535,
				"element": "C" 
			},
			{
				"x": -3.3394903217,
				"y": -0.9059317403,
				"z": -0.7791549044,
				"element": "N" 
			},
			{
				"x": -3.3579152513,
				"y": -1.9213132406,
				"z": -1.8232639051,
				"element": "C" 
			},
			{
				"x": -1.0207826221,
				"y": -1.1780089305,
				"z": -0.4060856077,
				"element": "N" 
			},
			{
				"x": 2.4398875304,
				"y": -4.5566789989,
				"z": 0.8598219168,
				"element": "H" 
			},
			{
				"x": 2.7667339529,
				"y": -3.584091317,
				"z": -0.5795431345,
				"element": "H" 
			},
			{
				"x": 3.4668036222,
				"y": -3.1280618331,
				"z": 0.9795604979,
				"element": "H" 
			},
			{
				"x": 0.4446968987,
				"y": -3.1813739455,
				"z": 0.3599487313,
				"element": "H" 
			},
			{
				"x": 1.1514996116,
				"y": -2.640808623,
				"z": 1.8749059267,
				"element": "H" 
			},
			{
				"x": 1.6052553851,
				"y": -1.3273509044,
				"z": -0.841453405,
				"element": "H" 
			},
			{
				"x": 2.3153856779,
				"y": -0.3218775132,
				"z": 1.9744087715,
				"element": "H" 
			},
			{
				"x": 3.4613984168,
				"y": -0.8439888706,
				"z": 0.7356368656,
				"element": "H" 
			},
			{
				"x": 2.4972541868,
				"y": 0.6125582432,
				"z": 0.4787002238,
				"element": "H" 
			},
			{
				"x": 0.2897262525,
				"y": 1.1101330278,
				"z": 1.6907754633,
				"element": "H" 
			},
			{
				"x": -4.0328502396,
				"y": -0.1762227313,
				"z": -0.852413347,
				"element": "H" 
			},
			{
				"x": -2.8719336444,
				"y": -2.8259038118,
				"z": -1.4530076644,
				"element": "H" 
			},
			{
				"x": -2.8314201088,
				"y": -1.6055315113,
				"z": -2.734306729,
				"element": "H" 
			},
			{
				"x": -4.3975371696,
				"y": -2.1507223077,
				"z": -2.0678582773,
				"element": "H" 
			}
		],
		 "valence_orbital": [ 
			{
				"type": "occ",
				"energy": -0.31565,
				"method": "rhf"
			},
			{
				"type": "occ",
				"energy": -0.29114,
				"method": "rhf"
			},
			{
				"type": "occ",
				"energy": -0.26228,
				"method": "rhf"
			},
			{
				"type": "occ",
				"energy": -0.25984,
				"method": "rhf"
			},
			{
				"type": "occ",
				"energy": -0.19607,
				"method": "rhf"
			},
			{
				"type": "unocc",
				"energy": 0.00724,
				"method": "rhf"
			},
			{
				"type": "unocc",
				"energy": 0.01692,
				"method": "rhf"
			},
			{
				"type": "unocc",
				"energy": 0.07011,
				"method": "rhf"
			},
			{
				"type": "unocc",
				"energy": 0.09035,
				"method": "rhf"
			},
			{
				"type": "unocc",
				"energy": 0.09203,
				"method": "rhf"
			}
		],
		"cosmo_sigma_profile": { 
			"-0.025": 0.0,
			"-0.024": 0.0,
			"-0.023": 0.0,
			"-0.022": 0.0,
			"-0.021": 0.0,
			"-0.02": 0.0,
			"-0.019": 0.0,
			"-0.018": 0.0,
			"-0.017": 0.0,
			"-0.016": 0.0,
			"-0.015": 0.147511111142,
			"-0.014": 1.41695768306,
			"-0.013": 1.49522066431,
			"-0.012": 1.08652200988,
			"-0.011": 1.11338096083,
			"-0.01": 1.43190364259,
			"-0.009": 1.47733242654,
			"-0.008": 1.33861739462,
			"-0.007": 2.44639943665,
			"-0.006": 4.79114914707,
			"-0.005": 4.73799058118,
			"-0.004": 7.98197236576,
			"-0.003": 18.3137138613,
			"-0.002": 28.9365232053,
			"-0.001": 28.2341346724,
			"0.0": 26.5931799718,
			"0.001": 26.5653871791,
			"0.002": 15.6463189157,
			"0.003": 11.7352419058,
			"0.004": 10.8143827031,
			"0.005": 12.328145472,
			"0.006": 6.62601829006,
			"0.007": 3.04724551297,
			"0.008": 2.59702406861,
			"0.009": 1.85013381519,
			"0.01": 1.14420663644,
			"0.011": 1.13797698248,
			"0.012": 0.577038960105,
			"0.013": 0.625586739183,
			"0.014": 0.536719423015,
			"0.015": 0.261102640882,
			"0.016": 0.0,
			"0.017": 0.0,
			"0.018": 0.0,
			"0.019": 0.0,
			"0.02": 0.0,
			"0.021": 0.0,
			"0.022": 0.0,
			"0.023": 0.0,
			"0.024": 0.0,
			"0.025": 0.0
		}
	}
}
