{
	 "smiles": "CCCCCCCCCCCCN(C)C", 
	 "Tm": 255.65, 
	 "num_atms": 46, 
	 "gaussian": { 
		 "optdone": 1, 
		 "sigma_profile": "yes", 
		 "theory": "DFT", 
		 "functional": "B3LYP", 
		 "basiset": "6-31G**", 
		 "properties": { 
			 "R2extent": 8157.8541, 
			 "electric_dipole_moment_norm": 0.523856955666, 
			 "electric_quadrupole_moment_norm": 3.74326975517, 
			 "total_energy": -606.949841029, 
			 "HOMO_LUMO_gap": 0.28594, 
			 "cosmo_polarized_energy": -3.0, 
			 "cosmo_cavitation_energy": 44.62, 
			 "cosmo_dispersion_energy": -30.37, 
			 "cosmo_repulsion_energy": 2.49, 
			 "cosmo_total_nonelectrostatic_energy": 16.74, 
			 "SMD_solvation_energy": 3.87 
		},
		"coords": [
			{
				"x": -0.8364799444,
				"y": 1.6330060019,
				"z": -4.4504412805,
				"element": "C" 
			},
			{
				"x": -2.081531583,
				"y": 0.7696529721,
				"z": -4.6878352344,
				"element": "C" 
			},
			{
				"x": -2.5467812507,
				"y": -0.0286865834,
				"z": -3.4581986872,
				"element": "C" 
			},
			{
				"x": -3.0502518156,
				"y": 0.8368492345,
				"z": -2.2933226856,
				"element": "C" 
			},
			{
				"x": -3.661200594,
				"y": 0.0388179886,
				"z": -1.1271739126,
				"element": "C" 
			},
			{
				"x": -2.7069390964,
				"y": -0.9166540366,
				"z": -0.3885966868,
				"element": "C" 
			},
			{
				"x": -1.5291869633,
				"y": -0.2294739133,
				"z": 0.3169226416,
				"element": "C" 
			},
			{
				"x": -0.6639808386,
				"y": -1.2078994055,
				"z": 1.1248554386,
				"element": "C" 
			},
			{
				"x": 0.4906768195,
				"y": -0.5570014512,
				"z": 1.9050321533,
				"element": "C" 
			},
			{
				"x": 1.5893063602,
				"y": 0.0540989631,
				"z": 1.0203292712,
				"element": "C" 
			},
			{
				"x": 2.8276284239,
				"y": 0.5525350808,
				"z": 1.785814519,
				"element": "C" 
			},
			{
				"x": 2.5521025265,
				"y": 1.7678239209,
				"z": 2.6802167066,
				"element": "C" 
			},
			{
				"x": 3.7139706629,
				"y": 2.196553723,
				"z": 3.4618411361,
				"element": "N" 
			},
			{
				"x": 3.3252807814,
				"y": 3.1049736849,
				"z": 4.532448271,
				"element": "C" 
			},
			{
				"x": 4.7626273973,
				"y": 2.790117367,
				"z": 2.6423278024,
				"element": "C" 
			},
			{
				"x": 0.0054743121,
				"y": 1.0227397897,
				"z": -4.1025502277,
				"element": "H" 
			},
			{
				"x": -1.0143429394,
				"y": 2.4094462185,
				"z": -3.6993827768,
				"element": "H" 
			},
			{
				"x": -0.5230431036,
				"y": 2.1348504024,
				"z": -5.3719187075,
				"element": "H" 
			},
			{
				"x": -1.8752816938,
				"y": 0.0667480997,
				"z": -5.5052623118,
				"element": "H" 
			},
			{
				"x": -2.906028871,
				"y": 1.4066024535,
				"z": -5.0371288812,
				"element": "H" 
			},
			{
				"x": -1.7215936917,
				"y": -0.6699718719,
				"z": -3.1194918644,
				"element": "H" 
			},
			{
				"x": -3.3534782702,
				"y": -0.7096605346,
				"z": -3.7637934665,
				"element": "H" 
			},
			{
				"x": -2.2371253073,
				"y": 1.4708574937,
				"z": -1.9191981694,
				"element": "H" 
			},
			{
				"x": -3.8150975127,
				"y": 1.5274320856,
				"z": -2.67536099,
				"element": "H" 
			},
			{
				"x": -4.0805219674,
				"y": 0.7471051025,
				"z": -0.3993309924,
				"element": "H" 
			},
			{
				"x": -4.5125269138,
				"y": -0.5422426767,
				"z": -1.5078892795,
				"element": "H" 
			},
			{
				"x": -3.2886548335,
				"y": -1.4736572326,
				"z": 0.3587015888,
				"element": "H" 
			},
			{
				"x": -2.3201605235,
				"y": -1.6720335531,
				"z": -1.0857528662,
				"element": "H" 
			},
			{
				"x": -1.9155197215,
				"y": 0.5505677538,
				"z": 0.9897692083,
				"element": "H" 
			},
			{
				"x": -0.907068752,
				"y": 0.2885332628,
				"z": -0.4230730905,
				"element": "H" 
			},
			{
				"x": -0.2566332743,
				"y": -1.9743062597,
				"z": 0.4494481825,
				"element": "H" 
			},
			{
				"x": -1.3096262529,
				"y": -1.7439499366,
				"z": 1.8338708946,
				"element": "H" 
			},
			{
				"x": 0.077071559,
				"y": 0.20725379,
				"z": 2.5766507502,
				"element": "H" 
			},
			{
				"x": 0.9485167228,
				"y": -1.3156026821,
				"z": 2.5547440294,
				"element": "H" 
			},
			{
				"x": 1.9126412727,
				"y": -0.7047834959,
				"z": 0.294832831,
				"element": "H" 
			},
			{
				"x": 1.1773826071,
				"y": 0.8813938916,
				"z": 0.4270790275,
				"element": "H" 
			},
			{
				"x": 3.6056719947,
				"y": 0.8006753015,
				"z": 1.0543761987,
				"element": "H" 
			},
			{
				"x": 3.2335898596,
				"y": -0.2534212839,
				"z": 2.4104288966,
				"element": "H" 
			},
			{
				"x": 2.1499500449,
				"y": 2.5970719885,
				"z": 2.0599944159,
				"element": "H" 
			},
			{
				"x": 1.7638269535,
				"y": 1.5099468169,
				"z": 3.3961149973,
				"element": "H" 
			},
			{
				"x": 4.2007246955,
				"y": 3.3560516291,
				"z": 5.1405805238,
				"element": "H" 
			},
			{
				"x": 2.8849793416,
				"y": 4.0543407844,
				"z": 4.167630021,
				"element": "H" 
			},
			{
				"x": 2.5897993565,
				"y": 2.6213848176,
				"z": 5.1835267646,
				"element": "H" 
			},
			{
				"x": 5.6119325659,
				"y": 3.0627991714,
				"z": 3.2770501668,
				"element": "H" 
			},
			{
				"x": 5.1241020873,
				"y": 2.0755120209,
				"z": 1.8988056152,
				"element": "H" 
			},
			{
				"x": 4.43179937,
				"y": 3.7027031062,
				"z": 2.1069100586,
				"element": "H" 
			}
		],
		 "valence_orbital": [ 
			{
				"type": "occ",
				"energy": -0.30649,
				"method": "rhf"
			},
			{
				"type": "occ",
				"energy": -0.30192,
				"method": "rhf"
			},
			{
				"type": "occ",
				"energy": -0.30139,
				"method": "rhf"
			},
			{
				"type": "occ",
				"energy": -0.29771,
				"method": "rhf"
			},
			{
				"type": "occ",
				"energy": -0.20584,
				"method": "rhf"
			},
			{
				"type": "unocc",
				"energy": 0.0801,
				"method": "rhf"
			},
			{
				"type": "unocc",
				"energy": 0.08768,
				"method": "rhf"
			},
			{
				"type": "unocc",
				"energy": 0.10004,
				"method": "rhf"
			},
			{
				"type": "unocc",
				"energy": 0.10349,
				"method": "rhf"
			},
			{
				"type": "unocc",
				"energy": 0.11093,
				"method": "rhf"
			}
		],
		"cosmo_sigma_profile": { 
			"-0.025": 0.0,
			"-0.024": 0.0,
			"-0.023": 0.0,
			"-0.022": 0.0,
			"-0.021": 0.0,
			"-0.02": 0.0,
			"-0.019": 0.0,
			"-0.018": 0.0,
			"-0.017": 0.0,
			"-0.016": 0.0,
			"-0.015": 0.0,
			"-0.014": 0.0,
			"-0.013": 0.0,
			"-0.012": 0.0,
			"-0.011": 0.0,
			"-0.01": 0.0,
			"-0.009": 0.0,
			"-0.008": 0.0,
			"-0.007": 0.0,
			"-0.006": 0.0,
			"-0.005": 0.0,
			"-0.004": 4.20533697999,
			"-0.003": 14.8240748822,
			"-0.002": 39.5531216086,
			"-0.001": 79.7163646634,
			"0.0": 95.6887315985,
			"0.001": 69.3732365055,
			"0.002": 24.632247708,
			"0.003": 2.40317247955,
			"0.004": 1.28801416734,
			"0.005": 1.12159450805,
			"0.006": 1.01131301416,
			"0.007": 0.928925368259,
			"0.008": 0.835826649804,
			"0.009": 0.723750004849,
			"0.01": 0.812669784425,
			"0.011": 0.678441831429,
			"0.012": 0.475473966328,
			"0.013": 0.675260403557,
			"0.014": 0.468126315163,
			"0.015": 0.47142184374,
			"0.016": 0.390629057599,
			"0.017": 0.325316505511,
			"0.018": 0.0544659371277,
			"0.019": 0.0,
			"0.02": 0.0,
			"0.021": 0.0,
			"0.022": 0.0,
			"0.023": 0.0,
			"0.024": 0.0,
			"0.025": 0.0
		}
	}
}
