{
	 "smiles": "COC1=CC(=CC(OC)=C1OC)C(=O)NC1=CC2=NN(N=C2C=C1)C1CCCCC1", 
	 "Tm": 403.15, 
	 "num_atms": 56, 
	 "gaussian": { 
		 "optdone": 1, 
		 "sigma_profile": "yes", 
		 "theory": "DFT", 
		 "functional": "B3LYP", 
		 "basiset": "6-31G**", 
		 "properties": { 
			 "R2extent": 26307.7568, 
			 "electric_dipole_moment_norm": 1.93542804826, 
			 "electric_quadrupole_moment_norm": 31.818325147, 
			 "total_energy": -1373.86782316, 
			 "HOMO_LUMO_gap": 0.16, 
			 "cosmo_polarized_energy": -18.95, 
			 "cosmo_cavitation_energy": 58.28, 
			 "cosmo_dispersion_energy": -41.55, 
			 "cosmo_repulsion_energy": 3.12, 
			 "cosmo_total_nonelectrostatic_energy": 19.84, 
			 "SMD_solvation_energy": 9.36 
		},
		"coords": [
			{
				"x": 7.3920662919,
				"y": 2.3336030557,
				"z": 0.9024850867,
				"element": "C" 
			},
			{
				"x": 7.3747446113,
				"y": 0.956744906,
				"z": 1.2575174767,
				"element": "O" 
			},
			{
				"x": 6.2185687714,
				"y": 0.2618548003,
				"z": 1.0638889101,
				"element": "C" 
			},
			{
				"x": 5.0350315556,
				"y": 0.8142805892,
				"z": 0.576979163,
				"element": "C" 
			},
			{
				"x": 3.8926808024,
				"y": 0.0156709375,
				"z": 0.4263158789,
				"element": "C" 
			},
			{
				"x": 3.9505525984,
				"y": -1.3471834609,
				"z": 0.7286546443,
				"element": "C" 
			},
			{
				"x": 5.1336885865,
				"y": -1.9078191737,
				"z": 1.2213991191,
				"element": "C" 
			},
			{
				"x": 5.1246837776,
				"y": -3.2357489578,
				"z": 1.5628054283,
				"element": "O" 
			},
			{
				"x": 5.992072102,
				"y": -4.0895294355,
				"z": 0.8065049448,
				"element": "C" 
			},
			{
				"x": 6.2720586648,
				"y": -1.1094718908,
				"z": 1.4049358572,
				"element": "C" 
			},
			{
				"x": 7.4332871196,
				"y": -1.678027335,
				"z": 1.8605138276,
				"element": "O" 
			},
			{
				"x": 7.7869414774,
				"y": -1.3467436385,
				"z": 3.2088528922,
				"element": "C" 
			},
			{
				"x": 2.6647737066,
				"y": 0.7039319819,
				"z": -0.1041413172,
				"element": "C" 
			},
			{
				"x": 2.745650378,
				"y": 1.7589614611,
				"z": -0.7271188525,
				"element": "O" 
			},
			{
				"x": 1.476764565,
				"y": 0.0689224856,
				"z": 0.1881515148,
				"element": "N" 
			},
			{
				"x": 0.1555500113,
				"y": 0.4163512218,
				"z": -0.165907904,
				"element": "C" 
			},
			{
				"x": -0.8654989512,
				"y": -0.3678753476,
				"z": 0.3502099479,
				"element": "C" 
			},
			{
				"x": -2.1876073959,
				"y": -0.0353568228,
				"z": -0.0059443811,
				"element": "C" 
			},
			{
				"x": -3.3622805889,
				"y": -0.6123452998,
				"z": 0.3415409125,
				"element": "N" 
			},
			{
				"x": -4.2579462291,
				"y": 0.134082629,
				"z": -0.304333012,
				"element": "N" 
			},
			{
				"x": -3.8063400238,
				"y": 1.1451661791,
				"z": -1.0351521578,
				"element": "N" 
			},
			{
				"x": -2.4656562355,
				"y": 1.0636167757,
				"z": -0.8673095771,
				"element": "C" 
			},
			{
				"x": -1.4137132691,
				"y": 1.8504368807,
				"z": -1.3862898062,
				"element": "C" 
			},
			{
				"x": -0.1234288996,
				"y": 1.5248310305,
				"z": -1.0347434693,
				"element": "C" 
			},
			{
				"x": -5.696828279,
				"y": -0.1250115748,
				"z": -0.1566685459,
				"element": "C" 
			},
			{
				"x": -6.3847758865,
				"y": 1.0031925636,
				"z": 0.6263791224,
				"element": "C" 
			},
			{
				"x": -7.844283742,
				"y": 0.6127452797,
				"z": 0.960861554,
				"element": "C" 
			},
			{
				"x": -8.4811958374,
				"y": -0.2906628381,
				"z": -0.123730028,
				"element": "C" 
			},
			{
				"x": -7.8739512026,
				"y": -0.0058207313,
				"z": -1.503839371,
				"element": "C" 
			},
			{
				"x": -6.3647687981,
				"y": -0.3411523259,
				"z": -1.5358337458,
				"element": "C" 
			},
			{
				"x": 8.4025060079,
				"y": 2.684113415,
				"z": 1.1170818562,
				"element": "H" 
			},
			{
				"x": 7.1763616942,
				"y": 2.4754805861,
				"z": -0.1632346919,
				"element": "H" 
			},
			{
				"x": 6.6725062866,
				"y": 2.9126248458,
				"z": 1.494481718,
				"element": "H" 
			},
			{
				"x": 4.9605958996,
				"y": 1.8568992674,
				"z": 0.2972856733,
				"element": "H" 
			},
			{
				"x": 3.1139724734,
				"y": -2.0197289479,
				"z": 0.5699237683,
				"element": "H" 
			},
			{
				"x": 7.0397187894,
				"y": -3.8052925903,
				"z": 0.9316215902,
				"element": "H" 
			},
			{
				"x": 5.8324154307,
				"y": -5.0980735727,
				"z": 1.1932344032,
				"element": "H" 
			},
			{
				"x": 5.7271232731,
				"y": -4.0657939275,
				"z": -0.2582640132,
				"element": "H" 
			},
			{
				"x": 7.0034564766,
				"y": -1.6666011216,
				"z": 3.9061473107,
				"element": "H" 
			},
			{
				"x": 8.7077573338,
				"y": -1.8925445198,
				"z": 3.4234890166,
				"element": "H" 
			},
			{
				"x": 7.9652269011,
				"y": -0.2727484153,
				"z": 3.3165644933,
				"element": "H" 
			},
			{
				"x": 1.5478955376,
				"y": -0.7187133415,
				"z": 0.8153162573,
				"element": "H" 
			},
			{
				"x": -0.6632029882,
				"y": -1.2097222116,
				"z": 1.0060689851,
				"element": "H" 
			},
			{
				"x": -1.6169051072,
				"y": 2.6897391717,
				"z": -2.0428776609,
				"element": "H" 
			},
			{
				"x": 0.7132629593,
				"y": 2.1030784651,
				"z": -1.3989383046,
				"element": "H" 
			},
			{
				"x": -5.7296949046,
				"y": -1.0436759306,
				"z": 0.4339796977,
				"element": "H" 
			},
			{
				"x": -6.3535951142,
				"y": 1.9124440768,
				"z": 0.0165820149,
				"element": "H" 
			},
			{
				"x": -5.8228312547,
				"y": 1.2163407372,
				"z": 1.5412183619,
				"element": "H" 
			},
			{
				"x": -8.4334408934,
				"y": 1.5294536842,
				"z": 1.0758960592,
				"element": "H" 
			},
			{
				"x": -7.8792305137,
				"y": 0.101338966,
				"z": 1.9296111824,
				"element": "H" 
			},
			{
				"x": -9.5671305928,
				"y": -0.1488456885,
				"z": -0.1414890341,
				"element": "H" 
			},
			{
				"x": -8.3166466267,
				"y": -1.3474039435,
				"z": 0.1256154906,
				"element": "H" 
			},
			{
				"x": -8.3934107266,
				"y": -0.5747294112,
				"z": -2.2822661511,
				"element": "H" 
			},
			{
				"x": -8.0236935223,
				"y": 1.0535636005,
				"z": -1.7475069429,
				"element": "H" 
			},
			{
				"x": -5.8559133837,
				"y": 0.2900938143,
				"z": -2.2692664531,
				"element": "H" 
			},
			{
				"x": -6.2093431166,
				"y": -1.3816409533,
				"z": -1.8424587394,
				"element": "H" 
			}
		],
		 "valence_orbital": [ 
			{
				"type": "occ",
				"energy": -0.25318,
				"method": "rhf"
			},
			{
				"type": "occ",
				"energy": -0.23421,
				"method": "rhf"
			},
			{
				"type": "occ",
				"energy": -0.23204,
				"method": "rhf"
			},
			{
				"type": "occ",
				"energy": -0.22622,
				"method": "rhf"
			},
			{
				"type": "occ",
				"energy": -0.20748,
				"method": "rhf"
			},
			{
				"type": "unocc",
				"energy": -0.04748,
				"method": "rhf"
			},
			{
				"type": "unocc",
				"energy": -0.03044,
				"method": "rhf"
			},
			{
				"type": "unocc",
				"energy": 0.00373,
				"method": "rhf"
			},
			{
				"type": "unocc",
				"energy": 0.02888,
				"method": "rhf"
			},
			{
				"type": "unocc",
				"energy": 0.03793,
				"method": "rhf"
			}
		],
		"cosmo_sigma_profile": { 
			"-0.025": 0.0,
			"-0.024": 0.0,
			"-0.023": 0.0,
			"-0.022": 0.0,
			"-0.021": 0.0,
			"-0.02": 0.0,
			"-0.019": 0.0,
			"-0.018": 0.0,
			"-0.017": 0.0,
			"-0.016": 0.0171202650255,
			"-0.015": 0.754712534061,
			"-0.014": 1.31517506854,
			"-0.013": 1.7219076952,
			"-0.012": 0.995197648281,
			"-0.011": 1.11864652452,
			"-0.01": 1.92410117745,
			"-0.009": 1.57012804485,
			"-0.008": 2.70171610504,
			"-0.007": 4.47516942389,
			"-0.006": 13.4234408215,
			"-0.005": 23.4450412759,
			"-0.004": 31.8225847544,
			"-0.003": 53.2604426567,
			"-0.002": 53.0647051543,
			"-0.001": 45.4189491312,
			"0.0": 42.5362190605,
			"0.001": 34.7911547913,
			"0.002": 31.8898433702,
			"0.003": 34.296644036,
			"0.004": 18.4181788146,
			"0.005": 11.2464556643,
			"0.006": 7.67594280993,
			"0.007": 6.98464601338,
			"0.008": 6.9042605986,
			"0.009": 6.17120443744,
			"0.01": 6.39019442719,
			"0.011": 7.08371431478,
			"0.012": 5.22710930291,
			"0.013": 3.190947228,
			"0.014": 0.983531268677,
			"0.015": 0.042626867262,
			"0.016": 0.0,
			"0.017": 0.0,
			"0.018": 0.0,
			"0.019": 0.0,
			"0.02": 0.0,
			"0.021": 0.0,
			"0.022": 0.0,
			"0.023": 0.0,
			"0.024": 0.0,
			"0.025": 0.0
		}
	}
}
