{
	 "smiles": "CCC1=NN=NN1C1=C(N)C=CC=C1", 
	 "Tm": 381.15, 
	 "num_atms": 25, 
	 "gaussian": { 
		 "optdone": 1, 
		 "sigma_profile": "yes", 
		 "theory": "DFT", 
		 "functional": "B3LYP", 
		 "basiset": "6-31G**", 
		 "properties": { 
			 "R2extent": 3753.6652, 
			 "electric_dipole_moment_norm": 5.02616706149, 
			 "electric_quadrupole_moment_norm": 21.5948713252, 
			 "total_energy": -623.305181036, 
			 "HOMO_LUMO_gap": 0.18439, 
			 "cosmo_polarized_energy": -14.79, 
			 "cosmo_cavitation_energy": 28.67, 
			 "cosmo_dispersion_energy": -20.65, 
			 "cosmo_repulsion_energy": 1.63, 
			 "cosmo_total_nonelectrostatic_energy": 9.65, 
			 "SMD_solvation_energy": 3.0 
		},
		"coords": [
			{
				"x": 1.7162679807,
				"y": -0.2406213609,
				"z": -1.4436298619,
				"element": "C" 
			},
			{
				"x": 0.2584181332,
				"y": 0.0334277046,
				"z": -1.0344657465,
				"element": "C" 
			},
			{
				"x": -0.5397119634,
				"y": -1.2202400095,
				"z": -0.8599536115,
				"element": "C" 
			},
			{
				"x": -0.9147515731,
				"y": -2.0269089239,
				"z": -1.8404760982,
				"element": "N" 
			},
			{
				"x": -1.639963269,
				"y": -3.0184480797,
				"z": -1.269973044,
				"element": "N" 
			},
			{
				"x": -1.7168896891,
				"y": -2.863506033,
				"z": 0.0099422465,
				"element": "N" 
			},
			{
				"x": -1.0206954346,
				"y": -1.7258940836,
				"z": 0.3066225894,
				"element": "N" 
			},
			{
				"x": -0.9186783186,
				"y": -1.2474777315,
				"z": 1.64973257,
				"element": "C" 
			},
			{
				"x": -2.097203375,
				"y": -1.0607714973,
				"z": 2.4105877032,
				"element": "C" 
			},
			{
				"x": -3.3483227263,
				"y": -1.3204097205,
				"z": 1.8808550656,
				"element": "N" 
			},
			{
				"x": -1.945295943,
				"y": -0.54235627,
				"z": 3.7108516344,
				"element": "C" 
			},
			{
				"x": -0.6912830649,
				"y": -0.2362141334,
				"z": 4.2272415791,
				"element": "C" 
			},
			{
				"x": 0.4646869101,
				"y": -0.4493879576,
				"z": 3.4713191769,
				"element": "C" 
			},
			{
				"x": 0.3401340535,
				"y": -0.9649453806,
				"z": 2.1840181843,
				"element": "C" 
			},
			{
				"x": 1.7501446177,
				"y": -0.8306515522,
				"z": -2.3629521114,
				"element": "H" 
			},
			{
				"x": 2.2450098481,
				"y": 0.7015103645,
				"z": -1.6149683211,
				"element": "H" 
			},
			{
				"x": 2.2542159101,
				"y": -0.7945708215,
				"z": -0.6675880647,
				"element": "H" 
			},
			{
				"x": 0.2195412114,
				"y": 0.6223261749,
				"z": -0.1139721287,
				"element": "H" 
			},
			{
				"x": -0.2312374948,
				"y": 0.6212318917,
				"z": -1.8179295317,
				"element": "H" 
			},
			{
				"x": -3.3802726091,
				"y": -2.0543984815,
				"z": 1.1840343266,
				"element": "H" 
			},
			{
				"x": -4.0969258298,
				"y": -1.3764134025,
				"z": 2.5562096917,
				"element": "H" 
			},
			{
				"x": -2.8356304152,
				"y": -0.3823472367,
				"z": 4.3133906855,
				"element": "H" 
			},
			{
				"x": -0.6159459063,
				"y": 0.1609872123,
				"z": 5.2353097214,
				"element": "H" 
			},
			{
				"x": 1.4452250343,
				"y": -0.2295498196,
				"z": 3.8792843472,
				"element": "H" 
			},
			{
				"x": 1.2205639131,
				"y": -1.1651708524,
				"z": 1.5817089978,
				"element": "H" 
			}
		],
		 "valence_orbital": [ 
			{
				"type": "occ",
				"energy": -0.29357,
				"method": "rhf"
			},
			{
				"type": "occ",
				"energy": -0.28664,
				"method": "rhf"
			},
			{
				"type": "occ",
				"energy": -0.28076,
				"method": "rhf"
			},
			{
				"type": "occ",
				"energy": -0.25951,
				"method": "rhf"
			},
			{
				"type": "occ",
				"energy": -0.21815,
				"method": "rhf"
			},
			{
				"type": "unocc",
				"energy": -0.03376,
				"method": "rhf"
			},
			{
				"type": "unocc",
				"energy": -0.00763,
				"method": "rhf"
			},
			{
				"type": "unocc",
				"energy": 0.00525,
				"method": "rhf"
			},
			{
				"type": "unocc",
				"energy": 0.0242,
				"method": "rhf"
			},
			{
				"type": "unocc",
				"energy": 0.07361,
				"method": "rhf"
			}
		],
		"cosmo_sigma_profile": { 
			"-0.025": 0.0,
			"-0.024": 0.0,
			"-0.023": 0.0,
			"-0.022": 0.0,
			"-0.021": 0.0,
			"-0.02": 0.0,
			"-0.019": 0.0,
			"-0.018": 0.0,
			"-0.017": 0.0,
			"-0.016": 0.0,
			"-0.015": 0.0,
			"-0.014": 0.0109139857641,
			"-0.013": 1.159882893,
			"-0.012": 1.51179621704,
			"-0.011": 1.63335892783,
			"-0.01": 1.95581583417,
			"-0.009": 3.07400379646,
			"-0.008": 3.05181732422,
			"-0.007": 5.79021469787,
			"-0.006": 10.6746409255,
			"-0.005": 16.2352489937,
			"-0.004": 22.9171872428,
			"-0.003": 22.1744037908,
			"-0.002": 17.7363691671,
			"-0.001": 15.746849565,
			"0.0": 13.5976025839,
			"0.001": 10.7784231876,
			"0.002": 10.5303339199,
			"0.003": 11.3441648537,
			"0.004": 11.7604963284,
			"0.005": 10.0756699853,
			"0.006": 4.77843182175,
			"0.007": 4.0899195636,
			"0.008": 5.34945055322,
			"0.009": 4.45729935218,
			"0.01": 5.16707297212,
			"0.011": 4.38046526172,
			"0.012": 2.5782219226,
			"0.013": 3.31518530252,
			"0.014": 1.50812049717,
			"0.015": 0.907948489564,
			"0.016": 0.0995063815661,
			"0.017": 0.0,
			"0.018": 0.0,
			"0.019": 0.0,
			"0.02": 0.0,
			"0.021": 0.0,
			"0.022": 0.0,
			"0.023": 0.0,
			"0.024": 0.0,
			"0.025": 0.0
		}
	}
}
