{
	 "smiles": "CCOC1=CC=C(OC(=O)C2=CC=CC=C2)C=C1", 
	 "Tm": 377.15, 
	 "num_atms": 32, 
	 "gaussian": { 
		 "optdone": 1, 
		 "sigma_profile": "yes", 
		 "theory": "DFT", 
		 "functional": "B3LYP", 
		 "basiset": "6-31G**", 
		 "properties": { 
			 "R2extent": 8244.6088, 
			 "electric_dipole_moment_norm": 1.18748722098, 
			 "electric_quadrupole_moment_norm": 20.8763332324, 
			 "total_energy": -805.712525765, 
			 "HOMO_LUMO_gap": 0.16342, 
			 "cosmo_polarized_energy": -9.96, 
			 "cosmo_cavitation_energy": 36.85, 
			 "cosmo_dispersion_energy": -26.8, 
			 "cosmo_repulsion_energy": 2.07, 
			 "cosmo_total_nonelectrostatic_energy": 12.11, 
			 "SMD_solvation_energy": 7.55 
		},
		"coords": [
			{
				"x": -5.1558357207,
				"y": 0.0239143915,
				"z": -3.5985634154,
				"element": "C" 
			},
			{
				"x": -4.2477751053,
				"y": 0.5238894852,
				"z": -2.488539885,
				"element": "C" 
			},
			{
				"x": -3.1290234867,
				"y": -0.3583295341,
				"z": -2.4180113038,
				"element": "O" 
			},
			{
				"x": -2.1636042279,
				"y": -0.1200472292,
				"z": -1.4831750713,
				"element": "C" 
			},
			{
				"x": -2.1783857466,
				"y": 0.9439770937,
				"z": -0.5731270299,
				"element": "C" 
			},
			{
				"x": -1.1370768094,
				"y": 1.0992187679,
				"z": 0.3466981398,
				"element": "C" 
			},
			{
				"x": -0.0875887413,
				"y": 0.1860758937,
				"z": 0.3569924149,
				"element": "C" 
			},
			{
				"x": 1.0298039717,
				"y": 0.307104844,
				"z": 1.1882666467,
				"element": "O" 
			},
			{
				"x": 0.8967847743,
				"y": 0.6003351419,
				"z": 2.5164939808,
				"element": "C" 
			},
			{
				"x": -0.1648799272,
				"y": 0.7965317713,
				"z": 3.0672152967,
				"element": "O" 
			},
			{
				"x": 2.2216722078,
				"y": 0.6498197865,
				"z": 3.1962579868,
				"element": "C" 
			},
			{
				"x": 2.2335622784,
				"y": 0.927071806,
				"z": 4.5707441368,
				"element": "C" 
			},
			{
				"x": 3.4413078605,
				"y": 0.986312311,
				"z": 5.2610128548,
				"element": "C" 
			},
			{
				"x": 4.644233572,
				"y": 0.7707049863,
				"z": 4.5828900491,
				"element": "C" 
			},
			{
				"x": 4.636547383,
				"y": 0.4949964831,
				"z": 3.2132874941,
				"element": "C" 
			},
			{
				"x": 3.4299210492,
				"y": 0.4332896348,
				"z": 2.5181632751,
				"element": "C" 
			},
			{
				"x": -0.0627380859,
				"y": -0.8763014607,
				"z": -0.5488099718,
				"element": "C" 
			},
			{
				"x": -1.0944593744,
				"y": -1.0286659899,
				"z": -1.4654936533,
				"element": "C" 
			},
			{
				"x": -5.4982377394,
				"y": -0.992947478,
				"z": -3.3873669958,
				"element": "H" 
			},
			{
				"x": -6.0315527573,
				"y": 0.6737688879,
				"z": -3.6898508036,
				"element": "H" 
			},
			{
				"x": -4.626738629,
				"y": 0.0172805542,
				"z": -4.5556073936,
				"element": "H" 
			},
			{
				"x": -4.7771695726,
				"y": 0.5353911533,
				"z": -1.5250772097,
				"element": "H" 
			},
			{
				"x": -3.9051868774,
				"y": 1.5480827422,
				"z": -2.6949162046,
				"element": "H" 
			},
			{
				"x": -2.9911067585,
				"y": 1.6599516882,
				"z": -0.5654694264,
				"element": "H" 
			},
			{
				"x": -1.1568319606,
				"y": 1.9178247622,
				"z": 1.0538300586,
				"element": "H" 
			},
			{
				"x": 1.2870024644,
				"y": 1.0915747445,
				"z": 5.0742660574,
				"element": "H" 
			},
			{
				"x": 3.4468962829,
				"y": 1.2005665517,
				"z": 6.3256324647,
				"element": "H" 
			},
			{
				"x": 5.5867084543,
				"y": 0.8174751236,
				"z": 5.1212070271,
				"element": "H" 
			},
			{
				"x": 5.5716084339,
				"y": 0.3278631597,
				"z": 2.68681057,
				"element": "H" 
			},
			{
				"x": 3.4161483509,
				"y": 0.2197810871,
				"z": 1.455852327,
				"element": "H" 
			},
			{
				"x": 0.7695360517,
				"y": -1.5721706232,
				"z": -0.5261514308,
				"element": "H" 
			},
			{
				"x": -1.0952416151,
				"y": -1.8465405365,
				"z": -2.1781609853,
				"element": "H" 
			}
		],
		 "valence_orbital": [ 
			{
				"type": "occ",
				"energy": -0.27561,
				"method": "rhf"
			},
			{
				"type": "occ",
				"energy": -0.26063,
				"method": "rhf"
			},
			{
				"type": "occ",
				"energy": -0.25852,
				"method": "rhf"
			},
			{
				"type": "occ",
				"energy": -0.2514,
				"method": "rhf"
			},
			{
				"type": "occ",
				"energy": -0.21159,
				"method": "rhf"
			},
			{
				"type": "unocc",
				"energy": -0.04817,
				"method": "rhf"
			},
			{
				"type": "unocc",
				"energy": -0.00796,
				"method": "rhf"
			},
			{
				"type": "unocc",
				"energy": -0.00266,
				"method": "rhf"
			},
			{
				"type": "unocc",
				"energy": 0.01673,
				"method": "rhf"
			},
			{
				"type": "unocc",
				"energy": 0.05972,
				"method": "rhf"
			}
		],
		"cosmo_sigma_profile": { 
			"-0.025": 0.0,
			"-0.024": 0.0,
			"-0.023": 0.0,
			"-0.022": 0.0,
			"-0.021": 0.0,
			"-0.02": 0.0,
			"-0.019": 0.0,
			"-0.018": 0.0,
			"-0.017": 0.0,
			"-0.016": 0.0,
			"-0.015": 0.0,
			"-0.014": 0.0,
			"-0.013": 0.0,
			"-0.012": 0.0,
			"-0.011": 0.0,
			"-0.01": 0.0,
			"-0.009": 0.0,
			"-0.008": 0.0,
			"-0.007": 3.49687999476,
			"-0.006": 15.995205844,
			"-0.005": 22.8301386661,
			"-0.004": 29.3356704557,
			"-0.003": 26.4217577447,
			"-0.002": 22.5475523999,
			"-0.001": 20.8418563758,
			"0.0": 23.467221426,
			"0.001": 23.620361172,
			"0.002": 20.9678371144,
			"0.003": 25.6617758696,
			"0.004": 27.0546576613,
			"0.005": 8.78182188683,
			"0.006": 3.78368893739,
			"0.007": 4.07396388277,
			"0.008": 2.84236624961,
			"0.009": 3.64303742861,
			"0.01": 3.56948623573,
			"0.011": 3.8633184923,
			"0.012": 1.59776434368,
			"0.013": 0.0,
			"0.014": 0.0,
			"0.015": 0.0,
			"0.016": 0.0,
			"0.017": 0.0,
			"0.018": 0.0,
			"0.019": 0.0,
			"0.02": 0.0,
			"0.021": 0.0,
			"0.022": 0.0,
			"0.023": 0.0,
			"0.024": 0.0,
			"0.025": 0.0
		}
	}
}
