{
	 "smiles": "CC1=CC(=O)C(=NN1C1=C(C=CC=C1)C(F)(F)F)C(O)=O", 
	 "Tm": 419.15, 
	 "num_atms": 30, 
	 "gaussian": { 
		 "optdone": 1, 
		 "sigma_profile": "yes", 
		 "theory": "DFT", 
		 "functional": "B3LYP", 
		 "basiset": "6-31G**", 
		 "properties": { 
			 "R2extent": 6283.776, 
			 "electric_dipole_moment_norm": 7.31628129995, 
			 "electric_quadrupole_moment_norm": 11.0308964219, 
			 "total_energy": -1135.47567108, 
			 "HOMO_LUMO_gap": 0.1709, 
			 "cosmo_polarized_energy": -22.9, 
			 "cosmo_cavitation_energy": 36.56, 
			 "cosmo_dispersion_energy": -24.69, 
			 "cosmo_repulsion_energy": 1.85, 
			 "cosmo_total_nonelectrostatic_energy": 13.72, 
			 "SMD_solvation_energy": 9.02 
		},
		"coords": [
			{
				"x": -1.0140815288,
				"y": -0.0801236786,
				"z": -1.6374799458,
				"element": "C" 
			},
			{
				"x": 0.2690650157,
				"y": 0.5482560843,
				"z": -1.1697214354,
				"element": "C" 
			},
			{
				"x": 1.1343932183,
				"y": 1.190426395,
				"z": -2.0036400999,
				"element": "C" 
			},
			{
				"x": 2.3567615299,
				"y": 1.8097283737,
				"z": -1.5228651633,
				"element": "C" 
			},
			{
				"x": 3.1381843395,
				"y": 2.4537460056,
				"z": -2.2207091244,
				"element": "O" 
			},
			{
				"x": 2.5398363089,
				"y": 1.612449189,
				"z": -0.0621820454,
				"element": "C" 
			},
			{
				"x": 1.6900310097,
				"y": 1.0122310914,
				"z": 0.719153338,
				"element": "N" 
			},
			{
				"x": 0.5775468328,
				"y": 0.4752125672,
				"z": 0.1805892132,
				"element": "N" 
			},
			{
				"x": -0.2990346703,
				"y": -0.1282062671,
				"z": 1.1568674513,
				"element": "C" 
			},
			{
				"x": -0.1536920053,
				"y": -1.4730445354,
				"z": 1.5346903329,
				"element": "C" 
			},
			{
				"x": -1.0098149094,
				"y": -2.0024956697,
				"z": 2.5028800838,
				"element": "C" 
			},
			{
				"x": -1.9953832157,
				"y": -1.2081326188,
				"z": 3.0893319953,
				"element": "C" 
			},
			{
				"x": -2.1293744317,
				"y": 0.1276290195,
				"z": 2.7151647138,
				"element": "C" 
			},
			{
				"x": -1.2779426458,
				"y": 0.666509959,
				"z": 1.7498167918,
				"element": "C" 
			},
			{
				"x": 0.9129740818,
				"y": -2.3511084176,
				"z": 0.9207318539,
				"element": "C" 
			},
			{
				"x": 0.7596587955,
				"y": -2.4520427117,
				"z": -0.4245870266,
				"element": "F" 
			},
			{
				"x": 0.8665688673,
				"y": -3.6053831959,
				"z": 1.4143248961,
				"element": "F" 
			},
			{
				"x": 2.1509179879,
				"y": -1.8753950486,
				"z": 1.1411563782,
				"element": "F" 
			},
			{
				"x": 3.7351485724,
				"y": 2.1833750172,
				"z": 0.6564663354,
				"element": "C" 
			},
			{
				"x": 4.8863863433,
				"y": 1.8660609392,
				"z": 0.0374608784,
				"element": "O" 
			},
			{
				"x": 3.6740115657,
				"y": 2.832457876,
				"z": 1.676143943,
				"element": "O" 
			},
			{
				"x": -1.0288651457,
				"y": -1.1505796966,
				"z": -1.4175239287,
				"element": "H" 
			},
			{
				"x": -1.1098626007,
				"y": 0.0549886419,
				"z": -2.715836797,
				"element": "H" 
			},
			{
				"x": -1.8849752194,
				"y": 0.3727244799,
				"z": -1.1531878808,
				"element": "H" 
			},
			{
				"x": 0.9117524317,
				"y": 1.2635335016,
				"z": -3.062139654,
				"element": "H" 
			},
			{
				"x": -0.8969343525,
				"y": -3.0392578914,
				"z": 2.7959369867,
				"element": "H" 
			},
			{
				"x": -2.651929928,
				"y": -1.6343643517,
				"z": 3.8411334343,
				"element": "H" 
			},
			{
				"x": -2.8876364055,
				"y": 0.7535629488,
				"z": 3.1749231614,
				"element": "H" 
			},
			{
				"x": -1.3550001608,
				"y": 1.7086621329,
				"z": 1.4575671648,
				"element": "H" 
			},
			{
				"x": 5.5955903191,
				"y": 2.2926798612,
				"z": 0.5478341494,
				"element": "H" 
			}
		],
		 "valence_orbital": [ 
			{
				"type": "occ",
				"energy": -0.29432,
				"method": "rhf"
			},
			{
				"type": "occ",
				"energy": -0.29191,
				"method": "rhf"
			},
			{
				"type": "occ",
				"energy": -0.2729,
				"method": "rhf"
			},
			{
				"type": "occ",
				"energy": -0.2362,
				"method": "rhf"
			},
			{
				"type": "occ",
				"energy": -0.22951,
				"method": "rhf"
			},
			{
				"type": "unocc",
				"energy": -0.05861,
				"method": "rhf"
			},
			{
				"type": "unocc",
				"energy": -0.05217,
				"method": "rhf"
			},
			{
				"type": "unocc",
				"energy": -0.04231,
				"method": "rhf"
			},
			{
				"type": "unocc",
				"energy": -0.03322,
				"method": "rhf"
			},
			{
				"type": "unocc",
				"energy": 0.02794,
				"method": "rhf"
			}
		],
		"cosmo_sigma_profile": { 
			"-0.025": 0.0,
			"-0.024": 0.0,
			"-0.023": 0.0,
			"-0.022": 0.0,
			"-0.021": 0.0,
			"-0.02": 0.0,
			"-0.019": 0.556333781849,
			"-0.018": 1.06494232882,
			"-0.017": 0.844472092129,
			"-0.016": 0.867077522322,
			"-0.015": 0.644867306353,
			"-0.014": 0.667049238789,
			"-0.013": 0.460361188365,
			"-0.012": 1.12104504465,
			"-0.011": 0.960481803183,
			"-0.01": 0.399789654995,
			"-0.009": 0.770094301089,
			"-0.008": 7.51123765259,
			"-0.007": 15.8969951082,
			"-0.006": 16.1866784847,
			"-0.005": 15.4593120486,
			"-0.004": 17.8072484843,
			"-0.003": 23.3161033191,
			"-0.002": 21.4289738918,
			"-0.001": 18.851488436,
			"0.0": 20.6226682291,
			"0.001": 23.7168606683,
			"0.002": 34.2738730855,
			"0.003": 13.7037283301,
			"0.004": 3.8064155583,
			"0.005": 4.9407081958,
			"0.006": 3.49668012252,
			"0.007": 4.33574944065,
			"0.008": 5.02116347926,
			"0.009": 4.24875775884,
			"0.01": 6.11868059167,
			"0.011": 8.25142448771,
			"0.012": 4.85249427882,
			"0.013": 4.81148269468,
			"0.014": 5.07145187595,
			"0.015": 1.39876421292,
			"0.016": 0.0,
			"0.017": 0.0,
			"0.018": 0.0,
			"0.019": 0.0,
			"0.02": 0.0,
			"0.021": 0.0,
			"0.022": 0.0,
			"0.023": 0.0,
			"0.024": 0.0,
			"0.025": 0.0
		}
	}
}
