{
	 "smiles": "CC(=O)C1=CC=C(NC(=O)C2=CC=CC=C2)C(=C1)C(=O)C1=CC=CC=C1", 
	 "Tm": 450.0, 
	 "num_atms": 43, 
	 "gaussian": { 
		 "optdone": 1, 
		 "sigma_profile": "yes", 
		 "theory": "DFT", 
		 "functional": "B3LYP", 
		 "basiset": "6-31G**", 
		 "properties": { 
			 "R2extent": 10939.0876, 
			 "electric_dipole_moment_norm": 5.19646366195, 
			 "electric_quadrupole_moment_norm": 20.6994839228, 
			 "total_energy": -1129.03209737, 
			 "HOMO_LUMO_gap": 0.16728, 
			 "cosmo_polarized_energy": -24.24, 
			 "cosmo_cavitation_energy": 48.17, 
			 "cosmo_dispersion_energy": -33.0, 
			 "cosmo_repulsion_energy": 2.5, 
			 "cosmo_total_nonelectrostatic_energy": 17.67, 
			 "SMD_solvation_energy": 9.42 
		},
		"coords": [
			{
				"x": -1.311847946,
				"y": 1.3389927116,
				"z": -5.7061334625,
				"element": "C" 
			},
			{
				"x": -0.4485239196,
				"y": 0.5775542622,
				"z": -4.7131675033,
				"element": "C" 
			},
			{
				"x": 0.6029708775,
				"y": 0.0659622513,
				"z": -5.0687262997,
				"element": "O" 
			},
			{
				"x": -0.9103040872,
				"y": 0.4666583193,
				"z": -3.2940523907,
				"element": "C" 
			},
			{
				"x": -2.0973480914,
				"y": 1.0437812356,
				"z": -2.8248370563,
				"element": "C" 
			},
			{
				"x": -2.457226715,
				"y": 0.9171922314,
				"z": -1.4879628464,
				"element": "C" 
			},
			{
				"x": -1.6625008194,
				"y": 0.1901891724,
				"z": -0.5909564283,
				"element": "C" 
			},
			{
				"x": -2.0904432595,
				"y": 0.1076308092,
				"z": 0.7452311336,
				"element": "N" 
			},
			{
				"x": -1.273243444,
				"y": 0.231158658,
				"z": 1.8599108197,
				"element": "C" 
			},
			{
				"x": -0.0659912949,
				"y": 0.4088819382,
				"z": 1.7725061682,
				"element": "O" 
			},
			{
				"x": -1.9810077218,
				"y": 0.1626516713,
				"z": 3.1786959173,
				"element": "C" 
			},
			{
				"x": -1.3529555537,
				"y": 0.763119599,
				"z": 4.2786876147,
				"element": "C" 
			},
			{
				"x": -1.9570990018,
				"y": 0.7360027425,
				"z": 5.5328855685,
				"element": "C" 
			},
			{
				"x": -3.1868919053,
				"y": 0.0942591667,
				"z": 5.7042793631,
				"element": "C" 
			},
			{
				"x": -3.8068302104,
				"y": -0.5264282855,
				"z": 4.6181980233,
				"element": "C" 
			},
			{
				"x": -3.2077855979,
				"y": -0.4930017226,
				"z": 3.3588400753,
				"element": "C" 
			},
			{
				"x": -0.4770012433,
				"y": -0.4276408954,
				"z": -1.0537428532,
				"element": "C" 
			},
			{
				"x": -0.1185955172,
				"y": -0.2586973909,
				"z": -2.3908627917,
				"element": "C" 
			},
			{
				"x": 0.2809074725,
				"y": -1.4377319089,
				"z": -0.2213422543,
				"element": "C" 
			},
			{
				"x": -0.3411892931,
				"y": -2.3391168673,
				"z": 0.3234576575,
				"element": "O" 
			},
			{
				"x": 1.7727761957,
				"y": -1.3793463821,
				"z": -0.1715669573,
				"element": "C" 
			},
			{
				"x": 2.4923307134,
				"y": -0.2110013793,
				"z": -0.460597651,
				"element": "C" 
			},
			{
				"x": 3.8837904187,
				"y": -0.205245972,
				"z": -0.3714922804,
				"element": "C" 
			},
			{
				"x": 4.5657976319,
				"y": -1.3657714832,
				"z": -0.0001349618,
				"element": "C" 
			},
			{
				"x": 3.8536597565,
				"y": -2.5323898247,
				"z": 0.2959805239,
				"element": "C" 
			},
			{
				"x": 2.4644232137,
				"y": -2.5368642339,
				"z": 0.2180259918,
				"element": "C" 
			},
			{
				"x": -0.823726789,
				"y": 1.3158388788,
				"z": -6.6807178519,
				"element": "H" 
			},
			{
				"x": -2.3077743306,
				"y": 0.8897125916,
				"z": -5.78819698,
				"element": "H" 
			},
			{
				"x": -1.4473765588,
				"y": 2.3803412772,
				"z": -5.3932503681,
				"element": "H" 
			},
			{
				"x": -2.7391620846,
				"y": 1.6109474027,
				"z": -3.4909000311,
				"element": "H" 
			},
			{
				"x": -3.3589071023,
				"y": 1.4019902392,
				"z": -1.1223164626,
				"element": "H" 
			},
			{
				"x": -3.0787892455,
				"y": 0.2456545375,
				"z": 0.8980117267,
				"element": "H" 
			},
			{
				"x": -0.3918882368,
				"y": 1.2421900142,
				"z": 4.1254775975,
				"element": "H" 
			},
			{
				"x": -1.4687495344,
				"y": 1.2109022007,
				"z": 6.3786973273,
				"element": "H" 
			},
			{
				"x": -3.6556459725,
				"y": 0.0690531444,
				"z": 6.6837933818,
				"element": "H" 
			},
			{
				"x": -4.7505364401,
				"y": -1.0465856609,
				"z": 4.7529662418,
				"element": "H" 
			},
			{
				"x": -3.6772234141,
				"y": -1.0180181476,
				"z": 2.5316523612,
				"element": "H" 
			},
			{
				"x": 0.7843626101,
				"y": -0.7224335564,
				"z": -2.773991671,
				"element": "H" 
			},
			{
				"x": 1.9609738948,
				"y": 0.6950860653,
				"z": -0.7300975401,
				"element": "H" 
			},
			{
				"x": 4.4353838283,
				"y": 0.7046430715,
				"z": -0.5890027893,
				"element": "H" 
			},
			{
				"x": 5.6504959005,
				"y": -1.3611297879,
				"z": 0.0622068748,
				"element": "H" 
			},
			{
				"x": 4.3840513366,
				"y": -3.4340351056,
				"z": 0.5885589098,
				"element": "H" 
			},
			{
				"x": 1.88874148,
				"y": -3.4256555875,
				"z": 0.4541861532,
				"element": "H" 
			}
		],
		 "valence_orbital": [ 
			{
				"type": "occ",
				"energy": -0.25106,
				"method": "rhf"
			},
			{
				"type": "occ",
				"energy": -0.24797,
				"method": "rhf"
			},
			{
				"type": "occ",
				"energy": -0.24775,
				"method": "rhf"
			},
			{
				"type": "occ",
				"energy": -0.23882,
				"method": "rhf"
			},
			{
				"type": "occ",
				"energy": -0.23572,
				"method": "rhf"
			},
			{
				"type": "unocc",
				"energy": -0.06844,
				"method": "rhf"
			},
			{
				"type": "unocc",
				"energy": -0.04532,
				"method": "rhf"
			},
			{
				"type": "unocc",
				"energy": -0.03783,
				"method": "rhf"
			},
			{
				"type": "unocc",
				"energy": -0.01716,
				"method": "rhf"
			},
			{
				"type": "unocc",
				"energy": -0.01484,
				"method": "rhf"
			}
		],
		"cosmo_sigma_profile": { 
			"-0.025": 0.0,
			"-0.024": 0.0,
			"-0.023": 0.0,
			"-0.022": 0.0,
			"-0.021": 0.0,
			"-0.02": 0.0,
			"-0.019": 0.0,
			"-0.018": 0.0,
			"-0.017": 0.0,
			"-0.016": 0.189749900052,
			"-0.015": 1.19812223793,
			"-0.014": 0.980409440446,
			"-0.013": 1.54569568363,
			"-0.012": 1.52176930013,
			"-0.011": 2.05460797422,
			"-0.01": 1.33514159795,
			"-0.009": 1.52241421638,
			"-0.008": 2.96345863593,
			"-0.007": 10.9986506182,
			"-0.006": 27.4873472369,
			"-0.005": 31.0271579127,
			"-0.004": 31.4295084153,
			"-0.003": 23.5897644271,
			"-0.002": 24.9068852428,
			"-0.001": 26.7780030217,
			"0.0": 26.4434102271,
			"0.001": 24.5425064142,
			"0.002": 31.3364154826,
			"0.003": 25.8960164123,
			"0.004": 26.0696417121,
			"0.005": 9.57703610261,
			"0.006": 7.42672428099,
			"0.007": 6.01139291666,
			"0.008": 6.54735169299,
			"0.009": 6.20920255441,
			"0.01": 6.61331037286,
			"0.011": 7.45266155605,
			"0.012": 9.9221538591,
			"0.013": 2.60311202238,
			"0.014": 0.128068950401,
			"0.015": 0.0,
			"0.016": 0.0,
			"0.017": 0.0,
			"0.018": 0.0,
			"0.019": 0.0,
			"0.02": 0.0,
			"0.021": 0.0,
			"0.022": 0.0,
			"0.023": 0.0,
			"0.024": 0.0,
			"0.025": 0.0
		}
	}
}
