{
	 "smiles": "CCN(CC)C(=O)COC(=O)C1=CC=CC=C1OC(C)=O", 
	 "Tm": 349.65, 
	 "num_atms": 40, 
	 "gaussian": { 
		 "optdone": 1, 
		 "sigma_profile": "yes", 
		 "theory": "DFT", 
		 "functional": "B3LYP", 
		 "basiset": "6-31G**", 
		 "properties": { 
			 "R2extent": 7093.0474, 
			 "electric_dipole_moment_norm": 2.24387929711, 
			 "electric_quadrupole_moment_norm": 17.6231859316, 
			 "total_energy": -1013.95516586, 
			 "HOMO_LUMO_gap": 0.18211, 
			 "cosmo_polarized_energy": -14.99, 
			 "cosmo_cavitation_energy": 42.44, 
			 "cosmo_dispersion_energy": -27.42, 
			 "cosmo_repulsion_energy": 2.05, 
			 "cosmo_total_nonelectrostatic_energy": 17.07, 
			 "SMD_solvation_energy": 8.84 
		},
		"coords": [
			{
				"x": -1.4350855859,
				"y": 0.2967366688,
				"z": -0.7949171414,
				"element": "C" 
			},
			{
				"x": -1.9779114124,
				"y": -1.136348167,
				"z": -0.7598018155,
				"element": "C" 
			},
			{
				"x": -2.339703142,
				"y": -1.6019265961,
				"z": 0.5841061971,
				"element": "N" 
			},
			{
				"x": -3.4898997504,
				"y": -0.9581015002,
				"z": 1.2414233528,
				"element": "C" 
			},
			{
				"x": -3.1066062573,
				"y": 0.0274004088,
				"z": 2.3498032833,
				"element": "C" 
			},
			{
				"x": -1.6975531499,
				"y": -2.5771492322,
				"z": 1.2845946845,
				"element": "C" 
			},
			{
				"x": -2.0503558081,
				"y": -2.9161743043,
				"z": 2.4172673872,
				"element": "O" 
			},
			{
				"x": -0.4842990914,
				"y": -3.2762952651,
				"z": 0.6563737033,
				"element": "C" 
			},
			{
				"x": 0.6547879848,
				"y": -2.3928429495,
				"z": 0.743742473,
				"element": "O" 
			},
			{
				"x": 1.3796485401,
				"y": -2.1647357502,
				"z": -0.3731721642,
				"element": "C" 
			},
			{
				"x": 1.1078026751,
				"y": -2.6474460034,
				"z": -1.4573482437,
				"element": "O" 
			},
			{
				"x": 2.5390830761,
				"y": -1.2492827771,
				"z": -0.152695414,
				"element": "C" 
			},
			{
				"x": 3.2778983463,
				"y": -0.9172716248,
				"z": -1.3013933536,
				"element": "C" 
			},
			{
				"x": 4.3840539082,
				"y": -0.0785131875,
				"z": -1.2368912006,
				"element": "C" 
			},
			{
				"x": 4.7794873421,
				"y": 0.4469371891,
				"z": -0.004790224,
				"element": "C" 
			},
			{
				"x": 4.0651357808,
				"y": 0.1293048139,
				"z": 1.1480130011,
				"element": "C" 
			},
			{
				"x": 2.9541403229,
				"y": -0.7094077338,
				"z": 1.0803483392,
				"element": "C" 
			},
			{
				"x": 2.3552785772,
				"y": -1.0468128188,
				"z": 2.287747674,
				"element": "O" 
			},
			{
				"x": 1.2004607039,
				"y": -0.3952438748,
				"z": 2.6568059833,
				"element": "C" 
			},
			{
				"x": 0.6470083315,
				"y": -0.9873943292,
				"z": 3.9234687706,
				"element": "C" 
			},
			{
				"x": 0.7218619686,
				"y": 0.5107229375,
				"z": 2.0195135161,
				"element": "O" 
			},
			{
				"x": -1.1470103903,
				"y": 0.5526003404,
				"z": -1.8199936772,
				"element": "H" 
			},
			{
				"x": -0.5627500145,
				"y": 0.4054167017,
				"z": -0.1453012221,
				"element": "H" 
			},
			{
				"x": -2.1891319971,
				"y": 1.0211827808,
				"z": -0.4723662876,
				"element": "H" 
			},
			{
				"x": -1.2388949824,
				"y": -1.8124979176,
				"z": -1.1889221113,
				"element": "H" 
			},
			{
				"x": -2.8726651639,
				"y": -1.210347115,
				"z": -1.3924788388,
				"element": "H" 
			},
			{
				"x": -4.1212987358,
				"y": -1.7475627201,
				"z": 1.6598544443,
				"element": "H" 
			},
			{
				"x": -4.0603097304,
				"y": -0.4520588693,
				"z": 0.456329668,
				"element": "H" 
			},
			{
				"x": -4.0050634998,
				"y": 0.526925259,
				"z": 2.7283112843,
				"element": "H" 
			},
			{
				"x": -2.6382767079,
				"y": -0.5087799792,
				"z": 3.1770514407,
				"element": "H" 
			},
			{
				"x": -2.4083150361,
				"y": 0.7883214685,
				"z": 1.9920105434,
				"element": "H" 
			},
			{
				"x": -0.6255120391,
				"y": -3.5945114629,
				"z": -0.3769795252,
				"element": "H" 
			},
			{
				"x": -0.2721119855,
				"y": -4.1400379234,
				"z": 1.2873662215,
				"element": "H" 
			},
			{
				"x": 2.9523865995,
				"y": -1.3431473514,
				"z": -2.2438336897,
				"element": "H" 
			},
			{
				"x": 4.936282765,
				"y": 0.1621938128,
				"z": -2.1396749001,
				"element": "H" 
			},
			{
				"x": 5.6427367571,
				"y": 1.102405001,
				"z": 0.0615645326,
				"element": "H" 
			},
			{
				"x": 4.3574034034,
				"y": 0.5184978662,
				"z": 2.1173726924,
				"element": "H" 
			},
			{
				"x": 0.0906224411,
				"y": -0.2214279353,
				"z": 4.4650665005,
				"element": "H" 
			},
			{
				"x": 1.4378086474,
				"y": -1.4062473593,
				"z": 4.5477174546,
				"element": "H" 
			},
			{
				"x": -0.0483336908,
				"y": -1.7910805008,
				"z": 3.6539066611,
				"element": "H" 
			}
		],
		 "valence_orbital": [ 
			{
				"type": "occ",
				"energy": -0.28025,
				"method": "rhf"
			},
			{
				"type": "occ",
				"energy": -0.27026,
				"method": "rhf"
			},
			{
				"type": "occ",
				"energy": -0.25971,
				"method": "rhf"
			},
			{
				"type": "occ",
				"energy": -0.24889,
				"method": "rhf"
			},
			{
				"type": "occ",
				"energy": -0.23925,
				"method": "rhf"
			},
			{
				"type": "unocc",
				"energy": -0.05714,
				"method": "rhf"
			},
			{
				"type": "unocc",
				"energy": -0.01624,
				"method": "rhf"
			},
			{
				"type": "unocc",
				"energy": 0.00369,
				"method": "rhf"
			},
			{
				"type": "unocc",
				"energy": 0.01218,
				"method": "rhf"
			},
			{
				"type": "unocc",
				"energy": 0.04682,
				"method": "rhf"
			}
		],
		"cosmo_sigma_profile": { 
			"-0.025": 0.0,
			"-0.024": 0.0,
			"-0.023": 0.0,
			"-0.022": 0.0,
			"-0.021": 0.0,
			"-0.02": 0.0,
			"-0.019": 0.0,
			"-0.018": 0.0,
			"-0.017": 0.0,
			"-0.016": 0.0,
			"-0.015": 0.0338593216256,
			"-0.014": 0.0651285655307,
			"-0.013": 0.0446448527659,
			"-0.012": 0.00651234707774,
			"-0.011": 0.0739418052335,
			"-0.01": 0.154429200568,
			"-0.009": 0.0287911461683,
			"-0.008": 1.84762177653,
			"-0.007": 9.0532560248,
			"-0.006": 15.5325073172,
			"-0.005": 21.989628162,
			"-0.004": 28.5664616991,
			"-0.003": 32.4089582922,
			"-0.002": 35.2134666423,
			"-0.001": 31.3605908209,
			"0.0": 27.8557472335,
			"0.001": 30.6045102971,
			"0.002": 21.70849412,
			"0.003": 18.3981435641,
			"0.004": 10.170945178,
			"0.005": 8.40472117649,
			"0.006": 6.82386105965,
			"0.007": 6.23938096233,
			"0.008": 5.13530077539,
			"0.009": 4.28768434457,
			"0.01": 5.39316673149,
			"0.011": 6.96399532552,
			"0.012": 1.95487524146,
			"0.013": 2.5959827815,
			"0.014": 2.81090252097,
			"0.015": 0.236105721019,
			"0.016": 0.0,
			"0.017": 0.0,
			"0.018": 0.0,
			"0.019": 0.0,
			"0.02": 0.0,
			"0.021": 0.0,
			"0.022": 0.0,
			"0.023": 0.0,
			"0.024": 0.0,
			"0.025": 0.0
		}
	}
}
