{
	 "smiles": "COC1=NC2=C(C=CC=C2)C(=C1)C#N", 
	 "Tm": 407.15, 
	 "num_atms": 22, 
	 "gaussian": { 
		 "optdone": 1, 
		 "sigma_profile": "yes", 
		 "theory": "DFT", 
		 "functional": "B3LYP", 
		 "basiset": "6-31G**", 
		 "properties": { 
			 "R2extent": 3222.0767, 
			 "electric_dipole_moment_norm": 3.76745513842, 
			 "electric_quadrupole_moment_norm": 18.3617089945, 
			 "total_energy": -608.707158338, 
			 "HOMO_LUMO_gap": 0.15854, 
			 "cosmo_polarized_energy": -8.67, 
			 "cosmo_cavitation_energy": 27.48, 
			 "cosmo_dispersion_energy": -19.77, 
			 "cosmo_repulsion_energy": 1.54, 
			 "cosmo_total_nonelectrostatic_energy": 9.24, 
			 "SMD_solvation_energy": 5.71 
		},
		"coords": [
			{
				"x": 3.0521605596,
				"y": -0.2755355412,
				"z": -0.7793765671,
				"element": "C" 
			},
			{
				"x": 2.4048290338,
				"y": -1.1043875236,
				"z": 0.1929003389,
				"element": "O" 
			},
			{
				"x": 1.0679664935,
				"y": -0.9831171855,
				"z": 0.3044022949,
				"element": "C" 
			},
			{
				"x": 0.4092341705,
				"y": -0.1401797299,
				"z": -0.4508088905,
				"element": "N" 
			},
			{
				"x": -0.9478328245,
				"y": -0.055173059,
				"z": -0.2982914732,
				"element": "C" 
			},
			{
				"x": -1.6712375121,
				"y": -0.8455878394,
				"z": 0.6474059196,
				"element": "C" 
			},
			{
				"x": -3.0755180349,
				"y": -0.7053974438,
				"z": 0.7510589,
				"element": "C" 
			},
			{
				"x": -3.74452523,
				"y": 0.1901480649,
				"z": -0.0567423877,
				"element": "C" 
			},
			{
				"x": -3.0326636393,
				"y": 0.9743198042,
				"z": -0.9938313561,
				"element": "C" 
			},
			{
				"x": -1.6643122659,
				"y": 0.8558705346,
				"z": -1.1136604365,
				"element": "C" 
			},
			{
				"x": -0.8977140535,
				"y": -1.7526024895,
				"z": 1.4486711753,
				"element": "C" 
			},
			{
				"x": 0.4657384222,
				"y": -1.8270902983,
				"z": 1.2841879653,
				"element": "C" 
			},
			{
				"x": -1.5454488077,
				"y": -2.5838017187,
				"z": 2.4233575355,
				"element": "C" 
			},
			{
				"x": -2.0820026045,
				"y": -3.2518643876,
				"z": 3.2096090402,
				"element": "N" 
			},
			{
				"x": 4.1114489463,
				"y": -0.5236850371,
				"z": -0.7104114996,
				"element": "H" 
			},
			{
				"x": 2.6736952443,
				"y": -0.4834940197,
				"z": -1.7841298356,
				"element": "H" 
			},
			{
				"x": 2.8907712462,
				"y": 0.7835256314,
				"z": -0.559491494,
				"element": "H" 
			},
			{
				"x": -3.6151727777,
				"y": -1.3110889476,
				"z": 1.4730890606,
				"element": "H" 
			},
			{
				"x": -4.8218345159,
				"y": 0.2946816001,
				"z": 0.0258973671,
				"element": "H" 
			},
			{
				"x": -3.571838345,
				"y": 1.6757693675,
				"z": -1.6238445418,
				"element": "H" 
			},
			{
				"x": -1.0982400515,
				"y": 1.4472789658,
				"z": -1.825610941,
				"element": "H" 
			},
			{
				"x": 1.0816965461,
				"y": -2.4984887474,
				"z": 1.8696198258,
				"element": "H" 
			}
		],
		 "valence_orbital": [ 
			{
				"type": "occ",
				"energy": -0.31632,
				"method": "rhf"
			},
			{
				"type": "occ",
				"energy": -0.30658,
				"method": "rhf"
			},
			{
				"type": "occ",
				"energy": -0.28208,
				"method": "rhf"
			},
			{
				"type": "occ",
				"energy": -0.25423,
				"method": "rhf"
			},
			{
				"type": "occ",
				"energy": -0.23844,
				"method": "rhf"
			},
			{
				"type": "unocc",
				"energy": -0.0799,
				"method": "rhf"
			},
			{
				"type": "unocc",
				"energy": -0.02405,
				"method": "rhf"
			},
			{
				"type": "unocc",
				"energy": -0.0089,
				"method": "rhf"
			},
			{
				"type": "unocc",
				"energy": 0.02573,
				"method": "rhf"
			},
			{
				"type": "unocc",
				"energy": 0.06808,
				"method": "rhf"
			}
		],
		"cosmo_sigma_profile": { 
			"-0.025": 0.0,
			"-0.024": 0.0,
			"-0.023": 0.0,
			"-0.022": 0.0,
			"-0.021": 0.0,
			"-0.02": 0.0,
			"-0.019": 0.0,
			"-0.018": 0.0,
			"-0.017": 0.0,
			"-0.016": 0.0,
			"-0.015": 0.0,
			"-0.014": 0.0,
			"-0.013": 0.0,
			"-0.012": 0.0,
			"-0.011": 0.0,
			"-0.01": 0.151725759008,
			"-0.009": 1.79129956806,
			"-0.008": 1.79701163158,
			"-0.007": 4.16725334625,
			"-0.006": 12.4792481537,
			"-0.005": 15.7941345647,
			"-0.004": 17.068910075,
			"-0.003": 22.4345597869,
			"-0.002": 21.2737785417,
			"-0.001": 20.2485720293,
			"0.0": 14.3030486928,
			"0.001": 13.1868073864,
			"0.002": 15.1174969123,
			"0.003": 16.4331316891,
			"0.004": 11.2478856596,
			"0.005": 4.8658857707,
			"0.006": 5.32117205356,
			"0.007": 5.41438555122,
			"0.008": 5.65462600073,
			"0.009": 5.15070741181,
			"0.01": 3.76329665006,
			"0.011": 2.47358591265,
			"0.012": 1.82937391826,
			"0.013": 0.195605978605,
			"0.014": 0.0,
			"0.015": 0.0,
			"0.016": 0.0,
			"0.017": 0.0,
			"0.018": 0.0,
			"0.019": 0.0,
			"0.02": 0.0,
			"0.021": 0.0,
			"0.022": 0.0,
			"0.023": 0.0,
			"0.024": 0.0,
			"0.025": 0.0
		}
	}
}
