{
	 "smiles": "CC(=NNC1=CC(C(O)=O)=C(Cl)C=C1)C1=CC=C(Br)C=C1", 
	 "Tm": 454.15, 
	 "num_atms": 33, 
	 "gaussian": { 
		 "optdone": 1, 
		 "sigma_profile": "yes", 
		 "theory": "DFT", 
		 "functional": "B3LYP", 
		 "basiset": "6-31G**", 
		 "properties": { 
			 "R2extent": 15061.5952, 
			 "electric_dipole_moment_norm": 5.16209698088, 
			 "electric_quadrupole_moment_norm": 30.9681136836, 
			 "total_energy": -3870.35917335, 
			 "HOMO_LUMO_gap": 0.153, 
			 "cosmo_polarized_energy": -17.33, 
			 "cosmo_cavitation_energy": 42.78, 
			 "cosmo_dispersion_energy": -30.82, 
			 "cosmo_repulsion_energy": 2.39, 
			 "cosmo_total_nonelectrostatic_energy": 14.35, 
			 "SMD_solvation_energy": 6.51 
		},
		"coords": [
			{
				"x": 1.348634853,
				"y": 3.0044214379,
				"z": 0.4026586066,
				"element": "C" 
			},
			{
				"x": 0.9647796371,
				"y": 1.5468648647,
				"z": 0.3633285876,
				"element": "C" 
			},
			{
				"x": -0.0218622628,
				"y": 1.2288196363,
				"z": -0.4068017091,
				"element": "N" 
			},
			{
				"x": -0.4135541842,
				"y": -0.0620772006,
				"z": -0.5245438623,
				"element": "N" 
			},
			{
				"x": -1.3827617752,
				"y": -0.4172698919,
				"z": -1.4602806898,
				"element": "C" 
			},
			{
				"x": -2.1215717242,
				"y": 0.5416352022,
				"z": -2.1608871311,
				"element": "C" 
			},
			{
				"x": -3.1089123118,
				"y": 0.1712776665,
				"z": -3.086861548,
				"element": "C" 
			},
			{
				"x": -3.832600571,
				"y": 1.2542226481,
				"z": -3.819582756,
				"element": "C" 
			},
			{
				"x": -3.6095710282,
				"y": 2.4799208788,
				"z": -3.2710896291,
				"element": "O" 
			},
			{
				"x": -4.5380234542,
				"y": 1.1204292951,
				"z": -4.7958915181,
				"element": "O" 
			},
			{
				"x": -3.3616954506,
				"y": -1.1986086567,
				"z": -3.3022218108,
				"element": "C" 
			},
			{
				"x": -4.584955744,
				"y": -1.800959347,
				"z": -4.4014566694,
				"element": "Cl" 
			},
			{
				"x": -2.6285249035,
				"y": -2.1546444479,
				"z": -2.5958763951,
				"element": "C" 
			},
			{
				"x": -1.6477127151,
				"y": -1.776401225,
				"z": -1.6888545881,
				"element": "C" 
			},
			{
				"x": 1.7340816932,
				"y": 0.5913583641,
				"z": 1.2167868451,
				"element": "C" 
			},
			{
				"x": 3.1363403386,
				"y": 0.5385812775,
				"z": 1.151384193,
				"element": "C" 
			},
			{
				"x": 3.865643207,
				"y": -0.3293193814,
				"z": 1.9620287623,
				"element": "C" 
			},
			{
				"x": 3.1890219995,
				"y": -1.1524598584,
				"z": 2.8615321346,
				"element": "C" 
			},
			{
				"x": 4.1800898825,
				"y": -2.3414361056,
				"z": 3.9781035953,
				"element": "Br" 
			},
			{
				"x": 1.7989775619,
				"y": -1.1166601779,
				"z": 2.9586271505,
				"element": "C" 
			},
			{
				"x": 1.0808799064,
				"y": -0.2485614574,
				"z": 2.1365922265,
				"element": "C" 
			},
			{
				"x": 2.3801561225,
				"y": 3.1598660857,
				"z": 0.0635485881,
				"element": "H" 
			},
			{
				"x": 0.6816888374,
				"y": 3.5758269607,
				"z": -0.2452909306,
				"element": "H" 
			},
			{
				"x": 1.2873740456,
				"y": 3.4010329093,
				"z": 1.4231394664,
				"element": "H" 
			},
			{
				"x": 0.1716733931,
				"y": -0.7995235815,
				"z": -0.1437724336,
				"element": "H" 
			},
			{
				"x": -1.9198868398,
				"y": 1.5885456369,
				"z": -1.9871268297,
				"element": "H" 
			},
			{
				"x": -4.1001801672,
				"y": 3.1007745543,
				"z": -3.8339043607,
				"element": "H" 
			},
			{
				"x": -2.8333551584,
				"y": -3.2056226953,
				"z": -2.7657786003,
				"element": "H" 
			},
			{
				"x": -1.0867717237,
				"y": -2.5402073436,
				"z": -1.1559739592,
				"element": "H" 
			},
			{
				"x": 3.6681428588,
				"y": 1.1768321394,
				"z": 0.4522629244,
				"element": "H" 
			},
			{
				"x": 4.9471352797,
				"y": -0.3662795533,
				"z": 1.8968617103,
				"element": "H" 
			},
			{
				"x": 1.2849536331,
				"y": -1.7518882194,
				"z": 3.6710726331,
				"element": "H" 
			},
			{
				"x": -0.0008332356,
				"y": -0.2087904144,
				"z": 2.2261679972,
				"element": "H" 
			}
		],
		 "valence_orbital": [ 
			{
				"type": "occ",
				"energy": -0.27668,
				"method": "rhf"
			},
			{
				"type": "occ",
				"energy": -0.2682,
				"method": "rhf"
			},
			{
				"type": "occ",
				"energy": -0.26241,
				"method": "rhf"
			},
			{
				"type": "occ",
				"energy": -0.25591,
				"method": "rhf"
			},
			{
				"type": "occ",
				"energy": -0.20257,
				"method": "rhf"
			},
			{
				"type": "unocc",
				"energy": -0.04957,
				"method": "rhf"
			},
			{
				"type": "unocc",
				"energy": -0.04922,
				"method": "rhf"
			},
			{
				"type": "unocc",
				"energy": -0.03368,
				"method": "rhf"
			},
			{
				"type": "unocc",
				"energy": -0.01082,
				"method": "rhf"
			},
			{
				"type": "unocc",
				"energy": -0.0056,
				"method": "rhf"
			}
		],
		"cosmo_sigma_profile": { 
			"-0.025": 0.0,
			"-0.024": 0.0,
			"-0.023": 0.0,
			"-0.022": 0.0,
			"-0.021": 0.0,
			"-0.02": 0.0,
			"-0.019": 0.0,
			"-0.018": 0.917121551842,
			"-0.017": 0.816944147265,
			"-0.016": 0.805014040585,
			"-0.015": 0.714249167463,
			"-0.014": 0.502421300264,
			"-0.013": 1.57977393505,
			"-0.012": 1.42997509531,
			"-0.011": 2.96587784032,
			"-0.01": 1.81278517397,
			"-0.009": 2.15314923858,
			"-0.008": 3.77834147742,
			"-0.007": 12.8954473807,
			"-0.006": 15.4787707976,
			"-0.005": 14.9537413293,
			"-0.004": 16.6934724594,
			"-0.003": 19.8231114434,
			"-0.002": 20.9442959688,
			"-0.001": 26.1284834314,
			"0.0": 28.2090120317,
			"0.001": 28.879546562,
			"0.002": 43.0282048608,
			"0.003": 34.993212467,
			"0.004": 24.7025628123,
			"0.005": 14.6642747486,
			"0.006": 5.72683962015,
			"0.007": 5.29551523641,
			"0.008": 4.80760975268,
			"0.009": 2.68132503669,
			"0.01": 2.10736835742,
			"0.011": 4.14894571344,
			"0.012": 4.41417365068,
			"0.013": 0.221019690517,
			"0.014": 0.0,
			"0.015": 0.0,
			"0.016": 0.0,
			"0.017": 0.0,
			"0.018": 0.0,
			"0.019": 0.0,
			"0.02": 0.0,
			"0.021": 0.0,
			"0.022": 0.0,
			"0.023": 0.0,
			"0.024": 0.0,
			"0.025": 0.0
		}
	}
}
