{
	 "smiles": "O=C1NN=C(C=C1)C1=CC=CC=C1", 
	 "Tm": 475.15, 
	 "num_atms": 21, 
	 "gaussian": { 
		 "optdone": 1, 
		 "sigma_profile": "yes", 
		 "theory": "DFT", 
		 "functional": "B3LYP", 
		 "basiset": "6-31G**", 
		 "properties": { 
			 "R2extent": 3137.872, 
			 "electric_dipole_moment_norm": 3.59057240423, 
			 "electric_quadrupole_moment_norm": 12.7492290814, 
			 "total_energy": -570.593639105, 
			 "HOMO_LUMO_gap": 0.15717, 
			 "cosmo_polarized_energy": -12.63, 
			 "cosmo_cavitation_energy": 25.64, 
			 "cosmo_dispersion_energy": -19.26, 
			 "cosmo_repulsion_energy": 1.51, 
			 "cosmo_total_nonelectrostatic_energy": 7.89, 
			 "SMD_solvation_energy": 4.51 
		},
		"coords": [
			{
				"x": -0.8349729638,
				"y": 0.4102311164,
				"z": -3.5066328388,
				"element": "O" 
			},
			{
				"x": -0.8199710414,
				"y": 0.1611692719,
				"z": -2.3071894408,
				"element": "C" 
			},
			{
				"x": 0.3788186896,
				"y": 0.2012280611,
				"z": -1.5792971251,
				"element": "N" 
			},
			{
				"x": 0.5820006534,
				"y": -0.0230145118,
				"z": -0.2754233831,
				"element": "N" 
			},
			{
				"x": -0.4636330253,
				"y": -0.3410975593,
				"z": 0.4550497577,
				"element": "C" 
			},
			{
				"x": -1.77221908,
				"y": -0.4478428144,
				"z": -0.1415611494,
				"element": "C" 
			},
			{
				"x": -1.9495185706,
				"y": -0.2072473056,
				"z": -1.4654503439,
				"element": "C" 
			},
			{
				"x": -0.2270619816,
				"y": -0.5998452004,
				"z": 1.8968098966,
				"element": "C" 
			},
			{
				"x": -1.2617663303,
				"y": -0.4815731996,
				"z": 2.838536666,
				"element": "C" 
			},
			{
				"x": -1.0246836355,
				"y": -0.7240758118,
				"z": 4.1916832288,
				"element": "C" 
			},
			{
				"x": 0.2496171119,
				"y": -1.0872384337,
				"z": 4.6275269784,
				"element": "C" 
			},
			{
				"x": 1.2882016082,
				"y": -1.2018049663,
				"z": 3.6992782557,
				"element": "C" 
			},
			{
				"x": 1.0539371044,
				"y": -0.9615834007,
				"z": 2.3484867542,
				"element": "C" 
			},
			{
				"x": 1.2085801264,
				"y": 0.451086373,
				"z": -2.1055974884,
				"element": "H" 
			},
			{
				"x": -2.6131643799,
				"y": -0.747858527,
				"z": 0.4747894144,
				"element": "H" 
			},
			{
				"x": -2.9166928711,
				"y": -0.2883595026,
				"z": -1.9488684559,
				"element": "H" 
			},
			{
				"x": -2.25479592,
				"y": -0.1741323142,
				"z": 2.525561492,
				"element": "H" 
			},
			{
				"x": -1.8371675497,
				"y": -0.6218099751,
				"z": 4.9051776372,
				"element": "H" 
			},
			{
				"x": 0.4333153866,
				"y": -1.2784930554,
				"z": 5.6806845849,
				"element": "H" 
			},
			{
				"x": 2.2834711093,
				"y": -1.4857550051,
				"z": 4.0290095217,
				"element": "H" 
			},
			{
				"x": 1.8569055594,
				"y": -1.0539832394,
				"z": 1.6256260378,
				"element": "H" 
			}
		],
		 "valence_orbital": [ 
			{
				"type": "occ",
				"energy": -0.31438,
				"method": "rhf"
			},
			{
				"type": "occ",
				"energy": -0.27108,
				"method": "rhf"
			},
			{
				"type": "occ",
				"energy": -0.25925,
				"method": "rhf"
			},
			{
				"type": "occ",
				"energy": -0.2518,
				"method": "rhf"
			},
			{
				"type": "occ",
				"energy": -0.22563,
				"method": "rhf"
			},
			{
				"type": "unocc",
				"energy": -0.06846,
				"method": "rhf"
			},
			{
				"type": "unocc",
				"energy": -0.03375,
				"method": "rhf"
			},
			{
				"type": "unocc",
				"energy": -0.00872,
				"method": "rhf"
			},
			{
				"type": "unocc",
				"energy": 0.03088,
				"method": "rhf"
			},
			{
				"type": "unocc",
				"energy": 0.0838,
				"method": "rhf"
			}
		],
		"cosmo_sigma_profile": { 
			"-0.025": 0.0,
			"-0.024": 0.0,
			"-0.023": 0.0,
			"-0.022": 0.0,
			"-0.021": 0.0,
			"-0.02": 0.0,
			"-0.019": 0.0,
			"-0.018": 0.0,
			"-0.017": 0.0170343370657,
			"-0.016": 0.815501814347,
			"-0.015": 1.24695752073,
			"-0.014": 0.596628413514,
			"-0.013": 1.44268080616,
			"-0.012": 0.725012408945,
			"-0.011": 0.106849222356,
			"-0.01": 1.25912105228,
			"-0.009": 2.48651368428,
			"-0.008": 4.43291353386,
			"-0.007": 6.60000294739,
			"-0.006": 10.3470936244,
			"-0.005": 12.2184833508,
			"-0.004": 15.941210875,
			"-0.003": 13.3816019874,
			"-0.002": 13.898108874,
			"-0.001": 18.3028918973,
			"0.0": 15.2950557793,
			"0.001": 14.5986717298,
			"0.002": 10.4391285685,
			"0.003": 10.6974813362,
			"0.004": 12.7092227783,
			"0.005": 13.4768486161,
			"0.006": 2.98363708111,
			"0.007": 2.38858433184,
			"0.008": 1.36201329435,
			"0.009": 2.3122062278,
			"0.01": 2.46515192043,
			"0.011": 1.47727791668,
			"0.012": 1.75202675912,
			"0.013": 4.89905430162,
			"0.014": 4.97089804991,
			"0.015": 0.676817960022,
			"0.016": 0.0,
			"0.017": 0.0,
			"0.018": 0.0,
			"0.019": 0.0,
			"0.02": 0.0,
			"0.021": 0.0,
			"0.022": 0.0,
			"0.023": 0.0,
			"0.024": 0.0,
			"0.025": 0.0
		}
	}
}
