{
	 "smiles": "CCCNS(=O)(=O)C1=CC(=CC=C1)C(O)=O", 
	 "Tm": 473.15, 
	 "num_atms": 29, 
	 "gaussian": { 
		 "optdone": 1, 
		 "sigma_profile": "yes", 
		 "theory": "DFT", 
		 "functional": "B3LYP", 
		 "basiset": "6-31G**", 
		 "properties": { 
			 "R2extent": 5171.2788, 
			 "electric_dipole_moment_norm": 5.72990120421, 
			 "electric_quadrupole_moment_norm": 16.5974524497, 
			 "total_energy": -1142.67832447, 
			 "HOMO_LUMO_gap": 0.20074, 
			 "cosmo_polarized_energy": -21.69, 
			 "cosmo_cavitation_energy": 34.58, 
			 "cosmo_dispersion_energy": -24.82, 
			 "cosmo_repulsion_energy": 1.93, 
			 "cosmo_total_nonelectrostatic_energy": 11.68, 
			 "SMD_solvation_energy": 5.86 
		},
		"coords": [
			{
				"x": -0.2604207924,
				"y": 4.7298956327,
				"z": -1.2779330461,
				"element": "C" 
			},
			{
				"x": -1.2359477024,
				"y": 3.5489953479,
				"z": -1.2936006511,
				"element": "C" 
			},
			{
				"x": -0.9271125624,
				"y": 2.5319306345,
				"z": -0.1892728168,
				"element": "C" 
			},
			{
				"x": -1.85751344,
				"y": 1.3913144529,
				"z": -0.1160953932,
				"element": "N" 
			},
			{
				"x": -1.6505881126,
				"y": 0.0788855989,
				"z": -1.1472757677,
				"element": "S" 
			},
			{
				"x": -0.8714790904,
				"y": 0.4485472371,
				"z": -2.3374561171,
				"element": "O" 
			},
			{
				"x": -2.9819628404,
				"y": -0.5223731537,
				"z": -1.2635828091,
				"element": "O" 
			},
			{
				"x": -0.5959988003,
				"y": -1.0083753971,
				"z": -0.1769008816,
				"element": "C" 
			},
			{
				"x": 0.6136276261,
				"y": -1.4278341336,
				"z": -0.7252660019,
				"element": "C" 
			},
			{
				"x": 1.4255287425,
				"y": -2.3146064716,
				"z": -0.0058393203,
				"element": "C" 
			},
			{
				"x": 0.9938522904,
				"y": -2.7821006373,
				"z": 1.2423528478,
				"element": "C" 
			},
			{
				"x": -0.2203877413,
				"y": -2.3559283298,
				"z": 1.7788854275,
				"element": "C" 
			},
			{
				"x": -1.0261784414,
				"y": -1.464950868,
				"z": 1.0708114639,
				"element": "C" 
			},
			{
				"x": 2.7438617473,
				"y": -2.8273288695,
				"z": -0.5157077281,
				"element": "C" 
			},
			{
				"x": 3.3009118678,
				"y": -2.1772584742,
				"z": -1.5672406386,
				"element": "O" 
			},
			{
				"x": 3.3073726949,
				"y": -3.7765619982,
				"z": -0.0241614688,
				"element": "O" 
			},
			{
				"x": -0.287188389,
				"y": 5.2613039256,
				"z": -0.3196350905,
				"element": "H" 
			},
			{
				"x": 0.7697869824,
				"y": 4.3957459234,
				"z": -1.4442976885,
				"element": "H" 
			},
			{
				"x": -0.5044986378,
				"y": 5.4506275757,
				"z": -2.0637350425,
				"element": "H" 
			},
			{
				"x": -2.2631378953,
				"y": 3.9159696464,
				"z": -1.160688004,
				"element": "H" 
			},
			{
				"x": -1.2021744308,
				"y": 3.0383693386,
				"z": -2.2610060552,
				"element": "H" 
			},
			{
				"x": -0.9463568151,
				"y": 3.0172099881,
				"z": 0.794121661,
				"element": "H" 
			},
			{
				"x": 0.0818799517,
				"y": 2.1263270354,
				"z": -0.3157790273,
				"element": "H" 
			},
			{
				"x": -2.8433378624,
				"y": 1.6420899966,
				"z": -0.1315772411,
				"element": "H" 
			},
			{
				"x": 0.8682210572,
				"y": -1.0678080259,
				"z": -1.7177574594,
				"element": "H" 
			},
			{
				"x": 1.6293969429,
				"y": -3.4822666615,
				"z": 1.773386871,
				"element": "H" 
			},
			{
				"x": -0.5425421177,
				"y": -2.7211533727,
				"z": 2.7489125741,
				"element": "H" 
			},
			{
				"x": -1.9735001888,
				"y": -1.1262227218,
				"z": 1.475967155,
				"element": "H" 
			},
			{
				"x": 2.8077859574,
				"y": -1.3738432189,
				"z": -1.7820297515,
				"element": "H" 
			}
		],
		 "valence_orbital": [ 
			{
				"type": "occ",
				"energy": -0.31182,
				"method": "rhf"
			},
			{
				"type": "occ",
				"energy": -0.29717,
				"method": "rhf"
			},
			{
				"type": "occ",
				"energy": -0.29059,
				"method": "rhf"
			},
			{
				"type": "occ",
				"energy": -0.28159,
				"method": "rhf"
			},
			{
				"type": "occ",
				"energy": -0.27044,
				"method": "rhf"
			},
			{
				"type": "unocc",
				"energy": -0.0697,
				"method": "rhf"
			},
			{
				"type": "unocc",
				"energy": -0.04969,
				"method": "rhf"
			},
			{
				"type": "unocc",
				"energy": 0.02743,
				"method": "rhf"
			},
			{
				"type": "unocc",
				"energy": 0.03885,
				"method": "rhf"
			},
			{
				"type": "unocc",
				"energy": 0.06528,
				"method": "rhf"
			}
		],
		"cosmo_sigma_profile": { 
			"-0.025": 0.0,
			"-0.024": 0.0,
			"-0.023": 0.0,
			"-0.022": 0.0,
			"-0.021": 0.0,
			"-0.02": 0.157473333956,
			"-0.019": 0.696553957366,
			"-0.018": 0.875439089603,
			"-0.017": 1.16223586845,
			"-0.016": 1.18647551668,
			"-0.015": 1.20214722579,
			"-0.014": 1.8579859626,
			"-0.013": 1.52260701494,
			"-0.012": 2.22428711058,
			"-0.011": 1.78937887555,
			"-0.01": 1.41747329072,
			"-0.009": 2.86813152237,
			"-0.008": 5.08937592141,
			"-0.007": 9.03685953492,
			"-0.006": 10.2866317369,
			"-0.005": 12.2747270103,
			"-0.004": 15.1089183477,
			"-0.003": 23.7285724008,
			"-0.002": 21.6827905476,
			"-0.001": 23.950799681,
			"0.0": 26.6720970784,
			"0.001": 25.1250202336,
			"0.002": 10.1078288165,
			"0.003": 6.00953534717,
			"0.004": 6.0846356641,
			"0.005": 4.964414699,
			"0.006": 5.82875200149,
			"0.007": 6.17099132193,
			"0.008": 6.43690788944,
			"0.009": 6.33781497753,
			"0.01": 13.3894853556,
			"0.011": 12.6628599085,
			"0.012": 5.17959370359,
			"0.013": 0.900306738014,
			"0.014": 0.0,
			"0.015": 0.0,
			"0.016": 0.0,
			"0.017": 0.0,
			"0.018": 0.0,
			"0.019": 0.0,
			"0.02": 0.0,
			"0.021": 0.0,
			"0.022": 0.0,
			"0.023": 0.0,
			"0.024": 0.0,
			"0.025": 0.0
		}
	}
}
