{
	 "smiles": "OC(=O)C1=NC=CN1", 
	 "Tm": 471.15, 
	 "num_atms": 12, 
	 "gaussian": { 
		 "optdone": 1, 
		 "sigma_profile": "yes", 
		 "theory": "DFT", 
		 "functional": "B3LYP", 
		 "basiset": "6-31G**", 
		 "properties": { 
			 "R2extent": 978.0456, 
			 "electric_dipole_moment_norm": 5.07254043158, 
			 "electric_quadrupole_moment_norm": 8.10034573768, 
			 "total_energy": -414.790898557, 
			 "HOMO_LUMO_gap": 0.20214, 
			 "cosmo_polarized_energy": -17.74, 
			 "cosmo_cavitation_energy": 17.14, 
			 "cosmo_dispersion_energy": -12.97, 
			 "cosmo_repulsion_energy": 1.09, 
			 "cosmo_total_nonelectrostatic_energy": 5.25, 
			 "SMD_solvation_energy": 3.03 
		},
		"coords": [
			{
				"x": -0.818351874,
				"y": -0.8480898554,
				"z": -1.4295214078,
				"element": "O" 
			},
			{
				"x": -1.2409449735,
				"y": 0.1396642902,
				"z": -0.5814423672,
				"element": "C" 
			},
			{
				"x": -2.4072717276,
				"y": 0.3932635529,
				"z": -0.3942987616,
				"element": "O" 
			},
			{
				"x": -0.0883534857,
				"y": 0.8113171924,
				"z": 0.0360092799,
				"element": "C" 
			},
			{
				"x": -0.132975073,
				"y": 1.8097787041,
				"z": 0.9037728948,
				"element": "N" 
			},
			{
				"x": 1.169829,
				"y": 2.0963998825,
				"z": 1.1906267638,
				"element": "C" 
			},
			{
				"x": 2.0227776234,
				"y": 1.2635630274,
				"z": 0.4897661898,
				"element": "C" 
			},
			{
				"x": 1.2064422263,
				"y": 0.448463615,
				"z": -0.2429803332,
				"element": "N" 
			},
			{
				"x": -1.6244463338,
				"y": -1.2442498143,
				"z": -1.7976356172,
				"element": "H" 
			},
			{
				"x": 1.4361515727,
				"y": 2.8828898941,
				"z": 1.8829509221,
				"element": "H" 
			},
			{
				"x": 3.0987986301,
				"y": 1.1877721696,
				"z": 0.4544123247,
				"element": "H" 
			},
			{
				"x": 1.476844415,
				"y": -0.2888726584,
				"z": -0.8770598881,
				"element": "H" 
			}
		],
		 "valence_orbital": [ 
			{
				"type": "occ",
				"energy": -0.32719,
				"method": "rhf"
			},
			{
				"type": "occ",
				"energy": -0.29714,
				"method": "rhf"
			},
			{
				"type": "occ",
				"energy": -0.28352,
				"method": "rhf"
			},
			{
				"type": "occ",
				"energy": -0.28038,
				"method": "rhf"
			},
			{
				"type": "occ",
				"energy": -0.24443,
				"method": "rhf"
			},
			{
				"type": "unocc",
				"energy": -0.04229,
				"method": "rhf"
			},
			{
				"type": "unocc",
				"energy": 0.04379,
				"method": "rhf"
			},
			{
				"type": "unocc",
				"energy": 0.06402,
				"method": "rhf"
			},
			{
				"type": "unocc",
				"energy": 0.08781,
				"method": "rhf"
			},
			{
				"type": "unocc",
				"energy": 0.10739,
				"method": "rhf"
			}
		],
		"cosmo_sigma_profile": { 
			"-0.025": 0.0,
			"-0.024": 0.0,
			"-0.023": 0.0,
			"-0.022": 0.0,
			"-0.021": 0.0,
			"-0.02": 0.0,
			"-0.019": 0.251611462792,
			"-0.018": 0.910212345589,
			"-0.017": 1.55083957071,
			"-0.016": 2.32301359648,
			"-0.015": 1.32543161254,
			"-0.014": 1.57960854018,
			"-0.013": 1.73717230295,
			"-0.012": 1.3896736425,
			"-0.011": 1.53964974088,
			"-0.01": 2.91718660859,
			"-0.009": 3.7843619486,
			"-0.008": 3.30143943016,
			"-0.007": 5.54157110512,
			"-0.006": 4.42138003869,
			"-0.005": 5.35488895662,
			"-0.004": 5.90314572572,
			"-0.003": 7.5284752348,
			"-0.002": 8.0786085991,
			"-0.001": 6.79588328251,
			"0.0": 6.52984146839,
			"0.001": 7.56917682806,
			"0.002": 6.65647740467,
			"0.003": 7.4358066564,
			"0.004": 6.34287169329,
			"0.005": 4.19279662672,
			"0.006": 3.44176217552,
			"0.007": 2.40311113359,
			"0.008": 2.53750126694,
			"0.009": 3.60329593873,
			"0.01": 3.41656811976,
			"0.011": 5.74899378904,
			"0.012": 3.7409996155,
			"0.013": 2.98532472366,
			"0.014": 1.91613249923,
			"0.015": 1.0856293216,
			"0.016": 0.980459792603,
			"0.017": 0.709112700783,
			"0.018": 0.0,
			"0.019": 0.0,
			"0.02": 0.0,
			"0.021": 0.0,
			"0.022": 0.0,
			"0.023": 0.0,
			"0.024": 0.0,
			"0.025": 0.0
		}
	}
}
