{
	 "smiles": "NSCC1=CC2=C(OC1=O)C=CC=C2", 
	 "Tm": 528.15, 
	 "num_atms": 23, 
	 "gaussian": { 
		 "optdone": 1, 
		 "sigma_profile": "yes", 
		 "theory": "DFT", 
		 "functional": "B3LYP", 
		 "basiset": "6-31G**", 
		 "properties": { 
			 "R2extent": 5070.0698, 
			 "electric_dipole_moment_norm": 4.64181368864, 
			 "electric_quadrupole_moment_norm": 24.7756950268, 
			 "total_energy": -989.864371933, 
			 "HOMO_LUMO_gap": 0.16944, 
			 "cosmo_polarized_energy": -14.11, 
			 "cosmo_cavitation_energy": 29.06, 
			 "cosmo_dispersion_energy": -21.79, 
			 "cosmo_repulsion_energy": 1.67, 
			 "cosmo_total_nonelectrostatic_energy": 8.94, 
			 "SMD_solvation_energy": 5.73 
		},
		"coords": [
			{
				"x": -2.3355576288,
				"y": -2.1026177417,
				"z": 3.8398505442,
				"element": "N" 
			},
			{
				"x": -3.4837566741,
				"y": -1.9524688624,
				"z": 2.546954297,
				"element": "S" 
			},
			{
				"x": -2.6997569697,
				"y": -3.0268165419,
				"z": 1.2974198101,
				"element": "C" 
			},
			{
				"x": -1.4896660434,
				"y": -2.4795366017,
				"z": 0.5759025566,
				"element": "C" 
			},
			{
				"x": -1.0616036908,
				"y": -1.1953255375,
				"z": 0.601921764,
				"element": "C" 
			},
			{
				"x": 0.1026103112,
				"y": -0.7739336859,
				"z": -0.1350553776,
				"element": "C" 
			},
			{
				"x": 0.7889989069,
				"y": -1.7458754898,
				"z": -0.8852493377,
				"element": "C" 
			},
			{
				"x": 0.3607421101,
				"y": -3.0418744815,
				"z": -0.9140241615,
				"element": "O" 
			},
			{
				"x": -0.7630166622,
				"y": -3.4784022696,
				"z": -0.2230451938,
				"element": "C" 
			},
			{
				"x": -1.0688783438,
				"y": -4.6455973839,
				"z": -0.3247355493,
				"element": "O" 
			},
			{
				"x": 1.927956088,
				"y": -1.4256313574,
				"z": -1.6263324812,
				"element": "C" 
			},
			{
				"x": 2.3888350107,
				"y": -0.1130422243,
				"z": -1.6194189875,
				"element": "C" 
			},
			{
				"x": 1.7216294021,
				"y": 0.876183172,
				"z": -0.8805184019,
				"element": "C" 
			},
			{
				"x": 0.5904212778,
				"y": 0.5466340157,
				"z": -0.1465048519,
				"element": "C" 
			},
			{
				"x": -2.7795447849,
				"y": -2.5200200519,
				"z": 4.6518994676,
				"element": "H" 
			},
			{
				"x": -1.9639623895,
				"y": -1.1933936847,
				"z": 4.0954126532,
				"element": "H" 
			},
			{
				"x": -2.4441393672,
				"y": -3.9786759759,
				"z": 1.7695421212,
				"element": "H" 
			},
			{
				"x": -3.4959925068,
				"y": -3.2509823612,
				"z": 0.5755850379,
				"element": "H" 
			},
			{
				"x": -1.6066874426,
				"y": -0.4608816963,
				"z": 1.1895233118,
				"element": "H" 
			},
			{
				"x": 2.4264994346,
				"y": -2.2064966715,
				"z": -2.1901733017,
				"element": "H" 
			},
			{
				"x": 3.2738895629,
				"y": 0.1447666035,
				"z": -2.1931503671,
				"element": "H" 
			},
			{
				"x": 2.0901154905,
				"y": 1.8970545317,
				"z": -0.8835719057,
				"element": "H" 
			},
			{
				"x": 0.0652649091,
				"y": 1.3042342962,
				"z": 0.4288683535,
				"element": "H" 
			}
		],
		 "valence_orbital": [ 
			{
				"type": "occ",
				"energy": -0.27417,
				"method": "rhf"
			},
			{
				"type": "occ",
				"energy": -0.26027,
				"method": "rhf"
			},
			{
				"type": "occ",
				"energy": -0.25388,
				"method": "rhf"
			},
			{
				"type": "occ",
				"energy": -0.23851,
				"method": "rhf"
			},
			{
				"type": "occ",
				"energy": -0.23269,
				"method": "rhf"
			},
			{
				"type": "unocc",
				"energy": -0.06325,
				"method": "rhf"
			},
			{
				"type": "unocc",
				"energy": -0.01126,
				"method": "rhf"
			},
			{
				"type": "unocc",
				"energy": 0.00115,
				"method": "rhf"
			},
			{
				"type": "unocc",
				"energy": 0.01699,
				"method": "rhf"
			},
			{
				"type": "unocc",
				"energy": 0.06345,
				"method": "rhf"
			}
		],
		"cosmo_sigma_profile": { 
			"-0.025": 0.0,
			"-0.024": 0.0,
			"-0.023": 0.0,
			"-0.022": 0.0,
			"-0.021": 0.0,
			"-0.02": 0.0,
			"-0.019": 0.0,
			"-0.018": 0.0,
			"-0.017": 0.0,
			"-0.016": 0.0,
			"-0.015": 0.0,
			"-0.014": 0.0,
			"-0.013": 0.0,
			"-0.012": 2.1720515096,
			"-0.011": 2.06958870828,
			"-0.01": 2.69973395813,
			"-0.009": 3.178108933,
			"-0.008": 3.32723563908,
			"-0.007": 10.5950398377,
			"-0.006": 14.6935331314,
			"-0.005": 14.8875890798,
			"-0.004": 16.1439139399,
			"-0.003": 14.4198318019,
			"-0.002": 14.3922832136,
			"-0.001": 14.91840349,
			"0.0": 15.9841627386,
			"0.001": 17.3135047343,
			"0.002": 17.3664736642,
			"0.003": 15.114558104,
			"0.004": 11.0512963096,
			"0.005": 7.2723365064,
			"0.006": 5.79397497938,
			"0.007": 5.42071127173,
			"0.008": 4.1592321656,
			"0.009": 3.39283049348,
			"0.01": 4.04627415268,
			"0.011": 4.59132835773,
			"0.012": 5.94465082106,
			"0.013": 2.23958526925,
			"0.014": 0.566240527738,
			"0.015": 0.387374901769,
			"0.016": 0.0,
			"0.017": 0.0,
			"0.018": 0.0,
			"0.019": 0.0,
			"0.02": 0.0,
			"0.021": 0.0,
			"0.022": 0.0,
			"0.023": 0.0,
			"0.024": 0.0,
			"0.025": 0.0
		}
	}
}
