{
	 "smiles": "CCC(=O)N(C1CC1)C1=NN=C(S)S1", 
	 "Tm": 469.15, 
	 "num_atms": 25, 
	 "gaussian": { 
		 "optdone": 1, 
		 "sigma_profile": "yes", 
		 "theory": "DFT", 
		 "functional": "B3LYP", 
		 "basiset": "6-31G**", 
		 "properties": { 
			 "R2extent": 4582.0382, 
			 "electric_dipole_moment_norm": 3.37201429564, 
			 "electric_quadrupole_moment_norm": 13.785673363, 
			 "total_energy": -1347.2671956, 
			 "HOMO_LUMO_gap": 0.18718, 
			 "cosmo_polarized_energy": -14.54, 
			 "cosmo_cavitation_energy": 31.89, 
			 "cosmo_dispersion_energy": -23.21, 
			 "cosmo_repulsion_energy": 1.77, 
			 "cosmo_total_nonelectrostatic_energy": 10.46, 
			 "SMD_solvation_energy": 3.17 
		},
		"coords": [
			{
				"x": 3.9904902902,
				"y": 0.7893130796,
				"z": 2.3000281408,
				"element": "C" 
			},
			{
				"x": 2.6142726987,
				"y": 1.4692657106,
				"z": 2.4208906667,
				"element": "C" 
			},
			{
				"x": 2.0096178716,
				"y": 1.7458660405,
				"z": 1.0566089818,
				"element": "C" 
			},
			{
				"x": 2.2825127166,
				"y": 2.7511018419,
				"z": 0.4270562252,
				"element": "O" 
			},
			{
				"x": 1.106912563,
				"y": 0.8102083458,
				"z": 0.478624338,
				"element": "N" 
			},
			{
				"x": 0.5082380088,
				"y": 1.1958635075,
				"z": -0.7895443051,
				"element": "C" 
			},
			{
				"x": 0.3024496903,
				"y": 0.1458118259,
				"z": -1.8546709497,
				"element": "C" 
			},
			{
				"x": 1.3650701816,
				"y": 1.1978477735,
				"z": -2.0244941734,
				"element": "C" 
			},
			{
				"x": 0.6242889057,
				"y": -0.3199909328,
				"z": 1.1224690555,
				"element": "C" 
			},
			{
				"x": 1.3522595955,
				"y": -1.1661496502,
				"z": 1.796447771,
				"element": "N" 
			},
			{
				"x": 0.6260373474,
				"y": -2.1462808194,
				"z": 2.4116229254,
				"element": "N" 
			},
			{
				"x": -0.6489880655,
				"y": -2.071036578,
				"z": 2.1671022093,
				"element": "C" 
			},
			{
				"x": -1.7532270373,
				"y": -3.3326351948,
				"z": 2.7286921889,
				"element": "S" 
			},
			{
				"x": -1.1075047627,
				"y": -0.7196774985,
				"z": 1.1377842585,
				"element": "S" 
			},
			{
				"x": 4.4534313914,
				"y": 0.7071909667,
				"z": 3.2877144462,
				"element": "H" 
			},
			{
				"x": 3.8871088544,
				"y": -0.2167450551,
				"z": 1.8877178916,
				"element": "H" 
			},
			{
				"x": 4.6546869903,
				"y": 1.3761039249,
				"z": 1.6586371696,
				"element": "H" 
			},
			{
				"x": 2.729324325,
				"y": 2.4551699311,
				"z": 2.8800628585,
				"element": "H" 
			},
			{
				"x": 1.9575864806,
				"y": 0.8652833275,
				"z": 3.0485657912,
				"element": "H" 
			},
			{
				"x": -0.2285963772,
				"y": 1.9912830732,
				"z": -0.7030370557,
				"element": "H" 
			},
			{
				"x": -0.6066412854,
				"y": 0.2065767531,
				"z": -2.4446426664,
				"element": "H" 
			},
			{
				"x": 0.6276276417,
				"y": -0.8668846754,
				"z": -1.6377422774,
				"element": "H" 
			},
			{
				"x": 2.3983873814,
				"y": 0.8919293606,
				"z": -1.9041662027,
				"element": "H" 
			},
			{
				"x": 1.2118015599,
				"y": 2.004870687,
				"z": -2.7331583482,
				"element": "H" 
			},
			{
				"x": -2.863246966,
				"y": -2.568285745,
				"z": 2.7247310603,
				"element": "H" 
			}
		],
		 "valence_orbital": [ 
			{
				"type": "occ",
				"energy": -0.30504,
				"method": "rhf"
			},
			{
				"type": "occ",
				"energy": -0.28253,
				"method": "rhf"
			},
			{
				"type": "occ",
				"energy": -0.27269,
				"method": "rhf"
			},
			{
				"type": "occ",
				"energy": -0.264,
				"method": "rhf"
			},
			{
				"type": "occ",
				"energy": -0.23934,
				"method": "rhf"
			},
			{
				"type": "unocc",
				"energy": -0.05216,
				"method": "rhf"
			},
			{
				"type": "unocc",
				"energy": -0.02846,
				"method": "rhf"
			},
			{
				"type": "unocc",
				"energy": 0.00292,
				"method": "rhf"
			},
			{
				"type": "unocc",
				"energy": 0.00598,
				"method": "rhf"
			},
			{
				"type": "unocc",
				"energy": 0.0284,
				"method": "rhf"
			}
		],
		"cosmo_sigma_profile": { 
			"-0.025": 0.0,
			"-0.024": 0.0,
			"-0.023": 0.0,
			"-0.022": 0.0,
			"-0.021": 0.0,
			"-0.02": 0.0,
			"-0.019": 0.0,
			"-0.018": 0.0,
			"-0.017": 0.0,
			"-0.016": 0.0,
			"-0.015": 0.0,
			"-0.014": 0.0,
			"-0.013": 0.995356228039,
			"-0.012": 3.44623399335,
			"-0.011": 2.24122114848,
			"-0.01": 1.58309255559,
			"-0.009": 1.33258159341,
			"-0.008": 1.47907196718,
			"-0.007": 2.1110485668,
			"-0.006": 9.89079901118,
			"-0.005": 19.1499399659,
			"-0.004": 20.3163174513,
			"-0.003": 22.1564448121,
			"-0.002": 26.0466061115,
			"-0.001": 26.7906067179,
			"0.0": 23.6026909344,
			"0.001": 19.4420083417,
			"0.002": 13.2097044724,
			"0.003": 8.71049474639,
			"0.004": 8.17049057903,
			"0.005": 8.0088207896,
			"0.006": 6.14881364865,
			"0.007": 4.63287398265,
			"0.008": 3.94921184067,
			"0.009": 3.97418980125,
			"0.01": 4.80643353797,
			"0.011": 4.88105250834,
			"0.012": 5.44392655509,
			"0.013": 4.09175827206,
			"0.014": 0.917918410039,
			"0.015": 0.0,
			"0.016": 0.0,
			"0.017": 0.0,
			"0.018": 0.0,
			"0.019": 0.0,
			"0.02": 0.0,
			"0.021": 0.0,
			"0.022": 0.0,
			"0.023": 0.0,
			"0.024": 0.0,
			"0.025": 0.0
		}
	}
}
