{
	 "smiles": "CC(=O)C1=C(C)C2=CC=CC=C2N1", 
	 "Tm": 420.15, 
	 "num_atms": 24, 
	 "gaussian": { 
		 "optdone": 1, 
		 "sigma_profile": "yes", 
		 "theory": "DFT", 
		 "functional": "B3LYP", 
		 "basiset": "6-31G**", 
		 "properties": { 
			 "R2extent": 2898.6754, 
			 "electric_dipole_moment_norm": 3.26755292842, 
			 "electric_quadrupole_moment_norm": 13.5829937587, 
			 "total_energy": -555.792933492, 
			 "HOMO_LUMO_gap": 0.15422, 
			 "cosmo_polarized_energy": -12.5, 
			 "cosmo_cavitation_energy": 27.47, 
			 "cosmo_dispersion_energy": -20.12, 
			 "cosmo_repulsion_energy": 1.57, 
			 "cosmo_total_nonelectrostatic_energy": 8.93, 
			 "SMD_solvation_energy": 4.91 
		},
		"coords": [
			{
				"x": -2.8084541114,
				"y": 3.0634425556,
				"z": 0.1919565282,
				"element": "C" 
			},
			{
				"x": -2.502362621,
				"y": 2.1047465657,
				"z": -0.9526959808,
				"element": "C" 
			},
			{
				"x": -3.2055119577,
				"y": 2.0797923603,
				"z": -1.957719207,
				"element": "O" 
			},
			{
				"x": -1.3452536128,
				"y": 1.2169752101,
				"z": -0.8138022778,
				"element": "C" 
			},
			{
				"x": -0.8751202026,
				"y": 0.2691974415,
				"z": -1.7156653324,
				"element": "C" 
			},
			{
				"x": -1.4582675055,
				"y": -0.0611412578,
				"z": -3.0553341251,
				"element": "C" 
			},
			{
				"x": 0.2785207245,
				"y": -0.3308149002,
				"z": -1.1119994207,
				"element": "C" 
			},
			{
				"x": 1.1769079061,
				"y": -1.3371094789,
				"z": -1.5217161149,
				"element": "C" 
			},
			{
				"x": 2.216934301,
				"y": -1.6952155778,
				"z": -0.6793854518,
				"element": "C" 
			},
			{
				"x": 2.386917996,
				"y": -1.0684206055,
				"z": 0.576685857,
				"element": "C" 
			},
			{
				"x": 1.5223185527,
				"y": -0.0746217854,
				"z": 1.01248774,
				"element": "C" 
			},
			{
				"x": 0.4706487862,
				"y": 0.2860746268,
				"z": 0.1583953438,
				"element": "C" 
			},
			{
				"x": -0.5228496375,
				"y": 1.2175329456,
				"z": 0.3155300336,
				"element": "N" 
			},
			{
				"x": -3.0009487988,
				"y": 2.5177460825,
				"z": 1.1238058598,
				"element": "H" 
			},
			{
				"x": -3.6920120126,
				"y": 3.6473641943,
				"z": -0.0671170005,
				"element": "H" 
			},
			{
				"x": -1.9686021843,
				"y": 3.7458855509,
				"z": 0.3711044581,
				"element": "H" 
			},
			{
				"x": -0.8804550738,
				"y": -0.8483557701,
				"z": -3.54751053,
				"element": "H" 
			},
			{
				"x": -2.4966065891,
				"y": -0.3949177381,
				"z": -2.9667106575,
				"element": "H" 
			},
			{
				"x": -1.4781933289,
				"y": 0.8164609819,
				"z": -3.7086586524,
				"element": "H" 
			},
			{
				"x": 1.0553674217,
				"y": -1.8249424088,
				"z": -2.4845177829,
				"element": "H" 
			},
			{
				"x": 2.9154845333,
				"y": -2.4688872688,
				"z": -0.9836579264,
				"element": "H" 
			},
			{
				"x": 3.2124591938,
				"y": -1.3719018424,
				"z": 1.2138898638,
				"element": "H" 
			},
			{
				"x": 1.6560976174,
				"y": 0.4045908843,
				"z": 1.9780950307,
				"element": "H" 
			},
			{
				"x": -0.6413193968,
				"y": 1.8102192345,
				"z": 1.1202397452,
				"element": "H" 
			}
		],
		 "valence_orbital": [ 
			{
				"type": "occ",
				"energy": -0.33262,
				"method": "rhf"
			},
			{
				"type": "occ",
				"energy": -0.27644,
				"method": "rhf"
			},
			{
				"type": "occ",
				"energy": -0.24443,
				"method": "rhf"
			},
			{
				"type": "occ",
				"energy": -0.22738,
				"method": "rhf"
			},
			{
				"type": "occ",
				"energy": -0.2069,
				"method": "rhf"
			},
			{
				"type": "unocc",
				"energy": -0.05268,
				"method": "rhf"
			},
			{
				"type": "unocc",
				"energy": 0.01201,
				"method": "rhf"
			},
			{
				"type": "unocc",
				"energy": 0.02786,
				"method": "rhf"
			},
			{
				"type": "unocc",
				"energy": 0.06695,
				"method": "rhf"
			},
			{
				"type": "unocc",
				"energy": 0.09022,
				"method": "rhf"
			}
		],
		"cosmo_sigma_profile": { 
			"-0.025": 0.0,
			"-0.024": 0.0,
			"-0.023": 0.0,
			"-0.022": 0.0,
			"-0.021": 0.0,
			"-0.02": 0.0,
			"-0.019": 0.0,
			"-0.018": 0.0,
			"-0.017": 0.0,
			"-0.016": 0.140596987219,
			"-0.015": 0.800818450744,
			"-0.014": 1.4372946987,
			"-0.013": 0.932161027783,
			"-0.012": 1.50551414557,
			"-0.011": 1.50613301607,
			"-0.01": 2.08967257296,
			"-0.009": 1.61047950434,
			"-0.008": 1.79581715436,
			"-0.007": 3.9340244751,
			"-0.006": 9.30762065717,
			"-0.005": 13.4462156344,
			"-0.004": 15.311438984,
			"-0.003": 18.5461021371,
			"-0.002": 15.8949255796,
			"-0.001": 18.1386227882,
			"0.0": 16.2511207981,
			"0.001": 13.1577323485,
			"0.002": 11.6822448832,
			"0.003": 16.0902912527,
			"0.004": 16.1735829327,
			"0.005": 11.9038018369,
			"0.006": 9.35570334911,
			"0.007": 2.91163277165,
			"0.008": 2.02134624475,
			"0.009": 1.67987338426,
			"0.01": 1.66851494988,
			"0.011": 2.25122625541,
			"0.012": 3.02203991094,
			"0.013": 2.90830253269,
			"0.014": 0.980321966083,
			"0.015": 0.02738524188,
			"0.016": 0.0,
			"0.017": 0.0,
			"0.018": 0.0,
			"0.019": 0.0,
			"0.02": 0.0,
			"0.021": 0.0,
			"0.022": 0.0,
			"0.023": 0.0,
			"0.024": 0.0,
			"0.025": 0.0
		}
	}
}
