{
	 "smiles": "CCC(C)C(C)(COC(N)=O)COC(N)=O", 
	 "Tm": 350.15, 
	 "num_atms": 36, 
	 "gaussian": { 
		 "optdone": 1, 
		 "sigma_profile": "yes", 
		 "theory": "DFT", 
		 "functional": "B3LYP", 
		 "basiset": "6-31G**", 
		 "properties": { 
			 "R2extent": 4728.1765, 
			 "electric_dipole_moment_norm": 3.01686544281, 
			 "electric_quadrupole_moment_norm": 26.9695368147, 
			 "total_energy": -803.568827444, 
			 "HOMO_LUMO_gap": 0.31533, 
			 "cosmo_polarized_energy": -19.57, 
			 "cosmo_cavitation_energy": 36.53, 
			 "cosmo_dispersion_energy": -24.93, 
			 "cosmo_repulsion_energy": 1.97, 
			 "cosmo_total_nonelectrostatic_energy": 13.57, 
			 "SMD_solvation_energy": 8.46 
		},
		"coords": [
			{
				"x": 1.6959807767,
				"y": -0.617751262,
				"z": -2.7436887555,
				"element": "C" 
			},
			{
				"x": 0.2614967394,
				"y": -1.052127524,
				"z": -2.4126975022,
				"element": "C" 
			},
			{
				"x": -0.534595883,
				"y": -0.281586933,
				"z": -1.3238929088,
				"element": "C" 
			},
			{
				"x": -2.0139962474,
				"y": -0.7078556799,
				"z": -1.4553495974,
				"element": "C" 
			},
			{
				"x": 0.0217206498,
				"y": -0.4054733593,
				"z": 0.152806274,
				"element": "C" 
			},
			{
				"x": 0.4887408891,
				"y": -1.8355034403,
				"z": 0.4821001671,
				"element": "C" 
			},
			{
				"x": 1.1868753525,
				"y": 0.6124325116,
				"z": 0.2863524337,
				"element": "C" 
			},
			{
				"x": 2.0104132209,
				"y": 0.4146013368,
				"z": 1.4540250329,
				"element": "O" 
			},
			{
				"x": 3.2230145016,
				"y": -0.1609847732,
				"z": 1.260303486,
				"element": "C" 
			},
			{
				"x": 3.8771266931,
				"y": -0.2721452824,
				"z": 2.4581923159,
				"element": "N" 
			},
			{
				"x": 3.666628098,
				"y": -0.5513343743,
				"z": 0.1947926782,
				"element": "O" 
			},
			{
				"x": -1.1041645496,
				"y": -0.0042944236,
				"z": 1.126667926,
				"element": "C" 
			},
			{
				"x": -0.5809094711,
				"y": 0.0524894638,
				"z": 2.4669512607,
				"element": "O" 
			},
			{
				"x": -1.491437234,
				"y": 0.3639247666,
				"z": 3.4247676676,
				"element": "C" 
			},
			{
				"x": -0.8787313979,
				"y": 0.4209854175,
				"z": 4.6493294705,
				"element": "N" 
			},
			{
				"x": -2.6685959058,
				"y": 0.5888131152,
				"z": 3.2195047642,
				"element": "O" 
			},
			{
				"x": 2.0421399793,
				"y": -1.1501718523,
				"z": -3.6365709863,
				"element": "H" 
			},
			{
				"x": 1.7439978678,
				"y": 0.4542642952,
				"z": -2.9712611322,
				"element": "H" 
			},
			{
				"x": 2.4110043289,
				"y": -0.8254949617,
				"z": -1.9442782933,
				"element": "H" 
			},
			{
				"x": 0.2520330066,
				"y": -2.1220213555,
				"z": -2.1700823713,
				"element": "H" 
			},
			{
				"x": -0.3277791205,
				"y": -0.961078398,
				"z": -3.3338461876,
				"element": "H" 
			},
			{
				"x": -0.4919669551,
				"y": 0.7885576715,
				"z": -1.5832922894,
				"element": "H" 
			},
			{
				"x": -2.3328364598,
				"y": -0.6153587602,
				"z": -2.4981310079,
				"element": "H" 
			},
			{
				"x": -2.1603249393,
				"y": -1.754669124,
				"z": -1.1647386772,
				"element": "H" 
			},
			{
				"x": -2.6935662919,
				"y": -0.0948330227,
				"z": -0.8589624818,
				"element": "H" 
			},
			{
				"x": -0.3004918495,
				"y": -2.5613340115,
				"z": 0.259082484,
				"element": "H" 
			},
			{
				"x": 1.3810711409,
				"y": -2.1119625329,
				"z": -0.0829101855,
				"element": "H" 
			},
			{
				"x": 0.7255585819,
				"y": -1.91744012,
				"z": 1.5452684759,
				"element": "H" 
			},
			{
				"x": 0.7799208088,
				"y": 1.6232003406,
				"z": 0.3903937738,
				"element": "H" 
			},
			{
				"x": 1.832908362,
				"y": 0.580874962,
				"z": -0.5866604131,
				"element": "H" 
			},
			{
				"x": 4.8579430519,
				"y": -0.4949725712,
				"z": 2.4042353845,
				"element": "H" 
			},
			{
				"x": 3.5592474571,
				"y": 0.289629848,
				"z": 3.2322370545,
				"element": "H" 
			},
			{
				"x": -1.9255135817,
				"y": -0.7237076689,
				"z": 1.110755659,
				"element": "H" 
			},
			{
				"x": -1.5172449144,
				"y": 0.9781275354,
				"z": 0.8697953669,
				"element": "H" 
			},
			{
				"x": 0.0293864071,
				"y": -0.0036235408,
				"z": 4.7520183854,
				"element": "H" 
			},
			{
				"x": -1.4919531125,
				"y": 0.4312237075,
				"z": 5.4481827287,
				"element": "H" 
			}
		],
		 "valence_orbital": [ 
			{
				"type": "occ",
				"energy": -0.28196,
				"method": "rhf"
			},
			{
				"type": "occ",
				"energy": -0.27924,
				"method": "rhf"
			},
			{
				"type": "occ",
				"energy": -0.27377,
				"method": "rhf"
			},
			{
				"type": "occ",
				"energy": -0.27122,
				"method": "rhf"
			},
			{
				"type": "occ",
				"energy": -0.26484,
				"method": "rhf"
			},
			{
				"type": "unocc",
				"energy": 0.05049,
				"method": "rhf"
			},
			{
				"type": "unocc",
				"energy": 0.05451,
				"method": "rhf"
			},
			{
				"type": "unocc",
				"energy": 0.07011,
				"method": "rhf"
			},
			{
				"type": "unocc",
				"energy": 0.08355,
				"method": "rhf"
			},
			{
				"type": "unocc",
				"energy": 0.08983,
				"method": "rhf"
			}
		],
		"cosmo_sigma_profile": { 
			"-0.025": 0.0,
			"-0.024": 0.0,
			"-0.023": 0.0,
			"-0.022": 0.0,
			"-0.021": 0.0,
			"-0.02": 0.0,
			"-0.019": 0.0,
			"-0.018": 0.0,
			"-0.017": 0.0,
			"-0.016": 0.0,
			"-0.015": 0.277612155189,
			"-0.014": 3.55788143818,
			"-0.013": 4.42270671516,
			"-0.012": 4.4653753673,
			"-0.011": 3.43095459035,
			"-0.01": 4.65160748132,
			"-0.009": 4.17705655533,
			"-0.008": 2.77884990825,
			"-0.007": 3.29494918822,
			"-0.006": 3.67529518523,
			"-0.005": 8.59228751248,
			"-0.004": 12.7571220092,
			"-0.003": 23.9373741003,
			"-0.002": 30.2792993284,
			"-0.001": 31.9605912297,
			"0.0": 27.1761350761,
			"0.001": 27.6528075931,
			"0.002": 15.5676830024,
			"0.003": 7.60042572881,
			"0.004": 8.95064894912,
			"0.005": 7.02546973682,
			"0.006": 6.09600566125,
			"0.007": 6.5534148266,
			"0.008": 4.68604768412,
			"0.009": 4.92955880463,
			"0.01": 4.36160159371,
			"0.011": 3.51446910781,
			"0.012": 4.04076575608,
			"0.013": 8.20373171246,
			"0.014": 4.20853354639,
			"0.015": 0.00605502998882,
			"0.016": 0.0,
			"0.017": 0.0,
			"0.018": 0.0,
			"0.019": 0.0,
			"0.02": 0.0,
			"0.021": 0.0,
			"0.022": 0.0,
			"0.023": 0.0,
			"0.024": 0.0,
			"0.025": 0.0
		}
	}
}
