{
	 "smiles": "BrC1(C2=CC=CC=C2C2=C1C=CC=C2)C1=CC=CC=C1", 
	 "Tm": 370.15, 
	 "num_atms": 33, 
	 "gaussian": { 
		 "optdone": 1, 
		 "sigma_profile": "yes", 
		 "theory": "DFT", 
		 "functional": "B3LYP", 
		 "basiset": "6-31G**", 
		 "properties": { 
			 "R2extent": 5642.4038, 
			 "electric_dipole_moment_norm": 2.20516095104, 
			 "electric_quadrupole_moment_norm": 8.97567503311, 
			 "total_energy": -3303.27607913, 
			 "HOMO_LUMO_gap": 0.16154, 
			 "cosmo_polarized_energy": -8.17, 
			 "cosmo_cavitation_energy": 37.98, 
			 "cosmo_dispersion_energy": -26.69, 
			 "cosmo_repulsion_energy": 2.03, 
			 "cosmo_total_nonelectrostatic_energy": 13.32, 
			 "SMD_solvation_energy": 4.86 
		},
		"coords": [
			{
				"x": -0.7689963428,
				"y": 1.8685636419,
				"z": 1.1235681385,
				"element": "Br" 
			},
			{
				"x": 0.1772512889,
				"y": 0.2886816956,
				"z": 0.2269386488,
				"element": "C" 
			},
			{
				"x": -0.4196196725,
				"y": -0.9629370499,
				"z": 0.8432031979,
				"element": "C" 
			},
			{
				"x": -0.2969445537,
				"y": -1.439694703,
				"z": 2.1430826972,
				"element": "C" 
			},
			{
				"x": -0.9417388031,
				"y": -2.6330956381,
				"z": 2.4848609438,
				"element": "C" 
			},
			{
				"x": -1.6963801452,
				"y": -3.331287924,
				"z": 1.535338424,
				"element": "C" 
			},
			{
				"x": -1.8188164551,
				"y": -2.8530573017,
				"z": 0.2280570588,
				"element": "C" 
			},
			{
				"x": -1.1749113297,
				"y": -1.6639714077,
				"z": -0.11604904,
				"element": "C" 
			},
			{
				"x": -1.1105300177,
				"y": -0.9334828259,
				"z": -1.3900944092,
				"element": "C" 
			},
			{
				"x": -0.3224349395,
				"y": 0.2197789773,
				"z": -1.2092258221,
				"element": "C" 
			},
			{
				"x": -0.0672901509,
				"y": 1.0812871295,
				"z": -2.2685242696,
				"element": "C" 
			},
			{
				"x": -0.6247072738,
				"y": 0.7931505204,
				"z": -3.5189247164,
				"element": "C" 
			},
			{
				"x": -1.4167844882,
				"y": -0.3456539014,
				"z": -3.7005262438,
				"element": "C" 
			},
			{
				"x": -1.6634479438,
				"y": -1.2195907331,
				"z": -2.6383154191,
				"element": "C" 
			},
			{
				"x": 1.6879845474,
				"y": 0.4497224004,
				"z": 0.3477592639,
				"element": "C" 
			},
			{
				"x": 2.4887378453,
				"y": -0.7026862425,
				"z": 0.3892627902,
				"element": "C" 
			},
			{
				"x": 3.8804555151,
				"y": -0.6049374094,
				"z": 0.3990478912,
				"element": "C" 
			},
			{
				"x": 4.499112596,
				"y": 0.6446664562,
				"z": 0.3663833733,
				"element": "C" 
			},
			{
				"x": 3.7116904573,
				"y": 1.795868232,
				"z": 0.3220514583,
				"element": "C" 
			},
			{
				"x": 2.3202567067,
				"y": 1.700356376,
				"z": 0.3119550584,
				"element": "C" 
			},
			{
				"x": 0.28029689,
				"y": -0.8904656502,
				"z": 2.8806664324,
				"element": "H" 
			},
			{
				"x": -0.8583581611,
				"y": -3.0188543374,
				"z": 3.4965235752,
				"element": "H" 
			},
			{
				"x": -2.192574783,
				"y": -4.2553404054,
				"z": 1.8177903459,
				"element": "H" 
			},
			{
				"x": -2.4040085065,
				"y": -3.4016625059,
				"z": -0.5044894843,
				"element": "H" 
			},
			{
				"x": 0.5484796978,
				"y": 1.9644673977,
				"z": -2.1297295886,
				"element": "H" 
			},
			{
				"x": -0.4388984271,
				"y": 1.4592682347,
				"z": -4.3561988958,
				"element": "H" 
			},
			{
				"x": -1.8409211972,
				"y": -0.5549927607,
				"z": -4.6783147655,
				"element": "H" 
			},
			{
				"x": -2.2717866097,
				"y": -2.1071936491,
				"z": -2.7874744583,
				"element": "H" 
			},
			{
				"x": 2.0226871191,
				"y": -1.6816229609,
				"z": 0.4124376205,
				"element": "H" 
			},
			{
				"x": 4.4790824281,
				"y": -1.5106587127,
				"z": 0.4360581199,
				"element": "H" 
			},
			{
				"x": 5.5824501542,
				"y": 0.7211985792,
				"z": 0.3801370665,
				"element": "H" 
			},
			{
				"x": 4.1791804395,
				"y": 2.7762470535,
				"z": 0.3025533419,
				"element": "H" 
			},
			{
				"x": 1.7193841151,
				"y": 2.6024294245,
				"z": 0.2994916661,
				"element": "H" 
			}
		],
		 "valence_orbital": [ 
			{
				"type": "occ",
				"energy": -0.25343,
				"method": "rhf"
			},
			{
				"type": "occ",
				"energy": -0.2529,
				"method": "rhf"
			},
			{
				"type": "occ",
				"energy": -0.2471,
				"method": "rhf"
			},
			{
				"type": "occ",
				"energy": -0.24124,
				"method": "rhf"
			},
			{
				"type": "occ",
				"energy": -0.21949,
				"method": "rhf"
			},
			{
				"type": "unocc",
				"energy": -0.05795,
				"method": "rhf"
			},
			{
				"type": "unocc",
				"energy": -0.03378,
				"method": "rhf"
			},
			{
				"type": "unocc",
				"energy": -0.00936,
				"method": "rhf"
			},
			{
				"type": "unocc",
				"energy": -0.00324,
				"method": "rhf"
			},
			{
				"type": "unocc",
				"energy": 0.00598,
				"method": "rhf"
			}
		],
		"cosmo_sigma_profile": { 
			"-0.025": 0.0,
			"-0.024": 0.0,
			"-0.023": 0.0,
			"-0.022": 0.0,
			"-0.021": 0.0,
			"-0.02": 0.0,
			"-0.019": 0.0,
			"-0.018": 0.0,
			"-0.017": 0.0,
			"-0.016": 0.0,
			"-0.015": 0.0,
			"-0.014": 0.0,
			"-0.013": 0.0,
			"-0.012": 0.0,
			"-0.011": 0.0,
			"-0.01": 0.0,
			"-0.009": 0.0,
			"-0.008": 0.0,
			"-0.007": 1.46418525619,
			"-0.006": 19.1121707336,
			"-0.005": 26.161560593,
			"-0.004": 30.3623115235,
			"-0.003": 22.5954560056,
			"-0.002": 20.7533870406,
			"-0.001": 19.0053441818,
			"0.0": 19.1498384174,
			"0.001": 21.0994516415,
			"0.002": 25.3829770226,
			"0.003": 29.3042111619,
			"0.004": 33.6695174909,
			"0.005": 31.0943383978,
			"0.006": 8.94848971417,
			"0.007": 0.226221098606,
			"0.008": 0.0,
			"0.009": 0.0,
			"0.01": 0.0,
			"0.011": 0.0,
			"0.012": 0.0,
			"0.013": 0.0,
			"0.014": 0.0,
			"0.015": 0.0,
			"0.016": 0.0,
			"0.017": 0.0,
			"0.018": 0.0,
			"0.019": 0.0,
			"0.02": 0.0,
			"0.021": 0.0,
			"0.022": 0.0,
			"0.023": 0.0,
			"0.024": 0.0,
			"0.025": 0.0
		}
	}
}
