{
	 "smiles": "CCOC(=O)C1=C(OC=N1)C1=CC=CC=C1", 
	 "Tm": 306.65, 
	 "num_atms": 27, 
	 "gaussian": { 
		 "optdone": 1, 
		 "sigma_profile": "yes", 
		 "theory": "DFT", 
		 "functional": "B3LYP", 
		 "basiset": "6-31G**", 
		 "properties": { 
			 "R2extent": 4629.1718, 
			 "electric_dipole_moment_norm": 0.968767319845, 
			 "electric_quadrupole_moment_norm": 8.92687768371, 
			 "total_energy": -744.330848135, 
			 "HOMO_LUMO_gap": 0.16793, 
			 "cosmo_polarized_energy": -10.35, 
			 "cosmo_cavitation_energy": 31.59, 
			 "cosmo_dispersion_energy": -23.26, 
			 "cosmo_repulsion_energy": 1.8, 
			 "cosmo_total_nonelectrostatic_energy": 10.13, 
			 "SMD_solvation_energy": 6.02 
		},
		"coords": [
			{
				"x": -2.0890197306,
				"y": -2.1501518858,
				"z": 3.7864932423,
				"element": "C" 
			},
			{
				"x": -2.7169334983,
				"y": -2.5509739655,
				"z": 2.4597067126,
				"element": "C" 
			},
			{
				"x": -2.8800342948,
				"y": -1.4080377328,
				"z": 1.5880116775,
				"element": "O" 
			},
			{
				"x": -1.815760135,
				"y": -1.0684969007,
				"z": 0.8398380141,
				"element": "C" 
			},
			{
				"x": -0.7559117551,
				"y": -1.6747683671,
				"z": 0.866716314,
				"element": "O" 
			},
			{
				"x": -2.1083922472,
				"y": 0.1111753598,
				"z": -0.0011970285,
				"element": "C" 
			},
			{
				"x": -1.3103605252,
				"y": 0.8004527502,
				"z": -0.9056063201,
				"element": "C" 
			},
			{
				"x": -2.097873089,
				"y": 1.8166396189,
				"z": -1.3937073128,
				"element": "O" 
			},
			{
				"x": -3.2983113514,
				"y": 1.689791492,
				"z": -0.7732591444,
				"element": "C" 
			},
			{
				"x": -3.3672177379,
				"y": 0.7085416932,
				"z": 0.0552897497,
				"element": "N" 
			},
			{
				"x": 0.0460690724,
				"y": 0.7625673097,
				"z": -1.4555422304,
				"element": "C" 
			},
			{
				"x": 0.9799350326,
				"y": -0.2284306757,
				"z": -1.1004494846,
				"element": "C" 
			},
			{
				"x": 2.2577075409,
				"y": -0.2166292409,
				"z": -1.656724645,
				"element": "C" 
			},
			{
				"x": 2.6307363928,
				"y": 0.7707750337,
				"z": -2.5691883401,
				"element": "C" 
			},
			{
				"x": 1.7097635723,
				"y": 1.7582719765,
				"z": -2.9275001194,
				"element": "C" 
			},
			{
				"x": 0.4316155738,
				"y": 1.7573633326,
				"z": -2.3793820878,
				"element": "C" 
			},
			{
				"x": -1.0674753683,
				"y": -1.7925611301,
				"z": 3.6365536571,
				"element": "H" 
			},
			{
				"x": -2.0551547825,
				"y": -3.0155177016,
				"z": 4.4568864045,
				"element": "H" 
			},
			{
				"x": -2.6737551735,
				"y": -1.3624691653,
				"z": 4.2703175033,
				"element": "H" 
			},
			{
				"x": -3.7330396115,
				"y": -2.9282401236,
				"z": 2.5960432212,
				"element": "H" 
			},
			{
				"x": -2.113532552,
				"y": -3.3053110084,
				"z": 1.9491529082,
				"element": "H" 
			},
			{
				"x": -4.0585838855,
				"y": 2.4114344735,
				"z": -1.0337025511,
				"element": "H" 
			},
			{
				"x": 0.6949587728,
				"y": -0.9952546663,
				"z": -0.39234316,
				"element": "H" 
			},
			{
				"x": 2.9659216126,
				"y": -0.9892304601,
				"z": -1.3716409475,
				"element": "H" 
			},
			{
				"x": 3.6287158728,
				"y": 0.7725957469,
				"z": -2.9980444751,
				"element": "H" 
			},
			{
				"x": 1.9871167202,
				"y": 2.5329028534,
				"z": -3.6365062299,
				"element": "H" 
			},
			{
				"x": -0.275284425,
				"y": 2.5276613835,
				"z": -2.6636153277,
				"element": "H" 
			}
		],
		 "valence_orbital": [ 
			{
				"type": "occ",
				"energy": -0.29667,
				"method": "rhf"
			},
			{
				"type": "occ",
				"energy": -0.29227,
				"method": "rhf"
			},
			{
				"type": "occ",
				"energy": -0.27417,
				"method": "rhf"
			},
			{
				"type": "occ",
				"energy": -0.25412,
				"method": "rhf"
			},
			{
				"type": "occ",
				"energy": -0.22767,
				"method": "rhf"
			},
			{
				"type": "unocc",
				"energy": -0.05974,
				"method": "rhf"
			},
			{
				"type": "unocc",
				"energy": -0.00401,
				"method": "rhf"
			},
			{
				"type": "unocc",
				"energy": 0.00203,
				"method": "rhf"
			},
			{
				"type": "unocc",
				"energy": 0.02498,
				"method": "rhf"
			},
			{
				"type": "unocc",
				"energy": 0.09822,
				"method": "rhf"
			}
		],
		"cosmo_sigma_profile": { 
			"-0.025": 0.0,
			"-0.024": 0.0,
			"-0.023": 0.0,
			"-0.022": 0.0,
			"-0.021": 0.0,
			"-0.02": 0.0,
			"-0.019": 0.0,
			"-0.018": 0.0,
			"-0.017": 0.0,
			"-0.016": 0.0,
			"-0.015": 0.0,
			"-0.014": 0.0,
			"-0.013": 0.0,
			"-0.012": 0.540424210641,
			"-0.011": 2.40357125746,
			"-0.01": 1.30678209642,
			"-0.009": 1.95216798425,
			"-0.008": 1.13059246473,
			"-0.007": 1.86235227299,
			"-0.006": 9.73127202744,
			"-0.005": 14.1541043084,
			"-0.004": 22.4395604071,
			"-0.003": 22.9002200083,
			"-0.002": 25.085310051,
			"-0.001": 25.568010351,
			"0.0": 25.4409078415,
			"0.001": 16.6022057803,
			"0.002": 16.2966717972,
			"0.003": 16.6781278321,
			"0.004": 16.0125923923,
			"0.005": 8.21757909959,
			"0.006": 4.33531825847,
			"0.007": 3.05287478349,
			"0.008": 2.0500833362,
			"0.009": 3.81497535581,
			"0.01": 2.83300080528,
			"0.011": 2.96768908759,
			"0.012": 1.68875138358,
			"0.013": 0.935098308931,
			"0.014": 1.25823798213,
			"0.015": 1.24089802892,
			"0.016": 1.14292208416,
			"0.017": 0.0375585158088,
			"0.018": 0.0,
			"0.019": 0.0,
			"0.02": 0.0,
			"0.021": 0.0,
			"0.022": 0.0,
			"0.023": 0.0,
			"0.024": 0.0,
			"0.025": 0.0
		}
	}
}
