{
	 "smiles": "CC1=C(C(O)=O)C(=C(C)O1)S(=O)(=O)NCC1=CC=CS1", 
	 "Tm": 441.15, 
	 "num_atms": 33, 
	 "gaussian": { 
		 "optdone": 1, 
		 "sigma_profile": "yes", 
		 "theory": "DFT", 
		 "functional": "B3LYP", 
		 "basiset": "6-31G**", 
		 "properties": { 
			 "R2extent": 7700.5281, 
			 "electric_dipole_moment_norm": 4.18596461882, 
			 "electric_quadrupole_moment_norm": 18.0412183111, 
			 "total_energy": -1692.27038041, 
			 "HOMO_LUMO_gap": 0.21074, 
			 "cosmo_polarized_energy": -20.5, 
			 "cosmo_cavitation_energy": 40.56, 
			 "cosmo_dispersion_energy": -28.8, 
			 "cosmo_repulsion_energy": 2.14, 
			 "cosmo_total_nonelectrostatic_energy": 13.89, 
			 "SMD_solvation_energy": 8.06 
		},
		"coords": [
			{
				"x": -2.1101368316,
				"y": -2.4257650932,
				"z": 3.6948514955,
				"element": "C" 
			},
			{
				"x": -1.3968582062,
				"y": -1.5481967912,
				"z": 2.7315202619,
				"element": "C" 
			},
			{
				"x": -0.1460481601,
				"y": -1.5722081499,
				"z": 2.1762470722,
				"element": "C" 
			},
			{
				"x": 0.8815229475,
				"y": -2.566450955,
				"z": 2.5471219487,
				"element": "C" 
			},
			{
				"x": 2.1273620472,
				"y": -2.0597988958,
				"z": 2.4856341218,
				"element": "O" 
			},
			{
				"x": 0.6464927357,
				"y": -3.6990633624,
				"z": 2.9257272128,
				"element": "O" 
			},
			{
				"x": -0.0733376362,
				"y": -0.4090433218,
				"z": 1.3085593845,
				"element": "C" 
			},
			{
				"x": -1.2683794878,
				"y": 0.2500849861,
				"z": 1.4245189864,
				"element": "C" 
			},
			{
				"x": -1.8733973891,
				"y": 1.4965566374,
				"z": 0.883684343,
				"element": "C" 
			},
			{
				"x": -2.069725759,
				"y": -0.4491552655,
				"z": 2.2868279949,
				"element": "O" 
			},
			{
				"x": 1.3093862469,
				"y": -0.005174735,
				"z": 0.2606438474,
				"element": "S" 
			},
			{
				"x": 2.1833866392,
				"y": 0.9717943237,
				"z": 0.9132055337,
				"element": "O" 
			},
			{
				"x": 1.8322141744,
				"y": -1.2726077437,
				"z": -0.2574110015,
				"element": "O" 
			},
			{
				"x": 0.5712795396,
				"y": 0.8544349571,
				"z": -1.0078087158,
				"element": "N" 
			},
			{
				"x": 0.1581793725,
				"y": 0.0661645693,
				"z": -2.1926022803,
				"element": "C" 
			},
			{
				"x": -0.3260378974,
				"y": 0.9700531513,
				"z": -3.2854103459,
				"element": "C" 
			},
			{
				"x": 0.2169922585,
				"y": 1.1263174503,
				"z": -4.5345265268,
				"element": "C" 
			},
			{
				"x": -0.4937225666,
				"y": 2.0567602822,
				"z": -5.3525047247,
				"element": "C" 
			},
			{
				"x": -1.5708596473,
				"y": 2.602562091,
				"z": -4.7124444345,
				"element": "C" 
			},
			{
				"x": -1.7356704131,
				"y": 1.9886052093,
				"z": -3.0984619504,
				"element": "S" 
			},
			{
				"x": -3.0236202327,
				"y": -2.8276543962,
				"z": 3.2422676379,
				"element": "H" 
			},
			{
				"x": -2.4029050424,
				"y": -1.8669991285,
				"z": 4.5906205697,
				"element": "H" 
			},
			{
				"x": -1.4640936236,
				"y": -3.2580966002,
				"z": 3.9720463821,
				"element": "H" 
			},
			{
				"x": 2.7373265963,
				"y": -2.7856509455,
				"z": 2.6969174039,
				"element": "H" 
			},
			{
				"x": -2.7650006234,
				"y": 1.2708881277,
				"z": 0.2874952073,
				"element": "H" 
			},
			{
				"x": -1.159758542,
				"y": 2.0265111838,
				"z": 0.2574499824,
				"element": "H" 
			},
			{
				"x": -2.1859097923,
				"y": 2.1438228887,
				"z": 1.7102498218,
				"element": "H" 
			},
			{
				"x": 1.2103463144,
				"y": 1.6120055866,
				"z": -1.2451444185,
				"element": "H" 
			},
			{
				"x": 0.9800436815,
				"y": -0.5473125768,
				"z": -2.5785684502,
				"element": "H" 
			},
			{
				"x": -0.6303709862,
				"y": -0.620711829,
				"z": -1.8665337148,
				"element": "H" 
			},
			{
				"x": 1.0989684491,
				"y": 0.5849852276,
				"z": -4.8601511044,
				"element": "H" 
			},
			{
				"x": -0.2117028524,
				"y": 2.3075589247,
				"z": -6.3685610075,
				"element": "H" 
			},
			{
				"x": -2.2744653136,
				"y": 3.3338841929,
				"z": -5.0855605326,
				"element": "H" 
			}
		],
		 "valence_orbital": [ 
			{
				"type": "occ",
				"energy": -0.27901,
				"method": "rhf"
			},
			{
				"type": "occ",
				"energy": -0.27578,
				"method": "rhf"
			},
			{
				"type": "occ",
				"energy": -0.26094,
				"method": "rhf"
			},
			{
				"type": "occ",
				"energy": -0.24302,
				"method": "rhf"
			},
			{
				"type": "occ",
				"energy": -0.24015,
				"method": "rhf"
			},
			{
				"type": "unocc",
				"energy": -0.02941,
				"method": "rhf"
			},
			{
				"type": "unocc",
				"energy": -0.02825,
				"method": "rhf"
			},
			{
				"type": "unocc",
				"energy": -0.01434,
				"method": "rhf"
			},
			{
				"type": "unocc",
				"energy": 0.01948,
				"method": "rhf"
			},
			{
				"type": "unocc",
				"energy": 0.0488,
				"method": "rhf"
			}
		],
		"cosmo_sigma_profile": { 
			"-0.025": 0.0,
			"-0.024": 0.0,
			"-0.023": 0.0,
			"-0.022": 0.0,
			"-0.021": 0.0,
			"-0.02": 0.0,
			"-0.019": 0.254514419009,
			"-0.018": 0.995353936923,
			"-0.017": 0.966165349162,
			"-0.016": 0.83450882676,
			"-0.015": 0.653724385685,
			"-0.014": 1.2495351441,
			"-0.013": 2.17075288865,
			"-0.012": 1.09300928351,
			"-0.011": 1.19045263042,
			"-0.01": 1.62642304944,
			"-0.009": 2.30633875254,
			"-0.008": 3.09108127084,
			"-0.007": 7.26751112601,
			"-0.006": 19.9679406087,
			"-0.005": 20.8867336064,
			"-0.004": 22.9559836454,
			"-0.003": 27.8634785718,
			"-0.002": 34.1215234592,
			"-0.001": 22.9429410649,
			"0.0": 17.7887331669,
			"0.001": 18.3243071288,
			"0.002": 16.2747805835,
			"0.003": 14.9749013211,
			"0.004": 17.2410948793,
			"0.005": 14.3611769631,
			"0.006": 7.16634117766,
			"0.007": 4.40571624369,
			"0.008": 4.71409937224,
			"0.009": 8.30602837148,
			"0.01": 10.9039324212,
			"0.011": 13.5411152743,
			"0.012": 4.67998326117,
			"0.013": 0.00858166124776,
			"0.014": 0.0,
			"0.015": 0.0,
			"0.016": 0.0,
			"0.017": 0.0,
			"0.018": 0.0,
			"0.019": 0.0,
			"0.02": 0.0,
			"0.021": 0.0,
			"0.022": 0.0,
			"0.023": 0.0,
			"0.024": 0.0,
			"0.025": 0.0
		}
	}
}
