{
	 "smiles": "NC1=NON=C1C1=CC=C(F)C=C1", 
	 "Tm": 399.15, 
	 "num_atms": 19, 
	 "gaussian": { 
		 "optdone": 1, 
		 "sigma_profile": "yes", 
		 "theory": "DFT", 
		 "functional": "B3LYP", 
		 "basiset": "6-31G**", 
		 "properties": { 
			 "R2extent": 2796.9723, 
			 "electric_dipole_moment_norm": 3.89044539095, 
			 "electric_quadrupole_moment_norm": 20.4996130395, 
			 "total_energy": -647.698453785, 
			 "HOMO_LUMO_gap": 0.18948, 
			 "cosmo_polarized_energy": -12.84, 
			 "cosmo_cavitation_energy": 24.63, 
			 "cosmo_dispersion_energy": -18.23, 
			 "cosmo_repulsion_energy": 1.41, 
			 "cosmo_total_nonelectrostatic_energy": 7.81, 
			 "SMD_solvation_energy": 4.39 
		},
		"coords": [
			{
				"x": 3.1754831359,
				"y": -1.1320786985,
				"z": 0.2257106245,
				"element": "N" 
			},
			{
				"x": 2.0654063312,
				"y": -1.9075659096,
				"z": -0.0616681839,
				"element": "C" 
			},
			{
				"x": 2.1190057301,
				"y": -3.2103389556,
				"z": -0.1856728312,
				"element": "N" 
			},
			{
				"x": 0.833118263,
				"y": -3.5950916133,
				"z": -0.5258065185,
				"element": "O" 
			},
			{
				"x": -0.0061532092,
				"y": -2.5222822853,
				"z": -0.5910211253,
				"element": "N" 
			},
			{
				"x": 0.7168680793,
				"y": -1.4620893265,
				"z": -0.3171940091,
				"element": "C" 
			},
			{
				"x": 0.1502271311,
				"y": -0.1066233378,
				"z": -0.2781279387,
				"element": "C" 
			},
			{
				"x": 0.9459252579,
				"y": 1.0194646852,
				"z": -0.5487164759,
				"element": "C" 
			},
			{
				"x": 0.3980511135,
				"y": 2.3011057462,
				"z": -0.5214770944,
				"element": "C" 
			},
			{
				"x": -0.9521037732,
				"y": 2.4455620339,
				"z": -0.2253917388,
				"element": "C" 
			},
			{
				"x": -1.4858745935,
				"y": 3.6815367975,
				"z": -0.1933182479,
				"element": "F" 
			},
			{
				"x": -1.7700243654,
				"y": 1.3502772442,
				"z": 0.0391894388,
				"element": "C" 
			},
			{
				"x": -1.2133998152,
				"y": 0.0761139536,
				"z": 0.0131002632,
				"element": "C" 
			},
			{
				"x": 2.9895113589,
				"y": -0.3672969644,
				"z": 0.8625216116,
				"element": "H" 
			},
			{
				"x": 3.9727772915,
				"y": -1.6837062702,
				"z": 0.5193283069,
				"element": "H" 
			},
			{
				"x": 1.9912050755,
				"y": 0.892720139,
				"z": -0.8111786066,
				"element": "H" 
			},
			{
				"x": 0.997606508,
				"y": 3.1792133761,
				"z": -0.7347635776,
				"element": "H" 
			},
			{
				"x": -2.8190528154,
				"y": 1.5072292697,
				"z": 0.2650939848,
				"element": "H" 
			},
			{
				"x": -1.8304767039,
				"y": -0.7917498842,
				"z": 0.2190921181,
				"element": "H" 
			}
		],
		 "valence_orbital": [ 
			{
				"type": "occ",
				"energy": -0.31702,
				"method": "rhf"
			},
			{
				"type": "occ",
				"energy": -0.30879,
				"method": "rhf"
			},
			{
				"type": "occ",
				"energy": -0.27648,
				"method": "rhf"
			},
			{
				"type": "occ",
				"energy": -0.26267,
				"method": "rhf"
			},
			{
				"type": "occ",
				"energy": -0.24145,
				"method": "rhf"
			},
			{
				"type": "unocc",
				"energy": -0.05197,
				"method": "rhf"
			},
			{
				"type": "unocc",
				"energy": -0.02753,
				"method": "rhf"
			},
			{
				"type": "unocc",
				"energy": -0.00659,
				"method": "rhf"
			},
			{
				"type": "unocc",
				"energy": 0.05477,
				"method": "rhf"
			},
			{
				"type": "unocc",
				"energy": 0.07272,
				"method": "rhf"
			}
		],
		"cosmo_sigma_profile": { 
			"-0.025": 0.0,
			"-0.024": 0.0,
			"-0.023": 0.0,
			"-0.022": 0.0,
			"-0.021": 0.0,
			"-0.02": 0.0,
			"-0.019": 0.0,
			"-0.018": 0.0,
			"-0.017": 0.0,
			"-0.016": 0.0,
			"-0.015": 0.0522487615774,
			"-0.014": 1.77235417632,
			"-0.013": 2.76317467814,
			"-0.012": 2.92398560554,
			"-0.011": 2.73120697468,
			"-0.01": 2.78515444532,
			"-0.009": 1.90696908541,
			"-0.008": 3.85272967626,
			"-0.007": 7.38016349456,
			"-0.006": 8.28604952196,
			"-0.005": 9.18605355032,
			"-0.004": 7.71607043805,
			"-0.003": 9.62474892459,
			"-0.002": 10.2497472641,
			"-0.001": 11.5131058612,
			"0.0": 15.7678677977,
			"0.001": 14.7286811569,
			"0.002": 19.1027978093,
			"0.003": 14.9669044345,
			"0.004": 13.7808506179,
			"0.005": 5.11669375516,
			"0.006": 8.84228054846,
			"0.007": 8.39298642412,
			"0.008": 3.88792118911,
			"0.009": 3.34959539956,
			"0.01": 2.74412665054,
			"0.011": 2.75102605655,
			"0.012": 1.66454333924,
			"0.013": 0.644448759009,
			"0.014": 0.0,
			"0.015": 0.0,
			"0.016": 0.0,
			"0.017": 0.0,
			"0.018": 0.0,
			"0.019": 0.0,
			"0.02": 0.0,
			"0.021": 0.0,
			"0.022": 0.0,
			"0.023": 0.0,
			"0.024": 0.0,
			"0.025": 0.0
		}
	}
}
