{
	 "smiles": "NC1=NC(=CS1)C1=CC=C(O)C=C1", 
	 "Tm": 480.15, 
	 "num_atms": 21, 
	 "gaussian": { 
		 "optdone": 1, 
		 "sigma_profile": "yes", 
		 "theory": "DFT", 
		 "functional": "B3LYP", 
		 "basiset": "6-31G**", 
		 "properties": { 
			 "R2extent": 3706.7314, 
			 "electric_dipole_moment_norm": 1.65456548374, 
			 "electric_quadrupole_moment_norm": 23.9596691463, 
			 "total_energy": -930.689889644, 
			 "HOMO_LUMO_gap": 0.16958, 
			 "cosmo_polarized_energy": -16.05, 
			 "cosmo_cavitation_energy": 27.17, 
			 "cosmo_dispersion_energy": -20.99, 
			 "cosmo_repulsion_energy": 1.61, 
			 "cosmo_total_nonelectrostatic_energy": 7.78, 
			 "SMD_solvation_energy": 3.59 
		},
		"coords": [
			{
				"x": 1.7337294323,
				"y": 3.6375220956,
				"z": -0.9844627073,
				"element": "N" 
			},
			{
				"x": 1.828610459,
				"y": 2.265687477,
				"z": -0.8969969993,
				"element": "C" 
			},
			{
				"x": 0.8758034124,
				"y": 1.4972894744,
				"z": -0.4652051611,
				"element": "N" 
			},
			{
				"x": 1.2774521371,
				"y": 0.1672306953,
				"z": -0.4095610397,
				"element": "C" 
			},
			{
				"x": 2.5626298074,
				"y": -0.0633378559,
				"z": -0.8217648895,
				"element": "C" 
			},
			{
				"x": 3.3393801119,
				"y": 1.430203934,
				"z": -1.2843392174,
				"element": "S" 
			},
			{
				"x": 0.3103561848,
				"y": -0.8417274619,
				"z": 0.0602439477,
				"element": "C" 
			},
			{
				"x": 0.6437892701,
				"y": -2.2002980174,
				"z": 0.177129618,
				"element": "C" 
			},
			{
				"x": -0.2856585204,
				"y": -3.136399296,
				"z": 0.6202468114,
				"element": "C" 
			},
			{
				"x": -1.5813531438,
				"y": -2.7304746494,
				"z": 0.9609669575,
				"element": "C" 
			},
			{
				"x": -2.5367887301,
				"y": -3.6021666905,
				"z": 1.4020889308,
				"element": "O" 
			},
			{
				"x": -1.9318374146,
				"y": -1.3807651873,
				"z": 0.8534325795,
				"element": "C" 
			},
			{
				"x": -0.9958439591,
				"y": -0.4543233939,
				"z": 0.4092897108,
				"element": "C" 
			},
			{
				"x": 2.2690728593,
				"y": 4.0835081343,
				"z": -1.7158356957,
				"element": "H" 
			},
			{
				"x": 0.779021303,
				"y": 3.966773808,
				"z": -0.9205479951,
				"element": "H" 
			},
			{
				"x": 3.1011945544,
				"y": -0.9956189844,
				"z": -0.8957445226,
				"element": "H" 
			},
			{
				"x": 1.643082313,
				"y": -2.5412818335,
				"z": -0.0761029575,
				"element": "H" 
			},
			{
				"x": -0.0037338373,
				"y": -4.1842373205,
				"z": 0.703611738,
				"element": "H" 
			},
			{
				"x": -2.1629562098,
				"y": -4.4923756345,
				"z": 1.4305089321,
				"element": "H" 
			},
			{
				"x": -2.9386190624,
				"y": -1.0776260663,
				"z": 1.1218134701,
				"element": "H" 
			},
			{
				"x": -1.263730967,
				"y": 0.592616773,
				"z": 0.3256284894,
				"element": "H" 
			}
		],
		 "valence_orbital": [ 
			{
				"type": "occ",
				"energy": -0.27539,
				"method": "rhf"
			},
			{
				"type": "occ",
				"energy": -0.26986,
				"method": "rhf"
			},
			{
				"type": "occ",
				"energy": -0.2476,
				"method": "rhf"
			},
			{
				"type": "occ",
				"energy": -0.23185,
				"method": "rhf"
			},
			{
				"type": "occ",
				"energy": -0.19014,
				"method": "rhf"
			},
			{
				"type": "unocc",
				"energy": -0.02056,
				"method": "rhf"
			},
			{
				"type": "unocc",
				"energy": 0.00334,
				"method": "rhf"
			},
			{
				"type": "unocc",
				"energy": 0.01255,
				"method": "rhf"
			},
			{
				"type": "unocc",
				"energy": 0.02343,
				"method": "rhf"
			},
			{
				"type": "unocc",
				"energy": 0.07169,
				"method": "rhf"
			}
		],
		"cosmo_sigma_profile": { 
			"-0.025": 0.0,
			"-0.024": 0.0,
			"-0.023": 0.0,
			"-0.022": 0.0,
			"-0.021": 0.0,
			"-0.02": 0.0,
			"-0.019": 0.0,
			"-0.018": 0.437928761108,
			"-0.017": 1.04699280022,
			"-0.016": 1.04000996322,
			"-0.015": 1.65287022369,
			"-0.014": 2.2638576857,
			"-0.013": 4.20851814501,
			"-0.012": 2.61307021805,
			"-0.011": 4.0736511363,
			"-0.01": 4.21173462121,
			"-0.009": 3.91636734552,
			"-0.008": 4.45706478945,
			"-0.007": 6.48296525447,
			"-0.006": 7.4411089039,
			"-0.005": 7.79808994859,
			"-0.004": 9.65815257976,
			"-0.003": 8.87167585227,
			"-0.002": 8.33156361704,
			"-0.001": 8.61144013774,
			"0.0": 9.41357863415,
			"0.001": 11.3930882123,
			"0.002": 15.4264169281,
			"0.003": 17.5920462072,
			"0.004": 27.1722222785,
			"0.005": 21.740206507,
			"0.006": 8.47959879029,
			"0.007": 4.71714020445,
			"0.008": 4.25479147981,
			"0.009": 3.126134102,
			"0.01": 3.18568242108,
			"0.011": 4.97328476835,
			"0.012": 0.994118936455,
			"0.013": 0.0,
			"0.014": 0.0,
			"0.015": 0.0,
			"0.016": 0.0,
			"0.017": 0.0,
			"0.018": 0.0,
			"0.019": 0.0,
			"0.02": 0.0,
			"0.021": 0.0,
			"0.022": 0.0,
			"0.023": 0.0,
			"0.024": 0.0,
			"0.025": 0.0
		}
	}
}
