{
	 "smiles": "FC1=CC(Br)=C(C=C1)C(=O)NC1=CC2=C(NC=C2)C=C1", 
	 "Tm": 459.15, 
	 "num_atms": 30, 
	 "gaussian": { 
		 "optdone": 1, 
		 "sigma_profile": "yes", 
		 "theory": "DFT", 
		 "functional": "B3LYP", 
		 "basiset": "6-31G**", 
		 "properties": { 
			 "R2extent": 9500.9575, 
			 "electric_dipole_moment_norm": 2.65885905982, 
			 "electric_quadrupole_moment_norm": 19.433304216, 
			 "total_energy": -3433.6040283, 
			 "HOMO_LUMO_gap": 0.15427, 
			 "cosmo_polarized_energy": -15.2, 
			 "cosmo_cavitation_energy": 37.54, 
			 "cosmo_dispersion_energy": -27.64, 
			 "cosmo_repulsion_energy": 2.04, 
			 "cosmo_total_nonelectrostatic_energy": 11.94, 
			 "SMD_solvation_energy": 6.08 
		},
		"coords": [
			{
				"x": -0.8596757942,
				"y": 5.9789017686,
				"z": -3.2641414097,
				"element": "F" 
			},
			{
				"x": -0.600401953,
				"y": 4.9628883203,
				"z": -2.422628138,
				"element": "C" 
			},
			{
				"x": -1.2064041012,
				"y": 3.7358800917,
				"z": -2.6551355075,
				"element": "C" 
			},
			{
				"x": -0.9343366344,
				"y": 2.6775258428,
				"z": -1.7873680993,
				"element": "C" 
			},
			{
				"x": -1.8811677523,
				"y": 1.0492723844,
				"z": -2.1825600694,
				"element": "Br" 
			},
			{
				"x": -0.0687248798,
				"y": 2.8225226373,
				"z": -0.6900044287,
				"element": "C" 
			},
			{
				"x": 0.4946188609,
				"y": 4.097578371,
				"z": -0.492000486,
				"element": "C" 
			},
			{
				"x": 0.2512563875,
				"y": 5.1666797505,
				"z": -1.3433477246,
				"element": "C" 
			},
			{
				"x": 0.3324199185,
				"y": 1.8075539509,
				"z": 0.3663832006,
				"element": "C" 
			},
			{
				"x": 0.5995919595,
				"y": 2.2018388079,
				"z": 1.4994868363,
				"element": "O" 
			},
			{
				"x": 0.4497051908,
				"y": 0.5114611872,
				"z": -0.0442499798,
				"element": "N" 
			},
			{
				"x": 0.8174519387,
				"y": -0.6351609091,
				"z": 0.7041653488,
				"element": "C" 
			},
			{
				"x": 0.8316116622,
				"y": -1.8512522425,
				"z": 0.0181812155,
				"element": "C" 
			},
			{
				"x": 1.1875217187,
				"y": -3.0244228349,
				"z": 0.6988409298,
				"element": "C" 
			},
			{
				"x": 1.5264290215,
				"y": -2.9419341828,
				"z": 2.0775724247,
				"element": "C" 
			},
			{
				"x": 1.8335642607,
				"y": -4.2205239346,
				"z": 2.5007796257,
				"element": "N" 
			},
			{
				"x": 1.6982595405,
				"y": -5.0951832071,
				"z": 1.4391721275,
				"element": "C" 
			},
			{
				"x": 1.3059830807,
				"y": -4.4060667447,
				"z": 0.321253577,
				"element": "C" 
			},
			{
				"x": 1.5136796028,
				"y": -1.7266579668,
				"z": 2.7664756232,
				"element": "C" 
			},
			{
				"x": 1.1592054069,
				"y": -0.5738862935,
				"z": 2.0779366096,
				"element": "C" 
			},
			{
				"x": -1.8838082668,
				"y": 3.6175153729,
				"z": -3.4912394974,
				"element": "H" 
			},
			{
				"x": 1.1317741586,
				"y": 4.2204004316,
				"z": 0.3764024899,
				"element": "H" 
			},
			{
				"x": 0.7006205147,
				"y": 6.139914633,
				"z": -1.1818263132,
				"element": "H" 
			},
			{
				"x": 0.1937800193,
				"y": 0.3184441766,
				"z": -1.0019997252,
				"element": "H" 
			},
			{
				"x": 0.5684105429,
				"y": -1.8880490781,
				"z": -1.0364941915,
				"element": "H" 
			},
			{
				"x": 2.1101901528,
				"y": -4.4758345807,
				"z": 3.4342555691,
				"element": "H" 
			},
			{
				"x": 1.8954716488,
				"y": -6.1496334108,
				"z": 1.5702146654,
				"element": "H" 
			},
			{
				"x": 1.1231024764,
				"y": -4.8320876715,
				"z": -0.6548412685,
				"element": "H" 
			},
			{
				"x": 1.7737282029,
				"y": -1.6713108942,
				"z": 3.8198549101,
				"element": "H" 
			},
			{
				"x": 1.1385431156,
				"y": 0.3835262247,
				"z": 2.5769616853,
				"element": "H" 
			}
		],
		 "valence_orbital": [ 
			{
				"type": "occ",
				"energy": -0.27086,
				"method": "rhf"
			},
			{
				"type": "occ",
				"energy": -0.26037,
				"method": "rhf"
			},
			{
				"type": "occ",
				"energy": -0.25044,
				"method": "rhf"
			},
			{
				"type": "occ",
				"energy": -0.20698,
				"method": "rhf"
			},
			{
				"type": "occ",
				"energy": -0.19771,
				"method": "rhf"
			},
			{
				"type": "unocc",
				"energy": -0.04344,
				"method": "rhf"
			},
			{
				"type": "unocc",
				"energy": -0.0291,
				"method": "rhf"
			},
			{
				"type": "unocc",
				"energy": -0.01409,
				"method": "rhf"
			},
			{
				"type": "unocc",
				"energy": -0.00854,
				"method": "rhf"
			},
			{
				"type": "unocc",
				"energy": 0.0236,
				"method": "rhf"
			}
		],
		"cosmo_sigma_profile": { 
			"-0.025": 0.0,
			"-0.024": 0.0,
			"-0.023": 0.0,
			"-0.022": 0.0,
			"-0.021": 0.0,
			"-0.02": 0.0,
			"-0.019": 0.0,
			"-0.018": 0.0,
			"-0.017": 0.0,
			"-0.016": 0.525725538297,
			"-0.015": 1.48620260722,
			"-0.014": 1.53065560559,
			"-0.013": 0.980221475483,
			"-0.012": 1.55200906794,
			"-0.011": 1.63075470637,
			"-0.01": 3.38510904467,
			"-0.009": 3.72649710235,
			"-0.008": 7.53729776525,
			"-0.007": 9.07984528119,
			"-0.006": 13.3375462949,
			"-0.005": 13.613149173,
			"-0.004": 12.7712857544,
			"-0.003": 16.1634574733,
			"-0.002": 17.8527652488,
			"-0.001": 23.3778622309,
			"0.0": 27.9995003552,
			"0.001": 26.7115024268,
			"0.002": 22.3904858403,
			"0.003": 26.1311651429,
			"0.004": 23.1082606904,
			"0.005": 17.1241294964,
			"0.006": 16.9083104352,
			"0.007": 5.15817664539,
			"0.008": 1.39022300765,
			"0.009": 2.07009823669,
			"0.01": 1.61052061462,
			"0.011": 1.89148018487,
			"0.012": 2.58477954005,
			"0.013": 2.2894703193,
			"0.014": 0.210115506379,
			"0.015": 0.0,
			"0.016": 0.0,
			"0.017": 0.0,
			"0.018": 0.0,
			"0.019": 0.0,
			"0.02": 0.0,
			"0.021": 0.0,
			"0.022": 0.0,
			"0.023": 0.0,
			"0.024": 0.0,
			"0.025": 0.0
		}
	}
}
