{
	 "smiles": "OC(=O)CSC1=C2SC(=CC2=NC=N1)C1=CC=C(Br)C=C1", 
	 "Tm": 290.15, 
	 "num_atms": 30, 
	 "gaussian": { 
		 "optdone": 1, 
		 "sigma_profile": "yes", 
		 "theory": "DFT", 
		 "functional": "B3LYP", 
		 "basiset": "6-31G**", 
		 "properties": { 
			 "R2extent": 16882.8867, 
			 "electric_dipole_moment_norm": 1.33574228427, 
			 "electric_quadrupole_moment_norm": 15.4702994289, 
			 "total_energy": -4166.65790046, 
			 "HOMO_LUMO_gap": 0.15986, 
			 "cosmo_polarized_energy": -16.46, 
			 "cosmo_cavitation_energy": 41.38, 
			 "cosmo_dispersion_energy": -31.07, 
			 "cosmo_repulsion_energy": 2.29, 
			 "cosmo_total_nonelectrostatic_energy": 12.6, 
			 "SMD_solvation_energy": 3.86 
		},
		"coords": [
			{
				"x": 3.8510499524,
				"y": 2.4416296846,
				"z": 6.3007360018,
				"element": "O" 
			},
			{
				"x": 3.4159663911,
				"y": 1.4482148635,
				"z": 5.4903284344,
				"element": "C" 
			},
			{
				"x": 2.386231711,
				"y": 0.846659951,
				"z": 5.6700718201,
				"element": "O" 
			},
			{
				"x": 4.4369593437,
				"y": 1.2147292165,
				"z": 4.3851583578,
				"element": "C" 
			},
			{
				"x": 3.8755831447,
				"y": 0.1047703876,
				"z": 3.0634181682,
				"element": "S" 
			},
			{
				"x": 2.7234290024,
				"y": 1.1617507163,
				"z": 2.2277783354,
				"element": "C" 
			},
			{
				"x": 2.0020176299,
				"y": 0.6866274936,
				"z": 1.1212174688,
				"element": "C" 
			},
			{
				"x": 1.9984059157,
				"y": -0.8776321627,
				"z": 0.3491115388,
				"element": "S" 
			},
			{
				"x": 0.8062045694,
				"y": -0.3195030077,
				"z": -0.8372825736,
				"element": "C" 
			},
			{
				"x": 0.4403186578,
				"y": 0.9818827838,
				"z": -0.6248818655,
				"element": "C" 
			},
			{
				"x": 1.1084483548,
				"y": 1.5820561887,
				"z": 0.4912305982,
				"element": "C" 
			},
			{
				"x": 0.9414326632,
				"y": 2.8529304347,
				"z": 0.9202608239,
				"element": "N" 
			},
			{
				"x": 1.673816885,
				"y": 3.185558068,
				"z": 1.973243168,
				"element": "C" 
			},
			{
				"x": 2.5516913518,
				"y": 2.4139499733,
				"z": 2.6465138564,
				"element": "N" 
			},
			{
				"x": 0.3238942764,
				"y": -1.2339998373,
				"z": -1.8796422528,
				"element": "C" 
			},
			{
				"x": -0.9586376636,
				"y": -1.0623927375,
				"z": -2.4320168543,
				"element": "C" 
			},
			{
				"x": -1.4295929668,
				"y": -1.9075131534,
				"z": -3.432103674,
				"element": "C" 
			},
			{
				"x": -0.6182815033,
				"y": -2.9474321991,
				"z": -3.886512282,
				"element": "C" 
			},
			{
				"x": -1.2604476479,
				"y": -4.113765522,
				"z": -5.2525685755,
				"element": "Br" 
			},
			{
				"x": 0.6536564449,
				"y": -3.1476721654,
				"z": -3.3524663181,
				"element": "C" 
			},
			{
				"x": 1.1171642282,
				"y": -2.2920312814,
				"z": -2.3564613536,
				"element": "C" 
			},
			{
				"x": 3.1762715669,
				"y": 2.5413056514,
				"z": 6.993240093,
				"element": "H" 
			},
			{
				"x": 5.3238452691,
				"y": 0.7393420352,
				"z": 4.8161658835,
				"element": "H" 
			},
			{
				"x": 4.7337373335,
				"y": 2.1765022772,
				"z": 3.9652543203,
				"element": "H" 
			},
			{
				"x": -0.2565529892,
				"y": 1.5291199684,
				"z": -1.2469404912,
				"element": "H" 
			},
			{
				"x": 1.5624510622,
				"y": 4.201089221,
				"z": 2.3471888012,
				"element": "H" 
			},
			{
				"x": -1.603075522,
				"y": -0.2727274932,
				"z": -2.0597382693,
				"element": "H" 
			},
			{
				"x": -2.421131536,
				"y": -1.7678636419,
				"z": -3.847175255,
				"element": "H" 
			},
			{
				"x": 1.2770363762,
				"y": -3.9568054718,
				"z": -3.7150453684,
				"element": "H" 
			},
			{
				"x": 2.1181076987,
				"y": -2.4389802412,
				"z": -1.9617825365,
				"element": "H" 
			}
		],
		 "valence_orbital": [ 
			{
				"type": "occ",
				"energy": -0.27768,
				"method": "rhf"
			},
			{
				"type": "occ",
				"energy": -0.26874,
				"method": "rhf"
			},
			{
				"type": "occ",
				"energy": -0.26104,
				"method": "rhf"
			},
			{
				"type": "occ",
				"energy": -0.23972,
				"method": "rhf"
			},
			{
				"type": "occ",
				"energy": -0.23388,
				"method": "rhf"
			},
			{
				"type": "unocc",
				"energy": -0.07402,
				"method": "rhf"
			},
			{
				"type": "unocc",
				"energy": -0.0309,
				"method": "rhf"
			},
			{
				"type": "unocc",
				"energy": -0.02787,
				"method": "rhf"
			},
			{
				"type": "unocc",
				"energy": -0.01862,
				"method": "rhf"
			},
			{
				"type": "unocc",
				"energy": -0.00657,
				"method": "rhf"
			}
		],
		"cosmo_sigma_profile": { 
			"-0.025": 0.0,
			"-0.024": 0.0,
			"-0.023": 0.0,
			"-0.022": 0.0,
			"-0.021": 0.0,
			"-0.02": 0.0,
			"-0.019": 0.260204489715,
			"-0.018": 0.896490429827,
			"-0.017": 0.977155789217,
			"-0.016": 0.981444723908,
			"-0.015": 0.670700998221,
			"-0.014": 0.34283577976,
			"-0.013": 0.451198316843,
			"-0.012": 1.4678210376,
			"-0.011": 0.874026560774,
			"-0.01": 2.92267990073,
			"-0.009": 3.49752173329,
			"-0.008": 8.38342947897,
			"-0.007": 15.793335814,
			"-0.006": 14.715625958,
			"-0.005": 13.885406958,
			"-0.004": 13.5399632161,
			"-0.003": 13.7457182095,
			"-0.002": 19.7523472626,
			"-0.001": 29.6551008034,
			"0.0": 34.5918600915,
			"0.001": 33.4119013097,
			"0.002": 36.1315347416,
			"0.003": 25.4761173004,
			"0.004": 19.3003473988,
			"0.005": 9.99583907663,
			"0.006": 8.33927657318,
			"0.007": 6.07410342053,
			"0.008": 4.32414435198,
			"0.009": 4.10444361262,
			"0.01": 3.85353105024,
			"0.011": 6.02917603385,
			"0.012": 3.48883879032,
			"0.013": 0.837368513817,
			"0.014": 0.986509346643,
			"0.015": 0.74457206729,
			"0.016": 0.0270225564877,
			"0.017": 0.0,
			"0.018": 0.0,
			"0.019": 0.0,
			"0.02": 0.0,
			"0.021": 0.0,
			"0.022": 0.0,
			"0.023": 0.0,
			"0.024": 0.0,
			"0.025": 0.0
		}
	}
}
