{
	 "smiles": "CC(=O)CC(C)=O", 
	 "Tm": 250.15, 
	 "num_atms": 15, 
	 "gaussian": { 
		 "optdone": 1, 
		 "sigma_profile": "yes", 
		 "theory": "DFT", 
		 "functional": "B3LYP", 
		 "basiset": "6-31G**", 
		 "properties": { 
			 "R2extent": 1312.7975, 
			 "electric_dipole_moment_norm": 1.49732766621, 
			 "electric_quadrupole_moment_norm": 12.4960823173, 
			 "total_energy": -345.799576593, 
			 "HOMO_LUMO_gap": 0.20576, 
			 "cosmo_polarized_energy": -9.43, 
			 "cosmo_cavitation_energy": 19.09, 
			 "cosmo_dispersion_energy": -13.41, 
			 "cosmo_repulsion_energy": 1.15, 
			 "cosmo_total_nonelectrostatic_energy": 6.84, 
			 "SMD_solvation_energy": 5.01 
		},
		"coords": [
			{
				"x": -1.0298367206,
				"y": 1.1785652647,
				"z": -2.8018477735,
				"element": "C" 
			},
			{
				"x": -1.0223684435,
				"y": 0.031797572,
				"z": -1.8162281192,
				"element": "C" 
			},
			{
				"x": -1.7118571789,
				"y": 0.0065509704,
				"z": -0.8156922066,
				"element": "O" 
			},
			{
				"x": -0.0272965876,
				"y": -1.1018112332,
				"z": -2.1117556757,
				"element": "C" 
			},
			{
				"x": 1.3004178622,
				"y": -0.7429835042,
				"z": -1.4254467645,
				"element": "C" 
			},
			{
				"x": 1.4566918923,
				"y": -1.2190800181,
				"z": 0.0012474778,
				"element": "C" 
			},
			{
				"x": 2.134371536,
				"y": -0.0717097569,
				"z": -2.0007617007,
				"element": "O" 
			},
			{
				"x": -0.0028870777,
				"y": 1.5117018559,
				"z": -2.9894446968,
				"element": "H" 
			},
			{
				"x": -1.6378798245,
				"y": 1.9999477586,
				"z": -2.4207024648,
				"element": "H" 
			},
			{
				"x": -1.4343637366,
				"y": 0.8384496228,
				"z": -3.7628631936,
				"element": "H" 
			},
			{
				"x": -0.4384938954,
				"y": -2.0298278279,
				"z": -1.7079247946,
				"element": "H" 
			},
			{
				"x": 0.15711729,
				"y": -1.1911429028,
				"z": -3.1847757663,
				"element": "H" 
			},
			{
				"x": 1.5411874698,
				"y": -2.3124201509,
				"z": 0.0197415834,
				"element": "H" 
			},
			{
				"x": 2.3464353843,
				"y": -0.7771095932,
				"z": 0.4514296072,
				"element": "H" 
			},
			{
				"x": 0.5615620303,
				"y": -0.9598280573,
				"z": 0.5777244877,
				"element": "H" 
			}
		],
		 "valence_orbital": [ 
			{
				"type": "occ",
				"energy": -0.37776,
				"method": "rhf"
			},
			{
				"type": "occ",
				"energy": -0.36472,
				"method": "rhf"
			},
			{
				"type": "occ",
				"energy": -0.36043,
				"method": "rhf"
			},
			{
				"type": "occ",
				"energy": -0.26374,
				"method": "rhf"
			},
			{
				"type": "occ",
				"energy": -0.25056,
				"method": "rhf"
			},
			{
				"type": "unocc",
				"energy": -0.0448,
				"method": "rhf"
			},
			{
				"type": "unocc",
				"energy": 0.00157,
				"method": "rhf"
			},
			{
				"type": "unocc",
				"energy": 0.09335,
				"method": "rhf"
			},
			{
				"type": "unocc",
				"energy": 0.11188,
				"method": "rhf"
			},
			{
				"type": "unocc",
				"energy": 0.13734,
				"method": "rhf"
			}
		],
		"cosmo_sigma_profile": { 
			"-0.025": 0.0,
			"-0.024": 0.0,
			"-0.023": 0.0,
			"-0.022": 0.0,
			"-0.021": 0.0,
			"-0.02": 0.0,
			"-0.019": 0.0,
			"-0.018": 0.0,
			"-0.017": 0.0,
			"-0.016": 0.0,
			"-0.015": 0.0,
			"-0.014": 0.0,
			"-0.013": 0.0,
			"-0.012": 0.0,
			"-0.011": 0.0,
			"-0.01": 0.0,
			"-0.009": 0.0,
			"-0.008": 0.0392894649418,
			"-0.007": 7.44969159595,
			"-0.006": 11.1653841028,
			"-0.005": 13.7772919169,
			"-0.004": 15.9250915139,
			"-0.003": 18.0297407561,
			"-0.002": 16.4869956031,
			"-0.001": 14.436564271,
			"0.0": 5.4497260154,
			"0.001": 3.91769745692,
			"0.002": 3.57732056491,
			"0.003": 2.80349450588,
			"0.004": 2.90114130784,
			"0.005": 2.98845488111,
			"0.006": 2.56915935793,
			"0.007": 2.45016649216,
			"0.008": 3.04793563051,
			"0.009": 3.93743537471,
			"0.01": 4.12338612374,
			"0.011": 7.47350133736,
			"0.012": 6.44668006742,
			"0.013": 1.07847442047,
			"0.014": 0.0,
			"0.015": 0.0,
			"0.016": 0.0,
			"0.017": 0.0,
			"0.018": 0.0,
			"0.019": 0.0,
			"0.02": 0.0,
			"0.021": 0.0,
			"0.022": 0.0,
			"0.023": 0.0,
			"0.024": 0.0,
			"0.025": 0.0
		}
	}
}
