{
	 "smiles": "[O-][N+](=O)C1=CC(=C(CC(=O)C2=CC=CC=C2)C=C1CC(=O)C1=CC=CC=C1)[N+]([O-])=O", 
	 "Tm": 443.15, 
	 "num_atms": 46, 
	 "gaussian": { 
		 "optdone": 1, 
		 "sigma_profile": "yes", 
		 "theory": "DFT", 
		 "functional": "B3LYP", 
		 "basiset": "6-31G**", 
		 "properties": { 
			 "R2extent": 15803.9608, 
			 "electric_dipole_moment_norm": 4.95186011313, 
			 "electric_quadrupole_moment_norm": 34.0975650019, 
			 "total_energy": -1408.62672216, 
			 "HOMO_LUMO_gap": 0.15261, 
			 "cosmo_polarized_energy": -20.49, 
			 "cosmo_cavitation_energy": 52.26, 
			 "cosmo_dispersion_energy": -35.44, 
			 "cosmo_repulsion_energy": 2.62, 
			 "cosmo_total_nonelectrostatic_energy": 19.44, 
			 "SMD_solvation_energy": 13.36 
		},
		"coords": [
			{
				"x": -3.9499002611,
				"y": -0.6967194535,
				"z": -2.6929494874,
				"element": "O" 
			},
			{
				"x": -3.3397858034,
				"y": -1.3396853277,
				"z": -1.8442816936,
				"element": "N" 
			},
			{
				"x": -3.0785328973,
				"y": -2.539554929,
				"z": -1.9322969655,
				"element": "O" 
			},
			{
				"x": -2.9298926704,
				"y": -0.630510324,
				"z": -0.6174095442,
				"element": "C" 
			},
			{
				"x": -3.6142270798,
				"y": 0.5418505976,
				"z": -0.3399686818,
				"element": "C" 
			},
			{
				"x": -3.3438340912,
				"y": 1.248448161,
				"z": 0.8303189419,
				"element": "C" 
			},
			{
				"x": -2.3628926104,
				"y": 0.808685533,
				"z": 1.7402119156,
				"element": "C" 
			},
			{
				"x": -1.9376450144,
				"y": 1.4875844149,
				"z": 3.032267543,
				"element": "C" 
			},
			{
				"x": -0.4635119748,
				"y": 1.9389030268,
				"z": 2.9578759134,
				"element": "C" 
			},
			{
				"x": 0.4129111492,
				"y": 1.1154392049,
				"z": 3.1812276148,
				"element": "O" 
			},
			{
				"x": -0.1286888289,
				"y": 3.3485880847,
				"z": 2.6015244975,
				"element": "C" 
			},
			{
				"x": 1.2338152967,
				"y": 3.688498511,
				"z": 2.5163449869,
				"element": "C" 
			},
			{
				"x": 1.6183756076,
				"y": 4.9816844709,
				"z": 2.1826064096,
				"element": "C" 
			},
			{
				"x": 0.646544404,
				"y": 5.9551881344,
				"z": 1.9271322969,
				"element": "C" 
			},
			{
				"x": -0.7078576354,
				"y": 5.6287120644,
				"z": 2.0083617576,
				"element": "C" 
			},
			{
				"x": -1.0977695463,
				"y": 4.3324302739,
				"z": 2.3457522206,
				"element": "C" 
			},
			{
				"x": -1.6768780965,
				"y": -0.3653571985,
				"z": 1.3897666309,
				"element": "C" 
			},
			{
				"x": -1.9270052819,
				"y": -1.1195767323,
				"z": 0.2417872925,
				"element": "C" 
			},
			{
				"x": -1.0891055875,
				"y": -2.345509551,
				"z": -0.0119478158,
				"element": "C" 
			},
			{
				"x": -0.2019473826,
				"y": -2.2205342364,
				"z": -1.2649660285,
				"element": "C" 
			},
			{
				"x": -0.2593418091,
				"y": -1.2293785394,
				"z": -1.9729367057,
				"element": "O" 
			},
			{
				"x": 0.7346788238,
				"y": -3.3440343816,
				"z": -1.5725242365,
				"element": "C" 
			},
			{
				"x": 1.5677758346,
				"y": -3.2108978188,
				"z": -2.6956353643,
				"element": "C" 
			},
			{
				"x": 2.4601829006,
				"y": -4.2226790985,
				"z": -3.0343315827,
				"element": "C" 
			},
			{
				"x": 2.5308354574,
				"y": -5.3820082452,
				"z": -2.2556868472,
				"element": "C" 
			},
			{
				"x": 1.7057434066,
				"y": -5.5252044231,
				"z": -1.1385253283,
				"element": "C" 
			},
			{
				"x": 0.8116764655,
				"y": -4.5111804548,
				"z": -0.7967410716,
				"element": "C" 
			},
			{
				"x": -4.1662139005,
				"y": 2.4607405414,
				"z": 1.0262363005,
				"element": "N" 
			},
			{
				"x": -4.7100052642,
				"y": 2.9378641761,
				"z": 0.0348104817,
				"element": "O" 
			},
			{
				"x": -4.2845525499,
				"y": 2.9240070089,
				"z": 2.1643781952,
				"element": "O" 
			},
			{
				"x": -4.359398322,
				"y": 0.9065329294,
				"z": -1.0326151182,
				"element": "H" 
			},
			{
				"x": -1.9678911352,
				"y": 0.7390980088,
				"z": 3.8294813343,
				"element": "H" 
			},
			{
				"x": -2.6115592366,
				"y": 2.2927952602,
				"z": 3.2973143822,
				"element": "H" 
			},
			{
				"x": 1.9681668526,
				"y": 2.9156877726,
				"z": 2.7160348014,
				"element": "H" 
			},
			{
				"x": 2.6724910524,
				"y": 5.234914799,
				"z": 2.1187973144,
				"element": "H" 
			},
			{
				"x": 0.9459779848,
				"y": 6.9660237145,
				"z": 1.6652963838,
				"element": "H" 
			},
			{
				"x": -1.4636764097,
				"y": 6.3825688107,
				"z": 1.8103224177,
				"element": "H" 
			},
			{
				"x": -2.1558475115,
				"y": 4.1027875187,
				"z": 2.4056072898,
				"element": "H" 
			},
			{
				"x": -0.8838363576,
				"y": -0.6873603633,
				"z": 2.0571797709,
				"element": "H" 
			},
			{
				"x": -1.7198847271,
				"y": -3.2299063768,
				"z": -0.1332486575,
				"element": "H" 
			},
			{
				"x": -0.4419395362,
				"y": -2.5184480014,
				"z": 0.8546248147,
				"element": "H" 
			},
			{
				"x": 1.4920798644,
				"y": -2.3037299992,
				"z": -3.2853823585,
				"element": "H" 
			},
			{
				"x": 3.1004437908,
				"y": -4.1118155329,
				"z": -3.9044418574,
				"element": "H" 
			},
			{
				"x": 3.2270144061,
				"y": -6.1727866855,
				"z": -2.5201634643,
				"element": "H" 
			},
			{
				"x": 1.7577769766,
				"y": -6.4259455644,
				"z": -0.5343518821,
				"element": "H" 
			},
			{
				"x": 0.1750312479,
				"y": -4.6404097804,
				"z": 0.0723431833,
				"element": "H" 
			}
		],
		 "valence_orbital": [ 
			{
				"type": "occ",
				"energy": -0.26889,
				"method": "rhf"
			},
			{
				"type": "occ",
				"energy": -0.26566,
				"method": "rhf"
			},
			{
				"type": "occ",
				"energy": -0.2656,
				"method": "rhf"
			},
			{
				"type": "occ",
				"energy": -0.26445,
				"method": "rhf"
			},
			{
				"type": "occ",
				"energy": -0.26015,
				"method": "rhf"
			},
			{
				"type": "unocc",
				"energy": -0.10754,
				"method": "rhf"
			},
			{
				"type": "unocc",
				"energy": -0.09485,
				"method": "rhf"
			},
			{
				"type": "unocc",
				"energy": -0.07007,
				"method": "rhf"
			},
			{
				"type": "unocc",
				"energy": -0.06488,
				"method": "rhf"
			},
			{
				"type": "unocc",
				"energy": -0.03059,
				"method": "rhf"
			}
		],
		"cosmo_sigma_profile": { 
			"-0.025": 0.0,
			"-0.024": 0.0,
			"-0.023": 0.0,
			"-0.022": 0.0,
			"-0.021": 0.0,
			"-0.02": 0.0,
			"-0.019": 0.0,
			"-0.018": 0.0,
			"-0.017": 0.0,
			"-0.016": 0.0,
			"-0.015": 0.0,
			"-0.014": 0.0,
			"-0.013": 0.0371682235691,
			"-0.012": 0.0627087175844,
			"-0.011": 0.175100649473,
			"-0.01": 0.40188477941,
			"-0.009": 1.90194602573,
			"-0.008": 7.03078487557,
			"-0.007": 16.1964172748,
			"-0.006": 30.2745023814,
			"-0.005": 33.1008647092,
			"-0.004": 34.9210455176,
			"-0.003": 32.3047149955,
			"-0.002": 26.7174382676,
			"-0.001": 25.3314690038,
			"0.0": 24.6624654598,
			"0.001": 25.8007484212,
			"0.002": 27.6638995032,
			"0.003": 30.3139210791,
			"0.004": 30.4085201451,
			"0.005": 9.85224877083,
			"0.006": 11.8025845599,
			"0.007": 17.1218615139,
			"0.008": 11.8837364444,
			"0.009": 9.65529907576,
			"0.01": 5.35815094573,
			"0.011": 6.17489029715,
			"0.012": 1.38523392866,
			"0.013": 0.0,
			"0.014": 0.0,
			"0.015": 0.0,
			"0.016": 0.0,
			"0.017": 0.0,
			"0.018": 0.0,
			"0.019": 0.0,
			"0.02": 0.0,
			"0.021": 0.0,
			"0.022": 0.0,
			"0.023": 0.0,
			"0.024": 0.0,
			"0.025": 0.0
		}
	}
}
