{
	 "smiles": "FC1=C(CNC2=CC=NC=C2)C=CC=C1", 
	 "Tm": 357.15, 
	 "num_atms": 26, 
	 "gaussian": { 
		 "optdone": 1, 
		 "sigma_profile": "yes", 
		 "theory": "DFT", 
		 "functional": "B3LYP", 
		 "basiset": "6-31G**", 
		 "properties": { 
			 "R2extent": 4051.3405, 
			 "electric_dipole_moment_norm": 3.79447087879, 
			 "electric_quadrupole_moment_norm": 18.6502509184, 
			 "total_energy": -673.241613619, 
			 "HOMO_LUMO_gap": 0.2067, 
			 "cosmo_polarized_energy": -12.21, 
			 "cosmo_cavitation_energy": 30.3, 
			 "cosmo_dispersion_energy": -21.71, 
			 "cosmo_repulsion_energy": 1.68, 
			 "cosmo_total_nonelectrostatic_energy": 10.27, 
			 "SMD_solvation_energy": 3.74 
		},
		"coords": [
			{
				"x": 0.4749332773,
				"y": -3.6086503837,
				"z": -1.0162059941,
				"element": "F" 
			},
			{
				"x": -0.38828141,
				"y": -2.7813575455,
				"z": -0.373780397,
				"element": "C" 
			},
			{
				"x": 0.0732912736,
				"y": -1.5167146803,
				"z": -0.0044758122,
				"element": "C" 
			},
			{
				"x": 1.510284492,
				"y": -1.1290889305,
				"z": -0.3251684836,
				"element": "C" 
			},
			{
				"x": 1.8435098342,
				"y": 0.2555010909,
				"z": -0.0477286971,
				"element": "N" 
			},
			{
				"x": 1.6572677704,
				"y": 1.2844977813,
				"z": -0.9483099652,
				"element": "C" 
			},
			{
				"x": 0.8459681226,
				"y": 1.1596990338,
				"z": -2.0914295031,
				"element": "C" 
			},
			{
				"x": 0.7089415588,
				"y": 2.2574733464,
				"z": -2.9375935176,
				"element": "C" 
			},
			{
				"x": 1.2914298024,
				"y": 3.4486745946,
				"z": -2.7512237599,
				"element": "N" 
			},
			{
				"x": 2.0570106734,
				"y": 3.5571223869,
				"z": -1.6540199143,
				"element": "C" 
			},
			{
				"x": 2.2721582594,
				"y": 2.535328307,
				"z": -0.7392570313,
				"element": "C" 
			},
			{
				"x": -0.8243108235,
				"y": -0.6781906729,
				"z": 0.6614734991,
				"element": "C" 
			},
			{
				"x": -2.1282904669,
				"y": -1.0965213808,
				"z": 0.9390765544,
				"element": "C" 
			},
			{
				"x": -2.554343853,
				"y": -2.3681830166,
				"z": 0.5535156103,
				"element": "C" 
			},
			{
				"x": -1.6759407104,
				"y": -3.2263490597,
				"z": -0.1120720441,
				"element": "C" 
			},
			{
				"x": 2.1875526827,
				"y": -1.7586091997,
				"z": 0.2631326437,
				"element": "H" 
			},
			{
				"x": 1.7228240118,
				"y": -1.3701730717,
				"z": -1.3753285621,
				"element": "H" 
			},
			{
				"x": 2.5459264196,
				"y": 0.4143628044,
				"z": 0.6573817151,
				"element": "H" 
			},
			{
				"x": 0.3171745673,
				"y": 0.2393157545,
				"z": -2.3104799114,
				"element": "H" 
			},
			{
				"x": 0.0830927637,
				"y": 2.1662286632,
				"z": -3.8245537655,
				"element": "H" 
			},
			{
				"x": 2.5332370078,
				"y": 4.5240452697,
				"z": -1.4968055596,
				"element": "H" 
			},
			{
				"x": 2.9110330379,
				"y": 2.6988389377,
				"z": 0.1251612461,
				"element": "H" 
			},
			{
				"x": -0.4872304305,
				"y": 0.310361609,
				"z": 0.9556466631,
				"element": "H" 
			},
			{
				"x": -2.81012116,
				"y": -0.4272322084,
				"z": 1.4545946778,
				"element": "H" 
			},
			{
				"x": -3.5670553649,
				"y": -2.6964305588,
				"z": 0.7668046649,
				"element": "H" 
			},
			{
				"x": -1.9697613357,
				"y": -4.2217488709,
				"z": -0.4273543564,
				"element": "H" 
			}
		],
		 "valence_orbital": [ 
			{
				"type": "occ",
				"energy": -0.25975,
				"method": "rhf"
			},
			{
				"type": "occ",
				"energy": -0.2519,
				"method": "rhf"
			},
			{
				"type": "occ",
				"energy": -0.2461,
				"method": "rhf"
			},
			{
				"type": "occ",
				"energy": -0.24176,
				"method": "rhf"
			},
			{
				"type": "occ",
				"energy": -0.21888,
				"method": "rhf"
			},
			{
				"type": "unocc",
				"energy": -0.01218,
				"method": "rhf"
			},
			{
				"type": "unocc",
				"energy": -0.00692,
				"method": "rhf"
			},
			{
				"type": "unocc",
				"energy": 0.0025,
				"method": "rhf"
			},
			{
				"type": "unocc",
				"energy": 0.00472,
				"method": "rhf"
			},
			{
				"type": "unocc",
				"energy": 0.06792,
				"method": "rhf"
			}
		],
		"cosmo_sigma_profile": { 
			"-0.025": 0.0,
			"-0.024": 0.0,
			"-0.023": 0.0,
			"-0.022": 0.0,
			"-0.021": 0.0,
			"-0.02": 0.0,
			"-0.019": 0.0,
			"-0.018": 0.0,
			"-0.017": 0.0,
			"-0.016": 0.0,
			"-0.015": 0.0,
			"-0.014": 0.665778839148,
			"-0.013": 1.57264488754,
			"-0.012": 1.98435353463,
			"-0.011": 1.18165952655,
			"-0.01": 2.06998376607,
			"-0.009": 1.1523947977,
			"-0.008": 2.08383422947,
			"-0.007": 5.00504083714,
			"-0.006": 11.7465074494,
			"-0.005": 18.9483575142,
			"-0.004": 18.9502995174,
			"-0.003": 17.4616704484,
			"-0.002": 14.0401627541,
			"-0.001": 14.2356584276,
			"0.0": 13.7678204293,
			"0.001": 19.2260521774,
			"0.002": 18.8864705033,
			"0.003": 18.8627154484,
			"0.004": 28.1189187167,
			"0.005": 15.4542710962,
			"0.006": 3.51039724348,
			"0.007": 1.62698819345,
			"0.008": 1.10373594611,
			"0.009": 1.54717045968,
			"0.01": 1.73789344345,
			"0.011": 1.0965692199,
			"0.012": 0.649114653367,
			"0.013": 1.23975759138,
			"0.014": 0.752880423739,
			"0.015": 0.751970902367,
			"0.016": 1.25370219471,
			"0.017": 0.933825860187,
			"0.018": 0.615227923714,
			"0.019": 0.138598650941,
			"0.02": 0.0,
			"0.021": 0.0,
			"0.022": 0.0,
			"0.023": 0.0,
			"0.024": 0.0,
			"0.025": 0.0
		}
	}
}
