{
	 "smiles": "CN(C)C(=O)C1=CC(O)=C(C)C=C1", 
	 "Tm": 427.15, 
	 "num_atms": 26, 
	 "gaussian": { 
		 "optdone": 1, 
		 "sigma_profile": "yes", 
		 "theory": "DFT", 
		 "functional": "B3LYP", 
		 "basiset": "6-31G**", 
		 "properties": { 
			 "R2extent": 3785.7494, 
			 "electric_dipole_moment_norm": 2.71475635923, 
			 "electric_quadrupole_moment_norm": 11.7984079176, 
			 "total_energy": -594.11219327, 
			 "HOMO_LUMO_gap": 0.19827, 
			 "cosmo_polarized_energy": -13.58, 
			 "cosmo_cavitation_energy": 29.03, 
			 "cosmo_dispersion_energy": -21.04, 
			 "cosmo_repulsion_energy": 1.67, 
			 "cosmo_total_nonelectrostatic_energy": 9.66, 
			 "SMD_solvation_energy": 5.89 
		},
		"coords": [
			{
				"x": -0.3038907258,
				"y": 1.8861610798,
				"z": -4.5737985066,
				"element": "C" 
			},
			{
				"x": -0.3336529285,
				"y": 1.5768267455,
				"z": -3.1502056299,
				"element": "N" 
			},
			{
				"x": -1.6209155542,
				"y": 1.7955234157,
				"z": -2.5043399635,
				"element": "C" 
			},
			{
				"x": 0.8750730389,
				"y": 1.4763444236,
				"z": -2.4929419427,
				"element": "C" 
			},
			{
				"x": 1.9403246794,
				"y": 1.7098521802,
				"z": -3.0632750723,
				"element": "O" 
			},
			{
				"x": 0.8839192773,
				"y": 1.0190977574,
				"z": -1.0584934968,
				"element": "C" 
			},
			{
				"x": 1.8473694966,
				"y": 1.5886593193,
				"z": -0.2164589689,
				"element": "C" 
			},
			{
				"x": 1.9755433333,
				"y": 1.16158175,
				"z": 1.102717235,
				"element": "C" 
			},
			{
				"x": 2.8929663779,
				"y": 1.7054276965,
				"z": 1.9607171976,
				"element": "O" 
			},
			{
				"x": 1.1620393883,
				"y": 0.1324827862,
				"z": 1.6168072635,
				"element": "C" 
			},
			{
				"x": 1.3275716173,
				"y": -0.3167037299,
				"z": 3.0446514873,
				"element": "C" 
			},
			{
				"x": 0.2280900678,
				"y": -0.4433031703,
				"z": 0.7534909894,
				"element": "C" 
			},
			{
				"x": 0.0777113938,
				"y": -0.0136758375,
				"z": -0.5672790088,
				"element": "C" 
			},
			{
				"x": -0.4496306022,
				"y": 2.9604036821,
				"z": -4.7551909375,
				"element": "H" 
			},
			{
				"x": 0.6631557274,
				"y": 1.5952046658,
				"z": -4.9798791426,
				"element": "H" 
			},
			{
				"x": -1.1052803572,
				"y": 1.3389602147,
				"z": -5.0824426536,
				"element": "H" 
			},
			{
				"x": -2.0109729434,
				"y": 2.7872294001,
				"z": -2.772423986,
				"element": "H" 
			},
			{
				"x": -1.524493866,
				"y": 1.7478042397,
				"z": -1.421875183,
				"element": "H" 
			},
			{
				"x": -2.3568233264,
				"y": 1.0474061886,
				"z": -2.8259713051,
				"element": "H" 
			},
			{
				"x": 2.5046720399,
				"y": 2.3551346765,
				"z": -0.6191333899,
				"element": "H" 
			},
			{
				"x": 3.4064204816,
				"y": 2.3740019565,
				"z": 1.4887593263,
				"element": "H" 
			},
			{
				"x": 1.1478464763,
				"y": 0.5081891057,
				"z": 3.7432423295,
				"element": "H" 
			},
			{
				"x": 0.6350522527,
				"y": -1.1280512461,
				"z": 3.2831460499,
				"element": "H" 
			},
			{
				"x": 2.348758025,
				"y": -0.6656146816,
				"z": 3.2337341175,
				"element": "H" 
			},
			{
				"x": -0.3934473198,
				"y": -1.2542479099,
				"z": 1.1248228574,
				"element": "H" 
			},
			{
				"x": -0.64230605,
				"y": -0.5021947085,
				"z": -1.2153796661,
				"element": "H" 
			}
		],
		 "valence_orbital": [ 
			{
				"type": "occ",
				"energy": -0.32795,
				"method": "rhf"
			},
			{
				"type": "occ",
				"energy": -0.25678,
				"method": "rhf"
			},
			{
				"type": "occ",
				"energy": -0.2398,
				"method": "rhf"
			},
			{
				"type": "occ",
				"energy": -0.23078,
				"method": "rhf"
			},
			{
				"type": "occ",
				"energy": -0.22126,
				"method": "rhf"
			},
			{
				"type": "unocc",
				"energy": -0.02299,
				"method": "rhf"
			},
			{
				"type": "unocc",
				"energy": 0.00726,
				"method": "rhf"
			},
			{
				"type": "unocc",
				"energy": 0.05782,
				"method": "rhf"
			},
			{
				"type": "unocc",
				"energy": 0.07124,
				"method": "rhf"
			},
			{
				"type": "unocc",
				"energy": 0.0904,
				"method": "rhf"
			}
		],
		"cosmo_sigma_profile": { 
			"-0.025": 0.0,
			"-0.024": 0.0,
			"-0.023": 0.0,
			"-0.022": 0.0,
			"-0.021": 0.0,
			"-0.02": 0.0,
			"-0.019": 0.0,
			"-0.018": 0.366981118756,
			"-0.017": 1.16831034396,
			"-0.016": 1.22270294201,
			"-0.015": 0.967833784204,
			"-0.014": 0.872366758969,
			"-0.013": 0.859503186672,
			"-0.012": 0.398530706558,
			"-0.011": 1.1112637636,
			"-0.01": 1.49683422251,
			"-0.009": 1.39172783085,
			"-0.008": 0.905418289577,
			"-0.007": 0.914819427453,
			"-0.006": 2.36428474787,
			"-0.005": 12.0867515028,
			"-0.004": 25.7367633628,
			"-0.003": 23.3743945649,
			"-0.002": 28.371035531,
			"-0.001": 21.496242166,
			"0.0": 16.4440121161,
			"0.001": 13.1540213587,
			"0.002": 11.2793117401,
			"0.003": 12.5877734354,
			"0.004": 11.4881344294,
			"0.005": 8.90929811287,
			"0.006": 3.85298659943,
			"0.007": 2.72317815557,
			"0.008": 3.54915816631,
			"0.009": 3.81493631453,
			"0.01": 3.62204713337,
			"0.011": 1.89277797282,
			"0.012": 1.48331201643,
			"0.013": 3.0882598423,
			"0.014": 4.74249354137,
			"0.015": 1.11973297481,
			"0.016": 0.0,
			"0.017": 0.0,
			"0.018": 0.0,
			"0.019": 0.0,
			"0.02": 0.0,
			"0.021": 0.0,
			"0.022": 0.0,
			"0.023": 0.0,
			"0.024": 0.0,
			"0.025": 0.0
		}
	}
}
