{
	 "smiles": "NC(=S)C1=CC=C2C=CC=CC2=C1", 
	 "Tm": 425.15, 
	 "num_atms": 22, 
	 "gaussian": { 
		 "optdone": 1, 
		 "sigma_profile": "yes", 
		 "theory": "DFT", 
		 "functional": "B3LYP", 
		 "basiset": "6-31G**", 
		 "properties": { 
			 "R2extent": 3238.9792, 
			 "electric_dipole_moment_norm": 4.79133974792, 
			 "electric_quadrupole_moment_norm": 17.3022478037, 
			 "total_energy": -877.555844547, 
			 "HOMO_LUMO_gap": 0.13955, 
			 "cosmo_polarized_energy": -15.69, 
			 "cosmo_cavitation_energy": 27.55, 
			 "cosmo_dispersion_energy": -20.91, 
			 "cosmo_repulsion_energy": 1.59, 
			 "cosmo_total_nonelectrostatic_energy": 8.23, 
			 "SMD_solvation_energy": 3.5 
		},
		"coords": [
			{
				"x": 0.1691874273,
				"y": 2.2480091087,
				"z": -2.3222837783,
				"element": "N" 
			},
			{
				"x": 0.772610383,
				"y": 1.0816722467,
				"z": -1.9943982595,
				"element": "C" 
			},
			{
				"x": 2.1536669201,
				"y": 0.5652465603,
				"z": -2.7766381445,
				"element": "S" 
			},
			{
				"x": 0.1351347546,
				"y": 0.3308869053,
				"z": -0.8778405613,
				"element": "C" 
			},
			{
				"x": 0.2226713527,
				"y": -1.0903008414,
				"z": -0.8370923893,
				"element": "C" 
			},
			{
				"x": -0.3630185489,
				"y": -1.7982729831,
				"z": 0.1821480856,
				"element": "C" 
			},
			{
				"x": -1.0542151145,
				"y": -1.1399190902,
				"z": 1.2368925869,
				"element": "C" 
			},
			{
				"x": -1.6628236626,
				"y": -1.8445009215,
				"z": 2.3082813172,
				"element": "C" 
			},
			{
				"x": -2.3124129981,
				"y": -1.1677766884,
				"z": 3.3172410897,
				"element": "C" 
			},
			{
				"x": -2.3815708035,
				"y": 0.2471743913,
				"z": 3.3021766441,
				"element": "C" 
			},
			{
				"x": -1.8011929148,
				"y": 0.9593941519,
				"z": 2.276879327,
				"element": "C" 
			},
			{
				"x": -1.128697609,
				"y": 0.290501521,
				"z": 1.2180883071,
				"element": "C" 
			},
			{
				"x": -0.5290073569,
				"y": 0.9947233601,
				"z": 0.1425663078,
				"element": "C" 
			},
			{
				"x": 0.5551372654,
				"y": 2.7840504911,
				"z": -3.0857311461,
				"element": "H" 
			},
			{
				"x": -0.7683208938,
				"y": 2.4551268185,
				"z": -2.0113682051,
				"element": "H" 
			},
			{
				"x": 0.760987107,
				"y": -1.5936918034,
				"z": -1.63206582,
				"element": "H" 
			},
			{
				"x": -0.3006851433,
				"y": -2.8832303107,
				"z": 0.1955825132,
				"element": "H" 
			},
			{
				"x": -1.6055857568,
				"y": -2.9297699913,
				"z": 2.3206073153,
				"element": "H" 
			},
			{
				"x": -2.7734164582,
				"y": -1.7182116201,
				"z": 4.1321690037,
				"element": "H" 
			},
			{
				"x": -2.8946837864,
				"y": 0.768184776,
				"z": 4.105100162,
				"element": "H" 
			},
			{
				"x": -1.8512793721,
				"y": 2.0452594286,
				"z": 2.2631608358,
				"element": "H" 
			},
			{
				"x": -0.5616847913,
				"y": 2.0810444905,
				"z": 0.1610248084,
				"element": "H" 
			}
		],
		 "valence_orbital": [ 
			{
				"type": "occ",
				"energy": -0.29417,
				"method": "rhf"
			},
			{
				"type": "occ",
				"energy": -0.25642,
				"method": "rhf"
			},
			{
				"type": "occ",
				"energy": -0.23169,
				"method": "rhf"
			},
			{
				"type": "occ",
				"energy": -0.2239,
				"method": "rhf"
			},
			{
				"type": "occ",
				"energy": -0.20678,
				"method": "rhf"
			},
			{
				"type": "unocc",
				"energy": -0.06723,
				"method": "rhf"
			},
			{
				"type": "unocc",
				"energy": -0.03531,
				"method": "rhf"
			},
			{
				"type": "unocc",
				"energy": 0.00198,
				"method": "rhf"
			},
			{
				"type": "unocc",
				"energy": 0.02604,
				"method": "rhf"
			},
			{
				"type": "unocc",
				"energy": 0.07199,
				"method": "rhf"
			}
		],
		"cosmo_sigma_profile": { 
			"-0.025": 0.0,
			"-0.024": 0.0,
			"-0.023": 0.0,
			"-0.022": 0.0,
			"-0.021": 0.0,
			"-0.02": 0.0,
			"-0.019": 0.0,
			"-0.018": 0.0,
			"-0.017": 0.0,
			"-0.016": 0.138785167196,
			"-0.015": 1.70367313368,
			"-0.014": 2.17998254293,
			"-0.013": 2.90143130517,
			"-0.012": 2.44991824582,
			"-0.011": 2.37466338039,
			"-0.01": 2.0467879901,
			"-0.009": 2.07070161467,
			"-0.008": 2.49093345488,
			"-0.007": 4.90518653246,
			"-0.006": 13.8271913232,
			"-0.005": 13.4973811729,
			"-0.004": 14.4183103053,
			"-0.003": 11.7340938524,
			"-0.002": 10.5095735663,
			"-0.001": 10.1216784272,
			"0.0": 11.9741437525,
			"0.001": 12.4378381096,
			"0.002": 15.7807103905,
			"0.003": 26.2032151683,
			"0.004": 19.4212522534,
			"0.005": 9.2807561633,
			"0.006": 4.20761189947,
			"0.007": 3.89407603398,
			"0.008": 6.42127043069,
			"0.009": 7.37574022037,
			"0.01": 4.11165254678,
			"0.011": 3.30732029196,
			"0.012": 1.85562898173,
			"0.013": 0.0,
			"0.014": 0.0,
			"0.015": 0.0,
			"0.016": 0.0,
			"0.017": 0.0,
			"0.018": 0.0,
			"0.019": 0.0,
			"0.02": 0.0,
			"0.021": 0.0,
			"0.022": 0.0,
			"0.023": 0.0,
			"0.024": 0.0,
			"0.025": 0.0
		}
	}
}
