{
	 "smiles": "CC(=O)ON(C=C1C2CCC(C)(C1=O)C2(C)C)C1=CC=CC=C1", 
	 "Tm": 436.15, 
	 "num_atms": 46, 
	 "gaussian": { 
		 "optdone": 1, 
		 "sigma_profile": "yes", 
		 "theory": "DFT", 
		 "functional": "B3LYP", 
		 "basiset": "6-31G**", 
		 "properties": { 
			 "R2extent": 8764.3303, 
			 "electric_dipole_moment_norm": 2.76252295194, 
			 "electric_quadrupole_moment_norm": 14.6144560617, 
			 "total_energy": -1018.25379881, 
			 "HOMO_LUMO_gap": 0.15468, 
			 "cosmo_polarized_energy": -13.16, 
			 "cosmo_cavitation_energy": 46.02, 
			 "cosmo_dispersion_energy": -30.9, 
			 "cosmo_repulsion_energy": 2.35, 
			 "cosmo_total_nonelectrostatic_energy": 17.47, 
			 "SMD_solvation_energy": 9.5 
		},
		"coords": [
			{
				"x": -2.2181118755,
				"y": -0.6898473449,
				"z": -4.1240668471,
				"element": "C" 
			},
			{
				"x": -2.383033355,
				"y": -0.0249445189,
				"z": -2.7868550147,
				"element": "C" 
			},
			{
				"x": -2.6791813452,
				"y": 1.1116253491,
				"z": -2.5549117254,
				"element": "O" 
			},
			{
				"x": -2.167744216,
				"y": -0.9807133376,
				"z": -1.7767579141,
				"element": "O" 
			},
			{
				"x": -2.2813728397,
				"y": -0.4529433152,
				"z": -0.4891914097,
				"element": "N" 
			},
			{
				"x": -1.1319466243,
				"y": -0.2861262177,
				"z": 0.2329431597,
				"element": "C" 
			},
			{
				"x": 0.1693900552,
				"y": -0.2068398971,
				"z": -0.1462099579,
				"element": "C" 
			},
			{
				"x": 1.3082124942,
				"y": -0.1293650186,
				"z": 0.86721169,
				"element": "C" 
			},
			{
				"x": 1.8524812094,
				"y": 1.326421166,
				"z": 0.8224953636,
				"element": "C" 
			},
			{
				"x": 2.5275455784,
				"y": 1.3869081626,
				"z": -0.5807010458,
				"element": "C" 
			},
			{
				"x": 2.3486707987,
				"y": -0.0611965612,
				"z": -1.1536326329,
				"element": "C" 
			},
			{
				"x": 3.2313212814,
				"y": -0.3911233334,
				"z": -2.3441415566,
				"element": "C" 
			},
			{
				"x": 0.8367418565,
				"y": -0.1269074435,
				"z": -1.4642727244,
				"element": "C" 
			},
			{
				"x": 0.3615035688,
				"y": -0.0393254085,
				"z": -2.5898915711,
				"element": "O" 
			},
			{
				"x": 2.4348310606,
				"y": -0.9405557447,
				"z": 0.143849106,
				"element": "C" 
			},
			{
				"x": 3.797190474,
				"y": -0.8979383544,
				"z": 0.856071021,
				"element": "C" 
			},
			{
				"x": 2.0760087751,
				"y": -2.4194760391,
				"z": -0.0855860783,
				"element": "C" 
			},
			{
				"x": -3.5825900889,
				"y": -0.4493456235,
				"z": 0.0614442485,
				"element": "C" 
			},
			{
				"x": -3.8841465658,
				"y": 0.4120776233,
				"z": 1.127149194,
				"element": "C" 
			},
			{
				"x": -5.1549489791,
				"y": 0.387178196,
				"z": 1.6988666076,
				"element": "C" 
			},
			{
				"x": -6.1419764063,
				"y": -0.4660154875,
				"z": 1.2031947359,
				"element": "C" 
			},
			{
				"x": -5.843334105,
				"y": -1.3009106611,
				"z": 0.1243771258,
				"element": "C" 
			},
			{
				"x": -4.5723853267,
				"y": -1.3031919651,
				"z": -0.4457758207,
				"element": "C" 
			},
			{
				"x": -2.5673576227,
				"y": -1.7243343544,
				"z": -4.1004612241,
				"element": "H" 
			},
			{
				"x": -2.7635760576,
				"y": -0.1175412391,
				"z": -4.8748591951,
				"element": "H" 
			},
			{
				"x": -1.1516690258,
				"y": -0.6880205505,
				"z": -4.3614718097,
				"element": "H" 
			},
			{
				"x": -1.3500542107,
				"y": -0.2443488432,
				"z": 1.2975228829,
				"element": "H" 
			},
			{
				"x": 1.0451407693,
				"y": -0.4836617131,
				"z": 1.868751645,
				"element": "H" 
			},
			{
				"x": 1.0449169086,
				"y": 2.0550737534,
				"z": 0.9320748145,
				"element": "H" 
			},
			{
				"x": 2.5711428507,
				"y": 1.5126042156,
				"z": 1.6266669152,
				"element": "H" 
			},
			{
				"x": 3.5924471879,
				"y": 1.6312018949,
				"z": -0.5122083661,
				"element": "H" 
			},
			{
				"x": 2.0720324421,
				"y": 2.1304412973,
				"z": -1.2414990336,
				"element": "H" 
			},
			{
				"x": 2.9724252162,
				"y": 0.249079867,
				"z": -3.1926449229,
				"element": "H" 
			},
			{
				"x": 4.2901300299,
				"y": -0.2413600327,
				"z": -2.1083246956,
				"element": "H" 
			},
			{
				"x": 3.0954226659,
				"y": -1.4276676295,
				"z": -2.669197458,
				"element": "H" 
			},
			{
				"x": 4.5535647578,
				"y": -1.4258275316,
				"z": 0.2651301468,
				"element": "H" 
			},
			{
				"x": 4.1700445548,
				"y": 0.1117630776,
				"z": 1.0377063785,
				"element": "H" 
			},
			{
				"x": 3.7311986792,
				"y": -1.4050681982,
				"z": 1.8258145124,
				"element": "H" 
			},
			{
				"x": 2.0173614085,
				"y": -2.9497004656,
				"z": 0.872041867,
				"element": "H" 
			},
			{
				"x": 2.8470576705,
				"y": -2.9154041502,
				"z": -0.6850683637,
				"element": "H" 
			},
			{
				"x": 1.1186697044,
				"y": -2.5527707959,
				"z": -0.595202649,
				"element": "H" 
			},
			{
				"x": -3.1421058609,
				"y": 1.1197222059,
				"z": 1.4804002243,
				"element": "H" 
			},
			{
				"x": -5.3777813193,
				"y": 1.0594880795,
				"z": 2.5222555601,
				"element": "H" 
			},
			{
				"x": -7.1339633769,
				"y": -0.4718113177,
				"z": 1.6437936415,
				"element": "H" 
			},
			{
				"x": -6.6027696508,
				"y": -1.9671182559,
				"z": -0.2746797971,
				"element": "H" 
			},
			{
				"x": -4.338003146,
				"y": -1.9649835388,
				"z": -1.2704490267,
				"element": "H" 
			}
		],
		 "valence_orbital": [ 
			{
				"type": "occ",
				"energy": -0.27779,
				"method": "rhf"
			},
			{
				"type": "occ",
				"energy": -0.26196,
				"method": "rhf"
			},
			{
				"type": "occ",
				"energy": -0.2584,
				"method": "rhf"
			},
			{
				"type": "occ",
				"energy": -0.22673,
				"method": "rhf"
			},
			{
				"type": "occ",
				"energy": -0.20004,
				"method": "rhf"
			},
			{
				"type": "unocc",
				"energy": -0.04536,
				"method": "rhf"
			},
			{
				"type": "unocc",
				"energy": -0.00994,
				"method": "rhf"
			},
			{
				"type": "unocc",
				"energy": 0.00427,
				"method": "rhf"
			},
			{
				"type": "unocc",
				"energy": 0.01537,
				"method": "rhf"
			},
			{
				"type": "unocc",
				"energy": 0.06705,
				"method": "rhf"
			}
		],
		"cosmo_sigma_profile": { 
			"-0.025": 0.0,
			"-0.024": 0.0,
			"-0.023": 0.0,
			"-0.022": 0.0,
			"-0.021": 0.0,
			"-0.02": 0.0,
			"-0.019": 0.0,
			"-0.018": 0.0,
			"-0.017": 0.0,
			"-0.016": 0.0,
			"-0.015": 0.0,
			"-0.014": 0.0,
			"-0.013": 0.0,
			"-0.012": 0.0,
			"-0.011": 0.0,
			"-0.01": 0.0,
			"-0.009": 0.390626365885,
			"-0.008": 2.44225444991,
			"-0.007": 4.74373587671,
			"-0.006": 13.555085962,
			"-0.005": 19.0068778401,
			"-0.004": 21.8413349457,
			"-0.003": 34.5466783623,
			"-0.002": 48.0924672756,
			"-0.001": 41.2982081631,
			"0.0": 38.7559901588,
			"0.001": 38.147377743,
			"0.002": 21.5191003673,
			"0.003": 12.0289788103,
			"0.004": 14.1454061586,
			"0.005": 14.9969924401,
			"0.006": 5.23751592287,
			"0.007": 5.81868882632,
			"0.008": 5.54517351652,
			"0.009": 5.68455552925,
			"0.01": 5.72904973101,
			"0.011": 5.74278756964,
			"0.012": 1.82159212762,
			"0.013": 0.21741236727,
			"0.014": 0.0,
			"0.015": 0.0,
			"0.016": 0.0,
			"0.017": 0.0,
			"0.018": 0.0,
			"0.019": 0.0,
			"0.02": 0.0,
			"0.021": 0.0,
			"0.022": 0.0,
			"0.023": 0.0,
			"0.024": 0.0,
			"0.025": 0.0
		}
	}
}
