{
	 "smiles": "OC(=O)C1=C2SC(=NC2=NC(=C1)C1=CC=CC=C1)N1CCCCC1", 
	 "Tm": 621.15, 
	 "num_atms": 41, 
	 "gaussian": { 
		 "optdone": 1, 
		 "sigma_profile": "yes", 
		 "theory": "DFT", 
		 "functional": "B3LYP", 
		 "basiset": "6-31G**", 
		 "properties": { 
			 "R2extent": 11842.776, 
			 "electric_dipole_moment_norm": 2.73834171352, 
			 "electric_quadrupole_moment_norm": 19.9565947924, 
			 "total_energy": -1409.09985236, 
			 "HOMO_LUMO_gap": 0.14017, 
			 "cosmo_polarized_energy": -17.39, 
			 "cosmo_cavitation_energy": 44.94, 
			 "cosmo_dispersion_energy": -33.74, 
			 "cosmo_repulsion_energy": 2.5, 
			 "cosmo_total_nonelectrostatic_energy": 13.71, 
			 "SMD_solvation_energy": 4.56 
		},
		"coords": [
			{
				"x": 3.1393032857,
				"y": 1.0233163733,
				"z": 3.470909583,
				"element": "O" 
			},
			{
				"x": 2.2666452653,
				"y": 0.208470563,
				"z": 2.83622823,
				"element": "C" 
			},
			{
				"x": 2.1383179797,
				"y": -0.9655067839,
				"z": 3.1318946833,
				"element": "O" 
			},
			{
				"x": 1.4970629598,
				"y": 0.8836869724,
				"z": 1.7636963585,
				"element": "C" 
			},
			{
				"x": 0.5663384441,
				"y": 0.1576238888,
				"z": 1.0244836944,
				"element": "C" 
			},
			{
				"x": 0.0957065536,
				"y": -1.5208721433,
				"z": 1.1237098256,
				"element": "S" 
			},
			{
				"x": -1.04258943,
				"y": -1.1956625907,
				"z": -0.2451570736,
				"element": "C" 
			},
			{
				"x": -1.0399329566,
				"y": 0.0233586405,
				"z": -0.7121134907,
				"element": "N" 
			},
			{
				"x": -0.1522182038,
				"y": 0.813362394,
				"z": -0.016564823,
				"element": "C" 
			},
			{
				"x": 0.0158441399,
				"y": 2.1021304087,
				"z": -0.3043078852,
				"element": "N" 
			},
			{
				"x": 0.903783018,
				"y": 2.8152757179,
				"z": 0.4157134822,
				"element": "C" 
			},
			{
				"x": 1.6666549647,
				"y": 2.2375280484,
				"z": 1.4445263764,
				"element": "C" 
			},
			{
				"x": 1.0489422673,
				"y": 4.2502430718,
				"z": 0.0469134886,
				"element": "C" 
			},
			{
				"x": 1.6372476856,
				"y": 5.1873895098,
				"z": 0.9123234842,
				"element": "C" 
			},
			{
				"x": 1.7668343459,
				"y": 6.5235888,
				"z": 0.5360354369,
				"element": "C" 
			},
			{
				"x": 1.308665419,
				"y": 6.950431677,
				"z": -0.711502183,
				"element": "C" 
			},
			{
				"x": 0.7124675347,
				"y": 6.0295889855,
				"z": -1.5763947996,
				"element": "C" 
			},
			{
				"x": 0.5806453715,
				"y": 4.6949055365,
				"z": -1.2010459338,
				"element": "C" 
			},
			{
				"x": -1.8525052819,
				"y": -2.1797683763,
				"z": -0.7102482465,
				"element": "N" 
			},
			{
				"x": -2.6602655862,
				"y": -1.934656057,
				"z": -1.9147879849,
				"element": "C" 
			},
			{
				"x": -4.049535794,
				"y": -2.5636480576,
				"z": -1.7730171128,
				"element": "C" 
			},
			{
				"x": -3.9525845682,
				"y": -4.0510891084,
				"z": -1.4074304615,
				"element": "C" 
			},
			{
				"x": -3.0962136222,
				"y": -4.2363610851,
				"z": -0.1474294327,
				"element": "C" 
			},
			{
				"x": -1.7191287394,
				"y": -3.5801309275,
				"z": -0.3089066024,
				"element": "C" 
			},
			{
				"x": 3.5791481309,
				"y": 0.4749415519,
				"z": 4.1412291576,
				"element": "H" 
			},
			{
				"x": 2.4040776208,
				"y": 2.813500281,
				"z": 1.9865505617,
				"element": "H" 
			},
			{
				"x": 1.9767397133,
				"y": 4.8838552377,
				"z": 1.897636469,
				"element": "H" 
			},
			{
				"x": 2.219555821,
				"y": 7.2331785928,
				"z": 1.222898803,
				"element": "H" 
			},
			{
				"x": 1.4102881151,
				"y": 7.9915905865,
				"z": -1.0043346043,
				"element": "H" 
			},
			{
				"x": 0.3492351453,
				"y": 6.3524759172,
				"z": -2.5481493656,
				"element": "H" 
			},
			{
				"x": 0.1130282223,
				"y": 3.9738456272,
				"z": -1.8617797272,
				"element": "H" 
			},
			{
				"x": -2.1395897898,
				"y": -2.3657496998,
				"z": -2.7849588546,
				"element": "H" 
			},
			{
				"x": -2.7138651918,
				"y": -0.8564651174,
				"z": -2.0601788841,
				"element": "H" 
			},
			{
				"x": -4.5961857828,
				"y": -2.4288453418,
				"z": -2.7132930461,
				"element": "H" 
			},
			{
				"x": -4.6063655921,
				"y": -2.0264315301,
				"z": -0.9951631362,
				"element": "H" 
			},
			{
				"x": -4.950501684,
				"y": -4.47665466,
				"z": -1.2549944257,
				"element": "H" 
			},
			{
				"x": -3.4980134216,
				"y": -4.603730402,
				"z": -2.2419628257,
				"element": "H" 
			},
			{
				"x": -2.9566495447,
				"y": -5.2996759021,
				"z": 0.078102061,
				"element": "H" 
			},
			{
				"x": -3.6033428528,
				"y": -3.7846140613,
				"z": 0.7141084156,
				"element": "H" 
			},
			{
				"x": -1.1670565235,
				"y": -3.6369930936,
				"z": 0.6318059074,
				"element": "H" 
			},
			{
				"x": -1.131487438,
				"y": -4.1242334439,
				"z": -1.066145119,
				"element": "H" 
			}
		],
		 "valence_orbital": [ 
			{
				"type": "occ",
				"energy": -0.26088,
				"method": "rhf"
			},
			{
				"type": "occ",
				"energy": -0.2533,
				"method": "rhf"
			},
			{
				"type": "occ",
				"energy": -0.24344,
				"method": "rhf"
			},
			{
				"type": "occ",
				"energy": -0.23182,
				"method": "rhf"
			},
			{
				"type": "occ",
				"energy": -0.20271,
				"method": "rhf"
			},
			{
				"type": "unocc",
				"energy": -0.06254,
				"method": "rhf"
			},
			{
				"type": "unocc",
				"energy": -0.02988,
				"method": "rhf"
			},
			{
				"type": "unocc",
				"energy": 0.00488,
				"method": "rhf"
			},
			{
				"type": "unocc",
				"energy": 0.00759,
				"method": "rhf"
			},
			{
				"type": "unocc",
				"energy": 0.01954,
				"method": "rhf"
			}
		],
		"cosmo_sigma_profile": { 
			"-0.025": 0.0,
			"-0.024": 0.0,
			"-0.023": 0.0,
			"-0.022": 0.0,
			"-0.021": 0.0,
			"-0.02": 0.0,
			"-0.019": 0.362665716751,
			"-0.018": 1.02738105561,
			"-0.017": 1.38681028609,
			"-0.016": 0.524670669723,
			"-0.015": 0.153026973468,
			"-0.014": 0.895217588693,
			"-0.013": 0.759337029692,
			"-0.012": 0.941295731758,
			"-0.011": 0.740941000519,
			"-0.01": 0.77221611219,
			"-0.009": 0.447678093007,
			"-0.008": 1.77589684956,
			"-0.007": 3.28624931027,
			"-0.006": 8.94660491848,
			"-0.005": 15.8239178194,
			"-0.004": 32.3775016621,
			"-0.003": 43.3664849677,
			"-0.002": 36.2213887785,
			"-0.001": 34.7461979992,
			"0.0": 34.9372710766,
			"0.001": 24.6255933396,
			"0.002": 21.072350047,
			"0.003": 17.2583161553,
			"0.004": 17.9694289661,
			"0.005": 18.2085514871,
			"0.006": 10.7031603314,
			"0.007": 4.87067818431,
			"0.008": 4.42302297965,
			"0.009": 4.94856422419,
			"0.01": 4.27042361696,
			"0.011": 4.49020021118,
			"0.012": 2.88138286701,
			"0.013": 1.69567787291,
			"0.014": 1.82715012616,
			"0.015": 0.996745842846,
			"0.016": 0.0,
			"0.017": 0.0,
			"0.018": 0.0,
			"0.019": 0.0,
			"0.02": 0.0,
			"0.021": 0.0,
			"0.022": 0.0,
			"0.023": 0.0,
			"0.024": 0.0,
			"0.025": 0.0
		}
	}
}
