{
	 "smiles": "NC1=C(C=C(F)C(F)=C1)[N+]([O-])=O", 
	 "Tm": 381.15, 
	 "num_atms": 16, 
	 "gaussian": { 
		 "optdone": 1, 
		 "sigma_profile": "yes", 
		 "theory": "DFT", 
		 "functional": "B3LYP", 
		 "basiset": "6-31G**", 
		 "properties": { 
			 "R2extent": 2860.71, 
			 "electric_dipole_moment_norm": 4.09674932965, 
			 "electric_quadrupole_moment_norm": 14.9381115219, 
			 "total_energy": -690.565333874, 
			 "HOMO_LUMO_gap": 0.14126, 
			 "cosmo_polarized_energy": -11.04, 
			 "cosmo_cavitation_energy": 22.06, 
			 "cosmo_dispersion_energy": -16.42, 
			 "cosmo_repulsion_energy": 1.26, 
			 "cosmo_total_nonelectrostatic_energy": 6.89, 
			 "SMD_solvation_energy": 6.85 
		},
		"coords": [
			{
				"x": 0.5249861899,
				"y": -0.8087350432,
				"z": -2.8441118202,
				"element": "N" 
			},
			{
				"x": 0.9534321288,
				"y": -1.0050988489,
				"z": -1.5737150111,
				"element": "C" 
			},
			{
				"x": 1.3609494493,
				"y": 0.0449233013,
				"z": -0.7006278252,
				"element": "C" 
			},
			{
				"x": 1.797128226,
				"y": -0.2188476019,
				"z": 0.6112481688,
				"element": "C" 
			},
			{
				"x": 1.8384229823,
				"y": -1.5072882656,
				"z": 1.0790665332,
				"element": "C" 
			},
			{
				"x": 2.2498582782,
				"y": -1.7914942942,
				"z": 2.326244176,
				"element": "F" 
			},
			{
				"x": 1.4410170315,
				"y": -2.5584124176,
				"z": 0.2347662712,
				"element": "C" 
			},
			{
				"x": 1.4866559636,
				"y": -3.8096645395,
				"z": 0.7047718133,
				"element": "F" 
			},
			{
				"x": 1.0113865287,
				"y": -2.3221193497,
				"z": -1.0510265311,
				"element": "C" 
			},
			{
				"x": 1.3495655604,
				"y": 1.4310733904,
				"z": -1.1106295403,
				"element": "N" 
			},
			{
				"x": 0.9707048085,
				"y": 1.7126448905,
				"z": -2.2643419672,
				"element": "O" 
			},
			{
				"x": 1.7156046372,
				"y": 2.285662054,
				"z": -0.3029674978,
				"element": "O" 
			},
			{
				"x": 0.4926202338,
				"y": 0.1370521702,
				"z": -3.1967788676,
				"element": "H" 
			},
			{
				"x": 0.2524840144,
				"y": -1.5935720463,
				"z": -3.4107900877,
				"element": "H" 
			},
			{
				"x": 2.0975251164,
				"y": 0.608463834,
				"z": 1.2403467535,
				"element": "H" 
			},
			{
				"x": 0.714758851,
				"y": -3.1655872335,
				"z": -1.6650545679,
				"element": "H" 
			}
		],
		 "valence_orbital": [ 
			{
				"type": "occ",
				"energy": -0.31189,
				"method": "rhf"
			},
			{
				"type": "occ",
				"energy": -0.30853,
				"method": "rhf"
			},
			{
				"type": "occ",
				"energy": -0.29251,
				"method": "rhf"
			},
			{
				"type": "occ",
				"energy": -0.28247,
				"method": "rhf"
			},
			{
				"type": "occ",
				"energy": -0.2309,
				"method": "rhf"
			},
			{
				"type": "unocc",
				"energy": -0.08964,
				"method": "rhf"
			},
			{
				"type": "unocc",
				"energy": -0.01906,
				"method": "rhf"
			},
			{
				"type": "unocc",
				"energy": 0.00708,
				"method": "rhf"
			},
			{
				"type": "unocc",
				"energy": 0.05434,
				"method": "rhf"
			},
			{
				"type": "unocc",
				"energy": 0.0736,
				"method": "rhf"
			}
		],
		"cosmo_sigma_profile": { 
			"-0.025": 0.0,
			"-0.024": 0.0,
			"-0.023": 0.0,
			"-0.022": 0.0,
			"-0.021": 0.0,
			"-0.02": 0.0,
			"-0.019": 0.0,
			"-0.018": 0.0,
			"-0.017": 0.0,
			"-0.016": 0.0289959343021,
			"-0.015": 1.28312930607,
			"-0.014": 2.00503975282,
			"-0.013": 1.46199113516,
			"-0.012": 1.25894749622,
			"-0.011": 2.30870905071,
			"-0.01": 2.86493079264,
			"-0.009": 3.04847019588,
			"-0.008": 3.71136078253,
			"-0.007": 3.24175642447,
			"-0.006": 3.57155895499,
			"-0.005": 5.01162919987,
			"-0.004": 5.64281091058,
			"-0.003": 8.31201671463,
			"-0.002": 13.6687085348,
			"-0.001": 20.2618679739,
			"0.0": 19.0069002299,
			"0.001": 12.4229947366,
			"0.002": 10.5487835366,
			"0.003": 21.3599556881,
			"0.004": 9.61835137365,
			"0.005": 2.73075012363,
			"0.006": 3.78397972502,
			"0.007": 2.82392560758,
			"0.008": 6.72706808199,
			"0.009": 4.59896612435,
			"0.01": 4.03080454963,
			"0.011": 2.3811359245,
			"0.012": 0.0114833688934,
			"0.013": 0.0,
			"0.014": 0.0,
			"0.015": 0.0,
			"0.016": 0.0,
			"0.017": 0.0,
			"0.018": 0.0,
			"0.019": 0.0,
			"0.02": 0.0,
			"0.021": 0.0,
			"0.022": 0.0,
			"0.023": 0.0,
			"0.024": 0.0,
			"0.025": 0.0
		}
	}
}
