{
	 "smiles": "CCCCCCNCCCCCC", 
	 "Tm": 276.15, 
	 "num_atms": 40, 
	 "gaussian": { 
		 "optdone": 1, 
		 "sigma_profile": "yes", 
		 "theory": "DFT", 
		 "functional": "B3LYP", 
		 "basiset": "6-31G**", 
		 "properties": { 
			 "R2extent": 5531.1731, 
			 "electric_dipole_moment_norm": 0.984774969219, 
			 "electric_quadrupole_moment_norm": 2.30188157384, 
			 "total_energy": -528.327346858, 
			 "HOMO_LUMO_gap": 0.28395, 
			 "cosmo_polarized_energy": -3.55, 
			 "cosmo_cavitation_energy": 39.15, 
			 "cosmo_dispersion_energy": -26.66, 
			 "cosmo_repulsion_energy": 2.19, 
			 "cosmo_total_nonelectrostatic_energy": 14.68, 
			 "SMD_solvation_energy": 4.22 
		},
		"coords": [
			{
				"x": -3.8642219704,
				"y": 3.0512072662,
				"z": -0.7200059023,
				"element": "C" 
			},
			{
				"x": -2.9198436467,
				"y": 4.2520329825,
				"z": -0.8507305239,
				"element": "C" 
			},
			{
				"x": -2.1279315584,
				"y": 4.5768286778,
				"z": 0.428919268,
				"element": "C" 
			},
			{
				"x": -1.1692741006,
				"y": 3.4798138455,
				"z": 0.9231559873,
				"element": "C" 
			},
			{
				"x": -0.0010600001,
				"y": 3.1758957358,
				"z": -0.0233835505,
				"element": "C" 
			},
			{
				"x": 0.9234984361,
				"y": 2.0646992665,
				"z": 0.4966802642,
				"element": "C" 
			},
			{
				"x": 0.2457918521,
				"y": 0.7674306762,
				"z": 0.5988189173,
				"element": "N" 
			},
			{
				"x": 0.1933189484,
				"y": 0.0171646757,
				"z": -0.6553126124,
				"element": "C" 
			},
			{
				"x": -0.5864757452,
				"y": -1.2956718687,
				"z": -0.5104704136,
				"element": "C" 
			},
			{
				"x": -0.0064416128,
				"y": -2.305580033,
				"z": 0.498196173,
				"element": "C" 
			},
			{
				"x": 1.4338923456,
				"y": -2.7772285185,
				"z": 0.2312198336,
				"element": "C" 
			},
			{
				"x": 1.6243331243,
				"y": -3.5489924124,
				"z": -1.0819978865,
				"element": "C" 
			},
			{
				"x": 3.0516937163,
				"y": -4.0761481886,
				"z": -1.2628460208,
				"element": "C" 
			},
			{
				"x": -4.5724609498,
				"y": 3.1946798892,
				"z": 0.1046665178,
				"element": "H" 
			},
			{
				"x": -4.446915273,
				"y": 2.9060671994,
				"z": -1.6359428685,
				"element": "H" 
			},
			{
				"x": -3.3185568031,
				"y": 2.1219222907,
				"z": -0.5267168635,
				"element": "H" 
			},
			{
				"x": -3.5056413021,
				"y": 5.1385003512,
				"z": -1.1265879396,
				"element": "H" 
			},
			{
				"x": -2.2280530393,
				"y": 4.0826368683,
				"z": -1.6859740935,
				"element": "H" 
			},
			{
				"x": -1.5577418879,
				"y": 5.5020039425,
				"z": 0.2643048122,
				"element": "H" 
			},
			{
				"x": -2.8436254039,
				"y": 4.8027971367,
				"z": 1.2316908723,
				"element": "H" 
			},
			{
				"x": -0.758197448,
				"y": 3.7918236436,
				"z": 1.8937781908,
				"element": "H" 
			},
			{
				"x": -1.7136610576,
				"y": 2.5491931218,
				"z": 1.1157701655,
				"element": "H" 
			},
			{
				"x": -0.3782010909,
				"y": 2.8966162867,
				"z": -1.0152374083,
				"element": "H" 
			},
			{
				"x": 0.6009804678,
				"y": 4.082681889,
				"z": -0.1757137972,
				"element": "H" 
			},
			{
				"x": 1.2694350431,
				"y": 2.3391076803,
				"z": 1.5012662139,
				"element": "H" 
			},
			{
				"x": 1.824555153,
				"y": 2.0124816225,
				"z": -0.1434536784,
				"element": "H" 
			},
			{
				"x": 0.719181256,
				"y": 0.2048306675,
				"z": 1.2989809797,
				"element": "H" 
			},
			{
				"x": 1.2019283051,
				"y": -0.1821997318,
				"z": -1.0680239391,
				"element": "H" 
			},
			{
				"x": -0.3169764649,
				"y": 0.6370141238,
				"z": -1.4017831574,
				"element": "H" 
			},
			{
				"x": -1.6117325827,
				"y": -1.0528961496,
				"z": -0.2065711189,
				"element": "H" 
			},
			{
				"x": -0.6563147542,
				"y": -1.7619043871,
				"z": -1.5011005637,
				"element": "H" 
			},
			{
				"x": -0.060011785,
				"y": -1.8759709599,
				"z": 1.5074536778,
				"element": "H" 
			},
			{
				"x": -0.6664040344,
				"y": -3.183211691,
				"z": 0.52217968,
				"element": "H" 
			},
			{
				"x": 1.746995525,
				"y": -3.4203734979,
				"z": 1.0651675746,
				"element": "H" 
			},
			{
				"x": 2.1206217766,
				"y": -1.9190061544,
				"z": 0.24552245,
				"element": "H" 
			},
			{
				"x": 1.3670921468,
				"y": -2.9065178271,
				"z": -1.9334830317,
				"element": "H" 
			},
			{
				"x": 0.9164426892,
				"y": -4.3890246403,
				"z": -1.1107760028,
				"element": "H" 
			},
			{
				"x": 3.7789784718,
				"y": -3.2560135663,
				"z": -1.2688139035,
				"element": "H" 
			},
			{
				"x": 3.3294202435,
				"y": -4.7558270701,
				"z": -0.4489784146,
				"element": "H" 
			},
			{
				"x": 3.1613830102,
				"y": -4.6232631426,
				"z": -2.2049678872,
				"element": "H" 
			}
		],
		 "valence_orbital": [ 
			{
				"type": "occ",
				"energy": -0.30871,
				"method": "rhf"
			},
			{
				"type": "occ",
				"energy": -0.30775,
				"method": "rhf"
			},
			{
				"type": "occ",
				"energy": -0.30331,
				"method": "rhf"
			},
			{
				"type": "occ",
				"energy": -0.2988,
				"method": "rhf"
			},
			{
				"type": "occ",
				"energy": -0.2146,
				"method": "rhf"
			},
			{
				"type": "unocc",
				"energy": 0.06935,
				"method": "rhf"
			},
			{
				"type": "unocc",
				"energy": 0.08745,
				"method": "rhf"
			},
			{
				"type": "unocc",
				"energy": 0.09532,
				"method": "rhf"
			},
			{
				"type": "unocc",
				"energy": 0.10908,
				"method": "rhf"
			},
			{
				"type": "unocc",
				"energy": 0.1132,
				"method": "rhf"
			}
		],
		"cosmo_sigma_profile": { 
			"-0.025": 0.0,
			"-0.024": 0.0,
			"-0.023": 0.0,
			"-0.022": 0.0,
			"-0.021": 0.0,
			"-0.02": 0.0,
			"-0.019": 0.0,
			"-0.018": 0.0,
			"-0.017": 0.0,
			"-0.016": 0.0,
			"-0.015": 0.0,
			"-0.014": 0.0,
			"-0.013": 0.0,
			"-0.012": 0.0,
			"-0.011": 0.0,
			"-0.01": 0.0,
			"-0.009": 0.237534927248,
			"-0.008": 0.997761825278,
			"-0.007": 1.35639973489,
			"-0.006": 1.6023405968,
			"-0.005": 2.45487446405,
			"-0.004": 1.76082046126,
			"-0.003": 9.82772582857,
			"-0.002": 39.3052498404,
			"-0.001": 61.9433972632,
			"0.0": 74.81992143,
			"0.001": 62.9708867442,
			"0.002": 27.832290128,
			"0.003": 3.2741866281,
			"0.004": 0.976752255473,
			"0.005": 1.67075863977,
			"0.006": 1.31479679334,
			"0.007": 1.04930899341,
			"0.008": 0.881909800456,
			"0.009": 0.956496529462,
			"0.01": 1.13980116655,
			"0.011": 0.621447843493,
			"0.012": 0.606975953662,
			"0.013": 0.598739062382,
			"0.014": 0.602148811103,
			"0.015": 0.28916456837,
			"0.016": 0.0120294256364,
			"0.017": 0.0,
			"0.018": 0.0,
			"0.019": 0.0,
			"0.02": 0.0,
			"0.021": 0.0,
			"0.022": 0.0,
			"0.023": 0.0,
			"0.024": 0.0,
			"0.025": 0.0
		}
	}
}
