{
	 "smiles": "CC(=O)C1=CC(Br)=CN=C1", 
	 "Tm": 351.15, 
	 "num_atms": 16, 
	 "gaussian": { 
		 "optdone": 1, 
		 "sigma_profile": "yes", 
		 "theory": "DFT", 
		 "functional": "B3LYP", 
		 "basiset": "6-31G**", 
		 "properties": { 
			 "R2extent": 5112.9219, 
			 "electric_dipole_moment_norm": 1.72180779996, 
			 "electric_quadrupole_moment_norm": 6.47872805649, 
			 "total_energy": -2971.73319263, 
			 "HOMO_LUMO_gap": 0.18433, 
			 "cosmo_polarized_energy": -8.59, 
			 "cosmo_cavitation_energy": 23.05, 
			 "cosmo_dispersion_energy": -17.3, 
			 "cosmo_repulsion_energy": 1.39, 
			 "cosmo_total_nonelectrostatic_energy": 7.14, 
			 "SMD_solvation_energy": 2.18 
		},
		"coords": [
			{
				"x": -0.8566175636,
				"y": 0.1479488503,
				"z": 2.1327621944,
				"element": "C" 
			},
			{
				"x": -0.0360268681,
				"y": 0.5733760022,
				"z": 0.9306413083,
				"element": "C" 
			},
			{
				"x": -0.5445730242,
				"y": 1.1702068598,
				"z": -0.0042134849,
				"element": "O" 
			},
			{
				"x": 1.431152252,
				"y": 0.2475192124,
				"z": 0.9041847459,
				"element": "C" 
			},
			{
				"x": 2.1807138421,
				"y": 0.6458109693,
				"z": -0.2116459918,
				"element": "C" 
			},
			{
				"x": 3.5334908882,
				"y": 0.3448361721,
				"z": -0.2349667164,
				"element": "C" 
			},
			{
				"x": 4.6226126967,
				"y": 0.8508321351,
				"z": -1.714277324,
				"element": "Br" 
			},
			{
				"x": 4.1075029814,
				"y": -0.340037438,
				"z": 0.8425896797,
				"element": "C" 
			},
			{
				"x": 3.4014380782,
				"y": -0.7230713317,
				"z": 1.9090007981,
				"element": "N" 
			},
			{
				"x": 2.095097417,
				"y": -0.4330598134,
				"z": 1.9328136054,
				"element": "C" 
			},
			{
				"x": -1.8887771115,
				"y": 0.4645793591,
				"z": 1.9817598877,
				"element": "H" 
			},
			{
				"x": -0.8242252999,
				"y": -0.9393280208,
				"z": 2.264078692,
				"element": "H" 
			},
			{
				"x": -0.4674897396,
				"y": 0.5993415334,
				"z": 3.0521568872,
				"element": "H" 
			},
			{
				"x": 1.6880965936,
				"y": 1.1739894972,
				"z": -1.0201028854,
				"element": "H" 
			},
			{
				"x": 5.1671915086,
				"y": -0.582151278,
				"z": 0.8367298961,
				"element": "H" 
			},
			{
				"x": 1.558413349,
				"y": -0.7628927089,
				"z": 2.8188887078,
				"element": "H" 
			}
		],
		 "valence_orbital": [ 
			{
				"type": "occ",
				"energy": -0.30404,
				"method": "rhf"
			},
			{
				"type": "occ",
				"energy": -0.29886,
				"method": "rhf"
			},
			{
				"type": "occ",
				"energy": -0.28245,
				"method": "rhf"
			},
			{
				"type": "occ",
				"energy": -0.26514,
				"method": "rhf"
			},
			{
				"type": "occ",
				"energy": -0.26191,
				"method": "rhf"
			},
			{
				"type": "unocc",
				"energy": -0.07758,
				"method": "rhf"
			},
			{
				"type": "unocc",
				"energy": -0.04418,
				"method": "rhf"
			},
			{
				"type": "unocc",
				"energy": -0.00452,
				"method": "rhf"
			},
			{
				"type": "unocc",
				"energy": 0.01467,
				"method": "rhf"
			},
			{
				"type": "unocc",
				"energy": 0.08938,
				"method": "rhf"
			}
		],
		"cosmo_sigma_profile": { 
			"-0.025": 0.0,
			"-0.024": 0.0,
			"-0.023": 0.0,
			"-0.022": 0.0,
			"-0.021": 0.0,
			"-0.02": 0.0,
			"-0.019": 0.0,
			"-0.018": 0.0,
			"-0.017": 0.0,
			"-0.016": 0.0,
			"-0.015": 0.0,
			"-0.014": 0.0,
			"-0.013": 0.0,
			"-0.012": 0.0,
			"-0.011": 0.0,
			"-0.01": 0.0,
			"-0.009": 0.0660121504033,
			"-0.008": 3.42782633534,
			"-0.007": 11.2910058521,
			"-0.006": 10.0044909322,
			"-0.005": 10.6319324691,
			"-0.004": 11.358758517,
			"-0.003": 12.6799570977,
			"-0.002": 17.5288337231,
			"-0.001": 26.2719817706,
			"0.0": 15.3089979911,
			"0.001": 9.45883304618,
			"0.002": 9.17488992528,
			"0.003": 12.263835631,
			"0.004": 11.8440545468,
			"0.005": 2.5137274142,
			"0.006": 2.8990030043,
			"0.007": 3.32009942031,
			"0.008": 1.89511865793,
			"0.009": 2.68734082336,
			"0.01": 3.43075643201,
			"0.011": 4.75388090739,
			"0.012": 2.79913666117,
			"0.013": 1.18246913552,
			"0.014": 0.989874193037,
			"0.015": 0.534936190223,
			"0.016": 0.0708365987174,
			"0.017": 0.0,
			"0.018": 0.0,
			"0.019": 0.0,
			"0.02": 0.0,
			"0.021": 0.0,
			"0.022": 0.0,
			"0.023": 0.0,
			"0.024": 0.0,
			"0.025": 0.0
		}
	}
}
