{
	 "smiles": "COC1=CC=C(C=C1C(F)(F)F)C(O)=O", 
	 "Tm": 443.15, 
	 "num_atms": 22, 
	 "gaussian": { 
		 "optdone": 1, 
		 "sigma_profile": "yes", 
		 "theory": "DFT", 
		 "functional": "B3LYP", 
		 "basiset": "6-31G**", 
		 "properties": { 
			 "R2extent": 4688.6828, 
			 "electric_dipole_moment_norm": 7.00963279637, 
			 "electric_quadrupole_moment_norm": 18.8384097646, 
			 "total_energy": -872.369710395, 
			 "HOMO_LUMO_gap": 0.19682, 
			 "cosmo_polarized_energy": -17.55, 
			 "cosmo_cavitation_energy": 28.2, 
			 "cosmo_dispersion_energy": -20.03, 
			 "cosmo_repulsion_energy": 1.51, 
			 "cosmo_total_nonelectrostatic_energy": 9.68, 
			 "SMD_solvation_energy": 7.97 
		},
		"coords": [
			{
				"x": 1.0193330068,
				"y": -0.4741875249,
				"z": 1.9008137152,
				"element": "C" 
			},
			{
				"x": 0.1128796197,
				"y": -0.6681323171,
				"z": 0.820117273,
				"element": "O" 
			},
			{
				"x": -0.5727946353,
				"y": 0.3910768348,
				"z": 0.3393201785,
				"element": "C" 
			},
			{
				"x": -0.4587858911,
				"y": 1.6962286139,
				"z": 0.8347415031,
				"element": "C" 
			},
			{
				"x": -1.2183051947,
				"y": 2.7220817475,
				"z": 0.274966678,
				"element": "C" 
			},
			{
				"x": -2.0998457239,
				"y": 2.4751201982,
				"z": -0.7818235151,
				"element": "C" 
			},
			{
				"x": -2.1893815886,
				"y": 1.1699591232,
				"z": -1.2892267161,
				"element": "C" 
			},
			{
				"x": -1.4511793151,
				"y": 0.1331452749,
				"z": -0.7400702895,
				"element": "C" 
			},
			{
				"x": -1.575416957,
				"y": -1.2668180714,
				"z": -1.2901121723,
				"element": "C" 
			},
			{
				"x": -2.4541249092,
				"y": -1.3158429444,
				"z": -2.3150136781,
				"element": "F" 
			},
			{
				"x": -0.3960112032,
				"y": -1.7306634259,
				"z": -1.7537648918,
				"element": "F" 
			},
			{
				"x": -2.0084508848,
				"y": -2.136670947,
				"z": -0.3527767418,
				"element": "F" 
			},
			{
				"x": -2.9253653253,
				"y": 3.5337764379,
				"z": -1.440954439,
				"element": "C" 
			},
			{
				"x": -3.1243869944,
				"y": 4.6842761298,
				"z": -0.7401274594,
				"element": "O" 
			},
			{
				"x": -3.4064325579,
				"y": 3.4092136029,
				"z": -2.5426382239,
				"element": "O" 
			},
			{
				"x": 1.8239507343,
				"y": 0.2185217252,
				"z": 1.6275224999,
				"element": "H" 
			},
			{
				"x": 1.4427382453,
				"y": -1.45661425,
				"z": 2.1095418559,
				"element": "H" 
			},
			{
				"x": 0.5024698631,
				"y": -0.1029879072,
				"z": 2.7936435798,
				"element": "H" 
			},
			{
				"x": 0.223179734,
				"y": 1.9195699995,
				"z": 1.6453616264,
				"element": "H" 
			},
			{
				"x": -1.0773958261,
				"y": 3.7294660198,
				"z": 0.6594628002,
				"element": "H" 
			},
			{
				"x": -2.8526557175,
				"y": 0.9838762877,
				"z": -2.1249884846,
				"element": "H" 
			},
			{
				"x": -2.8479184791,
				"y": 4.5701053928,
				"z": 0.1792049017,
				"element": "H" 
			}
		],
		 "valence_orbital": [ 
			{
				"type": "occ",
				"energy": -0.35017,
				"method": "rhf"
			},
			{
				"type": "occ",
				"energy": -0.31788,
				"method": "rhf"
			},
			{
				"type": "occ",
				"energy": -0.2877,
				"method": "rhf"
			},
			{
				"type": "occ",
				"energy": -0.27722,
				"method": "rhf"
			},
			{
				"type": "occ",
				"energy": -0.25232,
				"method": "rhf"
			},
			{
				"type": "unocc",
				"energy": -0.0555,
				"method": "rhf"
			},
			{
				"type": "unocc",
				"energy": -0.03843,
				"method": "rhf"
			},
			{
				"type": "unocc",
				"energy": 0.03933,
				"method": "rhf"
			},
			{
				"type": "unocc",
				"energy": 0.05264,
				"method": "rhf"
			},
			{
				"type": "unocc",
				"energy": 0.07834,
				"method": "rhf"
			}
		],
		"cosmo_sigma_profile": { 
			"-0.025": 0.0,
			"-0.024": 0.0,
			"-0.023": 0.0,
			"-0.022": 0.0,
			"-0.021": 0.0,
			"-0.02": 0.0,
			"-0.019": 0.442194048126,
			"-0.018": 0.915957793937,
			"-0.017": 1.30517639463,
			"-0.016": 0.48792377942,
			"-0.015": 1.14975971952,
			"-0.014": 0.883678764107,
			"-0.013": 1.36763403489,
			"-0.012": 1.19186362327,
			"-0.011": 1.13583611795,
			"-0.01": 1.12399241288,
			"-0.009": 1.66308498509,
			"-0.008": 4.51714915466,
			"-0.007": 9.03256970227,
			"-0.006": 12.1459036884,
			"-0.005": 11.2361949903,
			"-0.004": 13.1977223608,
			"-0.003": 12.6011762833,
			"-0.002": 11.0291514086,
			"-0.001": 10.6992740042,
			"0.0": 16.2790129662,
			"0.001": 18.6642021342,
			"0.002": 21.8116748845,
			"0.003": 27.2101865805,
			"0.004": 7.21698696014,
			"0.005": 5.52896797795,
			"0.006": 5.45671265644,
			"0.007": 4.54639939999,
			"0.008": 3.11997336663,
			"0.009": 3.95447179535,
			"0.01": 4.17632785449,
			"0.011": 5.51434204438,
			"0.012": 4.61142605983,
			"0.013": 1.6218105559,
			"0.014": 0.0570151851016,
			"0.015": 0.0,
			"0.016": 0.0,
			"0.017": 0.0,
			"0.018": 0.0,
			"0.019": 0.0,
			"0.02": 0.0,
			"0.021": 0.0,
			"0.022": 0.0,
			"0.023": 0.0,
			"0.024": 0.0,
			"0.025": 0.0
		}
	}
}
