{
	 "smiles": "NC1=CC=C(OC2=C(N=CC=N2)C#N)C=C1", 
	 "Tm": 444.15, 
	 "num_atms": 24, 
	 "gaussian": { 
		 "optdone": 1, 
		 "sigma_profile": "yes", 
		 "theory": "DFT", 
		 "functional": "B3LYP", 
		 "basiset": "6-31G**", 
		 "properties": { 
			 "R2extent": 4553.0843, 
			 "electric_dipole_moment_norm": 7.34492783218, 
			 "electric_quadrupole_moment_norm": 20.6090336309, 
			 "total_energy": -718.178762981, 
			 "HOMO_LUMO_gap": 0.13089, 
			 "cosmo_polarized_energy": -17.48, 
			 "cosmo_cavitation_energy": 31.06, 
			 "cosmo_dispersion_energy": -21.77, 
			 "cosmo_repulsion_energy": 1.72, 
			 "cosmo_total_nonelectrostatic_energy": 11.02, 
			 "SMD_solvation_energy": 4.53 
		},
		"coords": [
			{
				"x": -2.8381033499,
				"y": 2.8130125255,
				"z": 1.3052871182,
				"element": "N" 
			},
			{
				"x": -1.7900381653,
				"y": 1.9302358836,
				"z": 1.0445549118,
				"element": "C" 
			},
			{
				"x": -1.7225045682,
				"y": 0.6839519044,
				"z": 1.6928218133,
				"element": "C" 
			},
			{
				"x": -0.6471455948,
				"y": -0.1734519303,
				"z": 1.4776457041,
				"element": "C" 
			},
			{
				"x": 0.3698801696,
				"y": 0.2078618211,
				"z": 0.6097837376,
				"element": "C" 
			},
			{
				"x": 1.4979999313,
				"y": -0.6209168912,
				"z": 0.4591905425,
				"element": "O" 
			},
			{
				"x": 1.5225544591,
				"y": -1.5409866396,
				"z": -0.5211651921,
				"element": "C" 
			},
			{
				"x": 2.6891323212,
				"y": -2.3458355064,
				"z": -0.6254473062,
				"element": "C" 
			},
			{
				"x": 2.7986968859,
				"y": -3.2839129529,
				"z": -1.5695973302,
				"element": "N" 
			},
			{
				"x": 1.7654879765,
				"y": -3.4280889651,
				"z": -2.4058324497,
				"element": "C" 
			},
			{
				"x": 0.6253356766,
				"y": -2.6329048847,
				"z": -2.2943953199,
				"element": "C" 
			},
			{
				"x": 0.5017043751,
				"y": -1.6893245325,
				"z": -1.3534114689,
				"element": "N" 
			},
			{
				"x": 3.7850682487,
				"y": -2.1684730568,
				"z": 0.2879911511,
				"element": "C" 
			},
			{
				"x": 4.6681184754,
				"y": -2.0211562716,
				"z": 1.0291711605,
				"element": "N" 
			},
			{
				"x": 0.3317998067,
				"y": 1.4370758983,
				"z": -0.0389108337,
				"element": "C" 
			},
			{
				"x": -0.7441460271,
				"y": 2.2933781169,
				"z": 0.1770857162,
				"element": "C" 
			},
			{
				"x": -3.0141028219,
				"y": 3.5008273252,
				"z": 0.586319033,
				"element": "H" 
			},
			{
				"x": -3.6915277115,
				"y": 2.3860380072,
				"z": 1.6374641777,
				"element": "H" 
			},
			{
				"x": -2.5153924013,
				"y": 0.3906131515,
				"z": 2.3757615442,
				"element": "H" 
			},
			{
				"x": -0.5931435959,
				"y": -1.1317660796,
				"z": 1.9836296453,
				"element": "H" 
			},
			{
				"x": 1.8518354491,
				"y": -4.1902272997,
				"z": -3.1749805176,
				"element": "H" 
			},
			{
				"x": -0.2126222452,
				"y": -2.7546127978,
				"z": -2.977280469,
				"element": "H" 
			},
			{
				"x": 1.1411448126,
				"y": 1.7216080386,
				"z": -0.7032207495,
				"element": "H" 
			},
			{
				"x": -0.7728321067,
				"y": 3.2573551359,
				"z": -0.3239646185,
				"element": "H" 
			}
		],
		 "valence_orbital": [ 
			{
				"type": "occ",
				"energy": -0.31232,
				"method": "rhf"
			},
			{
				"type": "occ",
				"energy": -0.2761,
				"method": "rhf"
			},
			{
				"type": "occ",
				"energy": -0.26261,
				"method": "rhf"
			},
			{
				"type": "occ",
				"energy": -0.25844,
				"method": "rhf"
			},
			{
				"type": "occ",
				"energy": -0.21058,
				"method": "rhf"
			},
			{
				"type": "unocc",
				"energy": -0.07969,
				"method": "rhf"
			},
			{
				"type": "unocc",
				"energy": -0.03804,
				"method": "rhf"
			},
			{
				"type": "unocc",
				"energy": -0.01024,
				"method": "rhf"
			},
			{
				"type": "unocc",
				"energy": 0.00753,
				"method": "rhf"
			},
			{
				"type": "unocc",
				"energy": 0.03106,
				"method": "rhf"
			}
		],
		"cosmo_sigma_profile": { 
			"-0.025": 0.0,
			"-0.024": 0.0,
			"-0.023": 0.0,
			"-0.022": 0.0,
			"-0.021": 0.0,
			"-0.02": 0.0,
			"-0.019": 0.0,
			"-0.018": 0.0,
			"-0.017": 0.0,
			"-0.016": 0.0,
			"-0.015": 0.0,
			"-0.014": 0.0,
			"-0.013": 0.680705887052,
			"-0.012": 2.91755957813,
			"-0.011": 2.7440222499,
			"-0.01": 2.78910194668,
			"-0.009": 6.77219569867,
			"-0.008": 8.78037735292,
			"-0.007": 10.6858104781,
			"-0.006": 12.3891723402,
			"-0.005": 16.6211198313,
			"-0.004": 17.7546021291,
			"-0.003": 14.7172558451,
			"-0.002": 15.495239539,
			"-0.001": 12.2189731496,
			"0.0": 11.2465465709,
			"0.001": 10.731924372,
			"0.002": 12.3294017106,
			"0.003": 13.7384420597,
			"0.004": 13.7240086903,
			"0.005": 17.3696888463,
			"0.006": 11.6007317318,
			"0.007": 7.46912287331,
			"0.008": 7.17232008025,
			"0.009": 5.19967088444,
			"0.01": 5.98519689889,
			"0.011": 4.36261673308,
			"0.012": 4.11594706967,
			"0.013": 0.92083546637,
			"0.014": 0.508828272674,
			"0.015": 0.106419386876,
			"0.016": 0.0,
			"0.017": 0.0,
			"0.018": 0.0,
			"0.019": 0.0,
			"0.02": 0.0,
			"0.021": 0.0,
			"0.022": 0.0,
			"0.023": 0.0,
			"0.024": 0.0,
			"0.025": 0.0
		}
	}
}
