{
	 "smiles": "FC1=C(CN2C=NC=N2)C=CC(=C1)C#N", 
	 "Tm": 381.15, 
	 "num_atms": 22, 
	 "gaussian": { 
		 "optdone": 1, 
		 "sigma_profile": "yes", 
		 "theory": "DFT", 
		 "functional": "B3LYP", 
		 "basiset": "6-31G**", 
		 "properties": { 
			 "R2extent": 3640.6966, 
			 "electric_dipole_moment_norm": 3.66976422131, 
			 "electric_quadrupole_moment_norm": 20.8296201552, 
			 "total_energy": -704.086070835, 
			 "HOMO_LUMO_gap": 0.19789, 
			 "cosmo_polarized_energy": -16.2, 
			 "cosmo_cavitation_energy": 29.06, 
			 "cosmo_dispersion_energy": -19.9, 
			 "cosmo_repulsion_energy": 1.52, 
			 "cosmo_total_nonelectrostatic_energy": 10.67, 
			 "SMD_solvation_energy": 4.48 
		},
		"coords": [
			{
				"x": 0.2945927253,
				"y": -1.3131820462,
				"z": 1.2649940881,
				"element": "F" 
			},
			{
				"x": 0.1173821059,
				"y": -0.9745060611,
				"z": -0.0318325836,
				"element": "C" 
			},
			{
				"x": -0.8595528086,
				"y": -0.0250211114,
				"z": -0.3405583527,
				"element": "C" 
			},
			{
				"x": -1.6779973172,
				"y": 0.6101806869,
				"z": 0.7627914643,
				"element": "C" 
			},
			{
				"x": -1.0110370822,
				"y": 1.7572888113,
				"z": 1.3694626897,
				"element": "N" 
			},
			{
				"x": -0.1899419011,
				"y": 1.8115706309,
				"z": 2.4451370728,
				"element": "C" 
			},
			{
				"x": 0.2682803668,
				"y": 3.0399446865,
				"z": 2.6123257256,
				"element": "N" 
			},
			{
				"x": -0.3090324332,
				"y": 3.7127133836,
				"z": 1.5768395046,
				"element": "C" 
			},
			{
				"x": -1.0889097752,
				"y": 2.9842055446,
				"z": 0.790170569,
				"element": "N" 
			},
			{
				"x": -1.022519634,
				"y": 0.3228338409,
				"z": -1.6855573836,
				"element": "C" 
			},
			{
				"x": -0.2462621824,
				"y": -0.2645999072,
				"z": -2.6811134716,
				"element": "C" 
			},
			{
				"x": 0.7208661502,
				"y": -1.2227491306,
				"z": -2.3346819016,
				"element": "C" 
			},
			{
				"x": 0.9083906371,
				"y": -1.5851255909,
				"z": -0.9909014973,
				"element": "C" 
			},
			{
				"x": 1.5215107809,
				"y": -1.8378394492,
				"z": -3.3537928452,
				"element": "C" 
			},
			{
				"x": 2.1677230118,
				"y": -2.3362726246,
				"z": -4.1822246147,
				"element": "N" 
			},
			{
				"x": -2.63224256,
				"y": 0.9666884556,
				"z": 0.3712797587,
				"element": "H" 
			},
			{
				"x": -1.8760601284,
				"y": -0.1138362096,
				"z": 1.5559649842,
				"element": "H" 
			},
			{
				"x": 0.0353253178,
				"y": 0.9480184612,
				"z": 3.0554566908,
				"element": "H" 
			},
			{
				"x": -0.1571116272,
				"y": 4.7687778223,
				"z": 1.4009085649,
				"element": "H" 
			},
			{
				"x": -1.7646673342,
				"y": 1.0700106324,
				"z": -1.9491153279,
				"element": "H" 
			},
			{
				"x": -0.3807430755,
				"y": 0.0108934,
				"z": -3.7208682626,
				"element": "H" 
			},
			{
				"x": 1.6491067633,
				"y": -2.3199942255,
				"z": -0.6990848719,
				"element": "H" 
			}
		],
		 "valence_orbital": [ 
			{
				"type": "occ",
				"energy": -0.29794,
				"method": "rhf"
			},
			{
				"type": "occ",
				"energy": -0.28901,
				"method": "rhf"
			},
			{
				"type": "occ",
				"energy": -0.28155,
				"method": "rhf"
			},
			{
				"type": "occ",
				"energy": -0.27751,
				"method": "rhf"
			},
			{
				"type": "occ",
				"energy": -0.27077,
				"method": "rhf"
			},
			{
				"type": "unocc",
				"energy": -0.07288,
				"method": "rhf"
			},
			{
				"type": "unocc",
				"energy": -0.03715,
				"method": "rhf"
			},
			{
				"type": "unocc",
				"energy": -0.00239,
				"method": "rhf"
			},
			{
				"type": "unocc",
				"energy": 0.02334,
				"method": "rhf"
			},
			{
				"type": "unocc",
				"energy": 0.04713,
				"method": "rhf"
			}
		],
		"cosmo_sigma_profile": { 
			"-0.025": 0.0,
			"-0.024": 0.0,
			"-0.023": 0.0,
			"-0.022": 0.0,
			"-0.021": 0.0,
			"-0.02": 0.0,
			"-0.019": 0.0,
			"-0.018": 0.0,
			"-0.017": 0.0,
			"-0.016": 0.0,
			"-0.015": 0.0,
			"-0.014": 0.0,
			"-0.013": 0.0,
			"-0.012": 0.0,
			"-0.011": 0.0138395259007,
			"-0.01": 1.86446640513,
			"-0.009": 6.71905397296,
			"-0.008": 14.6229911971,
			"-0.007": 13.1548984332,
			"-0.006": 13.167782469,
			"-0.005": 11.464664737,
			"-0.004": 10.1820772688,
			"-0.003": 13.2405572784,
			"-0.002": 16.6448671424,
			"-0.001": 19.533970441,
			"0.0": 19.4254174719,
			"0.001": 14.6553026067,
			"0.002": 11.9474313163,
			"0.003": 12.3004266761,
			"0.004": 7.35445634079,
			"0.005": 5.57205740807,
			"0.006": 4.79421812854,
			"0.007": 6.78212639709,
			"0.008": 6.06725826714,
			"0.009": 5.31696829992,
			"0.01": 4.51813832028,
			"0.011": 5.1385472515,
			"0.012": 4.32982730091,
			"0.013": 3.23029312005,
			"0.014": 1.19426564807,
			"0.015": 1.03651703856,
			"0.016": 1.15730949594,
			"0.017": 0.204207436247,
			"0.018": 0.0,
			"0.019": 0.0,
			"0.02": 0.0,
			"0.021": 0.0,
			"0.022": 0.0,
			"0.023": 0.0,
			"0.024": 0.0,
			"0.025": 0.0
		}
	}
}
