{
	 "smiles": "CN1N=C(C(O)=O)C(=O)C2=C1C=CC=C2", 
	 "Tm": 518.15, 
	 "num_atms": 23, 
	 "gaussian": { 
		 "optdone": 1, 
		 "sigma_profile": "yes", 
		 "theory": "DFT", 
		 "functional": "B3LYP", 
		 "basiset": "6-31G**", 
		 "properties": { 
			 "R2extent": 3505.5621, 
			 "electric_dipole_moment_norm": 9.97634589667, 
			 "electric_quadrupole_moment_norm": 23.2266103412, 
			 "total_energy": -721.043676418, 
			 "HOMO_LUMO_gap": 0.15092, 
			 "cosmo_polarized_energy": -25.96, 
			 "cosmo_cavitation_energy": 27.72, 
			 "cosmo_dispersion_energy": -20.58, 
			 "cosmo_repulsion_energy": 1.57, 
			 "cosmo_total_nonelectrostatic_energy": 8.72, 
			 "SMD_solvation_energy": 5.96 
		},
		"coords": [
			{
				"x": 2.6846007187,
				"y": -0.841494446,
				"z": -1.1859473328,
				"element": "C" 
			},
			{
				"x": 1.2943601752,
				"y": -0.9174941211,
				"z": -0.7419452775,
				"element": "N" 
			},
			{
				"x": 0.9417843751,
				"y": -2.05872858,
				"z": -0.1606669318,
				"element": "N" 
			},
			{
				"x": -0.2721639349,
				"y": -2.2685509204,
				"z": 0.2875498303,
				"element": "C" 
			},
			{
				"x": -0.4705636469,
				"y": -3.628976633,
				"z": 0.9142841352,
				"element": "C" 
			},
			{
				"x": 0.6377677476,
				"y": -4.4073816635,
				"z": 0.9103378539,
				"element": "O" 
			},
			{
				"x": -1.5122429523,
				"y": -4.0118150543,
				"z": 1.3830252014,
				"element": "O" 
			},
			{
				"x": -1.358371965,
				"y": -1.2656731982,
				"z": 0.1919106296,
				"element": "C" 
			},
			{
				"x": -2.5011334941,
				"y": -1.4284350426,
				"z": 0.5999480594,
				"element": "O" 
			},
			{
				"x": -0.9200399895,
				"y": -0.0119033924,
				"z": -0.4619541259,
				"element": "C" 
			},
			{
				"x": 0.4054608382,
				"y": 0.1401597482,
				"z": -0.9194124014,
				"element": "C" 
			},
			{
				"x": 0.8041495456,
				"y": 1.3417881721,
				"z": -1.5397843348,
				"element": "C" 
			},
			{
				"x": -0.1185095515,
				"y": 2.3660347211,
				"z": -1.6933144381,
				"element": "C" 
			},
			{
				"x": -1.4407832765,
				"y": 2.2230748051,
				"z": -1.2405894259,
				"element": "C" 
			},
			{
				"x": -1.8315517144,
				"y": 1.0420061279,
				"z": -0.6311811095,
				"element": "C" 
			},
			{
				"x": 3.1561671789,
				"y": -1.7880122546,
				"z": -0.93075029,
				"element": "H" 
			},
			{
				"x": 2.7375689992,
				"y": -0.6878535552,
				"z": -2.2681603569,
				"element": "H" 
			},
			{
				"x": 3.2085725018,
				"y": -0.0248677673,
				"z": -0.6797912323,
				"element": "H" 
			},
			{
				"x": 1.3518717206,
				"y": -3.8992618068,
				"z": 0.4861618418,
				"element": "H" 
			},
			{
				"x": 1.8187372748,
				"y": 1.4725176557,
				"z": -1.8959378521,
				"element": "H" 
			},
			{
				"x": 0.1927667572,
				"y": 3.2898779199,
				"z": -2.1716620948,
				"element": "H" 
			},
			{
				"x": -2.1490513555,
				"y": 3.0352614918,
				"z": -1.3692611332,
				"element": "H" 
			},
			{
				"x": -2.8412959524,
				"y": 0.8863277935,
				"z": -0.2660592145,
				"element": "H" 
			}
		],
		 "valence_orbital": [ 
			{
				"type": "occ",
				"energy": -0.30061,
				"method": "rhf"
			},
			{
				"type": "occ",
				"energy": -0.27889,
				"method": "rhf"
			},
			{
				"type": "occ",
				"energy": -0.27529,
				"method": "rhf"
			},
			{
				"type": "occ",
				"energy": -0.24179,
				"method": "rhf"
			},
			{
				"type": "occ",
				"energy": -0.23501,
				"method": "rhf"
			},
			{
				"type": "unocc",
				"energy": -0.08409,
				"method": "rhf"
			},
			{
				"type": "unocc",
				"energy": -0.05603,
				"method": "rhf"
			},
			{
				"type": "unocc",
				"energy": -0.01223,
				"method": "rhf"
			},
			{
				"type": "unocc",
				"energy": 0.02767,
				"method": "rhf"
			},
			{
				"type": "unocc",
				"energy": 0.06388,
				"method": "rhf"
			}
		],
		"cosmo_sigma_profile": { 
			"-0.025": 0.0,
			"-0.024": 0.0,
			"-0.023": 0.0,
			"-0.022": 0.0,
			"-0.021": 0.0,
			"-0.02": 0.0,
			"-0.019": 0.0,
			"-0.018": 0.0,
			"-0.017": 0.0,
			"-0.016": 0.0,
			"-0.015": 0.0,
			"-0.014": 0.133764134294,
			"-0.013": 0.612368186773,
			"-0.012": 0.701063083515,
			"-0.011": 0.615376915543,
			"-0.01": 0.498284930644,
			"-0.009": 1.43202820831,
			"-0.008": 8.10079573783,
			"-0.007": 15.4282489549,
			"-0.006": 17.9413512119,
			"-0.005": 18.8578068136,
			"-0.004": 21.8620678219,
			"-0.003": 16.5530905254,
			"-0.002": 11.3281280638,
			"-0.001": 11.6961966482,
			"0.0": 10.3833759492,
			"0.001": 13.5448382078,
			"0.002": 12.7880752364,
			"0.003": 7.95353126457,
			"0.004": 3.51664840634,
			"0.005": 2.68087453875,
			"0.006": 3.48230179964,
			"0.007": 2.95830969729,
			"0.008": 3.58004208153,
			"0.009": 3.69942473282,
			"0.01": 5.72090382827,
			"0.011": 7.18110225954,
			"0.012": 7.57691517902,
			"0.013": 6.06472465711,
			"0.014": 1.87031369325,
			"0.015": 1.43161246596,
			"0.016": 1.26003114551,
			"0.017": 1.07626729146,
			"0.018": 0.273588390893,
			"0.019": 0.0,
			"0.02": 0.0,
			"0.021": 0.0,
			"0.022": 0.0,
			"0.023": 0.0,
			"0.024": 0.0,
			"0.025": 0.0
		}
	}
}
