{
	 "smiles": "SC1=NN=C(S)S1", 
	 "Tm": 436.15, 
	 "num_atms": 9, 
	 "gaussian": { 
		 "optdone": 1, 
		 "sigma_profile": "yes", 
		 "theory": "DFT", 
		 "functional": "B3LYP", 
		 "basiset": "6-31G**", 
		 "properties": { 
			 "R2extent": 1630.3627, 
			 "electric_dipole_moment_norm": 2.7581156049, 
			 "electric_quadrupole_moment_norm": 13.477342241, 
			 "total_energy": -1381.42843067, 
			 "HOMO_LUMO_gap": 0.19234, 
			 "cosmo_polarized_energy": -10.96, 
			 "cosmo_cavitation_energy": 18.98, 
			 "cosmo_dispersion_energy": -15.91, 
			 "cosmo_repulsion_energy": 1.19, 
			 "cosmo_total_nonelectrostatic_energy": 4.26, 
			 "SMD_solvation_energy": 0.26 
		},
		"coords": [
			{
				"x": 1.6380023506,
				"y": 0.9227150668,
				"z": -1.7470529108,
				"element": "S" 
			},
			{
				"x": 0.3807354993,
				"y": 0.0563602666,
				"z": -0.862889813,
				"element": "C" 
			},
			{
				"x": 0.5438568477,
				"y": -1.1054688683,
				"z": -0.2999682247,
				"element": "N" 
			},
			{
				"x": -0.5868366284,
				"y": -1.5619511585,
				"z": 0.3236334594,
				"element": "N" 
			},
			{
				"x": -1.5913484632,
				"y": -0.745819909,
				"z": 0.2279585935,
				"element": "C" 
			},
			{
				"x": -3.1510925612,
				"y": -1.1363230519,
				"z": 0.9606538736,
				"element": "S" 
			},
			{
				"x": -1.2360835863,
				"y": 0.7299215461,
				"z": -0.6769496584,
				"element": "S" 
			},
			{
				"x": 2.5522741606,
				"y": -0.046836977,
				"z": -1.5415471292,
				"element": "H" 
			},
			{
				"x": -3.776107619,
				"y": -0.0079969147,
				"z": 0.5726618096,
				"element": "H" 
			}
		],
		 "valence_orbital": [ 
			{
				"type": "occ",
				"energy": -0.31753,
				"method": "rhf"
			},
			{
				"type": "occ",
				"energy": -0.31616,
				"method": "rhf"
			},
			{
				"type": "occ",
				"energy": -0.28662,
				"method": "rhf"
			},
			{
				"type": "occ",
				"energy": -0.2808,
				"method": "rhf"
			},
			{
				"type": "occ",
				"energy": -0.23974,
				"method": "rhf"
			},
			{
				"type": "unocc",
				"energy": -0.0474,
				"method": "rhf"
			},
			{
				"type": "unocc",
				"energy": -0.04074,
				"method": "rhf"
			},
			{
				"type": "unocc",
				"energy": -0.00706,
				"method": "rhf"
			},
			{
				"type": "unocc",
				"energy": 0.01048,
				"method": "rhf"
			},
			{
				"type": "unocc",
				"energy": 0.01648,
				"method": "rhf"
			}
		],
		"cosmo_sigma_profile": { 
			"-0.025": 0.0,
			"-0.024": 0.0,
			"-0.023": 0.0,
			"-0.022": 0.0,
			"-0.021": 0.0,
			"-0.02": 0.0,
			"-0.019": 0.0,
			"-0.018": 0.0,
			"-0.017": 0.0,
			"-0.016": 0.0,
			"-0.015": 0.0,
			"-0.014": 0.0386793847968,
			"-0.013": 2.78129321571,
			"-0.012": 4.19267430832,
			"-0.011": 3.29049573847,
			"-0.01": 2.91795299967,
			"-0.009": 2.68299586673,
			"-0.008": 2.63544707199,
			"-0.007": 3.86113624462,
			"-0.006": 4.57896261533,
			"-0.005": 4.53791689778,
			"-0.004": 5.68792670653,
			"-0.003": 8.56496698817,
			"-0.002": 11.9256938959,
			"-0.001": 13.7166483608,
			"0.0": 13.2101075959,
			"0.001": 15.0029783038,
			"0.002": 12.4343389662,
			"0.003": 10.0370551349,
			"0.004": 7.42086225764,
			"0.005": 6.68180413899,
			"0.006": 6.95013131244,
			"0.007": 1.93258405462,
			"0.008": 2.17485927513,
			"0.009": 2.09543504682,
			"0.01": 3.28178156496,
			"0.011": 2.99526254136,
			"0.012": 2.60810313455,
			"0.013": 1.81967896755,
			"0.014": 0.574816448311,
			"0.015": 0.0,
			"0.016": 0.0,
			"0.017": 0.0,
			"0.018": 0.0,
			"0.019": 0.0,
			"0.02": 0.0,
			"0.021": 0.0,
			"0.022": 0.0,
			"0.023": 0.0,
			"0.024": 0.0,
			"0.025": 0.0
		}
	}
}
