{
	 "smiles": "CCOC(=O)C1=C(C)N(C2CCCC2)C2=C1C=C(O)C=C2", 
	 "Tm": 502.15, 
	 "num_atms": 42, 
	 "gaussian": { 
		 "optdone": 1, 
		 "sigma_profile": "yes", 
		 "theory": "DFT", 
		 "functional": "B3LYP", 
		 "basiset": "6-31G**", 
		 "properties": { 
			 "R2extent": 7913.8634, 
			 "electric_dipole_moment_norm": 4.16727001045, 
			 "electric_quadrupole_moment_norm": 6.917095754, 
			 "total_energy": -940.923086843, 
			 "HOMO_LUMO_gap": 0.17637, 
			 "cosmo_polarized_energy": -15.83, 
			 "cosmo_cavitation_energy": 42.26, 
			 "cosmo_dispersion_energy": -30.18, 
			 "cosmo_repulsion_energy": 2.31, 
			 "cosmo_total_nonelectrostatic_energy": 14.39, 
			 "SMD_solvation_energy": 7.37 
		},
		"coords": [
			{
				"x": 0.4021586793,
				"y": 2.7220822338,
				"z": 5.6007154529,
				"element": "C" 
			},
			{
				"x": 0.7902789152,
				"y": 3.501000999,
				"z": 4.3517840729,
				"element": "C" 
			},
			{
				"x": 0.9082769548,
				"y": 2.6345557028,
				"z": 3.2035202614,
				"element": "O" 
			},
			{
				"x": -0.2422543109,
				"y": 2.3637819256,
				"z": 2.5269342375,
				"element": "C" 
			},
			{
				"x": -1.3214088025,
				"y": 2.8338630262,
				"z": 2.8630527309,
				"element": "O" 
			},
			{
				"x": -0.0090191337,
				"y": 1.4768536476,
				"z": 1.3896974769,
				"element": "C" 
			},
			{
				"x": -1.0063998853,
				"y": 1.0690615785,
				"z": 0.5022137838,
				"element": "C" 
			},
			{
				"x": -2.4597656717,
				"y": 1.4280722498,
				"z": 0.5456493967,
				"element": "C" 
			},
			{
				"x": -0.4556176112,
				"y": 0.2353798115,
				"z": -0.4477041729,
				"element": "N" 
			},
			{
				"x": -1.1077503413,
				"y": -0.3824005673,
				"z": -1.6057174493,
				"element": "C" 
			},
			{
				"x": -1.4897989871,
				"y": 0.5965179001,
				"z": -2.7451533452,
				"element": "C" 
			},
			{
				"x": -2.5928817751,
				"y": -0.1543108006,
				"z": -3.5050440425,
				"element": "C" 
			},
			{
				"x": -3.4285651794,
				"y": -0.7964700299,
				"z": -2.3798035535,
				"element": "C" 
			},
			{
				"x": -2.3936168229,
				"y": -1.2233837749,
				"z": -1.3109451277,
				"element": "C" 
			},
			{
				"x": 0.9165584452,
				"y": 0.1066894454,
				"z": -0.1925679177,
				"element": "C" 
			},
			{
				"x": 1.2299344615,
				"y": 0.8712830485,
				"z": 0.9594101555,
				"element": "C" 
			},
			{
				"x": 2.5498692636,
				"y": 0.9028898365,
				"z": 1.4330174295,
				"element": "C" 
			},
			{
				"x": 3.5229779048,
				"y": 0.180698764,
				"z": 0.7496770812,
				"element": "C" 
			},
			{
				"x": 4.8052537651,
				"y": 0.232280955,
				"z": 1.2378228637,
				"element": "O" 
			},
			{
				"x": 3.2013764224,
				"y": -0.5704008942,
				"z": -0.3979972976,
				"element": "C" 
			},
			{
				"x": 1.896672883,
				"y": -0.6125748717,
				"z": -0.8795841028,
				"element": "C" 
			},
			{
				"x": 0.3973079891,
				"y": 3.3881985809,
				"z": 6.4703703004,
				"element": "H" 
			},
			{
				"x": -0.5975451396,
				"y": 2.2958219356,
				"z": 5.4883754539,
				"element": "H" 
			},
			{
				"x": 1.1134159238,
				"y": 1.9128095107,
				"z": 5.7913481759,
				"element": "H" 
			},
			{
				"x": 0.0574262918,
				"y": 4.2815347004,
				"z": 4.1343074658,
				"element": "H" 
			},
			{
				"x": 1.7806644654,
				"y": 3.9518509301,
				"z": 4.455642696,
				"element": "H" 
			},
			{
				"x": -2.9187395774,
				"y": 1.4379754606,
				"z": -0.4437985629,
				"element": "H" 
			},
			{
				"x": -3.0212651234,
				"y": 0.7199282508,
				"z": 1.167986118,
				"element": "H" 
			},
			{
				"x": -2.5718892807,
				"y": 2.4045918645,
				"z": 1.0149550752,
				"element": "H" 
			},
			{
				"x": -0.3616527432,
				"y": -1.0701020605,
				"z": -2.0055726486,
				"element": "H" 
			},
			{
				"x": -1.8825161119,
				"y": 1.5301574007,
				"z": -2.3294728955,
				"element": "H" 
			},
			{
				"x": -0.6250091322,
				"y": 0.8575313698,
				"z": -3.3623727106,
				"element": "H" 
			},
			{
				"x": -2.1491908217,
				"y": -0.9342391846,
				"z": -4.1375494126,
				"element": "H" 
			},
			{
				"x": -3.1811051573,
				"y": 0.4966741292,
				"z": -4.1587768724,
				"element": "H" 
			},
			{
				"x": -4.1148777792,
				"y": -0.0491556211,
				"z": -1.9639371646,
				"element": "H" 
			},
			{
				"x": -4.0422370619,
				"y": -1.632570356,
				"z": -2.7276422513,
				"element": "H" 
			},
			{
				"x": -2.758886163,
				"y": -1.0720565251,
				"z": -0.2942952379,
				"element": "H" 
			},
			{
				"x": -2.1561344969,
				"y": -2.2880216008,
				"z": -1.3993934514,
				"element": "H" 
			},
			{
				"x": 2.8183092595,
				"y": 1.4753368395,
				"z": 2.31042279,
				"element": "H" 
			},
			{
				"x": 5.3753260906,
				"y": -0.3071675378,
				"z": 0.6759064162,
				"element": "H" 
			},
			{
				"x": 3.9823748295,
				"y": -1.1231173573,
				"z": -0.9158187155,
				"element": "H" 
			},
			{
				"x": 1.6735445649,
				"y": -1.1928509148,
				"z": -1.7688625014,
				"element": "H" 
			}
		],
		 "valence_orbital": [ 
			{
				"type": "occ",
				"energy": -0.27943,
				"method": "rhf"
			},
			{
				"type": "occ",
				"energy": -0.26551,
				"method": "rhf"
			},
			{
				"type": "occ",
				"energy": -0.25305,
				"method": "rhf"
			},
			{
				"type": "occ",
				"energy": -0.20369,
				"method": "rhf"
			},
			{
				"type": "occ",
				"energy": -0.19365,
				"method": "rhf"
			},
			{
				"type": "unocc",
				"energy": -0.01728,
				"method": "rhf"
			},
			{
				"type": "unocc",
				"energy": 0.01,
				"method": "rhf"
			},
			{
				"type": "unocc",
				"energy": 0.04101,
				"method": "rhf"
			},
			{
				"type": "unocc",
				"energy": 0.06278,
				"method": "rhf"
			},
			{
				"type": "unocc",
				"energy": 0.07269,
				"method": "rhf"
			}
		],
		"cosmo_sigma_profile": { 
			"-0.025": 0.0,
			"-0.024": 0.0,
			"-0.023": 0.0,
			"-0.022": 0.0,
			"-0.021": 0.0,
			"-0.02": 0.0,
			"-0.019": 0.0,
			"-0.018": 0.0534425766181,
			"-0.017": 0.786894128606,
			"-0.016": 1.24025427776,
			"-0.015": 1.07166366958,
			"-0.014": 1.33190111938,
			"-0.013": 0.595055015645,
			"-0.012": 0.47539030589,
			"-0.011": 0.627215978973,
			"-0.01": 1.31380486774,
			"-0.009": 1.72956712671,
			"-0.008": 2.39875891699,
			"-0.007": 3.53482709651,
			"-0.006": 6.07839947599,
			"-0.005": 14.7972874018,
			"-0.004": 23.7500051595,
			"-0.003": 36.2942591985,
			"-0.002": 35.1258473274,
			"-0.001": 35.8521624357,
			"0.0": 39.0389393472,
			"0.001": 25.6866196834,
			"0.002": 13.5427948006,
			"0.003": 13.581117562,
			"0.004": 14.9960225772,
			"0.005": 19.5108395925,
			"0.006": 15.013782943,
			"0.007": 3.59825001946,
			"0.008": 3.69056014805,
			"0.009": 3.19765970014,
			"0.01": 3.15042474558,
			"0.011": 3.46706927966,
			"0.012": 4.30502274381,
			"0.013": 2.64136046862,
			"0.014": 0.086633129512,
			"0.015": 0.0,
			"0.016": 0.0,
			"0.017": 0.0,
			"0.018": 0.0,
			"0.019": 0.0,
			"0.02": 0.0,
			"0.021": 0.0,
			"0.022": 0.0,
			"0.023": 0.0,
			"0.024": 0.0,
			"0.025": 0.0
		}
	}
}
