{
	 "smiles": "COCCl", 
	 "Tm": 169.15, 
	 "num_atms": 9, 
	 "gaussian": { 
		 "optdone": 1, 
		 "sigma_profile": "yes", 
		 "theory": "DFT", 
		 "functional": "B3LYP", 
		 "basiset": "6-31G**", 
		 "properties": { 
			 "R2extent": 1484.328, 
			 "electric_dipole_moment_norm": 2.3706156964, 
			 "electric_quadrupole_moment_norm": 9.50814502782, 
			 "total_energy": -614.628245301, 
			 "HOMO_LUMO_gap": 0.30915, 
			 "cosmo_polarized_energy": -5.75, 
			 "cosmo_cavitation_energy": 13.93, 
			 "cosmo_dispersion_energy": -10.7, 
			 "cosmo_repulsion_energy": 0.98, 
			 "cosmo_total_nonelectrostatic_energy": 4.21, 
			 "SMD_solvation_energy": 3.37 
		},
		"coords": [
			{
				"x": -1.4366809993,
				"y": 3.4979228662,
				"z": -1.8771761017,
				"element": "C" 
			},
			{
				"x": -2.0954899529,
				"y": 2.2365878277,
				"z": -1.9622908793,
				"element": "O" 
			},
			{
				"x": -1.4925704173,
				"y": 1.2240615625,
				"z": -1.2730368261,
				"element": "C" 
			},
			{
				"x": 0.0878278055,
				"y": 0.6320685446,
				"z": -2.0600090605,
				"element": "Cl" 
			},
			{
				"x": -2.0839164942,
				"y": 4.2203933069,
				"z": -2.376060483,
				"element": "H" 
			},
			{
				"x": -0.464136608,
				"y": 3.4652249145,
				"z": -2.3801180318,
				"element": "H" 
			},
			{
				"x": -1.2927591306,
				"y": 3.7972886488,
				"z": -0.8296754328,
				"element": "H" 
			},
			{
				"x": -2.1538050592,
				"y": 0.359558102,
				"z": -1.2802484695,
				"element": "H" 
			},
			{
				"x": -1.1927691441,
				"y": 1.5028942267,
				"z": -0.2569847154,
				"element": "H" 
			}
		],
		 "valence_orbital": [ 
			{
				"type": "occ",
				"energy": -0.40732,
				"method": "rhf"
			},
			{
				"type": "occ",
				"energy": -0.35013,
				"method": "rhf"
			},
			{
				"type": "occ",
				"energy": -0.30305,
				"method": "rhf"
			},
			{
				"type": "occ",
				"energy": -0.29109,
				"method": "rhf"
			},
			{
				"type": "occ",
				"energy": -0.28978,
				"method": "rhf"
			},
			{
				"type": "unocc",
				"energy": 0.01937,
				"method": "rhf"
			},
			{
				"type": "unocc",
				"energy": 0.0886,
				"method": "rhf"
			},
			{
				"type": "unocc",
				"energy": 0.12218,
				"method": "rhf"
			},
			{
				"type": "unocc",
				"energy": 0.12967,
				"method": "rhf"
			},
			{
				"type": "unocc",
				"energy": 0.14215,
				"method": "rhf"
			}
		],
		"cosmo_sigma_profile": { 
			"-0.025": 0.0,
			"-0.024": 0.0,
			"-0.023": 0.0,
			"-0.022": 0.0,
			"-0.021": 0.0,
			"-0.02": 0.0,
			"-0.019": 0.0,
			"-0.018": 0.0,
			"-0.017": 0.0,
			"-0.016": 0.0,
			"-0.015": 0.0,
			"-0.014": 0.0,
			"-0.013": 0.0,
			"-0.012": 0.0,
			"-0.011": 0.0,
			"-0.01": 0.0,
			"-0.009": 0.525541003443,
			"-0.008": 4.42179739985,
			"-0.007": 5.97233583522,
			"-0.006": 7.54254099353,
			"-0.005": 10.38960666,
			"-0.004": 8.16455281243,
			"-0.003": 11.1999689513,
			"-0.002": 5.56178111077,
			"-0.001": 3.88591911472,
			"0.0": 3.92886883176,
			"0.001": 3.73752232949,
			"0.002": 5.18456026777,
			"0.003": 4.66639737853,
			"0.004": 5.0888936161,
			"0.005": 7.74641115879,
			"0.006": 8.68313394554,
			"0.007": 8.99131998881,
			"0.008": 2.52402499567,
			"0.009": 1.37513860826,
			"0.01": 1.68919714568,
			"0.011": 0.632267192367,
			"0.012": 0.0,
			"0.013": 0.0,
			"0.014": 0.0,
			"0.015": 0.0,
			"0.016": 0.0,
			"0.017": 0.0,
			"0.018": 0.0,
			"0.019": 0.0,
			"0.02": 0.0,
			"0.021": 0.0,
			"0.022": 0.0,
			"0.023": 0.0,
			"0.024": 0.0,
			"0.025": 0.0
		}
	}
}
