{
	 "smiles": "CC1=CC=C(Cl)C(N)=C1Cl", 
	 "Tm": 311.65, 
	 "num_atms": 17, 
	 "gaussian": { 
		 "optdone": 1, 
		 "sigma_profile": "yes", 
		 "theory": "DFT", 
		 "functional": "B3LYP", 
		 "basiset": "6-31G**", 
		 "properties": { 
			 "R2extent": 2137.5588, 
			 "electric_dipole_moment_norm": 1.01085541993, 
			 "electric_quadrupole_moment_norm": 10.0146400569, 
			 "total_energy": -1246.11396491, 
			 "HOMO_LUMO_gap": 0.1989, 
			 "cosmo_polarized_energy": -5.79, 
			 "cosmo_cavitation_energy": 23.56, 
			 "cosmo_dispersion_energy": -18.07, 
			 "cosmo_repulsion_energy": 1.45, 
			 "cosmo_total_nonelectrostatic_energy": 6.95, 
			 "SMD_solvation_energy": 3.44 
		},
		"coords": [
			{
				"x": -2.4041872312,
				"y": 1.9036736131,
				"z": 1.3376654051,
				"element": "C" 
			},
			{
				"x": -1.2542828666,
				"y": 1.4871968037,
				"z": 0.4565764573,
				"element": "C" 
			},
			{
				"x": -0.7274852206,
				"y": 2.3684329156,
				"z": -0.4958901351,
				"element": "C" 
			},
			{
				"x": 0.3312631686,
				"y": 1.9882396016,
				"z": -1.3170906848,
				"element": "C" 
			},
			{
				"x": 0.8805031019,
				"y": 0.719890842,
				"z": -1.1930428353,
				"element": "C" 
			},
			{
				"x": 2.2141345463,
				"y": 0.2491170555,
				"z": -2.2470298109,
				"element": "Cl" 
			},
			{
				"x": 0.402712967,
				"y": -0.213930581,
				"z": -0.2496547538,
				"element": "C" 
			},
			{
				"x": 0.986556993,
				"y": -1.4503938918,
				"z": -0.0903726101,
				"element": "N" 
			},
			{
				"x": -0.6758349519,
				"y": 0.2168642742,
				"z": 0.5535504333,
				"element": "C" 
			},
			{
				"x": -1.3133457713,
				"y": -0.9342175637,
				"z": 1.7348377472,
				"element": "Cl" 
			},
			{
				"x": -2.7106548166,
				"y": 2.9272012489,
				"z": 1.1094972717,
				"element": "H" 
			},
			{
				"x": -2.1334288164,
				"y": 1.8546289232,
				"z": 2.3977769408,
				"element": "H" 
			},
			{
				"x": -3.270594243,
				"y": 1.2476671274,
				"z": 1.2012220498,
				"element": "H" 
			},
			{
				"x": -1.1539786706,
				"y": 3.3615645676,
				"z": -0.5936033382,
				"element": "H" 
			},
			{
				"x": 0.7330925091,
				"y": 2.6715224176,
				"z": -2.0569314405,
				"element": "H" 
			},
			{
				"x": 0.4325938375,
				"y": -2.1509936808,
				"z": 0.3786700462,
				"element": "H" 
			},
			{
				"x": 1.5428354647,
				"y": -1.7832636731,
				"z": -0.8635807427,
				"element": "H" 
			}
		],
		 "valence_orbital": [ 
			{
				"type": "occ",
				"energy": -0.32215,
				"method": "rhf"
			},
			{
				"type": "occ",
				"energy": -0.31793,
				"method": "rhf"
			},
			{
				"type": "occ",
				"energy": -0.31583,
				"method": "rhf"
			},
			{
				"type": "occ",
				"energy": -0.2409,
				"method": "rhf"
			},
			{
				"type": "occ",
				"energy": -0.21263,
				"method": "rhf"
			},
			{
				"type": "unocc",
				"energy": -0.01373,
				"method": "rhf"
			},
			{
				"type": "unocc",
				"energy": 0.00411,
				"method": "rhf"
			},
			{
				"type": "unocc",
				"energy": 0.00924,
				"method": "rhf"
			},
			{
				"type": "unocc",
				"energy": 0.05373,
				"method": "rhf"
			},
			{
				"type": "unocc",
				"energy": 0.09291,
				"method": "rhf"
			}
		],
		"cosmo_sigma_profile": { 
			"-0.025": 0.0,
			"-0.024": 0.0,
			"-0.023": 0.0,
			"-0.022": 0.0,
			"-0.021": 0.0,
			"-0.02": 0.0,
			"-0.019": 0.0,
			"-0.018": 0.0,
			"-0.017": 0.0,
			"-0.016": 0.0,
			"-0.015": 0.0,
			"-0.014": 0.0,
			"-0.013": 0.0941424349005,
			"-0.012": 1.70172841589,
			"-0.011": 1.52913353801,
			"-0.01": 2.13053087774,
			"-0.009": 1.89353058393,
			"-0.008": 1.63502841486,
			"-0.007": 4.07500763466,
			"-0.006": 5.42149088542,
			"-0.005": 8.88018214691,
			"-0.004": 9.83455397797,
			"-0.003": 10.5999580118,
			"-0.002": 12.6955345083,
			"-0.001": 16.8206953046,
			"0.0": 17.8145910887,
			"0.001": 17.0081368466,
			"0.002": 19.7297325567,
			"0.003": 22.9316888708,
			"0.004": 21.1948882185,
			"0.005": 11.5069088227,
			"0.006": 1.1232007849,
			"0.007": 0.562942698106,
			"0.008": 0.404871436181,
			"0.009": 1.07715087298,
			"0.01": 0.414206061862,
			"0.011": 0.644211226337,
			"0.012": 0.271386285685,
			"0.013": 0.0,
			"0.014": 0.0,
			"0.015": 0.0,
			"0.016": 0.0,
			"0.017": 0.0,
			"0.018": 0.0,
			"0.019": 0.0,
			"0.02": 0.0,
			"0.021": 0.0,
			"0.022": 0.0,
			"0.023": 0.0,
			"0.024": 0.0,
			"0.025": 0.0
		}
	}
}
