{
	 "smiles": "CCOC(=O)C1=NOC(=C1)C1=CC=CO1", 
	 "Tm": 322.65, 
	 "num_atms": 24, 
	 "gaussian": { 
		 "optdone": 1, 
		 "sigma_profile": "yes", 
		 "theory": "DFT", 
		 "functional": "B3LYP", 
		 "basiset": "6-31G**", 
		 "properties": { 
			 "R2extent": 4580.0917, 
			 "electric_dipole_moment_norm": 4.04899693751, 
			 "electric_quadrupole_moment_norm": 16.6280735959, 
			 "total_energy": -742.055524665, 
			 "HOMO_LUMO_gap": 0.16735, 
			 "cosmo_polarized_energy": -10.97, 
			 "cosmo_cavitation_energy": 30.01, 
			 "cosmo_dispersion_energy": -22.06, 
			 "cosmo_repulsion_energy": 1.74, 
			 "cosmo_total_nonelectrostatic_energy": 9.68, 
			 "SMD_solvation_energy": 7.75 
		},
		"coords": [
			{
				"x": 2.3080230552,
				"y": -1.5035635792,
				"z": 4.7676133851,
				"element": "C" 
			},
			{
				"x": 1.7157800974,
				"y": -1.2488190358,
				"z": 3.3940359966,
				"element": "C" 
			},
			{
				"x": 0.7781550289,
				"y": -0.1546291801,
				"z": 3.5488025403,
				"element": "O" 
			},
			{
				"x": 0.0390241477,
				"y": 0.3799891218,
				"z": 2.5637028802,
				"element": "C" 
			},
			{
				"x": -0.7142776669,
				"y": 1.2968570821,
				"z": 2.8134768052,
				"element": "O" 
			},
			{
				"x": 0.113631303,
				"y": -0.1228494291,
				"z": 1.1505644237,
				"element": "C" 
			},
			{
				"x": 0.8812714752,
				"y": -1.1089969706,
				"z": 0.7235204713,
				"element": "N" 
			},
			{
				"x": 0.6200092077,
				"y": -1.2199145199,
				"z": -0.6356400376,
				"element": "O" 
			},
			{
				"x": -0.3050086793,
				"y": -0.2906720348,
				"z": -0.993900956,
				"element": "C" 
			},
			{
				"x": -0.6662854756,
				"y": 0.4393888565,
				"z": 0.1030436581,
				"element": "C" 
			},
			{
				"x": -0.6961719156,
				"y": -0.2634174489,
				"z": -2.3772161411,
				"element": "C" 
			},
			{
				"x": -0.325665409,
				"y": -1.0028923756,
				"z": -3.4704065844,
				"element": "C" 
			},
			{
				"x": -1.076589687,
				"y": -0.4890459346,
				"z": -4.5707547272,
				"element": "C" 
			},
			{
				"x": -1.8452108011,
				"y": 0.520229225,
				"z": -4.069828946,
				"element": "C" 
			},
			{
				"x": -1.6273847896,
				"y": 0.6727194023,
				"z": -2.7355658822,
				"element": "O" 
			},
			{
				"x": 1.5272973404,
				"y": -1.7741828321,
				"z": 5.4838038177,
				"element": "H" 
			},
			{
				"x": 3.0284627564,
				"y": -2.3256593863,
				"z": 4.7116172646,
				"element": "H" 
			},
			{
				"x": 2.8241161195,
				"y": -0.6142833246,
				"z": 5.1397986231,
				"element": "H" 
			},
			{
				"x": 1.1922651895,
				"y": -2.1277187969,
				"z": 3.009306624,
				"element": "H" 
			},
			{
				"x": 2.4835332004,
				"y": -0.9727354549,
				"z": 2.6667797572,
				"element": "H" 
			},
			{
				"x": -1.3703403571,
				"y": 1.2505414999,
				"z": 0.180176039,
				"element": "H" 
			},
			{
				"x": 0.3925911099,
				"y": -1.8091831968,
				"z": -3.4776170207,
				"element": "H" 
			},
			{
				"x": -1.0472716649,
				"y": -0.8265103821,
				"z": -5.5964146368,
				"element": "H" 
			},
			{
				"x": -2.5642535853,
				"y": 1.1954486949,
				"z": -4.5066973541,
				"element": "H" 
			}
		],
		 "valence_orbital": [ 
			{
				"type": "occ",
				"energy": -0.30583,
				"method": "rhf"
			},
			{
				"type": "occ",
				"energy": -0.2966,
				"method": "rhf"
			},
			{
				"type": "occ",
				"energy": -0.28981,
				"method": "rhf"
			},
			{
				"type": "occ",
				"energy": -0.27632,
				"method": "rhf"
			},
			{
				"type": "occ",
				"energy": -0.22983,
				"method": "rhf"
			},
			{
				"type": "unocc",
				"energy": -0.06248,
				"method": "rhf"
			},
			{
				"type": "unocc",
				"energy": -0.03214,
				"method": "rhf"
			},
			{
				"type": "unocc",
				"energy": 0.03226,
				"method": "rhf"
			},
			{
				"type": "unocc",
				"energy": 0.08043,
				"method": "rhf"
			},
			{
				"type": "unocc",
				"energy": 0.08384,
				"method": "rhf"
			}
		],
		"cosmo_sigma_profile": { 
			"-0.025": 0.0,
			"-0.024": 0.0,
			"-0.023": 0.0,
			"-0.022": 0.0,
			"-0.021": 0.0,
			"-0.02": 0.0,
			"-0.019": 0.0,
			"-0.018": 0.0,
			"-0.017": 0.0,
			"-0.016": 0.0,
			"-0.015": 0.0,
			"-0.014": 0.0,
			"-0.013": 0.0,
			"-0.012": 0.0,
			"-0.011": 0.0,
			"-0.01": 1.09013527855,
			"-0.009": 2.74997917708,
			"-0.008": 5.29058709762,
			"-0.007": 5.7887252586,
			"-0.006": 8.98608893576,
			"-0.005": 16.4627080918,
			"-0.004": 20.0470992704,
			"-0.003": 16.4397999058,
			"-0.002": 19.2907211065,
			"-0.001": 27.4202026849,
			"0.0": 23.6699629327,
			"0.001": 17.844576557,
			"0.002": 13.6241678133,
			"0.003": 12.1980803776,
			"0.004": 9.23158898758,
			"0.005": 6.21599591167,
			"0.006": 7.94898402033,
			"0.007": 5.20775483,
			"0.008": 3.6261538745,
			"0.009": 3.87709006216,
			"0.01": 4.21352125868,
			"0.011": 5.75785540376,
			"0.012": 2.94094918913,
			"0.013": 0.932812090658,
			"0.014": 0.0,
			"0.015": 0.0,
			"0.016": 0.0,
			"0.017": 0.0,
			"0.018": 0.0,
			"0.019": 0.0,
			"0.02": 0.0,
			"0.021": 0.0,
			"0.022": 0.0,
			"0.023": 0.0,
			"0.024": 0.0,
			"0.025": 0.0
		}
	}
}
