{
	 "smiles": "CC1=CC=C(C=CC(O)=O)C=C1", 
	 "Tm": 473.15, 
	 "num_atms": 22, 
	 "gaussian": { 
		 "optdone": 1, 
		 "sigma_profile": "yes", 
		 "theory": "DFT", 
		 "functional": "B3LYP", 
		 "basiset": "6-31G**", 
		 "properties": { 
			 "R2extent": 3870.8487, 
			 "electric_dipole_moment_norm": 6.2758043118, 
			 "electric_quadrupole_moment_norm": 26.1631308041, 
			 "total_energy": -537.538776748, 
			 "HOMO_LUMO_gap": 0.16769, 
			 "cosmo_polarized_energy": -15.51, 
			 "cosmo_cavitation_energy": 26.73, 
			 "cosmo_dispersion_energy": -19.45, 
			 "cosmo_repulsion_energy": 1.55, 
			 "cosmo_total_nonelectrostatic_energy": 8.83, 
			 "SMD_solvation_energy": 5.94 
		},
		"coords": [
			{
				"x": -3.1400618356,
				"y": 2.4484018175,
				"z": 0.0865286565,
				"element": "C" 
			},
			{
				"x": -2.0137352815,
				"y": 1.6048980113,
				"z": -0.4583789992,
				"element": "C" 
			},
			{
				"x": -1.952044551,
				"y": 1.2552300381,
				"z": -1.811743868,
				"element": "C" 
			},
			{
				"x": -0.9011011291,
				"y": 0.4857418743,
				"z": -2.3063209143,
				"element": "C" 
			},
			{
				"x": 0.1306693583,
				"y": 0.0363328874,
				"z": -1.465692103,
				"element": "C" 
			},
			{
				"x": 1.209950215,
				"y": -0.7710345721,
				"z": -2.0367403051,
				"element": "C" 
			},
			{
				"x": 2.308351392,
				"y": -1.2380934347,
				"z": -1.4123162015,
				"element": "C" 
			},
			{
				"x": 3.397670582,
				"y": -2.0034495467,
				"z": -2.0682557447,
				"element": "C" 
			},
			{
				"x": 3.0985830238,
				"y": -2.6584239908,
				"z": -3.2275739923,
				"element": "O" 
			},
			{
				"x": 4.5199190955,
				"y": -2.0523907965,
				"z": -1.6191833378,
				"element": "O" 
			},
			{
				"x": 0.0653257578,
				"y": 0.3861540945,
				"z": -0.1023423503,
				"element": "C" 
			},
			{
				"x": -0.9840841041,
				"y": 1.1524519602,
				"z": 0.3852596675,
				"element": "C" 
			},
			{
				"x": -3.9220857517,
				"y": 2.6044343075,
				"z": -0.6612067859,
				"element": "H" 
			},
			{
				"x": -3.599553231,
				"y": 1.9809330991,
				"z": 0.9643436613,
				"element": "H" 
			},
			{
				"x": -2.77857271,
				"y": 3.4347634621,
				"z": 0.4013542966,
				"element": "H" 
			},
			{
				"x": -2.7357229671,
				"y": 1.5883873172,
				"z": -2.4870385959,
				"element": "H" 
			},
			{
				"x": -0.8767294745,
				"y": 0.2287029082,
				"z": -3.362577758,
				"element": "H" 
			},
			{
				"x": 1.09185063,
				"y": -0.975447552,
				"z": -3.102190735,
				"element": "H" 
			},
			{
				"x": 2.5194567335,
				"y": -1.0011783712,
				"z": -0.3746575987,
				"element": "H" 
			},
			{
				"x": 2.1399248693,
				"y": -2.6821031403,
				"z": -3.3524825854,
				"element": "H" 
			},
			{
				"x": 0.8393634135,
				"y": 0.0523206071,
				"z": 0.5815597656,
				"element": "H" 
			},
			{
				"x": -1.0113740353,
				"y": 1.4065690199,
				"z": 1.4420558277,
				"element": "H" 
			}
		],
		 "valence_orbital": [ 
			{
				"type": "occ",
				"energy": -0.3175,
				"method": "rhf"
			},
			{
				"type": "occ",
				"energy": -0.30434,
				"method": "rhf"
			},
			{
				"type": "occ",
				"energy": -0.26663,
				"method": "rhf"
			},
			{
				"type": "occ",
				"energy": -0.26631,
				"method": "rhf"
			},
			{
				"type": "occ",
				"energy": -0.23751,
				"method": "rhf"
			},
			{
				"type": "unocc",
				"energy": -0.06982,
				"method": "rhf"
			},
			{
				"type": "unocc",
				"energy": -0.01652,
				"method": "rhf"
			},
			{
				"type": "unocc",
				"energy": 0.01406,
				"method": "rhf"
			},
			{
				"type": "unocc",
				"energy": 0.06289,
				"method": "rhf"
			},
			{
				"type": "unocc",
				"energy": 0.0802,
				"method": "rhf"
			}
		],
		"cosmo_sigma_profile": { 
			"-0.025": 0.0,
			"-0.024": 0.0,
			"-0.023": 0.0,
			"-0.022": 0.0,
			"-0.021": 0.0,
			"-0.02": 0.0,
			"-0.019": 0.0169260737105,
			"-0.018": 0.587761882304,
			"-0.017": 1.06140022269,
			"-0.016": 1.11664463978,
			"-0.015": 0.847468494335,
			"-0.014": 0.874169581352,
			"-0.013": 1.1334947711,
			"-0.012": 1.0999529668,
			"-0.011": 1.05030518502,
			"-0.01": 1.17804645151,
			"-0.009": 1.82402609577,
			"-0.008": 4.0358398964,
			"-0.007": 5.0478849189,
			"-0.006": 8.79866915173,
			"-0.005": 12.5525257439,
			"-0.004": 17.4875636044,
			"-0.003": 15.5902644571,
			"-0.002": 15.1388478766,
			"-0.001": 16.0746106464,
			"0.0": 17.0786070918,
			"0.001": 12.873549126,
			"0.002": 13.4299395894,
			"0.003": 13.4690359959,
			"0.004": 11.8699798618,
			"0.005": 8.60001875271,
			"0.006": 2.26066837353,
			"0.007": 2.87585856403,
			"0.008": 2.63134600693,
			"0.009": 2.27599608997,
			"0.01": 4.11557055224,
			"0.011": 5.02994628353,
			"0.012": 6.26821145815,
			"0.013": 4.08067965321,
			"0.014": 0.711976300051,
			"0.015": 0.0,
			"0.016": 0.0,
			"0.017": 0.0,
			"0.018": 0.0,
			"0.019": 0.0,
			"0.02": 0.0,
			"0.021": 0.0,
			"0.022": 0.0,
			"0.023": 0.0,
			"0.024": 0.0,
			"0.025": 0.0
		}
	}
}
