{
	 "smiles": "CCC1=CC=CC=C1NC(=O)C1=CC=CC2=C1C=CC=C2", 
	 "Tm": 448.15, 
	 "num_atms": 38, 
	 "gaussian": { 
		 "optdone": 1, 
		 "sigma_profile": "yes", 
		 "theory": "DFT", 
		 "functional": "B3LYP", 
		 "basiset": "6-31G**", 
		 "properties": { 
			 "R2extent": 6827.6096, 
			 "electric_dipole_moment_norm": 3.36425896001, 
			 "electric_quadrupole_moment_norm": 20.9213575951, 
			 "total_energy": -864.273954868, 
			 "HOMO_LUMO_gap": 0.16778, 
			 "cosmo_polarized_energy": -12.55, 
			 "cosmo_cavitation_energy": 40.46, 
			 "cosmo_dispersion_energy": -27.3, 
			 "cosmo_repulsion_energy": 2.09, 
			 "cosmo_total_nonelectrostatic_energy": 15.25, 
			 "SMD_solvation_energy": 7.32 
		},
		"coords": [
			{
				"x": 1.388131409,
				"y": -0.2956867955,
				"z": -3.3373816572,
				"element": "C" 
			},
			{
				"x": 0.5849003908,
				"y": 0.0517381304,
				"z": -2.0705651226,
				"element": "C" 
			},
			{
				"x": 0.6314703693,
				"y": 1.5278000034,
				"z": -1.7331115338,
				"element": "C" 
			},
			{
				"x": -0.4373064617,
				"y": 2.3566012819,
				"z": -2.1035021148,
				"element": "C" 
			},
			{
				"x": -0.4079186909,
				"y": 3.7363956378,
				"z": -1.905021563,
				"element": "C" 
			},
			{
				"x": 0.7116685715,
				"y": 4.3263523286,
				"z": -1.318616279,
				"element": "C" 
			},
			{
				"x": 1.7767903073,
				"y": 3.5218099525,
				"z": -0.9193031586,
				"element": "C" 
			},
			{
				"x": 1.7421698686,
				"y": 2.1345454972,
				"z": -1.111207932,
				"element": "C" 
			},
			{
				"x": 2.8980071516,
				"y": 1.382374734,
				"z": -0.7256841056,
				"element": "N" 
			},
			{
				"x": 3.0756582022,
				"y": 0.3764479344,
				"z": 0.2055414361,
				"element": "C" 
			},
			{
				"x": 4.1429711527,
				"y": -0.2301159364,
				"z": 0.2363207932,
				"element": "O" 
			},
			{
				"x": 1.967025267,
				"y": 0.0942355332,
				"z": 1.1816411511,
				"element": "C" 
			},
			{
				"x": 1.3316543993,
				"y": 1.14513966,
				"z": 1.8191849973,
				"element": "C" 
			},
			{
				"x": 0.3455778333,
				"y": 0.9195982266,
				"z": 2.8053749408,
				"element": "C" 
			},
			{
				"x": -0.0131163244,
				"y": -0.3649527043,
				"z": 3.1369714174,
				"element": "C" 
			},
			{
				"x": 0.6082580789,
				"y": -1.4784985858,
				"z": 2.511022371,
				"element": "C" 
			},
			{
				"x": 1.6324660217,
				"y": -1.2603211366,
				"z": 1.5287178941,
				"element": "C" 
			},
			{
				"x": 2.2430090463,
				"y": -2.3990185969,
				"z": 0.9304834733,
				"element": "C" 
			},
			{
				"x": 1.8543815061,
				"y": -3.6739249791,
				"z": 1.2789084293,
				"element": "C" 
			},
			{
				"x": 0.8423750988,
				"y": -3.8857931558,
				"z": 2.2445611983,
				"element": "C" 
			},
			{
				"x": 0.2363228149,
				"y": -2.8083514243,
				"z": 2.8472421747,
				"element": "C" 
			},
			{
				"x": 1.0192267492,
				"y": 0.2642608136,
				"z": -4.2028125512,
				"element": "H" 
			},
			{
				"x": 2.4485732962,
				"y": -0.0584047362,
				"z": -3.2099262387,
				"element": "H" 
			},
			{
				"x": 1.3082175176,
				"y": -1.3638212062,
				"z": -3.5636075077,
				"element": "H" 
			},
			{
				"x": 0.9486821987,
				"y": -0.5506042217,
				"z": -1.2344244829,
				"element": "H" 
			},
			{
				"x": -0.4617151033,
				"y": -0.2371620339,
				"z": -2.2182003289,
				"element": "H" 
			},
			{
				"x": -1.3060179345,
				"y": 1.902723239,
				"z": -2.5740381944,
				"element": "H" 
			},
			{
				"x": -1.2526880038,
				"y": 4.3463928991,
				"z": -2.211473052,
				"element": "H" 
			},
			{
				"x": 0.7535681372,
				"y": 5.400260129,
				"z": -1.1631354575,
				"element": "H" 
			},
			{
				"x": 2.6514984568,
				"y": 3.9586175995,
				"z": -0.4452444909,
				"element": "H" 
			},
			{
				"x": 3.7542795989,
				"y": 1.5592674656,
				"z": -1.2386046025,
				"element": "H" 
			},
			{
				"x": 1.6003614265,
				"y": 2.1648899679,
				"z": 1.568850231,
				"element": "H" 
			},
			{
				"x": -0.1254416522,
				"y": 1.7672032954,
				"z": 3.2939265698,
				"element": "H" 
			},
			{
				"x": -0.7773361114,
				"y": -0.5488536994,
				"z": 3.8879272552,
				"element": "H" 
			},
			{
				"x": 3.0394298358,
				"y": -2.2480269158,
				"z": 0.2132602078,
				"element": "H" 
			},
			{
				"x": 2.336177202,
				"y": -4.5277721871,
				"z": 0.8110745799,
				"element": "H" 
			},
			{
				"x": 0.5497512155,
				"y": -4.8977816785,
				"z": 2.5092505469,
				"element": "H" 
			},
			{
				"x": -0.5407628414,
				"y": -2.9566643354,
				"z": 3.5928007059,
				"element": "H" 
			}
		],
		 "valence_orbital": [ 
			{
				"type": "occ",
				"energy": -0.25237,
				"method": "rhf"
			},
			{
				"type": "occ",
				"energy": -0.2484,
				"method": "rhf"
			},
			{
				"type": "occ",
				"energy": -0.24285,
				"method": "rhf"
			},
			{
				"type": "occ",
				"energy": -0.236,
				"method": "rhf"
			},
			{
				"type": "occ",
				"energy": -0.21553,
				"method": "rhf"
			},
			{
				"type": "unocc",
				"energy": -0.04775,
				"method": "rhf"
			},
			{
				"type": "unocc",
				"energy": -0.0173,
				"method": "rhf"
			},
			{
				"type": "unocc",
				"energy": -0.00986,
				"method": "rhf"
			},
			{
				"type": "unocc",
				"energy": -0.00658,
				"method": "rhf"
			},
			{
				"type": "unocc",
				"energy": 0.00999,
				"method": "rhf"
			}
		],
		"cosmo_sigma_profile": { 
			"-0.025": 0.0,
			"-0.024": 0.0,
			"-0.023": 0.0,
			"-0.022": 0.0,
			"-0.021": 0.0,
			"-0.02": 0.0,
			"-0.019": 0.0,
			"-0.018": 0.0,
			"-0.017": 0.0,
			"-0.016": 0.0,
			"-0.015": 0.0,
			"-0.014": 0.316704478224,
			"-0.013": 0.93526491032,
			"-0.012": 1.24623020338,
			"-0.011": 0.466660459475,
			"-0.01": 0.787501487986,
			"-0.009": 0.994912178293,
			"-0.008": 0.775246596162,
			"-0.007": 2.20222656135,
			"-0.006": 16.4991291135,
			"-0.005": 22.5040446302,
			"-0.004": 28.4419180769,
			"-0.003": 28.6201490892,
			"-0.002": 24.4412637272,
			"-0.001": 25.7565551557,
			"0.0": 28.5080037143,
			"0.001": 27.4538558374,
			"0.002": 20.6098682617,
			"0.003": 26.0183025646,
			"0.004": 27.203028311,
			"0.005": 17.9928497598,
			"0.006": 3.41016902565,
			"0.007": 2.23724848631,
			"0.008": 1.46393371684,
			"0.009": 1.53953727842,
			"0.01": 1.2143557763,
			"0.011": 1.62925211725,
			"0.012": 2.29125296003,
			"0.013": 4.62145901101,
			"0.014": 2.48525650639,
			"0.015": 0.0235795871811,
			"0.016": 0.0,
			"0.017": 0.0,
			"0.018": 0.0,
			"0.019": 0.0,
			"0.02": 0.0,
			"0.021": 0.0,
			"0.022": 0.0,
			"0.023": 0.0,
			"0.024": 0.0,
			"0.025": 0.0
		}
	}
}
