{
	 "smiles": "OC(=O)CN1C=NC(=N1)C1=CC=CC=C1", 
	 "Tm": 453.15, 
	 "num_atms": 24, 
	 "gaussian": { 
		 "optdone": 1, 
		 "sigma_profile": "yes", 
		 "theory": "DFT", 
		 "functional": "B3LYP", 
		 "basiset": "6-31G**", 
		 "properties": { 
			 "R2extent": 4038.5411, 
			 "electric_dipole_moment_norm": 3.55276640099, 
			 "electric_quadrupole_moment_norm": 24.836068403, 
			 "total_energy": -701.194649099, 
			 "HOMO_LUMO_gap": 0.19428, 
			 "cosmo_polarized_energy": -16.47, 
			 "cosmo_cavitation_energy": 29.1, 
			 "cosmo_dispersion_energy": -21.38, 
			 "cosmo_repulsion_energy": 1.65, 
			 "cosmo_total_nonelectrostatic_energy": 9.38, 
			 "SMD_solvation_energy": 4.59 
		},
		"coords": [
			{
				"x": -2.5132590045,
				"y": -2.0830201695,
				"z": -0.8014817417,
				"element": "O" 
			},
			{
				"x": -2.73215846,
				"y": -1.8790216074,
				"z": -2.1014501337,
				"element": "C" 
			},
			{
				"x": -3.6665877471,
				"y": -2.3533064874,
				"z": -2.7000339613,
				"element": "O" 
			},
			{
				"x": -1.671223865,
				"y": -1.0577277533,
				"z": -2.8667476459,
				"element": "C" 
			},
			{
				"x": -0.9874992449,
				"y": -0.0412182738,
				"z": -2.0803710377,
				"element": "N" 
			},
			{
				"x": -0.7436415062,
				"y": 1.2590164925,
				"z": -2.3506827821,
				"element": "C" 
			},
			{
				"x": -0.0572728149,
				"y": 1.8165686363,
				"z": -1.3709783344,
				"element": "N" 
			},
			{
				"x": 0.1098900585,
				"y": 0.7972097472,
				"z": -0.4758112481,
				"element": "C" 
			},
			{
				"x": -0.4388027259,
				"y": -0.3545774853,
				"z": -0.8752622377,
				"element": "N" 
			},
			{
				"x": 0.8220109103,
				"y": 0.9526689183,
				"z": 0.7989049583,
				"element": "C" 
			},
			{
				"x": 1.3057839543,
				"y": 2.2161453849,
				"z": 1.1701503866,
				"element": "C" 
			},
			{
				"x": 1.9818010241,
				"y": 2.3790017599,
				"z": 2.3775875515,
				"element": "C" 
			},
			{
				"x": 2.1817414225,
				"y": 1.2866655423,
				"z": 3.2245669376,
				"element": "C" 
			},
			{
				"x": 1.7031810025,
				"y": 0.0260223819,
				"z": 2.8576385696,
				"element": "C" 
			},
			{
				"x": 1.0275934714,
				"y": -0.1431677823,
				"z": 1.6516946632,
				"element": "C" 
			},
			{
				"x": -1.6959678633,
				"y": -1.606632513,
				"z": -0.5149122411,
				"element": "H" 
			},
			{
				"x": -2.1695973979,
				"y": -0.5720630261,
				"z": -3.7052860656,
				"element": "H" 
			},
			{
				"x": -0.9337485068,
				"y": -1.7644229375,
				"z": -3.2664031478,
				"element": "H" 
			},
			{
				"x": -1.0777561027,
				"y": 1.7425031067,
				"z": -3.2585126878,
				"element": "H" 
			},
			{
				"x": 1.1438327507,
				"y": 3.0565786298,
				"z": 0.5040410264,
				"element": "H" 
			},
			{
				"x": 2.3525095542,
				"y": 3.3605217399,
				"z": 2.658215976,
				"element": "H" 
			},
			{
				"x": 2.7085783533,
				"y": 1.4158100932,
				"z": 4.1655627122,
				"element": "H" 
			},
			{
				"x": 1.8581645239,
				"y": -0.8270111933,
				"z": 3.5116876084,
				"element": "H" 
			},
			{
				"x": 0.6614282136,
				"y": -1.123043204,
				"z": 1.3632828753,
				"element": "H" 
			}
		],
		 "valence_orbital": [ 
			{
				"type": "occ",
				"energy": -0.30647,
				"method": "rhf"
			},
			{
				"type": "occ",
				"energy": -0.30061,
				"method": "rhf"
			},
			{
				"type": "occ",
				"energy": -0.27575,
				"method": "rhf"
			},
			{
				"type": "occ",
				"energy": -0.25905,
				"method": "rhf"
			},
			{
				"type": "occ",
				"energy": -0.24157,
				"method": "rhf"
			},
			{
				"type": "unocc",
				"energy": -0.04729,
				"method": "rhf"
			},
			{
				"type": "unocc",
				"energy": -0.01373,
				"method": "rhf"
			},
			{
				"type": "unocc",
				"energy": -0.00382,
				"method": "rhf"
			},
			{
				"type": "unocc",
				"energy": 0.00436,
				"method": "rhf"
			},
			{
				"type": "unocc",
				"energy": 0.06107,
				"method": "rhf"
			}
		],
		"cosmo_sigma_profile": { 
			"-0.025": 0.0,
			"-0.024": 0.0,
			"-0.023": 0.0,
			"-0.022": 0.0,
			"-0.021": 0.0,
			"-0.02": 0.0,
			"-0.019": 0.0,
			"-0.018": 0.0,
			"-0.017": 0.0,
			"-0.016": 0.0,
			"-0.015": 0.0,
			"-0.014": 0.0,
			"-0.013": 0.164247370372,
			"-0.012": 2.11089788831,
			"-0.011": 3.58398666923,
			"-0.01": 5.74147388844,
			"-0.009": 5.9668993173,
			"-0.008": 5.83130887357,
			"-0.007": 7.97199361605,
			"-0.006": 13.5409725198,
			"-0.005": 14.6135437257,
			"-0.004": 17.1213459445,
			"-0.003": 12.2408567443,
			"-0.002": 13.1305528263,
			"-0.001": 10.8988203639,
			"0.0": 12.1791570055,
			"0.001": 14.2409478762,
			"0.002": 14.396202478,
			"0.003": 14.8437300324,
			"0.004": 14.1087813955,
			"0.005": 12.7488968783,
			"0.006": 5.04205470475,
			"0.007": 3.94632717707,
			"0.008": 4.19074020479,
			"0.009": 4.566256919,
			"0.01": 6.52527303463,
			"0.011": 6.46359454997,
			"0.012": 5.61668361636,
			"0.013": 1.84293188492,
			"0.014": 0.570119916781,
			"0.015": 0.0,
			"0.016": 0.0,
			"0.017": 0.0,
			"0.018": 0.0,
			"0.019": 0.0,
			"0.02": 0.0,
			"0.021": 0.0,
			"0.022": 0.0,
			"0.023": 0.0,
			"0.024": 0.0,
			"0.025": 0.0
		}
	}
}
