{
	 "smiles": "FC(F)(F)CN1C=C(C=O)C=N1", 
	 "Tm": 330.15, 
	 "num_atms": 17, 
	 "gaussian": { 
		 "optdone": 1, 
		 "sigma_profile": "yes", 
		 "theory": "DFT", 
		 "functional": "B3LYP", 
		 "basiset": "6-31G**", 
		 "properties": { 
			 "R2extent": 2523.2215, 
			 "electric_dipole_moment_norm": 2.57960765428, 
			 "electric_quadrupole_moment_norm": 11.1150734136, 
			 "total_energy": -715.868765263, 
			 "HOMO_LUMO_gap": 0.20271, 
			 "cosmo_polarized_energy": -12.1, 
			 "cosmo_cavitation_energy": 23.94, 
			 "cosmo_dispersion_energy": -16.51, 
			 "cosmo_repulsion_energy": 1.26, 
			 "cosmo_total_nonelectrostatic_energy": 8.69, 
			 "SMD_solvation_energy": 5.82 
		},
		"coords": [
			{
				"x": 2.722606127,
				"y": -0.303260732,
				"z": 0.9386963917,
				"element": "F" 
			},
			{
				"x": 1.5090663626,
				"y": -0.5703889919,
				"z": 0.4160828191,
				"element": "C" 
			},
			{
				"x": 1.4503168821,
				"y": -0.0063016519,
				"z": -0.8092964421,
				"element": "F" 
			},
			{
				"x": 1.3942857923,
				"y": -1.8974373026,
				"z": 0.2660737,
				"element": "F" 
			},
			{
				"x": 0.4305944578,
				"y": -0.0026509528,
				"z": 1.3317536946,
				"element": "C" 
			},
			{
				"x": -0.904683466,
				"y": -0.2589725869,
				"z": 0.8398340962,
				"element": "N" 
			},
			{
				"x": -1.5530893005,
				"y": 0.3544724182,
				"z": -0.1757846807,
				"element": "C" 
			},
			{
				"x": -2.7847668194,
				"y": -0.2769623192,
				"z": -0.2982537103,
				"element": "C" 
			},
			{
				"x": -3.8436584346,
				"y": 0.0455630503,
				"z": -1.2526954419,
				"element": "C" 
			},
			{
				"x": -3.7743576793,
				"y": 0.9385255213,
				"z": -2.0795526659,
				"element": "O" 
			},
			{
				"x": -2.7652675355,
				"y": -1.2789029141,
				"z": 0.7102400093,
				"element": "C" 
			},
			{
				"x": -1.6317877402,
				"y": -1.2719416897,
				"z": 1.3961558515,
				"element": "N" 
			},
			{
				"x": 0.5167616011,
				"y": -0.4735155413,
				"z": 2.3110614729,
				"element": "H" 
			},
			{
				"x": 0.6018130508,
				"y": 1.0722577185,
				"z": 1.4293283761,
				"element": "H" 
			},
			{
				"x": -1.1223515436,
				"y": 1.1693048965,
				"z": -0.7376195052,
				"element": "H" 
			},
			{
				"x": -4.7489540787,
				"y": -0.5953102453,
				"z": -1.1765134771,
				"element": "H" 
			},
			{
				"x": -3.5388276758,
				"y": -1.9939786771,
				"z": 0.9586895119,
				"element": "H" 
			}
		],
		 "valence_orbital": [ 
			{
				"type": "occ",
				"energy": -0.3846,
				"method": "rhf"
			},
			{
				"type": "occ",
				"energy": -0.31767,
				"method": "rhf"
			},
			{
				"type": "occ",
				"energy": -0.28313,
				"method": "rhf"
			},
			{
				"type": "occ",
				"energy": -0.26863,
				"method": "rhf"
			},
			{
				"type": "occ",
				"energy": -0.25526,
				"method": "rhf"
			},
			{
				"type": "unocc",
				"energy": -0.05255,
				"method": "rhf"
			},
			{
				"type": "unocc",
				"energy": -0.00353,
				"method": "rhf"
			},
			{
				"type": "unocc",
				"energy": 0.07929,
				"method": "rhf"
			},
			{
				"type": "unocc",
				"energy": 0.08548,
				"method": "rhf"
			},
			{
				"type": "unocc",
				"energy": 0.1034,
				"method": "rhf"
			}
		],
		"cosmo_sigma_profile": { 
			"-0.025": 0.0,
			"-0.024": 0.0,
			"-0.023": 0.0,
			"-0.022": 0.0,
			"-0.021": 0.0,
			"-0.02": 0.0,
			"-0.019": 0.0,
			"-0.018": 0.0,
			"-0.017": 0.0,
			"-0.016": 0.0,
			"-0.015": 0.0,
			"-0.014": 0.0,
			"-0.013": 0.0,
			"-0.012": 0.0206581261995,
			"-0.011": 2.08189802309,
			"-0.01": 6.18440082181,
			"-0.009": 6.0676816897,
			"-0.008": 7.44133598613,
			"-0.007": 9.10989062838,
			"-0.006": 9.65807498485,
			"-0.005": 6.92169445502,
			"-0.004": 6.02398417274,
			"-0.003": 7.73795392683,
			"-0.002": 8.88625340004,
			"-0.001": 10.9199792784,
			"0.0": 12.7766858679,
			"0.001": 16.5669525356,
			"0.002": 31.1569723803,
			"0.003": 15.1517399013,
			"0.004": 4.39085617545,
			"0.005": 3.6397031305,
			"0.006": 2.61364384425,
			"0.007": 3.45419648147,
			"0.008": 2.34044709095,
			"0.009": 2.94541478052,
			"0.01": 3.19839817822,
			"0.011": 5.25843143315,
			"0.012": 5.06628345756,
			"0.013": 1.94281696276,
			"0.014": 0.658025779947,
			"0.015": 0.0,
			"0.016": 0.0,
			"0.017": 0.0,
			"0.018": 0.0,
			"0.019": 0.0,
			"0.02": 0.0,
			"0.021": 0.0,
			"0.022": 0.0,
			"0.023": 0.0,
			"0.024": 0.0,
			"0.025": 0.0
		}
	}
}
