{
	 "smiles": "C1=CC2=C(C=CC3=NC=CC=C23)N=C1", 
	 "Tm": 450.15, 
	 "num_atms": 22, 
	 "gaussian": { 
		 "optdone": 1, 
		 "sigma_profile": "yes", 
		 "theory": "DFT", 
		 "functional": "B3LYP", 
		 "basiset": "6-31G**", 
		 "properties": { 
			 "R2extent": 2856.1, 
			 "electric_dipole_moment_norm": 3.33937650019, 
			 "electric_quadrupole_moment_norm": 4.79221308166, 
			 "total_energy": -571.614669337, 
			 "HOMO_LUMO_gap": 0.1773, 
			 "cosmo_polarized_energy": -9.92, 
			 "cosmo_cavitation_energy": 25.77, 
			 "cosmo_dispersion_energy": -19.65, 
			 "cosmo_repulsion_energy": 1.48, 
			 "cosmo_total_nonelectrostatic_energy": 7.6, 
			 "SMD_solvation_energy": 1.21 
		},
		"coords": [
			{
				"x": 3.155838941,
				"y": -0.6235505642,
				"z": 0.975872435,
				"element": "C" 
			},
			{
				"x": 1.783984243,
				"y": -0.471745825,
				"z": 0.9271894029,
				"element": "C" 
			},
			{
				"x": 1.1325675424,
				"y": -0.3862680819,
				"z": -0.3221754756,
				"element": "C" 
			},
			{
				"x": 1.9554513343,
				"y": -0.464212714,
				"z": -1.4840262511,
				"element": "C" 
			},
			{
				"x": 1.357237966,
				"y": -0.3839696185,
				"z": -2.7878767612,
				"element": "C" 
			},
			{
				"x": 0.0136135801,
				"y": -0.2342719404,
				"z": -2.9356281572,
				"element": "C" 
			},
			{
				"x": -0.8533419763,
				"y": -0.1512824949,
				"z": -1.7928960933,
				"element": "C" 
			},
			{
				"x": -2.1820030233,
				"y": -0.0022576365,
				"z": -2.0311360936,
				"element": "N" 
			},
			{
				"x": -2.9950757256,
				"y": 0.0758449949,
				"z": -0.9903295716,
				"element": "C" 
			},
			{
				"x": -2.559060428,
				"y": 0.0130283052,
				"z": 0.3474193359,
				"element": "C" 
			},
			{
				"x": -1.209371493,
				"y": -0.1384379951,
				"z": 0.5980245074,
				"element": "C" 
			},
			{
				"x": -0.3022979169,
				"y": -0.2264422336,
				"z": -0.4799560489,
				"element": "C" 
			},
			{
				"x": 3.3041019482,
				"y": -0.6135326824,
				"z": -1.4278412187,
				"element": "N" 
			},
			{
				"x": 3.8718220677,
				"y": -0.689247409,
				"z": -0.2351895432,
				"element": "C" 
			},
			{
				"x": 3.6793150557,
				"y": -0.6916322988,
				"z": 1.9241844799,
				"element": "H" 
			},
			{
				"x": 1.2161731586,
				"y": -0.4191946331,
				"z": 1.8505038642,
				"element": "H" 
			},
			{
				"x": 2.026822175,
				"y": -0.4484580928,
				"z": -3.6391708184,
				"element": "H" 
			},
			{
				"x": -0.4552155872,
				"y": -0.1718939563,
				"z": -3.9121078066,
				"element": "H" 
			},
			{
				"x": -4.0548300793,
				"y": 0.195070586,
				"z": -1.2121707403,
				"element": "H" 
			},
			{
				"x": -3.2758895867,
				"y": 0.0830267314,
				"z": 1.1593403951,
				"element": "H" 
			},
			{
				"x": -0.8555664428,
				"y": -0.1887813085,
				"z": 1.6227084422,
				"element": "H" 
			},
			{
				"x": 4.9544242473,
				"y": -0.8087911325,
				"z": -0.2214382829,
				"element": "H" 
			}
		],
		 "valence_orbital": [ 
			{
				"type": "occ",
				"energy": -0.29032,
				"method": "rhf"
			},
			{
				"type": "occ",
				"energy": -0.25929,
				"method": "rhf"
			},
			{
				"type": "occ",
				"energy": -0.25654,
				"method": "rhf"
			},
			{
				"type": "occ",
				"energy": -0.24495,
				"method": "rhf"
			},
			{
				"type": "occ",
				"energy": -0.23512,
				"method": "rhf"
			},
			{
				"type": "unocc",
				"energy": -0.05782,
				"method": "rhf"
			},
			{
				"type": "unocc",
				"energy": -0.05214,
				"method": "rhf"
			},
			{
				"type": "unocc",
				"energy": -0.0104,
				"method": "rhf"
			},
			{
				"type": "unocc",
				"energy": 0.01462,
				"method": "rhf"
			},
			{
				"type": "unocc",
				"energy": 0.0691,
				"method": "rhf"
			}
		],
		"cosmo_sigma_profile": { 
			"-0.025": 0.0,
			"-0.024": 0.0,
			"-0.023": 0.0,
			"-0.022": 0.0,
			"-0.021": 0.0,
			"-0.02": 0.0,
			"-0.019": 0.0,
			"-0.018": 0.0,
			"-0.017": 0.0,
			"-0.016": 0.0,
			"-0.015": 0.0,
			"-0.014": 0.0,
			"-0.013": 0.0,
			"-0.012": 0.0,
			"-0.011": 0.0,
			"-0.01": 0.647866590746,
			"-0.009": 1.83158311237,
			"-0.008": 2.91445780436,
			"-0.007": 8.49424481662,
			"-0.006": 15.8262812995,
			"-0.005": 15.682575646,
			"-0.004": 12.4051517757,
			"-0.003": 10.6892048648,
			"-0.002": 9.39170372736,
			"-0.001": 10.8020543543,
			"0.0": 15.7856069052,
			"0.001": 30.7854546212,
			"0.002": 28.7185955455,
			"0.003": 13.9410347072,
			"0.004": 5.90549049637,
			"0.005": 3.43017326705,
			"0.006": 2.38515017147,
			"0.007": 3.49220739839,
			"0.008": 2.90373680873,
			"0.009": 1.83231204198,
			"0.01": 1.4117923253,
			"0.011": 2.01409881699,
			"0.012": 1.64311070322,
			"0.013": 1.68377371601,
			"0.014": 1.70633482309,
			"0.015": 1.35645499835,
			"0.016": 0.996794047965,
			"0.017": 0.0856954041395,
			"0.018": 0.0,
			"0.019": 0.0,
			"0.02": 0.0,
			"0.021": 0.0,
			"0.022": 0.0,
			"0.023": 0.0,
			"0.024": 0.0,
			"0.025": 0.0
		}
	}
}
