{
	 "smiles": "COC1=CC(F)=C(OC)C=C1F", 
	 "Tm": 394.15, 
	 "num_atms": 20, 
	 "gaussian": { 
		 "optdone": 1, 
		 "sigma_profile": "yes", 
		 "theory": "DFT", 
		 "functional": "B3LYP", 
		 "basiset": "6-31G**", 
		 "properties": { 
			 "R2extent": 2657.7372, 
			 "electric_dipole_moment_norm": 0.000173205080757, 
			 "electric_quadrupole_moment_norm": 8.66164513242, 
			 "total_energy": -659.745036359, 
			 "HOMO_LUMO_gap": 0.19743, 
			 "cosmo_polarized_energy": -5.04, 
			 "cosmo_cavitation_energy": 24.68, 
			 "cosmo_dispersion_energy": -18.31, 
			 "cosmo_repulsion_energy": 1.42, 
			 "cosmo_total_nonelectrostatic_energy": 7.78, 
			 "SMD_solvation_energy": 6.7 
		},
		"coords": [
			{
				"x": 2.7109220259,
				"y": 0.7238786391,
				"z": -2.2782173661,
				"element": "C" 
			},
			{
				"x": 2.4827046827,
				"y": -0.468552522,
				"z": -1.5280215713,
				"element": "O" 
			},
			{
				"x": 1.4847727008,
				"y": -0.5353046515,
				"z": -0.6028299812,
				"element": "C" 
			},
			{
				"x": 1.3604081022,
				"y": -1.7568888549,
				"z": 0.0682444361,
				"element": "C" 
			},
			{
				"x": 0.3871127149,
				"y": -1.9617943864,
				"z": 1.0345768196,
				"element": "C" 
			},
			{
				"x": 0.3461336135,
				"y": -3.1816447236,
				"z": 1.6301552251,
				"element": "F" 
			},
			{
				"x": -0.5245757633,
				"y": -0.9565083697,
				"z": 1.3912884791,
				"element": "C" 
			},
			{
				"x": -1.5225311778,
				"y": -1.0232660744,
				"z": 2.3164571112,
				"element": "O" 
			},
			{
				"x": -1.7506834137,
				"y": -2.2156575257,
				"z": 3.0667372995,
				"element": "C" 
			},
			{
				"x": -0.4002164636,
				"y": 0.2650736139,
				"z": 0.7202076811,
				"element": "C" 
			},
			{
				"x": 0.5730789902,
				"y": 0.4699794215,
				"z": -0.2461239298,
				"element": "C" 
			},
			{
				"x": 0.6140322614,
				"y": 1.6898130052,
				"z": -0.8417363715,
				"element": "F" 
			},
			{
				"x": 2.9690623589,
				"y": 1.5673802122,
				"z": -1.6309772224,
				"element": "H" 
			},
			{
				"x": 3.5553593871,
				"y": 0.4921922468,
				"z": -2.9295826848,
				"element": "H" 
			},
			{
				"x": 1.8425246207,
				"y": 0.992790534,
				"z": -2.8869809465,
				"element": "H" 
			},
			{
				"x": 2.0432122353,
				"y": -2.562754885,
				"z": -0.1746534735,
				"element": "H" 
			},
			{
				"x": -2.0087907518,
				"y": -3.0592163861,
				"z": 2.4195589128,
				"element": "H" 
			},
			{
				"x": -2.5951253929,
				"y": -1.9839668232,
				"z": 3.7180956812,
				"element": "H" 
			},
			{
				"x": -0.8822664874,
				"y": -2.484484592,
				"z": 3.6755099672,
				"element": "H" 
			},
			{
				"x": -1.083034243,
				"y": 1.0709321219,
				"z": 0.9630919343,
				"element": "H" 
			}
		],
		 "valence_orbital": [ 
			{
				"type": "occ",
				"energy": -0.32896,
				"method": "rhf"
			},
			{
				"type": "occ",
				"energy": -0.32882,
				"method": "rhf"
			},
			{
				"type": "occ",
				"energy": -0.28646,
				"method": "rhf"
			},
			{
				"type": "occ",
				"energy": -0.24653,
				"method": "rhf"
			},
			{
				"type": "occ",
				"energy": -0.20318,
				"method": "rhf"
			},
			{
				"type": "unocc",
				"energy": -0.00575,
				"method": "rhf"
			},
			{
				"type": "unocc",
				"energy": 0.01891,
				"method": "rhf"
			},
			{
				"type": "unocc",
				"energy": 0.06683,
				"method": "rhf"
			},
			{
				"type": "unocc",
				"energy": 0.09505,
				"method": "rhf"
			},
			{
				"type": "unocc",
				"energy": 0.12284,
				"method": "rhf"
			}
		],
		"cosmo_sigma_profile": { 
			"-0.025": 0.0,
			"-0.024": 0.0,
			"-0.023": 0.0,
			"-0.022": 0.0,
			"-0.021": 0.0,
			"-0.02": 0.0,
			"-0.019": 0.0,
			"-0.018": 0.0,
			"-0.017": 0.0,
			"-0.016": 0.0,
			"-0.015": 0.0,
			"-0.014": 0.0,
			"-0.013": 0.0,
			"-0.012": 0.0,
			"-0.011": 0.0,
			"-0.01": 0.0,
			"-0.009": 0.0,
			"-0.008": 1.24697013569,
			"-0.007": 3.13535306049,
			"-0.006": 4.96560383643,
			"-0.005": 15.7467231085,
			"-0.004": 17.3111678064,
			"-0.003": 22.089455684,
			"-0.002": 14.1038589892,
			"-0.001": 11.2844207545,
			"0.0": 13.9490553209,
			"0.001": 17.9233009693,
			"0.002": 21.9711541068,
			"0.003": 18.0616578924,
			"0.004": 15.8299838115,
			"0.005": 5.4787215805,
			"0.006": 2.56812132408,
			"0.007": 3.75716062941,
			"0.008": 2.6206335388,
			"0.009": 2.94813605501,
			"0.01": 1.89532995096,
			"0.011": 0.0,
			"0.012": 0.0,
			"0.013": 0.0,
			"0.014": 0.0,
			"0.015": 0.0,
			"0.016": 0.0,
			"0.017": 0.0,
			"0.018": 0.0,
			"0.019": 0.0,
			"0.02": 0.0,
			"0.021": 0.0,
			"0.022": 0.0,
			"0.023": 0.0,
			"0.024": 0.0,
			"0.025": 0.0
		}
	}
}
