{
	 "smiles": "CNC(=O)COC1=CC(F)=C(N)C=C1", 
	 "Tm": 355.15, 
	 "num_atms": 25, 
	 "gaussian": { 
		 "optdone": 1, 
		 "sigma_profile": "yes", 
		 "theory": "DFT", 
		 "functional": "B3LYP", 
		 "basiset": "6-31G**", 
		 "properties": { 
			 "R2extent": 3502.591, 
			 "electric_dipole_moment_norm": 4.2640506505, 
			 "electric_quadrupole_moment_norm": 5.55068394615, 
			 "total_energy": -709.375668939, 
			 "HOMO_LUMO_gap": 0.19088, 
			 "cosmo_polarized_energy": -15.05, 
			 "cosmo_cavitation_energy": 29.54, 
			 "cosmo_dispersion_energy": -21.2, 
			 "cosmo_repulsion_energy": 1.69, 
			 "cosmo_total_nonelectrostatic_energy": 10.03, 
			 "SMD_solvation_energy": 6.11 
		},
		"coords": [
			{
				"x": 3.5358054078,
				"y": 0.7415072367,
				"z": -1.1645940586,
				"element": "C" 
			},
			{
				"x": 2.4423226928,
				"y": 1.3198223979,
				"z": -0.4067815713,
				"element": "N" 
			},
			{
				"x": 2.2589827865,
				"y": 1.0764483452,
				"z": 0.9164602465,
				"element": "C" 
			},
			{
				"x": 2.9909225712,
				"y": 0.3849623529,
				"z": 1.6149721418,
				"element": "O" 
			},
			{
				"x": 1.0555285838,
				"y": 1.7999845069,
				"z": 1.5365443078,
				"element": "C" 
			},
			{
				"x": 0.0809635942,
				"y": 2.2422322371,
				"z": 0.5993349213,
				"element": "O" 
			},
			{
				"x": -0.8711285741,
				"y": 1.3379017659,
				"z": 0.1727237361,
				"element": "C" 
			},
			{
				"x": -0.8061123667,
				"y": -0.0412573423,
				"z": 0.3999034426,
				"element": "C" 
			},
			{
				"x": -1.8291205892,
				"y": -0.8392321607,
				"z": -0.0927066316,
				"element": "C" 
			},
			{
				"x": -1.7681447134,
				"y": -2.1819414204,
				"z": 0.1088554033,
				"element": "F" 
			},
			{
				"x": -2.9242990996,
				"y": -0.347354069,
				"z": -0.8097775959,
				"element": "C" 
			},
			{
				"x": -3.9464355417,
				"y": -1.2096307014,
				"z": -1.2179818945,
				"element": "N" 
			},
			{
				"x": -2.954233879,
				"y": 1.0388717722,
				"z": -1.0264574014,
				"element": "C" 
			},
			{
				"x": -1.9464967851,
				"y": 1.8702906649,
				"z": -0.5452174003,
				"element": "C" 
			},
			{
				"x": 4.165780957,
				"y": 1.5204918416,
				"z": -1.6081779785,
				"element": "H" 
			},
			{
				"x": 4.1360154849,
				"y": 0.1497171478,
				"z": -0.4722710892,
				"element": "H" 
			},
			{
				"x": 3.1654750644,
				"y": 0.0907095924,
				"z": -1.9646431024,
				"element": "H" 
			},
			{
				"x": 1.7515888171,
				"y": 1.8939797719,
				"z": -0.8685770456,
				"element": "H" 
			},
			{
				"x": 0.6226637233,
				"y": 1.1502290441,
				"z": 2.3034858983,
				"element": "H" 
			},
			{
				"x": 1.4248227194,
				"y": 2.7046030834,
				"z": 2.0300914379,
				"element": "H" 
			},
			{
				"x": 0.0112993296,
				"y": -0.518233304,
				"z": 0.9266221579,
				"element": "H" 
			},
			{
				"x": -4.4181917214,
				"y": -0.9286165746,
				"z": -2.0667715074,
				"element": "H" 
			},
			{
				"x": -3.6648454122,
				"y": -2.1804619176,
				"z": -1.2463690292,
				"element": "H" 
			},
			{
				"x": -3.7903094384,
				"y": 1.4689880169,
				"z": -1.5712800767,
				"element": "H" 
			},
			{
				"x": -1.984853611,
				"y": 2.9415877121,
				"z": -0.7108873108,
				"element": "H" 
			}
		],
		 "valence_orbital": [ 
			{
				"type": "occ",
				"energy": -0.29314,
				"method": "rhf"
			},
			{
				"type": "occ",
				"energy": -0.25429,
				"method": "rhf"
			},
			{
				"type": "occ",
				"energy": -0.24966,
				"method": "rhf"
			},
			{
				"type": "occ",
				"energy": -0.24691,
				"method": "rhf"
			},
			{
				"type": "occ",
				"energy": -0.19602,
				"method": "rhf"
			},
			{
				"type": "unocc",
				"energy": -0.00514,
				"method": "rhf"
			},
			{
				"type": "unocc",
				"energy": 0.01858,
				"method": "rhf"
			},
			{
				"type": "unocc",
				"energy": 0.02806,
				"method": "rhf"
			},
			{
				"type": "unocc",
				"energy": 0.07902,
				"method": "rhf"
			},
			{
				"type": "unocc",
				"energy": 0.0883,
				"method": "rhf"
			}
		],
		"cosmo_sigma_profile": { 
			"-0.025": 0.0,
			"-0.024": 0.0,
			"-0.023": 0.0,
			"-0.022": 0.0,
			"-0.021": 0.0,
			"-0.02": 0.0,
			"-0.019": 0.0,
			"-0.018": 0.0,
			"-0.017": 0.0,
			"-0.016": 0.0,
			"-0.015": 0.0,
			"-0.014": 0.0,
			"-0.013": 0.68506028969,
			"-0.012": 2.5773580084,
			"-0.011": 2.80328835069,
			"-0.01": 3.42949160291,
			"-0.009": 3.60130168365,
			"-0.008": 5.67159125487,
			"-0.007": 8.11323341891,
			"-0.006": 11.3863099485,
			"-0.005": 16.4375990467,
			"-0.004": 17.7163534727,
			"-0.003": 15.2929464381,
			"-0.002": 15.8799607414,
			"-0.001": 13.5057175337,
			"0.0": 10.3708671171,
			"0.001": 13.7097593868,
			"0.002": 16.0150671083,
			"0.003": 15.8145198118,
			"0.004": 18.3630958549,
			"0.005": 11.89106266,
			"0.006": 4.17595081686,
			"0.007": 2.91011874649,
			"0.008": 3.18705646824,
			"0.009": 2.80837435755,
			"0.01": 3.03293809735,
			"0.011": 1.60824347467,
			"0.012": 1.81970643251,
			"0.013": 4.79057264127,
			"0.014": 5.53093793003,
			"0.015": 1.08383902981,
			"0.016": 0.0,
			"0.017": 0.0,
			"0.018": 0.0,
			"0.019": 0.0,
			"0.02": 0.0,
			"0.021": 0.0,
			"0.022": 0.0,
			"0.023": 0.0,
			"0.024": 0.0,
			"0.025": 0.0
		}
	}
}
