{
	 "smiles": "ClS(=O)(=O)C1=CC2=C(S1)C=CC=C2", 
	 "Tm": 348.65, 
	 "num_atms": 18, 
	 "gaussian": { 
		 "optdone": 1, 
		 "sigma_profile": "yes", 
		 "theory": "DFT", 
		 "functional": "B3LYP", 
		 "basiset": "6-31G**", 
		 "properties": { 
			 "R2extent": 5239.142, 
			 "electric_dipole_moment_norm": 5.86978861459, 
			 "electric_quadrupole_moment_norm": 15.7301606626, 
			 "total_energy": -1714.79590309, 
			 "HOMO_LUMO_gap": 0.15725, 
			 "cosmo_polarized_energy": -9.36, 
			 "cosmo_cavitation_energy": 27.53, 
			 "cosmo_dispersion_energy": -21.45, 
			 "cosmo_repulsion_energy": 1.58, 
			 "cosmo_total_nonelectrostatic_energy": 7.66, 
			 "SMD_solvation_energy": 2.8 
		},
		"coords": [
			{
				"x": -3.9550645033,
				"y": -1.5419142525,
				"z": -2.2819647404,
				"element": "Cl" 
			},
			{
				"x": -2.0740993786,
				"y": -2.527382997,
				"z": -2.1880425787,
				"element": "S" 
			},
			{
				"x": -1.7617542117,
				"y": -2.9674515915,
				"z": -3.5407407289,
				"element": "O" 
			},
			{
				"x": -2.149713526,
				"y": -3.473669189,
				"z": -1.0835828,
				"element": "O" 
			},
			{
				"x": -0.9967808749,
				"y": -1.1837134242,
				"z": -1.7410732344,
				"element": "C" 
			},
			{
				"x": -1.3085095677,
				"y": 0.121661391,
				"z": -1.5215455269,
				"element": "C" 
			},
			{
				"x": -0.1511955541,
				"y": 0.9010236037,
				"z": -1.1779590862,
				"element": "C" 
			},
			{
				"x": 1.0316508786,
				"y": 0.1222661737,
				"z": -1.1511738382,
				"element": "C" 
			},
			{
				"x": 0.7148985036,
				"y": -1.5594764917,
				"z": -1.5476172979,
				"element": "S" 
			},
			{
				"x": 2.2739570485,
				"y": 0.6853006902,
				"z": -0.8387150847,
				"element": "C" 
			},
			{
				"x": 2.3218422241,
				"y": 2.0443378678,
				"z": -0.5513180761,
				"element": "C" 
			},
			{
				"x": 1.1566760162,
				"y": 2.835020954,
				"z": -0.5728559549,
				"element": "C" 
			},
			{
				"x": -0.0734273111,
				"y": 2.2759720117,
				"z": -0.8825530822,
				"element": "C" 
			},
			{
				"x": -2.3098409667,
				"y": 0.5241987892,
				"z": -1.5970991648,
				"element": "H" 
			},
			{
				"x": 3.1749397564,
				"y": 0.0806897915,
				"z": -0.8206615022,
				"element": "H" 
			},
			{
				"x": 3.2750198072,
				"y": 2.5027423977,
				"z": -0.3061185675,
				"element": "H" 
			},
			{
				"x": 1.2259920594,
				"y": 3.8937900123,
				"z": -0.343900758,
				"element": "H" 
			},
			{
				"x": -0.9727904,
				"y": 2.8843042632,
				"z": -0.8995779779,
				"element": "H" 
			}
		],
		 "valence_orbital": [ 
			{
				"type": "occ",
				"energy": -0.33735,
				"method": "rhf"
			},
			{
				"type": "occ",
				"energy": -0.31975,
				"method": "rhf"
			},
			{
				"type": "occ",
				"energy": -0.31306,
				"method": "rhf"
			},
			{
				"type": "occ",
				"energy": -0.26413,
				"method": "rhf"
			},
			{
				"type": "occ",
				"energy": -0.24927,
				"method": "rhf"
			},
			{
				"type": "unocc",
				"energy": -0.09202,
				"method": "rhf"
			},
			{
				"type": "unocc",
				"energy": -0.06907,
				"method": "rhf"
			},
			{
				"type": "unocc",
				"energy": -0.02786,
				"method": "rhf"
			},
			{
				"type": "unocc",
				"energy": -0.01293,
				"method": "rhf"
			},
			{
				"type": "unocc",
				"energy": 0.01153,
				"method": "rhf"
			}
		],
		"cosmo_sigma_profile": { 
			"-0.025": 0.0,
			"-0.024": 0.0,
			"-0.023": 0.0,
			"-0.022": 0.0,
			"-0.021": 0.0,
			"-0.02": 0.0,
			"-0.019": 0.0,
			"-0.018": 0.0,
			"-0.017": 0.0,
			"-0.016": 0.0,
			"-0.015": 0.0,
			"-0.014": 0.0,
			"-0.013": 0.0,
			"-0.012": 0.0,
			"-0.011": 0.0,
			"-0.01": 0.306861051648,
			"-0.009": 1.94457178584,
			"-0.008": 5.08886409747,
			"-0.007": 8.83162021842,
			"-0.006": 11.996860443,
			"-0.005": 12.3024510178,
			"-0.004": 12.4454413972,
			"-0.003": 12.7900395922,
			"-0.002": 12.1553222409,
			"-0.001": 19.5425305615,
			"0.0": 22.6288624952,
			"0.001": 22.1061759687,
			"0.002": 25.0287563119,
			"0.003": 22.6109932177,
			"0.004": 8.46036271769,
			"0.005": 2.98668268207,
			"0.006": 3.60265030646,
			"0.007": 7.49649208017,
			"0.008": 12.3452766086,
			"0.009": 2.47240691541,
			"0.01": 0.0,
			"0.011": 0.0,
			"0.012": 0.0,
			"0.013": 0.0,
			"0.014": 0.0,
			"0.015": 0.0,
			"0.016": 0.0,
			"0.017": 0.0,
			"0.018": 0.0,
			"0.019": 0.0,
			"0.02": 0.0,
			"0.021": 0.0,
			"0.022": 0.0,
			"0.023": 0.0,
			"0.024": 0.0,
			"0.025": 0.0
		}
	}
}
