{
	 "smiles": "NC1=CC(N)=C(C#N)C(Br)=N1", 
	 "Tm": 530.15, 
	 "num_atms": 16, 
	 "gaussian": { 
		 "optdone": 1, 
		 "sigma_profile": "yes", 
		 "theory": "DFT", 
		 "functional": "B3LYP", 
		 "basiset": "6-31G**", 
		 "properties": { 
			 "R2extent": 4194.7839, 
			 "electric_dipole_moment_norm": 7.08214571652, 
			 "electric_quadrupole_moment_norm": 13.7134056244, 
			 "total_energy": -3022.06214292, 
			 "HOMO_LUMO_gap": 0.19216, 
			 "cosmo_polarized_energy": -19.01, 
			 "cosmo_cavitation_energy": 23.88, 
			 "cosmo_dispersion_energy": -17.81, 
			 "cosmo_repulsion_energy": 1.45, 
			 "cosmo_total_nonelectrostatic_energy": 7.52, 
			 "SMD_solvation_energy": 2.74 
		},
		"coords": [
			{
				"x": -2.5412965132,
				"y": -0.7303347109,
				"z": 2.8719674544,
				"element": "N" 
			},
			{
				"x": -1.8743611981,
				"y": 0.0140210948,
				"z": 1.9374277994,
				"element": "C" 
			},
			{
				"x": -1.6473208531,
				"y": -0.4603739577,
				"z": 0.6393452607,
				"element": "C" 
			},
			{
				"x": -0.925765588,
				"y": 0.3342385986,
				"z": -0.2571029022,
				"element": "C" 
			},
			{
				"x": -0.6984171082,
				"y": -0.0551749832,
				"z": -1.5420027132,
				"element": "N" 
			},
			{
				"x": -0.4442592041,
				"y": 1.601028745,
				"z": 0.2020269616,
				"element": "C" 
			},
			{
				"x": 0.3040484204,
				"y": 2.414115445,
				"z": -0.6899844156,
				"element": "C" 
			},
			{
				"x": 0.9080946979,
				"y": 2.9877644694,
				"z": -1.5059345241,
				"element": "N" 
			},
			{
				"x": -0.7473183683,
				"y": 1.9496891813,
				"z": 1.5275627924,
				"element": "C" 
			},
			{
				"x": -0.128201205,
				"y": 3.6389061717,
				"z": 2.1859355294,
				"element": "Br" 
			},
			{
				"x": -1.4281348396,
				"y": 1.2158546349,
				"z": 2.3737464406,
				"element": "N" 
			},
			{
				"x": -3.1324721794,
				"y": -1.4879351046,
				"z": 2.5703926825,
				"element": "H" 
			},
			{
				"x": -2.8166732594,
				"y": -0.238524184,
				"z": 3.7088164414,
				"element": "H" 
			},
			{
				"x": -2.0238966108,
				"y": -1.4305307201,
				"z": 0.3307156603,
				"element": "H" 
			},
			{
				"x": -0.061965989,
				"y": 0.4787706329,
				"z": -2.114945476,
				"element": "H" 
			},
			{
				"x": -0.8762602018,
				"y": -1.0081153132,
				"z": -1.8127669915,
				"element": "H" 
			}
		],
		 "valence_orbital": [ 
			{
				"type": "occ",
				"energy": -0.2915,
				"method": "rhf"
			},
			{
				"type": "occ",
				"energy": -0.28016,
				"method": "rhf"
			},
			{
				"type": "occ",
				"energy": -0.27604,
				"method": "rhf"
			},
			{
				"type": "occ",
				"energy": -0.24408,
				"method": "rhf"
			},
			{
				"type": "occ",
				"energy": -0.22988,
				"method": "rhf"
			},
			{
				"type": "unocc",
				"energy": -0.03772,
				"method": "rhf"
			},
			{
				"type": "unocc",
				"energy": -0.01643,
				"method": "rhf"
			},
			{
				"type": "unocc",
				"energy": 0.00365,
				"method": "rhf"
			},
			{
				"type": "unocc",
				"energy": 0.0362,
				"method": "rhf"
			},
			{
				"type": "unocc",
				"energy": 0.06594,
				"method": "rhf"
			}
		],
		"cosmo_sigma_profile": { 
			"-0.025": 0.0,
			"-0.024": 0.0,
			"-0.023": 0.0,
			"-0.022": 0.0,
			"-0.021": 0.0,
			"-0.02": 0.0,
			"-0.019": 0.0,
			"-0.018": 0.0,
			"-0.017": 0.0,
			"-0.016": 0.0,
			"-0.015": 0.881118212305,
			"-0.014": 3.43824751141,
			"-0.013": 4.83904585084,
			"-0.012": 5.19736732005,
			"-0.011": 4.76455713373,
			"-0.01": 5.11700976462,
			"-0.009": 4.73195443093,
			"-0.008": 5.77882609361,
			"-0.007": 3.41692422579,
			"-0.006": 3.75581014402,
			"-0.005": 5.29105182679,
			"-0.004": 5.34852414408,
			"-0.003": 5.04560459557,
			"-0.002": 6.46314500378,
			"-0.001": 11.8875739614,
			"0.0": 17.6022745505,
			"0.001": 14.6181496092,
			"0.002": 13.1685512982,
			"0.003": 14.5557807164,
			"0.004": 14.8764671764,
			"0.005": 8.47751038074,
			"0.006": 5.90891008089,
			"0.007": 5.15499058787,
			"0.008": 5.33294616171,
			"0.009": 5.24768038242,
			"0.01": 4.52294212524,
			"0.011": 3.71149177334,
			"0.012": 3.30830963197,
			"0.013": 2.44306843416,
			"0.014": 0.171503955005,
			"0.015": 0.0,
			"0.016": 0.0,
			"0.017": 0.0,
			"0.018": 0.0,
			"0.019": 0.0,
			"0.02": 0.0,
			"0.021": 0.0,
			"0.022": 0.0,
			"0.023": 0.0,
			"0.024": 0.0,
			"0.025": 0.0
		}
	}
}
