{
	 "smiles": "CN1C(C)=C(C(C)=O)C(C)=C1C(O)=O", 
	 "Tm": 409.15, 
	 "num_atms": 27, 
	 "gaussian": { 
		 "optdone": 1, 
		 "sigma_profile": "yes", 
		 "theory": "DFT", 
		 "functional": "B3LYP", 
		 "basiset": "6-31G**", 
		 "properties": { 
			 "R2extent": 3039.812, 
			 "electric_dipole_moment_norm": 1.85159144792, 
			 "electric_quadrupole_moment_norm": 14.1484121399, 
			 "total_energy": -669.350867876, 
			 "HOMO_LUMO_gap": 0.19177, 
			 "cosmo_polarized_energy": -12.37, 
			 "cosmo_cavitation_energy": 29.2, 
			 "cosmo_dispersion_energy": -21.56, 
			 "cosmo_repulsion_energy": 1.67, 
			 "cosmo_total_nonelectrostatic_energy": 9.3, 
			 "SMD_solvation_energy": 6.9 
		},
		"coords": [
			{
				"x": -2.4534111401,
				"y": 1.8041040973,
				"z": 0.3631130822,
				"element": "C" 
			},
			{
				"x": -1.2464348308,
				"y": 1.0072984294,
				"z": 0.1406947278,
				"element": "N" 
			},
			{
				"x": -1.2323533726,
				"y": -0.2252978399,
				"z": -0.4240643762,
				"element": "C" 
			},
			{
				"x": -2.4881476888,
				"y": -0.9013084625,
				"z": -0.8816762513,
				"element": "C" 
			},
			{
				"x": 0.1027838727,
				"y": -0.6832527518,
				"z": -0.4628514706,
				"element": "C" 
			},
			{
				"x": 0.4939897774,
				"y": -2.0044591948,
				"z": -1.0062291592,
				"element": "C" 
			},
			{
				"x": 1.9317690852,
				"y": -2.4883171728,
				"z": -0.8847933001,
				"element": "C" 
			},
			{
				"x": -0.3169738665,
				"y": -2.7480693128,
				"z": -1.5550678761,
				"element": "O" 
			},
			{
				"x": 0.9206968001,
				"y": 0.3451467548,
				"z": 0.1101607746,
				"element": "C" 
			},
			{
				"x": 2.416313821,
				"y": 0.3411107302,
				"z": 0.2680346452,
				"element": "C" 
			},
			{
				"x": 0.0625428067,
				"y": 1.3837539135,
				"z": 0.47801413,
				"element": "C" 
			},
			{
				"x": 0.3035281127,
				"y": 2.6828319671,
				"z": 1.0977991159,
				"element": "C" 
			},
			{
				"x": 1.6034124112,
				"y": 2.9134083458,
				"z": 1.4284146113,
				"element": "O" 
			},
			{
				"x": -0.5480052344,
				"y": 3.5292789221,
				"z": 1.3300067482,
				"element": "O" 
			},
			{
				"x": -2.3928506424,
				"y": 2.7484654787,
				"z": -0.1783031103,
				"element": "H" 
			},
			{
				"x": -2.5683535096,
				"y": 2.034894156,
				"z": 1.4225313363,
				"element": "H" 
			},
			{
				"x": -3.3133188349,
				"y": 1.2349872285,
				"z": 0.0162036779,
				"element": "H" 
			},
			{
				"x": -2.2301226168,
				"y": -1.8729255775,
				"z": -1.2951077681,
				"element": "H" 
			},
			{
				"x": -3.1943402058,
				"y": -1.0396798907,
				"z": -0.0543056358,
				"element": "H" 
			},
			{
				"x": -2.9969822745,
				"y": -0.3165548668,
				"z": -1.6572793348,
				"element": "H" 
			},
			{
				"x": 1.9680545736,
				"y": -3.5115495113,
				"z": -1.2604754875,
				"element": "H" 
			},
			{
				"x": 2.6126569928,
				"y": -1.8677560658,
				"z": -1.4758340211,
				"element": "H" 
			},
			{
				"x": 2.2839859573,
				"y": -2.4646633894,
				"z": 0.150595294,
				"element": "H" 
			},
			{
				"x": 2.7433594971,
				"y": -0.4397582879,
				"z": 0.9630597401,
				"element": "H" 
			},
			{
				"x": 2.7731393425,
				"y": 1.2941563492,
				"z": 0.6478925824,
				"element": "H" 
			},
			{
				"x": 2.9136329962,
				"y": 0.1478505383,
				"z": -0.6872260965,
				"element": "H" 
			},
			{
				"x": 1.6033281708,
				"y": 3.8041054129,
				"z": 1.8162934216,
				"element": "H" 
			}
		],
		 "valence_orbital": [ 
			{
				"type": "occ",
				"energy": -0.31786,
				"method": "rhf"
			},
			{
				"type": "occ",
				"energy": -0.27768,
				"method": "rhf"
			},
			{
				"type": "occ",
				"energy": -0.24559,
				"method": "rhf"
			},
			{
				"type": "occ",
				"energy": -0.2369,
				"method": "rhf"
			},
			{
				"type": "occ",
				"energy": -0.22495,
				"method": "rhf"
			},
			{
				"type": "unocc",
				"energy": -0.03318,
				"method": "rhf"
			},
			{
				"type": "unocc",
				"energy": -0.02584,
				"method": "rhf"
			},
			{
				"type": "unocc",
				"energy": 0.07749,
				"method": "rhf"
			},
			{
				"type": "unocc",
				"energy": 0.07873,
				"method": "rhf"
			},
			{
				"type": "unocc",
				"energy": 0.09495,
				"method": "rhf"
			}
		],
		"cosmo_sigma_profile": { 
			"-0.025": 0.0,
			"-0.024": 0.0,
			"-0.023": 0.0,
			"-0.022": 0.0,
			"-0.021": 0.0,
			"-0.02": 0.0,
			"-0.019": 0.0,
			"-0.018": 0.418241925511,
			"-0.017": 0.94138163157,
			"-0.016": 0.747057043472,
			"-0.015": 0.543582838953,
			"-0.014": 0.889388647894,
			"-0.013": 0.539001530606,
			"-0.012": 0.503356796982,
			"-0.011": 0.930778712799,
			"-0.01": 0.678706980091,
			"-0.009": 0.590441620219,
			"-0.008": 0.390247132219,
			"-0.007": 1.49292701545,
			"-0.006": 11.492430946,
			"-0.005": 17.8618809545,
			"-0.004": 17.8276115382,
			"-0.003": 19.7711528305,
			"-0.002": 20.8771141257,
			"-0.001": 21.4095204113,
			"0.0": 24.9058318807,
			"0.001": 15.2121573658,
			"0.002": 13.8543829201,
			"0.003": 12.181977882,
			"0.004": 8.69683307755,
			"0.005": 5.56030248893,
			"0.006": 4.44008424284,
			"0.007": 5.07442853179,
			"0.008": 2.3244065142,
			"0.009": 2.67354620184,
			"0.01": 3.68779908356,
			"0.011": 4.1825471937,
			"0.012": 5.82206348589,
			"0.013": 2.86707816865,
			"0.014": 1.36329598685,
			"0.015": 0.0621800657254,
			"0.016": 0.0,
			"0.017": 0.0,
			"0.018": 0.0,
			"0.019": 0.0,
			"0.02": 0.0,
			"0.021": 0.0,
			"0.022": 0.0,
			"0.023": 0.0,
			"0.024": 0.0,
			"0.025": 0.0
		}
	}
}
