{
	 "smiles": "CC(C)N1C2=C(C=C(C=C2)C(O)=O)N=C1C(F)(F)F", 
	 "Tm": 447.15, 
	 "num_atms": 30, 
	 "gaussian": { 
		 "optdone": 1, 
		 "sigma_profile": "yes", 
		 "theory": "DFT", 
		 "functional": "B3LYP", 
		 "basiset": "6-31G**", 
		 "properties": { 
			 "R2extent": 6578.3333, 
			 "electric_dipole_moment_norm": 5.58040271217, 
			 "electric_quadrupole_moment_norm": 38.8096442063, 
			 "total_energy": -1023.40673565, 
			 "HOMO_LUMO_gap": 0.19511, 
			 "cosmo_polarized_energy": -17.64, 
			 "cosmo_cavitation_energy": 34.54, 
			 "cosmo_dispersion_energy": -24.54, 
			 "cosmo_repulsion_energy": 1.8, 
			 "cosmo_total_nonelectrostatic_energy": 11.8, 
			 "SMD_solvation_energy": 6.19 
		},
		"coords": [
			{
				"x": -1.5977584654,
				"y": -1.711389708,
				"z": -3.318839121,
				"element": "C" 
			},
			{
				"x": -2.3405720633,
				"y": -0.9068595533,
				"z": -2.2467345671,
				"element": "C" 
			},
			{
				"x": -3.606337499,
				"y": -1.6038357751,
				"z": -1.730577508,
				"element": "C" 
			},
			{
				"x": -1.4720914375,
				"y": -0.4707476103,
				"z": -1.1225730863,
				"element": "N" 
			},
			{
				"x": -1.5080207242,
				"y": 0.8149561517,
				"z": -0.6036961426,
				"element": "C" 
			},
			{
				"x": -0.6207254097,
				"y": 0.8129092282,
				"z": 0.4968919551,
				"element": "C" 
			},
			{
				"x": -0.4134581784,
				"y": 1.9754585828,
				"z": 1.2470841941,
				"element": "C" 
			},
			{
				"x": -1.1110246264,
				"y": 3.1272778269,
				"z": 0.88407794,
				"element": "C" 
			},
			{
				"x": -1.987072539,
				"y": 3.1144038272,
				"z": -0.2303332469,
				"element": "C" 
			},
			{
				"x": -2.2079883499,
				"y": 1.9707852933,
				"z": -0.980511169,
				"element": "C" 
			},
			{
				"x": -0.9540706371,
				"y": 4.4323759843,
				"z": 1.6036941197,
				"element": "C" 
			},
			{
				"x": -0.430988707,
				"y": 4.3850662431,
				"z": 2.8580523968,
				"element": "O" 
			},
			{
				"x": -1.2680367539,
				"y": 5.4966985713,
				"z": 1.1228165965,
				"element": "O" 
			},
			{
				"x": -0.0621356337,
				"y": -0.4374788162,
				"z": 0.654936467,
				"element": "N" 
			},
			{
				"x": -0.5910632002,
				"y": -1.1621042915,
				"z": -0.2993784219,
				"element": "C" 
			},
			{
				"x": -0.1751697072,
				"y": -2.6002005389,
				"z": -0.4754891598,
				"element": "C" 
			},
			{
				"x": -1.2411845431,
				"y": -3.416635981,
				"z": -0.6832858204,
				"element": "F" 
			},
			{
				"x": 0.4691690548,
				"y": -3.0414901571,
				"z": 0.6040935712,
				"element": "F" 
			},
			{
				"x": 0.6446257268,
				"y": -2.7506505305,
				"z": -1.5411783469,
				"element": "F" 
			},
			{
				"x": -0.6675607237,
				"y": -1.2169304362,
				"z": -3.6102301828,
				"element": "H" 
			},
			{
				"x": -2.2381589609,
				"y": -1.7810416123,
				"z": -4.203073529,
				"element": "H" 
			},
			{
				"x": -1.3682000852,
				"y": -2.7257994804,
				"z": -2.9936790294,
				"element": "H" 
			},
			{
				"x": -2.6395502098,
				"y": 0.0357885938,
				"z": -2.713120665,
				"element": "H" 
			},
			{
				"x": -3.3615691021,
				"y": -2.5472726657,
				"z": -1.2396702933,
				"element": "H" 
			},
			{
				"x": -4.2784401955,
				"y": -1.8147522802,
				"z": -2.56811087,
				"element": "H" 
			},
			{
				"x": -4.138183243,
				"y": -0.967002731,
				"z": -1.0178516372,
				"element": "H" 
			},
			{
				"x": 0.3071899944,
				"y": 1.9511777725,
				"z": 2.0596754493,
				"element": "H" 
			},
			{
				"x": -2.4875277262,
				"y": 4.0426636506,
				"z": -0.4819351885,
				"element": "H" 
			},
			{
				"x": -2.8943728954,
				"y": 1.9889005656,
				"z": -1.8203096523,
				"element": "H" 
			},
			{
				"x": -0.3845231593,
				"y": 3.4702298763,
				"z": 3.1678549476,
				"element": "H" 
			}
		],
		 "valence_orbital": [ 
			{
				"type": "occ",
				"energy": -0.31359,
				"method": "rhf"
			},
			{
				"type": "occ",
				"energy": -0.3001,
				"method": "rhf"
			},
			{
				"type": "occ",
				"energy": -0.27368,
				"method": "rhf"
			},
			{
				"type": "occ",
				"energy": -0.25407,
				"method": "rhf"
			},
			{
				"type": "occ",
				"energy": -0.25268,
				"method": "rhf"
			},
			{
				"type": "unocc",
				"energy": -0.05757,
				"method": "rhf"
			},
			{
				"type": "unocc",
				"energy": -0.03609,
				"method": "rhf"
			},
			{
				"type": "unocc",
				"energy": 0.01424,
				"method": "rhf"
			},
			{
				"type": "unocc",
				"energy": 0.05605,
				"method": "rhf"
			},
			{
				"type": "unocc",
				"energy": 0.06226,
				"method": "rhf"
			}
		],
		"cosmo_sigma_profile": { 
			"-0.025": 0.0,
			"-0.024": 0.0,
			"-0.023": 0.0,
			"-0.022": 0.0,
			"-0.021": 0.0,
			"-0.02": 0.0,
			"-0.019": 0.235599319572,
			"-0.018": 1.05139091036,
			"-0.017": 1.20341795829,
			"-0.016": 0.600845953509,
			"-0.015": 1.10185429642,
			"-0.014": 0.76727094932,
			"-0.013": 1.15314757712,
			"-0.012": 1.39881007031,
			"-0.011": 1.01901191088,
			"-0.01": 1.37700454402,
			"-0.009": 2.78978864432,
			"-0.008": 4.12698882894,
			"-0.007": 5.17325746328,
			"-0.006": 6.38414922602,
			"-0.005": 12.3195035535,
			"-0.004": 18.3207422777,
			"-0.003": 20.6640945816,
			"-0.002": 26.3817683104,
			"-0.001": 27.9078585666,
			"0.0": 23.4814181247,
			"0.001": 24.9223387048,
			"0.002": 33.7918612784,
			"0.003": 12.6689438003,
			"0.004": 5.11952040424,
			"0.005": 4.12425997542,
			"0.006": 3.39846611502,
			"0.007": 3.66405794156,
			"0.008": 4.20758790613,
			"0.009": 4.3827831999,
			"0.01": 5.91641912127,
			"0.011": 6.15071930081,
			"0.012": 6.46373610618,
			"0.013": 2.32445723824,
			"0.014": 0.76272294326,
			"0.015": 0.52377996851,
			"0.016": 0.0,
			"0.017": 0.0,
			"0.018": 0.0,
			"0.019": 0.0,
			"0.02": 0.0,
			"0.021": 0.0,
			"0.022": 0.0,
			"0.023": 0.0,
			"0.024": 0.0,
			"0.025": 0.0
		}
	}
}
