{
	 "smiles": "COC1=C(OC)C=C(C(O)=O)C(F)=C1", 
	 "Tm": 466.15, 
	 "num_atms": 23, 
	 "gaussian": { 
		 "optdone": 1, 
		 "sigma_profile": "yes", 
		 "theory": "DFT", 
		 "functional": "B3LYP", 
		 "basiset": "6-31G**", 
		 "properties": { 
			 "R2extent": 3091.1726, 
			 "electric_dipole_moment_norm": 6.33405790785, 
			 "electric_quadrupole_moment_norm": 13.7896331173, 
			 "total_energy": -749.077877243, 
			 "HOMO_LUMO_gap": 0.1955, 
			 "cosmo_polarized_energy": -16.31, 
			 "cosmo_cavitation_energy": 28.06, 
			 "cosmo_dispersion_energy": -20.0, 
			 "cosmo_repulsion_energy": 1.57, 
			 "cosmo_total_nonelectrostatic_energy": 9.63, 
			 "SMD_solvation_energy": 7.97 
		},
		"coords": [
			{
				"x": 2.0477880446,
				"y": 2.7100758966,
				"z": -0.4102587806,
				"element": "C" 
			},
			{
				"x": 0.6934825414,
				"y": 2.3690369153,
				"z": -0.7509871559,
				"element": "O" 
			},
			{
				"x": 0.2457356618,
				"y": 1.1725994311,
				"z": -0.2597420642,
				"element": "C" 
			},
			{
				"x": 0.7755078602,
				"y": -0.0597912249,
				"z": -0.6971146531,
				"element": "C" 
			},
			{
				"x": 1.8158195144,
				"y": -0.1208153912,
				"z": -1.5950222503,
				"element": "O" 
			},
			{
				"x": 1.4743381523,
				"y": 0.2591161105,
				"z": -2.9358513303,
				"element": "C" 
			},
			{
				"x": 0.2653154508,
				"y": -1.243907318,
				"z": -0.1729940892,
				"element": "C" 
			},
			{
				"x": -0.7721470922,
				"y": -1.2525087487,
				"z": 0.7744356848,
				"element": "C" 
			},
			{
				"x": -1.2727334099,
				"y": -2.529767502,
				"z": 1.3768688574,
				"element": "C" 
			},
			{
				"x": -1.2468137733,
				"y": -3.6141318961,
				"z": 0.5491251076,
				"element": "O" 
			},
			{
				"x": -1.6565830894,
				"y": -2.6436600249,
				"z": 2.5134116323,
				"element": "O" 
			},
			{
				"x": -1.2903168682,
				"y": -0.0136651493,
				"z": 1.1725988473,
				"element": "C" 
			},
			{
				"x": -2.2994395269,
				"y": 0.0429225633,
				"z": 2.0518218218,
				"element": "F" 
			},
			{
				"x": -0.7992157418,
				"y": 1.1830172585,
				"z": 0.6651703889,
				"element": "C" 
			},
			{
				"x": 2.7520777118,
				"y": 1.9570794157,
				"z": -0.7738249356,
				"element": "H" 
			},
			{
				"x": 2.2451274183,
				"y": 3.6696318907,
				"z": -0.8906762401,
				"element": "H" 
			},
			{
				"x": 2.1520071892,
				"y": 2.8186194023,
				"z": 0.675652554,
				"element": "H" 
			},
			{
				"x": 1.1106806763,
				"y": 1.2904349456,
				"z": -2.9776190553,
				"element": "H" 
			},
			{
				"x": 2.3907208391,
				"y": 0.1657792238,
				"z": -3.5213148352,
				"element": "H" 
			},
			{
				"x": 0.7111911842,
				"y": -0.4136894034,
				"z": -3.3462975147,
				"element": "H" 
			},
			{
				"x": 0.729286278,
				"y": -2.1716998192,
				"z": -0.4947574984,
				"element": "H" 
			},
			{
				"x": -1.07775531,
				"y": -3.3308188409,
				"z": -0.3602594774,
				"element": "H" 
			},
			{
				"x": -1.2213737108,
				"y": 2.1262422652,
				"z": 0.9917349863,
				"element": "H" 
			}
		],
		 "valence_orbital": [ 
			{
				"type": "occ",
				"energy": -0.31146,
				"method": "rhf"
			},
			{
				"type": "occ",
				"energy": -0.2884,
				"method": "rhf"
			},
			{
				"type": "occ",
				"energy": -0.27292,
				"method": "rhf"
			},
			{
				"type": "occ",
				"energy": -0.26738,
				"method": "rhf"
			},
			{
				"type": "occ",
				"energy": -0.24518,
				"method": "rhf"
			},
			{
				"type": "unocc",
				"energy": -0.04968,
				"method": "rhf"
			},
			{
				"type": "unocc",
				"energy": -0.02025,
				"method": "rhf"
			},
			{
				"type": "unocc",
				"energy": 0.03764,
				"method": "rhf"
			},
			{
				"type": "unocc",
				"energy": 0.06096,
				"method": "rhf"
			},
			{
				"type": "unocc",
				"energy": 0.07746,
				"method": "rhf"
			}
		],
		"cosmo_sigma_profile": { 
			"-0.025": 0.0,
			"-0.024": 0.0,
			"-0.023": 0.0,
			"-0.022": 0.0,
			"-0.021": 0.0,
			"-0.02": 0.0,
			"-0.019": 0.163793671537,
			"-0.018": 0.75953774475,
			"-0.017": 1.01434279741,
			"-0.016": 0.887771530289,
			"-0.015": 1.22258077482,
			"-0.014": 0.776776085005,
			"-0.013": 0.794675161781,
			"-0.012": 1.4850774588,
			"-0.011": 1.2330303203,
			"-0.01": 0.894218545513,
			"-0.009": 1.56080332061,
			"-0.008": 3.27297963917,
			"-0.007": 4.10301534164,
			"-0.006": 6.7821817676,
			"-0.005": 13.1015258942,
			"-0.004": 17.8422653833,
			"-0.003": 24.4747177864,
			"-0.002": 19.0468777462,
			"-0.001": 17.5317436413,
			"0.0": 19.2639579831,
			"0.001": 14.3499650166,
			"0.002": 8.12979276108,
			"0.003": 9.15566964643,
			"0.004": 9.68316836193,
			"0.005": 5.43396202856,
			"0.006": 4.7246442819,
			"0.007": 5.04302673166,
			"0.008": 4.73409451837,
			"0.009": 5.82981295212,
			"0.01": 7.29894419652,
			"0.011": 7.83996373602,
			"0.012": 4.33521964851,
			"0.013": 0.968831929629,
			"0.014": 0.0,
			"0.015": 0.0,
			"0.016": 0.0,
			"0.017": 0.0,
			"0.018": 0.0,
			"0.019": 0.0,
			"0.02": 0.0,
			"0.021": 0.0,
			"0.022": 0.0,
			"0.023": 0.0,
			"0.024": 0.0,
			"0.025": 0.0
		}
	}
}
