{
	 "smiles": "O[C@H]([C@@H](O)C(O)=O)C(O)=O", 
	 "Tm": 443.15, 
	 "num_atms": 16, 
	 "gaussian": { 
		 "optdone": 1, 
		 "sigma_profile": "yes", 
		 "theory": "DFT", 
		 "functional": "B3LYP", 
		 "basiset": "6-31G**", 
		 "properties": { 
			 "R2extent": 1670.7305, 
			 "electric_dipole_moment_norm": 4.2026205182, 
			 "electric_quadrupole_moment_norm": 13.5309070058, 
			 "total_energy": -607.395377411, 
			 "HOMO_LUMO_gap": 0.23679, 
			 "cosmo_polarized_energy": -18.19, 
			 "cosmo_cavitation_energy": 20.72, 
			 "cosmo_dispersion_energy": -15.43, 
			 "cosmo_repulsion_energy": 1.28, 
			 "cosmo_total_nonelectrostatic_energy": 6.57, 
			 "SMD_solvation_energy": 6.18 
		},
		"coords": [
			{
				"x": -0.1390753416,
				"y": 2.455079997,
				"z": -0.4642815148,
				"element": "O" 
			},
			{
				"x": 0.0163000952,
				"y": 1.2776716831,
				"z": 0.3035067249,
				"element": "C" 
			},
			{
				"x": 0.2982992809,
				"y": 0.119119793,
				"z": -0.6746553255,
				"element": "C" 
			},
			{
				"x": -0.5481226803,
				"y": 0.2172133531,
				"z": -1.8098205183,
				"element": "O" 
			},
			{
				"x": 1.7873044212,
				"y": 0.1143933009,
				"z": -1.0835913909,
				"element": "C" 
			},
			{
				"x": 1.9806828277,
				"y": -0.052665202,
				"z": -2.3981639745,
				"element": "O" 
			},
			{
				"x": 2.6825866562,
				"y": 0.2144384659,
				"z": -0.2793615651,
				"element": "O" 
			},
			{
				"x": -1.2487124883,
				"y": 1.0653007758,
				"z": 1.1242720494,
				"element": "C" 
			},
			{
				"x": -1.2430925259,
				"y": -0.0768708872,
				"z": 1.824160138,
				"element": "O" 
			},
			{
				"x": -2.1502861852,
				"y": 1.8785881856,
				"z": 1.1490642968,
				"element": "O" 
			},
			{
				"x": -0.9350719363,
				"y": 2.8971586586,
				"z": -0.1176959123,
				"element": "H" 
			},
			{
				"x": 0.8704068357,
				"y": 1.3493145969,
				"z": 0.9909253098,
				"element": "H" 
			},
			{
				"x": 0.1016953942,
				"y": -0.8371932371,
				"z": -0.1795107404,
				"element": "H" 
			},
			{
				"x": -0.6900356649,
				"y": 1.1776625911,
				"z": -1.9163582494,
				"element": "H" 
			},
			{
				"x": 1.0881980055,
				"y": -0.0837965358,
				"z": -2.7988037376,
				"element": "H" 
			},
			{
				"x": -2.0744766941,
				"y": -0.1147155387,
				"z": 2.32731441,
				"element": "H" 
			}
		],
		 "valence_orbital": [ 
			{
				"type": "occ",
				"energy": -0.34373,
				"method": "rhf"
			},
			{
				"type": "occ",
				"energy": -0.3229,
				"method": "rhf"
			},
			{
				"type": "occ",
				"energy": -0.31558,
				"method": "rhf"
			},
			{
				"type": "occ",
				"energy": -0.31195,
				"method": "rhf"
			},
			{
				"type": "occ",
				"energy": -0.2659,
				"method": "rhf"
			},
			{
				"type": "unocc",
				"energy": -0.02911,
				"method": "rhf"
			},
			{
				"type": "unocc",
				"energy": 0.00542,
				"method": "rhf"
			},
			{
				"type": "unocc",
				"energy": 0.04719,
				"method": "rhf"
			},
			{
				"type": "unocc",
				"energy": 0.06001,
				"method": "rhf"
			},
			{
				"type": "unocc",
				"energy": 0.10817,
				"method": "rhf"
			}
		],
		"cosmo_sigma_profile": { 
			"-0.025": 0.0,
			"-0.024": 0.0,
			"-0.023": 0.0,
			"-0.022": 0.0,
			"-0.021": 0.0,
			"-0.02": 0.285977747209,
			"-0.019": 1.29366231895,
			"-0.018": 0.894276183462,
			"-0.017": 0.752033885955,
			"-0.016": 0.42255807738,
			"-0.015": 0.558556329782,
			"-0.014": 1.3208212963,
			"-0.013": 2.41207938262,
			"-0.012": 3.2707876387,
			"-0.011": 3.29187424821,
			"-0.01": 3.34792849318,
			"-0.009": 5.54245666055,
			"-0.008": 8.08440428487,
			"-0.007": 7.12527884026,
			"-0.006": 6.30772398245,
			"-0.005": 7.15500433473,
			"-0.004": 6.60832089023,
			"-0.003": 6.41836998273,
			"-0.002": 7.9976697855,
			"-0.001": 5.78363014097,
			"0.0": 6.76471417033,
			"0.001": 5.48904647148,
			"0.002": 5.49504156112,
			"0.003": 5.96666290238,
			"0.004": 5.82001487634,
			"0.005": 5.95762318763,
			"0.006": 5.52024661273,
			"0.007": 6.029171606,
			"0.008": 6.79283041256,
			"0.009": 8.82141140233,
			"0.01": 8.57453923002,
			"0.011": 8.24053774808,
			"0.012": 4.2676759886,
			"0.013": 0.748812443368,
			"0.014": 0.0,
			"0.015": 0.0,
			"0.016": 0.0,
			"0.017": 0.0,
			"0.018": 0.0,
			"0.019": 0.0,
			"0.02": 0.0,
			"0.021": 0.0,
			"0.022": 0.0,
			"0.023": 0.0,
			"0.024": 0.0,
			"0.025": 0.0
		}
	}
}
