{
	 "smiles": "O=C1CCC(=O)C1", 
	 "Tm": 425.15, 
	 "num_atms": 13, 
	 "gaussian": { 
		 "optdone": 1, 
		 "sigma_profile": "yes", 
		 "theory": "DFT", 
		 "functional": "B3LYP", 
		 "basiset": "6-31G**", 
		 "properties": { 
			 "R2extent": 762.5911, 
			 "electric_dipole_moment_norm": 1.63189545008, 
			 "electric_quadrupole_moment_norm": 13.2915841561, 
			 "total_energy": -344.584239888, 
			 "HOMO_LUMO_gap": 0.19746, 
			 "cosmo_polarized_energy": -11.45, 
			 "cosmo_cavitation_energy": 16.78, 
			 "cosmo_dispersion_energy": -12.63, 
			 "cosmo_repulsion_energy": 1.11, 
			 "cosmo_total_nonelectrostatic_energy": 5.25, 
			 "SMD_solvation_energy": 4.12 
		},
		"coords": [
			{
				"x": -0.6433333411,
				"y": -1.5162393027,
				"z": -1.4814015237,
				"element": "O" 
			},
			{
				"x": -0.1340904423,
				"y": -0.7067231726,
				"z": -0.7407232583,
				"element": "C" 
			},
			{
				"x": 0.8858208874,
				"y": -1.0376927853,
				"z": 0.3589580823,
				"element": "C" 
			},
			{
				"x": 1.5142787062,
				"y": 0.3007467377,
				"z": 0.7803823744,
				"element": "C" 
			},
			{
				"x": 0.5697486676,
				"y": 1.3991501529,
				"z": 0.27004022,
				"element": "C" 
			},
			{
				"x": 0.5999229236,
				"y": 2.5572563084,
				"z": 0.6180770263,
				"element": "O" 
			},
			{
				"x": -0.4027978881,
				"y": 0.797704448,
				"z": -0.7438247803,
				"element": "C" 
			},
			{
				"x": 1.596062053,
				"y": -1.7856654904,
				"z": -0.0021822927,
				"element": "H" 
			},
			{
				"x": 0.3328158082,
				"y": -1.5005500954,
				"z": 1.1866853194,
				"element": "H" 
			},
			{
				"x": 2.4872068016,
				"y": 0.4580402494,
				"z": 0.2968010978,
				"element": "H" 
			},
			{
				"x": 1.67496554,
				"y": 0.4150493702,
				"z": 1.8552966133,
				"element": "H" 
			},
			{
				"x": -1.4421600304,
				"y": 1.0153252259,
				"z": -0.4714028082,
				"element": "H" 
			},
			{
				"x": -0.249139686,
				"y": 1.2243983536,
				"z": -1.7419060703,
				"element": "H" 
			}
		],
		 "valence_orbital": [ 
			{
				"type": "occ",
				"energy": -0.39111,
				"method": "rhf"
			},
			{
				"type": "occ",
				"energy": -0.35472,
				"method": "rhf"
			},
			{
				"type": "occ",
				"energy": -0.35281,
				"method": "rhf"
			},
			{
				"type": "occ",
				"energy": -0.27288,
				"method": "rhf"
			},
			{
				"type": "occ",
				"energy": -0.24342,
				"method": "rhf"
			},
			{
				"type": "unocc",
				"energy": -0.04596,
				"method": "rhf"
			},
			{
				"type": "unocc",
				"energy": -0.01799,
				"method": "rhf"
			},
			{
				"type": "unocc",
				"energy": 0.08163,
				"method": "rhf"
			},
			{
				"type": "unocc",
				"energy": 0.11914,
				"method": "rhf"
			},
			{
				"type": "unocc",
				"energy": 0.12213,
				"method": "rhf"
			}
		],
		"cosmo_sigma_profile": { 
			"-0.025": 0.0,
			"-0.024": 0.0,
			"-0.023": 0.0,
			"-0.022": 0.0,
			"-0.021": 0.0,
			"-0.02": 0.0,
			"-0.019": 0.0,
			"-0.018": 0.0,
			"-0.017": 0.0,
			"-0.016": 0.0,
			"-0.015": 0.0,
			"-0.014": 0.0,
			"-0.013": 0.0,
			"-0.012": 0.0,
			"-0.011": 0.0,
			"-0.01": 0.141941948368,
			"-0.009": 3.19086938239,
			"-0.008": 8.49225737087,
			"-0.007": 10.7523052642,
			"-0.006": 12.4844184505,
			"-0.005": 13.7032969913,
			"-0.004": 10.215736751,
			"-0.003": 8.57048389836,
			"-0.002": 8.17501598087,
			"-0.001": 4.65177915127,
			"0.0": 2.09968098082,
			"0.001": 2.30152858318,
			"0.002": 3.85019430435,
			"0.003": 2.09073580977,
			"0.004": 2.62930486794,
			"0.005": 2.69464731058,
			"0.006": 3.13673338821,
			"0.007": 2.59616931981,
			"0.008": 3.34724766504,
			"0.009": 4.25954982444,
			"0.01": 4.93226052882,
			"0.011": 8.72086723094,
			"0.012": 7.88448107158,
			"0.013": 1.70356999133,
			"0.014": 0.0,
			"0.015": 0.0,
			"0.016": 0.0,
			"0.017": 0.0,
			"0.018": 0.0,
			"0.019": 0.0,
			"0.02": 0.0,
			"0.021": 0.0,
			"0.022": 0.0,
			"0.023": 0.0,
			"0.024": 0.0,
			"0.025": 0.0
		}
	}
}
