{
	 "smiles": "FC(F)(F)C1=CC=CC(NC(=O)CCl)=C1", 
	 "Tm": 336.35, 
	 "num_atms": 22, 
	 "gaussian": { 
		 "optdone": 1, 
		 "sigma_profile": "yes", 
		 "theory": "DFT", 
		 "functional": "B3LYP", 
		 "basiset": "6-31G**", 
		 "properties": { 
			 "R2extent": 5187.3754, 
			 "electric_dipole_moment_norm": 3.82769870941, 
			 "electric_quadrupole_moment_norm": 7.49084047754, 
			 "total_energy": -1236.89234558, 
			 "HOMO_LUMO_gap": 0.20601, 
			 "cosmo_polarized_energy": -11.07, 
			 "cosmo_cavitation_energy": 29.88, 
			 "cosmo_dispersion_energy": -21.43, 
			 "cosmo_repulsion_energy": 1.63, 
			 "cosmo_total_nonelectrostatic_energy": 10.08, 
			 "SMD_solvation_energy": 6.5 
		},
		"coords": [
			{
				"x": 2.5144584496,
				"y": 1.0331585369,
				"z": -2.5278301972,
				"element": "F" 
			},
			{
				"x": 1.2415827399,
				"y": 1.480830233,
				"z": -2.5381431135,
				"element": "C" 
			},
			{
				"x": 0.8799753188,
				"y": 1.651468853,
				"z": -3.8299866644,
				"element": "F" 
			},
			{
				"x": 1.249913958,
				"y": 2.7085584243,
				"z": -1.9685626267,
				"element": "F" 
			},
			{
				"x": 0.3059009641,
				"y": 0.545483221,
				"z": -1.8160644906,
				"element": "C" 
			},
			{
				"x": -1.035588871,
				"y": 0.4837719483,
				"z": -2.1978112549,
				"element": "C" 
			},
			{
				"x": -1.9035606547,
				"y": -0.3428655017,
				"z": -1.48539057,
				"element": "C" 
			},
			{
				"x": -1.4371294737,
				"y": -1.0926354139,
				"z": -0.4101829356,
				"element": "C" 
			},
			{
				"x": -0.0871701452,
				"y": -1.0269455412,
				"z": -0.0315333783,
				"element": "C" 
			},
			{
				"x": 0.3162274992,
				"y": -1.8189295696,
				"z": 1.0641547482,
				"element": "N" 
			},
			{
				"x": 1.5558943679,
				"y": -1.9211640173,
				"z": 1.6210124008,
				"element": "C" 
			},
			{
				"x": 2.5632153861,
				"y": -1.3313188557,
				"z": 1.2578689719,
				"element": "O" 
			},
			{
				"x": 1.707210179,
				"y": -2.8663967212,
				"z": 2.8188759645,
				"element": "C" 
			},
			{
				"x": 0.2204879688,
				"y": -3.7506160443,
				"z": 3.3724181826,
				"element": "Cl" 
			},
			{
				"x": 0.7937238112,
				"y": -0.199907002,
				"z": -0.7412884164,
				"element": "C" 
			},
			{
				"x": -1.3894347732,
				"y": 1.0651470348,
				"z": -3.0413870919,
				"element": "H" 
			},
			{
				"x": -2.9491935032,
				"y": -0.4072178345,
				"z": -1.7696372408,
				"element": "H" 
			},
			{
				"x": -2.1201447935,
				"y": -1.7360696297,
				"z": 0.139176271,
				"element": "H" 
			},
			{
				"x": -0.4068258436,
				"y": -2.3813817846,
				"z": 1.4947290624,
				"element": "H" 
			},
			{
				"x": 2.0691081831,
				"y": -2.2841619657,
				"z": 3.6665300067,
				"element": "H" 
			},
			{
				"x": 2.4530019479,
				"y": -3.6197042594,
				"z": 2.5643113319,
				"element": "H" 
			},
			{
				"x": 1.8351472844,
				"y": -0.1530041105,
				"z": -0.4577589598,
				"element": "H" 
			}
		],
		 "valence_orbital": [ 
			{
				"type": "occ",
				"energy": -0.33239,
				"method": "rhf"
			},
			{
				"type": "occ",
				"energy": -0.31796,
				"method": "rhf"
			},
			{
				"type": "occ",
				"energy": -0.27559,
				"method": "rhf"
			},
			{
				"type": "occ",
				"energy": -0.2733,
				"method": "rhf"
			},
			{
				"type": "occ",
				"energy": -0.2426,
				"method": "rhf"
			},
			{
				"type": "unocc",
				"energy": -0.03659,
				"method": "rhf"
			},
			{
				"type": "unocc",
				"energy": -0.02861,
				"method": "rhf"
			},
			{
				"type": "unocc",
				"energy": 0.00071,
				"method": "rhf"
			},
			{
				"type": "unocc",
				"energy": 0.02295,
				"method": "rhf"
			},
			{
				"type": "unocc",
				"energy": 0.07472,
				"method": "rhf"
			}
		],
		"cosmo_sigma_profile": { 
			"-0.025": 0.0,
			"-0.024": 0.0,
			"-0.023": 0.0,
			"-0.022": 0.0,
			"-0.021": 0.0,
			"-0.02": 0.0,
			"-0.019": 0.0,
			"-0.018": 0.0,
			"-0.017": 0.0,
			"-0.016": 0.0,
			"-0.015": 0.0,
			"-0.014": 0.430501726547,
			"-0.013": 0.905479428061,
			"-0.012": 1.29366774865,
			"-0.011": 0.684898017207,
			"-0.01": 2.4533596164,
			"-0.009": 5.73215057783,
			"-0.008": 5.16002851896,
			"-0.007": 9.31058084273,
			"-0.006": 11.4096203048,
			"-0.005": 11.7540201447,
			"-0.004": 9.44025647132,
			"-0.003": 8.94451314515,
			"-0.002": 10.3236994955,
			"-0.001": 14.0602443372,
			"0.0": 17.7375896544,
			"0.001": 22.6004284443,
			"0.002": 31.9292878788,
			"0.003": 43.6550906218,
			"0.004": 11.4008065557,
			"0.005": 8.32879287321,
			"0.006": 2.39914652941,
			"0.007": 1.08114657238,
			"0.008": 1.21931118319,
			"0.009": 1.76107264327,
			"0.01": 1.73808609663,
			"0.011": 2.64042157208,
			"0.012": 2.77810439479,
			"0.013": 0.922690750934,
			"0.014": 0.0,
			"0.015": 0.0,
			"0.016": 0.0,
			"0.017": 0.0,
			"0.018": 0.0,
			"0.019": 0.0,
			"0.02": 0.0,
			"0.021": 0.0,
			"0.022": 0.0,
			"0.023": 0.0,
			"0.024": 0.0,
			"0.025": 0.0
		}
	}
}
