{
	 "smiles": "CC(C)(C)C1=CC(N)=C(O)C(=C1)C(C)(C)C", 
	 "Tm": 434.15, 
	 "num_atms": 39, 
	 "gaussian": { 
		 "optdone": 1, 
		 "sigma_profile": "yes", 
		 "theory": "DFT", 
		 "functional": "B3LYP", 
		 "basiset": "6-31G**", 
		 "properties": { 
			 "R2extent": 4682.4874, 
			 "electric_dipole_moment_norm": 2.7077300364, 
			 "electric_quadrupole_moment_norm": 10.7493313141, 
			 "total_energy": -677.349372647, 
			 "HOMO_LUMO_gap": 0.20142, 
			 "cosmo_polarized_energy": -8.2, 
			 "cosmo_cavitation_energy": 37.77, 
			 "cosmo_dispersion_energy": -26.02, 
			 "cosmo_repulsion_energy": 2.04, 
			 "cosmo_total_nonelectrostatic_energy": 13.79, 
			 "SMD_solvation_energy": 7.24 
		},
		"coords": [
			{
				"x": 1.7177775364,
				"y": -1.0968800282,
				"z": -2.2454549488,
				"element": "C" 
			},
			{
				"x": 1.6834859827,
				"y": -0.5884391191,
				"z": -0.7843422702,
				"element": "C" 
			},
			{
				"x": 2.6779884011,
				"y": 0.5817031612,
				"z": -0.6631922558,
				"element": "C" 
			},
			{
				"x": 2.1577764744,
				"y": -1.7195801819,
				"z": 0.1591264231,
				"element": "C" 
			},
			{
				"x": 0.2452523885,
				"y": -0.1787853472,
				"z": -0.4150768742,
				"element": "C" 
			},
			{
				"x": -0.7897525007,
				"y": -1.12462374,
				"z": -0.4705919435,
				"element": "C" 
			},
			{
				"x": -2.0898133375,
				"y": -0.7716330784,
				"z": -0.1415662193,
				"element": "C" 
			},
			{
				"x": -3.2163021394,
				"y": -1.6810039618,
				"z": -0.1716241352,
				"element": "N" 
			},
			{
				"x": -2.4118517279,
				"y": 0.5460862166,
				"z": 0.2581819158,
				"element": "C" 
			},
			{
				"x": -3.7147198716,
				"y": 0.7892722871,
				"z": 0.5577492722,
				"element": "O" 
			},
			{
				"x": -1.4060007605,
				"y": 1.5274516052,
				"z": 0.329382084,
				"element": "C" 
			},
			{
				"x": -0.1043117956,
				"y": 1.1146466331,
				"z": -0.0158095807,
				"element": "C" 
			},
			{
				"x": -1.6049600858,
				"y": 3.005100609,
				"z": 0.7479426451,
				"element": "C" 
			},
			{
				"x": -0.7197383733,
				"y": 3.3041460306,
				"z": 1.9834351755,
				"element": "C" 
			},
			{
				"x": -1.1740390564,
				"y": 3.9235034735,
				"z": -0.4226070624,
				"element": "C" 
			},
			{
				"x": -3.0539886573,
				"y": 3.3840811127,
				"z": 1.1197942702,
				"element": "C" 
			},
			{
				"x": 1.3954301475,
				"y": -0.3133885375,
				"z": -2.9391617732,
				"element": "H" 
			},
			{
				"x": 1.0615556226,
				"y": -1.9605884914,
				"z": -2.3907748911,
				"element": "H" 
			},
			{
				"x": 2.7334829606,
				"y": -1.4013037743,
				"z": -2.5236374884,
				"element": "H" 
			},
			{
				"x": 2.7269707943,
				"y": 0.9708921878,
				"z": 0.3591252119,
				"element": "H" 
			},
			{
				"x": 2.417948481,
				"y": 1.408738844,
				"z": -1.3320684289,
				"element": "H" 
			},
			{
				"x": 3.6828260883,
				"y": 0.2417393999,
				"z": -0.9348303892,
				"element": "H" 
			},
			{
				"x": 1.5153716723,
				"y": -2.6029022774,
				"z": 0.0898339706,
				"element": "H" 
			},
			{
				"x": 3.1779050266,
				"y": -2.0304329095,
				"z": -0.094698823,
				"element": "H" 
			},
			{
				"x": 2.1534466104,
				"y": -1.3857063778,
				"z": 1.2019662372,
				"element": "H" 
			},
			{
				"x": -0.5909188427,
				"y": -2.150166193,
				"z": -0.7723281378,
				"element": "H" 
			},
			{
				"x": -3.0801835347,
				"y": -2.4624932598,
				"z": 0.4643706079,
				"element": "H" 
			},
			{
				"x": -3.356523641,
				"y": -2.068535649,
				"z": -1.1010031961,
				"element": "H" 
			},
			{
				"x": -4.1433395158,
				"y": -0.0824174781,
				"z": 0.4074824661,
				"element": "H" 
			},
			{
				"x": 0.677408344,
				"y": 1.8621455714,
				"z": 0.0346127804,
				"element": "H" 
			},
			{
				"x": -1.0105422374,
				"y": 2.6747667674,
				"z": 2.8309748021,
				"element": "H" 
			},
			{
				"x": 0.3423127151,
				"y": 3.1300991832,
				"z": 1.7871976863,
				"element": "H" 
			},
			{
				"x": -0.8342212212,
				"y": 4.351675728,
				"z": 2.285079969,
				"element": "H" 
			},
			{
				"x": -1.792441148,
				"y": 3.7406051376,
				"z": -1.3075575871,
				"element": "H" 
			},
			{
				"x": -1.2910705373,
				"y": 4.9760308088,
				"z": -0.1398253476,
				"element": "H" 
			},
			{
				"x": -0.1290333485,
				"y": 3.7710095545,
				"z": -0.7081600573,
				"element": "H" 
			},
			{
				"x": -3.7437622093,
				"y": 3.2366665162,
				"z": 0.2867575364,
				"element": "H" 
			},
			{
				"x": -3.0763459981,
				"y": 4.4436210393,
				"z": 1.4000769296,
				"element": "H" 
			},
			{
				"x": -3.4274787056,
				"y": 2.7999985376,
				"z": 1.9630214262,
				"element": "H" 
			}
		],
		 "valence_orbital": [ 
			{
				"type": "occ",
				"energy": -0.30207,
				"method": "rhf"
			},
			{
				"type": "occ",
				"energy": -0.29575,
				"method": "rhf"
			},
			{
				"type": "occ",
				"energy": -0.27276,
				"method": "rhf"
			},
			{
				"type": "occ",
				"energy": -0.23246,
				"method": "rhf"
			},
			{
				"type": "occ",
				"energy": -0.2001,
				"method": "rhf"
			},
			{
				"type": "unocc",
				"energy": 0.00132,
				"method": "rhf"
			},
			{
				"type": "unocc",
				"energy": 0.02467,
				"method": "rhf"
			},
			{
				"type": "unocc",
				"energy": 0.07328,
				"method": "rhf"
			},
			{
				"type": "unocc",
				"energy": 0.08009,
				"method": "rhf"
			},
			{
				"type": "unocc",
				"energy": 0.09934,
				"method": "rhf"
			}
		],
		"cosmo_sigma_profile": { 
			"-0.025": 0.0,
			"-0.024": 0.0,
			"-0.023": 0.0,
			"-0.022": 0.0,
			"-0.021": 0.0,
			"-0.02": 0.0,
			"-0.019": 0.0,
			"-0.018": 0.0,
			"-0.017": 0.0,
			"-0.016": 0.0,
			"-0.015": 0.0,
			"-0.014": 0.0,
			"-0.013": 0.0,
			"-0.012": 0.574465610345,
			"-0.011": 2.69955055508,
			"-0.01": 2.62167817896,
			"-0.009": 3.29779533556,
			"-0.008": 2.4906075686,
			"-0.007": 2.41028914512,
			"-0.006": 3.52817620441,
			"-0.005": 5.83319242527,
			"-0.004": 9.70942482979,
			"-0.003": 17.3780306964,
			"-0.002": 40.7823572366,
			"-0.001": 34.8008625814,
			"0.0": 36.511733218,
			"0.001": 44.0115134933,
			"0.002": 34.4105186882,
			"0.003": 10.3030168887,
			"0.004": 8.71020667388,
			"0.005": 9.76253894631,
			"0.006": 7.22298347179,
			"0.007": 7.2261192458,
			"0.008": 2.77991451429,
			"0.009": 2.67321668078,
			"0.01": 1.93857565246,
			"0.011": 0.0413899499829,
			"0.012": 0.0,
			"0.013": 0.0,
			"0.014": 0.0,
			"0.015": 0.0,
			"0.016": 0.0,
			"0.017": 0.0,
			"0.018": 0.0,
			"0.019": 0.0,
			"0.02": 0.0,
			"0.021": 0.0,
			"0.022": 0.0,
			"0.023": 0.0,
			"0.024": 0.0,
			"0.025": 0.0
		}
	}
}
