{
	 "smiles": "NC1=NN(CC2=NC=CC=N2)C=C1", 
	 "Tm": 374.15, 
	 "num_atms": 22, 
	 "gaussian": { 
		 "optdone": 1, 
		 "sigma_profile": "yes", 
		 "theory": "DFT", 
		 "functional": "B3LYP", 
		 "basiset": "6-31G**", 
		 "properties": { 
			 "R2extent": 3675.3678, 
			 "electric_dipole_moment_norm": 1.90875844464, 
			 "electric_quadrupole_moment_norm": 11.9037081097, 
			 "total_energy": -583.999386285, 
			 "HOMO_LUMO_gap": 0.14893, 
			 "cosmo_polarized_energy": -16.3, 
			 "cosmo_cavitation_energy": 27.04, 
			 "cosmo_dispersion_energy": -19.63, 
			 "cosmo_repulsion_energy": 1.58, 
			 "cosmo_total_nonelectrostatic_energy": 8.98, 
			 "SMD_solvation_energy": 1.29 
		},
		"coords": [
			{
				"x": -2.708763036,
				"y": 2.77618965,
				"z": 0.4488509992,
				"element": "N" 
			},
			{
				"x": -2.4428058905,
				"y": 1.6365073966,
				"z": 1.2135634111,
				"element": "C" 
			},
			{
				"x": -2.6740375474,
				"y": 0.4196114553,
				"z": 0.7230401688,
				"element": "N" 
			},
			{
				"x": -2.2552179019,
				"y": -0.4308219282,
				"z": 1.706444114,
				"element": "N" 
			},
			{
				"x": -2.2441207947,
				"y": -1.8548190096,
				"z": 1.4494392861,
				"element": "C" 
			},
			{
				"x": -0.9989317817,
				"y": -2.3248542934,
				"z": 0.7135563469,
				"element": "C" 
			},
			{
				"x": -1.1887145576,
				"y": -3.0220878393,
				"z": -0.4133035976,
				"element": "N" 
			},
			{
				"x": -0.0835210784,
				"y": -3.4272749146,
				"z": -1.0519992321,
				"element": "C" 
			},
			{
				"x": 1.1958410171,
				"y": -3.1440543061,
				"z": -0.582554992,
				"element": "C" 
			},
			{
				"x": 1.2704318515,
				"y": -2.426477804,
				"z": 0.610812399,
				"element": "C" 
			},
			{
				"x": 0.1820446251,
				"y": -2.0187450891,
				"z": 1.2690384056,
				"element": "N" 
			},
			{
				"x": -1.7638655143,
				"y": 0.2339931789,
				"z": 2.7818194135,
				"element": "C" 
			},
			{
				"x": -1.8730028035,
				"y": 1.5834119723,
				"z": 2.5135317969,
				"element": "C" 
			},
			{
				"x": -3.1074526212,
				"y": 3.5348311356,
				"z": 0.9878018447,
				"element": "H" 
			},
			{
				"x": -3.2965308932,
				"y": 2.5562848731,
				"z": -0.3468068797,
				"element": "H" 
			},
			{
				"x": -2.3102905155,
				"y": -2.3735581197,
				"z": 2.4117897401,
				"element": "H" 
			},
			{
				"x": -3.1205356749,
				"y": -2.1044829656,
				"z": 0.8506391368,
				"element": "H" 
			},
			{
				"x": -0.2352547483,
				"y": -3.994273931,
				"z": -1.9689866877,
				"element": "H" 
			},
			{
				"x": 2.0851631786,
				"y": -3.4692358824,
				"z": -1.1110719335,
				"element": "H" 
			},
			{
				"x": 2.2312080652,
				"y": -2.1749600418,
				"z": 1.0573359457,
				"element": "H" 
			},
			{
				"x": -1.370589861,
				"y": -0.2940933844,
				"z": 3.6380125398,
				"element": "H" 
			},
			{
				"x": -1.5844535173,
				"y": 2.4067098476,
				"z": 3.1497477747,
				"element": "H" 
			}
		],
		 "valence_orbital": [ 
			{
				"type": "occ",
				"energy": -0.28532,
				"method": "rhf"
			},
			{
				"type": "occ",
				"energy": -0.27306,
				"method": "rhf"
			},
			{
				"type": "occ",
				"energy": -0.25387,
				"method": "rhf"
			},
			{
				"type": "occ",
				"energy": -0.22752,
				"method": "rhf"
			},
			{
				"type": "occ",
				"energy": -0.19253,
				"method": "rhf"
			},
			{
				"type": "unocc",
				"energy": -0.0436,
				"method": "rhf"
			},
			{
				"type": "unocc",
				"energy": -0.0325,
				"method": "rhf"
			},
			{
				"type": "unocc",
				"energy": 0.03808,
				"method": "rhf"
			},
			{
				"type": "unocc",
				"energy": 0.08771,
				"method": "rhf"
			},
			{
				"type": "unocc",
				"energy": 0.09943,
				"method": "rhf"
			}
		],
		"cosmo_sigma_profile": { 
			"-0.025": 0.0,
			"-0.024": 0.0,
			"-0.023": 0.0,
			"-0.022": 0.0,
			"-0.021": 0.0,
			"-0.02": 0.0,
			"-0.019": 0.0,
			"-0.018": 0.0,
			"-0.017": 0.0,
			"-0.016": 0.0,
			"-0.015": 0.0,
			"-0.014": 0.0,
			"-0.013": 0.108600966123,
			"-0.012": 1.58562380716,
			"-0.011": 2.59574487545,
			"-0.01": 2.14587540914,
			"-0.009": 2.44236649196,
			"-0.008": 12.2227871669,
			"-0.007": 14.0554560382,
			"-0.006": 15.3266651923,
			"-0.005": 12.1423821339,
			"-0.004": 12.290962194,
			"-0.003": 10.6977481596,
			"-0.002": 12.5082574886,
			"-0.001": 13.9905643806,
			"0.0": 15.5870464366,
			"0.001": 10.7122250164,
			"0.002": 6.38261189254,
			"0.003": 7.30525280036,
			"0.004": 7.7540789789,
			"0.005": 8.86527833176,
			"0.006": 9.68667306563,
			"0.007": 8.61276490203,
			"0.008": 4.70401400598,
			"0.009": 4.80037456644,
			"0.01": 5.29419176041,
			"0.011": 3.85162602104,
			"0.012": 2.95769544482,
			"0.013": 2.54846110254,
			"0.014": 1.83485673225,
			"0.015": 2.22508981199,
			"0.016": 0.949921428211,
			"0.017": 0.0601664010821,
			"0.018": 0.0,
			"0.019": 0.0,
			"0.02": 0.0,
			"0.021": 0.0,
			"0.022": 0.0,
			"0.023": 0.0,
			"0.024": 0.0,
			"0.025": 0.0
		}
	}
}
