{
	 "smiles": "CN(C)C1=NC(=N)C=CN1", 
	 "Tm": 423.15, 
	 "num_atms": 20, 
	 "gaussian": { 
		 "optdone": 1, 
		 "sigma_profile": "yes", 
		 "theory": "DFT", 
		 "functional": "B3LYP", 
		 "basiset": "6-31G**", 
		 "properties": { 
			 "R2extent": 2075.72, 
			 "electric_dipole_moment_norm": 7.29322942598, 
			 "electric_quadrupole_moment_norm": 19.0855938503, 
			 "total_energy": -453.650325336, 
			 "HOMO_LUMO_gap": 0.19456, 
			 "cosmo_polarized_energy": -21.48, 
			 "cosmo_cavitation_energy": 23.04, 
			 "cosmo_dispersion_energy": -17.3, 
			 "cosmo_repulsion_energy": 1.41, 
			 "cosmo_total_nonelectrostatic_energy": 7.15, 
			 "SMD_solvation_energy": 2.04 
		},
		"coords": [
			{
				"x": 1.3513639129,
				"y": -0.3267097035,
				"z": 1.7185780317,
				"element": "C" 
			},
			{
				"x": 0.3125789571,
				"y": -1.2811145395,
				"z": 1.3708068415,
				"element": "N" 
			},
			{
				"x": -0.1144607867,
				"y": -2.2087499157,
				"z": 2.4130889224,
				"element": "C" 
			},
			{
				"x": -0.5330174982,
				"y": -1.0626181354,
				"z": 0.3026571229,
				"element": "C" 
			},
			{
				"x": -1.5898341581,
				"y": -1.7999780116,
				"z": 0.1327878949,
				"element": "N" 
			},
			{
				"x": -2.4229110044,
				"y": -1.6115372313,
				"z": -0.9837690255,
				"element": "C" 
			},
			{
				"x": -3.4726248369,
				"y": -2.3227538775,
				"z": -1.208152224,
				"element": "N" 
			},
			{
				"x": -2.0587591814,
				"y": -0.5414676417,
				"z": -1.919515321,
				"element": "C" 
			},
			{
				"x": -0.9638008973,
				"y": 0.1994463574,
				"z": -1.6874536417,
				"element": "C" 
			},
			{
				"x": -0.1759058668,
				"y": -0.0439916499,
				"z": -0.5660700225,
				"element": "N" 
			},
			{
				"x": 2.0555439815,
				"y": -0.174430869,
				"z": 0.8908878911,
				"element": "H" 
			},
			{
				"x": 1.9323437,
				"y": -0.7344530636,
				"z": 2.5473099286,
				"element": "H" 
			},
			{
				"x": 0.9571459578,
				"y": 0.6516643124,
				"z": 2.0346355209,
				"element": "H" 
			},
			{
				"x": -0.7835301541,
				"y": -2.9435132377,
				"z": 1.9705870884,
				"element": "H" 
			},
			{
				"x": -0.649719929,
				"y": -1.6963647994,
				"z": 3.2253080629,
				"element": "H" 
			},
			{
				"x": 0.7638561561,
				"y": -2.7099943271,
				"z": 2.8309521959,
				"element": "H" 
			},
			{
				"x": -3.560484484,
				"y": -3.0090155399,
				"z": -0.4529790989,
				"element": "H" 
			},
			{
				"x": -2.6885013621,
				"y": -0.3694717445,
				"z": -2.7827605626,
				"element": "H" 
			},
			{
				"x": -0.6268284766,
				"y": 1.0079763219,
				"z": -2.3257018473,
				"element": "H" 
			},
			{
				"x": 0.6458459703,
				"y": 0.5129772956,
				"z": -0.4077977579,
				"element": "H" 
			}
		],
		 "valence_orbital": [ 
			{
				"type": "occ",
				"energy": -0.31574,
				"method": "rhf"
			},
			{
				"type": "occ",
				"energy": -0.25317,
				"method": "rhf"
			},
			{
				"type": "occ",
				"energy": -0.23214,
				"method": "rhf"
			},
			{
				"type": "occ",
				"energy": -0.22782,
				"method": "rhf"
			},
			{
				"type": "occ",
				"energy": -0.19327,
				"method": "rhf"
			},
			{
				"type": "unocc",
				"energy": 0.00129,
				"method": "rhf"
			},
			{
				"type": "unocc",
				"energy": 0.02216,
				"method": "rhf"
			},
			{
				"type": "unocc",
				"energy": 0.05062,
				"method": "rhf"
			},
			{
				"type": "unocc",
				"energy": 0.09739,
				"method": "rhf"
			},
			{
				"type": "unocc",
				"energy": 0.11044,
				"method": "rhf"
			}
		],
		"cosmo_sigma_profile": { 
			"-0.025": 0.0,
			"-0.024": 0.0,
			"-0.023": 0.0,
			"-0.022": 0.0,
			"-0.021": 0.0,
			"-0.02": 0.0,
			"-0.019": 0.0,
			"-0.018": 0.0,
			"-0.017": 0.113331510116,
			"-0.016": 1.13629604673,
			"-0.015": 1.35499780443,
			"-0.014": 1.21634825387,
			"-0.013": 1.16671563136,
			"-0.012": 1.29246639173,
			"-0.011": 1.51703424799,
			"-0.01": 2.01394115306,
			"-0.009": 3.21306253678,
			"-0.008": 3.14591160608,
			"-0.007": 4.94907346452,
			"-0.006": 9.29074068995,
			"-0.005": 12.7739974711,
			"-0.004": 14.2395288559,
			"-0.003": 17.9657462492,
			"-0.002": 16.1320554623,
			"-0.001": 10.4513192996,
			"0.0": 9.03244670688,
			"0.001": 8.21101689203,
			"0.002": 6.50511833435,
			"0.003": 7.5675857247,
			"0.004": 9.94519692627,
			"0.005": 5.63873813378,
			"0.006": 3.08904742039,
			"0.007": 4.23751257041,
			"0.008": 4.41855622234,
			"0.009": 2.8291706496,
			"0.01": 3.21951749375,
			"0.011": 3.14111966347,
			"0.012": 1.92844964203,
			"0.013": 1.27550226535,
			"0.014": 1.09788569686,
			"0.015": 1.80394537336,
			"0.016": 1.29572916273,
			"0.017": 1.11075189402,
			"0.018": 0.889673675302,
			"0.019": 1.47135345654,
			"0.02": 0.893693250865,
			"0.021": 0.708797913259,
			"0.022": 0.0144156819463,
			"0.023": 0.0,
			"0.024": 0.0,
			"0.025": 0.0
		}
	}
}
