{
	 "smiles": "CC(C)(C)C(=O)NC1=CC(=C(Cl)C=C1)C(F)(F)F", 
	 "Tm": 406.15, 
	 "num_atms": 31, 
	 "gaussian": { 
		 "optdone": 1, 
		 "sigma_profile": "yes", 
		 "theory": "DFT", 
		 "functional": "B3LYP", 
		 "basiset": "6-31G**", 
		 "properties": { 
			 "R2extent": 6158.6924, 
			 "electric_dipole_moment_norm": 2.35961814495, 
			 "electric_quadrupole_moment_norm": 18.9607556632, 
			 "total_energy": -1354.8201911, 
			 "HOMO_LUMO_gap": 0.19986, 
			 "cosmo_polarized_energy": -11.22, 
			 "cosmo_cavitation_energy": 36.56, 
			 "cosmo_dispersion_energy": -24.63, 
			 "cosmo_repulsion_energy": 1.84, 
			 "cosmo_total_nonelectrostatic_energy": 13.77, 
			 "SMD_solvation_energy": 7.81 
		},
		"coords": [
			{
				"x": -2.0370177028,
				"y": 0.0027378869,
				"z": -1.5160719476,
				"element": "C" 
			},
			{
				"x": -0.7966047418,
				"y": 0.2926313945,
				"z": -2.3833378526,
				"element": "C" 
			},
			{
				"x": -0.3441242441,
				"y": 1.7618108783,
				"z": -2.2072025855,
				"element": "C" 
			},
			{
				"x": -1.1764173901,
				"y": 0.0741201229,
				"z": -3.8655799214,
				"element": "C" 
			},
			{
				"x": 0.4175590648,
				"y": -0.6338757143,
				"z": -2.1098480116,
				"element": "C" 
			},
			{
				"x": 1.225171036,
				"y": -0.8770626693,
				"z": -2.9967065961,
				"element": "O" 
			},
			{
				"x": 0.5984790716,
				"y": -1.2775428228,
				"z": -0.8875703009,
				"element": "N" 
			},
			{
				"x": 0.1473004049,
				"y": -0.9958209301,
				"z": 0.4310986957,
				"element": "C" 
			},
			{
				"x": 0.3872485109,
				"y": 0.2411345312,
				"z": 1.0368920053,
				"element": "C" 
			},
			{
				"x": -0.0311368573,
				"y": 0.5032833215,
				"z": 2.3436984837,
				"element": "C" 
			},
			{
				"x": -0.6656228913,
				"y": -0.516677593,
				"z": 3.0696677138,
				"element": "C" 
			},
			{
				"x": -1.2094591587,
				"y": -0.2766833222,
				"z": 4.7160695343,
				"element": "Cl" 
			},
			{
				"x": -0.8759282958,
				"y": -1.766822399,
				"z": 2.4869886058,
				"element": "C" 
			},
			{
				"x": -0.4783284488,
				"y": -2.0026012154,
				"z": 1.1740068477,
				"element": "C" 
			},
			{
				"x": 0.2363186612,
				"y": 1.8698407337,
				"z": 2.9366146443,
				"element": "C" 
			},
			{
				"x": -0.9046893629,
				"y": 2.4857422663,
				"z": 3.3044420718,
				"element": "F" 
			},
			{
				"x": 1.0298701077,
				"y": 1.7991851619,
				"z": 4.023220072,
				"element": "F" 
			},
			{
				"x": 0.8531503573,
				"y": 2.6773211621,
				"z": 2.0446058606,
				"element": "F" 
			},
			{
				"x": -2.3130111317,
				"y": -1.0562029987,
				"z": -1.552739054,
				"element": "H" 
			},
			{
				"x": -1.9066349385,
				"y": 0.2851080724,
				"z": -0.4704516618,
				"element": "H" 
			},
			{
				"x": -2.8840656288,
				"y": 0.5780524465,
				"z": -1.9042836612,
				"element": "H" 
			},
			{
				"x": -1.1391134472,
				"y": 2.4340264085,
				"z": -2.5472255119,
				"element": "H" 
			},
			{
				"x": 0.5509969918,
				"y": 1.9648435434,
				"z": -2.8023857001,
				"element": "H" 
			},
			{
				"x": -0.1307736235,
				"y": 2.0102032744,
				"z": -1.1636597459,
				"element": "H" 
			},
			{
				"x": -1.5251517573,
				"y": -0.9495185119,
				"z": -4.0364556295,
				"element": "H" 
			},
			{
				"x": -1.9843699441,
				"y": 0.7595753435,
				"z": -4.1413679574,
				"element": "H" 
			},
			{
				"x": -0.3197866788,
				"y": 0.2477432751,
				"z": -4.5174987969,
				"element": "H" 
			},
			{
				"x": 1.3832223619,
				"y": -1.9175312724,
				"z": -0.9548748699,
				"element": "H" 
			},
			{
				"x": 0.9178625265,
				"y": 1.009817186,
				"z": 0.4908300773,
				"element": "H" 
			},
			{
				"x": -1.3631693627,
				"y": -2.5453164052,
				"z": 3.0630308626,
				"element": "H" 
			},
			{
				"x": -0.6611734884,
				"y": -2.9687211547,
				"z": 0.7142943292,
				"element": "H" 
			}
		],
		 "valence_orbital": [ 
			{
				"type": "occ",
				"energy": -0.32719,
				"method": "rhf"
			},
			{
				"type": "occ",
				"energy": -0.29282,
				"method": "rhf"
			},
			{
				"type": "occ",
				"energy": -0.28881,
				"method": "rhf"
			},
			{
				"type": "occ",
				"energy": -0.25336,
				"method": "rhf"
			},
			{
				"type": "occ",
				"energy": -0.25199,
				"method": "rhf"
			},
			{
				"type": "unocc",
				"energy": -0.05213,
				"method": "rhf"
			},
			{
				"type": "unocc",
				"energy": -0.04154,
				"method": "rhf"
			},
			{
				"type": "unocc",
				"energy": 0.00963,
				"method": "rhf"
			},
			{
				"type": "unocc",
				"energy": 0.01688,
				"method": "rhf"
			},
			{
				"type": "unocc",
				"energy": 0.08071,
				"method": "rhf"
			}
		],
		"cosmo_sigma_profile": { 
			"-0.025": 0.0,
			"-0.024": 0.0,
			"-0.023": 0.0,
			"-0.022": 0.0,
			"-0.021": 0.0,
			"-0.02": 0.0,
			"-0.019": 0.0,
			"-0.018": 0.0,
			"-0.017": 0.0,
			"-0.016": 0.0,
			"-0.015": 0.0,
			"-0.014": 0.557565458123,
			"-0.013": 1.34488862869,
			"-0.012": 0.777513761902,
			"-0.011": 0.736018456647,
			"-0.01": 1.04124086612,
			"-0.009": 0.959544133665,
			"-0.008": 4.25174332357,
			"-0.007": 7.92171305099,
			"-0.006": 6.92610420229,
			"-0.005": 6.44492505715,
			"-0.004": 11.77386889,
			"-0.003": 27.2695319731,
			"-0.002": 26.320486713,
			"-0.001": 29.7038689173,
			"0.0": 38.8820967394,
			"0.001": 35.4011350376,
			"0.002": 30.2704534779,
			"0.003": 29.2821648875,
			"0.004": 11.7688631423,
			"0.005": 1.21310096392,
			"0.006": 1.58584423048,
			"0.007": 1.59807565403,
			"0.008": 1.08793226481,
			"0.009": 1.66601000526,
			"0.01": 1.44566727166,
			"0.011": 1.61753986047,
			"0.012": 2.36399714164,
			"0.013": 4.58243800878,
			"0.014": 2.46927905866,
			"0.015": 0.0,
			"0.016": 0.0,
			"0.017": 0.0,
			"0.018": 0.0,
			"0.019": 0.0,
			"0.02": 0.0,
			"0.021": 0.0,
			"0.022": 0.0,
			"0.023": 0.0,
			"0.024": 0.0,
			"0.025": 0.0
		}
	}
}
