{
	 "smiles": "OC(=O)C1=C(NC(=O)C2=CC(Br)=CC=C2)C=C(F)C=C1", 
	 "Tm": 491.15, 
	 "num_atms": 29, 
	 "gaussian": { 
		 "optdone": 1, 
		 "sigma_profile": "yes", 
		 "theory": "DFT", 
		 "functional": "B3LYP", 
		 "basiset": "6-31G**", 
		 "properties": { 
			 "R2extent": 10264.1679, 
			 "electric_dipole_moment_norm": 2.43068974779, 
			 "electric_quadrupole_moment_norm": 17.3504105534, 
			 "total_energy": -3490.60525855, 
			 "HOMO_LUMO_gap": 0.17528, 
			 "cosmo_polarized_energy": -15.13, 
			 "cosmo_cavitation_energy": 37.44, 
			 "cosmo_dispersion_energy": -26.46, 
			 "cosmo_repulsion_energy": 2.02, 
			 "cosmo_total_nonelectrostatic_energy": 13.0, 
			 "SMD_solvation_energy": 7.39 
		},
		"coords": [
			{
				"x": 3.6707740927,
				"y": 1.2245057049,
				"z": 1.2501253271,
				"element": "O" 
			},
			{
				"x": 2.8464752693,
				"y": 0.7286033414,
				"z": 2.2172766569,
				"element": "C" 
			},
			{
				"x": 3.1274851029,
				"y": 0.8524647355,
				"z": 3.3925146096,
				"element": "O" 
			},
			{
				"x": 1.6419098277,
				"y": 0.0241250557,
				"z": 1.7081949609,
				"element": "C" 
			},
			{
				"x": 1.1787784942,
				"y": 0.0080671079,
				"z": 0.3608440536,
				"element": "C" 
			},
			{
				"x": 1.8551600522,
				"y": 0.7093298627,
				"z": -0.6426679731,
				"element": "N" 
			},
			{
				"x": 1.4722919842,
				"y": 1.1094819007,
				"z": -1.9206860925,
				"element": "C" 
			},
			{
				"x": 2.3349986419,
				"y": 1.2956570895,
				"z": -2.7674892154,
				"element": "O" 
			},
			{
				"x": 0.0321794247,
				"y": 1.4110499469,
				"z": -2.2152996824,
				"element": "C" 
			},
			{
				"x": -0.4109032441,
				"y": 1.1898311502,
				"z": -3.5261799338,
				"element": "C" 
			},
			{
				"x": -1.7135177084,
				"y": 1.5331019115,
				"z": -3.8723173428,
				"element": "C" 
			},
			{
				"x": -2.3294791245,
				"y": 1.2039825437,
				"z": -5.6503031039,
				"element": "Br" 
			},
			{
				"x": -2.5765276679,
				"y": 2.1232159565,
				"z": -2.9483684663,
				"element": "C" 
			},
			{
				"x": -2.1174184736,
				"y": 2.3687131007,
				"z": -1.6531901434,
				"element": "C" 
			},
			{
				"x": -0.8226836737,
				"y": 2.0107181247,
				"z": -1.2805782657,
				"element": "C" 
			},
			{
				"x": 0.0446787651,
				"y": -0.7620664752,
				"z": 0.051832909,
				"element": "C" 
			},
			{
				"x": -0.6244161658,
				"y": -1.4411183926,
				"z": 1.0564702656,
				"element": "C" 
			},
			{
				"x": -1.7053811663,
				"y": -2.16582469,
				"z": 0.7214248055,
				"element": "F" 
			},
			{
				"x": -0.2127969011,
				"y": -1.419440113,
				"z": 2.3866208951,
				"element": "C" 
			},
			{
				"x": 0.9246883759,
				"y": -0.6882852786,
				"z": 2.6867701692,
				"element": "C" 
			},
			{
				"x": 4.4134065546,
				"y": 1.6401547301,
				"z": 1.7192430836,
				"element": "H" 
			},
			{
				"x": 2.8452359356,
				"y": 0.8565854689,
				"z": -0.4826512178,
				"element": "H" 
			},
			{
				"x": 0.2694000437,
				"y": 0.7639302312,
				"z": -4.2537327199,
				"element": "H" 
			},
			{
				"x": -3.585726194,
				"y": 2.3910484506,
				"z": -3.2397338335,
				"element": "H" 
			},
			{
				"x": -2.7773078057,
				"y": 2.8435500376,
				"z": -0.9335769575,
				"element": "H" 
			},
			{
				"x": -0.4733699249,
				"y": 2.2102327298,
				"z": -0.2735689221,
				"element": "H" 
			},
			{
				"x": -0.3154021729,
				"y": -0.847505353,
				"z": -0.9641015002,
				"element": "H" 
			},
			{
				"x": -0.7638954401,
				"y": -1.9696733899,
				"z": 3.1398737053,
				"element": "H" 
			},
			{
				"x": 1.2996630984,
				"y": -0.6448354884,
				"z": 3.7029539288,
				"element": "H" 
			}
		],
		 "valence_orbital": [ 
			{
				"type": "occ",
				"energy": -0.28372,
				"method": "rhf"
			},
			{
				"type": "occ",
				"energy": -0.27089,
				"method": "rhf"
			},
			{
				"type": "occ",
				"energy": -0.265,
				"method": "rhf"
			},
			{
				"type": "occ",
				"energy": -0.25393,
				"method": "rhf"
			},
			{
				"type": "occ",
				"energy": -0.24154,
				"method": "rhf"
			},
			{
				"type": "unocc",
				"energy": -0.06626,
				"method": "rhf"
			},
			{
				"type": "unocc",
				"energy": -0.05315,
				"method": "rhf"
			},
			{
				"type": "unocc",
				"energy": -0.02705,
				"method": "rhf"
			},
			{
				"type": "unocc",
				"energy": -0.02228,
				"method": "rhf"
			},
			{
				"type": "unocc",
				"energy": 0.00034,
				"method": "rhf"
			}
		],
		"cosmo_sigma_profile": { 
			"-0.025": 0.0,
			"-0.024": 0.0,
			"-0.023": 0.0,
			"-0.022": 0.0,
			"-0.021": 0.0,
			"-0.02": 0.0,
			"-0.019": 0.449797463566,
			"-0.018": 0.930567039089,
			"-0.017": 0.850040706389,
			"-0.016": 0.923659510253,
			"-0.015": 0.769010568256,
			"-0.014": 0.553630968447,
			"-0.013": 0.524896035407,
			"-0.012": 0.662508385437,
			"-0.011": 0.804318628354,
			"-0.01": 0.329496452186,
			"-0.009": 0.702051307039,
			"-0.008": 4.32720134108,
			"-0.007": 12.8938299547,
			"-0.006": 15.5207637359,
			"-0.005": 15.356217384,
			"-0.004": 15.2536440682,
			"-0.003": 19.838108402,
			"-0.002": 18.9631673323,
			"-0.001": 24.2764513921,
			"0.0": 28.8035859395,
			"0.001": 31.9744813446,
			"0.002": 30.2854906705,
			"0.003": 21.9138541202,
			"0.004": 20.9530702664,
			"0.005": 5.77398456713,
			"0.006": 2.96403785682,
			"0.007": 2.01168012074,
			"0.008": 2.94308628743,
			"0.009": 3.59974022568,
			"0.01": 3.72421152458,
			"0.011": 7.19040810925,
			"0.012": 7.05962626729,
			"0.013": 1.637903971,
			"0.014": 0.0,
			"0.015": 0.0,
			"0.016": 0.0,
			"0.017": 0.0,
			"0.018": 0.0,
			"0.019": 0.0,
			"0.02": 0.0,
			"0.021": 0.0,
			"0.022": 0.0,
			"0.023": 0.0,
			"0.024": 0.0,
			"0.025": 0.0
		}
	}
}
