{
	 "smiles": "CNC(=O)OCC1=CC=CC(COC(=O)NC)=N1", 
	 "Tm": 409.15, 
	 "num_atms": 33, 
	 "gaussian": { 
		 "optdone": 1, 
		 "sigma_profile": "yes", 
		 "theory": "DFT", 
		 "functional": "B3LYP", 
		 "basiset": "6-31G**", 
		 "properties": { 
			 "R2extent": 7710.9555, 
			 "electric_dipole_moment_norm": 3.93393224268, 
			 "electric_quadrupole_moment_norm": 5.98217936876, 
			 "total_energy": -893.403607948, 
			 "HOMO_LUMO_gap": 0.22788, 
			 "cosmo_polarized_energy": -16.86, 
			 "cosmo_cavitation_energy": 37.87, 
			 "cosmo_dispersion_energy": -27.59, 
			 "cosmo_repulsion_energy": 2.21, 
			 "cosmo_total_nonelectrostatic_energy": 12.49, 
			 "SMD_solvation_energy": 6.74 
		},
		"coords": [
			{
				"x": 2.4482151542,
				"y": -4.7626248717,
				"z": -3.4318657315,
				"element": "C" 
			},
			{
				"x": 2.387592476,
				"y": -3.9033974025,
				"z": -2.2666429355,
				"element": "N" 
			},
			{
				"x": 1.2898560607,
				"y": -3.8334447777,
				"z": -1.4671290872,
				"element": "C" 
			},
			{
				"x": 0.2505252059,
				"y": -4.4549142922,
				"z": -1.630831835,
				"element": "O" 
			},
			{
				"x": 1.5229746607,
				"y": -2.9596336417,
				"z": -0.4485387825,
				"element": "O" 
			},
			{
				"x": 0.4528833631,
				"y": -2.7930166267,
				"z": 0.5101012526,
				"element": "C" 
			},
			{
				"x": -0.4446135735,
				"y": -1.6256911751,
				"z": 0.1604986779,
				"element": "C" 
			},
			{
				"x": -1.3480483702,
				"y": -1.6981515431,
				"z": -0.9071451089,
				"element": "C" 
			},
			{
				"x": -2.1481602061,
				"y": -0.5894756064,
				"z": -1.1755103884,
				"element": "C" 
			},
			{
				"x": -2.0279275159,
				"y": 0.5445475352,
				"z": -0.374880175,
				"element": "C" 
			},
			{
				"x": -1.0971374563,
				"y": 0.5265058595,
				"z": 0.6713072276,
				"element": "C" 
			},
			{
				"x": -0.9160002601,
				"y": 1.7217989601,
				"z": 1.5816878397,
				"element": "C" 
			},
			{
				"x": -0.2226096151,
				"y": 2.8056047321,
				"z": 0.9211263298,
				"element": "O" 
			},
			{
				"x": -1.0050945179,
				"y": 3.7524710955,
				"z": 0.3323394637,
				"element": "C" 
			},
			{
				"x": -2.2267110787,
				"y": 3.7341258674,
				"z": 0.3092540566,
				"element": "O" 
			},
			{
				"x": -0.2178453546,
				"y": 4.7129618853,
				"z": -0.2215651266,
				"element": "N" 
			},
			{
				"x": -0.7638328326,
				"y": 5.8647514214,
				"z": -0.9107402304,
				"element": "C" 
			},
			{
				"x": -0.3204817381,
				"y": -0.5359498121,
				"z": 0.9336620719,
				"element": "N" 
			},
			{
				"x": 2.6489447331,
				"y": -4.1855726875,
				"z": -4.3416550198,
				"element": "H" 
			},
			{
				"x": 3.2228438007,
				"y": -5.5310275904,
				"z": -3.3254012162,
				"element": "H" 
			},
			{
				"x": 1.4791785144,
				"y": -5.25263245,
				"z": -3.5305578031,
				"element": "H" 
			},
			{
				"x": 3.1845090745,
				"y": -3.345581596,
				"z": -2.0011213311,
				"element": "H" 
			},
			{
				"x": -0.1139868839,
				"y": -3.7253299875,
				"z": 0.5635834107,
				"element": "H" 
			},
			{
				"x": 0.9447833836,
				"y": -2.5853463778,
				"z": 1.4605768122,
				"element": "H" 
			},
			{
				"x": -1.4087729651,
				"y": -2.607349192,
				"z": -1.4957607414,
				"element": "H" 
			},
			{
				"x": -2.8651376627,
				"y": -0.6131587012,
				"z": -1.9914749787,
				"element": "H" 
			},
			{
				"x": -2.6327940657,
				"y": 1.4302346641,
				"z": -0.5376273971,
				"element": "H" 
			},
			{
				"x": -1.8778961426,
				"y": 2.0933175999,
				"z": 1.942435546,
				"element": "H" 
			},
			{
				"x": -0.275978215,
				"y": 1.4339493136,
				"z": 2.4159634249,
				"element": "H" 
			},
			{
				"x": 0.7789742296,
				"y": 4.609000473,
				"z": -0.1107504514,
				"element": "H" 
			},
			{
				"x": -0.5068730195,
				"y": 6.7994174486,
				"z": -0.3986602956,
				"element": "H" 
			},
			{
				"x": -0.4011016988,
				"y": 5.9191086273,
				"z": -1.9434231158,
				"element": "H" 
			},
			{
				"x": -1.8488774842,
				"y": 5.7579028486,
				"z": -0.9222543624,
				"element": "H" 
			}
		],
		 "valence_orbital": [ 
			{
				"type": "occ",
				"energy": -0.27183,
				"method": "rhf"
			},
			{
				"type": "occ",
				"energy": -0.25828,
				"method": "rhf"
			},
			{
				"type": "occ",
				"energy": -0.2555,
				"method": "rhf"
			},
			{
				"type": "occ",
				"energy": -0.24979,
				"method": "rhf"
			},
			{
				"type": "occ",
				"energy": -0.24923,
				"method": "rhf"
			},
			{
				"type": "unocc",
				"energy": -0.02135,
				"method": "rhf"
			},
			{
				"type": "unocc",
				"energy": -0.01845,
				"method": "rhf"
			},
			{
				"type": "unocc",
				"energy": 0.05683,
				"method": "rhf"
			},
			{
				"type": "unocc",
				"energy": 0.05897,
				"method": "rhf"
			},
			{
				"type": "unocc",
				"energy": 0.09047,
				"method": "rhf"
			}
		],
		"cosmo_sigma_profile": { 
			"-0.025": 0.0,
			"-0.024": 0.0,
			"-0.023": 0.0,
			"-0.022": 0.0,
			"-0.021": 0.0,
			"-0.02": 0.0,
			"-0.019": 0.0,
			"-0.018": 0.0,
			"-0.017": 0.0,
			"-0.016": 0.0,
			"-0.015": 0.205145101658,
			"-0.014": 1.87988974309,
			"-0.013": 1.96934062179,
			"-0.012": 2.55280422832,
			"-0.011": 1.32984219636,
			"-0.01": 1.86651677858,
			"-0.009": 1.5118163124,
			"-0.008": 2.59820032118,
			"-0.007": 4.19752756355,
			"-0.006": 7.52301718009,
			"-0.005": 22.1267110613,
			"-0.004": 27.3794706747,
			"-0.003": 27.7165506102,
			"-0.002": 28.858007354,
			"-0.001": 22.2928451867,
			"0.0": 22.0587511628,
			"0.001": 23.4214944078,
			"0.002": 23.9365034625,
			"0.003": 14.1420769911,
			"0.004": 11.3709334397,
			"0.005": 7.22976706833,
			"0.006": 7.63631490387,
			"0.007": 6.43724699744,
			"0.008": 5.95591537975,
			"0.009": 4.17997886136,
			"0.01": 2.87502712181,
			"0.011": 3.80519708732,
			"0.012": 4.91215487198,
			"0.013": 7.50415260898,
			"0.014": 0.791767678298,
			"0.015": 0.0,
			"0.016": 0.0,
			"0.017": 0.0,
			"0.018": 0.0,
			"0.019": 0.0,
			"0.02": 0.0,
			"0.021": 0.0,
			"0.022": 0.0,
			"0.023": 0.0,
			"0.024": 0.0,
			"0.025": 0.0
		}
	}
}
