{
	 "smiles": "CC(C)N1C2=C(C=CC(F)=C2)N=C1C1=CC(N)=C(C)C=C1", 
	 "Tm": 457.15, 
	 "num_atms": 39, 
	 "gaussian": { 
		 "optdone": 1, 
		 "sigma_profile": "yes", 
		 "theory": "DFT", 
		 "functional": "B3LYP", 
		 "basiset": "6-31G**", 
		 "properties": { 
			 "R2extent": 7970.0343, 
			 "electric_dipole_moment_norm": 4.02652118087, 
			 "electric_quadrupole_moment_norm": 14.3600974736, 
			 "total_energy": -922.780187726, 
			 "HOMO_LUMO_gap": 0.17571, 
			 "cosmo_polarized_energy": -15.11, 
			 "cosmo_cavitation_energy": 41.48, 
			 "cosmo_dispersion_energy": -28.86, 
			 "cosmo_repulsion_energy": 2.17, 
			 "cosmo_total_nonelectrostatic_energy": 14.79, 
			 "SMD_solvation_energy": 5.32 
		},
		"coords": [
			{
				"x": -1.6531161686,
				"y": 0.817084059,
				"z": -2.0202312921,
				"element": "C" 
			},
			{
				"x": -0.7475075921,
				"y": -0.278689074,
				"z": -2.5935719549,
				"element": "C" 
			},
			{
				"x": -1.5342141421,
				"y": -1.457965198,
				"z": -3.1825791663,
				"element": "C" 
			},
			{
				"x": 0.3117543674,
				"y": -0.7186105418,
				"z": -1.6562480277,
				"element": "N" 
			},
			{
				"x": 1.6283375074,
				"y": -0.8734969606,
				"z": -2.0688230531,
				"element": "C" 
			},
			{
				"x": 2.3819366635,
				"y": -1.071499317,
				"z": -0.8890902354,
				"element": "C" 
			},
			{
				"x": 3.7686864812,
				"y": -1.2565987752,
				"z": -0.9623519204,
				"element": "C" 
			},
			{
				"x": 4.3754938191,
				"y": -1.2359517342,
				"z": -2.2131438267,
				"element": "C" 
			},
			{
				"x": 3.5951548824,
				"y": -1.0336121642,
				"z": -3.3609739806,
				"element": "C" 
			},
			{
				"x": 4.2203356748,
				"y": -1.0240414982,
				"z": -4.5619029195,
				"element": "F" 
			},
			{
				"x": 2.2203765616,
				"y": -0.8491084165,
				"z": -3.3366760019,
				"element": "C" 
			},
			{
				"x": 1.5501150295,
				"y": -1.0445441579,
				"z": 0.2123654088,
				"element": "N" 
			},
			{
				"x": 0.3373932236,
				"y": -0.8464983231,
				"z": -0.2610841206,
				"element": "C" 
			},
			{
				"x": -0.8382524431,
				"y": -0.7995025118,
				"z": 0.6351518957,
				"element": "C" 
			},
			{
				"x": -0.7690780613,
				"y": 0.0189547289,
				"z": 1.7674540729,
				"element": "C" 
			},
			{
				"x": -1.8185047172,
				"y": 0.0711016721,
				"z": 2.6945089896,
				"element": "C" 
			},
			{
				"x": -1.7515652229,
				"y": 0.9482319657,
				"z": 3.7804315783,
				"element": "N" 
			},
			{
				"x": -2.9721763467,
				"y": -0.7219903814,
				"z": 2.48959492,
				"element": "C" 
			},
			{
				"x": -4.1187872108,
				"y": -0.6634935755,
				"z": 3.4668484147,
				"element": "C" 
			},
			{
				"x": -3.0127883524,
				"y": -1.5531190473,
				"z": 1.3681990842,
				"element": "C" 
			},
			{
				"x": -1.9687594907,
				"y": -1.606191396,
				"z": 0.4452231849,
				"element": "C" 
			},
			{
				"x": -2.264858331,
				"y": 1.2254766195,
				"z": -2.8309034569,
				"element": "H" 
			},
			{
				"x": -2.3232116734,
				"y": 0.4391718082,
				"z": -1.2471407121,
				"element": "H" 
			},
			{
				"x": -1.0606092466,
				"y": 1.6330768934,
				"z": -1.5971225988,
				"element": "H" 
			},
			{
				"x": -0.1876645453,
				"y": 0.1805916962,
				"z": -3.4149749796,
				"element": "H" 
			},
			{
				"x": -2.1924317937,
				"y": -1.9141700452,
				"z": -2.4395459969,
				"element": "H" 
			},
			{
				"x": -0.8577299659,
				"y": -2.2275609996,
				"z": -3.5651037578,
				"element": "H" 
			},
			{
				"x": -2.1581992637,
				"y": -1.1083116612,
				"z": -4.0117003959,
				"element": "H" 
			},
			{
				"x": 4.3470821556,
				"y": -1.4108245158,
				"z": -0.0574617673,
				"element": "H" 
			},
			{
				"x": 5.4446160352,
				"y": -1.3746410725,
				"z": -2.3297120339,
				"element": "H" 
			},
			{
				"x": 1.6749318724,
				"y": -0.7112175381,
				"z": -4.2630403958,
				"element": "H" 
			},
			{
				"x": 0.1235099365,
				"y": 0.6166942821,
				"z": 1.9268409803,
				"element": "H" 
			},
			{
				"x": -2.258038851,
				"y": 0.6588254797,
				"z": 4.6056604234,
				"element": "H" 
			},
			{
				"x": -0.8184333229,
				"y": 1.2642493445,
				"z": 4.0077504138,
				"element": "H" 
			},
			{
				"x": -4.9499556013,
				"y": -1.2914261934,
				"z": 3.1365827828,
				"element": "H" 
			},
			{
				"x": -4.4938300849,
				"y": 0.3609285983,
				"z": 3.5840991891,
				"element": "H" 
			},
			{
				"x": -3.8266092996,
				"y": -1.013951996,
				"z": 4.4673929846,
				"element": "H" 
			},
			{
				"x": -3.8857971001,
				"y": -2.1843047265,
				"z": 1.2203415349,
				"element": "H" 
			},
			{
				"x": -2.0150053831,
				"y": -2.2986653264,
				"z": -0.3869632637,
				"element": "H" 
			}
		],
		 "valence_orbital": [ 
			{
				"type": "occ",
				"energy": -0.26349,
				"method": "rhf"
			},
			{
				"type": "occ",
				"energy": -0.24698,
				"method": "rhf"
			},
			{
				"type": "occ",
				"energy": -0.22315,
				"method": "rhf"
			},
			{
				"type": "occ",
				"energy": -0.21068,
				"method": "rhf"
			},
			{
				"type": "occ",
				"energy": -0.2013,
				"method": "rhf"
			},
			{
				"type": "unocc",
				"energy": -0.02559,
				"method": "rhf"
			},
			{
				"type": "unocc",
				"energy": 0.00621,
				"method": "rhf"
			},
			{
				"type": "unocc",
				"energy": 0.01229,
				"method": "rhf"
			},
			{
				"type": "unocc",
				"energy": 0.02981,
				"method": "rhf"
			},
			{
				"type": "unocc",
				"energy": 0.0643,
				"method": "rhf"
			}
		],
		"cosmo_sigma_profile": { 
			"-0.025": 0.0,
			"-0.024": 0.0,
			"-0.023": 0.0,
			"-0.022": 0.0,
			"-0.021": 0.0,
			"-0.02": 0.0,
			"-0.019": 0.0,
			"-0.018": 0.0,
			"-0.017": 0.0,
			"-0.016": 0.0,
			"-0.015": 0.0,
			"-0.014": 0.0,
			"-0.013": 0.143901717086,
			"-0.012": 1.49628048758,
			"-0.011": 2.19386992714,
			"-0.01": 2.73910341167,
			"-0.009": 3.05334775139,
			"-0.008": 4.96106296135,
			"-0.007": 7.29441914958,
			"-0.006": 10.4394067824,
			"-0.005": 15.9309449849,
			"-0.004": 28.0080211405,
			"-0.003": 27.4935815574,
			"-0.002": 26.1568356288,
			"-0.001": 27.7915519857,
			"0.0": 31.8739770746,
			"0.001": 23.2759657728,
			"0.002": 20.0660833685,
			"0.003": 20.688572307,
			"0.004": 25.8272695016,
			"0.005": 21.6539673466,
			"0.006": 7.96148347678,
			"0.007": 3.00519867499,
			"0.008": 2.2804403718,
			"0.009": 2.90004504801,
			"0.01": 2.26489984362,
			"0.011": 1.12477372484,
			"0.012": 2.36351251623,
			"0.013": 1.39604864905,
			"0.014": 1.54116602669,
			"0.015": 1.10811007002,
			"0.016": 0.807773129266,
			"0.017": 0.803947329999,
			"0.018": 0.238030455164,
			"0.019": 0.0,
			"0.02": 0.0,
			"0.021": 0.0,
			"0.022": 0.0,
			"0.023": 0.0,
			"0.024": 0.0,
			"0.025": 0.0
		}
	}
}
