{
	 "smiles": "COC1=CC=CC2=C1C(=O)C1=C(O)C3=C(CC(O)(CC3OC3CC(N)C(O)C(C)O3)C(C)=O)C(O)=C1C2=O", 
	 "Tm": 481.15, 
	 "num_atms": 67, 
	 "gaussian": { 
		 "optdone": 1, 
		 "sigma_profile": "yes", 
		 "theory": "DFT", 
		 "functional": "B3LYP", 
		 "basiset": "6-31G**", 
		 "properties": { 
			 "R2extent": 22330.2135, 
			 "electric_dipole_moment_norm": 3.04765709685, 
			 "electric_quadrupole_moment_norm": 23.1734035098, 
			 "total_energy": -1853.32698461, 
			 "HOMO_LUMO_gap": 0.11139, 
			 "cosmo_polarized_energy": -30.18, 
			 "cosmo_cavitation_energy": 65.34, 
			 "cosmo_dispersion_energy": -44.46, 
			 "cosmo_repulsion_energy": 3.25, 
			 "cosmo_total_nonelectrostatic_energy": 24.13, 
			 "SMD_solvation_energy": 11.36 
		},
		"coords": [
			{
				"x": -2.0098541703,
				"y": -4.1431865962,
				"z": -5.011648916,
				"element": "C" 
			},
			{
				"x": -0.5795360809,
				"y": -4.1204827495,
				"z": -5.0450541301,
				"element": "O" 
			},
			{
				"x": 0.0565137346,
				"y": -4.7442750301,
				"z": -4.0080042617,
				"element": "C" 
			},
			{
				"x": 0.3743672316,
				"y": -6.0984737597,
				"z": -4.1700606236,
				"element": "C" 
			},
			{
				"x": 1.0968532406,
				"y": -6.7908273766,
				"z": -3.2002255541,
				"element": "C" 
			},
			{
				"x": 1.5354926752,
				"y": -6.1244112922,
				"z": -2.0609567379,
				"element": "C" 
			},
			{
				"x": 1.2450830819,
				"y": -4.7656608069,
				"z": -1.8963097838,
				"element": "C" 
			},
			{
				"x": 0.4800331999,
				"y": -4.0550439889,
				"z": -2.8482502069,
				"element": "C" 
			},
			{
				"x": 0.1238158515,
				"y": -2.6185180729,
				"z": -2.6037847628,
				"element": "C" 
			},
			{
				"x": -0.8158441093,
				"y": -2.094381619,
				"z": -3.1899344829,
				"element": "O" 
			},
			{
				"x": 0.9219230483,
				"y": -1.885933419,
				"z": -1.5783924929,
				"element": "C" 
			},
			{
				"x": 0.8938351024,
				"y": -0.4854116372,
				"z": -1.4920098144,
				"element": "C" 
			},
			{
				"x": 0.2607363878,
				"y": 0.2236874115,
				"z": -2.4516266989,
				"element": "O" 
			},
			{
				"x": 1.5595086025,
				"y": 0.183629035,
				"z": -0.4185505049,
				"element": "C" 
			},
			{
				"x": 2.2831506767,
				"y": -0.5405558241,
				"z": 0.524774274,
				"element": "C" 
			},
			{
				"x": 3.0642709307,
				"y": 0.1119126832,
				"z": 1.6444176018,
				"element": "C" 
			},
			{
				"x": 3.3390919251,
				"y": 1.604336513,
				"z": 1.3833096002,
				"element": "C" 
			},
			{
				"x": 4.2752240296,
				"y": 1.730983544,
				"z": 0.3317337699,
				"element": "O" 
			},
			{
				"x": 2.0172822281,
				"y": 2.2841644481,
				"z": 0.9697850637,
				"element": "C" 
			},
			{
				"x": 1.5619465173,
				"y": 1.710179441,
				"z": -0.3728348237,
				"element": "C" 
			},
			{
				"x": 0.2952700889,
				"y": 2.2806581077,
				"z": -0.8024429774,
				"element": "O" 
			},
			{
				"x": -0.8600428875,
				"y": 2.0022239423,
				"z": -0.0375691099,
				"element": "C" 
			},
			{
				"x": -2.0832438495,
				"y": 2.1475157698,
				"z": -0.9581646043,
				"element": "C" 
			},
			{
				"x": -3.2958379148,
				"y": 2.6619732969,
				"z": -0.155757327,
				"element": "C" 
			},
			{
				"x": -4.6192194124,
				"y": 2.3547846246,
				"z": -0.7113772649,
				"element": "N" 
			},
			{
				"x": -3.2438531139,
				"y": 2.1038881321,
				"z": 1.2783757564,
				"element": "C" 
			},
			{
				"x": -4.3913478309,
				"y": 2.48554325,
				"z": 2.001552346,
				"element": "O" 
			},
			{
				"x": -1.9541459265,
				"y": 2.6012586792,
				"z": 1.9938733968,
				"element": "C" 
			},
			{
				"x": -2.1657462755,
				"y": 3.8466848249,
				"z": 2.8406861001,
				"element": "C" 
			},
			{
				"x": -0.9367954663,
				"y": 2.9354399852,
				"z": 1.0244033867,
				"element": "O" 
			},
			{
				"x": 3.9258276426,
				"y": 2.2981892195,
				"z": 2.6312936894,
				"element": "C" 
			},
			{
				"x": 3.2051936512,
				"y": 2.2350290704,
				"z": 3.9576450119,
				"element": "C" 
			},
			{
				"x": 4.9860585057,
				"y": 2.8909135095,
				"z": 2.5095165138,
				"element": "O" 
			},
			{
				"x": 2.3255493391,
				"y": -1.9528246546,
				"z": 0.4385868945,
				"element": "C" 
			},
			{
				"x": 3.0158914596,
				"y": -2.6069276187,
				"z": 1.3852628687,
				"element": "O" 
			},
			{
				"x": 1.6653083293,
				"y": -2.6208512027,
				"z": -0.6119696655,
				"element": "C" 
			},
			{
				"x": 1.7947706271,
				"y": -4.0745534944,
				"z": -0.7066210586,
				"element": "C" 
			},
			{
				"x": 2.4030807052,
				"y": -4.7304062187,
				"z": 0.1666895353,
				"element": "O" 
			},
			{
				"x": -2.3827581907,
				"y": -3.5670767345,
				"z": -4.1615080355,
				"element": "H" 
			},
			{
				"x": -2.3851029327,
				"y": -5.1744911871,
				"z": -4.9709852622,
				"element": "H" 
			},
			{
				"x": -2.3399482937,
				"y": -3.6761973449,
				"z": -5.941317461,
				"element": "H" 
			},
			{
				"x": 0.0532423837,
				"y": -6.5859767632,
				"z": -5.085374499,
				"element": "H" 
			},
			{
				"x": 1.3281070562,
				"y": -7.8422002929,
				"z": -3.3430654366,
				"element": "H" 
			},
			{
				"x": 2.1160209065,
				"y": -6.6247769025,
				"z": -1.2945847316,
				"element": "H" 
			},
			{
				"x": 0.2239157953,
				"y": 1.158098418,
				"z": -2.1683827905,
				"element": "H" 
			},
			{
				"x": 4.0167821036,
				"y": -0.4121785041,
				"z": 1.7640394657,
				"element": "H" 
			},
			{
				"x": 2.5173422181,
				"y": -0.0231506144,
				"z": 2.5866070854,
				"element": "H" 
			},
			{
				"x": 4.9898249957,
				"y": 2.2865555083,
				"z": 0.696990036,
				"element": "H" 
			},
			{
				"x": 2.1489301354,
				"y": 3.3644700279,
				"z": 0.8588134823,
				"element": "H" 
			},
			{
				"x": 1.2459384274,
				"y": 2.1223824171,
				"z": 1.7258306899,
				"element": "H" 
			},
			{
				"x": 2.2576090199,
				"y": 2.0655922007,
				"z": -1.140272629,
				"element": "H" 
			},
			{
				"x": -0.7918544481,
				"y": 0.9827472268,
				"z": 0.3788783579,
				"element": "H" 
			},
			{
				"x": -1.8312112333,
				"y": 2.850088119,
				"z": -1.7594743645,
				"element": "H" 
			},
			{
				"x": -2.302860944,
				"y": 1.1799550233,
				"z": -1.4250993999,
				"element": "H" 
			},
			{
				"x": -3.236213142,
				"y": 3.7528438809,
				"z": -0.0767699823,
				"element": "H" 
			},
			{
				"x": -4.8315682279,
				"y": 2.9492395883,
				"z": -1.5070130909,
				"element": "H" 
			},
			{
				"x": -4.6536311421,
				"y": 1.3922433533,
				"z": -1.042078404,
				"element": "H" 
			},
			{
				"x": -3.1984098406,
				"y": 1.0001244468,
				"z": 1.2032553116,
				"element": "H" 
			},
			{
				"x": -5.0955058448,
				"y": 2.4995669132,
				"z": 1.3263392466,
				"element": "H" 
			},
			{
				"x": -1.567743944,
				"y": 1.7880135423,
				"z": 2.6298072867,
				"element": "H" 
			},
			{
				"x": -2.8690279823,
				"y": 3.6406312551,
				"z": 3.648771122,
				"element": "H" 
			},
			{
				"x": -1.2091243269,
				"y": 4.1670705258,
				"z": 3.2634167573,
				"element": "H" 
			},
			{
				"x": -2.5686084884,
				"y": 4.6650617035,
				"z": 2.2382459686,
				"element": "H" 
			},
			{
				"x": 3.5876724175,
				"y": 3.0202168299,
				"z": 4.6113169414,
				"element": "H" 
			},
			{
				"x": 2.1216851306,
				"y": 2.3289905611,
				"z": 3.8488804641,
				"element": "H" 
			},
			{
				"x": 3.4028809892,
				"y": 1.2652693847,
				"z": 4.4299564966,
				"element": "H" 
			},
			{
				"x": 2.940505628,
				"y": -3.5756827093,
				"z": 1.1538173682,
				"element": "H" 
			}
		],
		 "valence_orbital": [ 
			{
				"type": "occ",
				"energy": -0.25907,
				"method": "rhf"
			},
			{
				"type": "occ",
				"energy": -0.25648,
				"method": "rhf"
			},
			{
				"type": "occ",
				"energy": -0.25141,
				"method": "rhf"
			},
			{
				"type": "occ",
				"energy": -0.23764,
				"method": "rhf"
			},
			{
				"type": "occ",
				"energy": -0.21057,
				"method": "rhf"
			},
			{
				"type": "unocc",
				"energy": -0.09918,
				"method": "rhf"
			},
			{
				"type": "unocc",
				"energy": -0.04672,
				"method": "rhf"
			},
			{
				"type": "unocc",
				"energy": -0.04039,
				"method": "rhf"
			},
			{
				"type": "unocc",
				"energy": -0.0226,
				"method": "rhf"
			},
			{
				"type": "unocc",
				"energy": 0.00313,
				"method": "rhf"
			}
		],
		"cosmo_sigma_profile": { 
			"-0.025": 0.0,
			"-0.024": 0.0,
			"-0.023": 0.0,
			"-0.022": 0.0,
			"-0.021": 0.0,
			"-0.02": 0.0,
			"-0.019": 0.0,
			"-0.018": 0.0,
			"-0.017": 0.0,
			"-0.016": 0.0,
			"-0.015": 0.0,
			"-0.014": 0.0,
			"-0.013": 0.0,
			"-0.012": 0.0,
			"-0.011": 1.08889746144,
			"-0.01": 3.03163955388,
			"-0.009": 4.0392551083,
			"-0.008": 9.52216787684,
			"-0.007": 18.4563608034,
			"-0.006": 30.4622898918,
			"-0.005": 35.556614133,
			"-0.004": 41.6658254849,
			"-0.003": 48.3551111138,
			"-0.002": 47.0035966318,
			"-0.001": 38.8000741089,
			"0.0": 39.5769226233,
			"0.001": 36.6899675117,
			"0.002": 26.5696712421,
			"0.003": 15.9210162596,
			"0.004": 14.1468878001,
			"0.005": 13.1295539858,
			"0.006": 12.372188883,
			"0.007": 12.101948299,
			"0.008": 12.2034926563,
			"0.009": 13.2849210143,
			"0.01": 14.2881599149,
			"0.011": 9.53874492433,
			"0.012": 7.88842135798,
			"0.013": 4.08016024993,
			"0.014": 2.35513088369,
			"0.015": 1.32040740969,
			"0.016": 0.578100432425,
			"0.017": 0.0,
			"0.018": 0.0,
			"0.019": 0.0,
			"0.02": 0.0,
			"0.021": 0.0,
			"0.022": 0.0,
			"0.023": 0.0,
			"0.024": 0.0,
			"0.025": 0.0
		}
	}
}
