{
	 "smiles": "OC(=O)C1(O)CCN(CC2=CC=CC=C2)C1", 
	 "Tm": 447.15, 
	 "num_atms": 31, 
	 "gaussian": { 
		 "optdone": 1, 
		 "sigma_profile": "yes", 
		 "theory": "DFT", 
		 "functional": "B3LYP", 
		 "basiset": "6-31G**", 
		 "properties": { 
			 "R2extent": 3849.5892, 
			 "electric_dipole_moment_norm": 5.72002252793, 
			 "electric_quadrupole_moment_norm": 18.0371885789, 
			 "total_energy": -746.735591087, 
			 "HOMO_LUMO_gap": 0.18951, 
			 "cosmo_polarized_energy": -13.76, 
			 "cosmo_cavitation_energy": 32.16, 
			 "cosmo_dispersion_energy": -23.05, 
			 "cosmo_repulsion_energy": 1.78, 
			 "cosmo_total_nonelectrostatic_energy": 10.9, 
			 "SMD_solvation_energy": 3.66 
		},
		"coords": [
			{
				"x": 3.1899398505,
				"y": 2.5818261628,
				"z": 0.4728952934,
				"element": "O" 
			},
			{
				"x": 2.0602580224,
				"y": 2.6315566898,
				"z": 1.1946888055,
				"element": "C" 
			},
			{
				"x": 1.9674264378,
				"y": 3.2394708572,
				"z": 2.2359435048,
				"element": "O" 
			},
			{
				"x": 0.8892280387,
				"y": 1.8363020873,
				"z": 0.5968289847,
				"element": "C" 
			},
			{
				"x": 1.315205172,
				"y": 1.3214835451,
				"z": -0.6767032005,
				"element": "O" 
			},
			{
				"x": -0.3890720892,
				"y": 2.6765062478,
				"z": 0.4321742992,
				"element": "C" 
			},
			{
				"x": -1.4708860864,
				"y": 1.5974515052,
				"z": 0.3006501872,
				"element": "C" 
			},
			{
				"x": -1.0217050596,
				"y": 0.5159890306,
				"z": 1.1930752564,
				"element": "N" 
			},
			{
				"x": -1.4498255095,
				"y": -0.8446797453,
				"z": 0.8564469494,
				"element": "C" 
			},
			{
				"x": -0.9023642913,
				"y": -1.4124665268,
				"z": -0.4485418961,
				"element": "C" 
			},
			{
				"x": -1.5988259724,
				"y": -1.2443588696,
				"z": -1.6563472245,
				"element": "C" 
			},
			{
				"x": -1.0721806349,
				"y": -1.7082700711,
				"z": -2.8630294646,
				"element": "C" 
			},
			{
				"x": 0.1642799139,
				"y": -2.3562427761,
				"z": -2.8860281767,
				"element": "C" 
			},
			{
				"x": 0.8630291358,
				"y": -2.5500275866,
				"z": -1.6929401657,
				"element": "C" 
			},
			{
				"x": 0.3315013164,
				"y": -2.0859922731,
				"z": -0.4863963238,
				"element": "C" 
			},
			{
				"x": 0.3935767742,
				"y": 0.7254132571,
				"z": 1.5416376163,
				"element": "C" 
			},
			{
				"x": 2.9795656841,
				"y": 2.030863089,
				"z": -0.3086289323,
				"element": "H" 
			},
			{
				"x": 1.0120580934,
				"y": 0.4078327761,
				"z": -0.7829883315,
				"element": "H" 
			},
			{
				"x": -0.3302867451,
				"y": 3.3350943057,
				"z": -0.4374732293,
				"element": "H" 
			},
			{
				"x": -0.5291733187,
				"y": 3.281703531,
				"z": 1.331796749,
				"element": "H" 
			},
			{
				"x": -2.4633504368,
				"y": 1.9612932408,
				"z": 0.5939679885,
				"element": "H" 
			},
			{
				"x": -1.532508023,
				"y": 1.2704079805,
				"z": -0.7486486646,
				"element": "H" 
			},
			{
				"x": -2.545585266,
				"y": -0.8429710769,
				"z": 0.8172099021,
				"element": "H" 
			},
			{
				"x": -1.1699678931,
				"y": -1.4999078729,
				"z": 1.6889889984,
				"element": "H" 
			},
			{
				"x": -2.5715412221,
				"y": -0.7592472405,
				"z": -1.6467738314,
				"element": "H" 
			},
			{
				"x": -1.6301339163,
				"y": -1.5682954066,
				"z": -3.7844815291,
				"element": "H" 
			},
			{
				"x": 0.5741905458,
				"y": -2.7189516902,
				"z": -3.82393217,
				"element": "H" 
			},
			{
				"x": 1.8144612992,
				"y": -3.0743225549,
				"z": -1.6972596533,
				"element": "H" 
			},
			{
				"x": 0.8666222596,
				"y": -2.2781120046,
				"z": 0.4404855493,
				"element": "H" 
			},
			{
				"x": 0.4985933883,
				"y": 1.069732264,
				"z": 2.5776784703,
				"element": "H" 
			},
			{
				"x": 0.9984705322,
				"y": -0.1811808746,
				"z": 1.429604239,
				"element": "H" 
			}
		],
		 "valence_orbital": [ 
			{
				"type": "occ",
				"energy": -0.29747,
				"method": "rhf"
			},
			{
				"type": "occ",
				"energy": -0.26859,
				"method": "rhf"
			},
			{
				"type": "occ",
				"energy": -0.26469,
				"method": "rhf"
			},
			{
				"type": "occ",
				"energy": -0.25841,
				"method": "rhf"
			},
			{
				"type": "occ",
				"energy": -0.21215,
				"method": "rhf"
			},
			{
				"type": "unocc",
				"energy": -0.02264,
				"method": "rhf"
			},
			{
				"type": "unocc",
				"energy": -0.02098,
				"method": "rhf"
			},
			{
				"type": "unocc",
				"energy": 0.01439,
				"method": "rhf"
			},
			{
				"type": "unocc",
				"energy": 0.06886,
				"method": "rhf"
			},
			{
				"type": "unocc",
				"energy": 0.0708,
				"method": "rhf"
			}
		],
		"cosmo_sigma_profile": { 
			"-0.025": 0.0,
			"-0.024": 0.0,
			"-0.023": 0.0,
			"-0.022": 0.0,
			"-0.021": 0.0,
			"-0.02": 0.0,
			"-0.019": 0.0,
			"-0.018": 0.0,
			"-0.017": 0.0,
			"-0.016": 0.0,
			"-0.015": 0.0,
			"-0.014": 0.0,
			"-0.013": 0.412780867074,
			"-0.012": 0.616030021648,
			"-0.011": 0.375594077837,
			"-0.01": 0.511449464905,
			"-0.009": 0.857821513504,
			"-0.008": 0.610416176253,
			"-0.007": 3.47244821673,
			"-0.006": 11.7856898497,
			"-0.005": 22.9792126822,
			"-0.004": 27.4037445089,
			"-0.003": 28.9005025716,
			"-0.002": 25.8340636058,
			"-0.001": 23.4143239649,
			"0.0": 13.8406421223,
			"0.001": 12.119683641,
			"0.002": 10.9470328016,
			"0.003": 11.4980870546,
			"0.004": 10.9736845581,
			"0.005": 8.83037998952,
			"0.006": 5.37785363907,
			"0.007": 3.32351338597,
			"0.008": 4.81711430835,
			"0.009": 4.13283002652,
			"0.01": 6.98744592142,
			"0.011": 4.45163410385,
			"0.012": 6.00339132955,
			"0.013": 2.18889925261,
			"0.014": 0.446248928264,
			"0.015": 0.137147280231,
			"0.016": 0.0,
			"0.017": 0.0,
			"0.018": 0.0,
			"0.019": 0.0,
			"0.02": 0.0,
			"0.021": 0.0,
			"0.022": 0.0,
			"0.023": 0.0,
			"0.024": 0.0,
			"0.025": 0.0
		}
	}
}
