{
	 "smiles": "OC(=O)C1=CC(=NC=C1)N1C=NC=N1", 
	 "Tm": 588.15, 
	 "num_atms": 20, 
	 "gaussian": { 
		 "optdone": 1, 
		 "sigma_profile": "yes", 
		 "theory": "DFT", 
		 "functional": "B3LYP", 
		 "basiset": "6-31G**", 
		 "properties": { 
			 "R2extent": 3317.9918, 
			 "electric_dipole_moment_norm": 1.56059763552, 
			 "electric_quadrupole_moment_norm": 19.5674872143, 
			 "total_energy": -677.906202491, 
			 "HOMO_LUMO_gap": 0.18096, 
			 "cosmo_polarized_energy": -16.94, 
			 "cosmo_cavitation_energy": 25.94, 
			 "cosmo_dispersion_energy": -19.24, 
			 "cosmo_repulsion_energy": 1.48, 
			 "cosmo_total_nonelectrostatic_energy": 8.17, 
			 "SMD_solvation_energy": 2.98 
		},
		"coords": [
			{
				"x": -0.5444485255,
				"y": -0.3273089143,
				"z": -3.0336724244,
				"element": "O" 
			},
			{
				"x": -1.4211347481,
				"y": 0.0741305647,
				"z": -2.0836514957,
				"element": "C" 
			},
			{
				"x": -2.4517980869,
				"y": 0.6225352444,
				"z": -2.3894691007,
				"element": "O" 
			},
			{
				"x": -1.0459825594,
				"y": -0.1963289975,
				"z": -0.6490613675,
				"element": "C" 
			},
			{
				"x": 0.2650623371,
				"y": -0.43705024,
				"z": -0.2381188346,
				"element": "C" 
			},
			{
				"x": 0.4826110072,
				"y": -0.6596654602,
				"z": 1.1262403107,
				"element": "C" 
			},
			{
				"x": -0.472558935,
				"y": -0.6564245594,
				"z": 2.0518626535,
				"element": "N" 
			},
			{
				"x": -1.7237543898,
				"y": -0.4108557343,
				"z": 1.6404767034,
				"element": "C" 
			},
			{
				"x": -2.0631735078,
				"y": -0.1694635991,
				"z": 0.3128371381,
				"element": "C" 
			},
			{
				"x": 1.7910708693,
				"y": -0.9066740304,
				"z": 1.5981009536,
				"element": "N" 
			},
			{
				"x": 2.2133970539,
				"y": -1.1150130233,
				"z": 2.8778534747,
				"element": "C" 
			},
			{
				"x": 3.5159198807,
				"y": -1.3088547587,
				"z": 2.8985819215,
				"element": "N" 
			},
			{
				"x": 3.8579713249,
				"y": -1.2093134657,
				"z": 1.5782890093,
				"element": "C" 
			},
			{
				"x": 2.8581976331,
				"y": -0.9677415693,
				"z": 0.7493499345,
				"element": "N" 
			},
			{
				"x": 0.1637643285,
				"y": -0.8621205544,
				"z": -2.6481983474,
				"element": "H" 
			},
			{
				"x": 1.1199674097,
				"y": -0.4276414807,
				"z": -0.9043061227,
				"element": "H" 
			},
			{
				"x": -2.4857805028,
				"y": -0.4082560299,
				"z": 2.4159279535,
				"element": "H" 
			},
			{
				"x": -3.0831820537,
				"y": 0.0369928789,
				"z": 0.0118263912,
				"element": "H" 
			},
			{
				"x": 1.5351402035,
				"y": -1.1105050198,
				"z": 3.71684855,
				"element": "H" 
			},
			{
				"x": 4.8730112611,
				"y": -1.3183412509,
				"z": 1.221982699,
				"element": "H" 
			}
		],
		 "valence_orbital": [ 
			{
				"type": "occ",
				"energy": -0.30458,
				"method": "rhf"
			},
			{
				"type": "occ",
				"energy": -0.29403,
				"method": "rhf"
			},
			{
				"type": "occ",
				"energy": -0.29336,
				"method": "rhf"
			},
			{
				"type": "occ",
				"energy": -0.28967,
				"method": "rhf"
			},
			{
				"type": "occ",
				"energy": -0.26668,
				"method": "rhf"
			},
			{
				"type": "unocc",
				"energy": -0.08572,
				"method": "rhf"
			},
			{
				"type": "unocc",
				"energy": -0.05899,
				"method": "rhf"
			},
			{
				"type": "unocc",
				"energy": -0.00068,
				"method": "rhf"
			},
			{
				"type": "unocc",
				"energy": 0.03289,
				"method": "rhf"
			},
			{
				"type": "unocc",
				"energy": 0.04243,
				"method": "rhf"
			}
		],
		"cosmo_sigma_profile": { 
			"-0.025": 0.0,
			"-0.024": 0.0,
			"-0.023": 0.0,
			"-0.022": 0.0,
			"-0.021": 0.0,
			"-0.02": 0.309925163883,
			"-0.019": 1.1932117511,
			"-0.018": 0.798267584479,
			"-0.017": 0.797943421322,
			"-0.016": 1.08653107949,
			"-0.015": 0.868344881999,
			"-0.014": 1.31937024693,
			"-0.013": 1.22983911537,
			"-0.012": 0.817695796777,
			"-0.011": 0.657063809934,
			"-0.01": 2.65335487854,
			"-0.009": 4.63467615604,
			"-0.008": 7.61033812148,
			"-0.007": 7.93950920096,
			"-0.006": 7.46955735187,
			"-0.005": 7.01726283318,
			"-0.004": 9.75186318472,
			"-0.003": 16.0785401595,
			"-0.002": 19.404259237,
			"-0.001": 16.372821909,
			"0.0": 15.2120814107,
			"0.001": 11.5535402624,
			"0.002": 7.81472333253,
			"0.003": 7.90829117515,
			"0.004": 6.09669793553,
			"0.005": 6.19755705759,
			"0.006": 6.26719682765,
			"0.007": 6.59338492566,
			"0.008": 6.66746195785,
			"0.009": 7.62587972806,
			"0.01": 7.23684578117,
			"0.011": 6.00228419445,
			"0.012": 3.19389268015,
			"0.013": 1.27608696091,
			"0.014": 0.901235128371,
			"0.015": 1.04857583256,
			"0.016": 0.588806320675,
			"0.017": 0.0,
			"0.018": 0.0,
			"0.019": 0.0,
			"0.02": 0.0,
			"0.021": 0.0,
			"0.022": 0.0,
			"0.023": 0.0,
			"0.024": 0.0,
			"0.025": 0.0
		}
	}
}
