{
	 "smiles": "CC(C)CCC[C@@H](C)[C@H]1CC[C@H]2[C@@H]3CC=C4C[C@H](CC[C@]4(C)[C@H]3CC[C@]12C)OC(C)=O", 
	 "Tm": 386.15, 
	 "num_atms": 79, 
	 "gaussian": { 
		 "optdone": 1, 
		 "sigma_profile": "yes", 
		 "theory": "DFT", 
		 "functional": "B3LYP", 
		 "basiset": "6-31G**", 
		 "properties": { 
			 "R2extent": 25626.4355, 
			 "electric_dipole_moment_norm": 1.88225739207, 
			 "electric_quadrupole_moment_norm": 20.3126894947, 
			 "total_energy": -1284.51175701, 
			 "HOMO_LUMO_gap": 0.23923, 
			 "cosmo_polarized_energy": -7.59, 
			 "cosmo_cavitation_energy": 67.75, 
			 "cosmo_dispersion_energy": -45.32, 
			 "cosmo_repulsion_energy": 3.34, 
			 "cosmo_total_nonelectrostatic_energy": 25.78, 
			 "SMD_solvation_energy": 10.49 
		},
		"coords": [
			{
				"x": -4.160431413,
				"y": -1.908664156,
				"z": 8.0289089407,
				"element": "C" 
			},
			{
				"x": -4.1527570694,
				"y": -1.8625893062,
				"z": 6.4934514684,
				"element": "C" 
			},
			{
				"x": -4.5965124052,
				"y": -3.2136511893,
				"z": 5.9136410188,
				"element": "C" 
			},
			{
				"x": -2.774788577,
				"y": -1.3963833981,
				"z": 5.9775988966,
				"element": "C" 
			},
			{
				"x": -2.6579534491,
				"y": -1.1815110208,
				"z": 4.4489212746,
				"element": "C" 
			},
			{
				"x": -2.0104870641,
				"y": -2.3586069487,
				"z": 3.6977316414,
				"element": "C" 
			},
			{
				"x": -1.9113766095,
				"y": -2.2228070919,
				"z": 2.1549030733,
				"element": "C" 
			},
			{
				"x": -3.3166588771,
				"y": -2.2015544006,
				"z": 1.5269484332,
				"element": "C" 
			},
			{
				"x": -1.0196198038,
				"y": -1.0316948802,
				"z": 1.7258512844,
				"element": "C" 
			},
			{
				"x": 0.4047982453,
				"y": -1.0898484011,
				"z": 2.370263766,
				"element": "C" 
			},
			{
				"x": 1.3829848136,
				"y": -0.3989416114,
				"z": 1.3799725265,
				"element": "C" 
			},
			{
				"x": 0.4554494309,
				"y": 0.2129469351,
				"z": 0.3192086383,
				"element": "C" 
			},
			{
				"x": 1.0512917351,
				"y": 0.6672234458,
				"z": -1.0191882617,
				"element": "C" 
			},
			{
				"x": 2.222568767,
				"y": 1.6491708165,
				"z": -0.80575869,
				"element": "C" 
			},
			{
				"x": 2.4447193873,
				"y": 2.6142596925,
				"z": -1.936874985,
				"element": "C" 
			},
			{
				"x": 1.6692238048,
				"y": 2.7267800331,
				"z": -3.0215240006,
				"element": "C" 
			},
			{
				"x": 1.8373431947,
				"y": 3.9183195554,
				"z": -3.9516830244,
				"element": "C" 
			},
			{
				"x": 1.3475817746,
				"y": 3.7124018918,
				"z": -5.3831282065,
				"element": "C" 
			},
			{
				"x": -0.0745013157,
				"y": 3.1139674525,
				"z": -5.4301688103,
				"element": "C" 
			},
			{
				"x": -0.5741583126,
				"y": 2.5526387768,
				"z": -4.0807358767,
				"element": "C" 
			},
			{
				"x": 0.4999161369,
				"y": 1.7678971362,
				"z": -3.2833165241,
				"element": "C" 
			},
			{
				"x": 0.9826619173,
				"y": 0.5607189567,
				"z": -4.1311584034,
				"element": "C" 
			},
			{
				"x": -0.0630439249,
				"y": 1.3006326231,
				"z": -1.8970488177,
				"element": "C" 
			},
			{
				"x": -1.3018864758,
				"y": 0.3822823474,
				"z": -1.9886197941,
				"element": "C" 
			},
			{
				"x": -1.8211258447,
				"y": -0.1076076746,
				"z": -0.619893921,
				"element": "C" 
			},
			{
				"x": -0.7183063035,
				"y": -0.8013506781,
				"z": 0.2045329017,
				"element": "C" 
			},
			{
				"x": -0.2959188465,
				"y": -2.1278525007,
				"z": -0.4654517609,
				"element": "C" 
			},
			{
				"x": 2.231281543,
				"y": 2.7964734997,
				"z": -6.1018485304,
				"element": "O" 
			},
			{
				"x": 3.3646627356,
				"y": 3.3177925339,
				"z": -6.6258628779,
				"element": "C" 
			},
			{
				"x": 4.1713758325,
				"y": 2.2480218021,
				"z": -7.3251307978,
				"element": "C" 
			},
			{
				"x": 3.679088878,
				"y": 4.4859300477,
				"z": -6.5401543021,
				"element": "O" 
			},
			{
				"x": -3.8894871157,
				"y": -0.9387944375,
				"z": 8.4606872177,
				"element": "H" 
			},
			{
				"x": -3.4426146507,
				"y": -2.6498948871,
				"z": 8.4016646553,
				"element": "H" 
			},
			{
				"x": -5.1485848428,
				"y": -2.1830452053,
				"z": 8.4142571967,
				"element": "H" 
			},
			{
				"x": -4.8893158146,
				"y": -1.1076186746,
				"z": 6.1779707707,
				"element": "H" 
			},
			{
				"x": -4.6853567216,
				"y": -3.1831435567,
				"z": 4.8235486665,
				"element": "H" 
			},
			{
				"x": -5.5731023522,
				"y": -3.5074501843,
				"z": 6.3145652847,
				"element": "H" 
			},
			{
				"x": -3.8817757987,
				"y": -4.0054170842,
				"z": 6.1704232881,
				"element": "H" 
			},
			{
				"x": -2.0087848475,
				"y": -2.1136623114,
				"z": 6.3077811717,
				"element": "H" 
			},
			{
				"x": -2.5369435212,
				"y": -0.4549608882,
				"z": 6.4891404596,
				"element": "H" 
			},
			{
				"x": -3.6532032536,
				"y": -0.9686609922,
				"z": 4.0372945805,
				"element": "H" 
			},
			{
				"x": -2.0635724826,
				"y": -0.2785929737,
				"z": 4.2656033657,
				"element": "H" 
			},
			{
				"x": -1.0080790425,
				"y": -2.5193466229,
				"z": 4.1132986285,
				"element": "H" 
			},
			{
				"x": -2.5692368547,
				"y": -3.2775795684,
				"z": 3.9140499243,
				"element": "H" 
			},
			{
				"x": -1.4154282601,
				"y": -3.1421257983,
				"z": 1.8112051953,
				"element": "H" 
			},
			{
				"x": -3.823233039,
				"y": -1.2438506159,
				"z": 1.6883600484,
				"element": "H" 
			},
			{
				"x": -3.9449429675,
				"y": -2.9860955751,
				"z": 1.9644395783,
				"element": "H" 
			},
			{
				"x": -3.2852291005,
				"y": -2.3770796224,
				"z": 0.448902489,
				"element": "H" 
			},
			{
				"x": -1.5109602613,
				"y": -0.1112945934,
				"z": 2.0733720394,
				"element": "H" 
			},
			{
				"x": 0.4113435357,
				"y": -0.6013311516,
				"z": 3.3495594992,
				"element": "H" 
			},
			{
				"x": 0.7021198991,
				"y": -2.1300607123,
				"z": 2.5453045854,
				"element": "H" 
			},
			{
				"x": 2.0109462218,
				"y": 0.3514522445,
				"z": 1.8696472123,
				"element": "H" 
			},
			{
				"x": 2.0633567804,
				"y": -1.1294676733,
				"z": 0.9260890839,
				"element": "H" 
			},
			{
				"x": 0.0148705856,
				"y": 1.1157147582,
				"z": 0.775686104,
				"element": "H" 
			},
			{
				"x": 1.4434871021,
				"y": -0.2151906899,
				"z": -1.53956195,
				"element": "H" 
			},
			{
				"x": 2.0349966122,
				"y": 2.2480760532,
				"z": 0.1006330098,
				"element": "H" 
			},
			{
				"x": 3.1439688081,
				"y": 1.0915864779,
				"z": -0.5875159047,
				"element": "H" 
			},
			{
				"x": 3.2557359829,
				"y": 3.3304327587,
				"z": -1.7966718169,
				"element": "H" 
			},
			{
				"x": 2.8722211965,
				"y": 4.2716611956,
				"z": -3.9613886758,
				"element": "H" 
			},
			{
				"x": 1.2400977072,
				"y": 4.7531779403,
				"z": -3.5526640186,
				"element": "H" 
			},
			{
				"x": 1.3959962153,
				"y": 4.6647332566,
				"z": -5.915494537,
				"element": "H" 
			},
			{
				"x": -0.7760112026,
				"y": 3.8835757155,
				"z": -5.7707059523,
				"element": "H" 
			},
			{
				"x": -0.0836908832,
				"y": 2.3342488808,
				"z": -6.1973439473,
				"element": "H" 
			},
			{
				"x": -0.9355130474,
				"y": 3.3786983484,
				"z": -3.4533977704,
				"element": "H" 
			},
			{
				"x": -1.4425998479,
				"y": 1.9159448968,
				"z": -4.2764489579,
				"element": "H" 
			},
			{
				"x": 1.4770025964,
				"y": 0.8918888678,
				"z": -5.0447588967,
				"element": "H" 
			},
			{
				"x": 1.7039794188,
				"y": -0.0489811244,
				"z": -3.5817088823,
				"element": "H" 
			},
			{
				"x": 0.1420747155,
				"y": -0.0814870389,
				"z": -4.4173292084,
				"element": "H" 
			},
			{
				"x": -0.3830113087,
				"y": 2.2187123311,
				"z": -1.3775308508,
				"element": "H" 
			},
			{
				"x": -2.1174116402,
				"y": 0.9116796732,
				"z": -2.4932853224,
				"element": "H" 
			},
			{
				"x": -1.0759625591,
				"y": -0.4870068793,
				"z": -2.6166933426,
				"element": "H" 
			},
			{
				"x": -2.199400431,
				"y": 0.752025716,
				"z": -0.0484077624,
				"element": "H" 
			},
			{
				"x": -2.6778478618,
				"y": -0.7680505604,
				"z": -0.788261743,
				"element": "H" 
			},
			{
				"x": -1.1550525372,
				"y": -2.7996262114,
				"z": -0.5635902287,
				"element": "H" 
			},
			{
				"x": 0.4660005642,
				"y": -2.6581717927,
				"z": 0.1134979045,
				"element": "H" 
			},
			{
				"x": 0.1092802983,
				"y": -1.9774614402,
				"z": -1.4689650127,
				"element": "H" 
			},
			{
				"x": 5.0432102126,
				"y": 2.7014133175,
				"z": -7.7957723627,
				"element": "H" 
			},
			{
				"x": 3.5589935814,
				"y": 1.7402245414,
				"z": -8.0756053614,
				"element": "H" 
			},
			{
				"x": 4.4926483069,
				"y": 1.4931076037,
				"z": -6.6008657334,
				"element": "H" 
			}
		],
		 "valence_orbital": [ 
			{
				"type": "occ",
				"energy": -0.28615,
				"method": "rhf"
			},
			{
				"type": "occ",
				"energy": -0.27418,
				"method": "rhf"
			},
			{
				"type": "occ",
				"energy": -0.26468,
				"method": "rhf"
			},
			{
				"type": "occ",
				"energy": -0.26318,
				"method": "rhf"
			},
			{
				"type": "occ",
				"energy": -0.22313,
				"method": "rhf"
			},
			{
				"type": "unocc",
				"energy": 0.0161,
				"method": "rhf"
			},
			{
				"type": "unocc",
				"energy": 0.02929,
				"method": "rhf"
			},
			{
				"type": "unocc",
				"energy": 0.07004,
				"method": "rhf"
			},
			{
				"type": "unocc",
				"energy": 0.08042,
				"method": "rhf"
			},
			{
				"type": "unocc",
				"energy": 0.08496,
				"method": "rhf"
			}
		],
		"cosmo_sigma_profile": { 
			"-0.025": 0.0,
			"-0.024": 0.0,
			"-0.023": 0.0,
			"-0.022": 0.0,
			"-0.021": 0.0,
			"-0.02": 0.0,
			"-0.019": 0.0,
			"-0.018": 0.0,
			"-0.017": 0.0,
			"-0.016": 0.0,
			"-0.015": 0.0,
			"-0.014": 0.0,
			"-0.013": 0.0,
			"-0.012": 0.0,
			"-0.011": 0.0,
			"-0.01": 0.0,
			"-0.009": 0.0,
			"-0.008": 0.0,
			"-0.007": 0.299611838504,
			"-0.006": 4.27675876734,
			"-0.005": 6.9484026215,
			"-0.004": 14.1752727606,
			"-0.003": 28.4258346685,
			"-0.002": 69.8228362012,
			"-0.001": 116.311662939,
			"0.0": 108.381123816,
			"0.001": 73.8199996001,
			"0.002": 49.8057562128,
			"0.003": 13.2250104024,
			"0.004": 5.96194357774,
			"0.005": 6.04455027702,
			"0.006": 4.25734952075,
			"0.007": 2.46421287598,
			"0.008": 2.20013893868,
			"0.009": 1.40678155422,
			"0.01": 1.35320147707,
			"0.011": 2.56775882827,
			"0.012": 4.46215150309,
			"0.013": 1.87962635046,
			"0.014": 0.117546960979,
			"0.015": 0.0,
			"0.016": 0.0,
			"0.017": 0.0,
			"0.018": 0.0,
			"0.019": 0.0,
			"0.02": 0.0,
			"0.021": 0.0,
			"0.022": 0.0,
			"0.023": 0.0,
			"0.024": 0.0,
			"0.025": 0.0
		}
	}
}
