{
	 "smiles": "NC(=O)C1=C(N)C=CC(Cl)=C1", 
	 "Tm": 444.15, 
	 "num_atms": 18, 
	 "gaussian": { 
		 "optdone": 1, 
		 "sigma_profile": "yes", 
		 "theory": "DFT", 
		 "functional": "B3LYP", 
		 "basiset": "6-31G**", 
		 "properties": { 
			 "R2extent": 2659.5969, 
			 "electric_dipole_moment_norm": 1.19245625916, 
			 "electric_quadrupole_moment_norm": 17.6406512533, 
			 "total_energy": -915.912412288, 
			 "HOMO_LUMO_gap": 0.16173, 
			 "cosmo_polarized_energy": -13.02, 
			 "cosmo_cavitation_energy": 23.73, 
			 "cosmo_dispersion_energy": -18.16, 
			 "cosmo_repulsion_energy": 1.47, 
			 "cosmo_total_nonelectrostatic_energy": 7.04, 
			 "SMD_solvation_energy": 4.31 
		},
		"coords": [
			{
				"x": 0.3411326635,
				"y": -3.2885854785,
				"z": -1.7725748242,
				"element": "N" 
			},
			{
				"x": -0.3208945931,
				"y": -2.0890828469,
				"z": -1.8762805693,
				"element": "C" 
			},
			{
				"x": -0.8244167622,
				"y": -1.7542747066,
				"z": -2.9544297626,
				"element": "O" 
			},
			{
				"x": -0.415915264,
				"y": -1.2597021609,
				"z": -0.6418416192,
				"element": "C" 
			},
			{
				"x": -0.7818153735,
				"y": 0.1155811765,
				"z": -0.7326065437,
				"element": "C" 
			},
			{
				"x": -1.0285844621,
				"y": 0.7186063172,
				"z": -1.9348443865,
				"element": "N" 
			},
			{
				"x": -0.8397378455,
				"y": 0.8679242401,
				"z": 0.4637968069,
				"element": "C" 
			},
			{
				"x": -0.578359876,
				"y": 0.297901525,
				"z": 1.6977869746,
				"element": "C" 
			},
			{
				"x": -0.2497557549,
				"y": -1.0597898489,
				"z": 1.7760239173,
				"element": "C" 
			},
			{
				"x": 0.0508973934,
				"y": -1.7998161542,
				"z": 3.3454187815,
				"element": "Cl" 
			},
			{
				"x": -0.1728991414,
				"y": -1.8239772591,
				"z": 0.6233302625,
				"element": "C" 
			},
			{
				"x": 0.4813963957,
				"y": -3.7696027134,
				"z": -2.6494291138,
				"element": "H" 
			},
			{
				"x": 1.0426162953,
				"y": -3.425634305,
				"z": -1.0622836983,
				"element": "H" 
			},
			{
				"x": -1.1974489308,
				"y": 0.09258288,
				"z": -2.715086981,
				"element": "H" 
			},
			{
				"x": -1.4815140141,
				"y": 1.6183401411,
				"z": -1.9273468395,
				"element": "H" 
			},
			{
				"x": -1.102057404,
				"y": 1.9209969331,
				"z": 0.4054619221,
				"element": "H" 
			},
			{
				"x": -0.6378428089,
				"y": 0.8954839168,
				"z": 2.6011217378,
				"element": "H" 
			},
			{
				"x": 0.0389994826,
				"y": -2.8834516562,
				"z": 0.7111839355,
				"element": "H" 
			}
		],
		 "valence_orbital": [ 
			{
				"type": "occ",
				"energy": -0.29622,
				"method": "rhf"
			},
			{
				"type": "occ",
				"energy": -0.27959,
				"method": "rhf"
			},
			{
				"type": "occ",
				"energy": -0.26673,
				"method": "rhf"
			},
			{
				"type": "occ",
				"energy": -0.2599,
				"method": "rhf"
			},
			{
				"type": "occ",
				"energy": -0.20492,
				"method": "rhf"
			},
			{
				"type": "unocc",
				"energy": -0.04319,
				"method": "rhf"
			},
			{
				"type": "unocc",
				"energy": 0.00151,
				"method": "rhf"
			},
			{
				"type": "unocc",
				"energy": 0.03111,
				"method": "rhf"
			},
			{
				"type": "unocc",
				"energy": 0.05071,
				"method": "rhf"
			},
			{
				"type": "unocc",
				"energy": 0.08261,
				"method": "rhf"
			}
		],
		"cosmo_sigma_profile": { 
			"-0.025": 0.0,
			"-0.024": 0.0,
			"-0.023": 0.0,
			"-0.022": 0.0,
			"-0.021": 0.0,
			"-0.02": 0.0,
			"-0.019": 0.0,
			"-0.018": 0.0,
			"-0.017": 0.0,
			"-0.016": 0.0,
			"-0.015": 0.0917435470346,
			"-0.014": 1.60327855426,
			"-0.013": 3.61096681043,
			"-0.012": 4.56642626741,
			"-0.011": 3.48307562248,
			"-0.01": 3.90515146239,
			"-0.009": 4.40992348806,
			"-0.008": 4.28901737262,
			"-0.007": 7.38654695702,
			"-0.006": 6.33524111173,
			"-0.005": 7.04963617875,
			"-0.004": 5.88937320899,
			"-0.003": 6.52920604845,
			"-0.002": 7.02314126994,
			"-0.001": 9.04523647479,
			"0.0": 10.2568739248,
			"0.001": 12.6780332143,
			"0.002": 15.9171442847,
			"0.003": 21.9756896944,
			"0.004": 20.0554609662,
			"0.005": 13.1069841076,
			"0.006": 4.49350408373,
			"0.007": 3.33132328112,
			"0.008": 2.65415951839,
			"0.009": 1.69691053507,
			"0.01": 2.39903387723,
			"0.011": 2.07601490976,
			"0.012": 1.7837599863,
			"0.013": 2.6347439898,
			"0.014": 1.27121800412,
			"0.015": 0.0,
			"0.016": 0.0,
			"0.017": 0.0,
			"0.018": 0.0,
			"0.019": 0.0,
			"0.02": 0.0,
			"0.021": 0.0,
			"0.022": 0.0,
			"0.023": 0.0,
			"0.024": 0.0,
			"0.025": 0.0
		}
	}
}
