{
	 "smiles": "FC1=CC(NC(=O)C2CSCN2)=CC=C1", 
	 "Tm": 496.15, 
	 "num_atms": 26, 
	 "gaussian": { 
		 "optdone": 1, 
		 "sigma_profile": "yes", 
		 "theory": "DFT", 
		 "functional": "B3LYP", 
		 "basiset": "6-31G**", 
		 "properties": { 
			 "R2extent": 3789.808, 
			 "electric_dipole_moment_norm": 4.20397325991, 
			 "electric_quadrupole_moment_norm": 8.93628005828, 
			 "total_energy": -1070.43566537, 
			 "HOMO_LUMO_gap": 0.18226, 
			 "cosmo_polarized_energy": -15.17, 
			 "cosmo_cavitation_energy": 31.08, 
			 "cosmo_dispersion_energy": -22.29, 
			 "cosmo_repulsion_energy": 1.68, 
			 "cosmo_total_nonelectrostatic_energy": 10.47, 
			 "SMD_solvation_energy": 3.22 
		},
		"coords": [
			{
				"x": -0.8838118339,
				"y": -0.2966845503,
				"z": 3.4212944187,
				"element": "F" 
			},
			{
				"x": -0.8172426665,
				"y": 0.6608753436,
				"z": 2.4772617472,
				"element": "C" 
			},
			{
				"x": -1.2589807826,
				"y": 0.3562008292,
				"z": 1.1934026219,
				"element": "C" 
			},
			{
				"x": -1.1855184669,
				"y": 1.3456230376,
				"z": 0.2026017777,
				"element": "C" 
			},
			{
				"x": -1.653127844,
				"y": 1.1006360161,
				"z": -1.1145600187,
				"element": "N" 
			},
			{
				"x": -1.3951825528,
				"y": 0.1048626614,
				"z": -2.0382219977,
				"element": "C" 
			},
			{
				"x": -2.0909243379,
				"y": 0.0270392718,
				"z": -3.0414125457,
				"element": "O" 
			},
			{
				"x": -0.2381030982,
				"y": -0.8880495685,
				"z": -1.8783781184,
				"element": "C" 
			},
			{
				"x": -0.7278570777,
				"y": -2.2952535071,
				"z": -1.413527305,
				"element": "C" 
			},
			{
				"x": 0.7978693947,
				"y": -3.1918000266,
				"z": -0.9098944946,
				"element": "S" 
			},
			{
				"x": 1.8261173896,
				"y": -1.6057081008,
				"z": -1.0845819588,
				"element": "C" 
			},
			{
				"x": 0.9198902821,
				"y": -0.4854320899,
				"z": -1.0833122852,
				"element": "N" 
			},
			{
				"x": -0.711499944,
				"y": 2.6234324477,
				"z": 0.5302545428,
				"element": "C" 
			},
			{
				"x": -0.3020057113,
				"y": 2.9031167987,
				"z": 1.8333562201,
				"element": "C" 
			},
			{
				"x": -0.3400292789,
				"y": 1.9196532198,
				"z": 2.8233090927,
				"element": "C" 
			},
			{
				"x": -1.679618103,
				"y": -0.6213933773,
				"z": 0.9895952036,
				"element": "H" 
			},
			{
				"x": -2.3565121144,
				"y": 1.7393674238,
				"z": -1.4682245678,
				"element": "H" 
			},
			{
				"x": 0.1152299746,
				"y": -1.009736396,
				"z": -2.9076626713,
				"element": "H" 
			},
			{
				"x": -1.4144734314,
				"y": -2.2305887416,
				"z": -0.5645253925,
				"element": "H" 
			},
			{
				"x": -1.2323015986,
				"y": -2.8168650048,
				"z": -2.2283002227,
				"element": "H" 
			},
			{
				"x": 2.3650832177,
				"y": -1.6640808031,
				"z": -2.0330567469,
				"element": "H" 
			},
			{
				"x": 2.5385183199,
				"y": -1.5449661322,
				"z": -0.2611024899,
				"element": "H" 
			},
			{
				"x": 0.6396322217,
				"y": -0.2892442885,
				"z": -0.1264711595,
				"element": "H" 
			},
			{
				"x": -0.653666355,
				"y": 3.3822810099,
				"z": -0.2431541735,
				"element": "H" 
			},
			{
				"x": 0.0653998234,
				"y": 3.8946712129,
				"z": 2.0787701162,
				"element": "H" 
			},
			{
				"x": -0.0170854268,
				"y": 2.1122433142,
				"z": 3.840040407,
				"element": "H" 
			}
		],
		 "valence_orbital": [ 
			{
				"type": "occ",
				"energy": -0.27184,
				"method": "rhf"
			},
			{
				"type": "occ",
				"energy": -0.26321,
				"method": "rhf"
			},
			{
				"type": "occ",
				"energy": -0.25052,
				"method": "rhf"
			},
			{
				"type": "occ",
				"energy": -0.24733,
				"method": "rhf"
			},
			{
				"type": "occ",
				"energy": -0.21986,
				"method": "rhf"
			},
			{
				"type": "unocc",
				"energy": -0.0376,
				"method": "rhf"
			},
			{
				"type": "unocc",
				"energy": -0.02421,
				"method": "rhf"
			},
			{
				"type": "unocc",
				"energy": 0.00663,
				"method": "rhf"
			},
			{
				"type": "unocc",
				"energy": 0.03376,
				"method": "rhf"
			},
			{
				"type": "unocc",
				"energy": 0.05777,
				"method": "rhf"
			}
		],
		"cosmo_sigma_profile": { 
			"-0.025": 0.0,
			"-0.024": 0.0,
			"-0.023": 0.0,
			"-0.022": 0.0,
			"-0.021": 0.0,
			"-0.02": 0.0,
			"-0.019": 0.0,
			"-0.018": 0.0,
			"-0.017": 0.0,
			"-0.016": 0.0,
			"-0.015": 0.398191243822,
			"-0.014": 1.08479409329,
			"-0.013": 1.00151097328,
			"-0.012": 0.489527455155,
			"-0.011": 1.17122723934,
			"-0.01": 1.74054244215,
			"-0.009": 3.51759970695,
			"-0.008": 4.55632282834,
			"-0.007": 13.1952336798,
			"-0.006": 16.9558263865,
			"-0.005": 18.2197791668,
			"-0.004": 16.0657134994,
			"-0.003": 16.1160068138,
			"-0.002": 13.8411744493,
			"-0.001": 13.7841301592,
			"0.0": 16.0441432298,
			"0.001": 16.8063912908,
			"0.002": 14.9151155754,
			"0.003": 16.601252105,
			"0.004": 17.523772714,
			"0.005": 7.00717857675,
			"0.006": 5.24498607376,
			"0.007": 4.64661355757,
			"0.008": 4.02924934219,
			"0.009": 4.45296881292,
			"0.01": 3.67620546675,
			"0.011": 4.25929896087,
			"0.012": 3.64041285132,
			"0.013": 6.10554919819,
			"0.014": 1.69508266497,
			"0.015": 0.422361184554,
			"0.016": 0.0,
			"0.017": 0.0,
			"0.018": 0.0,
			"0.019": 0.0,
			"0.02": 0.0,
			"0.021": 0.0,
			"0.022": 0.0,
			"0.023": 0.0,
			"0.024": 0.0,
			"0.025": 0.0
		}
	}
}
