{
	 "smiles": "COC(=O)CCC(C)C1CCC2C3C(CC4CC(CCC4(C)C3CC(=O)C12C)OC(C)=O)OC(C)=O", 
	 "Tm": 451.15, 
	 "num_atms": 80, 
	 "gaussian": { 
		 "optdone": 1, 
		 "sigma_profile": "yes", 
		 "theory": "DFT", 
		 "functional": "B3LYP", 
		 "basiset": "6-31G**", 
		 "properties": { 
			 "R2extent": 22852.9397, 
			 "electric_dipole_moment_norm": 4.45213312133, 
			 "electric_quadrupole_moment_norm": 23.9930454547, 
			 "total_energy": -1658.23960218, 
			 "HOMO_LUMO_gap": 0.21747, 
			 "cosmo_polarized_energy": -23.5, 
			 "cosmo_cavitation_energy": 71.32, 
			 "cosmo_dispersion_energy": -44.31, 
			 "cosmo_repulsion_energy": 3.25, 
			 "cosmo_total_nonelectrostatic_energy": 30.26, 
			 "SMD_solvation_energy": 14.56 
		},
		"coords": [
			{
				"x": 0.6172818106,
				"y": 0.9654124091,
				"z": -6.894618456,
				"element": "C" 
			},
			{
				"x": 0.6714687322,
				"y": -0.2437658644,
				"z": -6.1183012967,
				"element": "O" 
			},
			{
				"x": -0.1526480088,
				"y": -1.2358215575,
				"z": -6.5485607428,
				"element": "C" 
			},
			{
				"x": -0.8772946477,
				"y": -1.113514492,
				"z": -7.5117222958,
				"element": "O" 
			},
			{
				"x": -0.0560073301,
				"y": -2.4649328524,
				"z": -5.6705975889,
				"element": "C" 
			},
			{
				"x": -0.6690056784,
				"y": -2.2310311367,
				"z": -4.2726970073,
				"element": "C" 
			},
			{
				"x": -0.6143572734,
				"y": -3.4715174256,
				"z": -3.3527365269,
				"element": "C" 
			},
			{
				"x": -1.5091250634,
				"y": -4.6049368966,
				"z": -3.8909350525,
				"element": "C" 
			},
			{
				"x": -0.9715070493,
				"y": -3.203107316,
				"z": -1.861083511,
				"element": "C" 
			},
			{
				"x": -2.3071499422,
				"y": -2.4498537102,
				"z": -1.637172581,
				"element": "C" 
			},
			{
				"x": -1.9516504295,
				"y": -0.9657369754,
				"z": -1.3707932355,
				"element": "C" 
			},
			{
				"x": -0.412028025,
				"y": -0.8934508269,
				"z": -1.146053113,
				"element": "C" 
			},
			{
				"x": -0.0241552341,
				"y": 0.106171216,
				"z": -0.0275901325,
				"element": "C" 
			},
			{
				"x": 1.4056558355,
				"y": 0.6598635997,
				"z": -0.1241604916,
				"element": "C" 
			},
			{
				"x": 1.6209765649,
				"y": 1.7890162442,
				"z": 0.8828540966,
				"element": "C" 
			},
			{
				"x": 1.3913782316,
				"y": 1.3392835236,
				"z": 2.3403444112,
				"element": "C" 
			},
			{
				"x": 2.6183197549,
				"y": 0.5734733272,
				"z": 2.8837983662,
				"element": "C" 
			},
			{
				"x": 2.4518132856,
				"y": 0.1408344647,
				"z": 4.3360737511,
				"element": "C" 
			},
			{
				"x": 1.1913364908,
				"y": -0.7022682185,
				"z": 4.5172756526,
				"element": "C" 
			},
			{
				"x": -0.0642075547,
				"y": -0.0084886897,
				"z": 3.9618892936,
				"element": "C" 
			},
			{
				"x": 0.0199372331,
				"y": 0.6044343777,
				"z": 2.529358862,
				"element": "C" 
			},
			{
				"x": -1.1135727936,
				"y": 1.6619872732,
				"z": 2.4668628537,
				"element": "C" 
			},
			{
				"x": -0.2811740936,
				"y": -0.4516299142,
				"z": 1.3983496889,
				"element": "C" 
			},
			{
				"x": 0.3861670299,
				"y": -1.8416554653,
				"z": 1.5413700773,
				"element": "C" 
			},
			{
				"x": -0.09715688,
				"y": -2.8202818862,
				"z": 0.476516517,
				"element": "C" 
			},
			{
				"x": -0.5485361599,
				"y": -3.9039434142,
				"z": 0.8020425265,
				"element": "O" 
			},
			{
				"x": 0.0434004465,
				"y": -2.38250173,
				"z": -0.9989284286,
				"element": "C" 
			},
			{
				"x": 1.5201474799,
				"y": -2.6283242866,
				"z": -1.3856349336,
				"element": "C" 
			},
			{
				"x": 2.3629029624,
				"y": 1.364860427,
				"z": 5.1260687993,
				"element": "O" 
			},
			{
				"x": 2.7435215853,
				"y": 1.2884860635,
				"z": 6.4235086092,
				"element": "C" 
			},
			{
				"x": 2.6130568535,
				"y": 2.6343432996,
				"z": 7.0987633615,
				"element": "C" 
			},
			{
				"x": 3.1370276334,
				"y": 0.2738606441,
				"z": 6.9569895777,
				"element": "O" 
			},
			{
				"x": 1.5864487075,
				"y": 1.1934981595,
				"z": -1.4643652596,
				"element": "O" 
			},
			{
				"x": 2.7937885048,
				"y": 1.0102413332,
				"z": -2.0537704811,
				"element": "C" 
			},
			{
				"x": 2.7863787163,
				"y": 1.5523907013,
				"z": -3.463375708,
				"element": "C" 
			},
			{
				"x": 3.7338401894,
				"y": 0.4592056937,
				"z": -1.5222458053,
				"element": "O" 
			},
			{
				"x": -0.389015869,
				"y": 1.3911727542,
				"z": -6.8758809206,
				"element": "H" 
			},
			{
				"x": 0.8949156657,
				"y": 0.76824017,
				"z": -7.9328644272,
				"element": "H" 
			},
			{
				"x": 1.3299493911,
				"y": 1.6480367583,
				"z": -6.4318794673,
				"element": "H" 
			},
			{
				"x": 0.99981383,
				"y": -2.7409855327,
				"z": -5.563125484,
				"element": "H" 
			},
			{
				"x": -0.5692281505,
				"y": -3.2664220344,
				"z": -6.2042502095,
				"element": "H" 
			},
			{
				"x": -0.1323182307,
				"y": -1.395666666,
				"z": -3.8170732763,
				"element": "H" 
			},
			{
				"x": -1.7107285501,
				"y": -1.9067456333,
				"z": -4.3922455481,
				"element": "H" 
			},
			{
				"x": 0.4169512114,
				"y": -3.8487393459,
				"z": -3.3747780937,
				"element": "H" 
			},
			{
				"x": -1.2298424141,
				"y": -4.9006854695,
				"z": -4.906441281,
				"element": "H" 
			},
			{
				"x": -1.4303778451,
				"y": -5.4946860919,
				"z": -3.2581874794,
				"element": "H" 
			},
			{
				"x": -2.5636653642,
				"y": -4.3072656616,
				"z": -3.914202393,
				"element": "H" 
			},
			{
				"x": -1.0359073909,
				"y": -4.1914020351,
				"z": -1.3965210167,
				"element": "H" 
			},
			{
				"x": -2.8081271587,
				"y": -2.8748370413,
				"z": -0.7617813118,
				"element": "H" 
			},
			{
				"x": -3.0013388594,
				"y": -2.5646874089,
				"z": -2.4747598858,
				"element": "H" 
			},
			{
				"x": -2.4981516105,
				"y": -0.5871268111,
				"z": -0.4998331112,
				"element": "H" 
			},
			{
				"x": -2.2356880165,
				"y": -0.3222845178,
				"z": -2.2099747569,
				"element": "H" 
			},
			{
				"x": 0.0430002388,
				"y": -0.5072301668,
				"z": -2.0612335312,
				"element": "H" 
			},
			{
				"x": -0.680609459,
				"y": 0.9725284384,
				"z": -0.1786581443,
				"element": "H" 
			},
			{
				"x": 2.1589931922,
				"y": -0.116337174,
				"z": 0.0164415388,
				"element": "H" 
			},
			{
				"x": 2.6393155436,
				"y": 2.1790688221,
				"z": 0.773878578,
				"element": "H" 
			},
			{
				"x": 0.9396476757,
				"y": 2.6075047903,
				"z": 0.622864748,
				"element": "H" 
			},
			{
				"x": 1.3318262565,
				"y": 2.249471391,
				"z": 2.9496601439,
				"element": "H" 
			},
			{
				"x": 2.8337596766,
				"y": -0.3235586494,
				"z": 2.2926060267,
				"element": "H" 
			},
			{
				"x": 3.5016802924,
				"y": 1.2165748594,
				"z": 2.7967827895,
				"element": "H" 
			},
			{
				"x": 3.3261579558,
				"y": -0.4121818516,
				"z": 4.6882686481,
				"element": "H" 
			},
			{
				"x": 1.3744621252,
				"y": -1.6637869188,
				"z": 4.0284824146,
				"element": "H" 
			},
			{
				"x": 1.053487453,
				"y": -0.9223226096,
				"z": 5.5805806344,
				"element": "H" 
			},
			{
				"x": -0.9187906164,
				"y": -0.6956001272,
				"z": 4.0096444866,
				"element": "H" 
			},
			{
				"x": -0.3053601677,
				"y": 0.8121998105,
				"z": 4.647644529,
				"element": "H" 
			},
			{
				"x": -0.9415707349,
				"y": 2.4515970096,
				"z": 3.2054621834,
				"element": "H" 
			},
			{
				"x": -1.2023012208,
				"y": 2.1424277085,
				"z": 1.4894471532,
				"element": "H" 
			},
			{
				"x": -2.0809549893,
				"y": 1.2004694726,
				"z": 2.6953859295,
				"element": "H" 
			},
			{
				"x": -1.3607612813,
				"y": -0.6446279932,
				"z": 1.4733335308,
				"element": "H" 
			},
			{
				"x": 1.4771036862,
				"y": -1.7672311617,
				"z": 1.4684901927,
				"element": "H" 
			},
			{
				"x": 0.1489641375,
				"y": -2.3041027439,
				"z": 2.4995689342,
				"element": "H" 
			},
			{
				"x": 1.7292109129,
				"y": -2.2480470423,
				"z": -2.3893979286,
				"element": "H" 
			},
			{
				"x": 1.7473246169,
				"y": -3.6993611426,
				"z": -1.3728356359,
				"element": "H" 
			},
			{
				"x": 2.2230771447,
				"y": -2.1365166525,
				"z": -0.7092542131,
				"element": "H" 
			},
			{
				"x": 1.5758255091,
				"y": 2.9793589404,
				"z": 7.0520387199,
				"element": "H" 
			},
			{
				"x": 2.9296988782,
				"y": 2.5505487609,
				"z": 8.1378422151,
				"element": "H" 
			},
			{
				"x": 3.2266320793,
				"y": 3.3764691112,
				"z": 6.579576708,
				"element": "H" 
			},
			{
				"x": 2.3010339048,
				"y": 2.5308791848,
				"z": -3.4981086983,
				"element": "H" 
			},
			{
				"x": 3.8104413388,
				"y": 1.6196906105,
				"z": -3.8303506105,
				"element": "H" 
			},
			{
				"x": 2.2163933281,
				"y": 0.8736997914,
				"z": -4.1079864771,
				"element": "H" 
			}
		],
		 "valence_orbital": [ 
			{
				"type": "occ",
				"energy": -0.28673,
				"method": "rhf"
			},
			{
				"type": "occ",
				"energy": -0.27466,
				"method": "rhf"
			},
			{
				"type": "occ",
				"energy": -0.27013,
				"method": "rhf"
			},
			{
				"type": "occ",
				"energy": -0.26937,
				"method": "rhf"
			},
			{
				"type": "occ",
				"energy": -0.23712,
				"method": "rhf"
			},
			{
				"type": "unocc",
				"energy": -0.01965,
				"method": "rhf"
			},
			{
				"type": "unocc",
				"energy": 0.00739,
				"method": "rhf"
			},
			{
				"type": "unocc",
				"energy": 0.00816,
				"method": "rhf"
			},
			{
				"type": "unocc",
				"energy": 0.01183,
				"method": "rhf"
			},
			{
				"type": "unocc",
				"energy": 0.05578,
				"method": "rhf"
			}
		],
		"cosmo_sigma_profile": { 
			"-0.025": 0.0,
			"-0.024": 0.0,
			"-0.023": 0.0,
			"-0.022": 0.0,
			"-0.021": 0.0,
			"-0.02": 0.0,
			"-0.019": 0.0,
			"-0.018": 0.0,
			"-0.017": 0.0,
			"-0.016": 0.0,
			"-0.015": 0.0,
			"-0.014": 0.0,
			"-0.013": 0.00993009393725,
			"-0.012": 0.0341769351108,
			"-0.011": 0.109138594709,
			"-0.01": 0.517154714435,
			"-0.009": 0.688069513808,
			"-0.008": 0.915971901122,
			"-0.007": 2.26613019639,
			"-0.006": 10.4497375338,
			"-0.005": 27.9414461353,
			"-0.004": 49.7716638255,
			"-0.003": 80.7716176463,
			"-0.002": 88.911497874,
			"-0.001": 68.8922700135,
			"0.0": 49.3290465491,
			"0.001": 40.1629420348,
			"0.002": 24.8745045424,
			"0.003": 13.6567439287,
			"0.004": 9.73805452203,
			"0.005": 10.4289540772,
			"0.006": 9.5715593027,
			"0.007": 7.19608845747,
			"0.008": 6.69899954317,
			"0.009": 6.89772842487,
			"0.01": 6.59962400462,
			"0.011": 10.3140372657,
			"0.012": 17.2992216615,
			"0.013": 7.20532429692,
			"0.014": 0.367802884934,
			"0.015": 0.0,
			"0.016": 0.0,
			"0.017": 0.0,
			"0.018": 0.0,
			"0.019": 0.0,
			"0.02": 0.0,
			"0.021": 0.0,
			"0.022": 0.0,
			"0.023": 0.0,
			"0.024": 0.0,
			"0.025": 0.0
		}
	}
}
