{
	 "smiles": "OC(=O)C1=NN(CC2=CC=C(Cl)C=C2Cl)C2=C1C=CC=C2", 
	 "Tm": 480.15, 
	 "num_atms": 31, 
	 "gaussian": { 
		 "optdone": 1, 
		 "sigma_profile": "yes", 
		 "theory": "DFT", 
		 "functional": "B3LYP", 
		 "basiset": "6-31G**", 
		 "properties": { 
			 "R2extent": 9036.3807, 
			 "electric_dipole_moment_norm": 1.45261048117, 
			 "electric_quadrupole_moment_norm": 12.951032099, 
			 "total_energy": -1757.96652262, 
			 "HOMO_LUMO_gap": 0.17483, 
			 "cosmo_polarized_energy": -13.81, 
			 "cosmo_cavitation_energy": 40.13, 
			 "cosmo_dispersion_energy": -28.23, 
			 "cosmo_repulsion_energy": 2.15, 
			 "cosmo_total_nonelectrostatic_energy": 14.06, 
			 "SMD_solvation_energy": 6.25 
		},
		"coords": [
			{
				"x": 3.4216439477,
				"y": 3.0304157837,
				"z": -1.0503796596,
				"element": "O" 
			},
			{
				"x": 2.5451808519,
				"y": 3.0801942031,
				"z": -0.0228177283,
				"element": "C" 
			},
			{
				"x": 2.6343885019,
				"y": 3.8930361738,
				"z": 0.8801096978,
				"element": "O" 
			},
			{
				"x": 1.4843412551,
				"y": 2.0648020876,
				"z": -0.0968254001,
				"element": "C" 
			},
			{
				"x": 1.3956423079,
				"y": 1.1908914646,
				"z": -1.0972681436,
				"element": "N" 
			},
			{
				"x": 0.3105765237,
				"y": 0.4321886505,
				"z": -0.8468144962,
				"element": "N" 
			},
			{
				"x": -0.0195281837,
				"y": -0.6696268087,
				"z": -1.739622943,
				"element": "C" 
			},
			{
				"x": 0.5760766123,
				"y": -1.9970023844,
				"z": -1.2988466084,
				"element": "C" 
			},
			{
				"x": 1.9579855861,
				"y": -2.086044128,
				"z": -1.073338393,
				"element": "C" 
			},
			{
				"x": 2.5661193625,
				"y": -3.2735379789,
				"z": -0.6806185114,
				"element": "C" 
			},
			{
				"x": 1.7751739772,
				"y": -4.4103061656,
				"z": -0.5104159594,
				"element": "C" 
			},
			{
				"x": 2.5171532345,
				"y": -5.9205510876,
				"z": -0.0181305325,
				"element": "Cl" 
			},
			{
				"x": 0.4009286765,
				"y": -4.369285999,
				"z": -0.7256342951,
				"element": "C" 
			},
			{
				"x": -0.1803259359,
				"y": -3.1613525176,
				"z": -1.1164275423,
				"element": "C" 
			},
			{
				"x": -1.925353854,
				"y": -3.1636303317,
				"z": -1.3764370842,
				"element": "Cl" 
			},
			{
				"x": -0.3138993147,
				"y": 0.7898013535,
				"z": 0.3295348819,
				"element": "C" 
			},
			{
				"x": 0.4277767492,
				"y": 1.8749930602,
				"z": 0.8518777027,
				"element": "C" 
			},
			{
				"x": 0.02788952,
				"y": 2.4841208029,
				"z": 2.0551916585,
				"element": "C" 
			},
			{
				"x": -1.0948562594,
				"y": 1.9824989178,
				"z": 2.6935950339,
				"element": "C" 
			},
			{
				"x": -1.8224856467,
				"y": 0.8920127591,
				"z": 2.1591237498,
				"element": "C" 
			},
			{
				"x": -1.4503696348,
				"y": 0.2757778653,
				"z": 0.9740932873,
				"element": "C" 
			},
			{
				"x": 4.0579878052,
				"y": 3.7449364832,
				"z": -0.8811256142,
				"element": "H" 
			},
			{
				"x": 0.3700734163,
				"y": -0.3891893822,
				"z": -2.7215515306,
				"element": "H" 
			},
			{
				"x": -1.1052606401,
				"y": -0.7358753203,
				"z": -1.8162488785,
				"element": "H" 
			},
			{
				"x": 2.560477801,
				"y": -1.1921098934,
				"z": -1.2062386657,
				"element": "H" 
			},
			{
				"x": 3.6354992683,
				"y": -3.3209685756,
				"z": -0.5105974387,
				"element": "H" 
			},
			{
				"x": -0.2091567704,
				"y": -5.2536575715,
				"z": -0.5909419643,
				"element": "H" 
			},
			{
				"x": 0.594438503,
				"y": 3.3175295054,
				"z": 2.4536036067,
				"element": "H" 
			},
			{
				"x": -1.4279831425,
				"y": 2.4302653029,
				"z": 3.6249574793,
				"element": "H" 
			},
			{
				"x": -2.6945933715,
				"y": 0.5270951942,
				"z": 2.6936360433,
				"element": "H" 
			},
			{
				"x": -2.0073411467,
				"y": -0.5646214634,
				"z": 0.5731582479,
				"element": "H" 
			}
		],
		 "valence_orbital": [ 
			{
				"type": "occ",
				"energy": -0.27752,
				"method": "rhf"
			},
			{
				"type": "occ",
				"energy": -0.27267,
				"method": "rhf"
			},
			{
				"type": "occ",
				"energy": -0.26043,
				"method": "rhf"
			},
			{
				"type": "occ",
				"energy": -0.25218,
				"method": "rhf"
			},
			{
				"type": "occ",
				"energy": -0.22999,
				"method": "rhf"
			},
			{
				"type": "unocc",
				"energy": -0.05516,
				"method": "rhf"
			},
			{
				"type": "unocc",
				"energy": -0.03745,
				"method": "rhf"
			},
			{
				"type": "unocc",
				"energy": -0.03283,
				"method": "rhf"
			},
			{
				"type": "unocc",
				"energy": -0.00669,
				"method": "rhf"
			},
			{
				"type": "unocc",
				"energy": -0.0041,
				"method": "rhf"
			}
		],
		"cosmo_sigma_profile": { 
			"-0.025": 0.0,
			"-0.024": 0.0,
			"-0.023": 0.0,
			"-0.022": 0.0,
			"-0.021": 0.0,
			"-0.02": 0.0,
			"-0.019": 0.0229999014651,
			"-0.018": 0.941565950995,
			"-0.017": 0.785785541231,
			"-0.016": 0.719042608063,
			"-0.015": 0.978365772457,
			"-0.014": 1.33798760548,
			"-0.013": 0.015102380309,
			"-0.012": 0.0717552924307,
			"-0.011": 1.12675077568,
			"-0.01": 0.84701740281,
			"-0.009": 1.04163818655,
			"-0.008": 4.93004310804,
			"-0.007": 9.66224592822,
			"-0.006": 14.9215624473,
			"-0.005": 17.0424962805,
			"-0.004": 18.990625376,
			"-0.003": 19.196467654,
			"-0.002": 21.3932945468,
			"-0.001": 24.8204727524,
			"0.0": 32.1441331019,
			"0.001": 36.1901609722,
			"0.002": 31.0384640207,
			"0.003": 26.0199926863,
			"0.004": 27.818668303,
			"0.005": 7.95570588196,
			"0.006": 3.14906313057,
			"0.007": 3.94753870975,
			"0.008": 2.38098276752,
			"0.009": 3.77229077655,
			"0.01": 3.14598940294,
			"0.011": 5.48657205419,
			"0.012": 3.96569292811,
			"0.013": 1.33316995439,
			"0.014": 0.374723835249,
			"0.015": 0.0,
			"0.016": 0.0,
			"0.017": 0.0,
			"0.018": 0.0,
			"0.019": 0.0,
			"0.02": 0.0,
			"0.021": 0.0,
			"0.022": 0.0,
			"0.023": 0.0,
			"0.024": 0.0,
			"0.025": 0.0
		}
	}
}
