{
	 "smiles": "CCOC1=C(SC=C1)C(=O)OC", 
	 "Tm": 346.15, 
	 "num_atms": 22, 
	 "gaussian": { 
		 "optdone": 1, 
		 "sigma_profile": "yes", 
		 "theory": "DFT", 
		 "functional": "B3LYP", 
		 "basiset": "6-31G**", 
		 "properties": { 
			 "R2extent": 3049.9692, 
			 "electric_dipole_moment_norm": 1.24058844505, 
			 "electric_quadrupole_moment_norm": 7.91736638662, 
			 "total_energy": -934.720114361, 
			 "HOMO_LUMO_gap": 0.18111, 
			 "cosmo_polarized_energy": -7.82, 
			 "cosmo_cavitation_energy": 27.46, 
			 "cosmo_dispersion_energy": -20.62, 
			 "cosmo_repulsion_energy": 1.63, 
			 "cosmo_total_nonelectrostatic_energy": 8.47, 
			 "SMD_solvation_energy": 6.69 
		},
		"coords": [
			{
				"x": -0.3843098076,
				"y": 3.0645332646,
				"z": 1.6368775014,
				"element": "C" 
			},
			{
				"x": -0.151323893,
				"y": 1.791311184,
				"z": 0.8442908511,
				"element": "C" 
			},
			{
				"x": -0.249699264,
				"y": 2.1413522355,
				"z": -0.555036812,
				"element": "O" 
			},
			{
				"x": -0.5582963436,
				"y": 1.2141830228,
				"z": -1.4827811286,
				"element": "C" 
			},
			{
				"x": -0.1880811235,
				"y": -0.1273805238,
				"z": -1.5772642729,
				"element": "C" 
			},
			{
				"x": -0.9206786094,
				"y": -0.865779915,
				"z": -2.9968348182,
				"element": "S" 
			},
			{
				"x": -1.6649121494,
				"y": 0.6241466885,
				"z": -3.446891984,
				"element": "C" 
			},
			{
				"x": -1.3960315757,
				"y": 1.6305249637,
				"z": -2.5663131301,
				"element": "C" 
			},
			{
				"x": 0.7826100727,
				"y": -0.8982581226,
				"z": -0.8004651548,
				"element": "C" 
			},
			{
				"x": 1.5440654832,
				"y": -0.4688251927,
				"z": 0.0495280581,
				"element": "O" 
			},
			{
				"x": 0.7680626059,
				"y": -2.2068902766,
				"z": -1.1691972307,
				"element": "O" 
			},
			{
				"x": 1.7402513858,
				"y": -3.0386365892,
				"z": -0.5217134178,
				"element": "C" 
			},
			{
				"x": -1.3788630972,
				"y": 3.4766362291,
				"z": 1.4427891632,
				"element": "H" 
			},
			{
				"x": 0.3601790306,
				"y": 3.8222625572,
				"z": 1.3755751649,
				"element": "H" 
			},
			{
				"x": -0.2971068011,
				"y": 2.8546861016,
				"z": 2.7077960915,
				"element": "H" 
			},
			{
				"x": 0.8281039022,
				"y": 1.3547058208,
				"z": 1.0402773435,
				"element": "H" 
			},
			{
				"x": -0.912144049,
				"y": 1.033402493,
				"z": 1.0702105536,
				"element": "H" 
			},
			{
				"x": -2.2843032599,
				"y": 0.6721263197,
				"z": -4.3325032323,
				"element": "H" 
			},
			{
				"x": -1.7747698488,
				"y": 2.642353343,
				"z": -2.6407065996,
				"element": "H" 
			},
			{
				"x": 1.5999560776,
				"y": -4.0344562218,
				"z": -0.942120973,
				"element": "H" 
			},
			{
				"x": 1.577933854,
				"y": -3.052955083,
				"z": 0.5590931499,
				"element": "H" 
			},
			{
				"x": 2.7527574103,
				"y": -2.6776422989,
				"z": -0.7202091232,
				"element": "H" 
			}
		],
		 "valence_orbital": [ 
			{
				"type": "occ",
				"energy": -0.30659,
				"method": "rhf"
			},
			{
				"type": "occ",
				"energy": -0.29633,
				"method": "rhf"
			},
			{
				"type": "occ",
				"energy": -0.27166,
				"method": "rhf"
			},
			{
				"type": "occ",
				"energy": -0.24766,
				"method": "rhf"
			},
			{
				"type": "occ",
				"energy": -0.22579,
				"method": "rhf"
			},
			{
				"type": "unocc",
				"energy": -0.04468,
				"method": "rhf"
			},
			{
				"type": "unocc",
				"energy": 0.02608,
				"method": "rhf"
			},
			{
				"type": "unocc",
				"energy": 0.03666,
				"method": "rhf"
			},
			{
				"type": "unocc",
				"energy": 0.08935,
				"method": "rhf"
			},
			{
				"type": "unocc",
				"energy": 0.09495,
				"method": "rhf"
			}
		],
		"cosmo_sigma_profile": { 
			"-0.025": 0.0,
			"-0.024": 0.0,
			"-0.023": 0.0,
			"-0.022": 0.0,
			"-0.021": 0.0,
			"-0.02": 0.0,
			"-0.019": 0.0,
			"-0.018": 0.0,
			"-0.017": 0.0,
			"-0.016": 0.0,
			"-0.015": 0.0,
			"-0.014": 0.0,
			"-0.013": 0.0,
			"-0.012": 0.0,
			"-0.011": 0.0,
			"-0.01": 0.277574255078,
			"-0.009": 2.22243909601,
			"-0.008": 2.44718553932,
			"-0.007": 4.1712263605,
			"-0.006": 7.44568388048,
			"-0.005": 12.4954636021,
			"-0.004": 18.300719114,
			"-0.003": 23.8862442755,
			"-0.002": 20.032725215,
			"-0.001": 17.0075097128,
			"0.0": 17.5129081738,
			"0.001": 15.5251631313,
			"0.002": 18.7955627474,
			"0.003": 16.5601901671,
			"0.004": 13.6910505258,
			"0.005": 6.62618888426,
			"0.006": 6.58804992781,
			"0.007": 3.6480582802,
			"0.008": 3.72531847043,
			"0.009": 2.50672521404,
			"0.01": 2.22215086556,
			"0.011": 2.34078308356,
			"0.012": 2.08942125497,
			"0.013": 0.131185092148,
			"0.014": 0.0,
			"0.015": 0.0,
			"0.016": 0.0,
			"0.017": 0.0,
			"0.018": 0.0,
			"0.019": 0.0,
			"0.02": 0.0,
			"0.021": 0.0,
			"0.022": 0.0,
			"0.023": 0.0,
			"0.024": 0.0,
			"0.025": 0.0
		}
	}
}
