{
	 "smiles": "BrCCN1C(=O)C2=CC=CC=C2C1=O", 
	 "Tm": 355.35, 
	 "num_atms": 22, 
	 "gaussian": { 
		 "optdone": 1, 
		 "sigma_profile": "yes", 
		 "theory": "DFT", 
		 "functional": "B3LYP", 
		 "basiset": "6-31G**", 
		 "properties": { 
			 "R2extent": 5884.5743, 
			 "electric_dipole_moment_norm": 2.91115123104, 
			 "electric_quadrupole_moment_norm": 17.416583595, 
			 "total_energy": -3162.52557536, 
			 "HOMO_LUMO_gap": 0.18291, 
			 "cosmo_polarized_energy": -12.14, 
			 "cosmo_cavitation_energy": 29.03, 
			 "cosmo_dispersion_energy": -20.95, 
			 "cosmo_repulsion_energy": 1.64, 
			 "cosmo_total_nonelectrostatic_energy": 9.73, 
			 "SMD_solvation_energy": 4.92 
		},
		"coords": [
			{
				"x": -4.3259183055,
				"y": -2.4708304245,
				"z": 0.0416654503,
				"element": "Br" 
			},
			{
				"x": -3.157717089,
				"y": -2.4229677909,
				"z": 1.6336878338,
				"element": "C" 
			},
			{
				"x": -1.712328441,
				"y": -2.7797240775,
				"z": 1.3070680178,
				"element": "C" 
			},
			{
				"x": -1.0706271908,
				"y": -1.8534927009,
				"z": 0.3925388595,
				"element": "N" 
			},
			{
				"x": -0.5955699301,
				"y": -2.2186701081,
				"z": -0.8841349308,
				"element": "C" 
			},
			{
				"x": -0.6461978136,
				"y": -3.3338693458,
				"z": -1.3588305769,
				"element": "O" 
			},
			{
				"x": -0.0216154022,
				"y": -0.9693324621,
				"z": -1.4651668916,
				"element": "C" 
			},
			{
				"x": 0.5740311849,
				"y": -0.7498663427,
				"z": -2.6986114597,
				"element": "C" 
			},
			{
				"x": 1.0324654062,
				"y": 0.5460179265,
				"z": -2.9710837104,
				"element": "C" 
			},
			{
				"x": 0.8944263573,
				"y": 1.5751108334,
				"z": -2.0305503006,
				"element": "C" 
			},
			{
				"x": 0.2930096976,
				"y": 1.3424457622,
				"z": -0.786474265,
				"element": "C" 
			},
			{
				"x": -0.1589156402,
				"y": 0.0566802852,
				"z": -0.5272703546,
				"element": "C" 
			},
			{
				"x": -0.830567942,
				"y": -0.5019590601,
				"z": 0.682495121,
				"element": "C" 
			},
			{
				"x": -1.1251420172,
				"y": 0.0518972896,
				"z": 1.7251112618,
				"element": "O" 
			},
			{
				"x": -3.2384739643,
				"y": -1.4160363261,
				"z": 2.0376670462,
				"element": "H" 
			},
			{
				"x": -3.5761479714,
				"y": -3.1438545374,
				"z": 2.3357800455,
				"element": "H" 
			},
			{
				"x": -1.6418776848,
				"y": -3.767952823,
				"z": 0.8478344668,
				"element": "H" 
			},
			{
				"x": -1.1556867709,
				"y": -2.790323758,
				"z": 2.2532985895,
				"element": "H" 
			},
			{
				"x": 0.6760135735,
				"y": -1.5548029934,
				"z": -3.4191694259,
				"element": "H" 
			},
			{
				"x": 1.502924491,
				"y": 0.7582780647,
				"z": -3.9264616205,
				"element": "H" 
			},
			{
				"x": 1.2600705921,
				"y": 2.5687313785,
				"z": -2.2717269409,
				"element": "H" 
			},
			{
				"x": 0.1812448604,
				"y": 2.1317212104,
				"z": -0.0501662151,
				"element": "H" 
			}
		],
		 "valence_orbital": [ 
			{
				"type": "occ",
				"energy": -0.28014,
				"method": "rhf"
			},
			{
				"type": "occ",
				"energy": -0.27595,
				"method": "rhf"
			},
			{
				"type": "occ",
				"energy": -0.27361,
				"method": "rhf"
			},
			{
				"type": "occ",
				"energy": -0.27176,
				"method": "rhf"
			},
			{
				"type": "occ",
				"energy": -0.26747,
				"method": "rhf"
			},
			{
				"type": "unocc",
				"energy": -0.08456,
				"method": "rhf"
			},
			{
				"type": "unocc",
				"energy": -0.0435,
				"method": "rhf"
			},
			{
				"type": "unocc",
				"energy": 0.00255,
				"method": "rhf"
			},
			{
				"type": "unocc",
				"energy": 0.02568,
				"method": "rhf"
			},
			{
				"type": "unocc",
				"energy": 0.06722,
				"method": "rhf"
			}
		],
		"cosmo_sigma_profile": { 
			"-0.025": 0.0,
			"-0.024": 0.0,
			"-0.023": 0.0,
			"-0.022": 0.0,
			"-0.021": 0.0,
			"-0.02": 0.0,
			"-0.019": 0.0,
			"-0.018": 0.0,
			"-0.017": 0.0,
			"-0.016": 0.0,
			"-0.015": 0.0,
			"-0.014": 0.0,
			"-0.013": 0.0,
			"-0.012": 0.0,
			"-0.011": 0.0,
			"-0.01": 0.0,
			"-0.009": 0.0980525506003,
			"-0.008": 5.69847584964,
			"-0.007": 15.388152097,
			"-0.006": 17.4416691932,
			"-0.005": 17.1570918389,
			"-0.004": 15.9348575345,
			"-0.003": 13.6020636495,
			"-0.002": 14.8964070718,
			"-0.001": 16.4533720897,
			"0.0": 16.4846242556,
			"0.001": 16.9353574923,
			"0.002": 19.0442514347,
			"0.003": 10.3760112237,
			"0.004": 9.21896183311,
			"0.005": 9.72949258884,
			"0.006": 11.2923390704,
			"0.007": 3.1640477318,
			"0.008": 3.65286131095,
			"0.009": 3.06753128755,
			"0.01": 5.59730197687,
			"0.011": 8.91764767462,
			"0.012": 1.94069004468,
			"0.013": 0.0,
			"0.014": 0.0,
			"0.015": 0.0,
			"0.016": 0.0,
			"0.017": 0.0,
			"0.018": 0.0,
			"0.019": 0.0,
			"0.02": 0.0,
			"0.021": 0.0,
			"0.022": 0.0,
			"0.023": 0.0,
			"0.024": 0.0,
			"0.025": 0.0
		}
	}
}
