{
	 "smiles": "CC(C)(C)C1=CC=C(C=C)C=C1", 
	 "Tm": 235.15, 
	 "num_atms": 28, 
	 "gaussian": { 
		 "optdone": 1, 
		 "sigma_profile": "yes", 
		 "theory": "DFT", 
		 "functional": "B3LYP", 
		 "basiset": "6-31G**", 
		 "properties": { 
			 "R2extent": 2921.2834, 
			 "electric_dipole_moment_norm": 0.631857618455, 
			 "electric_quadrupole_moment_norm": 6.5764995826, 
			 "total_energy": -466.917583715, 
			 "HOMO_LUMO_gap": 0.18742, 
			 "cosmo_polarized_energy": -4.21, 
			 "cosmo_cavitation_energy": 29.55, 
			 "cosmo_dispersion_energy": -20.89, 
			 "cosmo_repulsion_energy": 1.63, 
			 "cosmo_total_nonelectrostatic_energy": 10.29, 
			 "SMD_solvation_energy": 5.81 
		},
		"coords": [
			{
				"x": 0.8788096317,
				"y": 0.789159151,
				"z": 2.6447055505,
				"element": "C" 
			},
			{
				"x": 1.1003696871,
				"y": -0.5706505403,
				"z": 1.9397339289,
				"element": "C" 
			},
			{
				"x": 2.5890225932,
				"y": -0.6764816153,
				"z": 1.5581318558,
				"element": "C" 
			},
			{
				"x": 0.7725814396,
				"y": -1.7173572295,
				"z": 2.9259863837,
				"element": "C" 
			},
			{
				"x": 0.1749305945,
				"y": -0.6690673375,
				"z": 0.7145738705,
				"element": "C" 
			},
			{
				"x": -1.2218143212,
				"y": -0.5911870423,
				"z": 0.8784668908,
				"element": "C" 
			},
			{
				"x": -2.0942958839,
				"y": -0.6754084647,
				"z": -0.1981508563,
				"element": "C" 
			},
			{
				"x": -1.6143554255,
				"y": -0.8437502734,
				"z": -1.5103891903,
				"element": "C" 
			},
			{
				"x": -2.4884899033,
				"y": -0.9397129401,
				"z": -2.6895429906,
				"element": "C" 
			},
			{
				"x": -3.8261539601,
				"y": -0.8877531869,
				"z": -2.7219259386,
				"element": "C" 
			},
			{
				"x": -0.2247008187,
				"y": -0.9214897165,
				"z": -1.6770160119,
				"element": "C" 
			},
			{
				"x": 0.6492383684,
				"y": -0.8363688851,
				"z": -0.5921181758,
				"element": "C" 
			},
			{
				"x": -0.1552299202,
				"y": 0.9102523542,
				"z": 2.9808467451,
				"element": "H" 
			},
			{
				"x": 1.52692493,
				"y": 0.8726028197,
				"z": 3.5245708061,
				"element": "H" 
			},
			{
				"x": 1.1104551211,
				"y": 1.6212373317,
				"z": 1.9717374068,
				"element": "H" 
			},
			{
				"x": 3.2069053001,
				"y": -0.6017160534,
				"z": 2.4588884914,
				"element": "H" 
			},
			{
				"x": 2.8944496036,
				"y": 0.1281714598,
				"z": 0.881189348,
				"element": "H" 
			},
			{
				"x": 2.8198248878,
				"y": -1.633450039,
				"z": 1.078615379,
				"element": "H" 
			},
			{
				"x": 1.418828421,
				"y": -1.6573282585,
				"z": 3.8091415429,
				"element": "H" 
			},
			{
				"x": -0.265120588,
				"y": -1.6747899156,
				"z": 3.2698447646,
				"element": "H" 
			},
			{
				"x": 0.9285917867,
				"y": -2.6941002009,
				"z": 2.4563736528,
				"element": "H" 
			},
			{
				"x": -1.6399495643,
				"y": -0.461390982,
				"z": 1.8726303448,
				"element": "H" 
			},
			{
				"x": -3.1629394233,
				"y": -0.609453401,
				"z": -0.0164262936,
				"element": "H" 
			},
			{
				"x": -1.9588191194,
				"y": -1.0677254986,
				"z": -3.6335092643,
				"element": "H" 
			},
			{
				"x": -4.364203129,
				"y": -0.9707219011,
				"z": -3.6605196592,
				"element": "H" 
			},
			{
				"x": -4.432481594,
				"y": -0.7624465223,
				"z": -1.8295623805,
				"element": "H" 
			},
			{
				"x": 0.1822579135,
				"y": -1.0514888554,
				"z": -2.6771954843,
				"element": "H" 
			},
			{
				"x": 1.7142633724,
				"y": -0.9030842568,
				"z": -0.7829807162,
				"element": "H" 
			}
		],
		 "valence_orbital": [ 
			{
				"type": "occ",
				"energy": -0.31919,
				"method": "rhf"
			},
			{
				"type": "occ",
				"energy": -0.31288,
				"method": "rhf"
			},
			{
				"type": "occ",
				"energy": -0.28751,
				"method": "rhf"
			},
			{
				"type": "occ",
				"energy": -0.24605,
				"method": "rhf"
			},
			{
				"type": "occ",
				"energy": -0.21514,
				"method": "rhf"
			},
			{
				"type": "unocc",
				"energy": -0.02772,
				"method": "rhf"
			},
			{
				"type": "unocc",
				"energy": 0.00297,
				"method": "rhf"
			},
			{
				"type": "unocc",
				"energy": 0.06323,
				"method": "rhf"
			},
			{
				"type": "unocc",
				"energy": 0.08238,
				"method": "rhf"
			},
			{
				"type": "unocc",
				"energy": 0.10698,
				"method": "rhf"
			}
		],
		"cosmo_sigma_profile": { 
			"-0.025": 0.0,
			"-0.024": 0.0,
			"-0.023": 0.0,
			"-0.022": 0.0,
			"-0.021": 0.0,
			"-0.02": 0.0,
			"-0.019": 0.0,
			"-0.018": 0.0,
			"-0.017": 0.0,
			"-0.016": 0.0,
			"-0.015": 0.0,
			"-0.014": 0.0,
			"-0.013": 0.0,
			"-0.012": 0.0,
			"-0.011": 0.0,
			"-0.01": 0.0,
			"-0.009": 0.0,
			"-0.008": 0.0,
			"-0.007": 0.416527019527,
			"-0.006": 3.73207761546,
			"-0.005": 12.0953223163,
			"-0.004": 13.9967484951,
			"-0.003": 24.85084517,
			"-0.002": 30.2621882609,
			"-0.001": 25.9871498593,
			"0.0": 23.8511125225,
			"0.001": 28.621559779,
			"0.002": 17.6900726263,
			"0.003": 10.0858429621,
			"0.004": 12.9411790574,
			"0.005": 12.5338378093,
			"0.006": 12.1316286803,
			"0.007": 2.63775010143,
			"0.008": 0.0320016080528,
			"0.009": 0.0,
			"0.01": 0.0,
			"0.011": 0.0,
			"0.012": 0.0,
			"0.013": 0.0,
			"0.014": 0.0,
			"0.015": 0.0,
			"0.016": 0.0,
			"0.017": 0.0,
			"0.018": 0.0,
			"0.019": 0.0,
			"0.02": 0.0,
			"0.021": 0.0,
			"0.022": 0.0,
			"0.023": 0.0,
			"0.024": 0.0,
			"0.025": 0.0
		}
	}
}
