{
	 "smiles": "OCCNC(CO)(CO)CO", 
	 "Tm": 362.15, 
	 "num_atms": 26, 
	 "gaussian": { 
		 "optdone": 1, 
		 "sigma_profile": "yes", 
		 "theory": "DFT", 
		 "functional": "B3LYP", 
		 "basiset": "6-31G**", 
		 "properties": { 
			 "R2extent": 2953.9535, 
			 "electric_dipole_moment_norm": 4.56199544717, 
			 "electric_quadrupole_moment_norm": 10.9662398734, 
			 "total_energy": -593.284083197, 
			 "HOMO_LUMO_gap": 0.27528, 
			 "cosmo_polarized_energy": -14.11, 
			 "cosmo_cavitation_energy": 25.55, 
			 "cosmo_dispersion_energy": -19.41, 
			 "cosmo_repulsion_energy": 1.56, 
			 "cosmo_total_nonelectrostatic_energy": 7.7, 
			 "SMD_solvation_energy": 3.18 
		},
		"coords": [
			{
				"x": 0.2966206114,
				"y": -1.5514013345,
				"z": 2.3142503688,
				"element": "O" 
			},
			{
				"x": 1.123863873,
				"y": -0.4396970804,
				"z": 1.9855219713,
				"element": "C" 
			},
			{
				"x": 0.559657017,
				"y": 0.2736767834,
				"z": 0.7515214491,
				"element": "C" 
			},
			{
				"x": 0.744695889,
				"y": -0.3220169818,
				"z": -0.5672328639,
				"element": "N" 
			},
			{
				"x": 0.0356764125,
				"y": -1.5184665933,
				"z": -1.0458365247,
				"element": "C" 
			},
			{
				"x": 0.761788076,
				"y": -2.8243240185,
				"z": -0.6209304515,
				"element": "C" 
			},
			{
				"x": 0.1278816935,
				"y": -4.0198392289,
				"z": -1.087165122,
				"element": "O" 
			},
			{
				"x": 0.0449650775,
				"y": -1.3794276895,
				"z": -2.5927539264,
				"element": "C" 
			},
			{
				"x": -0.4988455962,
				"y": -2.5036474097,
				"z": -3.2868006522,
				"element": "O" 
			},
			{
				"x": -1.4236766846,
				"y": -1.5252134734,
				"z": -0.5345112091,
				"element": "C" 
			},
			{
				"x": -2.2061090893,
				"y": -2.5553353806,
				"z": -1.1487695705,
				"element": "O" 
			},
			{
				"x": 0.6848445738,
				"y": -2.0161850164,
				"z": 3.0657686366,
				"element": "H" 
			},
			{
				"x": 2.1611329384,
				"y": -0.754877043,
				"z": 1.7853870403,
				"element": "H" 
			},
			{
				"x": 1.1510709203,
				"y": 0.2818740514,
				"z": 2.8183205585,
				"element": "H" 
			},
			{
				"x": -0.5053910177,
				"y": 0.4584787527,
				"z": 0.9234566287,
				"element": "H" 
			},
			{
				"x": 1.0354275341,
				"y": 1.262759756,
				"z": 0.7152447214,
				"element": "H" 
			},
			{
				"x": 1.7324373985,
				"y": -0.3893124942,
				"z": -0.7944697538,
				"element": "H" 
			},
			{
				"x": 0.7805893514,
				"y": -2.881884145,
				"z": 0.469301891,
				"element": "H" 
			},
			{
				"x": 1.8040582827,
				"y": -2.7776359095,
				"z": -0.9817953832,
				"element": "H" 
			},
			{
				"x": 0.0667496791,
				"y": -3.9094227953,
				"z": -2.0548007463,
				"element": "H" 
			},
			{
				"x": 1.0810769873,
				"y": -1.276838745,
				"z": -2.937954196,
				"element": "H" 
			},
			{
				"x": -0.4817779795,
				"y": -0.4527781639,
				"z": -2.8604631913,
				"element": "H" 
			},
			{
				"x": -1.4056823301,
				"y": -2.5874717078,
				"z": -2.9363611003,
				"element": "H" 
			},
			{
				"x": -1.9040522111,
				"y": -0.574336593,
				"z": -0.7904677058,
				"element": "H" 
			},
			{
				"x": -1.4374495119,
				"y": -1.6380141453,
				"z": 0.555966678,
				"element": "H" 
			},
			{
				"x": -1.7339518951,
				"y": -3.3839633946,
				"z": -0.9418275467,
				"element": "H" 
			}
		],
		 "valence_orbital": [ 
			{
				"type": "occ",
				"energy": -0.28545,
				"method": "rhf"
			},
			{
				"type": "occ",
				"energy": -0.27831,
				"method": "rhf"
			},
			{
				"type": "occ",
				"energy": -0.264,
				"method": "rhf"
			},
			{
				"type": "occ",
				"energy": -0.25359,
				"method": "rhf"
			},
			{
				"type": "occ",
				"energy": -0.21778,
				"method": "rhf"
			},
			{
				"type": "unocc",
				"energy": 0.0575,
				"method": "rhf"
			},
			{
				"type": "unocc",
				"energy": 0.07294,
				"method": "rhf"
			},
			{
				"type": "unocc",
				"energy": 0.0856,
				"method": "rhf"
			},
			{
				"type": "unocc",
				"energy": 0.11291,
				"method": "rhf"
			},
			{
				"type": "unocc",
				"energy": 0.1207,
				"method": "rhf"
			}
		],
		"cosmo_sigma_profile": { 
			"-0.025": 0.0,
			"-0.024": 0.0,
			"-0.023": 0.0,
			"-0.022": 0.0,
			"-0.021": 0.0,
			"-0.02": 0.0,
			"-0.019": 0.0,
			"-0.018": 0.0,
			"-0.017": 0.0,
			"-0.016": 0.445123792666,
			"-0.015": 1.03751139396,
			"-0.014": 1.10071675329,
			"-0.013": 1.18814829616,
			"-0.012": 0.198771219603,
			"-0.011": 0.874047299979,
			"-0.01": 1.96558574693,
			"-0.009": 3.36565536592,
			"-0.008": 3.90639235266,
			"-0.007": 5.36993674811,
			"-0.006": 6.50328292647,
			"-0.005": 8.58111763188,
			"-0.004": 21.8005427166,
			"-0.003": 23.9018591583,
			"-0.002": 17.9620036611,
			"-0.001": 15.4818167549,
			"0.0": 11.7365042964,
			"0.001": 9.06100947571,
			"0.002": 7.12765143936,
			"0.003": 5.51077804107,
			"0.004": 4.61817683943,
			"0.005": 5.4531260038,
			"0.006": 5.47103289645,
			"0.007": 3.80060576056,
			"0.008": 4.33328347195,
			"0.009": 4.96146913049,
			"0.01": 3.9298799933,
			"0.011": 3.5298782785,
			"0.012": 4.17156914047,
			"0.013": 4.50030123654,
			"0.014": 3.70940579137,
			"0.015": 0.812634605255,
			"0.016": 0.0,
			"0.017": 0.0,
			"0.018": 0.0,
			"0.019": 0.0,
			"0.02": 0.0,
			"0.021": 0.0,
			"0.022": 0.0,
			"0.023": 0.0,
			"0.024": 0.0,
			"0.025": 0.0
		}
	}
}
