{
	 "smiles": "N(NC1=CC=C(C=C1)C1=CC=C(C=C1)N=NC1=CC=CC=C1)C1=CC=CC=C1", 
	 "Tm": 445.15, 
	 "num_atms": 48, 
	 "gaussian": { 
		 "optdone": 1, 
		 "sigma_profile": "yes", 
		 "theory": "DFT", 
		 "functional": "B3LYP", 
		 "basiset": "6-31G**", 
		 "properties": { 
			 "R2extent": 20589.1269, 
			 "electric_dipole_moment_norm": 4.1866699237, 
			 "electric_quadrupole_moment_norm": 27.9825690075, 
			 "total_energy": -1145.52863627, 
			 "HOMO_LUMO_gap": 0.12473, 
			 "cosmo_polarized_energy": -17.91, 
			 "cosmo_cavitation_energy": 53.01, 
			 "cosmo_dispersion_energy": -36.99, 
			 "cosmo_repulsion_energy": 2.77, 
			 "cosmo_total_nonelectrostatic_energy": 18.79, 
			 "SMD_solvation_energy": 6.64 
		},
		"coords": [
			{
				"x": -1.6860853546,
				"y": -1.6702372512,
				"z": -4.6993856523,
				"element": "N" 
			},
			{
				"x": -2.2857805108,
				"y": -0.7823019829,
				"z": -3.807562373,
				"element": "N" 
			},
			{
				"x": -1.6803519148,
				"y": -0.5191875867,
				"z": -2.568802114,
				"element": "C" 
			},
			{
				"x": -2.4708841959,
				"y": -0.0662115026,
				"z": -1.4984746424,
				"element": "C" 
			},
			{
				"x": -1.8928716325,
				"y": 0.236921037,
				"z": -0.2730970948,
				"element": "C" 
			},
			{
				"x": -0.5094125675,
				"y": 0.0961386988,
				"z": -0.0568714933,
				"element": "C" 
			},
			{
				"x": 0.266159376,
				"y": -0.3581970284,
				"z": -1.1360947373,
				"element": "C" 
			},
			{
				"x": -0.2980885148,
				"y": -0.6620171023,
				"z": -2.3721371573,
				"element": "C" 
			},
			{
				"x": 0.0997578137,
				"y": 0.4131695501,
				"z": 1.2551947162,
				"element": "C" 
			},
			{
				"x": 1.1916236134,
				"y": -0.3238420286,
				"z": 1.7508691533,
				"element": "C" 
			},
			{
				"x": 1.7780588661,
				"y": -0.0085853909,
				"z": 2.9708406391,
				"element": "C" 
			},
			{
				"x": 1.247071216,
				"y": 1.0133249873,
				"z": 3.7700686198,
				"element": "C" 
			},
			{
				"x": 0.1668064941,
				"y": 1.7679664561,
				"z": 3.2863107494,
				"element": "C" 
			},
			{
				"x": -0.3834050818,
				"y": 1.4749254821,
				"z": 2.0438982789,
				"element": "C" 
			},
			{
				"x": 1.9817419473,
				"y": 1.3395828072,
				"z": 4.9548675653,
				"element": "N" 
			},
			{
				"x": 1.4558464815,
				"y": 1.6522637461,
				"z": 6.0454071756,
				"element": "N" 
			},
			{
				"x": 0.0555687984,
				"y": 1.523166507,
				"z": 6.3291964745,
				"element": "C" 
			},
			{
				"x": -0.5460059784,
				"y": 2.5798626695,
				"z": 7.0263716337,
				"element": "C" 
			},
			{
				"x": -1.8719657403,
				"y": 2.4750714414,
				"z": 7.4415650795,
				"element": "C" 
			},
			{
				"x": -2.5871686027,
				"y": 1.2959720875,
				"z": 7.2160680791,
				"element": "C" 
			},
			{
				"x": -1.9694378862,
				"y": 0.2237368979,
				"z": 6.5665296383,
				"element": "C" 
			},
			{
				"x": -0.6559409741,
				"y": 0.3329465217,
				"z": 6.1142942192,
				"element": "C" 
			},
			{
				"x": -0.8562103516,
				"y": -1.1489875266,
				"z": -5.7138390169,
				"element": "C" 
			},
			{
				"x": -0.9393379327,
				"y": 0.1879037216,
				"z": -6.1262677353,
				"element": "C" 
			},
			{
				"x": -0.1402803068,
				"y": 0.6400082316,
				"z": -7.1759136693,
				"element": "C" 
			},
			{
				"x": 0.7462045899,
				"y": -0.2193392952,
				"z": -7.827676641,
				"element": "C" 
			},
			{
				"x": 0.8272455443,
				"y": -1.5506112794,
				"z": -7.4128361747,
				"element": "C" 
			},
			{
				"x": 0.0364392521,
				"y": -2.015933535,
				"z": -6.3647871568,
				"element": "C" 
			},
			{
				"x": -1.3135730274,
				"y": -2.5052420574,
				"z": -4.2536606914,
				"element": "H" 
			},
			{
				"x": -3.2874455556,
				"y": -0.92192161,
				"z": -3.7596501659,
				"element": "H" 
			},
			{
				"x": -3.5456148955,
				"y": 0.036821045,
				"z": -1.6299959059,
				"element": "H" 
			},
			{
				"x": -2.5323447317,
				"y": 0.5569821591,
				"z": 0.5442725446,
				"element": "H" 
			},
			{
				"x": 1.3421302138,
				"y": -0.4481099772,
				"z": -1.0195931782,
				"element": "H" 
			},
			{
				"x": 0.3372333865,
				"y": -0.9779329839,
				"z": -3.1920190367,
				"element": "H" 
			},
			{
				"x": 1.5816195964,
				"y": -1.1562860108,
				"z": 1.1732296059,
				"element": "H" 
			},
			{
				"x": 2.6409288204,
				"y": -0.5587230377,
				"z": 3.333629922,
				"element": "H" 
			},
			{
				"x": -0.219571873,
				"y": 2.5973268484,
				"z": 3.8681455722,
				"element": "H" 
			},
			{
				"x": -1.1891418675,
				"y": 2.0962069274,
				"z": 1.6647213782,
				"element": "H" 
			},
			{
				"x": 0.0378331934,
				"y": 3.4727626619,
				"z": 7.227751857,
				"element": "H" 
			},
			{
				"x": -2.3408300471,
				"y": 3.3063343255,
				"z": 7.9601742714,
				"element": "H" 
			},
			{
				"x": -3.613616733,
				"y": 1.2065903104,
				"z": 7.5590340899,
				"element": "H" 
			},
			{
				"x": -2.5140022906,
				"y": -0.7028535667,
				"z": 6.4086005066,
				"element": "H" 
			},
			{
				"x": -0.1765890598,
				"y": -0.4992762945,
				"z": 5.6102647726,
				"element": "H" 
			},
			{
				"x": -1.6239817827,
				"y": 0.8564846623,
				"z": -5.6174645121,
				"element": "H" 
			},
			{
				"x": -0.2127150355,
				"y": 1.6796701437,
				"z": -7.4836654342,
				"element": "H" 
			},
			{
				"x": 1.3650900234,
				"y": 0.1416166205,
				"z": -8.6431435382,
				"element": "H" 
			},
			{
				"x": 1.5131503528,
				"y": -2.2347527679,
				"z": -7.9048214945,
				"element": "H" 
			},
			{
				"x": 0.1022448653,
				"y": -3.0556067312,
				"z": -6.0512469268,
				"element": "H" 
			}
		],
		 "valence_orbital": [ 
			{
				"type": "occ",
				"energy": -0.25122,
				"method": "rhf"
			},
			{
				"type": "occ",
				"energy": -0.24626,
				"method": "rhf"
			},
			{
				"type": "occ",
				"energy": -0.21892,
				"method": "rhf"
			},
			{
				"type": "occ",
				"energy": -0.20782,
				"method": "rhf"
			},
			{
				"type": "occ",
				"energy": -0.19675,
				"method": "rhf"
			},
			{
				"type": "unocc",
				"energy": -0.07202,
				"method": "rhf"
			},
			{
				"type": "unocc",
				"energy": -0.01866,
				"method": "rhf"
			},
			{
				"type": "unocc",
				"energy": -0.01413,
				"method": "rhf"
			},
			{
				"type": "unocc",
				"energy": -0.00928,
				"method": "rhf"
			},
			{
				"type": "unocc",
				"energy": -0.00247,
				"method": "rhf"
			}
		],
		"cosmo_sigma_profile": { 
			"-0.025": 0.0,
			"-0.024": 0.0,
			"-0.023": 0.0,
			"-0.022": 0.0,
			"-0.021": 0.0,
			"-0.02": 0.0,
			"-0.019": 0.0,
			"-0.018": 0.0,
			"-0.017": 0.0,
			"-0.016": 0.0,
			"-0.015": 0.0,
			"-0.014": 0.113078300182,
			"-0.013": 1.37899273481,
			"-0.012": 2.47290905019,
			"-0.011": 2.42320913211,
			"-0.01": 2.61539351376,
			"-0.009": 2.78731478364,
			"-0.008": 3.3703460289,
			"-0.007": 5.02433772286,
			"-0.006": 23.8757256078,
			"-0.005": 36.2735703658,
			"-0.004": 36.9571017112,
			"-0.003": 31.7067069629,
			"-0.002": 29.0934504235,
			"-0.001": 23.1960380626,
			"0.0": 22.1576598869,
			"0.001": 25.6693311137,
			"0.002": 27.5483329121,
			"0.003": 36.6731695723,
			"0.004": 41.8275488322,
			"0.005": 28.9664117618,
			"0.006": 16.3068456311,
			"0.007": 8.68333350404,
			"0.008": 2.21014491823,
			"0.009": 2.54277649414,
			"0.01": 2.52863038429,
			"0.011": 2.71163185412,
			"0.012": 2.28353226457,
			"0.013": 2.36610411537,
			"0.014": 1.30683563986,
			"0.015": 0.0164265671085,
			"0.016": 0.0,
			"0.017": 0.0,
			"0.018": 0.0,
			"0.019": 0.0,
			"0.02": 0.0,
			"0.021": 0.0,
			"0.022": 0.0,
			"0.023": 0.0,
			"0.024": 0.0,
			"0.025": 0.0
		}
	}
}
