{
	 "smiles": "CC(C)(C#N)S(=O)(=O)C1=CC=C(Br)C=C1", 
	 "Tm": 392.15, 
	 "num_atms": 25, 
	 "gaussian": { 
		 "optdone": 1, 
		 "sigma_profile": "yes", 
		 "theory": "DFT", 
		 "functional": "B3LYP", 
		 "basiset": "6-31G**", 
		 "properties": { 
			 "R2extent": 6470.5589, 
			 "electric_dipole_moment_norm": 3.28429218097, 
			 "electric_quadrupole_moment_norm": 14.3552157291, 
			 "total_energy": -3561.79969974, 
			 "HOMO_LUMO_gap": 0.20849, 
			 "cosmo_polarized_energy": -14.52, 
			 "cosmo_cavitation_energy": 32.93, 
			 "cosmo_dispersion_energy": -23.21, 
			 "cosmo_repulsion_energy": 1.77, 
			 "cosmo_total_nonelectrostatic_energy": 11.49, 
			 "SMD_solvation_energy": 5.02 
		},
		"coords": [
			{
				"x": -2.3279664599,
				"y": 2.2737541824,
				"z": -1.5747943221,
				"element": "C" 
			},
			{
				"x": -1.3645003146,
				"y": 1.855448745,
				"z": -0.4459136619,
				"element": "C" 
			},
			{
				"x": -0.0843826569,
				"y": 2.7057097939,
				"z": -0.4286181624,
				"element": "C" 
			},
			{
				"x": -2.0387070552,
				"y": 1.8927579843,
				"z": 0.8530976151,
				"element": "C" 
			},
			{
				"x": -2.5617821866,
				"y": 1.9325072255,
				"z": 1.8893121328,
				"element": "N" 
			},
			{
				"x": -0.9178285133,
				"y": 0.0514487919,
				"z": -0.8151180412,
				"element": "S" 
			},
			{
				"x": -0.0592930759,
				"y": 0.1010148015,
				"z": -2.0107174355,
				"element": "O" 
			},
			{
				"x": -2.1769701075,
				"y": -0.7061190413,
				"z": -0.8040045645,
				"element": "O" 
			},
			{
				"x": 0.0863533382,
				"y": -0.5065250694,
				"z": 0.5654096734,
				"element": "C" 
			},
			{
				"x": -0.5390893652,
				"y": -0.9947018521,
				"z": 1.7160466956,
				"element": "C" 
			},
			{
				"x": 0.2454158992,
				"y": -1.4482137429,
				"z": 2.7745769068,
				"element": "C" 
			},
			{
				"x": 1.6362651662,
				"y": -1.4131966694,
				"z": 2.6581625363,
				"element": "C" 
			},
			{
				"x": 2.7069522205,
				"y": -2.0347017173,
				"z": 4.1057737383,
				"element": "Br" 
			},
			{
				"x": 2.2614907507,
				"y": -0.9405684759,
				"z": 1.5029947504,
				"element": "C" 
			},
			{
				"x": 1.4779482206,
				"y": -0.4829319324,
				"z": 0.4450689426,
				"element": "C" 
			},
			{
				"x": -3.2190100056,
				"y": 1.6441061598,
				"z": -1.5823626491,
				"element": "H" 
			},
			{
				"x": -2.626854587,
				"y": 3.3143250663,
				"z": -1.4225741593,
				"element": "H" 
			},
			{
				"x": -1.8184019422,
				"y": 2.1871202338,
				"z": -2.5373360468,
				"element": "H" 
			},
			{
				"x": -0.3496886789,
				"y": 3.7540401543,
				"z": -0.2655009906,
				"element": "H" 
			},
			{
				"x": 0.5952659763,
				"y": 2.3979747504,
				"z": 0.3693632744,
				"element": "H" 
			},
			{
				"x": 0.424354625,
				"y": 2.6134596618,
				"z": -1.3904321176,
				"element": "H" 
			},
			{
				"x": -1.6205865291,
				"y": -1.0282155505,
				"z": 1.7786258096,
				"element": "H" 
			},
			{
				"x": -0.217755173,
				"y": -1.8287470001,
				"z": 3.6772390335,
				"element": "H" 
			},
			{
				"x": 3.3427202541,
				"y": -0.937196337,
				"z": 1.4298060387,
				"element": "H" 
			},
			{
				"x": 1.9352502003,
				"y": -0.1318501627,
				"z": -0.4734049966,
				"element": "H" 
			}
		],
		 "valence_orbital": [ 
			{
				"type": "occ",
				"energy": -0.31539,
				"method": "rhf"
			},
			{
				"type": "occ",
				"energy": -0.30501,
				"method": "rhf"
			},
			{
				"type": "occ",
				"energy": -0.29652,
				"method": "rhf"
			},
			{
				"type": "occ",
				"energy": -0.29002,
				"method": "rhf"
			},
			{
				"type": "occ",
				"energy": -0.27012,
				"method": "rhf"
			},
			{
				"type": "unocc",
				"energy": -0.06163,
				"method": "rhf"
			},
			{
				"type": "unocc",
				"energy": -0.04091,
				"method": "rhf"
			},
			{
				"type": "unocc",
				"energy": -0.01614,
				"method": "rhf"
			},
			{
				"type": "unocc",
				"energy": -0.00965,
				"method": "rhf"
			},
			{
				"type": "unocc",
				"energy": 0.01932,
				"method": "rhf"
			}
		],
		"cosmo_sigma_profile": { 
			"-0.025": 0.0,
			"-0.024": 0.0,
			"-0.023": 0.0,
			"-0.022": 0.0,
			"-0.021": 0.0,
			"-0.02": 0.0,
			"-0.019": 0.0,
			"-0.018": 0.0,
			"-0.017": 0.0,
			"-0.016": 0.0,
			"-0.015": 0.0,
			"-0.014": 0.0,
			"-0.013": 0.0,
			"-0.012": 0.0,
			"-0.011": 0.0,
			"-0.01": 0.0,
			"-0.009": 1.64046371571,
			"-0.008": 8.92750688477,
			"-0.007": 9.85394846556,
			"-0.006": 15.352181055,
			"-0.005": 18.6792625532,
			"-0.004": 20.0272274097,
			"-0.003": 24.1402472845,
			"-0.002": 19.538357794,
			"-0.001": 16.198163085,
			"0.0": 24.1418501827,
			"0.001": 20.4267432885,
			"0.002": 12.5528424398,
			"0.003": 14.3642563573,
			"0.004": 12.9200762191,
			"0.005": 4.48990682924,
			"0.006": 4.47072956838,
			"0.007": 6.19958692475,
			"0.008": 6.58808195909,
			"0.009": 6.74909054642,
			"0.01": 10.5159109757,
			"0.011": 6.97980775135,
			"0.012": 1.67028589611,
			"0.013": 0.0682474739861,
			"0.014": 0.0,
			"0.015": 0.0,
			"0.016": 0.0,
			"0.017": 0.0,
			"0.018": 0.0,
			"0.019": 0.0,
			"0.02": 0.0,
			"0.021": 0.0,
			"0.022": 0.0,
			"0.023": 0.0,
			"0.024": 0.0,
			"0.025": 0.0
		}
	}
}
