{
	 "smiles": "[O-][N+](=O)C1=CC=C(C=C2SC(=S)N(CN3CCCCC3)C2=O)C=C1", 
	 "Tm": 433.15, 
	 "num_atms": 41, 
	 "gaussian": { 
		 "optdone": 1, 
		 "sigma_profile": "yes", 
		 "theory": "DFT", 
		 "functional": "B3LYP", 
		 "basiset": "6-31G**", 
		 "properties": { 
			 "R2extent": 13134.1524, 
			 "electric_dipole_moment_norm": 2.4382434374, 
			 "electric_quadrupole_moment_norm": 42.7526435687, 
			 "total_energy": -1806.14516134, 
			 "HOMO_LUMO_gap": 0.09647, 
			 "cosmo_polarized_energy": -14.04, 
			 "cosmo_cavitation_energy": 46.97, 
			 "cosmo_dispersion_energy": -33.73, 
			 "cosmo_repulsion_energy": 2.45, 
			 "cosmo_total_nonelectrostatic_energy": 15.68, 
			 "SMD_solvation_energy": 6.85 
		},
		"coords": [
			{
				"x": 1.1886339176,
				"y": -5.636012522,
				"z": -3.4967718559,
				"element": "O" 
			},
			{
				"x": 1.1058710597,
				"y": -4.7030444437,
				"z": -4.2945717283,
				"element": "N" 
			},
			{
				"x": 1.0118996816,
				"y": -4.8273789621,
				"z": -5.5155603958,
				"element": "O" 
			},
			{
				"x": 1.1196387658,
				"y": -3.3367744134,
				"z": -3.7492399173,
				"element": "C" 
			},
			{
				"x": 1.0263914685,
				"y": -2.2583743285,
				"z": -4.6271954352,
				"element": "C" 
			},
			{
				"x": 1.0404557449,
				"y": -0.9760189909,
				"z": -4.0992447858,
				"element": "C" 
			},
			{
				"x": 1.1439361311,
				"y": -0.745939712,
				"z": -2.7057925221,
				"element": "C" 
			},
			{
				"x": 1.1436894786,
				"y": 0.6566760402,
				"z": -2.2980724347,
				"element": "C" 
			},
			{
				"x": 1.1895825488,
				"y": 1.3251866764,
				"z": -1.1135294517,
				"element": "C" 
			},
			{
				"x": 1.1662986692,
				"y": 3.1017089876,
				"z": -1.1013126639,
				"element": "S" 
			},
			{
				"x": 1.2349464479,
				"y": 3.1822556668,
				"z": 0.6674489373,
				"element": "C" 
			},
			{
				"x": 1.3073416923,
				"y": 4.6230695942,
				"z": 1.4677805978,
				"element": "S" 
			},
			{
				"x": 1.2337050025,
				"y": 1.9121439747,
				"z": 1.1941740395,
				"element": "N" 
			},
			{
				"x": 1.2984976327,
				"y": 1.6294998851,
				"z": 2.7032804978,
				"element": "C" 
			},
			{
				"x": 0.0863016727,
				"y": 1.3068142562,
				"z": 3.3485812551,
				"element": "N" 
			},
			{
				"x": -0.9272532355,
				"y": 2.3647950391,
				"z": 3.424312618,
				"element": "C" 
			},
			{
				"x": -2.149905456,
				"y": 1.8642460473,
				"z": 4.1957350227,
				"element": "C" 
			},
			{
				"x": -2.834055694,
				"y": 0.6847940744,
				"z": 3.4664544462,
				"element": "C" 
			},
			{
				"x": -1.80785409,
				"y": -0.1718111962,
				"z": 2.6857386033,
				"element": "C" 
			},
			{
				"x": -0.4148793,
				"y": -0.079928004,
				"z": 3.3204509305,
				"element": "C" 
			},
			{
				"x": 1.2561012254,
				"y": 0.8402233608,
				"z": 0.2921632223,
				"element": "C" 
			},
			{
				"x": 1.329833662,
				"y": -0.3212117813,
				"z": 0.6695034509,
				"element": "O" 
			},
			{
				"x": 1.2387421932,
				"y": -1.8666965561,
				"z": -1.8510629314,
				"element": "C" 
			},
			{
				"x": 1.2262810393,
				"y": -3.1551994562,
				"z": -2.3714928769,
				"element": "C" 
			},
			{
				"x": 0.9461429218,
				"y": -2.4388345228,
				"z": -5.6915957835,
				"element": "H" 
			},
			{
				"x": 0.9687326686,
				"y": -0.1282113635,
				"z": -4.7743676692,
				"element": "H" 
			},
			{
				"x": 1.088334837,
				"y": 1.3197425679,
				"z": -3.1612166786,
				"element": "H" 
			},
			{
				"x": 1.7226352121,
				"y": 2.5494089953,
				"z": 3.1099447868,
				"element": "H" 
			},
			{
				"x": 2.0101561873,
				"y": 0.8083738606,
				"z": 2.7924218208,
				"element": "H" 
			},
			{
				"x": -1.246393121,
				"y": 2.7009064169,
				"z": 2.4218671474,
				"element": "H" 
			},
			{
				"x": -0.4849351527,
				"y": 3.2392694554,
				"z": 3.9155127825,
				"element": "H" 
			},
			{
				"x": -1.8244721018,
				"y": 1.5540883406,
				"z": 5.1957544464,
				"element": "H" 
			},
			{
				"x": -2.8536991396,
				"y": 2.6907679404,
				"z": 4.3379666692,
				"element": "H" 
			},
			{
				"x": -3.5953805019,
				"y": 1.0630557693,
				"z": 2.7747628606,
				"element": "H" 
			},
			{
				"x": -3.3640685185,
				"y": 0.066014476,
				"z": 4.1992373211,
				"element": "H" 
			},
			{
				"x": -2.1266973452,
				"y": -1.2192123539,
				"z": 2.6461443725,
				"element": "H" 
			},
			{
				"x": -1.7408609111,
				"y": 0.1707087222,
				"z": 1.6461562033,
				"element": "H" 
			},
			{
				"x": -0.4618134804,
				"y": -0.4716585355,
				"z": 4.3479879731,
				"element": "H" 
			},
			{
				"x": 0.295162465,
				"y": -0.6972554394,
				"z": 2.7686901054,
				"element": "H" 
			},
			{
				"x": 1.3220507438,
				"y": -1.7145829744,
				"z": -0.7843737893,
				"element": "H" 
			},
			{
				"x": 1.2987049782,
				"y": -4.0220045915,
				"z": -1.7265691908,
				"element": "H" 
			}
		],
		 "valence_orbital": [ 
			{
				"type": "occ",
				"energy": -0.28636,
				"method": "rhf"
			},
			{
				"type": "occ",
				"energy": -0.27582,
				"method": "rhf"
			},
			{
				"type": "occ",
				"energy": -0.24269,
				"method": "rhf"
			},
			{
				"type": "occ",
				"energy": -0.23861,
				"method": "rhf"
			},
			{
				"type": "occ",
				"energy": -0.21761,
				"method": "rhf"
			},
			{
				"type": "unocc",
				"energy": -0.12114,
				"method": "rhf"
			},
			{
				"type": "unocc",
				"energy": -0.08,
				"method": "rhf"
			},
			{
				"type": "unocc",
				"energy": -0.04511,
				"method": "rhf"
			},
			{
				"type": "unocc",
				"energy": -0.03374,
				"method": "rhf"
			},
			{
				"type": "unocc",
				"energy": -0.01779,
				"method": "rhf"
			}
		],
		"cosmo_sigma_profile": { 
			"-0.025": 0.0,
			"-0.024": 0.0,
			"-0.023": 0.0,
			"-0.022": 0.0,
			"-0.021": 0.0,
			"-0.02": 0.0,
			"-0.019": 0.0,
			"-0.018": 0.0,
			"-0.017": 0.0,
			"-0.016": 0.0,
			"-0.015": 0.0,
			"-0.014": 0.0,
			"-0.013": 0.0,
			"-0.012": 0.0,
			"-0.011": 0.125449431468,
			"-0.01": 2.7954664284,
			"-0.009": 3.99244514949,
			"-0.008": 5.00459116852,
			"-0.007": 8.96177080812,
			"-0.006": 10.9229937432,
			"-0.005": 11.248189346,
			"-0.004": 18.1461057018,
			"-0.003": 28.0098932367,
			"-0.002": 45.5724153088,
			"-0.001": 52.8959423236,
			"0.0": 45.3329197798,
			"0.001": 38.9659927322,
			"0.002": 19.6609562642,
			"0.003": 14.3278939694,
			"0.004": 11.825021934,
			"0.005": 12.7335964221,
			"0.006": 13.0116582015,
			"0.007": 13.8276863545,
			"0.008": 10.5430078992,
			"0.009": 7.13203927991,
			"0.01": 3.02278606614,
			"0.011": 0.285774645935,
			"0.012": 0.0,
			"0.013": 0.0,
			"0.014": 0.0,
			"0.015": 0.0,
			"0.016": 0.0,
			"0.017": 0.0,
			"0.018": 0.0,
			"0.019": 0.0,
			"0.02": 0.0,
			"0.021": 0.0,
			"0.022": 0.0,
			"0.023": 0.0,
			"0.024": 0.0,
			"0.025": 0.0
		}
	}
}
