{
	 "smiles": "CC1=C(SC2=C1C=C(Cl)C=C2)C(O)=O", 
	 "Tm": 564.15, 
	 "num_atms": 21, 
	 "gaussian": { 
		 "optdone": 1, 
		 "sigma_profile": "yes", 
		 "theory": "DFT", 
		 "functional": "B3LYP", 
		 "basiset": "6-31G**", 
		 "properties": { 
			 "R2extent": 4259.4397, 
			 "electric_dipole_moment_norm": 1.19857492465, 
			 "electric_quadrupole_moment_norm": 3.18771352697, 
			 "total_energy": -1394.1371647, 
			 "HOMO_LUMO_gap": 0.15971, 
			 "cosmo_polarized_energy": -9.77, 
			 "cosmo_cavitation_energy": 28.75, 
			 "cosmo_dispersion_energy": -21.9, 
			 "cosmo_repulsion_energy": 1.66, 
			 "cosmo_total_nonelectrostatic_energy": 8.51, 
			 "SMD_solvation_energy": 5.27 
		},
		"coords": [
			{
				"x": 1.3651958534,
				"y": 1.3138657594,
				"z": -2.2337993261,
				"element": "C" 
			},
			{
				"x": 0.5124624927,
				"y": 1.2902318749,
				"z": -0.9956056557,
				"element": "C" 
			},
			{
				"x": -0.3736766708,
				"y": 2.2794750366,
				"z": -0.6345956509,
				"element": "C" 
			},
			{
				"x": -1.2251754294,
				"y": 1.9573532365,
				"z": 0.874401959,
				"element": "S" 
			},
			{
				"x": -0.3761248998,
				"y": 0.4421081807,
				"z": 1.0464508713,
				"element": "C" 
			},
			{
				"x": 0.5210799186,
				"y": 0.2168626872,
				"z": -0.02794973,
				"element": "C" 
			},
			{
				"x": 1.2873350385,
				"y": -0.9666863475,
				"z": -0.040596771,
				"element": "C" 
			},
			{
				"x": 1.1375364684,
				"y": -1.8695759629,
				"z": 0.997409354,
				"element": "C" 
			},
			{
				"x": 2.0872445511,
				"y": -3.3505137495,
				"z": 0.9947933318,
				"element": "Cl" 
			},
			{
				"x": 0.2460886256,
				"y": -1.6428289404,
				"z": 2.0621147331,
				"element": "C" 
			},
			{
				"x": -0.5148169998,
				"y": -0.4827944363,
				"z": 2.0886296377,
				"element": "C" 
			},
			{
				"x": -0.6352455595,
				"y": 3.5122484149,
				"z": -1.3869297554,
				"element": "C" 
			},
			{
				"x": -1.5613037345,
				"y": 4.2978117702,
				"z": -0.7809513997,
				"element": "O" 
			},
			{
				"x": -0.0994536955,
				"y": 3.8244864217,
				"z": -2.4343998018,
				"element": "O" 
			},
			{
				"x": 0.7472646497,
				"y": 1.3821705309,
				"z": -3.1333119547,
				"element": "H" 
			},
			{
				"x": 1.9872913043,
				"y": 0.4195408876,
				"z": -2.3048113308,
				"element": "H" 
			},
			{
				"x": 2.0148328671,
				"y": 2.1933409596,
				"z": -2.2449382187,
				"element": "H" 
			},
			{
				"x": 1.9838389444,
				"y": -1.1747060003,
				"z": -0.8442518795,
				"element": "H" 
			},
			{
				"x": 0.1600759803,
				"y": -2.3769994244,
				"z": 2.8550468457,
				"element": "H" 
			},
			{
				"x": -1.2044646668,
				"y": -0.3013797557,
				"z": 2.9068492738,
				"element": "H" 
			},
			{
				"x": -1.664885038,
				"y": 5.0806888567,
				"z": -1.3463545322,
				"element": "H" 
			}
		],
		 "valence_orbital": [ 
			{
				"type": "occ",
				"energy": -0.31616,
				"method": "rhf"
			},
			{
				"type": "occ",
				"energy": -0.2944,
				"method": "rhf"
			},
			{
				"type": "occ",
				"energy": -0.28423,
				"method": "rhf"
			},
			{
				"type": "occ",
				"energy": -0.24666,
				"method": "rhf"
			},
			{
				"type": "occ",
				"energy": -0.22991,
				"method": "rhf"
			},
			{
				"type": "unocc",
				"energy": -0.0702,
				"method": "rhf"
			},
			{
				"type": "unocc",
				"energy": -0.02142,
				"method": "rhf"
			},
			{
				"type": "unocc",
				"energy": 0.00818,
				"method": "rhf"
			},
			{
				"type": "unocc",
				"energy": 0.00878,
				"method": "rhf"
			},
			{
				"type": "unocc",
				"energy": 0.0302,
				"method": "rhf"
			}
		],
		"cosmo_sigma_profile": { 
			"-0.025": 0.0,
			"-0.024": 0.0,
			"-0.023": 0.0,
			"-0.022": 0.0,
			"-0.021": 0.0,
			"-0.02": 0.0,
			"-0.019": 0.135684087688,
			"-0.018": 1.17407491603,
			"-0.017": 0.626547546632,
			"-0.016": 0.738395440277,
			"-0.015": 0.533679584425,
			"-0.014": 1.20484579427,
			"-0.013": 0.301628466376,
			"-0.012": 1.08997606772,
			"-0.011": 0.954756972189,
			"-0.01": 0.534307015975,
			"-0.009": 0.908939890357,
			"-0.008": 5.962262214,
			"-0.007": 7.43879730123,
			"-0.006": 7.8367302071,
			"-0.005": 7.89133154001,
			"-0.004": 9.52573090233,
			"-0.003": 11.4017370134,
			"-0.002": 16.5575586891,
			"-0.001": 19.7928256164,
			"0.0": 21.6529834666,
			"0.001": 25.1459109583,
			"0.002": 29.801965455,
			"0.003": 19.0018459814,
			"0.004": 16.7950802177,
			"0.005": 9.31716366877,
			"0.006": 3.17651063809,
			"0.007": 3.9087474146,
			"0.008": 2.23638609517,
			"0.009": 1.50478073589,
			"0.01": 2.0004919503,
			"0.011": 3.38359514338,
			"0.012": 2.48355793089,
			"0.013": 0.00321788452148,
			"0.014": 0.0,
			"0.015": 0.0,
			"0.016": 0.0,
			"0.017": 0.0,
			"0.018": 0.0,
			"0.019": 0.0,
			"0.02": 0.0,
			"0.021": 0.0,
			"0.022": 0.0,
			"0.023": 0.0,
			"0.024": 0.0,
			"0.025": 0.0
		}
	}
}
