{
	 "smiles": "SCC(=O)NC1=NC=CC=C1", 
	 "Tm": 367.15, 
	 "num_atms": 19, 
	 "gaussian": { 
		 "optdone": 1, 
		 "sigma_profile": "yes", 
		 "theory": "DFT", 
		 "functional": "B3LYP", 
		 "basiset": "6-31G**", 
		 "properties": { 
			 "R2extent": 2609.0292, 
			 "electric_dipole_moment_norm": 3.43383683946, 
			 "electric_quadrupole_moment_norm": 5.63323774307, 
			 "total_energy": -854.487576906, 
			 "HOMO_LUMO_gap": 0.20151, 
			 "cosmo_polarized_energy": -11.51, 
			 "cosmo_cavitation_energy": 24.83, 
			 "cosmo_dispersion_energy": -18.75, 
			 "cosmo_repulsion_energy": 1.47, 
			 "cosmo_total_nonelectrostatic_energy": 7.55, 
			 "SMD_solvation_energy": 3.12 
		},
		"coords": [
			{
				"x": -1.0452745197,
				"y": 1.3514305621,
				"z": 2.4346881015,
				"element": "S" 
			},
			{
				"x": -0.3645838414,
				"y": 2.2412743206,
				"z": 0.9701643006,
				"element": "C" 
			},
			{
				"x": 0.9611375219,
				"y": 1.6516400631,
				"z": 0.5095079511,
				"element": "C" 
			},
			{
				"x": 1.9929590491,
				"y": 1.926607024,
				"z": 1.1046081358,
				"element": "O" 
			},
			{
				"x": 1.0033208808,
				"y": 0.8446341159,
				"z": -0.6106800303,
				"element": "N" 
			},
			{
				"x": 0.0148502684,
				"y": 0.3270694959,
				"z": -1.4658790122,
				"element": "C" 
			},
			{
				"x": 0.4329529956,
				"y": 0.1642534252,
				"z": -2.7286658701,
				"element": "N" 
			},
			{
				"x": -0.4309751881,
				"y": -0.3434611201,
				"z": -3.6130962256,
				"element": "C" 
			},
			{
				"x": -1.7424220613,
				"y": -0.6980727897,
				"z": -3.2988393073,
				"element": "C" 
			},
			{
				"x": -2.153205678,
				"y": -0.5554810133,
				"z": -1.9731673437,
				"element": "C" 
			},
			{
				"x": -1.2635072549,
				"y": -0.0531571756,
				"z": -1.0275537817,
				"element": "C" 
			},
			{
				"x": 0.1003819094,
				"y": 1.3893277726,
				"z": 3.1444704803,
				"element": "H" 
			},
			{
				"x": -1.1437782665,
				"y": 2.2151969035,
				"z": 0.2078524683,
				"element": "H" 
			},
			{
				"x": -0.1655152151,
				"y": 3.2785000596,
				"z": 1.2434725858,
				"element": "H" 
			},
			{
				"x": 1.9479680095,
				"y": 0.6996059645,
				"z": -0.9504371071,
				"element": "H" 
			},
			{
				"x": -0.0513784938,
				"y": -0.4692929471,
				"z": -4.6253837195,
				"element": "H" 
			},
			{
				"x": -2.4062861816,
				"y": -1.0928911023,
				"z": -4.0602305137,
				"element": "H" 
			},
			{
				"x": -3.1510273179,
				"y": -0.855973125,
				"z": -1.6670267153,
				"element": "H" 
			},
			{
				"x": -1.5314166162,
				"y": -0.0064104338,
				"z": 0.021095603,
				"element": "H" 
			}
		],
		 "valence_orbital": [ 
			{
				"type": "occ",
				"energy": -0.29586,
				"method": "rhf"
			},
			{
				"type": "occ",
				"energy": -0.27873,
				"method": "rhf"
			},
			{
				"type": "occ",
				"energy": -0.27005,
				"method": "rhf"
			},
			{
				"type": "occ",
				"energy": -0.24917,
				"method": "rhf"
			},
			{
				"type": "occ",
				"energy": -0.24118,
				"method": "rhf"
			},
			{
				"type": "unocc",
				"energy": -0.03967,
				"method": "rhf"
			},
			{
				"type": "unocc",
				"energy": -0.03171,
				"method": "rhf"
			},
			{
				"type": "unocc",
				"energy": 0.00173,
				"method": "rhf"
			},
			{
				"type": "unocc",
				"energy": 0.03511,
				"method": "rhf"
			},
			{
				"type": "unocc",
				"energy": 0.06935,
				"method": "rhf"
			}
		],
		"cosmo_sigma_profile": { 
			"-0.025": 0.0,
			"-0.024": 0.0,
			"-0.023": 0.0,
			"-0.022": 0.0,
			"-0.021": 0.0,
			"-0.02": 0.0,
			"-0.019": 0.0,
			"-0.018": 0.0,
			"-0.017": 0.0,
			"-0.016": 0.0,
			"-0.015": 0.0,
			"-0.014": 0.61072793,
			"-0.013": 0.476006354144,
			"-0.012": 0.384445106318,
			"-0.011": 0.834419599393,
			"-0.01": 1.42107945258,
			"-0.009": 2.26420920359,
			"-0.008": 3.32802656733,
			"-0.007": 10.9323549603,
			"-0.006": 14.5685758931,
			"-0.005": 16.5923074615,
			"-0.004": 13.2460082593,
			"-0.003": 11.053711713,
			"-0.002": 10.7213572663,
			"-0.001": 12.5361761475,
			"0.0": 13.6218056383,
			"0.001": 15.4363355279,
			"0.002": 16.0866484723,
			"0.003": 12.327427955,
			"0.004": 6.02827951502,
			"0.005": 6.29475804009,
			"0.006": 4.85245497733,
			"0.007": 3.66305812462,
			"0.008": 3.40070340739,
			"0.009": 3.86079700656,
			"0.01": 2.84017713852,
			"0.011": 2.60194225117,
			"0.012": 4.00672699676,
			"0.013": 5.51363935264,
			"0.014": 1.21780846126,
			"0.015": 0.124706760729,
			"0.016": 0.0,
			"0.017": 0.0,
			"0.018": 0.0,
			"0.019": 0.0,
			"0.02": 0.0,
			"0.021": 0.0,
			"0.022": 0.0,
			"0.023": 0.0,
			"0.024": 0.0,
			"0.025": 0.0
		}
	}
}
