{
	 "smiles": "COC1=C(F)C=C(I)C=C1", 
	 "Tm": 306.15, 
	 "num_atms": 16, 
	 "gaussian": { 
		 "optdone": 1, 
		 "sigma_profile": "yes", 
		 "theory": "DFT", 
		 "functional": "B3LYP", 
		 "basiset": "6-31G**", 
		 "properties": { 
			 "R2extent": 2810.9858, 
			 "electric_dipole_moment_norm": 1.97721835921, 
			 "electric_quadrupole_moment_norm": 6.92697782153, 
			 "total_energy": -456.782721675, 
			 "HOMO_LUMO_gap": 0.18259, 
			 "cosmo_polarized_energy": -4.54, 
			 "cosmo_cavitation_energy": 23.61, 
			 "cosmo_dispersion_energy": -18.98, 
			 "cosmo_repulsion_energy": 1.48, 
			 "cosmo_total_nonelectrostatic_energy": 6.11, 
			 "SMD_solvation_energy": 4.41 
		},
		"coords": [
			{
				"x": 2.7950212085,
				"y": -0.0504203906,
				"z": -1.9290668334,
				"element": "C" 
			},
			{
				"x": 1.5716335626,
				"y": 0.5718021111,
				"z": -1.5301494075,
				"element": "O" 
			},
			{
				"x": 1.4097956979,
				"y": 1.0864460501,
				"z": -0.2842619377,
				"element": "C" 
			},
			{
				"x": 2.3460174515,
				"y": 1.0995597079,
				"z": 0.7612303419,
				"element": "C" 
			},
			{
				"x": 3.5786943963,
				"y": 0.5579486832,
				"z": 0.595588705,
				"element": "F" 
			},
			{
				"x": 2.0595843349,
				"y": 1.6607455804,
				"z": 2.0013546493,
				"element": "C" 
			},
			{
				"x": 0.8079668426,
				"y": 2.2298697494,
				"z": 2.2224608585,
				"element": "C" 
			},
			{
				"x": 0.3646498265,
				"y": 3.0864178274,
				"z": 4.1076787564,
				"element": "I" 
			},
			{
				"x": -0.1500732642,
				"y": 2.2357250123,
				"z": 1.2057227358,
				"element": "C" 
			},
			{
				"x": 0.1591249951,
				"y": 1.6685162887,
				"z": -0.0261528509,
				"element": "C" 
			},
			{
				"x": 3.6360411431,
				"y": 0.6472255436,
				"z": -1.885013449,
				"element": "H" 
			},
			{
				"x": 3.0210613073,
				"y": -0.9271527589,
				"z": -1.3156640306,
				"element": "H" 
			},
			{
				"x": 2.6302671365,
				"y": -0.3597494377,
				"z": -2.9622547285,
				"element": "H" 
			},
			{
				"x": 2.829209379,
				"y": 1.6362186777,
				"z": 2.7635639127,
				"element": "H" 
			},
			{
				"x": -1.1272489603,
				"y": 2.675766039,
				"z": 1.3665434702,
				"element": "H" 
			},
			{
				"x": -0.5687450574,
				"y": 1.6612813164,
				"z": -0.8308801921,
				"element": "H" 
			}
		],
		 "valence_orbital": [ 
			{
				"type": "occ",
				"energy": -0.33356,
				"method": "rhf"
			},
			{
				"type": "occ",
				"energy": -0.2765,
				"method": "rhf"
			},
			{
				"type": "occ",
				"energy": -0.26923,
				"method": "rhf"
			},
			{
				"type": "occ",
				"energy": -0.26161,
				"method": "rhf"
			},
			{
				"type": "occ",
				"energy": -0.2223,
				"method": "rhf"
			},
			{
				"type": "unocc",
				"energy": -0.03971,
				"method": "rhf"
			},
			{
				"type": "unocc",
				"energy": -0.0179,
				"method": "rhf"
			},
			{
				"type": "unocc",
				"energy": -0.00747,
				"method": "rhf"
			},
			{
				"type": "unocc",
				"energy": 0.04352,
				"method": "rhf"
			},
			{
				"type": "unocc",
				"energy": 0.05114,
				"method": "rhf"
			}
		],
		"cosmo_sigma_profile": { 
			"-0.025": 0.0,
			"-0.024": 0.0,
			"-0.023": 0.0,
			"-0.022": 0.0,
			"-0.021": 0.0,
			"-0.02": 0.0,
			"-0.019": 0.0,
			"-0.018": 0.0,
			"-0.017": 0.0,
			"-0.016": 0.0,
			"-0.015": 0.0,
			"-0.014": 0.0,
			"-0.013": 0.0,
			"-0.012": 0.0,
			"-0.011": 0.0,
			"-0.01": 0.0,
			"-0.009": 0.0,
			"-0.008": 1.00167537837,
			"-0.007": 4.87711591049,
			"-0.006": 8.67629690311,
			"-0.005": 14.7890933581,
			"-0.004": 13.5511529814,
			"-0.003": 16.2770087767,
			"-0.002": 12.5826915166,
			"-0.001": 10.7208883247,
			"0.0": 14.3686558938,
			"0.001": 16.8896201526,
			"0.002": 21.5020234079,
			"0.003": 22.5889253056,
			"0.004": 22.8590309672,
			"0.005": 7.57662334934,
			"0.006": 1.56275358203,
			"0.007": 1.04083309099,
			"0.008": 1.48202103751,
			"0.009": 1.52055206068,
			"0.01": 0.480726128681,
			"0.011": 0.0,
			"0.012": 0.0,
			"0.013": 0.0,
			"0.014": 0.0,
			"0.015": 0.0,
			"0.016": 0.0,
			"0.017": 0.0,
			"0.018": 0.0,
			"0.019": 0.0,
			"0.02": 0.0,
			"0.021": 0.0,
			"0.022": 0.0,
			"0.023": 0.0,
			"0.024": 0.0,
			"0.025": 0.0
		}
	}
}
