{
	 "smiles": "COC1=C(N)C=C(C=C1)C1CCCCC1", 
	 "Tm": 340.15, 
	 "num_atms": 34, 
	 "gaussian": { 
		 "optdone": 1, 
		 "sigma_profile": "yes", 
		 "theory": "DFT", 
		 "functional": "B3LYP", 
		 "basiset": "6-31G**", 
		 "properties": { 
			 "R2extent": 5163.2207, 
			 "electric_dipole_moment_norm": 1.48711470304, 
			 "electric_quadrupole_moment_norm": 13.8530230145, 
			 "total_energy": -636.818258629, 
			 "HOMO_LUMO_gap": 0.20013, 
			 "cosmo_polarized_energy": -8.21, 
			 "cosmo_cavitation_energy": 33.54, 
			 "cosmo_dispersion_energy": -24.71, 
			 "cosmo_repulsion_energy": 1.95, 
			 "cosmo_total_nonelectrostatic_energy": 10.77, 
			 "SMD_solvation_energy": 5.37 
		},
		"coords": [
			{
				"x": -3.0299298852,
				"y": 5.0910900232,
				"z": -1.6015202559,
				"element": "C" 
			},
			{
				"x": -3.2092215315,
				"y": 3.732779451,
				"z": -1.9587088907,
				"element": "O" 
			},
			{
				"x": -2.3731648793,
				"y": 2.8002748626,
				"z": -1.3875254863,
				"element": "C" 
			},
			{
				"x": -2.6076318121,
				"y": 1.4693733256,
				"z": -1.7952453944,
				"element": "C" 
			},
			{
				"x": -3.6747086877,
				"y": 1.1970084019,
				"z": -2.6537107699,
				"element": "N" 
			},
			{
				"x": -1.7920334417,
				"y": 0.4551284404,
				"z": -1.2803997189,
				"element": "C" 
			},
			{
				"x": -0.7517812838,
				"y": 0.7150877621,
				"z": -0.3764304241,
				"element": "C" 
			},
			{
				"x": -0.556749854,
				"y": 2.043632471,
				"z": 0.0205398173,
				"element": "C" 
			},
			{
				"x": -1.3551581808,
				"y": 3.07699128,
				"z": -0.4796965835,
				"element": "C" 
			},
			{
				"x": 0.1229109712,
				"y": -0.3842548809,
				"z": 0.2391831691,
				"element": "C" 
			},
			{
				"x": -0.2019641585,
				"y": -1.8291525515,
				"z": -0.2059495345,
				"element": "C" 
			},
			{
				"x": 0.3067083094,
				"y": -2.1858278693,
				"z": -1.6155278094,
				"element": "C" 
			},
			{
				"x": 1.8038994861,
				"y": -1.8826537665,
				"z": -1.7733690885,
				"element": "C" 
			},
			{
				"x": 2.112320463,
				"y": -0.4285286722,
				"z": -1.3896870239,
				"element": "C" 
			},
			{
				"x": 1.6400292785,
				"y": -0.123931106,
				"z": 0.038830102,
				"element": "C" 
			},
			{
				"x": -3.7783872536,
				"y": 5.6559230865,
				"z": -2.160335216,
				"element": "H" 
			},
			{
				"x": -3.1876858138,
				"y": 5.250345218,
				"z": -0.5267519449,
				"element": "H" 
			},
			{
				"x": -2.0287648302,
				"y": 5.4531105338,
				"z": -1.8712417882,
				"element": "H" 
			},
			{
				"x": -3.5554294507,
				"y": 0.3748713644,
				"z": -3.2289446871,
				"element": "H" 
			},
			{
				"x": -3.9842752867,
				"y": 2.0017451765,
				"z": -3.1814331872,
				"element": "H" 
			},
			{
				"x": -2.0030958148,
				"y": -0.561161363,
				"z": -1.5966374499,
				"element": "H" 
			},
			{
				"x": 0.2174966267,
				"y": 2.2886050376,
				"z": 0.7416230713,
				"element": "H" 
			},
			{
				"x": -1.1738385523,
				"y": 4.0946287768,
				"z": -0.1524445576,
				"element": "H" 
			},
			{
				"x": -0.0629629902,
				"y": -0.339900858,
				"z": 1.3221139357,
				"element": "H" 
			},
			{
				"x": 0.2789324131,
				"y": -2.5075551469,
				"z": 0.5118864008,
				"element": "H" 
			},
			{
				"x": -1.2780825975,
				"y": -2.0214489837,
				"z": -0.124553797,
				"element": "H" 
			},
			{
				"x": -0.2467768681,
				"y": -1.6172566725,
				"z": -2.37248428,
				"element": "H" 
			},
			{
				"x": 0.1094919865,
				"y": -3.2460790449,
				"z": -1.8174399991,
				"element": "H" 
			},
			{
				"x": 2.3834207112,
				"y": -2.5566199233,
				"z": -1.1256437027,
				"element": "H" 
			},
			{
				"x": 2.1252692232,
				"y": -2.0864104208,
				"z": -2.8021219047,
				"element": "H" 
			},
			{
				"x": 1.6102035515,
				"y": 0.2508690753,
				"z": -2.091477122,
				"element": "H" 
			},
			{
				"x": 3.187786973,
				"y": -0.2311413473,
				"z": -1.4763375707,
				"element": "H" 
			},
			{
				"x": 2.1921505678,
				"y": -0.7669380426,
				"z": 0.7390449308,
				"element": "H" 
			},
			{
				"x": 1.8879226114,
				"y": 0.9079963625,
				"z": 0.3070967605,
				"element": "H" 
			}
		],
		 "valence_orbital": [ 
			{
				"type": "occ",
				"energy": -0.30099,
				"method": "rhf"
			},
			{
				"type": "occ",
				"energy": -0.28673,
				"method": "rhf"
			},
			{
				"type": "occ",
				"energy": -0.28202,
				"method": "rhf"
			},
			{
				"type": "occ",
				"energy": -0.2189,
				"method": "rhf"
			},
			{
				"type": "occ",
				"energy": -0.18116,
				"method": "rhf"
			},
			{
				"type": "unocc",
				"energy": 0.01897,
				"method": "rhf"
			},
			{
				"type": "unocc",
				"energy": 0.02649,
				"method": "rhf"
			},
			{
				"type": "unocc",
				"energy": 0.08763,
				"method": "rhf"
			},
			{
				"type": "unocc",
				"energy": 0.09278,
				"method": "rhf"
			},
			{
				"type": "unocc",
				"energy": 0.10391,
				"method": "rhf"
			}
		],
		"cosmo_sigma_profile": { 
			"-0.025": 0.0,
			"-0.024": 0.0,
			"-0.023": 0.0,
			"-0.022": 0.0,
			"-0.021": 0.0,
			"-0.02": 0.0,
			"-0.019": 0.0,
			"-0.018": 0.0,
			"-0.017": 0.0,
			"-0.016": 0.0,
			"-0.015": 0.0,
			"-0.014": 0.0,
			"-0.013": 0.0,
			"-0.012": 0.788423243761,
			"-0.011": 1.26562603381,
			"-0.01": 2.04993681498,
			"-0.009": 2.45472873825,
			"-0.008": 2.62488714937,
			"-0.007": 1.88146394712,
			"-0.006": 4.54223501881,
			"-0.005": 11.6649588618,
			"-0.004": 14.5481516631,
			"-0.003": 19.1963645052,
			"-0.002": 26.5764643404,
			"-0.001": 36.5146032155,
			"0.0": 34.6679949831,
			"0.001": 33.0727687422,
			"0.002": 14.4261557231,
			"0.003": 8.46400079368,
			"0.004": 8.45516596539,
			"0.005": 8.8404468503,
			"0.006": 9.55116659839,
			"0.007": 9.05725992006,
			"0.008": 4.25287323544,
			"0.009": 1.51840651542,
			"0.01": 1.00847808555,
			"0.011": 0.482044217792,
			"0.012": 0.755181609814,
			"0.013": 0.996527605328,
			"0.014": 0.554127087053,
			"0.015": 0.556376795594,
			"0.016": 0.123731853632,
			"0.017": 0.0,
			"0.018": 0.0,
			"0.019": 0.0,
			"0.02": 0.0,
			"0.021": 0.0,
			"0.022": 0.0,
			"0.023": 0.0,
			"0.024": 0.0,
			"0.025": 0.0
		}
	}
}
