{
	 "smiles": "NC1=C2C=CC=CC2=NC=C1[N+]([O-])=O", 
	 "Tm": 547.15, 
	 "num_atms": 21, 
	 "gaussian": { 
		 "optdone": 1, 
		 "sigma_profile": "yes", 
		 "theory": "DFT", 
		 "functional": "B3LYP", 
		 "basiset": "6-31G**", 
		 "properties": { 
			 "R2extent": 3269.0997, 
			 "electric_dipole_moment_norm": 5.84852133193, 
			 "electric_quadrupole_moment_norm": 16.8867115739, 
			 "total_energy": -661.795540673, 
			 "HOMO_LUMO_gap": 0.14627, 
			 "cosmo_polarized_energy": -14.91, 
			 "cosmo_cavitation_energy": 25.27, 
			 "cosmo_dispersion_energy": -19.49, 
			 "cosmo_repulsion_energy": 1.49, 
			 "cosmo_total_nonelectrostatic_energy": 7.26, 
			 "SMD_solvation_energy": 4.57 
		},
		"coords": [
			{
				"x": -1.4293581954,
				"y": 2.0507743701,
				"z": 1.8291383138,
				"element": "N" 
			},
			{
				"x": -1.2826174739,
				"y": 1.2780576672,
				"z": 0.739210811,
				"element": "C" 
			},
			{
				"x": 0.0330733098,
				"y": 0.9173004567,
				"z": 0.2491116721,
				"element": "C" 
			},
			{
				"x": 1.2277836452,
				"y": 1.3480288957,
				"z": 0.8758381819,
				"element": "C" 
			},
			{
				"x": 2.462797128,
				"y": 0.9829577228,
				"z": 0.3784634454,
				"element": "C" 
			},
			{
				"x": 2.5503354039,
				"y": 0.1691289912,
				"z": -0.7703122523,
				"element": "C" 
			},
			{
				"x": 1.40283461,
				"y": -0.2646953837,
				"z": -1.4006205834,
				"element": "C" 
			},
			{
				"x": 0.123666677,
				"y": 0.0945829183,
				"z": -0.9121342496,
				"element": "C" 
			},
			{
				"x": -0.9697428157,
				"y": -0.3790586794,
				"z": -1.5978382782,
				"element": "N" 
			},
			{
				"x": -2.1486352343,
				"y": -0.0446836389,
				"z": -1.1429416293,
				"element": "C" 
			},
			{
				"x": -2.3732761992,
				"y": 0.767679735,
				"z": 0.0017115762,
				"element": "C" 
			},
			{
				"x": -3.7427893109,
				"y": 1.0363033357,
				"z": 0.3606732446,
				"element": "N" 
			},
			{
				"x": -3.9801008726,
				"y": 1.7464589599,
				"z": 1.3612162167,
				"element": "O" 
			},
			{
				"x": -4.6384054163,
				"y": 0.5548946885,
				"z": -0.3336457179,
				"element": "O" 
			},
			{
				"x": -0.632477133,
				"y": 2.399071736,
				"z": 2.3320421033,
				"element": "H" 
			},
			{
				"x": -2.3764193264,
				"y": 2.2659606651,
				"z": 2.11885475,
				"element": "H" 
			},
			{
				"x": 1.1956052066,
				"y": 1.9752523385,
				"z": 1.761982725,
				"element": "H" 
			},
			{
				"x": 3.36701286,
				"y": 1.323416922,
				"z": 0.873242645,
				"element": "H" 
			},
			{
				"x": 3.5247289333,
				"y": -0.1146897334,
				"z": -1.156716659,
				"element": "H" 
			},
			{
				"x": 1.4357670426,
				"y": -0.8912274203,
				"z": -2.2854985735,
				"element": "H" 
			},
			{
				"x": -3.0218828387,
				"y": -0.411114547,
				"z": -1.6738777415,
				"element": "H" 
			}
		],
		 "valence_orbital": [ 
			{
				"type": "occ",
				"energy": -0.2895,
				"method": "rhf"
			},
			{
				"type": "occ",
				"energy": -0.27918,
				"method": "rhf"
			},
			{
				"type": "occ",
				"energy": -0.27128,
				"method": "rhf"
			},
			{
				"type": "occ",
				"energy": -0.26432,
				"method": "rhf"
			},
			{
				"type": "occ",
				"energy": -0.2339,
				"method": "rhf"
			},
			{
				"type": "unocc",
				"energy": -0.08763,
				"method": "rhf"
			},
			{
				"type": "unocc",
				"energy": -0.05227,
				"method": "rhf"
			},
			{
				"type": "unocc",
				"energy": -0.01397,
				"method": "rhf"
			},
			{
				"type": "unocc",
				"energy": 0.01379,
				"method": "rhf"
			},
			{
				"type": "unocc",
				"energy": 0.05215,
				"method": "rhf"
			}
		],
		"cosmo_sigma_profile": { 
			"-0.025": 0.0,
			"-0.024": 0.0,
			"-0.023": 0.0,
			"-0.022": 0.0,
			"-0.021": 0.0,
			"-0.02": 0.0,
			"-0.019": 0.0,
			"-0.018": 0.0,
			"-0.017": 0.234656306986,
			"-0.016": 1.18385607703,
			"-0.015": 1.17656450394,
			"-0.014": 1.44439039324,
			"-0.013": 1.23260706334,
			"-0.012": 1.4977753796,
			"-0.011": 2.31736713992,
			"-0.01": 2.232706081,
			"-0.009": 1.52759250015,
			"-0.008": 2.58672515758,
			"-0.007": 4.42499781389,
			"-0.006": 10.0972190413,
			"-0.005": 12.5575729694,
			"-0.004": 11.548384716,
			"-0.003": 11.0742500192,
			"-0.002": 16.7913477425,
			"-0.001": 17.6536289539,
			"0.0": 12.7232389362,
			"0.001": 13.9132503725,
			"0.002": 14.8329998608,
			"0.003": 15.3693741895,
			"0.004": 8.38942890567,
			"0.005": 3.5187171106,
			"0.006": 4.65109564196,
			"0.007": 4.95311800248,
			"0.008": 8.35096831339,
			"0.009": 5.92137213857,
			"0.01": 4.78042779823,
			"0.011": 3.13046124304,
			"0.012": 0.609326553829,
			"0.013": 0.438846829159,
			"0.014": 1.53461690196,
			"0.015": 0.619545214365,
			"0.016": 0.521715831714,
			"0.017": 0.0,
			"0.018": 0.0,
			"0.019": 0.0,
			"0.02": 0.0,
			"0.021": 0.0,
			"0.022": 0.0,
			"0.023": 0.0,
			"0.024": 0.0,
			"0.025": 0.0
		}
	}
}
