{
	 "smiles": "OC(=O)C1=CN=C(C=C1)C(F)(F)F", 
	 "Tm": 464.65, 
	 "num_atms": 17, 
	 "gaussian": { 
		 "optdone": 1, 
		 "sigma_profile": "yes", 
		 "theory": "DFT", 
		 "functional": "B3LYP", 
		 "basiset": "6-31G**", 
		 "properties": { 
			 "R2extent": 3154.2274, 
			 "electric_dipole_moment_norm": 1.16192473508, 
			 "electric_quadrupole_moment_norm": 17.9331811749, 
			 "total_energy": -773.877359186, 
			 "HOMO_LUMO_gap": 0.20188, 
			 "cosmo_polarized_energy": -14.89, 
			 "cosmo_cavitation_energy": 23.99, 
			 "cosmo_dispersion_energy": -17.26, 
			 "cosmo_repulsion_energy": 1.3, 
			 "cosmo_total_nonelectrostatic_energy": 8.02, 
			 "SMD_solvation_energy": 5.34 
		},
		"coords": [
			{
				"x": -0.1968588948,
				"y": 3.1071202843,
				"z": -2.1021283461,
				"element": "O" 
			},
			{
				"x": 0.8513802154,
				"y": 2.384817286,
				"z": -1.6355277855,
				"element": "C" 
			},
			{
				"x": 1.9472243171,
				"y": 2.5106403979,
				"z": -2.1264568026,
				"element": "O" 
			},
			{
				"x": 0.5812146094,
				"y": 1.4434320369,
				"z": -0.4973256214,
				"element": "C" 
			},
			{
				"x": -0.5255209164,
				"y": 1.5477417904,
				"z": 0.3575445728,
				"element": "C" 
			},
			{
				"x": -0.7544466769,
				"y": 0.7183627525,
				"z": 1.3752509768,
				"element": "N" 
			},
			{
				"x": 0.1318565546,
				"y": -0.2595318111,
				"z": 1.5826869498,
				"element": "C" 
			},
			{
				"x": 1.2815084151,
				"y": -0.4474213543,
				"z": 0.8135132606,
				"element": "C" 
			},
			{
				"x": 1.5097129646,
				"y": 0.4293600532,
				"z": -0.2418686303,
				"element": "C" 
			},
			{
				"x": -0.1962273273,
				"y": -1.1778729188,
				"z": 2.7464676394,
				"element": "C" 
			},
			{
				"x": -0.2637244452,
				"y": -0.4929174759,
				"z": 3.9010585928,
				"element": "F" 
			},
			{
				"x": -1.3796050827,
				"y": -1.789193367,
				"z": 2.5606648407,
				"element": "F" 
			},
			{
				"x": 0.7446496715,
				"y": -2.1375362608,
				"z": 2.8908204653,
				"element": "F" 
			},
			{
				"x": -1.0310026832,
				"y": 2.796874961,
				"z": -1.7232855033,
				"element": "H" 
			},
			{
				"x": -1.2525134797,
				"y": 2.3520141497,
				"z": 0.2438872581,
				"element": "H" 
			},
			{
				"x": 1.9697175407,
				"y": -1.2521959503,
				"z": 1.0403158799,
				"element": "H" 
			},
			{
				"x": 2.3879352176,
				"y": 0.3497054262,
				"z": -0.873617747,
				"element": "H" 
			}
		],
		 "valence_orbital": [ 
			{
				"type": "occ",
				"energy": -0.33959,
				"method": "rhf"
			},
			{
				"type": "occ",
				"energy": -0.32184,
				"method": "rhf"
			},
			{
				"type": "occ",
				"energy": -0.30914,
				"method": "rhf"
			},
			{
				"type": "occ",
				"energy": -0.30077,
				"method": "rhf"
			},
			{
				"type": "occ",
				"energy": -0.28688,
				"method": "rhf"
			},
			{
				"type": "unocc",
				"energy": -0.085,
				"method": "rhf"
			},
			{
				"type": "unocc",
				"energy": -0.06029,
				"method": "rhf"
			},
			{
				"type": "unocc",
				"energy": 0.01569,
				"method": "rhf"
			},
			{
				"type": "unocc",
				"energy": 0.04511,
				"method": "rhf"
			},
			{
				"type": "unocc",
				"energy": 0.09234,
				"method": "rhf"
			}
		],
		"cosmo_sigma_profile": { 
			"-0.025": 0.0,
			"-0.024": 0.0,
			"-0.023": 0.0,
			"-0.022": 0.0,
			"-0.021": 0.0189622941098,
			"-0.02": 0.598272283695,
			"-0.019": 0.724448487379,
			"-0.018": 1.1288395124,
			"-0.017": 1.60281337743,
			"-0.016": 0.901644366412,
			"-0.015": 0.437139065,
			"-0.014": 0.802926659331,
			"-0.013": 1.82470660909,
			"-0.012": 1.4169593985,
			"-0.011": 1.21182921673,
			"-0.01": 1.65029717919,
			"-0.009": 2.8831298676,
			"-0.008": 4.86463428534,
			"-0.007": 5.61051416879,
			"-0.006": 4.95821946895,
			"-0.005": 7.90030745857,
			"-0.004": 9.50861198049,
			"-0.003": 11.6104050211,
			"-0.002": 13.8497684554,
			"-0.001": 12.5866871107,
			"0.0": 9.91775629922,
			"0.001": 10.3402944575,
			"0.002": 26.8652230145,
			"0.003": 17.7648830494,
			"0.004": 6.02354125425,
			"0.005": 4.08859836439,
			"0.006": 3.07830031972,
			"0.007": 5.10221047486,
			"0.008": 4.01346569917,
			"0.009": 5.22907144079,
			"0.01": 5.41972911124,
			"0.011": 6.56382128652,
			"0.012": 2.54960849064,
			"0.013": 0.562377178601,
			"0.014": 0.0,
			"0.015": 0.0,
			"0.016": 0.0,
			"0.017": 0.0,
			"0.018": 0.0,
			"0.019": 0.0,
			"0.02": 0.0,
			"0.021": 0.0,
			"0.022": 0.0,
			"0.023": 0.0,
			"0.024": 0.0,
			"0.025": 0.0
		}
	}
}
