{
	 "smiles": "CCOC(=O)C1=CC=CO1", 
	 "Tm": 307.35, 
	 "num_atms": 18, 
	 "gaussian": { 
		 "optdone": 1, 
		 "sigma_profile": "yes", 
		 "theory": "DFT", 
		 "functional": "B3LYP", 
		 "basiset": "6-31G**", 
		 "properties": { 
			 "R2extent": 1900.135, 
			 "electric_dipole_moment_norm": 2.59527157924, 
			 "electric_quadrupole_moment_norm": 11.9633532628, 
			 "total_energy": -497.222170258, 
			 "HOMO_LUMO_gap": 0.20168, 
			 "cosmo_polarized_energy": -8.88, 
			 "cosmo_cavitation_energy": 22.76, 
			 "cosmo_dispersion_energy": -16.66, 
			 "cosmo_repulsion_energy": 1.37, 
			 "cosmo_total_nonelectrostatic_energy": 7.47, 
			 "SMD_solvation_energy": 6.29 
		},
		"coords": [
			{
				"x": -1.2352065967,
				"y": 2.5962255737,
				"z": 0.8196489818,
				"element": "C" 
			},
			{
				"x": -1.4497031637,
				"y": 2.0898665545,
				"z": -0.599015216,
				"element": "C" 
			},
			{
				"x": -0.5168896183,
				"y": 1.0340726153,
				"z": -0.9289510986,
				"element": "O" 
			},
			{
				"x": -0.8800464167,
				"y": -0.2190728722,
				"z": -0.5605078527,
				"element": "C" 
			},
			{
				"x": -1.9146491042,
				"y": -0.5031569739,
				"z": 0.0080761052,
				"element": "O" 
			},
			{
				"x": 0.1560958656,
				"y": -1.1806999591,
				"z": -0.9533786625,
				"element": "C" 
			},
			{
				"x": 1.3623982446,
				"y": -1.0534692606,
				"z": -1.5920728089,
				"element": "C" 
			},
			{
				"x": 1.9098985925,
				"y": -2.3666396791,
				"z": -1.6805699159,
				"element": "C" 
			},
			{
				"x": 0.9953472756,
				"y": -3.1930044848,
				"z": -1.0900226407,
				"element": "C" 
			},
			{
				"x": -0.0725206889,
				"y": -2.4922842924,
				"z": -0.6433281335,
				"element": "O" 
			},
			{
				"x": -1.9008067451,
				"y": 3.4434642427,
				"z": 1.0161281995,
				"element": "H" 
			},
			{
				"x": -1.4581143006,
				"y": 1.8099024967,
				"z": 1.5448583431,
				"element": "H" 
			},
			{
				"x": -0.2030599041,
				"y": 2.9293762019,
				"z": 0.9631031027,
				"element": "H" 
			},
			{
				"x": -1.248878315,
				"y": 2.8693698327,
				"z": -1.3379738793,
				"element": "H" 
			},
			{
				"x": -2.4673579738,
				"y": 1.715589731,
				"z": -0.7333791441,
				"element": "H" 
			},
			{
				"x": 1.7921634925,
				"y": -0.1294794222,
				"z": -1.9483887251,
				"element": "H" 
			},
			{
				"x": 2.8517407264,
				"y": -2.6589581452,
				"z": -2.1216465895,
				"element": "H" 
			},
			{
				"x": 0.96358863,
				"y": -4.258102159,
				"z": -0.9180800655,
				"element": "H" 
			}
		],
		 "valence_orbital": [ 
			{
				"type": "occ",
				"energy": -0.34003,
				"method": "rhf"
			},
			{
				"type": "occ",
				"energy": -0.29691,
				"method": "rhf"
			},
			{
				"type": "occ",
				"energy": -0.28913,
				"method": "rhf"
			},
			{
				"type": "occ",
				"energy": -0.27271,
				"method": "rhf"
			},
			{
				"type": "occ",
				"energy": -0.2406,
				"method": "rhf"
			},
			{
				"type": "unocc",
				"energy": -0.03892,
				"method": "rhf"
			},
			{
				"type": "unocc",
				"energy": 0.04191,
				"method": "rhf"
			},
			{
				"type": "unocc",
				"energy": 0.10596,
				"method": "rhf"
			},
			{
				"type": "unocc",
				"energy": 0.11183,
				"method": "rhf"
			},
			{
				"type": "unocc",
				"energy": 0.11536,
				"method": "rhf"
			}
		],
		"cosmo_sigma_profile": { 
			"-0.025": 0.0,
			"-0.024": 0.0,
			"-0.023": 0.0,
			"-0.022": 0.0,
			"-0.021": 0.0,
			"-0.02": 0.0,
			"-0.019": 0.0,
			"-0.018": 0.0,
			"-0.017": 0.0,
			"-0.016": 0.0,
			"-0.015": 0.0,
			"-0.014": 0.0,
			"-0.013": 0.0,
			"-0.012": 0.0,
			"-0.011": 0.0,
			"-0.01": 1.11063949207,
			"-0.009": 2.03976048177,
			"-0.008": 4.07821320121,
			"-0.007": 4.49254414319,
			"-0.006": 6.21536413279,
			"-0.005": 10.1411060932,
			"-0.004": 14.6379675405,
			"-0.003": 17.208919436,
			"-0.002": 16.6988366205,
			"-0.001": 14.2523599868,
			"0.0": 18.3786022493,
			"0.001": 15.4608012911,
			"0.002": 11.2365029409,
			"0.003": 11.2619751541,
			"0.004": 6.85612183936,
			"0.005": 3.77663567701,
			"0.006": 3.28038745129,
			"0.007": 3.70624396446,
			"0.008": 2.6709730754,
			"0.009": 1.84629436392,
			"0.01": 2.56622025662,
			"0.011": 3.55503822523,
			"0.012": 4.70872355468,
			"0.013": 1.3078582995,
			"0.014": 0.0,
			"0.015": 0.0,
			"0.016": 0.0,
			"0.017": 0.0,
			"0.018": 0.0,
			"0.019": 0.0,
			"0.02": 0.0,
			"0.021": 0.0,
			"0.022": 0.0,
			"0.023": 0.0,
			"0.024": 0.0,
			"0.025": 0.0
		}
	}
}
