{
	 "smiles": "NC1=CC=C(C=C1)C1=NC2=C(S1)C=CC(Br)=C2", 
	 "Tm": 463.15, 
	 "num_atms": 26, 
	 "gaussian": { 
		 "optdone": 1, 
		 "sigma_profile": "yes", 
		 "theory": "DFT", 
		 "functional": "B3LYP", 
		 "basiset": "6-31G**", 
		 "properties": { 
			 "R2extent": 12739.4703, 
			 "electric_dipole_moment_norm": 5.35564717845, 
			 "electric_quadrupole_moment_norm": 21.2050423272, 
			 "total_energy": -3579.92406569, 
			 "HOMO_LUMO_gap": 0.14914, 
			 "cosmo_polarized_energy": -12.65, 
			 "cosmo_cavitation_energy": 34.52, 
			 "cosmo_dispersion_energy": -26.63, 
			 "cosmo_repulsion_energy": 1.99, 
			 "cosmo_total_nonelectrostatic_energy": 9.88, 
			 "SMD_solvation_energy": 2.58 
		},
		"coords": [
			{
				"x": 1.1769380843,
				"y": 1.1238327384,
				"z": 4.5900511174,
				"element": "N" 
			},
			{
				"x": 1.0554520229,
				"y": 0.650341905,
				"z": 3.2938427729,
				"element": "C" 
			},
			{
				"x": -0.2090690973,
				"y": 0.3572064927,
				"z": 2.7480902571,
				"element": "C" 
			},
			{
				"x": -0.3289953628,
				"y": -0.068314381,
				"z": 1.4331777727,
				"element": "C" 
			},
			{
				"x": 0.7998898991,
				"y": -0.2201047496,
				"z": 0.6101303947,
				"element": "C" 
			},
			{
				"x": 2.0629941787,
				"y": 0.0748139905,
				"z": 1.1599119732,
				"element": "C" 
			},
			{
				"x": 2.1906680566,
				"y": 0.500460255,
				"z": 2.4714337341,
				"element": "C" 
			},
			{
				"x": 0.7111288531,
				"y": -0.6692649296,
				"z": -0.7767765343,
				"element": "C" 
			},
			{
				"x": 1.7371945592,
				"y": -0.8280391858,
				"z": -1.5614142062,
				"element": "N" 
			},
			{
				"x": 1.363441599,
				"y": -1.2605483016,
				"z": -2.8166220616,
				"element": "C" 
			},
			{
				"x": -0.0280777921,
				"y": -1.4458122703,
				"z": -3.0113445212,
				"element": "C" 
			},
			{
				"x": -0.8733061415,
				"y": -1.0491211378,
				"z": -1.5316578162,
				"element": "S" 
			},
			{
				"x": -0.5369075276,
				"y": -1.8808283069,
				"z": -4.2356706274,
				"element": "C" 
			},
			{
				"x": 0.353189483,
				"y": -2.1337644576,
				"z": -5.2770651567,
				"element": "C" 
			},
			{
				"x": 1.7301226412,
				"y": -1.9493015266,
				"z": -5.0805542314,
				"element": "C" 
			},
			{
				"x": 2.920142616,
				"y": -2.3080284125,
				"z": -6.53640678,
				"element": "Br" 
			},
			{
				"x": 2.2539947605,
				"y": -1.5175004615,
				"z": -3.8708168712,
				"element": "C" 
			},
			{
				"x": 0.4110332826,
				"y": 0.9281223684,
				"z": 5.2179034934,
				"element": "H" 
			},
			{
				"x": 2.0838247587,
				"y": 1.0283947068,
				"z": 5.023182945,
				"element": "H" 
			},
			{
				"x": -1.0977242975,
				"y": 0.4697571444,
				"z": 3.3635882674,
				"element": "H" 
			},
			{
				"x": -1.3202641645,
				"y": -0.2879824115,
				"z": 1.0460943529,
				"element": "H" 
			},
			{
				"x": 2.9398447961,
				"y": -0.0409356312,
				"z": 0.5325085633,
				"element": "H" 
			},
			{
				"x": 3.1751875016,
				"y": 0.7257750254,
				"z": 2.8736550056,
				"element": "H" 
			},
			{
				"x": -1.6022832776,
				"y": -2.0226738183,
				"z": -4.385235188,
				"element": "H" 
			},
			{
				"x": -0.0135616627,
				"y": -2.4724915113,
				"z": -6.2387945443,
				"element": "H" 
			},
			{
				"x": 3.318142231,
				"y": -1.3771931335,
				"z": -3.7264121113,
				"element": "H" 
			}
		],
		 "valence_orbital": [ 
			{
				"type": "occ",
				"energy": -0.27373,
				"method": "rhf"
			},
			{
				"type": "occ",
				"energy": -0.26049,
				"method": "rhf"
			},
			{
				"type": "occ",
				"energy": -0.24897,
				"method": "rhf"
			},
			{
				"type": "occ",
				"energy": -0.2296,
				"method": "rhf"
			},
			{
				"type": "occ",
				"energy": -0.20269,
				"method": "rhf"
			},
			{
				"type": "unocc",
				"energy": -0.05355,
				"method": "rhf"
			},
			{
				"type": "unocc",
				"energy": -0.01228,
				"method": "rhf"
			},
			{
				"type": "unocc",
				"energy": -0.00682,
				"method": "rhf"
			},
			{
				"type": "unocc",
				"energy": 0.00492,
				"method": "rhf"
			},
			{
				"type": "unocc",
				"energy": 0.01119,
				"method": "rhf"
			}
		],
		"cosmo_sigma_profile": { 
			"-0.025": 0.0,
			"-0.024": 0.0,
			"-0.023": 0.0,
			"-0.022": 0.0,
			"-0.021": 0.0,
			"-0.02": 0.0,
			"-0.019": 0.0,
			"-0.018": 0.0,
			"-0.017": 0.0,
			"-0.016": 0.0,
			"-0.015": 0.0,
			"-0.014": 0.194919295791,
			"-0.013": 2.39619302454,
			"-0.012": 2.97416226341,
			"-0.011": 2.73782077896,
			"-0.01": 2.76116234164,
			"-0.009": 3.4533359261,
			"-0.008": 5.5999309618,
			"-0.007": 9.73352995033,
			"-0.006": 10.8579541062,
			"-0.005": 14.2359670907,
			"-0.004": 12.7685217436,
			"-0.003": 12.7829094612,
			"-0.002": 12.4240175028,
			"-0.001": 15.7558495939,
			"0.0": 18.8631585465,
			"0.001": 24.6200543502,
			"0.002": 33.9025796489,
			"0.003": 34.2950029573,
			"0.004": 27.7608222007,
			"0.005": 20.818888456,
			"0.006": 3.49770102854,
			"0.007": 1.35815298492,
			"0.008": 2.20563625827,
			"0.009": 2.18853572577,
			"0.01": 2.05963928857,
			"0.011": 1.81400602268,
			"0.012": 1.02664066116,
			"0.013": 0.0808379434239,
			"0.014": 0.0,
			"0.015": 0.0,
			"0.016": 0.0,
			"0.017": 0.0,
			"0.018": 0.0,
			"0.019": 0.0,
			"0.02": 0.0,
			"0.021": 0.0,
			"0.022": 0.0,
			"0.023": 0.0,
			"0.024": 0.0,
			"0.025": 0.0
		}
	}
}
