{
	 "smiles": "OC(=O)CC1=C(F)C(F)=C(F)C(F)=C1F", 
	 "Tm": 382.15, 
	 "num_atms": 18, 
	 "gaussian": { 
		 "optdone": 1, 
		 "sigma_profile": "yes", 
		 "theory": "DFT", 
		 "functional": "B3LYP", 
		 "basiset": "6-31G**", 
		 "properties": { 
			 "R2extent": 3264.5558, 
			 "electric_dipole_moment_norm": 3.5991350322, 
			 "electric_quadrupole_moment_norm": 15.0748410695, 
			 "total_energy": -956.251734124, 
			 "HOMO_LUMO_gap": 0.22049, 
			 "cosmo_polarized_energy": -12.02, 
			 "cosmo_cavitation_energy": 25.89, 
			 "cosmo_dispersion_energy": -18.07, 
			 "cosmo_repulsion_energy": 1.31, 
			 "cosmo_total_nonelectrostatic_energy": 9.13, 
			 "SMD_solvation_energy": 7.89 
		},
		"coords": [
			{
				"x": -1.7249547707,
				"y": 1.5251213471,
				"z": -1.5225924642,
				"element": "O" 
			},
			{
				"x": -1.1293818358,
				"y": 2.3290835128,
				"z": -0.6118665192,
				"element": "C" 
			},
			{
				"x": -0.7856913918,
				"y": 3.4455878021,
				"z": -0.8994390215,
				"element": "O" 
			},
			{
				"x": -0.9432045498,
				"y": 1.7303861034,
				"z": 0.7951063335,
				"element": "C" 
			},
			{
				"x": -0.0331861097,
				"y": 0.5232139453,
				"z": 0.8324683519,
				"element": "C" 
			},
			{
				"x": 1.2970675973,
				"y": 0.624625973,
				"z": 1.2470733059,
				"element": "C" 
			},
			{
				"x": 1.788639349,
				"y": 1.8105095607,
				"z": 1.6289423185,
				"element": "F" 
			},
			{
				"x": 2.1419923513,
				"y": -0.4833236564,
				"z": 1.2938352485,
				"element": "C" 
			},
			{
				"x": 3.4062203688,
				"y": -0.3520226679,
				"z": 1.7017167087,
				"element": "F" 
			},
			{
				"x": 1.6615511314,
				"y": -1.7350737358,
				"z": 0.9151644974,
				"element": "C" 
			},
			{
				"x": 2.4634450729,
				"y": -2.7997680945,
				"z": 0.9526080608,
				"element": "F" 
			},
			{
				"x": 0.3398455948,
				"y": -1.871878287,
				"z": 0.4924682832,
				"element": "C" 
			},
			{
				"x": -0.1294212258,
				"y": -3.0666937132,
				"z": 0.1249693482,
				"element": "F" 
			},
			{
				"x": -0.4751691928,
				"y": -0.7466788766,
				"z": 0.4631139525,
				"element": "C" 
			},
			{
				"x": -1.7582409744,
				"y": -0.8977447785,
				"z": 0.0428917753,
				"element": "F" 
			},
			{
				"x": -1.9642643127,
				"y": 0.6701430765,
				"z": -1.1326424905,
				"element": "H" 
			},
			{
				"x": -1.9283237922,
				"y": 1.4558170003,
				"z": 1.1901324991,
				"element": "H" 
			},
			{
				"x": -0.5302233097,
				"y": 2.5215954888,
				"z": 1.4186498117,
				"element": "H" 
			}
		],
		 "valence_orbital": [ 
			{
				"type": "occ",
				"energy": -0.36769,
				"method": "rhf"
			},
			{
				"type": "occ",
				"energy": -0.32441,
				"method": "rhf"
			},
			{
				"type": "occ",
				"energy": -0.29659,
				"method": "rhf"
			},
			{
				"type": "occ",
				"energy": -0.27584,
				"method": "rhf"
			},
			{
				"type": "occ",
				"energy": -0.26892,
				"method": "rhf"
			},
			{
				"type": "unocc",
				"energy": -0.04843,
				"method": "rhf"
			},
			{
				"type": "unocc",
				"energy": -0.03519,
				"method": "rhf"
			},
			{
				"type": "unocc",
				"energy": -0.01201,
				"method": "rhf"
			},
			{
				"type": "unocc",
				"energy": 0.00757,
				"method": "rhf"
			},
			{
				"type": "unocc",
				"energy": 0.07057,
				"method": "rhf"
			}
		],
		"cosmo_sigma_profile": { 
			"-0.025": 0.0,
			"-0.024": 0.0,
			"-0.023": 0.0,
			"-0.022": 0.0,
			"-0.021": 0.0,
			"-0.02": 0.0,
			"-0.019": 0.0,
			"-0.018": 0.0,
			"-0.017": 0.0,
			"-0.016": 0.0,
			"-0.015": 0.0,
			"-0.014": 0.126477342987,
			"-0.013": 0.960670887244,
			"-0.012": 1.49591568247,
			"-0.011": 1.82938004676,
			"-0.01": 1.55026365885,
			"-0.009": 3.00889119489,
			"-0.008": 3.73627847194,
			"-0.007": 5.10790978335,
			"-0.006": 4.97133903258,
			"-0.005": 12.0280972382,
			"-0.004": 23.4849525352,
			"-0.003": 16.5920175502,
			"-0.002": 10.4273185264,
			"-0.001": 10.1346937788,
			"0.0": 10.3948854004,
			"0.001": 14.1664331448,
			"0.002": 42.0331368483,
			"0.003": 16.9541851637,
			"0.004": 1.92433806172,
			"0.005": 2.2969577061,
			"0.006": 2.03790337303,
			"0.007": 1.80286581643,
			"0.008": 3.602591967,
			"0.009": 3.53854222217,
			"0.01": 5.64953011942,
			"0.011": 5.74305022325,
			"0.012": 3.58099071385,
			"0.013": 0.414405026067,
			"0.014": 0.0,
			"0.015": 0.0,
			"0.016": 0.0,
			"0.017": 0.0,
			"0.018": 0.0,
			"0.019": 0.0,
			"0.02": 0.0,
			"0.021": 0.0,
			"0.022": 0.0,
			"0.023": 0.0,
			"0.024": 0.0,
			"0.025": 0.0
		}
	}
}
