{
	 "smiles": "FC1=C(C=CC=C1)C1=NN=C(S)N1CC1=CC=CC=C1", 
	 "Tm": 364.15, 
	 "num_atms": 32, 
	 "gaussian": { 
		 "optdone": 1, 
		 "sigma_profile": "yes", 
		 "theory": "DFT", 
		 "functional": "B3LYP", 
		 "basiset": "6-31G**", 
		 "properties": { 
			 "R2extent": 7914.9624, 
			 "electric_dipole_moment_norm": 4.64944749836, 
			 "electric_quadrupole_moment_norm": 18.3541286944, 
			 "total_energy": -1241.08074228, 
			 "HOMO_LUMO_gap": 0.18732, 
			 "cosmo_polarized_energy": -16.32, 
			 "cosmo_cavitation_energy": 38.25, 
			 "cosmo_dispersion_energy": -26.71, 
			 "cosmo_repulsion_energy": 1.99, 
			 "cosmo_total_nonelectrostatic_energy": 13.53, 
			 "SMD_solvation_energy": 4.18 
		},
		"coords": [
			{
				"x": -0.7771446119,
				"y": -3.1555563052,
				"z": 0.6282952565,
				"element": "F" 
			},
			{
				"x": -1.1838928682,
				"y": -1.8954829403,
				"z": 0.9258499811,
				"element": "C" 
			},
			{
				"x": -1.3959136465,
				"y": -0.985978353,
				"z": -0.1157602566,
				"element": "C" 
			},
			{
				"x": -1.8661203441,
				"y": 0.2913617902,
				"z": 0.2388812706,
				"element": "C" 
			},
			{
				"x": -2.0783406689,
				"y": 0.6378834706,
				"z": 1.5711545855,
				"element": "C" 
			},
			{
				"x": -1.8282817795,
				"y": -0.2908870766,
				"z": 2.5843198476,
				"element": "C" 
			},
			{
				"x": -1.3779646107,
				"y": -1.570990457,
				"z": 2.2613726709,
				"element": "C" 
			},
			{
				"x": -1.2560502708,
				"y": -1.3220642454,
				"z": -1.5425404371,
				"element": "C" 
			},
			{
				"x": -2.1667755727,
				"y": -1.0075723473,
				"z": -2.4404405488,
				"element": "N" 
			},
			{
				"x": -1.7106299676,
				"y": -1.4102163991,
				"z": -3.6742426257,
				"element": "N" 
			},
			{
				"x": -0.5316190752,
				"y": -1.957470908,
				"z": -3.4834628483,
				"element": "C" 
			},
			{
				"x": 0.4899882039,
				"y": -2.6598628476,
				"z": -4.7439360019,
				"element": "S" 
			},
			{
				"x": -0.1790659676,
				"y": -1.9398481463,
				"z": -2.1575222577,
				"element": "N" 
			},
			{
				"x": 1.1076533096,
				"y": -2.3714336956,
				"z": -1.5962165332,
				"element": "C" 
			},
			{
				"x": 2.2505976933,
				"y": -1.410100795,
				"z": -1.8694307019,
				"element": "C" 
			},
			{
				"x": 3.4064423559,
				"y": -1.8586412216,
				"z": -2.5166347496,
				"element": "C" 
			},
			{
				"x": 4.4783094353,
				"y": -0.9912873844,
				"z": -2.7401436004,
				"element": "C" 
			},
			{
				"x": 4.4001142148,
				"y": 0.3362984075,
				"z": -2.3211615126,
				"element": "C" 
			},
			{
				"x": 3.2478586928,
				"y": 0.7927029233,
				"z": -1.6750409942,
				"element": "C" 
			},
			{
				"x": 2.1814923501,
				"y": -0.0752364693,
				"z": -1.4474662792,
				"element": "C" 
			},
			{
				"x": -2.0685022091,
				"y": 0.9974986388,
				"z": -0.5590328862,
				"element": "H" 
			},
			{
				"x": -2.4384080203,
				"y": 1.6314097181,
				"z": 1.8183616907,
				"element": "H" 
			},
			{
				"x": -1.9874209705,
				"y": -0.0249563679,
				"z": 3.624776094,
				"element": "H" 
			},
			{
				"x": -1.1922554919,
				"y": -2.3244578794,
				"z": 3.0189720921,
				"element": "H" 
			},
			{
				"x": -0.5194296122,
				"y": -2.6855307932,
				"z": -5.6347028239,
				"element": "H" 
			},
			{
				"x": 0.9597363493,
				"y": -2.5113899537,
				"z": -0.5267419688,
				"element": "H" 
			},
			{
				"x": 1.3353011905,
				"y": -3.3570979091,
				"z": -2.0140583115,
				"element": "H" 
			},
			{
				"x": 3.4693380065,
				"y": -2.8918371061,
				"z": -2.8489814804,
				"element": "H" 
			},
			{
				"x": 5.3685893099,
				"y": -1.3532286949,
				"z": -3.246062149,
				"element": "H" 
			},
			{
				"x": 5.2304043164,
				"y": 1.0139210199,
				"z": -2.4972820687,
				"element": "H" 
			},
			{
				"x": 3.1816712259,
				"y": 1.8256379006,
				"z": -1.345769033,
				"element": "H" 
			},
			{
				"x": 1.2899190335,
				"y": 0.2860144271,
				"z": -0.94195342,
				"element": "H" 
			}
		],
		 "valence_orbital": [ 
			{
				"type": "occ",
				"energy": -0.26121,
				"method": "rhf"
			},
			{
				"type": "occ",
				"energy": -0.25958,
				"method": "rhf"
			},
			{
				"type": "occ",
				"energy": -0.25594,
				"method": "rhf"
			},
			{
				"type": "occ",
				"energy": -0.25096,
				"method": "rhf"
			},
			{
				"type": "occ",
				"energy": -0.22307,
				"method": "rhf"
			},
			{
				"type": "unocc",
				"energy": -0.03575,
				"method": "rhf"
			},
			{
				"type": "unocc",
				"energy": -0.0198,
				"method": "rhf"
			},
			{
				"type": "unocc",
				"energy": -0.01262,
				"method": "rhf"
			},
			{
				"type": "unocc",
				"energy": -0.0114,
				"method": "rhf"
			},
			{
				"type": "unocc",
				"energy": 0.01363,
				"method": "rhf"
			}
		],
		"cosmo_sigma_profile": { 
			"-0.025": 0.0,
			"-0.024": 0.0,
			"-0.023": 0.0,
			"-0.022": 0.0,
			"-0.021": 0.0,
			"-0.02": 0.0,
			"-0.019": 0.0,
			"-0.018": 0.0,
			"-0.017": 0.0,
			"-0.016": 0.0,
			"-0.015": 0.0,
			"-0.014": 0.0,
			"-0.013": 0.0240092784378,
			"-0.012": 1.19385478991,
			"-0.011": 1.5029832261,
			"-0.01": 1.59530509833,
			"-0.009": 1.32944219058,
			"-0.008": 3.20738820126,
			"-0.007": 9.97189554676,
			"-0.006": 20.5345044187,
			"-0.005": 23.3535008075,
			"-0.004": 24.6302977607,
			"-0.003": 21.8367779432,
			"-0.002": 19.5110636101,
			"-0.001": 21.6434410556,
			"0.0": 23.7017273094,
			"0.001": 21.155617856,
			"0.002": 23.5745874184,
			"0.003": 26.0465396251,
			"0.004": 19.7848904108,
			"0.005": 14.8057823812,
			"0.006": 6.95869462391,
			"0.007": 2.62371804326,
			"0.008": 1.33903546433,
			"0.009": 2.37017144362,
			"0.01": 2.17096068641,
			"0.011": 2.29732932091,
			"0.012": 2.36177213528,
			"0.013": 3.8038031215,
			"0.014": 2.66234150591,
			"0.015": 2.29232109765,
			"0.016": 1.58673856538,
			"0.017": 0.210793138783,
			"0.018": 0.0,
			"0.019": 0.0,
			"0.02": 0.0,
			"0.021": 0.0,
			"0.022": 0.0,
			"0.023": 0.0,
			"0.024": 0.0,
			"0.025": 0.0
		}
	}
}
