{
	 "smiles": "OC1OCCOC1O", 
	 "Tm": 374.15, 
	 "num_atms": 16, 
	 "gaussian": { 
		 "optdone": 1, 
		 "sigma_profile": "yes", 
		 "theory": "DFT", 
		 "functional": "B3LYP", 
		 "basiset": "6-31G**", 
		 "properties": { 
			 "R2extent": 841.7619, 
			 "electric_dipole_moment_norm": 2.45678583723, 
			 "electric_quadrupole_moment_norm": 6.70452676481, 
			 "total_energy": -458.104169197, 
			 "HOMO_LUMO_gap": 0.31811, 
			 "cosmo_polarized_energy": -10.7, 
			 "cosmo_cavitation_energy": 18.02, 
			 "cosmo_dispersion_energy": -14.44, 
			 "cosmo_repulsion_energy": 1.22, 
			 "cosmo_total_nonelectrostatic_energy": 4.8, 
			 "SMD_solvation_energy": 3.17 
		},
		"coords": [
			{
				"x": -0.0287858738,
				"y": -0.9571759405,
				"z": -1.7537805936,
				"element": "O" 
			},
			{
				"x": -0.0568107903,
				"y": 0.4186284261,
				"z": -1.4582859554,
				"element": "C" 
			},
			{
				"x": 1.2160978552,
				"y": 0.8744323239,
				"z": -1.1043721968,
				"element": "O" 
			},
			{
				"x": 1.7551331384,
				"y": 0.2839708769,
				"z": 0.0851041079,
				"element": "C" 
			},
			{
				"x": 0.6524154583,
				"y": -0.2251913852,
				"z": 1.0179614799,
				"element": "C" 
			},
			{
				"x": -0.4562635642,
				"y": 0.6774421544,
				"z": 0.9635524105,
				"element": "O" 
			},
			{
				"x": -1.0561844383,
				"y": 0.7333587064,
				"z": -0.3072745768,
				"element": "C" 
			},
			{
				"x": -2.1144634153,
				"y": -0.2028418121,
				"z": -0.4280369394,
				"element": "O" 
			},
			{
				"x": -0.8924957486,
				"y": -1.3089587222,
				"z": -1.4824419996,
				"element": "H" 
			},
			{
				"x": -0.3281772227,
				"y": 1.0004788446,
				"z": -2.3492060283,
				"element": "H" 
			},
			{
				"x": 2.4376046287,
				"y": -0.5353204337,
				"z": -0.1744429821,
				"element": "H" 
			},
			{
				"x": 2.3305537928,
				"y": 1.0785894535,
				"z": 0.5701297559,
				"element": "H" 
			},
			{
				"x": 0.3357228566,
				"y": -1.2350939257,
				"z": 0.7373635011,
				"element": "H" 
			},
			{
				"x": 0.9941328391,
				"y": -0.2384253601,
				"z": 2.0560360277,
				"element": "H" 
			},
			{
				"x": -1.4334272991,
				"y": 1.7586731696,
				"z": -0.4055633059,
				"element": "H" 
			},
			{
				"x": -2.6504522166,
				"y": -0.1395663759,
				"z": 0.374157295,
				"element": "H" 
			}
		],
		 "valence_orbital": [ 
			{
				"type": "occ",
				"energy": -0.31867,
				"method": "rhf"
			},
			{
				"type": "occ",
				"energy": -0.31094,
				"method": "rhf"
			},
			{
				"type": "occ",
				"energy": -0.28764,
				"method": "rhf"
			},
			{
				"type": "occ",
				"energy": -0.27591,
				"method": "rhf"
			},
			{
				"type": "occ",
				"energy": -0.2526,
				"method": "rhf"
			},
			{
				"type": "unocc",
				"energy": 0.06551,
				"method": "rhf"
			},
			{
				"type": "unocc",
				"energy": 0.09522,
				"method": "rhf"
			},
			{
				"type": "unocc",
				"energy": 0.11116,
				"method": "rhf"
			},
			{
				"type": "unocc",
				"energy": 0.1175,
				"method": "rhf"
			},
			{
				"type": "unocc",
				"energy": 0.133,
				"method": "rhf"
			}
		],
		"cosmo_sigma_profile": { 
			"-0.025": 0.0,
			"-0.024": 0.0,
			"-0.023": 0.0,
			"-0.022": 0.0,
			"-0.021": 0.0,
			"-0.02": 0.0,
			"-0.019": 0.0,
			"-0.018": 0.0,
			"-0.017": 0.363819970938,
			"-0.016": 1.03717046282,
			"-0.015": 0.638994826019,
			"-0.014": 1.15807593693,
			"-0.013": 0.874216442951,
			"-0.012": 0.513336790535,
			"-0.011": 0.792968069547,
			"-0.01": 1.3796722819,
			"-0.009": 0.872750457192,
			"-0.008": 1.44368129348,
			"-0.007": 2.99531064612,
			"-0.006": 11.0527470517,
			"-0.005": 14.620973333,
			"-0.004": 14.1563840928,
			"-0.003": 11.3643447378,
			"-0.002": 7.96091130859,
			"-0.001": 6.81017369622,
			"0.0": 5.44079119189,
			"0.001": 5.49409176177,
			"0.002": 5.02197404134,
			"0.003": 4.06495643436,
			"0.004": 3.79675715777,
			"0.005": 4.29537184142,
			"0.006": 5.33632628584,
			"0.007": 4.41328206942,
			"0.008": 3.37464496898,
			"0.009": 3.68639277544,
			"0.01": 5.43508308488,
			"0.011": 4.36537800921,
			"0.012": 4.36733088625,
			"0.013": 1.99064440853,
			"0.014": 0.898549824394,
			"0.015": 0.0,
			"0.016": 0.0,
			"0.017": 0.0,
			"0.018": 0.0,
			"0.019": 0.0,
			"0.02": 0.0,
			"0.021": 0.0,
			"0.022": 0.0,
			"0.023": 0.0,
			"0.024": 0.0,
			"0.025": 0.0
		}
	}
}
