{
	 "smiles": "OC1=CC(O)=C(C=O)C(O)=C1", 
	 "Tm": 468.15, 
	 "num_atms": 17, 
	 "gaussian": { 
		 "optdone": 1, 
		 "sigma_profile": "yes", 
		 "theory": "DFT", 
		 "functional": "B3LYP", 
		 "basiset": "6-31G**", 
		 "properties": { 
			 "R2extent": 2241.7021, 
			 "electric_dipole_moment_norm": 6.31129780948, 
			 "electric_quadrupole_moment_norm": 12.8569852625, 
			 "total_energy": -571.228567945, 
			 "HOMO_LUMO_gap": 0.18609, 
			 "cosmo_polarized_energy": -25.24, 
			 "cosmo_cavitation_energy": 21.98, 
			 "cosmo_dispersion_energy": -16.53, 
			 "cosmo_repulsion_energy": 1.33, 
			 "cosmo_total_nonelectrostatic_energy": 6.77, 
			 "SMD_solvation_energy": 6.04 
		},
		"coords": [
			{
				"x": -2.9334779992,
				"y": 2.6740580836,
				"z": -0.1374798548,
				"element": "O" 
			},
			{
				"x": -2.2319109496,
				"y": 1.5099301359,
				"z": -0.1291409158,
				"element": "C" 
			},
			{
				"x": -1.2077000367,
				"y": 1.262401506,
				"z": 0.7902519573,
				"element": "C" 
			},
			{
				"x": -0.5311262085,
				"y": 0.0432861359,
				"z": 0.7380732366,
				"element": "C" 
			},
			{
				"x": 0.4716774381,
				"y": -0.2303151395,
				"z": 1.6187743753,
				"element": "O" 
			},
			{
				"x": -0.8462896407,
				"y": -0.9535859165,
				"z": -0.2152693619,
				"element": "C" 
			},
			{
				"x": -0.0930093675,
				"y": -2.2215018014,
				"z": -0.21757194,
				"element": "C" 
			},
			{
				"x": -0.2629157604,
				"y": -3.157361337,
				"z": -0.9804277058,
				"element": "O" 
			},
			{
				"x": -1.8927082242,
				"y": -0.660336671,
				"z": -1.129387288,
				"element": "C" 
			},
			{
				"x": -2.2129144104,
				"y": -1.5960494852,
				"z": -2.0498108007,
				"element": "O" 
			},
			{
				"x": -2.5767558352,
				"y": 0.5560769476,
				"z": -1.0867351901,
				"element": "C" 
			},
			{
				"x": -2.6087124454,
				"y": 3.2526298456,
				"z": 0.5647506035,
				"element": "H" 
			},
			{
				"x": -0.9410455475,
				"y": 2.0085561457,
				"z": 1.5361254853,
				"element": "H" 
			},
			{
				"x": 0.5900206791,
				"y": 0.5217097023,
				"z": 2.2126446489,
				"element": "H" 
			},
			{
				"x": 0.6863899138,
				"y": -2.273651503,
				"z": 0.5671479846,
				"element": "H" 
			},
			{
				"x": -2.9353453288,
				"y": -1.2593189145,
				"z": -2.597244908,
				"element": "H" 
			},
			{
				"x": -3.3762762769,
				"y": 0.7767722656,
				"z": -1.7873003264,
				"element": "H" 
			}
		],
		 "valence_orbital": [ 
			{
				"type": "occ",
				"energy": -0.35803,
				"method": "rhf"
			},
			{
				"type": "occ",
				"energy": -0.29929,
				"method": "rhf"
			},
			{
				"type": "occ",
				"energy": -0.23223,
				"method": "rhf"
			},
			{
				"type": "occ",
				"energy": -0.23067,
				"method": "rhf"
			},
			{
				"type": "occ",
				"energy": -0.22421,
				"method": "rhf"
			},
			{
				"type": "unocc",
				"energy": -0.03812,
				"method": "rhf"
			},
			{
				"type": "unocc",
				"energy": 0.00543,
				"method": "rhf"
			},
			{
				"type": "unocc",
				"energy": 0.04654,
				"method": "rhf"
			},
			{
				"type": "unocc",
				"energy": 0.05563,
				"method": "rhf"
			},
			{
				"type": "unocc",
				"energy": 0.05583,
				"method": "rhf"
			}
		],
		"cosmo_sigma_profile": { 
			"-0.025": 0.0,
			"-0.024": 0.0,
			"-0.023": 0.0,
			"-0.022": 0.0,
			"-0.021": 0.0,
			"-0.02": 0.0,
			"-0.019": 0.598288773364,
			"-0.018": 3.32801599784,
			"-0.017": 4.15620294912,
			"-0.016": 2.67835905929,
			"-0.015": 2.63165885754,
			"-0.014": 3.16855452631,
			"-0.013": 3.36785580105,
			"-0.012": 2.78533005519,
			"-0.011": 2.89468473402,
			"-0.01": 3.48774364856,
			"-0.009": 3.222323547,
			"-0.008": 3.02305713842,
			"-0.007": 3.22039339088,
			"-0.006": 3.75006362324,
			"-0.005": 3.5313988579,
			"-0.004": 3.56161214051,
			"-0.003": 5.18731433179,
			"-0.002": 5.73220578357,
			"-0.001": 7.43584275001,
			"0.0": 7.35928186855,
			"0.001": 9.69419587573,
			"0.002": 19.3244591438,
			"0.003": 16.5471529184,
			"0.004": 7.89708618009,
			"0.005": 5.20476194988,
			"0.006": 5.12258324801,
			"0.007": 4.73961605093,
			"0.008": 5.48194810667,
			"0.009": 4.19939533716,
			"0.01": 3.80662692687,
			"0.011": 2.82237378039,
			"0.012": 3.74160549877,
			"0.013": 5.02641148336,
			"0.014": 2.83316915728,
			"0.015": 1.54082653019,
			"0.016": 1.56240582332,
			"0.017": 0.360421757877,
			"0.018": 0.0,
			"0.019": 0.0,
			"0.02": 0.0,
			"0.021": 0.0,
			"0.022": 0.0,
			"0.023": 0.0,
			"0.024": 0.0,
			"0.025": 0.0
		}
	}
}
