{
	 "smiles": "NC1=CC=CC=C1S(N)(=O)=O", 
	 "Tm": 428.15, 
	 "num_atms": 19, 
	 "gaussian": { 
		 "optdone": 1, 
		 "sigma_profile": "yes", 
		 "theory": "DFT", 
		 "functional": "B3LYP", 
		 "basiset": "6-31G**", 
		 "properties": { 
			 "R2extent": 2809.4466, 
			 "electric_dipole_moment_norm": 5.73680748413, 
			 "electric_quadrupole_moment_norm": 18.4765466662, 
			 "total_energy": -891.53744426, 
			 "HOMO_LUMO_gap": 0.19596, 
			 "cosmo_polarized_energy": -17.66, 
			 "cosmo_cavitation_energy": 23.55, 
			 "cosmo_dispersion_energy": -18.44, 
			 "cosmo_repulsion_energy": 1.43, 
			 "cosmo_total_nonelectrostatic_energy": 6.53, 
			 "SMD_solvation_energy": 3.67 
		},
		"coords": [
			{
				"x": -2.3389270126,
				"y": -1.8548200571,
				"z": 0.7021871641,
				"element": "N" 
			},
			{
				"x": -1.142697339,
				"y": -1.1434038072,
				"z": 0.61814292,
				"element": "C" 
			},
			{
				"x": -0.7094774732,
				"y": -0.3085898739,
				"z": 1.6623816947,
				"element": "C" 
			},
			{
				"x": 0.5109355924,
				"y": 0.3565644899,
				"z": 1.5881138838,
				"element": "C" 
			},
			{
				"x": 1.3385564074,
				"y": 0.2177645744,
				"z": 0.4702842262,
				"element": "C" 
			},
			{
				"x": 0.9357697926,
				"y": -0.614577161,
				"z": -0.5710932983,
				"element": "C" 
			},
			{
				"x": -0.2816362684,
				"y": -1.2935039086,
				"z": -0.4938963711,
				"element": "C" 
			},
			{
				"x": -0.7309443546,
				"y": -2.4105753529,
				"z": -1.8182808432,
				"element": "S" 
			},
			{
				"x": -0.7023558199,
				"y": -3.9543578707,
				"z": -1.1492802349,
				"element": "N" 
			},
			{
				"x": 0.3223305421,
				"y": -2.3782869349,
				"z": -2.8299649236,
				"element": "O" 
			},
			{
				"x": -2.1389874742,
				"y": -2.1563210722,
				"z": -2.1546263496,
				"element": "O" 
			},
			{
				"x": -2.9428060395,
				"y": -1.5595447808,
				"z": 1.4579030329,
				"element": "H" 
			},
			{
				"x": -2.8324516711,
				"y": -1.9361768201,
				"z": -0.1831389522,
				"element": "H" 
			},
			{
				"x": -1.3489475825,
				"y": -0.1795119116,
				"z": 2.5320841085,
				"element": "H" 
			},
			{
				"x": 0.8131341495,
				"y": 0.9991926417,
				"z": 2.4101307563,
				"element": "H" 
			},
			{
				"x": 2.2833060629,
				"y": 0.7477093414,
				"z": 0.4121192056,
				"element": "H" 
			},
			{
				"x": 1.5510081485,
				"y": -0.7549382647,
				"z": -1.4533612138,
				"element": "H" 
			},
			{
				"x": -1.3248074185,
				"y": -4.0134826528,
				"z": -0.3448924841,
				"element": "H" 
			},
			{
				"x": 0.246497758,
				"y": -4.2370405791,
				"z": -0.9199123214,
				"element": "H" 
			}
		],
		 "valence_orbital": [ 
			{
				"type": "occ",
				"energy": -0.31873,
				"method": "rhf"
			},
			{
				"type": "occ",
				"energy": -0.30613,
				"method": "rhf"
			},
			{
				"type": "occ",
				"energy": -0.29857,
				"method": "rhf"
			},
			{
				"type": "occ",
				"energy": -0.26742,
				"method": "rhf"
			},
			{
				"type": "occ",
				"energy": -0.22965,
				"method": "rhf"
			},
			{
				"type": "unocc",
				"energy": -0.03369,
				"method": "rhf"
			},
			{
				"type": "unocc",
				"energy": -0.00837,
				"method": "rhf"
			},
			{
				"type": "unocc",
				"energy": 0.05964,
				"method": "rhf"
			},
			{
				"type": "unocc",
				"energy": 0.07066,
				"method": "rhf"
			},
			{
				"type": "unocc",
				"energy": 0.08115,
				"method": "rhf"
			}
		],
		"cosmo_sigma_profile": { 
			"-0.025": 0.0,
			"-0.024": 0.0,
			"-0.023": 0.0,
			"-0.022": 0.0,
			"-0.021": 0.0,
			"-0.02": 0.0,
			"-0.019": 0.0,
			"-0.018": 0.0,
			"-0.017": 0.0,
			"-0.016": 0.0710280831798,
			"-0.015": 1.37631556459,
			"-0.014": 1.12380467174,
			"-0.013": 3.00834866129,
			"-0.012": 4.41955040949,
			"-0.011": 3.65148416719,
			"-0.01": 3.73507001215,
			"-0.009": 4.29910438638,
			"-0.008": 3.93327840654,
			"-0.007": 5.52712975495,
			"-0.006": 10.832952002,
			"-0.005": 10.1588418682,
			"-0.004": 9.80361748678,
			"-0.003": 9.32184213133,
			"-0.002": 8.11924319264,
			"-0.001": 7.96489600961,
			"0.0": 9.3685881549,
			"0.001": 9.54479163638,
			"0.002": 10.1870555007,
			"0.003": 11.9635823292,
			"0.004": 12.6796749586,
			"0.005": 6.58596308356,
			"0.006": 4.17084558262,
			"0.007": 4.5366214438,
			"0.008": 5.4497311453,
			"0.009": 4.74946804404,
			"0.01": 7.34914190486,
			"0.011": 8.28228402688,
			"0.012": 4.72266570109,
			"0.013": 0.503883284904,
			"0.014": 0.0,
			"0.015": 0.0,
			"0.016": 0.0,
			"0.017": 0.0,
			"0.018": 0.0,
			"0.019": 0.0,
			"0.02": 0.0,
			"0.021": 0.0,
			"0.022": 0.0,
			"0.023": 0.0,
			"0.024": 0.0,
			"0.025": 0.0
		}
	}
}
