{
	 "smiles": "COC1=CC(OC)=C(CCCC(O)=O)C=C1", 
	 "Tm": 320.15, 
	 "num_atms": 32, 
	 "gaussian": { 
		 "optdone": 1, 
		 "sigma_profile": "yes", 
		 "theory": "DFT", 
		 "functional": "B3LYP", 
		 "basiset": "6-31G**", 
		 "properties": { 
			 "R2extent": 4038.7081, 
			 "electric_dipole_moment_norm": 1.01256185984, 
			 "electric_quadrupole_moment_norm": 11.0293829234, 
			 "total_energy": -767.815671203, 
			 "HOMO_LUMO_gap": 0.20338, 
			 "cosmo_polarized_energy": -12.78, 
			 "cosmo_cavitation_energy": 34.19, 
			 "cosmo_dispersion_energy": -23.44, 
			 "cosmo_repulsion_energy": 1.85, 
			 "cosmo_total_nonelectrostatic_energy": 12.6, 
			 "SMD_solvation_energy": 7.74 
		},
		"coords": [
			{
				"x": 0.0143423358,
				"y": 4.1734686004,
				"z": -2.0389841634,
				"element": "C" 
			},
			{
				"x": 1.2127061005,
				"y": 3.7601293525,
				"z": -1.4060476535,
				"element": "O" 
			},
			{
				"x": 1.428900328,
				"y": 2.4216494839,
				"z": -1.2292170295,
				"element": "C" 
			},
			{
				"x": 0.5324284282,
				"y": 1.425390769,
				"z": -1.6334200538,
				"element": "C" 
			},
			{
				"x": 0.8465346292,
				"y": 0.0780512966,
				"z": -1.4035964106,
				"element": "C" 
			},
			{
				"x": 0.0263520836,
				"y": -0.9493934172,
				"z": -1.7817112655,
				"element": "O" 
			},
			{
				"x": -1.2932945949,
				"y": -0.6486541805,
				"z": -2.2123643378,
				"element": "C" 
			},
			{
				"x": 2.0447250886,
				"y": -0.2954615579,
				"z": -0.7660497456,
				"element": "C" 
			},
			{
				"x": 2.3731487959,
				"y": -1.7470702693,
				"z": -0.4875155311,
				"element": "C" 
			},
			{
				"x": 1.9864281727,
				"y": -2.2515079113,
				"z": 0.9213404292,
				"element": "C" 
			},
			{
				"x": 0.4774287961,
				"y": -2.2472932904,
				"z": 1.2344340021,
				"element": "C" 
			},
			{
				"x": -0.1390644077,
				"y": -0.8992126909,
				"z": 1.54524192,
				"element": "C" 
			},
			{
				"x": 0.6026460755,
				"y": -0.1882133672,
				"z": 2.4294743967,
				"element": "O" 
			},
			{
				"x": -1.201369998,
				"y": -0.490716991,
				"z": 1.1234133591,
				"element": "O" 
			},
			{
				"x": 2.9162819207,
				"y": 0.7310300863,
				"z": -0.3850617121,
				"element": "C" 
			},
			{
				"x": 2.6310428474,
				"y": 2.0744249934,
				"z": -0.6030872498,
				"element": "C" 
			},
			{
				"x": 0.0518671516,
				"y": 5.2636038455,
				"z": -2.0749499896,
				"element": "H" 
			},
			{
				"x": -0.8737939409,
				"y": 3.8633129734,
				"z": -1.4725976634,
				"element": "H" 
			},
			{
				"x": -0.0612122699,
				"y": 3.7832536793,
				"z": -3.0626313696,
				"element": "H" 
			},
			{
				"x": -0.3979088014,
				"y": 1.6882995959,
				"z": -2.1156164847,
				"element": "H" 
			},
			{
				"x": -1.2943565761,
				"y": -0.0740876933,
				"z": -3.1479712089,
				"element": "H" 
			},
			{
				"x": -1.7751885763,
				"y": -1.6114869834,
				"z": -2.3907722377,
				"element": "H" 
			},
			{
				"x": -1.8439627014,
				"y": -0.1076430978,
				"z": -1.435771163,
				"element": "H" 
			},
			{
				"x": 3.4547205985,
				"y": -1.889291546,
				"z": -0.6026667645,
				"element": "H" 
			},
			{
				"x": 1.8908514142,
				"y": -2.3819728963,
				"z": -1.2370144129,
				"element": "H" 
			},
			{
				"x": 2.3444501032,
				"y": -3.2838737414,
				"z": 1.0181199228,
				"element": "H" 
			},
			{
				"x": 2.5106422473,
				"y": -1.6649186539,
				"z": 1.6831429541,
				"element": "H" 
			},
			{
				"x": 0.3046382223,
				"y": -2.8640384329,
				"z": 2.1268864364,
				"element": "H" 
			},
			{
				"x": -0.1009519837,
				"y": -2.6818462338,
				"z": 0.4169047103,
				"element": "H" 
			},
			{
				"x": 0.1292364718,
				"y": 0.6499223326,
				"z": 2.5617135949,
				"element": "H" 
			},
			{
				"x": 3.8511661716,
				"y": 0.4631710964,
				"z": 0.1020101952,
				"element": "H" 
			},
			{
				"x": 3.3150658676,
				"y": 2.8603748491,
				"z": -0.3026354739,
				"element": "H" 
			}
		],
		 "valence_orbital": [ 
			{
				"type": "occ",
				"energy": -0.30696,
				"method": "rhf"
			},
			{
				"type": "occ",
				"energy": -0.28573,
				"method": "rhf"
			},
			{
				"type": "occ",
				"energy": -0.26326,
				"method": "rhf"
			},
			{
				"type": "occ",
				"energy": -0.2291,
				"method": "rhf"
			},
			{
				"type": "occ",
				"energy": -0.19766,
				"method": "rhf"
			},
			{
				"type": "unocc",
				"energy": 0.00572,
				"method": "rhf"
			},
			{
				"type": "unocc",
				"energy": 0.01974,
				"method": "rhf"
			},
			{
				"type": "unocc",
				"energy": 0.02778,
				"method": "rhf"
			},
			{
				"type": "unocc",
				"energy": 0.0824,
				"method": "rhf"
			},
			{
				"type": "unocc",
				"energy": 0.09288,
				"method": "rhf"
			}
		],
		"cosmo_sigma_profile": { 
			"-0.025": 0.0,
			"-0.024": 0.0,
			"-0.023": 0.0,
			"-0.022": 0.0,
			"-0.021": 0.0,
			"-0.02": 0.0,
			"-0.019": 0.0,
			"-0.018": 0.192478576903,
			"-0.017": 1.29875891385,
			"-0.016": 0.528658763281,
			"-0.015": 0.732867702638,
			"-0.014": 0.681238715181,
			"-0.013": 0.839885970063,
			"-0.012": 0.299907108084,
			"-0.011": 0.642292866781,
			"-0.01": 0.787051870682,
			"-0.009": 0.880418481387,
			"-0.008": 0.541204502354,
			"-0.007": 0.711825881997,
			"-0.006": 10.1912251011,
			"-0.005": 21.6915302951,
			"-0.004": 25.442560537,
			"-0.003": 32.2338765691,
			"-0.002": 28.52408285,
			"-0.001": 19.4165324826,
			"0.0": 16.1830722324,
			"0.001": 9.88933741032,
			"0.002": 10.6866220839,
			"0.003": 13.0715304568,
			"0.004": 14.9750921348,
			"0.005": 15.982388353,
			"0.006": 12.9086167314,
			"0.007": 8.23629728875,
			"0.008": 5.49124071213,
			"0.009": 4.8342831254,
			"0.01": 3.63617784662,
			"0.011": 3.26471648235,
			"0.012": 2.98322417963,
			"0.013": 0.466447888362,
			"0.014": 0.0,
			"0.015": 0.0,
			"0.016": 0.0,
			"0.017": 0.0,
			"0.018": 0.0,
			"0.019": 0.0,
			"0.02": 0.0,
			"0.021": 0.0,
			"0.022": 0.0,
			"0.023": 0.0,
			"0.024": 0.0,
			"0.025": 0.0
		}
	}
}
