{
	 "smiles": "NC1=NC(=O)C(CC(O)=O)S1", 
	 "Tm": 530.15, 
	 "num_atms": 17, 
	 "gaussian": { 
		 "optdone": 1, 
		 "sigma_profile": "yes", 
		 "theory": "DFT", 
		 "functional": "B3LYP", 
		 "basiset": "6-31G**", 
		 "properties": { 
			 "R2extent": 2355.3223, 
			 "electric_dipole_moment_norm": 4.89824769688, 
			 "electric_quadrupole_moment_norm": 31.667280271, 
			 "total_energy": -927.524831338, 
			 "HOMO_LUMO_gap": 0.22011, 
			 "cosmo_polarized_energy": -29.79, 
			 "cosmo_cavitation_energy": 23.3, 
			 "cosmo_dispersion_energy": -17.58, 
			 "cosmo_repulsion_energy": 1.4, 
			 "cosmo_total_nonelectrostatic_energy": 7.13, 
			 "SMD_solvation_energy": 3.54 
		},
		"coords": [
			{
				"x": 0.1918465786,
				"y": -0.7707011666,
				"z": -2.1422935826,
				"element": "N" 
			},
			{
				"x": -0.0376281264,
				"y": -0.7871263527,
				"z": -0.817514702,
				"element": "C" 
			},
			{
				"x": -0.5097507845,
				"y": -1.8265351566,
				"z": -0.2013440474,
				"element": "N" 
			},
			{
				"x": -0.6798642916,
				"y": -1.5973609423,
				"z": 1.1515923624,
				"element": "C" 
			},
			{
				"x": -1.1511077967,
				"y": -2.3699392217,
				"z": 1.9597721952,
				"element": "O" 
			},
			{
				"x": -0.1743206288,
				"y": -0.1960733084,
				"z": 1.6341583317,
				"element": "C" 
			},
			{
				"x": -1.2265378267,
				"y": 0.5175088282,
				"z": 2.4839197711,
				"element": "C" 
			},
			{
				"x": -2.5335255405,
				"y": 0.8121539116,
				"z": 1.7552955933,
				"element": "C" 
			},
			{
				"x": -3.420384776,
				"y": 1.5670309251,
				"z": 2.4552286716,
				"element": "O" 
			},
			{
				"x": -2.8122240191,
				"y": 0.4138223772,
				"z": 0.6537777244,
				"element": "O" 
			},
			{
				"x": 0.3854598775,
				"y": 0.6784337931,
				"z": 0.127874858,
				"element": "S" 
			},
			{
				"x": -0.1433848754,
				"y": -1.5571703647,
				"z": -2.6790455665,
				"element": "H" 
			},
			{
				"x": 0.4033198417,
				"y": 0.0886557497,
				"z": -2.6230786048,
				"element": "H" 
			},
			{
				"x": 0.7044259474,
				"y": -0.3746547231,
				"z": 2.2606848828,
				"element": "H" 
			},
			{
				"x": -1.4572598031,
				"y": -0.1589146276,
				"z": 3.3180390283,
				"element": "H" 
			},
			{
				"x": -0.8247792915,
				"y": 1.4420551656,
				"z": 2.9156320558,
				"element": "H" 
			},
			{
				"x": -3.0631844848,
				"y": 1.7929151132,
				"z": 3.3259010287,
				"element": "H" 
			}
		],
		 "valence_orbital": [ 
			{
				"type": "occ",
				"energy": -0.28638,
				"method": "rhf"
			},
			{
				"type": "occ",
				"energy": -0.28327,
				"method": "rhf"
			},
			{
				"type": "occ",
				"energy": -0.26938,
				"method": "rhf"
			},
			{
				"type": "occ",
				"energy": -0.25274,
				"method": "rhf"
			},
			{
				"type": "occ",
				"energy": -0.24898,
				"method": "rhf"
			},
			{
				"type": "unocc",
				"energy": -0.02887,
				"method": "rhf"
			},
			{
				"type": "unocc",
				"energy": -0.00964,
				"method": "rhf"
			},
			{
				"type": "unocc",
				"energy": 0.00358,
				"method": "rhf"
			},
			{
				"type": "unocc",
				"energy": 0.04472,
				"method": "rhf"
			},
			{
				"type": "unocc",
				"energy": 0.05565,
				"method": "rhf"
			}
		],
		"cosmo_sigma_profile": { 
			"-0.025": 0.0,
			"-0.024": 0.0,
			"-0.023": 0.0,
			"-0.022": 0.0,
			"-0.021": 0.0,
			"-0.02": 0.218179810481,
			"-0.019": 1.1546111079,
			"-0.018": 1.00590155361,
			"-0.017": 1.54547962789,
			"-0.016": 3.04358472049,
			"-0.015": 3.75179402929,
			"-0.014": 3.50811116278,
			"-0.013": 3.76253932348,
			"-0.012": 3.58020416584,
			"-0.011": 3.93279277928,
			"-0.01": 3.05066862809,
			"-0.009": 4.57668189253,
			"-0.008": 9.31175060034,
			"-0.007": 8.72912955339,
			"-0.006": 7.67046468735,
			"-0.005": 6.80367529997,
			"-0.004": 5.34391320769,
			"-0.003": 4.70217059376,
			"-0.002": 3.80787602667,
			"-0.001": 6.27096802641,
			"0.0": 6.08720846183,
			"0.001": 7.49142466128,
			"0.002": 8.69259583278,
			"0.003": 6.93242248513,
			"0.004": 5.71647602816,
			"0.005": 6.4127122653,
			"0.006": 5.62440204293,
			"0.007": 6.55237453953,
			"0.008": 5.80016254189,
			"0.009": 7.73822031897,
			"0.01": 8.41794639706,
			"0.011": 7.82339680682,
			"0.012": 8.26232707628,
			"0.013": 6.09162709458,
			"0.014": 2.75273206437,
			"0.015": 0.51111175786,
			"0.016": 0.0,
			"0.017": 0.0,
			"0.018": 0.0,
			"0.019": 0.0,
			"0.02": 0.0,
			"0.021": 0.0,
			"0.022": 0.0,
			"0.023": 0.0,
			"0.024": 0.0,
			"0.025": 0.0
		}
	}
}
