{
	 "smiles": "NNC1=NC(=O)C(=O)N1", 
	 "Tm": 418.15, 
	 "num_atms": 13, 
	 "gaussian": { 
		 "optdone": 1, 
		 "sigma_profile": "yes", 
		 "theory": "DFT", 
		 "functional": "B3LYP", 
		 "basiset": "6-31G**", 
		 "properties": { 
			 "R2extent": 1529.4014, 
			 "electric_dipole_moment_norm": 6.93527471987, 
			 "electric_quadrupole_moment_norm": 16.5440484492, 
			 "total_energy": -486.150558892, 
			 "HOMO_LUMO_gap": 0.16702, 
			 "cosmo_polarized_energy": -28.03, 
			 "cosmo_cavitation_energy": 18.75, 
			 "cosmo_dispersion_energy": -14.06, 
			 "cosmo_repulsion_energy": 1.19, 
			 "cosmo_total_nonelectrostatic_energy": 5.88, 
			 "SMD_solvation_energy": 4.08 
		},
		"coords": [
			{
				"x": -0.1254684245,
				"y": -2.2510495317,
				"z": -0.7793165399,
				"element": "N" 
			},
			{
				"x": 0.2872331948,
				"y": -1.0787104748,
				"z": -0.1179991266,
				"element": "N" 
			},
			{
				"x": -0.4623104941,
				"y": 0.0389496311,
				"z": -0.1174915531,
				"element": "C" 
			},
			{
				"x": -1.5724729411,
				"y": 0.1654230061,
				"z": -0.8056147622,
				"element": "N" 
			},
			{
				"x": -2.033874774,
				"y": 1.4570386102,
				"z": -0.5554354602,
				"element": "C" 
			},
			{
				"x": -3.0305971581,
				"y": 1.9907591835,
				"z": -0.9815144389,
				"element": "O" 
			},
			{
				"x": -1.0178577735,
				"y": 2.1555379569,
				"z": 0.4165009334,
				"element": "C" 
			},
			{
				"x": -1.006624135,
				"y": 3.2694913783,
				"z": 0.8732557938,
				"element": "O" 
			},
			{
				"x": -0.0780037556,
				"y": 1.1405349994,
				"z": 0.6397993529,
				"element": "N" 
			},
			{
				"x": -0.0286563838,
				"y": -2.0892585273,
				"z": -1.7808960631,
				"element": "H" 
			},
			{
				"x": -1.125393076,
				"y": -2.3622988877,
				"z": -0.6107947978,
				"element": "H" 
			},
			{
				"x": 1.0266722033,
				"y": -1.2042597927,
				"z": 0.557777614,
				"element": "H" 
			},
			{
				"x": 0.7772535176,
				"y": 1.2539424487,
				"z": 1.1646290477,
				"element": "H" 
			}
		],
		 "valence_orbital": [ 
			{
				"type": "occ",
				"energy": -0.31498,
				"method": "rhf"
			},
			{
				"type": "occ",
				"energy": -0.30293,
				"method": "rhf"
			},
			{
				"type": "occ",
				"energy": -0.30097,
				"method": "rhf"
			},
			{
				"type": "occ",
				"energy": -0.26867,
				"method": "rhf"
			},
			{
				"type": "occ",
				"energy": -0.24569,
				"method": "rhf"
			},
			{
				"type": "unocc",
				"energy": -0.07867,
				"method": "rhf"
			},
			{
				"type": "unocc",
				"energy": 0.03289,
				"method": "rhf"
			},
			{
				"type": "unocc",
				"energy": 0.03881,
				"method": "rhf"
			},
			{
				"type": "unocc",
				"energy": 0.06753,
				"method": "rhf"
			},
			{
				"type": "unocc",
				"energy": 0.08033,
				"method": "rhf"
			}
		],
		"cosmo_sigma_profile": { 
			"-0.025": 0.0,
			"-0.024": 0.0,
			"-0.023": 0.0,
			"-0.022": 0.0,
			"-0.021": 0.169959469108,
			"-0.02": 0.524129372943,
			"-0.019": 1.318426445,
			"-0.018": 2.60622264509,
			"-0.017": 2.95337098318,
			"-0.016": 1.75620721508,
			"-0.015": 2.03064234663,
			"-0.014": 1.73370380741,
			"-0.013": 1.80385624503,
			"-0.012": 3.5307381439,
			"-0.011": 4.17761643309,
			"-0.01": 3.61039211091,
			"-0.009": 3.03805762501,
			"-0.008": 4.56042489532,
			"-0.007": 5.28526384469,
			"-0.006": 4.86180382616,
			"-0.005": 6.09419775062,
			"-0.004": 8.77244033058,
			"-0.003": 5.69953965166,
			"-0.002": 5.45330019489,
			"-0.001": 4.6836597029,
			"0.0": 4.00414358408,
			"0.001": 4.60748958716,
			"0.002": 2.51906319702,
			"0.003": 3.60300862349,
			"0.004": 3.65578461048,
			"0.005": 2.92329386991,
			"0.006": 3.45581580856,
			"0.007": 3.90435670415,
			"0.008": 5.22645269668,
			"0.009": 6.14293555634,
			"0.01": 9.53310327505,
			"0.011": 11.2197316725,
			"0.012": 7.58182083418,
			"0.013": 3.74836180387,
			"0.014": 1.68095716066,
			"0.015": 0.905382438964,
			"0.016": 0.0600217666931,
			"0.017": 0.0,
			"0.018": 0.0,
			"0.019": 0.0,
			"0.02": 0.0,
			"0.021": 0.0,
			"0.022": 0.0,
			"0.023": 0.0,
			"0.024": 0.0,
			"0.025": 0.0
		}
	}
}
