{
	 "smiles": "NC1=C(C(=O)C2=CC=CC=C12)C1=CC=CC=C1", 
	 "Tm": 545.15, 
	 "num_atms": 28, 
	 "gaussian": { 
		 "optdone": 1, 
		 "sigma_profile": "yes", 
		 "theory": "DFT", 
		 "functional": "B3LYP", 
		 "basiset": "6-31G**", 
		 "properties": { 
			 "R2extent": 4702.0556, 
			 "electric_dipole_moment_norm": 5.04911884788, 
			 "electric_quadrupole_moment_norm": 12.820771905, 
			 "total_energy": -708.205606549, 
			 "HOMO_LUMO_gap": 0.12333, 
			 "cosmo_polarized_energy": -16.71, 
			 "cosmo_cavitation_energy": 31.93, 
			 "cosmo_dispersion_energy": -23.52, 
			 "cosmo_repulsion_energy": 1.78, 
			 "cosmo_total_nonelectrostatic_energy": 10.19, 
			 "SMD_solvation_energy": 5.4 
		},
		"coords": [
			{
				"x": -0.7675556044,
				"y": -2.3264318703,
				"z": 1.623357013,
				"element": "N" 
			},
			{
				"x": 0.1134019929,
				"y": -1.3892462507,
				"z": 1.1764597759,
				"element": "C" 
			},
			{
				"x": -0.1413963448,
				"y": -0.0953240589,
				"z": 0.765779413,
				"element": "C" 
			},
			{
				"x": 1.1456010077,
				"y": 0.4904470878,
				"z": 0.3174607639,
				"element": "C" 
			},
			{
				"x": 1.3532359536,
				"y": 1.5943277745,
				"z": -0.1672492226,
				"element": "O" 
			},
			{
				"x": 2.1997443441,
				"y": -0.5622208,
				"z": 0.5516197788,
				"element": "C" 
			},
			{
				"x": 3.5615099003,
				"y": -0.5327153716,
				"z": 0.327649834,
				"element": "C" 
			},
			{
				"x": 4.3093728578,
				"y": -1.681589458,
				"z": 0.648048814,
				"element": "C" 
			},
			{
				"x": 3.6835205666,
				"y": -2.8089871885,
				"z": 1.1772740633,
				"element": "C" 
			},
			{
				"x": 2.2937067961,
				"y": -2.829569341,
				"z": 1.4017911259,
				"element": "C" 
			},
			{
				"x": 1.5644778985,
				"y": -1.6951075122,
				"z": 1.0780617389,
				"element": "C" 
			},
			{
				"x": -1.4357089494,
				"y": 0.5938706397,
				"z": 0.7214660181,
				"element": "C" 
			},
			{
				"x": -1.702047631,
				"y": 1.5600592427,
				"z": -0.2705637654,
				"element": "C" 
			},
			{
				"x": -2.9376703557,
				"y": 2.199696002,
				"z": -0.3283189269,
				"element": "C" 
			},
			{
				"x": -3.9407324771,
				"y": 1.8992147187,
				"z": 0.5972359403,
				"element": "C" 
			},
			{
				"x": -3.6863482952,
				"y": 0.9618828278,
				"z": 1.5986860438,
				"element": "C" 
			},
			{
				"x": -2.4484288815,
				"y": 0.3221561278,
				"z": 1.6650879929,
				"element": "C" 
			},
			{
				"x": -0.4839593835,
				"y": -3.2941975161,
				"z": 1.5833952988,
				"element": "H" 
			},
			{
				"x": -1.7508728843,
				"y": -2.1570864432,
				"z": 1.4622558636,
				"element": "H" 
			},
			{
				"x": 4.0302415856,
				"y": 0.3561421623,
				"z": -0.0836589255,
				"element": "H" 
			},
			{
				"x": 5.3829079243,
				"y": -1.6907904631,
				"z": 0.4843914541,
				"element": "H" 
			},
			{
				"x": 4.275309472,
				"y": -3.6853875903,
				"z": 1.4248778979,
				"element": "H" 
			},
			{
				"x": 1.8290087214,
				"y": -3.7147586336,
				"z": 1.8290369643,
				"element": "H" 
			},
			{
				"x": -0.9247598202,
				"y": 1.8094440961,
				"z": -0.9825589883,
				"element": "H" 
			},
			{
				"x": -3.1196832534,
				"y": 2.93852641,
				"z": -1.1040689312,
				"element": "H" 
			},
			{
				"x": -4.9038214549,
				"y": 2.3987056477,
				"z": 0.5449689251,
				"element": "H" 
			},
			{
				"x": -4.4468042342,
				"y": 0.7368346443,
				"z": 2.3417076989,
				"element": "H" 
			},
			{
				"x": -2.2483494512,
				"y": -0.3557948836,
				"z": 2.4901063415,
				"element": "H" 
			}
		],
		 "valence_orbital": [ 
			{
				"type": "occ",
				"energy": -0.26263,
				"method": "rhf"
			},
			{
				"type": "occ",
				"energy": -0.26085,
				"method": "rhf"
			},
			{
				"type": "occ",
				"energy": -0.24495,
				"method": "rhf"
			},
			{
				"type": "occ",
				"energy": -0.23655,
				"method": "rhf"
			},
			{
				"type": "occ",
				"energy": -0.19579,
				"method": "rhf"
			},
			{
				"type": "unocc",
				"energy": -0.07246,
				"method": "rhf"
			},
			{
				"type": "unocc",
				"energy": -0.0277,
				"method": "rhf"
			},
			{
				"type": "unocc",
				"energy": 0.00313,
				"method": "rhf"
			},
			{
				"type": "unocc",
				"energy": 0.0115,
				"method": "rhf"
			},
			{
				"type": "unocc",
				"energy": 0.03535,
				"method": "rhf"
			}
		],
		"cosmo_sigma_profile": { 
			"-0.025": 0.0,
			"-0.024": 0.0,
			"-0.023": 0.0,
			"-0.022": 0.0,
			"-0.021": 0.0,
			"-0.02": 0.0,
			"-0.019": 0.0,
			"-0.018": 0.0,
			"-0.017": 0.0,
			"-0.016": 0.0135395552122,
			"-0.015": 0.733437389543,
			"-0.014": 1.54536765381,
			"-0.013": 1.93760069777,
			"-0.012": 3.45749343227,
			"-0.011": 2.16181467338,
			"-0.01": 3.4088277226,
			"-0.009": 2.69311021938,
			"-0.008": 2.43256806848,
			"-0.007": 3.6957652872,
			"-0.006": 11.947612987,
			"-0.005": 16.8488627994,
			"-0.004": 16.8949590651,
			"-0.003": 17.1385019542,
			"-0.002": 13.9561152665,
			"-0.001": 13.7400583389,
			"0.0": 18.9925194817,
			"0.001": 19.4710686825,
			"0.002": 19.354721469,
			"0.003": 20.3246777121,
			"0.004": 22.1648665362,
			"0.005": 11.7393527673,
			"0.006": 11.779818115,
			"0.007": 4.48380272589,
			"0.008": 2.20110276491,
			"0.009": 1.94664965988,
			"0.01": 1.7858786817,
			"0.011": 2.73692693574,
			"0.012": 3.46285882819,
			"0.013": 3.49697869623,
			"0.014": 0.221419388854,
			"0.015": 0.0,
			"0.016": 0.0,
			"0.017": 0.0,
			"0.018": 0.0,
			"0.019": 0.0,
			"0.02": 0.0,
			"0.021": 0.0,
			"0.022": 0.0,
			"0.023": 0.0,
			"0.024": 0.0,
			"0.025": 0.0
		}
	}
}
