{
	 "smiles": "CC(C)(C)OC(=O)NC1CCNCC1", 
	 "Tm": 437.15, 
	 "num_atms": 34, 
	 "gaussian": { 
		 "optdone": 1, 
		 "sigma_profile": "yes", 
		 "theory": "DFT", 
		 "functional": "B3LYP", 
		 "basiset": "6-31G**", 
		 "properties": { 
			 "R2extent": 3965.1018, 
			 "electric_dipole_moment_norm": 1.83732459027, 
			 "electric_quadrupole_moment_norm": 12.6735073847, 
			 "total_energy": -653.097935296, 
			 "HOMO_LUMO_gap": 0.27265, 
			 "cosmo_polarized_energy": -11.48, 
			 "cosmo_cavitation_energy": 34.23, 
			 "cosmo_dispersion_energy": -23.88, 
			 "cosmo_repulsion_energy": 1.9, 
			 "cosmo_total_nonelectrostatic_energy": 12.25, 
			 "SMD_solvation_energy": 3.65 
		},
		"coords": [
			{
				"x": 1.4446818798,
				"y": 0.1082702342,
				"z": 3.3714862894,
				"element": "C" 
			},
			{
				"x": 0.1399775694,
				"y": -0.0972657562,
				"z": 2.5940861035,
				"element": "C" 
			},
			{
				"x": -0.3244508536,
				"y": -1.5531182236,
				"z": 2.6900336687,
				"element": "C" 
			},
			{
				"x": -0.9667658118,
				"y": 0.8572943654,
				"z": 3.0556082374,
				"element": "C" 
			},
			{
				"x": 0.3791968846,
				"y": 0.0680407994,
				"z": 1.1528147846,
				"element": "O" 
			},
			{
				"x": 0.8311946537,
				"y": 1.2466756886,
				"z": 0.6552137789,
				"element": "C" 
			},
			{
				"x": 1.0411682123,
				"y": 2.2652652655,
				"z": 1.2964233965,
				"element": "O" 
			},
			{
				"x": 1.0557014613,
				"y": 1.152045007,
				"z": -0.6923721763,
				"element": "N" 
			},
			{
				"x": 0.6527579876,
				"y": 0.0510118159,
				"z": -1.5682905371,
				"element": "C" 
			},
			{
				"x": -0.8495438593,
				"y": 0.119095991,
				"z": -1.9448986899,
				"element": "C" 
			},
			{
				"x": -1.1066806185,
				"y": -0.6391849302,
				"z": -3.2529090742,
				"element": "C" 
			},
			{
				"x": -0.3628296301,
				"y": -0.0839039188,
				"z": -4.4012115758,
				"element": "N" 
			},
			{
				"x": 0.8303377606,
				"y": 0.6929115004,
				"z": -4.0350547222,
				"element": "C" 
			},
			{
				"x": 1.5311213504,
				"y": 0.0297752123,
				"z": -2.8475167,
				"element": "C" 
			},
			{
				"x": 1.7894909748,
				"y": 1.1389197314,
				"z": 3.2870178453,
				"element": "H" 
			},
			{
				"x": 1.2839069296,
				"y": -0.1275362239,
				"z": 4.4285920517,
				"element": "H" 
			},
			{
				"x": 2.2232836324,
				"y": -0.5596739474,
				"z": 2.9892652625,
				"element": "H" 
			},
			{
				"x": -1.2315473484,
				"y": -1.7094744178,
				"z": 2.0986365412,
				"element": "H" 
			},
			{
				"x": 0.4500217314,
				"y": -2.2312719879,
				"z": 2.319721767,
				"element": "H" 
			},
			{
				"x": -0.5416286126,
				"y": -1.8108910372,
				"z": 3.7309083775,
				"element": "H" 
			},
			{
				"x": -0.6468296579,
				"y": 1.8953416503,
				"z": 2.9651696071,
				"element": "H" 
			},
			{
				"x": -1.8698827837,
				"y": 0.7098595976,
				"z": 2.4545051758,
				"element": "H" 
			},
			{
				"x": -1.2180070491,
				"y": 0.6515291039,
				"z": 4.1013220186,
				"element": "H" 
			},
			{
				"x": 1.2650598501,
				"y": 2.0465352681,
				"z": -1.1134408539,
				"element": "H" 
			},
			{
				"x": 0.8320575823,
				"y": -0.8668092189,
				"z": -1.0042274617,
				"element": "H" 
			},
			{
				"x": -1.1406849093,
				"y": 1.1700788684,
				"z": -2.0688701845,
				"element": "H" 
			},
			{
				"x": -1.4544653629,
				"y": -0.2829416371,
				"z": -1.1256352274,
				"element": "H" 
			},
			{
				"x": -2.1745164614,
				"y": -0.6407609332,
				"z": -3.4948161682,
				"element": "H" 
			},
			{
				"x": -0.82664046,
				"y": -1.6943209512,
				"z": -3.1141416444,
				"element": "H" 
			},
			{
				"x": -0.9800315363,
				"y": 0.4908607669,
				"z": -4.9644242173,
				"element": "H" 
			},
			{
				"x": 0.602049369,
				"y": 1.7438516927,
				"z": -3.7745626176,
				"element": "H" 
			},
			{
				"x": 1.5070389612,
				"y": 0.7305433633,
				"z": -4.8974481937,
				"element": "H" 
			},
			{
				"x": 2.4917755007,
				"y": 0.5136103924,
				"z": -2.6441055049,
				"element": "H" 
			},
			{
				"x": 1.7510826638,
				"y": -1.0086631313,
				"z": -3.1180793566,
				"element": "H" 
			}
		],
		 "valence_orbital": [ 
			{
				"type": "occ",
				"energy": -0.31726,
				"method": "rhf"
			},
			{
				"type": "occ",
				"energy": -0.2834,
				"method": "rhf"
			},
			{
				"type": "occ",
				"energy": -0.25516,
				"method": "rhf"
			},
			{
				"type": "occ",
				"energy": -0.24182,
				"method": "rhf"
			},
			{
				"type": "occ",
				"energy": -0.21361,
				"method": "rhf"
			},
			{
				"type": "unocc",
				"energy": 0.05904,
				"method": "rhf"
			},
			{
				"type": "unocc",
				"energy": 0.06662,
				"method": "rhf"
			},
			{
				"type": "unocc",
				"energy": 0.08441,
				"method": "rhf"
			},
			{
				"type": "unocc",
				"energy": 0.09453,
				"method": "rhf"
			},
			{
				"type": "unocc",
				"energy": 0.10204,
				"method": "rhf"
			}
		],
		"cosmo_sigma_profile": { 
			"-0.025": 0.0,
			"-0.024": 0.0,
			"-0.023": 0.0,
			"-0.022": 0.0,
			"-0.021": 0.0,
			"-0.02": 0.0,
			"-0.019": 0.0,
			"-0.018": 0.0,
			"-0.017": 0.0,
			"-0.016": 0.0,
			"-0.015": 0.0,
			"-0.014": 0.0,
			"-0.013": 0.242650465399,
			"-0.012": 0.872668105674,
			"-0.011": 0.631286178649,
			"-0.01": 1.53620464985,
			"-0.009": 3.09798227667,
			"-0.008": 2.46126780272,
			"-0.007": 3.10064229296,
			"-0.006": 2.68031983062,
			"-0.005": 3.67201076196,
			"-0.004": 16.9705355921,
			"-0.003": 33.6645467783,
			"-0.002": 35.6672797045,
			"-0.001": 35.4723630338,
			"0.0": 38.9659928337,
			"0.001": 27.3612056436,
			"0.002": 9.81184520172,
			"0.003": 7.56457183736,
			"0.004": 6.54248564176,
			"0.005": 6.45691896987,
			"0.006": 3.98511549457,
			"0.007": 2.38646134782,
			"0.008": 2.42746667024,
			"0.009": 1.73481099512,
			"0.01": 2.70430153971,
			"0.011": 1.55504151438,
			"0.012": 2.10178435284,
			"0.013": 3.22573777339,
			"0.014": 4.0199350101,
			"0.015": 0.956321585689,
			"0.016": 0.582514637206,
			"0.017": 0.476541794848,
			"0.018": 0.470965160541,
			"0.019": 0.342126937396,
			"0.02": 0.0,
			"0.021": 0.0,
			"0.022": 0.0,
			"0.023": 0.0,
			"0.024": 0.0,
			"0.025": 0.0
		}
	}
}
