{
	 "smiles": "CC1CC2=C(C=CC=C2)N1CC1=C(OC=C1)C(O)=O", 
	 "Tm": 444.15, 
	 "num_atms": 34, 
	 "gaussian": { 
		 "optdone": 1, 
		 "sigma_profile": "yes", 
		 "theory": "DFT", 
		 "functional": "B3LYP", 
		 "basiset": "6-31G**", 
		 "properties": { 
			 "R2extent": 5713.0756, 
			 "electric_dipole_moment_norm": 1.41288240133, 
			 "electric_quadrupole_moment_norm": 19.0777911056, 
			 "total_energy": -861.053834745, 
			 "HOMO_LUMO_gap": 0.14071, 
			 "cosmo_polarized_energy": -13.25, 
			 "cosmo_cavitation_energy": 36.6, 
			 "cosmo_dispersion_energy": -25.63, 
			 "cosmo_repulsion_energy": 1.96, 
			 "cosmo_total_nonelectrostatic_energy": 12.93, 
			 "SMD_solvation_energy": 6.91 
		},
		"coords": [
			{
				"x": 0.7098166496,
				"y": -2.2112913852,
				"z": 1.5972249257,
				"element": "C" 
			},
			{
				"x": 0.081823658,
				"y": -1.2471818698,
				"z": 0.5945017121,
				"element": "C" 
			},
			{
				"x": -0.9577115378,
				"y": -1.9018496076,
				"z": -0.3499407208,
				"element": "C" 
			},
			{
				"x": -0.7736276603,
				"y": -1.1416786112,
				"z": -1.6430444075,
				"element": "C" 
			},
			{
				"x": 0.4477360108,
				"y": -0.4434897104,
				"z": -1.5761041095,
				"element": "C" 
			},
			{
				"x": 0.894300433,
				"y": 0.3060878672,
				"z": -2.6690633959,
				"element": "C" 
			},
			{
				"x": 0.0996019665,
				"y": 0.3420249913,
				"z": -3.8228128614,
				"element": "C" 
			},
			{
				"x": -1.1114873958,
				"y": -0.3463880433,
				"z": -3.8925191734,
				"element": "C" 
			},
			{
				"x": -1.547907706,
				"y": -1.0998602276,
				"z": -2.7912974117,
				"element": "C" 
			},
			{
				"x": 1.0728923607,
				"y": -0.6658927688,
				"z": -0.3440451335,
				"element": "N" 
			},
			{
				"x": 2.094392333,
				"y": 0.2348812723,
				"z": 0.1749732365,
				"element": "C" 
			},
			{
				"x": 1.5583446896,
				"y": 1.4974678008,
				"z": 0.8188621217,
				"element": "C" 
			},
			{
				"x": 1.7472908564,
				"y": 1.9573768364,
				"z": 2.1075892092,
				"element": "C" 
			},
			{
				"x": 1.0832351498,
				"y": 3.1425968913,
				"z": 2.2891181765,
				"element": "O" 
			},
			{
				"x": 0.4680555207,
				"y": 3.4307367606,
				"z": 1.1228572595,
				"element": "C" 
			},
			{
				"x": 0.7166217442,
				"y": 2.4700941145,
				"z": 0.1874074794,
				"element": "C" 
			},
			{
				"x": 2.4749978209,
				"y": 1.4905038401,
				"z": 3.2893289872,
				"element": "C" 
			},
			{
				"x": 3.1208882251,
				"y": 0.3091737029,
				"z": 3.0706707148,
				"element": "O" 
			},
			{
				"x": 2.5166367436,
				"y": 2.0634145284,
				"z": 4.3573444694,
				"element": "O" 
			},
			{
				"x": -0.0686615914,
				"y": -2.6527646946,
				"z": 2.2285448869,
				"element": "H" 
			},
			{
				"x": 1.4218252603,
				"y": -1.7059068895,
				"z": 2.2563370874,
				"element": "H" 
			},
			{
				"x": 1.2322492431,
				"y": -3.0198017205,
				"z": 1.075434344,
				"element": "H" 
			},
			{
				"x": -0.4087641016,
				"y": -0.427970256,
				"z": 1.147507207,
				"element": "H" 
			},
			{
				"x": -1.9714498694,
				"y": -1.8476509542,
				"z": 0.0582431757,
				"element": "H" 
			},
			{
				"x": -0.7193413349,
				"y": -2.9658777603,
				"z": -0.4922221169,
				"element": "H" 
			},
			{
				"x": 1.8316834928,
				"y": 0.8529155487,
				"z": -2.6384222596,
				"element": "H" 
			},
			{
				"x": 0.4372523687,
				"y": 0.9250047046,
				"z": -4.6754741064,
				"element": "H" 
			},
			{
				"x": -1.7149460762,
				"y": -0.2990586184,
				"z": -4.7936304799,
				"element": "H" 
			},
			{
				"x": -2.4893204843,
				"y": -1.6420340561,
				"z": -2.837642237,
				"element": "H" 
			},
			{
				"x": 2.7541899104,
				"y": 0.5052552354,
				"z": -0.6561475846,
				"element": "H" 
			},
			{
				"x": 2.7108124305,
				"y": -0.3048232801,
				"z": 0.8935192194,
				"element": "H" 
			},
			{
				"x": -0.1050029107,
				"y": 4.3456041625,
				"z": 1.1068721399,
				"element": "H" 
			},
			{
				"x": 0.3481669402,
				"y": 2.4417785634,
				"z": -0.8273289162,
				"element": "H" 
			},
			{
				"x": 3.5592068604,
				"y": 0.097203633,
				"z": 3.9114585617,
				"element": "H" 
			}
		],
		 "valence_orbital": [ 
			{
				"type": "occ",
				"energy": -0.28354,
				"method": "rhf"
			},
			{
				"type": "occ",
				"energy": -0.28182,
				"method": "rhf"
			},
			{
				"type": "occ",
				"energy": -0.24606,
				"method": "rhf"
			},
			{
				"type": "occ",
				"energy": -0.24031,
				"method": "rhf"
			},
			{
				"type": "occ",
				"energy": -0.18739,
				"method": "rhf"
			},
			{
				"type": "unocc",
				"energy": -0.04668,
				"method": "rhf"
			},
			{
				"type": "unocc",
				"energy": 0.00214,
				"method": "rhf"
			},
			{
				"type": "unocc",
				"energy": 0.01753,
				"method": "rhf"
			},
			{
				"type": "unocc",
				"energy": 0.03666,
				"method": "rhf"
			},
			{
				"type": "unocc",
				"energy": 0.0679,
				"method": "rhf"
			}
		],
		"cosmo_sigma_profile": { 
			"-0.025": 0.0,
			"-0.024": 0.0,
			"-0.023": 0.0,
			"-0.022": 0.0,
			"-0.021": 0.0,
			"-0.02": 0.0,
			"-0.019": 0.0789586373922,
			"-0.018": 0.973058571517,
			"-0.017": 0.793178924441,
			"-0.016": 0.975614936155,
			"-0.015": 0.797241033355,
			"-0.014": 0.458510235102,
			"-0.013": 0.355310435341,
			"-0.012": 0.820582282832,
			"-0.011": 0.770118820234,
			"-0.01": 1.9972206173,
			"-0.009": 3.00839593827,
			"-0.008": 2.07742362078,
			"-0.007": 5.03220619088,
			"-0.006": 6.18587201866,
			"-0.005": 11.68972345,
			"-0.004": 16.6381810711,
			"-0.003": 27.450872062,
			"-0.002": 33.4349847219,
			"-0.001": 30.4811091326,
			"0.0": 31.2906026009,
			"0.001": 25.2449953345,
			"0.002": 15.7469560134,
			"0.003": 13.5932986931,
			"0.004": 9.89813767976,
			"0.005": 11.246273833,
			"0.006": 9.73794722857,
			"0.007": 9.01444068779,
			"0.008": 4.40396446013,
			"0.009": 2.8302799849,
			"0.01": 3.0439525362,
			"0.011": 4.74975897134,
			"0.012": 5.10657085617,
			"0.013": 0.976636914274,
			"0.014": 0.0,
			"0.015": 0.0,
			"0.016": 0.0,
			"0.017": 0.0,
			"0.018": 0.0,
			"0.019": 0.0,
			"0.02": 0.0,
			"0.021": 0.0,
			"0.022": 0.0,
			"0.023": 0.0,
			"0.024": 0.0,
			"0.025": 0.0
		}
	}
}
