{
	 "smiles": "FC(F)OC1=CC=C(C=C1)C1=NN=C(S)O1", 
	 "Tm": 395.15, 
	 "num_atms": 22, 
	 "gaussian": { 
		 "optdone": 1, 
		 "sigma_profile": "yes", 
		 "theory": "DFT", 
		 "functional": "B3LYP", 
		 "basiset": "6-31G**", 
		 "properties": { 
			 "R2extent": 6322.4939, 
			 "electric_dipole_moment_norm": 4.07559463269, 
			 "electric_quadrupole_moment_norm": 19.8465052218, 
			 "total_energy": -1204.34597452, 
			 "HOMO_LUMO_gap": 0.17705, 
			 "cosmo_polarized_energy": -13.38, 
			 "cosmo_cavitation_energy": 30.53, 
			 "cosmo_dispersion_energy": -22.96, 
			 "cosmo_repulsion_energy": 1.7, 
			 "cosmo_total_nonelectrostatic_energy": 9.27, 
			 "SMD_solvation_energy": 4.54 
		},
		"coords": [
			{
				"x": -2.9065876863,
				"y": 2.9080045564,
				"z": 2.779101108,
				"element": "F" 
			},
			{
				"x": -3.7217521663,
				"y": 2.2041589575,
				"z": 1.9482620084,
				"element": "C" 
			},
			{
				"x": -3.6405663637,
				"y": 2.7959376245,
				"z": 0.7262220774,
				"element": "F" 
			},
			{
				"x": -3.3710606652,
				"y": 0.8823250034,
				"z": 1.8950595589,
				"element": "O" 
			},
			{
				"x": -2.1119141182,
				"y": 0.481979624,
				"z": 1.4673834041,
				"element": "C" 
			},
			{
				"x": -1.0928756778,
				"y": 1.3445908226,
				"z": 1.0558594614,
				"element": "C" 
			},
			{
				"x": 0.1254777103,
				"y": 0.8038163858,
				"z": 0.650838942,
				"element": "C" 
			},
			{
				"x": 0.3362864094,
				"y": -0.5815409014,
				"z": 0.6521889904,
				"element": "C" 
			},
			{
				"x": -0.7015502669,
				"y": -1.4330390735,
				"z": 1.0696274168,
				"element": "C" 
			},
			{
				"x": -1.9172892464,
				"y": -0.9030736853,
				"z": 1.4743332038,
				"element": "C" 
			},
			{
				"x": 1.6038431755,
				"y": -1.1599411131,
				"z": 0.2318838808,
				"element": "C" 
			},
			{
				"x": 1.9506731209,
				"y": -2.4108048627,
				"z": 0.1769746627,
				"element": "N" 
			},
			{
				"x": 3.2654539217,
				"y": -2.4511994133,
				"z": -0.2895415622,
				"element": "N" 
			},
			{
				"x": 3.6092451816,
				"y": -1.2175485796,
				"z": -0.479955124,
				"element": "C" 
			},
			{
				"x": 5.1621760099,
				"y": -0.6426270108,
				"z": -1.0654035256,
				"element": "S" 
			},
			{
				"x": 2.6229592065,
				"y": -0.3281736759,
				"z": -0.1772002837,
				"element": "O" 
			},
			{
				"x": -4.7498779866,
				"y": 2.2558503452,
				"z": 2.3130064614,
				"element": "H" 
			},
			{
				"x": -1.2365673086,
				"y": 2.4158025968,
				"z": 1.0479226261,
				"element": "H" 
			},
			{
				"x": 0.9197076947,
				"y": 1.469424376,
				"z": 0.3305359429,
				"element": "H" 
			},
			{
				"x": -0.5387490177,
				"y": -2.5052268055,
				"z": 1.0707674167,
				"element": "H" 
			},
			{
				"x": -2.7295494406,
				"y": -1.5438257958,
				"z": 1.7997153905,
				"element": "H" 
			},
			{
				"x": 4.8204175137,
				"y": 0.6589106246,
				"z": -1.0136820568,
				"element": "H" 
			}
		],
		 "valence_orbital": [ 
			{
				"type": "occ",
				"energy": -0.32748,
				"method": "rhf"
			},
			{
				"type": "occ",
				"energy": -0.28285,
				"method": "rhf"
			},
			{
				"type": "occ",
				"energy": -0.27554,
				"method": "rhf"
			},
			{
				"type": "occ",
				"energy": -0.27335,
				"method": "rhf"
			},
			{
				"type": "occ",
				"energy": -0.23026,
				"method": "rhf"
			},
			{
				"type": "unocc",
				"energy": -0.05321,
				"method": "rhf"
			},
			{
				"type": "unocc",
				"energy": -0.02284,
				"method": "rhf"
			},
			{
				"type": "unocc",
				"energy": -0.00651,
				"method": "rhf"
			},
			{
				"type": "unocc",
				"energy": 0.00979,
				"method": "rhf"
			},
			{
				"type": "unocc",
				"energy": 0.04679,
				"method": "rhf"
			}
		],
		"cosmo_sigma_profile": { 
			"-0.025": 0.0,
			"-0.024": 0.0,
			"-0.023": 0.0,
			"-0.022": 0.0,
			"-0.021": 0.0,
			"-0.02": 0.0,
			"-0.019": 0.0,
			"-0.018": 0.0,
			"-0.017": 0.0,
			"-0.016": 0.0,
			"-0.015": 0.0,
			"-0.014": 0.390652776658,
			"-0.013": 1.70335374286,
			"-0.012": 1.73213448862,
			"-0.011": 4.34543919099,
			"-0.01": 3.91264776265,
			"-0.009": 2.47944837094,
			"-0.008": 4.76097502299,
			"-0.007": 7.19188764809,
			"-0.006": 8.97543063041,
			"-0.005": 11.0666632737,
			"-0.004": 11.0691859585,
			"-0.003": 12.7262510834,
			"-0.002": 15.0939110046,
			"-0.001": 15.9384912772,
			"0.0": 20.9791318998,
			"0.001": 27.9202700678,
			"0.002": 30.5153713885,
			"0.003": 26.4012936585,
			"0.004": 12.7453764511,
			"0.005": 6.14825806802,
			"0.006": 3.37500143186,
			"0.007": 2.12711646861,
			"0.008": 2.0963434036,
			"0.009": 2.33128595472,
			"0.01": 2.65692185643,
			"0.011": 3.66046826887,
			"0.012": 2.62874000697,
			"0.013": 2.57723101827,
			"0.014": 1.59430855545,
			"0.015": 0.227005792897,
			"0.016": 0.0,
			"0.017": 0.0,
			"0.018": 0.0,
			"0.019": 0.0,
			"0.02": 0.0,
			"0.021": 0.0,
			"0.022": 0.0,
			"0.023": 0.0,
			"0.024": 0.0,
			"0.025": 0.0
		}
	}
}
