{
	 "smiles": "NNC(=O)COC1=CC=C(F)C=C1", 
	 "Tm": 398.15, 
	 "num_atms": 22, 
	 "gaussian": { 
		 "optdone": 1, 
		 "sigma_profile": "yes", 
		 "theory": "DFT", 
		 "functional": "B3LYP", 
		 "basiset": "6-31G**", 
		 "properties": { 
			 "R2extent": 3265.1446, 
			 "electric_dipole_moment_norm": 6.02606220844, 
			 "electric_quadrupole_moment_norm": 15.7565039641, 
			 "total_energy": -670.015962402, 
			 "HOMO_LUMO_gap": 0.22183, 
			 "cosmo_polarized_energy": -17.01, 
			 "cosmo_cavitation_energy": 27.25, 
			 "cosmo_dispersion_energy": -19.77, 
			 "cosmo_repulsion_energy": 1.59, 
			 "cosmo_total_nonelectrostatic_energy": 9.07, 
			 "SMD_solvation_energy": 6.74 
		},
		"coords": [
			{
				"x": 2.1359531092,
				"y": -1.8747853328,
				"z": 2.8779467998,
				"element": "N" 
			},
			{
				"x": 2.7413118118,
				"y": -1.6707969765,
				"z": 1.6327053803,
				"element": "N" 
			},
			{
				"x": 2.0112920422,
				"y": -1.4960459925,
				"z": 0.4833020344,
				"element": "C" 
			},
			{
				"x": 2.5672481202,
				"y": -1.3460951263,
				"z": -0.5926841237,
				"element": "O" 
			},
			{
				"x": 0.4851943798,
				"y": -1.5113948899,
				"z": 0.6678285506,
				"element": "C" 
			},
			{
				"x": -0.1966558273,
				"y": -1.3668026833,
				"z": -0.562412622,
				"element": "O" 
			},
			{
				"x": -0.4317873367,
				"y": -0.0706112692,
				"z": -0.9905546491,
				"element": "C" 
			},
			{
				"x": 0.4205772777,
				"y": 0.5241586954,
				"z": -1.9251046376,
				"element": "C" 
			},
			{
				"x": 0.1363568989,
				"y": 1.8026595887,
				"z": -2.4053505958,
				"element": "C" 
			},
			{
				"x": -0.9939630296,
				"y": 2.4643961563,
				"z": -1.9373509144,
				"element": "C" 
			},
			{
				"x": -1.268005002,
				"y": 3.7046738998,
				"z": -2.4012112336,
				"element": "F" 
			},
			{
				"x": -1.8528254765,
				"y": 1.8887432098,
				"z": -1.0079660488,
				"element": "C" 
			},
			{
				"x": -1.5667039945,
				"y": 0.6071796004,
				"z": -0.5353502853,
				"element": "C" 
			},
			{
				"x": 2.4169978756,
				"y": -1.1480610452,
				"z": 3.5314902757,
				"element": "H" 
			},
			{
				"x": 2.4014998872,
				"y": -2.7796975629,
				"z": 3.2590261106,
				"element": "H" 
			},
			{
				"x": 3.7505279552,
				"y": -1.6786254809,
				"z": 1.5196037423,
				"element": "H" 
			},
			{
				"x": 0.1924030292,
				"y": -0.7395528307,
				"z": 1.3903185739,
				"element": "H" 
			},
			{
				"x": 0.1876188459,
				"y": -2.4746082096,
				"z": 1.0927736877,
				"element": "H" 
			},
			{
				"x": 1.2992034427,
				"y": -0.0230637013,
				"z": -2.2441794801,
				"element": "H" 
			},
			{
				"x": 0.7784893432,
				"y": 2.2897651309,
				"z": -3.1314476512,
				"element": "H" 
			},
			{
				"x": -2.7286070995,
				"y": 2.4355565631,
				"z": -0.6754423125,
				"element": "H" 
			},
			{
				"x": -2.2278262526,
				"y": 0.1198082565,
				"z": 0.1745593988,
				"element": "H" 
			}
		],
		 "valence_orbital": [ 
			{
				"type": "occ",
				"energy": -0.27947,
				"method": "rhf"
			},
			{
				"type": "occ",
				"energy": -0.26617,
				"method": "rhf"
			},
			{
				"type": "occ",
				"energy": -0.25173,
				"method": "rhf"
			},
			{
				"type": "occ",
				"energy": -0.24989,
				"method": "rhf"
			},
			{
				"type": "occ",
				"energy": -0.22513,
				"method": "rhf"
			},
			{
				"type": "unocc",
				"energy": -0.0033,
				"method": "rhf"
			},
			{
				"type": "unocc",
				"energy": 0.01378,
				"method": "rhf"
			},
			{
				"type": "unocc",
				"energy": 0.02573,
				"method": "rhf"
			},
			{
				"type": "unocc",
				"energy": 0.0533,
				"method": "rhf"
			},
			{
				"type": "unocc",
				"energy": 0.09162,
				"method": "rhf"
			}
		],
		"cosmo_sigma_profile": { 
			"-0.025": 0.0,
			"-0.024": 0.0,
			"-0.023": 0.0,
			"-0.022": 0.0,
			"-0.021": 0.0,
			"-0.02": 0.0,
			"-0.019": 0.0,
			"-0.018": 0.0,
			"-0.017": 0.0,
			"-0.016": 0.0,
			"-0.015": 0.0,
			"-0.014": 0.324584401358,
			"-0.013": 1.493299218,
			"-0.012": 4.39193894788,
			"-0.011": 4.83471764413,
			"-0.01": 4.45171784809,
			"-0.009": 4.63388519496,
			"-0.008": 4.35195491627,
			"-0.007": 7.26408942914,
			"-0.006": 9.71626985607,
			"-0.005": 11.1635333457,
			"-0.004": 12.4077088646,
			"-0.003": 12.1754349044,
			"-0.002": 10.8983322871,
			"-0.001": 9.20099326594,
			"0.0": 11.1226845126,
			"0.001": 15.2666270525,
			"0.002": 14.1449815668,
			"0.003": 17.2438063936,
			"0.004": 20.9605695854,
			"0.005": 9.3950590548,
			"0.006": 3.71820872844,
			"0.007": 3.27681072686,
			"0.008": 3.03817045365,
			"0.009": 3.35339677408,
			"0.01": 2.70180056161,
			"0.011": 4.54935530042,
			"0.012": 3.80751659426,
			"0.013": 4.14405652482,
			"0.014": 2.05249245853,
			"0.015": 0.12469244397,
			"0.016": 0.0,
			"0.017": 0.0,
			"0.018": 0.0,
			"0.019": 0.0,
			"0.02": 0.0,
			"0.021": 0.0,
			"0.022": 0.0,
			"0.023": 0.0,
			"0.024": 0.0,
			"0.025": 0.0
		}
	}
}
