{
	 "smiles": "CC1=CC(C=O)=CC(C)=C1OCC1=C(Cl)C=CC=C1", 
	 "Tm": 332.15, 
	 "num_atms": 34, 
	 "gaussian": { 
		 "optdone": 1, 
		 "sigma_profile": "yes", 
		 "theory": "DFT", 
		 "functional": "B3LYP", 
		 "basiset": "6-31G**", 
		 "properties": { 
			 "R2extent": 7357.5396, 
			 "electric_dipole_moment_norm": 4.53616952505, 
			 "electric_quadrupole_moment_norm": 21.3410729177, 
			 "total_energy": -1229.37753521, 
			 "HOMO_LUMO_gap": 0.18718, 
			 "cosmo_polarized_energy": -11.95, 
			 "cosmo_cavitation_energy": 39.87, 
			 "cosmo_dispersion_energy": -27.2, 
			 "cosmo_repulsion_energy": 2.05, 
			 "cosmo_total_nonelectrostatic_energy": 14.71, 
			 "SMD_solvation_energy": 7.4 
		},
		"coords": [
			{
				"x": -0.5804038871,
				"y": 2.9595719999,
				"z": -0.408795953,
				"element": "C" 
			},
			{
				"x": 0.0103557054,
				"y": 2.1352142219,
				"z": -1.5266664964,
				"element": "C" 
			},
			{
				"x": 0.4670058408,
				"y": 2.727656398,
				"z": -2.7012389576,
				"element": "C" 
			},
			{
				"x": 0.9900874899,
				"y": 1.9496209184,
				"z": -3.7428286838,
				"element": "C" 
			},
			{
				"x": 1.4689740429,
				"y": 2.5898635536,
				"z": -4.9851497538,
				"element": "C" 
			},
			{
				"x": 1.46411532,
				"y": 3.7887644566,
				"z": -5.1972416392,
				"element": "O" 
			},
			{
				"x": 1.0412198931,
				"y": 0.5580262223,
				"z": -3.6115011805,
				"element": "C" 
			},
			{
				"x": 0.5954380842,
				"y": -0.0779023403,
				"z": -2.4502357518,
				"element": "C" 
			},
			{
				"x": 0.627956298,
				"y": -1.5804156912,
				"z": -2.3158034956,
				"element": "C" 
			},
			{
				"x": 0.094047722,
				"y": 0.7307754802,
				"z": -1.4139906132,
				"element": "C" 
			},
			{
				"x": -0.4066202745,
				"y": 0.1345092473,
				"z": -0.2710844037,
				"element": "O" 
			},
			{
				"x": 0.5559624373,
				"y": -0.0746532531,
				"z": 0.7833337474,
				"element": "C" 
			},
			{
				"x": -0.1815067471,
				"y": -0.4859767314,
				"z": 2.0310729362,
				"element": "C" 
			},
			{
				"x": -0.5366553835,
				"y": -1.8137203749,
				"z": 2.3109875015,
				"element": "C" 
			},
			{
				"x": -0.0993619883,
				"y": -3.112988696,
				"z": 1.2043403032,
				"element": "Cl" 
			},
			{
				"x": -1.2348065997,
				"y": -2.1586746007,
				"z": 3.4683401032,
				"element": "C" 
			},
			{
				"x": -1.598148656,
				"y": -1.1631993738,
				"z": 4.3742589097,
				"element": "C" 
			},
			{
				"x": -1.2614537572,
				"y": 0.1670036329,
				"z": 4.122060582,
				"element": "C" 
			},
			{
				"x": -0.561925066,
				"y": 0.4911426152,
				"z": 2.9617489854,
				"element": "C" 
			},
			{
				"x": -1.4718740571,
				"y": 2.4798104647,
				"z": 0.0035876975,
				"element": "H" 
			},
			{
				"x": 0.1288435344,
				"y": 3.0878022126,
				"z": 0.4188050062,
				"element": "H" 
			},
			{
				"x": -0.8476826433,
				"y": 3.9576830069,
				"z": -0.7646384526,
				"element": "H" 
			},
			{
				"x": 0.4189106811,
				"y": 3.8044042539,
				"z": -2.8356220297,
				"element": "H" 
			},
			{
				"x": 1.8532658053,
				"y": 1.8785841738,
				"z": -5.7511359837,
				"element": "H" 
			},
			{
				"x": 1.4294238341,
				"y": -0.0419554972,
				"z": -4.4326013837,
				"element": "H" 
			},
			{
				"x": 0.6809714042,
				"y": -2.0555239006,
				"z": -3.2991155237,
				"element": "H" 
			},
			{
				"x": -0.2578755992,
				"y": -1.9472448693,
				"z": -1.7925320178,
				"element": "H" 
			},
			{
				"x": 1.5002741761,
				"y": -1.9177020723,
				"z": -1.7427503984,
				"element": "H" 
			},
			{
				"x": 1.2782689481,
				"y": -0.8399966708,
				"z": 0.4800208692,
				"element": "H" 
			},
			{
				"x": 1.1035846468,
				"y": 0.856757677,
				"z": 0.9708489347,
				"element": "H" 
			},
			{
				"x": -1.4875516219,
				"y": -3.1971022769,
				"z": 3.6511457104,
				"element": "H" 
			},
			{
				"x": -2.1413301547,
				"y": -1.4321902542,
				"z": 5.2751764515,
				"element": "H" 
			},
			{
				"x": -1.5400868686,
				"y": 0.9462999309,
				"z": 4.8244680486,
				"element": "H" 
			},
			{
				"x": -0.2975225595,
				"y": 1.5259561366,
				"z": 2.7620369316,
				"element": "H" 
			}
		],
		 "valence_orbital": [ 
			{
				"type": "occ",
				"energy": -0.27036,
				"method": "rhf"
			},
			{
				"type": "occ",
				"energy": -0.25555,
				"method": "rhf"
			},
			{
				"type": "occ",
				"energy": -0.24912,
				"method": "rhf"
			},
			{
				"type": "occ",
				"energy": -0.24803,
				"method": "rhf"
			},
			{
				"type": "occ",
				"energy": -0.2426,
				"method": "rhf"
			},
			{
				"type": "unocc",
				"energy": -0.05542,
				"method": "rhf"
			},
			{
				"type": "unocc",
				"energy": -0.02896,
				"method": "rhf"
			},
			{
				"type": "unocc",
				"energy": -0.02145,
				"method": "rhf"
			},
			{
				"type": "unocc",
				"energy": -0.00687,
				"method": "rhf"
			},
			{
				"type": "unocc",
				"energy": 0.02242,
				"method": "rhf"
			}
		],
		"cosmo_sigma_profile": { 
			"-0.025": 0.0,
			"-0.024": 0.0,
			"-0.023": 0.0,
			"-0.022": 0.0,
			"-0.021": 0.0,
			"-0.02": 0.0,
			"-0.019": 0.0,
			"-0.018": 0.0,
			"-0.017": 0.0,
			"-0.016": 0.0,
			"-0.015": 0.0,
			"-0.014": 0.0,
			"-0.013": 0.0,
			"-0.012": 0.0,
			"-0.011": 0.0,
			"-0.01": 0.0,
			"-0.009": 0.0,
			"-0.008": 0.222836548044,
			"-0.007": 6.4841605626,
			"-0.006": 18.6852806269,
			"-0.005": 26.3439984534,
			"-0.004": 26.2656881765,
			"-0.003": 22.0567891433,
			"-0.002": 24.6504122764,
			"-0.001": 25.9173335136,
			"0.0": 30.1077706947,
			"0.001": 27.1757909845,
			"0.002": 25.1732200101,
			"0.003": 30.0532978851,
			"0.004": 23.5141374806,
			"0.005": 8.31483510106,
			"0.006": 2.8535536113,
			"0.007": 2.71869683747,
			"0.008": 3.77455354523,
			"0.009": 2.0177452135,
			"0.01": 3.73075061292,
			"0.011": 4.17854195089,
			"0.012": 4.05988185435,
			"0.013": 1.15987664664,
			"0.014": 0.0529913869677,
			"0.015": 0.0,
			"0.016": 0.0,
			"0.017": 0.0,
			"0.018": 0.0,
			"0.019": 0.0,
			"0.02": 0.0,
			"0.021": 0.0,
			"0.022": 0.0,
			"0.023": 0.0,
			"0.024": 0.0,
			"0.025": 0.0
		}
	}
}
