{
	 "smiles": "CC1=C(Cl)N=NC(=C1)C1=CC(F)=CC=C1", 
	 "Tm": 406.15, 
	 "num_atms": 23, 
	 "gaussian": { 
		 "optdone": 1, 
		 "sigma_profile": "yes", 
		 "theory": "DFT", 
		 "functional": "B3LYP", 
		 "basiset": "6-31G**", 
		 "properties": { 
			 "R2extent": 5275.0549, 
			 "electric_dipole_moment_norm": 3.36726500739, 
			 "electric_quadrupole_moment_norm": 18.8929824176, 
			 "total_energy": -1093.49362427, 
			 "HOMO_LUMO_gap": 0.18066, 
			 "cosmo_polarized_energy": -11.49, 
			 "cosmo_cavitation_energy": 29.95, 
			 "cosmo_dispersion_energy": -22.03, 
			 "cosmo_repulsion_energy": 1.68, 
			 "cosmo_total_nonelectrostatic_energy": 9.59, 
			 "SMD_solvation_energy": 3.71 
		},
		"coords": [
			{
				"x": 0.7902965168,
				"y": 2.7177966158,
				"z": 0.0935370456,
				"element": "C" 
			},
			{
				"x": 0.5587087355,
				"y": 1.5162825617,
				"z": -0.7766138914,
				"element": "C" 
			},
			{
				"x": 0.9034417263,
				"y": 1.4761444929,
				"z": -2.1433571995,
				"element": "C" 
			},
			{
				"x": 1.6526450857,
				"y": 2.8761611936,
				"z": -2.8908749737,
				"element": "Cl" 
			},
			{
				"x": 0.698880016,
				"y": 0.4476696018,
				"z": -2.9475712155,
				"element": "N" 
			},
			{
				"x": 0.1451991076,
				"y": -0.6632741966,
				"z": -2.4707024357,
				"element": "N" 
			},
			{
				"x": -0.2140178347,
				"y": -0.736654707,
				"z": -1.178663985,
				"element": "C" 
			},
			{
				"x": -0.0265537816,
				"y": 0.3518815874,
				"z": -0.3067574163,
				"element": "C" 
			},
			{
				"x": -0.8275033803,
				"y": -2.017850504,
				"z": -0.7447239276,
				"element": "C" 
			},
			{
				"x": -0.8908059645,
				"y": -2.3703198955,
				"z": 0.612518895,
				"element": "C" 
			},
			{
				"x": -1.4771333136,
				"y": -3.5754334082,
				"z": 0.9746812072,
				"element": "C" 
			},
			{
				"x": -1.5239346413,
				"y": -3.9015468021,
				"z": 2.2837093135,
				"element": "F" 
			},
			{
				"x": -2.0079188138,
				"y": -4.4558643617,
				"z": 0.0398078476,
				"element": "C" 
			},
			{
				"x": -1.9362840818,
				"y": -4.1031574375,
				"z": -1.3094380763,
				"element": "C" 
			},
			{
				"x": -1.3524788069,
				"y": -2.9012522924,
				"z": -1.7033588574,
				"element": "C" 
			},
			{
				"x": 0.2700354708,
				"y": 3.5952783805,
				"z": -0.3038241245,
				"element": "H" 
			},
			{
				"x": 0.4379951431,
				"y": 2.5334817857,
				"z": 1.1112071269,
				"element": "H" 
			},
			{
				"x": 1.8545059271,
				"y": 2.9721236455,
				"z": 0.1325552961,
				"element": "H" 
			},
			{
				"x": -0.3531930349,
				"y": 0.2981057188,
				"z": 0.726578247,
				"element": "H" 
			},
			{
				"x": -0.4740464096,
				"y": -1.7459974633,
				"z": 1.3945387026,
				"element": "H" 
			},
			{
				"x": -2.4561801293,
				"y": -5.3864029014,
				"z": 0.3702252988,
				"element": "H" 
			},
			{
				"x": -2.342766672,
				"y": -4.7745839626,
				"z": -2.0596187433,
				"element": "H" 
			},
			{
				"x": -1.2915908644,
				"y": -2.6288876511,
				"z": -2.7498541342,
				"element": "H" 
			}
		],
		 "valence_orbital": [ 
			{
				"type": "occ",
				"energy": -0.31275,
				"method": "rhf"
			},
			{
				"type": "occ",
				"energy": -0.29267,
				"method": "rhf"
			},
			{
				"type": "occ",
				"energy": -0.25987,
				"method": "rhf"
			},
			{
				"type": "occ",
				"energy": -0.24563,
				"method": "rhf"
			},
			{
				"type": "occ",
				"energy": -0.24429,
				"method": "rhf"
			},
			{
				"type": "unocc",
				"energy": -0.06363,
				"method": "rhf"
			},
			{
				"type": "unocc",
				"energy": -0.05802,
				"method": "rhf"
			},
			{
				"type": "unocc",
				"energy": -0.00927,
				"method": "rhf"
			},
			{
				"type": "unocc",
				"energy": 0.01063,
				"method": "rhf"
			},
			{
				"type": "unocc",
				"energy": 0.02582,
				"method": "rhf"
			}
		],
		"cosmo_sigma_profile": { 
			"-0.025": 0.0,
			"-0.024": 0.0,
			"-0.023": 0.0,
			"-0.022": 0.0,
			"-0.021": 0.0,
			"-0.02": 0.0,
			"-0.019": 0.0,
			"-0.018": 0.0,
			"-0.017": 0.0,
			"-0.016": 0.0,
			"-0.015": 0.0,
			"-0.014": 0.0,
			"-0.013": 0.0,
			"-0.012": 0.0,
			"-0.011": 0.236704955061,
			"-0.01": 1.44975790226,
			"-0.009": 2.95159945705,
			"-0.008": 4.15961150156,
			"-0.007": 5.64791249744,
			"-0.006": 10.4935212577,
			"-0.005": 14.8906114356,
			"-0.004": 14.9204851054,
			"-0.003": 18.7506151452,
			"-0.002": 24.466218216,
			"-0.001": 20.6535350909,
			"0.0": 15.9808755981,
			"0.001": 20.5215583775,
			"0.002": 18.7325277204,
			"0.003": 20.9965064391,
			"0.004": 22.2187246077,
			"0.005": 6.53166560447,
			"0.006": 2.78001017257,
			"0.007": 1.74722208594,
			"0.008": 3.01308033372,
			"0.009": 1.71205500746,
			"0.01": 2.12363127078,
			"0.011": 2.04735226383,
			"0.012": 2.64672728187,
			"0.013": 2.41694260065,
			"0.014": 1.17484658744,
			"0.015": 0.195723547438,
			"0.016": 0.0,
			"0.017": 0.0,
			"0.018": 0.0,
			"0.019": 0.0,
			"0.02": 0.0,
			"0.021": 0.0,
			"0.022": 0.0,
			"0.023": 0.0,
			"0.024": 0.0,
			"0.025": 0.0
		}
	}
}
