{
	 "smiles": "CNCC1=CC(O)=C(OC)C=C1", 
	 "Tm": 415.15, 
	 "num_atms": 25, 
	 "gaussian": { 
		 "optdone": 1, 
		 "sigma_profile": "yes", 
		 "theory": "DFT", 
		 "functional": "B3LYP", 
		 "basiset": "6-31G**", 
		 "properties": { 
			 "R2extent": 2717.4293, 
			 "electric_dipole_moment_norm": 1.72286725258, 
			 "electric_quadrupole_moment_norm": 13.1831754259, 
			 "total_energy": -555.969054153, 
			 "HOMO_LUMO_gap": 0.21066, 
			 "cosmo_polarized_energy": -9.37, 
			 "cosmo_cavitation_energy": 27.8, 
			 "cosmo_dispersion_energy": -20.43, 
			 "cosmo_repulsion_energy": 1.65, 
			 "cosmo_total_nonelectrostatic_energy": 9.03, 
			 "SMD_solvation_energy": 4.46 
		},
		"coords": [
			{
				"x": -0.5420364501,
				"y": 2.5572709736,
				"z": 2.8976291401,
				"element": "C" 
			},
			{
				"x": 0.4972823215,
				"y": 1.5854561824,
				"z": 3.2229490469,
				"element": "N" 
			},
			{
				"x": 1.371555339,
				"y": 1.2627431531,
				"z": 2.0964929559,
				"element": "C" 
			},
			{
				"x": 0.7078718495,
				"y": 0.3504199191,
				"z": 1.0776144276,
				"element": "C" 
			},
			{
				"x": 0.9997470476,
				"y": 0.4920255492,
				"z": -0.2861909676,
				"element": "C" 
			},
			{
				"x": 0.4443545663,
				"y": -0.3699367705,
				"z": -1.2251570167,
				"element": "C" 
			},
			{
				"x": 0.7363542241,
				"y": -0.2217436967,
				"z": -2.5488188147,
				"element": "O" 
			},
			{
				"x": -0.4293308291,
				"y": -1.392135932,
				"z": -0.8045638809,
				"element": "C" 
			},
			{
				"x": -0.9127283062,
				"y": -2.1672144568,
				"z": -1.8357238872,
				"element": "O" 
			},
			{
				"x": -1.8092168751,
				"y": -3.2180998276,
				"z": -1.5154773375,
				"element": "C" 
			},
			{
				"x": -0.7321888679,
				"y": -1.5347407844,
				"z": 0.5465548526,
				"element": "C" 
			},
			{
				"x": -0.1606981695,
				"y": -0.6650254748,
				"z": 1.4831193497,
				"element": "C" 
			},
			{
				"x": -1.2251773757,
				"y": 2.1254403472,
				"z": 2.1599259494,
				"element": "H" 
			},
			{
				"x": -1.1221098248,
				"y": 2.7880442755,
				"z": 3.7963964576,
				"element": "H" 
			},
			{
				"x": -0.1573490682,
				"y": 3.5057937027,
				"z": 2.4797647345,
				"element": "H" 
			},
			{
				"x": 1.062839702,
				"y": 1.9380367472,
				"z": 3.9891897703,
				"element": "H" 
			},
			{
				"x": 2.2553588989,
				"y": 0.755782262,
				"z": 2.5072503977,
				"element": "H" 
			},
			{
				"x": 1.7455899703,
				"y": 2.1628693332,
				"z": 1.5722253994,
				"element": "H" 
			},
			{
				"x": 1.66270306,
				"y": 1.2771987793,
				"z": -0.6386781865,
				"element": "H" 
			},
			{
				"x": 0.2455320969,
				"y": -0.9104271461,
				"z": -3.0228264495,
				"element": "H" 
			},
			{
				"x": -2.0685196308,
				"y": -3.698617648,
				"z": -2.4602593775,
				"element": "H" 
			},
			{
				"x": -2.7216830735,
				"y": -2.8354721885,
				"z": -1.0406951246,
				"element": "H" 
			},
			{
				"x": -1.3412746784,
				"y": -3.9550458219,
				"z": -0.8504272634,
				"element": "H" 
			},
			{
				"x": -1.4075993997,
				"y": -2.3148396358,
				"z": 0.8802367803,
				"element": "H" 
			},
			{
				"x": -0.3976765272,
				"y": -0.7640818413,
				"z": 2.5369690441,
				"element": "H" 
			}
		],
		 "valence_orbital": [ 
			{
				"type": "occ",
				"energy": -0.32962,
				"method": "rhf"
			},
			{
				"type": "occ",
				"energy": -0.30425,
				"method": "rhf"
			},
			{
				"type": "occ",
				"energy": -0.22879,
				"method": "rhf"
			},
			{
				"type": "occ",
				"energy": -0.21883,
				"method": "rhf"
			},
			{
				"type": "occ",
				"energy": -0.19655,
				"method": "rhf"
			},
			{
				"type": "unocc",
				"energy": 0.01411,
				"method": "rhf"
			},
			{
				"type": "unocc",
				"energy": 0.02187,
				"method": "rhf"
			},
			{
				"type": "unocc",
				"energy": 0.08318,
				"method": "rhf"
			},
			{
				"type": "unocc",
				"energy": 0.09415,
				"method": "rhf"
			},
			{
				"type": "unocc",
				"energy": 0.0985,
				"method": "rhf"
			}
		],
		"cosmo_sigma_profile": { 
			"-0.025": 0.0,
			"-0.024": 0.0,
			"-0.023": 0.0,
			"-0.022": 0.0,
			"-0.021": 0.0,
			"-0.02": 0.0,
			"-0.019": 0.0,
			"-0.018": 0.0,
			"-0.017": 0.0,
			"-0.016": 0.0,
			"-0.015": 0.0,
			"-0.014": 0.392525508419,
			"-0.013": 0.525262111539,
			"-0.012": 0.533633735469,
			"-0.011": 0.273139620394,
			"-0.01": 1.79825092221,
			"-0.009": 2.15815233397,
			"-0.008": 1.59949562747,
			"-0.007": 2.13744635053,
			"-0.006": 7.60584123939,
			"-0.005": 15.159188107,
			"-0.004": 18.9040813751,
			"-0.003": 19.9045366204,
			"-0.002": 20.2949798215,
			"-0.001": 22.4381082936,
			"0.0": 16.7859403067,
			"0.001": 11.8386584912,
			"0.002": 12.1299679174,
			"0.003": 12.6096806517,
			"0.004": 12.0236205381,
			"0.005": 13.4148118852,
			"0.006": 9.48391549068,
			"0.007": 3.22021425121,
			"0.008": 2.25069981957,
			"0.009": 2.49375709794,
			"0.01": 2.24908891961,
			"0.011": 2.84410346481,
			"0.012": 1.89293759501,
			"0.013": 0.404384987187,
			"0.014": 0.83576993366,
			"0.015": 0.208914003074,
			"0.016": 0.0,
			"0.017": 0.0,
			"0.018": 0.0,
			"0.019": 0.0,
			"0.02": 0.0,
			"0.021": 0.0,
			"0.022": 0.0,
			"0.023": 0.0,
			"0.024": 0.0,
			"0.025": 0.0
		}
	}
}
