{
	 "smiles": "CC(=C)C(=O)OCCC(F)(F)C(F)(F)C(F)(F)C(F)(F)C(F)(F)C(F)(F)C(F)(F)C(F)(F)C(F)(F)C(F)(F)F", 
	 "Tm": 320.65, 
	 "num_atms": 48, 
	 "gaussian": { 
		 "optdone": 1, 
		 "sigma_profile": "yes", 
		 "theory": "DFT", 
		 "functional": "B3LYP", 
		 "basiset": "6-31G**", 
		 "properties": { 
			 "R2extent": 23924.2041, 
			 "electric_dipole_moment_norm": 1.8828482334, 
			 "electric_quadrupole_moment_norm": 13.6162636553, 
			 "total_energy": -2862.13435595, 
			 "HOMO_LUMO_gap": 0.22741, 
			 "cosmo_polarized_energy": -8.52, 
			 "cosmo_cavitation_energy": 57.78, 
			 "cosmo_dispersion_energy": -36.34, 
			 "cosmo_repulsion_energy": 2.38, 
			 "cosmo_total_nonelectrostatic_energy": 23.82, 
			 "SMD_solvation_energy": 17.05 
		},
		"coords": [
			{
				"x": -2.3749456197,
				"y": 4.6848758232,
				"z": -1.6279339991,
				"element": "C" 
			},
			{
				"x": -2.3446507856,
				"y": 3.1975026562,
				"z": -1.8592820909,
				"element": "C" 
			},
			{
				"x": -3.3608958793,
				"y": 2.3707699319,
				"z": -1.5799993022,
				"element": "C" 
			},
			{
				"x": -1.0590350282,
				"y": 2.6778861605,
				"z": -2.4117969029,
				"element": "C" 
			},
			{
				"x": -0.0652939715,
				"y": 3.3583924131,
				"z": -2.5765369519,
				"element": "O" 
			},
			{
				"x": -1.1014737447,
				"y": 1.357207266,
				"z": -2.7231428976,
				"element": "O" 
			},
			{
				"x": 0.1273779712,
				"y": 0.7926281449,
				"z": -3.2040126094,
				"element": "C" 
			},
			{
				"x": -0.1270224282,
				"y": -0.6685847175,
				"z": -3.5495047952,
				"element": "C" 
			},
			{
				"x": -0.1473106814,
				"y": -1.6479941017,
				"z": -2.3821269788,
				"element": "C" 
			},
			{
				"x": -0.2184169057,
				"y": -2.9129052932,
				"z": -2.8942973472,
				"element": "F" 
			},
			{
				"x": 1.0196076628,
				"y": -1.548194533,
				"z": -1.6792426476,
				"element": "F" 
			},
			{
				"x": -1.309836995,
				"y": -1.4873865427,
				"z": -1.3645551798,
				"element": "C" 
			},
			{
				"x": -2.4536563509,
				"y": -1.2447993896,
				"z": -2.064135857,
				"element": "F" 
			},
			{
				"x": -1.0562295495,
				"y": -0.4209771628,
				"z": -0.5703966943,
				"element": "F" 
			},
			{
				"x": -1.6610473543,
				"y": -2.6978113552,
				"z": -0.4436574748,
				"element": "C" 
			},
			{
				"x": -2.1072251373,
				"y": -3.7038546535,
				"z": -1.2279084076,
				"element": "F" 
			},
			{
				"x": -2.6869949034,
				"y": -2.2875448757,
				"z": 0.3469482341,
				"element": "F" 
			},
			{
				"x": -0.5801900773,
				"y": -3.3188441402,
				"z": 0.4864232517,
				"element": "C" 
			},
			{
				"x": 0.4350360228,
				"y": -3.7702943351,
				"z": -0.2870831271,
				"element": "F" 
			},
			{
				"x": -1.1650189315,
				"y": -4.3814584401,
				"z": 1.0862619638,
				"element": "F" 
			},
			{
				"x": 0.0803813618,
				"y": -2.4548572129,
				"z": 1.608094209,
				"element": "C" 
			},
			{
				"x": 0.8101344097,
				"y": -1.4778034214,
				"z": 1.0306642251,
				"element": "F" 
			},
			{
				"x": 0.9183049973,
				"y": -3.3009444955,
				"z": 2.2591091983,
				"element": "F" 
			},
			{
				"x": -0.8635610871,
				"y": -1.8081060892,
				"z": 2.6669467855,
				"element": "C" 
			},
			{
				"x": -1.4256902352,
				"y": -0.7052895736,
				"z": 2.1208484406,
				"element": "F" 
			},
			{
				"x": -1.8328960676,
				"y": -2.6849265402,
				"z": 3.0047252123,
				"element": "F" 
			},
			{
				"x": -0.1151585307,
				"y": -1.3924329082,
				"z": 3.973305065,
				"element": "C" 
			},
			{
				"x": 0.1050260731,
				"y": -2.5039554271,
				"z": 4.7083344448,
				"element": "F" 
			},
			{
				"x": 1.0731715863,
				"y": -0.8303844516,
				"z": 3.6432632662,
				"element": "F" 
			},
			{
				"x": -0.9030668984,
				"y": -0.3622711047,
				"z": 4.8321934747,
				"element": "C" 
			},
			{
				"x": -2.202052159,
				"y": -0.746170326,
				"z": 4.8793973435,
				"element": "F" 
			},
			{
				"x": -0.819533413,
				"y": 0.8472171856,
				"z": 4.2383353506,
				"element": "F" 
			},
			{
				"x": -0.4490348402,
				"y": -0.2025473146,
				"z": 6.3154170672,
				"element": "C" 
			},
			{
				"x": -0.7097487291,
				"y": -1.3477767238,
				"z": 6.9810770861,
				"element": "F" 
			},
			{
				"x": -1.210356285,
				"y": 0.7902926872,
				"z": 6.8324915534,
				"element": "F" 
			},
			{
				"x": 1.0304950725,
				"y": 0.175174855,
				"z": 6.5669244163,
				"element": "C" 
			},
			{
				"x": 1.3755930374,
				"y": 1.2412727812,
				"z": 5.8352839385,
				"element": "F" 
			},
			{
				"x": 1.8336784495,
				"y": -0.8507121753,
				"z": 6.2557241517,
				"element": "F" 
			},
			{
				"x": 1.1891288178,
				"y": 0.4665434124,
				"z": 7.862553934,
				"element": "F" 
			},
			{
				"x": -1.5746380869,
				"y": 4.9877386008,
				"z": -0.9452301687,
				"element": "H" 
			},
			{
				"x": -2.2060895214,
				"y": 5.2305876273,
				"z": -2.5623864274,
				"element": "H" 
			},
			{
				"x": -3.3349876914,
				"y": 4.9941842815,
				"z": -1.2083332918,
				"element": "H" 
			},
			{
				"x": -3.2892323623,
				"y": 1.3027881737,
				"z": -1.7466731686,
				"element": "H" 
			},
			{
				"x": -4.289257452,
				"y": 2.7520639846,
				"z": -1.1644082198,
				"element": "H" 
			},
			{
				"x": 0.4518479857,
				"y": 1.3389045727,
				"z": -4.0942111474,
				"element": "H" 
			},
			{
				"x": 0.9098656184,
				"y": 0.8994790235,
				"z": -2.4472123462,
				"element": "H" 
			},
			{
				"x": 0.687974239,
				"y": -1.0261211167,
				"z": -4.1876256816,
				"element": "H" 
			},
			{
				"x": -1.0576756026,
				"y": -0.76976116,
				"z": -4.1124288971,
				"element": "H" 
			}
		],
		 "valence_orbital": [ 
			{
				"type": "occ",
				"energy": -0.34757,
				"method": "rhf"
			},
			{
				"type": "occ",
				"energy": -0.34094,
				"method": "rhf"
			},
			{
				"type": "occ",
				"energy": -0.30926,
				"method": "rhf"
			},
			{
				"type": "occ",
				"energy": -0.27861,
				"method": "rhf"
			},
			{
				"type": "occ",
				"energy": -0.27225,
				"method": "rhf"
			},
			{
				"type": "unocc",
				"energy": -0.04484,
				"method": "rhf"
			},
			{
				"type": "unocc",
				"energy": -0.00074,
				"method": "rhf"
			},
			{
				"type": "unocc",
				"energy": 0.01307,
				"method": "rhf"
			},
			{
				"type": "unocc",
				"energy": 0.02822,
				"method": "rhf"
			},
			{
				"type": "unocc",
				"energy": 0.03416,
				"method": "rhf"
			}
		],
		"cosmo_sigma_profile": { 
			"-0.025": 0.0,
			"-0.024": 0.0,
			"-0.023": 0.0,
			"-0.022": 0.0,
			"-0.021": 0.0,
			"-0.02": 0.0,
			"-0.019": 0.0,
			"-0.018": 0.0,
			"-0.017": 0.0,
			"-0.016": 0.0,
			"-0.015": 0.0,
			"-0.014": 0.0,
			"-0.013": 0.0,
			"-0.012": 0.0,
			"-0.011": 0.0,
			"-0.01": 0.0,
			"-0.009": 0.281602204858,
			"-0.008": 3.07281223004,
			"-0.007": 7.47820445298,
			"-0.006": 10.241402398,
			"-0.005": 14.2324605049,
			"-0.004": 16.5476067643,
			"-0.003": 21.6798655717,
			"-0.002": 29.3641636169,
			"-0.001": 42.3693772461,
			"0.0": 96.6913629982,
			"0.001": 143.53616439,
			"0.002": 36.8651945458,
			"0.003": 17.6428286754,
			"0.004": 4.05426137745,
			"0.005": 2.41628751734,
			"0.006": 1.28802679317,
			"0.007": 1.36271909375,
			"0.008": 1.2687362421,
			"0.009": 1.9399362012,
			"0.01": 1.80291617296,
			"0.011": 3.28560807682,
			"0.012": 3.88624774528,
			"0.013": 0.223098305536,
			"0.014": 0.0,
			"0.015": 0.0,
			"0.016": 0.0,
			"0.017": 0.0,
			"0.018": 0.0,
			"0.019": 0.0,
			"0.02": 0.0,
			"0.021": 0.0,
			"0.022": 0.0,
			"0.023": 0.0,
			"0.024": 0.0,
			"0.025": 0.0
		}
	}
}
