{
	 "smiles": "CC1=NC2=C(C(=CN2)C#N)C(C)=C1", 
	 "Tm": 590.15, 
	 "num_atms": 22, 
	 "gaussian": { 
		 "optdone": 1, 
		 "sigma_profile": "yes", 
		 "theory": "DFT", 
		 "functional": "B3LYP", 
		 "basiset": "6-31G**", 
		 "properties": { 
			 "R2extent": 3222.5732, 
			 "electric_dipole_moment_norm": 3.8694023828, 
			 "electric_quadrupole_moment_norm": 29.9164873454, 
			 "total_energy": -550.751342358, 
			 "HOMO_LUMO_gap": 0.18611, 
			 "cosmo_polarized_energy": -14.19, 
			 "cosmo_cavitation_energy": 26.93, 
			 "cosmo_dispersion_energy": -19.22, 
			 "cosmo_repulsion_energy": 1.51, 
			 "cosmo_total_nonelectrostatic_energy": 9.22, 
			 "SMD_solvation_energy": 4.35 
		},
		"coords": [
			{
				"x": -2.4744497866,
				"y": -0.0024926656,
				"z": 0.1193761162,
				"element": "C" 
			},
			{
				"x": -1.0327935793,
				"y": 0.1062534533,
				"z": -0.3113454691,
				"element": "C" 
			},
			{
				"x": -0.4101596581,
				"y": 1.2647525473,
				"z": -0.0646472239,
				"element": "N" 
			},
			{
				"x": 0.859841565,
				"y": 1.3095229814,
				"z": -0.4639566364,
				"element": "C" 
			},
			{
				"x": 1.6011973703,
				"y": 0.2900702754,
				"z": -1.104072449,
				"element": "C" 
			},
			{
				"x": 2.9254362861,
				"y": 0.8284820807,
				"z": -1.3290410832,
				"element": "C" 
			},
			{
				"x": 2.9252517416,
				"y": 2.1186325247,
				"z": -0.8267937608,
				"element": "C" 
			},
			{
				"x": 1.6911937087,
				"y": 2.4036568922,
				"z": -0.310844853,
				"element": "N" 
			},
			{
				"x": 4.0371432594,
				"y": 0.1943246227,
				"z": -1.9407246375,
				"element": "C" 
			},
			{
				"x": 4.9457256131,
				"y": -0.333311897,
				"z": -2.4443033024,
				"element": "N" 
			},
			{
				"x": 0.9370805503,
				"y": -0.9270948648,
				"z": -1.3599712509,
				"element": "C" 
			},
			{
				"x": 1.6178204272,
				"y": -2.0874004801,
				"z": -2.0349352215,
				"element": "C" 
			},
			{
				"x": -0.3912404574,
				"y": -0.984383281,
				"z": -0.9464369177,
				"element": "C" 
			},
			{
				"x": -2.7920837189,
				"y": 0.9308093277,
				"z": 0.5869099424,
				"element": "H" 
			},
			{
				"x": -2.6137209883,
				"y": -0.8199885149,
				"z": 0.8361198236,
				"element": "H" 
			},
			{
				"x": -3.1292993211,
				"y": -0.2083428296,
				"z": -0.7351508406,
				"element": "H" 
			},
			{
				"x": 3.7277998353,
				"y": 2.840735871,
				"z": -0.8091025412,
				"element": "H" 
			},
			{
				"x": 1.4075245064,
				"y": 3.2704365435,
				"z": 0.1196400365,
				"element": "H" 
			},
			{
				"x": 1.9805240609,
				"y": -1.8087091321,
				"z": -3.0301319523,
				"element": "H" 
			},
			{
				"x": 0.9366978245,
				"y": -2.935116119,
				"z": -2.1417528589,
				"element": "H" 
			},
			{
				"x": 2.4932920665,
				"y": -2.4178998447,
				"z": -1.4657451193,
				"element": "H" 
			},
			{
				"x": -0.9595813056,
				"y": -1.8951374912,
				"z": -1.1144898011,
				"element": "H" 
			}
		],
		 "valence_orbital": [ 
			{
				"type": "occ",
				"energy": -0.32215,
				"method": "rhf"
			},
			{
				"type": "occ",
				"energy": -0.29489,
				"method": "rhf"
			},
			{
				"type": "occ",
				"energy": -0.27103,
				"method": "rhf"
			},
			{
				"type": "occ",
				"energy": -0.24497,
				"method": "rhf"
			},
			{
				"type": "occ",
				"energy": -0.22771,
				"method": "rhf"
			},
			{
				"type": "unocc",
				"energy": -0.0416,
				"method": "rhf"
			},
			{
				"type": "unocc",
				"energy": -0.00164,
				"method": "rhf"
			},
			{
				"type": "unocc",
				"energy": 0.00781,
				"method": "rhf"
			},
			{
				"type": "unocc",
				"energy": 0.03521,
				"method": "rhf"
			},
			{
				"type": "unocc",
				"energy": 0.0709,
				"method": "rhf"
			}
		],
		"cosmo_sigma_profile": { 
			"-0.025": 0.0,
			"-0.024": 0.0,
			"-0.023": 0.0,
			"-0.022": 0.0,
			"-0.021": 0.0,
			"-0.02": 0.0,
			"-0.019": 0.0,
			"-0.018": 0.0,
			"-0.017": 0.859235201868,
			"-0.016": 1.77822262007,
			"-0.015": 1.35225403199,
			"-0.014": 1.06870534805,
			"-0.013": 0.846963850265,
			"-0.012": 1.00869549476,
			"-0.011": 2.23746431659,
			"-0.01": 3.39885742456,
			"-0.009": 2.60590689905,
			"-0.008": 2.29153972762,
			"-0.007": 2.0302413657,
			"-0.006": 3.50418846565,
			"-0.005": 10.3888891325,
			"-0.004": 15.5122764445,
			"-0.003": 17.0773068766,
			"-0.002": 17.1243325604,
			"-0.001": 17.760347242,
			"0.0": 24.4387826312,
			"0.001": 20.0677508808,
			"0.002": 17.5384524367,
			"0.003": 10.0891105764,
			"0.004": 5.72694954032,
			"0.005": 4.07119390267,
			"0.006": 4.09588031656,
			"0.007": 3.48837633432,
			"0.008": 3.81641386258,
			"0.009": 4.56834029248,
			"0.01": 4.53558073268,
			"0.011": 3.23183707323,
			"0.012": 3.71536690617,
			"0.013": 3.5663825366,
			"0.014": 1.61175653134,
			"0.015": 0.433105914929,
			"0.016": 0.0312654759408,
			"0.017": 0.0,
			"0.018": 0.0,
			"0.019": 0.0,
			"0.02": 0.0,
			"0.021": 0.0,
			"0.022": 0.0,
			"0.023": 0.0,
			"0.024": 0.0,
			"0.025": 0.0
		}
	}
}
