{
	 "smiles": "CC(=O)C=CC(O)=O", 
	 "Tm": 397.15, 
	 "num_atms": 14, 
	 "gaussian": { 
		 "optdone": 1, 
		 "sigma_profile": "yes", 
		 "theory": "DFT", 
		 "functional": "B3LYP", 
		 "basiset": "6-31G**", 
		 "properties": { 
			 "R2extent": 1754.1051, 
			 "electric_dipole_moment_norm": 5.29393506855, 
			 "electric_quadrupole_moment_norm": 20.7561989386, 
			 "total_energy": -419.799291055, 
			 "HOMO_LUMO_gap": 0.16764, 
			 "cosmo_polarized_energy": -19.21, 
			 "cosmo_cavitation_energy": 19.49, 
			 "cosmo_dispersion_energy": -13.9, 
			 "cosmo_repulsion_energy": 1.18, 
			 "cosmo_total_nonelectrostatic_energy": 6.77, 
			 "SMD_solvation_energy": 5.83 
		},
		"coords": [
			{
				"x": -2.3981057171,
				"y": -1.0683277734,
				"z": -1.7080236144,
				"element": "C" 
			},
			{
				"x": -0.9377924443,
				"y": -0.9136621737,
				"z": -1.3233307598,
				"element": "C" 
			},
			{
				"x": -0.0531314379,
				"y": -0.8982843614,
				"z": -2.1636339715,
				"element": "O" 
			},
			{
				"x": -0.5666929207,
				"y": -0.7764599982,
				"z": 0.1151816681,
				"element": "C" 
			},
			{
				"x": -1.4225870185,
				"y": -0.7755408646,
				"z": 1.1464141584,
				"element": "C" 
			},
			{
				"x": -0.9181544469,
				"y": -0.6295685805,
				"z": 2.5473592753,
				"element": "C" 
			},
			{
				"x": -1.8673886199,
				"y": -0.641149655,
				"z": 3.5199761046,
				"element": "O" 
			},
			{
				"x": 0.2478109595,
				"y": -0.5073625994,
				"z": 2.8351821337,
				"element": "O" 
			},
			{
				"x": -2.9849935279,
				"y": -0.2055174218,
				"z": -1.3737240042,
				"element": "H" 
			},
			{
				"x": -2.832852336,
				"y": -1.9613919572,
				"z": -1.2453518681,
				"element": "H" 
			},
			{
				"x": -2.4675486084,
				"y": -1.1536339508,
				"z": -2.7926102953,
				"element": "H" 
			},
			{
				"x": 0.4973999492,
				"y": -0.6697780678,
				"z": 0.3113482244,
				"element": "H" 
			},
			{
				"x": -2.494037804,
				"y": -0.880374191,
				"z": 0.9844396471,
				"element": "H" 
			},
			{
				"x": -2.750526027,
				"y": -0.7456484053,
				"z": 3.1395733016,
				"element": "H" 
			}
		],
		 "valence_orbital": [ 
			{
				"type": "occ",
				"energy": -0.38141,
				"method": "rhf"
			},
			{
				"type": "occ",
				"energy": -0.3328,
				"method": "rhf"
			},
			{
				"type": "occ",
				"energy": -0.30319,
				"method": "rhf"
			},
			{
				"type": "occ",
				"energy": -0.28899,
				"method": "rhf"
			},
			{
				"type": "occ",
				"energy": -0.26669,
				"method": "rhf"
			},
			{
				"type": "unocc",
				"energy": -0.09905,
				"method": "rhf"
			},
			{
				"type": "unocc",
				"energy": 0.00883,
				"method": "rhf"
			},
			{
				"type": "unocc",
				"energy": 0.04068,
				"method": "rhf"
			},
			{
				"type": "unocc",
				"energy": 0.08044,
				"method": "rhf"
			},
			{
				"type": "unocc",
				"energy": 0.0854,
				"method": "rhf"
			}
		],
		"cosmo_sigma_profile": { 
			"-0.025": 0.0,
			"-0.024": 0.0,
			"-0.023": 0.0,
			"-0.022": 0.0,
			"-0.021": 0.0,
			"-0.02": 0.68462594122,
			"-0.019": 1.53273387477,
			"-0.018": 1.27967228232,
			"-0.017": 1.29384482823,
			"-0.016": 0.859485733391,
			"-0.015": 0.829528327783,
			"-0.014": 0.701046183157,
			"-0.013": 1.37138513566,
			"-0.012": 1.46800521803,
			"-0.011": 1.69040207642,
			"-0.01": 1.11317975556,
			"-0.009": 0.920315621496,
			"-0.008": 2.81079305299,
			"-0.007": 6.98719135684,
			"-0.006": 9.38022308274,
			"-0.005": 9.17230268871,
			"-0.004": 9.1056695855,
			"-0.003": 10.5091230466,
			"-0.002": 11.6674791823,
			"-0.001": 11.9551006664,
			"0.0": 7.05827204349,
			"0.001": 4.66022095783,
			"0.002": 4.04409792693,
			"0.003": 3.35323966482,
			"0.004": 3.74933527872,
			"0.005": 3.8232228088,
			"0.006": 3.57640105553,
			"0.007": 3.66425054215,
			"0.008": 4.64382275924,
			"0.009": 5.56593240043,
			"0.01": 8.04548230267,
			"0.011": 9.65975029593,
			"0.012": 6.33035520978,
			"0.013": 1.37698187048,
			"0.014": 0.0,
			"0.015": 0.0,
			"0.016": 0.0,
			"0.017": 0.0,
			"0.018": 0.0,
			"0.019": 0.0,
			"0.02": 0.0,
			"0.021": 0.0,
			"0.022": 0.0,
			"0.023": 0.0,
			"0.024": 0.0,
			"0.025": 0.0
		}
	}
}
