{
	 "smiles": "CC(C)NCC(O)COC1=CC=C(NC(C)=O)C=C1", 
	 "Tm": 408.15, 
	 "num_atms": 41, 
	 "gaussian": { 
		 "optdone": 1, 
		 "sigma_profile": "yes", 
		 "theory": "DFT", 
		 "functional": "B3LYP", 
		 "basiset": "6-31G**", 
		 "properties": { 
			 "R2extent": 9674.2274, 
			 "electric_dipole_moment_norm": 2.0922663167, 
			 "electric_quadrupole_moment_norm": 33.2008651923, 
			 "total_energy": -881.932232953, 
			 "HOMO_LUMO_gap": 0.19627, 
			 "cosmo_polarized_energy": -18.73, 
			 "cosmo_cavitation_energy": 43.48, 
			 "cosmo_dispersion_energy": -30.26, 
			 "cosmo_repulsion_energy": 2.37, 
			 "cosmo_total_nonelectrostatic_energy": 15.6, 
			 "SMD_solvation_energy": 7.22 
		},
		"coords": [
			{
				"x": 4.3029953799,
				"y": -0.5329650805,
				"z": 1.552744022,
				"element": "C" 
			},
			{
				"x": 3.8073768863,
				"y": 0.9180079401,
				"z": 1.5330922923,
				"element": "C" 
			},
			{
				"x": 4.4264889411,
				"y": 1.6870363216,
				"z": 0.3626657177,
				"element": "C" 
			},
			{
				"x": 2.3410498692,
				"y": 0.9636281764,
				"z": 1.4025729035,
				"element": "N" 
			},
			{
				"x": 1.5946925754,
				"y": 0.6451941336,
				"z": 2.6198129869,
				"element": "C" 
			},
			{
				"x": 0.09926587,
				"y": 0.5630813905,
				"z": 2.3143396629,
				"element": "C" 
			},
			{
				"x": -0.5892135703,
				"y": 0.4819585408,
				"z": 3.5543952996,
				"element": "O" 
			},
			{
				"x": -0.2332643435,
				"y": -0.6497524793,
				"z": 1.4454796067,
				"element": "C" 
			},
			{
				"x": -1.6348251011,
				"y": -0.6950467069,
				"z": 1.1505290337,
				"element": "O" 
			},
			{
				"x": -2.1194410518,
				"y": -0.0066932936,
				"z": 0.0656574969,
				"element": "C" 
			},
			{
				"x": -3.4956022457,
				"y": -0.1384220186,
				"z": -0.1646499746,
				"element": "C" 
			},
			{
				"x": -4.0903137041,
				"y": 0.5055291113,
				"z": -1.2400636653,
				"element": "C" 
			},
			{
				"x": -3.3308148768,
				"y": 1.2981849345,
				"z": -2.1165506687,
				"element": "C" 
			},
			{
				"x": -4.0088226456,
				"y": 1.9215110344,
				"z": -3.1898077956,
				"element": "N" 
			},
			{
				"x": -3.5014604645,
				"y": 2.7459757849,
				"z": -4.1673686099,
				"element": "C" 
			},
			{
				"x": -4.5317517456,
				"y": 3.2388340479,
				"z": -5.1752051824,
				"element": "C" 
			},
			{
				"x": -2.3249480661,
				"y": 3.0737487996,
				"z": -4.2479750747,
				"element": "O" 
			},
			{
				"x": -1.9564295519,
				"y": 1.4309745155,
				"z": -1.8859001708,
				"element": "C" 
			},
			{
				"x": -1.3579766549,
				"y": 0.7841838339,
				"z": -0.8011438622,
				"element": "C" 
			},
			{
				"x": 5.3932052383,
				"y": -0.5630577049,
				"z": 1.649757201,
				"element": "H" 
			},
			{
				"x": 3.8847564924,
				"y": -1.0995824348,
				"z": 2.3900659582,
				"element": "H" 
			},
			{
				"x": 4.020389198,
				"y": -1.040478243,
				"z": 0.6245288067,
				"element": "H" 
			},
			{
				"x": 4.1325107982,
				"y": 1.4040335391,
				"z": 2.473288266,
				"element": "H" 
			},
			{
				"x": 5.5189929895,
				"y": 1.661379869,
				"z": 0.4130224035,
				"element": "H" 
			},
			{
				"x": 4.1175835786,
				"y": 2.7390784937,
				"z": 0.3689574145,
				"element": "H" 
			},
			{
				"x": 4.1138179118,
				"y": 1.2463657917,
				"z": -0.5900983839,
				"element": "H" 
			},
			{
				"x": 2.0796112571,
				"y": 1.9031689594,
				"z": 1.1102147236,
				"element": "H" 
			},
			{
				"x": 1.9271249633,
				"y": -0.3247835085,
				"z": 3.0058319237,
				"element": "H" 
			},
			{
				"x": 1.741183085,
				"y": 1.3740318228,
				"z": 3.4357826853,
				"element": "H" 
			},
			{
				"x": -0.2010178384,
				"y": 1.4773922291,
				"z": 1.7731823728,
				"element": "H" 
			},
			{
				"x": -1.5084436479,
				"y": 0.2658854408,
				"z": 3.342704512,
				"element": "H" 
			},
			{
				"x": -0.0376384863,
				"y": -1.5590667422,
				"z": 2.0225355231,
				"element": "H" 
			},
			{
				"x": 0.374747725,
				"y": -0.6726084962,
				"z": 0.5375697257,
				"element": "H" 
			},
			{
				"x": -4.0811529748,
				"y": -0.7555444708,
				"z": 0.5088626307,
				"element": "H" 
			},
			{
				"x": -5.159737824,
				"y": 0.3894699822,
				"z": -1.4038592648,
				"element": "H" 
			},
			{
				"x": -4.9985668939,
				"y": 1.7299853233,
				"z": -3.2354314741,
				"element": "H" 
			},
			{
				"x": -5.5500616884,
				"y": 2.8849687507,
				"z": -4.9906026501,
				"element": "H" 
			},
			{
				"x": -4.5301562958,
				"y": 4.3321813955,
				"z": -5.1685411738,
				"element": "H" 
			},
			{
				"x": -4.2222730476,
				"y": 2.9199430871,
				"z": -6.1743309779,
				"element": "H" 
			},
			{
				"x": -1.3658033939,
				"y": 2.0416861255,
				"z": -2.5537847172,
				"element": "H" 
			},
			{
				"x": -0.2932766464,
				"y": 0.9157818044,
				"z": -0.6484795233,
				"element": "H" 
			}
		],
		 "valence_orbital": [ 
			{
				"type": "occ",
				"energy": -0.26277,
				"method": "rhf"
			},
			{
				"type": "occ",
				"energy": -0.25209,
				"method": "rhf"
			},
			{
				"type": "occ",
				"energy": -0.24955,
				"method": "rhf"
			},
			{
				"type": "occ",
				"energy": -0.2266,
				"method": "rhf"
			},
			{
				"type": "occ",
				"energy": -0.20048,
				"method": "rhf"
			},
			{
				"type": "unocc",
				"energy": -0.00421,
				"method": "rhf"
			},
			{
				"type": "unocc",
				"energy": -0.00273,
				"method": "rhf"
			},
			{
				"type": "unocc",
				"energy": 0.05259,
				"method": "rhf"
			},
			{
				"type": "unocc",
				"energy": 0.06387,
				"method": "rhf"
			},
			{
				"type": "unocc",
				"energy": 0.07116,
				"method": "rhf"
			}
		],
		"cosmo_sigma_profile": { 
			"-0.025": 0.0,
			"-0.024": 0.0,
			"-0.023": 0.0,
			"-0.022": 0.0,
			"-0.021": 0.0,
			"-0.02": 0.0,
			"-0.019": 0.0,
			"-0.018": 0.0,
			"-0.017": 0.0,
			"-0.016": 0.00104630187066,
			"-0.015": 0.689218174923,
			"-0.014": 1.415664305,
			"-0.013": 1.87229966563,
			"-0.012": 2.52236623231,
			"-0.011": 2.06225589875,
			"-0.01": 2.62594846724,
			"-0.009": 2.91117531032,
			"-0.008": 4.26501146388,
			"-0.007": 5.40250336375,
			"-0.006": 10.1740684067,
			"-0.005": 16.116225273,
			"-0.004": 23.3353068322,
			"-0.003": 29.3288420224,
			"-0.002": 36.3953454416,
			"-0.001": 38.7581950529,
			"0.0": 27.7653086968,
			"0.001": 27.0650115388,
			"0.002": 17.5870249983,
			"0.003": 15.8530797728,
			"0.004": 16.2492614851,
			"0.005": 16.6411300743,
			"0.006": 6.49578227463,
			"0.007": 3.99659837805,
			"0.008": 4.5862919783,
			"0.009": 4.80872658432,
			"0.01": 3.67232654482,
			"0.011": 3.63105904102,
			"0.012": 3.47368307676,
			"0.013": 4.86104723293,
			"0.014": 4.53872029154,
			"0.015": 0.912358396112,
			"0.016": 0.0,
			"0.017": 0.0,
			"0.018": 0.0,
			"0.019": 0.0,
			"0.02": 0.0,
			"0.021": 0.0,
			"0.022": 0.0,
			"0.023": 0.0,
			"0.024": 0.0,
			"0.025": 0.0
		}
	}
}
