{
	 "smiles": "NC1=C(Br)C=C(Br)C=C1", 
	 "Tm": 352.15, 
	 "num_atms": 14, 
	 "gaussian": { 
		 "optdone": 1, 
		 "sigma_profile": "yes", 
		 "theory": "DFT", 
		 "functional": "B3LYP", 
		 "basiset": "6-31G**", 
		 "properties": { 
			 "R2extent": 5491.1244, 
			 "electric_dipole_moment_norm": 3.10008485852, 
			 "electric_quadrupole_moment_norm": 4.73426982438, 
			 "total_energy": -5429.2150123, 
			 "HOMO_LUMO_gap": 0.19134, 
			 "cosmo_polarized_energy": -7.63, 
			 "cosmo_cavitation_energy": 22.54, 
			 "cosmo_dispersion_energy": -17.81, 
			 "cosmo_repulsion_energy": 1.46, 
			 "cosmo_total_nonelectrostatic_energy": 6.18, 
			 "SMD_solvation_energy": 1.56 
		},
		"coords": [
			{
				"x": -1.9363720614,
				"y": 0.3026197042,
				"z": -0.0695267974,
				"element": "N" 
			},
			{
				"x": -0.8851537393,
				"y": -0.5739300726,
				"z": -0.2660834761,
				"element": "C" 
			},
			{
				"x": -1.0748003021,
				"y": -1.9638441379,
				"z": -0.3926775314,
				"element": "C" 
			},
			{
				"x": -2.8556440621,
				"y": -2.6730540811,
				"z": -0.3786919635,
				"element": "Br" 
			},
			{
				"x": -0.0102602979,
				"y": -2.8491347398,
				"z": -0.5342044411,
				"element": "C" 
			},
			{
				"x": 1.2888102574,
				"y": -2.350227878,
				"z": -0.5571204295,
				"element": "C" 
			},
			{
				"x": 2.7583235603,
				"y": -3.5552790088,
				"z": -0.75357854,
				"element": "Br" 
			},
			{
				"x": 1.5206400638,
				"y": -0.9802658878,
				"z": -0.4398278777,
				"element": "C" 
			},
			{
				"x": 0.445575916,
				"y": -0.1116151144,
				"z": -0.2973799448,
				"element": "C" 
			},
			{
				"x": -1.7672315859,
				"y": 1.2633463463,
				"z": -0.3278599588,
				"element": "H" 
			},
			{
				"x": -2.8519607076,
				"y": -0.0386532383,
				"z": -0.3266386887,
				"element": "H" 
			},
			{
				"x": -0.1981522146,
				"y": -3.9109948897,
				"z": -0.6294830008,
				"element": "H" 
			},
			{
				"x": 2.5332878524,
				"y": -0.5942630851,
				"z": -0.460015526,
				"element": "H" 
			},
			{
				"x": 0.629537321,
				"y": 0.954996083,
				"z": -0.1988118243,
				"element": "H" 
			}
		],
		 "valence_orbital": [ 
			{
				"type": "occ",
				"energy": -0.2992,
				"method": "rhf"
			},
			{
				"type": "occ",
				"energy": -0.28562,
				"method": "rhf"
			},
			{
				"type": "occ",
				"energy": -0.28465,
				"method": "rhf"
			},
			{
				"type": "occ",
				"energy": -0.25478,
				"method": "rhf"
			},
			{
				"type": "occ",
				"energy": -0.21159,
				"method": "rhf"
			},
			{
				"type": "unocc",
				"energy": -0.02025,
				"method": "rhf"
			},
			{
				"type": "unocc",
				"energy": -0.01314,
				"method": "rhf"
			},
			{
				"type": "unocc",
				"energy": -0.0034,
				"method": "rhf"
			},
			{
				"type": "unocc",
				"energy": 0.02841,
				"method": "rhf"
			},
			{
				"type": "unocc",
				"energy": 0.07822,
				"method": "rhf"
			}
		],
		"cosmo_sigma_profile": { 
			"-0.025": 0.0,
			"-0.024": 0.0,
			"-0.023": 0.0,
			"-0.022": 0.0,
			"-0.021": 0.0,
			"-0.02": 0.0,
			"-0.019": 0.0,
			"-0.018": 0.0,
			"-0.017": 0.0,
			"-0.016": 0.0,
			"-0.015": 0.0,
			"-0.014": 0.370146445157,
			"-0.013": 1.38980816849,
			"-0.012": 1.8389894957,
			"-0.011": 2.52996278564,
			"-0.01": 2.44844605981,
			"-0.009": 2.7958837375,
			"-0.008": 2.92870640873,
			"-0.007": 5.90502122777,
			"-0.006": 6.58005679537,
			"-0.005": 7.14735869083,
			"-0.004": 8.50079649562,
			"-0.003": 8.38173037345,
			"-0.002": 8.9031642217,
			"-0.001": 9.65972042965,
			"0.0": 12.3136588134,
			"0.001": 14.3458568227,
			"0.002": 21.3315704585,
			"0.003": 27.7335919221,
			"0.004": 24.0031588763,
			"0.005": 12.7838125148,
			"0.006": 1.0146083809,
			"0.007": 0.85370767527,
			"0.008": 0.788160879949,
			"0.009": 0.382050905398,
			"0.01": 0.687542539589,
			"0.011": 0.703313884376,
			"0.012": 0.597742273421,
			"0.013": 0.113386101882,
			"0.014": 0.0,
			"0.015": 0.0,
			"0.016": 0.0,
			"0.017": 0.0,
			"0.018": 0.0,
			"0.019": 0.0,
			"0.02": 0.0,
			"0.021": 0.0,
			"0.022": 0.0,
			"0.023": 0.0,
			"0.024": 0.0,
			"0.025": 0.0
		}
	}
}
