{
	 "smiles": "FC(F)OC1=C(C=O)C(Cl)=CC=C1", 
	 "Tm": 311.15, 
	 "num_atms": 18, 
	 "gaussian": { 
		 "optdone": 1, 
		 "sigma_profile": "yes", 
		 "theory": "DFT", 
		 "functional": "B3LYP", 
		 "basiset": "6-31G**", 
		 "properties": { 
			 "R2extent": 3170.0348, 
			 "electric_dipole_moment_norm": 3.86329614319, 
			 "electric_quadrupole_moment_norm": 8.75744654223, 
			 "total_energy": -1118.15700408, 
			 "HOMO_LUMO_gap": 0.18509, 
			 "cosmo_polarized_energy": -7.92, 
			 "cosmo_cavitation_energy": 25.5, 
			 "cosmo_dispersion_energy": -18.41, 
			 "cosmo_repulsion_energy": 1.41, 
			 "cosmo_total_nonelectrostatic_energy": 8.5, 
			 "SMD_solvation_energy": 6.24 
		},
		"coords": [
			{
				"x": 3.0008750204,
				"y": 0.2439970261,
				"z": -2.6628172607,
				"element": "F" 
			},
			{
				"x": 1.8663886392,
				"y": 0.9763040622,
				"z": -2.4656184141,
				"element": "C" 
			},
			{
				"x": 2.0136999509,
				"y": 2.1502735588,
				"z": -3.0957978955,
				"element": "F" 
			},
			{
				"x": 1.7345673116,
				"y": 1.2796834875,
				"z": -1.1191559392,
				"element": "O" 
			},
			{
				"x": 1.5563435775,
				"y": 0.2261708867,
				"z": -0.2444825818,
				"element": "C" 
			},
			{
				"x": 0.2590710671,
				"y": -0.2360956254,
				"z": 0.0783676587,
				"element": "C" 
			},
			{
				"x": -0.9593216991,
				"y": 0.3206907635,
				"z": -0.5720034749,
				"element": "C" 
			},
			{
				"x": -0.9787529313,
				"y": 0.8532491664,
				"z": -1.6655785599,
				"element": "O" 
			},
			{
				"x": 0.1651574461,
				"y": -1.2247191434,
				"z": 1.0779186221,
				"element": "C" 
			},
			{
				"x": -1.4020563205,
				"y": -1.8768748091,
				"z": 1.5467626956,
				"element": "Cl" 
			},
			{
				"x": 1.2878828687,
				"y": -1.748226152,
				"z": 1.7124331531,
				"element": "C" 
			},
			{
				"x": 2.5497692988,
				"y": -1.2688773673,
				"z": 1.3627712867,
				"element": "C" 
			},
			{
				"x": 2.6871482136,
				"y": -0.2811365399,
				"z": 0.3903217611,
				"element": "C" 
			},
			{
				"x": 1.0094264959,
				"y": 0.4294464636,
				"z": -2.862301657,
				"element": "H" 
			},
			{
				"x": -1.886633138,
				"y": 0.2176423601,
				"z": 0.0193951141,
				"element": "H" 
			},
			{
				"x": 1.1699871256,
				"y": -2.5177816232,
				"z": 2.4663248322,
				"element": "H" 
			},
			{
				"x": 3.4303020531,
				"y": -1.6693988965,
				"z": 1.855304928,
				"element": "H" 
			},
			{
				"x": 3.6564450205,
				"y": 0.1154523817,
				"z": 0.1127557316,
				"element": "H" 
			}
		],
		 "valence_orbital": [ 
			{
				"type": "occ",
				"energy": -0.34064,
				"method": "rhf"
			},
			{
				"type": "occ",
				"energy": -0.32435,
				"method": "rhf"
			},
			{
				"type": "occ",
				"energy": -0.28391,
				"method": "rhf"
			},
			{
				"type": "occ",
				"energy": -0.27079,
				"method": "rhf"
			},
			{
				"type": "occ",
				"energy": -0.26839,
				"method": "rhf"
			},
			{
				"type": "unocc",
				"energy": -0.0833,
				"method": "rhf"
			},
			{
				"type": "unocc",
				"energy": -0.03606,
				"method": "rhf"
			},
			{
				"type": "unocc",
				"energy": 0.0047,
				"method": "rhf"
			},
			{
				"type": "unocc",
				"energy": 0.01115,
				"method": "rhf"
			},
			{
				"type": "unocc",
				"energy": 0.09212,
				"method": "rhf"
			}
		],
		"cosmo_sigma_profile": { 
			"-0.025": 0.0,
			"-0.024": 0.0,
			"-0.023": 0.0,
			"-0.022": 0.0,
			"-0.021": 0.0,
			"-0.02": 0.0,
			"-0.019": 0.0,
			"-0.018": 0.0,
			"-0.017": 0.0,
			"-0.016": 0.0,
			"-0.015": 0.0,
			"-0.014": 0.0,
			"-0.013": 0.0,
			"-0.012": 0.0,
			"-0.011": 0.0,
			"-0.01": 0.0326011166134,
			"-0.009": 1.28072444945,
			"-0.008": 6.82354734447,
			"-0.007": 10.2468158122,
			"-0.006": 10.3568790316,
			"-0.005": 9.09177634842,
			"-0.004": 10.2239289155,
			"-0.003": 11.5984006612,
			"-0.002": 13.0202587505,
			"-0.001": 14.0945552229,
			"0.0": 20.6658861424,
			"0.001": 19.7200810636,
			"0.002": 15.5499766176,
			"0.003": 25.0315738953,
			"0.004": 19.0157065741,
			"0.005": 3.80238977399,
			"0.006": 4.07496700764,
			"0.007": 3.61956538215,
			"0.008": 3.07715265819,
			"0.009": 2.01859685266,
			"0.01": 1.85619782839,
			"0.011": 1.70436026394,
			"0.012": 0.771081766149,
			"0.013": 0.0,
			"0.014": 0.0,
			"0.015": 0.0,
			"0.016": 0.0,
			"0.017": 0.0,
			"0.018": 0.0,
			"0.019": 0.0,
			"0.02": 0.0,
			"0.021": 0.0,
			"0.022": 0.0,
			"0.023": 0.0,
			"0.024": 0.0,
			"0.025": 0.0
		}
	}
}
