{
	 "smiles": "CCOC(=O)C1=C(O)N=CN=C1", 
	 "Tm": 453.15, 
	 "num_atms": 20, 
	 "gaussian": { 
		 "optdone": 1, 
		 "sigma_profile": "yes", 
		 "theory": "DFT", 
		 "functional": "B3LYP", 
		 "basiset": "6-31G**", 
		 "properties": { 
			 "R2extent": 3158.0498, 
			 "electric_dipole_moment_norm": 4.37049599931, 
			 "electric_quadrupole_moment_norm": 7.93358740861, 
			 "total_energy": -606.762826892, 
			 "HOMO_LUMO_gap": 0.19154, 
			 "cosmo_polarized_energy": -10.45, 
			 "cosmo_cavitation_energy": 24.56, 
			 "cosmo_dispersion_energy": -18.41, 
			 "cosmo_repulsion_energy": 1.47, 
			 "cosmo_total_nonelectrostatic_energy": 7.61, 
			 "SMD_solvation_energy": 2.85 
		},
		"coords": [
			{
				"x": 0.6889868334,
				"y": -2.1777583786,
				"z": -0.094851523,
				"element": "C" 
			},
			{
				"x": 1.1637484025,
				"y": -1.1697469263,
				"z": 0.9392131883,
				"element": "C" 
			},
			{
				"x": 0.738593601,
				"y": 0.1777137705,
				"z": 0.5940648322,
				"element": "O" 
			},
			{
				"x": -0.4829216662,
				"y": 0.5541492075,
				"z": 0.9859532852,
				"element": "C" 
			},
			{
				"x": -1.2449888663,
				"y": -0.1772804486,
				"z": 1.6221235802,
				"element": "O" 
			},
			{
				"x": -0.8380479221,
				"y": 1.9264630044,
				"z": 0.5939535822,
				"element": "C" 
			},
			{
				"x": -2.1083269019,
				"y": 2.4603805279,
				"z": 0.9496279264,
				"element": "C" 
			},
			{
				"x": -3.0041948292,
				"y": 1.7642998193,
				"z": 1.6343479609,
				"element": "O" 
			},
			{
				"x": -2.4559403073,
				"y": 3.7041640616,
				"z": 0.6034651479,
				"element": "N" 
			},
			{
				"x": -1.5556166725,
				"y": 4.4025057618,
				"z": -0.0830014601,
				"element": "C" 
			},
			{
				"x": -0.3308837416,
				"y": 4.0162307343,
				"z": -0.4774734497,
				"element": "N" 
			},
			{
				"x": 0.0071830884,
				"y": 2.7738196025,
				"z": -0.1280400184,
				"element": "C" 
			},
			{
				"x": 1.0910235447,
				"y": -3.1669733935,
				"z": 0.1470454946,
				"element": "H" 
			},
			{
				"x": 1.0337384461,
				"y": -1.9027225477,
				"z": -1.0956800883,
				"element": "H" 
			},
			{
				"x": -0.4016152334,
				"y": -2.2442441094,
				"z": -0.0996636159,
				"element": "H" 
			},
			{
				"x": 2.2530810644,
				"y": -1.1016123323,
				"z": 0.9673650967,
				"element": "H" 
			},
			{
				"x": 0.7869478602,
				"y": -1.4097859156,
				"z": 1.9354627835,
				"element": "H" 
			},
			{
				"x": -2.6050519417,
				"y": 0.8768492622,
				"z": 1.8140210613,
				"element": "H" 
			},
			{
				"x": -1.848586575,
				"y": 5.413941049,
				"z": -0.359799686,
				"element": "H" 
			},
			{
				"x": 0.9911718167,
				"y": 2.4232072509,
				"z": -0.4295340981,
				"element": "H" 
			}
		],
		 "valence_orbital": [ 
			{
				"type": "occ",
				"energy": -0.32313,
				"method": "rhf"
			},
			{
				"type": "occ",
				"energy": -0.30985,
				"method": "rhf"
			},
			{
				"type": "occ",
				"energy": -0.29594,
				"method": "rhf"
			},
			{
				"type": "occ",
				"energy": -0.27212,
				"method": "rhf"
			},
			{
				"type": "occ",
				"energy": -0.26293,
				"method": "rhf"
			},
			{
				"type": "unocc",
				"energy": -0.07139,
				"method": "rhf"
			},
			{
				"type": "unocc",
				"energy": -0.028,
				"method": "rhf"
			},
			{
				"type": "unocc",
				"energy": 0.02526,
				"method": "rhf"
			},
			{
				"type": "unocc",
				"energy": 0.09251,
				"method": "rhf"
			},
			{
				"type": "unocc",
				"energy": 0.09831,
				"method": "rhf"
			}
		],
		"cosmo_sigma_profile": { 
			"-0.025": 0.0,
			"-0.024": 0.0,
			"-0.023": 0.0,
			"-0.022": 0.0,
			"-0.021": 0.0,
			"-0.02": 0.0,
			"-0.019": 0.0,
			"-0.018": 0.0,
			"-0.017": 0.0,
			"-0.016": 0.0,
			"-0.015": 0.0,
			"-0.014": 0.0,
			"-0.013": 0.0,
			"-0.012": 0.0,
			"-0.011": 0.0,
			"-0.01": 0.0331776997335,
			"-0.009": 0.838123404753,
			"-0.008": 3.08089634763,
			"-0.007": 5.14801257115,
			"-0.006": 8.32839309256,
			"-0.005": 15.6671834141,
			"-0.004": 22.1928094403,
			"-0.003": 22.548569723,
			"-0.002": 20.4943914406,
			"-0.001": 17.5184235758,
			"0.0": 13.4703548903,
			"0.001": 8.95514650029,
			"0.002": 6.65375022521,
			"0.003": 6.85250168551,
			"0.004": 5.67668753257,
			"0.005": 5.15559134097,
			"0.006": 4.1513581339,
			"0.007": 4.65939565553,
			"0.008": 4.60270985595,
			"0.009": 4.5359345386,
			"0.01": 5.49342006892,
			"0.011": 3.1416175592,
			"0.012": 2.69673304525,
			"0.013": 1.44769158745,
			"0.014": 2.06964449814,
			"0.015": 0.910106300506,
			"0.016": 0.0879606371243,
			"0.017": 0.0,
			"0.018": 0.0,
			"0.019": 0.0,
			"0.02": 0.0,
			"0.021": 0.0,
			"0.022": 0.0,
			"0.023": 0.0,
			"0.024": 0.0,
			"0.025": 0.0
		}
	}
}
