{
	 "smiles": "CC1=CC=CC=C1C(=O)NN", 
	 "Tm": 396.15, 
	 "num_atms": 21, 
	 "gaussian": { 
		 "optdone": 1, 
		 "sigma_profile": "yes", 
		 "theory": "DFT", 
		 "functional": "B3LYP", 
		 "basiset": "6-31G**", 
		 "properties": { 
			 "R2extent": 2293.1062, 
			 "electric_dipole_moment_norm": 3.25669261215, 
			 "electric_quadrupole_moment_norm": 5.73341891457, 
			 "total_energy": -495.585553266, 
			 "HOMO_LUMO_gap": 0.20741, 
			 "cosmo_polarized_energy": -12.94, 
			 "cosmo_cavitation_energy": 24.52, 
			 "cosmo_dispersion_energy": -17.7, 
			 "cosmo_repulsion_energy": 1.44, 
			 "cosmo_total_nonelectrostatic_energy": 8.26, 
			 "SMD_solvation_energy": 5.25 
		},
		"coords": [
			{
				"x": -1.3249778752,
				"y": 0.3000534143,
				"z": -0.6426482289,
				"element": "C" 
			},
			{
				"x": -0.4088493791,
				"y": -0.9017244443,
				"z": -0.6574211725,
				"element": "C" 
			},
			{
				"x": -0.9479985795,
				"y": -2.1935703434,
				"z": -0.7038104645,
				"element": "C" 
			},
			{
				"x": -0.1371671161,
				"y": -3.3291041975,
				"z": -0.6879720419,
				"element": "C" 
			},
			{
				"x": 1.249356418,
				"y": -3.1931540908,
				"z": -0.6278418159,
				"element": "C" 
			},
			{
				"x": 1.8077589546,
				"y": -1.9165318074,
				"z": -0.6025775865,
				"element": "C" 
			},
			{
				"x": 0.9966844422,
				"y": -0.7727541173,
				"z": -0.6228601806,
				"element": "C" 
			},
			{
				"x": 1.6339487792,
				"y": 0.5859041718,
				"z": -0.5033620547,
				"element": "C" 
			},
			{
				"x": 1.2824407459,
				"y": 1.4107562724,
				"z": 0.3319792705,
				"element": "O" 
			},
			{
				"x": 2.6839880156,
				"y": 0.8625678405,
				"z": -1.3570727219,
				"element": "N" 
			},
			{
				"x": 2.9199525732,
				"y": 0.2673288303,
				"z": -2.6148025132,
				"element": "N" 
			},
			{
				"x": -1.0861074568,
				"y": 1.0052112123,
				"z": -1.446254696,
				"element": "H" 
			},
			{
				"x": -2.3669412623,
				"y": -0.0082438783,
				"z": -0.7618530727,
				"element": "H" 
			},
			{
				"x": -1.2211445802,
				"y": 0.8534505356,
				"z": 0.2938939209,
				"element": "H" 
			},
			{
				"x": -2.0281246343,
				"y": -2.3080331682,
				"z": -0.7445664349,
				"element": "H" 
			},
			{
				"x": -0.589452124,
				"y": -4.3163728096,
				"z": -0.7163958231,
				"element": "H" 
			},
			{
				"x": 1.8897268605,
				"y": -4.0696627034,
				"z": -0.598499718,
				"element": "H" 
			},
			{
				"x": 2.8861911223,
				"y": -1.8008081414,
				"z": -0.5321835928,
				"element": "H" 
			},
			{
				"x": 3.0266526991,
				"y": 1.8128726546,
				"z": -1.2805644255,
				"element": "H" 
			},
			{
				"x": 2.0367441019,
				"y": 0.0891844777,
				"z": -3.0879620867,
				"element": "H" 
			},
			{
				"x": 3.3821182948,
				"y": -0.627869708,
				"z": -2.4848245608,
				"element": "H" 
			}
		],
		 "valence_orbital": [ 
			{
				"type": "occ",
				"energy": -0.29289,
				"method": "rhf"
			},
			{
				"type": "occ",
				"energy": -0.26394,
				"method": "rhf"
			},
			{
				"type": "occ",
				"energy": -0.25629,
				"method": "rhf"
			},
			{
				"type": "occ",
				"energy": -0.24995,
				"method": "rhf"
			},
			{
				"type": "occ",
				"energy": -0.24,
				"method": "rhf"
			},
			{
				"type": "unocc",
				"energy": -0.03259,
				"method": "rhf"
			},
			{
				"type": "unocc",
				"energy": -0.00759,
				"method": "rhf"
			},
			{
				"type": "unocc",
				"energy": 0.0389,
				"method": "rhf"
			},
			{
				"type": "unocc",
				"energy": 0.07233,
				"method": "rhf"
			},
			{
				"type": "unocc",
				"energy": 0.09557,
				"method": "rhf"
			}
		],
		"cosmo_sigma_profile": { 
			"-0.025": 0.0,
			"-0.024": 0.0,
			"-0.023": 0.0,
			"-0.022": 0.0,
			"-0.021": 0.0,
			"-0.02": 0.0,
			"-0.019": 0.0,
			"-0.018": 0.0,
			"-0.017": 0.0,
			"-0.016": 0.0,
			"-0.015": 0.0,
			"-0.014": 0.127521229292,
			"-0.013": 0.68421248369,
			"-0.012": 1.13901175749,
			"-0.011": 3.56609162004,
			"-0.01": 4.03503387612,
			"-0.009": 4.12344653971,
			"-0.008": 3.53066297836,
			"-0.007": 3.45296065397,
			"-0.006": 8.74140260703,
			"-0.005": 13.2050905977,
			"-0.004": 15.2059000011,
			"-0.003": 13.1729689201,
			"-0.002": 13.5266714873,
			"-0.001": 13.3482172328,
			"0.0": 13.6514524513,
			"0.001": 12.4994933655,
			"0.002": 10.4502681152,
			"0.003": 9.76904031482,
			"0.004": 10.6096405526,
			"0.005": 11.5613228612,
			"0.006": 3.46083204672,
			"0.007": 3.03540198582,
			"0.008": 2.30248654679,
			"0.009": 1.41331273166,
			"0.01": 2.00587230265,
			"0.011": 3.06503895367,
			"0.012": 2.24995163775,
			"0.013": 5.20258752412,
			"0.014": 3.63751501856,
			"0.015": 0.396975756487,
			"0.016": 0.462663797507,
			"0.017": 0.0826880110086,
			"0.018": 0.0,
			"0.019": 0.0,
			"0.02": 0.0,
			"0.021": 0.0,
			"0.022": 0.0,
			"0.023": 0.0,
			"0.024": 0.0,
			"0.025": 0.0
		}
	}
}
