{
	 "smiles": "COC1=CC2=C(C(OC(C)=O)=C1)C(=O)C(O[C@@H]1O[C@H](COC(C)=O)C(OC(C)=O)[C@H](OC(C)=O)C1O[C@@H]1OC(C)[C@H](OC(C)=O)C(OC(C)=O)C1OC(C)=O)=C(O2)C1=CC(OC(C)=O)=C(OC(C)=O)C=C1", 
	 "Tm": 392.15, 
	 "num_atms": 121, 
	 "gaussian": { 
		 "optdone": 1, 
		 "sigma_profile": "yes", 
		 "theory": "DFT", 
		 "functional": "B3LYP", 
		 "basiset": "6-31G**", 
		 "properties": { 
			 "R2extent": 55719.1442, 
			 "electric_dipole_moment_norm": 8.61363248926, 
			 "electric_quadrupole_moment_norm": 78.3332018434, 
			 "total_energy": -3663.69217391, 
			 "HOMO_LUMO_gap": 0.15756, 
			 "cosmo_polarized_energy": -51.36, 
			 "cosmo_cavitation_energy": 122.32, 
			 "cosmo_dispersion_energy": -64.21, 
			 "cosmo_repulsion_energy": 4.71, 
			 "cosmo_total_nonelectrostatic_energy": 62.82, 
			 "SMD_solvation_energy": 29.68 
		},
		"coords": [
			{
				"x": 0.4172511536,
				"y": 0.0477606324,
				"z": -9.663124635,
				"element": "C" 
			},
			{
				"x": 1.3548778268,
				"y": 0.8321805028,
				"z": -8.9340690292,
				"element": "O" 
			},
			{
				"x": 1.2886227462,
				"y": 0.8280615709,
				"z": -7.5823116381,
				"element": "C" 
			},
			{
				"x": 0.3522961176,
				"y": 0.1132722608,
				"z": -6.8398581376,
				"element": "C" 
			},
			{
				"x": 0.3997011032,
				"y": 0.207697434,
				"z": -5.4450439377,
				"element": "C" 
			},
			{
				"x": 1.3424755636,
				"y": 0.9841392951,
				"z": -4.7538001522,
				"element": "C" 
			},
			{
				"x": 2.28589343,
				"y": 1.6823888151,
				"z": -5.5545461401,
				"element": "C" 
			},
			{
				"x": 3.2185224582,
				"y": 2.5193524526,
				"z": -4.9761223586,
				"element": "O" 
			},
			{
				"x": 4.2306914776,
				"y": 1.9412719952,
				"z": -4.226120528,
				"element": "C" 
			},
			{
				"x": 4.9612126209,
				"y": 3.0036159067,
				"z": -3.456179575,
				"element": "C" 
			},
			{
				"x": 4.4593460371,
				"y": 0.7607633222,
				"z": -4.2385624339,
				"element": "O" 
			},
			{
				"x": 2.2623598261,
				"y": 1.6127539803,
				"z": -6.9299739084,
				"element": "C" 
			},
			{
				"x": 1.27371301,
				"y": 1.0568097309,
				"z": -3.2891743158,
				"element": "C" 
			},
			{
				"x": 2.0420941309,
				"y": 1.7168826187,
				"z": -2.5765534835,
				"element": "O" 
			},
			{
				"x": 0.2023662273,
				"y": 0.2545432147,
				"z": -2.6864062779,
				"element": "C" 
			},
			{
				"x": 0.0838905595,
				"y": 0.3368460599,
				"z": -1.3167320126,
				"element": "O" 
			},
			{
				"x": 1.0047484699,
				"y": -0.4388654329,
				"z": -0.5852933196,
				"element": "C" 
			},
			{
				"x": 0.5111557045,
				"y": -1.7616131985,
				"z": -0.5692390452,
				"element": "O" 
			},
			{
				"x": 1.3775003854,
				"y": -2.7031282803,
				"z": 0.0577844788,
				"element": "C" 
			},
			{
				"x": 0.7094669986,
				"y": -4.0656899698,
				"z": -0.0015208874,
				"element": "C" 
			},
			{
				"x": 0.6283057742,
				"y": -4.4770225915,
				"z": -1.3767044343,
				"element": "O" 
			},
			{
				"x": 0.4303669713,
				"y": -5.8060222102,
				"z": -1.5739290418,
				"element": "C" 
			},
			{
				"x": 0.1621152396,
				"y": -6.1051592696,
				"z": -3.0270963662,
				"element": "C" 
			},
			{
				"x": 0.4375988278,
				"y": -6.6238903442,
				"z": -0.6805153805,
				"element": "O" 
			},
			{
				"x": 1.6901751815,
				"y": -2.2985208535,
				"z": 1.5087162794,
				"element": "C" 
			},
			{
				"x": 0.5155761748,
				"y": -2.519972553,
				"z": 2.3146043798,
				"element": "O" 
			},
			{
				"x": 0.6859420454,
				"y": -3.0841967636,
				"z": 3.5411487205,
				"element": "C" 
			},
			{
				"x": -0.6548709346,
				"y": -3.3535132475,
				"z": 4.1772781427,
				"element": "C" 
			},
			{
				"x": 1.7660415486,
				"y": -3.3255995271,
				"z": 4.0332100907,
				"element": "O" 
			},
			{
				"x": 2.1163200082,
				"y": -0.8270687544,
				"z": 1.5497128621,
				"element": "C" 
			},
			{
				"x": 2.3586692865,
				"y": -0.4015998919,
				"z": 2.8988179653,
				"element": "O" 
			},
			{
				"x": 3.6117073699,
				"y": -0.6826033777,
				"z": 3.3916242523,
				"element": "C" 
			},
			{
				"x": 3.7171465649,
				"y": -0.2990356954,
				"z": 4.8402991334,
				"element": "C" 
			},
			{
				"x": 4.4835863952,
				"y": -1.1732762673,
				"z": 2.714089542,
				"element": "O" 
			},
			{
				"x": 1.1308953199,
				"y": 0.1228480267,
				"z": 0.843194188,
				"element": "C" 
			},
			{
				"x": -0.1858069834,
				"y": 0.1968335499,
				"z": 1.3631592439,
				"element": "O" 
			},
			{
				"x": -0.435015652,
				"y": 0.6204501436,
				"z": 2.6969784663,
				"element": "C" 
			},
			{
				"x": -1.826114785,
				"y": 0.6630674474,
				"z": 2.8746772267,
				"element": "O" 
			},
			{
				"x": -2.583779982,
				"y": 1.7575919155,
				"z": 2.2996972694,
				"element": "C" 
			},
			{
				"x": -2.832431254,
				"y": 1.6043521485,
				"z": 0.8007768896,
				"element": "C" 
			},
			{
				"x": -1.9539717712,
				"y": 3.087627888,
				"z": 2.7492895022,
				"element": "C" 
			},
			{
				"x": -2.6531709224,
				"y": 4.1644177821,
				"z": 2.1065279951,
				"element": "O" 
			},
			{
				"x": -2.7193985775,
				"y": 5.3406000686,
				"z": 2.7976850059,
				"element": "C" 
			},
			{
				"x": -3.2895855397,
				"y": 6.432069701,
				"z": 1.9323849217,
				"element": "C" 
			},
			{
				"x": -2.3387499588,
				"y": 5.4656693474,
				"z": 3.9393201747,
				"element": "O" 
			},
			{
				"x": -0.4507936482,
				"y": 3.1823620505,
				"z": 2.4763751363,
				"element": "C" 
			},
			{
				"x": -0.1546330491,
				"y": 3.193790031,
				"z": 1.0681866643,
				"element": "O" 
			},
			{
				"x": 0.0080438506,
				"y": 4.407525475,
				"z": 0.4659678352,
				"element": "C" 
			},
			{
				"x": 0.240703726,
				"y": 4.2358641817,
				"z": -1.0114925276,
				"element": "C" 
			},
			{
				"x": -0.0500358561,
				"y": 5.4625722911,
				"z": 1.0580749891,
				"element": "O" 
			},
			{
				"x": 0.240186175,
				"y": 1.9544538364,
				"z": 3.0767403297,
				"element": "C" 
			},
			{
				"x": 0.1003847271,
				"y": 2.0502188068,
				"z": 4.513202622,
				"element": "O" 
			},
			{
				"x": 1.1486217958,
				"y": 2.5614586216,
				"z": 5.2128619064,
				"element": "C" 
			},
			{
				"x": 0.7973003548,
				"y": 2.6866596089,
				"z": 6.6735505807,
				"element": "C" 
			},
			{
				"x": 2.2058814212,
				"y": 2.8733381021,
				"z": 4.7099653686,
				"element": "O" 
			},
			{
				"x": -0.6527552254,
				"y": -0.5124239212,
				"z": -3.4261959067,
				"element": "C" 
			},
			{
				"x": -0.5567792399,
				"y": -0.5117102349,
				"z": -4.7890616107,
				"element": "O" 
			},
			{
				"x": -1.7010110058,
				"y": -1.4304842227,
				"z": -2.9514660701,
				"element": "C" 
			},
			{
				"x": -2.2531643885,
				"y": -1.3120835473,
				"z": -1.6673076051,
				"element": "C" 
			},
			{
				"x": -3.1666246435,
				"y": -2.2472719274,
				"z": -1.2118079792,
				"element": "C" 
			},
			{
				"x": -3.7373464551,
				"y": -2.0251885066,
				"z": 0.0398822247,
				"element": "O" 
			},
			{
				"x": -3.4005534903,
				"y": -2.8325464721,
				"z": 1.094351261,
				"element": "C" 
			},
			{
				"x": -3.9694010332,
				"y": -2.2669905764,
				"z": 2.3678282928,
				"element": "C" 
			},
			{
				"x": -2.721052214,
				"y": -3.8267063127,
				"z": 0.9916819582,
				"element": "O" 
			},
			{
				"x": -3.5557808148,
				"y": -3.3235820223,
				"z": -2.0153417313,
				"element": "C" 
			},
			{
				"x": -4.4680449647,
				"y": -4.2123146151,
				"z": -1.476756708,
				"element": "O" 
			},
			{
				"x": -4.2228051753,
				"y": -5.5697441972,
				"z": -1.5369579765,
				"element": "C" 
			},
			{
				"x": -5.212811193,
				"y": -6.2981930213,
				"z": -0.6696123911,
				"element": "C" 
			},
			{
				"x": -3.3364713652,
				"y": -6.0678809778,
				"z": -2.182599583,
				"element": "O" 
			},
			{
				"x": -3.0549128991,
				"y": -3.4202107742,
				"z": -3.3144354206,
				"element": "C" 
			},
			{
				"x": -2.1390909553,
				"y": -2.4805249597,
				"z": -3.7776469725,
				"element": "C" 
			},
			{
				"x": -0.6116026829,
				"y": 0.3780326436,
				"z": -9.4757120079,
				"element": "H" 
			},
			{
				"x": 0.6588498232,
				"y": 0.196598303,
				"z": -10.7158140554,
				"element": "H" 
			},
			{
				"x": 0.5091390852,
				"y": -1.0165455612,
				"z": -9.4155106327,
				"element": "H" 
			},
			{
				"x": -0.4107747307,
				"y": -0.5056136835,
				"z": -7.2918528745,
				"element": "H" 
			},
			{
				"x": 5.1580434826,
				"y": 3.876222571,
				"z": -4.0836657995,
				"element": "H" 
			},
			{
				"x": 5.8915913316,
				"y": 2.5948880981,
				"z": -3.0629995923,
				"element": "H" 
			},
			{
				"x": 4.3165719483,
				"y": 3.3172615429,
				"z": -2.6299702136,
				"element": "H" 
			},
			{
				"x": 2.9923343715,
				"y": 2.1569011919,
				"z": -7.5165731199,
				"element": "H" 
			},
			{
				"x": 1.9926908989,
				"y": -0.4022030705,
				"z": -1.0697005819,
				"element": "H" 
			},
			{
				"x": 2.3357645525,
				"y": -2.7432527776,
				"z": -0.4872980522,
				"element": "H" 
			},
			{
				"x": -0.2999203876,
				"y": -4.0099085783,
				"z": 0.4117521027,
				"element": "H" 
			},
			{
				"x": 1.287320288,
				"y": -4.7989119559,
				"z": 0.5683194322,
				"element": "H" 
			},
			{
				"x": 0.6514375451,
				"y": -5.3829090954,
				"z": -3.6829329701,
				"element": "H" 
			},
			{
				"x": -0.9205600793,
				"y": -6.0460740725,
				"z": -3.1821868645,
				"element": "H" 
			},
			{
				"x": 0.4895464626,
				"y": -7.120521469,
				"z": -3.2541898751,
				"element": "H" 
			},
			{
				"x": 2.5037602735,
				"y": -2.9113997552,
				"z": 1.9041832958,
				"element": "H" 
			},
			{
				"x": -1.3085850866,
				"y": -3.8662437626,
				"z": 3.4665096411,
				"element": "H" 
			},
			{
				"x": -0.5154048336,
				"y": -3.9502456939,
				"z": 5.0782851939,
				"element": "H" 
			},
			{
				"x": -1.1338419061,
				"y": -2.4039691344,
				"z": 4.4387685646,
				"element": "H" 
			},
			{
				"x": 3.0654348315,
				"y": -0.7640295466,
				"z": 1.0048562948,
				"element": "H" 
			},
			{
				"x": 4.730313102,
				"y": -0.4966649745,
				"z": 5.1885372709,
				"element": "H" 
			},
			{
				"x": 3.4698316071,
				"y": 0.7582032353,
				"z": 4.9693020752,
				"element": "H" 
			},
			{
				"x": 3.0054338235,
				"y": -0.8964959763,
				"z": 5.4180806403,
				"element": "H" 
			},
			{
				"x": 1.5813344869,
				"y": 1.1209823918,
				"z": 0.775589038,
				"element": "H" 
			},
			{
				"x": -0.0840359158,
				"y": -0.1395598471,
				"z": 3.4003724406,
				"element": "H" 
			},
			{
				"x": -3.5482075526,
				"y": 1.6769624733,
				"z": 2.8128316526,
				"element": "H" 
			},
			{
				"x": -1.9068722006,
				"y": 1.6406688786,
				"z": 0.2285804612,
				"element": "H" 
			},
			{
				"x": -3.496253636,
				"y": 2.4051019839,
				"z": 0.4624599211,
				"element": "H" 
			},
			{
				"x": -3.3252903483,
				"y": 0.6462975237,
				"z": 0.6171101386,
				"element": "H" 
			},
			{
				"x": -2.0744944633,
				"y": 3.1811766146,
				"z": 3.8308274465,
				"element": "H" 
			},
			{
				"x": -3.6200754045,
				"y": 7.2605730672,
				"z": 2.5585967974,
				"element": "H" 
			},
			{
				"x": -2.4919854459,
				"y": 6.777885599,
				"z": 1.2663079389,
				"element": "H" 
			},
			{
				"x": -4.1105620484,
				"y": 6.0604521896,
				"z": 1.3152023642,
				"element": "H" 
			},
			{
				"x": -0.0532305792,
				"y": 4.0950292235,
				"z": 2.926025172,
				"element": "H" 
			},
			{
				"x": -0.7202451209,
				"y": 4.0189270357,
				"z": -1.4917234603,
				"element": "H" 
			},
			{
				"x": 0.9061216191,
				"y": 3.395926595,
				"z": -1.2250951008,
				"element": "H" 
			},
			{
				"x": 0.637856997,
				"y": 5.1640119186,
				"z": -1.4226795262,
				"element": "H" 
			},
			{
				"x": 1.3001079317,
				"y": 1.9532287325,
				"z": 2.827285277,
				"element": "H" 
			},
			{
				"x": 1.6879726265,
				"y": 2.9574375042,
				"z": 7.2394787056,
				"element": "H" 
			},
			{
				"x": 0.3749748248,
				"y": 1.7505311434,
				"z": 7.0478080142,
				"element": "H" 
			},
			{
				"x": 0.0354014268,
				"y": 3.4630965638,
				"z": 6.7962844181,
				"element": "H" 
			},
			{
				"x": -1.952389622,
				"y": -0.5205640422,
				"z": -0.9990309941,
				"element": "H" 
			},
			{
				"x": -3.3299360757,
				"y": -1.4346973337,
				"z": 2.6864415645,
				"element": "H" 
			},
			{
				"x": -4.9762261855,
				"y": -1.8760894382,
				"z": 2.2055293676,
				"element": "H" 
			},
			{
				"x": -3.9771589236,
				"y": -3.0361389364,
				"z": 3.1400218915,
				"element": "H" 
			},
			{
				"x": -6.2205099305,
				"y": -5.9000249305,
				"z": -0.8097398641,
				"element": "H" 
			},
			{
				"x": -5.1821695946,
				"y": -7.3630242479,
				"z": -0.8979067499,
				"element": "H" 
			},
			{
				"x": -4.9334371732,
				"y": -6.1436000251,
				"z": 0.3777799351,
				"element": "H" 
			},
			{
				"x": -3.3659533405,
				"y": -4.2414281057,
				"z": -3.9461462829,
				"element": "H" 
			},
			{
				"x": -1.7415006996,
				"y": -2.5778573088,
				"z": -4.7802848168,
				"element": "H" 
			}
		],
		 "valence_orbital": [ 
			{
				"type": "occ",
				"energy": -0.25725,
				"method": "rhf"
			},
			{
				"type": "occ",
				"energy": -0.25656,
				"method": "rhf"
			},
			{
				"type": "occ",
				"energy": -0.25292,
				"method": "rhf"
			},
			{
				"type": "occ",
				"energy": -0.2459,
				"method": "rhf"
			},
			{
				"type": "occ",
				"energy": -0.23246,
				"method": "rhf"
			},
			{
				"type": "unocc",
				"energy": -0.0749,
				"method": "rhf"
			},
			{
				"type": "unocc",
				"energy": -0.03652,
				"method": "rhf"
			},
			{
				"type": "unocc",
				"energy": -0.01867,
				"method": "rhf"
			},
			{
				"type": "unocc",
				"energy": -0.01674,
				"method": "rhf"
			},
			{
				"type": "unocc",
				"energy": -0.00496,
				"method": "rhf"
			}
		],
		"cosmo_sigma_profile": { 
			"-0.025": 0.0,
			"-0.024": 0.0,
			"-0.023": 0.0,
			"-0.022": 0.0,
			"-0.021": 0.0,
			"-0.02": 0.0,
			"-0.019": 0.0,
			"-0.018": 0.0,
			"-0.017": 0.0,
			"-0.016": 0.0,
			"-0.015": 0.0,
			"-0.014": 0.0,
			"-0.013": 0.0503441687013,
			"-0.012": 0.615014920208,
			"-0.011": 1.41180238365,
			"-0.01": 1.99216818121,
			"-0.009": 4.54426304771,
			"-0.008": 11.0523545983,
			"-0.007": 24.1420047276,
			"-0.006": 58.7614865533,
			"-0.005": 66.1075600703,
			"-0.004": 76.7886640403,
			"-0.003": 94.5164015277,
			"-0.002": 103.443953751,
			"-0.001": 80.6201066935,
			"0.0": 70.1256012292,
			"0.001": 66.4564967132,
			"0.002": 50.7188326668,
			"0.003": 41.7814768357,
			"0.004": 33.7261942458,
			"0.005": 34.7665147951,
			"0.006": 28.2544128522,
			"0.007": 19.4661690635,
			"0.008": 22.2629874585,
			"0.009": 18.7707203138,
			"0.01": 18.5293058815,
			"0.011": 24.2726951806,
			"0.012": 14.2471613391,
			"0.013": 1.90508121488,
			"0.014": 0.0,
			"0.015": 0.0,
			"0.016": 0.0,
			"0.017": 0.0,
			"0.018": 0.0,
			"0.019": 0.0,
			"0.02": 0.0,
			"0.021": 0.0,
			"0.022": 0.0,
			"0.023": 0.0,
			"0.024": 0.0,
			"0.025": 0.0
		}
	}
}
