{
	 "smiles": "BrCC(=O)C1=CC=C(C=C1)S(=O)(=O)N1CCOCC1", 
	 "Tm": 422.15, 
	 "num_atms": 33, 
	 "gaussian": { 
		 "optdone": 1, 
		 "sigma_profile": "yes", 
		 "theory": "DFT", 
		 "functional": "B3LYP", 
		 "basiset": "6-31G**", 
		 "properties": { 
			 "R2extent": 11365.8977, 
			 "electric_dipole_moment_norm": 4.00280561357, 
			 "electric_quadrupole_moment_norm": 13.831082651, 
			 "total_energy": -3790.85100629, 
			 "HOMO_LUMO_gap": 0.15922, 
			 "cosmo_polarized_energy": -18.29, 
			 "cosmo_cavitation_energy": 39.57, 
			 "cosmo_dispersion_energy": -28.89, 
			 "cosmo_repulsion_energy": 2.19, 
			 "cosmo_total_nonelectrostatic_energy": 12.87, 
			 "SMD_solvation_energy": 4.45 
		},
		"coords": [
			{
				"x": 0.6933509005,
				"y": 6.0382929691,
				"z": 1.4960179393,
				"element": "Br" 
			},
			{
				"x": -0.5133159456,
				"y": 5.4654919726,
				"z": 0.0360252813,
				"element": "C" 
			},
			{
				"x": -1.4847234303,
				"y": 4.3942932627,
				"z": 0.5200766768,
				"element": "C" 
			},
			{
				"x": -2.6570693436,
				"y": 4.6944881334,
				"z": 0.6715117146,
				"element": "O" 
			},
			{
				"x": -1.0035095338,
				"y": 2.9955744986,
				"z": 0.7532594308,
				"element": "C" 
			},
			{
				"x": -1.9567385505,
				"y": 2.0414719654,
				"z": 1.1504428875,
				"element": "C" 
			},
			{
				"x": -1.5894449311,
				"y": 0.7182913805,
				"z": 1.3554382289,
				"element": "C" 
			},
			{
				"x": -0.2554337576,
				"y": 0.3464879004,
				"z": 1.1578985936,
				"element": "C" 
			},
			{
				"x": 0.7106525781,
				"y": 1.2783561518,
				"z": 0.7798176012,
				"element": "C" 
			},
			{
				"x": 0.3314458308,
				"y": 2.6054675039,
				"z": 0.5762586077,
				"element": "C" 
			},
			{
				"x": 0.2238847654,
				"y": -1.3703755258,
				"z": 1.4106740795,
				"element": "S" 
			},
			{
				"x": 1.6899000389,
				"y": -1.3964551312,
				"z": 1.4702392044,
				"element": "O" 
			},
			{
				"x": -0.5978927996,
				"y": -1.9105239612,
				"z": 2.4981670033,
				"element": "O" 
			},
			{
				"x": -0.296749635,
				"y": -2.1059809935,
				"z": -0.0117161304,
				"element": "N" 
			},
			{
				"x": 0.6441258442,
				"y": -2.0710289651,
				"z": -1.1503755417,
				"element": "C" 
			},
			{
				"x": 0.0412055886,
				"y": -2.8789106445,
				"z": -2.2963110064,
				"element": "C" 
			},
			{
				"x": -0.1546885143,
				"y": -4.2476752618,
				"z": -1.9650997189,
				"element": "O" 
			},
			{
				"x": -0.4841795323,
				"y": -4.4916343525,
				"z": -0.5968026517,
				"element": "C" 
			},
			{
				"x": -1.1669536849,
				"y": -3.2994688045,
				"z": 0.065870608,
				"element": "C" 
			},
			{
				"x": 0.1300590381,
				"y": 5.1291031273,
				"z": -0.7767499466,
				"element": "H" 
			},
			{
				"x": -1.0823874875,
				"y": 6.3453166414,
				"z": -0.2529344333,
				"element": "H" 
			},
			{
				"x": -2.9815250195,
				"y": 2.3662828458,
				"z": 1.2932115404,
				"element": "H" 
			},
			{
				"x": -2.3163286958,
				"y": -0.0190854388,
				"z": 1.678118837,
				"element": "H" 
			},
			{
				"x": 1.743431357,
				"y": 0.96705887,
				"z": 0.6713499316,
				"element": "H" 
			},
			{
				"x": 1.0895322525,
				"y": 3.33256842,
				"z": 0.3077080533,
				"element": "H" 
			},
			{
				"x": 1.6219656566,
				"y": -2.4811537264,
				"z": -0.8722970224,
				"element": "H" 
			},
			{
				"x": 0.7916369813,
				"y": -1.0335261538,
				"z": -1.4724086327,
				"element": "H" 
			},
			{
				"x": 0.7217507817,
				"y": -2.8555904006,
				"z": -3.15322847,
				"element": "H" 
			},
			{
				"x": -0.9077638706,
				"y": -2.4164783979,
				"z": -2.6097937131,
				"element": "H" 
			},
			{
				"x": -1.1524165465,
				"y": -5.3595613209,
				"z": -0.5788908427,
				"element": "H" 
			},
			{
				"x": 0.4237662427,
				"y": -4.7531110984,
				"z": -0.0330776631,
				"element": "H" 
			},
			{
				"x": -1.3818037904,
				"y": -3.5175694088,
				"z": 1.1129652912,
				"element": "H" 
			},
			{
				"x": -2.1183827875,
				"y": -3.0843160572,
				"z": -0.4362657373,
				"element": "H" 
			}
		],
		 "valence_orbital": [ 
			{
				"type": "occ",
				"energy": -0.28734,
				"method": "rhf"
			},
			{
				"type": "occ",
				"energy": -0.28326,
				"method": "rhf"
			},
			{
				"type": "occ",
				"energy": -0.27199,
				"method": "rhf"
			},
			{
				"type": "occ",
				"energy": -0.26343,
				"method": "rhf"
			},
			{
				"type": "occ",
				"energy": -0.25322,
				"method": "rhf"
			},
			{
				"type": "unocc",
				"energy": -0.094,
				"method": "rhf"
			},
			{
				"type": "unocc",
				"energy": -0.03525,
				"method": "rhf"
			},
			{
				"type": "unocc",
				"energy": -0.03163,
				"method": "rhf"
			},
			{
				"type": "unocc",
				"energy": 0.0211,
				"method": "rhf"
			},
			{
				"type": "unocc",
				"energy": 0.05042,
				"method": "rhf"
			}
		],
		"cosmo_sigma_profile": { 
			"-0.025": 0.0,
			"-0.024": 0.0,
			"-0.023": 0.0,
			"-0.022": 0.0,
			"-0.021": 0.0,
			"-0.02": 0.0,
			"-0.019": 0.0,
			"-0.018": 0.0,
			"-0.017": 0.0,
			"-0.016": 0.0,
			"-0.015": 0.0,
			"-0.014": 0.0,
			"-0.013": 0.0,
			"-0.012": 0.0,
			"-0.011": 0.0114023221409,
			"-0.01": 1.85072787797,
			"-0.009": 4.29671992516,
			"-0.008": 6.00543093215,
			"-0.007": 9.77160101064,
			"-0.006": 19.6351599719,
			"-0.005": 31.8654082366,
			"-0.004": 29.7215487025,
			"-0.003": 22.6973308645,
			"-0.002": 19.2607145133,
			"-0.001": 18.6253637624,
			"0.0": 21.4766014694,
			"0.001": 24.7418613032,
			"0.002": 16.0055996255,
			"0.003": 13.9704552488,
			"0.004": 14.7324307731,
			"0.005": 11.4289788779,
			"0.006": 4.93192164794,
			"0.007": 5.43992209963,
			"0.008": 5.96169432624,
			"0.009": 8.06171290734,
			"0.01": 11.5317710509,
			"0.011": 10.5328184521,
			"0.012": 2.81585822442,
			"0.013": 1.80309709417,
			"0.014": 0.189521465,
			"0.015": 0.0,
			"0.016": 0.0,
			"0.017": 0.0,
			"0.018": 0.0,
			"0.019": 0.0,
			"0.02": 0.0,
			"0.021": 0.0,
			"0.022": 0.0,
			"0.023": 0.0,
			"0.024": 0.0,
			"0.025": 0.0
		}
	}
}
