{
	 "smiles": "NC(CC(=O)NC1CCCCC1)=NO", 
	 "Tm": 441.15, 
	 "num_atms": 31, 
	 "gaussian": { 
		 "optdone": 1, 
		 "sigma_profile": "no", 
		 "theory": "DFT", 
		 "functional": "B3LYP", 
		 "basiset": "6-31G**", 
		 "properties": { 
			 "R2extent": 3641.8109, 
			 "electric_dipole_moment_norm": 2.70769576762, 
			 "electric_quadrupole_moment_norm": 12.7761790454, 
			 "total_energy": -667.885762875, 
			 "HOMO_LUMO_gap": 0.23591, 
			 "cosmo_polarized_energy": -15.5, 
			 "cosmo_cavitation_energy": 32.9, 
			 "cosmo_dispersion_energy": -22.91, 
			 "cosmo_repulsion_energy": 1.88, 
			 "cosmo_total_nonelectrostatic_energy": 11.86, 
			 "SMD_solvation_energy": 5.04 
		},
		"coords": [
			{
				"x": -3.0714055536,
				"y": -1.2359109907,
				"z": 0.9505637241,
				"element": "N" 
			},
			{
				"x": -1.9242884157,
				"y": -1.4703615258,
				"z": 1.658238092,
				"element": "C" 
			},
			{
				"x": -1.4211129509,
				"y": -0.3853376465,
				"z": 2.5718176897,
				"element": "C" 
			},
			{
				"x": -0.6949077636,
				"y": 0.7500219955,
				"z": 1.8210310712,
				"element": "C" 
			},
			{
				"x": -0.9748307173,
				"y": 1.9279320285,
				"z": 2.0107328887,
				"element": "O" 
			},
			{
				"x": 0.2905305561,
				"y": 0.3186746259,
				"z": 0.988751957,
				"element": "N" 
			},
			{
				"x": 1.080168778,
				"y": 1.2268555411,
				"z": 0.1595034038,
				"element": "C" 
			},
			{
				"x": 2.5371048906,
				"y": 0.7153987291,
				"z": 0.0789914654,
				"element": "C" 
			},
			{
				"x": 3.2427253068,
				"y": 1.2465820491,
				"z": -1.1754200141,
				"element": "C" 
			},
			{
				"x": 2.5795889253,
				"y": 0.7015082957,
				"z": -2.4640094464,
				"element": "C" 
			},
			{
				"x": 1.0633766908,
				"y": 0.4502761503,
				"z": -2.2764656848,
				"element": "C" 
			},
			{
				"x": 0.4673086601,
				"y": 1.4267284836,
				"z": -1.2552450793,
				"element": "C" 
			},
			{
				"x": -1.1751248482,
				"y": -2.5169065995,
				"z": 1.5191684611,
				"element": "N" 
			},
			{
				"x": -1.7671824239,
				"y": -3.3931390571,
				"z": 0.5543444505,
				"element": "O" 
			},
			{
				"x": -3.7205512939,
				"y": -0.5493652547,
				"z": 1.2993744298,
				"element": "H" 
			},
			{
				"x": -3.4534088699,
				"y": -2.0254333025,
				"z": 0.4509658697,
				"element": "H" 
			},
			{
				"x": -2.2401023033,
				"y": 0.0765988717,
				"z": 3.1286026228,
				"element": "H" 
			},
			{
				"x": -0.7273058802,
				"y": -0.8370070687,
				"z": 3.286505922,
				"element": "H" 
			},
			{
				"x": 0.3827770978,
				"y": -0.6816192609,
				"z": 0.8559830574,
				"element": "H" 
			},
			{
				"x": 1.0512636964,
				"y": 2.1870062204,
				"z": 0.6813706983,
				"element": "H" 
			},
			{
				"x": 3.0775353876,
				"y": 0.991298481,
				"z": 0.9905273615,
				"element": "H" 
			},
			{
				"x": 2.5359025781,
				"y": -0.383675295,
				"z": 0.0445719654,
				"element": "H" 
			},
			{
				"x": 4.3058157263,
				"y": 0.9834110417,
				"z": -1.1548820798,
				"element": "H" 
			},
			{
				"x": 3.2019773446,
				"y": 2.3433955393,
				"z": -1.1671969713,
				"element": "H" 
			},
			{
				"x": 2.7419248102,
				"y": 1.4124537699,
				"z": -3.2826690183,
				"element": "H" 
			},
			{
				"x": 3.0686012084,
				"y": -0.2318731685,
				"z": -2.7676170285,
				"element": "H" 
			},
			{
				"x": 0.8938630803,
				"y": -0.5775186617,
				"z": -1.9290336895,
				"element": "H" 
			},
			{
				"x": 0.5429171203,
				"y": 0.5304791477,
				"z": -3.2370391125,
				"element": "H" 
			},
			{
				"x": 0.6619881248,
				"y": 2.4555790208,
				"z": -1.584190646,
				"element": "H" 
			},
			{
				"x": -0.6199478683,
				"y": 1.3233703264,
				"z": -1.1881882508,
				"element": "H" 
			},
			{
				"x": -1.2219010938,
				"y": -4.183822486,
				"z": 0.643611891,
				"element": "H" 
			}
		],
		 "valence_orbital": [ 
			{
				"type": "occ",
				"energy": -0.29952,
				"method": "rhf"
			},
			{
				"type": "occ",
				"energy": -0.28032,
				"method": "rhf"
			},
			{
				"type": "occ",
				"energy": -0.24589,
				"method": "rhf"
			},
			{
				"type": "occ",
				"energy": -0.23782,
				"method": "rhf"
			},
			{
				"type": "occ",
				"energy": -0.21619,
				"method": "rhf"
			},
			{
				"type": "unocc",
				"energy": 0.01972,
				"method": "rhf"
			},
			{
				"type": "unocc",
				"energy": 0.04558,
				"method": "rhf"
			},
			{
				"type": "unocc",
				"energy": 0.06684,
				"method": "rhf"
			},
			{
				"type": "unocc",
				"energy": 0.07959,
				"method": "rhf"
			},
			{
				"type": "unocc",
				"energy": 0.09305,
				"method": "rhf"
			}
		],
		"cosmo_sigma_profile": { 
			"0.0": 0.0,
			"0.0": 0.0,
			"0.0": 0.0,
			"0.0": 0.0,
			"0.0": 0.0,
			"0.0": 0.0,
			"0.0": 0.0,
			"0.0": 0.0,
			"0.0": 0.0,
			"0.0": 0.0,
			"0.0": 0.0,
			"0.0": 0.0,
			"0.0": 0.0,
			"0.0": 0.0,
			"0.0": 0.0,
			"0.0": 0.0,
			"0.0": 0.0,
			"0.0": 0.0,
			"0.0": 0.0,
			"0.0": 0.0,
			"0.0": 0.0,
			"0.0": 0.0,
			"0.0": 0.0,
			"0.0": 0.0,
			"0.0": 0.0,
			"0.0": 0.0,
			"0.0": 0.0,
			"0.0": 0.0,
			"0.0": 0.0,
			"0.0": 0.0,
			"0.0": 0.0,
			"0.0": 0.0,
			"0.0": 0.0,
			"0.0": 0.0,
			"0.0": 0.0,
			"0.0": 0.0,
			"0.0": 0.0,
			"0.0": 0.0,
			"0.0": 0.0,
			"0.0": 0.0,
			"0.0": 0.0,
			"0.0": 0.0,
			"0.0": 0.0,
			"0.0": 0.0,
			"0.0": 0.0,
			"0.0": 0.0,
			"0.0": 0.0,
			"0.0": 0.0,
			"0.0": 0.0,
			"0.0": 0.0,
			"0.0": 0.0
		}
	}
}
