{
	 "smiles": "CC(=O)NC(=O)C1=CC=CC=C1O", 
	 "Tm": 421.15, 
	 "num_atms": 22, 
	 "gaussian": { 
		 "optdone": 1, 
		 "sigma_profile": "yes", 
		 "theory": "DFT", 
		 "functional": "B3LYP", 
		 "basiset": "6-31G**", 
		 "properties": { 
			 "R2extent": 2793.2819, 
			 "electric_dipole_moment_norm": 2.80843523158, 
			 "electric_quadrupole_moment_norm": 18.2008234701, 
			 "total_energy": -628.827381852, 
			 "HOMO_LUMO_gap": 0.17092, 
			 "cosmo_polarized_energy": -13.91, 
			 "cosmo_cavitation_energy": 26.24, 
			 "cosmo_dispersion_energy": -19.4, 
			 "cosmo_repulsion_energy": 1.53, 
			 "cosmo_total_nonelectrostatic_energy": 8.37, 
			 "SMD_solvation_energy": 6.05 
		},
		"coords": [
			{
				"x": 2.6566538306,
				"y": -0.6870052571,
				"z": -2.2071406043,
				"element": "C" 
			},
			{
				"x": 1.3839470753,
				"y": -0.8251975954,
				"z": -1.3952481795,
				"element": "C" 
			},
			{
				"x": 1.2640723818,
				"y": -1.6853150034,
				"z": -0.5256796536,
				"element": "O" 
			},
			{
				"x": 0.4059374493,
				"y": 0.0912100395,
				"z": -1.7128608351,
				"element": "N" 
			},
			{
				"x": -0.7105309913,
				"y": 0.6336034432,
				"z": -1.0007119715,
				"element": "C" 
			},
			{
				"x": -1.0185363438,
				"y": 1.7635614264,
				"z": -1.3531234835,
				"element": "O" 
			},
			{
				"x": -1.4575439268,
				"y": -0.0634123324,
				"z": 0.0796553581,
				"element": "C" 
			},
			{
				"x": -2.0891239479,
				"y": 0.8157752257,
				"z": 0.9886186986,
				"element": "C" 
			},
			{
				"x": -2.9691814323,
				"y": 0.3602857324,
				"z": 1.9559218299,
				"element": "C" 
			},
			{
				"x": -3.2786134163,
				"y": -1.0050701446,
				"z": 2.0100964043,
				"element": "C" 
			},
			{
				"x": -2.6804848664,
				"y": -1.8901660262,
				"z": 1.1253739004,
				"element": "C" 
			},
			{
				"x": -1.753740023,
				"y": -1.4475729024,
				"z": 0.1667214347,
				"element": "C" 
			},
			{
				"x": -1.2379198019,
				"y": -2.3846913635,
				"z": -0.6605064746,
				"element": "O" 
			},
			{
				"x": 3.2515438034,
				"y": -1.591188993,
				"z": -2.0824373414,
				"element": "H" 
			},
			{
				"x": 2.4450040279,
				"y": -0.5276399392,
				"z": -3.2688858297,
				"element": "H" 
			},
			{
				"x": 3.2350994901,
				"y": 0.1705983619,
				"z": -1.8458441613,
				"element": "H" 
			},
			{
				"x": 0.6564610618,
				"y": 0.7615657227,
				"z": -2.4320890015,
				"element": "H" 
			},
			{
				"x": -1.8748749671,
				"y": 1.8743869568,
				"z": 0.8954543634,
				"element": "H" 
			},
			{
				"x": -3.4262961359,
				"y": 1.0585761136,
				"z": 2.6495883784,
				"element": "H" 
			},
			{
				"x": -3.9813181631,
				"y": -1.3773450012,
				"z": 2.7504467443,
				"element": "H" 
			},
			{
				"x": -2.8964520633,
				"y": -2.9529448103,
				"z": 1.1512769717,
				"element": "H" 
			},
			{
				"x": -0.2591030412,
				"y": -2.2605136537,
				"z": -0.6657265478,
				"element": "H" 
			}
		],
		 "valence_orbital": [ 
			{
				"type": "occ",
				"energy": -0.30575,
				"method": "rhf"
			},
			{
				"type": "occ",
				"energy": -0.2966,
				"method": "rhf"
			},
			{
				"type": "occ",
				"energy": -0.2739,
				"method": "rhf"
			},
			{
				"type": "occ",
				"energy": -0.25341,
				"method": "rhf"
			},
			{
				"type": "occ",
				"energy": -0.22854,
				"method": "rhf"
			},
			{
				"type": "unocc",
				"energy": -0.05762,
				"method": "rhf"
			},
			{
				"type": "unocc",
				"energy": -0.01737,
				"method": "rhf"
			},
			{
				"type": "unocc",
				"energy": 0.00667,
				"method": "rhf"
			},
			{
				"type": "unocc",
				"energy": 0.04744,
				"method": "rhf"
			},
			{
				"type": "unocc",
				"energy": 0.06525,
				"method": "rhf"
			}
		],
		"cosmo_sigma_profile": { 
			"-0.025": 0.0,
			"-0.024": 0.0,
			"-0.023": 0.0,
			"-0.022": 0.0,
			"-0.021": 0.0,
			"-0.02": 0.0,
			"-0.019": 0.0,
			"-0.018": 0.0,
			"-0.017": 0.0,
			"-0.016": 0.0278366261551,
			"-0.015": 0.82692720735,
			"-0.014": 1.35538553288,
			"-0.013": 0.82604728552,
			"-0.012": 1.37161781023,
			"-0.011": 1.45245199274,
			"-0.01": 1.57029295653,
			"-0.009": 1.53395781552,
			"-0.008": 3.49180035349,
			"-0.007": 6.20155911079,
			"-0.006": 13.811081626,
			"-0.005": 15.7490060717,
			"-0.004": 16.2650788991,
			"-0.003": 16.5008258996,
			"-0.002": 14.1126530958,
			"-0.001": 10.0382313084,
			"0.0": 10.4032444437,
			"0.001": 11.5858348977,
			"0.002": 13.1053655043,
			"0.003": 15.2885760392,
			"0.004": 13.4877760508,
			"0.005": 6.50509037378,
			"0.006": 4.76645092548,
			"0.007": 3.59099062703,
			"0.008": 3.8868976085,
			"0.009": 4.36045437971,
			"0.01": 5.50012463266,
			"0.011": 7.58844560926,
			"0.012": 4.31772769884,
			"0.013": 0.256542432394,
			"0.014": 0.0,
			"0.015": 0.0,
			"0.016": 0.0,
			"0.017": 0.0,
			"0.018": 0.0,
			"0.019": 0.0,
			"0.02": 0.0,
			"0.021": 0.0,
			"0.022": 0.0,
			"0.023": 0.0,
			"0.024": 0.0,
			"0.025": 0.0
		}
	}
}
