{
	 "smiles": "CC(=O)C1=C(C)C=CC(=C1)S(N)(=O)=O", 
	 "Tm": 398.15, 
	 "num_atms": 25, 
	 "gaussian": { 
		 "optdone": 1, 
		 "sigma_profile": "yes", 
		 "theory": "DFT", 
		 "functional": "B3LYP", 
		 "basiset": "6-31G**", 
		 "properties": { 
			 "R2extent": 4187.626, 
			 "electric_dipole_moment_norm": 4.2587983446, 
			 "electric_quadrupole_moment_norm": 32.4115047455, 
			 "total_energy": -1028.13494016, 
			 "HOMO_LUMO_gap": 0.18387, 
			 "cosmo_polarized_energy": -21.0, 
			 "cosmo_cavitation_energy": 30.22, 
			 "cosmo_dispersion_energy": -22.19, 
			 "cosmo_repulsion_energy": 1.7, 
			 "cosmo_total_nonelectrostatic_energy": 9.73, 
			 "SMD_solvation_energy": 5.48 
		},
		"coords": [
			{
				"x": -0.8227189515,
				"y": 2.0555857912,
				"z": 2.2432996521,
				"element": "C" 
			},
			{
				"x": -1.0108444601,
				"y": 0.6346011347,
				"z": 1.7303321821,
				"element": "C" 
			},
			{
				"x": -1.9331059541,
				"y": -0.043940312,
				"z": 2.1581800107,
				"element": "O" 
			},
			{
				"x": -0.0511617009,
				"y": 0.0992867135,
				"z": 0.7047327148,
				"element": "C" 
			},
			{
				"x": -0.1041938369,
				"y": -1.2506913345,
				"z": 0.261278819,
				"element": "C" 
			},
			{
				"x": -1.1112942082,
				"y": -2.2576687871,
				"z": 0.7578275618,
				"element": "C" 
			},
			{
				"x": 0.8441213377,
				"y": -1.6738749882,
				"z": -0.6828375013,
				"element": "C" 
			},
			{
				"x": 1.8125139476,
				"y": -0.820037222,
				"z": -1.2019354468,
				"element": "C" 
			},
			{
				"x": 1.8381306936,
				"y": 0.5066547736,
				"z": -0.7717845275,
				"element": "C" 
			},
			{
				"x": 0.9271158669,
				"y": 0.9578647387,
				"z": 0.1777586408,
				"element": "C" 
			},
			{
				"x": 3.0583692859,
				"y": 1.6453720052,
				"z": -1.441762458,
				"element": "S" 
			},
			{
				"x": 2.4097160399,
				"y": 2.2886468448,
				"z": -2.852302419,
				"element": "N" 
			},
			{
				"x": 4.2074040993,
				"y": 0.848848334,
				"z": -1.8669732402,
				"element": "O" 
			},
			{
				"x": 3.1602677076,
				"y": 2.7670957902,
				"z": -0.5096217971,
				"element": "O" 
			},
			{
				"x": 0.1723800548,
				"y": 2.1997051762,
				"z": 2.6769087923,
				"element": "H" 
			},
			{
				"x": -0.9389862087,
				"y": 2.7898014662,
				"z": 1.4385730634,
				"element": "H" 
			},
			{
				"x": -1.5806499498,
				"y": 2.2406782371,
				"z": 3.0045323774,
				"element": "H" 
			},
			{
				"x": -0.925866771,
				"y": -3.2319691604,
				"z": 0.2973768947,
				"element": "H" 
			},
			{
				"x": -2.1338062634,
				"y": -1.9445297998,
				"z": 0.5321102232,
				"element": "H" 
			},
			{
				"x": -1.0710294675,
				"y": -2.3633801067,
				"z": 1.8449381548,
				"element": "H" 
			},
			{
				"x": 0.8237792988,
				"y": -2.7091205863,
				"z": -1.0112157337,
				"element": "H" 
			},
			{
				"x": 2.5521298689,
				"y": -1.1783268364,
				"z": -1.9105330843,
				"element": "H" 
			},
			{
				"x": 1.0045841978,
				"y": 1.983798895,
				"z": 0.5162613437,
				"element": "H" 
			},
			{
				"x": 2.2836297695,
				"y": 1.5976653132,
				"z": -3.5847900411,
				"element": "H" 
			},
			{
				"x": 1.5860156039,
				"y": 2.8587339199,
				"z": -2.6898541817,
				"element": "H" 
			}
		],
		 "valence_orbital": [ 
			{
				"type": "occ",
				"energy": -0.30982,
				"method": "rhf"
			},
			{
				"type": "occ",
				"energy": -0.30929,
				"method": "rhf"
			},
			{
				"type": "occ",
				"energy": -0.2824,
				"method": "rhf"
			},
			{
				"type": "occ",
				"energy": -0.26875,
				"method": "rhf"
			},
			{
				"type": "occ",
				"energy": -0.25718,
				"method": "rhf"
			},
			{
				"type": "unocc",
				"energy": -0.07331,
				"method": "rhf"
			},
			{
				"type": "unocc",
				"energy": -0.0427,
				"method": "rhf"
			},
			{
				"type": "unocc",
				"energy": 0.01481,
				"method": "rhf"
			},
			{
				"type": "unocc",
				"energy": 0.0452,
				"method": "rhf"
			},
			{
				"type": "unocc",
				"energy": 0.07288,
				"method": "rhf"
			}
		],
		"cosmo_sigma_profile": { 
			"-0.025": 0.0,
			"-0.024": 0.0,
			"-0.023": 0.0,
			"-0.022": 0.0,
			"-0.021": 0.0,
			"-0.02": 0.0,
			"-0.019": 0.0,
			"-0.018": 0.0,
			"-0.017": 0.0,
			"-0.016": 0.23070566367,
			"-0.015": 2.37504998397,
			"-0.014": 2.85391062363,
			"-0.013": 2.37320941984,
			"-0.012": 3.26195886693,
			"-0.011": 2.52612706571,
			"-0.01": 2.64644749569,
			"-0.009": 2.29555667701,
			"-0.008": 2.35831802748,
			"-0.007": 8.71312149657,
			"-0.006": 15.5110953513,
			"-0.005": 12.4583513985,
			"-0.004": 12.5271974128,
			"-0.003": 14.4208897356,
			"-0.002": 18.4482284124,
			"-0.001": 19.7102626498,
			"0.0": 20.3711152622,
			"0.001": 16.7798611164,
			"0.002": 12.1343935368,
			"0.003": 5.16851117243,
			"0.004": 4.68644926751,
			"0.005": 4.53900592412,
			"0.006": 4.6536197376,
			"0.007": 6.14208987335,
			"0.008": 6.25560757843,
			"0.009": 6.02267753286,
			"0.01": 9.44155907769,
			"0.011": 12.5414089547,
			"0.012": 7.26325052741,
			"0.013": 1.0524514823,
			"0.014": 0.0188672964891,
			"0.015": 0.0,
			"0.016": 0.0,
			"0.017": 0.0,
			"0.018": 0.0,
			"0.019": 0.0,
			"0.02": 0.0,
			"0.021": 0.0,
			"0.022": 0.0,
			"0.023": 0.0,
			"0.024": 0.0,
			"0.025": 0.0
		}
	}
}
