{
	 "smiles": "CCCCCCCCCCCCCC(Cl)=O", 
	 "Tm": 272.15, 
	 "num_atms": 43, 
	 "gaussian": { 
		 "optdone": 1, 
		 "sigma_profile": "yes", 
		 "theory": "DFT", 
		 "functional": "B3LYP", 
		 "basiset": "6-31G**", 
		 "properties": { 
			 "R2extent": 13234.7499, 
			 "electric_dipole_moment_norm": 3.31045078199, 
			 "electric_quadrupole_moment_norm": 29.0722486065, 
			 "total_energy": -1085.22735159, 
			 "HOMO_LUMO_gap": 0.25916, 
			 "cosmo_polarized_energy": -5.83, 
			 "cosmo_cavitation_energy": 45.43, 
			 "cosmo_dispersion_energy": -31.08, 
			 "cosmo_repulsion_energy": 2.55, 
			 "cosmo_total_nonelectrostatic_energy": 16.9, 
			 "SMD_solvation_energy": 6.69 
		},
		"coords": [
			{
				"x": -0.3137056118,
				"y": -4.0440511423,
				"z": -2.9502517071,
				"element": "C" 
			},
			{
				"x": -1.385108131,
				"y": -3.1273352199,
				"z": -3.5523953477,
				"element": "C" 
			},
			{
				"x": -2.5250032222,
				"y": -2.762443729,
				"z": -2.5845881642,
				"element": "C" 
			},
			{
				"x": -2.1147614019,
				"y": -1.9710671848,
				"z": -1.3297675191,
				"element": "C" 
			},
			{
				"x": -1.5300980806,
				"y": -0.580835504,
				"z": -1.6234560528,
				"element": "C" 
			},
			{
				"x": -1.2795905015,
				"y": 0.2851841426,
				"z": -0.3764637178,
				"element": "C" 
			},
			{
				"x": -0.1788396669,
				"y": -0.2438357281,
				"z": 0.556019193,
				"element": "C" 
			},
			{
				"x": 0.07106814,
				"y": 0.6179706718,
				"z": 1.8055833395,
				"element": "C" 
			},
			{
				"x": 0.6656182659,
				"y": 2.0062878211,
				"z": 1.5263141153,
				"element": "C" 
			},
			{
				"x": 0.9587919901,
				"y": 2.7973592731,
				"z": 2.8092026001,
				"element": "C" 
			},
			{
				"x": 1.6492007748,
				"y": 4.1548379897,
				"z": 2.5860230774,
				"element": "C" 
			},
			{
				"x": 0.8529071138,
				"y": 5.1962019391,
				"z": 1.7808143728,
				"element": "C" 
			},
			{
				"x": -0.4405236684,
				"y": 5.6373430256,
				"z": 2.4752285907,
				"element": "C" 
			},
			{
				"x": -1.176328369,
				"y": 6.7080922276,
				"z": 1.7098548189,
				"element": "C" 
			},
			{
				"x": -2.7126429823,
				"y": 7.2330907429,
				"z": 2.5773492915,
				"element": "Cl" 
			},
			{
				"x": -0.8813347296,
				"y": 7.2085666356,
				"z": 0.673888646,
				"element": "O" 
			},
			{
				"x": 0.4334401459,
				"y": -4.3229362185,
				"z": -3.7006783551,
				"element": "H" 
			},
			{
				"x": 0.2185567237,
				"y": -3.5632028585,
				"z": -2.1227592547,
				"element": "H" 
			},
			{
				"x": -0.7571785903,
				"y": -4.9692814906,
				"z": -2.5636436333,
				"element": "H" 
			},
			{
				"x": -0.91178951,
				"y": -2.2132121839,
				"z": -3.9328357738,
				"element": "H" 
			},
			{
				"x": -1.824565147,
				"y": -3.6210008723,
				"z": -4.4286631261,
				"element": "H" 
			},
			{
				"x": -3.0239836365,
				"y": -3.6885273466,
				"z": -2.2671557409,
				"element": "H" 
			},
			{
				"x": -3.2807939991,
				"y": -2.1840046188,
				"z": -3.1337134125,
				"element": "H" 
			},
			{
				"x": -3.0022657991,
				"y": -1.8504332462,
				"z": -0.6929959461,
				"element": "H" 
			},
			{
				"x": -1.4031389925,
				"y": -2.5618091809,
				"z": -0.7400544109,
				"element": "H" 
			},
			{
				"x": -0.5894594455,
				"y": -0.6796095546,
				"z": -2.1820816172,
				"element": "H" 
			},
			{
				"x": -2.2209378767,
				"y": -0.0449670239,
				"z": -2.2890637798,
				"element": "H" 
			},
			{
				"x": -1.0209034742,
				"y": 1.2987711835,
				"z": -0.7073618153,
				"element": "H" 
			},
			{
				"x": -2.2167341522,
				"y": 0.3807982253,
				"z": 0.1915577155,
				"element": "H" 
			},
			{
				"x": -0.4385145986,
				"y": -1.2574304816,
				"z": 0.884840505,
				"element": "H" 
			},
			{
				"x": 0.7589576328,
				"y": -0.3400030017,
				"z": -0.0107220877,
				"element": "H" 
			},
			{
				"x": -0.8716450979,
				"y": 0.7319976012,
				"z": 2.3602689654,
				"element": "H" 
			},
			{
				"x": 0.7509498258,
				"y": 0.0759121842,
				"z": 2.4769245024,
				"element": "H" 
			},
			{
				"x": -0.0168077244,
				"y": 2.5777241021,
				"z": 0.8852211881,
				"element": "H" 
			},
			{
				"x": 1.596901183,
				"y": 1.8916861053,
				"z": 0.9525053223,
				"element": "H" 
			},
			{
				"x": 0.0252076212,
				"y": 2.9350313159,
				"z": 3.3725979691,
				"element": "H" 
			},
			{
				"x": 1.6041015872,
				"y": 2.1908804771,
				"z": 3.4585254444,
				"element": "H" 
			},
			{
				"x": 2.602418495,
				"y": 3.984153268,
				"z": 2.0690279526,
				"element": "H" 
			},
			{
				"x": 1.9092133291,
				"y": 4.5855986073,
				"z": 3.5625925614,
				"element": "H" 
			},
			{
				"x": 1.4808878189,
				"y": 6.0785404208,
				"z": 1.6164027357,
				"element": "H" 
			},
			{
				"x": 0.6125219279,
				"y": 4.8108336644,
				"z": 0.7843129964,
				"element": "H" 
			},
			{
				"x": -0.2473884207,
				"y": 6.0300331708,
				"z": 3.4816587177,
				"element": "H" 
			},
			{
				"x": -1.1421997451,
				"y": 4.8070917913,
				"z": 2.6170368409,
				"element": "H" 
			}
		],
		 "valence_orbital": [ 
			{
				"type": "occ",
				"energy": -0.31169,
				"method": "rhf"
			},
			{
				"type": "occ",
				"energy": -0.30832,
				"method": "rhf"
			},
			{
				"type": "occ",
				"energy": -0.30392,
				"method": "rhf"
			},
			{
				"type": "occ",
				"energy": -0.30114,
				"method": "rhf"
			},
			{
				"type": "occ",
				"energy": -0.29531,
				"method": "rhf"
			},
			{
				"type": "unocc",
				"energy": -0.03615,
				"method": "rhf"
			},
			{
				"type": "unocc",
				"energy": 0.01801,
				"method": "rhf"
			},
			{
				"type": "unocc",
				"energy": 0.06719,
				"method": "rhf"
			},
			{
				"type": "unocc",
				"energy": 0.08059,
				"method": "rhf"
			},
			{
				"type": "unocc",
				"energy": 0.09589,
				"method": "rhf"
			}
		],
		"cosmo_sigma_profile": { 
			"-0.025": 0.0,
			"-0.024": 0.0,
			"-0.023": 0.0,
			"-0.022": 0.0,
			"-0.021": 0.0,
			"-0.02": 0.0,
			"-0.019": 0.0,
			"-0.018": 0.0,
			"-0.017": 0.0,
			"-0.016": 0.0,
			"-0.015": 0.0,
			"-0.014": 0.0,
			"-0.013": 0.0,
			"-0.012": 0.0,
			"-0.011": 0.0,
			"-0.01": 0.0,
			"-0.009": 0.0,
			"-0.008": 0.300133411021,
			"-0.007": 4.71757130502,
			"-0.006": 5.62266526139,
			"-0.005": 7.12711953331,
			"-0.004": 9.9387003402,
			"-0.003": 15.9803052265,
			"-0.002": 38.9417474639,
			"-0.001": 68.6655919921,
			"0.0": 71.3924678454,
			"0.001": 60.8805480138,
			"0.002": 25.2519909111,
			"0.003": 7.18389044969,
			"0.004": 10.1461195784,
			"0.005": 10.9606247567,
			"0.006": 4.3053823155,
			"0.007": 3.30260845176,
			"0.008": 4.58356171655,
			"0.009": 2.62367536118,
			"0.01": 0.0568169665102,
			"0.011": 0.0,
			"0.012": 0.0,
			"0.013": 0.0,
			"0.014": 0.0,
			"0.015": 0.0,
			"0.016": 0.0,
			"0.017": 0.0,
			"0.018": 0.0,
			"0.019": 0.0,
			"0.02": 0.0,
			"0.021": 0.0,
			"0.022": 0.0,
			"0.023": 0.0,
			"0.024": 0.0,
			"0.025": 0.0
		}
	}
}
