{
	 "smiles": "CCC1CCCCN1C(=O)COC(=O)C1=CC=CC=C1", 
	 "Tm": 327.65, 
	 "num_atms": 41, 
	 "gaussian": { 
		 "optdone": 1, 
		 "sigma_profile": "yes", 
		 "theory": "DFT", 
		 "functional": "B3LYP", 
		 "basiset": "6-31G**", 
		 "properties": { 
			 "R2extent": 7959.4565, 
			 "electric_dipole_moment_norm": 4.477531599, 
			 "electric_quadrupole_moment_norm": 18.8848584835, 
			 "total_energy": -902.821558697, 
			 "HOMO_LUMO_gap": 0.1843, 
			 "cosmo_polarized_energy": -13.4, 
			 "cosmo_cavitation_energy": 42.6, 
			 "cosmo_dispersion_energy": -29.01, 
			 "cosmo_repulsion_energy": 2.24, 
			 "cosmo_total_nonelectrostatic_energy": 15.83, 
			 "SMD_solvation_energy": 7.78 
		},
		"coords": [
			{
				"x": 4.2348715005,
				"y": -2.2591754011,
				"z": 1.1569185931,
				"element": "C" 
			},
			{
				"x": 3.3339927961,
				"y": -1.2340155782,
				"z": 0.4587014221,
				"element": "C" 
			},
			{
				"x": 1.8930305333,
				"y": -1.1938152637,
				"z": 1.0132132061,
				"element": "C" 
			},
			{
				"x": 1.0683069713,
				"y": -2.4761460482,
				"z": 0.7862227588,
				"element": "C" 
			},
			{
				"x": 0.6069480479,
				"y": -2.6475020513,
				"z": -0.6681074789,
				"element": "C" 
			},
			{
				"x": -0.1533169488,
				"y": -1.3994002244,
				"z": -1.1326322442,
				"element": "C" 
			},
			{
				"x": 0.6899436794,
				"y": -0.1371548228,
				"z": -0.918032961,
				"element": "C" 
			},
			{
				"x": 1.1495383114,
				"y": -0.0345884873,
				"z": 0.4709818822,
				"element": "N" 
			},
			{
				"x": 1.1135930888,
				"y": 1.1080447248,
				"z": 1.2249000019,
				"element": "C" 
			},
			{
				"x": 1.680793728,
				"y": 1.2090524689,
				"z": 2.3107367811,
				"element": "O" 
			},
			{
				"x": 0.342177509,
				"y": 2.3167541815,
				"z": 0.6886703479,
				"element": "C" 
			},
			{
				"x": -1.0390725083,
				"y": 1.9541821282,
				"z": 0.4865073153,
				"element": "O" 
			},
			{
				"x": -1.7995672007,
				"y": 2.8766226088,
				"z": -0.1595543501,
				"element": "C" 
			},
			{
				"x": -1.3479759918,
				"y": 3.9188332433,
				"z": -0.5907584611,
				"element": "O" 
			},
			{
				"x": -3.222832101,
				"y": 2.4546108593,
				"z": -0.2782553742,
				"element": "C" 
			},
			{
				"x": -4.0948519228,
				"y": 3.2948719553,
				"z": -0.9844614358,
				"element": "C" 
			},
			{
				"x": -5.4360990822,
				"y": 2.9480365344,
				"z": -1.125002547,
				"element": "C" 
			},
			{
				"x": -5.9137454271,
				"y": 1.7627848479,
				"z": -0.558841716,
				"element": "C" 
			},
			{
				"x": -5.0480638875,
				"y": 0.9250873893,
				"z": 0.1489294325,
				"element": "C" 
			},
			{
				"x": -3.7042041309,
				"y": 1.2669372938,
				"z": 0.2910049877,
				"element": "C" 
			},
			{
				"x": 5.265011963,
				"y": -2.1770976156,
				"z": 0.7961210315,
				"element": "H" 
			},
			{
				"x": 4.2493780657,
				"y": -2.0973591797,
				"z": 2.2405270935,
				"element": "H" 
			},
			{
				"x": 3.9084143661,
				"y": -3.2886877736,
				"z": 0.9773561803,
				"element": "H" 
			},
			{
				"x": 3.7580277957,
				"y": -0.2328244795,
				"z": 0.5960821809,
				"element": "H" 
			},
			{
				"x": 3.329667912,
				"y": -1.4266273554,
				"z": -0.6214392094,
				"element": "H" 
			},
			{
				"x": 1.9675473758,
				"y": -1.006908338,
				"z": 2.0865845663,
				"element": "H" 
			},
			{
				"x": 1.648353404,
				"y": -3.3454125313,
				"z": 1.1130256615,
				"element": "H" 
			},
			{
				"x": 0.1843196534,
				"y": -2.4288410755,
				"z": 1.4347918288,
				"element": "H" 
			},
			{
				"x": -0.0256341402,
				"y": -3.5377366816,
				"z": -0.7593697675,
				"element": "H" 
			},
			{
				"x": 1.472128692,
				"y": -2.8139490572,
				"z": -1.3239861007,
				"element": "H" 
			},
			{
				"x": -1.0873149656,
				"y": -1.2989078391,
				"z": -0.5654722507,
				"element": "H" 
			},
			{
				"x": -0.4224228676,
				"y": -1.4741475043,
				"z": -2.1927023945,
				"element": "H" 
			},
			{
				"x": 0.1092707385,
				"y": 0.7458850784,
				"z": -1.1751710054,
				"element": "H" 
			},
			{
				"x": 1.561568402,
				"y": -0.1629852844,
				"z": -1.5890743987,
				"element": "H" 
			},
			{
				"x": 0.7624155434,
				"y": 2.705579032,
				"z": -0.2443256882,
				"element": "H" 
			},
			{
				"x": 0.4099984271,
				"y": 3.0960618749,
				"z": 1.4487385372,
				"element": "H" 
			},
			{
				"x": -3.7003511898,
				"y": 4.2104647674,
				"z": -1.4119367865,
				"element": "H" 
			},
			{
				"x": -6.1096915057,
				"y": 3.5999038803,
				"z": -1.673265412,
				"element": "H" 
			},
			{
				"x": -6.9604899475,
				"y": 1.4931522897,
				"z": -0.6673296842,
				"element": "H" 
			},
			{
				"x": -5.4212682569,
				"y": 0.0065422288,
				"z": 0.5920603774,
				"element": "H" 
			},
			{
				"x": -3.02729643,
				"y": 0.6261752054,
				"z": 0.8443450801,
				"element": "H" 
			}
		],
		 "valence_orbital": [ 
			{
				"type": "occ",
				"energy": -0.2801,
				"method": "rhf"
			},
			{
				"type": "occ",
				"energy": -0.26395,
				"method": "rhf"
			},
			{
				"type": "occ",
				"energy": -0.26249,
				"method": "rhf"
			},
			{
				"type": "occ",
				"energy": -0.24808,
				"method": "rhf"
			},
			{
				"type": "occ",
				"energy": -0.2348,
				"method": "rhf"
			},
			{
				"type": "unocc",
				"energy": -0.0505,
				"method": "rhf"
			},
			{
				"type": "unocc",
				"energy": -0.01217,
				"method": "rhf"
			},
			{
				"type": "unocc",
				"energy": 0.01344,
				"method": "rhf"
			},
			{
				"type": "unocc",
				"energy": 0.05259,
				"method": "rhf"
			},
			{
				"type": "unocc",
				"energy": 0.07117,
				"method": "rhf"
			}
		],
		"cosmo_sigma_profile": { 
			"-0.025": 0.0,
			"-0.024": 0.0,
			"-0.023": 0.0,
			"-0.022": 0.0,
			"-0.021": 0.0,
			"-0.02": 0.0,
			"-0.019": 0.0,
			"-0.018": 0.0,
			"-0.017": 0.0,
			"-0.016": 0.0,
			"-0.015": 0.0,
			"-0.014": 0.0,
			"-0.013": 0.0,
			"-0.012": 0.0,
			"-0.011": 0.0,
			"-0.01": 0.0,
			"-0.009": 0.0,
			"-0.008": 0.841617471283,
			"-0.007": 6.22348404011,
			"-0.006": 12.6127354002,
			"-0.005": 17.1415217894,
			"-0.004": 22.4593440987,
			"-0.003": 36.6879190498,
			"-0.002": 42.2991793558,
			"-0.001": 40.0864171503,
			"0.0": 40.0409840332,
			"0.001": 29.3317277045,
			"0.002": 19.1439913047,
			"0.003": 16.1394392285,
			"0.004": 15.4242118958,
			"0.005": 3.41704922751,
			"0.006": 3.52645661049,
			"0.007": 3.11988971978,
			"0.008": 2.280923961,
			"0.009": 2.64516110443,
			"0.01": 3.5664920977,
			"0.011": 5.85429470941,
			"0.012": 3.49876464611,
			"0.013": 3.79265225282,
			"0.014": 4.03403160463,
			"0.015": 0.529029842937,
			"0.016": 0.0,
			"0.017": 0.0,
			"0.018": 0.0,
			"0.019": 0.0,
			"0.02": 0.0,
			"0.021": 0.0,
			"0.022": 0.0,
			"0.023": 0.0,
			"0.024": 0.0,
			"0.025": 0.0
		}
	}
}
