{
	 "smiles": "S=C1NCCS1", 
	 "Tm": 379.15, 
	 "num_atms": 11, 
	 "gaussian": { 
		 "optdone": 1, 
		 "sigma_profile": "yes", 
		 "theory": "DFT", 
		 "functional": "B3LYP", 
		 "basiset": "6-31G**", 
		 "properties": { 
			 "R2extent": 1561.631, 
			 "electric_dipole_moment_norm": 5.91975777207, 
			 "electric_quadrupole_moment_norm": 15.4561983926, 
			 "total_energy": -968.462666281, 
			 "HOMO_LUMO_gap": 0.18055, 
			 "cosmo_polarized_energy": -14.95, 
			 "cosmo_cavitation_energy": 17.5, 
			 "cosmo_dispersion_energy": -14.51, 
			 "cosmo_repulsion_energy": 1.15, 
			 "cosmo_total_nonelectrostatic_energy": 4.15, 
			 "SMD_solvation_energy": 0.79 
		},
		"coords": [
			{
				"x": -0.1448371011,
				"y": -3.6571059907,
				"z": 0.7594511421,
				"element": "S" 
			},
			{
				"x": -0.2099407665,
				"y": -2.0070729544,
				"z": 0.8446238722,
				"element": "C" 
			},
			{
				"x": 0.6157426879,
				"y": -1.1356055594,
				"z": 0.2109698509,
				"element": "N" 
			},
			{
				"x": 0.2200434976,
				"y": 0.2675549274,
				"z": 0.164243817,
				"element": "C" 
			},
			{
				"x": -0.5548070463,
				"y": 0.5104407023,
				"z": 1.4649525618,
				"element": "C" 
			},
			{
				"x": -1.4051658398,
				"y": -1.0905131283,
				"z": 1.8023620412,
				"element": "S" 
			},
			{
				"x": 1.2495999878,
				"y": -1.5240308795,
				"z": -0.4753454428,
				"element": "H" 
			},
			{
				"x": 1.1041346907,
				"y": 0.908853774,
				"z": 0.0992019534,
				"element": "H" 
			},
			{
				"x": -0.4181521223,
				"y": 0.4630716401,
				"z": -0.7094713708,
				"element": "H" 
			},
			{
				"x": 0.1168178031,
				"y": 0.7383318225,
				"z": 2.2962034745,
				"element": "H" 
			},
			{
				"x": -1.290635791,
				"y": 1.309175646,
				"z": 1.3625081006,
				"element": "H" 
			}
		],
		 "valence_orbital": [ 
			{
				"type": "occ",
				"energy": -0.36887,
				"method": "rhf"
			},
			{
				"type": "occ",
				"energy": -0.34858,
				"method": "rhf"
			},
			{
				"type": "occ",
				"energy": -0.259,
				"method": "rhf"
			},
			{
				"type": "occ",
				"energy": -0.22834,
				"method": "rhf"
			},
			{
				"type": "occ",
				"energy": -0.21343,
				"method": "rhf"
			},
			{
				"type": "unocc",
				"energy": -0.03288,
				"method": "rhf"
			},
			{
				"type": "unocc",
				"energy": 0.00529,
				"method": "rhf"
			},
			{
				"type": "unocc",
				"energy": 0.05875,
				"method": "rhf"
			},
			{
				"type": "unocc",
				"energy": 0.06308,
				"method": "rhf"
			},
			{
				"type": "unocc",
				"energy": 0.09836,
				"method": "rhf"
			}
		],
		"cosmo_sigma_profile": { 
			"-0.025": 0.0,
			"-0.024": 0.0,
			"-0.023": 0.0,
			"-0.022": 0.0,
			"-0.021": 0.0,
			"-0.02": 0.0,
			"-0.019": 0.0,
			"-0.018": 0.0,
			"-0.017": 0.0,
			"-0.016": 0.469653523122,
			"-0.015": 1.08107418546,
			"-0.014": 0.933200873929,
			"-0.013": 1.43881327177,
			"-0.012": 1.00576603432,
			"-0.011": 1.09329331851,
			"-0.01": 0.608731029698,
			"-0.009": 1.03113247485,
			"-0.008": 3.57655866976,
			"-0.007": 11.2268407402,
			"-0.006": 15.127486741,
			"-0.005": 11.5895888765,
			"-0.004": 10.244479444,
			"-0.003": 4.13730308173,
			"-0.002": 4.14281342625,
			"-0.001": 3.36781584208,
			"0.0": 2.44990318409,
			"0.001": 3.33682833219,
			"0.002": 6.8425582739,
			"0.003": 8.51481126459,
			"0.004": 8.28111918976,
			"0.005": 7.64403767899,
			"0.006": 6.92144336053,
			"0.007": 5.86321018645,
			"0.008": 5.87728889316,
			"0.009": 6.87270398509,
			"0.01": 5.59720483711,
			"0.011": 3.85622101866,
			"0.012": 0.736483445265,
			"0.013": 0.0,
			"0.014": 0.0,
			"0.015": 0.0,
			"0.016": 0.0,
			"0.017": 0.0,
			"0.018": 0.0,
			"0.019": 0.0,
			"0.02": 0.0,
			"0.021": 0.0,
			"0.022": 0.0,
			"0.023": 0.0,
			"0.024": 0.0,
			"0.025": 0.0
		}
	}
}
