{
	 "smiles": "NC1=NC(=CS1)C1=CC(O)=CC=C1", 
	 "Tm": 425.15, 
	 "num_atms": 21, 
	 "gaussian": { 
		 "optdone": 1, 
		 "sigma_profile": "yes", 
		 "theory": "DFT", 
		 "functional": "B3LYP", 
		 "basiset": "6-31G**", 
		 "properties": { 
			 "R2extent": 3446.8452, 
			 "electric_dipole_moment_norm": 2.7384360847, 
			 "electric_quadrupole_moment_norm": 13.7512022045, 
			 "total_energy": -930.689480439, 
			 "HOMO_LUMO_gap": 0.17085, 
			 "cosmo_polarized_energy": -16.1, 
			 "cosmo_cavitation_energy": 27.15, 
			 "cosmo_dispersion_energy": -20.94, 
			 "cosmo_repulsion_energy": 1.61, 
			 "cosmo_total_nonelectrostatic_energy": 7.82, 
			 "SMD_solvation_energy": 3.57 
		},
		"coords": [
			{
				"x": -1.239415383,
				"y": 1.7553048298,
				"z": 4.0480220742,
				"element": "N" 
			},
			{
				"x": -1.1969059843,
				"y": 1.0440843322,
				"z": 2.8696421617,
				"element": "C" 
			},
			{
				"x": -0.3070458308,
				"y": 1.2245222013,
				"z": 1.942267013,
				"element": "N" 
			},
			{
				"x": -0.45744609,
				"y": 0.3107368927,
				"z": 0.9063030532,
				"element": "C" 
			},
			{
				"x": -1.496566023,
				"y": -0.5674445086,
				"z": 1.0586589572,
				"element": "C" 
			},
			{
				"x": -2.3280541426,
				"y": -0.2838412537,
				"z": 2.5657926898,
				"element": "S" 
			},
			{
				"x": 0.4722815809,
				"y": 0.3775790142,
				"z": -0.2384443205,
				"element": "C" 
			},
			{
				"x": 0.4530289598,
				"y": -0.5925748499,
				"z": -1.2549230775,
				"element": "C" 
			},
			{
				"x": 1.332369779,
				"y": -0.5074436711,
				"z": -2.3340287989,
				"element": "C" 
			},
			{
				"x": 1.3472952533,
				"y": -1.4314155171,
				"z": -3.3430023411,
				"element": "O" 
			},
			{
				"x": 2.2503688968,
				"y": 0.5467591719,
				"z": -2.4169650497,
				"element": "C" 
			},
			{
				"x": 2.2726403765,
				"y": 1.5040294839,
				"z": -1.4069000835,
				"element": "C" 
			},
			{
				"x": 1.3968091563,
				"y": 1.4292401718,
				"z": -0.3231587998,
				"element": "C" 
			},
			{
				"x": -0.6690910973,
				"y": 2.5906982311,
				"z": 4.0212003829,
				"element": "H" 
			},
			{
				"x": -2.1495933501,
				"y": 1.8957239227,
				"z": 4.4628706832,
				"element": "H" 
			},
			{
				"x": -1.8433222188,
				"y": -1.3397858794,
				"z": 0.3893509253,
				"element": "H" 
			},
			{
				"x": -0.2415691463,
				"y": -1.4280315635,
				"z": -1.2031834876,
				"element": "H" 
			},
			{
				"x": 0.6760333855,
				"y": -2.1028819033,
				"z": -3.1657134785,
				"element": "H" 
			},
			{
				"x": 2.9264637493,
				"y": 0.5915338544,
				"z": -3.2641157432,
				"element": "H" 
			},
			{
				"x": 2.984675179,
				"y": 2.3225630246,
				"z": -1.4647699871,
				"element": "H" 
			},
			{
				"x": 1.41554295,
				"y": 2.173644016,
				"z": 0.463197227,
				"element": "H" 
			}
		],
		 "valence_orbital": [ 
			{
				"type": "occ",
				"energy": -0.28103,
				"method": "rhf"
			},
			{
				"type": "occ",
				"energy": -0.27319,
				"method": "rhf"
			},
			{
				"type": "occ",
				"energy": -0.2496,
				"method": "rhf"
			},
			{
				"type": "occ",
				"energy": -0.21895,
				"method": "rhf"
			},
			{
				"type": "occ",
				"energy": -0.19983,
				"method": "rhf"
			},
			{
				"type": "unocc",
				"energy": -0.02898,
				"method": "rhf"
			},
			{
				"type": "unocc",
				"energy": 0.0078,
				"method": "rhf"
			},
			{
				"type": "unocc",
				"energy": 0.01681,
				"method": "rhf"
			},
			{
				"type": "unocc",
				"energy": 0.01859,
				"method": "rhf"
			},
			{
				"type": "unocc",
				"energy": 0.06879,
				"method": "rhf"
			}
		],
		"cosmo_sigma_profile": { 
			"-0.025": 0.0,
			"-0.024": 0.0,
			"-0.023": 0.0,
			"-0.022": 0.0,
			"-0.021": 0.0,
			"-0.02": 0.0,
			"-0.019": 0.0,
			"-0.018": 0.272135058123,
			"-0.017": 1.12189437288,
			"-0.016": 1.03563962606,
			"-0.015": 1.30457276587,
			"-0.014": 2.83524212888,
			"-0.013": 3.6805300853,
			"-0.012": 4.401827334,
			"-0.011": 2.86216591339,
			"-0.01": 2.97825741035,
			"-0.009": 5.92279955032,
			"-0.008": 5.92595538602,
			"-0.007": 3.5668285967,
			"-0.006": 5.9548052306,
			"-0.005": 8.63365515423,
			"-0.004": 9.60044325906,
			"-0.003": 10.2182882897,
			"-0.002": 8.19577593603,
			"-0.001": 8.63875016218,
			"0.0": 8.42188732146,
			"0.001": 12.402422586,
			"0.002": 15.6965832685,
			"0.003": 19.4584399888,
			"0.004": 26.2415932785,
			"0.005": 19.6494712119,
			"0.006": 9.7984350131,
			"0.007": 3.64766569701,
			"0.008": 4.22693706784,
			"0.009": 2.79508134102,
			"0.01": 4.67467034877,
			"0.011": 3.50145706523,
			"0.012": 1.7816122382,
			"0.013": 0.0,
			"0.014": 0.0,
			"0.015": 0.0,
			"0.016": 0.0,
			"0.017": 0.0,
			"0.018": 0.0,
			"0.019": 0.0,
			"0.02": 0.0,
			"0.021": 0.0,
			"0.022": 0.0,
			"0.023": 0.0,
			"0.024": 0.0,
			"0.025": 0.0
		}
	}
}
