{
	 "smiles": "CC(C)S(=O)(=O)C1=CC=C(CCl)C=C1", 
	 "Tm": 343.15, 
	 "num_atms": 27, 
	 "gaussian": { 
		 "optdone": 1, 
		 "sigma_profile": "yes", 
		 "theory": "DFT", 
		 "functional": "B3LYP", 
		 "basiset": "6-31G**", 
		 "properties": { 
			 "R2extent": 4501.4045, 
			 "electric_dipole_moment_norm": 2.96617512126, 
			 "electric_quadrupole_moment_norm": 28.2065349375, 
			 "total_energy": -1397.6800307, 
			 "HOMO_LUMO_gap": 0.21509, 
			 "cosmo_polarized_energy": -15.95, 
			 "cosmo_cavitation_energy": 32.78, 
			 "cosmo_dispersion_energy": -23.45, 
			 "cosmo_repulsion_energy": 1.82, 
			 "cosmo_total_nonelectrostatic_energy": 11.15, 
			 "SMD_solvation_energy": 4.48 
		},
		"coords": [
			{
				"x": 0.4101662992,
				"y": 2.902674841,
				"z": 0.0126601061,
				"element": "C" 
			},
			{
				"x": -0.8445211698,
				"y": 2.5806549243,
				"z": 0.8236792267,
				"element": "C" 
			},
			{
				"x": -0.5608536678,
				"y": 2.0643265545,
				"z": 2.2338853298,
				"element": "C" 
			},
			{
				"x": -1.9652960342,
				"y": 1.4409941424,
				"z": -0.0965629409,
				"element": "S" 
			},
			{
				"x": -3.1203851993,
				"y": 1.1687200394,
				"z": 0.7783285741,
				"element": "O" 
			},
			{
				"x": -2.1489402331,
				"y": 2.0087180991,
				"z": -1.4448101993,
				"element": "O" 
			},
			{
				"x": -1.0612265417,
				"y": -0.109993095,
				"z": -0.287530558,
				"element": "C" 
			},
			{
				"x": -1.1954243466,
				"y": -1.1053553854,
				"z": 0.6829115118,
				"element": "C" 
			},
			{
				"x": -0.5101865209,
				"y": -2.3075317254,
				"z": 0.5197936645,
				"element": "C" 
			},
			{
				"x": 0.2981452707,
				"y": -2.5222108131,
				"z": -0.6048048353,
				"element": "C" 
			},
			{
				"x": 1.0324993123,
				"y": -3.8202924516,
				"z": -0.774286292,
				"element": "C" 
			},
			{
				"x": 2.7041648088,
				"y": -3.763417678,
				"z": -0.0243700185,
				"element": "Cl" 
			},
			{
				"x": 0.4051061416,
				"y": -1.516224623,
				"z": -1.5747511063,
				"element": "C" 
			},
			{
				"x": -0.2745489177,
				"y": -0.3092624967,
				"z": -1.4241856238,
				"element": "C" 
			},
			{
				"x": 0.1535850028,
				"y": 3.2639386992,
				"z": -0.985401128,
				"element": "H" 
			},
			{
				"x": 0.9800088088,
				"y": 3.6833254538,
				"z": 0.5266941374,
				"element": "H" 
			},
			{
				"x": 1.059046625,
				"y": 2.0262861409,
				"z": -0.0830752043,
				"element": "H" 
			},
			{
				"x": -1.4887453452,
				"y": 3.467474913,
				"z": 0.8767822947,
				"element": "H" 
			},
			{
				"x": -0.0104926356,
				"y": 2.8281875432,
				"z": 2.7924532584,
				"element": "H" 
			},
			{
				"x": 0.0561445435,
				"y": 1.1604027342,
				"z": 2.2112003713,
				"element": "H" 
			},
			{
				"x": -1.487663465,
				"y": 1.8469677059,
				"z": 2.7689085281,
				"element": "H" 
			},
			{
				"x": -1.8486068652,
				"y": -0.9430358343,
				"z": 1.5331317945,
				"element": "H" 
			},
			{
				"x": -0.6083681274,
				"y": -3.0890254894,
				"z": 1.2682042084,
				"element": "H" 
			},
			{
				"x": 1.1906880433,
				"y": -4.0653742624,
				"z": -1.8245399467,
				"element": "H" 
			},
			{
				"x": 0.5188601844,
				"y": -4.6466829228,
				"z": -0.2829922641,
				"element": "H" 
			},
			{
				"x": 1.0189283811,
				"y": -1.6821459135,
				"z": -2.4557645787,
				"element": "H" 
			},
			{
				"x": -0.223584352,
				"y": 0.4616808996,
				"z": -2.1850583099,
				"element": "H" 
			}
		],
		 "valence_orbital": [ 
			{
				"type": "occ",
				"energy": -0.30551,
				"method": "rhf"
			},
			{
				"type": "occ",
				"energy": -0.29448,
				"method": "rhf"
			},
			{
				"type": "occ",
				"energy": -0.28317,
				"method": "rhf"
			},
			{
				"type": "occ",
				"energy": -0.27923,
				"method": "rhf"
			},
			{
				"type": "occ",
				"energy": -0.27449,
				"method": "rhf"
			},
			{
				"type": "unocc",
				"energy": -0.0594,
				"method": "rhf"
			},
			{
				"type": "unocc",
				"energy": -0.03121,
				"method": "rhf"
			},
			{
				"type": "unocc",
				"energy": 0.02085,
				"method": "rhf"
			},
			{
				"type": "unocc",
				"energy": 0.0551,
				"method": "rhf"
			},
			{
				"type": "unocc",
				"energy": 0.07795,
				"method": "rhf"
			}
		],
		"cosmo_sigma_profile": { 
			"-0.025": 0.0,
			"-0.024": 0.0,
			"-0.023": 0.0,
			"-0.022": 0.0,
			"-0.021": 0.0,
			"-0.02": 0.0,
			"-0.019": 0.0,
			"-0.018": 0.0,
			"-0.017": 0.0,
			"-0.016": 0.0,
			"-0.015": 0.0,
			"-0.014": 0.0,
			"-0.013": 0.0,
			"-0.012": 0.0,
			"-0.011": 0.0,
			"-0.01": 0.0,
			"-0.009": 0.649720847974,
			"-0.008": 8.94139483211,
			"-0.007": 14.3189384356,
			"-0.006": 12.7609666069,
			"-0.005": 18.626952619,
			"-0.004": 20.6436514367,
			"-0.003": 21.6698849625,
			"-0.002": 21.9143719553,
			"-0.001": 22.2231919234,
			"0.0": 17.2572586729,
			"0.001": 13.2818532848,
			"0.002": 16.7213169081,
			"0.003": 9.99124893985,
			"0.004": 8.96149585598,
			"0.005": 7.76537710549,
			"0.006": 12.7360172452,
			"0.007": 5.22811983579,
			"0.008": 2.99921211038,
			"0.009": 3.60175891215,
			"0.01": 3.6576477213,
			"0.011": 7.71010199513,
			"0.012": 7.71995306909,
			"0.013": 2.03196842842,
			"0.014": 0.0,
			"0.015": 0.0,
			"0.016": 0.0,
			"0.017": 0.0,
			"0.018": 0.0,
			"0.019": 0.0,
			"0.02": 0.0,
			"0.021": 0.0,
			"0.022": 0.0,
			"0.023": 0.0,
			"0.024": 0.0,
			"0.025": 0.0
		}
	}
}
