{
	 "smiles": "CC1=NC2=C(C=C(Br)C=C2)C(=C1)C(O)=O", 
	 "Tm": 533.15, 
	 "num_atms": 23, 
	 "gaussian": { 
		 "optdone": 1, 
		 "sigma_profile": "yes", 
		 "theory": "DFT", 
		 "functional": "B3LYP", 
		 "basiset": "6-31G**", 
		 "properties": { 
			 "R2extent": 6317.8468, 
			 "electric_dipole_moment_norm": 3.23167451022, 
			 "electric_quadrupole_moment_norm": 18.0931650015, 
			 "total_energy": -3200.6143752, 
			 "HOMO_LUMO_gap": 0.1633, 
			 "cosmo_polarized_energy": -13.49, 
			 "cosmo_cavitation_energy": 30.0, 
			 "cosmo_dispersion_energy": -22.36, 
			 "cosmo_repulsion_energy": 1.75, 
			 "cosmo_total_nonelectrostatic_energy": 9.38, 
			 "SMD_solvation_energy": 3.56 
		},
		"coords": [
			{
				"x": 3.6170181549,
				"y": -0.7079522435,
				"z": -0.5259191987,
				"element": "C" 
			},
			{
				"x": 2.1217873158,
				"y": -0.8838449158,
				"z": -0.5856191301,
				"element": "C" 
			},
			{
				"x": 1.3834540844,
				"y": 0.1817818924,
				"z": -0.8357954349,
				"element": "N" 
			},
			{
				"x": 0.0266544563,
				"y": 0.0475371037,
				"z": -0.8722911064,
				"element": "C" 
			},
			{
				"x": -0.6486850984,
				"y": -1.2020275616,
				"z": -0.6797819033,
				"element": "C" 
			},
			{
				"x": -2.0710694758,
				"y": -1.2190913735,
				"z": -0.6752400311,
				"element": "C" 
			},
			{
				"x": -2.7706283052,
				"y": -0.0528941051,
				"z": -0.8939684842,
				"element": "C" 
			},
			{
				"x": -4.6783910683,
				"y": -0.0845556105,
				"z": -0.8787492614,
				"element": "Br" 
			},
			{
				"x": -2.1158382369,
				"y": 1.1778642747,
				"z": -1.1207236931,
				"element": "C" 
			},
			{
				"x": -0.7410449784,
				"y": 1.2191731326,
				"z": -1.1022804895,
				"element": "C" 
			},
			{
				"x": 0.1844616562,
				"y": -2.3481814728,
				"z": -0.4626180763,
				"element": "C" 
			},
			{
				"x": 1.5471266623,
				"y": -2.1706989772,
				"z": -0.3868747052,
				"element": "C" 
			},
			{
				"x": -0.3212656129,
				"y": -3.7593463042,
				"z": -0.3079364722,
				"element": "C" 
			},
			{
				"x": -1.362218081,
				"y": -4.1252283242,
				"z": -1.101306476,
				"element": "O" 
			},
			{
				"x": 0.1785467995,
				"y": -4.5576231308,
				"z": 0.4455567208,
				"element": "O" 
			},
			{
				"x": 4.007646272,
				"y": -1.0118085595,
				"z": 0.4520021544,
				"element": "H" 
			},
			{
				"x": 4.1169057396,
				"y": -1.3281217734,
				"z": -1.2788389658,
				"element": "H" 
			},
			{
				"x": 3.8731216234,
				"y": 0.3376303297,
				"z": -0.7011610894,
				"element": "H" 
			},
			{
				"x": -2.6127155869,
				"y": -2.1330597338,
				"z": -0.4631595113,
				"element": "H" 
			},
			{
				"x": -2.6997436391,
				"y": 2.0745577709,
				"z": -1.2927736035,
				"element": "H" 
			},
			{
				"x": -0.2018002844,
				"y": 2.148344284,
				"z": -1.2526375354,
				"element": "H" 
			},
			{
				"x": 2.1810319598,
				"y": -3.0292682189,
				"z": -0.1908152367,
				"element": "H" 
			},
			{
				"x": -1.5688543569,
				"y": -3.4206864831,
				"z": -1.7330684708,
				"element": "H" 
			}
		],
		 "valence_orbital": [ 
			{
				"type": "occ",
				"energy": -0.30076,
				"method": "rhf"
			},
			{
				"type": "occ",
				"energy": -0.28887,
				"method": "rhf"
			},
			{
				"type": "occ",
				"energy": -0.27307,
				"method": "rhf"
			},
			{
				"type": "occ",
				"energy": -0.26513,
				"method": "rhf"
			},
			{
				"type": "occ",
				"energy": -0.24817,
				"method": "rhf"
			},
			{
				"type": "unocc",
				"energy": -0.08487,
				"method": "rhf"
			},
			{
				"type": "unocc",
				"energy": -0.04191,
				"method": "rhf"
			},
			{
				"type": "unocc",
				"energy": -0.02711,
				"method": "rhf"
			},
			{
				"type": "unocc",
				"energy": -0.00641,
				"method": "rhf"
			},
			{
				"type": "unocc",
				"energy": 0.02664,
				"method": "rhf"
			}
		],
		"cosmo_sigma_profile": { 
			"-0.025": 0.0,
			"-0.024": 0.0,
			"-0.023": 0.0,
			"-0.022": 0.0,
			"-0.021": 0.0,
			"-0.02": 0.0,
			"-0.019": 0.111063622688,
			"-0.018": 0.775881300246,
			"-0.017": 0.431131108066,
			"-0.016": 0.495417933735,
			"-0.015": 1.62397134019,
			"-0.014": 0.991636000544,
			"-0.013": 0.800778177186,
			"-0.012": 1.25056606726,
			"-0.011": 0.738552341019,
			"-0.01": 0.595424251537,
			"-0.009": 1.17405955997,
			"-0.008": 2.64466745992,
			"-0.007": 7.92762262039,
			"-0.006": 9.55084992662,
			"-0.005": 15.5227156899,
			"-0.004": 16.4476402496,
			"-0.003": 14.7843111419,
			"-0.002": 16.6139348815,
			"-0.001": 22.4874011308,
			"0.0": 23.0092639177,
			"0.001": 23.6019299866,
			"0.002": 15.6730715607,
			"0.003": 14.4290234686,
			"0.004": 13.4893148505,
			"0.005": 5.35681973446,
			"0.006": 3.75551998332,
			"0.007": 4.12816544805,
			"0.008": 4.3060706985,
			"0.009": 5.03450293387,
			"0.01": 5.60601997382,
			"0.011": 6.52472796642,
			"0.012": 3.18409789204,
			"0.013": 0.676617167386,
			"0.014": 0.529070104134,
			"0.015": 0.0558264417522,
			"0.016": 0.0,
			"0.017": 0.0,
			"0.018": 0.0,
			"0.019": 0.0,
			"0.02": 0.0,
			"0.021": 0.0,
			"0.022": 0.0,
			"0.023": 0.0,
			"0.024": 0.0,
			"0.025": 0.0
		}
	}
}
