{
	 "smiles": "ClC1=NC=CC=C1C(=O)NCC1=CC=CC=C1", 
	 "Tm": 393.15, 
	 "num_atms": 28, 
	 "gaussian": { 
		 "optdone": 1, 
		 "sigma_profile": "yes", 
		 "theory": "DFT", 
		 "functional": "B3LYP", 
		 "basiset": "6-31G**", 
		 "properties": { 
			 "R2extent": 6168.713, 
			 "electric_dipole_moment_norm": 1.11696686612, 
			 "electric_quadrupole_moment_norm": 15.8804728264, 
			 "total_energy": -1146.94466276, 
			 "HOMO_LUMO_gap": 0.18406, 
			 "cosmo_polarized_energy": -11.91, 
			 "cosmo_cavitation_energy": 34.18, 
			 "cosmo_dispersion_energy": -24.78, 
			 "cosmo_repulsion_energy": 1.92, 
			 "cosmo_total_nonelectrostatic_energy": 11.32, 
			 "SMD_solvation_energy": 4.06 
		},
		"coords": [
			{
				"x": -1.264628132,
				"y": -3.4505552352,
				"z": -1.2119981027,
				"element": "Cl" 
			},
			{
				"x": -0.4162521807,
				"y": -3.7885425476,
				"z": 0.3144160213,
				"element": "C" 
			},
			{
				"x": -0.0802322756,
				"y": -5.0587072437,
				"z": 0.4378019892,
				"element": "N" 
			},
			{
				"x": 0.5478405595,
				"y": -5.4475037663,
				"z": 1.5527688311,
				"element": "C" 
			},
			{
				"x": 0.8483274173,
				"y": -4.5681294688,
				"z": 2.5892591406,
				"element": "C" 
			},
			{
				"x": 0.480133742,
				"y": -3.2371038209,
				"z": 2.4392617873,
				"element": "C" 
			},
			{
				"x": -0.1676694333,
				"y": -2.7892306857,
				"z": 1.2768481772,
				"element": "C" 
			},
			{
				"x": -0.4965104891,
				"y": -1.3035560367,
				"z": 1.283928469,
				"element": "C" 
			},
			{
				"x": -0.4040672434,
				"y": -0.6826185083,
				"z": 2.3445904167,
				"element": "O" 
			},
			{
				"x": -0.8555116095,
				"y": -0.7064020467,
				"z": 0.121843617,
				"element": "N" 
			},
			{
				"x": -1.1535767745,
				"y": 0.7246433564,
				"z": 0.0511686045,
				"element": "C" 
			},
			{
				"x": 0.017668873,
				"y": 1.5658150704,
				"z": -0.4234115118,
				"element": "C" 
			},
			{
				"x": 0.015040749,
				"y": 2.1447682013,
				"z": -1.6966086855,
				"element": "C" 
			},
			{
				"x": 1.0981866763,
				"y": 2.9116695719,
				"z": -2.1333587057,
				"element": "C" 
			},
			{
				"x": 2.1975072157,
				"y": 3.1045381746,
				"z": -1.2968947813,
				"element": "C" 
			},
			{
				"x": 2.2080107198,
				"y": 2.5303594016,
				"z": -0.0222612907,
				"element": "C" 
			},
			{
				"x": 1.1257012319,
				"y": 1.7674333684,
				"z": 0.4132718722,
				"element": "C" 
			},
			{
				"x": 0.8103963511,
				"y": -6.5014538408,
				"z": 1.6082163833,
				"element": "H" 
			},
			{
				"x": 1.3521496598,
				"y": -4.9155839629,
				"z": 3.4848349122,
				"element": "H" 
			},
			{
				"x": 0.6685090809,
				"y": -2.4975485306,
				"z": 3.209480198,
				"element": "H" 
			},
			{
				"x": -0.8506770187,
				"y": -1.2416928595,
				"z": -0.7333526071,
				"element": "H" 
			},
			{
				"x": -2.0076960256,
				"y": 0.857769065,
				"z": -0.6207919002,
				"element": "H" 
			},
			{
				"x": -1.4584294426,
				"y": 1.0261899621,
				"z": 1.0555000188,
				"element": "H" 
			},
			{
				"x": -0.8415780311,
				"y": 1.9988675747,
				"z": -2.3510960467,
				"element": "H" 
			},
			{
				"x": 1.0812322714,
				"y": 3.3567682148,
				"z": -3.1242522334,
				"element": "H" 
			},
			{
				"x": 3.0407044586,
				"y": 3.7011765105,
				"z": -1.6332131127,
				"element": "H" 
			},
			{
				"x": 3.0596475418,
				"y": 2.6827509691,
				"z": 0.6349824293,
				"element": "H" 
			},
			{
				"x": 1.1268721082,
				"y": 1.322379113,
				"z": 1.40426611,
				"element": "H" 
			}
		],
		 "valence_orbital": [ 
			{
				"type": "occ",
				"energy": -0.27236,
				"method": "rhf"
			},
			{
				"type": "occ",
				"energy": -0.26781,
				"method": "rhf"
			},
			{
				"type": "occ",
				"energy": -0.25731,
				"method": "rhf"
			},
			{
				"type": "occ",
				"energy": -0.25029,
				"method": "rhf"
			},
			{
				"type": "occ",
				"energy": -0.24298,
				"method": "rhf"
			},
			{
				"type": "unocc",
				"energy": -0.05892,
				"method": "rhf"
			},
			{
				"type": "unocc",
				"energy": -0.0388,
				"method": "rhf"
			},
			{
				"type": "unocc",
				"energy": -0.00613,
				"method": "rhf"
			},
			{
				"type": "unocc",
				"energy": -0.00088,
				"method": "rhf"
			},
			{
				"type": "unocc",
				"energy": 0.01692,
				"method": "rhf"
			}
		],
		"cosmo_sigma_profile": { 
			"-0.025": 0.0,
			"-0.024": 0.0,
			"-0.023": 0.0,
			"-0.022": 0.0,
			"-0.021": 0.0,
			"-0.02": 0.0,
			"-0.019": 0.0,
			"-0.018": 0.0,
			"-0.017": 0.0,
			"-0.016": 0.0,
			"-0.015": 0.0,
			"-0.014": 0.0,
			"-0.013": 0.0,
			"-0.012": 0.0,
			"-0.011": 0.613692890208,
			"-0.01": 1.06845635447,
			"-0.009": 1.0954768367,
			"-0.008": 5.41271311688,
			"-0.007": 8.53119730996,
			"-0.006": 14.7975428031,
			"-0.005": 17.8741059684,
			"-0.004": 17.8582507079,
			"-0.003": 22.2317897831,
			"-0.002": 22.3905408284,
			"-0.001": 24.1999336863,
			"0.0": 24.5899212491,
			"0.001": 22.2714946188,
			"0.002": 16.3473865471,
			"0.003": 16.9473516764,
			"0.004": 14.5035378414,
			"0.005": 13.8380135816,
			"0.006": 11.2451423929,
			"0.007": 3.35048939902,
			"0.008": 2.03777310147,
			"0.009": 2.98226747185,
			"0.01": 2.76574035665,
			"0.011": 2.26613254072,
			"0.012": 2.68216089001,
			"0.013": 4.23011306712,
			"0.014": 0.667589543329,
			"0.015": 0.0,
			"0.016": 0.0,
			"0.017": 0.0,
			"0.018": 0.0,
			"0.019": 0.0,
			"0.02": 0.0,
			"0.021": 0.0,
			"0.022": 0.0,
			"0.023": 0.0,
			"0.024": 0.0,
			"0.025": 0.0
		}
	}
}
