{
	 "smiles": "ON=CC1=CNC=N1", 
	 "Tm": 455.15, 
	 "num_atms": 13, 
	 "gaussian": { 
		 "optdone": 1, 
		 "sigma_profile": "yes", 
		 "theory": "DFT", 
		 "functional": "B3LYP", 
		 "basiset": "6-31G**", 
		 "properties": { 
			 "R2extent": 1722.7029, 
			 "electric_dipole_moment_norm": 4.15221586867, 
			 "electric_quadrupole_moment_norm": 18.7242154474, 
			 "total_energy": -394.845542388, 
			 "HOMO_LUMO_gap": 0.19249, 
			 "cosmo_polarized_energy": -16.38, 
			 "cosmo_cavitation_energy": 18.18, 
			 "cosmo_dispersion_energy": -13.67, 
			 "cosmo_repulsion_energy": 1.16, 
			 "cosmo_total_nonelectrostatic_energy": 5.67, 
			 "SMD_solvation_energy": 2.6 
		},
		"coords": [
			{
				"x": 1.3337928927,
				"y": 1.0243757502,
				"z": -1.4458743673,
				"element": "O" 
			},
			{
				"x": 0.2646076689,
				"y": 0.5778074973,
				"z": -0.6521050169,
				"element": "N" 
			},
			{
				"x": -0.5957577219,
				"y": -0.0516627936,
				"z": -1.3643811717,
				"element": "C" 
			},
			{
				"x": -1.7985973114,
				"y": -0.6136628566,
				"z": -0.7697186429,
				"element": "C" 
			},
			{
				"x": -2.221209605,
				"y": -0.5901570345,
				"z": 0.5448618001,
				"element": "C" 
			},
			{
				"x": -3.4177486107,
				"y": -1.2662461657,
				"z": 0.5499008256,
				"element": "N" 
			},
			{
				"x": -3.6695078667,
				"y": -1.665800975,
				"z": -0.7361220605,
				"element": "C" 
			},
			{
				"x": -2.7158715175,
				"y": -1.2897463776,
				"z": -1.5551733486,
				"element": "N" 
			},
			{
				"x": 1.8967717961,
				"y": 1.472071308,
				"z": -0.800841276,
				"element": "H" 
			},
			{
				"x": -0.4612949667,
				"y": -0.1903060072,
				"z": -2.4385834936,
				"element": "H" 
			},
			{
				"x": -1.783989609,
				"y": -0.1650816532,
				"z": 1.4338120759,
				"element": "H" 
			},
			{
				"x": -4.0002081834,
				"y": -1.4347488593,
				"z": 1.3561999851,
				"element": "H" 
			},
			{
				"x": -4.5567869655,
				"y": -2.2218418329,
				"z": -1.0055753093,
				"element": "H" 
			}
		],
		 "valence_orbital": [ 
			{
				"type": "occ",
				"energy": -0.303,
				"method": "rhf"
			},
			{
				"type": "occ",
				"energy": -0.27487,
				"method": "rhf"
			},
			{
				"type": "occ",
				"energy": -0.27048,
				"method": "rhf"
			},
			{
				"type": "occ",
				"energy": -0.26643,
				"method": "rhf"
			},
			{
				"type": "occ",
				"energy": -0.21079,
				"method": "rhf"
			},
			{
				"type": "unocc",
				"energy": -0.0183,
				"method": "rhf"
			},
			{
				"type": "unocc",
				"energy": 0.02974,
				"method": "rhf"
			},
			{
				"type": "unocc",
				"energy": 0.06781,
				"method": "rhf"
			},
			{
				"type": "unocc",
				"energy": 0.08449,
				"method": "rhf"
			},
			{
				"type": "unocc",
				"energy": 0.11795,
				"method": "rhf"
			}
		],
		"cosmo_sigma_profile": { 
			"-0.025": 0.0,
			"-0.024": 0.0,
			"-0.023": 0.0,
			"-0.022": 0.0,
			"-0.021": 0.0,
			"-0.02": 0.0,
			"-0.019": 0.0,
			"-0.018": 0.1255870014,
			"-0.017": 2.16455581442,
			"-0.016": 3.22768728676,
			"-0.015": 1.7404263708,
			"-0.014": 2.3409196496,
			"-0.013": 1.76830258392,
			"-0.012": 1.90937650733,
			"-0.011": 1.78402089755,
			"-0.01": 2.0730777103,
			"-0.009": 6.02119267698,
			"-0.008": 5.24590920473,
			"-0.007": 4.30234824927,
			"-0.006": 5.21905271237,
			"-0.005": 4.32470685061,
			"-0.004": 4.28788012826,
			"-0.003": 4.51676486973,
			"-0.002": 4.99461795609,
			"-0.001": 4.959537811,
			"0.0": 5.85041154202,
			"0.001": 6.86475772479,
			"0.002": 9.65513524207,
			"0.003": 11.1021729024,
			"0.004": 9.75788377309,
			"0.005": 7.04685369361,
			"0.006": 5.65297068753,
			"0.007": 3.73078111325,
			"0.008": 5.11656762017,
			"0.009": 4.33733665183,
			"0.01": 4.23584624926,
			"0.011": 3.94205192956,
			"0.012": 1.97218372538,
			"0.013": 1.43884870353,
			"0.014": 1.06223676889,
			"0.015": 0.675876003545,
			"0.016": 0.952850008041,
			"0.017": 0.93202216329,
			"0.018": 0.0344160315985,
			"0.019": 0.0,
			"0.02": 0.0,
			"0.021": 0.0,
			"0.022": 0.0,
			"0.023": 0.0,
			"0.024": 0.0,
			"0.025": 0.0
		}
	}
}
