{
	 "smiles": "CCOP(=S)(OCC)SC(CCl)N1C(=O)C2=C(C=CC=C2)C1=O", 
	 "Tm": 341.15, 
	 "num_atms": 40, 
	 "gaussian": { 
		 "optdone": 1, 
		 "sigma_profile": "yes", 
		 "theory": "DFT", 
		 "functional": "B3LYP", 
		 "basiset": "6-31G**", 
		 "properties": { 
			 "R2extent": 10618.0791, 
			 "electric_dipole_moment_norm": 6.82081535669, 
			 "electric_quadrupole_moment_norm": 31.4736161901, 
			 "total_energy": -2497.4008351, 
			 "HOMO_LUMO_gap": 0.14075, 
			 "cosmo_polarized_energy": -19.16, 
			 "cosmo_cavitation_energy": 50.37, 
			 "cosmo_dispersion_energy": -32.87, 
			 "cosmo_repulsion_energy": 2.43, 
			 "cosmo_total_nonelectrostatic_energy": 19.93, 
			 "SMD_solvation_energy": 8.1 
		},
		"coords": [
			{
				"x": -1.4403818595,
				"y": 3.3651946392,
				"z": -3.9351641667,
				"element": "C" 
			},
			{
				"x": -2.3619041985,
				"y": 2.6642986183,
				"z": -2.9563802447,
				"element": "C" 
			},
			{
				"x": -1.5671054502,
				"y": 2.314924586,
				"z": -1.7895370628,
				"element": "O" 
			},
			{
				"x": -2.2559875203,
				"y": 1.6382125091,
				"z": -0.4977117471,
				"element": "P" 
			},
			{
				"x": -3.9648265017,
				"y": 2.3255356975,
				"z": 0.115037817,
				"element": "S" 
			},
			{
				"x": -0.968389719,
				"y": 1.8012818917,
				"z": 0.462725888,
				"element": "O" 
			},
			{
				"x": -1.053359896,
				"y": 1.5270526727,
				"z": 1.8838248797,
				"element": "C" 
			},
			{
				"x": 0.2550662472,
				"y": 1.9709185808,
				"z": 2.5102037256,
				"element": "C" 
			},
			{
				"x": -2.4335731062,
				"y": -0.4402478917,
				"z": -0.9158256994,
				"element": "S" 
			},
			{
				"x": -0.69710239,
				"y": -0.9242158,
				"z": -1.4131819183,
				"element": "C" 
			},
			{
				"x": -0.6913752618,
				"y": -1.6729059284,
				"z": -2.754709945,
				"element": "C" 
			},
			{
				"x": -1.0649064453,
				"y": -0.5961516823,
				"z": -4.1531711254,
				"element": "Cl" 
			},
			{
				"x": -0.0757605702,
				"y": -1.7560384099,
				"z": -0.3973691693,
				"element": "N" 
			},
			{
				"x": 1.0572115313,
				"y": -1.3539242568,
				"z": 0.3470346637,
				"element": "C" 
			},
			{
				"x": 1.6655401026,
				"y": -0.3162552596,
				"z": 0.1866704018,
				"element": "O" 
			},
			{
				"x": 1.3101995254,
				"y": -2.4580783339,
				"z": 1.3154997227,
				"element": "C" 
			},
			{
				"x": 0.3458524935,
				"y": -3.4494322265,
				"z": 1.1191720249,
				"element": "C" 
			},
			{
				"x": 0.3319617578,
				"y": -4.6101655381,
				"z": 1.879344154,
				"element": "C" 
			},
			{
				"x": 1.3254707139,
				"y": -4.7502569192,
				"z": 2.8572987563,
				"element": "C" 
			},
			{
				"x": 2.293900383,
				"y": -3.756698851,
				"z": 3.0532917843,
				"element": "C" 
			},
			{
				"x": 2.3006659155,
				"y": -2.5892231054,
				"z": 2.2786163062,
				"element": "C" 
			},
			{
				"x": -0.557347173,
				"y": -3.0173017528,
				"z": 0.0157151788,
				"element": "C" 
			},
			{
				"x": -1.509635033,
				"y": -3.5940985595,
				"z": -0.4687915427,
				"element": "O" 
			},
			{
				"x": -0.6237200748,
				"y": 2.7051479832,
				"z": -4.2390951439,
				"element": "H" 
			},
			{
				"x": -1.0141201549,
				"y": 4.2677427539,
				"z": -3.4886642862,
				"element": "H" 
			},
			{
				"x": -2.0054861103,
				"y": 3.6526433759,
				"z": -4.8276385725,
				"element": "H" 
			},
			{
				"x": -2.777749322,
				"y": 1.7474711969,
				"z": -3.3856707628,
				"element": "H" 
			},
			{
				"x": -3.1837808235,
				"y": 3.3112167264,
				"z": -2.6357320785,
				"element": "H" 
			},
			{
				"x": -1.9090634322,
				"y": 2.0694191049,
				"z": 2.2977713342,
				"element": "H" 
			},
			{
				"x": -1.224557735,
				"y": 0.4531790509,
				"z": 2.0265292413,
				"element": "H" 
			},
			{
				"x": 0.4046918123,
				"y": 3.0443910757,
				"z": 2.3664541949,
				"element": "H" 
			},
			{
				"x": 1.0969862545,
				"y": 1.4379640688,
				"z": 2.0614491793,
				"element": "H" 
			},
			{
				"x": 0.2350913704,
				"y": 1.7648431331,
				"z": 3.5854849665,
				"element": "H" 
			},
			{
				"x": -0.0906296058,
				"y": -0.0183890699,
				"z": -1.4791658497,
				"element": "H" 
			},
			{
				"x": 0.3086217941,
				"y": -2.0734070317,
				"z": -2.9315000398,
				"element": "H" 
			},
			{
				"x": -1.4169410513,
				"y": -2.4844433424,
				"z": -2.7592585378,
				"element": "H" 
			},
			{
				"x": -0.4220163589,
				"y": -5.3735245814,
				"z": 1.7176393245,
				"element": "H" 
			},
			{
				"x": 1.3476610916,
				"y": -5.6434255451,
				"z": 3.474230909,
				"element": "H" 
			},
			{
				"x": 3.051389565,
				"y": -3.8961212013,
				"z": 3.8185627569,
				"element": "H" 
			},
			{
				"x": 3.0472092354,
				"y": -1.8146323781,
				"z": 2.4205106833,
				"element": "H" 
			}
		],
		 "valence_orbital": [ 
			{
				"type": "occ",
				"energy": -0.28602,
				"method": "rhf"
			},
			{
				"type": "occ",
				"energy": -0.28477,
				"method": "rhf"
			},
			{
				"type": "occ",
				"energy": -0.26845,
				"method": "rhf"
			},
			{
				"type": "occ",
				"energy": -0.23938,
				"method": "rhf"
			},
			{
				"type": "occ",
				"energy": -0.23923,
				"method": "rhf"
			},
			{
				"type": "unocc",
				"energy": -0.09848,
				"method": "rhf"
			},
			{
				"type": "unocc",
				"energy": -0.05778,
				"method": "rhf"
			},
			{
				"type": "unocc",
				"energy": -0.00451,
				"method": "rhf"
			},
			{
				"type": "unocc",
				"energy": 0.0057,
				"method": "rhf"
			},
			{
				"type": "unocc",
				"energy": 0.01198,
				"method": "rhf"
			}
		],
		"cosmo_sigma_profile": { 
			"-0.025": 0.0,
			"-0.024": 0.0,
			"-0.023": 0.0,
			"-0.022": 0.0,
			"-0.021": 0.0,
			"-0.02": 0.0,
			"-0.019": 0.0,
			"-0.018": 0.0,
			"-0.017": 0.0,
			"-0.016": 0.0,
			"-0.015": 0.0,
			"-0.014": 0.0,
			"-0.013": 0.0,
			"-0.012": 0.0,
			"-0.011": 0.0,
			"-0.01": 0.0182434318494,
			"-0.009": 2.49046010791,
			"-0.008": 8.1753225532,
			"-0.007": 14.3511893319,
			"-0.006": 18.3617211586,
			"-0.005": 26.4336460864,
			"-0.004": 33.2748627032,
			"-0.003": 29.0618339241,
			"-0.002": 29.9860523086,
			"-0.001": 36.2496390938,
			"0.0": 41.5315178658,
			"0.001": 29.365003464,
			"0.002": 25.0016905899,
			"0.003": 17.2619627331,
			"0.004": 16.3853395953,
			"0.005": 19.5056398146,
			"0.006": 14.2153539122,
			"0.007": 12.1218298094,
			"0.008": 11.7190433963,
			"0.009": 8.78168149721,
			"0.01": 7.79224021081,
			"0.011": 3.25760998201,
			"0.012": 0.110076044942,
			"0.013": 0.0,
			"0.014": 0.0,
			"0.015": 0.0,
			"0.016": 0.0,
			"0.017": 0.0,
			"0.018": 0.0,
			"0.019": 0.0,
			"0.02": 0.0,
			"0.021": 0.0,
			"0.022": 0.0,
			"0.023": 0.0,
			"0.024": 0.0,
			"0.025": 0.0
		}
	}
}
