{
	 "smiles": "CC1=CC2=C(C=C1)C(CC(O)=O)=CO2", 
	 "Tm": 414.15, 
	 "num_atms": 24, 
	 "gaussian": { 
		 "optdone": 1, 
		 "sigma_profile": "yes", 
		 "theory": "DFT", 
		 "functional": "B3LYP", 
		 "basiset": "6-31G**", 
		 "properties": { 
			 "R2extent": 3303.1593, 
			 "electric_dipole_moment_norm": 0.947271719202, 
			 "electric_quadrupole_moment_norm": 8.91281803135, 
			 "total_energy": -650.880477441, 
			 "HOMO_LUMO_gap": 0.19662, 
			 "cosmo_polarized_energy": -10.85, 
			 "cosmo_cavitation_energy": 28.56, 
			 "cosmo_dispersion_energy": -20.62, 
			 "cosmo_repulsion_energy": 1.62, 
			 "cosmo_total_nonelectrostatic_energy": 9.56, 
			 "SMD_solvation_energy": 6.63 
		},
		"coords": [
			{
				"x": -3.1437260773,
				"y": 1.3656590256,
				"z": 2.1313118736,
				"element": "C" 
			},
			{
				"x": -1.9643010589,
				"y": 0.5834641201,
				"z": 1.6005783598,
				"element": "C" 
			},
			{
				"x": -2.1498051073,
				"y": -0.6645203579,
				"z": 1.0005804207,
				"element": "C" 
			},
			{
				"x": -1.0176461913,
				"y": -1.3256205235,
				"z": 0.5371101422,
				"element": "C" 
			},
			{
				"x": 0.2841284236,
				"y": -0.8102548985,
				"z": 0.6405889092,
				"element": "C" 
			},
			{
				"x": 0.463926348,
				"y": 0.4475321983,
				"z": 1.2390136656,
				"element": "C" 
			},
			{
				"x": -0.6586760442,
				"y": 1.1189239354,
				"z": 1.7083695971,
				"element": "C" 
			},
			{
				"x": 1.147318744,
				"y": -1.8127570786,
				"z": 0.0479228009,
				"element": "C" 
			},
			{
				"x": 2.6465338127,
				"y": -1.7754505947,
				"z": -0.0736227256,
				"element": "C" 
			},
			{
				"x": 3.1085974109,
				"y": -0.6165548216,
				"z": -0.9428764388,
				"element": "C" 
			},
			{
				"x": 3.1579197271,
				"y": -0.9545381782,
				"z": -2.2514139434,
				"element": "O" 
			},
			{
				"x": 3.3837004252,
				"y": 0.49263468,
				"z": -0.540539307,
				"element": "O" 
			},
			{
				"x": 0.3203530226,
				"y": -2.8115433892,
				"z": -0.3568222003,
				"element": "C" 
			},
			{
				"x": -0.9974889004,
				"y": -2.5518753303,
				"z": -0.0751872823,
				"element": "O" 
			},
			{
				"x": -4.0840854479,
				"y": 0.8316869462,
				"z": 1.9697344863,
				"element": "H" 
			},
			{
				"x": -3.0463873761,
				"y": 1.5528215764,
				"z": 3.2071444592,
				"element": "H" 
			},
			{
				"x": -3.2261719856,
				"y": 2.3434411895,
				"z": 1.6425286639,
				"element": "H" 
			},
			{
				"x": -3.1359814048,
				"y": -1.1057613112,
				"z": 0.8976585252,
				"element": "H" 
			},
			{
				"x": 1.452954298,
				"y": 0.8875577688,
				"z": 1.3141517578,
				"element": "H" 
			},
			{
				"x": -0.5351065498,
				"y": 2.0942441628,
				"z": 2.1725129666,
				"element": "H" 
			},
			{
				"x": 3.1044559907,
				"y": -1.6340111171,
				"z": 0.910467148,
				"element": "H" 
			},
			{
				"x": 3.0108324191,
				"y": -2.7142668439,
				"z": -0.4990670919,
				"element": "H" 
			},
			{
				"x": 3.4197823792,
				"y": -0.1496900429,
				"z": -2.7301128472,
				"element": "H" 
			},
			{
				"x": 0.5124731426,
				"y": -3.7554211155,
				"z": -0.8454319396,
				"element": "H" 
			}
		],
		 "valence_orbital": [ 
			{
				"type": "occ",
				"energy": -0.32195,
				"method": "rhf"
			},
			{
				"type": "occ",
				"energy": -0.28972,
				"method": "rhf"
			},
			{
				"type": "occ",
				"energy": -0.27342,
				"method": "rhf"
			},
			{
				"type": "occ",
				"energy": -0.23297,
				"method": "rhf"
			},
			{
				"type": "occ",
				"energy": -0.21402,
				"method": "rhf"
			},
			{
				"type": "unocc",
				"energy": -0.0174,
				"method": "rhf"
			},
			{
				"type": "unocc",
				"energy": 0.00558,
				"method": "rhf"
			},
			{
				"type": "unocc",
				"energy": 0.01372,
				"method": "rhf"
			},
			{
				"type": "unocc",
				"energy": 0.05794,
				"method": "rhf"
			},
			{
				"type": "unocc",
				"energy": 0.07449,
				"method": "rhf"
			}
		],
		"cosmo_sigma_profile": { 
			"-0.025": 0.0,
			"-0.024": 0.0,
			"-0.023": 0.0,
			"-0.022": 0.0,
			"-0.021": 0.0,
			"-0.02": 0.0,
			"-0.019": 0.0226222862811,
			"-0.018": 0.622634342028,
			"-0.017": 1.3736983325,
			"-0.016": 0.438204942742,
			"-0.015": 0.977938285515,
			"-0.014": 0.57421514791,
			"-0.013": 0.847889612869,
			"-0.012": 0.71748712044,
			"-0.011": 0.735012740641,
			"-0.01": 1.00769697887,
			"-0.009": 2.41542724121,
			"-0.008": 2.77501737326,
			"-0.007": 5.21201161478,
			"-0.006": 8.50491893788,
			"-0.005": 11.9057416528,
			"-0.004": 17.9268535319,
			"-0.003": 15.6149415015,
			"-0.002": 17.4731083358,
			"-0.001": 16.8474432803,
			"0.0": 16.2937277847,
			"0.001": 15.0123794771,
			"0.002": 17.5738630428,
			"0.003": 16.5543571156,
			"0.004": 14.5381735574,
			"0.005": 12.9475075221,
			"0.006": 6.86428201748,
			"0.007": 4.45446304137,
			"0.008": 4.74023165154,
			"0.009": 3.8322573713,
			"0.01": 2.48540580006,
			"0.011": 3.40080427168,
			"0.012": 2.65319988491,
			"0.013": 0.0224344549399,
			"0.014": 0.0,
			"0.015": 0.0,
			"0.016": 0.0,
			"0.017": 0.0,
			"0.018": 0.0,
			"0.019": 0.0,
			"0.02": 0.0,
			"0.021": 0.0,
			"0.022": 0.0,
			"0.023": 0.0,
			"0.024": 0.0,
			"0.025": 0.0
		}
	}
}
