{
	 "smiles": "NC1=C(C=C(NC(=O)C2=C(F)C=CC=C2)C=C1)C(F)(F)F", 
	 "Tm": 398.15, 
	 "num_atms": 31, 
	 "gaussian": { 
		 "optdone": 1, 
		 "sigma_profile": "yes", 
		 "theory": "DFT", 
		 "functional": "B3LYP", 
		 "basiset": "6-31G**", 
		 "properties": { 
			 "R2extent": 8757.6379, 
			 "electric_dipole_moment_norm": 5.08788239742, 
			 "electric_quadrupole_moment_norm": 16.6448615272, 
			 "total_energy": -1123.61913331, 
			 "HOMO_LUMO_gap": 0.1765, 
			 "cosmo_polarized_energy": -17.1, 
			 "cosmo_cavitation_energy": 37.8, 
			 "cosmo_dispersion_energy": -25.64, 
			 "cosmo_repulsion_energy": 1.9, 
			 "cosmo_total_nonelectrostatic_energy": 14.07, 
			 "SMD_solvation_energy": 8.4 
		},
		"coords": [
			{
				"x": 0.8205456213,
				"y": -0.6602923468,
				"z": -4.5142952389,
				"element": "N" 
			},
			{
				"x": 1.2232386892,
				"y": -0.9457924284,
				"z": -3.2204863322,
				"element": "C" 
			},
			{
				"x": 0.9338832283,
				"y": -2.181620355,
				"z": -2.5943454835,
				"element": "C" 
			},
			{
				"x": 1.3879261078,
				"y": -2.4437763655,
				"z": -1.3003943502,
				"element": "C" 
			},
			{
				"x": 2.1584223794,
				"y": -1.5149332255,
				"z": -0.6004696274,
				"element": "C" 
			},
			{
				"x": 2.6394677384,
				"y": -1.8425444927,
				"z": 0.6964204532,
				"element": "N" 
			},
			{
				"x": 2.736117497,
				"y": -1.0473715197,
				"z": 1.8216554451,
				"element": "C" 
			},
			{
				"x": 3.4419590482,
				"y": -1.3778563039,
				"z": 2.763239959,
				"element": "O" 
			},
			{
				"x": 1.8746602582,
				"y": 0.185155993,
				"z": 1.8753773796,
				"element": "C" 
			},
			{
				"x": 2.4217561973,
				"y": 1.412638969,
				"z": 2.2599306022,
				"element": "C" 
			},
			{
				"x": 3.7535031453,
				"y": 1.5162317069,
				"z": 2.4254631163,
				"element": "F" 
			},
			{
				"x": 1.6417897709,
				"y": 2.5488152365,
				"z": 2.4391879862,
				"element": "C" 
			},
			{
				"x": 0.2631473821,
				"y": 2.4592186091,
				"z": 2.2446542037,
				"element": "C" 
			},
			{
				"x": -0.315300706,
				"y": 1.2463603652,
				"z": 1.8636355218,
				"element": "C" 
			},
			{
				"x": 0.4883022904,
				"y": 0.1225258868,
				"z": 1.6761614944,
				"element": "C" 
			},
			{
				"x": 2.4745649937,
				"y": -0.3013405342,
				"z": -1.2273100088,
				"element": "C" 
			},
			{
				"x": 2.0002206645,
				"y": -0.0189020801,
				"z": -2.4999077924,
				"element": "C" 
			},
			{
				"x": 0.1549159656,
				"y": -3.2338858657,
				"z": -3.3282925802,
				"element": "C" 
			},
			{
				"x": -1.0251439438,
				"y": -2.7417205437,
				"z": -3.8152117086,
				"element": "F" 
			},
			{
				"x": -0.1574176345,
				"y": -4.2875601005,
				"z": -2.5495709549,
				"element": "F" 
			},
			{
				"x": 0.8243182868,
				"y": -3.7115170265,
				"z": -4.4021208271,
				"element": "F" 
			},
			{
				"x": 0.8442132204,
				"y": 0.3144088392,
				"z": -4.7747759354,
				"element": "H" 
			},
			{
				"x": 0.0079628248,
				"y": -1.1495635926,
				"z": -4.8584185132,
				"element": "H" 
			},
			{
				"x": 1.1329128187,
				"y": -3.3884209698,
				"z": -0.8333744726,
				"element": "H" 
			},
			{
				"x": 3.1621134762,
				"y": -2.7051779935,
				"z": 0.7970645908,
				"element": "H" 
			},
			{
				"x": 2.1224236498,
				"y": 3.4774394539,
				"z": 2.727316758,
				"element": "H" 
			},
			{
				"x": -0.3563027281,
				"y": 3.3392179218,
				"z": 2.3894481435,
				"element": "H" 
			},
			{
				"x": -1.3881497693,
				"y": 1.1751992782,
				"z": 1.7154730355,
				"element": "H" 
			},
			{
				"x": 0.0424885981,
				"y": -0.8222670227,
				"z": 1.3820357534,
				"element": "H" 
			},
			{
				"x": 3.0954315525,
				"y": 0.4236707609,
				"z": -0.7119706489,
				"element": "H" 
			},
			{
				"x": 2.2500293768,
				"y": 0.9306597462,
				"z": -2.9656199682,
				"element": "H" 
			}
		],
		 "valence_orbital": [ 
			{
				"type": "occ",
				"energy": -0.2746,
				"method": "rhf"
			},
			{
				"type": "occ",
				"energy": -0.26742,
				"method": "rhf"
			},
			{
				"type": "occ",
				"energy": -0.25647,
				"method": "rhf"
			},
			{
				"type": "occ",
				"energy": -0.24575,
				"method": "rhf"
			},
			{
				"type": "occ",
				"energy": -0.21278,
				"method": "rhf"
			},
			{
				"type": "unocc",
				"energy": -0.03628,
				"method": "rhf"
			},
			{
				"type": "unocc",
				"energy": -0.02956,
				"method": "rhf"
			},
			{
				"type": "unocc",
				"energy": -0.01404,
				"method": "rhf"
			},
			{
				"type": "unocc",
				"energy": -0.00103,
				"method": "rhf"
			},
			{
				"type": "unocc",
				"energy": 0.03785,
				"method": "rhf"
			}
		],
		"cosmo_sigma_profile": { 
			"-0.025": 0.0,
			"-0.024": 0.0,
			"-0.023": 0.0,
			"-0.022": 0.0,
			"-0.021": 0.0,
			"-0.02": 0.0,
			"-0.019": 0.0,
			"-0.018": 0.0,
			"-0.017": 0.0,
			"-0.016": 0.0,
			"-0.015": 0.166540448056,
			"-0.014": 1.04748710437,
			"-0.013": 2.76453024961,
			"-0.012": 2.61430472462,
			"-0.011": 3.32934205274,
			"-0.01": 3.56521072378,
			"-0.009": 3.80890064386,
			"-0.008": 3.97311409157,
			"-0.007": 9.49283878963,
			"-0.006": 16.3327837493,
			"-0.005": 16.9897270473,
			"-0.004": 15.2109617368,
			"-0.003": 14.4710528002,
			"-0.002": 14.9705603481,
			"-0.001": 17.0308389375,
			"0.0": 19.6670613651,
			"0.001": 24.5525728491,
			"0.002": 33.5252818714,
			"0.003": 42.8257355304,
			"0.004": 23.7135614435,
			"0.005": 6.12407701162,
			"0.006": 3.10852437329,
			"0.007": 2.72086861201,
			"0.008": 2.23907921254,
			"0.009": 2.14073807499,
			"0.01": 3.05204776959,
			"0.011": 2.66657051696,
			"0.012": 3.69884371855,
			"0.013": 5.73693644839,
			"0.014": 1.4082845711,
			"0.015": 0.0,
			"0.016": 0.0,
			"0.017": 0.0,
			"0.018": 0.0,
			"0.019": 0.0,
			"0.02": 0.0,
			"0.021": 0.0,
			"0.022": 0.0,
			"0.023": 0.0,
			"0.024": 0.0,
			"0.025": 0.0
		}
	}
}
