{
	 "smiles": "[O-][N+](=O)C1=C(NC2=NC=C(C=C2Cl)C(F)(F)F)C(=C(Cl)C(=C1)C(F)(F)F)[N+]([O-])=O", 
	 "Tm": 390.15, 
	 "num_atms": 33, 
	 "gaussian": { 
		 "optdone": 1, 
		 "sigma_profile": "yes", 
		 "theory": "DFT", 
		 "functional": "B3LYP", 
		 "basiset": "6-31G**", 
		 "properties": { 
			 "R2extent": 14326.3698, 
			 "electric_dipole_moment_norm": 0.958884549881, 
			 "electric_quadrupole_moment_norm": 10.3497017962, 
			 "total_energy": -2536.89323268, 
			 "HOMO_LUMO_gap": 0.1383, 
			 "cosmo_polarized_energy": -13.13, 
			 "cosmo_cavitation_energy": 45.93, 
			 "cosmo_dispersion_energy": -30.54, 
			 "cosmo_repulsion_energy": 2.14, 
			 "cosmo_total_nonelectrostatic_energy": 17.54, 
			 "SMD_solvation_energy": 12.15 
		},
		"coords": [
			{
				"x": -3.4228830778,
				"y": -0.0789792636,
				"z": -2.4659284057,
				"element": "O" 
			},
			{
				"x": -2.4275526674,
				"y": -0.583364186,
				"z": -1.9566148709,
				"element": "N" 
			},
			{
				"x": -1.7486691822,
				"y": -1.4640072377,
				"z": -2.5098603048,
				"element": "O" 
			},
			{
				"x": -2.0385634104,
				"y": -0.1361399863,
				"z": -0.621174681,
				"element": "C" 
			},
			{
				"x": -0.7623984364,
				"y": -0.4313660646,
				"z": -0.061621619,
				"element": "C" 
			},
			{
				"x": 0.1813818467,
				"y": -1.1117042281,
				"z": -0.7767883549,
				"element": "N" 
			},
			{
				"x": 1.5780113001,
				"y": -1.1701964106,
				"z": -0.6298782599,
				"element": "C" 
			},
			{
				"x": 2.1001435436,
				"y": -2.3941967266,
				"z": -0.742232203,
				"element": "N" 
			},
			{
				"x": 3.419041451,
				"y": -2.548656955,
				"z": -0.656407649,
				"element": "C" 
			},
			{
				"x": 4.2939000235,
				"y": -1.4815632231,
				"z": -0.4349911293,
				"element": "C" 
			},
			{
				"x": 3.7662828192,
				"y": -0.193838455,
				"z": -0.3791538792,
				"element": "C" 
			},
			{
				"x": 2.3914307581,
				"y": -0.0251823522,
				"z": -0.508471839,
				"element": "C" 
			},
			{
				"x": 1.740344838,
				"y": 1.591264349,
				"z": -0.6213600021,
				"element": "Cl" 
			},
			{
				"x": 5.7699033471,
				"y": -1.7171933706,
				"z": -0.2550246822,
				"element": "C" 
			},
			{
				"x": 6.1840830516,
				"y": -2.7910358833,
				"z": -0.9588489244,
				"element": "F" 
			},
			{
				"x": 6.4921147888,
				"y": -0.6510857706,
				"z": -0.6601760742,
				"element": "F" 
			},
			{
				"x": 6.0794110515,
				"y": -1.9422849113,
				"z": 1.038374436,
				"element": "F" 
			},
			{
				"x": -0.5715730358,
				"y": 0.0164378349,
				"z": 1.2743159399,
				"element": "C" 
			},
			{
				"x": -1.525051838,
				"y": 0.7615404029,
				"z": 1.9675470744,
				"element": "C" 
			},
			{
				"x": -1.2302674127,
				"y": 1.2278717672,
				"z": 3.612433381,
				"element": "Cl" 
			},
			{
				"x": -2.7532675411,
				"y": 1.0784482172,
				"z": 1.3539737851,
				"element": "C" 
			},
			{
				"x": -2.9878965669,
				"y": 0.6074869766,
				"z": 0.0729367626,
				"element": "C" 
			},
			{
				"x": -3.8275196718,
				"y": 1.8859508103,
				"z": 2.0511858884,
				"element": "C" 
			},
			{
				"x": -4.8844279396,
				"y": 2.0779783298,
				"z": 1.234720581,
				"element": "F" 
			},
			{
				"x": -3.3767483141,
				"y": 3.1002234499,
				"z": 2.4186415242,
				"element": "F" 
			},
			{
				"x": -4.2826883394,
				"y": 1.2663338096,
				"z": 3.1570148353,
				"element": "F" 
			},
			{
				"x": 0.6259969889,
				"y": -0.449677764,
				"z": 2.0111072158,
				"element": "N" 
			},
			{
				"x": 1.406333291,
				"y": 0.3919069174,
				"z": 2.4367412094,
				"element": "O" 
			},
			{
				"x": 0.7305573343,
				"y": -1.6653984301,
				"z": 2.1441405057,
				"element": "O" 
			},
			{
				"x": -0.2077688,
				"y": -1.6832323021,
				"z": -1.5241434042,
				"element": "H" 
			},
			{
				"x": 3.7976417695,
				"y": -3.5601029682,
				"z": -0.7717785386,
				"element": "H" 
			},
			{
				"x": 4.4122052859,
				"y": 0.6698805604,
				"z": -0.2741136494,
				"element": "H" 
			},
			{
				"x": -3.9253072553,
				"y": 0.8208830637,
				"z": -0.4218646678,
				"element": "H" 
			}
		],
		 "valence_orbital": [ 
			{
				"type": "occ",
				"energy": -0.31978,
				"method": "rhf"
			},
			{
				"type": "occ",
				"energy": -0.30319,
				"method": "rhf"
			},
			{
				"type": "occ",
				"energy": -0.30043,
				"method": "rhf"
			},
			{
				"type": "occ",
				"energy": -0.29706,
				"method": "rhf"
			},
			{
				"type": "occ",
				"energy": -0.26295,
				"method": "rhf"
			},
			{
				"type": "unocc",
				"energy": -0.12465,
				"method": "rhf"
			},
			{
				"type": "unocc",
				"energy": -0.10738,
				"method": "rhf"
			},
			{
				"type": "unocc",
				"energy": -0.07989,
				"method": "rhf"
			},
			{
				"type": "unocc",
				"energy": -0.06306,
				"method": "rhf"
			},
			{
				"type": "unocc",
				"energy": -0.04719,
				"method": "rhf"
			}
		],
		"cosmo_sigma_profile": { 
			"-0.025": 0.0,
			"-0.024": 0.0,
			"-0.023": 0.0,
			"-0.022": 0.0,
			"-0.021": 0.0,
			"-0.02": 0.0,
			"-0.019": 0.0,
			"-0.018": 0.0,
			"-0.017": 0.0,
			"-0.016": 0.0,
			"-0.015": 0.0,
			"-0.014": 0.0,
			"-0.013": 0.0,
			"-0.012": 0.0,
			"-0.011": 0.0342826699065,
			"-0.01": 1.6825682466,
			"-0.009": 4.59431518924,
			"-0.008": 8.17916296501,
			"-0.007": 9.67242327126,
			"-0.006": 15.4414711228,
			"-0.005": 18.3195050078,
			"-0.004": 25.4965893295,
			"-0.003": 26.4959038752,
			"-0.002": 27.2946561308,
			"-0.001": 24.2792116029,
			"0.0": 25.2549113098,
			"0.001": 32.4470403522,
			"0.002": 68.6359949709,
			"0.003": 26.172531995,
			"0.004": 9.21469871811,
			"0.005": 11.6093861061,
			"0.006": 17.2525979677,
			"0.007": 11.3103073141,
			"0.008": 7.18528766208,
			"0.009": 2.89687860852,
			"0.01": 0.66026632661,
			"0.011": 0.619147157066,
			"0.012": 0.820050189289,
			"0.013": 0.0931730945017,
			"0.014": 0.0,
			"0.015": 0.0,
			"0.016": 0.0,
			"0.017": 0.0,
			"0.018": 0.0,
			"0.019": 0.0,
			"0.02": 0.0,
			"0.021": 0.0,
			"0.022": 0.0,
			"0.023": 0.0,
			"0.024": 0.0,
			"0.025": 0.0
		}
	}
}
