{
	 "smiles": "CC(=O)C1=C(C=CC=C1)[N+]([O-])=O", 
	 "Tm": 301.65, 
	 "num_atms": 19, 
	 "gaussian": { 
		 "optdone": 1, 
		 "sigma_profile": "yes", 
		 "theory": "DFT", 
		 "functional": "B3LYP", 
		 "basiset": "6-31G**", 
		 "properties": { 
			 "R2extent": 2191.2144, 
			 "electric_dipole_moment_norm": 4.88161924058, 
			 "electric_quadrupole_moment_norm": 11.2144476551, 
			 "total_energy": -589.383598289, 
			 "HOMO_LUMO_gap": 0.15643, 
			 "cosmo_polarized_energy": -11.97, 
			 "cosmo_cavitation_energy": 24.04, 
			 "cosmo_dispersion_energy": -17.27, 
			 "cosmo_repulsion_energy": 1.38, 
			 "cosmo_total_nonelectrostatic_energy": 8.15, 
			 "SMD_solvation_energy": 6.94 
		},
		"coords": [
			{
				"x": 1.9255825484,
				"y": 2.1856763561,
				"z": -0.2002637097,
				"element": "C" 
			},
			{
				"x": 1.4252818853,
				"y": 1.5539489904,
				"z": 1.082791237,
				"element": "C" 
			},
			{
				"x": 1.6622636807,
				"y": 2.0244102417,
				"z": 2.1770771735,
				"element": "O" 
			},
			{
				"x": 0.4140923785,
				"y": 0.4214322315,
				"z": 0.9744813593,
				"element": "C" 
			},
			{
				"x": 0.6642239765,
				"y": -0.8685014494,
				"z": 0.4862776234,
				"element": "C" 
			},
			{
				"x": -0.3320344527,
				"y": -1.8413275357,
				"z": 0.3988458283,
				"element": "C" 
			},
			{
				"x": -1.6227363229,
				"y": -1.5300582022,
				"z": 0.8144884093,
				"element": "C" 
			},
			{
				"x": -1.897649075,
				"y": -0.2596250439,
				"z": 1.3263801113,
				"element": "C" 
			},
			{
				"x": -0.8876970786,
				"y": 0.698338361,
				"z": 1.4107581967,
				"element": "C" 
			},
			{
				"x": 2.02884946,
				"y": -1.2597163002,
				"z": 0.1015495381,
				"element": "N" 
			},
			{
				"x": 2.1836956902,
				"y": -2.3396593349,
				"z": -0.4637939403,
				"element": "O" 
			},
			{
				"x": 2.943248367,
				"y": -0.4805070845,
				"z": 0.3811617964,
				"element": "O" 
			},
			{
				"x": 2.1028987355,
				"y": 1.4572258141,
				"z": -0.9921800323,
				"element": "H" 
			},
			{
				"x": 1.158527999,
				"y": 2.8886068459,
				"z": -0.5508257394,
				"element": "H" 
			},
			{
				"x": 2.8387543467,
				"y": 2.7463260759,
				"z": 0.0062079246,
				"element": "H" 
			},
			{
				"x": -0.0721277371,
				"y": -2.8224644777,
				"z": 0.0217163638,
				"element": "H" 
			},
			{
				"x": -2.4048863793,
				"y": -2.2797060834,
				"z": 0.752809661,
				"element": "H" 
			},
			{
				"x": -2.8993286606,
				"y": -0.0152582501,
				"z": 1.6668270854,
				"element": "H" 
			},
			{
				"x": -1.0989593616,
				"y": 1.6815588454,
				"z": 1.8187911136,
				"element": "H" 
			}
		],
		 "valence_orbital": [ 
			{
				"type": "occ",
				"energy": -0.31756,
				"method": "rhf"
			},
			{
				"type": "occ",
				"energy": -0.30361,
				"method": "rhf"
			},
			{
				"type": "occ",
				"energy": -0.29013,
				"method": "rhf"
			},
			{
				"type": "occ",
				"energy": -0.28666,
				"method": "rhf"
			},
			{
				"type": "occ",
				"energy": -0.25645,
				"method": "rhf"
			},
			{
				"type": "unocc",
				"energy": -0.10002,
				"method": "rhf"
			},
			{
				"type": "unocc",
				"energy": -0.04585,
				"method": "rhf"
			},
			{
				"type": "unocc",
				"energy": -0.01826,
				"method": "rhf"
			},
			{
				"type": "unocc",
				"energy": -0.00111,
				"method": "rhf"
			},
			{
				"type": "unocc",
				"energy": 0.07151,
				"method": "rhf"
			}
		],
		"cosmo_sigma_profile": { 
			"-0.025": 0.0,
			"-0.024": 0.0,
			"-0.023": 0.0,
			"-0.022": 0.0,
			"-0.021": 0.0,
			"-0.02": 0.0,
			"-0.019": 0.0,
			"-0.018": 0.0,
			"-0.017": 0.0,
			"-0.016": 0.0,
			"-0.015": 0.0,
			"-0.014": 0.0,
			"-0.013": 0.0,
			"-0.012": 0.0,
			"-0.011": 0.0,
			"-0.01": 0.00942742961015,
			"-0.009": 0.656636109996,
			"-0.008": 5.26380711531,
			"-0.007": 13.7084606009,
			"-0.006": 15.4935734753,
			"-0.005": 12.0266804175,
			"-0.004": 13.0558287843,
			"-0.003": 12.864005119,
			"-0.002": 14.0477161854,
			"-0.001": 13.4567380423,
			"0.0": 14.2754272027,
			"0.001": 13.7676145042,
			"0.002": 9.6438536103,
			"0.003": 4.21227335658,
			"0.004": 3.97542394287,
			"0.005": 5.9251713649,
			"0.006": 7.65774406537,
			"0.007": 8.16293090483,
			"0.008": 6.82727734132,
			"0.009": 5.8872678662,
			"0.01": 3.78379761557,
			"0.011": 4.40975406792,
			"0.012": 3.02337403066,
			"0.013": 0.310442884878,
			"0.014": 0.0,
			"0.015": 0.0,
			"0.016": 0.0,
			"0.017": 0.0,
			"0.018": 0.0,
			"0.019": 0.0,
			"0.02": 0.0,
			"0.021": 0.0,
			"0.022": 0.0,
			"0.023": 0.0,
			"0.024": 0.0,
			"0.025": 0.0
		}
	}
}
