{
	 "smiles": "COC1=CC=C(C=C1)C1=NN(CC2=CC=CC=C2)C=C1C(O)=O", 
	 "Tm": 290.15, 
	 "num_atms": 39, 
	 "gaussian": { 
		 "optdone": 1, 
		 "sigma_profile": "yes", 
		 "theory": "DFT", 
		 "functional": "B3LYP", 
		 "basiset": "6-31G**", 
		 "properties": { 
			 "R2extent": 10511.8391, 
			 "electric_dipole_moment_norm": 4.10185466466, 
			 "electric_quadrupole_moment_norm": 38.9308647275, 
			 "total_energy": -1030.72220477, 
			 "HOMO_LUMO_gap": 0.19436, 
			 "cosmo_polarized_energy": -18.87, 
			 "cosmo_cavitation_energy": 44.03, 
			 "cosmo_dispersion_energy": -30.82, 
			 "cosmo_repulsion_energy": 2.35, 
			 "cosmo_total_nonelectrostatic_energy": 15.56, 
			 "SMD_solvation_energy": 8.36 
		},
		"coords": [
			{
				"x": 1.0328423254,
				"y": -6.1209520834,
				"z": 2.7580311042,
				"element": "C" 
			},
			{
				"x": -0.1737455416,
				"y": -5.5166913495,
				"z": 2.314645951,
				"element": "O" 
			},
			{
				"x": -0.0924362461,
				"y": -4.4705594531,
				"z": 1.4478138405,
				"element": "C" 
			},
			{
				"x": -1.3194970608,
				"y": -3.9171105697,
				"z": 1.0431389825,
				"element": "C" 
			},
			{
				"x": -1.3488711487,
				"y": -2.8547537253,
				"z": 0.1547426336,
				"element": "C" 
			},
			{
				"x": -0.1579985747,
				"y": -2.3053946179,
				"z": -0.3614893656,
				"element": "C" 
			},
			{
				"x": 1.059747343,
				"y": -2.8539030445,
				"z": 0.0669393312,
				"element": "C" 
			},
			{
				"x": 1.1016334279,
				"y": -3.9317971594,
				"z": 0.9564917695,
				"element": "C" 
			},
			{
				"x": -0.2141523839,
				"y": -1.1513193012,
				"z": -1.2818810831,
				"element": "C" 
			},
			{
				"x": -1.0774146606,
				"y": -0.1607789339,
				"z": -1.03420431,
				"element": "N" 
			},
			{
				"x": -0.9012006276,
				"y": 0.7340756388,
				"z": -2.0381374531,
				"element": "N" 
			},
			{
				"x": -1.6476708585,
				"y": 1.9916348257,
				"z": -2.0160785301,
				"element": "C" 
			},
			{
				"x": -0.9284885817,
				"y": 3.1146643895,
				"z": -1.2912319987,
				"element": "C" 
			},
			{
				"x": -0.5461359574,
				"y": 2.9649374458,
				"z": 0.0490247482,
				"element": "C" 
			},
			{
				"x": 0.1005098236,
				"y": 4.0049925928,
				"z": 0.7144236292,
				"element": "C" 
			},
			{
				"x": 0.3670451037,
				"y": 5.2069397493,
				"z": 0.0522847837,
				"element": "C" 
			},
			{
				"x": -0.0132627244,
				"y": 5.3626125551,
				"z": -1.2803688813,
				"element": "C" 
			},
			{
				"x": -0.6559711331,
				"y": 4.3179926913,
				"z": -1.9490960281,
				"element": "C" 
			},
			{
				"x": 0.0556438676,
				"y": 0.350964121,
				"z": -2.9049349603,
				"element": "C" 
			},
			{
				"x": 0.5298582654,
				"y": -0.8813224006,
				"z": -2.4753573332,
				"element": "C" 
			},
			{
				"x": 1.5144184197,
				"y": -1.6485360484,
				"z": -3.270340438,
				"element": "C" 
			},
			{
				"x": 1.7107512123,
				"y": -2.950528391,
				"z": -2.94121982,
				"element": "O" 
			},
			{
				"x": 2.11936523,
				"y": -1.1633003356,
				"z": -4.2019400015,
				"element": "O" 
			},
			{
				"x": 0.7356630831,
				"y": -6.9293018128,
				"z": 3.4274217,
				"element": "H" 
			},
			{
				"x": 1.6624254969,
				"y": -5.40994409,
				"z": 3.3078458129,
				"element": "H" 
			},
			{
				"x": 1.6071024631,
				"y": -6.5374481173,
				"z": 1.9208502779,
				"element": "H" 
			},
			{
				"x": -2.2343852755,
				"y": -4.346525614,
				"z": 1.438079834,
				"element": "H" 
			},
			{
				"x": -2.2983131492,
				"y": -2.4307108144,
				"z": -0.1545698294,
				"element": "H" 
			},
			{
				"x": 1.996315628,
				"y": -2.4231365078,
				"z": -0.274655791,
				"element": "H" 
			},
			{
				"x": 2.0628082376,
				"y": -4.3247114716,
				"z": 1.2649769855,
				"element": "H" 
			},
			{
				"x": -2.6014967886,
				"y": 1.7597940088,
				"z": -1.5348477597,
				"element": "H" 
			},
			{
				"x": -1.8522896448,
				"y": 2.2763867884,
				"z": -3.0517688455,
				"element": "H" 
			},
			{
				"x": -0.7500817347,
				"y": 2.0276419837,
				"z": 0.5587286884,
				"element": "H" 
			},
			{
				"x": 0.3954041874,
				"y": 3.8792717893,
				"z": 1.7522916096,
				"element": "H" 
			},
			{
				"x": 0.8695765596,
				"y": 6.0164217376,
				"z": 0.5737722911,
				"element": "H" 
			},
			{
				"x": 0.1929914654,
				"y": 6.2923287074,
				"z": -1.8026981732,
				"element": "H" 
			},
			{
				"x": -0.9478848509,
				"y": 4.4418912498,
				"z": -2.9894096566,
				"element": "H" 
			},
			{
				"x": 0.3369246024,
				"y": 0.9332795365,
				"z": -3.7694444773,
				"element": "H" 
			},
			{
				"x": 1.1293702008,
				"y": -3.2123039692,
				"z": -2.2090292374,
				"element": "H" 
			}
		],
		 "valence_orbital": [ 
			{
				"type": "occ",
				"energy": -0.25999,
				"method": "rhf"
			},
			{
				"type": "occ",
				"energy": -0.25773,
				"method": "rhf"
			},
			{
				"type": "occ",
				"energy": -0.25471,
				"method": "rhf"
			},
			{
				"type": "occ",
				"energy": -0.25226,
				"method": "rhf"
			},
			{
				"type": "occ",
				"energy": -0.22132,
				"method": "rhf"
			},
			{
				"type": "unocc",
				"energy": -0.02696,
				"method": "rhf"
			},
			{
				"type": "unocc",
				"energy": -0.01737,
				"method": "rhf"
			},
			{
				"type": "unocc",
				"energy": -0.01525,
				"method": "rhf"
			},
			{
				"type": "unocc",
				"energy": -0.01084,
				"method": "rhf"
			},
			{
				"type": "unocc",
				"energy": -0.00608,
				"method": "rhf"
			}
		],
		"cosmo_sigma_profile": { 
			"-0.025": 0.0,
			"-0.024": 0.0,
			"-0.023": 0.0,
			"-0.022": 0.0,
			"-0.021": 0.0,
			"-0.02": 0.0,
			"-0.019": 0.0,
			"-0.018": 0.0,
			"-0.017": 0.0,
			"-0.016": 0.0,
			"-0.015": 0.0,
			"-0.014": 0.0,
			"-0.013": 0.0,
			"-0.012": 0.401095683647,
			"-0.011": 0.981713417248,
			"-0.01": 2.62196060008,
			"-0.009": 3.20853328552,
			"-0.008": 4.50533642222,
			"-0.007": 10.0379888377,
			"-0.006": 24.3572764531,
			"-0.005": 30.8299861462,
			"-0.004": 30.9619164682,
			"-0.003": 28.0568927037,
			"-0.002": 20.0750171847,
			"-0.001": 17.9802746658,
			"0.0": 21.7162810185,
			"0.001": 24.3763380444,
			"0.002": 25.1925828572,
			"0.003": 22.0039534389,
			"0.004": 21.900385804,
			"0.005": 15.9162592638,
			"0.006": 10.3838715049,
			"0.007": 5.47688413931,
			"0.008": 4.64977844945,
			"0.009": 4.70096499524,
			"0.01": 5.6724779677,
			"0.011": 5.79464134386,
			"0.012": 6.64443656559,
			"0.013": 3.17695119365,
			"0.014": 0.766569166352,
			"0.015": 0.0,
			"0.016": 0.0,
			"0.017": 0.0,
			"0.018": 0.0,
			"0.019": 0.0,
			"0.02": 0.0,
			"0.021": 0.0,
			"0.022": 0.0,
			"0.023": 0.0,
			"0.024": 0.0,
			"0.025": 0.0
		}
	}
}
