{
	 "smiles": "O=C1NC(=S)SC1=C/C1=CC(C=C2/SC(=S)NC2=O)=CC=C1", 
	 "Tm": 589.15, 
	 "num_atms": 30, 
	 "gaussian": { 
		 "optdone": 1, 
		 "sigma_profile": "yes", 
		 "theory": "DFT", 
		 "functional": "B3LYP", 
		 "basiset": "6-31G**", 
		 "properties": { 
			 "R2extent": 17768.724, 
			 "electric_dipole_moment_norm": 0.034067286361, 
			 "electric_quadrupole_moment_norm": 19.3601853083, 
			 "total_energy": -2391.0293649, 
			 "HOMO_LUMO_gap": 0.12795, 
			 "cosmo_polarized_energy": -21.7, 
			 "cosmo_cavitation_energy": 43.58, 
			 "cosmo_dispersion_energy": -33.5, 
			 "cosmo_repulsion_energy": 2.34, 
			 "cosmo_total_nonelectrostatic_energy": 12.42, 
			 "SMD_solvation_energy": 6.14 
		},
		"coords": [
			{
				"x": -1.0178166547,
				"y": -4.4248941953,
				"z": 2.2323361081,
				"element": "O" 
			},
			{
				"x": 0.163351823,
				"y": -4.190595548,
				"z": 2.3935648107,
				"element": "C" 
			},
			{
				"x": 1.0340314289,
				"y": -5.0287199262,
				"z": 3.100019299,
				"element": "N" 
			},
			{
				"x": 2.3515802894,
				"y": -4.6824163716,
				"z": 3.2304667832,
				"element": "C" 
			},
			{
				"x": 3.5164713141,
				"y": -5.5299410794,
				"z": 4.0163838938,
				"element": "S" 
			},
			{
				"x": 2.6199876363,
				"y": -3.1304005446,
				"z": 2.3958675492,
				"element": "S" 
			},
			{
				"x": 0.9246074333,
				"y": -3.0075984704,
				"z": 1.897594385,
				"element": "C" 
			},
			{
				"x": 0.2824314758,
				"y": -2.055731045,
				"z": 1.1834259258,
				"element": "C" 
			},
			{
				"x": 0.7517570623,
				"y": -0.8159378844,
				"z": 0.5814401675,
				"element": "C" 
			},
			{
				"x": -0.1922198127,
				"y": -0.0319695542,
				"z": -0.1043384327,
				"element": "C" 
			},
			{
				"x": 0.1435018217,
				"y": 1.1839707504,
				"z": -0.7246414524,
				"element": "C" 
			},
			{
				"x": -0.922576895,
				"y": 1.9061521309,
				"z": -1.4040965175,
				"element": "C" 
			},
			{
				"x": -0.9264785977,
				"y": 3.0784223206,
				"z": -2.0780602001,
				"element": "C" 
			},
			{
				"x": 0.3831058352,
				"y": 4.2241404527,
				"z": -2.4096889382,
				"element": "S" 
			},
			{
				"x": -0.6924268178,
				"y": 5.3254696474,
				"z": -3.308403159,
				"element": "C" 
			},
			{
				"x": -0.2142625824,
				"y": 6.7356169043,
				"z": -3.9981528711,
				"element": "S" 
			},
			{
				"x": -1.9541877027,
				"y": 4.7956110899,
				"z": -3.3181284001,
				"element": "N" 
			},
			{
				"x": -2.1985361092,
				"y": 3.5745692658,
				"z": -2.6786415717,
				"element": "C" 
			},
			{
				"x": -3.2876259795,
				"y": 3.0374163262,
				"z": -2.6411778935,
				"element": "O" 
			},
			{
				"x": 1.4833326868,
				"y": 1.6172973861,
				"z": -0.646052968,
				"element": "C" 
			},
			{
				"x": 2.4319741924,
				"y": 0.8530984548,
				"z": 0.0287677008,
				"element": "C" 
			},
			{
				"x": 2.0813931412,
				"y": -0.3490703411,
				"z": 0.6380158802,
				"element": "C" 
			},
			{
				"x": 0.6912415396,
				"y": -5.8879416266,
				"z": 3.5131235637,
				"element": "H" 
			},
			{
				"x": -0.775665604,
				"y": -2.2746291861,
				"z": 1.0451858319,
				"element": "H" 
			},
			{
				"x": -1.2208061776,
				"y": -0.3789684111,
				"z": -0.1566460758,
				"element": "H" 
			},
			{
				"x": -1.9034127623,
				"y": 1.4331319463,
				"z": -1.3757113938,
				"element": "H" 
			},
			{
				"x": -2.7073722282,
				"y": 5.2855240787,
				"z": -3.7862326728,
				"element": "H" 
			},
			{
				"x": 1.7949095567,
				"y": 2.5467690272,
				"z": -1.1076530808,
				"element": "H" 
			},
			{
				"x": 3.4593927316,
				"y": 1.1993598336,
				"z": 0.080491781,
				"element": "H" 
			},
			{
				"x": 2.8480179556,
				"y": -0.9156354309,
				"z": 1.1531419475,
				"element": "H" 
			}
		],
		 "valence_orbital": [ 
			{
				"type": "occ",
				"energy": -0.2769,
				"method": "rhf"
			},
			{
				"type": "occ",
				"energy": -0.24535,
				"method": "rhf"
			},
			{
				"type": "occ",
				"energy": -0.2452,
				"method": "rhf"
			},
			{
				"type": "occ",
				"energy": -0.2451,
				"method": "rhf"
			},
			{
				"type": "occ",
				"energy": -0.24146,
				"method": "rhf"
			},
			{
				"type": "unocc",
				"energy": -0.11351,
				"method": "rhf"
			},
			{
				"type": "unocc",
				"energy": -0.10248,
				"method": "rhf"
			},
			{
				"type": "unocc",
				"energy": -0.05599,
				"method": "rhf"
			},
			{
				"type": "unocc",
				"energy": -0.05316,
				"method": "rhf"
			},
			{
				"type": "unocc",
				"energy": -0.01674,
				"method": "rhf"
			}
		],
		"cosmo_sigma_profile": { 
			"-0.025": 0.0,
			"-0.024": 0.0,
			"-0.023": 0.0,
			"-0.022": 0.0,
			"-0.021": 0.0,
			"-0.02": 0.0,
			"-0.019": 0.0,
			"-0.018": 0.299569285694,
			"-0.017": 2.67921314088,
			"-0.016": 1.44480281225,
			"-0.015": 1.73598501685,
			"-0.014": 1.82633587131,
			"-0.013": 1.72757888721,
			"-0.012": 1.77950540543,
			"-0.011": 1.67035369126,
			"-0.01": 2.58863870266,
			"-0.009": 6.15085105742,
			"-0.008": 6.97180704522,
			"-0.007": 12.6060635914,
			"-0.006": 14.1638695308,
			"-0.005": 16.039851324,
			"-0.004": 19.4779672896,
			"-0.003": 19.9107042852,
			"-0.002": 19.9878413957,
			"-0.001": 29.7431285828,
			"0.0": 34.0950700112,
			"0.001": 34.7288384515,
			"0.002": 26.2626589223,
			"0.003": 15.6064625876,
			"0.004": 12.348918412,
			"0.005": 16.4773447261,
			"0.006": 14.8561756159,
			"0.007": 11.7224984609,
			"0.008": 9.88072388519,
			"0.009": 8.29324920983,
			"0.01": 6.64613333294,
			"0.011": 9.79921138774,
			"0.012": 0.982769080084,
			"0.013": 0.0,
			"0.014": 0.0,
			"0.015": 0.0,
			"0.016": 0.0,
			"0.017": 0.0,
			"0.018": 0.0,
			"0.019": 0.0,
			"0.02": 0.0,
			"0.021": 0.0,
			"0.022": 0.0,
			"0.023": 0.0,
			"0.024": 0.0,
			"0.025": 0.0
		}
	}
}
