{
	 "smiles": "CN(C)C(=O)SC1=CN2C(=NC(C#N)=C2C#N)N=C1", 
	 "Tm": 454.15, 
	 "num_atms": 27, 
	 "gaussian": { 
		 "optdone": 1, 
		 "sigma_profile": "yes", 
		 "theory": "DFT", 
		 "functional": "B3LYP", 
		 "basiset": "6-31G**", 
		 "properties": { 
			 "R2extent": 7514.2976, 
			 "electric_dipole_moment_norm": 11.4174458138, 
			 "electric_quadrupole_moment_norm": 16.3625072012, 
			 "total_energy": -1225.85892806, 
			 "HOMO_LUMO_gap": 0.16757, 
			 "cosmo_polarized_energy": -22.41, 
			 "cosmo_cavitation_energy": 36.66, 
			 "cosmo_dispersion_energy": -25.57, 
			 "cosmo_repulsion_energy": 1.91, 
			 "cosmo_total_nonelectrostatic_energy": 13.0, 
			 "SMD_solvation_energy": 6.29 
		},
		"coords": [
			{
				"x": -2.5270976161,
				"y": -1.7095805833,
				"z": -3.4325790874,
				"element": "C" 
			},
			{
				"x": -1.67632278,
				"y": -0.5269435528,
				"z": -3.447251312,
				"element": "N" 
			},
			{
				"x": -1.9641033162,
				"y": 0.4679963798,
				"z": -4.4804952671,
				"element": "C" 
			},
			{
				"x": -0.7694538507,
				"y": -0.2100279118,
				"z": -2.4869544706,
				"element": "C" 
			},
			{
				"x": -0.0970277739,
				"y": 0.8019731869,
				"z": -2.4522019375,
				"element": "O" 
			},
			{
				"x": -0.5859821121,
				"y": -1.5011308646,
				"z": -1.1589576419,
				"element": "S" 
			},
			{
				"x": 0.644989964,
				"y": -0.6749767166,
				"z": -0.183020488,
				"element": "C" 
			},
			{
				"x": 0.3745958357,
				"y": -0.382012141,
				"z": 1.1275960374,
				"element": "C" 
			},
			{
				"x": 1.3778464011,
				"y": 0.1718230565,
				"z": 1.8720710669,
				"element": "N" 
			},
			{
				"x": 2.6413808993,
				"y": 0.4559676796,
				"z": 1.3072724014,
				"element": "C" 
			},
			{
				"x": 3.4580805107,
				"y": 0.995576107,
				"z": 2.2073744171,
				"element": "N" 
			},
			{
				"x": 2.7361804584,
				"y": 1.0678071545,
				"z": 3.3527790308,
				"element": "C" 
			},
			{
				"x": 3.2733870367,
				"y": 1.5988805929,
				"z": 4.5635773683,
				"element": "C" 
			},
			{
				"x": 3.6925867564,
				"y": 2.0268498165,
				"z": 5.5593077924,
				"element": "N" 
			},
			{
				"x": 1.4348291206,
				"y": 0.5680036224,
				"z": 3.1977557473,
				"element": "C" 
			},
			{
				"x": 0.3458826506,
				"y": 0.437599448,
				"z": 4.0813941407,
				"element": "C" 
			},
			{
				"x": -0.5766649692,
				"y": 0.3125477867,
				"z": 4.782412963,
				"element": "N" 
			},
			{
				"x": 2.9051181064,
				"y": 0.1802138197,
				"z": 0.0184054082,
				"element": "N" 
			},
			{
				"x": 1.9482183448,
				"y": -0.3654330777,
				"z": -0.696162381,
				"element": "C" 
			},
			{
				"x": -2.6726224373,
				"y": -2.0508253763,
				"z": -4.4616249941,
				"element": "H" 
			},
			{
				"x": -3.5101406553,
				"y": -1.4981580333,
				"z": -2.993298821,
				"element": "H" 
			},
			{
				"x": -2.0606585152,
				"y": -2.5262335784,
				"z": -2.8799036648,
				"element": "H" 
			},
			{
				"x": -1.8622910246,
				"y": 0.0134943105,
				"z": -5.4716624949,
				"element": "H" 
			},
			{
				"x": -2.986238591,
				"y": 0.8502561891,
				"z": -4.3719014389,
				"element": "H" 
			},
			{
				"x": -1.2590037798,
				"y": 1.2907461353,
				"z": -4.3811773679,
				"element": "H" 
			},
			{
				"x": -0.5751794933,
				"y": -0.5587052889,
				"z": 1.6186524093,
				"element": "H" 
			},
			{
				"x": 2.1708908303,
				"y": -0.5876081606,
				"z": -1.7353074159,
				"element": "H" 
			}
		],
		 "valence_orbital": [ 
			{
				"type": "occ",
				"energy": -0.30316,
				"method": "rhf"
			},
			{
				"type": "occ",
				"energy": -0.28981,
				"method": "rhf"
			},
			{
				"type": "occ",
				"energy": -0.28103,
				"method": "rhf"
			},
			{
				"type": "occ",
				"energy": -0.27054,
				"method": "rhf"
			},
			{
				"type": "occ",
				"energy": -0.262,
				"method": "rhf"
			},
			{
				"type": "unocc",
				"energy": -0.09443,
				"method": "rhf"
			},
			{
				"type": "unocc",
				"energy": -0.07988,
				"method": "rhf"
			},
			{
				"type": "unocc",
				"energy": -0.03392,
				"method": "rhf"
			},
			{
				"type": "unocc",
				"energy": -0.01573,
				"method": "rhf"
			},
			{
				"type": "unocc",
				"energy": -0.00141,
				"method": "rhf"
			}
		],
		"cosmo_sigma_profile": { 
			"-0.025": 0.0,
			"-0.024": 0.0,
			"-0.023": 0.0,
			"-0.022": 0.0,
			"-0.021": 0.0,
			"-0.02": 0.0,
			"-0.019": 0.0,
			"-0.018": 0.0,
			"-0.017": 0.0,
			"-0.016": 0.0,
			"-0.015": 0.0,
			"-0.014": 0.0,
			"-0.013": 0.0,
			"-0.012": 1.01008806481,
			"-0.011": 1.91759236787,
			"-0.01": 3.05519787628,
			"-0.009": 5.31939639343,
			"-0.008": 7.80373688234,
			"-0.007": 10.3643606734,
			"-0.006": 18.0460118262,
			"-0.005": 27.0720621753,
			"-0.004": 27.7293005908,
			"-0.003": 27.5632276913,
			"-0.002": 19.5054888631,
			"-0.001": 15.1661100995,
			"0.0": 13.4495659557,
			"0.001": 13.548863129,
			"0.002": 12.1588741817,
			"0.003": 10.7103783902,
			"0.004": 11.5997797432,
			"0.005": 9.28713420953,
			"0.006": 10.115002685,
			"0.007": 9.81455093359,
			"0.008": 9.76735429065,
			"0.009": 8.99862342141,
			"0.01": 10.283571991,
			"0.011": 8.82452985701,
			"0.012": 4.95750580421,
			"0.013": 1.41203487317,
			"0.014": 0.170430161146,
			"0.015": 0.0,
			"0.016": 0.0,
			"0.017": 0.0,
			"0.018": 0.0,
			"0.019": 0.0,
			"0.02": 0.0,
			"0.021": 0.0,
			"0.022": 0.0,
			"0.023": 0.0,
			"0.024": 0.0,
			"0.025": 0.0
		}
	}
}
