{
	 "smiles": "OCC1=CC(OCCN2CCOCC2)=CC=C1", 
	 "Tm": 330.65, 
	 "num_atms": 36, 
	 "gaussian": { 
		 "optdone": 1, 
		 "sigma_profile": "yes", 
		 "theory": "DFT", 
		 "functional": "B3LYP", 
		 "basiset": "6-31G**", 
		 "properties": { 
			 "R2extent": 6844.8256, 
			 "electric_dipole_moment_norm": 1.72097235597, 
			 "electric_quadrupole_moment_norm": 16.2816850525, 
			 "total_energy": -787.208619737, 
			 "HOMO_LUMO_gap": 0.199, 
			 "cosmo_polarized_energy": -13.64, 
			 "cosmo_cavitation_energy": 37.37, 
			 "cosmo_dispersion_energy": -26.91, 
			 "cosmo_repulsion_energy": 2.11, 
			 "cosmo_total_nonelectrostatic_energy": 12.57, 
			 "SMD_solvation_energy": 3.98 
		},
		"coords": [
			{
				"x": 2.2991598587,
				"y": -0.7657797523,
				"z": 5.7813792649,
				"element": "O" 
			},
			{
				"x": 2.8492464964,
				"y": -0.8741234291,
				"z": 4.4760848322,
				"element": "C" 
			},
			{
				"x": 2.0332287602,
				"y": -0.1686976944,
				"z": 3.4085121647,
				"element": "C" 
			},
			{
				"x": 2.0328417035,
				"y": -0.6444614498,
				"z": 2.0985417644,
				"element": "C" 
			},
			{
				"x": 1.3148287098,
				"y": 0.0178575606,
				"z": 1.0920391629,
				"element": "C" 
			},
			{
				"x": 1.4095370422,
				"y": -0.5413915833,
				"z": -0.1521839,
				"element": "O" 
			},
			{
				"x": 0.7217086572,
				"y": 0.0409507442,
				"z": -1.258700061,
				"element": "C" 
			},
			{
				"x": -0.7406691958,
				"y": -0.4205522879,
				"z": -1.3337991904,
				"element": "C" 
			},
			{
				"x": -1.3824550226,
				"y": 0.1494227853,
				"z": -2.5208918896,
				"element": "N" 
			},
			{
				"x": -1.9868853588,
				"y": 1.4729537657,
				"z": -2.3104114723,
				"element": "C" 
			},
			{
				"x": -3.3706373333,
				"y": 1.3928489139,
				"z": -1.6544264165,
				"element": "C" 
			},
			{
				"x": -4.2404646957,
				"y": 0.5544998544,
				"z": -2.4076294722,
				"element": "O" 
			},
			{
				"x": -3.711452729,
				"y": -0.7620364141,
				"z": -2.5338397209,
				"element": "C" 
			},
			{
				"x": -2.3375502771,
				"y": -0.7266324417,
				"z": -3.2107063194,
				"element": "C" 
			},
			{
				"x": 0.5767654276,
				"y": 1.1649463496,
				"z": 1.4099504856,
				"element": "C" 
			},
			{
				"x": 0.5766235797,
				"y": 1.6332151964,
				"z": 2.7274873827,
				"element": "C" 
			},
			{
				"x": 1.2957980991,
				"y": 0.9818363017,
				"z": 3.7253368593,
				"element": "C" 
			},
			{
				"x": 1.3987571973,
				"y": -1.1154440074,
				"z": 5.7445310393,
				"element": "H" 
			},
			{
				"x": 3.0032933196,
				"y": -1.9259238748,
				"z": 4.1873417629,
				"element": "H" 
			},
			{
				"x": 3.8440581758,
				"y": -0.4178691756,
				"z": 4.5474341667,
				"element": "H" 
			},
			{
				"x": 2.587919417,
				"y": -1.5380390812,
				"z": 1.8264225525,
				"element": "H" 
			},
			{
				"x": 0.8006592741,
				"y": 1.1347379977,
				"z": -1.2369120161,
				"element": "H" 
			},
			{
				"x": 1.2507360493,
				"y": -0.307307641,
				"z": -2.1487954273,
				"element": "H" 
			},
			{
				"x": -0.7393149839,
				"y": -1.5121112593,
				"z": -1.4155240154,
				"element": "H" 
			},
			{
				"x": -1.2558798951,
				"y": -0.182687927,
				"z": -0.3898258786,
				"element": "H" 
			},
			{
				"x": -1.3133985671,
				"y": 2.0944076649,
				"z": -1.7095085158,
				"element": "H" 
			},
			{
				"x": -2.0919117992,
				"y": 1.9596730252,
				"z": -3.2887823798,
				"element": "H" 
			},
			{
				"x": -3.2876352647,
				"y": 1.016597058,
				"z": -0.6202441092,
				"element": "H" 
			},
			{
				"x": -3.8439909961,
				"y": 2.379301581,
				"z": -1.6171097037,
				"element": "H" 
			},
			{
				"x": -3.6397426476,
				"y": -1.2387069775,
				"z": -1.5406964756,
				"element": "H" 
			},
			{
				"x": -4.4317993652,
				"y": -1.3296642023,
				"z": -3.1318395877,
				"element": "H" 
			},
			{
				"x": -1.9155847177,
				"y": -1.7346853794,
				"z": -3.2869463641,
				"element": "H" 
			},
			{
				"x": -2.4673162955,
				"y": -0.3440868315,
				"z": -4.2320325331,
				"element": "H" 
			},
			{
				"x": 0.0018615995,
				"y": 1.6904150215,
				"z": 0.6569869561,
				"element": "H" 
			},
			{
				"x": 0.001106474,
				"y": 2.522719999,
				"z": 2.9694701909,
				"element": "H" 
			},
			{
				"x": 1.2916593034,
				"y": 1.3461175905,
				"z": 4.7470868635,
				"element": "H" 
			}
		],
		 "valence_orbital": [ 
			{
				"type": "occ",
				"energy": -0.27454,
				"method": "rhf"
			},
			{
				"type": "occ",
				"energy": -0.27333,
				"method": "rhf"
			},
			{
				"type": "occ",
				"energy": -0.24399,
				"method": "rhf"
			},
			{
				"type": "occ",
				"energy": -0.2201,
				"method": "rhf"
			},
			{
				"type": "occ",
				"energy": -0.20355,
				"method": "rhf"
			},
			{
				"type": "unocc",
				"energy": -0.00455,
				"method": "rhf"
			},
			{
				"type": "unocc",
				"energy": 0.01138,
				"method": "rhf"
			},
			{
				"type": "unocc",
				"energy": 0.0592,
				"method": "rhf"
			},
			{
				"type": "unocc",
				"energy": 0.08926,
				"method": "rhf"
			},
			{
				"type": "unocc",
				"energy": 0.09402,
				"method": "rhf"
			}
		],
		"cosmo_sigma_profile": { 
			"-0.025": 0.0,
			"-0.024": 0.0,
			"-0.023": 0.0,
			"-0.022": 0.0,
			"-0.021": 0.0,
			"-0.02": 0.0,
			"-0.019": 0.0,
			"-0.018": 0.0,
			"-0.017": 0.0,
			"-0.016": 0.128313504788,
			"-0.015": 0.750690421441,
			"-0.014": 0.685923430123,
			"-0.013": 1.31560608202,
			"-0.012": 0.531902719367,
			"-0.011": 0.805219982639,
			"-0.01": 0.629478173927,
			"-0.009": 0.859736018367,
			"-0.008": 1.78566893738,
			"-0.007": 2.88714192518,
			"-0.006": 5.84121566453,
			"-0.005": 21.507486166,
			"-0.004": 35.5665781992,
			"-0.003": 40.6081660822,
			"-0.002": 31.3302082893,
			"-0.001": 22.5690157946,
			"0.0": 17.1141948824,
			"0.001": 13.0324412764,
			"0.002": 11.3981939484,
			"0.003": 11.1182771071,
			"0.004": 13.8181162355,
			"0.005": 14.1647251446,
			"0.006": 12.0598815821,
			"0.007": 4.7166051746,
			"0.008": 4.73212019641,
			"0.009": 3.5949178296,
			"0.01": 4.27183245517,
			"0.011": 3.30267993656,
			"0.012": 3.68724393825,
			"0.013": 3.22825874057,
			"0.014": 3.80190833486,
			"0.015": 0.205132223406,
			"0.016": 0.0,
			"0.017": 0.0,
			"0.018": 0.0,
			"0.019": 0.0,
			"0.02": 0.0,
			"0.021": 0.0,
			"0.022": 0.0,
			"0.023": 0.0,
			"0.024": 0.0,
			"0.025": 0.0
		}
	}
}
