{
	 "smiles": "CC(C)(CO)NC1=NC=C(Br)C=C1", 
	 "Tm": 377.15, 
	 "num_atms": 26, 
	 "gaussian": { 
		 "optdone": 1, 
		 "sigma_profile": "yes", 
		 "theory": "DFT", 
		 "functional": "B3LYP", 
		 "basiset": "6-31G**", 
		 "properties": { 
			 "R2extent": 6397.9603, 
			 "electric_dipole_moment_norm": 4.34502512536, 
			 "electric_quadrupole_moment_norm": 5.34160217538, 
			 "total_energy": -3106.92929016, 
			 "HOMO_LUMO_gap": 0.17746, 
			 "cosmo_polarized_energy": -11.34, 
			 "cosmo_cavitation_energy": 30.28, 
			 "cosmo_dispersion_energy": -22.3, 
			 "cosmo_repulsion_energy": 1.75, 
			 "cosmo_total_nonelectrostatic_energy": 9.73, 
			 "SMD_solvation_energy": 3.49 
		},
		"coords": [
			{
				"x": 0.0800883372,
				"y": 2.0520811424,
				"z": 2.539667038,
				"element": "C" 
			},
			{
				"x": 0.7656408926,
				"y": 0.8028843276,
				"z": 1.9602041269,
				"element": "C" 
			},
			{
				"x": 2.2075036726,
				"y": 0.6892909218,
				"z": 2.4825990157,
				"element": "C" 
			},
			{
				"x": -0.0732079117,
				"y": -0.4375148657,
				"z": 2.3884249609,
				"element": "C" 
			},
			{
				"x": 0.5973306799,
				"y": -1.6689708474,
				"z": 2.3294345128,
				"element": "O" 
			},
			{
				"x": 0.7478830207,
				"y": 1.0065740452,
				"z": 0.4867522365,
				"element": "N" 
			},
			{
				"x": 1.225551404,
				"y": 0.1879053398,
				"z": -0.5039938742,
				"element": "C" 
			},
			{
				"x": 1.4367191679,
				"y": -1.1166432289,
				"z": -0.2482820982,
				"element": "N" 
			},
			{
				"x": 1.8688184914,
				"y": -1.918114685,
				"z": -1.2330966545,
				"element": "C" 
			},
			{
				"x": 2.105555582,
				"y": -1.467959667,
				"z": -2.5221486728,
				"element": "C" 
			},
			{
				"x": 2.7137480152,
				"y": -2.6700911091,
				"z": -3.8697163099,
				"element": "Br" 
			},
			{
				"x": 1.8884659301,
				"y": -0.1141930434,
				"z": -2.810333547,
				"element": "C" 
			},
			{
				"x": 1.4511575413,
				"y": 0.7202426318,
				"z": -1.8010899718,
				"element": "C" 
			},
			{
				"x": 0.1076211548,
				"y": 2.0278773061,
				"z": 3.6317340483,
				"element": "H" 
			},
			{
				"x": 0.5891574186,
				"y": 2.9688628977,
				"z": 2.2181395641,
				"element": "H" 
			},
			{
				"x": -0.9665899049,
				"y": 2.1101058871,
				"z": 2.2218788074,
				"element": "H" 
			},
			{
				"x": 2.7109653067,
				"y": -0.1775224356,
				"z": 2.0523940644,
				"element": "H" 
			},
			{
				"x": 2.2082062233,
				"y": 0.5639632886,
				"z": 3.5698833501,
				"element": "H" 
			},
			{
				"x": 2.7778751677,
				"y": 1.5914315119,
				"z": 2.2366187357,
				"element": "H" 
			},
			{
				"x": -1.003182017,
				"y": -0.4307343724,
				"z": 1.7944175675,
				"element": "H" 
			},
			{
				"x": -0.3571078743,
				"y": -0.2924814424,
				"z": 3.4374464231,
				"element": "H" 
			},
			{
				"x": 0.9293833924,
				"y": -1.7395539243,
				"z": 1.4094494049,
				"element": "H" 
			},
			{
				"x": 0.7088125111,
				"y": 1.9788805176,
				"z": 0.2162942839,
				"element": "H" 
			},
			{
				"x": 2.0259061002,
				"y": -2.9611436918,
				"z": -0.9726706547,
				"element": "H" 
			},
			{
				"x": 2.0672779668,
				"y": 0.2710118591,
				"z": -3.8083419723,
				"element": "H" 
			},
			{
				"x": 1.2820197314,
				"y": 1.7753116364,
				"z": -1.9955643847,
				"element": "H" 
			}
		],
		 "valence_orbital": [ 
			{
				"type": "occ",
				"energy": -0.29451,
				"method": "rhf"
			},
			{
				"type": "occ",
				"energy": -0.28438,
				"method": "rhf"
			},
			{
				"type": "occ",
				"energy": -0.27072,
				"method": "rhf"
			},
			{
				"type": "occ",
				"energy": -0.24322,
				"method": "rhf"
			},
			{
				"type": "occ",
				"energy": -0.21446,
				"method": "rhf"
			},
			{
				"type": "unocc",
				"energy": -0.037,
				"method": "rhf"
			},
			{
				"type": "unocc",
				"energy": -0.0091,
				"method": "rhf"
			},
			{
				"type": "unocc",
				"energy": 0.00387,
				"method": "rhf"
			},
			{
				"type": "unocc",
				"energy": 0.06494,
				"method": "rhf"
			},
			{
				"type": "unocc",
				"energy": 0.10097,
				"method": "rhf"
			}
		],
		"cosmo_sigma_profile": { 
			"-0.025": 0.0,
			"-0.024": 0.0,
			"-0.023": 0.0,
			"-0.022": 0.0,
			"-0.021": 0.0,
			"-0.02": 0.0,
			"-0.019": 0.0,
			"-0.018": 0.0,
			"-0.017": 0.0,
			"-0.016": 0.0,
			"-0.015": 0.0,
			"-0.014": 0.151100412124,
			"-0.013": 0.910864331551,
			"-0.012": 1.59496723552,
			"-0.011": 1.38997013453,
			"-0.01": 1.32664253954,
			"-0.009": 1.82006803003,
			"-0.008": 3.77195993316,
			"-0.007": 6.09615066227,
			"-0.006": 6.53708086879,
			"-0.005": 7.91458949979,
			"-0.004": 14.6098503196,
			"-0.003": 20.6683016305,
			"-0.002": 21.409511489,
			"-0.001": 22.176225387,
			"0.0": 21.4072057364,
			"0.001": 28.269089173,
			"0.002": 25.6571845399,
			"0.003": 16.0699852197,
			"0.004": 14.6791782596,
			"0.005": 9.10676693047,
			"0.006": 1.68686545911,
			"0.007": 1.11600856226,
			"0.008": 1.66588849517,
			"0.009": 1.69300554681,
			"0.01": 0.825112397724,
			"0.011": 1.24679629089,
			"0.012": 1.3122525266,
			"0.013": 1.4639250504,
			"0.014": 1.46992737144,
			"0.015": 2.20908386819,
			"0.016": 1.48605417098,
			"0.017": 0.0,
			"0.018": 0.0,
			"0.019": 0.0,
			"0.02": 0.0,
			"0.021": 0.0,
			"0.022": 0.0,
			"0.023": 0.0,
			"0.024": 0.0,
			"0.025": 0.0
		}
	}
}
