{
	 "smiles": "CN1CCN(CC1)C1=CC(C)=C(N)C=C1", 
	 "Tm": 374.15, 
	 "num_atms": 34, 
	 "gaussian": { 
		 "optdone": 1, 
		 "sigma_profile": "yes", 
		 "theory": "DFT", 
		 "functional": "B3LYP", 
		 "basiset": "6-31G**", 
		 "properties": { 
			 "R2extent": 4571.6135, 
			 "electric_dipole_moment_norm": 1.04311108709, 
			 "electric_quadrupole_moment_norm": 12.2740980797, 
			 "total_energy": -632.965923562, 
			 "HOMO_LUMO_gap": 0.1747, 
			 "cosmo_polarized_energy": -10.36, 
			 "cosmo_cavitation_energy": 34.03, 
			 "cosmo_dispersion_energy": -25.09, 
			 "cosmo_repulsion_energy": 1.95, 
			 "cosmo_total_nonelectrostatic_energy": 10.9, 
			 "SMD_solvation_energy": 1.85 
		},
		"coords": [
			{
				"x": -0.9104878839,
				"y": 2.9005770141,
				"z": -3.8918371816,
				"element": "C" 
			},
			{
				"x": -0.0122878426,
				"y": 1.9512162388,
				"z": -3.2554169428,
				"element": "N" 
			},
			{
				"x": -0.5547325457,
				"y": 0.5913309266,
				"z": -3.290714456,
				"element": "C" 
			},
			{
				"x": 0.1404429383,
				"y": -0.3190793179,
				"z": -2.2803107598,
				"element": "C" 
			},
			{
				"x": -0.0894302106,
				"y": 0.169532756,
				"z": -0.9284785567,
				"element": "N" 
			},
			{
				"x": -0.2643777545,
				"y": 1.6079008697,
				"z": -0.768971093,
				"element": "C" 
			},
			{
				"x": 0.4428268756,
				"y": 2.3474109509,
				"z": -1.9134269966,
				"element": "C" 
			},
			{
				"x": 0.0158745642,
				"y": -0.6805603683,
				"z": 0.1732721702,
				"element": "C" 
			},
			{
				"x": -0.468202565,
				"y": -0.2974494938,
				"z": 1.4412464368,
				"element": "C" 
			},
			{
				"x": -0.382126307,
				"y": -1.1272886762,
				"z": 2.5605073337,
				"element": "C" 
			},
			{
				"x": -0.9345298814,
				"y": -0.6809949913,
				"z": 3.8921454531,
				"element": "C" 
			},
			{
				"x": 0.2061131227,
				"y": -2.4030273886,
				"z": 2.435309024,
				"element": "C" 
			},
			{
				"x": 0.2421020976,
				"y": -3.2848461609,
				"z": 3.538152048,
				"element": "N" 
			},
			{
				"x": 0.6828448861,
				"y": -2.7946915381,
				"z": 1.1801696428,
				"element": "C" 
			},
			{
				"x": 0.5954658073,
				"y": -1.9593898903,
				"z": 0.0686679662,
				"element": "C" 
			},
			{
				"x": -1.1092899483,
				"y": 2.5797110709,
				"z": -4.9206532862,
				"element": "H" 
			},
			{
				"x": -1.8894504583,
				"y": 3.005080386,
				"z": -3.3834891288,
				"element": "H" 
			},
			{
				"x": -0.4420153791,
				"y": 3.888591794,
				"z": -3.9387703954,
				"element": "H" 
			},
			{
				"x": -0.430647044,
				"y": 0.1785894169,
				"z": -4.3005039342,
				"element": "H" 
			},
			{
				"x": -1.6396331334,
				"y": 0.5767642614,
				"z": -3.0695877034,
				"element": "H" 
			},
			{
				"x": 1.2137217112,
				"y": -0.3961207942,
				"z": -2.5282588378,
				"element": "H" 
			},
			{
				"x": -0.2831683407,
				"y": -1.3251879631,
				"z": -2.3741077352,
				"element": "H" 
			},
			{
				"x": -1.3292683703,
				"y": 1.8948771672,
				"z": -0.7305846449,
				"element": "H" 
			},
			{
				"x": 0.1845303399,
				"y": 1.9250636658,
				"z": 0.1794578989,
				"element": "H" 
			},
			{
				"x": 0.299754878,
				"y": 3.4257673246,
				"z": -1.7898013688,
				"element": "H" 
			},
			{
				"x": 1.5214830336,
				"y": 2.1581962266,
				"z": -1.8239323749,
				"element": "H" 
			},
			{
				"x": -0.9558547716,
				"y": 0.6647035436,
				"z": 1.5611015591,
				"element": "H" 
			},
			{
				"x": -1.6515691851,
				"y": -1.4099290737,
				"z": 4.2888912377,
				"element": "H" 
			},
			{
				"x": -0.1445908647,
				"y": -0.5679433035,
				"z": 4.6491203663,
				"element": "H" 
			},
			{
				"x": -1.4403610438,
				"y": 0.2844313014,
				"z": 3.808899509,
				"element": "H" 
			},
			{
				"x": 0.4288311179,
				"y": -2.8261991472,
				"z": 4.4218178367,
				"element": "H" 
			},
			{
				"x": 0.8914145962,
				"y": -4.0508981539,
				"z": 3.4073948999,
				"element": "H" 
			},
			{
				"x": 1.1431178149,
				"y": -3.7745362583,
				"z": 1.0682351537,
				"element": "H" 
			},
			{
				"x": 1.0092997465,
				"y": -2.3015023952,
				"z": -0.8730431401,
				"element": "H" 
			}
		],
		 "valence_orbital": [ 
			{
				"type": "occ",
				"energy": -0.30164,
				"method": "rhf"
			},
			{
				"type": "occ",
				"energy": -0.2342,
				"method": "rhf"
			},
			{
				"type": "occ",
				"energy": -0.22627,
				"method": "rhf"
			},
			{
				"type": "occ",
				"energy": -0.20263,
				"method": "rhf"
			},
			{
				"type": "occ",
				"energy": -0.1581,
				"method": "rhf"
			},
			{
				"type": "unocc",
				"energy": 0.0166,
				"method": "rhf"
			},
			{
				"type": "unocc",
				"energy": 0.0429,
				"method": "rhf"
			},
			{
				"type": "unocc",
				"energy": 0.07904,
				"method": "rhf"
			},
			{
				"type": "unocc",
				"energy": 0.08534,
				"method": "rhf"
			},
			{
				"type": "unocc",
				"energy": 0.10799,
				"method": "rhf"
			}
		],
		"cosmo_sigma_profile": { 
			"-0.025": 0.0,
			"-0.024": 0.0,
			"-0.023": 0.0,
			"-0.022": 0.0,
			"-0.021": 0.0,
			"-0.02": 0.0,
			"-0.019": 0.0,
			"-0.018": 0.0,
			"-0.017": 0.0,
			"-0.016": 0.0,
			"-0.015": 0.0,
			"-0.014": 0.0,
			"-0.013": 0.0,
			"-0.012": 0.0241657353474,
			"-0.011": 1.62635763625,
			"-0.01": 2.56662710775,
			"-0.009": 2.7255722405,
			"-0.008": 3.14651626133,
			"-0.007": 3.3081228348,
			"-0.006": 2.95995936139,
			"-0.005": 5.47966565467,
			"-0.004": 21.4718918851,
			"-0.003": 32.7314569527,
			"-0.002": 40.9577984101,
			"-0.001": 34.4176860026,
			"0.0": 26.7107503248,
			"0.001": 15.5353374118,
			"0.002": 8.30379359508,
			"0.003": 8.56908517541,
			"0.004": 7.03137270469,
			"0.005": 8.6905123995,
			"0.006": 8.00265150925,
			"0.007": 9.72271002623,
			"0.008": 9.00716568325,
			"0.009": 3.2392766847,
			"0.01": 1.21994776594,
			"0.011": 1.41977163441,
			"0.012": 1.68716366858,
			"0.013": 1.06437456503,
			"0.014": 0.438686298828,
			"0.015": 1.28596841961,
			"0.016": 1.14364739229,
			"0.017": 0.311130536141,
			"0.018": 0.0,
			"0.019": 0.0,
			"0.02": 0.0,
			"0.021": 0.0,
			"0.022": 0.0,
			"0.023": 0.0,
			"0.024": 0.0,
			"0.025": 0.0
		}
	}
}
