{
	 "smiles": "COC12C3NC3CN1C1=C(C2COC(N)=O)C(=O)C(N)=C(C)C1=O", 
	 "Tm": 633.15, 
	 "num_atms": 42, 
	 "gaussian": { 
		 "optdone": 1, 
		 "sigma_profile": "yes", 
		 "theory": "DFT", 
		 "functional": "B3LYP", 
		 "basiset": "6-31G**", 
		 "properties": { 
			 "R2extent": 7219.5504, 
			 "electric_dipole_moment_norm": 2.17381971194, 
			 "electric_quadrupole_moment_norm": 36.920176726, 
			 "total_energy": -1177.52755386, 
			 "HOMO_LUMO_gap": 0.10824, 
			 "cosmo_polarized_energy": -26.19, 
			 "cosmo_cavitation_energy": 43.94, 
			 "cosmo_dispersion_energy": -29.8, 
			 "cosmo_repulsion_energy": 2.29, 
			 "cosmo_total_nonelectrostatic_energy": 16.43, 
			 "SMD_solvation_energy": 5.84 
		},
		"coords": [
			{
				"x": -1.0454178893,
				"y": -1.8401518608,
				"z": -2.1137179908,
				"element": "C" 
			},
			{
				"x": -0.7433535121,
				"y": -2.4766446038,
				"z": -0.8720263071,
				"element": "O" 
			},
			{
				"x": 0.2357028229,
				"y": -1.8844960581,
				"z": -0.0386579294,
				"element": "C" 
			},
			{
				"x": 0.9620984102,
				"y": -3.0692543371,
				"z": 0.5906304074,
				"element": "C" 
			},
			{
				"x": 2.1797759572,
				"y": -2.6689594092,
				"z": 1.3121494105,
				"element": "N" 
			},
			{
				"x": 2.286013325,
				"y": -3.2017486648,
				"z": -0.0634191078,
				"element": "C" 
			},
			{
				"x": 2.438717597,
				"y": -2.1027840326,
				"z": -1.1037575764,
				"element": "C" 
			},
			{
				"x": 1.3163974414,
				"y": -1.2017605787,
				"z": -0.7935623693,
				"element": "N" 
			},
			{
				"x": 1.4024425833,
				"y": 0.1046718866,
				"z": -0.404878116,
				"element": "C" 
			},
			{
				"x": 0.4563639509,
				"y": 0.445791483,
				"z": 0.5181827402,
				"element": "C" 
			},
			{
				"x": -0.2996667064,
				"y": -0.787856064,
				"z": 0.9570931392,
				"element": "C" 
			},
			{
				"x": -1.813904809,
				"y": -0.6530860144,
				"z": 1.0814424075,
				"element": "C" 
			},
			{
				"x": -2.3297536268,
				"y": 0.0870240331,
				"z": -0.0414462813,
				"element": "O" 
			},
			{
				"x": -3.6834796817,
				"y": 0.1951898878,
				"z": -0.0859307447,
				"element": "C" 
			},
			{
				"x": -4.056293835,
				"y": 0.9368819198,
				"z": -1.1791518507,
				"element": "N" 
			},
			{
				"x": -4.44812977,
				"y": -0.3220361834,
				"z": 0.7036240569,
				"element": "O" 
			},
			{
				"x": 0.3705912379,
				"y": 1.7787272468,
				"z": 1.0211401329,
				"element": "C" 
			},
			{
				"x": -0.4037372327,
				"y": 2.1653380447,
				"z": 1.9061930853,
				"element": "O" 
			},
			{
				"x": 1.3519852152,
				"y": 2.7837526484,
				"z": 0.4224881237,
				"element": "C" 
			},
			{
				"x": 1.1622873215,
				"y": 4.0250635527,
				"z": 0.9161053119,
				"element": "N" 
			},
			{
				"x": 2.3116094609,
				"y": 2.4472733375,
				"z": -0.5031378413,
				"element": "C" 
			},
			{
				"x": 3.2778752434,
				"y": 3.4635600509,
				"z": -1.0522694266,
				"element": "C" 
			},
			{
				"x": 2.3976210369,
				"y": 1.0784527624,
				"z": -0.9801265013,
				"element": "C" 
			},
			{
				"x": 3.2207966231,
				"y": 0.6873728947,
				"z": -1.8152339142,
				"element": "O" 
			},
			{
				"x": -1.3669226494,
				"y": -0.804866886,
				"z": -1.9781077309,
				"element": "H" 
			},
			{
				"x": -1.8691389446,
				"y": -2.4158791312,
				"z": -2.5415817298,
				"element": "H" 
			},
			{
				"x": -0.1912503088,
				"y": -1.8702426975,
				"z": -2.7996033895,
				"element": "H" 
			},
			{
				"x": 0.3711677732,
				"y": -3.9233373412,
				"z": 0.9062396589,
				"element": "H" 
			},
			{
				"x": 2.4354680771,
				"y": -3.3912943865,
				"z": 1.9832544353,
				"element": "H" 
			},
			{
				"x": 2.7473748866,
				"y": -4.1698925627,
				"z": -0.2360284047,
				"element": "H" 
			},
			{
				"x": 2.3367323646,
				"y": -2.5175430546,
				"z": -2.1139404349,
				"element": "H" 
			},
			{
				"x": 3.3792242523,
				"y": -1.5557329476,
				"z": -1.0501604302,
				"element": "H" 
			},
			{
				"x": 0.0506077353,
				"y": -1.0694122656,
				"z": 1.9598807249,
				"element": "H" 
			},
			{
				"x": -2.0522889914,
				"y": -0.1005606679,
				"z": 1.9931090433,
				"element": "H" 
			},
			{
				"x": -2.2959314487,
				"y": -1.6326021456,
				"z": 1.1221844466,
				"element": "H" 
			},
			{
				"x": -5.014138605,
				"y": 1.2501360828,
				"z": -1.1774657895,
				"element": "H" 
			},
			{
				"x": -3.3700641142,
				"y": 1.549790466,
				"z": -1.5920695716,
				"element": "H" 
			},
			{
				"x": 0.4774160589,
				"y": 4.1048499546,
				"z": 1.6579502052,
				"element": "H" 
			},
			{
				"x": 1.7975074749,
				"y": 4.7797376007,
				"z": 0.720266296,
				"element": "H" 
			},
			{
				"x": 3.8992702766,
				"y": 3.9094775368,
				"z": -0.263192432,
				"element": "H" 
			},
			{
				"x": 3.9428031364,
				"y": 2.9808982678,
				"z": -1.7704553187,
				"element": "H" 
			},
			{
				"x": 2.7605218621,
				"y": 4.284952236,
				"z": -1.5663124371,
				"element": "H" 
			}
		],
		 "valence_orbital": [ 
			{
				"type": "occ",
				"energy": -0.26199,
				"method": "rhf"
			},
			{
				"type": "occ",
				"energy": -0.25166,
				"method": "rhf"
			},
			{
				"type": "occ",
				"energy": -0.24619,
				"method": "rhf"
			},
			{
				"type": "occ",
				"energy": -0.22833,
				"method": "rhf"
			},
			{
				"type": "occ",
				"energy": -0.20023,
				"method": "rhf"
			},
			{
				"type": "unocc",
				"energy": -0.09199,
				"method": "rhf"
			},
			{
				"type": "unocc",
				"energy": 0.021,
				"method": "rhf"
			},
			{
				"type": "unocc",
				"energy": 0.04119,
				"method": "rhf"
			},
			{
				"type": "unocc",
				"energy": 0.05618,
				"method": "rhf"
			},
			{
				"type": "unocc",
				"energy": 0.07052,
				"method": "rhf"
			}
		],
		"cosmo_sigma_profile": { 
			"-0.025": 0.0,
			"-0.024": 0.0,
			"-0.023": 0.0,
			"-0.022": 0.0,
			"-0.021": 0.0,
			"-0.02": 0.0,
			"-0.019": 0.0,
			"-0.018": 0.0,
			"-0.017": 0.0,
			"-0.016": 0.0,
			"-0.015": 0.364738406814,
			"-0.014": 2.49833588178,
			"-0.013": 3.63691279298,
			"-0.012": 5.73665164974,
			"-0.011": 5.90419766473,
			"-0.01": 5.33244612152,
			"-0.009": 4.93549062451,
			"-0.008": 6.17384896487,
			"-0.007": 9.79398450706,
			"-0.006": 11.33566019,
			"-0.005": 22.2192268223,
			"-0.004": 22.1530936221,
			"-0.003": 22.1698033557,
			"-0.002": 27.2047577812,
			"-0.001": 23.7614601824,
			"0.0": 27.8053250349,
			"0.001": 22.5076120428,
			"0.002": 18.9454106289,
			"0.003": 13.6284797755,
			"0.004": 13.3596758501,
			"0.005": 9.11978191167,
			"0.006": 10.0897422107,
			"0.007": 6.84135700725,
			"0.008": 6.66378723898,
			"0.009": 7.77180831043,
			"0.01": 6.96541308096,
			"0.011": 7.38258174074,
			"0.012": 9.07841759871,
			"0.013": 10.5318458871,
			"0.014": 1.56841549225,
			"0.015": 0.551228064231,
			"0.016": 0.0,
			"0.017": 0.0,
			"0.018": 0.0,
			"0.019": 0.0,
			"0.02": 0.0,
			"0.021": 0.0,
			"0.022": 0.0,
			"0.023": 0.0,
			"0.024": 0.0,
			"0.025": 0.0
		}
	}
}
