{
	 "smiles": "O=CC1CCCCC1", 
	 "Tm": 307.95, 
	 "num_atms": 20, 
	 "gaussian": { 
		 "optdone": 1, 
		 "sigma_profile": "yes", 
		 "theory": "DFT", 
		 "functional": "B3LYP", 
		 "basiset": "6-31G**", 
		 "properties": { 
			 "R2extent": 1163.9213, 
			 "electric_dipole_moment_norm": 2.70600003695, 
			 "electric_quadrupole_moment_norm": 9.80795704365, 
			 "total_energy": -349.196963352, 
			 "HOMO_LUMO_gap": 0.22944, 
			 "cosmo_polarized_energy": -5.64, 
			 "cosmo_cavitation_energy": 21.09, 
			 "cosmo_dispersion_energy": -15.81, 
			 "cosmo_repulsion_energy": 1.32, 
			 "cosmo_total_nonelectrostatic_energy": 6.6, 
			 "SMD_solvation_energy": 3.87 
		},
		"coords": [
			{
				"x": -2.6374895338,
				"y": -2.0216443371,
				"z": -0.188748443,
				"element": "O" 
			},
			{
				"x": -1.4948254425,
				"y": -2.187169261,
				"z": -0.5563955506,
				"element": "C" 
			},
			{
				"x": -0.4192323042,
				"y": -1.1204979345,
				"z": -0.6068738816,
				"element": "C" 
			},
			{
				"x": 0.7579669743,
				"y": -1.5180511372,
				"z": 0.3147620789,
				"element": "C" 
			},
			{
				"x": 1.9610229682,
				"y": -0.5675403805,
				"z": 0.1198361046,
				"element": "C" 
			},
			{
				"x": 1.5225014097,
				"y": 0.8844209635,
				"z": -0.1966876642,
				"element": "C" 
			},
			{
				"x": 0.1331608302,
				"y": 1.1837286097,
				"z": 0.3826443476,
				"element": "C" 
			},
			{
				"x": -0.945849037,
				"y": 0.2921608475,
				"z": -0.270060535,
				"element": "C" 
			},
			{
				"x": -1.1484566887,
				"y": -3.1963991745,
				"z": -0.8819602214,
				"element": "H" 
			},
			{
				"x": -0.0332432786,
				"y": -1.1496789593,
				"z": -1.6392495242,
				"element": "H" 
			},
			{
				"x": 0.4092734888,
				"y": -1.477328124,
				"z": 1.3539949512,
				"element": "H" 
			},
			{
				"x": 1.0612571277,
				"y": -2.5560115252,
				"z": 0.1326227385,
				"element": "H" 
			},
			{
				"x": 2.5727981832,
				"y": -0.5863164026,
				"z": 1.0292632785,
				"element": "H" 
			},
			{
				"x": 2.6004577727,
				"y": -0.9425432266,
				"z": -0.688061217,
				"element": "H" 
			},
			{
				"x": 1.4892754042,
				"y": 1.0343203371,
				"z": -1.2839911647,
				"element": "H" 
			},
			{
				"x": 2.2655303622,
				"y": 1.5932923661,
				"z": 0.1848771078,
				"element": "H" 
			},
			{
				"x": -0.1247256003,
				"y": 2.2392611136,
				"z": 0.243013104,
				"element": "H" 
			},
			{
				"x": 0.1529022383,
				"y": 1.0170450447,
				"z": 1.467582748,
				"element": "H" 
			},
			{
				"x": -1.8161516065,
				"y": 0.1963343201,
				"z": 0.3865442035,
				"element": "H" 
			},
			{
				"x": -1.3084732678,
				"y": 0.7635168601,
				"z": -1.1908124611,
				"element": "H" 
			}
		],
		 "valence_orbital": [ 
			{
				"type": "occ",
				"energy": -0.35192,
				"method": "rhf"
			},
			{
				"type": "occ",
				"energy": -0.31534,
				"method": "rhf"
			},
			{
				"type": "occ",
				"energy": -0.30632,
				"method": "rhf"
			},
			{
				"type": "occ",
				"energy": -0.30422,
				"method": "rhf"
			},
			{
				"type": "occ",
				"energy": -0.24909,
				"method": "rhf"
			},
			{
				"type": "unocc",
				"energy": -0.01965,
				"method": "rhf"
			},
			{
				"type": "unocc",
				"energy": 0.07455,
				"method": "rhf"
			},
			{
				"type": "unocc",
				"energy": 0.09677,
				"method": "rhf"
			},
			{
				"type": "unocc",
				"energy": 0.12043,
				"method": "rhf"
			},
			{
				"type": "unocc",
				"energy": 0.12816,
				"method": "rhf"
			}
		],
		"cosmo_sigma_profile": { 
			"-0.025": 0.0,
			"-0.024": 0.0,
			"-0.023": 0.0,
			"-0.022": 0.0,
			"-0.021": 0.0,
			"-0.02": 0.0,
			"-0.019": 0.0,
			"-0.018": 0.0,
			"-0.017": 0.0,
			"-0.016": 0.0,
			"-0.015": 0.0,
			"-0.014": 0.0,
			"-0.013": 0.0,
			"-0.012": 0.0,
			"-0.011": 0.0,
			"-0.01": 0.0,
			"-0.009": 0.0,
			"-0.008": 0.0,
			"-0.007": 0.0,
			"-0.006": 2.50222737017,
			"-0.005": 9.58657779536,
			"-0.004": 7.42620991361,
			"-0.003": 16.5261115606,
			"-0.002": 29.0374305306,
			"-0.001": 27.6764532286,
			"0.0": 23.1110440505,
			"0.001": 18.215398145,
			"0.002": 4.77675935204,
			"0.003": 1.97203967991,
			"0.004": 1.82656013728,
			"0.005": 1.67220866324,
			"0.006": 1.62471822878,
			"0.007": 2.07530060161,
			"0.008": 1.30023074819,
			"0.009": 2.72722157946,
			"0.01": 2.50637074902,
			"0.011": 4.39645689626,
			"0.012": 3.1724320221,
			"0.013": 0.726865192655,
			"0.014": 0.0,
			"0.015": 0.0,
			"0.016": 0.0,
			"0.017": 0.0,
			"0.018": 0.0,
			"0.019": 0.0,
			"0.02": 0.0,
			"0.021": 0.0,
			"0.022": 0.0,
			"0.023": 0.0,
			"0.024": 0.0,
			"0.025": 0.0
		}
	}
}
