{
	 "smiles": "CCC1=C2CCCCC2=CC=C1", 
	 "Tm": 228.65, 
	 "num_atms": 28, 
	 "gaussian": { 
		 "optdone": 1, 
		 "sigma_profile": "yes", 
		 "theory": "DFT", 
		 "functional": "B3LYP", 
		 "basiset": "6-31G**", 
		 "properties": { 
			 "R2extent": 2523.9234, 
			 "electric_dipole_moment_norm": 0.647723351439, 
			 "electric_quadrupole_moment_norm": 4.00413378897, 
			 "total_energy": -466.944687936, 
			 "HOMO_LUMO_gap": 0.23557, 
			 "cosmo_polarized_energy": -3.11, 
			 "cosmo_cavitation_energy": 28.28, 
			 "cosmo_dispersion_energy": -20.65, 
			 "cosmo_repulsion_energy": 1.65, 
			 "cosmo_total_nonelectrostatic_energy": 9.28, 
			 "SMD_solvation_energy": 3.92 
		},
		"coords": [
			{
				"x": -1.4863281553,
				"y": 1.6054038776,
				"z": -1.2135294772,
				"element": "C" 
			},
			{
				"x": -1.9304521623,
				"y": 0.1355189363,
				"z": -1.0994962099,
				"element": "C" 
			},
			{
				"x": -1.5866626849,
				"y": -0.4927227074,
				"z": 0.2386987096,
				"element": "C" 
			},
			{
				"x": -0.3170739741,
				"y": -1.0343048299,
				"z": 0.5175775101,
				"element": "C" 
			},
			{
				"x": 0.8313165339,
				"y": -1.0776872589,
				"z": -0.4688029153,
				"element": "C" 
			},
			{
				"x": 2.137869906,
				"y": -0.546178369,
				"z": 0.1663931381,
				"element": "C" 
			},
			{
				"x": 2.4278909918,
				"y": -1.1610607427,
				"z": 1.5646857248,
				"element": "C" 
			},
			{
				"x": 1.3317395097,
				"y": -2.1531390262,
				"z": 2.0140378392,
				"element": "C" 
			},
			{
				"x": -0.0488999285,
				"y": -1.584942237,
				"z": 1.7872185945,
				"element": "C" 
			},
			{
				"x": -1.0345862815,
				"y": -1.5848484432,
				"z": 2.7759106013,
				"element": "C" 
			},
			{
				"x": -2.293994242,
				"y": -1.050444959,
				"z": 2.5057554097,
				"element": "C" 
			},
			{
				"x": -2.5611022127,
				"y": -0.5140628964,
				"z": 1.2478367022,
				"element": "C" 
			},
			{
				"x": -1.9506016099,
				"y": 2.2125129324,
				"z": -0.4297321577,
				"element": "H" 
			},
			{
				"x": -0.4012469524,
				"y": 1.7049559688,
				"z": -1.1058109545,
				"element": "H" 
			},
			{
				"x": -1.7694714372,
				"y": 2.0276625921,
				"z": -2.1837939478,
				"element": "H" 
			},
			{
				"x": -1.4906066902,
				"y": -0.4422583363,
				"z": -1.9201801127,
				"element": "H" 
			},
			{
				"x": -3.0158923864,
				"y": 0.0828398814,
				"z": -1.2430237248,
				"element": "H" 
			},
			{
				"x": 0.9918659751,
				"y": -2.1184810741,
				"z": -0.7880496216,
				"element": "H" 
			},
			{
				"x": 0.6121215086,
				"y": -0.512658474,
				"z": -1.3774044418,
				"element": "H" 
			},
			{
				"x": 2.9707131964,
				"y": -0.7386906867,
				"z": -0.5189066589,
				"element": "H" 
			},
			{
				"x": 2.0574544484,
				"y": 0.5427263113,
				"z": 0.2555739232,
				"element": "H" 
			},
			{
				"x": 3.397804379,
				"y": -1.6704091753,
				"z": 1.5681003221,
				"element": "H" 
			},
			{
				"x": 2.4964215594,
				"y": -0.3607604572,
				"z": 2.3092154505,
				"element": "H" 
			},
			{
				"x": 1.4402101043,
				"y": -3.084597354,
				"z": 1.4386315954,
				"element": "H" 
			},
			{
				"x": 1.4714899356,
				"y": -2.4244003755,
				"z": 3.0658025447,
				"element": "H" 
			},
			{
				"x": -0.8154186377,
				"y": -2.0063852391,
				"z": 3.7541005284,
				"element": "H" 
			},
			{
				"x": -3.0655135638,
				"y": -1.05416699,
				"z": 3.2708406079,
				"element": "H" 
			},
			{
				"x": -3.5457471293,
				"y": -0.1027208677,
				"z": 1.0371510206,
				"element": "H" 
			}
		],
		 "valence_orbital": [ 
			{
				"type": "occ",
				"energy": -0.32197,
				"method": "rhf"
			},
			{
				"type": "occ",
				"energy": -0.30361,
				"method": "rhf"
			},
			{
				"type": "occ",
				"energy": -0.29842,
				"method": "rhf"
			},
			{
				"type": "occ",
				"energy": -0.22772,
				"method": "rhf"
			},
			{
				"type": "occ",
				"energy": -0.22662,
				"method": "rhf"
			},
			{
				"type": "unocc",
				"energy": 0.00895,
				"method": "rhf"
			},
			{
				"type": "unocc",
				"energy": 0.01089,
				"method": "rhf"
			},
			{
				"type": "unocc",
				"energy": 0.07962,
				"method": "rhf"
			},
			{
				"type": "unocc",
				"energy": 0.10872,
				"method": "rhf"
			},
			{
				"type": "unocc",
				"energy": 0.11295,
				"method": "rhf"
			}
		],
		"cosmo_sigma_profile": { 
			"-0.025": 0.0,
			"-0.024": 0.0,
			"-0.023": 0.0,
			"-0.022": 0.0,
			"-0.021": 0.0,
			"-0.02": 0.0,
			"-0.019": 0.0,
			"-0.018": 0.0,
			"-0.017": 0.0,
			"-0.016": 0.0,
			"-0.015": 0.0,
			"-0.014": 0.0,
			"-0.013": 0.0,
			"-0.012": 0.0,
			"-0.011": 0.0,
			"-0.01": 0.0,
			"-0.009": 0.0,
			"-0.008": 0.0,
			"-0.007": 0.0,
			"-0.006": 0.0,
			"-0.005": 2.57252222835,
			"-0.004": 8.37965813416,
			"-0.003": 26.11369649,
			"-0.002": 34.9740271093,
			"-0.001": 37.552342606,
			"0.0": 36.1080432018,
			"0.001": 27.2649637492,
			"0.002": 12.5349432839,
			"0.003": 6.90943381208,
			"0.004": 7.19100933782,
			"0.005": 6.20889747543,
			"0.006": 6.35531062152,
			"0.007": 6.60755644121,
			"0.008": 1.77017622533,
			"0.009": 0.0,
			"0.01": 0.0,
			"0.011": 0.0,
			"0.012": 0.0,
			"0.013": 0.0,
			"0.014": 0.0,
			"0.015": 0.0,
			"0.016": 0.0,
			"0.017": 0.0,
			"0.018": 0.0,
			"0.019": 0.0,
			"0.02": 0.0,
			"0.021": 0.0,
			"0.022": 0.0,
			"0.023": 0.0,
			"0.024": 0.0,
			"0.025": 0.0
		}
	}
}
