{
	 "smiles": "OC(=O)C1=CC(F)=C(Cl)C=C1", 
	 "Tm": 464.65, 
	 "num_atms": 15, 
	 "gaussian": { 
		 "optdone": 1, 
		 "sigma_profile": "yes", 
		 "theory": "DFT", 
		 "functional": "B3LYP", 
		 "basiset": "6-31G**", 
		 "properties": { 
			 "R2extent": 2784.1501, 
			 "electric_dipole_moment_norm": 2.64740698231, 
			 "electric_quadrupole_moment_norm": 3.00897928042, 
			 "total_energy": -979.644333273, 
			 "HOMO_LUMO_gap": 0.19625, 
			 "cosmo_polarized_energy": -8.51, 
			 "cosmo_cavitation_energy": 22.54, 
			 "cosmo_dispersion_energy": -16.74, 
			 "cosmo_repulsion_energy": 1.32, 
			 "cosmo_total_nonelectrostatic_energy": 7.12, 
			 "SMD_solvation_energy": 5.42 
		},
		"coords": [
			{
				"x": 1.143979809,
				"y": -0.3555072928,
				"z": 2.4063240134,
				"element": "O" 
			},
			{
				"x": 1.6468794026,
				"y": -0.9078216224,
				"z": 1.2758836347,
				"element": "C" 
			},
			{
				"x": 2.609125682,
				"y": -1.6484202214,
				"z": 1.2854727767,
				"element": "O" 
			},
			{
				"x": 0.8992345443,
				"y": -0.5068725293,
				"z": 0.0531373791,
				"element": "C" 
			},
			{
				"x": 1.3393709992,
				"y": -1.0232973783,
				"z": -1.1712082106,
				"element": "C" 
			},
			{
				"x": 0.6727085843,
				"y": -0.6763659079,
				"z": -2.3350301578,
				"element": "C" 
			},
			{
				"x": 1.0922917216,
				"y": -1.1695600945,
				"z": -3.5084873716,
				"element": "F" 
			},
			{
				"x": -0.4320578806,
				"y": 0.1815293489,
				"z": -2.3016621066,
				"element": "C" 
			},
			{
				"x": -1.2449945044,
				"y": 0.5953542915,
				"z": -3.7849851432,
				"element": "Cl" 
			},
			{
				"x": -0.8693324359,
				"y": 0.6954387472,
				"z": -1.0795994749,
				"element": "C" 
			},
			{
				"x": -0.2062791573,
				"y": 0.3530458303,
				"z": 0.0962327369,
				"element": "C" 
			},
			{
				"x": 1.7009567812,
				"y": -0.6800938608,
				"z": 3.1328348508,
				"element": "H" 
			},
			{
				"x": 2.1940980358,
				"y": -1.6887258053,
				"z": -1.209021137,
				"element": "H" 
			},
			{
				"x": -1.7262311039,
				"y": 1.3596312474,
				"z": -1.0621553534,
				"element": "H" 
			},
			{
				"x": -0.5433504779,
				"y": 0.7503652474,
				"z": 1.0459635635,
				"element": "H" 
			}
		],
		 "valence_orbital": [ 
			{
				"type": "occ",
				"energy": -0.32904,
				"method": "rhf"
			},
			{
				"type": "occ",
				"energy": -0.32763,
				"method": "rhf"
			},
			{
				"type": "occ",
				"energy": -0.28933,
				"method": "rhf"
			},
			{
				"type": "occ",
				"energy": -0.27529,
				"method": "rhf"
			},
			{
				"type": "occ",
				"energy": -0.26178,
				"method": "rhf"
			},
			{
				"type": "unocc",
				"energy": -0.06553,
				"method": "rhf"
			},
			{
				"type": "unocc",
				"energy": -0.02448,
				"method": "rhf"
			},
			{
				"type": "unocc",
				"energy": 0.014,
				"method": "rhf"
			},
			{
				"type": "unocc",
				"energy": 0.04273,
				"method": "rhf"
			},
			{
				"type": "unocc",
				"energy": 0.07009,
				"method": "rhf"
			}
		],
		"cosmo_sigma_profile": { 
			"-0.025": 0.0,
			"-0.024": 0.0,
			"-0.023": 0.0,
			"-0.022": 0.0,
			"-0.021": 0.0,
			"-0.02": 0.0,
			"-0.019": 0.245846786633,
			"-0.018": 0.876465075226,
			"-0.017": 0.995539916425,
			"-0.016": 0.723139467768,
			"-0.015": 0.915930371715,
			"-0.014": 0.548768293355,
			"-0.013": 0.665820187648,
			"-0.012": 0.84682264131,
			"-0.011": 0.697637446789,
			"-0.01": 0.872208830841,
			"-0.009": 0.487830868453,
			"-0.008": 3.68712418378,
			"-0.007": 6.02020553669,
			"-0.006": 5.10648847141,
			"-0.005": 4.53022436181,
			"-0.004": 5.74016318476,
			"-0.003": 9.49412073903,
			"-0.002": 14.4277766518,
			"-0.001": 19.4374749037,
			"0.0": 22.468831749,
			"0.001": 18.1910620829,
			"0.002": 13.0516815633,
			"0.003": 19.1876310011,
			"0.004": 13.2699126152,
			"0.005": 3.91804217523,
			"0.006": 2.64222076759,
			"0.007": 2.97605464436,
			"0.008": 1.04320140652,
			"0.009": 2.03803313986,
			"0.01": 2.27626802652,
			"0.011": 4.60144112131,
			"0.012": 1.83625698593,
			"0.013": 0.0,
			"0.014": 0.0,
			"0.015": 0.0,
			"0.016": 0.0,
			"0.017": 0.0,
			"0.018": 0.0,
			"0.019": 0.0,
			"0.02": 0.0,
			"0.021": 0.0,
			"0.022": 0.0,
			"0.023": 0.0,
			"0.024": 0.0,
			"0.025": 0.0
		}
	}
}
