{
	 "smiles": "CN(C)C1=CC=C(C=CC(=O)CCC2=CC=CC=C2)C=C1", 
	 "Tm": 366.15, 
	 "num_atms": 42, 
	 "gaussian": { 
		 "optdone": 1, 
		 "sigma_profile": "yes", 
		 "theory": "DFT", 
		 "functional": "B3LYP", 
		 "basiset": "6-31G**", 
		 "properties": { 
			 "R2extent": 9161.1342, 
			 "electric_dipole_moment_norm": 6.72997197171, 
			 "electric_quadrupole_moment_norm": 19.6282659349, 
			 "total_energy": -866.633472789, 
			 "HOMO_LUMO_gap": 0.13929, 
			 "cosmo_polarized_energy": -13.83, 
			 "cosmo_cavitation_energy": 45.03, 
			 "cosmo_dispersion_energy": -30.59, 
			 "cosmo_repulsion_energy": 2.39, 
			 "cosmo_total_nonelectrostatic_energy": 16.83, 
			 "SMD_solvation_energy": 7.48 
		},
		"coords": [
			{
				"x": 2.5320538093,
				"y": -1.8782129981,
				"z": 2.8466417473,
				"element": "C" 
			},
			{
				"x": 3.0149536581,
				"y": -1.3066043143,
				"z": 1.600557143,
				"element": "N" 
			},
			{
				"x": 4.1161388887,
				"y": -1.954304406,
				"z": 0.9076892047,
				"element": "C" 
			},
			{
				"x": 2.6117059727,
				"y": -0.0409535387,
				"z": 1.2210792576,
				"element": "C" 
			},
			{
				"x": 1.6491694997,
				"y": 0.6826173534,
				"z": 1.9673095279,
				"element": "C" 
			},
			{
				"x": 1.2249160463,
				"y": 1.9387063793,
				"z": 1.5608772863,
				"element": "C" 
			},
			{
				"x": 1.7268700452,
				"y": 2.5552878856,
				"z": 0.399823256,
				"element": "C" 
			},
			{
				"x": 1.3292440521,
				"y": 3.8913872901,
				"z": -0.0421924503,
				"element": "C" 
			},
			{
				"x": 0.153903739,
				"y": 4.5558417995,
				"z": 0.0639412237,
				"element": "C" 
			},
			{
				"x": -1.2019722538,
				"y": 4.1182643544,
				"z": 0.4774516396,
				"element": "C" 
			},
			{
				"x": -2.0142467587,
				"y": 4.9705119287,
				"z": 0.8248001301,
				"element": "O" 
			},
			{
				"x": -1.6506667994,
				"y": 2.6596881617,
				"z": 0.3516924914,
				"element": "C" 
			},
			{
				"x": -3.0449264903,
				"y": 2.5676540683,
				"z": -0.3081943537,
				"element": "C" 
			},
			{
				"x": -3.5884784949,
				"y": 1.1561480568,
				"z": -0.3202923255,
				"element": "C" 
			},
			{
				"x": -4.3597809964,
				"y": 0.6762482125,
				"z": 0.7478248342,
				"element": "C" 
			},
			{
				"x": -4.8386434784,
				"y": -0.6345110379,
				"z": 0.7566442797,
				"element": "C" 
			},
			{
				"x": -4.5539653089,
				"y": -1.4920831588,
				"z": -0.3078905114,
				"element": "C" 
			},
			{
				"x": -3.788876112,
				"y": -1.0273599257,
				"z": -1.3792579814,
				"element": "C" 
			},
			{
				"x": -3.3120753934,
				"y": 0.284334345,
				"z": -1.3825853503,
				"element": "C" 
			},
			{
				"x": 2.7276009215,
				"y": 1.8577801148,
				"z": -0.3041734453,
				"element": "C" 
			},
			{
				"x": 3.1547329287,
				"y": 0.5953421215,
				"z": 0.0773326478,
				"element": "C" 
			},
			{
				"x": 2.8532958597,
				"y": -1.3044243658,
				"z": 3.7288931101,
				"element": "H" 
			},
			{
				"x": 1.4372179724,
				"y": -1.933140029,
				"z": 2.8587135299,
				"element": "H" 
			},
			{
				"x": 2.9144460646,
				"y": -2.8948457391,
				"z": 2.9459267807,
				"element": "H" 
			},
			{
				"x": 4.2692210022,
				"y": -2.9484088511,
				"z": 1.3293636268,
				"element": "H" 
			},
			{
				"x": 3.8973102413,
				"y": -2.0773691131,
				"z": -0.1598747894,
				"element": "H" 
			},
			{
				"x": 5.0596052964,
				"y": -1.3956730164,
				"z": 0.9983468611,
				"element": "H" 
			},
			{
				"x": 1.2422488229,
				"y": 0.2693364566,
				"z": 2.8816844125,
				"element": "H" 
			},
			{
				"x": 0.5147234009,
				"y": 2.475058098,
				"z": 2.1816325543,
				"element": "H" 
			},
			{
				"x": 2.1381158851,
				"y": 4.4558368776,
				"z": -0.5094206307,
				"element": "H" 
			},
			{
				"x": 0.1553388767,
				"y": 5.6091822158,
				"z": -0.2097141367,
				"element": "H" 
			},
			{
				"x": -1.7135353951,
				"y": 2.2289324736,
				"z": 1.3586057351,
				"element": "H" 
			},
			{
				"x": -0.9190409154,
				"y": 2.0635653723,
				"z": -0.1988119251,
				"element": "H" 
			},
			{
				"x": -3.7183943045,
				"y": 3.2366575425,
				"z": 0.2345393051,
				"element": "H" 
			},
			{
				"x": -2.9795506401,
				"y": 2.9496971178,
				"z": -1.3340158699,
				"element": "H" 
			},
			{
				"x": -4.5918644515,
				"y": 1.3412130155,
				"z": 1.576728949,
				"element": "H" 
			},
			{
				"x": -5.4397662715,
				"y": -0.9841047111,
				"z": 1.5917558927,
				"element": "H" 
			},
			{
				"x": -4.9297661696,
				"y": -2.5113897583,
				"z": -0.3051459692,
				"element": "H" 
			},
			{
				"x": -3.5668668182,
				"y": -1.6847904596,
				"z": -2.21558593,
				"element": "H" 
			},
			{
				"x": -2.7210980983,
				"y": 0.6407685491,
				"z": -2.2233602026,
				"element": "H" 
			},
			{
				"x": 3.1713756383,
				"y": 2.315993179,
				"z": -1.1848878143,
				"element": "H" 
			},
			{
				"x": 3.9198265288,
				"y": 0.1045224535,
				"z": -0.5111517409,
				"element": "H" 
			}
		],
		 "valence_orbital": [ 
			{
				"type": "occ",
				"energy": -0.25473,
				"method": "rhf"
			},
			{
				"type": "occ",
				"energy": -0.24145,
				"method": "rhf"
			},
			{
				"type": "occ",
				"energy": -0.23989,
				"method": "rhf"
			},
			{
				"type": "occ",
				"energy": -0.22522,
				"method": "rhf"
			},
			{
				"type": "occ",
				"energy": -0.19351,
				"method": "rhf"
			},
			{
				"type": "unocc",
				"energy": -0.05422,
				"method": "rhf"
			},
			{
				"type": "unocc",
				"energy": -0.00407,
				"method": "rhf"
			},
			{
				"type": "unocc",
				"energy": 0.0061,
				"method": "rhf"
			},
			{
				"type": "unocc",
				"energy": 0.00724,
				"method": "rhf"
			},
			{
				"type": "unocc",
				"energy": 0.0207,
				"method": "rhf"
			}
		],
		"cosmo_sigma_profile": { 
			"-0.025": 0.0,
			"-0.024": 0.0,
			"-0.023": 0.0,
			"-0.022": 0.0,
			"-0.021": 0.0,
			"-0.02": 0.0,
			"-0.019": 0.0,
			"-0.018": 0.0,
			"-0.017": 0.0,
			"-0.016": 0.0,
			"-0.015": 0.0,
			"-0.014": 0.0,
			"-0.013": 0.0,
			"-0.012": 0.0,
			"-0.011": 0.0,
			"-0.01": 0.0,
			"-0.009": 0.0,
			"-0.008": 0.0271410562682,
			"-0.007": 2.07388699676,
			"-0.006": 12.496076754,
			"-0.005": 31.2607373723,
			"-0.004": 39.0832019896,
			"-0.003": 42.6680832464,
			"-0.002": 37.6249722808,
			"-0.001": 28.6966847278,
			"0.0": 21.1914656011,
			"0.001": 21.2439748568,
			"0.002": 20.4370765678,
			"0.003": 20.5132721329,
			"0.004": 21.1095052436,
			"0.005": 21.0868641991,
			"0.006": 15.4595986369,
			"0.007": 5.22786876809,
			"0.008": 1.86502258875,
			"0.009": 1.48241347756,
			"0.01": 1.33726757685,
			"0.011": 2.30418394098,
			"0.012": 3.20913059183,
			"0.013": 4.45104800485,
			"0.014": 1.59529464781,
			"0.015": 0.115252622059,
			"0.016": 0.0,
			"0.017": 0.0,
			"0.018": 0.0,
			"0.019": 0.0,
			"0.02": 0.0,
			"0.021": 0.0,
			"0.022": 0.0,
			"0.023": 0.0,
			"0.024": 0.0,
			"0.025": 0.0
		}
	}
}
