{
	 "smiles": "COC1=CC2=C(C=CN2)C=C1OC", 
	 "Tm": 430.15, 
	 "num_atms": 24, 
	 "gaussian": { 
		 "optdone": 1, 
		 "sigma_profile": "yes", 
		 "theory": "DFT", 
		 "functional": "B3LYP", 
		 "basiset": "6-31G**", 
		 "properties": { 
			 "R2extent": 3093.6969, 
			 "electric_dipole_moment_norm": 1.77474633117, 
			 "electric_quadrupole_moment_norm": 16.3652671811, 
			 "total_energy": -592.858987317, 
			 "HOMO_LUMO_gap": 0.19083, 
			 "cosmo_polarized_energy": -11.93, 
			 "cosmo_cavitation_energy": 27.35, 
			 "cosmo_dispersion_energy": -20.28, 
			 "cosmo_repulsion_energy": 1.6, 
			 "cosmo_total_nonelectrostatic_energy": 8.68, 
			 "SMD_solvation_energy": 6.19 
		},
		"coords": [
			{
				"x": 1.1301021314,
				"y": 1.088039122,
				"z": 3.7891614589,
				"element": "C" 
			},
			{
				"x": 1.1336564747,
				"y": 1.5332413734,
				"z": 2.4323313528,
				"element": "O" 
			},
			{
				"x": 1.1482189774,
				"y": 0.5381320286,
				"z": 1.4813242886,
				"element": "C" 
			},
			{
				"x": 2.2876503605,
				"y": 0.379822483,
				"z": 0.7076676085,
				"element": "C" 
			},
			{
				"x": 2.2720288069,
				"y": -0.5872781479,
				"z": -0.3042799541,
				"element": "C" 
			},
			{
				"x": 1.1394060327,
				"y": -1.4058412774,
				"z": -0.5421882904,
				"element": "C" 
			},
			{
				"x": 1.4758446413,
				"y": -2.2769523585,
				"z": -1.6335670544,
				"element": "C" 
			},
			{
				"x": 2.7581294365,
				"y": -1.9719741126,
				"z": -2.0129552257,
				"element": "C" 
			},
			{
				"x": 3.2446559182,
				"y": -0.9533903484,
				"z": -1.2149088714,
				"element": "N" 
			},
			{
				"x": -0.0119417019,
				"y": -1.233383908,
				"z": 0.2539480068,
				"element": "C" 
			},
			{
				"x": -0.0096426578,
				"y": -0.2665043857,
				"z": 1.2513681748,
				"element": "C" 
			},
			{
				"x": -1.0750605168,
				"y": 0.0079184327,
				"z": 2.0716600538,
				"element": "O" 
			},
			{
				"x": -2.2693006029,
				"y": -0.7241694014,
				"z": 1.8682126907,
				"element": "C" 
			},
			{
				"x": 1.1579435849,
				"y": 1.9889785087,
				"z": 4.4065149248,
				"element": "H" 
			},
			{
				"x": 0.2275860198,
				"y": 0.5149091371,
				"z": 4.0219050773,
				"element": "H" 
			},
			{
				"x": 2.0170170951,
				"y": 0.4766458809,
				"z": 4.0043610455,
				"element": "H" 
			},
			{
				"x": 3.1454302251,
				"y": 1.0154850215,
				"z": 0.9027780756,
				"element": "H" 
			},
			{
				"x": 0.8457978616,
				"y": -3.0328704918,
				"z": -2.0804913912,
				"element": "H" 
			},
			{
				"x": 3.3728112334,
				"y": -2.3987200562,
				"z": -2.7925181105,
				"element": "H" 
			},
			{
				"x": 4.1594618009,
				"y": -0.5407684412,
				"z": -1.2895057579,
				"element": "H" 
			},
			{
				"x": -0.8869243561,
				"y": -1.8470825219,
				"z": 0.0749816668,
				"element": "H" 
			},
			{
				"x": -2.669212266,
				"y": -0.5726727159,
				"z": 0.8567950682,
				"element": "H" 
			},
			{
				"x": -2.1220588616,
				"y": -1.800211471,
				"z": 2.0333741315,
				"element": "H" 
			},
			{
				"x": -2.9862996374,
				"y": -0.3442523501,
				"z": 2.5982310311,
				"element": "H" 
			}
		],
		 "valence_orbital": [ 
			{
				"type": "occ",
				"energy": -0.28623,
				"method": "rhf"
			},
			{
				"type": "occ",
				"energy": -0.26914,
				"method": "rhf"
			},
			{
				"type": "occ",
				"energy": -0.25671,
				"method": "rhf"
			},
			{
				"type": "occ",
				"energy": -0.19498,
				"method": "rhf"
			},
			{
				"type": "occ",
				"energy": -0.19067,
				"method": "rhf"
			},
			{
				"type": "unocc",
				"energy": 0.00016,
				"method": "rhf"
			},
			{
				"type": "unocc",
				"energy": 0.04336,
				"method": "rhf"
			},
			{
				"type": "unocc",
				"energy": 0.077,
				"method": "rhf"
			},
			{
				"type": "unocc",
				"energy": 0.08317,
				"method": "rhf"
			},
			{
				"type": "unocc",
				"energy": 0.10183,
				"method": "rhf"
			}
		],
		"cosmo_sigma_profile": { 
			"-0.025": 0.0,
			"-0.024": 0.0,
			"-0.023": 0.0,
			"-0.022": 0.0,
			"-0.021": 0.0,
			"-0.02": 0.0,
			"-0.019": 0.0,
			"-0.018": 0.0,
			"-0.017": 0.0,
			"-0.016": 0.164677885424,
			"-0.015": 1.38705514257,
			"-0.014": 1.74091225233,
			"-0.013": 1.07806609815,
			"-0.012": 1.46686064759,
			"-0.011": 0.98385744116,
			"-0.01": 1.06109978149,
			"-0.009": 1.25824315281,
			"-0.008": 2.60330688815,
			"-0.007": 4.02129901008,
			"-0.006": 6.71346377333,
			"-0.005": 17.07289215,
			"-0.004": 17.6903724985,
			"-0.003": 21.6989020364,
			"-0.002": 20.6809149353,
			"-0.001": 12.4385473678,
			"0.0": 11.0382331855,
			"0.001": 8.97041887022,
			"0.002": 9.6912330462,
			"0.003": 9.54948713786,
			"0.004": 13.1081173593,
			"0.005": 16.4596852495,
			"0.006": 14.291572951,
			"0.007": 9.03979159783,
			"0.008": 3.40737816111,
			"0.009": 1.79676472834,
			"0.01": 2.14338808121,
			"0.011": 1.92002093837,
			"0.012": 3.47049805739,
			"0.013": 0.603156870027,
			"0.014": 0.0,
			"0.015": 0.0,
			"0.016": 0.0,
			"0.017": 0.0,
			"0.018": 0.0,
			"0.019": 0.0,
			"0.02": 0.0,
			"0.021": 0.0,
			"0.022": 0.0,
			"0.023": 0.0,
			"0.024": 0.0,
			"0.025": 0.0
		}
	}
}
