{
	 "smiles": "CC1(C)N=C(N)C(C)(C)N1O", 
	 "Tm": 499.15, 
	 "num_atms": 26, 
	 "gaussian": { 
		 "optdone": 1, 
		 "sigma_profile": "yes", 
		 "theory": "DFT", 
		 "functional": "B3LYP", 
		 "basiset": "6-31G**", 
		 "properties": { 
			 "R2extent": 2154.7669, 
			 "electric_dipole_moment_norm": 3.70630436554, 
			 "electric_quadrupole_moment_norm": 8.85892420613, 
			 "total_energy": -515.211695137, 
			 "HOMO_LUMO_gap": 0.2432, 
			 "cosmo_polarized_energy": -15.93, 
			 "cosmo_cavitation_energy": 26.83, 
			 "cosmo_dispersion_energy": -18.94, 
			 "cosmo_repulsion_energy": 1.51, 
			 "cosmo_total_nonelectrostatic_energy": 9.4, 
			 "SMD_solvation_energy": 1.93 
		},
		"coords": [
			{
				"x": -3.5499871743,
				"y": 0.3655571829,
				"z": 0.5048970151,
				"element": "C" 
			},
			{
				"x": -2.0314186096,
				"y": 0.1730949526,
				"z": 0.4282015161,
				"element": "C" 
			},
			{
				"x": -1.4537325016,
				"y": -0.0567661158,
				"z": 1.838509946,
				"element": "C" 
			},
			{
				"x": -1.39520676,
				"y": 1.341752074,
				"z": -0.175518415,
				"element": "N" 
			},
			{
				"x": -0.6367148168,
				"y": 0.9495972839,
				"z": -1.1331761957,
				"element": "C" 
			},
			{
				"x": 0.0560991072,
				"y": 1.8133126801,
				"z": -1.9447228887,
				"element": "N" 
			},
			{
				"x": -0.5689823726,
				"y": -0.5557630135,
				"z": -1.3671612697,
				"element": "C" 
			},
			{
				"x": 0.7800790513,
				"y": -1.1346066947,
				"z": -0.8824383942,
				"element": "C" 
			},
			{
				"x": -0.8228791959,
				"y": -0.9678296186,
				"z": -2.8256172797,
				"element": "C" 
			},
			{
				"x": -1.7424565332,
				"y": -0.9335729796,
				"z": -0.5433042652,
				"element": "N" 
			},
			{
				"x": -1.6731084046,
				"y": -2.2271190652,
				"z": 0.0216113184,
				"element": "O" 
			},
			{
				"x": -3.8027915475,
				"y": 1.1883774472,
				"z": 1.1805064017,
				"element": "H" 
			},
			{
				"x": -3.941295865,
				"y": 0.5912160963,
				"z": -0.4896003379,
				"element": "H" 
			},
			{
				"x": -4.0259851764,
				"y": -0.55144327,
				"z": 0.8657757335,
				"element": "H" 
			},
			{
				"x": -1.9225021971,
				"y": -0.9169683016,
				"z": 2.3261825326,
				"element": "H" 
			},
			{
				"x": -0.3683449505,
				"y": -0.2021512728,
				"z": 1.8171846522,
				"element": "H" 
			},
			{
				"x": -1.6479772008,
				"y": 0.828713972,
				"z": 2.4485682195,
				"element": "H" 
			},
			{
				"x": 0.8779220599,
				"y": 1.4676428141,
				"z": -2.4154762782,
				"element": "H" 
			},
			{
				"x": 0.1155411911,
				"y": 2.7648349306,
				"z": -1.6093402621,
				"element": "H" 
			},
			{
				"x": 0.7571004022,
				"y": -2.2272529114,
				"z": -0.9278064209,
				"element": "H" 
			},
			{
				"x": 1.021074427,
				"y": -0.8278070566,
				"z": 0.1399259354,
				"element": "H" 
			},
			{
				"x": 1.5974962831,
				"y": -0.7970291061,
				"z": -1.5276688902,
				"element": "H" 
			},
			{
				"x": 0.0040489759,
				"y": -0.6782211023,
				"z": -3.4838788196,
				"element": "H" 
			},
			{
				"x": -1.7436872863,
				"y": -0.5109728952,
				"z": -3.1942579802,
				"element": "H" 
			},
			{
				"x": -0.9357413104,
				"y": -2.0551620558,
				"z": -2.8766909016,
				"element": "H" 
			},
			{
				"x": -0.9609495951,
				"y": -2.2189339745,
				"z": 0.6871953284,
				"element": "H" 
			}
		],
		 "valence_orbital": [ 
			{
				"type": "occ",
				"energy": -0.33442,
				"method": "rhf"
			},
			{
				"type": "occ",
				"energy": -0.28855,
				"method": "rhf"
			},
			{
				"type": "occ",
				"energy": -0.24913,
				"method": "rhf"
			},
			{
				"type": "occ",
				"energy": -0.23224,
				"method": "rhf"
			},
			{
				"type": "occ",
				"energy": -0.21114,
				"method": "rhf"
			},
			{
				"type": "unocc",
				"energy": 0.03206,
				"method": "rhf"
			},
			{
				"type": "unocc",
				"energy": 0.05267,
				"method": "rhf"
			},
			{
				"type": "unocc",
				"energy": 0.07704,
				"method": "rhf"
			},
			{
				"type": "unocc",
				"energy": 0.10677,
				"method": "rhf"
			},
			{
				"type": "unocc",
				"energy": 0.11664,
				"method": "rhf"
			}
		],
		"cosmo_sigma_profile": { 
			"-0.025": 0.0,
			"-0.024": 0.0,
			"-0.023": 0.0,
			"-0.022": 0.0,
			"-0.021": 0.0,
			"-0.02": 0.0,
			"-0.019": 0.0,
			"-0.018": 0.0,
			"-0.017": 0.0,
			"-0.016": 0.0,
			"-0.015": 0.0,
			"-0.014": 0.349385731565,
			"-0.013": 2.09521517884,
			"-0.012": 3.45891032535,
			"-0.011": 4.22585211086,
			"-0.01": 3.62467829527,
			"-0.009": 3.95634718799,
			"-0.008": 3.03160697237,
			"-0.007": 4.19495051926,
			"-0.006": 5.30650310386,
			"-0.005": 5.7808409643,
			"-0.004": 10.156820662,
			"-0.003": 16.9274440769,
			"-0.002": 20.9934526677,
			"-0.001": 20.5085464333,
			"0.0": 23.4862156636,
			"0.001": 19.5298162853,
			"0.002": 9.15589149136,
			"0.003": 6.4301880217,
			"0.004": 4.56523462963,
			"0.005": 3.7326071709,
			"0.006": 3.96939974195,
			"0.007": 4.19899343731,
			"0.008": 4.24825103816,
			"0.009": 4.13861107067,
			"0.01": 3.30984983619,
			"0.011": 3.26119930545,
			"0.012": 3.14358594605,
			"0.013": 4.57367733847,
			"0.014": 1.75726330501,
			"0.015": 0.912983362241,
			"0.016": 0.827906786371,
			"0.017": 0.748106836579,
			"0.018": 0.524214147619,
			"0.019": 0.0591412450125,
			"0.02": 0.0,
			"0.021": 0.0,
			"0.022": 0.0,
			"0.023": 0.0,
			"0.024": 0.0,
			"0.025": 0.0
		}
	}
}
