{
	 "smiles": "OC(=O)C1CN(CC2=CC(=CC=C2)C(F)(F)F)C(=O)C1", 
	 "Tm": 383.15, 
	 "num_atms": 32, 
	 "gaussian": { 
		 "optdone": 1, 
		 "sigma_profile": "yes", 
		 "theory": "DFT", 
		 "functional": "B3LYP", 
		 "basiset": "6-31G**", 
		 "properties": { 
			 "R2extent": 7324.3344, 
			 "electric_dipole_moment_norm": 3.34191546572, 
			 "electric_quadrupole_moment_norm": 23.5913591389, 
			 "total_energy": -1082.60251551, 
			 "HOMO_LUMO_gap": 0.21385, 
			 "cosmo_polarized_energy": -17.9, 
			 "cosmo_cavitation_energy": 38.09, 
			 "cosmo_dispersion_energy": -25.33, 
			 "cosmo_repulsion_energy": 1.92, 
			 "cosmo_total_nonelectrostatic_energy": 14.68, 
			 "SMD_solvation_energy": 8.92 
		},
		"coords": [
			{
				"x": 2.75642288,
				"y": -0.1458037252,
				"z": -2.3557508113,
				"element": "O" 
			},
			{
				"x": 2.4411841555,
				"y": -1.2427462536,
				"z": -1.6257142478,
				"element": "C" 
			},
			{
				"x": 3.2003752603,
				"y": -1.7309980024,
				"z": -0.8198781695,
				"element": "O" 
			},
			{
				"x": 1.0490614172,
				"y": -1.7525993349,
				"z": -1.9777469228,
				"element": "C" 
			},
			{
				"x": -0.0426297524,
				"y": -0.6888866738,
				"z": -1.6578557254,
				"element": "C" 
			},
			{
				"x": -0.5663083026,
				"y": -1.1200345206,
				"z": -0.3719842863,
				"element": "N" 
			},
			{
				"x": -1.4906319049,
				"y": -0.3168998916,
				"z": 0.410473227,
				"element": "C" 
			},
			{
				"x": -0.82944441,
				"y": 0.8841362351,
				"z": 1.0631571221,
				"element": "C" 
			},
			{
				"x": -1.2412889068,
				"y": 2.1839001042,
				"z": 0.765087886,
				"element": "C" 
			},
			{
				"x": -0.6237553403,
				"y": 3.2811091005,
				"z": 1.3752075593,
				"element": "C" 
			},
			{
				"x": 0.4140196299,
				"y": 3.0872637692,
				"z": 2.2872051801,
				"element": "C" 
			},
			{
				"x": 0.8305157604,
				"y": 1.7885181822,
				"z": 2.5871289177,
				"element": "C" 
			},
			{
				"x": 0.2141728432,
				"y": 0.6957441506,
				"z": 1.981651677,
				"element": "C" 
			},
			{
				"x": -1.121739608,
				"y": 4.6701909623,
				"z": 1.0806942164,
				"element": "C" 
			},
			{
				"x": -1.5634884967,
				"y": 4.7859154783,
				"z": -0.1929272291,
				"element": "F" 
			},
			{
				"x": -0.1600762341,
				"y": 5.6018465096,
				"z": 1.262655572,
				"element": "F" 
			},
			{
				"x": -2.1565740993,
				"y": 5.011107356,
				"z": 1.8837611634,
				"element": "F" 
			},
			{
				"x": -0.244320004,
				"y": -2.4125618264,
				"z": -0.0284145285,
				"element": "C" 
			},
			{
				"x": -0.6289421555,
				"y": -2.9923458895,
				"z": 0.9743173771,
				"element": "O" 
			},
			{
				"x": 0.6570248499,
				"y": -2.970701838,
				"z": -1.1285544784,
				"element": "C" 
			},
			{
				"x": 3.6491826442,
				"y": 0.1214387546,
				"z": -2.0793280552,
				"element": "H" 
			},
			{
				"x": 1.0567311436,
				"y": -1.961582654,
				"z": -3.0517332787,
				"element": "H" 
			},
			{
				"x": 0.3664928459,
				"y": 0.3239640441,
				"z": -1.6026148211,
				"element": "H" 
			},
			{
				"x": -0.8298340876,
				"y": -0.6894166276,
				"z": -2.4260997613,
				"element": "H" 
			},
			{
				"x": -2.3234288693,
				"y": 0.0129283374,
				"z": -0.2243011607,
				"element": "H" 
			},
			{
				"x": -1.8926692902,
				"y": -0.9926367523,
				"z": 1.1723108632,
				"element": "H" 
			},
			{
				"x": -2.0423404697,
				"y": 2.3500130786,
				"z": 0.0508317956,
				"element": "H" 
			},
			{
				"x": 0.8937673454,
				"y": 3.9424812474,
				"z": 2.7503683879,
				"element": "H" 
			},
			{
				"x": 1.6375701687,
				"y": 1.6310333624,
				"z": 3.2961798777,
				"element": "H" 
			},
			{
				"x": 0.5369524408,
				"y": -0.3144513939,
				"z": 2.2184003309,
				"element": "H" 
			},
			{
				"x": 0.0876270275,
				"y": -3.7079147385,
				"z": -1.7041660816,
				"element": "H" 
			},
			{
				"x": 1.5209715189,
				"y": -3.4711105502,
				"z": -0.6888615955,
				"element": "H" 
			}
		],
		 "valence_orbital": [ 
			{
				"type": "occ",
				"energy": -0.2911,
				"method": "rhf"
			},
			{
				"type": "occ",
				"energy": -0.27137,
				"method": "rhf"
			},
			{
				"type": "occ",
				"energy": -0.26925,
				"method": "rhf"
			},
			{
				"type": "occ",
				"energy": -0.25358,
				"method": "rhf"
			},
			{
				"type": "occ",
				"energy": -0.24664,
				"method": "rhf"
			},
			{
				"type": "unocc",
				"energy": -0.03279,
				"method": "rhf"
			},
			{
				"type": "unocc",
				"energy": -0.02055,
				"method": "rhf"
			},
			{
				"type": "unocc",
				"energy": -0.0099,
				"method": "rhf"
			},
			{
				"type": "unocc",
				"energy": 0.02508,
				"method": "rhf"
			},
			{
				"type": "unocc",
				"energy": 0.06289,
				"method": "rhf"
			}
		],
		"cosmo_sigma_profile": { 
			"-0.025": 0.0,
			"-0.024": 0.0,
			"-0.023": 0.0,
			"-0.022": 0.0,
			"-0.021": 0.0,
			"-0.02": 0.0,
			"-0.019": 0.127097920755,
			"-0.018": 0.767341686072,
			"-0.017": 1.0324585205,
			"-0.016": 1.05991060126,
			"-0.015": 0.552212420549,
			"-0.014": 0.715703141276,
			"-0.013": 0.598279892563,
			"-0.012": 0.602905608566,
			"-0.011": 0.9623372558,
			"-0.01": 0.906618240387,
			"-0.009": 0.238204505815,
			"-0.008": 1.62005730556,
			"-0.007": 10.436802674,
			"-0.006": 20.5719688028,
			"-0.005": 23.1540529714,
			"-0.004": 21.6182372166,
			"-0.003": 21.4119362371,
			"-0.002": 20.5750463585,
			"-0.001": 18.2496599005,
			"0.0": 16.7222172703,
			"0.001": 19.9488984971,
			"0.002": 27.533662954,
			"0.003": 42.1007842293,
			"0.004": 11.032566432,
			"0.005": 3.8274047644,
			"0.006": 3.23609032361,
			"0.007": 3.00508312278,
			"0.008": 4.61041478724,
			"0.009": 3.70389604439,
			"0.01": 3.0460249037,
			"0.011": 6.10484939986,
			"0.012": 3.83255351539,
			"0.013": 3.66868304901,
			"0.014": 4.2788578373,
			"0.015": 0.790635344663,
			"0.016": 0.0,
			"0.017": 0.0,
			"0.018": 0.0,
			"0.019": 0.0,
			"0.02": 0.0,
			"0.021": 0.0,
			"0.022": 0.0,
			"0.023": 0.0,
			"0.024": 0.0,
			"0.025": 0.0
		}
	}
}
