{
	 "smiles": "O=C(NCCC1=CNC=N1)C1=NC=NC1", 
	 "Tm": 449.15, 
	 "num_atms": 26, 
	 "gaussian": { 
		 "optdone": 1, 
		 "sigma_profile": "yes", 
		 "theory": "DFT", 
		 "functional": "B3LYP", 
		 "basiset": "6-31G**", 
		 "properties": { 
			 "R2extent": 4951.1829, 
			 "electric_dipole_moment_norm": 7.46346756541, 
			 "electric_quadrupole_moment_norm": 18.7928603307, 
			 "total_energy": -698.548995216, 
			 "HOMO_LUMO_gap": 0.16677, 
			 "cosmo_polarized_energy": -19.79, 
			 "cosmo_cavitation_energy": 30.53, 
			 "cosmo_dispersion_energy": -22.5, 
			 "cosmo_repulsion_energy": 1.79, 
			 "cosmo_total_nonelectrostatic_energy": 9.81, 
			 "SMD_solvation_energy": 0.16 
		},
		"coords": [
			{
				"x": -1.7661219626,
				"y": 1.8270929048,
				"z": 0.9901308525,
				"element": "O" 
			},
			{
				"x": -1.7625255746,
				"y": 0.6839108093,
				"z": 0.5243650004,
				"element": "C" 
			},
			{
				"x": -0.8366454567,
				"y": 0.2722818528,
				"z": -0.3763958073,
				"element": "N" 
			},
			{
				"x": -0.7014176333,
				"y": -0.9921618518,
				"z": -1.0955197543,
				"element": "C" 
			},
			{
				"x": 0.7829914213,
				"y": -1.3216273344,
				"z": -1.3411642169,
				"element": "C" 
			},
			{
				"x": 1.4871394533,
				"y": -0.343410607,
				"z": -2.2370495223,
				"element": "C" 
			},
			{
				"x": 2.2042081054,
				"y": -0.5797602544,
				"z": -3.3853562055,
				"element": "C" 
			},
			{
				"x": 2.6371502954,
				"y": 0.6599054302,
				"z": -3.8156535567,
				"element": "N" 
			},
			{
				"x": 2.16920663,
				"y": 1.5834934387,
				"z": -2.929387108,
				"element": "C" 
			},
			{
				"x": 1.4758848432,
				"y": 1.0150086881,
				"z": -1.9668923408,
				"element": "N" 
			},
			{
				"x": -2.8326053756,
				"y": -0.2486033497,
				"z": 1.0188430087,
				"element": "C" 
			},
			{
				"x": -3.0942632997,
				"y": -1.460844103,
				"z": 0.6417680945,
				"element": "N" 
			},
			{
				"x": -4.2137662226,
				"y": -1.8316172076,
				"z": 1.4427079755,
				"element": "C" 
			},
			{
				"x": -4.6654343799,
				"y": -0.959795508,
				"z": 2.271801602,
				"element": "N" 
			},
			{
				"x": -3.7996700508,
				"y": 0.1944722566,
				"z": 2.0825347534,
				"element": "C" 
			},
			{
				"x": -0.1830218462,
				"y": 1.0024324898,
				"z": -0.6604135216,
				"element": "H" 
			},
			{
				"x": -1.1734972141,
				"y": -1.7852534061,
				"z": -0.5181987688,
				"element": "H" 
			},
			{
				"x": -1.2255753708,
				"y": -0.9397928822,
				"z": -2.0610592099,
				"element": "H" 
			},
			{
				"x": 1.2914565618,
				"y": -1.369232457,
				"z": -0.3695534558,
				"element": "H" 
			},
			{
				"x": 0.8446068503,
				"y": -2.3220139282,
				"z": -1.7834072966,
				"element": "H" 
			},
			{
				"x": 2.4402202891,
				"y": -1.4875573654,
				"z": -3.9186633466,
				"element": "H" 
			},
			{
				"x": 3.1980595315,
				"y": 0.8452765215,
				"z": -4.6329427356,
				"element": "H" 
			},
			{
				"x": 2.3612317732,
				"y": 2.6423442909,
				"z": -3.0332554235,
				"element": "H" 
			},
			{
				"x": -4.639851574,
				"y": -2.8235575321,
				"z": 1.3240495963,
				"element": "H" 
			},
			{
				"x": -4.3739437716,
				"y": 1.0781144397,
				"z": 1.7782647074,
				"element": "H" 
			},
			{
				"x": -3.296716022,
				"y": 0.4729946644,
				"z": 3.0169466796,
				"element": "H" 
			}
		],
		 "valence_orbital": [ 
			{
				"type": "occ",
				"energy": -0.2778,
				"method": "rhf"
			},
			{
				"type": "occ",
				"energy": -0.26975,
				"method": "rhf"
			},
			{
				"type": "occ",
				"energy": -0.24461,
				"method": "rhf"
			},
			{
				"type": "occ",
				"energy": -0.23967,
				"method": "rhf"
			},
			{
				"type": "occ",
				"energy": -0.23421,
				"method": "rhf"
			},
			{
				"type": "unocc",
				"energy": -0.06744,
				"method": "rhf"
			},
			{
				"type": "unocc",
				"energy": 0.0154,
				"method": "rhf"
			},
			{
				"type": "unocc",
				"energy": 0.03087,
				"method": "rhf"
			},
			{
				"type": "unocc",
				"energy": 0.05149,
				"method": "rhf"
			},
			{
				"type": "unocc",
				"energy": 0.06236,
				"method": "rhf"
			}
		],
		"cosmo_sigma_profile": { 
			"-0.025": 0.0,
			"-0.024": 0.0,
			"-0.023": 0.0,
			"-0.022": 0.0,
			"-0.021": 0.0,
			"-0.02": 0.0,
			"-0.019": 0.0,
			"-0.018": 0.0,
			"-0.017": 0.485736171484,
			"-0.016": 1.87048097531,
			"-0.015": 1.82204854821,
			"-0.014": 0.740599360359,
			"-0.013": 0.990858348792,
			"-0.012": 1.63888536656,
			"-0.011": 1.17451272698,
			"-0.01": 1.28696729848,
			"-0.009": 4.80962812128,
			"-0.008": 9.89962072688,
			"-0.007": 9.58914255066,
			"-0.006": 9.88341959333,
			"-0.005": 11.5868629309,
			"-0.004": 15.6795989944,
			"-0.003": 18.6069094433,
			"-0.002": 18.6986135152,
			"-0.001": 17.3597271897,
			"0.0": 14.4247267989,
			"0.001": 12.7862940762,
			"0.002": 12.6133262084,
			"0.003": 12.2634322565,
			"0.004": 11.6336183896,
			"0.005": 8.95476564712,
			"0.006": 6.77398318325,
			"0.007": 5.96120700511,
			"0.008": 4.31060020218,
			"0.009": 3.70651517076,
			"0.01": 4.51368001492,
			"0.011": 3.16335032573,
			"0.012": 4.21749848067,
			"0.013": 5.45166420216,
			"0.014": 4.48470376187,
			"0.015": 1.42526431564,
			"0.016": 0.689273718305,
			"0.017": 0.0228083979732,
			"0.018": 0.0,
			"0.019": 0.0,
			"0.02": 0.0,
			"0.021": 0.0,
			"0.022": 0.0,
			"0.023": 0.0,
			"0.024": 0.0,
			"0.025": 0.0
		}
	}
}
