{
	 "smiles": "CCN(CC)C(=O)CN1C=CC=C(C(O)=O)C1=O", 
	 "Tm": 388.15, 
	 "num_atms": 34, 
	 "gaussian": { 
		 "optdone": 1, 
		 "sigma_profile": "yes", 
		 "theory": "DFT", 
		 "functional": "B3LYP", 
		 "basiset": "6-31G**", 
		 "properties": { 
			 "R2extent": 6964.3067, 
			 "electric_dipole_moment_norm": 8.47046081568, 
			 "electric_quadrupole_moment_norm": 29.3979006679, 
			 "total_energy": -877.367922927, 
			 "HOMO_LUMO_gap": 0.16865, 
			 "cosmo_polarized_energy": -20.99, 
			 "cosmo_cavitation_energy": 36.76, 
			 "cosmo_dispersion_energy": -25.9, 
			 "cosmo_repulsion_energy": 1.99, 
			 "cosmo_total_nonelectrostatic_energy": 12.85, 
			 "SMD_solvation_energy": 8.37 
		},
		"coords": [
			{
				"x": 1.2232038251,
				"y": 1.3494512511,
				"z": 0.6979612085,
				"element": "C" 
			},
			{
				"x": -0.192831628,
				"y": 1.4878283431,
				"z": 1.2654772063,
				"element": "C" 
			},
			{
				"x": -0.6550794036,
				"y": 0.2898461846,
				"z": 1.9817471957,
				"element": "N" 
			},
			{
				"x": -0.3503725754,
				"y": 0.2065524629,
				"z": 3.4195965618,
				"element": "C" 
			},
			{
				"x": -1.4642149428,
				"y": 0.7848339524,
				"z": 4.295182675,
				"element": "C" 
			},
			{
				"x": -1.3099101498,
				"y": -0.7609583257,
				"z": 1.4192832926,
				"element": "C" 
			},
			{
				"x": -1.6739615205,
				"y": -1.7451544106,
				"z": 2.0613409548,
				"element": "O" 
			},
			{
				"x": -1.651912205,
				"y": -0.6916842709,
				"z": -0.0854516656,
				"element": "C" 
			},
			{
				"x": -1.477153091,
				"y": -2.0048710063,
				"z": -0.7105633647,
				"element": "N" 
			},
			{
				"x": -2.3677125307,
				"y": -3.005761709,
				"z": -0.4491485305,
				"element": "C" 
			},
			{
				"x": -2.2243359102,
				"y": -4.2508266512,
				"z": -1.0008699156,
				"element": "C" 
			},
			{
				"x": -1.1178599636,
				"y": -4.489439861,
				"z": -1.8412033598,
				"element": "C" 
			},
			{
				"x": -0.1946045216,
				"y": -3.5018352854,
				"z": -2.1028568303,
				"element": "C" 
			},
			{
				"x": 0.9674369417,
				"y": -3.819957666,
				"z": -3.0077742944,
				"element": "C" 
			},
			{
				"x": 1.8412102848,
				"y": -2.8298320944,
				"z": -3.2164826912,
				"element": "O" 
			},
			{
				"x": 1.0927787232,
				"y": -4.916075983,
				"z": -3.515455522,
				"element": "O" 
			},
			{
				"x": -0.3379859185,
				"y": -2.1922790589,
				"z": -1.5135684116,
				"element": "C" 
			},
			{
				"x": 0.4623012549,
				"y": -1.2432844785,
				"z": -1.6774807654,
				"element": "O" 
			},
			{
				"x": 1.5320082398,
				"y": 2.2870605679,
				"z": 0.2239392669,
				"element": "H" 
			},
			{
				"x": 1.9413564451,
				"y": 1.1214172757,
				"z": 1.4920026243,
				"element": "H" 
			},
			{
				"x": 1.2703972898,
				"y": 0.5515442661,
				"z": -0.048287184,
				"element": "H" 
			},
			{
				"x": -0.9025272503,
				"y": 1.7419526397,
				"z": 0.4740061139,
				"element": "H" 
			},
			{
				"x": -0.2390806746,
				"y": 2.3180812447,
				"z": 1.9780594097,
				"element": "H" 
			},
			{
				"x": -0.1911149322,
				"y": -0.8451537186,
				"z": 3.663051112,
				"element": "H" 
			},
			{
				"x": 0.591145085,
				"y": 0.7395714392,
				"z": 3.5870636712,
				"element": "H" 
			},
			{
				"x": -1.1833714467,
				"y": 0.726818819,
				"z": 5.3518221281,
				"element": "H" 
			},
			{
				"x": -2.3877622188,
				"y": 0.2170535203,
				"z": 4.1552927319,
				"element": "H" 
			},
			{
				"x": -1.6611927674,
				"y": 1.8355284167,
				"z": 4.0565028246,
				"element": "H" 
			},
			{
				"x": -1.0375596338,
				"y": 0.001413343,
				"z": -0.6514946732,
				"element": "H" 
			},
			{
				"x": -2.7025880141,
				"y": -0.3978057944,
				"z": -0.1772253973,
				"element": "H" 
			},
			{
				"x": -3.173127696,
				"y": -2.7451600006,
				"z": 0.2238042935,
				"element": "H" 
			},
			{
				"x": -2.9503719497,
				"y": -5.0235851868,
				"z": -0.7822717283,
				"element": "H" 
			},
			{
				"x": -0.9578153893,
				"y": -5.4572314266,
				"z": -2.3068375409,
				"element": "H" 
			},
			{
				"x": 1.5403082442,
				"y": -2.0343567984,
				"z": -2.7051613958,
				"element": "H" 
			}
		],
		 "valence_orbital": [ 
			{
				"type": "occ",
				"energy": -0.28418,
				"method": "rhf"
			},
			{
				"type": "occ",
				"energy": -0.27151,
				"method": "rhf"
			},
			{
				"type": "occ",
				"energy": -0.25727,
				"method": "rhf"
			},
			{
				"type": "occ",
				"energy": -0.25534,
				"method": "rhf"
			},
			{
				"type": "occ",
				"energy": -0.23791,
				"method": "rhf"
			},
			{
				"type": "unocc",
				"energy": -0.06926,
				"method": "rhf"
			},
			{
				"type": "unocc",
				"energy": -0.01357,
				"method": "rhf"
			},
			{
				"type": "unocc",
				"energy": 7e-05,
				"method": "rhf"
			},
			{
				"type": "unocc",
				"energy": 0.04714,
				"method": "rhf"
			},
			{
				"type": "unocc",
				"energy": 0.06621,
				"method": "rhf"
			}
		],
		"cosmo_sigma_profile": { 
			"-0.025": 0.0,
			"-0.024": 0.0,
			"-0.023": 0.0,
			"-0.022": 0.0,
			"-0.021": 0.0,
			"-0.02": 0.0,
			"-0.019": 0.0,
			"-0.018": 0.0,
			"-0.017": 0.0,
			"-0.016": 0.0,
			"-0.015": 0.0,
			"-0.014": 0.0,
			"-0.013": 0.0,
			"-0.012": 0.0,
			"-0.011": 0.303301703915,
			"-0.01": 2.24893968082,
			"-0.009": 4.57442089386,
			"-0.008": 8.58192780783,
			"-0.007": 9.39627363545,
			"-0.006": 10.1171554608,
			"-0.005": 16.4534199596,
			"-0.004": 23.8532750226,
			"-0.003": 31.3870689191,
			"-0.002": 28.3286284223,
			"-0.001": 24.8724527158,
			"0.0": 28.5797385291,
			"0.001": 23.8881010571,
			"0.002": 10.0569017559,
			"0.003": 5.30623788836,
			"0.004": 5.93453939214,
			"0.005": 6.06350725198,
			"0.006": 6.78537875627,
			"0.007": 5.57856776134,
			"0.008": 4.39555577347,
			"0.009": 5.17251322697,
			"0.01": 5.90820010641,
			"0.011": 6.47486952488,
			"0.012": 8.33494069106,
			"0.013": 6.29193668466,
			"0.014": 2.08333577912,
			"0.015": 0.0059852831275,
			"0.016": 0.0,
			"0.017": 0.0,
			"0.018": 0.0,
			"0.019": 0.0,
			"0.02": 0.0,
			"0.021": 0.0,
			"0.022": 0.0,
			"0.023": 0.0,
			"0.024": 0.0,
			"0.025": 0.0
		}
	}
}
