{
	 "smiles": "CC(C)CC1=CC=C(CC(O)=O)C=C1", 
	 "Tm": 359.15, 
	 "num_atms": 30, 
	 "gaussian": { 
		 "optdone": 1, 
		 "sigma_profile": "yes", 
		 "theory": "DFT", 
		 "functional": "B3LYP", 
		 "basiset": "6-31G**", 
		 "properties": { 
			 "R2extent": 5107.7979, 
			 "electric_dipole_moment_norm": 5.3957525388, 
			 "electric_quadrupole_moment_norm": 26.4269887176, 
			 "total_energy": -617.399299818, 
			 "HOMO_LUMO_gap": 0.22168, 
			 "cosmo_polarized_energy": -12.28, 
			 "cosmo_cavitation_energy": 32.81, 
			 "cosmo_dispersion_energy": -22.8, 
			 "cosmo_repulsion_energy": 1.82, 
			 "cosmo_total_nonelectrostatic_energy": 11.83, 
			 "SMD_solvation_energy": 6.56 
		},
		"coords": [
			{
				"x": 1.623068619,
				"y": -1.8731739053,
				"z": 2.463405486,
				"element": "C" 
			},
			{
				"x": 0.3827046227,
				"y": -1.2098882858,
				"z": 3.0767455183,
				"element": "C" 
			},
			{
				"x": 0.6676578564,
				"y": -0.7229009806,
				"z": 4.5044179473,
				"element": "C" 
			},
			{
				"x": -0.1420321075,
				"y": -0.0398004316,
				"z": 2.2056327775,
				"element": "C" 
			},
			{
				"x": -0.6304118799,
				"y": -0.4470806845,
				"z": 0.8323755219,
				"element": "C" 
			},
			{
				"x": -1.8636884046,
				"y": -1.100184873,
				"z": 0.6768962842,
				"element": "C" 
			},
			{
				"x": -2.3195918816,
				"y": -1.4958118704,
				"z": -0.5776301101,
				"element": "C" 
			},
			{
				"x": -1.5560869091,
				"y": -1.2552115116,
				"z": -1.7308788728,
				"element": "C" 
			},
			{
				"x": -2.0684093793,
				"y": -1.647599881,
				"z": -3.097846251,
				"element": "C" 
			},
			{
				"x": -2.9178295534,
				"y": -0.5911663117,
				"z": -3.8278862727,
				"element": "C" 
			},
			{
				"x": -2.7811928196,
				"y": 0.6879565944,
				"z": -3.4103119355,
				"element": "O" 
			},
			{
				"x": -3.6429888122,
				"y": -0.869885529,
				"z": -4.7496893997,
				"element": "O" 
			},
			{
				"x": -0.3243598551,
				"y": -0.601675799,
				"z": -1.5794660307,
				"element": "C" 
			},
			{
				"x": 0.1277514214,
				"y": -0.2036721364,
				"z": -0.3189985801,
				"element": "C" 
			},
			{
				"x": 1.9572941596,
				"y": -2.7174427679,
				"z": 3.0756088224,
				"element": "H" 
			},
			{
				"x": 2.4551931428,
				"y": -1.1606470608,
				"z": 2.4002640691,
				"element": "H" 
			},
			{
				"x": 1.4255349358,
				"y": -2.2474195307,
				"z": 1.4545447551,
				"element": "H" 
			},
			{
				"x": -0.4152346923,
				"y": -1.9648443704,
				"z": 3.1278279136,
				"element": "H" 
			},
			{
				"x": 1.0087696603,
				"y": -1.5461273716,
				"z": 5.1409831358,
				"element": "H" 
			},
			{
				"x": -0.2253028442,
				"y": -0.2884682679,
				"z": 4.9671729743,
				"element": "H" 
			},
			{
				"x": 1.4515345184,
				"y": 0.0443628398,
				"z": 4.5076743391,
				"element": "H" 
			},
			{
				"x": -0.9625660151,
				"y": 0.4503567304,
				"z": 2.7453974265,
				"element": "H" 
			},
			{
				"x": 0.6540895114,
				"y": 0.7092506353,
				"z": 2.1053742945,
				"element": "H" 
			},
			{
				"x": -2.477331726,
				"y": -1.2965614903,
				"z": 1.5528942782,
				"element": "H" 
			},
			{
				"x": -3.280517892,
				"y": -1.9963421161,
				"z": -0.6680970124,
				"element": "H" 
			},
			{
				"x": -1.2314754617,
				"y": -1.8745077897,
				"z": -3.7697693478,
				"element": "H" 
			},
			{
				"x": -2.6812718552,
				"y": -2.5514853262,
				"z": -3.0543190258,
				"element": "H" 
			},
			{
				"x": -2.194074054,
				"y": 0.7140922615,
				"z": -2.6368125282,
				"element": "H" 
			},
			{
				"x": 0.2942433411,
				"y": -0.4125917249,
				"z": -2.454217656,
				"element": "H" 
			},
			{
				"x": 1.0869243539,
				"y": 0.299970955,
				"z": -0.230492521,
				"element": "H" 
			}
		],
		 "valence_orbital": [ 
			{
				"type": "occ",
				"energy": -0.32901,
				"method": "rhf"
			},
			{
				"type": "occ",
				"energy": -0.30629,
				"method": "rhf"
			},
			{
				"type": "occ",
				"energy": -0.27432,
				"method": "rhf"
			},
			{
				"type": "occ",
				"energy": -0.26685,
				"method": "rhf"
			},
			{
				"type": "occ",
				"energy": -0.24477,
				"method": "rhf"
			},
			{
				"type": "unocc",
				"energy": -0.02309,
				"method": "rhf"
			},
			{
				"type": "unocc",
				"energy": -0.02041,
				"method": "rhf"
			},
			{
				"type": "unocc",
				"energy": 0.01936,
				"method": "rhf"
			},
			{
				"type": "unocc",
				"energy": 0.07673,
				"method": "rhf"
			},
			{
				"type": "unocc",
				"energy": 0.08564,
				"method": "rhf"
			}
		],
		"cosmo_sigma_profile": { 
			"-0.025": 0.0,
			"-0.024": 0.0,
			"-0.023": 0.0,
			"-0.022": 0.0,
			"-0.021": 0.0,
			"-0.02": 0.0,
			"-0.019": 0.0,
			"-0.018": 0.0,
			"-0.017": 0.0,
			"-0.016": 0.0,
			"-0.015": 0.0,
			"-0.014": 0.0109661809608,
			"-0.013": 0.247117780039,
			"-0.012": 0.69301575763,
			"-0.011": 1.31261739503,
			"-0.01": 0.33535729468,
			"-0.009": 1.48774995751,
			"-0.008": 2.8322676781,
			"-0.007": 6.02555034156,
			"-0.006": 12.1570075386,
			"-0.005": 13.3554316686,
			"-0.004": 14.2940083927,
			"-0.003": 22.647341863,
			"-0.002": 30.1976989593,
			"-0.001": 26.7511191679,
			"0.0": 24.6985174008,
			"0.001": 26.8609468815,
			"0.002": 19.722225506,
			"0.003": 8.68885395452,
			"0.004": 8.17396902575,
			"0.005": 6.60961368535,
			"0.006": 3.56763014149,
			"0.007": 1.75247115588,
			"0.008": 2.22639670542,
			"0.009": 3.6972486963,
			"0.01": 4.72538165912,
			"0.011": 4.32144793802,
			"0.012": 6.287121582,
			"0.013": 3.1748628083,
			"0.014": 0.224587977798,
			"0.015": 0.0,
			"0.016": 0.0,
			"0.017": 0.0,
			"0.018": 0.0,
			"0.019": 0.0,
			"0.02": 0.0,
			"0.021": 0.0,
			"0.022": 0.0,
			"0.023": 0.0,
			"0.024": 0.0,
			"0.025": 0.0
		}
	}
}
