{
	 "smiles": "O=C1NC2=C(CCC2)S1", 
	 "Tm": 416.15, 
	 "num_atms": 16, 
	 "gaussian": { 
		 "optdone": 1, 
		 "sigma_profile": "yes", 
		 "theory": "DFT", 
		 "functional": "B3LYP", 
		 "basiset": "6-31G**", 
		 "properties": { 
			 "R2extent": 2402.2785, 
			 "electric_dipole_moment_norm": 4.83287770485, 
			 "electric_quadrupole_moment_norm": 13.873976514, 
			 "total_energy": -761.024686276, 
			 "HOMO_LUMO_gap": 0.21544, 
			 "cosmo_polarized_energy": -10.6, 
			 "cosmo_cavitation_energy": 20.72, 
			 "cosmo_dispersion_energy": -16.5, 
			 "cosmo_repulsion_energy": 1.33, 
			 "cosmo_total_nonelectrostatic_energy": 5.54, 
			 "SMD_solvation_energy": 3.56 
		},
		"coords": [
			{
				"x": -1.6096435093,
				"y": 2.4246142652,
				"z": 2.7667696125,
				"element": "O" 
			},
			{
				"x": -1.5355848579,
				"y": 1.3416815487,
				"z": 2.2324954331,
				"element": "C" 
			},
			{
				"x": -0.6640326888,
				"y": 0.9692701503,
				"z": 1.2193235266,
				"element": "N" 
			},
			{
				"x": -0.798361558,
				"y": -0.330872203,
				"z": 0.7527218935,
				"element": "C" 
			},
			{
				"x": -1.755348602,
				"y": -1.050148982,
				"z": 1.3634090423,
				"element": "C" 
			},
			{
				"x": -1.7841356538,
				"y": -2.4808510628,
				"z": 0.9079554267,
				"element": "C" 
			},
			{
				"x": -0.8563717977,
				"y": -2.421683746,
				"z": -0.3499738618,
				"element": "C" 
			},
			{
				"x": 0.0021886656,
				"y": -1.1215060871,
				"z": -0.2384780009,
				"element": "C" 
			},
			{
				"x": -2.5785613944,
				"y": -0.1204711237,
				"z": 2.607068821,
				"element": "S" 
			},
			{
				"x": -0.0259850931,
				"y": 1.6609647339,
				"z": 0.8528114435,
				"element": "H" 
			},
			{
				"x": -2.7864787356,
				"y": -2.8438348069,
				"z": 0.6550442664,
				"element": "H" 
			},
			{
				"x": -1.3861338078,
				"y": -3.1553598745,
				"z": 1.6785450401,
				"element": "H" 
			},
			{
				"x": -1.4776248936,
				"y": -2.3610146326,
				"z": -1.2480806967,
				"element": "H" 
			},
			{
				"x": -0.2341623693,
				"y": -3.3153015027,
				"z": -0.4429818748,
				"element": "H" 
			},
			{
				"x": 1.0135371655,
				"y": -1.3257040721,
				"z": 0.1406798592,
				"element": "H" 
			},
			{
				"x": 0.1205991304,
				"y": -0.6233826047,
				"z": -1.2082099306,
				"element": "H" 
			}
		],
		 "valence_orbital": [ 
			{
				"type": "occ",
				"energy": -0.34724,
				"method": "rhf"
			},
			{
				"type": "occ",
				"energy": -0.32346,
				"method": "rhf"
			},
			{
				"type": "occ",
				"energy": -0.288,
				"method": "rhf"
			},
			{
				"type": "occ",
				"energy": -0.26716,
				"method": "rhf"
			},
			{
				"type": "occ",
				"energy": -0.20361,
				"method": "rhf"
			},
			{
				"type": "unocc",
				"energy": 0.01183,
				"method": "rhf"
			},
			{
				"type": "unocc",
				"energy": 0.01626,
				"method": "rhf"
			},
			{
				"type": "unocc",
				"energy": 0.0421,
				"method": "rhf"
			},
			{
				"type": "unocc",
				"energy": 0.0728,
				"method": "rhf"
			},
			{
				"type": "unocc",
				"energy": 0.08669,
				"method": "rhf"
			}
		],
		"cosmo_sigma_profile": { 
			"-0.025": 0.0,
			"-0.024": 0.0,
			"-0.023": 0.0,
			"-0.022": 0.0,
			"-0.021": 0.0,
			"-0.02": 0.0,
			"-0.019": 0.0,
			"-0.018": 0.0,
			"-0.017": 0.116335531753,
			"-0.016": 1.35298609949,
			"-0.015": 1.35640311262,
			"-0.014": 0.935398135782,
			"-0.013": 1.10581297695,
			"-0.012": 0.636961001558,
			"-0.011": 1.23751017886,
			"-0.01": 0.948783964538,
			"-0.009": 0.946335532426,
			"-0.008": 0.867815062001,
			"-0.007": 1.47654136552,
			"-0.006": 1.35792033966,
			"-0.005": 2.9875841399,
			"-0.004": 13.4723416684,
			"-0.003": 21.0502596367,
			"-0.002": 20.5108631955,
			"-0.001": 16.786866402,
			"0.0": 15.7895064311,
			"0.001": 10.8158704413,
			"0.002": 10.9329930485,
			"0.003": 8.5365085591,
			"0.004": 7.56221991754,
			"0.005": 4.70239198963,
			"0.006": 3.12200089464,
			"0.007": 2.07875924968,
			"0.008": 0.559540912135,
			"0.009": 0.94137522492,
			"0.01": 2.39921495125,
			"0.011": 2.22133445627,
			"0.012": 6.30851903559,
			"0.013": 3.11994770104,
			"0.014": 0.0603102436864,
			"0.015": 0.0,
			"0.016": 0.0,
			"0.017": 0.0,
			"0.018": 0.0,
			"0.019": 0.0,
			"0.02": 0.0,
			"0.021": 0.0,
			"0.022": 0.0,
			"0.023": 0.0,
			"0.024": 0.0,
			"0.025": 0.0
		}
	}
}
