{
	 "smiles": "OC1=NC(C2=CC=CC=C2)=C(N=N1)C1=CC=CC=C1", 
	 "Tm": 496.15, 
	 "num_atms": 30, 
	 "gaussian": { 
		 "optdone": 1, 
		 "sigma_profile": "yes", 
		 "theory": "DFT", 
		 "functional": "B3LYP", 
		 "basiset": "6-31G**", 
		 "properties": { 
			 "R2extent": 5250.5551, 
			 "electric_dipole_moment_norm": 4.90776110564, 
			 "electric_quadrupole_moment_norm": 14.6711999441, 
			 "total_energy": -817.67166037, 
			 "HOMO_LUMO_gap": 0.15575, 
			 "cosmo_polarized_energy": -14.94, 
			 "cosmo_cavitation_energy": 34.74, 
			 "cosmo_dispersion_energy": -24.77, 
			 "cosmo_repulsion_energy": 1.91, 
			 "cosmo_total_nonelectrostatic_energy": 11.88, 
			 "SMD_solvation_energy": 3.44 
		},
		"coords": [
			{
				"x": -2.9638800839,
				"y": -2.8002739469,
				"z": -2.3766195904,
				"element": "O" 
			},
			{
				"x": -1.9765841405,
				"y": -2.0705482616,
				"z": -1.8379910657,
				"element": "C" 
			},
			{
				"x": -1.6549373169,
				"y": -2.2996839658,
				"z": -0.5653695629,
				"element": "N" 
			},
			{
				"x": -0.70191137,
				"y": -1.5253816446,
				"z": -0.0340294159,
				"element": "C" 
			},
			{
				"x": -0.2506452137,
				"y": -1.8996996689,
				"z": 1.3300027566,
				"element": "C" 
			},
			{
				"x": 1.1006195228,
				"y": -1.8279121889,
				"z": 1.7067988111,
				"element": "C" 
			},
			{
				"x": 1.5011506068,
				"y": -2.250676583,
				"z": 2.9726016007,
				"element": "C" 
			},
			{
				"x": 0.5602674692,
				"y": -2.7374776108,
				"z": 3.8828889184,
				"element": "C" 
			},
			{
				"x": -0.7848432061,
				"y": -2.8158273333,
				"z": 3.5152335403,
				"element": "C" 
			},
			{
				"x": -1.1863301765,
				"y": -2.4111982098,
				"z": 2.2441267082,
				"element": "C" 
			},
			{
				"x": -0.1757907458,
				"y": -0.4616596325,
				"z": -0.820323051,
				"element": "C" 
			},
			{
				"x": -0.5047663321,
				"y": -0.3778443911,
				"z": -2.1210687958,
				"element": "N" 
			},
			{
				"x": -1.3846679065,
				"y": -1.2013611402,
				"z": -2.6665156939,
				"element": "N" 
			},
			{
				"x": 0.7204684625,
				"y": 0.6199700145,
				"z": -0.3346853376,
				"element": "C" 
			},
			{
				"x": 0.5027911056,
				"y": 1.2528368211,
				"z": 0.8997272124,
				"element": "C" 
			},
			{
				"x": 1.3196455684,
				"y": 2.3057925421,
				"z": 1.3081566264,
				"element": "C" 
			},
			{
				"x": 2.365184413,
				"y": 2.7422285691,
				"z": 0.4916175,
				"element": "C" 
			},
			{
				"x": 2.5820966397,
				"y": 2.1259209965,
				"z": -0.7425305908,
				"element": "C" 
			},
			{
				"x": 1.7627505433,
				"y": 1.0771048945,
				"z": -1.1567768184,
				"element": "C" 
			},
			{
				"x": -3.2673255762,
				"y": -3.4076071985,
				"z": -1.6843139106,
				"element": "H" 
			},
			{
				"x": 1.8385489797,
				"y": -1.4555426841,
				"z": 1.0051393846,
				"element": "H" 
			},
			{
				"x": 2.5506313878,
				"y": -2.2014970041,
				"z": 3.2471630704,
				"element": "H" 
			},
			{
				"x": 0.8746632968,
				"y": -3.0581621112,
				"z": 4.8718523357,
				"element": "H" 
			},
			{
				"x": -1.5207532287,
				"y": -3.1967944162,
				"z": 4.2172723972,
				"element": "H" 
			},
			{
				"x": -2.2260155348,
				"y": -2.486023411,
				"z": 1.9442326579,
				"element": "H" 
			},
			{
				"x": -0.3136793071,
				"y": 0.9276658285,
				"z": 1.5363767342,
				"element": "H" 
			},
			{
				"x": 1.134321461,
				"y": 2.7900404435,
				"z": 2.262562966,
				"element": "H" 
			},
			{
				"x": 3.0025947697,
				"y": 3.5610154231,
				"z": 0.8127291118,
				"element": "H" 
			},
			{
				"x": 3.3890571721,
				"y": 2.4640485307,
				"z": -1.3861953159,
				"element": "H" 
			},
			{
				"x": 1.9140387406,
				"y": 0.6065473387,
				"z": -2.1222631832,
				"element": "H" 
			}
		],
		 "valence_orbital": [ 
			{
				"type": "occ",
				"energy": -0.26967,
				"method": "rhf"
			},
			{
				"type": "occ",
				"energy": -0.26258,
				"method": "rhf"
			},
			{
				"type": "occ",
				"energy": -0.2531,
				"method": "rhf"
			},
			{
				"type": "occ",
				"energy": -0.23336,
				"method": "rhf"
			},
			{
				"type": "occ",
				"energy": -0.23158,
				"method": "rhf"
			},
			{
				"type": "unocc",
				"energy": -0.07583,
				"method": "rhf"
			},
			{
				"type": "unocc",
				"energy": -0.04777,
				"method": "rhf"
			},
			{
				"type": "unocc",
				"energy": -0.01677,
				"method": "rhf"
			},
			{
				"type": "unocc",
				"energy": -0.00334,
				"method": "rhf"
			},
			{
				"type": "unocc",
				"energy": 0.00096,
				"method": "rhf"
			}
		],
		"cosmo_sigma_profile": { 
			"-0.025": 0.0,
			"-0.024": 0.0,
			"-0.023": 0.0,
			"-0.022": 0.0,
			"-0.021": 0.0,
			"-0.02": 0.0,
			"-0.019": 0.0612852998617,
			"-0.018": 0.956000459074,
			"-0.017": 0.85663610873,
			"-0.016": 0.707817573286,
			"-0.015": 0.348967224311,
			"-0.014": 1.14259136502,
			"-0.013": 0.622627043536,
			"-0.012": 0.75297401863,
			"-0.011": 0.61287533925,
			"-0.01": 0.766940854406,
			"-0.009": 0.533636723295,
			"-0.008": 0.949175737291,
			"-0.007": 1.96795816178,
			"-0.006": 16.9286362437,
			"-0.005": 24.6359374519,
			"-0.004": 28.2472298723,
			"-0.003": 22.6592253683,
			"-0.002": 19.5678467176,
			"-0.001": 16.3267167105,
			"0.0": 16.5516362446,
			"0.001": 16.2068796209,
			"0.002": 18.1282983165,
			"0.003": 18.9852168515,
			"0.004": 24.1105286418,
			"0.005": 15.2172117343,
			"0.006": 4.25315361835,
			"0.007": 4.39842122788,
			"0.008": 3.38612533383,
			"0.009": 4.82934047933,
			"0.01": 5.10237618291,
			"0.011": 2.42609696427,
			"0.012": 3.3915816983,
			"0.013": 2.03961383829,
			"0.014": 1.69925582695,
			"0.015": 0.44359853838,
			"0.016": 0.0,
			"0.017": 0.0,
			"0.018": 0.0,
			"0.019": 0.0,
			"0.02": 0.0,
			"0.021": 0.0,
			"0.022": 0.0,
			"0.023": 0.0,
			"0.024": 0.0,
			"0.025": 0.0
		}
	}
}
