{
	 "smiles": "FC1=C(C=C(Br)C=C1)C1NC(=O)NC1=O", 
	 "Tm": 468.15, 
	 "num_atms": 21, 
	 "gaussian": { 
		 "optdone": 1, 
		 "sigma_profile": "yes", 
		 "theory": "DFT", 
		 "functional": "B3LYP", 
		 "basiset": "6-31G**", 
		 "properties": { 
			 "R2extent": 5681.5248, 
			 "electric_dipole_moment_norm": 2.29477367294, 
			 "electric_quadrupole_moment_norm": 14.9996187942, 
			 "total_energy": -3277.79724851, 
			 "HOMO_LUMO_gap": 0.21001, 
			 "cosmo_polarized_energy": -17.77, 
			 "cosmo_cavitation_energy": 29.03, 
			 "cosmo_dispersion_energy": -21.27, 
			 "cosmo_repulsion_energy": 1.68, 
			 "cosmo_total_nonelectrostatic_energy": 9.44, 
			 "SMD_solvation_energy": 5.01 
		},
		"coords": [
			{
				"x": 1.5392145326,
				"y": 0.8031441523,
				"z": 0.9412073798,
				"element": "F" 
			},
			{
				"x": 1.082549253,
				"y": -0.4668287565,
				"z": 0.9074889787,
				"element": "C" 
			},
			{
				"x": 0.2047097259,
				"y": -0.8317601499,
				"z": -0.1167779587,
				"element": "C" 
			},
			{
				"x": -0.2466382219,
				"y": -2.15435708,
				"z": -0.1450516848,
				"element": "C" 
			},
			{
				"x": 0.1741901155,
				"y": -3.062756008,
				"z": 0.8257273854,
				"element": "C" 
			},
			{
				"x": -0.4621833177,
				"y": -4.8608714534,
				"z": 0.7633274689,
				"element": "Br" 
			},
			{
				"x": 1.0480363695,
				"y": -2.6766950742,
				"z": 1.8402315091,
				"element": "C" 
			},
			{
				"x": 1.5091906189,
				"y": -1.3600667625,
				"z": 1.879085749,
				"element": "C" 
			},
			{
				"x": -0.2592069575,
				"y": 0.1723650939,
				"z": -1.1510610299,
				"element": "C" 
			},
			{
				"x": -1.0055905835,
				"y": 1.301943198,
				"z": -0.6165826109,
				"element": "N" 
			},
			{
				"x": -0.4256211602,
				"y": 2.5196723062,
				"z": -0.8797021872,
				"element": "C" 
			},
			{
				"x": -0.7731606696,
				"y": 3.6176242715,
				"z": -0.5035532841,
				"element": "O" 
			},
			{
				"x": 0.6753675715,
				"y": 2.2352799562,
				"z": -1.7158824809,
				"element": "N" 
			},
			{
				"x": 0.904356002,
				"y": 0.8891030303,
				"z": -1.8894656864,
				"element": "C" 
			},
			{
				"x": 1.8045524296,
				"y": 0.3612748154,
				"z": -2.5013858169,
				"element": "O" 
			},
			{
				"x": -0.9254055663,
				"y": -2.4743719016,
				"z": -0.928282271,
				"element": "H" 
			},
			{
				"x": 1.3685030986,
				"y": -3.3914792543,
				"z": 2.5889877882,
				"element": "H" 
			},
			{
				"x": 2.1956403484,
				"y": -1.0237677613,
				"z": 2.6481594723,
				"element": "H" 
			},
			{
				"x": -0.8403706057,
				"y": -0.3636973162,
				"z": -1.9128462442,
				"element": "H" 
			},
			{
				"x": -1.732922816,
				"y": 1.2263705975,
				"z": 0.0770123894,
				"element": "H" 
			},
			{
				"x": 1.2973898327,
				"y": 2.9597740969,
				"z": -2.0443368659,
				"element": "H" 
			}
		],
		 "valence_orbital": [ 
			{
				"type": "occ",
				"energy": -0.29414,
				"method": "rhf"
			},
			{
				"type": "occ",
				"energy": -0.28498,
				"method": "rhf"
			},
			{
				"type": "occ",
				"energy": -0.27645,
				"method": "rhf"
			},
			{
				"type": "occ",
				"energy": -0.26725,
				"method": "rhf"
			},
			{
				"type": "occ",
				"energy": -0.25276,
				"method": "rhf"
			},
			{
				"type": "unocc",
				"energy": -0.04275,
				"method": "rhf"
			},
			{
				"type": "unocc",
				"energy": -0.02946,
				"method": "rhf"
			},
			{
				"type": "unocc",
				"energy": -0.01941,
				"method": "rhf"
			},
			{
				"type": "unocc",
				"energy": -0.003,
				"method": "rhf"
			},
			{
				"type": "unocc",
				"energy": 0.06038,
				"method": "rhf"
			}
		],
		"cosmo_sigma_profile": { 
			"-0.025": 0.0,
			"-0.024": 0.0,
			"-0.023": 0.0,
			"-0.022": 0.0,
			"-0.021": 0.0,
			"-0.02": 0.0,
			"-0.019": 0.0,
			"-0.018": 0.0,
			"-0.017": 0.654591212711,
			"-0.016": 1.94228103713,
			"-0.015": 2.25438352065,
			"-0.014": 1.64664831892,
			"-0.013": 1.88660689749,
			"-0.012": 1.81201282446,
			"-0.011": 2.5608432965,
			"-0.01": 2.56024345967,
			"-0.009": 5.99011576372,
			"-0.008": 9.1295273688,
			"-0.007": 10.5570235082,
			"-0.006": 7.26553951133,
			"-0.005": 7.54631278208,
			"-0.004": 9.70697875278,
			"-0.003": 8.8494070278,
			"-0.002": 11.5533445101,
			"-0.001": 14.6316416059,
			"0.0": 17.2539057773,
			"0.001": 24.2144118389,
			"0.002": 21.7069630704,
			"0.003": 14.9585312974,
			"0.004": 16.3711330673,
			"0.005": 4.86038630504,
			"0.006": 2.73502457834,
			"0.007": 2.95206337756,
			"0.008": 2.93741454853,
			"0.009": 1.710488141,
			"0.01": 3.84279206424,
			"0.011": 6.94938246494,
			"0.012": 9.96409413657,
			"0.013": 4.89991749077,
			"0.014": 0.235488206578,
			"0.015": 0.0,
			"0.016": 0.0,
			"0.017": 0.0,
			"0.018": 0.0,
			"0.019": 0.0,
			"0.02": 0.0,
			"0.021": 0.0,
			"0.022": 0.0,
			"0.023": 0.0,
			"0.024": 0.0,
			"0.025": 0.0
		}
	}
}
