{
	 "smiles": "CC1=NNC(=N1)C1=NC=CC=C1", 
	 "Tm": 441.15, 
	 "num_atms": 20, 
	 "gaussian": { 
		 "optdone": 1, 
		 "sigma_profile": "yes", 
		 "theory": "DFT", 
		 "functional": "B3LYP", 
		 "basiset": "6-31G**", 
		 "properties": { 
			 "R2extent": 2780.481, 
			 "electric_dipole_moment_norm": 2.95334411642, 
			 "electric_quadrupole_moment_norm": 8.47951151718, 
			 "total_energy": -528.681238338, 
			 "HOMO_LUMO_gap": 0.18265, 
			 "cosmo_polarized_energy": -10.3, 
			 "cosmo_cavitation_energy": 24.73, 
			 "cosmo_dispersion_energy": -18.65, 
			 "cosmo_repulsion_energy": 1.49, 
			 "cosmo_total_nonelectrostatic_energy": 7.57, 
			 "SMD_solvation_energy": 0.67 
		},
		"coords": [
			{
				"x": 2.4907120141,
				"y": -1.922458706,
				"z": -2.1244778537,
				"element": "C" 
			},
			{
				"x": 2.2357871982,
				"y": -0.9414460345,
				"z": -1.0236454402,
				"element": "C" 
			},
			{
				"x": 3.2033375028,
				"y": -0.1952242162,
				"z": -0.4877296387,
				"element": "N" 
			},
			{
				"x": 2.5323156872,
				"y": 0.5208413939,
				"z": 0.4413079371,
				"element": "N" 
			},
			{
				"x": 1.2212980192,
				"y": 0.1962721983,
				"z": 0.4396022689,
				"element": "C" 
			},
			{
				"x": 0.9994426574,
				"y": -0.7340028479,
				"z": -0.4836542794,
				"element": "N" 
			},
			{
				"x": 0.251817549,
				"y": 0.8158737554,
				"z": 1.3447038355,
				"element": "C" 
			},
			{
				"x": 0.7477275864,
				"y": 1.7395140896,
				"z": 2.1895566122,
				"element": "N" 
			},
			{
				"x": -0.1064208155,
				"y": 2.3276741087,
				"z": 3.0315996745,
				"element": "C" 
			},
			{
				"x": -1.4711055834,
				"y": 2.0340362884,
				"z": 3.0767117605,
				"element": "C" 
			},
			{
				"x": -1.9724977418,
				"y": 1.0746250766,
				"z": 2.1955802191,
				"element": "C" 
			},
			{
				"x": -1.0995575716,
				"y": 0.4498869407,
				"z": 1.3100812912,
				"element": "C" 
			},
			{
				"x": 1.5550580731,
				"y": -2.4122483383,
				"z": -2.3984940134,
				"element": "H" 
			},
			{
				"x": 2.9008309474,
				"y": -1.4247694353,
				"z": -3.0087185235,
				"element": "H" 
			},
			{
				"x": 3.2107648171,
				"y": -2.6856572916,
				"z": -1.8133042596,
				"element": "H" 
			},
			{
				"x": 2.9880540922,
				"y": 1.1975380729,
				"z": 1.0364148363,
				"element": "H" 
			},
			{
				"x": 0.3194540886,
				"y": 3.070261202,
				"z": 3.7037699716,
				"element": "H" 
			},
			{
				"x": -2.1175099046,
				"y": 2.5446522873,
				"z": 3.7830189374,
				"element": "H" 
			},
			{
				"x": -3.0277545765,
				"y": 0.8176341697,
				"z": 2.1989111381,
				"element": "H" 
			},
			{
				"x": -1.4284540394,
				"y": -0.3025027137,
				"z": 0.6023655259,
				"element": "H" 
			}
		],
		 "valence_orbital": [ 
			{
				"type": "occ",
				"energy": -0.29654,
				"method": "rhf"
			},
			{
				"type": "occ",
				"energy": -0.27756,
				"method": "rhf"
			},
			{
				"type": "occ",
				"energy": -0.27385,
				"method": "rhf"
			},
			{
				"type": "occ",
				"energy": -0.27074,
				"method": "rhf"
			},
			{
				"type": "occ",
				"energy": -0.23455,
				"method": "rhf"
			},
			{
				"type": "unocc",
				"energy": -0.0519,
				"method": "rhf"
			},
			{
				"type": "unocc",
				"energy": -0.02869,
				"method": "rhf"
			},
			{
				"type": "unocc",
				"energy": 0.03598,
				"method": "rhf"
			},
			{
				"type": "unocc",
				"energy": 0.07102,
				"method": "rhf"
			},
			{
				"type": "unocc",
				"energy": 0.08983,
				"method": "rhf"
			}
		],
		"cosmo_sigma_profile": { 
			"-0.025": 0.0,
			"-0.024": 0.0,
			"-0.023": 0.0,
			"-0.022": 0.0,
			"-0.021": 0.0,
			"-0.02": 0.0,
			"-0.019": 0.0,
			"-0.018": 0.0,
			"-0.017": 0.0217538192668,
			"-0.016": 0.675232809553,
			"-0.015": 1.04572571065,
			"-0.014": 0.743445732649,
			"-0.013": 0.529604392533,
			"-0.012": 0.490161389237,
			"-0.011": 0.899866461069,
			"-0.01": 0.482873263635,
			"-0.009": 0.54462331131,
			"-0.008": 1.70474709878,
			"-0.007": 7.8817554567,
			"-0.006": 10.0202868041,
			"-0.005": 12.8320180992,
			"-0.004": 12.4933950809,
			"-0.003": 11.374185156,
			"-0.002": 12.4739825289,
			"-0.001": 19.024750682,
			"0.0": 20.4222020872,
			"0.001": 21.830044953,
			"0.002": 17.4742171638,
			"0.003": 7.18926184749,
			"0.004": 5.86556934337,
			"0.005": 4.84115722779,
			"0.006": 4.90714113081,
			"0.007": 3.36917600845,
			"0.008": 2.95837241472,
			"0.009": 3.76995006995,
			"0.01": 3.05977239721,
			"0.011": 2.63549979543,
			"0.012": 1.70516873114,
			"0.013": 2.05499909525,
			"0.014": 1.76258984649,
			"0.015": 1.37967938979,
			"0.016": 0.0725366605587,
			"0.017": 0.0,
			"0.018": 0.0,
			"0.019": 0.0,
			"0.02": 0.0,
			"0.021": 0.0,
			"0.022": 0.0,
			"0.023": 0.0,
			"0.024": 0.0,
			"0.025": 0.0
		}
	}
}
