{
	 "smiles": "CC(C)CCOC1=CC=C(C=C1)C1(C)NC(=O)NC1=O", 
	 "Tm": 384.15, 
	 "num_atms": 40, 
	 "gaussian": { 
		 "optdone": 1, 
		 "sigma_profile": "yes", 
		 "theory": "DFT", 
		 "functional": "B3LYP", 
		 "basiset": "6-31G**", 
		 "properties": { 
			 "R2extent": 10254.0775, 
			 "electric_dipole_moment_norm": 3.5107722142, 
			 "electric_quadrupole_moment_norm": 13.9408661901, 
			 "total_energy": -918.875310214, 
			 "HOMO_LUMO_gap": 0.20542, 
			 "cosmo_polarized_energy": -18.24, 
			 "cosmo_cavitation_energy": 42.66, 
			 "cosmo_dispersion_energy": -29.93, 
			 "cosmo_repulsion_energy": 2.33, 
			 "cosmo_total_nonelectrostatic_energy": 15.06, 
			 "SMD_solvation_energy": 8.93 
		},
		"coords": [
			{
				"x": 0.5990965785,
				"y": 4.8399501491,
				"z": -2.9951820025,
				"element": "C" 
			},
			{
				"x": -0.7194878986,
				"y": 5.0745822395,
				"z": -2.2399127289,
				"element": "C" 
			},
			{
				"x": -1.9296734769,
				"y": 4.6558874596,
				"z": -3.0909081613,
				"element": "C" 
			},
			{
				"x": -0.7256976785,
				"y": 4.4310577966,
				"z": -0.8356897351,
				"element": "C" 
			},
			{
				"x": -0.6166283571,
				"y": 2.9098979555,
				"z": -0.808934135,
				"element": "C" 
			},
			{
				"x": -0.6380995504,
				"y": 2.516580338,
				"z": 0.5645926662,
				"element": "O" 
			},
			{
				"x": -0.5562028065,
				"y": 1.1914571975,
				"z": 0.86927295,
				"element": "C" 
			},
			{
				"x": -0.596290733,
				"y": 0.874590071,
				"z": 2.2367582919,
				"element": "C" 
			},
			{
				"x": -0.5119723857,
				"y": -0.4451658339,
				"z": 2.6549061844,
				"element": "C" 
			},
			{
				"x": -0.3879370422,
				"y": -1.4922794762,
				"z": 1.7239352341,
				"element": "C" 
			},
			{
				"x": -0.3662163457,
				"y": -1.1675172875,
				"z": 0.3675310841,
				"element": "C" 
			},
			{
				"x": -0.4440288637,
				"y": 0.1593644463,
				"z": -0.0679320272,
				"element": "C" 
			},
			{
				"x": -0.2711291738,
				"y": -2.9411848049,
				"z": 2.2095082375,
				"element": "C" 
			},
			{
				"x": 0.9544729014,
				"y": -3.1379502367,
				"z": 3.1258769062,
				"element": "C" 
			},
			{
				"x": -0.2789359883,
				"y": -3.9126445538,
				"z": 1.1164708143,
				"element": "N" 
			},
			{
				"x": -1.2914637138,
				"y": -4.8363999199,
				"z": 1.1952843514,
				"element": "C" 
			},
			{
				"x": -1.4908974577,
				"y": -5.8033768126,
				"z": 0.4904533217,
				"element": "O" 
			},
			{
				"x": -2.0801923886,
				"y": -4.4317258815,
				"z": 2.29226661,
				"element": "N" 
			},
			{
				"x": -1.5534308566,
				"y": -3.3613711067,
				"z": 2.9802483395,
				"element": "C" 
			},
			{
				"x": -1.9867796466,
				"y": -2.8591297685,
				"z": 3.9956065441,
				"element": "O" 
			},
			{
				"x": 1.4638266613,
				"y": 5.142020634,
				"z": -2.3940735791,
				"element": "H" 
			},
			{
				"x": 0.6214480416,
				"y": 5.4173160383,
				"z": -3.9255473238,
				"element": "H" 
			},
			{
				"x": 0.7323408881,
				"y": 3.7861739112,
				"z": -3.2658560143,
				"element": "H" 
			},
			{
				"x": -0.8047015624,
				"y": 6.1565489425,
				"z": -2.0677142976,
				"element": "H" 
			},
			{
				"x": -2.8716811554,
				"y": 4.8263582288,
				"z": -2.5581888949,
				"element": "H" 
			},
			{
				"x": -1.9652504295,
				"y": 5.2290953556,
				"z": -4.0234310814,
				"element": "H" 
			},
			{
				"x": -1.8884957813,
				"y": 3.595448399,
				"z": -3.3650768952,
				"element": "H" 
			},
			{
				"x": 0.1044654125,
				"y": 4.8383463481,
				"z": -0.2458195745,
				"element": "H" 
			},
			{
				"x": -1.6474439077,
				"y": 4.7114209707,
				"z": -0.3115959295,
				"element": "H" 
			},
			{
				"x": 0.3161358613,
				"y": 2.566867324,
				"z": -1.2768256118,
				"element": "H" 
			},
			{
				"x": -1.4539906836,
				"y": 2.4387285898,
				"z": -1.3411283247,
				"element": "H" 
			},
			{
				"x": -0.6993643645,
				"y": 1.6837587737,
				"z": 2.9523385711,
				"element": "H" 
			},
			{
				"x": -0.5763269806,
				"y": -0.6706524117,
				"z": 3.7137572256,
				"element": "H" 
			},
			{
				"x": -0.2993543335,
				"y": -1.9568400515,
				"z": -0.3735935923,
				"element": "H" 
			},
			{
				"x": -0.4216164391,
				"y": 0.3686353547,
				"z": -1.1306161236,
				"element": "H" 
			},
			{
				"x": 1.0235018707,
				"y": -4.1780271788,
				"z": 3.4592671834,
				"element": "H" 
			},
			{
				"x": 0.8782548378,
				"y": -2.49614121,
				"z": 4.0055973197,
				"element": "H" 
			},
			{
				"x": 1.8696002052,
				"y": -2.8762547988,
				"z": 2.5859729201,
				"element": "H" 
			},
			{
				"x": 0.5266991966,
				"y": -4.1140053953,
				"z": 0.5441578148,
				"element": "H" 
			},
			{
				"x": -2.911052454,
				"y": -4.9332197951,
				"z": 2.5719234625,
				"element": "H" 
			}
		],
		 "valence_orbital": [ 
			{
				"type": "occ",
				"energy": -0.28711,
				"method": "rhf"
			},
			{
				"type": "occ",
				"energy": -0.27004,
				"method": "rhf"
			},
			{
				"type": "occ",
				"energy": -0.26171,
				"method": "rhf"
			},
			{
				"type": "occ",
				"energy": -0.25297,
				"method": "rhf"
			},
			{
				"type": "occ",
				"energy": -0.21902,
				"method": "rhf"
			},
			{
				"type": "unocc",
				"energy": -0.0136,
				"method": "rhf"
			},
			{
				"type": "unocc",
				"energy": -0.00476,
				"method": "rhf"
			},
			{
				"type": "unocc",
				"energy": 0.01296,
				"method": "rhf"
			},
			{
				"type": "unocc",
				"energy": 0.06111,
				"method": "rhf"
			},
			{
				"type": "unocc",
				"energy": 0.06783,
				"method": "rhf"
			}
		],
		"cosmo_sigma_profile": { 
			"-0.025": 0.0,
			"-0.024": 0.0,
			"-0.023": 0.0,
			"-0.022": 0.0,
			"-0.021": 0.0,
			"-0.02": 0.0,
			"-0.019": 0.0,
			"-0.018": 0.0,
			"-0.017": 0.461454523323,
			"-0.016": 1.45994659658,
			"-0.015": 1.70314715921,
			"-0.014": 2.32696856843,
			"-0.013": 1.5688975225,
			"-0.012": 2.09284035393,
			"-0.011": 1.74189226276,
			"-0.01": 2.18148376265,
			"-0.009": 1.8276972913,
			"-0.008": 2.56221689176,
			"-0.007": 2.74714424987,
			"-0.006": 7.90020785094,
			"-0.005": 16.2905476492,
			"-0.004": 21.6178361968,
			"-0.003": 31.457507136,
			"-0.002": 40.9218015741,
			"-0.001": 38.930729083,
			"0.0": 30.6175989646,
			"0.001": 25.1660045395,
			"0.002": 16.1228973749,
			"0.003": 12.4853817328,
			"0.004": 12.2197955007,
			"0.005": 15.4742906132,
			"0.006": 6.42150173616,
			"0.007": 3.87639892318,
			"0.008": 3.99050513362,
			"0.009": 4.40493600974,
			"0.01": 5.55623304132,
			"0.011": 4.68876661772,
			"0.012": 8.76905039147,
			"0.013": 6.23569351175,
			"0.014": 0.688878916968,
			"0.015": 0.0,
			"0.016": 0.0,
			"0.017": 0.0,
			"0.018": 0.0,
			"0.019": 0.0,
			"0.02": 0.0,
			"0.021": 0.0,
			"0.022": 0.0,
			"0.023": 0.0,
			"0.024": 0.0,
			"0.025": 0.0
		}
	}
}
