{
	 "smiles": "COC(=O)NS(Cl)(=O)=O", 
	 "Tm": 343.15, 
	 "num_atms": 13, 
	 "gaussian": { 
		 "optdone": 1, 
		 "sigma_profile": "yes", 
		 "theory": "DFT", 
		 "functional": "B3LYP", 
		 "basiset": "6-31G**", 
		 "properties": { 
			 "R2extent": 2022.2773, 
			 "electric_dipole_moment_norm": 5.1182852187, 
			 "electric_quadrupole_moment_norm": 9.29256823758, 
			 "total_energy": -1292.57732128, 
			 "HOMO_LUMO_gap": 0.22336, 
			 "cosmo_polarized_energy": -13.32, 
			 "cosmo_cavitation_energy": 21.64, 
			 "cosmo_dispersion_energy": -16.61, 
			 "cosmo_repulsion_energy": 1.34, 
			 "cosmo_total_nonelectrostatic_energy": 6.37, 
			 "SMD_solvation_energy": 4.38 
		},
		"coords": [
			{
				"x": -1.7902636745,
				"y": -2.4513832771,
				"z": -2.9652281749,
				"element": "C" 
			},
			{
				"x": -1.6563693976,
				"y": -1.8611214176,
				"z": -1.6553169586,
				"element": "O" 
			},
			{
				"x": -0.4938582508,
				"y": -1.2205711946,
				"z": -1.4460131842,
				"element": "C" 
			},
			{
				"x": 0.4220951868,
				"y": -1.1084833861,
				"z": -2.21960669,
				"element": "O" 
			},
			{
				"x": -0.5290159498,
				"y": -0.6852560405,
				"z": -0.1457969606,
				"element": "N" 
			},
			{
				"x": 0.7693370742,
				"y": 0.0586182962,
				"z": 0.6083431315,
				"element": "S" 
			},
			{
				"x": 2.1451710828,
				"y": -1.5137707037,
				"z": 0.8303080585,
				"element": "Cl" 
			},
			{
				"x": 0.2773573406,
				"y": 0.376348747,
				"z": 1.9362321515,
				"element": "O" 
			},
			{
				"x": 1.3769552075,
				"y": 1.0217445039,
				"z": -0.2804856889,
				"element": "O" 
			},
			{
				"x": -1.7348327869,
				"y": -1.6796506258,
				"z": -3.7357313855,
				"element": "H" 
			},
			{
				"x": -2.7695564414,
				"y": -2.9277293622,
				"z": -2.9660549229,
				"element": "H" 
			},
			{
				"x": -1.0010265714,
				"y": -3.1872490714,
				"z": -3.1323265385,
				"element": "H" 
			},
			{
				"x": -1.2517928196,
				"y": -1.0004964682,
				"z": 0.4927771626,
				"element": "H" 
			}
		],
		 "valence_orbital": [ 
			{
				"type": "occ",
				"energy": -0.35356,
				"method": "rhf"
			},
			{
				"type": "occ",
				"energy": -0.33373,
				"method": "rhf"
			},
			{
				"type": "occ",
				"energy": -0.32591,
				"method": "rhf"
			},
			{
				"type": "occ",
				"energy": -0.32501,
				"method": "rhf"
			},
			{
				"type": "occ",
				"energy": -0.31462,
				"method": "rhf"
			},
			{
				"type": "unocc",
				"energy": -0.09126,
				"method": "rhf"
			},
			{
				"type": "unocc",
				"energy": 0.00165,
				"method": "rhf"
			},
			{
				"type": "unocc",
				"energy": 0.03829,
				"method": "rhf"
			},
			{
				"type": "unocc",
				"energy": 0.05731,
				"method": "rhf"
			},
			{
				"type": "unocc",
				"energy": 0.0627,
				"method": "rhf"
			}
		],
		"cosmo_sigma_profile": { 
			"-0.025": 0.0,
			"-0.024": 0.0,
			"-0.023": 0.0,
			"-0.022": 0.0,
			"-0.021": 0.0,
			"-0.02": 0.0,
			"-0.019": 0.394369115364,
			"-0.018": 0.815152982725,
			"-0.017": 0.912834066369,
			"-0.016": 0.914535464079,
			"-0.015": 1.21605763774,
			"-0.014": 0.8980379375,
			"-0.013": 0.906997218862,
			"-0.012": 0.550878901343,
			"-0.011": 0.842036531315,
			"-0.01": 1.27786582606,
			"-0.009": 1.17029295315,
			"-0.008": 1.95415963169,
			"-0.007": 6.21001723797,
			"-0.006": 9.55986962152,
			"-0.005": 11.2129897624,
			"-0.004": 14.5247270151,
			"-0.003": 10.7659447959,
			"-0.002": 8.98933887252,
			"-0.001": 7.89976289417,
			"0.0": 9.01137454904,
			"0.001": 11.1152749339,
			"0.002": 15.1361845538,
			"0.003": 8.71820275024,
			"0.004": 5.95896461553,
			"0.005": 6.39412431084,
			"0.006": 6.67982444308,
			"0.007": 13.4423901252,
			"0.008": 7.52053955525,
			"0.009": 2.69060396027,
			"0.01": 5.35635743312,
			"0.011": 2.2345708921,
			"0.012": 0.0,
			"0.013": 0.0,
			"0.014": 0.0,
			"0.015": 0.0,
			"0.016": 0.0,
			"0.017": 0.0,
			"0.018": 0.0,
			"0.019": 0.0,
			"0.02": 0.0,
			"0.021": 0.0,
			"0.022": 0.0,
			"0.023": 0.0,
			"0.024": 0.0,
			"0.025": 0.0
		}
	}
}
