{
	 "smiles": "ON=CC1=C(Cl)N=C2C=CC=CN12", 
	 "Tm": 483.15, 
	 "num_atms": 19, 
	 "gaussian": { 
		 "optdone": 1, 
		 "sigma_profile": "yes", 
		 "theory": "DFT", 
		 "functional": "B3LYP", 
		 "basiset": "6-31G**", 
		 "properties": { 
			 "R2extent": 3562.9692, 
			 "electric_dipole_moment_norm": 4.22262035945, 
			 "electric_quadrupole_moment_norm": 19.7530772818, 
			 "total_energy": -1008.06005172, 
			 "HOMO_LUMO_gap": 0.16617, 
			 "cosmo_polarized_energy": -14.88, 
			 "cosmo_cavitation_energy": 25.71, 
			 "cosmo_dispersion_energy": -19.2, 
			 "cosmo_repulsion_energy": 1.51, 
			 "cosmo_total_nonelectrostatic_energy": 8.03, 
			 "SMD_solvation_energy": 2.56 
		},
		"coords": [
			{
				"x": 1.7591297616,
				"y": 0.4174663741,
				"z": -1.394896931,
				"element": "O" 
			},
			{
				"x": 0.6612865289,
				"y": -0.430743497,
				"z": -1.4918673565,
				"element": "N" 
			},
			{
				"x": -0.2758099916,
				"y": -0.1260248039,
				"z": -0.6648038794,
				"element": "C" 
			},
			{
				"x": -0.3705963259,
				"y": 0.978163114,
				"z": 0.2749994211,
				"element": "C" 
			},
			{
				"x": -0.1199766787,
				"y": 2.354218378,
				"z": 0.2270553053,
				"element": "C" 
			},
			{
				"x": 0.4977182143,
				"y": 3.2296309672,
				"z": -1.1269728215,
				"element": "Cl" 
			},
			{
				"x": -0.4909598423,
				"y": 3.0072472694,
				"z": 1.341512568,
				"element": "N" 
			},
			{
				"x": -0.9955223784,
				"y": 2.0657393171,
				"z": 2.142885462,
				"element": "C" 
			},
			{
				"x": -1.5325515399,
				"y": 2.1681033973,
				"z": 3.4434348244,
				"element": "C" 
			},
			{
				"x": -1.9990241722,
				"y": 1.0372200483,
				"z": 4.0727262278,
				"element": "C" 
			},
			{
				"x": -1.9271106225,
				"y": -0.2251334763,
				"z": 3.4231978702,
				"element": "C" 
			},
			{
				"x": -1.3963030473,
				"y": -0.3293155648,
				"z": 2.1664406485,
				"element": "C" 
			},
			{
				"x": -0.9534902763,
				"y": 0.8041081864,
				"z": 1.5294770315,
				"element": "N" 
			},
			{
				"x": 2.3460254432,
				"y": 0.0810617734,
				"z": -2.0855868791,
				"element": "H" 
			},
			{
				"x": -1.1135688637,
				"y": -0.8228545156,
				"z": -0.7020967761,
				"element": "H" 
			},
			{
				"x": -1.5584868778,
				"y": 3.1475453586,
				"z": 3.9061237721,
				"element": "H" 
			},
			{
				"x": -2.4157300642,
				"y": 1.1017182825,
				"z": 5.0722202857,
				"element": "H" 
			},
			{
				"x": -2.2787868559,
				"y": -1.1226835709,
				"z": 3.9185569556,
				"element": "H" 
			},
			{
				"x": -1.2849424114,
				"y": -1.2639670379,
				"z": 1.6323942713,
				"element": "H" 
			}
		],
		 "valence_orbital": [ 
			{
				"type": "occ",
				"energy": -0.29556,
				"method": "rhf"
			},
			{
				"type": "occ",
				"energy": -0.28092,
				"method": "rhf"
			},
			{
				"type": "occ",
				"energy": -0.27411,
				"method": "rhf"
			},
			{
				"type": "occ",
				"energy": -0.2467,
				"method": "rhf"
			},
			{
				"type": "occ",
				"energy": -0.21476,
				"method": "rhf"
			},
			{
				"type": "unocc",
				"energy": -0.04859,
				"method": "rhf"
			},
			{
				"type": "unocc",
				"energy": -0.03562,
				"method": "rhf"
			},
			{
				"type": "unocc",
				"energy": 0.00607,
				"method": "rhf"
			},
			{
				"type": "unocc",
				"energy": 0.04977,
				"method": "rhf"
			},
			{
				"type": "unocc",
				"energy": 0.06728,
				"method": "rhf"
			}
		],
		"cosmo_sigma_profile": { 
			"-0.025": 0.0,
			"-0.024": 0.0,
			"-0.023": 0.0,
			"-0.022": 0.0,
			"-0.021": 0.0,
			"-0.02": 0.0,
			"-0.019": 0.0,
			"-0.018": 0.332245150678,
			"-0.017": 0.973199808937,
			"-0.016": 1.41431120269,
			"-0.015": 0.50215280532,
			"-0.014": 0.337916347527,
			"-0.013": 0.824302292059,
			"-0.012": 0.8295067935,
			"-0.011": 1.11313163838,
			"-0.01": 3.39863237848,
			"-0.009": 4.36040986679,
			"-0.008": 6.79621441388,
			"-0.007": 11.1413148351,
			"-0.006": 8.90569864667,
			"-0.005": 9.39581473463,
			"-0.004": 7.17382442099,
			"-0.003": 9.83938328488,
			"-0.002": 12.9204029491,
			"-0.001": 11.713470506,
			"0.0": 14.8988601935,
			"0.001": 15.5073872618,
			"0.002": 16.8770204677,
			"0.003": 14.0187699653,
			"0.004": 13.1670765065,
			"0.005": 9.44855608819,
			"0.006": 6.44533438084,
			"0.007": 5.9661340135,
			"0.008": 5.20113947987,
			"0.009": 4.32582835287,
			"0.01": 3.55970173663,
			"0.011": 1.57501585198,
			"0.012": 2.39515143593,
			"0.013": 1.28124299482,
			"0.014": 1.42843239153,
			"0.015": 0.94359289058,
			"0.016": 0.402199996933,
			"0.017": 0.0,
			"0.018": 0.0,
			"0.019": 0.0,
			"0.02": 0.0,
			"0.021": 0.0,
			"0.022": 0.0,
			"0.023": 0.0,
			"0.024": 0.0,
			"0.025": 0.0
		}
	}
}
