{
	 "smiles": "ClC1=NC(=NS1)C1=CC=C(S1)S(Cl)(=O)=O", 
	 "Tm": 345.65, 
	 "num_atms": 17, 
	 "gaussian": { 
		 "optdone": 1, 
		 "sigma_profile": "yes", 
		 "theory": "DFT", 
		 "functional": "B3LYP", 
		 "basiset": "6-31G**", 
		 "properties": { 
			 "R2extent": 8538.2567, 
			 "electric_dipole_moment_norm": 5.59013093407, 
			 "electric_quadrupole_moment_norm": 14.8999407935, 
			 "total_energy": -2604.6258612, 
			 "HOMO_LUMO_gap": 0.16418, 
			 "cosmo_polarized_energy": -9.79, 
			 "cosmo_cavitation_energy": 31.71, 
			 "cosmo_dispersion_energy": -25.12, 
			 "cosmo_repulsion_energy": 1.83, 
			 "cosmo_total_nonelectrostatic_energy": 8.42, 
			 "SMD_solvation_energy": 0.55 
		},
		"coords": [
			{
				"x": -2.7262021002,
				"y": 4.8644375898,
				"z": -3.1517407589,
				"element": "Cl" 
			},
			{
				"x": -2.6411458117,
				"y": 3.2108286194,
				"z": -2.689956764,
				"element": "C" 
			},
			{
				"x": -1.6458664996,
				"y": 2.6861368742,
				"z": -2.0466837734,
				"element": "N" 
			},
			{
				"x": -1.9213555174,
				"y": 1.3475543068,
				"z": -1.8496636223,
				"element": "C" 
			},
			{
				"x": -3.0527856413,
				"y": 0.8394335058,
				"z": -2.3016223363,
				"element": "N" 
			},
			{
				"x": -3.9081134904,
				"y": 2.0642500716,
				"z": -3.0503334124,
				"element": "S" 
			},
			{
				"x": -0.9517833659,
				"y": 0.5204675952,
				"z": -1.1429611482,
				"element": "C" 
			},
			{
				"x": 0.2583029085,
				"y": 0.9191835946,
				"z": -0.6228866964,
				"element": "C" 
			},
			{
				"x": 0.9659183553,
				"y": -0.1369974416,
				"z": 0.0073414123,
				"element": "C" 
			},
			{
				"x": 0.2700922308,
				"y": -1.3182999116,
				"z": -0.0509336642,
				"element": "C" 
			},
			{
				"x": -1.2615385486,
				"y": -1.1716800807,
				"z": -0.8738096443,
				"element": "S" 
			},
			{
				"x": 0.7155994675,
				"y": -2.9202484054,
				"z": 0.582478104,
				"element": "S" 
			},
			{
				"x": 2.6061135513,
				"y": -2.5045343114,
				"z": 1.4534939117,
				"element": "Cl" 
			},
			{
				"x": 0.9533555626,
				"y": -3.8303812183,
				"z": -0.5289108322,
				"element": "O" 
			},
			{
				"x": -0.1826794826,
				"y": -3.2758142894,
				"z": 1.6718498975,
				"element": "O" 
			},
			{
				"x": 0.6156341432,
				"y": 1.9383688818,
				"z": -0.6972956421,
				"element": "H" 
			},
			{
				"x": 1.9340542384,
				"y": -0.0304053808,
				"z": 0.4771349691,
				"element": "H" 
			}
		],
		 "valence_orbital": [ 
			{
				"type": "occ",
				"energy": -0.32254,
				"method": "rhf"
			},
			{
				"type": "occ",
				"energy": -0.32093,
				"method": "rhf"
			},
			{
				"type": "occ",
				"energy": -0.31481,
				"method": "rhf"
			},
			{
				"type": "occ",
				"energy": -0.29202,
				"method": "rhf"
			},
			{
				"type": "occ",
				"energy": -0.26235,
				"method": "rhf"
			},
			{
				"type": "unocc",
				"energy": -0.09817,
				"method": "rhf"
			},
			{
				"type": "unocc",
				"energy": -0.09432,
				"method": "rhf"
			},
			{
				"type": "unocc",
				"energy": -0.06025,
				"method": "rhf"
			},
			{
				"type": "unocc",
				"energy": -0.03571,
				"method": "rhf"
			},
			{
				"type": "unocc",
				"energy": -0.01467,
				"method": "rhf"
			}
		],
		"cosmo_sigma_profile": { 
			"-0.025": 0.0,
			"-0.024": 0.0,
			"-0.023": 0.0,
			"-0.022": 0.0,
			"-0.021": 0.0,
			"-0.02": 0.0,
			"-0.019": 0.0,
			"-0.018": 0.0,
			"-0.017": 0.0,
			"-0.016": 0.0,
			"-0.015": 0.0,
			"-0.014": 0.0,
			"-0.013": 0.0,
			"-0.012": 0.0,
			"-0.011": 0.0,
			"-0.01": 0.537015612086,
			"-0.009": 1.95071777829,
			"-0.008": 4.17468011576,
			"-0.007": 4.36618017631,
			"-0.006": 9.04284993684,
			"-0.005": 14.0498494991,
			"-0.004": 15.6892517239,
			"-0.003": 19.2248177363,
			"-0.002": 24.3940555722,
			"-0.001": 35.2741693975,
			"0.0": 33.2765108191,
			"0.001": 26.7823542812,
			"0.002": 20.5348701608,
			"0.003": 12.7905431469,
			"0.004": 6.14169322217,
			"0.005": 4.05316898357,
			"0.006": 6.05682934194,
			"0.007": 10.9351800168,
			"0.008": 13.6467578214,
			"0.009": 3.53303435829,
			"0.01": 0.513124814823,
			"0.011": 0.00469792281037,
			"0.012": 0.0,
			"0.013": 0.0,
			"0.014": 0.0,
			"0.015": 0.0,
			"0.016": 0.0,
			"0.017": 0.0,
			"0.018": 0.0,
			"0.019": 0.0,
			"0.02": 0.0,
			"0.021": 0.0,
			"0.022": 0.0,
			"0.023": 0.0,
			"0.024": 0.0,
			"0.025": 0.0
		}
	}
}
