{
	 "smiles": "OCC1=NNC(=C1)C1=CC=CS1", 
	 "Tm": 400.15, 
	 "num_atms": 20, 
	 "gaussian": { 
		 "optdone": 1, 
		 "sigma_profile": "yes", 
		 "theory": "DFT", 
		 "functional": "B3LYP", 
		 "basiset": "6-31G**", 
		 "properties": { 
			 "R2extent": 3670.653, 
			 "electric_dipole_moment_norm": 4.50527901467, 
			 "electric_quadrupole_moment_norm": 16.3558440892, 
			 "total_energy": -892.543350468, 
			 "HOMO_LUMO_gap": 0.17705, 
			 "cosmo_polarized_energy": -11.67, 
			 "cosmo_cavitation_energy": 25.94, 
			 "cosmo_dispersion_energy": -20.04, 
			 "cosmo_repulsion_energy": 1.56, 
			 "cosmo_total_nonelectrostatic_energy": 7.45, 
			 "SMD_solvation_energy": 3.54 
		},
		"coords": [
			{
				"x": -4.7487613323,
				"y": -0.7132075112,
				"z": -0.8869785735,
				"element": "O" 
			},
			{
				"x": -3.4160237007,
				"y": -1.1785315728,
				"z": -0.9162647492,
				"element": "C" 
			},
			{
				"x": -2.4661575606,
				"y": -0.248899594,
				"z": -0.2061277826,
				"element": "C" 
			},
			{
				"x": -2.8989768,
				"y": 0.9646793304,
				"z": 0.133243375,
				"element": "N" 
			},
			{
				"x": -1.8308886654,
				"y": 1.5689825434,
				"z": 0.694978999,
				"element": "N" 
			},
			{
				"x": -0.7239083699,
				"y": 0.7690172914,
				"z": 0.7359143085,
				"element": "C" 
			},
			{
				"x": -1.1090705162,
				"y": -0.4286227084,
				"z": 0.1442553914,
				"element": "C" 
			},
			{
				"x": 0.5422200602,
				"y": 1.1908263957,
				"z": 1.3078363778,
				"element": "C" 
			},
			{
				"x": 1.5219196692,
				"y": 0.4033985875,
				"z": 1.8674020029,
				"element": "C" 
			},
			{
				"x": 2.6452409542,
				"y": 1.1459414349,
				"z": 2.3333534462,
				"element": "C" 
			},
			{
				"x": 2.5153562625,
				"y": 2.4925322104,
				"z": 2.1325631745,
				"element": "C" 
			},
			{
				"x": 1.0192994257,
				"y": 2.878024443,
				"z": 1.3440500406,
				"element": "S" 
			},
			{
				"x": -4.7058986954,
				"y": 0.2309125084,
				"z": -0.6726480331,
				"element": "H" 
			},
			{
				"x": -3.0713747187,
				"y": -1.3129268372,
				"z": -1.9564037877,
				"element": "H" 
			},
			{
				"x": -3.3808935625,
				"y": -2.1711854349,
				"z": -0.4465993399,
				"element": "H" 
			},
			{
				"x": -1.940834762,
				"y": 2.4817307311,
				"z": 1.1097337588,
				"element": "H" 
			},
			{
				"x": -0.4827062185,
				"y": -1.2904572958,
				"z": -0.0309130965,
				"element": "H" 
			},
			{
				"x": 1.4245814737,
				"y": -0.6719575872,
				"z": 1.9607140109,
				"element": "H" 
			},
			{
				"x": 3.5098271276,
				"y": 0.6960673973,
				"z": 2.8076623438,
				"element": "H" 
			},
			{
				"x": 3.2058499294,
				"y": 3.2828756679,
				"z": 2.3914281332,
				"element": "H" 
			}
		],
		 "valence_orbital": [ 
			{
				"type": "occ",
				"energy": -0.28583,
				"method": "rhf"
			},
			{
				"type": "occ",
				"energy": -0.26895,
				"method": "rhf"
			},
			{
				"type": "occ",
				"energy": -0.26543,
				"method": "rhf"
			},
			{
				"type": "occ",
				"energy": -0.24478,
				"method": "rhf"
			},
			{
				"type": "occ",
				"energy": -0.22159,
				"method": "rhf"
			},
			{
				"type": "unocc",
				"energy": -0.04454,
				"method": "rhf"
			},
			{
				"type": "unocc",
				"energy": 0.00941,
				"method": "rhf"
			},
			{
				"type": "unocc",
				"energy": 0.0283,
				"method": "rhf"
			},
			{
				"type": "unocc",
				"energy": 0.04807,
				"method": "rhf"
			},
			{
				"type": "unocc",
				"energy": 0.06059,
				"method": "rhf"
			}
		],
		"cosmo_sigma_profile": { 
			"-0.025": 0.0,
			"-0.024": 0.0,
			"-0.023": 0.0,
			"-0.022": 0.0,
			"-0.021": 0.0,
			"-0.02": 0.0,
			"-0.019": 0.0,
			"-0.018": 0.0,
			"-0.017": 0.0896346178236,
			"-0.016": 1.00772180143,
			"-0.015": 0.989282756353,
			"-0.014": 0.941348196046,
			"-0.013": 0.919652314136,
			"-0.012": 0.600981398846,
			"-0.011": 1.85063842139,
			"-0.01": 1.3011523785,
			"-0.009": 2.32478095311,
			"-0.008": 3.55280287242,
			"-0.007": 7.35297725112,
			"-0.006": 9.43344573531,
			"-0.005": 12.8332926244,
			"-0.004": 15.9304402096,
			"-0.003": 13.8488846558,
			"-0.002": 12.870156572,
			"-0.001": 11.0184277082,
			"0.0": 10.3907068463,
			"0.001": 12.9008210227,
			"0.002": 15.6039308328,
			"0.003": 19.9825951104,
			"0.004": 20.4464874818,
			"0.005": 11.0657168586,
			"0.006": 3.28544403412,
			"0.007": 2.64232030297,
			"0.008": 3.06324112845,
			"0.009": 2.46872797836,
			"0.01": 2.46185396475,
			"0.011": 2.20802336159,
			"0.012": 1.18856521518,
			"0.013": 1.76521347837,
			"0.014": 2.59487317879,
			"0.015": 0.59430430048,
			"0.016": 0.0,
			"0.017": 0.0,
			"0.018": 0.0,
			"0.019": 0.0,
			"0.02": 0.0,
			"0.021": 0.0,
			"0.022": 0.0,
			"0.023": 0.0,
			"0.024": 0.0,
			"0.025": 0.0
		}
	}
}
