{
	 "smiles": "CC(=O)C1=C(C)NC(N=NC2=CC(=CC=C2)C(O)=O)=C1C", 
	 "Tm": 477.15, 
	 "num_atms": 36, 
	 "gaussian": { 
		 "optdone": 1, 
		 "sigma_profile": "yes", 
		 "theory": "DFT", 
		 "functional": "B3LYP", 
		 "basiset": "6-31G**", 
		 "properties": { 
			 "R2extent": 10913.216, 
			 "electric_dipole_moment_norm": 5.55546625676, 
			 "electric_quadrupole_moment_norm": 37.9747933038, 
			 "total_energy": -970.545075199, 
			 "HOMO_LUMO_gap": 0.12484, 
			 "cosmo_polarized_energy": -23.3, 
			 "cosmo_cavitation_energy": 41.17, 
			 "cosmo_dispersion_energy": -29.48, 
			 "cosmo_repulsion_energy": 2.24, 
			 "cosmo_total_nonelectrostatic_energy": 13.93, 
			 "SMD_solvation_energy": 7.65 
		},
		"coords": [
			{
				"x": 1.7167661945,
				"y": -3.8540316845,
				"z": -1.1817019361,
				"element": "C" 
			},
			{
				"x": 0.3070624714,
				"y": -3.9566365485,
				"z": -0.6267436568,
				"element": "C" 
			},
			{
				"x": -0.272159586,
				"y": -5.0402366322,
				"z": -0.6420866074,
				"element": "O" 
			},
			{
				"x": -0.3622707497,
				"y": -2.7622178662,
				"z": -0.0726588515,
				"element": "C" 
			},
			{
				"x": -1.6758982727,
				"y": -2.8379535071,
				"z": 0.4489817341,
				"element": "C" 
			},
			{
				"x": -2.6206001083,
				"y": -3.9868701946,
				"z": 0.5676913176,
				"element": "C" 
			},
			{
				"x": -2.0049249659,
				"y": -1.6044010502,
				"z": 0.8732308122,
				"element": "N" 
			},
			{
				"x": -0.9659411929,
				"y": -0.7015821118,
				"z": 0.6590076765,
				"element": "C" 
			},
			{
				"x": -1.2317608789,
				"y": 0.5776321624,
				"z": 1.0670635091,
				"element": "N" 
			},
			{
				"x": -0.3225694803,
				"y": 1.4532745892,
				"z": 0.9069735639,
				"element": "N" 
			},
			{
				"x": -0.6822370079,
				"y": 2.7466485786,
				"z": 1.3513533268,
				"element": "C" 
			},
			{
				"x": 0.3001355423,
				"y": 3.7316832656,
				"z": 1.2019584362,
				"element": "C" 
			},
			{
				"x": 0.0640161149,
				"y": 5.0450445228,
				"z": 1.6202844937,
				"element": "C" 
			},
			{
				"x": -1.1835846435,
				"y": 5.3811092361,
				"z": 2.1646597612,
				"element": "C" 
			},
			{
				"x": -2.1720644747,
				"y": 4.4016297217,
				"z": 2.3042509882,
				"element": "C" 
			},
			{
				"x": -1.9279489355,
				"y": 3.0916268225,
				"z": 1.9103862754,
				"element": "C" 
			},
			{
				"x": 1.1665313937,
				"y": 6.0442236046,
				"z": 1.4262527095,
				"element": "C" 
			},
			{
				"x": 1.1138615003,
				"y": 7.1664865823,
				"z": 2.194325968,
				"element": "O" 
			},
			{
				"x": 2.0706068029,
				"y": 5.8934366462,
				"z": 0.6393052073,
				"element": "O" 
			},
			{
				"x": 0.087408731,
				"y": -1.4103839427,
				"z": 0.0596298043,
				"element": "C" 
			},
			{
				"x": 1.4036071428,
				"y": -0.8113318064,
				"z": -0.3430225679,
				"element": "C" 
			},
			{
				"x": 2.4205512391,
				"y": -3.5065092059,
				"z": -0.4185546424,
				"element": "H" 
			},
			{
				"x": 1.7651654182,
				"y": -3.1438899177,
				"z": -2.0135667871,
				"element": "H" 
			},
			{
				"x": 2.0185429162,
				"y": -4.8422330208,
				"z": -1.5308312656,
				"element": "H" 
			},
			{
				"x": -3.5620406278,
				"y": -3.6680856689,
				"z": 1.0270287468,
				"element": "H" 
			},
			{
				"x": -2.828131721,
				"y": -4.4229414641,
				"z": -0.4129464112,
				"element": "H" 
			},
			{
				"x": -2.1827271783,
				"y": -4.7906697,
				"z": 1.1653149746,
				"element": "H" 
			},
			{
				"x": -2.8804232874,
				"y": -1.3313638392,
				"z": 1.296455341,
				"element": "H" 
			},
			{
				"x": 1.2555314479,
				"y": 3.4731489492,
				"z": 0.7596702911,
				"element": "H" 
			},
			{
				"x": -1.413917944,
				"y": 6.4066593996,
				"z": 2.4427674266,
				"element": "H" 
			},
			{
				"x": -3.1398914784,
				"y": 4.6704639465,
				"z": 2.7174094386,
				"element": "H" 
			},
			{
				"x": -2.6839014471,
				"y": 2.3224995613,
				"z": 2.0169566829,
				"element": "H" 
			},
			{
				"x": 0.4406967674,
				"y": 7.0672487375,
				"z": 2.881618556,
				"element": "H" 
			},
			{
				"x": 1.4165393324,
				"y": 0.2518535599,
				"z": -0.1107259067,
				"element": "H" 
			},
			{
				"x": 1.5877750065,
				"y": -0.9336918662,
				"z": -1.4159364782,
				"element": "H" 
			},
			{
				"x": 2.2382959588,
				"y": -1.2892398588,
				"z": 0.1817980694,
				"element": "H" 
			}
		],
		 "valence_orbital": [ 
			{
				"type": "occ",
				"energy": -0.26503,
				"method": "rhf"
			},
			{
				"type": "occ",
				"energy": -0.26085,
				"method": "rhf"
			},
			{
				"type": "occ",
				"energy": -0.24662,
				"method": "rhf"
			},
			{
				"type": "occ",
				"energy": -0.23345,
				"method": "rhf"
			},
			{
				"type": "occ",
				"energy": -0.21407,
				"method": "rhf"
			},
			{
				"type": "unocc",
				"energy": -0.08923,
				"method": "rhf"
			},
			{
				"type": "unocc",
				"energy": -0.0446,
				"method": "rhf"
			},
			{
				"type": "unocc",
				"energy": -0.03143,
				"method": "rhf"
			},
			{
				"type": "unocc",
				"energy": -0.00379,
				"method": "rhf"
			},
			{
				"type": "unocc",
				"energy": 0.05048,
				"method": "rhf"
			}
		],
		"cosmo_sigma_profile": { 
			"-0.025": 0.0,
			"-0.024": 0.0,
			"-0.023": 0.0,
			"-0.022": 0.0,
			"-0.021": 0.0,
			"-0.02": 0.0,
			"-0.019": 0.29273787378,
			"-0.018": 0.826003034416,
			"-0.017": 1.04553995703,
			"-0.016": 1.83744653753,
			"-0.015": 2.18288825076,
			"-0.014": 1.65855943694,
			"-0.013": 2.25093924913,
			"-0.012": 2.64945142775,
			"-0.011": 2.0409495594,
			"-0.01": 2.50859040099,
			"-0.009": 2.66923549417,
			"-0.008": 2.53278364959,
			"-0.007": 5.57241880405,
			"-0.006": 13.2247575171,
			"-0.005": 18.4953443146,
			"-0.004": 18.8595731749,
			"-0.003": 20.835771205,
			"-0.002": 25.3570677856,
			"-0.001": 26.2530353935,
			"0.0": 24.7053271173,
			"0.001": 29.0104772985,
			"0.002": 36.9095974969,
			"0.003": 21.2448411371,
			"0.004": 9.71923723894,
			"0.005": 8.79602296473,
			"0.006": 5.69569426663,
			"0.007": 5.8128270243,
			"0.008": 4.72940584947,
			"0.009": 4.36849269188,
			"0.01": 6.18229129461,
			"0.011": 7.25715786576,
			"0.012": 7.08332652849,
			"0.013": 4.02160933968,
			"0.014": 1.5027895412,
			"0.015": 0.125138175443,
			"0.016": 0.0,
			"0.017": 0.0,
			"0.018": 0.0,
			"0.019": 0.0,
			"0.02": 0.0,
			"0.021": 0.0,
			"0.022": 0.0,
			"0.023": 0.0,
			"0.024": 0.0,
			"0.025": 0.0
		}
	}
}
