{
	 "smiles": "CC(C)(C)N(NC(=O)C1=CC=CC=C1)C(=O)C1=CC=CC(=C1)C#N", 
	 "Tm": 447.15, 
	 "num_atms": 43, 
	 "gaussian": { 
		 "optdone": 1, 
		 "sigma_profile": "yes", 
		 "theory": "DFT", 
		 "functional": "B3LYP", 
		 "basiset": "6-31G**", 
		 "properties": { 
			 "R2extent": 10267.7651, 
			 "electric_dipole_moment_norm": 8.89575829089, 
			 "electric_quadrupole_moment_norm": 31.4795242898, 
			 "total_energy": -1050.16235091, 
			 "HOMO_LUMO_gap": 0.19631, 
			 "cosmo_polarized_energy": -23.96, 
			 "cosmo_cavitation_energy": 47.21, 
			 "cosmo_dispersion_energy": -30.05, 
			 "cosmo_repulsion_energy": 2.29, 
			 "cosmo_total_nonelectrostatic_energy": 19.45, 
			 "SMD_solvation_energy": 10.4 
		},
		"coords": [
			{
				"x": -1.8264174884,
				"y": 0.3805996187,
				"z": -1.0272652591,
				"element": "C" 
			},
			{
				"x": -1.4506625371,
				"y": 0.9373650024,
				"z": 0.3575681585,
				"element": "C" 
			},
			{
				"x": -1.8639064531,
				"y": -0.0566447393,
				"z": 1.4557609949,
				"element": "C" 
			},
			{
				"x": -2.1596459537,
				"y": 2.2774034971,
				"z": 0.6300935061,
				"element": "C" 
			},
			{
				"x": 0.0443176134,
				"y": 1.1566981166,
				"z": 0.4613527512,
				"element": "N" 
			},
			{
				"x": 0.8134618442,
				"y": 0.0738514225,
				"z": 0.8770188656,
				"element": "N" 
			},
			{
				"x": 1.4506086517,
				"y": -0.7643229676,
				"z": -0.0224025343,
				"element": "C" 
			},
			{
				"x": 1.397649377,
				"y": -0.5789225666,
				"z": -1.2299479243,
				"element": "O" 
			},
			{
				"x": 2.2289853941,
				"y": -1.8868086897,
				"z": 0.5946824544,
				"element": "C" 
			},
			{
				"x": 1.9497564132,
				"y": -2.4167136642,
				"z": 1.8634364513,
				"element": "C" 
			},
			{
				"x": 2.7132925223,
				"y": -3.4698149436,
				"z": 2.3672118425,
				"element": "C" 
			},
			{
				"x": 3.7592524764,
				"y": -4.0001504896,
				"z": 1.6095378969,
				"element": "C" 
			},
			{
				"x": 4.0329876497,
				"y": -3.484628255,
				"z": 0.3397897468,
				"element": "C" 
			},
			{
				"x": 3.2677368201,
				"y": -2.4380321691,
				"z": -0.1683752461,
				"element": "C" 
			},
			{
				"x": 0.6938246506,
				"y": 2.0960802071,
				"z": -0.3414744779,
				"element": "C" 
			},
			{
				"x": 0.1129040745,
				"y": 2.7878872372,
				"z": -1.1634584926,
				"element": "O" 
			},
			{
				"x": 2.1662078293,
				"y": 2.3041122392,
				"z": -0.089692053,
				"element": "C" 
			},
			{
				"x": 2.6864535696,
				"y": 2.4786547719,
				"z": 1.1985590536,
				"element": "C" 
			},
			{
				"x": 4.036240931,
				"y": 2.783770375,
				"z": 1.3814483921,
				"element": "C" 
			},
			{
				"x": 4.8817335554,
				"y": 2.90303238,
				"z": 0.2822093791,
				"element": "C" 
			},
			{
				"x": 4.3635473449,
				"y": 2.7326353201,
				"z": -1.0139811601,
				"element": "C" 
			},
			{
				"x": 3.0032004973,
				"y": 2.447075128,
				"z": -1.1981238126,
				"element": "C" 
			},
			{
				"x": 5.2327306575,
				"y": 2.8568893929,
				"z": -2.1492911279,
				"element": "C" 
			},
			{
				"x": 5.9462517903,
				"y": 2.9565667162,
				"z": -3.0624147255,
				"element": "N" 
			},
			{
				"x": -1.3115435851,
				"y": -0.5630894558,
				"z": -1.2235804059,
				"element": "H" 
			},
			{
				"x": -1.5559664609,
				"y": 1.0889911321,
				"z": -1.8111072931,
				"element": "H" 
			},
			{
				"x": -2.9064102288,
				"y": 0.2027490408,
				"z": -1.0715760746,
				"element": "H" 
			},
			{
				"x": -1.4490974795,
				"y": -1.0537050358,
				"z": 1.2910904673,
				"element": "H" 
			},
			{
				"x": -2.9538936243,
				"y": -0.1441236569,
				"z": 1.4543872973,
				"element": "H" 
			},
			{
				"x": -1.5601639471,
				"y": 0.2923834864,
				"z": 2.4492550987,
				"element": "H" 
			},
			{
				"x": -3.2414713448,
				"y": 2.111932534,
				"z": 0.6432583293,
				"element": "H" 
			},
			{
				"x": -1.9303069687,
				"y": 3.0163113543,
				"z": -0.1358965132,
				"element": "H" 
			},
			{
				"x": -1.8664427416,
				"y": 2.6770729908,
				"z": 1.6067342264,
				"element": "H" 
			},
			{
				"x": 1.0464045954,
				"y": 0.0310404696,
				"z": 1.8577574215,
				"element": "H" 
			},
			{
				"x": 1.1156101367,
				"y": -2.040306105,
				"z": 2.4489470278,
				"element": "H" 
			},
			{
				"x": 2.485234868,
				"y": -3.8817740436,
				"z": 3.3457480375,
				"element": "H" 
			},
			{
				"x": 4.3538195985,
				"y": -4.8189661222,
				"z": 2.0040957192,
				"element": "H" 
			},
			{
				"x": 4.8410302571,
				"y": -3.900967174,
				"z": -0.2542245687,
				"element": "H" 
			},
			{
				"x": 3.4549692314,
				"y": -2.030427509,
				"z": -1.1559348581,
				"element": "H" 
			},
			{
				"x": 2.0274771246,
				"y": 2.4014111031,
				"z": 2.0585682002,
				"element": "H" 
			},
			{
				"x": 4.4289839021,
				"y": 2.9309926336,
				"z": 2.3827246197,
				"element": "H" 
			},
			{
				"x": 5.9339871318,
				"y": 3.1317054569,
				"z": 0.4132397246,
				"element": "H" 
			},
			{
				"x": 2.5933683049,
				"y": 2.3321859602,
				"z": -2.1947291356,
				"element": "H" 
			}
		],
		 "valence_orbital": [ 
			{
				"type": "occ",
				"energy": -0.27342,
				"method": "rhf"
			},
			{
				"type": "occ",
				"energy": -0.26885,
				"method": "rhf"
			},
			{
				"type": "occ",
				"energy": -0.26515,
				"method": "rhf"
			},
			{
				"type": "occ",
				"energy": -0.25815,
				"method": "rhf"
			},
			{
				"type": "occ",
				"energy": -0.25281,
				"method": "rhf"
			},
			{
				"type": "unocc",
				"energy": -0.0565,
				"method": "rhf"
			},
			{
				"type": "unocc",
				"energy": -0.05204,
				"method": "rhf"
			},
			{
				"type": "unocc",
				"energy": -0.03793,
				"method": "rhf"
			},
			{
				"type": "unocc",
				"energy": -0.02267,
				"method": "rhf"
			},
			{
				"type": "unocc",
				"energy": 0.01805,
				"method": "rhf"
			}
		],
		"cosmo_sigma_profile": { 
			"-0.025": 0.0,
			"-0.024": 0.0,
			"-0.023": 0.0,
			"-0.022": 0.0,
			"-0.021": 0.0,
			"-0.02": 0.0,
			"-0.019": 0.0,
			"-0.018": 0.0,
			"-0.017": 0.0,
			"-0.016": 0.0100658038965,
			"-0.015": 0.394274002782,
			"-0.014": 0.851618344257,
			"-0.013": 0.992255800484,
			"-0.012": 1.32290207181,
			"-0.011": 1.29066324244,
			"-0.01": 2.28387379503,
			"-0.009": 2.41622886038,
			"-0.008": 6.72695303677,
			"-0.007": 11.8101489175,
			"-0.006": 18.4652631873,
			"-0.005": 19.0194029702,
			"-0.004": 26.728186145,
			"-0.003": 30.7859268244,
			"-0.002": 28.4343532928,
			"-0.001": 32.8538405847,
			"0.0": 35.5279682104,
			"0.001": 38.050027243,
			"0.002": 22.8798768501,
			"0.003": 16.9409853832,
			"0.004": 17.1753755519,
			"0.005": 8.87583876401,
			"0.006": 6.72636440636,
			"0.007": 6.81809227993,
			"0.008": 6.3219497815,
			"0.009": 7.01021513392,
			"0.01": 7.52993004012,
			"0.011": 5.48919271475,
			"0.012": 7.49804642619,
			"0.013": 4.61617084722,
			"0.014": 0.0654447305877,
			"0.015": 0.0,
			"0.016": 0.0,
			"0.017": 0.0,
			"0.018": 0.0,
			"0.019": 0.0,
			"0.02": 0.0,
			"0.021": 0.0,
			"0.022": 0.0,
			"0.023": 0.0,
			"0.024": 0.0,
			"0.025": 0.0
		}
	}
}
