{
	 "smiles": "COC1=CC=C(C=C1)C1C(=O)C2=CC=CC=C2C1=O", 
	 "Tm": 429.15, 
	 "num_atms": 31, 
	 "gaussian": { 
		 "optdone": 1, 
		 "sigma_profile": "yes", 
		 "theory": "DFT", 
		 "functional": "B3LYP", 
		 "basiset": "6-31G**", 
		 "properties": { 
			 "R2extent": 6362.3217, 
			 "electric_dipole_moment_norm": 3.17483604616, 
			 "electric_quadrupole_moment_norm": 19.5490521021, 
			 "total_energy": -842.593794674, 
			 "HOMO_LUMO_gap": 0.13045, 
			 "cosmo_polarized_energy": -13.96, 
			 "cosmo_cavitation_energy": 35.66, 
			 "cosmo_dispersion_energy": -25.67, 
			 "cosmo_repulsion_energy": 1.94, 
			 "cosmo_total_nonelectrostatic_energy": 11.92, 
			 "SMD_solvation_energy": 7.52 
		},
		"coords": [
			{
				"x": 2.2776572703,
				"y": -4.9269656352,
				"z": 2.424213927,
				"element": "C" 
			},
			{
				"x": 2.8065090908,
				"y": -4.1572228848,
				"z": 1.3572696248,
				"element": "O" 
			},
			{
				"x": 2.1415019451,
				"y": -3.0226233882,
				"z": 0.9898355651,
				"element": "C" 
			},
			{
				"x": 0.9684108835,
				"y": -2.5551516927,
				"z": 1.5890124053,
				"element": "C" 
			},
			{
				"x": 0.3739223032,
				"y": -1.375107656,
				"z": 1.1291881959,
				"element": "C" 
			},
			{
				"x": 0.9298774076,
				"y": -0.6459628246,
				"z": 0.0766029189,
				"element": "C" 
			},
			{
				"x": 2.1124349057,
				"y": -1.1271688297,
				"z": -0.5132944974,
				"element": "C" 
			},
			{
				"x": 2.7104084362,
				"y": -2.2970632432,
				"z": -0.0677319843,
				"element": "C" 
			},
			{
				"x": 0.3075008706,
				"y": 0.6339610094,
				"z": -0.4654250743,
				"element": "C" 
			},
			{
				"x": -0.1124558255,
				"y": 0.5464303204,
				"z": -1.9549304617,
				"element": "C" 
			},
			{
				"x": 0.5825177317,
				"y": 0.1679935193,
				"z": -2.8765869854,
				"element": "O" 
			},
			{
				"x": -1.5131148712,
				"y": 1.0361919161,
				"z": -2.0633836308,
				"element": "C" 
			},
			{
				"x": -2.303753117,
				"y": 1.1686970859,
				"z": -3.2056655906,
				"element": "C" 
			},
			{
				"x": -3.5969877571,
				"y": 1.666503548,
				"z": -3.0478350851,
				"element": "C" 
			},
			{
				"x": -4.0852575241,
				"y": 2.0256404435,
				"z": -1.7781794346,
				"element": "C" 
			},
			{
				"x": -3.2908212251,
				"y": 1.8938567701,
				"z": -0.6395387608,
				"element": "C" 
			},
			{
				"x": -1.998531149,
				"y": 1.3924372901,
				"z": -0.8011293963,
				"element": "C" 
			},
			{
				"x": -0.9609067525,
				"y": 1.1529980013,
				"z": 0.2393246018,
				"element": "C" 
			},
			{
				"x": -1.0984330305,
				"y": 1.3526336996,
				"z": 1.4313705966,
				"element": "O" 
			},
			{
				"x": 2.2420908334,
				"y": -4.3537826088,
				"z": 3.3598765906,
				"element": "H" 
			},
			{
				"x": 1.2705515588,
				"y": -5.299700586,
				"z": 2.1958416095,
				"element": "H" 
			},
			{
				"x": 2.9532172556,
				"y": -5.7747700005,
				"z": 2.5491808378,
				"element": "H" 
			},
			{
				"x": 0.5085281038,
				"y": -3.0896792561,
				"z": 2.4117324612,
				"element": "H" 
			},
			{
				"x": -0.5226330056,
				"y": -1.0203904313,
				"z": 1.6241413171,
				"element": "H" 
			},
			{
				"x": 2.5533279149,
				"y": -0.5854154234,
				"z": -1.3432992678,
				"element": "H" 
			},
			{
				"x": 3.6221054635,
				"y": -2.6706260239,
				"z": -0.5224632227,
				"element": "H" 
			},
			{
				"x": 1.0541133169,
				"y": 1.4410567213,
				"z": -0.4022832127,
				"element": "H" 
			},
			{
				"x": -1.912381435,
				"y": 0.8886589169,
				"z": -4.1785165988,
				"element": "H" 
			},
			{
				"x": -4.2406507888,
				"y": 1.7808608439,
				"z": -3.9152237967,
				"element": "H" 
			},
			{
				"x": -5.0968854297,
				"y": 2.4108032304,
				"z": -1.6887433862,
				"element": "H" 
			},
			{
				"x": -3.6529633803,
				"y": 2.1670071681,
				"z": 0.3465397346,
				"element": "H" 
			}
		],
		 "valence_orbital": [ 
			{
				"type": "occ",
				"energy": -0.27862,
				"method": "rhf"
			},
			{
				"type": "occ",
				"energy": -0.27265,
				"method": "rhf"
			},
			{
				"type": "occ",
				"energy": -0.2474,
				"method": "rhf"
			},
			{
				"type": "occ",
				"energy": -0.24507,
				"method": "rhf"
			},
			{
				"type": "occ",
				"energy": -0.21151,
				"method": "rhf"
			},
			{
				"type": "unocc",
				"energy": -0.08106,
				"method": "rhf"
			},
			{
				"type": "unocc",
				"energy": -0.06285,
				"method": "rhf"
			},
			{
				"type": "unocc",
				"energy": 0.00296,
				"method": "rhf"
			},
			{
				"type": "unocc",
				"energy": 0.01146,
				"method": "rhf"
			},
			{
				"type": "unocc",
				"energy": 0.02784,
				"method": "rhf"
			}
		],
		"cosmo_sigma_profile": { 
			"-0.025": 0.0,
			"-0.024": 0.0,
			"-0.023": 0.0,
			"-0.022": 0.0,
			"-0.021": 0.0,
			"-0.02": 0.0,
			"-0.019": 0.0,
			"-0.018": 0.0,
			"-0.017": 0.0,
			"-0.016": 0.0,
			"-0.015": 0.0,
			"-0.014": 0.0,
			"-0.013": 0.0,
			"-0.012": 0.0,
			"-0.011": 0.0,
			"-0.01": 0.0171255302434,
			"-0.009": 2.00297137397,
			"-0.008": 5.09817834373,
			"-0.007": 11.4266210617,
			"-0.006": 18.2413415189,
			"-0.005": 25.5309705477,
			"-0.004": 23.3165758032,
			"-0.003": 22.3507411523,
			"-0.002": 17.6330437622,
			"-0.001": 17.6811868794,
			"0.0": 20.7058855824,
			"0.001": 20.5533245976,
			"0.002": 18.816425231,
			"0.003": 11.7519265619,
			"0.004": 13.6817197498,
			"0.005": 15.8589034861,
			"0.006": 8.52338529513,
			"0.007": 4.46243549621,
			"0.008": 5.51510026339,
			"0.009": 5.65016959127,
			"0.01": 7.27907660118,
			"0.011": 8.18802873146,
			"0.012": 1.7876893971,
			"0.013": 0.0,
			"0.014": 0.0,
			"0.015": 0.0,
			"0.016": 0.0,
			"0.017": 0.0,
			"0.018": 0.0,
			"0.019": 0.0,
			"0.02": 0.0,
			"0.021": 0.0,
			"0.022": 0.0,
			"0.023": 0.0,
			"0.024": 0.0,
			"0.025": 0.0
		}
	}
}
