{
	 "smiles": "CC(CC(O)=O)C1=CC=C(C=C1)C(F)(F)F", 
	 "Tm": 362.15, 
	 "num_atms": 27, 
	 "gaussian": { 
		 "optdone": 1, 
		 "sigma_profile": "yes", 
		 "theory": "DFT", 
		 "functional": "B3LYP", 
		 "basiset": "6-31G**", 
		 "properties": { 
			 "R2extent": 5971.1035, 
			 "electric_dipole_moment_norm": 2.36115724593, 
			 "electric_quadrupole_moment_norm": 26.7079607863, 
			 "total_energy": -875.794547681, 
			 "HOMO_LUMO_gap": 0.23286, 
			 "cosmo_polarized_energy": -15.98, 
			 "cosmo_cavitation_energy": 32.56, 
			 "cosmo_dispersion_energy": -22.47, 
			 "cosmo_repulsion_energy": 1.71, 
			 "cosmo_total_nonelectrostatic_energy": 11.8, 
			 "SMD_solvation_energy": 7.8 
		},
		"coords": [
			{
				"x": 2.1919460732,
				"y": 0.888250103,
				"z": 0.0130957284,
				"element": "C" 
			},
			{
				"x": 0.9046633928,
				"y": 0.9504927209,
				"z": 0.8556633124,
				"element": "C" 
			},
			{
				"x": 1.1987571242,
				"y": 0.7508959554,
				"z": 2.3570870934,
				"element": "C" 
			},
			{
				"x": 1.9448854369,
				"y": 1.9229718564,
				"z": 2.9880694194,
				"element": "C" 
			},
			{
				"x": 2.3861052997,
				"y": 1.7124100535,
				"z": 4.2573379478,
				"element": "O" 
			},
			{
				"x": 2.1320065434,
				"y": 2.9885907799,
				"z": 2.4559733391,
				"element": "O" 
			},
			{
				"x": -0.1479040466,
				"y": -0.0379598045,
				"z": 0.3753971996,
				"element": "C" 
			},
			{
				"x": -1.4020082009,
				"y": 0.4150830783,
				"z": -0.0542107037,
				"element": "C" 
			},
			{
				"x": -2.3811469006,
				"y": -0.4751681206,
				"z": -0.4927872337,
				"element": "C" 
			},
			{
				"x": -2.1173030783,
				"y": -1.8458033517,
				"z": -0.5075934752,
				"element": "C" 
			},
			{
				"x": -0.8712268742,
				"y": -2.317084027,
				"z": -0.0844242871,
				"element": "C" 
			},
			{
				"x": 0.1001941899,
				"y": -1.4192671057,
				"z": 0.3499817122,
				"element": "C" 
			},
			{
				"x": -3.1868677884,
				"y": -2.818100113,
				"z": -0.9221949449,
				"element": "C" 
			},
			{
				"x": -3.9237120669,
				"y": -3.2321171386,
				"z": 0.1364602618,
				"element": "F" 
			},
			{
				"x": -4.0489629427,
				"y": -2.2732263889,
				"z": -1.808797286,
				"element": "F" 
			},
			{
				"x": -2.6649895332,
				"y": -3.9283595704,
				"z": -1.49057733,
				"element": "F" 
			},
			{
				"x": 2.8953024076,
				"y": 1.6572901247,
				"z": 0.3408732083,
				"element": "H" 
			},
			{
				"x": 2.6809280316,
				"y": -0.0888473847,
				"z": 0.0979874772,
				"element": "H" 
			},
			{
				"x": 1.9684367929,
				"y": 1.0568863499,
				"z": -1.0442421916,
				"element": "H" 
			},
			{
				"x": 0.4921862522,
				"y": 1.9599243444,
				"z": 0.7538427629,
				"element": "H" 
			},
			{
				"x": 1.7720483473,
				"y": -0.1720804366,
				"z": 2.5208406202,
				"element": "H" 
			},
			{
				"x": 0.2585162357,
				"y": 0.6284400517,
				"z": 2.9121936774,
				"element": "H" 
			},
			{
				"x": 2.1609254224,
				"y": 0.817073752,
				"z": 4.5479440404,
				"element": "H" 
			},
			{
				"x": -1.6135852759,
				"y": 1.4810561992,
				"z": -0.0501831498,
				"element": "H" 
			},
			{
				"x": -3.3438318472,
				"y": -0.1067738387,
				"z": -0.830747632,
				"element": "H" 
			},
			{
				"x": -0.6620540614,
				"y": -3.3814090556,
				"z": -0.1062529664,
				"element": "H" 
			},
			{
				"x": 1.0665910665,
				"y": -1.8025690334,
				"z": 0.6657633999,
				"element": "H" 
			}
		],
		 "valence_orbital": [ 
			{
				"type": "occ",
				"energy": -0.34074,
				"method": "rhf"
			},
			{
				"type": "occ",
				"energy": -0.32285,
				"method": "rhf"
			},
			{
				"type": "occ",
				"energy": -0.28124,
				"method": "rhf"
			},
			{
				"type": "occ",
				"energy": -0.27033,
				"method": "rhf"
			},
			{
				"type": "occ",
				"energy": -0.26379,
				"method": "rhf"
			},
			{
				"type": "unocc",
				"energy": -0.03093,
				"method": "rhf"
			},
			{
				"type": "unocc",
				"energy": -0.02153,
				"method": "rhf"
			},
			{
				"type": "unocc",
				"energy": 0.00153,
				"method": "rhf"
			},
			{
				"type": "unocc",
				"energy": 0.04775,
				"method": "rhf"
			},
			{
				"type": "unocc",
				"energy": 0.07676,
				"method": "rhf"
			}
		],
		"cosmo_sigma_profile": { 
			"-0.025": 0.0,
			"-0.024": 0.0,
			"-0.023": 0.0,
			"-0.022": 0.0,
			"-0.021": 0.0,
			"-0.02": 0.0,
			"-0.019": 0.576805790561,
			"-0.018": 1.31285842027,
			"-0.017": 0.987233685378,
			"-0.016": 1.15695566177,
			"-0.015": 0.86124065917,
			"-0.014": 1.4873688291,
			"-0.013": 0.823910184153,
			"-0.012": 0.72449123549,
			"-0.011": 1.61794805426,
			"-0.01": 1.20186915459,
			"-0.009": 1.36311991837,
			"-0.008": 2.24999569799,
			"-0.007": 6.6215201412,
			"-0.006": 13.6682334238,
			"-0.005": 14.4106322533,
			"-0.004": 13.300300541,
			"-0.003": 16.163186572,
			"-0.002": 14.4776903621,
			"-0.001": 16.8017839382,
			"0.0": 17.6193024402,
			"0.001": 22.0974978491,
			"0.002": 23.192473276,
			"0.003": 40.0179938135,
			"0.004": 15.4430436653,
			"0.005": 3.11316913715,
			"0.006": 2.00345349582,
			"0.007": 2.88038604813,
			"0.008": 2.14805338237,
			"0.009": 3.38423548568,
			"0.01": 4.66509349549,
			"0.011": 5.08693623461,
			"0.012": 4.82573072678,
			"0.013": 1.61388391526,
			"0.014": 0.0339507538757,
			"0.015": 0.0,
			"0.016": 0.0,
			"0.017": 0.0,
			"0.018": 0.0,
			"0.019": 0.0,
			"0.02": 0.0,
			"0.021": 0.0,
			"0.022": 0.0,
			"0.023": 0.0,
			"0.024": 0.0,
			"0.025": 0.0
		}
	}
}
