{
	 "smiles": "CC(C)(C)OC(=O)N1CCC(O)(C1)C(F)(F)F", 
	 "Tm": 376.15, 
	 "num_atms": 33, 
	 "gaussian": { 
		 "optdone": 1, 
		 "sigma_profile": "yes", 
		 "theory": "DFT", 
		 "functional": "B3LYP", 
		 "basiset": "6-31G**", 
		 "properties": { 
			 "R2extent": 5748.3413, 
			 "electric_dipole_moment_norm": 3.61017336564, 
			 "electric_quadrupole_moment_norm": 6.83712835626, 
			 "total_energy": -970.691222636, 
			 "HOMO_LUMO_gap": 0.2895, 
			 "cosmo_polarized_energy": -12.19, 
			 "cosmo_cavitation_energy": 35.8, 
			 "cosmo_dispersion_energy": -24.5, 
			 "cosmo_repulsion_energy": 1.85, 
			 "cosmo_total_nonelectrostatic_energy": 13.15, 
			 "SMD_solvation_energy": 7.23 
		},
		"coords": [
			{
				"x": -3.055419535,
				"y": -2.0799802042,
				"z": 1.498788235,
				"element": "C" 
			},
			{
				"x": -1.8678681017,
				"y": -1.7006230471,
				"z": 2.3902134141,
				"element": "C" 
			},
			{
				"x": -2.2664193333,
				"y": -0.7276189262,
				"z": 3.505223632,
				"element": "C" 
			},
			{
				"x": -1.2046843776,
				"y": -2.9516101288,
				"z": 2.9728250265,
				"element": "C" 
			},
			{
				"x": -0.7907218663,
				"y": -1.1181375964,
				"z": 1.5753841317,
				"element": "O" 
			},
			{
				"x": -0.992763574,
				"y": 0.0266022612,
				"z": 0.8757173189,
				"element": "C" 
			},
			{
				"x": -2.0215194839,
				"y": 0.6873853563,
				"z": 0.841785274,
				"element": "O" 
			},
			{
				"x": 0.1319899259,
				"y": 0.3604940223,
				"z": 0.1792114789,
				"element": "N" 
			},
			{
				"x": 1.4209334558,
				"y": -0.3328540287,
				"z": 0.2338058389,
				"element": "C" 
			},
			{
				"x": 2.1885328126,
				"y": 0.3105823518,
				"z": -0.92728452,
				"element": "C" 
			},
			{
				"x": 1.6718734817,
				"y": 1.7643140974,
				"z": -0.9122576824,
				"element": "C" 
			},
			{
				"x": 2.2735858269,
				"y": 2.524276035,
				"z": 0.1239326422,
				"element": "O" 
			},
			{
				"x": 0.1822391437,
				"y": 1.6177419659,
				"z": -0.5653004137,
				"element": "C" 
			},
			{
				"x": 1.893757004,
				"y": 2.4898734716,
				"z": -2.2398821084,
				"element": "C" 
			},
			{
				"x": 1.4158351044,
				"y": 1.7875890692,
				"z": -3.2893007399,
				"element": "F" 
			},
			{
				"x": 3.2240157361,
				"y": 2.674803963,
				"z": -2.4446074182,
				"element": "F" 
			},
			{
				"x": 1.3087300006,
				"y": 3.6989361039,
				"z": -2.2555979339,
				"element": "F" 
			},
			{
				"x": -2.727529932,
				"y": -2.7422358432,
				"z": 0.6910056407,
				"element": "H" 
			},
			{
				"x": -3.8046733872,
				"y": -2.614200565,
				"z": 2.0921556564,
				"element": "H" 
			},
			{
				"x": -3.5156929861,
				"y": -1.1923836988,
				"z": 1.0643775047,
				"element": "H" 
			},
			{
				"x": -2.7170638895,
				"y": 0.1747389343,
				"z": 3.09174945,
				"element": "H" 
			},
			{
				"x": -1.3884575483,
				"y": -0.4476754033,
				"z": 4.0961832798,
				"element": "H" 
			},
			{
				"x": -2.9863845968,
				"y": -1.2100289364,
				"z": 4.1744247128,
				"element": "H" 
			},
			{
				"x": -0.8826617653,
				"y": -3.6262564296,
				"z": 2.1740282939,
				"element": "H" 
			},
			{
				"x": -0.32917067,
				"y": -2.6816864844,
				"z": 3.5705924287,
				"element": "H" 
			},
			{
				"x": -1.9106678719,
				"y": -3.4871043924,
				"z": 3.6145072834,
				"element": "H" 
			},
			{
				"x": 1.2900281468,
				"y": -1.4101912655,
				"z": 0.1144330744,
				"element": "H" 
			},
			{
				"x": 1.927085741,
				"y": -0.1530453847,
				"z": 1.1906829293,
				"element": "H" 
			},
			{
				"x": 1.9222354802,
				"y": -0.1681922952,
				"z": -1.8739980843,
				"element": "H" 
			},
			{
				"x": 3.274421368,
				"y": 0.2604260301,
				"z": -0.809186847,
				"element": "H" 
			},
			{
				"x": 3.2172404807,
				"y": 2.6038261532,
				"z": -0.0759966562,
				"element": "H" 
			},
			{
				"x": -0.4403564327,
				"y": 1.5696641382,
				"z": -1.4658586538,
				"element": "H" 
			},
			{
				"x": -0.1541483571,
				"y": 2.4626706764,
				"z": 0.0397438115,
				"element": "H" 
			}
		],
		 "valence_orbital": [ 
			{
				"type": "occ",
				"energy": -0.32948,
				"method": "rhf"
			},
			{
				"type": "occ",
				"energy": -0.29847,
				"method": "rhf"
			},
			{
				"type": "occ",
				"energy": -0.28506,
				"method": "rhf"
			},
			{
				"type": "occ",
				"energy": -0.25885,
				"method": "rhf"
			},
			{
				"type": "occ",
				"energy": -0.23932,
				"method": "rhf"
			},
			{
				"type": "unocc",
				"energy": 0.05018,
				"method": "rhf"
			},
			{
				"type": "unocc",
				"energy": 0.06269,
				"method": "rhf"
			},
			{
				"type": "unocc",
				"energy": 0.08627,
				"method": "rhf"
			},
			{
				"type": "unocc",
				"energy": 0.10121,
				"method": "rhf"
			},
			{
				"type": "unocc",
				"energy": 0.10317,
				"method": "rhf"
			}
		],
		"cosmo_sigma_profile": { 
			"-0.025": 0.0,
			"-0.024": 0.0,
			"-0.023": 0.0,
			"-0.022": 0.0,
			"-0.021": 0.0,
			"-0.02": 0.0,
			"-0.019": 0.0,
			"-0.018": 0.0,
			"-0.017": 0.0576783925613,
			"-0.016": 0.485609723638,
			"-0.015": 0.829923411288,
			"-0.014": 0.568073261513,
			"-0.013": 0.409719425451,
			"-0.012": 1.50589984198,
			"-0.011": 1.49212887757,
			"-0.01": 1.06394895741,
			"-0.009": 0.844075001821,
			"-0.008": 1.02166539181,
			"-0.007": 1.88207729607,
			"-0.006": 4.82098811671,
			"-0.005": 10.8122181017,
			"-0.004": 24.6337423922,
			"-0.003": 30.5599845984,
			"-0.002": 23.401277085,
			"-0.001": 24.9192647444,
			"0.0": 32.1450243776,
			"0.001": 29.4726476847,
			"0.002": 29.3546335693,
			"0.003": 20.4994401259,
			"0.004": 5.55908756672,
			"0.005": 5.48793684898,
			"0.006": 5.37585144955,
			"0.007": 3.98406090992,
			"0.008": 2.59618723739,
			"0.009": 2.33129333455,
			"0.01": 2.39742098547,
			"0.011": 3.16799970912,
			"0.012": 2.74328864131,
			"0.013": 3.026178347,
			"0.014": 1.73370953003,
			"0.015": 0.0,
			"0.016": 0.0,
			"0.017": 0.0,
			"0.018": 0.0,
			"0.019": 0.0,
			"0.02": 0.0,
			"0.021": 0.0,
			"0.022": 0.0,
			"0.023": 0.0,
			"0.024": 0.0,
			"0.025": 0.0
		}
	}
}
