{
	 "smiles": "CC1=C(N=NN1CC1=CC=CC=C1)C(O)=O", 
	 "Tm": 443.15, 
	 "num_atms": 27, 
	 "gaussian": { 
		 "optdone": 1, 
		 "sigma_profile": "yes", 
		 "theory": "DFT", 
		 "functional": "B3LYP", 
		 "basiset": "6-31G**", 
		 "properties": { 
			 "R2extent": 4688.088, 
			 "electric_dipole_moment_norm": 6.66271267953, 
			 "electric_quadrupole_moment_norm": 22.950221766, 
			 "total_energy": -740.486069691, 
			 "HOMO_LUMO_gap": 0.23248, 
			 "cosmo_polarized_energy": -19.93, 
			 "cosmo_cavitation_energy": 31.9, 
			 "cosmo_dispersion_energy": -22.44, 
			 "cosmo_repulsion_energy": 1.75, 
			 "cosmo_total_nonelectrostatic_energy": 11.2, 
			 "SMD_solvation_energy": 5.2 
		},
		"coords": [
			{
				"x": 1.5004701677,
				"y": -0.0061999233,
				"z": 1.3708170569,
				"element": "C" 
			},
			{
				"x": 1.6004011469,
				"y": 1.1174831413,
				"z": 0.3927531216,
				"element": "C" 
			},
			{
				"x": 2.6624223891,
				"y": 1.7302249921,
				"z": -0.269535456,
				"element": "C" 
			},
			{
				"x": 2.1716050819,
				"y": 2.7306165661,
				"z": -1.0663176854,
				"element": "N" 
			},
			{
				"x": 0.8867186744,
				"y": 2.7798312055,
				"z": -0.9404921699,
				"element": "N" 
			},
			{
				"x": 0.5204496503,
				"y": 1.8069777792,
				"z": -0.0524039364,
				"element": "N" 
			},
			{
				"x": -0.8970933412,
				"y": 1.6034497212,
				"z": 0.2370572153,
				"element": "C" 
			},
			{
				"x": -1.5027674841,
				"y": 0.4261664341,
				"z": -0.5060997634,
				"element": "C" 
			},
			{
				"x": -2.2476948243,
				"y": -0.5373704552,
				"z": 0.1814907025,
				"element": "C" 
			},
			{
				"x": -2.8357255248,
				"y": -1.6019326846,
				"z": -0.5060708603,
				"element": "C" 
			},
			{
				"x": -2.6761137599,
				"y": -1.7126808823,
				"z": -1.8872119491,
				"element": "C" 
			},
			{
				"x": -1.9297531926,
				"y": -0.7544803552,
				"z": -2.5791274396,
				"element": "C" 
			},
			{
				"x": -1.347426691,
				"y": 0.3107078704,
				"z": -1.8941878713,
				"element": "C" 
			},
			{
				"x": 4.1106352256,
				"y": 1.4672651109,
				"z": -0.2260778774,
				"element": "C" 
			},
			{
				"x": 4.4275466495,
				"y": 0.4503312053,
				"z": 0.6277258426,
				"element": "O" 
			},
			{
				"x": 4.9545174507,
				"y": 2.0609445309,
				"z": -0.8585323667,
				"element": "O" 
			},
			{
				"x": 0.8302819929,
				"y": -0.788380823,
				"z": 0.9991029877,
				"element": "H" 
			},
			{
				"x": 2.4855173891,
				"y": -0.4347104964,
				"z": 1.5448280602,
				"element": "H" 
			},
			{
				"x": 1.1012606194,
				"y": 0.3435961648,
				"z": 2.3305013554,
				"element": "H" 
			},
			{
				"x": -1.3803430236,
				"y": 2.5411102711,
				"z": -0.0515012369,
				"element": "H" 
			},
			{
				"x": -1.0204974364,
				"y": 1.4817526139,
				"z": 1.3171216983,
				"element": "H" 
			},
			{
				"x": -2.373169497,
				"y": -0.4544846336,
				"z": 1.2586394283,
				"element": "H" 
			},
			{
				"x": -3.4121718856,
				"y": -2.3438981838,
				"z": 0.0387833793,
				"element": "H" 
			},
			{
				"x": -3.1293361598,
				"y": -2.5412888065,
				"z": -2.4234300911,
				"element": "H" 
			},
			{
				"x": -1.8030406586,
				"y": -0.8361855178,
				"z": -3.6546930382,
				"element": "H" 
			},
			{
				"x": -0.7676537639,
				"y": 1.0563840042,
				"z": -2.4313020702,
				"element": "H" 
			},
			{
				"x": 5.3937608051,
				"y": 0.3637711508,
				"z": 0.5742629638,
				"element": "H" 
			}
		],
		 "valence_orbital": [ 
			{
				"type": "occ",
				"energy": -0.27552,
				"method": "rhf"
			},
			{
				"type": "occ",
				"energy": -0.26858,
				"method": "rhf"
			},
			{
				"type": "occ",
				"energy": -0.26471,
				"method": "rhf"
			},
			{
				"type": "occ",
				"energy": -0.26218,
				"method": "rhf"
			},
			{
				"type": "occ",
				"energy": -0.26005,
				"method": "rhf"
			},
			{
				"type": "unocc",
				"energy": -0.02757,
				"method": "rhf"
			},
			{
				"type": "unocc",
				"energy": -0.02253,
				"method": "rhf"
			},
			{
				"type": "unocc",
				"energy": -0.01627,
				"method": "rhf"
			},
			{
				"type": "unocc",
				"energy": -0.00371,
				"method": "rhf"
			},
			{
				"type": "unocc",
				"energy": 0.07221,
				"method": "rhf"
			}
		],
		"cosmo_sigma_profile": { 
			"-0.025": 0.0,
			"-0.024": 0.0,
			"-0.023": 0.0,
			"-0.022": 0.0,
			"-0.021": 0.0,
			"-0.02": 0.0,
			"-0.019": 0.0685947072414,
			"-0.018": 0.928412094544,
			"-0.017": 0.621311019995,
			"-0.016": 0.906869238941,
			"-0.015": 0.892017020901,
			"-0.014": 0.833620046865,
			"-0.013": 0.456184384069,
			"-0.012": 0.785590086292,
			"-0.011": 0.722384076307,
			"-0.01": 0.679830377483,
			"-0.009": 0.844854983168,
			"-0.008": 5.70926087123,
			"-0.007": 8.2098160808,
			"-0.006": 13.5404609599,
			"-0.005": 16.9426954304,
			"-0.004": 20.3745196148,
			"-0.003": 21.6251268774,
			"-0.002": 26.281899331,
			"-0.001": 19.8689273863,
			"0.0": 13.6016953185,
			"0.001": 12.8048653404,
			"0.002": 11.5655030849,
			"0.003": 11.6640725183,
			"0.004": 12.2106193493,
			"0.005": 11.753272867,
			"0.006": 4.84778812189,
			"0.007": 3.3389238991,
			"0.008": 3.10237355856,
			"0.009": 3.95927044535,
			"0.01": 5.94388117181,
			"0.011": 7.50486802619,
			"0.012": 4.90138987986,
			"0.013": 3.1492101563,
			"0.014": 2.49195124434,
			"0.015": 1.44370516034,
			"0.016": 0.259958827146,
			"0.017": 0.0,
			"0.018": 0.0,
			"0.019": 0.0,
			"0.02": 0.0,
			"0.021": 0.0,
			"0.022": 0.0,
			"0.023": 0.0,
			"0.024": 0.0,
			"0.025": 0.0
		}
	}
}
