{
	 "smiles": "O=C1CSC(=O)N1CC1=CC(=CC=C1)C#N", 
	 "Tm": 386.15, 
	 "num_atms": 24, 
	 "gaussian": { 
		 "optdone": 1, 
		 "sigma_profile": "yes", 
		 "theory": "DFT", 
		 "functional": "B3LYP", 
		 "basiset": "6-31G**", 
		 "properties": { 
			 "R2extent": 4561.3204, 
			 "electric_dipole_moment_norm": 5.61830170158, 
			 "electric_quadrupole_moment_norm": 18.0186966771, 
			 "total_energy": -1082.14562629, 
			 "HOMO_LUMO_gap": 0.21286, 
			 "cosmo_polarized_energy": -16.37, 
			 "cosmo_cavitation_energy": 31.75, 
			 "cosmo_dispersion_energy": -22.45, 
			 "cosmo_repulsion_energy": 1.7, 
			 "cosmo_total_nonelectrostatic_energy": 11.01, 
			 "SMD_solvation_energy": 7.55 
		},
		"coords": [
			{
				"x": -3.0082142208,
				"y": 0.4180063539,
				"z": 1.6409154364,
				"element": "O" 
			},
			{
				"x": -2.7427457452,
				"y": -0.4052465684,
				"z": 0.787709594,
				"element": "C" 
			},
			{
				"x": -3.6125660196,
				"y": -0.6892729396,
				"z": -0.4320589335,
				"element": "C" 
			},
			{
				"x": -2.7897373742,
				"y": -1.9912641406,
				"z": -1.4200129055,
				"element": "S" 
			},
			{
				"x": -1.4256222753,
				"y": -2.1037136304,
				"z": -0.2545891555,
				"element": "C" 
			},
			{
				"x": -0.4825420186,
				"y": -2.8501170956,
				"z": -0.3641302934,
				"element": "O" 
			},
			{
				"x": -1.6148468626,
				"y": -1.2094587251,
				"z": 0.8033383403,
				"element": "N" 
			},
			{
				"x": -0.6200896305,
				"y": -1.1164660234,
				"z": 1.8848979837,
				"element": "C" 
			},
			{
				"x": 0.4618154525,
				"y": -0.0918475563,
				"z": 1.6059546059,
				"element": "C" 
			},
			{
				"x": 1.6279323922,
				"y": -0.4658088382,
				"z": 0.9333619624,
				"element": "C" 
			},
			{
				"x": 2.6257486173,
				"y": 0.4873560241,
				"z": 0.6736253737,
				"element": "C" 
			},
			{
				"x": 2.4544298405,
				"y": 1.8197734842,
				"z": 1.0855538248,
				"element": "C" 
			},
			{
				"x": 1.2874185666,
				"y": 2.1880000924,
				"z": 1.7495982493,
				"element": "C" 
			},
			{
				"x": 0.2960283553,
				"y": 1.2402370407,
				"z": 2.0089694962,
				"element": "C" 
			},
			{
				"x": 3.8262887723,
				"y": 0.0999282506,
				"z": -0.0103946486,
				"element": "C" 
			},
			{
				"x": 4.8022769717,
				"y": -0.2080030444,
				"z": -0.5631403757,
				"element": "N" 
			},
			{
				"x": -4.6006128388,
				"y": -1.0149913208,
				"z": -0.0984685191,
				"element": "H" 
			},
			{
				"x": -3.7266972406,
				"y": 0.2296182261,
				"z": -1.0117380375,
				"element": "H" 
			},
			{
				"x": -0.1913136939,
				"y": -2.1132976919,
				"z": 1.9993104865,
				"element": "H" 
			},
			{
				"x": -1.1740056835,
				"y": -0.8544919431,
				"z": 2.788310871,
				"element": "H" 
			},
			{
				"x": 1.7603207291,
				"y": -1.4907509649,
				"z": 0.6023914509,
				"element": "H" 
			},
			{
				"x": 3.2325732136,
				"y": 2.5479556325,
				"z": 0.8831256823,
				"element": "H" 
			},
			{
				"x": 1.1503753455,
				"y": 3.2164375972,
				"z": 2.0688328717,
				"element": "H" 
			},
			{
				"x": -0.6185146531,
				"y": 1.5301177809,
				"z": 2.5176366399,
				"element": "H" 
			}
		],
		 "valence_orbital": [ 
			{
				"type": "occ",
				"energy": -0.30298,
				"method": "rhf"
			},
			{
				"type": "occ",
				"energy": -0.28572,
				"method": "rhf"
			},
			{
				"type": "occ",
				"energy": -0.27917,
				"method": "rhf"
			},
			{
				"type": "occ",
				"energy": -0.27481,
				"method": "rhf"
			},
			{
				"type": "occ",
				"energy": -0.26917,
				"method": "rhf"
			},
			{
				"type": "unocc",
				"energy": -0.05631,
				"method": "rhf"
			},
			{
				"type": "unocc",
				"energy": -0.0446,
				"method": "rhf"
			},
			{
				"type": "unocc",
				"energy": -0.03544,
				"method": "rhf"
			},
			{
				"type": "unocc",
				"energy": -0.01035,
				"method": "rhf"
			},
			{
				"type": "unocc",
				"energy": 0.01224,
				"method": "rhf"
			}
		],
		"cosmo_sigma_profile": { 
			"-0.025": 0.0,
			"-0.024": 0.0,
			"-0.023": 0.0,
			"-0.022": 0.0,
			"-0.021": 0.0,
			"-0.02": 0.0,
			"-0.019": 0.0,
			"-0.018": 0.0,
			"-0.017": 0.0,
			"-0.016": 0.0,
			"-0.015": 0.0,
			"-0.014": 0.0,
			"-0.013": 0.0,
			"-0.012": 0.0,
			"-0.011": 0.0,
			"-0.01": 1.28776961927,
			"-0.009": 5.75828506598,
			"-0.008": 8.56481689042,
			"-0.007": 15.0790084517,
			"-0.006": 19.2592303829,
			"-0.005": 18.6476159176,
			"-0.004": 15.5975978194,
			"-0.003": 12.5606173717,
			"-0.002": 13.5099759737,
			"-0.001": 16.5666778256,
			"0.0": 18.5591573094,
			"0.001": 20.9931077308,
			"0.002": 19.3283881668,
			"0.003": 10.4444858353,
			"0.004": 8.59774600688,
			"0.005": 7.14274015902,
			"0.006": 5.84745918862,
			"0.007": 4.29098741278,
			"0.008": 7.13749232191,
			"0.009": 6.73791387369,
			"0.01": 8.90147935857,
			"0.011": 8.15371605253,
			"0.012": 3.89664471169,
			"0.013": 1.47560556923,
			"0.014": 0.0416383773618,
			"0.015": 0.0,
			"0.016": 0.0,
			"0.017": 0.0,
			"0.018": 0.0,
			"0.019": 0.0,
			"0.02": 0.0,
			"0.021": 0.0,
			"0.022": 0.0,
			"0.023": 0.0,
			"0.024": 0.0,
			"0.025": 0.0
		}
	}
}
