{
	 "smiles": "CCC1=CC=CC=C1N", 
	 "Tm": 227.65, 
	 "num_atms": 20, 
	 "gaussian": { 
		 "optdone": 1, 
		 "sigma_profile": "yes", 
		 "theory": "DFT", 
		 "functional": "B3LYP", 
		 "basiset": "6-31G**", 
		 "properties": { 
			 "R2extent": 1508.5975, 
			 "electric_dipole_moment_norm": 1.69333507907, 
			 "electric_quadrupole_moment_norm": 6.76620144025, 
			 "total_energy": -366.244213711, 
			 "HOMO_LUMO_gap": 0.20616, 
			 "cosmo_polarized_energy": -7.37, 
			 "cosmo_cavitation_energy": 22.34, 
			 "cosmo_dispersion_energy": -16.57, 
			 "cosmo_repulsion_energy": 1.36, 
			 "cosmo_total_nonelectrostatic_energy": 7.13, 
			 "SMD_solvation_energy": 3.68 
		},
		"coords": [
			{
				"x": -1.0882147034,
				"y": 0.1538210433,
				"z": 1.5630008125,
				"element": "C" 
			},
			{
				"x": 0.1971783173,
				"y": 0.4969321413,
				"z": 0.7839275706,
				"element": "C" 
			},
			{
				"x": 0.4507266624,
				"y": -0.4080664568,
				"z": -0.403986334,
				"element": "C" 
			},
			{
				"x": 1.3161353521,
				"y": -1.5007007756,
				"z": -0.2917709616,
				"element": "C" 
			},
			{
				"x": 1.5700803337,
				"y": -2.3604882034,
				"z": -1.3611858193,
				"element": "C" 
			},
			{
				"x": 0.9420645787,
				"y": -2.1206041762,
				"z": -2.5835282713,
				"element": "C" 
			},
			{
				"x": 0.0724985042,
				"y": -1.0419673681,
				"z": -2.723130175,
				"element": "C" 
			},
			{
				"x": -0.186028093,
				"y": -0.1781734814,
				"z": -1.6462695104,
				"element": "C" 
			},
			{
				"x": -1.0136369602,
				"y": 0.9385117148,
				"z": -1.8319408845,
				"element": "N" 
			},
			{
				"x": -1.0377846193,
				"y": -0.8642999728,
				"z": 1.9613110796,
				"element": "H" 
			},
			{
				"x": -1.9800947352,
				"y": 0.2047337864,
				"z": 0.927607504,
				"element": "H" 
			},
			{
				"x": -1.2370821662,
				"y": 0.8416515888,
				"z": 2.4022769821,
				"element": "H" 
			},
			{
				"x": 1.0497386668,
				"y": 0.4297365158,
				"z": 1.4689261494,
				"element": "H" 
			},
			{
				"x": 0.1583454038,
				"y": 1.5427633297,
				"z": 0.45225352,
				"element": "H" 
			},
			{
				"x": 1.8073027383,
				"y": -1.6737163859,
				"z": 0.6636077298,
				"element": "H" 
			},
			{
				"x": 2.2501230989,
				"y": -3.1983429196,
				"z": -1.2424043493,
				"element": "H" 
			},
			{
				"x": 1.1245852929,
				"y": -2.7736698241,
				"z": -3.4325361871,
				"element": "H" 
			},
			{
				"x": -0.4150975502,
				"y": -0.856819187,
				"z": -3.6779976624,
				"element": "H" 
			},
			{
				"x": -1.6120436885,
				"y": 0.8795824922,
				"z": -2.6447661708,
				"element": "H" 
			},
			{
				"x": -1.531696433,
				"y": 1.2361161386,
				"z": -1.0177950223,
				"element": "H" 
			}
		],
		 "valence_orbital": [ 
			{
				"type": "occ",
				"energy": -0.3318,
				"method": "rhf"
			},
			{
				"type": "occ",
				"energy": -0.3214,
				"method": "rhf"
			},
			{
				"type": "occ",
				"energy": -0.29901,
				"method": "rhf"
			},
			{
				"type": "occ",
				"energy": -0.23317,
				"method": "rhf"
			},
			{
				"type": "occ",
				"energy": -0.19555,
				"method": "rhf"
			},
			{
				"type": "unocc",
				"energy": 0.01061,
				"method": "rhf"
			},
			{
				"type": "unocc",
				"energy": 0.0235,
				"method": "rhf"
			},
			{
				"type": "unocc",
				"energy": 0.07456,
				"method": "rhf"
			},
			{
				"type": "unocc",
				"energy": 0.10456,
				"method": "rhf"
			},
			{
				"type": "unocc",
				"energy": 0.11406,
				"method": "rhf"
			}
		],
		"cosmo_sigma_profile": { 
			"-0.025": 0.0,
			"-0.024": 0.0,
			"-0.023": 0.0,
			"-0.022": 0.0,
			"-0.021": 0.0,
			"-0.02": 0.0,
			"-0.019": 0.0,
			"-0.018": 0.0,
			"-0.017": 0.0,
			"-0.016": 0.0,
			"-0.015": 0.0,
			"-0.014": 0.0,
			"-0.013": 0.0,
			"-0.012": 0.877259152366,
			"-0.011": 1.74322686105,
			"-0.01": 2.77336207356,
			"-0.009": 3.17096198355,
			"-0.008": 2.70535631601,
			"-0.007": 3.3024580626,
			"-0.006": 3.23528654118,
			"-0.005": 6.18226471845,
			"-0.004": 11.2367641008,
			"-0.003": 15.3086126302,
			"-0.002": 18.8715874671,
			"-0.001": 16.6775825315,
			"0.0": 17.6789862549,
			"0.001": 14.624910571,
			"0.002": 8.9940194738,
			"0.003": 7.19826529615,
			"0.004": 6.98938978008,
			"0.005": 7.30639034419,
			"0.006": 9.11075975305,
			"0.007": 8.2806726718,
			"0.008": 4.77155378529,
			"0.009": 0.907247189836,
			"0.01": 0.769221018475,
			"0.011": 0.563094406426,
			"0.012": 0.775175788219,
			"0.013": 0.56948704396,
			"0.014": 0.552330767193,
			"0.015": 0.42860181706,
			"0.016": 0.0690020642602,
			"0.017": 0.0,
			"0.018": 0.0,
			"0.019": 0.0,
			"0.02": 0.0,
			"0.021": 0.0,
			"0.022": 0.0,
			"0.023": 0.0,
			"0.024": 0.0,
			"0.025": 0.0
		}
	}
}
