{
	 "smiles": "COC1=C(F)C(F)=C(F)C(F)=C1F", 
	 "Tm": 235.65, 
	 "num_atms": 16, 
	 "gaussian": { 
		 "optdone": 1, 
		 "sigma_profile": "yes", 
		 "theory": "DFT", 
		 "functional": "B3LYP", 
		 "basiset": "6-31G**", 
		 "properties": { 
			 "R2extent": 2654.9552, 
			 "electric_dipole_moment_norm": 2.64233689184, 
			 "electric_quadrupole_moment_norm": 7.14858001284, 
			 "total_energy": -842.884349702, 
			 "HOMO_LUMO_gap": 0.22268, 
			 "cosmo_polarized_energy": -4.16, 
			 "cosmo_cavitation_energy": 23.39, 
			 "cosmo_dispersion_energy": -16.65, 
			 "cosmo_repulsion_energy": 1.22, 
			 "cosmo_total_nonelectrostatic_energy": 7.96, 
			 "SMD_solvation_energy": 7.33 
		},
		"coords": [
			{
				"x": 0.2140843578,
				"y": 2.6531640363,
				"z": 0.3605350739,
				"element": "C" 
			},
			{
				"x": 0.9865830788,
				"y": 1.4590960023,
				"z": 0.198569906,
				"element": "O" 
			},
			{
				"x": 0.4559924137,
				"y": 0.3587977389,
				"z": -0.3810217842,
				"element": "C" 
			},
			{
				"x": -0.8403538904,
				"y": 0.1926244439,
				"z": -0.8893491013,
				"element": "C" 
			},
			{
				"x": -1.7499431535,
				"y": 1.1878974054,
				"z": -0.8457745482,
				"element": "F" 
			},
			{
				"x": -1.2445504435,
				"y": -1.0143617891,
				"z": -1.4638264756,
				"element": "C" 
			},
			{
				"x": -2.4913737492,
				"y": -1.1283654723,
				"z": -1.9363950405,
				"element": "F" 
			},
			{
				"x": -0.3684104478,
				"y": -2.0886343272,
				"z": -1.5474683195,
				"element": "C" 
			},
			{
				"x": -0.759020734,
				"y": -3.2436147654,
				"z": -2.0985610465,
				"element": "F" 
			},
			{
				"x": 0.9258831478,
				"y": -1.9463098926,
				"z": -1.0484216464,
				"element": "C" 
			},
			{
				"x": 1.7841098587,
				"y": -2.9693739607,
				"z": -1.1199702948,
				"element": "F" 
			},
			{
				"x": 1.3249508531,
				"y": -0.7447411221,
				"z": -0.4777269491,
				"element": "C" 
			},
			{
				"x": 2.571947629,
				"y": -0.6311093362,
				"z": -0.0055306554,
				"element": "F" 
			},
			{
				"x": 0.8885909999,
				"y": 3.3581021933,
				"z": 0.8475414702,
				"element": "H" 
			},
			{
				"x": -0.1075666866,
				"y": 3.0562536868,
				"z": -0.6036110675,
				"element": "H" 
			},
			{
				"x": -0.6606232336,
				"y": 2.4818751589,
				"z": 0.993810479,
				"element": "H" 
			}
		],
		 "valence_orbital": [ 
			{
				"type": "occ",
				"energy": -0.3819,
				"method": "rhf"
			},
			{
				"type": "occ",
				"energy": -0.35209,
				"method": "rhf"
			},
			{
				"type": "occ",
				"energy": -0.32504,
				"method": "rhf"
			},
			{
				"type": "occ",
				"energy": -0.25561,
				"method": "rhf"
			},
			{
				"type": "occ",
				"energy": -0.23831,
				"method": "rhf"
			},
			{
				"type": "unocc",
				"energy": -0.01563,
				"method": "rhf"
			},
			{
				"type": "unocc",
				"energy": -0.01304,
				"method": "rhf"
			},
			{
				"type": "unocc",
				"energy": 0.00214,
				"method": "rhf"
			},
			{
				"type": "unocc",
				"energy": 0.08835,
				"method": "rhf"
			},
			{
				"type": "unocc",
				"energy": 0.10008,
				"method": "rhf"
			}
		],
		"cosmo_sigma_profile": { 
			"-0.025": 0.0,
			"-0.024": 0.0,
			"-0.023": 0.0,
			"-0.022": 0.0,
			"-0.021": 0.0,
			"-0.02": 0.0,
			"-0.019": 0.0,
			"-0.018": 0.0,
			"-0.017": 0.0,
			"-0.016": 0.0,
			"-0.015": 0.0,
			"-0.014": 0.0,
			"-0.013": 0.0,
			"-0.012": 0.0,
			"-0.011": 0.0,
			"-0.01": 0.0,
			"-0.009": 0.0,
			"-0.008": 0.0,
			"-0.007": 1.07946748284,
			"-0.006": 7.05482973584,
			"-0.005": 8.62742114078,
			"-0.004": 11.7615360742,
			"-0.003": 24.3403096804,
			"-0.002": 20.8382962043,
			"-0.001": 11.814257085,
			"0.0": 9.74630999875,
			"0.001": 11.327869397,
			"0.002": 27.8743255602,
			"0.003": 41.8647758605,
			"0.004": 4.44008583705,
			"0.005": 2.32917230323,
			"0.006": 1.69826969262,
			"0.007": 1.65264870211,
			"0.008": 1.98995233442,
			"0.009": 0.776453943768,
			"0.01": 0.0,
			"0.011": 0.0,
			"0.012": 0.0,
			"0.013": 0.0,
			"0.014": 0.0,
			"0.015": 0.0,
			"0.016": 0.0,
			"0.017": 0.0,
			"0.018": 0.0,
			"0.019": 0.0,
			"0.02": 0.0,
			"0.021": 0.0,
			"0.022": 0.0,
			"0.023": 0.0,
			"0.024": 0.0,
			"0.025": 0.0
		}
	}
}
