{
	 "smiles": "NCC1=CC2=C(SC=C2)C=C1", 
	 "Tm": 315.15, 
	 "num_atms": 20, 
	 "gaussian": { 
		 "optdone": 1, 
		 "sigma_profile": "yes", 
		 "theory": "DFT", 
		 "functional": "B3LYP", 
		 "basiset": "6-31G**", 
		 "properties": { 
			 "R2extent": 2741.9334, 
			 "electric_dipole_moment_norm": 1.76310085361, 
			 "electric_quadrupole_moment_norm": 12.0669501872, 
			 "total_energy": -801.317005534, 
			 "HOMO_LUMO_gap": 0.19063, 
			 "cosmo_polarized_energy": -7.86, 
			 "cosmo_cavitation_energy": 24.83, 
			 "cosmo_dispersion_energy": -19.21, 
			 "cosmo_repulsion_energy": 1.5, 
			 "cosmo_total_nonelectrostatic_energy": 7.12, 
			 "SMD_solvation_energy": 3.06 
		},
		"coords": [
			{
				"x": 0.7722322484,
				"y": -3.1487275685,
				"z": -0.8696236668,
				"element": "N" 
			},
			{
				"x": -0.1756655072,
				"y": -3.2193793844,
				"z": 0.2455675997,
				"element": "C" 
			},
			{
				"x": -0.6429778242,
				"y": -1.8422742833,
				"z": 0.6843841784,
				"element": "C" 
			},
			{
				"x": 0.1779619032,
				"y": -0.7283896047,
				"z": 0.5373703281,
				"element": "C" 
			},
			{
				"x": -0.2572304609,
				"y": 0.5341603308,
				"z": 0.9791692805,
				"element": "C" 
			},
			{
				"x": -1.53673856,
				"y": 0.6520802046,
				"z": 1.5764535686,
				"element": "C" 
			},
			{
				"x": -1.8664945576,
				"y": 2.3128681436,
				"z": 2.0474727664,
				"element": "S" 
			},
			{
				"x": -0.3016140396,
				"y": 2.8218063625,
				"z": 1.4459853299,
				"element": "C" 
			},
			{
				"x": 0.425622493,
				"y": 1.8028585811,
				"z": 0.9204871074,
				"element": "C" 
			},
			{
				"x": -2.3706084385,
				"y": -0.4600647392,
				"z": 1.7275376528,
				"element": "C" 
			},
			{
				"x": -1.9156784855,
				"y": -1.6929971128,
				"z": 1.2758593852,
				"element": "C" 
			},
			{
				"x": 1.1321680273,
				"y": -4.0757759874,
				"z": -1.0790910204,
				"element": "H" 
			},
			{
				"x": 0.2961633833,
				"y": -2.8203404852,
				"z": -1.7066573376,
				"element": "H" 
			},
			{
				"x": -1.065291976,
				"y": -3.8417738901,
				"z": 0.0443351537,
				"element": "H" 
			},
			{
				"x": 0.3463251735,
				"y": -3.7040411904,
				"z": 1.0827178334,
				"element": "H" 
			},
			{
				"x": 1.1516055748,
				"y": -0.8477731011,
				"z": 0.0726625733,
				"element": "H" 
			},
			{
				"x": -0.0214705946,
				"y": 3.8636585519,
				"z": 1.5248610516,
				"element": "H" 
			},
			{
				"x": 1.4176117813,
				"y": 1.9291450802,
				"z": 0.5012051889,
				"element": "H" 
			},
			{
				"x": -3.3538747242,
				"y": -0.3655123092,
				"z": 2.1783421951,
				"element": "H" 
			},
			{
				"x": -2.5575454163,
				"y": -2.5648275984,
				"z": 1.3781608318,
				"element": "H" 
			}
		],
		 "valence_orbital": [ 
			{
				"type": "occ",
				"energy": -0.31728,
				"method": "rhf"
			},
			{
				"type": "occ",
				"energy": -0.27585,
				"method": "rhf"
			},
			{
				"type": "occ",
				"energy": -0.24118,
				"method": "rhf"
			},
			{
				"type": "occ",
				"energy": -0.22431,
				"method": "rhf"
			},
			{
				"type": "occ",
				"energy": -0.2107,
				"method": "rhf"
			},
			{
				"type": "unocc",
				"energy": -0.02007,
				"method": "rhf"
			},
			{
				"type": "unocc",
				"energy": 0.00381,
				"method": "rhf"
			},
			{
				"type": "unocc",
				"energy": 0.02779,
				"method": "rhf"
			},
			{
				"type": "unocc",
				"energy": 0.05246,
				"method": "rhf"
			},
			{
				"type": "unocc",
				"energy": 0.08674,
				"method": "rhf"
			}
		],
		"cosmo_sigma_profile": { 
			"-0.025": 0.0,
			"-0.024": 0.0,
			"-0.023": 0.0,
			"-0.022": 0.0,
			"-0.021": 0.0,
			"-0.02": 0.0,
			"-0.019": 0.0,
			"-0.018": 0.0,
			"-0.017": 0.0,
			"-0.016": 0.0,
			"-0.015": 0.0,
			"-0.014": 0.0,
			"-0.013": 0.0,
			"-0.012": 0.0,
			"-0.011": 0.00647516474396,
			"-0.01": 1.31992317075,
			"-0.009": 3.31175250728,
			"-0.008": 4.42707330728,
			"-0.007": 6.45693169322,
			"-0.006": 9.73794209799,
			"-0.005": 11.0419049105,
			"-0.004": 15.983363902,
			"-0.003": 16.1569834291,
			"-0.002": 15.2679252162,
			"-0.001": 11.8267950051,
			"0.0": 10.061959002,
			"0.001": 10.356745051,
			"0.002": 12.15063408,
			"0.003": 16.5089851727,
			"0.004": 21.6429245936,
			"0.005": 19.1394287222,
			"0.006": 7.26979948397,
			"0.007": 0.58720819147,
			"0.008": 0.467533867815,
			"0.009": 1.14524468943,
			"0.01": 1.0792461674,
			"0.011": 0.847504004195,
			"0.012": 0.183861135591,
			"0.013": 0.512942129767,
			"0.014": 0.819629324866,
			"0.015": 0.748661125196,
			"0.016": 0.315117833392,
			"0.017": 0.363469501235,
			"0.018": 0.0,
			"0.019": 0.0,
			"0.02": 0.0,
			"0.021": 0.0,
			"0.022": 0.0,
			"0.023": 0.0,
			"0.024": 0.0,
			"0.025": 0.0
		}
	}
}
