{
	 "smiles": "CC1=NNC(S)=N1", 
	 "Tm": 549.15, 
	 "num_atms": 12, 
	 "gaussian": { 
		 "optdone": 1, 
		 "sigma_profile": "yes", 
		 "theory": "DFT", 
		 "functional": "B3LYP", 
		 "basiset": "6-31G**", 
		 "properties": { 
			 "R2extent": 1330.6725, 
			 "electric_dipole_moment_norm": 1.22473331383, 
			 "electric_quadrupole_moment_norm": 5.50944535139, 
			 "total_energy": -679.759344516, 
			 "HOMO_LUMO_gap": 0.23312, 
			 "cosmo_polarized_energy": -11.1, 
			 "cosmo_cavitation_energy": 18.05, 
			 "cosmo_dispersion_energy": -14.29, 
			 "cosmo_repulsion_energy": 1.18, 
			 "cosmo_total_nonelectrostatic_energy": 4.93, 
			 "SMD_solvation_energy": 0.19 
		},
		"coords": [
			{
				"x": 1.4542594274,
				"y": 1.2292269006,
				"z": -0.084182013,
				"element": "C" 
			},
			{
				"x": 0.1338242279,
				"y": 0.5357497471,
				"z": 0.0430492526,
				"element": "C" 
			},
			{
				"x": -0.3721380594,
				"y": -0.227405048,
				"z": -0.9159874015,
				"element": "N" 
			},
			{
				"x": -1.5539911492,
				"y": -0.6335169634,
				"z": -0.3676861967,
				"element": "N" 
			},
			{
				"x": -1.6976202438,
				"y": -0.10592421,
				"z": 0.8681972647,
				"element": "C" 
			},
			{
				"x": -3.1076992961,
				"y": -0.4096476293,
				"z": 1.8888095268,
				"element": "S" 
			},
			{
				"x": -0.6493259204,
				"y": 0.6411179082,
				"z": 1.1655429621,
				"element": "N" 
			},
			{
				"x": 1.6567410214,
				"y": 1.794892072,
				"z": 0.8263697258,
				"element": "H" 
			},
			{
				"x": 2.262954305,
				"y": 0.5086803358,
				"z": -0.2397436082,
				"element": "H" 
			},
			{
				"x": 1.4562998275,
				"y": 1.9169967264,
				"z": -0.9352646337,
				"element": "H" 
			},
			{
				"x": -2.1704347798,
				"y": -1.2418015731,
				"z": -0.884899926,
				"element": "H" 
			},
			{
				"x": -2.6392693604,
				"y": 0.3530317339,
				"z": 2.8933950471,
				"element": "H" 
			}
		],
		 "valence_orbital": [ 
			{
				"type": "occ",
				"energy": -0.32955,
				"method": "rhf"
			},
			{
				"type": "occ",
				"energy": -0.31985,
				"method": "rhf"
			},
			{
				"type": "occ",
				"energy": -0.28661,
				"method": "rhf"
			},
			{
				"type": "occ",
				"energy": -0.27713,
				"method": "rhf"
			},
			{
				"type": "occ",
				"energy": -0.23539,
				"method": "rhf"
			},
			{
				"type": "unocc",
				"energy": -0.00227,
				"method": "rhf"
			},
			{
				"type": "unocc",
				"energy": 0.00736,
				"method": "rhf"
			},
			{
				"type": "unocc",
				"energy": 0.05446,
				"method": "rhf"
			},
			{
				"type": "unocc",
				"energy": 0.05894,
				"method": "rhf"
			},
			{
				"type": "unocc",
				"energy": 0.08472,
				"method": "rhf"
			}
		],
		"cosmo_sigma_profile": { 
			"-0.025": 0.0,
			"-0.024": 0.0,
			"-0.023": 0.0,
			"-0.022": 0.0,
			"-0.021": 0.0,
			"-0.02": 0.0,
			"-0.019": 0.0,
			"-0.018": 0.242013033731,
			"-0.017": 1.93478598468,
			"-0.016": 1.3333058662,
			"-0.015": 1.6580284593,
			"-0.014": 0.915977647537,
			"-0.013": 1.31775679363,
			"-0.012": 2.06506360755,
			"-0.011": 2.59239067222,
			"-0.01": 1.92558593315,
			"-0.009": 2.07546181939,
			"-0.008": 1.84176067418,
			"-0.007": 2.25471478061,
			"-0.006": 2.67629356777,
			"-0.005": 6.49526737104,
			"-0.004": 7.86778725656,
			"-0.003": 6.99241978837,
			"-0.002": 9.54795699857,
			"-0.001": 12.7484583542,
			"0.0": 12.235463332,
			"0.001": 11.6401581112,
			"0.002": 9.38873047606,
			"0.003": 8.80821793778,
			"0.004": 6.12141013683,
			"0.005": 5.20734726222,
			"0.006": 5.78805857485,
			"0.007": 3.67285537422,
			"0.008": 2.58454690285,
			"0.009": 1.81113580362,
			"0.01": 2.34361041562,
			"0.011": 2.44133398404,
			"0.012": 2.16369426289,
			"0.013": 1.28478825277,
			"0.014": 2.27415495121,
			"0.015": 1.73171280097,
			"0.016": 0.460522204318,
			"0.017": 0.0134429668552,
			"0.018": 0.0,
			"0.019": 0.0,
			"0.02": 0.0,
			"0.021": 0.0,
			"0.022": 0.0,
			"0.023": 0.0,
			"0.024": 0.0,
			"0.025": 0.0
		}
	}
}
