{
	 "smiles": "C#CCN1C=CC2=C1C=CC=C2", 
	 "Tm": 317.15, 
	 "num_atms": 21, 
	 "gaussian": { 
		 "optdone": 1, 
		 "sigma_profile": "yes", 
		 "theory": "DFT", 
		 "functional": "B3LYP", 
		 "basiset": "6-31G**", 
		 "properties": { 
			 "R2extent": 2054.0317, 
			 "electric_dipole_moment_norm": 1.98231038437, 
			 "electric_quadrupole_moment_norm": 4.80632509512, 
			 "total_energy": -479.265317978, 
			 "HOMO_LUMO_gap": 0.19362, 
			 "cosmo_polarized_energy": -8.96, 
			 "cosmo_cavitation_energy": 25.84, 
			 "cosmo_dispersion_energy": -18.05, 
			 "cosmo_repulsion_energy": 1.41, 
			 "cosmo_total_nonelectrostatic_energy": 9.21, 
			 "SMD_solvation_energy": 5.71 
		},
		"coords": [
			{
				"x": 0.8401514515,
				"y": -2.5636400208,
				"z": 2.4898507895,
				"element": "C" 
			},
			{
				"x": -0.1337019291,
				"y": -1.9602686075,
				"z": 2.1104389379,
				"element": "C" 
			},
			{
				"x": -1.3288435278,
				"y": -1.2398015027,
				"z": 1.6516763707,
				"element": "C" 
			},
			{
				"x": -1.0441313118,
				"y": -0.0588581014,
				"z": 0.8526010269,
				"element": "N" 
			},
			{
				"x": -1.0415607409,
				"y": 1.2479945028,
				"z": 1.316779755,
				"element": "C" 
			},
			{
				"x": -0.6813971455,
				"y": 2.1028509019,
				"z": 0.3107826166,
				"element": "C" 
			},
			{
				"x": -0.4299513646,
				"y": 1.2994725196,
				"z": -0.8536842492,
				"element": "C" 
			},
			{
				"x": -0.6561830735,
				"y": -0.0545797339,
				"z": -0.4773335283,
				"element": "C" 
			},
			{
				"x": -0.4908219235,
				"y": -1.117129036,
				"z": -1.3731068395,
				"element": "C" 
			},
			{
				"x": -0.10548036,
				"y": -0.8056194731,
				"z": -2.6725212607,
				"element": "C" 
			},
			{
				"x": 0.1151618822,
				"y": 0.5289722488,
				"z": -3.0702888966,
				"element": "C" 
			},
			{
				"x": -0.0417423122,
				"y": 1.5796788137,
				"z": -2.1752362135,
				"element": "C" 
			},
			{
				"x": 1.7090344628,
				"y": -3.0854612527,
				"z": 2.8188688038,
				"element": "H" 
			},
			{
				"x": -1.9646343292,
				"y": -1.9158128553,
				"z": 1.0661360908,
				"element": "H" 
			},
			{
				"x": -1.9256247518,
				"y": -0.9234019184,
				"z": 2.5142070477,
				"element": "H" 
			},
			{
				"x": -1.3086287027,
				"y": 1.4544536538,
				"z": 2.3440468615,
				"element": "H" 
			},
			{
				"x": -0.6115194679,
				"y": 3.1786343188,
				"z": 0.3869471972,
				"element": "H" 
			},
			{
				"x": -0.641749028,
				"y": -2.1479564889,
				"z": -1.0674337801,
				"element": "H" 
			},
			{
				"x": 0.0331208118,
				"y": -1.6067141185,
				"z": -3.3927057222,
				"element": "H" 
			},
			{
				"x": 0.4167809856,
				"y": 0.7344389556,
				"z": -4.093318199,
				"element": "H" 
			},
			{
				"x": 0.1345203748,
				"y": 2.6048471944,
				"z": -2.4894068087,
				"element": "H" 
			}
		],
		 "valence_orbital": [ 
			{
				"type": "occ",
				"energy": -0.28397,
				"method": "rhf"
			},
			{
				"type": "occ",
				"energy": -0.27784,
				"method": "rhf"
			},
			{
				"type": "occ",
				"energy": -0.26748,
				"method": "rhf"
			},
			{
				"type": "occ",
				"energy": -0.21608,
				"method": "rhf"
			},
			{
				"type": "occ",
				"energy": -0.19892,
				"method": "rhf"
			},
			{
				"type": "unocc",
				"energy": -0.0053,
				"method": "rhf"
			},
			{
				"type": "unocc",
				"energy": 0.02549,
				"method": "rhf"
			},
			{
				"type": "unocc",
				"energy": 0.03498,
				"method": "rhf"
			},
			{
				"type": "unocc",
				"energy": 0.04496,
				"method": "rhf"
			},
			{
				"type": "unocc",
				"energy": 0.07623,
				"method": "rhf"
			}
		],
		"cosmo_sigma_profile": { 
			"-0.025": 0.0,
			"-0.024": 0.0,
			"-0.023": 0.0,
			"-0.022": 0.0,
			"-0.021": 0.0,
			"-0.02": 0.0,
			"-0.019": 0.0,
			"-0.018": 0.0,
			"-0.017": 0.0,
			"-0.016": 0.0,
			"-0.015": 0.0,
			"-0.014": 0.0,
			"-0.013": 0.0,
			"-0.012": 0.630419070417,
			"-0.011": 1.42371544096,
			"-0.01": 1.3397834106,
			"-0.009": 3.61412586616,
			"-0.008": 7.60665609004,
			"-0.007": 7.40286518478,
			"-0.006": 9.44451269148,
			"-0.005": 14.3236988806,
			"-0.004": 11.9823015107,
			"-0.003": 15.1889321627,
			"-0.002": 13.6201576492,
			"-0.001": 10.9794293718,
			"0.0": 9.18637692884,
			"0.001": 10.6054677385,
			"0.002": 10.831341382,
			"0.003": 12.3880705001,
			"0.004": 16.1195482377,
			"0.005": 17.2086239744,
			"0.006": 22.9819981933,
			"0.007": 11.0848998885,
			"0.008": 0.554434541245,
			"0.009": 0.0,
			"0.01": 0.0,
			"0.011": 0.0,
			"0.012": 0.0,
			"0.013": 0.0,
			"0.014": 0.0,
			"0.015": 0.0,
			"0.016": 0.0,
			"0.017": 0.0,
			"0.018": 0.0,
			"0.019": 0.0,
			"0.02": 0.0,
			"0.021": 0.0,
			"0.022": 0.0,
			"0.023": 0.0,
			"0.024": 0.0,
			"0.025": 0.0
		}
	}
}
