{
	 "smiles": "O=C(CC1=CC(OC2=CC=CC=C2)=CC=C1)C1=CC(=CC=C1)C#N", 
	 "Tm": 337.75, 
	 "num_atms": 39, 
	 "gaussian": { 
		 "optdone": 1, 
		 "sigma_profile": "yes", 
		 "theory": "DFT", 
		 "functional": "B3LYP", 
		 "basiset": "6-31G**", 
		 "properties": { 
			 "R2extent": 9172.0664, 
			 "electric_dipole_moment_norm": 2.48553918497, 
			 "electric_quadrupole_moment_norm": 25.8073935311, 
			 "total_energy": -1014.45184258, 
			 "HOMO_LUMO_gap": 0.14371, 
			 "cosmo_polarized_energy": -15.92, 
			 "cosmo_cavitation_energy": 45.61, 
			 "cosmo_dispersion_energy": -29.6, 
			 "cosmo_repulsion_energy": 2.27, 
			 "cosmo_total_nonelectrostatic_energy": 18.29, 
			 "SMD_solvation_energy": 9.52 
		},
		"coords": [
			{
				"x": 1.1752454827,
				"y": 2.4011678073,
				"z": -0.0603274055,
				"element": "O" 
			},
			{
				"x": 1.0880051074,
				"y": 1.3918586809,
				"z": -0.7423733462,
				"element": "C" 
			},
			{
				"x": -0.1960842979,
				"y": 1.0998190489,
				"z": -1.5186338746,
				"element": "C" 
			},
			{
				"x": -1.0865497849,
				"y": 0.0838980646,
				"z": -0.8155000181,
				"element": "C" 
			},
			{
				"x": -1.4453239293,
				"y": 0.2879751397,
				"z": 0.5240004226,
				"element": "C" 
			},
			{
				"x": -2.279809159,
				"y": -0.630011697,
				"z": 1.166089207,
				"element": "C" 
			},
			{
				"x": -2.7278952341,
				"y": -0.4686550758,
				"z": 2.4579046372,
				"element": "O" 
			},
			{
				"x": -1.9813051773,
				"y": 0.2309400529,
				"z": 3.3915226152,
				"element": "C" 
			},
			{
				"x": -2.6568868819,
				"y": 1.1709910412,
				"z": 4.1702647813,
				"element": "C" 
			},
			{
				"x": -1.9721590042,
				"y": 1.8386903674,
				"z": 5.1863064115,
				"element": "C" 
			},
			{
				"x": -0.6208101438,
				"y": 1.5752660255,
				"z": 5.4182725414,
				"element": "C" 
			},
			{
				"x": 0.0437041709,
				"y": 0.6309957338,
				"z": 4.6320644546,
				"element": "C" 
			},
			{
				"x": -0.6312835516,
				"y": -0.0504613931,
				"z": 3.6191649161,
				"element": "C" 
			},
			{
				"x": -2.7679774776,
				"y": -1.7496077865,
				"z": 0.4836988296,
				"element": "C" 
			},
			{
				"x": -2.414137624,
				"y": -1.9428443052,
				"z": -0.8479478897,
				"element": "C" 
			},
			{
				"x": -1.5735940021,
				"y": -1.0359454182,
				"z": -1.4986247527,
				"element": "C" 
			},
			{
				"x": 2.2404701097,
				"y": 0.42785406,
				"z": -0.8088239182,
				"element": "C" 
			},
			{
				"x": 2.1729063093,
				"y": -0.791583292,
				"z": -1.4896806879,
				"element": "C" 
			},
			{
				"x": 3.2886385458,
				"y": -1.6433304257,
				"z": -1.5181943588,
				"element": "C" 
			},
			{
				"x": 4.4767197932,
				"y": -1.2720484928,
				"z": -0.8670656431,
				"element": "C" 
			},
			{
				"x": 4.5395431805,
				"y": -0.0565582211,
				"z": -0.1870611857,
				"element": "C" 
			},
			{
				"x": 3.431088682,
				"y": 0.7850370151,
				"z": -0.1549366989,
				"element": "C" 
			},
			{
				"x": 3.2128529659,
				"y": -2.8945834088,
				"z": -2.2165277792,
				"element": "C" 
			},
			{
				"x": 3.1509130194,
				"y": -3.9075566332,
				"z": -2.7847815234,
				"element": "N" 
			},
			{
				"x": 0.0353448199,
				"y": 0.752637461,
				"z": -2.5305086599,
				"element": "H" 
			},
			{
				"x": -0.7148144997,
				"y": 2.0594520434,
				"z": -1.6044351797,
				"element": "H" 
			},
			{
				"x": -1.0816784428,
				"y": 1.1599828407,
				"z": 1.0570784063,
				"element": "H" 
			},
			{
				"x": -3.7067113978,
				"y": 1.3602390355,
				"z": 3.9723058181,
				"element": "H" 
			},
			{
				"x": -2.4975003883,
				"y": 2.5699131816,
				"z": 5.793731861,
				"element": "H" 
			},
			{
				"x": -0.0894968686,
				"y": 2.0996835503,
				"z": 6.2065092806,
				"element": "H" 
			},
			{
				"x": 1.0930518064,
				"y": 0.4151279354,
				"z": 4.8111367356,
				"element": "H" 
			},
			{
				"x": -0.1238274821,
				"y": -0.7933722372,
				"z": 3.0129141502,
				"element": "H" 
			},
			{
				"x": -3.4171722796,
				"y": -2.4421861993,
				"z": 1.0084803023,
				"element": "H" 
			},
			{
				"x": -2.7919606067,
				"y": -2.8090129149,
				"z": -1.3830812336,
				"element": "H" 
			},
			{
				"x": -1.3088351555,
				"y": -1.1937317348,
				"z": -2.5407630944,
				"element": "H" 
			},
			{
				"x": 1.2616429365,
				"y": -1.1057128508,
				"z": -1.9835974686,
				"element": "H" 
			},
			{
				"x": 5.3341825693,
				"y": -1.9359791501,
				"z": -0.8986476359,
				"element": "H" 
			},
			{
				"x": 5.4566339307,
				"y": 0.2310502295,
				"z": 0.3174214216,
				"element": "H" 
			},
			{
				"x": 3.4575699595,
				"y": 1.7337019218,
				"z": 0.3704455621,
				"element": "H" 
			}
		],
		 "valence_orbital": [ 
			{
				"type": "occ",
				"energy": -0.26987,
				"method": "rhf"
			},
			{
				"type": "occ",
				"energy": -0.2596,
				"method": "rhf"
			},
			{
				"type": "occ",
				"energy": -0.25389,
				"method": "rhf"
			},
			{
				"type": "occ",
				"energy": -0.24858,
				"method": "rhf"
			},
			{
				"type": "occ",
				"energy": -0.22311,
				"method": "rhf"
			},
			{
				"type": "unocc",
				"energy": -0.0794,
				"method": "rhf"
			},
			{
				"type": "unocc",
				"energy": -0.05538,
				"method": "rhf"
			},
			{
				"type": "unocc",
				"energy": -0.01792,
				"method": "rhf"
			},
			{
				"type": "unocc",
				"energy": -0.01008,
				"method": "rhf"
			},
			{
				"type": "unocc",
				"energy": -0.004,
				"method": "rhf"
			}
		],
		"cosmo_sigma_profile": { 
			"-0.025": 0.0,
			"-0.024": 0.0,
			"-0.023": 0.0,
			"-0.022": 0.0,
			"-0.021": 0.0,
			"-0.02": 0.0,
			"-0.019": 0.0,
			"-0.018": 0.0,
			"-0.017": 0.0,
			"-0.016": 0.0,
			"-0.015": 0.0,
			"-0.014": 0.0,
			"-0.013": 0.0,
			"-0.012": 0.0,
			"-0.011": 0.0,
			"-0.01": 0.32139335753,
			"-0.009": 1.81739967649,
			"-0.008": 6.17109278418,
			"-0.007": 11.5844775531,
			"-0.006": 24.7331938721,
			"-0.005": 26.4940813008,
			"-0.004": 27.0512000783,
			"-0.003": 26.1438118466,
			"-0.002": 27.3861188314,
			"-0.001": 28.3811610592,
			"0.0": 30.1513129833,
			"0.001": 29.5555066729,
			"0.002": 20.9922868387,
			"0.003": 24.2160806117,
			"0.004": 22.0537358991,
			"0.005": 19.6435730829,
			"0.006": 6.50551268535,
			"0.007": 5.85522369671,
			"0.008": 5.99460482817,
			"0.009": 5.85237944683,
			"0.01": 5.62298691715,
			"0.011": 5.90437349388,
			"0.012": 4.1037877301,
			"0.013": 1.2146648854,
			"0.014": 0.0,
			"0.015": 0.0,
			"0.016": 0.0,
			"0.017": 0.0,
			"0.018": 0.0,
			"0.019": 0.0,
			"0.02": 0.0,
			"0.021": 0.0,
			"0.022": 0.0,
			"0.023": 0.0,
			"0.024": 0.0,
			"0.025": 0.0
		}
	}
}
