{
	 "smiles": "CCOC(=O)C1=C(C)C2=C(S1)N=C(CN(C)C)N=C2Cl", 
	 "Tm": 388.15, 
	 "num_atms": 36, 
	 "gaussian": { 
		 "optdone": 1, 
		 "sigma_profile": "yes", 
		 "theory": "DFT", 
		 "functional": "B3LYP", 
		 "basiset": "6-31G**", 
		 "properties": { 
			 "R2extent": 10298.2458, 
			 "electric_dipole_moment_norm": 2.44814378254, 
			 "electric_quadrupole_moment_norm": 15.8201751741, 
			 "total_energy": -1678.12031891, 
			 "HOMO_LUMO_gap": 0.12929, 
			 "cosmo_polarized_energy": -9.46, 
			 "cosmo_cavitation_energy": 42.52, 
			 "cosmo_dispersion_energy": -30.38, 
			 "cosmo_repulsion_energy": 2.32, 
			 "cosmo_total_nonelectrostatic_energy": 14.45, 
			 "SMD_solvation_energy": 3.02 
		},
		"coords": [
			{
				"x": 1.972863118,
				"y": -1.5348099656,
				"z": -6.9296969832,
				"element": "C" 
			},
			{
				"x": 2.0090651064,
				"y": -2.6356895472,
				"z": -5.8876488779,
				"element": "C" 
			},
			{
				"x": 1.8521639899,
				"y": -2.0116962677,
				"z": -4.5906360461,
				"element": "O" 
			},
			{
				"x": 1.8620638216,
				"y": -2.8421838261,
				"z": -3.524472501,
				"element": "C" 
			},
			{
				"x": 1.9930438168,
				"y": -4.0480913534,
				"z": -3.6205058629,
				"element": "O" 
			},
			{
				"x": 1.6941148593,
				"y": -2.0772602851,
				"z": -2.2681022172,
				"element": "C" 
			},
			{
				"x": 1.6545014679,
				"y": -2.5687425862,
				"z": -0.9813253133,
				"element": "C" 
			},
			{
				"x": 1.7805583356,
				"y": -4.0216240832,
				"z": -0.6136782335,
				"element": "C" 
			},
			{
				"x": 1.4746766079,
				"y": -1.4907695285,
				"z": -0.0314432808,
				"element": "C" 
			},
			{
				"x": 1.3866440972,
				"y": -0.2149083234,
				"z": -0.6518171065,
				"element": "C" 
			},
			{
				"x": 1.5206904753,
				"y": -0.3231749987,
				"z": -2.3835795808,
				"element": "S" 
			},
			{
				"x": 1.2276547076,
				"y": 0.9485651795,
				"z": -0.0205672428,
				"element": "N" 
			},
			{
				"x": 1.1481574005,
				"y": 0.8691353585,
				"z": 1.3092391413,
				"element": "C" 
			},
			{
				"x": 0.9122055859,
				"y": 2.1514913528,
				"z": 2.0885268101,
				"element": "C" 
			},
			{
				"x": -0.4916564688,
				"y": 2.4753455575,
				"z": 2.3467646343,
				"element": "N" 
			},
			{
				"x": -1.2695525226,
				"y": 2.769537159,
				"z": 1.1511378679,
				"element": "C" 
			},
			{
				"x": -1.1716473301,
				"y": 1.5574246516,
				"z": 3.2514005072,
				"element": "C" 
			},
			{
				"x": 1.209769063,
				"y": -0.2815699051,
				"z": 2.0220040635,
				"element": "N" 
			},
			{
				"x": 1.3658924755,
				"y": -1.4128393295,
				"z": 1.3735223615,
				"element": "C" 
			},
			{
				"x": 1.4378132634,
				"y": -2.8529665417,
				"z": 2.3822335094,
				"element": "Cl" 
			},
			{
				"x": 2.7827106837,
				"y": -0.8174643476,
				"z": -6.769937422,
				"element": "H" 
			},
			{
				"x": 2.0887673983,
				"y": -1.9686747102,
				"z": -7.9276358568,
				"element": "H" 
			},
			{
				"x": 1.0220035905,
				"y": -0.9955784887,
				"z": -6.8970125844,
				"element": "H" 
			},
			{
				"x": 1.2026963904,
				"y": -3.3627408267,
				"z": -6.0247468865,
				"element": "H" 
			},
			{
				"x": 2.9552952846,
				"y": -3.1853311615,
				"z": -5.8981130509,
				"element": "H" 
			},
			{
				"x": 0.8913586665,
				"y": -4.3593826645,
				"z": -0.0726011601,
				"element": "H" 
			},
			{
				"x": 2.63344396,
				"y": -4.1757579143,
				"z": 0.0544049138,
				"element": "H" 
			},
			{
				"x": 1.9094887565,
				"y": -4.6297438385,
				"z": -1.5057366766,
				"element": "H" 
			},
			{
				"x": 1.4246568952,
				"y": 2.0666530834,
				"z": 3.0518825649,
				"element": "H" 
			},
			{
				"x": 1.3536489281,
				"y": 2.976610572,
				"z": 1.5211165717,
				"element": "H" 
			},
			{
				"x": -0.7422448779,
				"y": 3.5077122613,
				"z": 0.5393158857,
				"element": "H" 
			},
			{
				"x": -1.4744973136,
				"y": 1.8910292747,
				"z": 0.5137197291,
				"element": "H" 
			},
			{
				"x": -2.2329466569,
				"y": 3.1969142881,
				"z": 1.4503053157,
				"element": "H" 
			},
			{
				"x": -0.5674658786,
				"y": 1.4107227986,
				"z": 4.151533957,
				"element": "H" 
			},
			{
				"x": -1.3769443085,
				"y": 0.5619154009,
				"z": 2.8208309145,
				"element": "H" 
			},
			{
				"x": -2.1297933884,
				"y": 1.9981435557,
				"z": 3.5486181358,
				"element": "H" 
			}
		],
		 "valence_orbital": [ 
			{
				"type": "occ",
				"energy": -0.2848,
				"method": "rhf"
			},
			{
				"type": "occ",
				"energy": -0.2765,
				"method": "rhf"
			},
			{
				"type": "occ",
				"energy": -0.27023,
				"method": "rhf"
			},
			{
				"type": "occ",
				"energy": -0.24549,
				"method": "rhf"
			},
			{
				"type": "occ",
				"energy": -0.20894,
				"method": "rhf"
			},
			{
				"type": "unocc",
				"energy": -0.07965,
				"method": "rhf"
			},
			{
				"type": "unocc",
				"energy": -0.04633,
				"method": "rhf"
			},
			{
				"type": "unocc",
				"energy": -0.01248,
				"method": "rhf"
			},
			{
				"type": "unocc",
				"energy": 0.00398,
				"method": "rhf"
			},
			{
				"type": "unocc",
				"energy": 0.03374,
				"method": "rhf"
			}
		],
		"cosmo_sigma_profile": { 
			"-0.025": 0.0,
			"-0.024": 0.0,
			"-0.023": 0.0,
			"-0.022": 0.0,
			"-0.021": 0.0,
			"-0.02": 0.0,
			"-0.019": 0.0,
			"-0.018": 0.0,
			"-0.017": 0.0,
			"-0.016": 0.0,
			"-0.015": 0.0,
			"-0.014": 0.0,
			"-0.013": 0.0,
			"-0.012": 0.0,
			"-0.011": 0.0,
			"-0.01": 0.0,
			"-0.009": 0.0,
			"-0.008": 0.0,
			"-0.007": 0.0,
			"-0.006": 2.06167965556,
			"-0.005": 14.9565271809,
			"-0.004": 34.8358243901,
			"-0.003": 42.8054727367,
			"-0.002": 43.2615993734,
			"-0.001": 46.1977560285,
			"0.0": 43.6982128781,
			"0.001": 23.5064544259,
			"0.002": 18.361856395,
			"0.003": 18.9680494023,
			"0.004": 13.425924197,
			"0.005": 7.15607860839,
			"0.006": 4.61158332466,
			"0.007": 4.85327668469,
			"0.008": 5.05027946461,
			"0.009": 4.26606907957,
			"0.01": 4.25148183856,
			"0.011": 4.9470144278,
			"0.012": 2.04828728225,
			"0.013": 0.587403120512,
			"0.014": 0.636394713582,
			"0.015": 0.359857189238,
			"0.016": 0.00298226739155,
			"0.017": 0.0,
			"0.018": 0.0,
			"0.019": 0.0,
			"0.02": 0.0,
			"0.021": 0.0,
			"0.022": 0.0,
			"0.023": 0.0,
			"0.024": 0.0,
			"0.025": 0.0
		}
	}
}
