{
	 "smiles": "COCCOC1=C(OC)C=C(CC2=CN=C(N)N=C2N)C=C1OC", 
	 "Tm": 427.15, 
	 "num_atms": 46, 
	 "gaussian": { 
		 "optdone": 1, 
		 "sigma_profile": "yes", 
		 "theory": "DFT", 
		 "functional": "B3LYP", 
		 "basiset": "6-31G**", 
		 "properties": { 
			 "R2extent": 9534.2721, 
			 "electric_dipole_moment_norm": 2.0635821137, 
			 "electric_quadrupole_moment_norm": 4.1062383528, 
			 "total_energy": -1142.83432067, 
			 "HOMO_LUMO_gap": 0.19974, 
			 "cosmo_polarized_energy": -20.33, 
			 "cosmo_cavitation_energy": 48.99, 
			 "cosmo_dispersion_energy": -32.13, 
			 "cosmo_repulsion_energy": 2.51, 
			 "cosmo_total_nonelectrostatic_energy": 19.37, 
			 "SMD_solvation_energy": 7.03 
		},
		"coords": [
			{
				"x": 1.0952907776,
				"y": 2.6741691912,
				"z": 3.1261570465,
				"element": "C" 
			},
			{
				"x": 1.6349146171,
				"y": 1.5270690979,
				"z": 2.5036939798,
				"element": "O" 
			},
			{
				"x": 2.3586820195,
				"y": 0.7053182144,
				"z": 3.3976182568,
				"element": "C" 
			},
			{
				"x": 2.6065099992,
				"y": -0.6452483996,
				"z": 2.7477371028,
				"element": "C" 
			},
			{
				"x": 1.4456763098,
				"y": -1.4903057793,
				"z": 2.7660771192,
				"element": "O" 
			},
			{
				"x": 0.4781064575,
				"y": -1.2514491553,
				"z": 1.8193743729,
				"element": "C" 
			},
			{
				"x": 0.6779164713,
				"y": -1.6151767149,
				"z": 0.4694834139,
				"element": "C" 
			},
			{
				"x": 1.9019769783,
				"y": -2.1488364071,
				"z": 0.1850402836,
				"element": "O" 
			},
			{
				"x": 2.1724298664,
				"y": -2.5233574305,
				"z": -1.1577047544,
				"element": "C" 
			},
			{
				"x": -0.3335171034,
				"y": -1.4073229016,
				"z": -0.470564905,
				"element": "C" 
			},
			{
				"x": -1.5620729421,
				"y": -0.8502023284,
				"z": -0.0843625746,
				"element": "C" 
			},
			{
				"x": -2.6717724974,
				"y": -0.6459901496,
				"z": -1.1109754234,
				"element": "C" 
			},
			{
				"x": -2.2427094108,
				"y": 0.0032508349,
				"z": -2.4055706501,
				"element": "C" 
			},
			{
				"x": -2.3797347599,
				"y": -0.6204039917,
				"z": -3.6380011563,
				"element": "C" 
			},
			{
				"x": -2.0544362079,
				"y": -0.0751199185,
				"z": -4.8174559948,
				"element": "N" 
			},
			{
				"x": -1.5634535116,
				"y": 1.1735585514,
				"z": -4.7403704274,
				"element": "C" 
			},
			{
				"x": -1.1779815223,
				"y": 1.7566390463,
				"z": -5.9212534486,
				"element": "N" 
			},
			{
				"x": -1.3754338772,
				"y": 1.8998179864,
				"z": -3.6261134263,
				"element": "N" 
			},
			{
				"x": -1.711917245,
				"y": 1.3205411631,
				"z": -2.4670729903,
				"element": "C" 
			},
			{
				"x": -1.5611416342,
				"y": 2.0820379837,
				"z": -1.336755699,
				"element": "N" 
			},
			{
				"x": -1.7632101493,
				"y": -0.50631415,
				"z": 1.2534044364,
				"element": "C" 
			},
			{
				"x": -0.7498371429,
				"y": -0.7017133843,
				"z": 2.1994689809,
				"element": "C" 
			},
			{
				"x": -0.9703242423,
				"y": -0.2865050154,
				"z": 3.4930039056,
				"element": "O" 
			},
			{
				"x": -1.08949336,
				"y": -1.3370969546,
				"z": 4.4569096898,
				"element": "C" 
			},
			{
				"x": 1.878914802,
				"y": 3.3057482431,
				"z": 3.5751837437,
				"element": "H" 
			},
			{
				"x": 0.5829908856,
				"y": 3.2523348102,
				"z": 2.3528505821,
				"element": "H" 
			},
			{
				"x": 0.3696059695,
				"y": 2.402449376,
				"z": 3.9064521536,
				"element": "H" 
			},
			{
				"x": 3.3290375602,
				"y": 1.1699222347,
				"z": 3.6523165381,
				"element": "H" 
			},
			{
				"x": 1.8013315366,
				"y": 0.5561127865,
				"z": 4.3349458431,
				"element": "H" 
			},
			{
				"x": 3.3631286153,
				"y": -1.1903884203,
				"z": 3.3202142288,
				"element": "H" 
			},
			{
				"x": 2.9698282737,
				"y": -0.5147914112,
				"z": 1.7236231681,
				"element": "H" 
			},
			{
				"x": 2.1199811178,
				"y": -1.6635567341,
				"z": -1.8372674775,
				"element": "H" 
			},
			{
				"x": 1.4793273534,
				"y": -3.2988072208,
				"z": -1.5072283386,
				"element": "H" 
			},
			{
				"x": 3.187863962,
				"y": -2.9225593425,
				"z": -1.1585183536,
				"element": "H" 
			},
			{
				"x": -0.1782145348,
				"y": -1.6628298356,
				"z": -1.5119673161,
				"element": "H" 
			},
			{
				"x": -3.1218391127,
				"y": -1.6185882843,
				"z": -1.351121057,
				"element": "H" 
			},
			{
				"x": -3.468323534,
				"y": -0.0536265172,
				"z": -0.6410411816,
				"element": "H" 
			},
			{
				"x": -2.7885992653,
				"y": -1.6313653971,
				"z": -3.6800136765,
				"element": "H" 
			},
			{
				"x": -1.0694851606,
				"y": 2.7585671887,
				"z": -5.9112024933,
				"element": "H" 
			},
			{
				"x": -1.5438254813,
				"y": 1.3338492074,
				"z": -6.7599720113,
				"element": "H" 
			},
			{
				"x": -1.4263286612,
				"y": 1.6006138149,
				"z": -0.4583239897,
				"element": "H" 
			},
			{
				"x": -1.0105757702,
				"y": 2.9186554872,
				"z": -1.469228601,
				"element": "H" 
			},
			{
				"x": -2.7018984589,
				"y": -0.0747368899,
				"z": 1.5884012487,
				"element": "H" 
			},
			{
				"x": -0.1698450903,
				"y": -1.9259885082,
				"z": 4.5194994725,
				"element": "H" 
			},
			{
				"x": -1.2822524294,
				"y": -0.8513293041,
				"z": 5.4162042184,
				"element": "H" 
			},
			{
				"x": -1.9322904676,
				"y": -1.9969446718,
				"z": 4.2129261609,
				"element": "H" 
			}
		],
		 "valence_orbital": [ 
			{
				"type": "occ",
				"energy": -0.24086,
				"method": "rhf"
			},
			{
				"type": "occ",
				"energy": -0.23258,
				"method": "rhf"
			},
			{
				"type": "occ",
				"energy": -0.22389,
				"method": "rhf"
			},
			{
				"type": "occ",
				"energy": -0.21094,
				"method": "rhf"
			},
			{
				"type": "occ",
				"energy": -0.20191,
				"method": "rhf"
			},
			{
				"type": "unocc",
				"energy": -0.00217,
				"method": "rhf"
			},
			{
				"type": "unocc",
				"energy": 0.00313,
				"method": "rhf"
			},
			{
				"type": "unocc",
				"energy": 0.0157,
				"method": "rhf"
			},
			{
				"type": "unocc",
				"energy": 0.02421,
				"method": "rhf"
			},
			{
				"type": "unocc",
				"energy": 0.08147,
				"method": "rhf"
			}
		],
		"cosmo_sigma_profile": { 
			"-0.025": 0.0,
			"-0.024": 0.0,
			"-0.023": 0.0,
			"-0.022": 0.0,
			"-0.021": 0.0,
			"-0.02": 0.0,
			"-0.019": 0.0,
			"-0.018": 0.0,
			"-0.017": 0.0,
			"-0.016": 0.0,
			"-0.015": 0.0,
			"-0.014": 0.0,
			"-0.013": 1.84401218919,
			"-0.012": 3.06830093352,
			"-0.011": 2.59673515741,
			"-0.01": 3.49055009828,
			"-0.009": 3.67464727999,
			"-0.008": 2.34280107142,
			"-0.007": 3.38358832148,
			"-0.006": 14.5889202023,
			"-0.005": 30.5841956259,
			"-0.004": 35.8663747344,
			"-0.003": 44.3852268166,
			"-0.002": 39.3582151478,
			"-0.001": 24.4870260263,
			"0.0": 20.0424650242,
			"0.001": 22.1087834189,
			"0.002": 21.5982647454,
			"0.003": 18.8869830848,
			"0.004": 17.898056841,
			"0.005": 13.3272166207,
			"0.006": 11.1757230224,
			"0.007": 10.5777232168,
			"0.008": 8.49650901454,
			"0.009": 7.30315609012,
			"0.01": 7.19659120666,
			"0.011": 7.07506197431,
			"0.012": 4.67836189601,
			"0.013": 2.15267939012,
			"0.014": 1.53348671214,
			"0.015": 0.641104076058,
			"0.016": 0.888921778919,
			"0.017": 0.217714477384,
			"0.018": 0.0,
			"0.019": 0.0,
			"0.02": 0.0,
			"0.021": 0.0,
			"0.022": 0.0,
			"0.023": 0.0,
			"0.024": 0.0,
			"0.025": 0.0
		}
	}
}
