{
	 "smiles": "CC(C)(C1=CC=CC=C1)C(C)(C)C1=CC=CC=C1", 
	 "Tm": 373.15, 
	 "num_atms": 40, 
	 "gaussian": { 
		 "optdone": 1, 
		 "sigma_profile": "yes", 
		 "theory": "DFT", 
		 "functional": "B3LYP", 
		 "basiset": "6-31G**", 
		 "properties": { 
			 "R2extent": 5101.0104, 
			 "electric_dipole_moment_norm": 0.0, 
			 "electric_quadrupole_moment_norm": 7.67771127811, 
			 "total_energy": -699.179528636, 
			 "HOMO_LUMO_gap": 0.22492, 
			 "cosmo_polarized_energy": -5.46, 
			 "cosmo_cavitation_energy": 37.51, 
			 "cosmo_dispersion_energy": -26.46, 
			 "cosmo_repulsion_energy": 1.99, 
			 "cosmo_total_nonelectrostatic_energy": 13.04, 
			 "SMD_solvation_energy": 6.35 
		},
		"coords": [
			{
				"x": -0.1518802204,
				"y": 0.7548475321,
				"z": -1.6673375751,
				"element": "C" 
			},
			{
				"x": 0.0063094805,
				"y": -0.1141924917,
				"z": -0.395301223,
				"element": "C" 
			},
			{
				"x": 1.3822535173,
				"y": -0.808178758,
				"z": -0.5485605998,
				"element": "C" 
			},
			{
				"x": -1.1134368727,
				"y": -1.1802875675,
				"z": -0.3492846595,
				"element": "C" 
			},
			{
				"x": -2.3928900373,
				"y": -0.929895604,
				"z": -0.8760603952,
				"element": "C" 
			},
			{
				"x": -3.4048340721,
				"y": -1.8905613529,
				"z": -0.8386583201,
				"element": "C" 
			},
			{
				"x": -3.1684448479,
				"y": -3.1427556314,
				"z": -0.272814136,
				"element": "C" 
			},
			{
				"x": -1.9064198321,
				"y": -3.4171177896,
				"z": 0.2526016813,
				"element": "C" 
			},
			{
				"x": -0.8991618059,
				"y": -2.4516763626,
				"z": 0.2118242096,
				"element": "C" 
			},
			{
				"x": -0.0321725427,
				"y": 0.8025076036,
				"z": 0.9380883717,
				"element": "C" 
			},
			{
				"x": -1.4080506065,
				"y": 1.4966421706,
				"z": 1.0912708426,
				"element": "C" 
			},
			{
				"x": 0.1258414283,
				"y": -0.0665679989,
				"z": 2.2101219523,
				"element": "C" 
			},
			{
				"x": 1.0876908292,
				"y": 1.8684832799,
				"z": 0.8921562671,
				"element": "C" 
			},
			{
				"x": 0.8735126339,
				"y": 3.1399920313,
				"z": 0.3312819519,
				"element": "C" 
			},
			{
				"x": 1.8808766889,
				"y": 4.1053255404,
				"z": 0.2905828273,
				"element": "C" 
			},
			{
				"x": 3.1429160626,
				"y": 3.8307296325,
				"z": 0.8158423127,
				"element": "C" 
			},
			{
				"x": 3.3792115585,
				"y": 2.5784119921,
				"z": 1.3814523141,
				"element": "C" 
			},
			{
				"x": 2.3671605366,
				"y": 1.6178555088,
				"z": 1.4187792929,
				"element": "C" 
			},
			{
				"x": 0.7024070636,
				"y": 1.425853586,
				"z": -1.7800086172,
				"element": "H" 
			},
			{
				"x": -1.0523436071,
				"y": 1.3725152319,
				"z": -1.6699835793,
				"element": "H" 
			},
			{
				"x": -0.1938455646,
				"y": 0.1111403674,
				"z": -2.5516392112,
				"element": "H" 
			},
			{
				"x": 1.3643756775,
				"y": -1.4765264625,
				"z": -1.4152194202,
				"element": "H" 
			},
			{
				"x": 1.6739758927,
				"y": -1.4049520737,
				"z": 0.318133286,
				"element": "H" 
			},
			{
				"x": 2.167612997,
				"y": -0.0669864599,
				"z": -0.7116264607,
				"element": "H" 
			},
			{
				"x": -2.6138205405,
				"y": 0.0292326859,
				"z": -1.3298689685,
				"element": "H" 
			},
			{
				"x": -4.3792333423,
				"y": -1.656413242,
				"z": -1.2589255482,
				"element": "H" 
			},
			{
				"x": -3.9530198942,
				"y": -3.8934590365,
				"z": -0.2456607126,
				"element": "H" 
			},
			{
				"x": -1.6979141162,
				"y": -4.3880912681,
				"z": 0.6937817047,
				"element": "H" 
			},
			{
				"x": 0.0702348466,
				"y": -2.7051441088,
				"z": 0.6249931412,
				"element": "H" 
			},
			{
				"x": -1.3901326853,
				"y": 2.1650231997,
				"z": 1.9579032911,
				"element": "H" 
			},
			{
				"x": -2.1934941367,
				"y": 0.7555404939,
				"z": 1.2543385126,
				"element": "H" 
			},
			{
				"x": -1.6996782822,
				"y": 2.0934126304,
				"z": 0.224542716,
				"element": "H" 
			},
			{
				"x": 1.0262655939,
				"y": -0.6842919749,
				"z": 2.2128431724,
				"element": "H" 
			},
			{
				"x": -0.7284989783,
				"y": -0.7375244429,
				"z": 2.3226935566,
				"element": "H" 
			},
			{
				"x": 0.1677585416,
				"y": 0.577116775,
				"z": 3.0944420489,
				"element": "H" 
			},
			{
				"x": -0.0958913172,
				"y": 3.393641124,
				"z": -0.0817585316,
				"element": "H" 
			},
			{
				"x": 1.6724434845,
				"y": 5.0763982142,
				"z": -0.1504129358,
				"element": "H" 
			},
			{
				"x": 3.9275744922,
				"y": 4.5813480342,
				"z": 0.7887489943,
				"element": "H" 
			},
			{
				"x": 4.3536207912,
				"y": 2.3440809161,
				"z": 1.8015945528,
				"element": "H" 
			},
			{
				"x": 2.5880211854,
				"y": 0.6586240758,
				"z": 1.8724038934,
				"element": "H" 
			}
		],
		 "valence_orbital": [ 
			{
				"type": "occ",
				"energy": -0.29969,
				"method": "rhf"
			},
			{
				"type": "occ",
				"energy": -0.24769,
				"method": "rhf"
			},
			{
				"type": "occ",
				"energy": -0.24513,
				"method": "rhf"
			},
			{
				"type": "occ",
				"energy": -0.24276,
				"method": "rhf"
			},
			{
				"type": "occ",
				"energy": -0.22858,
				"method": "rhf"
			},
			{
				"type": "unocc",
				"energy": -0.00366,
				"method": "rhf"
			},
			{
				"type": "unocc",
				"energy": 0.00156,
				"method": "rhf"
			},
			{
				"type": "unocc",
				"energy": 0.00613,
				"method": "rhf"
			},
			{
				"type": "unocc",
				"energy": 0.00952,
				"method": "rhf"
			},
			{
				"type": "unocc",
				"energy": 0.0752,
				"method": "rhf"
			}
		],
		"cosmo_sigma_profile": { 
			"-0.025": 0.0,
			"-0.024": 0.0,
			"-0.023": 0.0,
			"-0.022": 0.0,
			"-0.021": 0.0,
			"-0.02": 0.0,
			"-0.019": 0.0,
			"-0.018": 0.0,
			"-0.017": 0.0,
			"-0.016": 0.0,
			"-0.015": 0.0,
			"-0.014": 0.0,
			"-0.013": 0.0,
			"-0.012": 0.0,
			"-0.011": 0.0,
			"-0.01": 0.0,
			"-0.009": 0.0,
			"-0.008": 0.0,
			"-0.007": 0.0,
			"-0.006": 2.40308109328,
			"-0.005": 21.8948715432,
			"-0.004": 22.4335390106,
			"-0.003": 28.6468257221,
			"-0.002": 27.5265946183,
			"-0.001": 34.2708425076,
			"0.0": 30.9971521127,
			"0.001": 35.8402607009,
			"0.002": 28.4698987348,
			"0.003": 13.9786923678,
			"0.004": 13.9472605961,
			"0.005": 13.9230077044,
			"0.006": 13.6784760821,
			"0.007": 6.54887761512,
			"0.008": 0.0,
			"0.009": 0.0,
			"0.01": 0.0,
			"0.011": 0.0,
			"0.012": 0.0,
			"0.013": 0.0,
			"0.014": 0.0,
			"0.015": 0.0,
			"0.016": 0.0,
			"0.017": 0.0,
			"0.018": 0.0,
			"0.019": 0.0,
			"0.02": 0.0,
			"0.021": 0.0,
			"0.022": 0.0,
			"0.023": 0.0,
			"0.024": 0.0,
			"0.025": 0.0
		}
	}
}
