{
	 "smiles": "FC(F)(F)C(=O)CC1=CC=C(Br)C=C1", 
	 "Tm": 312.15, 
	 "num_atms": 20, 
	 "gaussian": { 
		 "optdone": 1, 
		 "sigma_profile": "yes", 
		 "theory": "DFT", 
		 "functional": "B3LYP", 
		 "basiset": "6-31G**", 
		 "properties": { 
			 "R2extent": 7041.8993, 
			 "electric_dipole_moment_norm": 2.15022873667, 
			 "electric_quadrupole_moment_norm": 7.47856773988, 
			 "total_energy": -3292.71307697, 
			 "HOMO_LUMO_gap": 0.18173, 
			 "cosmo_polarized_energy": -7.53, 
			 "cosmo_cavitation_energy": 28.65, 
			 "cosmo_dispersion_energy": -20.12, 
			 "cosmo_repulsion_energy": 1.54, 
			 "cosmo_total_nonelectrostatic_energy": 10.07, 
			 "SMD_solvation_energy": 5.42 
		},
		"coords": [
			{
				"x": 0.1923132937,
				"y": 2.5695580424,
				"z": 1.8992515621,
				"element": "F" 
			},
			{
				"x": 0.0220771877,
				"y": 1.3874147583,
				"z": 1.3043045652,
				"element": "C" 
			},
			{
				"x": -1.2967885883,
				"y": 1.1260185185,
				"z": 1.2355387719,
				"element": "F" 
			},
			{
				"x": 0.4930194352,
				"y": 1.4758047931,
				"z": 0.037797703,
				"element": "F" 
			},
			{
				"x": 0.7476281361,
				"y": 0.2566030929,
				"z": 2.0849496711,
				"element": "C" 
			},
			{
				"x": 0.9571466131,
				"y": 0.4066587491,
				"z": 3.2646993782,
				"element": "O" 
			},
			{
				"x": 1.1206385605,
				"y": -0.9895377053,
				"z": 1.2953075665,
				"element": "C" 
			},
			{
				"x": -0.1027072994,
				"y": -1.7757331642,
				"z": 0.8504738481,
				"element": "C" 
			},
			{
				"x": -0.6129295679,
				"y": -1.6527671209,
				"z": -0.4470476091,
				"element": "C" 
			},
			{
				"x": -1.7384619341,
				"y": -2.373566131,
				"z": -0.8459611125,
				"element": "C" 
			},
			{
				"x": -2.3615079089,
				"y": -3.2212943421,
				"z": 0.0677785916,
				"element": "C" 
			},
			{
				"x": -3.8997323444,
				"y": -4.2173856653,
				"z": -0.4705147033,
				"element": "Br" 
			},
			{
				"x": -1.877566705,
				"y": -3.3559572432,
				"z": 1.3683868784,
				"element": "C" 
			},
			{
				"x": -0.7511580686,
				"y": -2.6297786522,
				"z": 1.7519506526,
				"element": "C" 
			},
			{
				"x": 1.7536423218,
				"y": -1.5911428627,
				"z": 1.9520754691,
				"element": "H" 
			},
			{
				"x": 1.7091540859,
				"y": -0.6879463601,
				"z": 0.4230972778,
				"element": "H" 
			},
			{
				"x": -0.1309105774,
				"y": -0.9860734802,
				"z": -1.1560942554,
				"element": "H" 
			},
			{
				"x": -2.1251940401,
				"y": -2.2779937054,
				"z": -1.8540484102,
				"element": "H" 
			},
			{
				"x": -2.3714521111,
				"y": -4.0192229693,
				"z": 2.0691672313,
				"element": "H" 
			},
			{
				"x": -0.3715104886,
				"y": -2.7333585524,
				"z": 2.7649869239,
				"element": "H" 
			}
		],
		 "valence_orbital": [ 
			{
				"type": "occ",
				"energy": -0.32207,
				"method": "rhf"
			},
			{
				"type": "occ",
				"energy": -0.29316,
				"method": "rhf"
			},
			{
				"type": "occ",
				"energy": -0.28688,
				"method": "rhf"
			},
			{
				"type": "occ",
				"energy": -0.2742,
				"method": "rhf"
			},
			{
				"type": "occ",
				"energy": -0.24723,
				"method": "rhf"
			},
			{
				"type": "unocc",
				"energy": -0.0655,
				"method": "rhf"
			},
			{
				"type": "unocc",
				"energy": -0.02685,
				"method": "rhf"
			},
			{
				"type": "unocc",
				"energy": -0.02097,
				"method": "rhf"
			},
			{
				"type": "unocc",
				"energy": 0.00061,
				"method": "rhf"
			},
			{
				"type": "unocc",
				"energy": 0.09434,
				"method": "rhf"
			}
		],
		"cosmo_sigma_profile": { 
			"-0.025": 0.0,
			"-0.024": 0.0,
			"-0.023": 0.0,
			"-0.022": 0.0,
			"-0.021": 0.0,
			"-0.02": 0.0,
			"-0.019": 0.0,
			"-0.018": 0.0,
			"-0.017": 0.0,
			"-0.016": 0.0,
			"-0.015": 0.0,
			"-0.014": 0.0,
			"-0.013": 0.0,
			"-0.012": 0.0,
			"-0.011": 0.0,
			"-0.01": 0.0878952304341,
			"-0.009": 0.967695354422,
			"-0.008": 2.86792675799,
			"-0.007": 11.5793286136,
			"-0.006": 14.8250736938,
			"-0.005": 11.5995503165,
			"-0.004": 12.5323802878,
			"-0.003": 12.8428422506,
			"-0.002": 12.8371959613,
			"-0.001": 11.7130756389,
			"0.0": 16.2411405826,
			"0.001": 23.6399152083,
			"0.002": 40.9123784214,
			"0.003": 25.3049198517,
			"0.004": 14.6434016496,
			"0.005": 6.9161485629,
			"0.006": 2.18817933087,
			"0.007": 2.09843162762,
			"0.008": 2.91310475073,
			"0.009": 3.98199021924,
			"0.01": 2.2943551095,
			"0.011": 0.0608197541505,
			"0.012": 0.0,
			"0.013": 0.0,
			"0.014": 0.0,
			"0.015": 0.0,
			"0.016": 0.0,
			"0.017": 0.0,
			"0.018": 0.0,
			"0.019": 0.0,
			"0.02": 0.0,
			"0.021": 0.0,
			"0.022": 0.0,
			"0.023": 0.0,
			"0.024": 0.0,
			"0.025": 0.0
		}
	}
}
