{
	 "smiles": "CN1C=C(C=N1)C1=NN=C(Cl)C=C1", 
	 "Tm": 462.15, 
	 "num_atms": 20, 
	 "gaussian": { 
		 "optdone": 1, 
		 "sigma_profile": "yes", 
		 "theory": "DFT", 
		 "functional": "B3LYP", 
		 "basiset": "6-31G**", 
		 "properties": { 
			 "R2extent": 4891.9068, 
			 "electric_dipole_moment_norm": 6.88743003667, 
			 "electric_quadrupole_moment_norm": 12.9826920556, 
			 "total_energy": -988.205601018, 
			 "HOMO_LUMO_gap": 0.17549, 
			 "cosmo_polarized_energy": -17.31, 
			 "cosmo_cavitation_energy": 27.1, 
			 "cosmo_dispersion_energy": -20.22, 
			 "cosmo_repulsion_energy": 1.59, 
			 "cosmo_total_nonelectrostatic_energy": 8.47, 
			 "SMD_solvation_energy": 2.28 
		},
		"coords": [
			{
				"x": -1.2786323038,
				"y": -2.6127920553,
				"z": 4.1747460511,
				"element": "C" 
			},
			{
				"x": -0.6679610084,
				"y": -1.4529626877,
				"z": 3.5522054656,
				"element": "N" 
			},
			{
				"x": -1.0550825744,
				"y": -0.8053075175,
				"z": 2.4278750885,
				"element": "C" 
			},
			{
				"x": -0.1586863294,
				"y": 0.2414004702,
				"z": 2.2340597637,
				"element": "C" 
			},
			{
				"x": 0.7421216438,
				"y": 0.1220689908,
				"z": 3.3260185293,
				"element": "C" 
			},
			{
				"x": 0.4323130478,
				"y": -0.8982998178,
				"z": 4.1165959719,
				"element": "N" 
			},
			{
				"x": -0.1243732371,
				"y": 1.2415637961,
				"z": 1.1717978847,
				"element": "C" 
			},
			{
				"x": 0.8742370698,
				"y": 2.1420207374,
				"z": 1.2473706649,
				"element": "N" 
			},
			{
				"x": 0.994758667,
				"y": 3.0968159193,
				"z": 0.3268601935,
				"element": "N" 
			},
			{
				"x": 0.1241889274,
				"y": 3.156032417,
				"z": -0.6665679092,
				"element": "C" 
			},
			{
				"x": 0.3583266071,
				"y": 4.4438795139,
				"z": -1.8318210526,
				"element": "Cl" 
			},
			{
				"x": -0.9459846964,
				"y": 2.2662516468,
				"z": -0.8301733551,
				"element": "C" 
			},
			{
				"x": -1.0686580384,
				"y": 1.2793578763,
				"z": 0.1233278127,
				"element": "C" 
			},
			{
				"x": -0.5603556011,
				"y": -3.4353744948,
				"z": 4.2180772553,
				"element": "H" 
			},
			{
				"x": -1.5978440654,
				"y": -2.3670612236,
				"z": 5.190698778,
				"element": "H" 
			},
			{
				"x": -2.1450281583,
				"y": -2.9181025556,
				"z": 3.5859172971,
				"element": "H" 
			},
			{
				"x": -1.9177256627,
				"y": -1.1296285171,
				"z": 1.8639797586,
				"element": "H" 
			},
			{
				"x": 1.5929157244,
				"y": 0.751496709,
				"z": 3.5419982174,
				"element": "H" 
			},
			{
				"x": -1.6312620614,
				"y": 2.3606382415,
				"z": -1.6646261841,
				"element": "H" 
			},
			{
				"x": -1.8712679505,
				"y": 0.5509025509,
				"z": 0.0678597688,
				"element": "H" 
			}
		],
		 "valence_orbital": [ 
			{
				"type": "occ",
				"energy": -0.2964,
				"method": "rhf"
			},
			{
				"type": "occ",
				"energy": -0.2953,
				"method": "rhf"
			},
			{
				"type": "occ",
				"energy": -0.26379,
				"method": "rhf"
			},
			{
				"type": "occ",
				"energy": -0.24143,
				"method": "rhf"
			},
			{
				"type": "occ",
				"energy": -0.23436,
				"method": "rhf"
			},
			{
				"type": "unocc",
				"energy": -0.05887,
				"method": "rhf"
			},
			{
				"type": "unocc",
				"energy": -0.04684,
				"method": "rhf"
			},
			{
				"type": "unocc",
				"energy": 0.01031,
				"method": "rhf"
			},
			{
				"type": "unocc",
				"energy": 0.02704,
				"method": "rhf"
			},
			{
				"type": "unocc",
				"energy": 0.06621,
				"method": "rhf"
			}
		],
		"cosmo_sigma_profile": { 
			"-0.025": 0.0,
			"-0.024": 0.0,
			"-0.023": 0.0,
			"-0.022": 0.0,
			"-0.021": 0.0,
			"-0.02": 0.0,
			"-0.019": 0.0,
			"-0.018": 0.0,
			"-0.017": 0.0,
			"-0.016": 0.0,
			"-0.015": 0.0,
			"-0.014": 0.0,
			"-0.013": 0.0,
			"-0.012": 0.0,
			"-0.011": 1.14049018812,
			"-0.01": 5.03599495558,
			"-0.009": 6.74307253331,
			"-0.008": 6.99814580849,
			"-0.007": 8.48261677513,
			"-0.006": 10.6324361309,
			"-0.005": 10.7879500728,
			"-0.004": 12.8059901279,
			"-0.003": 17.3677090132,
			"-0.002": 16.7849726286,
			"-0.001": 16.1963226186,
			"0.0": 12.3756442355,
			"0.001": 10.8001110967,
			"0.002": 14.4481068718,
			"0.003": 17.2677463806,
			"0.004": 12.9299361138,
			"0.005": 6.25198831293,
			"0.006": 5.14953709173,
			"0.007": 4.09052396235,
			"0.008": 3.41775861653,
			"0.009": 3.30989434226,
			"0.01": 3.28758412159,
			"0.011": 3.33880835733,
			"0.012": 3.36069971362,
			"0.013": 3.9455915822,
			"0.014": 2.35585927543,
			"0.015": 1.22111611251,
			"0.016": 0.194572553523,
			"0.017": 0.0,
			"0.018": 0.0,
			"0.019": 0.0,
			"0.02": 0.0,
			"0.021": 0.0,
			"0.022": 0.0,
			"0.023": 0.0,
			"0.024": 0.0,
			"0.025": 0.0
		}
	}
}
