{
	 "smiles": "OC1(CCCCC1)C1(O)CCCCC1", 
	 "Tm": 400.15, 
	 "num_atms": 36, 
	 "gaussian": { 
		 "optdone": 1, 
		 "sigma_profile": "yes", 
		 "theory": "DFT", 
		 "functional": "B3LYP", 
		 "basiset": "6-31G**", 
		 "properties": { 
			 "R2extent": 3402.5067, 
			 "electric_dipole_moment_norm": 0.128681506053, 
			 "electric_quadrupole_moment_norm": 8.08089727196, 
			 "total_energy": -620.988619028, 
			 "HOMO_LUMO_gap": 0.29547, 
			 "cosmo_polarized_energy": -8.66, 
			 "cosmo_cavitation_energy": 32.09, 
			 "cosmo_dispersion_energy": -23.9, 
			 "cosmo_repulsion_energy": 1.85, 
			 "cosmo_total_nonelectrostatic_energy": 10.04, 
			 "SMD_solvation_energy": 3.97 
		},
		"coords": [
			{
				"x": -0.6334481803,
				"y": 0.6093881325,
				"z": 0.7130999259,
				"element": "O" 
			},
			{
				"x": 0.3278755675,
				"y": 0.0409795201,
				"z": -0.1938769953,
				"element": "C" 
			},
			{
				"x": 1.4602300684,
				"y": 1.0821763036,
				"z": -0.2687057552,
				"element": "C" 
			},
			{
				"x": 0.9451746368,
				"y": 2.4798403491,
				"z": -0.6860911439,
				"element": "C" 
			},
			{
				"x": -0.2199410505,
				"y": 2.4108691679,
				"z": -1.698855623,
				"element": "C" 
			},
			{
				"x": -0.1452158121,
				"y": 1.1170330843,
				"z": -2.5159924415,
				"element": "C" 
			},
			{
				"x": -0.2791079783,
				"y": -0.1313913044,
				"z": -1.6163743639,
				"element": "C" 
			},
			{
				"x": 0.8132494852,
				"y": -1.3463794758,
				"z": 0.3758249494,
				"element": "C" 
			},
			{
				"x": 1.8673164607,
				"y": -1.8544941317,
				"z": -0.4675439,
				"element": "O" 
			},
			{
				"x": 1.3111081885,
				"y": -1.2456180594,
				"z": 1.8309103497,
				"element": "C" 
			},
			{
				"x": 1.9073313068,
				"y": -2.5764375632,
				"z": 2.3476276022,
				"element": "C" 
			},
			{
				"x": 1.1817943146,
				"y": -3.8197370549,
				"z": 1.7844737575,
				"element": "C" 
			},
			{
				"x": -0.2636860091,
				"y": -3.4727740689,
				"z": 1.416641537,
				"element": "C" 
			},
			{
				"x": -0.3133880865,
				"y": -2.414441437,
				"z": 0.2950482462,
				"element": "C" 
			},
			{
				"x": -1.4567932515,
				"y": 0.1122336733,
				"z": 0.6253394394,
				"element": "H" 
			},
			{
				"x": 2.1954561067,
				"y": 0.72503456,
				"z": -0.9991729338,
				"element": "H" 
			},
			{
				"x": 1.9759146607,
				"y": 1.165815182,
				"z": 0.6921785008,
				"element": "H" 
			},
			{
				"x": 1.7844153943,
				"y": 3.0406569942,
				"z": -1.1153169183,
				"element": "H" 
			},
			{
				"x": 0.6237736147,
				"y": 3.0277104833,
				"z": 0.203992868,
				"element": "H" 
			},
			{
				"x": -0.2051492721,
				"y": 3.2861741645,
				"z": -2.3582292419,
				"element": "H" 
			},
			{
				"x": -1.1719678225,
				"y": 2.4343628509,
				"z": -1.1576358869,
				"element": "H" 
			},
			{
				"x": -0.9208821725,
				"y": 1.0970256376,
				"z": -3.2901025149,
				"element": "H" 
			},
			{
				"x": 0.8143417709,
				"y": 1.0848031317,
				"z": -3.0494777272,
				"element": "H" 
			},
			{
				"x": -1.3406538601,
				"y": -0.3898116361,
				"z": -1.5077579657,
				"element": "H" 
			},
			{
				"x": 0.2046600643,
				"y": -0.9828597974,
				"z": -2.1032580545,
				"element": "H" 
			},
			{
				"x": 2.6613103687,
				"y": -1.331815931,
				"z": -0.2932953078,
				"element": "H" 
			},
			{
				"x": 0.4672196148,
				"y": -0.930166529,
				"z": 2.4514156382,
				"element": "H" 
			},
			{
				"x": 2.0600058772,
				"y": -0.4521497473,
				"z": 1.9303492493,
				"element": "H" 
			},
			{
				"x": 2.9719170419,
				"y": -2.6320291326,
				"z": 2.0959112637,
				"element": "H" 
			},
			{
				"x": 1.8533961899,
				"y": -2.571838464,
				"z": 3.442874997,
				"element": "H" 
			},
			{
				"x": 1.2111233118,
				"y": -4.6403644937,
				"z": 2.5101786655,
				"element": "H" 
			},
			{
				"x": 1.6981369787,
				"y": -4.1675087165,
				"z": 0.8835509991,
				"element": "H" 
			},
			{
				"x": -0.7830837297,
				"y": -3.0972859285,
				"z": 2.308834323,
				"element": "H" 
			},
			{
				"x": -0.8126695699,
				"y": -4.3662807492,
				"z": 1.0980790996,
				"element": "H" 
			},
			{
				"x": -0.2201937191,
				"y": -2.903286987,
				"z": -0.6794853697,
				"element": "H" 
			},
			{
				"x": -1.2985705088,
				"y": -1.9340320275,
				"z": 0.3104407318,
				"element": "H" 
			}
		],
		 "valence_orbital": [ 
			{
				"type": "occ",
				"energy": -0.30411,
				"method": "rhf"
			},
			{
				"type": "occ",
				"energy": -0.29826,
				"method": "rhf"
			},
			{
				"type": "occ",
				"energy": -0.2882,
				"method": "rhf"
			},
			{
				"type": "occ",
				"energy": -0.27595,
				"method": "rhf"
			},
			{
				"type": "occ",
				"energy": -0.23893,
				"method": "rhf"
			},
			{
				"type": "unocc",
				"energy": 0.05654,
				"method": "rhf"
			},
			{
				"type": "unocc",
				"energy": 0.07915,
				"method": "rhf"
			},
			{
				"type": "unocc",
				"energy": 0.09333,
				"method": "rhf"
			},
			{
				"type": "unocc",
				"energy": 0.10641,
				"method": "rhf"
			},
			{
				"type": "unocc",
				"energy": 0.11507,
				"method": "rhf"
			}
		],
		"cosmo_sigma_profile": { 
			"-0.025": 0.0,
			"-0.024": 0.0,
			"-0.023": 0.0,
			"-0.022": 0.0,
			"-0.021": 0.0,
			"-0.02": 0.0,
			"-0.019": 0.0,
			"-0.018": 0.0,
			"-0.017": 0.0,
			"-0.016": 0.0,
			"-0.015": 0.0,
			"-0.014": 0.908101643097,
			"-0.013": 1.12948559524,
			"-0.012": 1.89582186662,
			"-0.011": 2.68550946409,
			"-0.01": 1.4551734354,
			"-0.009": 2.09399316424,
			"-0.008": 2.28527213915,
			"-0.007": 2.26587484203,
			"-0.006": 2.86993804045,
			"-0.005": 2.61111509305,
			"-0.004": 5.81689550518,
			"-0.003": 7.44911341,
			"-0.002": 29.3673651757,
			"-0.001": 42.6666278902,
			"0.0": 45.1738376727,
			"0.001": 42.9486290951,
			"0.002": 19.1751161932,
			"0.003": 4.338566066,
			"0.004": 3.07835019953,
			"0.005": 3.13026787075,
			"0.006": 2.60623089033,
			"0.007": 2.3859683875,
			"0.008": 3.69916034329,
			"0.009": 2.83631878264,
			"0.01": 1.783336999,
			"0.011": 1.86612508347,
			"0.012": 2.28588275244,
			"0.013": 1.86249081219,
			"0.014": 1.65543943854,
			"0.015": 0.263675589789,
			"0.016": 0.0,
			"0.017": 0.0,
			"0.018": 0.0,
			"0.019": 0.0,
			"0.02": 0.0,
			"0.021": 0.0,
			"0.022": 0.0,
			"0.023": 0.0,
			"0.024": 0.0,
			"0.025": 0.0
		}
	}
}
