{
	 "smiles": "NNS(=O)(=O)CC1=CC=C(C=C1)[N+]([O-])=O", 
	 "Tm": 413.15, 
	 "num_atms": 24, 
	 "gaussian": { 
		 "optdone": 1, 
		 "sigma_profile": "yes", 
		 "theory": "DFT", 
		 "functional": "B3LYP", 
		 "basiset": "6-31G**", 
		 "properties": { 
			 "R2extent": 5177.184, 
			 "electric_dipole_moment_norm": 9.03635772477, 
			 "electric_quadrupole_moment_norm": 22.4653954568, 
			 "total_energy": -1135.30031094, 
			 "HOMO_LUMO_gap": 0.17615, 
			 "cosmo_polarized_energy": -27.0, 
			 "cosmo_cavitation_energy": 30.97, 
			 "cosmo_dispersion_energy": -22.52, 
			 "cosmo_repulsion_energy": 1.74, 
			 "cosmo_total_nonelectrostatic_energy": 10.19, 
			 "SMD_solvation_energy": 7.38 
		},
		"coords": [
			{
				"x": 0.9582273838,
				"y": 1.0793979958,
				"z": -4.1276604883,
				"element": "N" 
			},
			{
				"x": 1.6054938159,
				"y": 1.5322024275,
				"z": -2.9648064297,
				"element": "N" 
			},
			{
				"x": 1.0204017488,
				"y": 0.90311122,
				"z": -1.500344049,
				"element": "S" 
			},
			{
				"x": 1.6207487309,
				"y": 1.7682239425,
				"z": -0.4811651779,
				"element": "O" 
			},
			{
				"x": 1.2148862493,
				"y": -0.5426826455,
				"z": -1.5128137645,
				"element": "O" 
			},
			{
				"x": -0.7909435247,
				"y": 1.2080494786,
				"z": -1.552010252,
				"element": "C" 
			},
			{
				"x": -1.4849456564,
				"y": 0.5995779223,
				"z": -0.366471544,
				"element": "C" 
			},
			{
				"x": -1.9365722875,
				"y": -0.7276453895,
				"z": -0.4133653269,
				"element": "C" 
			},
			{
				"x": -2.5697311553,
				"y": -1.2999437931,
				"z": 0.6849766152,
				"element": "C" 
			},
			{
				"x": -2.7395627511,
				"y": -0.5299026123,
				"z": 1.8339044656,
				"element": "C" 
			},
			{
				"x": -2.2886675302,
				"y": 0.7855902708,
				"z": 1.9169972001,
				"element": "C" 
			},
			{
				"x": -1.6571184964,
				"y": 1.3436955291,
				"z": 0.8100029277,
				"element": "C" 
			},
			{
				"x": -3.418782793,
				"y": -1.1247619789,
				"z": 2.9967191018,
				"element": "N" 
			},
			{
				"x": -3.5562046926,
				"y": -0.422327783,
				"z": 3.9976046983,
				"element": "O" 
			},
			{
				"x": -3.8095533622,
				"y": -2.287046129,
				"z": 2.8957119717,
				"element": "O" 
			},
			{
				"x": 1.6483793441,
				"y": 0.6952163891,
				"z": -4.7650843903,
				"element": "H" 
			},
			{
				"x": 0.4412582518,
				"y": 1.8237281004,
				"z": -4.5865312891,
				"element": "H" 
			},
			{
				"x": 1.8180305427,
				"y": 2.5237617679,
				"z": -2.8804256467,
				"element": "H" 
			},
			{
				"x": -1.1220141246,
				"y": 0.7743206347,
				"z": -2.498438912,
				"element": "H" 
			},
			{
				"x": -0.9085605941,
				"y": 2.2943039229,
				"z": -1.5812701291,
				"element": "H" 
			},
			{
				"x": -1.7830771804,
				"y": -1.3157094747,
				"z": -1.3123509932,
				"element": "H" 
			},
			{
				"x": -2.9300223975,
				"y": -2.3206789822,
				"z": 0.6688027574,
				"element": "H" 
			},
			{
				"x": -2.43603217,
				"y": 1.3435951307,
				"z": 2.8328942929,
				"element": "H" 
			},
			{
				"x": -1.2901373512,
				"y": 2.3641240559,
				"z": 0.859824362,
				"element": "H" 
			}
		],
		 "valence_orbital": [ 
			{
				"type": "occ",
				"energy": -0.30609,
				"method": "rhf"
			},
			{
				"type": "occ",
				"energy": -0.29026,
				"method": "rhf"
			},
			{
				"type": "occ",
				"energy": -0.28917,
				"method": "rhf"
			},
			{
				"type": "occ",
				"energy": -0.27951,
				"method": "rhf"
			},
			{
				"type": "occ",
				"energy": -0.26731,
				"method": "rhf"
			},
			{
				"type": "unocc",
				"energy": -0.09116,
				"method": "rhf"
			},
			{
				"type": "unocc",
				"energy": -0.03,
				"method": "rhf"
			},
			{
				"type": "unocc",
				"energy": -0.01203,
				"method": "rhf"
			},
			{
				"type": "unocc",
				"energy": 0.03524,
				"method": "rhf"
			},
			{
				"type": "unocc",
				"energy": 0.05381,
				"method": "rhf"
			}
		],
		"cosmo_sigma_profile": { 
			"-0.025": 0.0,
			"-0.024": 0.0,
			"-0.023": 0.0,
			"-0.022": 0.0,
			"-0.021": 0.0,
			"-0.02": 0.0,
			"-0.019": 0.0,
			"-0.018": 0.0,
			"-0.017": 0.0,
			"-0.016": 0.181127623015,
			"-0.015": 1.41785115072,
			"-0.014": 1.93227047028,
			"-0.013": 4.36093973752,
			"-0.012": 4.60525468208,
			"-0.011": 4.67236077202,
			"-0.01": 4.76785599603,
			"-0.009": 5.88086568672,
			"-0.008": 9.80063124904,
			"-0.007": 12.8897247709,
			"-0.006": 13.4081754788,
			"-0.005": 12.0145804638,
			"-0.004": 9.58768631834,
			"-0.003": 9.37959919259,
			"-0.002": 10.8387019117,
			"-0.001": 12.2903520023,
			"0.0": 13.4830059063,
			"0.001": 15.8726766691,
			"0.002": 9.37145255703,
			"0.003": 6.12414739661,
			"0.004": 7.57401456506,
			"0.005": 6.70145032137,
			"0.006": 7.59579084322,
			"0.007": 12.4762874593,
			"0.008": 12.9135233926,
			"0.009": 8.94552269115,
			"0.01": 10.6262715012,
			"0.011": 11.6487654396,
			"0.012": 4.72505167283,
			"0.013": 0.0604686339961,
			"0.014": 0.0,
			"0.015": 0.0,
			"0.016": 0.0,
			"0.017": 0.0,
			"0.018": 0.0,
			"0.019": 0.0,
			"0.02": 0.0,
			"0.021": 0.0,
			"0.022": 0.0,
			"0.023": 0.0,
			"0.024": 0.0,
			"0.025": 0.0
		}
	}
}
