{
	 "smiles": "CC(C)C(C)C(C)(C)C", 
	 "Tm": 152.15, 
	 "num_atms": 29, 
	 "gaussian": { 
		 "optdone": 1, 
		 "sigma_profile": "yes", 
		 "theory": "DFT", 
		 "functional": "B3LYP", 
		 "basiset": "6-31G**", 
		 "properties": { 
			 "R2extent": 1595.5424, 
			 "electric_dipole_moment_norm": 0.0861873540608, 
			 "electric_quadrupole_moment_norm": 0.369374647208, 
			 "total_energy": -355.029287796, 
			 "HOMO_LUMO_gap": 0.36526, 
			 "cosmo_polarized_energy": -0.86, 
			 "cosmo_cavitation_energy": 26.68, 
			 "cosmo_dispersion_energy": -19.15, 
			 "cosmo_repulsion_energy": 1.51, 
			 "cosmo_total_nonelectrostatic_energy": 9.04, 
			 "SMD_solvation_energy": 4.84 
		},
		"coords": [
			{
				"x": 2.4913272733,
				"y": 1.2744599197,
				"z": -1.529103644,
				"element": "C" 
			},
			{
				"x": 1.6291945178,
				"y": 0.420364199,
				"z": -0.5734769584,
				"element": "C" 
			},
			{
				"x": 1.4737844183,
				"y": -0.9703323402,
				"z": -1.2177257123,
				"element": "C" 
			},
			{
				"x": 0.2960564526,
				"y": 1.1517420005,
				"z": -0.191921429,
				"element": "C" 
			},
			{
				"x": 0.63441376,
				"y": 2.5320453708,
				"z": 0.4145084117,
				"element": "C" 
			},
			{
				"x": -0.7162246868,
				"y": 0.3460213666,
				"z": 0.723775589,
				"element": "C" 
			},
			{
				"x": -1.528445878,
				"y": -0.6792865261,
				"z": -0.1032367223,
				"element": "C" 
			},
			{
				"x": 0.002896467,
				"y": -0.3675342908,
				"z": 1.8878507063,
				"element": "C" 
			},
			{
				"x": -1.7711262063,
				"y": 1.2969951869,
				"z": 1.341935952,
				"element": "C" 
			},
			{
				"x": 1.9268244329,
				"y": 1.5454388668,
				"z": -2.4303404308,
				"element": "H" 
			},
			{
				"x": 3.3705810654,
				"y": 0.7076412795,
				"z": -1.8527341381,
				"element": "H" 
			},
			{
				"x": 2.8563538976,
				"y": 2.1966646659,
				"z": -1.0726681255,
				"element": "H" 
			},
			{
				"x": 2.2063420776,
				"y": 0.2898456239,
				"z": 0.3535344847,
				"element": "H" 
			},
			{
				"x": 2.4536957257,
				"y": -1.3407134396,
				"z": -1.5384870269,
				"element": "H" 
			},
			{
				"x": 1.0602088586,
				"y": -1.7165820943,
				"z": -0.537517217,
				"element": "H" 
			},
			{
				"x": 0.8339519908,
				"y": -0.9301492807,
				"z": -2.1071750637,
				"element": "H" 
			},
			{
				"x": -0.2397116715,
				"y": 1.3416626122,
				"z": -1.1359214096,
				"element": "H" 
			},
			{
				"x": 1.1721638964,
				"y": 2.4326274131,
				"z": 1.3655392483,
				"element": "H" 
			},
			{
				"x": -0.2601764049,
				"y": 3.1281164761,
				"z": 0.5995952063,
				"element": "H" 
			},
			{
				"x": 1.2639508503,
				"y": 3.1194066944,
				"z": -0.2554372074,
				"element": "H" 
			},
			{
				"x": -2.0859174085,
				"y": -0.1749378655,
				"z": -0.9012988609,
				"element": "H" 
			},
			{
				"x": -2.2603613039,
				"y": -1.1827771607,
				"z": 0.5389521505,
				"element": "H" 
			},
			{
				"x": -0.9175562045,
				"y": -1.4531253499,
				"z": -0.5659124983,
				"element": "H" 
			},
			{
				"x": 0.5852378625,
				"y": 0.3376938665,
				"z": 2.4912703539,
				"element": "H" 
			},
			{
				"x": 0.6825591818,
				"y": -1.1520819578,
				"z": 1.5440634747,
				"element": "H" 
			},
			{
				"x": -0.7292887201,
				"y": -0.838602805,
				"z": 2.5535750749,
				"element": "H" 
			},
			{
				"x": -2.2683979642,
				"y": 1.9022115811,
				"z": 0.5749377083,
				"element": "H" 
			},
			{
				"x": -2.5448531536,
				"y": 0.708406055,
				"z": 1.8469969382,
				"element": "H" 
			},
			{
				"x": -1.3434831263,
				"y": 1.9750799328,
				"z": 2.0851211454,
				"element": "H" 
			}
		],
		 "valence_orbital": [ 
			{
				"type": "occ",
				"energy": -0.32422,
				"method": "rhf"
			},
			{
				"type": "occ",
				"energy": -0.32241,
				"method": "rhf"
			},
			{
				"type": "occ",
				"energy": -0.30196,
				"method": "rhf"
			},
			{
				"type": "occ",
				"energy": -0.29465,
				"method": "rhf"
			},
			{
				"type": "occ",
				"energy": -0.28879,
				"method": "rhf"
			},
			{
				"type": "unocc",
				"energy": 0.07647,
				"method": "rhf"
			},
			{
				"type": "unocc",
				"energy": 0.11267,
				"method": "rhf"
			},
			{
				"type": "unocc",
				"energy": 0.11499,
				"method": "rhf"
			},
			{
				"type": "unocc",
				"energy": 0.12344,
				"method": "rhf"
			},
			{
				"type": "unocc",
				"energy": 0.12494,
				"method": "rhf"
			}
		],
		"cosmo_sigma_profile": { 
			"-0.025": 0.0,
			"-0.024": 0.0,
			"-0.023": 0.0,
			"-0.022": 0.0,
			"-0.021": 0.0,
			"-0.02": 0.0,
			"-0.019": 0.0,
			"-0.018": 0.0,
			"-0.017": 0.0,
			"-0.016": 0.0,
			"-0.015": 0.0,
			"-0.014": 0.0,
			"-0.013": 0.0,
			"-0.012": 0.0,
			"-0.011": 0.0,
			"-0.01": 0.0,
			"-0.009": 0.0,
			"-0.008": 0.0,
			"-0.007": 0.0,
			"-0.006": 0.0,
			"-0.005": 0.0,
			"-0.004": 0.0673664712625,
			"-0.003": 5.70770491069,
			"-0.002": 30.3044639209,
			"-0.001": 45.6633188478,
			"0.0": 44.0754714691,
			"0.001": 38.4277090682,
			"0.002": 34.4757865128,
			"0.003": 4.83098623419,
			"0.004": 0.0,
			"0.005": 0.0,
			"0.006": 0.0,
			"0.007": 0.0,
			"0.008": 0.0,
			"0.009": 0.0,
			"0.01": 0.0,
			"0.011": 0.0,
			"0.012": 0.0,
			"0.013": 0.0,
			"0.014": 0.0,
			"0.015": 0.0,
			"0.016": 0.0,
			"0.017": 0.0,
			"0.018": 0.0,
			"0.019": 0.0,
			"0.02": 0.0,
			"0.021": 0.0,
			"0.022": 0.0,
			"0.023": 0.0,
			"0.024": 0.0,
			"0.025": 0.0
		}
	}
}
