{
	 "smiles": "ClCC1=NC(=O)NN1", 
	 "Tm": 453.15, 
	 "num_atms": 12, 
	 "gaussian": { 
		 "optdone": 1, 
		 "sigma_profile": "yes", 
		 "theory": "DFT", 
		 "functional": "B3LYP", 
		 "basiset": "6-31G**", 
		 "properties": { 
			 "R2extent": 1836.602, 
			 "electric_dipole_moment_norm": 4.72402164898, 
			 "electric_quadrupole_moment_norm": 12.1573220468, 
			 "total_energy": -816.375537191, 
			 "HOMO_LUMO_gap": 0.19895, 
			 "cosmo_polarized_energy": -19.14, 
			 "cosmo_cavitation_energy": 18.43, 
			 "cosmo_dispersion_energy": -14.22, 
			 "cosmo_repulsion_energy": 1.21, 
			 "cosmo_total_nonelectrostatic_energy": 5.42, 
			 "SMD_solvation_energy": 1.87 
		},
		"coords": [
			{
				"x": 0.7592840989,
				"y": -2.5817416035,
				"z": 2.5450268903,
				"element": "Cl" 
			},
			{
				"x": 0.6244910815,
				"y": -0.9841706749,
				"z": 1.696742242,
				"element": "C" 
			},
			{
				"x": 0.1710697589,
				"y": -1.1332448594,
				"z": 0.2775332442,
				"element": "C" 
			},
			{
				"x": -0.654258886,
				"y": -0.3159313844,
				"z": -0.2951794423,
				"element": "N" 
			},
			{
				"x": -0.8088485022,
				"y": -0.7914376472,
				"z": -1.6215052849,
				"element": "C" 
			},
			{
				"x": -1.4098002575,
				"y": -0.2815927347,
				"z": -2.5380591754,
				"element": "O" 
			},
			{
				"x": -0.1116098696,
				"y": -2.0317674529,
				"z": -1.7027017572,
				"element": "N" 
			},
			{
				"x": 0.6770784307,
				"y": -2.1230270322,
				"z": -0.5389553178,
				"element": "N" 
			},
			{
				"x": -0.0926597427,
				"y": -0.370060697,
				"z": 2.2375616812,
				"element": "H" 
			},
			{
				"x": 1.6144805671,
				"y": -0.5256428753,
				"z": 1.7399956676,
				"element": "H" 
			},
			{
				"x": 0.3908962929,
				"y": -2.2055804376,
				"z": -2.5662855629,
				"element": "H" 
			},
			{
				"x": 0.7559770281,
				"y": -3.0576026008,
				"z": -0.1459731849,
				"element": "H" 
			}
		],
		 "valence_orbital": [ 
			{
				"type": "occ",
				"energy": -0.3341,
				"method": "rhf"
			},
			{
				"type": "occ",
				"energy": -0.32404,
				"method": "rhf"
			},
			{
				"type": "occ",
				"energy": -0.31198,
				"method": "rhf"
			},
			{
				"type": "occ",
				"energy": -0.26826,
				"method": "rhf"
			},
			{
				"type": "occ",
				"energy": -0.252,
				"method": "rhf"
			},
			{
				"type": "unocc",
				"energy": -0.05305,
				"method": "rhf"
			},
			{
				"type": "unocc",
				"energy": 0.00667,
				"method": "rhf"
			},
			{
				"type": "unocc",
				"energy": 0.04808,
				"method": "rhf"
			},
			{
				"type": "unocc",
				"energy": 0.07056,
				"method": "rhf"
			},
			{
				"type": "unocc",
				"energy": 0.08781,
				"method": "rhf"
			}
		],
		"cosmo_sigma_profile": { 
			"-0.025": 0.0,
			"-0.024": 0.0,
			"-0.023": 0.0,
			"-0.022": 0.0,
			"-0.021": 0.0,
			"-0.02": 0.0,
			"-0.019": 0.0,
			"-0.018": 0.0,
			"-0.017": 0.247761925489,
			"-0.016": 2.25647242261,
			"-0.015": 2.05605392369,
			"-0.014": 1.47827860714,
			"-0.013": 2.20004390762,
			"-0.012": 2.15662191275,
			"-0.011": 2.66012539759,
			"-0.01": 4.9815810182,
			"-0.009": 5.8867023449,
			"-0.008": 5.22939337898,
			"-0.007": 6.47546947977,
			"-0.006": 6.37417459297,
			"-0.005": 6.12890640689,
			"-0.004": 5.2268893154,
			"-0.003": 5.83678938359,
			"-0.002": 5.06625649852,
			"-0.001": 7.02476796795,
			"0.0": 7.25332903648,
			"0.001": 5.57016813443,
			"0.002": 6.8646113664,
			"0.003": 7.1774756251,
			"0.004": 8.36843341077,
			"0.005": 9.13103651887,
			"0.006": 3.23603348697,
			"0.007": 2.84538983697,
			"0.008": 1.73293043648,
			"0.009": 2.93137670815,
			"0.01": 1.87832418925,
			"0.011": 3.497924848,
			"0.012": 5.34450281131,
			"0.013": 7.9814534515,
			"0.014": 3.35749949394,
			"0.015": 0.844816360272,
			"0.016": 0.0684291230435,
			"0.017": 0.0,
			"0.018": 0.0,
			"0.019": 0.0,
			"0.02": 0.0,
			"0.021": 0.0,
			"0.022": 0.0,
			"0.023": 0.0,
			"0.024": 0.0,
			"0.025": 0.0
		}
	}
}
