{
	 "smiles": "CC(C)(C1=CC(Br)=C(OCC=C)C(Br)=C1)C1=CC(Br)=C(OCC=C)C(Br)=C1", 
	 "Tm": 392.15, 
	 "num_atms": 47, 
	 "gaussian": { 
		 "optdone": 1, 
		 "sigma_profile": "yes", 
		 "theory": "DFT", 
		 "functional": "B3LYP", 
		 "basiset": "6-31G**", 
		 "properties": { 
			 "R2extent": 24099.0323, 
			 "electric_dipole_moment_norm": 0.122005942478, 
			 "electric_quadrupole_moment_norm": 17.4996937033, 
			 "total_energy": -11248.2750471, 
			 "HOMO_LUMO_gap": 0.20742, 
			 "cosmo_polarized_energy": -12.55, 
			 "cosmo_cavitation_energy": 59.92, 
			 "cosmo_dispersion_energy": -39.64, 
			 "cosmo_repulsion_energy": 3.09, 
			 "cosmo_total_nonelectrostatic_energy": 23.37, 
			 "SMD_solvation_energy": 7.59 
		},
		"coords": [
			{
				"x": 2.2181125555,
				"y": -0.7431265844,
				"z": 3.7406131811,
				"element": "C" 
			},
			{
				"x": 1.9413299433,
				"y": 0.2530018686,
				"z": 2.5892681427,
				"element": "C" 
			},
			{
				"x": 2.8834441811,
				"y": 1.4654332469,
				"z": 2.7817724757,
				"element": "C" 
			},
			{
				"x": 2.2005357219,
				"y": -0.4855956615,
				"z": 1.2602297049,
				"element": "C" 
			},
			{
				"x": 3.3056657499,
				"y": -0.2157003143,
				"z": 0.4483041771,
				"element": "C" 
			},
			{
				"x": 3.524155062,
				"y": -0.9456286619,
				"z": -0.7205919101,
				"element": "C" 
			},
			{
				"x": 5.0530093643,
				"y": -0.5398353702,
				"z": -1.7862694391,
				"element": "Br" 
			},
			{
				"x": 2.66310032,
				"y": -1.9725889748,
				"z": -1.1267806387,
				"element": "C" 
			},
			{
				"x": 2.9166011934,
				"y": -2.7241978746,
				"z": -2.2325352772,
				"element": "O" 
			},
			{
				"x": 2.3182375906,
				"y": -2.2474705851,
				"z": -3.4638776181,
				"element": "C" 
			},
			{
				"x": 2.486282991,
				"y": -3.3131012606,
				"z": -4.5004460802,
				"element": "C" 
			},
			{
				"x": 3.0309857266,
				"y": -3.1039424368,
				"z": -5.6978145473,
				"element": "C" 
			},
			{
				"x": 1.5562550687,
				"y": -2.2311976939,
				"z": -0.2997155026,
				"element": "C" 
			},
			{
				"x": 0.3442596984,
				"y": -3.6236425097,
				"z": -0.7821805236,
				"element": "Br" 
			},
			{
				"x": 1.3257724514,
				"y": -1.5086163053,
				"z": 0.8638514282,
				"element": "C" 
			},
			{
				"x": 0.4921228087,
				"y": 0.7808249827,
				"z": 2.6062347083,
				"element": "C" 
			},
			{
				"x": 0.036564512,
				"y": 1.5642254406,
				"z": 1.5349698285,
				"element": "C" 
			},
			{
				"x": -1.2441743105,
				"y": 2.1016266773,
				"z": 1.5401684098,
				"element": "C" 
			},
			{
				"x": -1.8062082435,
				"y": 3.1738668334,
				"z": 0.0653823391,
				"element": "Br" 
			},
			{
				"x": -2.1347323374,
				"y": 1.8864335821,
				"z": 2.6062302845,
				"element": "C" 
			},
			{
				"x": -3.365604559,
				"y": 2.4661133205,
				"z": 2.6335424565,
				"element": "O" 
			},
			{
				"x": -4.4352301528,
				"y": 1.691831432,
				"z": 2.035320677,
				"element": "C" 
			},
			{
				"x": -5.6393515452,
				"y": 2.5736062165,
				"z": 1.9309195063,
				"element": "C" 
			},
			{
				"x": -6.840023127,
				"y": 2.2491261276,
				"z": 2.4076079445,
				"element": "C" 
			},
			{
				"x": -1.6674597434,
				"y": 1.0986922559,
				"z": 3.6655642133,
				"element": "C" 
			},
			{
				"x": -2.8149647289,
				"y": 0.7677357722,
				"z": 5.1527652522,
				"element": "Br" 
			},
			{
				"x": -0.3817653001,
				"y": 0.5567381827,
				"z": 3.6737473877,
				"element": "C" 
			},
			{
				"x": 1.5433945612,
				"y": -1.6032753156,
				"z": 3.7120994168,
				"element": "H" 
			},
			{
				"x": 3.2409441171,
				"y": -1.120722023,
				"z": 3.6571186221,
				"element": "H" 
			},
			{
				"x": 2.1212700866,
				"y": -0.2585213356,
				"z": 4.7173748992,
				"element": "H" 
			},
			{
				"x": 2.7931371566,
				"y": 2.190416727,
				"z": 1.9680229209,
				"element": "H" 
			},
			{
				"x": 2.6298732724,
				"y": 1.9789179776,
				"z": 3.7133133619,
				"element": "H" 
			},
			{
				"x": 3.9292217822,
				"y": 1.1492418584,
				"z": 2.8502610915,
				"element": "H" 
			},
			{
				"x": 4.0128066027,
				"y": 0.5610906271,
				"z": 0.7069299575,
				"element": "H" 
			},
			{
				"x": 1.2525643048,
				"y": -2.0523137041,
				"z": -3.2818195926,
				"element": "H" 
			},
			{
				"x": 2.8014132425,
				"y": -1.31221586,
				"z": -3.7702584427,
				"element": "H" 
			},
			{
				"x": 2.105515211,
				"y": -4.2951647152,
				"z": -4.2259262929,
				"element": "H" 
			},
			{
				"x": 3.0991562404,
				"y": -3.894528181,
				"z": -6.4388912149,
				"element": "H" 
			},
			{
				"x": 3.4250867184,
				"y": -2.1316690382,
				"z": -5.9837764221,
				"element": "H" 
			},
			{
				"x": 0.4515802509,
				"y": -1.7407180323,
				"z": 1.4613610408,
				"element": "H" 
			},
			{
				"x": 0.6811071188,
				"y": 1.7517433063,
				"z": 0.6838153398,
				"element": "H" 
			},
			{
				"x": -4.1123269872,
				"y": 1.3615884908,
				"z": 1.0385198207,
				"element": "H" 
			},
			{
				"x": -4.6393754608,
				"y": 0.8080475885,
				"z": 2.6511841629,
				"element": "H" 
			},
			{
				"x": -5.4844340366,
				"y": 3.5146130382,
				"z": 1.4062240445,
				"element": "H" 
			},
			{
				"x": -7.0092265306,
				"y": 1.3178352223,
				"z": 2.9428416589,
				"element": "H" 
			},
			{
				"x": -7.6998192011,
				"y": 2.8991324789,
				"z": 2.2768199181,
				"element": "H" 
			},
			{
				"x": -0.0822093405,
				"y": -0.0385108159,
				"z": 4.5260051295,
				"element": "H" 
			}
		],
		 "valence_orbital": [ 
			{
				"type": "occ",
				"energy": -0.26793,
				"method": "rhf"
			},
			{
				"type": "occ",
				"energy": -0.25206,
				"method": "rhf"
			},
			{
				"type": "occ",
				"energy": -0.24932,
				"method": "rhf"
			},
			{
				"type": "occ",
				"energy": -0.24871,
				"method": "rhf"
			},
			{
				"type": "occ",
				"energy": -0.24028,
				"method": "rhf"
			},
			{
				"type": "unocc",
				"energy": -0.03286,
				"method": "rhf"
			},
			{
				"type": "unocc",
				"energy": -0.02897,
				"method": "rhf"
			},
			{
				"type": "unocc",
				"energy": -0.02769,
				"method": "rhf"
			},
			{
				"type": "unocc",
				"energy": -0.01919,
				"method": "rhf"
			},
			{
				"type": "unocc",
				"energy": -0.01729,
				"method": "rhf"
			}
		],
		"cosmo_sigma_profile": { 
			"-0.025": 0.0,
			"-0.024": 0.0,
			"-0.023": 0.0,
			"-0.022": 0.0,
			"-0.021": 0.0,
			"-0.02": 0.0,
			"-0.019": 0.0,
			"-0.018": 0.0,
			"-0.017": 0.0,
			"-0.016": 0.0,
			"-0.015": 0.0,
			"-0.014": 0.0,
			"-0.013": 0.0,
			"-0.012": 0.0,
			"-0.011": 0.0,
			"-0.01": 0.0,
			"-0.009": 0.0,
			"-0.008": 0.0,
			"-0.007": 1.54416170877,
			"-0.006": 14.5039304509,
			"-0.005": 32.5217100123,
			"-0.004": 45.9324596967,
			"-0.003": 46.2219394997,
			"-0.002": 40.2818583521,
			"-0.001": 39.4964951609,
			"0.0": 46.1049767049,
			"0.001": 58.9622714506,
			"0.002": 45.7015566885,
			"0.003": 34.1026852486,
			"0.004": 38.9751525126,
			"0.005": 17.6908959494,
			"0.006": 10.3393351209,
			"0.007": 4.89817542922,
			"0.008": 4.04350846479,
			"0.009": 3.89860559035,
			"0.01": 2.98538132881,
			"0.011": 0.986268463973,
			"0.012": 0.0,
			"0.013": 0.0,
			"0.014": 0.0,
			"0.015": 0.0,
			"0.016": 0.0,
			"0.017": 0.0,
			"0.018": 0.0,
			"0.019": 0.0,
			"0.02": 0.0,
			"0.021": 0.0,
			"0.022": 0.0,
			"0.023": 0.0,
			"0.024": 0.0,
			"0.025": 0.0
		}
	}
}
