{
	 "smiles": "OC(=O)CC1=CC=C(C=C1)C(F)(F)F", 
	 "Tm": 355.15, 
	 "num_atms": 21, 
	 "gaussian": { 
		 "optdone": 1, 
		 "sigma_profile": "yes", 
		 "theory": "DFT", 
		 "functional": "B3LYP", 
		 "basiset": "6-31G**", 
		 "properties": { 
			 "R2extent": 3837.6953, 
			 "electric_dipole_moment_norm": 2.89111664759, 
			 "electric_quadrupole_moment_norm": 24.7140203136, 
			 "total_energy": -797.162868423, 
			 "HOMO_LUMO_gap": 0.21527, 
			 "cosmo_polarized_energy": -13.78, 
			 "cosmo_cavitation_energy": 27.28, 
			 "cosmo_dispersion_energy": -19.09, 
			 "cosmo_repulsion_energy": 1.45, 
			 "cosmo_total_nonelectrostatic_energy": 9.64, 
			 "SMD_solvation_energy": 6.97 
		},
		"coords": [
			{
				"x": 1.6638669811,
				"y": -0.9266693702,
				"z": 3.1700636918,
				"element": "O" 
			},
			{
				"x": 2.6738843516,
				"y": -1.012816773,
				"z": 2.2746940368,
				"element": "C" 
			},
			{
				"x": 3.8195589242,
				"y": -1.0947440403,
				"z": 2.63713613,
				"element": "O" 
			},
			{
				"x": 2.2786110441,
				"y": -1.0535008568,
				"z": 0.7862483931,
				"element": "C" 
			},
			{
				"x": 0.9358615457,
				"y": -0.450838433,
				"z": 0.4432061154,
				"element": "C" 
			},
			{
				"x": 0.8167986503,
				"y": 0.9189818561,
				"z": 0.1608136331,
				"element": "C" 
			},
			{
				"x": -0.4225423181,
				"y": 1.4844964649,
				"z": -0.1249013913,
				"element": "C" 
			},
			{
				"x": -1.5702250272,
				"y": 0.6856007039,
				"z": -0.1292866593,
				"element": "C" 
			},
			{
				"x": -1.4710133397,
				"y": -0.6784195945,
				"z": 0.1489372562,
				"element": "C" 
			},
			{
				"x": -0.2252770704,
				"y": -1.2395441331,
				"z": 0.430957797,
				"element": "C" 
			},
			{
				"x": -2.9173687939,
				"y": 1.3088133198,
				"z": -0.3838696573,
				"element": "C" 
			},
			{
				"x": -2.8314302433,
				"y": 2.355067608,
				"z": -1.2334992535,
				"element": "F" 
			},
			{
				"x": -3.7887379097,
				"y": 0.4222301616,
				"z": -0.9116010866,
				"element": "F" 
			},
			{
				"x": -3.4706632126,
				"y": 1.7741187478,
				"z": 0.7595495477,
				"element": "F" 
			},
			{
				"x": 0.817311475,
				"y": -0.8230041254,
				"z": 2.7071169687,
				"element": "H" 
			},
			{
				"x": 3.089585196,
				"y": -0.5610496242,
				"z": 0.244793424,
				"element": "H" 
			},
			{
				"x": 2.3065326874,
				"y": -2.1108903227,
				"z": 0.4960056475,
				"element": "H" 
			},
			{
				"x": 1.7053473185,
				"y": 1.5442748796,
				"z": 0.159209785,
				"element": "H" 
			},
			{
				"x": -0.500999025,
				"y": 2.5418479085,
				"z": -0.3538358962,
				"element": "H" 
			},
			{
				"x": -2.3593058526,
				"y": -1.3002872474,
				"z": 0.1287542525,
				"element": "H" 
			},
			{
				"x": -0.1519953814,
				"y": -2.3069671295,
				"z": 0.6243072653,
				"element": "H" 
			}
		],
		 "valence_orbital": [ 
			{
				"type": "occ",
				"energy": -0.37231,
				"method": "rhf"
			},
			{
				"type": "occ",
				"energy": -0.31796,
				"method": "rhf"
			},
			{
				"type": "occ",
				"energy": -0.29685,
				"method": "rhf"
			},
			{
				"type": "occ",
				"energy": -0.28737,
				"method": "rhf"
			},
			{
				"type": "occ",
				"energy": -0.2653,
				"method": "rhf"
			},
			{
				"type": "unocc",
				"energy": -0.05003,
				"method": "rhf"
			},
			{
				"type": "unocc",
				"energy": -0.04087,
				"method": "rhf"
			},
			{
				"type": "unocc",
				"energy": 0.00768,
				"method": "rhf"
			},
			{
				"type": "unocc",
				"energy": 0.0699,
				"method": "rhf"
			},
			{
				"type": "unocc",
				"energy": 0.08549,
				"method": "rhf"
			}
		],
		"cosmo_sigma_profile": { 
			"-0.025": 0.0,
			"-0.024": 0.0,
			"-0.023": 0.0,
			"-0.022": 0.0,
			"-0.021": 0.0,
			"-0.02": 0.0,
			"-0.019": 0.0,
			"-0.018": 0.0,
			"-0.017": 0.0,
			"-0.016": 0.0,
			"-0.015": 0.0883029179577,
			"-0.014": 0.559334257505,
			"-0.013": 0.500674716931,
			"-0.012": 0.807240348031,
			"-0.011": 1.39921467223,
			"-0.01": 1.80217722592,
			"-0.009": 2.41222612774,
			"-0.008": 6.30116091881,
			"-0.007": 13.2131364214,
			"-0.006": 14.5540226862,
			"-0.005": 11.9387864789,
			"-0.004": 11.5329708012,
			"-0.003": 10.1066912313,
			"-0.002": 9.23520055668,
			"-0.001": 11.5716672024,
			"0.0": 12.7554433651,
			"0.001": 16.3557473315,
			"0.002": 26.6432795902,
			"0.003": 32.560236803,
			"0.004": 3.10129306204,
			"0.005": 2.98913763643,
			"0.006": 2.17098752319,
			"0.007": 1.79168287155,
			"0.008": 2.24376375892,
			"0.009": 4.24432423834,
			"0.01": 4.67260396671,
			"0.011": 4.71153543841,
			"0.012": 5.77039428904,
			"0.013": 2.1353110452,
			"0.014": 0.045406847106,
			"0.015": 0.0,
			"0.016": 0.0,
			"0.017": 0.0,
			"0.018": 0.0,
			"0.019": 0.0,
			"0.02": 0.0,
			"0.021": 0.0,
			"0.022": 0.0,
			"0.023": 0.0,
			"0.024": 0.0,
			"0.025": 0.0
		}
	}
}
