{
	 "smiles": "CCCN1C(=O)NC(=O)C1=O", 
	 "Tm": 379.15, 
	 "num_atms": 19, 
	 "gaussian": { 
		 "optdone": 1, 
		 "sigma_profile": "yes", 
		 "theory": "DFT", 
		 "functional": "B3LYP", 
		 "basiset": "6-31G**", 
		 "properties": { 
			 "R2extent": 2389.2678, 
			 "electric_dipole_moment_norm": 2.7101481823, 
			 "electric_quadrupole_moment_norm": 20.9355812606, 
			 "total_energy": -568.680272833, 
			 "HOMO_LUMO_gap": 0.18902, 
			 "cosmo_polarized_energy": -14.47, 
			 "cosmo_cavitation_energy": 24.12, 
			 "cosmo_dispersion_energy": -17.16, 
			 "cosmo_repulsion_energy": 1.41, 
			 "cosmo_total_nonelectrostatic_energy": 8.37, 
			 "SMD_solvation_energy": 6.6 
		},
		"coords": [
			{
				"x": 1.1698062055,
				"y": 2.2830010408,
				"z": 1.0299283024,
				"element": "C" 
			},
			{
				"x": 0.2552903775,
				"y": 1.0553534491,
				"z": 0.9873564872,
				"element": "C" 
			},
			{
				"x": -0.0194355309,
				"y": 0.6028617495,
				"z": -0.4513580744,
				"element": "C" 
			},
			{
				"x": -0.8991562036,
				"y": -0.5644299026,
				"z": -0.5236627219,
				"element": "N" 
			},
			{
				"x": -0.4353118331,
				"y": -1.8830916188,
				"z": -0.4279082921,
				"element": "C" 
			},
			{
				"x": 0.7127639406,
				"y": -2.2389465159,
				"z": -0.3002890005,
				"element": "O" 
			},
			{
				"x": -1.5653737403,
				"y": -2.7068022178,
				"z": -0.5149255652,
				"element": "N" 
			},
			{
				"x": -2.7432462405,
				"y": -1.9896850226,
				"z": -0.6630789135,
				"element": "C" 
			},
			{
				"x": -3.8671701981,
				"y": -2.4122135881,
				"z": -0.7684210029,
				"element": "O" 
			},
			{
				"x": -2.2789728152,
				"y": -0.5091075842,
				"z": -0.6607373551,
				"element": "C" 
			},
			{
				"x": -2.968920067,
				"y": 0.4774027289,
				"z": -0.7615189293,
				"element": "O" 
			},
			{
				"x": 0.7218021697,
				"y": 3.1325294727,
				"z": 0.502696766,
				"element": "H" 
			},
			{
				"x": 1.3569221279,
				"y": 2.5940402581,
				"z": 2.06169668,
				"element": "H" 
			},
			{
				"x": 2.1395497581,
				"y": 2.0738303799,
				"z": 0.5648861375,
				"element": "H" 
			},
			{
				"x": 0.7136057802,
				"y": 0.2250938546,
				"z": 1.5368689677,
				"element": "H" 
			},
			{
				"x": -0.6998973296,
				"y": 1.2796894857,
				"z": 1.4763225917,
				"element": "H" 
			},
			{
				"x": 0.9128091708,
				"y": 0.3385439813,
				"z": -0.9577544849,
				"element": "H" 
			},
			{
				"x": -0.5138954489,
				"y": 1.3959243039,
				"z": -1.0191385338,
				"element": "H" 
			},
			{
				"x": -1.4988701233,
				"y": -3.7145942545,
				"z": -0.4782630588,
				"element": "H" 
			}
		],
		 "valence_orbital": [ 
			{
				"type": "occ",
				"energy": -0.34327,
				"method": "rhf"
			},
			{
				"type": "occ",
				"energy": -0.31602,
				"method": "rhf"
			},
			{
				"type": "occ",
				"energy": -0.30262,
				"method": "rhf"
			},
			{
				"type": "occ",
				"energy": -0.29297,
				"method": "rhf"
			},
			{
				"type": "occ",
				"energy": -0.27702,
				"method": "rhf"
			},
			{
				"type": "unocc",
				"energy": -0.088,
				"method": "rhf"
			},
			{
				"type": "unocc",
				"energy": 0.03086,
				"method": "rhf"
			},
			{
				"type": "unocc",
				"energy": 0.06717,
				"method": "rhf"
			},
			{
				"type": "unocc",
				"energy": 0.06961,
				"method": "rhf"
			},
			{
				"type": "unocc",
				"energy": 0.08497,
				"method": "rhf"
			}
		],
		"cosmo_sigma_profile": { 
			"-0.025": 0.0,
			"-0.024": 0.0,
			"-0.023": 0.0,
			"-0.022": 0.0,
			"-0.021": 0.0,
			"-0.02": 0.0,
			"-0.019": 0.00778794673852,
			"-0.018": 1.14035489357,
			"-0.017": 0.975060950868,
			"-0.016": 1.25371695552,
			"-0.015": 1.63138750139,
			"-0.014": 0.275018534086,
			"-0.013": 0.81121920341,
			"-0.012": 0.960042199285,
			"-0.011": 1.0674578976,
			"-0.01": 1.97780856062,
			"-0.009": 2.23655889072,
			"-0.008": 3.16534673379,
			"-0.007": 2.94019641629,
			"-0.006": 6.08843512905,
			"-0.005": 11.1643907108,
			"-0.004": 17.8476353594,
			"-0.003": 21.3894906606,
			"-0.002": 15.4645693555,
			"-0.001": 15.8245176349,
			"0.0": 13.8101189219,
			"0.001": 9.97170407161,
			"0.002": 4.28601251232,
			"0.003": 4.42234570214,
			"0.004": 3.78311502025,
			"0.005": 2.48553015376,
			"0.006": 3.39032452182,
			"0.007": 5.19838206447,
			"0.008": 5.38536388591,
			"0.009": 8.76557704658,
			"0.01": 14.9786334094,
			"0.011": 7.9693786283,
			"0.012": 0.270553171441,
			"0.013": 0.0,
			"0.014": 0.0,
			"0.015": 0.0,
			"0.016": 0.0,
			"0.017": 0.0,
			"0.018": 0.0,
			"0.019": 0.0,
			"0.02": 0.0,
			"0.021": 0.0,
			"0.022": 0.0,
			"0.023": 0.0,
			"0.024": 0.0,
			"0.025": 0.0
		}
	}
}
