{
	 "smiles": "ON=C(/CC1=CC=CC=C1)C1=CC=C2CCC3=C2C1=CC=C3", 
	 "Tm": 411.15, 
	 "num_atms": 39, 
	 "gaussian": { 
		 "optdone": 1, 
		 "sigma_profile": "yes", 
		 "theory": "DFT", 
		 "functional": "B3LYP", 
		 "basiset": "6-31G**", 
		 "properties": { 
			 "R2extent": 7073.6643, 
			 "electric_dipole_moment_norm": 1.46900147379, 
			 "electric_quadrupole_moment_norm": 9.02566522978, 
			 "total_energy": -902.310598859, 
			 "HOMO_LUMO_gap": 0.16605, 
			 "cosmo_polarized_energy": -11.47, 
			 "cosmo_cavitation_energy": 41.75, 
			 "cosmo_dispersion_energy": -29.0, 
			 "cosmo_repulsion_energy": 2.23, 
			 "cosmo_total_nonelectrostatic_energy": 14.99, 
			 "SMD_solvation_energy": 5.81 
		},
		"coords": [
			{
				"x": 0.3137426009,
				"y": 1.9667623132,
				"z": -3.3536563619,
				"element": "O" 
			},
			{
				"x": -0.1398927326,
				"y": 0.7818145657,
				"z": -2.7282821401,
				"element": "N" 
			},
			{
				"x": 0.3136119889,
				"y": 0.658210238,
				"z": -1.5322436796,
				"element": "C" 
			},
			{
				"x": 1.2253123903,
				"y": 1.6628894303,
				"z": -0.8410084648,
				"element": "C" 
			},
			{
				"x": 0.4364520648,
				"y": 2.6611653607,
				"z": -0.0047444484,
				"element": "C" 
			},
			{
				"x": 0.397189241,
				"y": 2.5485601393,
				"z": 1.3902758211,
				"element": "C" 
			},
			{
				"x": -0.3288633351,
				"y": 3.4592965518,
				"z": 2.1606843067,
				"element": "C" 
			},
			{
				"x": -1.0293818033,
				"y": 4.4959349697,
				"z": 1.543352232,
				"element": "C" 
			},
			{
				"x": -1.0000636469,
				"y": 4.6139945366,
				"z": 0.1515548648,
				"element": "C" 
			},
			{
				"x": -0.2747396154,
				"y": 3.7039207976,
				"z": -0.6171786968,
				"element": "C" 
			},
			{
				"x": -0.1909699365,
				"y": -0.5194523557,
				"z": -0.7702593711,
				"element": "C" 
			},
			{
				"x": -1.5574505863,
				"y": -0.6530302468,
				"z": -0.555329126,
				"element": "C" 
			},
			{
				"x": -2.1256298594,
				"y": -1.7129869131,
				"z": 0.1988196009,
				"element": "C" 
			},
			{
				"x": -1.289346633,
				"y": -2.6574839559,
				"z": 0.7493129176,
				"element": "C" 
			},
			{
				"x": -1.5556101638,
				"y": -3.8899514448,
				"z": 1.5949257178,
				"element": "C" 
			},
			{
				"x": -0.1413074837,
				"y": -4.5179013787,
				"z": 1.846120858,
				"element": "C" 
			},
			{
				"x": 0.8271028375,
				"y": -3.6012112329,
				"z": 1.1185866853,
				"element": "C" 
			},
			{
				"x": 0.1006053127,
				"y": -2.5455625509,
				"z": 0.5230128117,
				"element": "C" 
			},
			{
				"x": 0.6978400308,
				"y": -1.5095127746,
				"z": -0.2341378699,
				"element": "C" 
			},
			{
				"x": 2.1084801366,
				"y": -1.5994271286,
				"z": -0.4042813022,
				"element": "C" 
			},
			{
				"x": 2.8193056395,
				"y": -2.6340231197,
				"z": 0.1786068961,
				"element": "C" 
			},
			{
				"x": 2.1938491781,
				"y": -3.6468084361,
				"z": 0.9547712346,
				"element": "C" 
			},
			{
				"x": -0.0649351974,
				"y": 1.8772264308,
				"z": -4.2378124817,
				"element": "H" 
			},
			{
				"x": 1.8101432696,
				"y": 2.1869857212,
				"z": -1.6010219998,
				"element": "H" 
			},
			{
				"x": 1.9152228459,
				"y": 1.1222496037,
				"z": -0.1888029701,
				"element": "H" 
			},
			{
				"x": 0.9412505086,
				"y": 1.7431456824,
				"z": 1.8772863864,
				"element": "H" 
			},
			{
				"x": -0.3447725229,
				"y": 3.3581806741,
				"z": 3.2424313456,
				"element": "H" 
			},
			{
				"x": -1.5929226133,
				"y": 5.2069930787,
				"z": 2.1408848399,
				"element": "H" 
			},
			{
				"x": -1.5425259434,
				"y": 5.4189347764,
				"z": -0.3370885551,
				"element": "H" 
			},
			{
				"x": -0.2570164574,
				"y": 3.7885748821,
				"z": -1.6993857531,
				"element": "H" 
			},
			{
				"x": -2.2136857065,
				"y": 0.1024371123,
				"z": -0.9754841043,
				"element": "H" 
			},
			{
				"x": -3.2031513522,
				"y": -1.7537218609,
				"z": 0.3332947361,
				"element": "H" 
			},
			{
				"x": -2.2201184474,
				"y": -4.5921286889,
				"z": 1.0786176644,
				"element": "H" 
			},
			{
				"x": -2.052551706,
				"y": -3.6296787844,
				"z": 2.5365490563,
				"element": "H" 
			},
			{
				"x": -0.0842262029,
				"y": -5.5438703021,
				"z": 1.465058916,
				"element": "H" 
			},
			{
				"x": 0.088275418,
				"y": -4.5724459477,
				"z": 2.9165320481,
				"element": "H" 
			},
			{
				"x": 2.6321915031,
				"y": -0.8704071722,
				"z": -1.0143357487,
				"element": "H" 
			},
			{
				"x": 3.8948966134,
				"y": -2.6809029286,
				"z": 0.0305097412,
				"element": "H" 
			},
			{
				"x": 2.795490366,
				"y": -4.4395696423,
				"z": 1.3912643929,
				"element": "H" 
			}
		],
		 "valence_orbital": [ 
			{
				"type": "occ",
				"energy": -0.2482,
				"method": "rhf"
			},
			{
				"type": "occ",
				"energy": -0.24161,
				"method": "rhf"
			},
			{
				"type": "occ",
				"energy": -0.24054,
				"method": "rhf"
			},
			{
				"type": "occ",
				"energy": -0.2314,
				"method": "rhf"
			},
			{
				"type": "occ",
				"energy": -0.20314,
				"method": "rhf"
			},
			{
				"type": "unocc",
				"energy": -0.03709,
				"method": "rhf"
			},
			{
				"type": "unocc",
				"energy": -0.01012,
				"method": "rhf"
			},
			{
				"type": "unocc",
				"energy": -0.00396,
				"method": "rhf"
			},
			{
				"type": "unocc",
				"energy": 0.00635,
				"method": "rhf"
			},
			{
				"type": "unocc",
				"energy": 0.01417,
				"method": "rhf"
			}
		],
		"cosmo_sigma_profile": { 
			"-0.025": 0.0,
			"-0.024": 0.0,
			"-0.023": 0.0,
			"-0.022": 0.0,
			"-0.021": 0.0,
			"-0.02": 0.0,
			"-0.019": 0.0,
			"-0.018": 0.0942695749943,
			"-0.017": 0.693218748609,
			"-0.016": 1.04265323019,
			"-0.015": 0.790943841113,
			"-0.014": 1.2080104923,
			"-0.013": 0.267598086396,
			"-0.012": 0.327309224941,
			"-0.011": 0.65141620141,
			"-0.01": 0.854690235502,
			"-0.009": 0.664944081804,
			"-0.008": 0.917701528609,
			"-0.007": 0.503164992846,
			"-0.006": 6.48098403529,
			"-0.005": 22.2309386564,
			"-0.004": 32.8053607234,
			"-0.003": 36.0967828373,
			"-0.002": 31.0526056452,
			"-0.001": 28.5536039775,
			"0.0": 20.8443971549,
			"0.001": 20.0860597506,
			"0.002": 17.6865826951,
			"0.003": 25.6891292488,
			"0.004": 30.7833908272,
			"0.005": 25.1479362687,
			"0.006": 14.3435780358,
			"0.007": 4.22843191139,
			"0.008": 2.85407778209,
			"0.009": 1.40737738886,
			"0.01": 1.11188646414,
			"0.011": 1.43842285371,
			"0.012": 0.883767421717,
			"0.013": 0.573421638255,
			"0.014": 0.55482983486,
			"0.015": 0.0,
			"0.016": 0.0,
			"0.017": 0.0,
			"0.018": 0.0,
			"0.019": 0.0,
			"0.02": 0.0,
			"0.021": 0.0,
			"0.022": 0.0,
			"0.023": 0.0,
			"0.024": 0.0,
			"0.025": 0.0
		}
	}
}
