{
	 "smiles": "COC1=CC(CO)=CC(Cl)=C1O", 
	 "Tm": 390.15, 
	 "num_atms": 21, 
	 "gaussian": { 
		 "optdone": 1, 
		 "sigma_profile": "yes", 
		 "theory": "DFT", 
		 "functional": "B3LYP", 
		 "basiset": "6-31G**", 
		 "properties": { 
			 "R2extent": 2962.7291, 
			 "electric_dipole_moment_norm": 1.08943152148, 
			 "electric_quadrupole_moment_norm": 8.17206129933, 
			 "total_energy": -996.107906083, 
			 "HOMO_LUMO_gap": 0.21151, 
			 "cosmo_polarized_energy": -10.57, 
			 "cosmo_cavitation_energy": 26.51, 
			 "cosmo_dispersion_energy": -19.8, 
			 "cosmo_repulsion_energy": 1.6, 
			 "cosmo_total_nonelectrostatic_energy": 8.32, 
			 "SMD_solvation_energy": 5.46 
		},
		"coords": [
			{
				"x": -4.0962743645,
				"y": 0.8489305456,
				"z": 1.0504474765,
				"element": "C" 
			},
			{
				"x": -3.5284143975,
				"y": 0.2523169168,
				"z": -0.1211105952,
				"element": "O" 
			},
			{
				"x": -2.1615366824,
				"y": 0.1757452319,
				"z": -0.1671248536,
				"element": "C" 
			},
			{
				"x": -1.5658807312,
				"y": -1.0805385962,
				"z": -0.2578781379,
				"element": "C" 
			},
			{
				"x": -0.1797019764,
				"y": -1.2275048549,
				"z": -0.3794125939,
				"element": "C" 
			},
			{
				"x": 0.4552368851,
				"y": -2.6048010103,
				"z": -0.4403080129,
				"element": "C" 
			},
			{
				"x": 1.6824303272,
				"y": -2.6343747005,
				"z": -1.1531574339,
				"element": "O" 
			},
			{
				"x": 0.6224442759,
				"y": -0.0849541878,
				"z": -0.4064525638,
				"element": "C" 
			},
			{
				"x": 0.0256343678,
				"y": 1.1693680978,
				"z": -0.3239718856,
				"element": "C" 
			},
			{
				"x": 1.025014475,
				"y": 2.6266821854,
				"z": -0.3825121316,
				"element": "Cl" 
			},
			{
				"x": -1.3604613415,
				"y": 1.3371339142,
				"z": -0.2123827904,
				"element": "C" 
			},
			{
				"x": -1.9672159484,
				"y": 2.5513226747,
				"z": -0.1649093544,
				"element": "O" 
			},
			{
				"x": -5.178299796,
				"y": 0.7611773792,
				"z": 0.9358099549,
				"element": "H" 
			},
			{
				"x": -3.8209049406,
				"y": 1.9029153513,
				"z": 1.1405660212,
				"element": "H" 
			},
			{
				"x": -3.7836190302,
				"y": 0.308044511,
				"z": 1.9527877085,
				"element": "H" 
			},
			{
				"x": -2.2210653532,
				"y": -1.9468421145,
				"z": -0.2418418783,
				"element": "H" 
			},
			{
				"x": 0.7053225973,
				"y": -2.9502451869,
				"z": 0.5700714061,
				"element": "H" 
			},
			{
				"x": -0.2714484436,
				"y": -3.3239121539,
				"z": -0.8500061094,
				"element": "H" 
			},
			{
				"x": 1.5024313832,
				"y": -2.3329945213,
				"z": -2.053987362,
				"element": "H" 
			},
			{
				"x": 1.6982798456,
				"y": -0.1771704879,
				"z": -0.498847226,
				"element": "H" 
			},
			{
				"x": -1.2832711517,
				"y": 3.2371010062,
				"z": -0.2163796384,
				"element": "H" 
			}
		],
		 "valence_orbital": [ 
			{
				"type": "occ",
				"energy": -0.32159,
				"method": "rhf"
			},
			{
				"type": "occ",
				"energy": -0.28426,
				"method": "rhf"
			},
			{
				"type": "occ",
				"energy": -0.28019,
				"method": "rhf"
			},
			{
				"type": "occ",
				"energy": -0.24326,
				"method": "rhf"
			},
			{
				"type": "occ",
				"energy": -0.22319,
				"method": "rhf"
			},
			{
				"type": "unocc",
				"energy": -0.01168,
				"method": "rhf"
			},
			{
				"type": "unocc",
				"energy": -0.00318,
				"method": "rhf"
			},
			{
				"type": "unocc",
				"energy": 0.0172,
				"method": "rhf"
			},
			{
				"type": "unocc",
				"energy": 0.07793,
				"method": "rhf"
			},
			{
				"type": "unocc",
				"energy": 0.08282,
				"method": "rhf"
			}
		],
		"cosmo_sigma_profile": { 
			"-0.025": 0.0,
			"-0.024": 0.0,
			"-0.023": 0.0,
			"-0.022": 0.0,
			"-0.021": 0.0,
			"-0.02": 0.0,
			"-0.019": 0.0,
			"-0.018": 0.0,
			"-0.017": 0.0,
			"-0.016": 0.371750747622,
			"-0.015": 1.15829149037,
			"-0.014": 1.45603990482,
			"-0.013": 1.89473060204,
			"-0.012": 1.46911334785,
			"-0.011": 0.901287350355,
			"-0.01": 2.27503200305,
			"-0.009": 1.7993149777,
			"-0.008": 1.21801319512,
			"-0.007": 2.63201297643,
			"-0.006": 7.8530630467,
			"-0.005": 12.3787327793,
			"-0.004": 15.4033642226,
			"-0.003": 19.0219509361,
			"-0.002": 17.1252584762,
			"-0.001": 13.6275265903,
			"0.0": 13.7190816274,
			"0.001": 15.8202030527,
			"0.002": 16.643710454,
			"0.003": 18.9561681821,
			"0.004": 15.0017023803,
			"0.005": 5.39907081062,
			"0.006": 4.07125147024,
			"0.007": 3.10749367201,
			"0.008": 3.26054915742,
			"0.009": 4.23061598528,
			"0.01": 3.24726845745,
			"0.011": 2.83251399921,
			"0.012": 2.28253622917,
			"0.013": 1.37861891977,
			"0.014": 1.69845558834,
			"0.015": 0.00311375030812,
			"0.016": 0.0,
			"0.017": 0.0,
			"0.018": 0.0,
			"0.019": 0.0,
			"0.02": 0.0,
			"0.021": 0.0,
			"0.022": 0.0,
			"0.023": 0.0,
			"0.024": 0.0,
			"0.025": 0.0
		}
	}
}
