{
	 "smiles": "NC(=O)CC(NC(=O)C1=C(Cl)C=CC=C1)C(O)=O", 
	 "Tm": 464.15, 
	 "num_atms": 29, 
	 "gaussian": { 
		 "optdone": 1, 
		 "sigma_profile": "yes", 
		 "theory": "DFT", 
		 "functional": "B3LYP", 
		 "basiset": "6-31G**", 
		 "properties": { 
			 "R2extent": 5347.9378, 
			 "electric_dipole_moment_norm": 3.87875388366, 
			 "electric_quadrupole_moment_norm": 26.1049464727, 
			 "total_energy": -1296.42548244, 
			 "HOMO_LUMO_gap": 0.18801, 
			 "cosmo_polarized_energy": -27.01, 
			 "cosmo_cavitation_energy": 35.53, 
			 "cosmo_dispersion_energy": -24.2, 
			 "cosmo_repulsion_energy": 1.91, 
			 "cosmo_total_nonelectrostatic_energy": 13.24, 
			 "SMD_solvation_energy": 8.34 
		},
		"coords": [
			{
				"x": 2.2957843418,
				"y": 0.5128966628,
				"z": 2.7999509435,
				"element": "N" 
			},
			{
				"x": 2.8765398651,
				"y": -0.2642267564,
				"z": 1.8480424527,
				"element": "C" 
			},
			{
				"x": 4.0484642206,
				"y": -0.1696981745,
				"z": 1.5118577933,
				"element": "O" 
			},
			{
				"x": 1.9598346282,
				"y": -1.3084721613,
				"z": 1.183465809,
				"element": "C" 
			},
			{
				"x": 0.5644963844,
				"y": -0.8131273175,
				"z": 0.7150469108,
				"element": "C" 
			},
			{
				"x": 0.1196769792,
				"y": -1.4911081519,
				"z": -0.5114349902,
				"element": "N" 
			},
			{
				"x": 0.061997088,
				"y": -0.9122421543,
				"z": -1.7892745162,
				"element": "C" 
			},
			{
				"x": 0.1674424683,
				"y": -1.6115661919,
				"z": -2.778144668,
				"element": "O" 
			},
			{
				"x": -0.2367171787,
				"y": 0.5612531029,
				"z": -1.8612877359,
				"element": "C" 
			},
			{
				"x": 0.5201515425,
				"y": 1.4323638208,
				"z": -2.663114121,
				"element": "C" 
			},
			{
				"x": 1.9686315351,
				"y": 0.8867546722,
				"z": -3.4808731424,
				"element": "Cl" 
			},
			{
				"x": 0.1606165439,
				"y": 2.7739549195,
				"z": -2.7961995871,
				"element": "C" 
			},
			{
				"x": -0.9709938311,
				"y": 3.2597629768,
				"z": -2.142456486,
				"element": "C" 
			},
			{
				"x": -1.7370307716,
				"y": 2.4117842968,
				"z": -1.342442884,
				"element": "C" 
			},
			{
				"x": -1.3645986693,
				"y": 1.0770178534,
				"z": -1.20205403,
				"element": "C" 
			},
			{
				"x": -0.5117027805,
				"y": -0.9545142171,
				"z": 1.8150271324,
				"element": "C" 
			},
			{
				"x": -1.6795966269,
				"y": -1.4717074328,
				"z": 1.4153400715,
				"element": "O" 
			},
			{
				"x": -0.3333975851,
				"y": -0.6063546186,
				"z": 2.9636168628,
				"element": "O" 
			},
			{
				"x": 2.8992116141,
				"y": 1.1434333686,
				"z": 3.3066019156,
				"element": "H" 
			},
			{
				"x": 1.3717058624,
				"y": 0.288373709,
				"z": 3.1564839581,
				"element": "H" 
			},
			{
				"x": 1.8478130817,
				"y": -2.1598833312,
				"z": 1.8657931662,
				"element": "H" 
			},
			{
				"x": 2.5181998958,
				"y": -1.6523078311,
				"z": 0.3111711611,
				"element": "H" 
			},
			{
				"x": 0.6234472793,
				"y": 0.2573496242,
				"z": 0.4955724031,
				"element": "H" 
			},
			{
				"x": 0.4138596146,
				"y": -2.4608866761,
				"z": -0.597551675,
				"element": "H" 
			},
			{
				"x": 0.7705437538,
				"y": 3.4270675216,
				"z": -3.4101321942,
				"element": "H" 
			},
			{
				"x": -1.2473669814,
				"y": 4.303333669,
				"z": -2.2575019093,
				"element": "H" 
			},
			{
				"x": -2.6182856705,
				"y": 2.7842637718,
				"z": -0.8304039037,
				"element": "H" 
			},
			{
				"x": -1.9611326583,
				"y": 0.4187108102,
				"z": -0.5780889739,
				"element": "H" 
			},
			{
				"x": -1.5668939453,
				"y": -1.714625765,
				"z": 0.4729902365,
				"element": "H" 
			}
		],
		 "valence_orbital": [ 
			{
				"type": "occ",
				"energy": -0.28895,
				"method": "rhf"
			},
			{
				"type": "occ",
				"energy": -0.27477,
				"method": "rhf"
			},
			{
				"type": "occ",
				"energy": -0.26587,
				"method": "rhf"
			},
			{
				"type": "occ",
				"energy": -0.26442,
				"method": "rhf"
			},
			{
				"type": "occ",
				"energy": -0.24606,
				"method": "rhf"
			},
			{
				"type": "unocc",
				"energy": -0.05805,
				"method": "rhf"
			},
			{
				"type": "unocc",
				"energy": -0.03564,
				"method": "rhf"
			},
			{
				"type": "unocc",
				"energy": -0.01954,
				"method": "rhf"
			},
			{
				"type": "unocc",
				"energy": 0.00266,
				"method": "rhf"
			},
			{
				"type": "unocc",
				"energy": 0.0192,
				"method": "rhf"
			}
		],
		"cosmo_sigma_profile": { 
			"-0.025": 0.0,
			"-0.024": 0.0,
			"-0.023": 0.0,
			"-0.022": 0.0,
			"-0.021": 0.0,
			"-0.02": 0.0,
			"-0.019": 0.0,
			"-0.018": 0.0,
			"-0.017": 0.0,
			"-0.016": 0.0207953469088,
			"-0.015": 2.41555990126,
			"-0.014": 3.40197130935,
			"-0.013": 4.59185240688,
			"-0.012": 3.79343571874,
			"-0.011": 2.97107036278,
			"-0.01": 3.34564552911,
			"-0.009": 3.65257775686,
			"-0.008": 8.79504829086,
			"-0.007": 17.066962094,
			"-0.006": 18.9985588349,
			"-0.005": 15.139820652,
			"-0.004": 12.9650265615,
			"-0.003": 13.0781028068,
			"-0.002": 13.1205737446,
			"-0.001": 13.8603805575,
			"0.0": 13.9107260854,
			"0.001": 17.9990161544,
			"0.002": 20.7003994771,
			"0.003": 16.8778714388,
			"0.004": 12.2580691226,
			"0.005": 6.99555554753,
			"0.006": 6.15328220518,
			"0.007": 6.05520670624,
			"0.008": 5.96770128763,
			"0.009": 7.10485202007,
			"0.01": 6.52288426154,
			"0.011": 7.08131062521,
			"0.012": 8.33679926082,
			"0.013": 4.70506178793,
			"0.014": 5.40291813299,
			"0.015": 1.91278054966,
			"0.016": 0.0,
			"0.017": 0.0,
			"0.018": 0.0,
			"0.019": 0.0,
			"0.02": 0.0,
			"0.021": 0.0,
			"0.022": 0.0,
			"0.023": 0.0,
			"0.024": 0.0,
			"0.025": 0.0
		}
	}
}
