{
	 "smiles": "OC(=O)C1CC2=CC=CC=C2N1C(=O)OCC1=CC=CC=C1", 
	 "Tm": 377.15, 
	 "num_atms": 37, 
	 "gaussian": { 
		 "optdone": 1, 
		 "sigma_profile": "yes", 
		 "theory": "DFT", 
		 "functional": "B3LYP", 
		 "basiset": "6-31G**", 
		 "properties": { 
			 "R2extent": 7808.9279, 
			 "electric_dipole_moment_norm": 3.23811831933, 
			 "electric_quadrupole_moment_norm": 8.45635511553, 
			 "total_energy": -1012.53430721, 
			 "HOMO_LUMO_gap": 0.20314, 
			 "cosmo_polarized_energy": -17.21, 
			 "cosmo_cavitation_energy": 41.35, 
			 "cosmo_dispersion_energy": -28.31, 
			 "cosmo_repulsion_energy": 2.18, 
			 "cosmo_total_nonelectrostatic_energy": 15.22, 
			 "SMD_solvation_energy": 8.27 
		},
		"coords": [
			{
				"x": 2.8872303194,
				"y": -2.8149143892,
				"z": 0.5306133885,
				"element": "O" 
			},
			{
				"x": 1.7267292581,
				"y": -2.2217303025,
				"z": 0.1611598801,
				"element": "C" 
			},
			{
				"x": 1.6505803849,
				"y": -1.3883130073,
				"z": -0.7078042874,
				"element": "O" 
			},
			{
				"x": 0.5622044885,
				"y": -2.7908497643,
				"z": 0.9741482883,
				"element": "C" 
			},
			{
				"x": 0.1601515372,
				"y": -4.2093492417,
				"z": 0.4674519308,
				"element": "C" 
			},
			{
				"x": -1.0923065797,
				"y": -3.9436481095,
				"z": -0.3363983368,
				"element": "C" 
			},
			{
				"x": -1.8063700503,
				"y": -4.788293618,
				"z": -1.175791177,
				"element": "C" 
			},
			{
				"x": -2.9785224714,
				"y": -4.3167128897,
				"z": -1.779409342,
				"element": "C" 
			},
			{
				"x": -3.4184624455,
				"y": -3.014871016,
				"z": -1.5305622906,
				"element": "C" 
			},
			{
				"x": -2.7101238169,
				"y": -2.151525799,
				"z": -0.687406271,
				"element": "C" 
			},
			{
				"x": -1.5415545204,
				"y": -2.6372096149,
				"z": -0.1023753537,
				"element": "C" 
			},
			{
				"x": -0.6475299252,
				"y": -1.9836983005,
				"z": 0.7791389685,
				"element": "N" 
			},
			{
				"x": -0.7787983666,
				"y": -0.699216143,
				"z": 1.2426480842,
				"element": "C" 
			},
			{
				"x": -1.7206181917,
				"y": 0.0393066221,
				"z": 1.0086669795,
				"element": "O" 
			},
			{
				"x": 0.2803650246,
				"y": -0.3816730002,
				"z": 2.0322695969,
				"element": "O" 
			},
			{
				"x": 0.2838501736,
				"y": 0.958756439,
				"z": 2.5950850972,
				"element": "C" 
			},
			{
				"x": 1.1191559182,
				"y": 1.910417534,
				"z": 1.77564424,
				"element": "C" 
			},
			{
				"x": 0.6224201874,
				"y": 2.439587443,
				"z": 0.5754276578,
				"element": "C" 
			},
			{
				"x": 1.3985009106,
				"y": 3.316797045,
				"z": -0.1804764679,
				"element": "C" 
			},
			{
				"x": 2.6753535623,
				"y": 3.6808048316,
				"z": 0.2554362904,
				"element": "C" 
			},
			{
				"x": 3.1753519347,
				"y": 3.161291268,
				"z": 1.4500654434,
				"element": "C" 
			},
			{
				"x": 2.3998671361,
				"y": 2.2780293623,
				"z": 2.2034595843,
				"element": "C" 
			},
			{
				"x": 3.5805552122,
				"y": -2.4326508393,
				"z": -0.0333382397,
				"element": "H" 
			},
			{
				"x": 0.8590549123,
				"y": -2.8008363112,
				"z": 2.0236798955,
				"element": "H" 
			},
			{
				"x": 0.9640787969,
				"y": -4.6730694001,
				"z": -0.1107198624,
				"element": "H" 
			},
			{
				"x": -0.0454778133,
				"y": -4.8691723817,
				"z": 1.318645366,
				"element": "H" 
			},
			{
				"x": -1.4601278651,
				"y": -5.8016706243,
				"z": -1.3611981799,
				"element": "H" 
			},
			{
				"x": -3.5450117324,
				"y": -4.9648332989,
				"z": -2.4411049844,
				"element": "H" 
			},
			{
				"x": -4.3289091303,
				"y": -2.6563963967,
				"z": -2.0022827525,
				"element": "H" 
			},
			{
				"x": -3.0422813152,
				"y": -1.1414949658,
				"z": -0.4921224051,
				"element": "H" 
			},
			{
				"x": 0.7026920176,
				"y": 0.8348781125,
				"z": 3.5961889805,
				"element": "H" 
			},
			{
				"x": -0.7513461506,
				"y": 1.2967085786,
				"z": 2.6690419219,
				"element": "H" 
			},
			{
				"x": -0.3700686515,
				"y": 2.1530274939,
				"z": 0.2410746723,
				"element": "H" 
			},
			{
				"x": 1.005762645,
				"y": 3.7201339225,
				"z": -1.1094604266,
				"element": "H" 
			},
			{
				"x": 3.2764270048,
				"y": 4.368058077,
				"z": -0.3333295741,
				"element": "H" 
			},
			{
				"x": 4.1663766759,
				"y": 3.4421683557,
				"z": 1.7953600264,
				"element": "H" 
			},
			{
				"x": 2.7909009259,
				"y": 1.873164329,
				"z": 3.1340736588,
				"element": "H" 
			}
		],
		 "valence_orbital": [ 
			{
				"type": "occ",
				"energy": -0.27699,
				"method": "rhf"
			},
			{
				"type": "occ",
				"energy": -0.24806,
				"method": "rhf"
			},
			{
				"type": "occ",
				"energy": -0.2455,
				"method": "rhf"
			},
			{
				"type": "occ",
				"energy": -0.24498,
				"method": "rhf"
			},
			{
				"type": "occ",
				"energy": -0.21167,
				"method": "rhf"
			},
			{
				"type": "unocc",
				"energy": -0.00853,
				"method": "rhf"
			},
			{
				"type": "unocc",
				"energy": -0.00442,
				"method": "rhf"
			},
			{
				"type": "unocc",
				"energy": 0.0006,
				"method": "rhf"
			},
			{
				"type": "unocc",
				"energy": 0.00123,
				"method": "rhf"
			},
			{
				"type": "unocc",
				"energy": 0.00494,
				"method": "rhf"
			}
		],
		"cosmo_sigma_profile": { 
			"-0.025": 0.0,
			"-0.024": 0.0,
			"-0.023": 0.0,
			"-0.022": 0.0,
			"-0.021": 0.0,
			"-0.02": 0.0,
			"-0.019": 0.261850436894,
			"-0.018": 1.02491113815,
			"-0.017": 1.15079254176,
			"-0.016": 0.406487282193,
			"-0.015": 0.936072454643,
			"-0.014": 0.445582890358,
			"-0.013": 0.768363087887,
			"-0.012": 0.914826692305,
			"-0.011": 0.838422185853,
			"-0.01": 0.560467813177,
			"-0.009": 0.148682335996,
			"-0.008": 2.05164608663,
			"-0.007": 6.68585539765,
			"-0.006": 19.6396161847,
			"-0.005": 25.2022016079,
			"-0.004": 29.7113662184,
			"-0.003": 29.0750426179,
			"-0.002": 20.6860096494,
			"-0.001": 20.2907560028,
			"0.0": 17.0855094667,
			"0.001": 19.3043766316,
			"0.002": 19.5067593984,
			"0.003": 23.0085749541,
			"0.004": 24.3831830473,
			"0.005": 24.9483319692,
			"0.006": 15.3098433819,
			"0.007": 4.42433876218,
			"0.008": 4.14730653281,
			"0.009": 4.43580413906,
			"0.01": 4.41647359771,
			"0.011": 5.58613502031,
			"0.012": 2.60086062667,
			"0.013": 0.0333743992015,
			"0.014": 0.0,
			"0.015": 0.0,
			"0.016": 0.0,
			"0.017": 0.0,
			"0.018": 0.0,
			"0.019": 0.0,
			"0.02": 0.0,
			"0.021": 0.0,
			"0.022": 0.0,
			"0.023": 0.0,
			"0.024": 0.0,
			"0.025": 0.0
		}
	}
}
