{
	 "smiles": "FC1=C(CN2N=CC(Cl)=C(Cl)C2=O)C(Cl)=CC=C1", 
	 "Tm": 411.15, 
	 "num_atms": 24, 
	 "gaussian": { 
		 "optdone": 1, 
		 "sigma_profile": "yes", 
		 "theory": "DFT", 
		 "functional": "B3LYP", 
		 "basiset": "6-31G**", 
		 "properties": { 
			 "R2extent": 6500.6046, 
			 "electric_dipole_moment_norm": 4.27084648518, 
			 "electric_quadrupole_moment_norm": 7.53198997012, 
			 "total_energy": -2087.89075339, 
			 "HOMO_LUMO_gap": 0.1691, 
			 "cosmo_polarized_energy": -11.0, 
			 "cosmo_cavitation_energy": 34.98, 
			 "cosmo_dispersion_energy": -24.81, 
			 "cosmo_repulsion_energy": 1.9, 
			 "cosmo_total_nonelectrostatic_energy": 12.07, 
			 "SMD_solvation_energy": 5.58 
		},
		"coords": [
			{
				"x": 2.3313993042,
				"y": 0.6916369712,
				"z": 2.4001332513,
				"element": "F" 
			},
			{
				"x": 2.5293448708,
				"y": 0.8659434923,
				"z": 1.077257087,
				"element": "C" 
			},
			{
				"x": 1.4173370524,
				"y": 1.1377440444,
				"z": 0.2737166372,
				"element": "C" 
			},
			{
				"x": 0.0460828069,
				"y": 1.2382112127,
				"z": 0.8901084098,
				"element": "C" 
			},
			{
				"x": -0.7606404235,
				"y": 0.013986152,
				"z": 0.6856757697,
				"element": "N" 
			},
			{
				"x": -0.1382756427,
				"y": -1.1379168303,
				"z": 0.9607376335,
				"element": "N" 
			},
			{
				"x": -0.8006070202,
				"y": -2.2501725095,
				"z": 0.8183599069,
				"element": "C" 
			},
			{
				"x": -2.1610492091,
				"y": -2.2917803183,
				"z": 0.3821000412,
				"element": "C" 
			},
			{
				"x": -2.9146047129,
				"y": -3.8481089728,
				"z": 0.2197768312,
				"element": "Cl" 
			},
			{
				"x": -2.8059226202,
				"y": -1.1179726437,
				"z": 0.115580467,
				"element": "C" 
			},
			{
				"x": -4.4416033875,
				"y": -1.0276861746,
				"z": -0.4116073186,
				"element": "Cl" 
			},
			{
				"x": -2.1076801994,
				"y": 0.1647136925,
				"z": 0.2905625388,
				"element": "C" 
			},
			{
				"x": -2.6097984858,
				"y": 1.265160233,
				"z": 0.1211350041,
				"element": "O" 
			},
			{
				"x": 1.6720138006,
				"y": 1.3113910478,
				"z": -1.0953730211,
				"element": "C" 
			},
			{
				"x": 0.3385261796,
				"y": 1.6445532699,
				"z": -2.1873744276,
				"element": "Cl" 
			},
			{
				"x": 2.9583419796,
				"y": 1.2264690509,
				"z": -1.6277955503,
				"element": "C" 
			},
			{
				"x": 4.0316796309,
				"y": 0.9586664422,
				"z": -0.7782979688,
				"element": "C" 
			},
			{
				"x": 3.8254983835,
				"y": 0.776058688,
				"z": 0.587876032,
				"element": "C" 
			},
			{
				"x": -0.5360894213,
				"y": 2.0491945757,
				"z": 0.4544616679,
				"element": "H" 
			},
			{
				"x": 0.1376671601,
				"y": 1.4086493164,
				"z": 1.9646913003,
				"element": "H" 
			},
			{
				"x": -0.2692163458,
				"y": -3.1671292995,
				"z": 1.047149558,
				"element": "H" 
			},
			{
				"x": 3.1097017038,
				"y": 1.3694805649,
				"z": -2.6912175655,
				"element": "H" 
			},
			{
				"x": 5.0352885213,
				"y": 0.8926021491,
				"z": -1.1863401389,
				"element": "H" 
			},
			{
				"x": 4.6392060747,
				"y": 0.5651058458,
				"z": 1.2721838549,
				"element": "H" 
			}
		],
		 "valence_orbital": [ 
			{
				"type": "occ",
				"energy": -0.29249,
				"method": "rhf"
			},
			{
				"type": "occ",
				"energy": -0.27538,
				"method": "rhf"
			},
			{
				"type": "occ",
				"energy": -0.26537,
				"method": "rhf"
			},
			{
				"type": "occ",
				"energy": -0.25768,
				"method": "rhf"
			},
			{
				"type": "occ",
				"energy": -0.24846,
				"method": "rhf"
			},
			{
				"type": "unocc",
				"energy": -0.07936,
				"method": "rhf"
			},
			{
				"type": "unocc",
				"energy": -0.03634,
				"method": "rhf"
			},
			{
				"type": "unocc",
				"energy": -0.02073,
				"method": "rhf"
			},
			{
				"type": "unocc",
				"energy": -0.01595,
				"method": "rhf"
			},
			{
				"type": "unocc",
				"energy": -0.00968,
				"method": "rhf"
			}
		],
		"cosmo_sigma_profile": { 
			"-0.025": 0.0,
			"-0.024": 0.0,
			"-0.023": 0.0,
			"-0.022": 0.0,
			"-0.021": 0.0,
			"-0.02": 0.0,
			"-0.019": 0.0,
			"-0.018": 0.0,
			"-0.017": 0.0,
			"-0.016": 0.0,
			"-0.015": 0.0,
			"-0.014": 0.0,
			"-0.013": 0.0,
			"-0.012": 0.0,
			"-0.011": 0.0,
			"-0.01": 1.21652968594,
			"-0.009": 1.57619692272,
			"-0.008": 4.8067429425,
			"-0.007": 10.510366688,
			"-0.006": 13.0442078099,
			"-0.005": 14.911622717,
			"-0.004": 18.1199043319,
			"-0.003": 21.7866298065,
			"-0.002": 20.17954386,
			"-0.001": 20.4426077596,
			"0.0": 24.8265757455,
			"0.001": 26.9805349109,
			"0.002": 34.1130254568,
			"0.003": 30.9407970052,
			"0.004": 17.3584874144,
			"0.005": 5.35990916896,
			"0.006": 4.58666478251,
			"0.007": 3.39164962024,
			"0.008": 2.54091505071,
			"0.009": 1.81028314695,
			"0.01": 2.07672580124,
			"0.011": 2.52575343808,
			"0.012": 4.41621661124,
			"0.013": 1.50146783697,
			"0.014": 0.00169930528559,
			"0.015": 0.0,
			"0.016": 0.0,
			"0.017": 0.0,
			"0.018": 0.0,
			"0.019": 0.0,
			"0.02": 0.0,
			"0.021": 0.0,
			"0.022": 0.0,
			"0.023": 0.0,
			"0.024": 0.0,
			"0.025": 0.0
		}
	}
}
