{
	 "smiles": "CC1=C(F)C(F)=C(F)C(F)=C1F", 
	 "Tm": 243.25, 
	 "num_atms": 15, 
	 "gaussian": { 
		 "optdone": 1, 
		 "sigma_profile": "yes", 
		 "theory": "DFT", 
		 "functional": "B3LYP", 
		 "basiset": "6-31G**", 
		 "properties": { 
			 "R2extent": 1907.2995, 
			 "electric_dipole_moment_norm": 1.8834662195, 
			 "electric_quadrupole_moment_norm": 6.22577037081, 
			 "total_energy": -767.696607235, 
			 "HOMO_LUMO_gap": 0.23135, 
			 "cosmo_polarized_energy": -2.66, 
			 "cosmo_cavitation_energy": 22.12, 
			 "cosmo_dispersion_energy": -15.59, 
			 "cosmo_repulsion_energy": 1.14, 
			 "cosmo_total_nonelectrostatic_energy": 7.67, 
			 "SMD_solvation_energy": 6.38 
		},
		"coords": [
			{
				"x": -2.901455806,
				"y": -0.1923042929,
				"z": -0.7295305781,
				"element": "C" 
			},
			{
				"x": -1.4390883945,
				"y": -0.0593830183,
				"z": -0.3936686635,
				"element": "C" 
			},
			{
				"x": -0.5030007949,
				"y": 0.3480964172,
				"z": -1.3455285715,
				"element": "C" 
			},
			{
				"x": -0.9098329545,
				"y": 0.6423226672,
				"z": -2.592424995,
				"element": "F" 
			},
			{
				"x": 0.8531338075,
				"y": 0.4704277894,
				"z": -1.0520457188,
				"element": "C" 
			},
			{
				"x": 1.719934228,
				"y": 0.8673480464,
				"z": -1.9910745221,
				"element": "F" 
			},
			{
				"x": 1.30527651,
				"y": 0.1755649659,
				"z": 0.232082075,
				"element": "C" 
			},
			{
				"x": 2.6036014873,
				"y": 0.2871081521,
				"z": 0.5282280179,
				"element": "F" 
			},
			{
				"x": 0.3985634923,
				"y": -0.2350735779,
				"z": 1.2065467079,
				"element": "C" 
			},
			{
				"x": 0.827625015,
				"y": -0.5174040653,
				"z": 2.4422098924,
				"element": "F" 
			},
			{
				"x": -0.9513137473,
				"y": -0.3477223379,
				"z": 0.88197614,
				"element": "C" 
			},
			{
				"x": -1.80270257,
				"y": -0.7434928012,
				"z": 1.8439148422,
				"element": "F" 
			},
			{
				"x": -3.1316516634,
				"y": -1.2009562071,
				"z": -1.091255763,
				"element": "H" 
			},
			{
				"x": -3.5163982241,
				"y": -0.0084895717,
				"z": 0.1532768648,
				"element": "H" 
			},
			{
				"x": -3.1807903854,
				"y": 0.5129578341,
				"z": -1.5143057282,
				"element": "H" 
			}
		],
		 "valence_orbital": [ 
			{
				"type": "occ",
				"energy": -0.38894,
				"method": "rhf"
			},
			{
				"type": "occ",
				"energy": -0.37885,
				"method": "rhf"
			},
			{
				"type": "occ",
				"energy": -0.34667,
				"method": "rhf"
			},
			{
				"type": "occ",
				"energy": -0.2605,
				"method": "rhf"
			},
			{
				"type": "occ",
				"energy": -0.25473,
				"method": "rhf"
			},
			{
				"type": "unocc",
				"energy": -0.02338,
				"method": "rhf"
			},
			{
				"type": "unocc",
				"energy": -0.01471,
				"method": "rhf"
			},
			{
				"type": "unocc",
				"energy": 0.01375,
				"method": "rhf"
			},
			{
				"type": "unocc",
				"energy": 0.10487,
				"method": "rhf"
			},
			{
				"type": "unocc",
				"energy": 0.10782,
				"method": "rhf"
			}
		],
		"cosmo_sigma_profile": { 
			"-0.025": 0.0,
			"-0.024": 0.0,
			"-0.023": 0.0,
			"-0.022": 0.0,
			"-0.021": 0.0,
			"-0.02": 0.0,
			"-0.019": 0.0,
			"-0.018": 0.0,
			"-0.017": 0.0,
			"-0.016": 0.0,
			"-0.015": 0.0,
			"-0.014": 0.0,
			"-0.013": 0.0,
			"-0.012": 0.0,
			"-0.011": 0.0,
			"-0.01": 0.0,
			"-0.009": 0.0,
			"-0.008": 0.0,
			"-0.007": 0.0,
			"-0.006": 1.53589033095,
			"-0.005": 5.21911109868,
			"-0.004": 7.40748148665,
			"-0.003": 23.8155590249,
			"-0.002": 26.6841093709,
			"-0.001": 19.4391745554,
			"0.0": 11.8587757907,
			"0.001": 9.01395765475,
			"0.002": 25.7629131762,
			"0.003": 44.6183390478,
			"0.004": 3.55252499009,
			"0.005": 0.0,
			"0.006": 0.0,
			"0.007": 0.0,
			"0.008": 0.0,
			"0.009": 0.0,
			"0.01": 0.0,
			"0.011": 0.0,
			"0.012": 0.0,
			"0.013": 0.0,
			"0.014": 0.0,
			"0.015": 0.0,
			"0.016": 0.0,
			"0.017": 0.0,
			"0.018": 0.0,
			"0.019": 0.0,
			"0.02": 0.0,
			"0.021": 0.0,
			"0.022": 0.0,
			"0.023": 0.0,
			"0.024": 0.0,
			"0.025": 0.0
		}
	}
}
