{
	 "smiles": "FC1=C(F)C(F)=C(C(=O)N2C=CN=C2)C(F)=C1F", 
	 "Tm": 329.15, 
	 "num_atms": 21, 
	 "gaussian": { 
		 "optdone": 1, 
		 "sigma_profile": "yes", 
		 "theory": "DFT", 
		 "functional": "B3LYP", 
		 "basiset": "6-31G**", 
		 "properties": { 
			 "R2extent": 5012.7674, 
			 "electric_dipole_moment_norm": 0.765403331584, 
			 "electric_quadrupole_moment_norm": 10.1447952853, 
			 "total_energy": -1066.71529048, 
			 "HOMO_LUMO_gap": 0.17431, 
			 "cosmo_polarized_energy": -10.27, 
			 "cosmo_cavitation_energy": 29.88, 
			 "cosmo_dispersion_energy": -20.43, 
			 "cosmo_repulsion_energy": 1.45, 
			 "cosmo_total_nonelectrostatic_energy": 10.9, 
			 "SMD_solvation_energy": 7.26 
		},
		"coords": [
			{
				"x": 1.6316987985,
				"y": 0.3499658657,
				"z": 4.6153621493,
				"element": "F" 
			},
			{
				"x": 1.5775621,
				"y": 0.2978377761,
				"z": 3.2859450432,
				"element": "C" 
			},
			{
				"x": 0.7868529785,
				"y": 1.2078195118,
				"z": 2.5864185767,
				"element": "C" 
			},
			{
				"x": 0.0948594178,
				"y": 2.1383301947,
				"z": 3.2474168468,
				"element": "F" 
			},
			{
				"x": 0.7351580273,
				"y": 1.1407603029,
				"z": 1.1967253811,
				"element": "C" 
			},
			{
				"x": -0.0179019936,
				"y": 2.0358619804,
				"z": 0.5438964962,
				"element": "F" 
			},
			{
				"x": 1.4560372709,
				"y": 0.1789829493,
				"z": 0.483869011,
				"element": "C" 
			},
			{
				"x": 1.5172281067,
				"y": 0.1740634361,
				"z": -1.020092875,
				"element": "C" 
			},
			{
				"x": 2.5642514318,
				"y": 0.2952102612,
				"z": -1.6175555668,
				"element": "O" 
			},
			{
				"x": 0.2999384181,
				"y": 0.0145496164,
				"z": -1.6989533743,
				"element": "N" 
			},
			{
				"x": 0.1561894342,
				"y": 0.0886527483,
				"z": -3.0859364519,
				"element": "C" 
			},
			{
				"x": -1.1600426952,
				"y": -0.1618471179,
				"z": -3.326253847,
				"element": "C" 
			},
			{
				"x": -1.8496255816,
				"y": -0.40165826,
				"z": -2.1409903982,
				"element": "N" 
			},
			{
				"x": -0.9634741487,
				"y": -0.2904340368,
				"z": -1.1950418081,
				"element": "C" 
			},
			{
				"x": 2.2520722027,
				"y": -0.7148777422,
				"z": 1.2079458457,
				"element": "C" 
			},
			{
				"x": 2.9536980511,
				"y": -1.6559630759,
				"z": 0.5731668267,
				"element": "F" 
			},
			{
				"x": 2.3085262875,
				"y": -0.6703219707,
				"z": 2.5980092754,
				"element": "C" 
			},
			{
				"x": 3.0546167494,
				"y": -1.5456377541,
				"z": 3.2747541535,
				"element": "F" 
			},
			{
				"x": 1.0008261715,
				"y": 0.3096387078,
				"z": -3.7168355088,
				"element": "H" 
			},
			{
				"x": -1.6678403237,
				"y": -0.1882563354,
				"z": -4.2799037029,
				"element": "H" 
			},
			{
				"x": -1.140630703,
				"y": -0.4279770577,
				"z": -0.1389460726,
				"element": "H" 
			}
		],
		 "valence_orbital": [ 
			{
				"type": "occ",
				"energy": -0.30403,
				"method": "rhf"
			},
			{
				"type": "occ",
				"energy": -0.29044,
				"method": "rhf"
			},
			{
				"type": "occ",
				"energy": -0.28238,
				"method": "rhf"
			},
			{
				"type": "occ",
				"energy": -0.27689,
				"method": "rhf"
			},
			{
				"type": "occ",
				"energy": -0.25433,
				"method": "rhf"
			},
			{
				"type": "unocc",
				"energy": -0.08002,
				"method": "rhf"
			},
			{
				"type": "unocc",
				"energy": -0.0394,
				"method": "rhf"
			},
			{
				"type": "unocc",
				"energy": -0.03747,
				"method": "rhf"
			},
			{
				"type": "unocc",
				"energy": -0.0057,
				"method": "rhf"
			},
			{
				"type": "unocc",
				"energy": 0.03346,
				"method": "rhf"
			}
		],
		"cosmo_sigma_profile": { 
			"-0.025": 0.0,
			"-0.024": 0.0,
			"-0.023": 0.0,
			"-0.022": 0.0,
			"-0.021": 0.0,
			"-0.02": 0.0,
			"-0.019": 0.0,
			"-0.018": 0.0,
			"-0.017": 0.0,
			"-0.016": 0.0,
			"-0.015": 0.0,
			"-0.014": 0.0,
			"-0.013": 0.0,
			"-0.012": 0.0,
			"-0.011": 0.604714548164,
			"-0.01": 2.18152367975,
			"-0.009": 3.16923617155,
			"-0.008": 5.29609755571,
			"-0.007": 7.46891464457,
			"-0.006": 7.41628523462,
			"-0.005": 19.8200131535,
			"-0.004": 17.6623451032,
			"-0.003": 12.8943965694,
			"-0.002": 13.9266781623,
			"-0.001": 14.9605329643,
			"0.0": 13.7720243009,
			"0.001": 25.2851790824,
			"0.002": 52.3924645267,
			"0.003": 13.2828598268,
			"0.004": 4.01384948323,
			"0.005": 3.5929873853,
			"0.006": 3.91778523147,
			"0.007": 3.37004995447,
			"0.008": 3.72304402967,
			"0.009": 4.79368580442,
			"0.01": 3.51554754595,
			"0.011": 1.38451503612,
			"0.012": 1.03276943147,
			"0.013": 0.966371671458,
			"0.014": 1.08691437706,
			"0.015": 1.16201318919,
			"0.016": 0.823431750095,
			"0.017": 0.0472402542482,
			"0.018": 0.0,
			"0.019": 0.0,
			"0.02": 0.0,
			"0.021": 0.0,
			"0.022": 0.0,
			"0.023": 0.0,
			"0.024": 0.0,
			"0.025": 0.0
		}
	}
}
