{
	 "smiles": "NC(=O)C1=C(Cl)C=C(F)C=C1", 
	 "Tm": 426.15, 
	 "num_atms": 16, 
	 "gaussian": { 
		 "optdone": 1, 
		 "sigma_profile": "yes", 
		 "theory": "DFT", 
		 "functional": "B3LYP", 
		 "basiset": "6-31G**", 
		 "properties": { 
			 "R2extent": 2547.0209, 
			 "electric_dipole_moment_norm": 1.98531573559, 
			 "electric_quadrupole_moment_norm": 11.762773485, 
			 "total_energy": -959.773694792, 
			 "HOMO_LUMO_gap": 0.21134, 
			 "cosmo_polarized_energy": -9.89, 
			 "cosmo_cavitation_energy": 22.61, 
			 "cosmo_dispersion_energy": -17.03, 
			 "cosmo_repulsion_energy": 1.34, 
			 "cosmo_total_nonelectrostatic_energy": 6.92, 
			 "SMD_solvation_energy": 4.89 
		},
		"coords": [
			{
				"x": -2.4969795387,
				"y": -1.7897987316,
				"z": -0.0208490499,
				"element": "N" 
			},
			{
				"x": -2.2415215651,
				"y": -0.4556589129,
				"z": 0.0136594688,
				"element": "C" 
			},
			{
				"x": -2.9869727556,
				"y": 0.3504647354,
				"z": -0.5348913685,
				"element": "O" 
			},
			{
				"x": -0.9798059399,
				"y": 0.0374767898,
				"z": 0.7013060035,
				"element": "C" 
			},
			{
				"x": -0.1331929454,
				"y": -0.6202944388,
				"z": 1.6120914294,
				"element": "C" 
			},
			{
				"x": -0.4166950681,
				"y": -2.2674694785,
				"z": 2.1943877461,
				"element": "Cl" 
			},
			{
				"x": 0.993981107,
				"y": 0.0000994562,
				"z": 2.1522757742,
				"element": "C" 
			},
			{
				"x": 1.2844707931,
				"y": 1.303402546,
				"z": 1.773440326,
				"element": "C" 
			},
			{
				"x": 2.3734416279,
				"y": 1.8956792506,
				"z": 2.292217089,
				"element": "F" 
			},
			{
				"x": 0.4795588596,
				"y": 2.0044577192,
				"z": 0.8834481983,
				"element": "C" 
			},
			{
				"x": -0.6377711327,
				"y": 1.3619961724,
				"z": 0.3692288735,
				"element": "C" 
			},
			{
				"x": -3.3504526542,
				"y": -2.0687819153,
				"z": -0.4800307221,
				"element": "H" 
			},
			{
				"x": -1.9328083028,
				"y": -2.4774130593,
				"z": 0.4493117536,
				"element": "H" 
			},
			{
				"x": 1.6330148005,
				"y": -0.5154542383,
				"z": 2.8582546483,
				"element": "H" 
			},
			{
				"x": 0.7293073284,
				"y": 3.0236141535,
				"z": 0.611308303,
				"element": "H" 
			},
			{
				"x": -1.3050746138,
				"y": 1.8714799516,
				"z": -0.3164584733,
				"element": "H" 
			}
		],
		 "valence_orbital": [ 
			{
				"type": "occ",
				"energy": -0.33719,
				"method": "rhf"
			},
			{
				"type": "occ",
				"energy": -0.274,
				"method": "rhf"
			},
			{
				"type": "occ",
				"energy": -0.26914,
				"method": "rhf"
			},
			{
				"type": "occ",
				"energy": -0.2642,
				"method": "rhf"
			},
			{
				"type": "occ",
				"energy": -0.25754,
				"method": "rhf"
			},
			{
				"type": "unocc",
				"energy": -0.0462,
				"method": "rhf"
			},
			{
				"type": "unocc",
				"energy": -0.03031,
				"method": "rhf"
			},
			{
				"type": "unocc",
				"energy": 0.00405,
				"method": "rhf"
			},
			{
				"type": "unocc",
				"energy": 0.05671,
				"method": "rhf"
			},
			{
				"type": "unocc",
				"energy": 0.09357,
				"method": "rhf"
			}
		],
		"cosmo_sigma_profile": { 
			"-0.025": 0.0,
			"-0.024": 0.0,
			"-0.023": 0.0,
			"-0.022": 0.0,
			"-0.021": 0.0,
			"-0.02": 0.0,
			"-0.019": 0.0,
			"-0.018": 0.0,
			"-0.017": 0.0,
			"-0.016": 0.0,
			"-0.015": 0.0226334707422,
			"-0.014": 1.02920857378,
			"-0.013": 1.14376267461,
			"-0.012": 1.5836527221,
			"-0.011": 1.38707639575,
			"-0.01": 2.24801415292,
			"-0.009": 2.49100453629,
			"-0.008": 5.70612134586,
			"-0.007": 5.14671748823,
			"-0.006": 5.78887079085,
			"-0.005": 6.65459922351,
			"-0.004": 7.32850356525,
			"-0.003": 8.8891001713,
			"-0.002": 10.1472808392,
			"-0.001": 17.7517101224,
			"0.0": 22.0913515624,
			"0.001": 22.144562435,
			"0.002": 16.1017639153,
			"0.003": 16.9198295884,
			"0.004": 9.51458165862,
			"0.005": 2.240244748,
			"0.006": 1.10097115217,
			"0.007": 1.70901644913,
			"0.008": 1.62486768169,
			"0.009": 0.623421500613,
			"0.01": 1.12820972855,
			"0.011": 1.64883875074,
			"0.012": 2.4571690357,
			"0.013": 4.42059188678,
			"0.014": 2.83446623485,
			"0.015": 0.170070546169,
			"0.016": 0.0,
			"0.017": 0.0,
			"0.018": 0.0,
			"0.019": 0.0,
			"0.02": 0.0,
			"0.021": 0.0,
			"0.022": 0.0,
			"0.023": 0.0,
			"0.024": 0.0,
			"0.025": 0.0
		}
	}
}
