{
	 "smiles": "OC(=O)CSC1=NC=CC=N1", 
	 "Tm": 475.15, 
	 "num_atms": 17, 
	 "gaussian": { 
		 "optdone": 1, 
		 "sigma_profile": "yes", 
		 "theory": "DFT", 
		 "functional": "B3LYP", 
		 "basiset": "6-31G**", 
		 "properties": { 
			 "R2extent": 3119.7167, 
			 "electric_dipole_moment_norm": 6.94649278557, 
			 "electric_quadrupole_moment_norm": 22.9162864212, 
			 "total_energy": -890.395789682, 
			 "HOMO_LUMO_gap": 0.1725, 
			 "cosmo_polarized_energy": -15.99, 
			 "cosmo_cavitation_energy": 23.22, 
			 "cosmo_dispersion_energy": -17.78, 
			 "cosmo_repulsion_energy": 1.37, 
			 "cosmo_total_nonelectrostatic_energy": 6.82, 
			 "SMD_solvation_energy": 3.44 
		},
		"coords": [
			{
				"x": -1.5426245185,
				"y": 0.208454837,
				"z": -3.3122656268,
				"element": "O" 
			},
			{
				"x": -0.7431621681,
				"y": 1.0075556934,
				"z": -4.0304180899,
				"element": "C" 
			},
			{
				"x": -0.6384918952,
				"y": 0.9140614832,
				"z": -5.230192086,
				"element": "O" 
			},
			{
				"x": 0.0092894431,
				"y": 2.0813771564,
				"z": -3.233873673,
				"element": "C" 
			},
			{
				"x": 1.3454913931,
				"y": 1.474491566,
				"z": -2.1238406943,
				"element": "S" 
			},
			{
				"x": 0.4683790458,
				"y": 0.9637613607,
				"z": -0.6741584884,
				"element": "C" 
			},
			{
				"x": -0.8655906724,
				"y": 0.8125139242,
				"z": -0.7062858106,
				"element": "N" 
			},
			{
				"x": -1.4585536362,
				"y": 0.452505641,
				"z": 0.4432036582,
				"element": "C" 
			},
			{
				"x": -0.7359230163,
				"y": 0.2224185114,
				"z": 1.6059388085,
				"element": "C" 
			},
			{
				"x": 0.6511832811,
				"y": 0.3690668461,
				"z": 1.5096982314,
				"element": "C" 
			},
			{
				"x": 1.2595173215,
				"y": 0.7451923511,
				"z": 0.3853245501,
				"element": "N" 
			},
			{
				"x": -1.4723389634,
				"y": 0.4405869458,
				"z": -2.3525085774,
				"element": "H" 
			},
			{
				"x": 0.5235703132,
				"y": 2.7241711874,
				"z": -3.9489245098,
				"element": "H" 
			},
			{
				"x": -0.6824235951,
				"y": 2.684987722,
				"z": -2.6390400229,
				"element": "H" 
			},
			{
				"x": -2.5393110381,
				"y": 0.3372227377,
				"z": 0.4091388178,
				"element": "H" 
			},
			{
				"x": -1.2190930255,
				"y": -0.0705480684,
				"z": 2.5302372641,
				"element": "H" 
			},
			{
				"x": 1.2967817308,
				"y": 0.1820801051,
				"z": 2.3657662489,
				"element": "H" 
			}
		],
		 "valence_orbital": [ 
			{
				"type": "occ",
				"energy": -0.32937,
				"method": "rhf"
			},
			{
				"type": "occ",
				"energy": -0.29993,
				"method": "rhf"
			},
			{
				"type": "occ",
				"energy": -0.28847,
				"method": "rhf"
			},
			{
				"type": "occ",
				"energy": -0.27122,
				"method": "rhf"
			},
			{
				"type": "occ",
				"energy": -0.24612,
				"method": "rhf"
			},
			{
				"type": "unocc",
				"energy": -0.07362,
				"method": "rhf"
			},
			{
				"type": "unocc",
				"energy": -0.05501,
				"method": "rhf"
			},
			{
				"type": "unocc",
				"energy": -0.00583,
				"method": "rhf"
			},
			{
				"type": "unocc",
				"energy": 0.03439,
				"method": "rhf"
			},
			{
				"type": "unocc",
				"energy": 0.06902,
				"method": "rhf"
			}
		],
		"cosmo_sigma_profile": { 
			"-0.025": 0.0,
			"-0.024": 0.0,
			"-0.023": 0.0,
			"-0.022": 0.0,
			"-0.021": 0.0,
			"-0.02": 0.0,
			"-0.019": 0.0,
			"-0.018": 0.0,
			"-0.017": 0.0,
			"-0.016": 0.0,
			"-0.015": 0.0,
			"-0.014": 0.0,
			"-0.013": 0.0,
			"-0.012": 0.0,
			"-0.011": 0.0,
			"-0.01": 0.211855534125,
			"-0.009": 5.95351820008,
			"-0.008": 12.5756598467,
			"-0.007": 12.2869008993,
			"-0.006": 11.67908452,
			"-0.005": 9.70431998657,
			"-0.004": 10.958988225,
			"-0.003": 12.7896675514,
			"-0.002": 13.8369786698,
			"-0.001": 14.7018244107,
			"0.0": 9.86092324967,
			"0.001": 6.91627590216,
			"0.002": 7.06226293424,
			"0.003": 8.42642561123,
			"0.004": 6.15456082672,
			"0.005": 7.01903318717,
			"0.006": 4.8914189734,
			"0.007": 3.92756764891,
			"0.008": 3.59613447597,
			"0.009": 4.15790024986,
			"0.01": 4.84237666851,
			"0.011": 7.15625114534,
			"0.012": 6.63428619352,
			"0.013": 3.37667931245,
			"0.014": 0.210836350196,
			"0.015": 0.0,
			"0.016": 0.0,
			"0.017": 0.0,
			"0.018": 0.0,
			"0.019": 0.0,
			"0.02": 0.0,
			"0.021": 0.0,
			"0.022": 0.0,
			"0.023": 0.0,
			"0.024": 0.0,
			"0.025": 0.0
		}
	}
}
