{
	 "smiles": "COC1=CC2=C(N=CC(C(O)=O)=C2O)C(OC)=C1", 
	 "Tm": 573.15, 
	 "num_atms": 29, 
	 "gaussian": { 
		 "optdone": 1, 
		 "sigma_profile": "yes", 
		 "theory": "DFT", 
		 "functional": "B3LYP", 
		 "basiset": "6-31G**", 
		 "properties": { 
			 "R2extent": 5890.2727, 
			 "electric_dipole_moment_norm": 1.65370109451, 
			 "electric_quadrupole_moment_norm": 25.85385763, 
			 "total_energy": -894.775742825, 
			 "HOMO_LUMO_gap": 0.15044, 
			 "cosmo_polarized_energy": -16.22, 
			 "cosmo_cavitation_energy": 33.01, 
			 "cosmo_dispersion_energy": -24.79, 
			 "cosmo_repulsion_energy": 1.88, 
			 "cosmo_total_nonelectrostatic_energy": 10.1, 
			 "SMD_solvation_energy": 7.8 
		},
		"coords": [
			{
				"x": 3.2522473818,
				"y": -0.1471057111,
				"z": 2.8448859048,
				"element": "C" 
			},
			{
				"x": 2.4380684153,
				"y": -1.0924240052,
				"z": 2.1640212975,
				"element": "O" 
			},
			{
				"x": 1.7189797171,
				"y": -0.6617663482,
				"z": 1.0935223047,
				"element": "C" 
			},
			{
				"x": 1.71532031,
				"y": 0.6336347271,
				"z": 0.6070038809,
				"element": "C" 
			},
			{
				"x": 0.9094543623,
				"y": 0.9389299125,
				"z": -0.5147541006,
				"element": "C" 
			},
			{
				"x": 0.1082514963,
				"y": -0.048915352,
				"z": -1.1582486664,
				"element": "C" 
			},
			{
				"x": -0.708649329,
				"y": 0.2265535271,
				"z": -2.222579039,
				"element": "N" 
			},
			{
				"x": -0.7396425679,
				"y": 1.4578285588,
				"z": -2.6650305335,
				"element": "C" 
			},
			{
				"x": 0.0097627907,
				"y": 2.5419741128,
				"z": -2.1299190616,
				"element": "C" 
			},
			{
				"x": -0.0408799669,
				"y": 3.9199494423,
				"z": -2.6421031047,
				"element": "C" 
			},
			{
				"x": -0.850831913,
				"y": 4.2191012527,
				"z": -3.6745672141,
				"element": "O" 
			},
			{
				"x": 0.6354603422,
				"y": 4.8285127782,
				"z": -2.1604520623,
				"element": "O" 
			},
			{
				"x": 0.8525460752,
				"y": 2.269883219,
				"z": -1.0369765109,
				"element": "C" 
			},
			{
				"x": 1.6006272828,
				"y": 3.2023979112,
				"z": -0.4577110986,
				"element": "O" 
			},
			{
				"x": 0.155072605,
				"y": -1.3831796375,
				"z": -0.6350782572,
				"element": "C" 
			},
			{
				"x": -0.6151952904,
				"y": -2.3950370088,
				"z": -1.1276665478,
				"element": "O" 
			},
			{
				"x": -0.4532194741,
				"y": -2.7538097744,
				"z": -2.5062127773,
				"element": "C" 
			},
			{
				"x": 0.9419740819,
				"y": -1.6636961749,
				"z": 0.4624668934,
				"element": "C" 
			},
			{
				"x": 3.7338085778,
				"y": -0.6944870603,
				"z": 3.6561064645,
				"element": "H" 
			},
			{
				"x": 2.652865019,
				"y": 0.6709984106,
				"z": 3.2631810344,
				"element": "H" 
			},
			{
				"x": 4.0197639928,
				"y": 0.2723047031,
				"z": 2.1825587624,
				"element": "H" 
			},
			{
				"x": 2.2971457946,
				"y": 1.4259158676,
				"z": 1.0569701711,
				"element": "H" 
			},
			{
				"x": -1.4066257456,
				"y": 1.6223620543,
				"z": -3.5155714649,
				"element": "H" 
			},
			{
				"x": -1.34735907,
				"y": 3.4424698774,
				"z": -3.967009265,
				"element": "H" 
			},
			{
				"x": 1.4243453406,
				"y": 4.0501218166,
				"z": -0.9577796499,
				"element": "H" 
			},
			{
				"x": -1.0802884156,
				"y": -3.6348817756,
				"z": -2.6557711655,
				"element": "H" 
			},
			{
				"x": -0.774125291,
				"y": -1.945859661,
				"z": -3.1654596055,
				"element": "H" 
			},
			{
				"x": 0.5914950468,
				"y": -3.0172646365,
				"z": -2.715582657,
				"element": "H" 
			},
			{
				"x": 0.9623284313,
				"y": -2.6734110256,
				"z": 0.8565560681,
				"element": "H" 
			}
		],
		 "valence_orbital": [ 
			{
				"type": "occ",
				"energy": -0.29365,
				"method": "rhf"
			},
			{
				"type": "occ",
				"energy": -0.27201,
				"method": "rhf"
			},
			{
				"type": "occ",
				"energy": -0.26207,
				"method": "rhf"
			},
			{
				"type": "occ",
				"energy": -0.24612,
				"method": "rhf"
			},
			{
				"type": "occ",
				"energy": -0.217,
				"method": "rhf"
			},
			{
				"type": "unocc",
				"energy": -0.06656,
				"method": "rhf"
			},
			{
				"type": "unocc",
				"energy": -0.0396,
				"method": "rhf"
			},
			{
				"type": "unocc",
				"energy": 0.01717,
				"method": "rhf"
			},
			{
				"type": "unocc",
				"energy": 0.02844,
				"method": "rhf"
			},
			{
				"type": "unocc",
				"energy": 0.04196,
				"method": "rhf"
			}
		],
		"cosmo_sigma_profile": { 
			"-0.025": 0.0,
			"-0.024": 0.0,
			"-0.023": 0.0,
			"-0.022": 0.0,
			"-0.021": 0.0,
			"-0.02": 0.36151396086,
			"-0.019": 1.30228354812,
			"-0.018": 1.06046235427,
			"-0.017": 1.11778351644,
			"-0.016": 0.481849888404,
			"-0.015": 1.21446515362,
			"-0.014": 1.27827355853,
			"-0.013": 1.08058194914,
			"-0.012": 1.19907370662,
			"-0.011": 0.933491195763,
			"-0.01": 1.08133911769,
			"-0.009": 1.36886224663,
			"-0.008": 1.86504581759,
			"-0.007": 3.12559860557,
			"-0.006": 11.1680011746,
			"-0.005": 18.9203673663,
			"-0.004": 21.4428621804,
			"-0.003": 22.6741257008,
			"-0.002": 18.5640734239,
			"-0.001": 18.0589110832,
			"0.0": 16.4589998548,
			"0.001": 18.3603856878,
			"0.002": 23.3571003892,
			"0.003": 13.3459244266,
			"0.004": 9.32345450044,
			"0.005": 9.12733436163,
			"0.006": 8.33846021941,
			"0.007": 6.6245675806,
			"0.008": 8.49609356936,
			"0.009": 8.18641728948,
			"0.01": 6.94302675191,
			"0.011": 4.95155751175,
			"0.012": 2.28034277282,
			"0.013": 0.188031193791,
			"0.014": 0.0,
			"0.015": 0.0,
			"0.016": 0.0,
			"0.017": 0.0,
			"0.018": 0.0,
			"0.019": 0.0,
			"0.02": 0.0,
			"0.021": 0.0,
			"0.022": 0.0,
			"0.023": 0.0,
			"0.024": 0.0,
			"0.025": 0.0
		}
	}
}
