{
	 "smiles": "[O-][N+](=O)C1=CC=C(C=C1)S(=O)(=O)C1=CC=C(C=C1)[N+]([O-])=O", 
	 "Tm": 526.65, 
	 "num_atms": 29, 
	 "gaussian": { 
		 "optdone": 1, 
		 "sigma_profile": "yes", 
		 "theory": "DFT", 
		 "functional": "B3LYP", 
		 "basiset": "6-31G**", 
		 "properties": { 
			 "R2extent": 8766.6735, 
			 "electric_dipole_moment_norm": 0.0400602046924, 
			 "electric_quadrupole_moment_norm": 25.1598988682, 
			 "total_energy": -1420.85308111, 
			 "HOMO_LUMO_gap": 0.17942, 
			 "cosmo_polarized_energy": -19.84, 
			 "cosmo_cavitation_energy": 37.77, 
			 "cosmo_dispersion_energy": -27.04, 
			 "cosmo_repulsion_energy": 2.0, 
			 "cosmo_total_nonelectrostatic_energy": 12.73, 
			 "SMD_solvation_energy": 10.35 
		},
		"coords": [
			{
				"x": 1.374957391,
				"y": -4.6088585768,
				"z": 2.5389447653,
				"element": "O" 
			},
			{
				"x": 1.9564815928,
				"y": -3.5272486648,
				"z": 2.4984890939,
				"element": "N" 
			},
			{
				"x": 3.1703616467,
				"y": -3.3712473858,
				"z": 2.6073072115,
				"element": "O" 
			},
			{
				"x": 1.130288691,
				"y": -2.317786454,
				"z": 2.3009038909,
				"element": "C" 
			},
			{
				"x": -0.2498429634,
				"y": -2.4642016743,
				"z": 2.1778786047,
				"element": "C" 
			},
			{
				"x": -1.0265413412,
				"y": -1.3236731799,
				"z": 1.9881316168,
				"element": "C" 
			},
			{
				"x": -0.400165285,
				"y": -0.0768302524,
				"z": 1.923758106,
				"element": "C" 
			},
			{
				"x": 0.9827515657,
				"y": 0.061291705,
				"z": 2.0639548514,
				"element": "C" 
			},
			{
				"x": 1.7625719679,
				"y": -1.077055644,
				"z": 2.2538038331,
				"element": "C" 
			},
			{
				"x": -1.4114396999,
				"y": 1.4029768681,
				"z": 1.6902944128,
				"element": "S" 
			},
			{
				"x": -0.6512950579,
				"y": 2.5384470433,
				"z": 2.2302161421,
				"element": "O" 
			},
			{
				"x": -2.7710150178,
				"y": 1.0757778053,
				"z": 2.1409793579,
				"element": "O" 
			},
			{
				"x": -1.4780888582,
				"y": 1.6092391212,
				"z": -0.1041605129,
				"element": "C" 
			},
			{
				"x": -2.5135788675,
				"y": 1.0028508643,
				"z": -0.8191649017,
				"element": "C" 
			},
			{
				"x": -2.5722048509,
				"y": 1.1690827211,
				"z": -2.2008129256,
				"element": "C" 
			},
			{
				"x": -1.5925473203,
				"y": 1.941539246,
				"z": -2.8212913364,
				"element": "C" 
			},
			{
				"x": -0.5649752508,
				"y": 2.5631595187,
				"z": -2.1148680724,
				"element": "C" 
			},
			{
				"x": -0.5094280772,
				"y": 2.394680094,
				"z": -0.733352993,
				"element": "C" 
			},
			{
				"x": -1.650851524,
				"y": 2.1160458366,
				"z": -4.287777643,
				"element": "N" 
			},
			{
				"x": -0.7768502833,
				"y": 2.8034153283,
				"z": -4.8105948601,
				"element": "O" 
			},
			{
				"x": -2.5677102988,
				"y": 1.5597329007,
				"z": -4.8874171965,
				"element": "O" 
			},
			{
				"x": -0.68997402,
				"y": -3.4515742041,
				"z": 2.2377726983,
				"element": "H" 
			},
			{
				"x": -2.1059871731,
				"y": -1.3929140915,
				"z": 1.9144242186,
				"element": "H" 
			},
			{
				"x": 1.433955408,
				"y": 1.0469913757,
				"z": 2.0478687319,
				"element": "H" 
			},
			{
				"x": 2.8374056545,
				"y": -1.020159483,
				"z": 2.3708570301,
				"element": "H" 
			},
			{
				"x": -3.2718842169,
				"y": 0.4311915263,
				"z": -0.2960824378,
				"element": "H" 
			},
			{
				"x": -3.3572863805,
				"y": 0.7216486487,
				"z": -2.7971853552,
				"element": "H" 
			},
			{
				"x": 0.1609887388,
				"y": 3.1652167072,
				"z": -2.646568847,
				"element": "H" 
			},
			{
				"x": 0.2589038305,
				"y": 2.8832623001,
				"z": -0.1448074837,
				"element": "H" 
			}
		],
		 "valence_orbital": [ 
			{
				"type": "occ",
				"energy": -0.31188,
				"method": "rhf"
			},
			{
				"type": "occ",
				"energy": -0.31174,
				"method": "rhf"
			},
			{
				"type": "occ",
				"energy": -0.30814,
				"method": "rhf"
			},
			{
				"type": "occ",
				"energy": -0.30457,
				"method": "rhf"
			},
			{
				"type": "occ",
				"energy": -0.30209,
				"method": "rhf"
			},
			{
				"type": "unocc",
				"energy": -0.12267,
				"method": "rhf"
			},
			{
				"type": "unocc",
				"energy": -0.10971,
				"method": "rhf"
			},
			{
				"type": "unocc",
				"energy": -0.06137,
				"method": "rhf"
			},
			{
				"type": "unocc",
				"energy": -0.05132,
				"method": "rhf"
			},
			{
				"type": "unocc",
				"energy": -0.04865,
				"method": "rhf"
			}
		],
		"cosmo_sigma_profile": { 
			"-0.025": 0.0,
			"-0.024": 0.0,
			"-0.023": 0.0,
			"-0.022": 0.0,
			"-0.021": 0.0,
			"-0.02": 0.0,
			"-0.019": 0.0,
			"-0.018": 0.0,
			"-0.017": 0.0,
			"-0.016": 0.0,
			"-0.015": 0.0,
			"-0.014": 0.0,
			"-0.013": 0.0,
			"-0.012": 0.0,
			"-0.011": 0.0,
			"-0.01": 0.0,
			"-0.009": 6.25449899372,
			"-0.008": 16.3164529431,
			"-0.007": 18.2360578383,
			"-0.006": 14.681352888,
			"-0.005": 15.5929126424,
			"-0.004": 16.4043088657,
			"-0.003": 20.9934809068,
			"-0.002": 31.1605105126,
			"-0.001": 32.9145372916,
			"0.0": 19.6159742359,
			"0.001": 8.01956595398,
			"0.002": 7.35231716048,
			"0.003": 8.45462160452,
			"0.004": 7.00639756265,
			"0.005": 8.32305440985,
			"0.006": 14.60498425,
			"0.007": 19.9611665727,
			"0.008": 14.0186717616,
			"0.009": 11.5956316881,
			"0.01": 8.2719747043,
			"0.011": 5.53519602705,
			"0.012": 0.0453614027957,
			"0.013": 0.0,
			"0.014": 0.0,
			"0.015": 0.0,
			"0.016": 0.0,
			"0.017": 0.0,
			"0.018": 0.0,
			"0.019": 0.0,
			"0.02": 0.0,
			"0.021": 0.0,
			"0.022": 0.0,
			"0.023": 0.0,
			"0.024": 0.0,
			"0.025": 0.0
		}
	}
}
