{
	 "smiles": "ClCC1=NC2=CC=CC=C2N1", 
	 "Tm": 421.15, 
	 "num_atms": 18, 
	 "gaussian": { 
		 "optdone": 1, 
		 "sigma_profile": "yes", 
		 "theory": "DFT", 
		 "functional": "B3LYP", 
		 "basiset": "6-31G**", 
		 "properties": { 
			 "R2extent": 3700.9629, 
			 "electric_dipole_moment_norm": 2.4219532799, 
			 "electric_quadrupole_moment_norm": 7.32655368437, 
			 "total_energy": -878.781827337, 
			 "HOMO_LUMO_gap": 0.19605, 
			 "cosmo_polarized_energy": -11.73, 
			 "cosmo_cavitation_energy": 23.88, 
			 "cosmo_dispersion_energy": -18.15, 
			 "cosmo_repulsion_energy": 1.46, 
			 "cosmo_total_nonelectrostatic_energy": 7.19, 
			 "SMD_solvation_energy": 1.45 
		},
		"coords": [
			{
				"x": 2.1406412626,
				"y": 3.2464085947,
				"z": -0.6139266303,
				"element": "Cl" 
			},
			{
				"x": 1.253054851,
				"y": 3.554635531,
				"z": 0.9536471124,
				"element": "C" 
			},
			{
				"x": 0.1933808848,
				"y": 2.542160873,
				"z": 1.2133484011,
				"element": "C" 
			},
			{
				"x": 0.0475903531,
				"y": 1.9195125064,
				"z": 2.357903589,
				"element": "N" 
			},
			{
				"x": -1.0818807214,
				"y": 1.1287205692,
				"z": 2.1922395502,
				"element": "C" 
			},
			{
				"x": -1.7022456619,
				"y": 0.2512836316,
				"z": 3.0910832609,
				"element": "C" 
			},
			{
				"x": -2.827426961,
				"y": -0.4402429742,
				"z": 2.6558378948,
				"element": "C" 
			},
			{
				"x": -3.3356782302,
				"y": -0.2697241928,
				"z": 1.3514127021,
				"element": "C" 
			},
			{
				"x": -2.7372292965,
				"y": 0.5983963202,
				"z": 0.4419622276,
				"element": "C" 
			},
			{
				"x": -1.6098185445,
				"y": 1.291523118,
				"z": 0.8874370379,
				"element": "C" 
			},
			{
				"x": -0.7770482063,
				"y": 2.2209735427,
				"z": 0.2887728556,
				"element": "N" 
			},
			{
				"x": 1.9806379186,
				"y": 3.5195101852,
				"z": 1.7619592655,
				"element": "H" 
			},
			{
				"x": 0.8482350487,
				"y": 4.5646284909,
				"z": 0.8612937946,
				"element": "H" 
			},
			{
				"x": -1.3041346582,
				"y": 0.1235430328,
				"z": 4.0923794309,
				"element": "H" 
			},
			{
				"x": -3.328320417,
				"y": -1.1277354498,
				"z": 3.330772821,
				"element": "H" 
			},
			{
				"x": -4.2161814481,
				"y": -0.8285515807,
				"z": 1.0485549021,
				"element": "H" 
			},
			{
				"x": -3.1330128175,
				"y": 0.7271246649,
				"z": -0.5608549789,
				"element": "H" 
			},
			{
				"x": -0.7831633562,
				"y": 2.5101331369,
				"z": -0.6776232363,
				"element": "H" 
			}
		],
		 "valence_orbital": [ 
			{
				"type": "occ",
				"energy": -0.31139,
				"method": "rhf"
			},
			{
				"type": "occ",
				"energy": -0.30864,
				"method": "rhf"
			},
			{
				"type": "occ",
				"energy": -0.2794,
				"method": "rhf"
			},
			{
				"type": "occ",
				"energy": -0.23209,
				"method": "rhf"
			},
			{
				"type": "occ",
				"energy": -0.22928,
				"method": "rhf"
			},
			{
				"type": "unocc",
				"energy": -0.03323,
				"method": "rhf"
			},
			{
				"type": "unocc",
				"energy": 0.00953,
				"method": "rhf"
			},
			{
				"type": "unocc",
				"energy": 0.02175,
				"method": "rhf"
			},
			{
				"type": "unocc",
				"energy": 0.05512,
				"method": "rhf"
			},
			{
				"type": "unocc",
				"energy": 0.07686,
				"method": "rhf"
			}
		],
		"cosmo_sigma_profile": { 
			"-0.025": 0.0,
			"-0.024": 0.0,
			"-0.023": 0.0,
			"-0.022": 0.0,
			"-0.021": 0.0,
			"-0.02": 0.0,
			"-0.019": 0.0,
			"-0.018": 0.0,
			"-0.017": 0.122213386505,
			"-0.016": 0.855184874604,
			"-0.015": 1.21431604034,
			"-0.014": 0.90573987647,
			"-0.013": 0.963202876007,
			"-0.012": 0.925829969636,
			"-0.011": 1.76426392899,
			"-0.01": 0.979003737013,
			"-0.009": 3.95025188567,
			"-0.008": 6.2140329602,
			"-0.007": 6.33939450916,
			"-0.006": 8.6678394433,
			"-0.005": 11.2264290967,
			"-0.004": 11.88851762,
			"-0.003": 10.4694629288,
			"-0.002": 7.95743929194,
			"-0.001": 9.6926957406,
			"0.0": 11.1349557955,
			"0.001": 13.0231922924,
			"0.002": 12.8333294634,
			"0.003": 14.0459385485,
			"0.004": 16.9060686238,
			"0.005": 17.0976109385,
			"0.006": 12.9806285807,
			"0.007": 1.95186778937,
			"0.008": 1.58741891382,
			"0.009": 0.978332493964,
			"0.01": 0.602648993217,
			"0.011": 1.3158007567,
			"0.012": 1.12026037669,
			"0.013": 0.939291060673,
			"0.014": 0.828099403389,
			"0.015": 0.623837323694,
			"0.016": 1.13844561806,
			"0.017": 0.409718948641,
			"0.018": 0.0,
			"0.019": 0.0,
			"0.02": 0.0,
			"0.021": 0.0,
			"0.022": 0.0,
			"0.023": 0.0,
			"0.024": 0.0,
			"0.025": 0.0
		}
	}
}
