{
	 "smiles": "N#CC1=CC=C(C=C1)N1N=N1", 
	 "Tm": 343.15, 
	 "num_atms": 15, 
	 "gaussian": { 
		 "optdone": 1, 
		 "sigma_profile": "yes", 
		 "theory": "DFT", 
		 "functional": "B3LYP", 
		 "basiset": "6-31G**", 
		 "properties": { 
			 "R2extent": 1971.2674, 
			 "electric_dipole_moment_norm": 2.87279277011, 
			 "electric_quadrupole_moment_norm": 20.2320126705, 
			 "total_energy": -488.006211512, 
			 "HOMO_LUMO_gap": 0.16531, 
			 "cosmo_polarized_energy": -9.1, 
			 "cosmo_cavitation_energy": 22.06, 
			 "cosmo_dispersion_energy": -15.27, 
			 "cosmo_repulsion_energy": 1.21, 
			 "cosmo_total_nonelectrostatic_energy": 8.0, 
			 "SMD_solvation_energy": 3.56 
		},
		"coords": [
			{
				"x": -0.7791308292,
				"y": -3.0911681954,
				"z": 3.4134702107,
				"element": "N" 
			},
			{
				"x": -0.6147713015,
				"y": -2.310728328,
				"z": 2.5666227891,
				"element": "C" 
			},
			{
				"x": -0.4114197989,
				"y": -1.3491291246,
				"z": 1.5233589052,
				"element": "C" 
			},
			{
				"x": -1.498728367,
				"y": -0.8987347204,
				"z": 0.758337546,
				"element": "C" 
			},
			{
				"x": -1.3060802165,
				"y": 0.0350134599,
				"z": -0.2557884471,
				"element": "C" 
			},
			{
				"x": -0.0187936875,
				"y": 0.5254153696,
				"z": -0.511172786,
				"element": "C" 
			},
			{
				"x": 1.0705415423,
				"y": 0.0784484665,
				"z": 0.2504351762,
				"element": "C" 
			},
			{
				"x": 0.8787477994,
				"y": -0.8523373123,
				"z": 1.2613854345,
				"element": "C" 
			},
			{
				"x": 0.3421240966,
				"y": 1.485193656,
				"z": -1.5155158732,
				"element": "N" 
			},
			{
				"x": -0.6957024472,
				"y": 1.4697620498,
				"z": -2.6579831559,
				"element": "N" 
			},
			{
				"x": -0.8789224215,
				"y": 2.3584720533,
				"z": -1.8746368126,
				"element": "N" 
			},
			{
				"x": -2.4926067021,
				"y": -1.2826547475,
				"z": 0.9615432924,
				"element": "H" 
			},
			{
				"x": -2.1555010988,
				"y": 0.3723922847,
				"z": -0.837023588,
				"element": "H" 
			},
			{
				"x": 2.0573226687,
				"y": 0.473117158,
				"z": 0.0333745556,
				"element": "H" 
			},
			{
				"x": 1.7188207631,
				"y": -1.2003620696,
				"z": 1.8524927531,
				"element": "H" 
			}
		],
		 "valence_orbital": [ 
			{
				"type": "occ",
				"energy": -0.33804,
				"method": "rhf"
			},
			{
				"type": "occ",
				"energy": -0.33401,
				"method": "rhf"
			},
			{
				"type": "occ",
				"energy": -0.32174,
				"method": "rhf"
			},
			{
				"type": "occ",
				"energy": -0.29107,
				"method": "rhf"
			},
			{
				"type": "occ",
				"energy": -0.26424,
				"method": "rhf"
			},
			{
				"type": "unocc",
				"energy": -0.09893,
				"method": "rhf"
			},
			{
				"type": "unocc",
				"energy": -0.0671,
				"method": "rhf"
			},
			{
				"type": "unocc",
				"energy": -0.03645,
				"method": "rhf"
			},
			{
				"type": "unocc",
				"energy": 0.01622,
				"method": "rhf"
			},
			{
				"type": "unocc",
				"energy": 0.02296,
				"method": "rhf"
			}
		],
		"cosmo_sigma_profile": { 
			"-0.025": 0.0,
			"-0.024": 0.0,
			"-0.023": 0.0,
			"-0.022": 0.0,
			"-0.021": 0.0,
			"-0.02": 0.0,
			"-0.019": 0.0,
			"-0.018": 0.0,
			"-0.017": 0.0,
			"-0.016": 0.0,
			"-0.015": 0.0,
			"-0.014": 0.0,
			"-0.013": 0.0,
			"-0.012": 0.0,
			"-0.011": 0.0,
			"-0.01": 0.0,
			"-0.009": 2.89497693723,
			"-0.008": 8.74367847197,
			"-0.007": 8.81719229659,
			"-0.006": 8.2170323191,
			"-0.005": 7.36814196094,
			"-0.004": 9.40303851993,
			"-0.003": 9.42745007627,
			"-0.002": 14.4825356884,
			"-0.001": 16.3539716833,
			"0.0": 19.5676470958,
			"0.001": 19.4307446381,
			"0.002": 9.87378569211,
			"0.003": 7.55884329065,
			"0.004": 6.70044751895,
			"0.005": 5.4411782348,
			"0.006": 3.14524208145,
			"0.007": 3.86466257809,
			"0.008": 4.34479491694,
			"0.009": 4.13490978915,
			"0.01": 3.92537518259,
			"0.011": 3.1986371976,
			"0.012": 2.26255506528,
			"0.013": 1.1700544859,
			"0.014": 0.0140303179173,
			"0.015": 0.0,
			"0.016": 0.0,
			"0.017": 0.0,
			"0.018": 0.0,
			"0.019": 0.0,
			"0.02": 0.0,
			"0.021": 0.0,
			"0.022": 0.0,
			"0.023": 0.0,
			"0.024": 0.0,
			"0.025": 0.0
		}
	}
}
