{
	 "smiles": "ClCCl", 
	 "Tm": 177.15, 
	 "num_atms": 5, 
	 "gaussian": { 
		 "optdone": 1, 
		 "sigma_profile": "yes", 
		 "theory": "DFT", 
		 "functional": "B3LYP", 
		 "basiset": "6-31G**", 
		 "properties": { 
			 "R2extent": 1157.5404, 
			 "electric_dipole_moment_norm": 1.84830214251, 
			 "electric_quadrupole_moment_norm": 6.59278169743, 
			 "total_energy": -959.691380191, 
			 "HOMO_LUMO_gap": 0.29361, 
			 "cosmo_polarized_energy": -4.53, 
			 "cosmo_cavitation_energy": 12.01, 
			 "cosmo_dispersion_energy": -9.55, 
			 "cosmo_repulsion_energy": 0.91, 
			 "cosmo_total_nonelectrostatic_energy": 3.37, 
			 "SMD_solvation_energy": 1.91 
		},
		"coords": [
			{
				"x": -0.4898067295,
				"y": 1.0309723908,
				"z": 3.2643654663,
				"element": "Cl" 
			},
			{
				"x": 0.6200784751,
				"y": 1.8186956069,
				"z": 2.1012977505,
				"element": "C" 
			},
			{
				"x": 0.5519554106,
				"y": 1.1038330391,
				"z": 0.4613578328,
				"element": "Cl" 
			},
			{
				"x": 1.6345060638,
				"y": 1.7048360228,
				"z": 2.4753680761,
				"element": "H" 
			},
			{
				"x": 0.33696678,
				"y": 2.8654629405,
				"z": 2.0233108743,
				"element": "H" 
			}
		],
		 "valence_orbital": [ 
			{
				"type": "occ",
				"energy": -0.44892,
				"method": "rhf"
			},
			{
				"type": "occ",
				"energy": -0.33277,
				"method": "rhf"
			},
			{
				"type": "occ",
				"energy": -0.32945,
				"method": "rhf"
			},
			{
				"type": "occ",
				"energy": -0.31412,
				"method": "rhf"
			},
			{
				"type": "occ",
				"energy": -0.30939,
				"method": "rhf"
			},
			{
				"type": "unocc",
				"energy": -0.01578,
				"method": "rhf"
			},
			{
				"type": "unocc",
				"energy": 0.02846,
				"method": "rhf"
			},
			{
				"type": "unocc",
				"energy": 0.09248,
				"method": "rhf"
			},
			{
				"type": "unocc",
				"energy": 0.11611,
				"method": "rhf"
			},
			{
				"type": "unocc",
				"energy": 0.34785,
				"method": "rhf"
			}
		],
		"cosmo_sigma_profile": { 
			"-0.025": 0.0,
			"-0.024": 0.0,
			"-0.023": 0.0,
			"-0.022": 0.0,
			"-0.021": 0.0,
			"-0.02": 0.0,
			"-0.019": 0.0,
			"-0.018": 0.0,
			"-0.017": 0.0,
			"-0.016": 0.0,
			"-0.015": 0.0,
			"-0.014": 0.0,
			"-0.013": 0.0,
			"-0.012": 0.0,
			"-0.011": 0.71306361899,
			"-0.01": 4.64696043227,
			"-0.009": 3.8486999159,
			"-0.008": 4.00272027797,
			"-0.007": 4.11458962768,
			"-0.006": 3.38469104777,
			"-0.005": 1.86693344643,
			"-0.004": 2.04124388396,
			"-0.003": 2.65697247886,
			"-0.002": 4.51158208891,
			"-0.001": 5.61199076108,
			"0.0": 4.92046744336,
			"0.001": 6.26628187304,
			"0.002": 7.74068611392,
			"0.003": 9.62584079755,
			"0.004": 15.5817815637,
			"0.005": 17.9967034087,
			"0.006": 0.815718912914,
			"0.007": 0.0,
			"0.008": 0.0,
			"0.009": 0.0,
			"0.01": 0.0,
			"0.011": 0.0,
			"0.012": 0.0,
			"0.013": 0.0,
			"0.014": 0.0,
			"0.015": 0.0,
			"0.016": 0.0,
			"0.017": 0.0,
			"0.018": 0.0,
			"0.019": 0.0,
			"0.02": 0.0,
			"0.021": 0.0,
			"0.022": 0.0,
			"0.023": 0.0,
			"0.024": 0.0,
			"0.025": 0.0
		}
	}
}
