{
	 "smiles": "NC(=S)NC1=CC=CC(Br)=C1", 
	 "Tm": 423.15, 
	 "num_atms": 18, 
	 "gaussian": { 
		 "optdone": 1, 
		 "sigma_profile": "yes", 
		 "theory": "DFT", 
		 "functional": "B3LYP", 
		 "basiset": "6-31G**", 
		 "properties": { 
			 "R2extent": 4190.8608, 
			 "electric_dipole_moment_norm": 4.59663941266, 
			 "electric_quadrupole_moment_norm": 22.0918760251, 
			 "total_energy": -3350.07502495, 
			 "HOMO_LUMO_gap": 0.16961, 
			 "cosmo_polarized_energy": -17.1, 
			 "cosmo_cavitation_energy": 26.4, 
			 "cosmo_dispersion_energy": -20.43, 
			 "cosmo_repulsion_energy": 1.61, 
			 "cosmo_total_nonelectrostatic_energy": 7.58, 
			 "SMD_solvation_energy": 2.5 
		},
		"coords": [
			{
				"x": -2.9541602732,
				"y": 0.9149083735,
				"z": 1.8620383891,
				"element": "N" 
			},
			{
				"x": -1.9107590602,
				"y": 1.7605845982,
				"z": 2.0771021124,
				"element": "C" 
			},
			{
				"x": -1.9804113713,
				"y": 3.0125804483,
				"z": 3.192633563,
				"element": "S" 
			},
			{
				"x": -0.7775996627,
				"y": 1.5558583232,
				"z": 1.3298664403,
				"element": "N" 
			},
			{
				"x": -0.5227075439,
				"y": 0.6351037635,
				"z": 0.2892649294,
				"element": "C" 
			},
			{
				"x": -1.4790884052,
				"y": 0.3144538726,
				"z": -0.6876515896,
				"element": "C" 
			},
			{
				"x": -1.1517104417,
				"y": -0.5804816878,
				"z": -1.7061117212,
				"element": "C" 
			},
			{
				"x": 0.1199187056,
				"y": -1.1470932827,
				"z": -1.7912350344,
				"element": "C" 
			},
			{
				"x": 1.065580932,
				"y": -0.7999943021,
				"z": -0.8267336516,
				"element": "C" 
			},
			{
				"x": 2.8183066421,
				"y": -1.5524099179,
				"z": -0.920343526,
				"element": "Br" 
			},
			{
				"x": 0.7614219011,
				"y": 0.0721958274,
				"z": 0.2128107482,
				"element": "C" 
			},
			{
				"x": -3.7152113034,
				"y": 0.9973391498,
				"z": 2.5183184038,
				"element": "H" 
			},
			{
				"x": -2.80297036,
				"y": 0.0130020949,
				"z": 1.4309624167,
				"element": "H" 
			},
			{
				"x": -0.0090195415,
				"y": 2.1417017653,
				"z": 1.6264739312,
				"element": "H" 
			},
			{
				"x": -2.4542496392,
				"y": 0.7866473596,
				"z": -0.6681764458,
				"element": "H" 
			},
			{
				"x": -1.8944251143,
				"y": -0.8229891494,
				"z": -2.4602578951,
				"element": "H" 
			},
			{
				"x": 0.3753094887,
				"y": -1.8338489014,
				"z": -2.5891815789,
				"element": "H" 
			},
			{
				"x": 1.5057750471,
				"y": 0.310541665,
				"z": 0.9645205087,
				"element": "H" 
			}
		],
		 "valence_orbital": [ 
			{
				"type": "occ",
				"energy": -0.29907,
				"method": "rhf"
			},
			{
				"type": "occ",
				"energy": -0.26655,
				"method": "rhf"
			},
			{
				"type": "occ",
				"energy": -0.2543,
				"method": "rhf"
			},
			{
				"type": "occ",
				"energy": -0.21782,
				"method": "rhf"
			},
			{
				"type": "occ",
				"energy": -0.21183,
				"method": "rhf"
			},
			{
				"type": "unocc",
				"energy": -0.04222,
				"method": "rhf"
			},
			{
				"type": "unocc",
				"energy": -0.03469,
				"method": "rhf"
			},
			{
				"type": "unocc",
				"energy": -0.00678,
				"method": "rhf"
			},
			{
				"type": "unocc",
				"energy": 0.00795,
				"method": "rhf"
			},
			{
				"type": "unocc",
				"energy": 0.06529,
				"method": "rhf"
			}
		],
		"cosmo_sigma_profile": { 
			"-0.025": 0.0,
			"-0.024": 0.0,
			"-0.023": 0.0,
			"-0.022": 0.0,
			"-0.021": 0.0,
			"-0.02": 0.0,
			"-0.019": 0.0,
			"-0.018": 0.0,
			"-0.017": 0.0,
			"-0.016": 0.0203494718672,
			"-0.015": 0.969346091329,
			"-0.014": 2.90323664115,
			"-0.013": 2.90658967423,
			"-0.012": 4.16149999265,
			"-0.011": 3.3879012074,
			"-0.01": 3.35046620299,
			"-0.009": 2.93334165179,
			"-0.008": 4.16045604501,
			"-0.007": 7.93933454628,
			"-0.006": 9.96959755075,
			"-0.005": 9.05123790592,
			"-0.004": 9.63262411353,
			"-0.003": 10.6569174406,
			"-0.002": 9.22705903441,
			"-0.001": 12.2702043231,
			"0.0": 12.5388738207,
			"0.001": 15.9577181116,
			"0.002": 20.026039782,
			"0.003": 17.9055485115,
			"0.004": 15.8822048429,
			"0.005": 7.94110092255,
			"0.006": 3.57221393209,
			"0.007": 3.21510184089,
			"0.008": 3.98778759642,
			"0.009": 3.99879711486,
			"0.01": 5.58478150226,
			"0.011": 8.32322255601,
			"0.012": 4.51901066899,
			"0.013": 0.349060392289,
			"0.014": 0.0,
			"0.015": 0.0,
			"0.016": 0.0,
			"0.017": 0.0,
			"0.018": 0.0,
			"0.019": 0.0,
			"0.02": 0.0,
			"0.021": 0.0,
			"0.022": 0.0,
			"0.023": 0.0,
			"0.024": 0.0,
			"0.025": 0.0
		}
	}
}
