{
	 "smiles": "CC1=C(C#N)C(N)=NC=C1", 
	 "Tm": 422.15, 
	 "num_atms": 17, 
	 "gaussian": { 
		 "optdone": 1, 
		 "sigma_profile": "yes", 
		 "theory": "DFT", 
		 "functional": "B3LYP", 
		 "basiset": "6-31G**", 
		 "properties": { 
			 "R2extent": 1538.0211, 
			 "electric_dipole_moment_norm": 2.42497266995, 
			 "electric_quadrupole_moment_norm": 12.0362962314, 
			 "total_energy": -435.219063563, 
			 "HOMO_LUMO_gap": 0.17527, 
			 "cosmo_polarized_energy": -11.14, 
			 "cosmo_cavitation_energy": 21.87, 
			 "cosmo_dispersion_energy": -15.74, 
			 "cosmo_repulsion_energy": 1.28, 
			 "cosmo_total_nonelectrostatic_energy": 7.41, 
			 "SMD_solvation_energy": 3.57 
		},
		"coords": [
			{
				"x": 0.3530503862,
				"y": -0.7595275858,
				"z": -2.211905877,
				"element": "C" 
			},
			{
				"x": 0.3385965259,
				"y": 0.1616220541,
				"z": -1.0211166663,
				"element": "C" 
			},
			{
				"x": -0.8739462775,
				"y": 0.5092704361,
				"z": -0.3944391727,
				"element": "C" 
			},
			{
				"x": -2.1264536699,
				"y": 0.014662201,
				"z": -0.8616888256,
				"element": "C" 
			},
			{
				"x": -3.177714077,
				"y": -0.3544682433,
				"z": -1.2050134225,
				"element": "N" 
			},
			{
				"x": -0.8538095476,
				"y": 1.3832394754,
				"z": 0.7319057546,
				"element": "C" 
			},
			{
				"x": -1.9982769907,
				"y": 1.718526262,
				"z": 1.3885379109,
				"element": "N" 
			},
			{
				"x": 0.2890474942,
				"y": 1.8995664214,
				"z": 1.214874148,
				"element": "N" 
			},
			{
				"x": 1.4254515437,
				"y": 1.557015655,
				"z": 0.6074714096,
				"element": "C" 
			},
			{
				"x": 1.5112661002,
				"y": 0.7044712105,
				"z": -0.4944677911,
				"element": "C" 
			},
			{
				"x": -0.2486281521,
				"y": -0.3520599108,
				"z": -3.0315445179,
				"element": "H" 
			},
			{
				"x": -0.0772475392,
				"y": -1.7346872669,
				"z": -1.9591724311,
				"element": "H" 
			},
			{
				"x": 1.3710449722,
				"y": -0.9154757083,
				"z": -2.575276825,
				"element": "H" 
			},
			{
				"x": -2.8996354997,
				"y": 1.5082820825,
				"z": 0.9906795367,
				"element": "H" 
			},
			{
				"x": -1.9279878762,
				"y": 2.4437103932,
				"z": 2.0843810692,
				"element": "H" 
			},
			{
				"x": 2.3309654753,
				"y": 1.9937074559,
				"z": 1.0261926396,
				"element": "H" 
			},
			{
				"x": 2.4746771323,
				"y": 0.4726450681,
				"z": -0.9353169394,
				"element": "H" 
			}
		],
		 "valence_orbital": [ 
			{
				"type": "occ",
				"energy": -0.33782,
				"method": "rhf"
			},
			{
				"type": "occ",
				"energy": -0.32997,
				"method": "rhf"
			},
			{
				"type": "occ",
				"energy": -0.27849,
				"method": "rhf"
			},
			{
				"type": "occ",
				"energy": -0.27158,
				"method": "rhf"
			},
			{
				"type": "occ",
				"energy": -0.22695,
				"method": "rhf"
			},
			{
				"type": "unocc",
				"energy": -0.05168,
				"method": "rhf"
			},
			{
				"type": "unocc",
				"energy": -0.00704,
				"method": "rhf"
			},
			{
				"type": "unocc",
				"energy": 0.02853,
				"method": "rhf"
			},
			{
				"type": "unocc",
				"energy": 0.07307,
				"method": "rhf"
			},
			{
				"type": "unocc",
				"energy": 0.08219,
				"method": "rhf"
			}
		],
		"cosmo_sigma_profile": { 
			"-0.025": 0.0,
			"-0.024": 0.0,
			"-0.023": 0.0,
			"-0.022": 0.0,
			"-0.021": 0.0,
			"-0.02": 0.0,
			"-0.019": 0.0,
			"-0.018": 0.0,
			"-0.017": 0.0,
			"-0.016": 0.0,
			"-0.015": 0.0,
			"-0.014": 0.773744970053,
			"-0.013": 2.20980245417,
			"-0.012": 1.69244821184,
			"-0.011": 1.8781078071,
			"-0.01": 2.20932724908,
			"-0.009": 1.90252248995,
			"-0.008": 1.74968035298,
			"-0.007": 4.37969557604,
			"-0.006": 9.98811747118,
			"-0.005": 11.3577594437,
			"-0.004": 11.8491892564,
			"-0.003": 10.3675675191,
			"-0.002": 12.5621111086,
			"-0.001": 16.6744477648,
			"0.0": 14.1695611387,
			"0.001": 13.6716902641,
			"0.002": 10.2528930384,
			"0.003": 6.42459462506,
			"0.004": 5.29063670619,
			"0.005": 4.19674511787,
			"0.006": 3.9952313701,
			"0.007": 3.7255555522,
			"0.008": 4.31635552324,
			"0.009": 3.6133968891,
			"0.01": 4.86428733912,
			"0.011": 3.51820927296,
			"0.012": 3.90325863924,
			"0.013": 2.26965180709,
			"0.014": 0.928127537664,
			"0.015": 0.506550527605,
			"0.016": 0.00908808148369,
			"0.017": 0.0,
			"0.018": 0.0,
			"0.019": 0.0,
			"0.02": 0.0,
			"0.021": 0.0,
			"0.022": 0.0,
			"0.023": 0.0,
			"0.024": 0.0,
			"0.025": 0.0
		}
	}
}
