{
	 "smiles": "CC1=CC(Br)=C(OC2=CC=C3NC=CC=C3C2=N)C=C1", 
	 "Tm": 533.15, 
	 "num_atms": 33, 
	 "gaussian": { 
		 "optdone": 1, 
		 "sigma_profile": "yes", 
		 "theory": "DFT", 
		 "functional": "B3LYP", 
		 "basiset": "6-31G**", 
		 "properties": { 
			 "R2extent": 10985.8245, 
			 "electric_dipole_moment_norm": 9.23733162174, 
			 "electric_quadrupole_moment_norm": 51.6764799555, 
			 "total_energy": -3373.6213606, 
			 "HOMO_LUMO_gap": 0.09535, 
			 "cosmo_polarized_energy": -27.75, 
			 "cosmo_cavitation_energy": 39.31, 
			 "cosmo_dispersion_energy": -28.47, 
			 "cosmo_repulsion_energy": 2.18, 
			 "cosmo_total_nonelectrostatic_energy": 13.02, 
			 "SMD_solvation_energy": 4.97 
		},
		"coords": [
			{
				"x": -0.7800249528,
				"y": -0.3023900066,
				"z": 4.5457353252,
				"element": "C" 
			},
			{
				"x": 0.1564323308,
				"y": -0.1328292034,
				"z": 3.3717958961,
				"element": "C" 
			},
			{
				"x": 1.5434781725,
				"y": -0.1898695245,
				"z": 3.5422150644,
				"element": "C" 
			},
			{
				"x": 2.4083530256,
				"y": -0.0188117073,
				"z": 2.4637522536,
				"element": "C" 
			},
			{
				"x": 4.2919688872,
				"y": -0.1020684076,
				"z": 2.7572413008,
				"element": "Br" 
			},
			{
				"x": 1.9124757856,
				"y": 0.2139960789,
				"z": 1.1759083999,
				"element": "C" 
			},
			{
				"x": 2.8178703137,
				"y": 0.4249008159,
				"z": 0.1717955495,
				"element": "O" 
			},
			{
				"x": 2.4143467543,
				"y": 0.3855449069,
				"z": -1.1504080951,
				"element": "C" 
			},
			{
				"x": 2.5019119486,
				"y": 1.5281485357,
				"z": -1.8883345825,
				"element": "C" 
			},
			{
				"x": 2.2288287385,
				"y": 1.5621673223,
				"z": -3.2878169012,
				"element": "C" 
			},
			{
				"x": 1.8559022064,
				"y": 0.399427215,
				"z": -3.9096085533,
				"element": "C" 
			},
			{
				"x": 1.5660056163,
				"y": 0.3562444335,
				"z": -5.2760169415,
				"element": "N" 
			},
			{
				"x": 1.1793906565,
				"y": -0.7597733284,
				"z": -5.9424634132,
				"element": "C" 
			},
			{
				"x": 1.0507775362,
				"y": -1.9498584321,
				"z": -5.2809089255,
				"element": "C" 
			},
			{
				"x": 1.3392473849,
				"y": -1.980646458,
				"z": -3.8903729419,
				"element": "C" 
			},
			{
				"x": 1.7363897082,
				"y": -0.8640638644,
				"z": -3.189969678,
				"element": "C" 
			},
			{
				"x": 2.052553238,
				"y": -0.9089548599,
				"z": -1.7288954529,
				"element": "C" 
			},
			{
				"x": 2.0368627635,
				"y": -1.9521192734,
				"z": -0.960685315,
				"element": "N" 
			},
			{
				"x": 0.5268539434,
				"y": 0.2803127452,
				"z": 1.0002165581,
				"element": "C" 
			},
			{
				"x": -0.3323439625,
				"y": 0.1045749595,
				"z": 2.0807154259,
				"element": "C" 
			},
			{
				"x": -1.6031973642,
				"y": -0.984150284,
				"z": 4.3057824767,
				"element": "H" 
			},
			{
				"x": -1.2292845255,
				"y": 0.653268641,
				"z": 4.8439094427,
				"element": "H" 
			},
			{
				"x": -0.2570015532,
				"y": -0.7045483574,
				"z": 5.4180252799,
				"element": "H" 
			},
			{
				"x": 1.9649808868,
				"y": -0.3721455807,
				"z": 4.5253733157,
				"element": "H" 
			},
			{
				"x": 2.8059167595,
				"y": 2.438078851,
				"z": -1.3803028221,
				"element": "H" 
			},
			{
				"x": 2.3132134151,
				"y": 2.4928553684,
				"z": -3.8398385679,
				"element": "H" 
			},
			{
				"x": 1.6524483393,
				"y": 1.2231778956,
				"z": -5.7885264896,
				"element": "H" 
			},
			{
				"x": 0.9863816499,
				"y": -0.6388037599,
				"z": -7.0022119378,
				"element": "H" 
			},
			{
				"x": 0.7384640215,
				"y": -2.8396861844,
				"z": -5.8119071032,
				"element": "H" 
			},
			{
				"x": 1.2389257352,
				"y": -2.9270389772,
				"z": -3.3663502595,
				"element": "H" 
			},
			{
				"x": 1.78500187,
				"y": -2.7989573931,
				"z": -1.4742883916,
				"element": "H" 
			},
			{
				"x": 0.1330972272,
				"y": 0.4702013653,
				"z": 0.0078440894,
				"element": "H" 
			},
			{
				"x": -1.4057265565,
				"y": 0.1544164682,
				"z": 1.9140959937,
				"element": "H" 
			}
		],
		 "valence_orbital": [ 
			{
				"type": "occ",
				"energy": -0.25588,
				"method": "rhf"
			},
			{
				"type": "occ",
				"energy": -0.24532,
				"method": "rhf"
			},
			{
				"type": "occ",
				"energy": -0.22418,
				"method": "rhf"
			},
			{
				"type": "occ",
				"energy": -0.19902,
				"method": "rhf"
			},
			{
				"type": "occ",
				"energy": -0.16997,
				"method": "rhf"
			},
			{
				"type": "unocc",
				"energy": -0.07462,
				"method": "rhf"
			},
			{
				"type": "unocc",
				"energy": -0.02199,
				"method": "rhf"
			},
			{
				"type": "unocc",
				"energy": 0.00937,
				"method": "rhf"
			},
			{
				"type": "unocc",
				"energy": 0.02419,
				"method": "rhf"
			},
			{
				"type": "unocc",
				"energy": 0.03256,
				"method": "rhf"
			}
		],
		"cosmo_sigma_profile": { 
			"-0.025": 0.0,
			"-0.024": 0.0,
			"-0.023": 0.0,
			"-0.022": 0.0,
			"-0.021": 0.0,
			"-0.02": 0.0,
			"-0.019": 0.0,
			"-0.018": 0.0618218618794,
			"-0.017": 1.62978785507,
			"-0.016": 1.87946481324,
			"-0.015": 1.79504878918,
			"-0.014": 1.10089051602,
			"-0.013": 1.21483245542,
			"-0.012": 2.02823534208,
			"-0.011": 2.65246187356,
			"-0.01": 4.21818520295,
			"-0.009": 4.12267674018,
			"-0.008": 5.710193115,
			"-0.007": 7.81951128246,
			"-0.006": 12.1735057496,
			"-0.005": 15.2314964967,
			"-0.004": 19.6236823765,
			"-0.003": 18.9801241382,
			"-0.002": 20.5184928466,
			"-0.001": 22.8220439707,
			"0.0": 25.9511764531,
			"0.001": 22.6485709069,
			"0.002": 25.7220394139,
			"0.003": 20.6285099647,
			"0.004": 20.8459350017,
			"0.005": 21.2490348612,
			"0.006": 8.58415524656,
			"0.007": 4.66326469979,
			"0.008": 3.64797542426,
			"0.009": 3.53505422258,
			"0.01": 3.48408886334,
			"0.011": 2.59142716318,
			"0.012": 1.79337973541,
			"0.013": 1.60122140336,
			"0.014": 1.48633893336,
			"0.015": 1.80251175511,
			"0.016": 1.74523481172,
			"0.017": 1.46375496938,
			"0.018": 1.04738989588,
			"0.019": 0.0279098882007,
			"0.02": 0.0,
			"0.021": 0.0,
			"0.022": 0.0,
			"0.023": 0.0,
			"0.024": 0.0,
			"0.025": 0.0
		}
	}
}
