{
	 "smiles": "NC1=C(N)C(=CC(F)=C1)C(O)=O", 
	 "Tm": 453.15, 
	 "num_atms": 19, 
	 "gaussian": { 
		 "optdone": 1, 
		 "sigma_profile": "yes", 
		 "theory": "DFT", 
		 "functional": "B3LYP", 
		 "basiset": "6-31G**", 
		 "properties": { 
			 "R2extent": 2537.505, 
			 "electric_dipole_moment_norm": 3.90165373271, 
			 "electric_quadrupole_moment_norm": 12.9295217205, 
			 "total_energy": -630.767388896, 
			 "HOMO_LUMO_gap": 0.15669, 
			 "cosmo_polarized_energy": -16.21, 
			 "cosmo_cavitation_energy": 23.39, 
			 "cosmo_dispersion_energy": -17.76, 
			 "cosmo_repulsion_energy": 1.38, 
			 "cosmo_total_nonelectrostatic_energy": 7.01, 
			 "SMD_solvation_energy": 5.45 
		},
		"coords": [
			{
				"x": 1.1463224042,
				"y": -1.0677583593,
				"z": 1.1975324645,
				"element": "N" 
			},
			{
				"x": 0.2456139604,
				"y": -0.9386808276,
				"z": 0.1359044364,
				"element": "C" 
			},
			{
				"x": -0.1075331333,
				"y": 0.3857242383,
				"z": -0.2623227662,
				"element": "C" 
			},
			{
				"x": 0.5256093264,
				"y": 1.430430515,
				"z": 0.3962232108,
				"element": "N" 
			},
			{
				"x": -1.0384425578,
				"y": 0.5586303429,
				"z": -1.3111853366,
				"element": "C" 
			},
			{
				"x": -1.5743476541,
				"y": -0.5714546382,
				"z": -1.973681912,
				"element": "C" 
			},
			{
				"x": -1.219972225,
				"y": -1.8327332144,
				"z": -1.5495756419,
				"element": "C" 
			},
			{
				"x": -1.7247851621,
				"y": -2.9151453604,
				"z": -2.1830039319,
				"element": "F" 
			},
			{
				"x": -0.322871841,
				"y": -2.0365987384,
				"z": -0.5013029993,
				"element": "C" 
			},
			{
				"x": -1.4782831027,
				"y": 1.9300241851,
				"z": -1.6816951833,
				"element": "C" 
			},
			{
				"x": -2.6213748271,
				"y": 2.037796795,
				"z": -2.4060030013,
				"element": "O" 
			},
			{
				"x": -0.8940542533,
				"y": 2.9523035202,
				"z": -1.366251131,
				"element": "O" 
			},
			{
				"x": 1.9038953265,
				"y": -0.3933866234,
				"z": 1.1500079175,
				"element": "H" 
			},
			{
				"x": 1.4981571796,
				"y": -2.0070249375,
				"z": 1.3303360086,
				"element": "H" 
			},
			{
				"x": 0.571832337,
				"y": 1.318459297,
				"z": 1.4025729291,
				"element": "H" 
			},
			{
				"x": 0.2223639874,
				"y": 2.3469334703,
				"z": 0.0806466903,
				"element": "H" 
			},
			{
				"x": -2.2180846413,
				"y": -0.4813123951,
				"z": -2.8422919848,
				"element": "H" 
			},
			{
				"x": -0.0532441395,
				"y": -3.0498706772,
				"z": -0.2205417359,
				"element": "H" 
			},
			{
				"x": -3.0790009842,
				"y": 1.1863634077,
				"z": -2.4324680331,
				"element": "H" 
			}
		],
		 "valence_orbital": [ 
			{
				"type": "occ",
				"energy": -0.31369,
				"method": "rhf"
			},
			{
				"type": "occ",
				"energy": -0.30852,
				"method": "rhf"
			},
			{
				"type": "occ",
				"energy": -0.27607,
				"method": "rhf"
			},
			{
				"type": "occ",
				"energy": -0.24555,
				"method": "rhf"
			},
			{
				"type": "occ",
				"energy": -0.20419,
				"method": "rhf"
			},
			{
				"type": "unocc",
				"energy": -0.0475,
				"method": "rhf"
			},
			{
				"type": "unocc",
				"energy": 0.00611,
				"method": "rhf"
			},
			{
				"type": "unocc",
				"energy": 0.05273,
				"method": "rhf"
			},
			{
				"type": "unocc",
				"energy": 0.06425,
				"method": "rhf"
			},
			{
				"type": "unocc",
				"energy": 0.07199,
				"method": "rhf"
			}
		],
		"cosmo_sigma_profile": { 
			"-0.025": 0.0,
			"-0.024": 0.0,
			"-0.023": 0.0,
			"-0.022": 0.0,
			"-0.021": 0.0,
			"-0.02": 0.0,
			"-0.019": 0.0390763789106,
			"-0.018": 0.722576583279,
			"-0.017": 0.748387277588,
			"-0.016": 0.901401706478,
			"-0.015": 1.02945546394,
			"-0.014": 0.988581707073,
			"-0.013": 1.71869170782,
			"-0.012": 3.67920194402,
			"-0.011": 4.71620504052,
			"-0.01": 5.73728717725,
			"-0.009": 5.06472955851,
			"-0.008": 6.10173438144,
			"-0.007": 6.55196405163,
			"-0.006": 6.08720193941,
			"-0.005": 5.68540081372,
			"-0.004": 4.99229414995,
			"-0.003": 6.32419120177,
			"-0.002": 7.94176747872,
			"-0.001": 8.30632348738,
			"0.0": 8.08588895586,
			"0.001": 11.181965903,
			"0.002": 15.3006352079,
			"0.003": 17.3826825802,
			"0.004": 14.3705009533,
			"0.005": 10.1689899863,
			"0.006": 3.80292945746,
			"0.007": 4.25308191644,
			"0.008": 3.97735770038,
			"0.009": 4.20005350083,
			"0.01": 5.04841059231,
			"0.011": 5.40181728978,
			"0.012": 3.74198534257,
			"0.013": 1.96124353137,
			"0.014": 0.257538160034,
			"0.015": 0.0,
			"0.016": 0.0,
			"0.017": 0.0,
			"0.018": 0.0,
			"0.019": 0.0,
			"0.02": 0.0,
			"0.021": 0.0,
			"0.022": 0.0,
			"0.023": 0.0,
			"0.024": 0.0,
			"0.025": 0.0
		}
	}
}
