{
	 "smiles": "NC(=O)NC(CC1=CNC2=C1C=CC=C2)C(O)=O", 
	 "Tm": 473.15, 
	 "num_atms": 31, 
	 "gaussian": { 
		 "optdone": 1, 
		 "sigma_profile": "yes", 
		 "theory": "DFT", 
		 "functional": "B3LYP", 
		 "basiset": "6-31G**", 
		 "properties": { 
			 "R2extent": 4529.4576, 
			 "electric_dipole_moment_norm": 5.84702523511, 
			 "electric_quadrupole_moment_norm": 17.9992791453, 
			 "total_energy": -855.082835563, 
			 "HOMO_LUMO_gap": 0.19191, 
			 "cosmo_polarized_energy": -26.68, 
			 "cosmo_cavitation_energy": 34.76, 
			 "cosmo_dispersion_energy": -24.11, 
			 "cosmo_repulsion_energy": 1.87, 
			 "cosmo_total_nonelectrostatic_energy": 12.52, 
			 "SMD_solvation_energy": 6.81 
		},
		"coords": [
			{
				"x": -3.7499281375,
				"y": -0.6084602031,
				"z": -0.2783119912,
				"element": "N" 
			},
			{
				"x": -2.5008931103,
				"y": -1.2175250041,
				"z": -0.3692548596,
				"element": "C" 
			},
			{
				"x": -2.2698089922,
				"y": -2.304457504,
				"z": 0.1469710862,
				"element": "O" 
			},
			{
				"x": -1.5382433563,
				"y": -0.504819184,
				"z": -1.0530802062,
				"element": "N" 
			},
			{
				"x": -1.5340475748,
				"y": 0.9302726389,
				"z": -1.2537479141,
				"element": "C" 
			},
			{
				"x": -1.3576155756,
				"y": 1.7733266275,
				"z": 0.0525187901,
				"element": "C" 
			},
			{
				"x": 0.0203378877,
				"y": 1.7585810989,
				"z": 0.6516027798,
				"element": "C" 
			},
			{
				"x": 0.9234233931,
				"y": 2.790456583,
				"z": 0.5519364276,
				"element": "C" 
			},
			{
				"x": 2.0887696793,
				"y": 2.4692229072,
				"z": 1.2166711481,
				"element": "N" 
			},
			{
				"x": 1.9631397809,
				"y": 1.2101988267,
				"z": 1.7689507779,
				"element": "C" 
			},
			{
				"x": 0.6681846999,
				"y": 0.7245798144,
				"z": 1.4315320532,
				"element": "C" 
			},
			{
				"x": 0.2912869284,
				"y": -0.554340764,
				"z": 1.8864304255,
				"element": "C" 
			},
			{
				"x": 1.1913590487,
				"y": -1.2909422428,
				"z": 2.6464764969,
				"element": "C" 
			},
			{
				"x": 2.4679373407,
				"y": -0.7863662166,
				"z": 2.9673035231,
				"element": "C" 
			},
			{
				"x": 2.8717563036,
				"y": 0.4699166259,
				"z": 2.5326834961,
				"element": "C" 
			},
			{
				"x": -0.4277012305,
				"y": 1.2597875484,
				"z": -2.2470029824,
				"element": "C" 
			},
			{
				"x": -0.5249007849,
				"y": 2.5370904211,
				"z": -2.6827398448,
				"element": "O" 
			},
			{
				"x": 0.4488880591,
				"y": 0.5051927007,
				"z": -2.5982887414,
				"element": "O" 
			},
			{
				"x": -4.4510989333,
				"y": -1.2526223558,
				"z": 0.0606605359,
				"element": "H" 
			},
			{
				"x": -4.0583976471,
				"y": -0.0355783802,
				"z": -1.052017513,
				"element": "H" 
			},
			{
				"x": -0.6286280531,
				"y": -0.9489858752,
				"z": -1.0545844584,
				"element": "H" 
			},
			{
				"x": -2.4755623652,
				"y": 1.2456810202,
				"z": -1.7208784283,
				"element": "H" 
			},
			{
				"x": -1.6330472568,
				"y": 2.8059740565,
				"z": -0.1862698332,
				"element": "H" 
			},
			{
				"x": -2.1037785185,
				"y": 1.4006889263,
				"z": 0.7627866728,
				"element": "H" 
			},
			{
				"x": 0.8146436832,
				"y": 3.7468604382,
				"z": 0.0592351154,
				"element": "H" 
			},
			{
				"x": 2.8959152126,
				"y": 3.0647662936,
				"z": 1.2997293461,
				"element": "H" 
			},
			{
				"x": -0.6768487812,
				"y": -0.9791821564,
				"z": 1.6422761431,
				"element": "H" 
			},
			{
				"x": 0.9072239613,
				"y": -2.2791299244,
				"z": 2.9955905222,
				"element": "H" 
			},
			{
				"x": 3.1479968575,
				"y": -1.389767958,
				"z": 3.5615920374,
				"element": "H" 
			},
			{
				"x": 3.8554336213,
				"y": 0.8623290097,
				"z": 2.7758921872,
				"element": "H" 
			},
			{
				"x": 0.2322038601,
				"y": 2.6782522314,
				"z": -3.2759627919,
				"element": "H" 
			}
		],
		 "valence_orbital": [ 
			{
				"type": "occ",
				"energy": -0.26784,
				"method": "rhf"
			},
			{
				"type": "occ",
				"energy": -0.25622,
				"method": "rhf"
			},
			{
				"type": "occ",
				"energy": -0.24408,
				"method": "rhf"
			},
			{
				"type": "occ",
				"energy": -0.21542,
				"method": "rhf"
			},
			{
				"type": "occ",
				"energy": -0.1969,
				"method": "rhf"
			},
			{
				"type": "unocc",
				"energy": -0.00499,
				"method": "rhf"
			},
			{
				"type": "unocc",
				"energy": -0.00212,
				"method": "rhf"
			},
			{
				"type": "unocc",
				"energy": 0.03324,
				"method": "rhf"
			},
			{
				"type": "unocc",
				"energy": 0.04928,
				"method": "rhf"
			},
			{
				"type": "unocc",
				"energy": 0.05903,
				"method": "rhf"
			}
		],
		"cosmo_sigma_profile": { 
			"-0.025": 0.0,
			"-0.024": 0.0,
			"-0.023": 0.0,
			"-0.022": 0.0,
			"-0.021": 0.0,
			"-0.02": 0.0,
			"-0.019": 0.316710702484,
			"-0.018": 1.05470853462,
			"-0.017": 0.899735161672,
			"-0.016": 1.10249814476,
			"-0.015": 2.59713544908,
			"-0.014": 3.49666652068,
			"-0.013": 3.95951360246,
			"-0.012": 4.47332469139,
			"-0.011": 4.6063146229,
			"-0.01": 4.31576358885,
			"-0.009": 5.85101141418,
			"-0.008": 6.83286720531,
			"-0.007": 7.16885067518,
			"-0.006": 8.02303708928,
			"-0.005": 11.6027440305,
			"-0.004": 15.4998693435,
			"-0.003": 15.4215828658,
			"-0.002": 15.7769669263,
			"-0.001": 15.2110927204,
			"0.0": 13.7300259731,
			"0.001": 13.4522747566,
			"0.002": 11.9003644894,
			"0.003": 13.532782279,
			"0.004": 15.9602373008,
			"0.005": 20.2797189697,
			"0.006": 14.7947314493,
			"0.007": 11.4592897789,
			"0.008": 6.44062586298,
			"0.009": 3.76217263608,
			"0.01": 4.89359823199,
			"0.011": 5.20648531021,
			"0.012": 1.93756762829,
			"0.013": 1.90171933691,
			"0.014": 5.44873891307,
			"0.015": 2.28252432726,
			"0.016": 0.0,
			"0.017": 0.0,
			"0.018": 0.0,
			"0.019": 0.0,
			"0.02": 0.0,
			"0.021": 0.0,
			"0.022": 0.0,
			"0.023": 0.0,
			"0.024": 0.0,
			"0.025": 0.0
		}
	}
}
