{
	 "smiles": "OC(=O)CN(CC(O)=O)CC1=CC=CC=C1", 
	 "Tm": 474.15, 
	 "num_atms": 29, 
	 "gaussian": { 
		 "optdone": 1, 
		 "sigma_profile": "yes", 
		 "theory": "DFT", 
		 "functional": "B3LYP", 
		 "basiset": "6-31G**", 
		 "properties": { 
			 "R2extent": 3999.6914, 
			 "electric_dipole_moment_norm": 4.71532836714, 
			 "electric_quadrupole_moment_norm": 21.8958562246, 
			 "total_energy": -782.663112508, 
			 "HOMO_LUMO_gap": 0.22149, 
			 "cosmo_polarized_energy": -20.31, 
			 "cosmo_cavitation_energy": 32.71, 
			 "cosmo_dispersion_energy": -22.2, 
			 "cosmo_repulsion_energy": 1.74, 
			 "cosmo_total_nonelectrostatic_energy": 12.25, 
			 "SMD_solvation_energy": 7.58 
		},
		"coords": [
			{
				"x": -2.7385059236,
				"y": -1.6259301954,
				"z": 0.6028599442,
				"element": "O" 
			},
			{
				"x": -2.8159220204,
				"y": -1.1150364829,
				"z": 1.8414686241,
				"element": "C" 
			},
			{
				"x": -3.7291643428,
				"y": -1.3492949686,
				"z": 2.5956587993,
				"element": "O" 
			},
			{
				"x": -1.6669032673,
				"y": -0.1632002926,
				"z": 2.2131874038,
				"element": "C" 
			},
			{
				"x": -0.5207894295,
				"y": -0.3063043062,
				"z": 1.3133550431,
				"element": "N" 
			},
			{
				"x": 0.3265213564,
				"y": -1.451348592,
				"z": 1.6563326317,
				"element": "C" 
			},
			{
				"x": 0.9128375862,
				"y": -2.2011708473,
				"z": 0.4664431974,
				"element": "C" 
			},
			{
				"x": 0.0368901911,
				"y": -2.2919350387,
				"z": -0.5616237083,
				"element": "O" 
			},
			{
				"x": 1.998489888,
				"y": -2.7314733394,
				"z": 0.4618402334,
				"element": "O" 
			},
			{
				"x": 0.2487369613,
				"y": 0.9411243776,
				"z": 1.1351285709,
				"element": "C" 
			},
			{
				"x": 1.2006942942,
				"y": 0.9069397448,
				"z": -0.0435863408,
				"element": "C" 
			},
			{
				"x": 0.7025882023,
				"y": 0.854126698,
				"z": -1.3538629287,
				"element": "C" 
			},
			{
				"x": 1.5707639541,
				"y": 0.8487541412,
				"z": -2.4433965502,
				"element": "C" 
			},
			{
				"x": 2.9532866118,
				"y": 0.8963626946,
				"z": -2.2385544965,
				"element": "C" 
			},
			{
				"x": 3.459211554,
				"y": 0.9492709841,
				"z": -0.9404304018,
				"element": "C" 
			},
			{
				"x": 2.5853430631,
				"y": 0.9550036969,
				"z": 0.1496429138,
				"element": "C" 
			},
			{
				"x": -1.8981676049,
				"y": -1.310987479,
				"z": 0.2065691121,
				"element": "H" 
			},
			{
				"x": -1.4333785722,
				"y": -0.3109225002,
				"z": 3.2772867227,
				"element": "H" 
			},
			{
				"x": -2.0665286745,
				"y": 0.8521656148,
				"z": 2.1178112505,
				"element": "H" 
			},
			{
				"x": -0.2801944337,
				"y": -2.1905290606,
				"z": 2.1931831187,
				"element": "H" 
			},
			{
				"x": 1.1645451164,
				"y": -1.185095609,
				"z": 2.3150254723,
				"element": "H" 
			},
			{
				"x": 0.4738043498,
				"y": -2.816967107,
				"z": -1.2528262972,
				"element": "H" 
			},
			{
				"x": 0.8132639595,
				"y": 1.1881118491,
				"z": 2.0508611016,
				"element": "H" 
			},
			{
				"x": -0.4812010375,
				"y": 1.7437493891,
				"z": 0.9832950357,
				"element": "H" 
			},
			{
				"x": -0.3713483846,
				"y": 0.813855541,
				"z": -1.5147579886,
				"element": "H" 
			},
			{
				"x": 1.1713191063,
				"y": 0.8127910725,
				"z": -3.4530254974,
				"element": "H" 
			},
			{
				"x": 3.6300885865,
				"y": 0.8935679781,
				"z": -3.0880573551,
				"element": "H" 
			},
			{
				"x": 4.5316164815,
				"y": 0.9840234497,
				"z": -0.7729739538,
				"element": "H" 
			},
			{
				"x": 2.9842024285,
				"y": 0.9977485875,
				"z": 1.1601463433,
				"element": "H" 
			}
		],
		 "valence_orbital": [ 
			{
				"type": "occ",
				"energy": -0.2928,
				"method": "rhf"
			},
			{
				"type": "occ",
				"energy": -0.27192,
				"method": "rhf"
			},
			{
				"type": "occ",
				"energy": -0.26182,
				"method": "rhf"
			},
			{
				"type": "occ",
				"energy": -0.2573,
				"method": "rhf"
			},
			{
				"type": "occ",
				"energy": -0.24851,
				"method": "rhf"
			},
			{
				"type": "unocc",
				"energy": -0.02702,
				"method": "rhf"
			},
			{
				"type": "unocc",
				"energy": -0.01255,
				"method": "rhf"
			},
			{
				"type": "unocc",
				"energy": 0.0017,
				"method": "rhf"
			},
			{
				"type": "unocc",
				"energy": 0.01603,
				"method": "rhf"
			},
			{
				"type": "unocc",
				"energy": 0.0575,
				"method": "rhf"
			}
		],
		"cosmo_sigma_profile": { 
			"-0.025": 0.0,
			"-0.024": 0.0,
			"-0.023": 0.0,
			"-0.022": 0.0,
			"-0.021": 0.0,
			"-0.02": 0.0,
			"-0.019": 0.199135179805,
			"-0.018": 0.865812288735,
			"-0.017": 1.1889143148,
			"-0.016": 0.388283529256,
			"-0.015": 0.599142329868,
			"-0.014": 0.457886790968,
			"-0.013": 0.817799462078,
			"-0.012": 1.1521517058,
			"-0.011": 0.813341377107,
			"-0.01": 0.555327705496,
			"-0.009": 3.73071108174,
			"-0.008": 7.26166003063,
			"-0.007": 7.61504234368,
			"-0.006": 16.6260548697,
			"-0.005": 26.4775512294,
			"-0.004": 25.9528532113,
			"-0.003": 18.6652818468,
			"-0.002": 13.2278091784,
			"-0.001": 12.3651550144,
			"0.0": 9.41740558738,
			"0.001": 10.0723888393,
			"0.002": 11.6058130397,
			"0.003": 12.9483742573,
			"0.004": 11.83738979,
			"0.005": 12.2807920369,
			"0.006": 9.02317408582,
			"0.007": 3.82883432116,
			"0.008": 3.7637272008,
			"0.009": 4.94132574174,
			"0.01": 7.22193702232,
			"0.011": 8.67899924599,
			"0.012": 9.68747860619,
			"0.013": 3.66206550401,
			"0.014": 0.445593167468,
			"0.015": 0.0,
			"0.016": 0.0,
			"0.017": 0.0,
			"0.018": 0.0,
			"0.019": 0.0,
			"0.02": 0.0,
			"0.021": 0.0,
			"0.022": 0.0,
			"0.023": 0.0,
			"0.024": 0.0,
			"0.025": 0.0
		}
	}
}
