{
	 "smiles": "COC(=O)C1=C(N)C2=CC=CC=C2S1", 
	 "Tm": 381.15, 
	 "num_atms": 23, 
	 "gaussian": { 
		 "optdone": 1, 
		 "sigma_profile": "yes", 
		 "theory": "DFT", 
		 "functional": "B3LYP", 
		 "basiset": "6-31G**", 
		 "properties": { 
			 "R2extent": 5179.3655, 
			 "electric_dipole_moment_norm": 1.70286514733, 
			 "electric_quadrupole_moment_norm": 13.9178896662, 
			 "total_energy": -989.898089621, 
			 "HOMO_LUMO_gap": 0.14815, 
			 "cosmo_polarized_energy": -11.11, 
			 "cosmo_cavitation_energy": 28.5, 
			 "cosmo_dispersion_energy": -21.88, 
			 "cosmo_repulsion_energy": 1.66, 
			 "cosmo_total_nonelectrostatic_energy": 8.27, 
			 "SMD_solvation_energy": 5.6 
		},
		"coords": [
			{
				"x": -2.3010501531,
				"y": 0.5368082264,
				"z": 3.7377638056,
				"element": "C" 
			},
			{
				"x": -2.5921716234,
				"y": 0.3076821119,
				"z": 2.3523158666,
				"element": "O" 
			},
			{
				"x": -1.5174350441,
				"y": 0.0828870049,
				"z": 1.5593940595,
				"element": "C" 
			},
			{
				"x": -0.3652772404,
				"y": 0.0744159478,
				"z": 1.9897392913,
				"element": "O" 
			},
			{
				"x": -1.8773463916,
				"y": -0.1505083218,
				"z": 0.1777443493,
				"element": "C" 
			},
			{
				"x": -0.958798741,
				"y": -0.4283062938,
				"z": -0.8242952457,
				"element": "C" 
			},
			{
				"x": 0.3969487955,
				"y": -0.4260043384,
				"z": -0.652715751,
				"element": "N" 
			},
			{
				"x": -1.6037298538,
				"y": -0.6759887587,
				"z": -2.0984270811,
				"element": "C" 
			},
			{
				"x": -1.009390765,
				"y": -0.9739776011,
				"z": -3.3374416797,
				"element": "C" 
			},
			{
				"x": -1.812239486,
				"y": -1.183706742,
				"z": -4.4494423765,
				"element": "C" 
			},
			{
				"x": -3.2127071942,
				"y": -1.0930972712,
				"z": -4.3443285053,
				"element": "C" 
			},
			{
				"x": -3.8209110288,
				"y": -0.7883422912,
				"z": -3.1322291396,
				"element": "C" 
			},
			{
				"x": -3.012682922,
				"y": -0.5794102403,
				"z": -2.0080404379,
				"element": "C" 
			},
			{
				"x": -3.5535435291,
				"y": -0.1714608737,
				"z": -0.3929069419,
				"element": "S" 
			},
			{
				"x": -1.8034270992,
				"y": -0.3314344367,
				"z": 4.177634315,
				"element": "H" 
			},
			{
				"x": -1.6553378208,
				"y": 1.4104901224,
				"z": 3.8580927732,
				"element": "H" 
			},
			{
				"x": -3.2659935755,
				"y": 0.7060163632,
				"z": 4.2156016254,
				"element": "H" 
			},
			{
				"x": 0.6992942462,
				"y": -0.3721807822,
				"z": 0.3146679643,
				"element": "H" 
			},
			{
				"x": 0.9522264947,
				"y": -0.9871724121,
				"z": -1.2797799836,
				"element": "H" 
			},
			{
				"x": 0.0721384678,
				"y": -1.0269361154,
				"z": -3.4299075178,
				"element": "H" 
			},
			{
				"x": -1.358793667,
				"y": -1.4133414719,
				"z": -5.4087021938,
				"element": "H" 
			},
			{
				"x": -3.8281954268,
				"y": -1.2591645306,
				"z": -5.2235847448,
				"element": "H" 
			},
			{
				"x": -4.9013764424,
				"y": -0.7129672953,
				"z": -3.0580524515,
				"element": "H" 
			}
		],
		 "valence_orbital": [ 
			{
				"type": "occ",
				"energy": -0.29585,
				"method": "rhf"
			},
			{
				"type": "occ",
				"energy": -0.27304,
				"method": "rhf"
			},
			{
				"type": "occ",
				"energy": -0.26256,
				"method": "rhf"
			},
			{
				"type": "occ",
				"energy": -0.2389,
				"method": "rhf"
			},
			{
				"type": "occ",
				"energy": -0.19663,
				"method": "rhf"
			},
			{
				"type": "unocc",
				"energy": -0.04848,
				"method": "rhf"
			},
			{
				"type": "unocc",
				"energy": -0.00781,
				"method": "rhf"
			},
			{
				"type": "unocc",
				"energy": 0.02556,
				"method": "rhf"
			},
			{
				"type": "unocc",
				"energy": 0.02737,
				"method": "rhf"
			},
			{
				"type": "unocc",
				"energy": 0.07292,
				"method": "rhf"
			}
		],
		"cosmo_sigma_profile": { 
			"-0.025": 0.0,
			"-0.024": 0.0,
			"-0.023": 0.0,
			"-0.022": 0.0,
			"-0.021": 0.0,
			"-0.02": 0.0,
			"-0.019": 0.0,
			"-0.018": 0.0,
			"-0.017": 0.0,
			"-0.016": 0.0,
			"-0.015": 0.0,
			"-0.014": 0.640363459559,
			"-0.013": 1.53413266412,
			"-0.012": 1.63870610541,
			"-0.011": 1.69384680574,
			"-0.01": 1.41590008651,
			"-0.009": 2.5339824932,
			"-0.008": 3.07175971683,
			"-0.007": 5.23607157231,
			"-0.006": 12.7851614053,
			"-0.005": 15.7314519644,
			"-0.004": 17.3277189952,
			"-0.003": 16.7078698896,
			"-0.002": 11.1410915091,
			"-0.001": 11.283274113,
			"0.0": 11.01724124,
			"0.001": 16.0656819915,
			"0.002": 18.5296740048,
			"0.003": 24.2691877042,
			"0.004": 20.5739792494,
			"0.005": 13.1689844207,
			"0.006": 7.2310166228,
			"0.007": 4.95255731635,
			"0.008": 2.27729993567,
			"0.009": 2.06603952719,
			"0.01": 2.18984855456,
			"0.011": 2.14070203767,
			"0.012": 2.25697932262,
			"0.013": 0.737936164299,
			"0.014": 0.0,
			"0.015": 0.0,
			"0.016": 0.0,
			"0.017": 0.0,
			"0.018": 0.0,
			"0.019": 0.0,
			"0.02": 0.0,
			"0.021": 0.0,
			"0.022": 0.0,
			"0.023": 0.0,
			"0.024": 0.0,
			"0.025": 0.0
		}
	}
}
