{
	 "smiles": "CCOC(=O)C1=CC2=C(OC1=O)C1=CC=C(OC)C=C1CC2", 
	 "Tm": 415.15, 
	 "num_atms": 38, 
	 "gaussian": { 
		 "optdone": 1, 
		 "sigma_profile": "yes", 
		 "theory": "DFT", 
		 "functional": "B3LYP", 
		 "basiset": "6-31G**", 
		 "properties": { 
			 "R2extent": 10590.3544, 
			 "electric_dipole_moment_norm": 9.03216320103, 
			 "electric_quadrupole_moment_norm": 23.1770897668, 
			 "total_energy": -1033.58400567, 
			 "HOMO_LUMO_gap": 0.13029, 
			 "cosmo_polarized_energy": -21.44, 
			 "cosmo_cavitation_energy": 42.1, 
			 "cosmo_dispersion_energy": -30.5, 
			 "cosmo_repulsion_energy": 2.33, 
			 "cosmo_total_nonelectrostatic_energy": 13.93, 
			 "SMD_solvation_energy": 9.5 
		},
		"coords": [
			{
				"x": -6.4256074447,
				"y": -0.0425361674,
				"z": -3.255963514,
				"element": "C" 
			},
			{
				"x": -6.2551147711,
				"y": -0.5449709421,
				"z": -1.8343765293,
				"element": "C" 
			},
			{
				"x": -4.8408296567,
				"y": -0.5778933139,
				"z": -1.5524991007,
				"element": "O" 
			},
			{
				"x": -4.506142535,
				"y": -1.0085219923,
				"z": -0.302099516,
				"element": "C" 
			},
			{
				"x": -5.3339412573,
				"y": -1.3399242899,
				"z": 0.518737996,
				"element": "O" 
			},
			{
				"x": -3.0327095179,
				"y": -1.0071903665,
				"z": -0.1114159573,
				"element": "C" 
			},
			{
				"x": -2.1773256623,
				"y": -0.615452528,
				"z": -1.1194283131,
				"element": "C" 
			},
			{
				"x": -0.7737441289,
				"y": -0.5928302805,
				"z": -0.9701390637,
				"element": "C" 
			},
			{
				"x": -0.2632395527,
				"y": -0.9819936989,
				"z": 0.2476010529,
				"element": "C" 
			},
			{
				"x": -1.0639358595,
				"y": -1.3715352135,
				"z": 1.2523574076,
				"element": "O" 
			},
			{
				"x": -2.494499396,
				"y": -1.4388735771,
				"z": 1.1725716822,
				"element": "C" 
			},
			{
				"x": -3.0519376591,
				"y": -1.8335466961,
				"z": 2.1606268754,
				"element": "O" 
			},
			{
				"x": 1.1655370812,
				"y": -1.021977631,
				"z": 0.5282334558,
				"element": "C" 
			},
			{
				"x": 1.6845669466,
				"y": -1.6782838478,
				"z": 1.660642642,
				"element": "C" 
			},
			{
				"x": 3.0481446308,
				"y": -1.7132508963,
				"z": 1.8905512551,
				"element": "C" 
			},
			{
				"x": 3.9266564062,
				"y": -1.0850671044,
				"z": 0.9903748182,
				"element": "C" 
			},
			{
				"x": 5.2461049676,
				"y": -1.1790163807,
				"z": 1.2964747783,
				"element": "O" 
			},
			{
				"x": 6.1944520761,
				"y": -0.5646820596,
				"z": 0.4342015715,
				"element": "C" 
			},
			{
				"x": 3.4188792675,
				"y": -0.417832742,
				"z": -0.1342489614,
				"element": "C" 
			},
			{
				"x": 2.0445271394,
				"y": -0.3804094057,
				"z": -0.3702742764,
				"element": "C" 
			},
			{
				"x": 1.4655756961,
				"y": 0.4056672368,
				"z": -1.5294922574,
				"element": "C" 
			},
			{
				"x": 0.1866446708,
				"y": -0.2381021717,
				"z": -2.0838872067,
				"element": "C" 
			},
			{
				"x": -6.007717458,
				"y": 0.9622144436,
				"z": -3.3694487437,
				"element": "H" 
			},
			{
				"x": -7.4892002218,
				"y": -0.0024210526,
				"z": -3.5110926999,
				"element": "H" 
			},
			{
				"x": -5.9268830476,
				"y": -0.7059823891,
				"z": -3.9688106739,
				"element": "H" 
			},
			{
				"x": -6.6682013229,
				"y": -1.550123887,
				"z": -1.701923285,
				"element": "H" 
			},
			{
				"x": -6.7481782995,
				"y": 0.1073072938,
				"z": -1.1064523178,
				"element": "H" 
			},
			{
				"x": -2.6119081546,
				"y": -0.3133654456,
				"z": -2.0671344131,
				"element": "H" 
			},
			{
				"x": 1.0004050526,
				"y": -2.1617728185,
				"z": 2.3491154971,
				"element": "H" 
			},
			{
				"x": 3.4649934832,
				"y": -2.2206976801,
				"z": 2.7536735903,
				"element": "H" 
			},
			{
				"x": 6.0433516821,
				"y": 0.5203915589,
				"z": 0.3769316702,
				"element": "H" 
			},
			{
				"x": 6.1542887046,
				"y": -0.9893712292,
				"z": -0.5764982013,
				"element": "H" 
			},
			{
				"x": 7.1724193985,
				"y": -0.768923977,
				"z": 0.8715926439,
				"element": "H" 
			},
			{
				"x": 4.0843755903,
				"y": 0.0810708519,
				"z": -0.8295536837,
				"element": "H" 
			},
			{
				"x": 2.2114473644,
				"y": 0.5187495808,
				"z": -2.322736898,
				"element": "H" 
			},
			{
				"x": 1.2291419711,
				"y": 1.4195709292,
				"z": -1.1738685682,
				"element": "H" 
			},
			{
				"x": 0.4490477589,
				"y": -1.1470387046,
				"z": -2.6455208227,
				"element": "H" 
			},
			{
				"x": -0.2954439425,
				"y": 0.4394165943,
				"z": -2.7964219331,
				"element": "H" 
			}
		],
		 "valence_orbital": [ 
			{
				"type": "occ",
				"energy": -0.27777,
				"method": "rhf"
			},
			{
				"type": "occ",
				"energy": -0.26395,
				"method": "rhf"
			},
			{
				"type": "occ",
				"energy": -0.25431,
				"method": "rhf"
			},
			{
				"type": "occ",
				"energy": -0.24844,
				"method": "rhf"
			},
			{
				"type": "occ",
				"energy": -0.20958,
				"method": "rhf"
			},
			{
				"type": "unocc",
				"energy": -0.07929,
				"method": "rhf"
			},
			{
				"type": "unocc",
				"energy": -0.01992,
				"method": "rhf"
			},
			{
				"type": "unocc",
				"energy": -0.00726,
				"method": "rhf"
			},
			{
				"type": "unocc",
				"energy": 0.01405,
				"method": "rhf"
			},
			{
				"type": "unocc",
				"energy": 0.05607,
				"method": "rhf"
			}
		],
		"cosmo_sigma_profile": { 
			"-0.025": 0.0,
			"-0.024": 0.0,
			"-0.023": 0.0,
			"-0.022": 0.0,
			"-0.021": 0.0,
			"-0.02": 0.0,
			"-0.019": 0.0,
			"-0.018": 0.0,
			"-0.017": 0.0,
			"-0.016": 0.0,
			"-0.015": 0.0,
			"-0.014": 0.0,
			"-0.013": 0.0,
			"-0.012": 0.0,
			"-0.011": 0.0,
			"-0.01": 0.0,
			"-0.009": 0.0,
			"-0.008": 0.340403289906,
			"-0.007": 4.48165646445,
			"-0.006": 15.5635288463,
			"-0.005": 26.471149955,
			"-0.004": 37.9068857237,
			"-0.003": 39.3965669008,
			"-0.002": 39.5913300362,
			"-0.001": 30.9725362576,
			"0.0": 26.6191867653,
			"0.001": 16.3078824606,
			"0.002": 17.0081159152,
			"0.003": 19.6114290864,
			"0.004": 10.6158030553,
			"0.005": 6.04987225076,
			"0.006": 3.22945341404,
			"0.007": 4.50246464228,
			"0.008": 3.95638483965,
			"0.009": 4.42385261727,
			"0.01": 4.06574663135,
			"0.011": 4.92675821712,
			"0.012": 9.54772205292,
			"0.013": 4.01345743132,
			"0.014": 2.04794731273,
			"0.015": 1.22189787387,
			"0.016": 1.29635875926,
			"0.017": 0.495781465582,
			"0.018": 0.0,
			"0.019": 0.0,
			"0.02": 0.0,
			"0.021": 0.0,
			"0.022": 0.0,
			"0.023": 0.0,
			"0.024": 0.0,
			"0.025": 0.0
		}
	}
}
