{
	 "smiles": "CC(C(=O)NCCO)C1=CC=C(C(F)=C1)C1=CC=CC=C1", 
	 "Tm": 368.15, 
	 "num_atms": 39, 
	 "gaussian": { 
		 "optdone": 1, 
		 "sigma_profile": "yes", 
		 "theory": "DFT", 
		 "functional": "B3LYP", 
		 "basiset": "6-31G**", 
		 "properties": { 
			 "R2extent": 8951.7106, 
			 "electric_dipole_moment_norm": 5.65830827545, 
			 "electric_quadrupole_moment_norm": 19.1934115818, 
			 "total_energy": -963.718128696, 
			 "HOMO_LUMO_gap": 0.18875, 
			 "cosmo_polarized_energy": -16.06, 
			 "cosmo_cavitation_energy": 42.14, 
			 "cosmo_dispersion_energy": -29.56, 
			 "cosmo_repulsion_energy": 2.27, 
			 "cosmo_total_nonelectrostatic_energy": 14.86, 
			 "SMD_solvation_energy": 7.03 
		},
		"coords": [
			{
				"x": -3.6238252817,
				"y": 0.3737404694,
				"z": 0.6758648427,
				"element": "C" 
			},
			{
				"x": -2.5748832611,
				"y": -0.3004207984,
				"z": -0.224665481,
				"element": "C" 
			},
			{
				"x": -2.5702287153,
				"y": -1.8290826063,
				"z": 0.0154785791,
				"element": "C" 
			},
			{
				"x": -3.5893871217,
				"y": -2.4036956236,
				"z": 0.408276305,
				"element": "O" 
			},
			{
				"x": -1.4212310499,
				"y": -2.4803794237,
				"z": -0.2847916894,
				"element": "N" 
			},
			{
				"x": -1.2727846429,
				"y": -3.9401931827,
				"z": -0.3147833973,
				"element": "C" 
			},
			{
				"x": -1.5365891227,
				"y": -4.6587353432,
				"z": 1.0209283471,
				"element": "C" 
			},
			{
				"x": -2.8938545574,
				"y": -4.9331308712,
				"z": 1.2591381975,
				"element": "O" 
			},
			{
				"x": -1.2049431194,
				"y": 0.3515786713,
				"z": -0.1272993269,
				"element": "C" 
			},
			{
				"x": -0.5819951948,
				"y": 0.9007784538,
				"z": -1.2558099536,
				"element": "C" 
			},
			{
				"x": 0.669651445,
				"y": 1.508450206,
				"z": -1.1620506783,
				"element": "C" 
			},
			{
				"x": 1.364573202,
				"y": 1.6006766289,
				"z": 0.0550465691,
				"element": "C" 
			},
			{
				"x": 0.7184690772,
				"y": 1.0362771238,
				"z": 1.1664990285,
				"element": "C" 
			},
			{
				"x": 1.3171626082,
				"y": 1.0879778063,
				"z": 2.3780772983,
				"element": "F" 
			},
			{
				"x": -0.524949881,
				"y": 0.4263857201,
				"z": 1.0972859756,
				"element": "C" 
			},
			{
				"x": 2.6885283509,
				"y": 2.2677108102,
				"z": 0.1409425562,
				"element": "C" 
			},
			{
				"x": 3.7229940085,
				"y": 1.7588286034,
				"z": 0.9455954686,
				"element": "C" 
			},
			{
				"x": 4.9691433872,
				"y": 2.3821251931,
				"z": 0.9798111929,
				"element": "C" 
			},
			{
				"x": 5.2080335627,
				"y": 3.5275529994,
				"z": 0.2181200927,
				"element": "C" 
			},
			{
				"x": 4.1872567268,
				"y": 4.0479279803,
				"z": -0.5789504959,
				"element": "C" 
			},
			{
				"x": 2.940867,
				"y": 3.4248730152,
				"z": -0.6160643089,
				"element": "C" 
			},
			{
				"x": -3.341513626,
				"y": 0.3126519631,
				"z": 1.7309408803,
				"element": "H" 
			},
			{
				"x": -4.5868718354,
				"y": -0.1256983847,
				"z": 0.5608784713,
				"element": "H" 
			},
			{
				"x": -3.7266023601,
				"y": 1.42934066,
				"z": 0.4104543619,
				"element": "H" 
			},
			{
				"x": -2.9123876798,
				"y": -0.1930813693,
				"z": -1.2653521753,
				"element": "H" 
			},
			{
				"x": -0.6372232872,
				"y": -1.9179452826,
				"z": -0.5807739524,
				"element": "H" 
			},
			{
				"x": -0.244260561,
				"y": -4.1299966995,
				"z": -0.636288408,
				"element": "H" 
			},
			{
				"x": -1.9460913414,
				"y": -4.3683387918,
				"z": -1.0678635305,
				"element": "H" 
			},
			{
				"x": -1.0209440668,
				"y": -5.6265255437,
				"z": 0.987330229,
				"element": "H" 
			},
			{
				"x": -1.0696188206,
				"y": -4.0712580006,
				"z": 1.8315162988,
				"element": "H" 
			},
			{
				"x": -3.3757767492,
				"y": -4.1026422138,
				"z": 1.0819990187,
				"element": "H" 
			},
			{
				"x": -1.0812159748,
				"y": 0.8540945569,
				"z": -2.2199790873,
				"element": "H" 
			},
			{
				"x": 1.1357444695,
				"y": 1.9082235695,
				"z": -2.057215068,
				"element": "H" 
			},
			{
				"x": -0.9501289503,
				"y": 0.0214673047,
				"z": 2.0099165783,
				"element": "H" 
			},
			{
				"x": 3.5510832087,
				"y": 0.8694518706,
				"z": 1.5404679876,
				"element": "H" 
			},
			{
				"x": 5.757004288,
				"y": 1.9689699704,
				"z": 1.6031541178,
				"element": "H" 
			},
			{
				"x": 6.1792206717,
				"y": 4.0127359476,
				"z": 0.2492998731,
				"element": "H" 
			},
			{
				"x": 4.3573853756,
				"y": 4.9452551691,
				"z": -1.16702241,
				"element": "H" 
			},
			{
				"x": 2.1459898182,
				"y": 3.8516494423,
				"z": -1.2206123075,
				"element": "H" 
			}
		],
		 "valence_orbital": [ 
			{
				"type": "occ",
				"energy": -0.26185,
				"method": "rhf"
			},
			{
				"type": "occ",
				"energy": -0.25896,
				"method": "rhf"
			},
			{
				"type": "occ",
				"energy": -0.25713,
				"method": "rhf"
			},
			{
				"type": "occ",
				"energy": -0.24297,
				"method": "rhf"
			},
			{
				"type": "occ",
				"energy": -0.23249,
				"method": "rhf"
			},
			{
				"type": "unocc",
				"energy": -0.04374,
				"method": "rhf"
			},
			{
				"type": "unocc",
				"energy": -0.01693,
				"method": "rhf"
			},
			{
				"type": "unocc",
				"energy": -0.00747,
				"method": "rhf"
			},
			{
				"type": "unocc",
				"energy": 0.01017,
				"method": "rhf"
			},
			{
				"type": "unocc",
				"energy": 0.01423,
				"method": "rhf"
			}
		],
		"cosmo_sigma_profile": { 
			"-0.025": 0.0,
			"-0.024": 0.0,
			"-0.023": 0.0,
			"-0.022": 0.0,
			"-0.021": 0.0,
			"-0.02": 0.0,
			"-0.019": 0.0,
			"-0.018": 0.0,
			"-0.017": 0.0,
			"-0.016": 0.0,
			"-0.015": 0.0,
			"-0.014": 0.0222771351668,
			"-0.013": 0.671832818713,
			"-0.012": 0.664157269174,
			"-0.011": 0.832907261292,
			"-0.01": 0.955683181399,
			"-0.009": 1.56274347759,
			"-0.008": 1.27746765883,
			"-0.007": 6.77077565483,
			"-0.006": 18.4217998304,
			"-0.005": 25.4829218266,
			"-0.004": 27.2742292385,
			"-0.003": 30.7426746207,
			"-0.002": 25.8822302515,
			"-0.001": 24.6141884068,
			"0.0": 27.5351656585,
			"0.001": 26.5655968385,
			"0.002": 22.3732640449,
			"0.003": 21.7467330149,
			"0.004": 21.5693726277,
			"0.005": 17.5894864537,
			"0.006": 7.57782488841,
			"0.007": 2.21220885475,
			"0.008": 2.72002108999,
			"0.009": 2.42447818875,
			"0.01": 2.96378419685,
			"0.011": 3.34615537671,
			"0.012": 2.91801530242,
			"0.013": 1.99307500053,
			"0.014": 2.02307139949,
			"0.015": 2.52249418452,
			"0.016": 0.761726738958,
			"0.017": 0.0,
			"0.018": 0.0,
			"0.019": 0.0,
			"0.02": 0.0,
			"0.021": 0.0,
			"0.022": 0.0,
			"0.023": 0.0,
			"0.024": 0.0,
			"0.025": 0.0
		}
	}
}
