{
	 "smiles": "CN1SC(Cl)=CC1=O", 
	 "Tm": 325.15, 
	 "num_atms": 12, 
	 "gaussian": { 
		 "optdone": 1, 
		 "sigma_profile": "yes", 
		 "theory": "DFT", 
		 "functional": "B3LYP", 
		 "basiset": "6-31G**", 
		 "properties": { 
			 "R2extent": 3568.1559, 
			 "electric_dipole_moment_norm": 2.61582062458, 
			 "electric_quadrupole_moment_norm": 7.44563114853, 
			 "total_energy": -1143.16154844, 
			 "HOMO_LUMO_gap": 0.18511, 
			 "cosmo_polarized_energy": -8.3, 
			 "cosmo_cavitation_energy": 19.71, 
			 "cosmo_dispersion_energy": -15.44, 
			 "cosmo_repulsion_energy": 1.24, 
			 "cosmo_total_nonelectrostatic_energy": 5.5, 
			 "SMD_solvation_energy": 3.63 
		},
		"coords": [
			{
				"x": -2.6135663316,
				"y": -2.512665564,
				"z": 0.0568756576,
				"element": "C" 
			},
			{
				"x": -1.9849070179,
				"y": -1.7175819197,
				"z": -0.9847890515,
				"element": "N" 
			},
			{
				"x": -2.4524204545,
				"y": -1.8709517156,
				"z": -2.6365920747,
				"element": "S" 
			},
			{
				"x": -1.2681136206,
				"y": -0.649575573,
				"z": -3.0619509202,
				"element": "C" 
			},
			{
				"x": -1.1144716535,
				"y": -0.2012031011,
				"z": -4.723263467,
				"element": "Cl" 
			},
			{
				"x": -0.5770553112,
				"y": -0.1713949614,
				"z": -2.0117481042,
				"element": "C" 
			},
			{
				"x": -0.9722815311,
				"y": -0.7840413113,
				"z": -0.7337399095,
				"element": "C" 
			},
			{
				"x": -0.5306937224,
				"y": -0.5592068431,
				"z": 0.3853002342,
				"element": "O" 
			},
			{
				"x": -3.6872478438,
				"y": -2.3075971006,
				"z": 0.1222148697,
				"element": "H" 
			},
			{
				"x": -2.4557132336,
				"y": -3.5835596259,
				"z": -0.1085509743,
				"element": "H" 
			},
			{
				"x": -2.1307184404,
				"y": -2.2152783552,
				"z": 0.9894909288,
				"element": "H" 
			},
			{
				"x": 0.1949891606,
				"y": 0.5834560709,
				"z": -2.0602471888,
				"element": "H" 
			}
		],
		 "valence_orbital": [ 
			{
				"type": "occ",
				"energy": -0.3435,
				"method": "rhf"
			},
			{
				"type": "occ",
				"energy": -0.33345,
				"method": "rhf"
			},
			{
				"type": "occ",
				"energy": -0.27747,
				"method": "rhf"
			},
			{
				"type": "occ",
				"energy": -0.26348,
				"method": "rhf"
			},
			{
				"type": "occ",
				"energy": -0.22994,
				"method": "rhf"
			},
			{
				"type": "unocc",
				"energy": -0.04483,
				"method": "rhf"
			},
			{
				"type": "unocc",
				"energy": -0.03955,
				"method": "rhf"
			},
			{
				"type": "unocc",
				"energy": 0.00116,
				"method": "rhf"
			},
			{
				"type": "unocc",
				"energy": 0.06311,
				"method": "rhf"
			},
			{
				"type": "unocc",
				"energy": 0.075,
				"method": "rhf"
			}
		],
		"cosmo_sigma_profile": { 
			"-0.025": 0.0,
			"-0.024": 0.0,
			"-0.023": 0.0,
			"-0.022": 0.0,
			"-0.021": 0.0,
			"-0.02": 0.0,
			"-0.019": 0.0,
			"-0.018": 0.0,
			"-0.017": 0.0,
			"-0.016": 0.0,
			"-0.015": 0.0,
			"-0.014": 0.0,
			"-0.013": 0.0,
			"-0.012": 0.0,
			"-0.011": 0.0,
			"-0.01": 0.058030377339,
			"-0.009": 1.42187060649,
			"-0.008": 1.64069845092,
			"-0.007": 2.53489158264,
			"-0.006": 9.84413902602,
			"-0.005": 10.6321422165,
			"-0.004": 12.2507318217,
			"-0.003": 14.7445493391,
			"-0.002": 14.622064522,
			"-0.001": 17.5770157609,
			"0.0": 19.4560165966,
			"0.001": 14.5490002421,
			"0.002": 13.0571850287,
			"0.003": 7.75330820032,
			"0.004": 1.94337435933,
			"0.005": 1.364461809,
			"0.006": 1.52779687761,
			"0.007": 0.951929341775,
			"0.008": 2.0912356809,
			"0.009": 1.51846802303,
			"0.01": 0.266380630606,
			"0.011": 1.94788343091,
			"0.012": 1.89829170246,
			"0.013": 5.44095926433,
			"0.014": 3.33091074399,
			"0.015": 0.303661422844,
			"0.016": 0.0,
			"0.017": 0.0,
			"0.018": 0.0,
			"0.019": 0.0,
			"0.02": 0.0,
			"0.021": 0.0,
			"0.022": 0.0,
			"0.023": 0.0,
			"0.024": 0.0,
			"0.025": 0.0
		}
	}
}
