{
	 "smiles": "COC1=C2C(CC(O)=O)=CNC2=CC=C1", 
	 "Tm": 448.15, 
	 "num_atms": 26, 
	 "gaussian": { 
		 "optdone": 1, 
		 "sigma_profile": "yes", 
		 "theory": "DFT", 
		 "functional": "B3LYP", 
		 "basiset": "6-31G**", 
		 "properties": { 
			 "R2extent": 3526.2466, 
			 "electric_dipole_moment_norm": 5.90035568843, 
			 "electric_quadrupole_moment_norm": 37.022788341, 
			 "total_energy": -706.231886273, 
			 "HOMO_LUMO_gap": 0.18783, 
			 "cosmo_polarized_energy": -18.03, 
			 "cosmo_cavitation_energy": 29.4, 
			 "cosmo_dispersion_energy": -21.3, 
			 "cosmo_repulsion_energy": 1.64, 
			 "cosmo_total_nonelectrostatic_energy": 9.74, 
			 "SMD_solvation_energy": 6.59 
		},
		"coords": [
			{
				"x": -0.5857574542,
				"y": 0.1722562388,
				"z": -3.1628208637,
				"element": "C" 
			},
			{
				"x": -0.7624938006,
				"y": 0.6842720894,
				"z": -1.8434174867,
				"element": "O" 
			},
			{
				"x": 0.166325383,
				"y": 0.3489048045,
				"z": -0.8762873845,
				"element": "C" 
			},
			{
				"x": -0.0388971146,
				"y": 0.9223088658,
				"z": 0.3969258708,
				"element": "C" 
			},
			{
				"x": -1.0097791682,
				"y": 1.8348110258,
				"z": 0.9551234989,
				"element": "C" 
			},
			{
				"x": -2.1802281883,
				"y": 2.5070595527,
				"z": 0.2832765835,
				"element": "C" 
			},
			{
				"x": -3.419827395,
				"y": 1.607879894,
				"z": 0.1628701263,
				"element": "C" 
			},
			{
				"x": -3.3154004376,
				"y": 0.5822630672,
				"z": -0.7062610677,
				"element": "O" 
			},
			{
				"x": -4.4316222392,
				"y": 1.7896936154,
				"z": 0.7974563138,
				"element": "O" 
			},
			{
				"x": -0.6616742989,
				"y": 1.9972501237,
				"z": 2.273602046,
				"element": "C" 
			},
			{
				"x": 0.4624290999,
				"y": 1.2494295164,
				"z": 2.5632585368,
				"element": "N" 
			},
			{
				"x": 0.8714860944,
				"y": 0.580012891,
				"z": 1.4316680031,
				"element": "C" 
			},
			{
				"x": 1.961893259,
				"y": -0.2797024999,
				"z": 1.2366863313,
				"element": "C" 
			},
			{
				"x": 2.1307282269,
				"y": -0.806026786,
				"z": -0.0333688337,
				"element": "C" 
			},
			{
				"x": 1.2431385311,
				"y": -0.5021339756,
				"z": -1.0892255476,
				"element": "C" 
			},
			{
				"x": -1.4140035293,
				"y": 0.568091245,
				"z": -3.7517099808,
				"element": "H" 
			},
			{
				"x": 0.3642039177,
				"y": 0.5137940839,
				"z": -3.5881211053,
				"element": "H" 
			},
			{
				"x": -0.6195649943,
				"y": -0.9231448388,
				"z": -3.1736671468,
				"element": "H" 
			},
			{
				"x": -1.8923363587,
				"y": 2.8512766752,
				"z": -0.7168874325,
				"element": "H" 
			},
			{
				"x": -2.4910963771,
				"y": 3.3779564307,
				"z": 0.8631381929,
				"element": "H" 
			},
			{
				"x": -2.4375959391,
				"y": 0.5902794081,
				"z": -1.1388792835,
				"element": "H" 
			},
			{
				"x": -1.135774634,
				"y": 2.6015963021,
				"z": 3.0339097903,
				"element": "H" 
			},
			{
				"x": 0.9163815677,
				"y": 1.2052753865,
				"z": 3.4607320231,
				"element": "H" 
			},
			{
				"x": 2.6446515521,
				"y": -0.5217056985,
				"z": 2.0451732737,
				"element": "H" 
			},
			{
				"x": 2.9625496921,
				"y": -1.4752137643,
				"z": -0.2306533273,
				"element": "H" 
			},
			{
				"x": 1.4128646052,
				"y": -0.9488836532,
				"z": -2.0610211303,
				"element": "H" 
			}
		],
		 "valence_orbital": [ 
			{
				"type": "occ",
				"energy": -0.28881,
				"method": "rhf"
			},
			{
				"type": "occ",
				"energy": -0.27213,
				"method": "rhf"
			},
			{
				"type": "occ",
				"energy": -0.24582,
				"method": "rhf"
			},
			{
				"type": "occ",
				"energy": -0.23204,
				"method": "rhf"
			},
			{
				"type": "occ",
				"energy": -0.20068,
				"method": "rhf"
			},
			{
				"type": "unocc",
				"energy": -0.01285,
				"method": "rhf"
			},
			{
				"type": "unocc",
				"energy": 0.01714,
				"method": "rhf"
			},
			{
				"type": "unocc",
				"energy": 0.03196,
				"method": "rhf"
			},
			{
				"type": "unocc",
				"energy": 0.06479,
				"method": "rhf"
			},
			{
				"type": "unocc",
				"energy": 0.07442,
				"method": "rhf"
			}
		],
		"cosmo_sigma_profile": { 
			"-0.025": 0.0,
			"-0.024": 0.0,
			"-0.023": 0.0,
			"-0.022": 0.0,
			"-0.021": 0.0,
			"-0.02": 0.0,
			"-0.019": 0.0,
			"-0.018": 0.0,
			"-0.017": 0.0,
			"-0.016": 0.638739943913,
			"-0.015": 1.60437213745,
			"-0.014": 1.83320468345,
			"-0.013": 0.938212866273,
			"-0.012": 0.759462525155,
			"-0.011": 1.6113970612,
			"-0.01": 1.35451372967,
			"-0.009": 1.55264289811,
			"-0.008": 3.10750168394,
			"-0.007": 5.78266935211,
			"-0.006": 18.0873983357,
			"-0.005": 22.6570139688,
			"-0.004": 20.4343633629,
			"-0.003": 18.7797862816,
			"-0.002": 12.1426691038,
			"-0.001": 10.3363370875,
			"0.0": 9.11226132058,
			"0.001": 10.6813124426,
			"0.002": 10.6827078285,
			"0.003": 11.4975313359,
			"0.004": 15.5995966924,
			"0.005": 14.8775991564,
			"0.006": 9.67941867074,
			"0.007": 4.27320004458,
			"0.008": 2.51726410409,
			"0.009": 2.61808416245,
			"0.01": 3.85137348055,
			"0.011": 4.93754204318,
			"0.012": 6.77294395083,
			"0.013": 4.43885996232,
			"0.014": 1.13904734026,
			"0.015": 0.0,
			"0.016": 0.0,
			"0.017": 0.0,
			"0.018": 0.0,
			"0.019": 0.0,
			"0.02": 0.0,
			"0.021": 0.0,
			"0.022": 0.0,
			"0.023": 0.0,
			"0.024": 0.0,
			"0.025": 0.0
		}
	}
}
