{
	 "smiles": "CC1=C(C)C=C(C=C1)S(=O)(=O)NC(CCC(N)=O)C(O)=O", 
	 "Tm": 445.15, 
	 "num_atms": 39, 
	 "gaussian": { 
		 "optdone": 1, 
		 "sigma_profile": "yes", 
		 "theory": "DFT", 
		 "functional": "B3LYP", 
		 "basiset": "6-31G**", 
		 "properties": { 
			 "R2extent": 9158.5252, 
			 "electric_dipole_moment_norm": 3.5629536862, 
			 "electric_quadrupole_moment_norm": 30.8334882696, 
			 "total_energy": -1390.02634226, 
			 "HOMO_LUMO_gap": 0.21564, 
			 "cosmo_polarized_energy": -25.88, 
			 "cosmo_cavitation_energy": 43.22, 
			 "cosmo_dispersion_energy": -29.79, 
			 "cosmo_repulsion_energy": 2.26, 
			 "cosmo_total_nonelectrostatic_energy": 15.69, 
			 "SMD_solvation_energy": 7.92 
		},
		"coords": [
			{
				"x": -4.0720388368,
				"y": -1.2889138826,
				"z": 1.4059607709,
				"element": "C" 
			},
			{
				"x": -2.6614724862,
				"y": -1.3639845632,
				"z": 0.8749996829,
				"element": "C" 
			},
			{
				"x": -1.639947792,
				"y": -0.5552968549,
				"z": 1.4259834988,
				"element": "C" 
			},
			{
				"x": -1.934407877,
				"y": 0.404661069,
				"z": 2.553773455,
				"element": "C" 
			},
			{
				"x": -0.3454404121,
				"y": -0.6499598469,
				"z": 0.9113279659,
				"element": "C" 
			},
			{
				"x": -0.0656394447,
				"y": -1.5272699634,
				"z": -0.1389194458,
				"element": "C" 
			},
			{
				"x": -1.0613233855,
				"y": -2.326655589,
				"z": -0.6939307293,
				"element": "C" 
			},
			{
				"x": -2.3529047283,
				"y": -2.2337279222,
				"z": -0.1767694729,
				"element": "C" 
			},
			{
				"x": 1.6127977309,
				"y": -1.7145795885,
				"z": -0.7322688409,
				"element": "S" 
			},
			{
				"x": 1.5368275376,
				"y": -2.3328716068,
				"z": -2.0672256338,
				"element": "O" 
			},
			{
				"x": 2.4524450713,
				"y": -2.3372465346,
				"z": 0.3021090688,
				"element": "O" 
			},
			{
				"x": 2.1127709992,
				"y": -0.117191996,
				"z": -0.8264233914,
				"element": "N" 
			},
			{
				"x": 3.5227525267,
				"y": 0.1787828506,
				"z": -0.5681768102,
				"element": "C" 
			},
			{
				"x": 4.5161386638,
				"y": -0.2581789683,
				"z": -1.6678474666,
				"element": "C" 
			},
			{
				"x": 4.044238069,
				"y": -0.0505531276,
				"z": -3.1256723122,
				"element": "C" 
			},
			{
				"x": 3.5172196326,
				"y": 1.3462086077,
				"z": -3.4178327863,
				"element": "C" 
			},
			{
				"x": 4.2656409324,
				"y": 2.1226525293,
				"z": -4.243692368,
				"element": "N" 
			},
			{
				"x": 2.4496037738,
				"y": 1.7494575642,
				"z": -2.9479157406,
				"element": "O" 
			},
			{
				"x": 3.6824083926,
				"y": 1.6626367942,
				"z": -0.2218573819,
				"element": "C" 
			},
			{
				"x": 2.6710776674,
				"y": 2.1398665842,
				"z": 0.5293751277,
				"element": "O" 
			},
			{
				"x": 4.6473998809,
				"y": 2.3330737174,
				"z": -0.5226845562,
				"element": "O" 
			},
			{
				"x": -4.4868381842,
				"y": -0.27857901,
				"z": 1.306469441,
				"element": "H" 
			},
			{
				"x": -4.1146690948,
				"y": -1.5424681695,
				"z": 2.4720223326,
				"element": "H" 
			},
			{
				"x": -4.7327019063,
				"y": -1.9761194131,
				"z": 0.8717293549,
				"element": "H" 
			},
			{
				"x": -2.317751354,
				"y": -0.1178969829,
				"z": 3.4384148084,
				"element": "H" 
			},
			{
				"x": -2.6939796953,
				"y": 1.1425411966,
				"z": 2.2686948617,
				"element": "H" 
			},
			{
				"x": -1.0347816822,
				"y": 0.9488319235,
				"z": 2.8510563459,
				"element": "H" 
			},
			{
				"x": 0.4452836639,
				"y": -0.0196687527,
				"z": 1.3051451943,
				"element": "H" 
			},
			{
				"x": -0.82649824,
				"y": -2.9935127446,
				"z": -1.515677295,
				"element": "H" 
			},
			{
				"x": -3.1408804632,
				"y": -2.8491326119,
				"z": -0.6026718597,
				"element": "H" 
			},
			{
				"x": 1.7715117923,
				"y": 0.3720641933,
				"z": -1.6605270741,
				"element": "H" 
			},
			{
				"x": 3.7869682999,
				"y": -0.3592110907,
				"z": 0.3508282502,
				"element": "H" 
			},
			{
				"x": 4.7094137059,
				"y": -1.3274288618,
				"z": -1.5396329761,
				"element": "H" 
			},
			{
				"x": 5.4564350104,
				"y": 0.2720905223,
				"z": -1.4953807504,
				"element": "H" 
			},
			{
				"x": 4.8669822874,
				"y": -0.3114355717,
				"z": -3.7996538234,
				"element": "H" 
			},
			{
				"x": 3.2244772523,
				"y": -0.7457519983,
				"z": -3.3342058556,
				"element": "H" 
			},
			{
				"x": 5.1973012272,
				"y": 1.8573258766,
				"z": -4.5186759692,
				"element": "H" 
			},
			{
				"x": 3.982111504,
				"y": 3.0836175411,
				"z": -4.3683098665,
				"element": "H" 
			},
			{
				"x": 2.8939699612,
				"y": 3.0689246811,
				"z": 0.7084622472,
				"element": "H" 
			}
		],
		 "valence_orbital": [ 
			{
				"type": "occ",
				"energy": -0.2801,
				"method": "rhf"
			},
			{
				"type": "occ",
				"energy": -0.26602,
				"method": "rhf"
			},
			{
				"type": "occ",
				"energy": -0.25718,
				"method": "rhf"
			},
			{
				"type": "occ",
				"energy": -0.24958,
				"method": "rhf"
			},
			{
				"type": "occ",
				"energy": -0.24163,
				"method": "rhf"
			},
			{
				"type": "unocc",
				"energy": -0.02599,
				"method": "rhf"
			},
			{
				"type": "unocc",
				"energy": -0.00616,
				"method": "rhf"
			},
			{
				"type": "unocc",
				"energy": 0.00526,
				"method": "rhf"
			},
			{
				"type": "unocc",
				"energy": 0.01601,
				"method": "rhf"
			},
			{
				"type": "unocc",
				"energy": 0.06119,
				"method": "rhf"
			}
		],
		"cosmo_sigma_profile": { 
			"-0.025": 0.0,
			"-0.024": 0.0,
			"-0.023": 0.0,
			"-0.022": 0.0,
			"-0.021": 0.0,
			"-0.02": 0.0,
			"-0.019": 0.32783840061,
			"-0.018": 0.740132335658,
			"-0.017": 0.872540707622,
			"-0.016": 0.914623681751,
			"-0.015": 1.7987192011,
			"-0.014": 2.90326209454,
			"-0.013": 2.87643413887,
			"-0.012": 3.60374656467,
			"-0.011": 2.77559077912,
			"-0.01": 3.45285894968,
			"-0.009": 3.74973006235,
			"-0.008": 5.87601279991,
			"-0.007": 4.7672979429,
			"-0.006": 10.0426936212,
			"-0.005": 20.1383784325,
			"-0.004": 28.6959804146,
			"-0.003": 26.7531629794,
			"-0.002": 28.0776643053,
			"-0.001": 27.7227862026,
			"0.0": 23.4396825064,
			"0.001": 15.9634923632,
			"0.002": 15.8160437318,
			"0.003": 20.0651037227,
			"0.004": 14.9114667593,
			"0.005": 9.47457388515,
			"0.006": 8.07423471219,
			"0.007": 8.58330654043,
			"0.008": 7.32590820853,
			"0.009": 6.9773374692,
			"0.01": 9.67060287326,
			"0.011": 12.8297976026,
			"0.012": 7.84917510297,
			"0.013": 1.83013632398,
			"0.014": 1.08891448153,
			"0.015": 0.030857516301,
			"0.016": 0.0,
			"0.017": 0.0,
			"0.018": 0.0,
			"0.019": 0.0,
			"0.02": 0.0,
			"0.021": 0.0,
			"0.022": 0.0,
			"0.023": 0.0,
			"0.024": 0.0,
			"0.025": 0.0
		}
	}
}
