{
	 "smiles": "ClC1=CC(=NC=C1)C#N", 
	 "Tm": 356.15, 
	 "num_atms": 12, 
	 "gaussian": { 
		 "optdone": 1, 
		 "sigma_profile": "yes", 
		 "theory": "DFT", 
		 "functional": "B3LYP", 
		 "basiset": "6-31G**", 
		 "properties": { 
			 "R2extent": 3408.3361, 
			 "electric_dipole_moment_norm": 4.48457907278, 
			 "electric_quadrupole_moment_norm": 18.0144745702, 
			 "total_energy": -800.110353784, 
			 "HOMO_LUMO_gap": 0.21375, 
			 "cosmo_polarized_energy": -9.66, 
			 "cosmo_cavitation_energy": 19.9, 
			 "cosmo_dispersion_energy": -14.37, 
			 "cosmo_repulsion_energy": 1.18, 
			 "cosmo_total_nonelectrostatic_energy": 6.71, 
			 "SMD_solvation_energy": 3.29 
		},
		"coords": [
			{
				"x": 0.3367301086,
				"y": -3.8029950934,
				"z": -2.8704326267,
				"element": "Cl" 
			},
			{
				"x": 0.8015827794,
				"y": -2.4625124772,
				"z": -1.855120524,
				"element": "C" 
			},
			{
				"x": 2.1479053298,
				"y": -2.231722732,
				"z": -1.5832226125,
				"element": "C" 
			},
			{
				"x": 2.4582259111,
				"y": -1.1397337151,
				"z": -0.7613823832,
				"element": "C" 
			},
			{
				"x": 1.5463466042,
				"y": -0.3117874249,
				"z": -0.226197093,
				"element": "N" 
			},
			{
				"x": 0.2668517615,
				"y": -0.5635706172,
				"z": -0.5083037657,
				"element": "C" 
			},
			{
				"x": -0.166803118,
				"y": -1.6203928371,
				"z": -1.3139318667,
				"element": "C" 
			},
			{
				"x": 3.8430771179,
				"y": -0.8664429305,
				"z": -0.4555118549,
				"element": "C" 
			},
			{
				"x": 4.9656726978,
				"y": -0.6724468409,
				"z": -0.2277056749,
				"element": "N" 
			},
			{
				"x": 2.9267449164,
				"y": -2.8667087592,
				"z": -1.9875718188,
				"element": "H" 
			},
			{
				"x": -0.4620592608,
				"y": 0.1137687826,
				"z": -0.0691739078,
				"element": "H" 
			},
			{
				"x": -1.2207748478,
				"y": -1.778555355,
				"z": -1.5103458719,
				"element": "H" 
			}
		],
		 "valence_orbital": [ 
			{
				"type": "occ",
				"energy": -0.34868,
				"method": "rhf"
			},
			{
				"type": "occ",
				"energy": -0.34219,
				"method": "rhf"
			},
			{
				"type": "occ",
				"energy": -0.30104,
				"method": "rhf"
			},
			{
				"type": "occ",
				"energy": -0.29697,
				"method": "rhf"
			},
			{
				"type": "occ",
				"energy": -0.29258,
				"method": "rhf"
			},
			{
				"type": "unocc",
				"energy": -0.07883,
				"method": "rhf"
			},
			{
				"type": "unocc",
				"energy": -0.05737,
				"method": "rhf"
			},
			{
				"type": "unocc",
				"energy": -0.00321,
				"method": "rhf"
			},
			{
				"type": "unocc",
				"energy": 0.02798,
				"method": "rhf"
			},
			{
				"type": "unocc",
				"energy": 0.05575,
				"method": "rhf"
			}
		],
		"cosmo_sigma_profile": { 
			"-0.025": 0.0,
			"-0.024": 0.0,
			"-0.023": 0.0,
			"-0.022": 0.0,
			"-0.021": 0.0,
			"-0.02": 0.0,
			"-0.019": 0.0,
			"-0.018": 0.0,
			"-0.017": 0.0,
			"-0.016": 0.0,
			"-0.015": 0.0,
			"-0.014": 0.0,
			"-0.013": 0.0,
			"-0.012": 0.0,
			"-0.011": 0.160750351031,
			"-0.01": 2.62194452525,
			"-0.009": 4.19788455764,
			"-0.008": 7.63211724317,
			"-0.007": 5.16417681419,
			"-0.006": 5.47909513049,
			"-0.005": 4.93037522658,
			"-0.004": 7.95884060604,
			"-0.003": 14.7937495746,
			"-0.002": 17.8156500723,
			"-0.001": 16.3626638904,
			"0.0": 8.96846423562,
			"0.001": 8.39967358548,
			"0.002": 10.1694017098,
			"0.003": 14.0587363278,
			"0.004": 5.48883816574,
			"0.005": 4.28564806173,
			"0.006": 3.49941044057,
			"0.007": 4.34036038363,
			"0.008": 4.22250552575,
			"0.009": 4.12102564373,
			"0.01": 3.90944599304,
			"0.011": 2.97779484325,
			"0.012": 2.21625515968,
			"0.013": 0.748085723774,
			"0.014": 0.143171046637,
			"0.015": 0.0,
			"0.016": 0.0,
			"0.017": 0.0,
			"0.018": 0.0,
			"0.019": 0.0,
			"0.02": 0.0,
			"0.021": 0.0,
			"0.022": 0.0,
			"0.023": 0.0,
			"0.024": 0.0,
			"0.025": 0.0
		}
	}
}
