{
	 "smiles": "NC1=NC=C(C=C1)S(=O)(=O)NC1CC1", 
	 "Tm": 443.15, 
	 "num_atms": 25, 
	 "gaussian": { 
		 "optdone": 1, 
		 "sigma_profile": "yes", 
		 "theory": "DFT", 
		 "functional": "B3LYP", 
		 "basiset": "6-31G**", 
		 "properties": { 
			 "R2extent": 3486.7019, 
			 "electric_dipole_moment_norm": 7.20085358343, 
			 "electric_quadrupole_moment_norm": 18.1884709748, 
			 "total_energy": -1024.27224254, 
			 "HOMO_LUMO_gap": 0.19725, 
			 "cosmo_polarized_energy": -20.88, 
			 "cosmo_cavitation_energy": 30.26, 
			 "cosmo_dispersion_energy": -22.16, 
			 "cosmo_repulsion_energy": 1.72, 
			 "cosmo_total_nonelectrostatic_energy": 9.81, 
			 "SMD_solvation_energy": 2.28 
		},
		"coords": [
			{
				"x": -3.9695818635,
				"y": -2.7588994719,
				"z": -0.0233224251,
				"element": "N" 
			},
			{
				"x": -2.9907644509,
				"y": -1.8291037826,
				"z": 0.1999758469,
				"element": "C" 
			},
			{
				"x": -2.0910031529,
				"y": -2.1397348801,
				"z": 1.152918845,
				"element": "N" 
			},
			{
				"x": -1.1394800429,
				"y": -1.2479750953,
				"z": 1.4303173216,
				"element": "C" 
			},
			{
				"x": -1.02410886,
				"y": -0.019402303,
				"z": 0.7761392884,
				"element": "C" 
			},
			{
				"x": -1.9666771455,
				"y": 0.307163064,
				"z": -0.2100728324,
				"element": "C" 
			},
			{
				"x": -2.9640190975,
				"y": -0.6028996433,
				"z": -0.5060148474,
				"element": "C" 
			},
			{
				"x": 0.2950911803,
				"y": 1.1080890093,
				"z": 1.1888773322,
				"element": "S" 
			},
			{
				"x": 0.748596726,
				"y": 0.7904114654,
				"z": 2.5452211403,
				"element": "O" 
			},
			{
				"x": -0.1506707266,
				"y": 2.4464412794,
				"z": 0.7992911202,
				"element": "O" 
			},
			{
				"x": 1.6188118099,
				"y": 0.72056152,
				"z": 0.2083992067,
				"element": "N" 
			},
			{
				"x": 1.4730666308,
				"y": 0.6930195848,
				"z": -1.2256278576,
				"element": "C" 
			},
			{
				"x": 1.448142702,
				"y": 2.0147271043,
				"z": -1.9505850061,
				"element": "C" 
			},
			{
				"x": 2.6701711371,
				"y": 1.1415457102,
				"z": -2.0323035274,
				"element": "C" 
			},
			{
				"x": -4.5113653714,
				"y": -2.7223137992,
				"z": -0.8711038377,
				"element": "H" 
			},
			{
				"x": -3.8292296379,
				"y": -3.6635108173,
				"z": 0.4003070181,
				"element": "H" 
			},
			{
				"x": -0.4407155626,
				"y": -1.5110312647,
				"z": 2.2209723503,
				"element": "H" 
			},
			{
				"x": -1.9167841569,
				"y": 1.2698044295,
				"z": -0.7077828156,
				"element": "H" 
			},
			{
				"x": -3.721742018,
				"y": -0.3802186982,
				"z": -1.2509308428,
				"element": "H" 
			},
			{
				"x": 2.109808549,
				"y": -0.074617566,
				"z": 0.6085964158,
				"element": "H" 
			},
			{
				"x": 0.8705032201,
				"y": -0.1169284462,
				"z": -1.6393145301,
				"element": "H" 
			},
			{
				"x": 0.8052382935,
				"y": 2.0935358119,
				"z": -2.8215622545,
				"element": "H" 
			},
			{
				"x": 1.4943586748,
				"y": 2.903199241,
				"z": -1.3325460157,
				"element": "H" 
			},
			{
				"x": 2.8780144377,
				"y": 0.6113338429,
				"z": -2.9564743334,
				"element": "H" 
			},
			{
				"x": 3.5468387254,
				"y": 1.4509037049,
				"z": -1.4729747598,
				"element": "H" 
			}
		],
		 "valence_orbital": [ 
			{
				"type": "occ",
				"energy": -0.29562,
				"method": "rhf"
			},
			{
				"type": "occ",
				"energy": -0.29029,
				"method": "rhf"
			},
			{
				"type": "occ",
				"energy": -0.27506,
				"method": "rhf"
			},
			{
				"type": "occ",
				"energy": -0.26673,
				"method": "rhf"
			},
			{
				"type": "occ",
				"energy": -0.2312,
				"method": "rhf"
			},
			{
				"type": "unocc",
				"energy": -0.03395,
				"method": "rhf"
			},
			{
				"type": "unocc",
				"energy": -0.02532,
				"method": "rhf"
			},
			{
				"type": "unocc",
				"energy": 0.06171,
				"method": "rhf"
			},
			{
				"type": "unocc",
				"energy": 0.0755,
				"method": "rhf"
			},
			{
				"type": "unocc",
				"energy": 0.08966,
				"method": "rhf"
			}
		],
		"cosmo_sigma_profile": { 
			"-0.025": 0.0,
			"-0.024": 0.0,
			"-0.023": 0.0,
			"-0.022": 0.0,
			"-0.021": 0.0,
			"-0.02": 0.0,
			"-0.019": 0.0,
			"-0.018": 0.0,
			"-0.017": 0.0,
			"-0.016": 0.0,
			"-0.015": 0.454100646862,
			"-0.014": 2.4746588412,
			"-0.013": 4.06088422146,
			"-0.012": 2.9991108997,
			"-0.011": 3.38783810098,
			"-0.01": 3.85599057136,
			"-0.009": 4.46697308389,
			"-0.008": 4.35652208195,
			"-0.007": 6.13257697602,
			"-0.006": 8.06733884522,
			"-0.005": 15.944542342,
			"-0.004": 14.3644443645,
			"-0.003": 14.2276101229,
			"-0.002": 15.6984873716,
			"-0.001": 15.4522155662,
			"0.0": 16.4131132687,
			"0.001": 19.2306916095,
			"0.002": 14.4915103648,
			"0.003": 10.1946831508,
			"0.004": 7.42128492552,
			"0.005": 6.68713806825,
			"0.006": 7.76875335657,
			"0.007": 5.80295648733,
			"0.008": 5.71133658865,
			"0.009": 6.37856044046,
			"0.01": 6.61952399373,
			"0.011": 9.46132460304,
			"0.012": 6.00478986307,
			"0.013": 0.727513805657,
			"0.014": 0.878604090687,
			"0.015": 0.224725193357,
			"0.016": 0.0,
			"0.017": 0.0,
			"0.018": 0.0,
			"0.019": 0.0,
			"0.02": 0.0,
			"0.021": 0.0,
			"0.022": 0.0,
			"0.023": 0.0,
			"0.024": 0.0,
			"0.025": 0.0
		}
	}
}
