{
	 "smiles": "ON=C(CC1=CC=CC=C1)C(CC1=CC=CC=C1)=NO", 
	 "Tm": 466.15, 
	 "num_atms": 36, 
	 "gaussian": { 
		 "optdone": 1, 
		 "sigma_profile": "yes", 
		 "theory": "DFT", 
		 "functional": "B3LYP", 
		 "basiset": "6-31G**", 
		 "properties": { 
			 "R2extent": 7226.1978, 
			 "electric_dipole_moment_norm": 0.000374165738677, 
			 "electric_quadrupole_moment_norm": 15.1101998875, 
			 "total_energy": -879.188214894, 
			 "HOMO_LUMO_gap": 0.18684, 
			 "cosmo_polarized_energy": -12.87, 
			 "cosmo_cavitation_energy": 39.85, 
			 "cosmo_dispersion_energy": -27.81, 
			 "cosmo_repulsion_energy": 2.17, 
			 "cosmo_total_nonelectrostatic_energy": 14.21, 
			 "SMD_solvation_energy": 7.04 
		},
		"coords": [
			{
				"x": -1.6318478644,
				"y": 1.0354581751,
				"z": 1.7533705932,
				"element": "O" 
			},
			{
				"x": -0.766464207,
				"y": 1.0132306756,
				"z": 0.6535551925,
				"element": "N" 
			},
			{
				"x": 0.1010342796,
				"y": 0.0622933827,
				"z": 0.7249772858,
				"element": "C" 
			},
			{
				"x": 0.1966099015,
				"y": -0.9343609901,
				"z": 1.8658184705,
				"element": "C" 
			},
			{
				"x": 1.1526035898,
				"y": -0.4932244114,
				"z": 2.9677035048,
				"element": "C" 
			},
			{
				"x": 0.7543118159,
				"y": 0.4489077253,
				"z": 3.926956578,
				"element": "C" 
			},
			{
				"x": 1.6283192195,
				"y": 0.843865384,
				"z": 4.9403249315,
				"element": "C" 
			},
			{
				"x": 2.9141534348,
				"y": 0.3038435305,
				"z": 5.0112254851,
				"element": "C" 
			},
			{
				"x": 3.3199482005,
				"y": -0.6325098889,
				"z": 4.0591847257,
				"element": "C" 
			},
			{
				"x": 2.4455335317,
				"y": -1.0257836583,
				"z": 3.0445754235,
				"element": "C" 
			},
			{
				"x": 1.0434337295,
				"y": -0.0092201079,
				"z": -0.4163445894,
				"element": "C" 
			},
			{
				"x": 0.9476449995,
				"y": 0.9873682906,
				"z": -1.557207623,
				"element": "C" 
			},
			{
				"x": -0.0090369589,
				"y": 0.5461180426,
				"z": -2.6584763615,
				"element": "C" 
			},
			{
				"x": -1.3016088878,
				"y": 1.0795145528,
				"z": -2.7354093392,
				"element": "C" 
			},
			{
				"x": -2.1767008683,
				"y": 0.6857507797,
				"z": -3.7492499862,
				"element": "C" 
			},
			{
				"x": -1.771948957,
				"y": -0.251899294,
				"z": -4.7004437228,
				"element": "C" 
			},
			{
				"x": -0.4864517134,
				"y": -0.7927216205,
				"z": -4.6294924824,
				"element": "C" 
			},
			{
				"x": 0.3882388727,
				"y": -0.3972994718,
				"z": -3.6169067849,
				"element": "C" 
			},
			{
				"x": 1.9110876832,
				"y": -0.9600576342,
				"z": -0.344825644,
				"element": "N" 
			},
			{
				"x": 2.7764053132,
				"y": -0.98235349,
				"z": -1.4446536424,
				"element": "O" 
			},
			{
				"x": -2.2186062416,
				"y": 1.7719408588,
				"z": 1.5360700245,
				"element": "H" 
			},
			{
				"x": 0.5300329885,
				"y": -1.8886379327,
				"z": 1.4554783984,
				"element": "H" 
			},
			{
				"x": -0.8063195279,
				"y": -1.066460847,
				"z": 2.2785964997,
				"element": "H" 
			},
			{
				"x": -0.2435647249,
				"y": 0.8722465736,
				"z": 3.8689737169,
				"element": "H" 
			},
			{
				"x": 1.3029654566,
				"y": 1.572649342,
				"z": 5.6778621206,
				"element": "H" 
			},
			{
				"x": 3.5931729848,
				"y": 0.6094696676,
				"z": 5.8022926948,
				"element": "H" 
			},
			{
				"x": 4.3181774561,
				"y": -1.0594284036,
				"z": 4.1060025683,
				"element": "H" 
			},
			{
				"x": 2.7655268936,
				"y": -1.7468634861,
				"z": 2.2984256251,
				"element": "H" 
			},
			{
				"x": 0.6146407083,
				"y": 1.9417557214,
				"z": -1.1467927985,
				"element": "H" 
			},
			{
				"x": 1.950377456,
				"y": 1.1190874258,
				"z": -1.9705474804,
				"element": "H" 
			},
			{
				"x": -1.6208342566,
				"y": 1.8015090299,
				"z": -1.989819943,
				"element": "H" 
			},
			{
				"x": -3.1746327649,
				"y": 1.1133541979,
				"z": -3.7961475611,
				"element": "H" 
			},
			{
				"x": -2.4515100998,
				"y": -0.5579208186,
				"z": -5.4908912341,
				"element": "H" 
			},
			{
				"x": -0.1618568019,
				"y": -1.5224601029,
				"z": -5.3664228038,
				"element": "H" 
			},
			{
				"x": 1.3858368404,
				"y": -0.8212933564,
				"z": -3.5588985268,
				"element": "H" 
			},
			{
				"x": 3.3634285189,
				"y": -1.718567841,
				"z": -1.2271633156,
				"element": "H" 
			}
		],
		 "valence_orbital": [ 
			{
				"type": "occ",
				"energy": -0.24248,
				"method": "rhf"
			},
			{
				"type": "occ",
				"energy": -0.24165,
				"method": "rhf"
			},
			{
				"type": "occ",
				"energy": -0.23657,
				"method": "rhf"
			},
			{
				"type": "occ",
				"energy": -0.23633,
				"method": "rhf"
			},
			{
				"type": "occ",
				"energy": -0.23082,
				"method": "rhf"
			},
			{
				"type": "unocc",
				"energy": -0.04398,
				"method": "rhf"
			},
			{
				"type": "unocc",
				"energy": 0.00398,
				"method": "rhf"
			},
			{
				"type": "unocc",
				"energy": 0.00584,
				"method": "rhf"
			},
			{
				"type": "unocc",
				"energy": 0.00775,
				"method": "rhf"
			},
			{
				"type": "unocc",
				"energy": 0.00897,
				"method": "rhf"
			}
		],
		"cosmo_sigma_profile": { 
			"-0.025": 0.0,
			"-0.024": 0.0,
			"-0.023": 0.0,
			"-0.022": 0.0,
			"-0.021": 0.0,
			"-0.02": 0.0,
			"-0.019": 0.0,
			"-0.018": 0.794252579981,
			"-0.017": 2.30111224509,
			"-0.016": 1.51168820085,
			"-0.015": 2.16402655806,
			"-0.014": 1.80195417325,
			"-0.013": 1.50923117927,
			"-0.012": 0.751109010552,
			"-0.011": 0.240626847454,
			"-0.01": 0.950594109471,
			"-0.009": 2.56300822017,
			"-0.008": 1.46774487214,
			"-0.007": 1.29775895059,
			"-0.006": 4.22879935302,
			"-0.005": 14.9306138073,
			"-0.004": 22.1949733966,
			"-0.003": 32.6870787738,
			"-0.002": 25.1902516588,
			"-0.001": 24.095858519,
			"0.0": 19.2264320472,
			"0.001": 21.9958181238,
			"0.002": 22.44117464,
			"0.003": 26.2854188081,
			"0.004": 29.3530727861,
			"0.005": 26.5012719726,
			"0.006": 21.848183252,
			"0.007": 6.71398622127,
			"0.008": 1.94885199324,
			"0.009": 0.00921858330369,
			"0.01": 0.0,
			"0.011": 0.0,
			"0.012": 0.0,
			"0.013": 0.0,
			"0.014": 0.0,
			"0.015": 0.0,
			"0.016": 0.0,
			"0.017": 0.0,
			"0.018": 0.0,
			"0.019": 0.0,
			"0.02": 0.0,
			"0.021": 0.0,
			"0.022": 0.0,
			"0.023": 0.0,
			"0.024": 0.0,
			"0.025": 0.0
		}
	}
}
