{
	 "smiles": "OC(=O)C1=C(NC(=O)C2=CC(Br)=CC=C2)C=CC=C1", 
	 "Tm": 463.15, 
	 "num_atms": 29, 
	 "gaussian": { 
		 "optdone": 1, 
		 "sigma_profile": "yes", 
		 "theory": "DFT", 
		 "functional": "B3LYP", 
		 "basiset": "6-31G**", 
		 "properties": { 
			 "R2extent": 11686.9807, 
			 "electric_dipole_moment_norm": 1.91370942935, 
			 "electric_quadrupole_moment_norm": 11.8554573881, 
			 "total_energy": -3391.39174559, 
			 "HOMO_LUMO_gap": 0.16484, 
			 "cosmo_polarized_energy": -12.0, 
			 "cosmo_cavitation_energy": 36.25, 
			 "cosmo_dispersion_energy": -26.76, 
			 "cosmo_repulsion_energy": 2.02, 
			 "cosmo_total_nonelectrostatic_energy": 11.51, 
			 "SMD_solvation_energy": 6.33 
		},
		"coords": [
			{
				"x": -1.0798305929,
				"y": -0.380541755,
				"z": 3.3391923044,
				"element": "O" 
			},
			{
				"x": -0.2208123631,
				"y": -0.2149769585,
				"z": 2.3104469095,
				"element": "C" 
			},
			{
				"x": 0.9537090578,
				"y": 0.0751393191,
				"z": 2.5318067672,
				"element": "O" 
			},
			{
				"x": -0.8315683753,
				"y": -0.411906785,
				"z": 0.9818694678,
				"element": "C" 
			},
			{
				"x": -0.0632023563,
				"y": -0.2897987814,
				"z": -0.2143916509,
				"element": "C" 
			},
			{
				"x": 1.2936888261,
				"y": 0.023389102,
				"z": -0.1127936816,
				"element": "N" 
			},
			{
				"x": 2.2233471571,
				"y": 0.1675418643,
				"z": -1.1210682691,
				"element": "C" 
			},
			{
				"x": 1.9633106605,
				"y": 0.0940945795,
				"z": -2.3177858176,
				"element": "O" 
			},
			{
				"x": 3.6308621365,
				"y": 0.4415672224,
				"z": -0.6556828017,
				"element": "C" 
			},
			{
				"x": 4.0774805524,
				"y": 0.2079629466,
				"z": 0.6537649681,
				"element": "C" 
			},
			{
				"x": 5.4049071093,
				"y": 0.4784413774,
				"z": 0.9776143499,
				"element": "C" 
			},
			{
				"x": 6.0163683196,
				"y": 0.1484241607,
				"z": 2.7593298168,
				"element": "Br" 
			},
			{
				"x": 6.2999654899,
				"y": 0.9759856492,
				"z": 0.0322482402,
				"element": "C" 
			},
			{
				"x": 5.8492786066,
				"y": 1.1981043602,
				"z": -1.2706282835,
				"element": "C" 
			},
			{
				"x": 4.5281222125,
				"y": 0.9281254908,
				"z": -1.6159581551,
				"element": "C" 
			},
			{
				"x": -0.7010633095,
				"y": -0.4971399989,
				"z": -1.4518265893,
				"element": "C" 
			},
			{
				"x": -2.053886131,
				"y": -0.8131336158,
				"z": -1.4985895456,
				"element": "C" 
			},
			{
				"x": -2.8145050626,
				"y": -0.9316904903,
				"z": -0.3309736067,
				"element": "C" 
			},
			{
				"x": -2.1990950923,
				"y": -0.7307855186,
				"z": 0.8952903425,
				"element": "C" 
			},
			{
				"x": -0.559960481,
				"y": -0.2232996724,
				"z": 4.1445718053,
				"element": "H" 
			},
			{
				"x": 1.5880256029,
				"y": 0.1927326648,
				"z": 0.8473398766,
				"element": "H" 
			},
			{
				"x": 3.4241584157,
				"y": -0.1956129897,
				"z": 1.4188476197,
				"element": "H" 
			},
			{
				"x": 7.3280334893,
				"y": 1.1795457452,
				"z": 0.3092683548,
				"element": "H" 
			},
			{
				"x": 6.5389759418,
				"y": 1.5821326082,
				"z": -2.016239807,
				"element": "H" 
			},
			{
				"x": 4.1644967692,
				"y": 1.0826693201,
				"z": -2.6253721676,
				"element": "H" 
			},
			{
				"x": -0.1172893845,
				"y": -0.4016588824,
				"z": -2.3552443228,
				"element": "H" 
			},
			{
				"x": -2.5210466207,
				"y": -0.9675854231,
				"z": -2.4672352966,
				"element": "H" 
			},
			{
				"x": -3.870297012,
				"y": -1.177144042,
				"z": -0.3800039333,
				"element": "H" 
			},
			{
				"x": -2.7670735661,
				"y": -0.8186814973,
				"z": 1.8135031057,
				"element": "H" 
			}
		],
		 "valence_orbital": [ 
			{
				"type": "occ",
				"energy": -0.27148,
				"method": "rhf"
			},
			{
				"type": "occ",
				"energy": -0.26853,
				"method": "rhf"
			},
			{
				"type": "occ",
				"energy": -0.26124,
				"method": "rhf"
			},
			{
				"type": "occ",
				"energy": -0.24638,
				"method": "rhf"
			},
			{
				"type": "occ",
				"energy": -0.23119,
				"method": "rhf"
			},
			{
				"type": "unocc",
				"energy": -0.06635,
				"method": "rhf"
			},
			{
				"type": "unocc",
				"energy": -0.0456,
				"method": "rhf"
			},
			{
				"type": "unocc",
				"energy": -0.01938,
				"method": "rhf"
			},
			{
				"type": "unocc",
				"energy": -0.00427,
				"method": "rhf"
			},
			{
				"type": "unocc",
				"energy": 0.00409,
				"method": "rhf"
			}
		],
		"cosmo_sigma_profile": { 
			"-0.025": 0.0,
			"-0.024": 0.0,
			"-0.023": 0.0,
			"-0.022": 0.0,
			"-0.021": 0.0,
			"-0.02": 0.0,
			"-0.019": 0.301591142088,
			"-0.018": 0.720589858457,
			"-0.017": 0.915549507535,
			"-0.016": 1.04371004922,
			"-0.015": 1.02697939979,
			"-0.014": 0.25280296549,
			"-0.013": 0.371916789702,
			"-0.012": 0.970846411624,
			"-0.011": 0.971449876174,
			"-0.01": 0.751532701635,
			"-0.009": 0.432248886306,
			"-0.008": 1.19851753839,
			"-0.007": 7.31719702295,
			"-0.006": 13.6529974331,
			"-0.005": 15.2449766883,
			"-0.004": 17.0267849612,
			"-0.003": 20.5532668374,
			"-0.002": 21.2964846254,
			"-0.001": 21.9169536203,
			"0.0": 24.52291022,
			"0.001": 28.813085224,
			"0.002": 34.9179413711,
			"0.003": 29.0821878677,
			"0.004": 21.3415013345,
			"0.005": 6.6096136928,
			"0.006": 5.85423608913,
			"0.007": 4.16299000272,
			"0.008": 1.86780869023,
			"0.009": 2.97919235179,
			"0.01": 3.26270750671,
			"0.011": 3.42462538348,
			"0.012": 2.63645838277,
			"0.013": 0.510927038105,
			"0.014": 0.0,
			"0.015": 0.0,
			"0.016": 0.0,
			"0.017": 0.0,
			"0.018": 0.0,
			"0.019": 0.0,
			"0.02": 0.0,
			"0.021": 0.0,
			"0.022": 0.0,
			"0.023": 0.0,
			"0.024": 0.0,
			"0.025": 0.0
		}
	}
}
