{
	 "smiles": "CCOC(=O)C(=O)C1=CC=C(C=C1)[N+]([O-])=O", 
	 "Tm": 314.15, 
	 "num_atms": 25, 
	 "gaussian": { 
		 "optdone": 1, 
		 "sigma_profile": "yes", 
		 "theory": "DFT", 
		 "functional": "B3LYP", 
		 "basiset": "6-31G**", 
		 "properties": { 
			 "R2extent": 5286.4423, 
			 "electric_dipole_moment_norm": 4.51960993228, 
			 "electric_quadrupole_moment_norm": 13.0865862791, 
			 "total_energy": -817.256192496, 
			 "HOMO_LUMO_gap": 0.15183, 
			 "cosmo_polarized_energy": -12.05, 
			 "cosmo_cavitation_energy": 31.4, 
			 "cosmo_dispersion_energy": -22.52, 
			 "cosmo_repulsion_energy": 1.76, 
			 "cosmo_total_nonelectrostatic_energy": 10.64, 
			 "SMD_solvation_energy": 9.5 
		},
		"coords": [
			{
				"x": -2.1529333549,
				"y": -4.2457524618,
				"z": 0.4807496885,
				"element": "C" 
			},
			{
				"x": -0.708010591,
				"y": -4.2660725886,
				"z": 0.9532296587,
				"element": "C" 
			},
			{
				"x": -0.2998052898,
				"y": -2.960164321,
				"z": 1.4471815827,
				"element": "O" 
			},
			{
				"x": 0.1619776057,
				"y": -2.0939696438,
				"z": 0.545970159,
				"element": "C" 
			},
			{
				"x": 0.2606253557,
				"y": -2.2963746071,
				"z": -0.6481232509,
				"element": "O" 
			},
			{
				"x": 0.62728227,
				"y": -0.7927513618,
				"z": 1.2375665262,
				"element": "C" 
			},
			{
				"x": 1.1186911586,
				"y": -0.8676874909,
				"z": 2.3482656064,
				"element": "O" 
			},
			{
				"x": 0.4954846942,
				"y": 0.510382109,
				"z": 0.5142425788,
				"element": "C" 
			},
			{
				"x": 0.9618598562,
				"y": 1.653653262,
				"z": 1.1882021189,
				"element": "C" 
			},
			{
				"x": 0.8557668632,
				"y": 2.9103286118,
				"z": 0.6081230492,
				"element": "C" 
			},
			{
				"x": 0.2728585089,
				"y": 3.0098744951,
				"z": -0.6552924099,
				"element": "C" 
			},
			{
				"x": -0.1995178612,
				"y": 1.8986747548,
				"z": -1.3479247744,
				"element": "C" 
			},
			{
				"x": -0.0859941722,
				"y": 0.6418928627,
				"z": -0.7582937798,
				"element": "C" 
			},
			{
				"x": 0.1520581785,
				"y": 4.3421717106,
				"z": -1.2800122534,
				"element": "N" 
			},
			{
				"x": -0.3677071467,
				"y": 4.4031555996,
				"z": -2.3925375108,
				"element": "O" 
			},
			{
				"x": 0.5785876794,
				"y": 5.3060104886,
				"z": -0.6469398775,
				"element": "O" 
			},
			{
				"x": -2.8184395261,
				"y": -3.898146477,
				"z": 1.2759327386,
				"element": "H" 
			},
			{
				"x": -2.4590825139,
				"y": -5.2570096161,
				"z": 0.1940588816,
				"element": "H" 
			},
			{
				"x": -2.2683807695,
				"y": -3.5954579436,
				"z": -0.3899363771,
				"element": "H" 
			},
			{
				"x": -0.5725327336,
				"y": -4.9263285293,
				"z": 1.8119213571,
				"element": "H" 
			},
			{
				"x": -0.0285557708,
				"y": -4.5632614292,
				"z": 0.1514435704,
				"element": "H" 
			},
			{
				"x": 1.4038174131,
				"y": 1.5301751055,
				"z": 2.1705608313,
				"element": "H" 
			},
			{
				"x": 1.2079361423,
				"y": 3.8045366259,
				"z": 1.1065411475,
				"element": "H" 
			},
			{
				"x": -0.6411009131,
				"y": 2.0291614568,
				"z": -2.3276911611,
				"element": "H" 
			},
			{
				"x": -0.430085083,
				"y": -0.2349406122,
				"z": -1.2906381,
				"element": "H" 
			}
		],
		 "valence_orbital": [ 
			{
				"type": "occ",
				"energy": -0.31518,
				"method": "rhf"
			},
			{
				"type": "occ",
				"energy": -0.30009,
				"method": "rhf"
			},
			{
				"type": "occ",
				"energy": -0.29414,
				"method": "rhf"
			},
			{
				"type": "occ",
				"energy": -0.28862,
				"method": "rhf"
			},
			{
				"type": "occ",
				"energy": -0.26845,
				"method": "rhf"
			},
			{
				"type": "unocc",
				"energy": -0.11662,
				"method": "rhf"
			},
			{
				"type": "unocc",
				"energy": -0.07283,
				"method": "rhf"
			},
			{
				"type": "unocc",
				"energy": -0.037,
				"method": "rhf"
			},
			{
				"type": "unocc",
				"energy": -0.01245,
				"method": "rhf"
			},
			{
				"type": "unocc",
				"energy": 0.05038,
				"method": "rhf"
			}
		],
		"cosmo_sigma_profile": { 
			"-0.025": 0.0,
			"-0.024": 0.0,
			"-0.023": 0.0,
			"-0.022": 0.0,
			"-0.021": 0.0,
			"-0.02": 0.0,
			"-0.019": 0.0,
			"-0.018": 0.0,
			"-0.017": 0.0,
			"-0.016": 0.0,
			"-0.015": 0.0,
			"-0.014": 0.0,
			"-0.013": 0.0,
			"-0.012": 0.0,
			"-0.011": 0.0,
			"-0.01": 0.0,
			"-0.009": 0.479415069673,
			"-0.008": 4.31307135211,
			"-0.007": 10.1788272604,
			"-0.006": 12.7996934472,
			"-0.005": 18.415290406,
			"-0.004": 23.0196469074,
			"-0.003": 21.3264666801,
			"-0.002": 21.9174659517,
			"-0.001": 27.4362146751,
			"0.0": 24.9805223574,
			"0.001": 9.84961972452,
			"0.002": 8.04743033313,
			"0.003": 5.26411863264,
			"0.004": 6.44633154152,
			"0.005": 6.25074392081,
			"0.006": 8.85236376629,
			"0.007": 12.9946619389,
			"0.008": 9.08583229629,
			"0.009": 10.3273132552,
			"0.01": 6.78108359335,
			"0.011": 2.43490725271,
			"0.012": 0.430207914508,
			"0.013": 0.0,
			"0.014": 0.0,
			"0.015": 0.0,
			"0.016": 0.0,
			"0.017": 0.0,
			"0.018": 0.0,
			"0.019": 0.0,
			"0.02": 0.0,
			"0.021": 0.0,
			"0.022": 0.0,
			"0.023": 0.0,
			"0.024": 0.0,
			"0.025": 0.0
		}
	}
}
