{
	 "smiles": "CC1=C(C(=O)OC2=CC(Cl)=CC=C2)C(C)=CC(=O)O1", 
	 "Tm": 369.15, 
	 "num_atms": 30, 
	 "gaussian": { 
		 "optdone": 1, 
		 "sigma_profile": "yes", 
		 "theory": "DFT", 
		 "functional": "B3LYP", 
		 "basiset": "6-31G**", 
		 "properties": { 
			 "R2extent": 7765.838, 
			 "electric_dipole_moment_norm": 3.45878811435, 
			 "electric_quadrupole_moment_norm": 28.8493557431, 
			 "total_energy": -1301.21189895, 
			 "HOMO_LUMO_gap": 0.17871, 
			 "cosmo_polarized_energy": -13.36, 
			 "cosmo_cavitation_energy": 37.1, 
			 "cosmo_dispersion_energy": -26.44, 
			 "cosmo_repulsion_energy": 2.04, 
			 "cosmo_total_nonelectrostatic_energy": 12.69, 
			 "SMD_solvation_energy": 8.29 
		},
		"coords": [
			{
				"x": 0.6654764281,
				"y": 1.76912314,
				"z": -3.0177109598,
				"element": "C" 
			},
			{
				"x": 0.4115704782,
				"y": 0.2910471517,
				"z": -3.0217143077,
				"element": "C" 
			},
			{
				"x": 0.5087874977,
				"y": -0.5881624241,
				"z": -1.9609806093,
				"element": "C" 
			},
			{
				"x": 0.9081266827,
				"y": -0.0182789095,
				"z": -0.6516453712,
				"element": "C" 
			},
			{
				"x": 1.5200627733,
				"y": 1.0158653878,
				"z": -0.4911165214,
				"element": "O" 
			},
			{
				"x": 0.4630304961,
				"y": -0.7861235305,
				"z": 0.3966871065,
				"element": "O" 
			},
			{
				"x": 0.7656638479,
				"y": -0.4300539509,
				"z": 1.7107326405,
				"element": "C" 
			},
			{
				"x": -0.3016639979,
				"y": -0.4735941033,
				"z": 2.6057642161,
				"element": "C" 
			},
			{
				"x": -0.0512358201,
				"y": -0.2143355775,
				"z": 3.9518758136,
				"element": "C" 
			},
			{
				"x": -1.3863085373,
				"y": -0.2717416324,
				"z": 5.0918497447,
				"element": "Cl" 
			},
			{
				"x": 1.2309363225,
				"y": 0.0879338206,
				"z": 4.4079733393,
				"element": "C" 
			},
			{
				"x": 2.2786133705,
				"y": 0.1243719874,
				"z": 3.486159045,
				"element": "C" 
			},
			{
				"x": 2.0619100492,
				"y": -0.1359301055,
				"z": 2.133325647,
				"element": "C" 
			},
			{
				"x": 0.2348244645,
				"y": -1.9987781077,
				"z": -2.2067044173,
				"element": "C" 
			},
			{
				"x": 0.3679121604,
				"y": -3.05910521,
				"z": -1.141781888,
				"element": "C" 
			},
			{
				"x": -0.1206083836,
				"y": -2.389110152,
				"z": -3.4643963879,
				"element": "C" 
			},
			{
				"x": -0.254331367,
				"y": -1.4762897688,
				"z": -4.5678793706,
				"element": "C" 
			},
			{
				"x": -0.5724957659,
				"y": -1.7026656221,
				"z": -5.7081212118,
				"element": "O" 
			},
			{
				"x": 0.0447924255,
				"y": -0.1232917479,
				"z": -4.2408303759,
				"element": "O" 
			},
			{
				"x": 0.2456258605,
				"y": 2.1973718983,
				"z": -3.9290487279,
				"element": "H" 
			},
			{
				"x": 0.239637201,
				"y": 2.2501639413,
				"z": -2.136385594,
				"element": "H" 
			},
			{
				"x": 1.7408740029,
				"y": 1.9686744431,
				"z": -2.9870317445,
				"element": "H" 
			},
			{
				"x": -1.2983189372,
				"y": -0.7077946405,
				"z": 2.25171551,
				"element": "H" 
			},
			{
				"x": 1.4026841874,
				"y": 0.28849624,
				"z": 5.4591333665,
				"element": "H" 
			},
			{
				"x": 3.2816075883,
				"y": 0.3584677078,
				"z": 3.8292688764,
				"element": "H" 
			},
			{
				"x": 2.8763380793,
				"y": -0.0997102552,
				"z": 1.4217939557,
				"element": "H" 
			},
			{
				"x": 0.2767461156,
				"y": -4.0502734267,
				"z": -1.5909055346,
				"element": "H" 
			},
			{
				"x": 1.3314971438,
				"y": -2.9947729047,
				"z": -0.6287737371,
				"element": "H" 
			},
			{
				"x": -0.4019665098,
				"y": -2.9483334297,
				"z": -0.3743270457,
				"element": "H" 
			},
			{
				"x": -0.3142878566,
				"y": -3.429870219,
				"z": -3.6957254566,
				"element": "H" 
			}
		],
		 "valence_orbital": [ 
			{
				"type": "occ",
				"energy": -0.29728,
				"method": "rhf"
			},
			{
				"type": "occ",
				"energy": -0.28089,
				"method": "rhf"
			},
			{
				"type": "occ",
				"energy": -0.26695,
				"method": "rhf"
			},
			{
				"type": "occ",
				"energy": -0.25474,
				"method": "rhf"
			},
			{
				"type": "occ",
				"energy": -0.24311,
				"method": "rhf"
			},
			{
				"type": "unocc",
				"energy": -0.0644,
				"method": "rhf"
			},
			{
				"type": "unocc",
				"energy": -0.05062,
				"method": "rhf"
			},
			{
				"type": "unocc",
				"energy": -0.02482,
				"method": "rhf"
			},
			{
				"type": "unocc",
				"energy": -0.01691,
				"method": "rhf"
			},
			{
				"type": "unocc",
				"energy": 0.01877,
				"method": "rhf"
			}
		],
		"cosmo_sigma_profile": { 
			"-0.025": 0.0,
			"-0.024": 0.0,
			"-0.023": 0.0,
			"-0.022": 0.0,
			"-0.021": 0.0,
			"-0.02": 0.0,
			"-0.019": 0.0,
			"-0.018": 0.0,
			"-0.017": 0.0,
			"-0.016": 0.0,
			"-0.015": 0.0,
			"-0.014": 0.0,
			"-0.013": 0.0,
			"-0.012": 0.0,
			"-0.011": 0.0,
			"-0.01": 0.0,
			"-0.009": 0.023555392009,
			"-0.008": 2.38422713753,
			"-0.007": 9.69392588279,
			"-0.006": 17.5997784402,
			"-0.005": 21.9803565379,
			"-0.004": 22.8857263781,
			"-0.003": 25.1525533271,
			"-0.002": 27.882418656,
			"-0.001": 28.0953847231,
			"0.0": 23.3041437502,
			"0.001": 23.8904482025,
			"0.002": 20.801726181,
			"0.003": 17.7363112418,
			"0.004": 15.751476024,
			"0.005": 7.60437398597,
			"0.006": 4.79697692461,
			"0.007": 3.12261494003,
			"0.008": 3.52931220709,
			"0.009": 4.28626203051,
			"0.01": 4.79019634083,
			"0.011": 6.62108596394,
			"0.012": 6.05794840655,
			"0.013": 1.68813527245,
			"0.014": 0.0,
			"0.015": 0.0,
			"0.016": 0.0,
			"0.017": 0.0,
			"0.018": 0.0,
			"0.019": 0.0,
			"0.02": 0.0,
			"0.021": 0.0,
			"0.022": 0.0,
			"0.023": 0.0,
			"0.024": 0.0,
			"0.025": 0.0
		}
	}
}
