{
	 "smiles": "BrC1=C(Br)C(Br)=C(Br)S1", 
	 "Tm": 389.15, 
	 "num_atms": 9, 
	 "gaussian": { 
		 "optdone": 1, 
		 "sigma_profile": "yes", 
		 "theory": "DFT", 
		 "functional": "B3LYP", 
		 "basiset": "6-31G**", 
		 "properties": { 
			 "R2extent": 7009.9571, 
			 "electric_dipole_moment_norm": 0.747171700481, 
			 "electric_quadrupole_moment_norm": 5.71690971592, 
			 "total_energy": -10836.1845005, 
			 "HOMO_LUMO_gap": 0.18374, 
			 "cosmo_polarized_energy": -2.53, 
			 "cosmo_cavitation_energy": 24.5, 
			 "cosmo_dispersion_energy": -20.13, 
			 "cosmo_repulsion_energy": 1.6, 
			 "cosmo_total_nonelectrostatic_energy": 5.97, 
			 "SMD_solvation_energy": -0.35 
		},
		"coords": [
			{
				"x": -0.0139920489,
				"y": 2.5103795912,
				"z": 2.0743134281,
				"element": "Br" 
			},
			{
				"x": -0.1830474336,
				"y": 0.6450412493,
				"z": 2.0319056921,
				"element": "C" 
			},
			{
				"x": -0.2752872147,
				"y": -0.1703631989,
				"z": 0.9374567136,
				"element": "C" 
			},
			{
				"x": -0.2497865202,
				"y": 0.4474317119,
				"z": -0.837856676,
				"element": "Br" 
			},
			{
				"x": -0.394481183,
				"y": -1.559211848,
				"z": 1.2961065777,
				"element": "C" 
			},
			{
				"x": -0.541354069,
				"y": -2.9497138055,
				"z": 0.0395245947,
				"element": "Br" 
			},
			{
				"x": -0.38865107,
				"y": -1.7506618068,
				"z": 2.6505587149,
				"element": "C" 
			},
			{
				"x": -0.5178624385,
				"y": -3.3654922777,
				"z": 3.5915341952,
				"element": "Br" 
			},
			{
				"x": -0.2383380222,
				"y": -0.2512096155,
				"z": 3.5249567596,
				"element": "S" 
			}
		],
		 "valence_orbital": [ 
			{
				"type": "occ",
				"energy": -0.31271,
				"method": "rhf"
			},
			{
				"type": "occ",
				"energy": -0.31106,
				"method": "rhf"
			},
			{
				"type": "occ",
				"energy": -0.29003,
				"method": "rhf"
			},
			{
				"type": "occ",
				"energy": -0.26185,
				"method": "rhf"
			},
			{
				"type": "occ",
				"energy": -0.23965,
				"method": "rhf"
			},
			{
				"type": "unocc",
				"energy": -0.05591,
				"method": "rhf"
			},
			{
				"type": "unocc",
				"energy": -0.05207,
				"method": "rhf"
			},
			{
				"type": "unocc",
				"energy": -0.02581,
				"method": "rhf"
			},
			{
				"type": "unocc",
				"energy": -0.00039,
				"method": "rhf"
			},
			{
				"type": "unocc",
				"energy": 0.00523,
				"method": "rhf"
			}
		],
		"cosmo_sigma_profile": { 
			"-0.025": 0.0,
			"-0.024": 0.0,
			"-0.023": 0.0,
			"-0.022": 0.0,
			"-0.021": 0.0,
			"-0.02": 0.0,
			"-0.019": 0.0,
			"-0.018": 0.0,
			"-0.017": 0.0,
			"-0.016": 0.0,
			"-0.015": 0.0,
			"-0.014": 0.0,
			"-0.013": 0.0,
			"-0.012": 0.0,
			"-0.011": 0.0,
			"-0.01": 0.0,
			"-0.009": 0.0,
			"-0.008": 0.109411972689,
			"-0.007": 2.32133920797,
			"-0.006": 4.99486335866,
			"-0.005": 5.71235974837,
			"-0.004": 9.39318004648,
			"-0.003": 12.9002825608,
			"-0.002": 18.8353949146,
			"-0.001": 32.2603730287,
			"0.0": 29.2140405345,
			"0.001": 25.2064819352,
			"0.002": 30.265888848,
			"0.003": 33.6582003665,
			"0.004": 8.50193669162,
			"0.005": 0.117292662825,
			"0.006": 0.0,
			"0.007": 0.0,
			"0.008": 0.0,
			"0.009": 0.0,
			"0.01": 0.0,
			"0.011": 0.0,
			"0.012": 0.0,
			"0.013": 0.0,
			"0.014": 0.0,
			"0.015": 0.0,
			"0.016": 0.0,
			"0.017": 0.0,
			"0.018": 0.0,
			"0.019": 0.0,
			"0.02": 0.0,
			"0.021": 0.0,
			"0.022": 0.0,
			"0.023": 0.0,
			"0.024": 0.0,
			"0.025": 0.0
		}
	}
}
