{
	 "smiles": "BrC1C2=CC=CC=C2C2=CC=CC=C12", 
	 "Tm": 376.15, 
	 "num_atms": 23, 
	 "gaussian": { 
		 "optdone": 1, 
		 "sigma_profile": "yes", 
		 "theory": "DFT", 
		 "functional": "B3LYP", 
		 "basiset": "6-31G**", 
		 "properties": { 
			 "R2extent": 4233.4652, 
			 "electric_dipole_moment_norm": 2.13024839162, 
			 "electric_quadrupole_moment_norm": 12.3995048861, 
			 "total_energy": -3072.22849391, 
			 "HOMO_LUMO_gap": 0.16892, 
			 "cosmo_polarized_energy": -6.79, 
			 "cosmo_cavitation_energy": 28.74, 
			 "cosmo_dispersion_energy": -21.3, 
			 "cosmo_repulsion_energy": 1.65, 
			 "cosmo_total_nonelectrostatic_energy": 9.08, 
			 "SMD_solvation_energy": 3.05 
		},
		"coords": [
			{
				"x": -3.5711550504,
				"y": 0.5425059169,
				"z": 0.0258311251,
				"element": "Br" 
			},
			{
				"x": -1.6327631235,
				"y": 0.2447192238,
				"z": -0.4292008088,
				"element": "C" 
			},
			{
				"x": -0.9340213085,
				"y": -0.6052058621,
				"z": 0.6007375772,
				"element": "C" 
			},
			{
				"x": -1.2200324489,
				"y": -1.8980216485,
				"z": 1.0208431622,
				"element": "C" 
			},
			{
				"x": -0.3868285587,
				"y": -2.4942967111,
				"z": 1.9738227972,
				"element": "C" 
			},
			{
				"x": 0.7130648062,
				"y": -1.8006624938,
				"z": 2.490368901,
				"element": "C" 
			},
			{
				"x": 1.0027981543,
				"y": -0.500386009,
				"z": 2.0673109599,
				"element": "C" 
			},
			{
				"x": 0.1727780081,
				"y": 0.0978943913,
				"z": 1.1191678583,
				"element": "C" 
			},
			{
				"x": 0.2269719358,
				"y": 1.4235018724,
				"z": 0.482311614,
				"element": "C" 
			},
			{
				"x": 1.1246915396,
				"y": 2.4801679741,
				"z": 0.6353185852,
				"element": "C" 
			},
			{
				"x": 0.9354985838,
				"y": 3.6389341417,
				"z": -0.1230356844,
				"element": "C" 
			},
			{
				"x": -0.1319000064,
				"y": 3.7411673449,
				"z": -1.0218856615,
				"element": "C" 
			},
			{
				"x": -1.0328240485,
				"y": 2.6821993341,
				"z": -1.1795698159,
				"element": "C" 
			},
			{
				"x": -0.8467165245,
				"y": 1.5306042679,
				"z": -0.4253491215,
				"element": "C" 
			},
			{
				"x": -1.6983152394,
				"y": -0.2246304075,
				"z": -1.4118094221,
				"element": "H" 
			},
			{
				"x": -2.0840296135,
				"y": -2.4283760507,
				"z": 0.6311230797,
				"element": "H" 
			},
			{
				"x": -0.5974471777,
				"y": -3.5026277092,
				"z": 2.3174708479,
				"element": "H" 
			},
			{
				"x": 1.34921362,
				"y": -2.2783699621,
				"z": 3.2299601242,
				"element": "H" 
			},
			{
				"x": 1.8604295023,
				"y": 0.0297494782,
				"z": 2.4716505748,
				"element": "H" 
			},
			{
				"x": 1.9577419307,
				"y": 2.4083458994,
				"z": 1.3288149124,
				"element": "H" 
			},
			{
				"x": 1.6252208883,
				"y": 4.4707906685,
				"z": -0.0126623611,
				"element": "H" 
			},
			{
				"x": -0.2641051122,
				"y": 4.6509839993,
				"z": -1.5997625476,
				"element": "H" 
			},
			{
				"x": -1.8717707568,
				"y": 2.7660123416,
				"z": -1.8642566962,
				"element": "H" 
			}
		],
		 "valence_orbital": [ 
			{
				"type": "occ",
				"energy": -0.27872,
				"method": "rhf"
			},
			{
				"type": "occ",
				"energy": -0.26979,
				"method": "rhf"
			},
			{
				"type": "occ",
				"energy": -0.25234,
				"method": "rhf"
			},
			{
				"type": "occ",
				"energy": -0.25101,
				"method": "rhf"
			},
			{
				"type": "occ",
				"energy": -0.22229,
				"method": "rhf"
			},
			{
				"type": "unocc",
				"energy": -0.05337,
				"method": "rhf"
			},
			{
				"type": "unocc",
				"energy": -0.03384,
				"method": "rhf"
			},
			{
				"type": "unocc",
				"energy": 0.00117,
				"method": "rhf"
			},
			{
				"type": "unocc",
				"energy": 0.03234,
				"method": "rhf"
			},
			{
				"type": "unocc",
				"energy": 0.03444,
				"method": "rhf"
			}
		],
		"cosmo_sigma_profile": { 
			"-0.025": 0.0,
			"-0.024": 0.0,
			"-0.023": 0.0,
			"-0.022": 0.0,
			"-0.021": 0.0,
			"-0.02": 0.0,
			"-0.019": 0.0,
			"-0.018": 0.0,
			"-0.017": 0.0,
			"-0.016": 0.0,
			"-0.015": 0.0,
			"-0.014": 0.0,
			"-0.013": 0.0,
			"-0.012": 0.0,
			"-0.011": 0.0,
			"-0.01": 0.0,
			"-0.009": 0.412761060938,
			"-0.008": 2.18514655912,
			"-0.007": 2.778421747,
			"-0.006": 16.7622710754,
			"-0.005": 19.6407439528,
			"-0.004": 20.4772982431,
			"-0.003": 15.4151282817,
			"-0.002": 13.3525458924,
			"-0.001": 13.3473243266,
			"0.0": 14.5384600614,
			"0.001": 14.5328883814,
			"0.002": 18.5879826747,
			"0.003": 20.3340135845,
			"0.004": 25.9075137628,
			"0.005": 25.8426696034,
			"0.006": 9.32719348368,
			"0.007": 0.761561884985,
			"0.008": 0.0,
			"0.009": 0.0,
			"0.01": 0.0,
			"0.011": 0.0,
			"0.012": 0.0,
			"0.013": 0.0,
			"0.014": 0.0,
			"0.015": 0.0,
			"0.016": 0.0,
			"0.017": 0.0,
			"0.018": 0.0,
			"0.019": 0.0,
			"0.02": 0.0,
			"0.021": 0.0,
			"0.022": 0.0,
			"0.023": 0.0,
			"0.024": 0.0,
			"0.025": 0.0
		}
	}
}
