{
	 "smiles": "OCC1=C(Br)C=C(C=C1)[N+]([O-])=O", 
	 "Tm": 355.15, 
	 "num_atms": 18, 
	 "gaussian": { 
		 "optdone": 1, 
		 "sigma_profile": "yes", 
		 "theory": "DFT", 
		 "functional": "B3LYP", 
		 "basiset": "6-31G**", 
		 "properties": { 
			 "R2extent": 3857.9017, 
			 "electric_dipole_moment_norm": 3.14849231697, 
			 "electric_quadrupole_moment_norm": 12.8671277739, 
			 "total_energy": -3122.07413559, 
			 "HOMO_LUMO_gap": 0.17318, 
			 "cosmo_polarized_energy": -10.63, 
			 "cosmo_cavitation_energy": 25.1, 
			 "cosmo_dispersion_energy": -18.92, 
			 "cosmo_repulsion_energy": 1.5, 
			 "cosmo_total_nonelectrostatic_energy": 7.68, 
			 "SMD_solvation_energy": 5.5 
		},
		"coords": [
			{
				"x": 1.6985538423,
				"y": 3.0235708588,
				"z": 1.1913036364,
				"element": "O" 
			},
			{
				"x": 1.7628345953,
				"y": 2.3035902535,
				"z": -0.0277808883,
				"element": "C" 
			},
			{
				"x": 0.6902403541,
				"y": 1.2342124459,
				"z": -0.1483584815,
				"element": "C" 
			},
			{
				"x": -0.6663019919,
				"y": 1.5442853128,
				"z": -0.334172104,
				"element": "C" 
			},
			{
				"x": -1.2260351908,
				"y": 3.3766177974,
				"z": -0.4537251812,
				"element": "Br" 
			},
			{
				"x": -1.6465609744,
				"y": 0.5657347315,
				"z": -0.4386857331,
				"element": "C" 
			},
			{
				"x": -1.2495787099,
				"y": -0.7664751398,
				"z": -0.3524075338,
				"element": "C" 
			},
			{
				"x": 0.0795751515,
				"y": -1.1323075914,
				"z": -0.1662072363,
				"element": "C" 
			},
			{
				"x": 1.0327166693,
				"y": -0.1227806999,
				"z": -0.0651583642,
				"element": "C" 
			},
			{
				"x": -2.277375276,
				"y": -1.8160833569,
				"z": -0.4636454568,
				"element": "N" 
			},
			{
				"x": -1.9031069326,
				"y": -2.9848062042,
				"z": -0.3880348102,
				"element": "O" 
			},
			{
				"x": -3.4422295217,
				"y": -1.456968867,
				"z": -0.6256363515,
				"element": "O" 
			},
			{
				"x": 0.9188961478,
				"y": 3.5951219894,
				"z": 1.1514352688,
				"element": "H" 
			},
			{
				"x": 2.7450461523,
				"y": 1.824038598,
				"z": -0.0469321385,
				"element": "H" 
			},
			{
				"x": 1.7038802299,
				"y": 2.9728542632,
				"z": -0.8984915122,
				"element": "H" 
			},
			{
				"x": -2.6900333919,
				"y": 0.8108443318,
				"z": -0.5839384116,
				"element": "H" 
			},
			{
				"x": 0.343231944,
				"y": -2.1802532213,
				"z": -0.1026367341,
				"element": "H" 
			},
			{
				"x": 2.0750469027,
				"y": -0.3880955017,
				"z": 0.084872032,
				"element": "H" 
			}
		],
		 "valence_orbital": [ 
			{
				"type": "occ",
				"energy": -0.31375,
				"method": "rhf"
			},
			{
				"type": "occ",
				"energy": -0.30117,
				"method": "rhf"
			},
			{
				"type": "occ",
				"energy": -0.2942,
				"method": "rhf"
			},
			{
				"type": "occ",
				"energy": -0.2856,
				"method": "rhf"
			},
			{
				"type": "occ",
				"energy": -0.27396,
				"method": "rhf"
			},
			{
				"type": "unocc",
				"energy": -0.10078,
				"method": "rhf"
			},
			{
				"type": "unocc",
				"energy": -0.04462,
				"method": "rhf"
			},
			{
				"type": "unocc",
				"energy": -0.0216,
				"method": "rhf"
			},
			{
				"type": "unocc",
				"energy": -0.01651,
				"method": "rhf"
			},
			{
				"type": "unocc",
				"energy": 0.08324,
				"method": "rhf"
			}
		],
		"cosmo_sigma_profile": { 
			"-0.025": 0.0,
			"-0.024": 0.0,
			"-0.023": 0.0,
			"-0.022": 0.0,
			"-0.021": 0.0,
			"-0.02": 0.0,
			"-0.019": 0.0,
			"-0.018": 0.0,
			"-0.017": 0.0,
			"-0.016": 0.0,
			"-0.015": 0.0,
			"-0.014": 0.0,
			"-0.013": 0.0,
			"-0.012": 0.313101862287,
			"-0.011": 0.857833136489,
			"-0.01": 0.691395991975,
			"-0.009": 1.32608059237,
			"-0.008": 6.17515360649,
			"-0.007": 8.3282363545,
			"-0.006": 10.7961284535,
			"-0.005": 12.9352407584,
			"-0.004": 14.0236111126,
			"-0.003": 14.8180986331,
			"-0.002": 17.3615759008,
			"-0.001": 18.6083612641,
			"0.0": 18.7492378729,
			"0.001": 11.6579298477,
			"0.002": 10.1137650897,
			"0.003": 10.9940522778,
			"0.004": 4.88177297554,
			"0.005": 4.25790542635,
			"0.006": 5.02288272978,
			"0.007": 11.0836330941,
			"0.008": 7.17867208629,
			"0.009": 4.82565561117,
			"0.01": 2.77778423645,
			"0.011": 1.30166904121,
			"0.012": 1.5711141587,
			"0.013": 2.19552472854,
			"0.014": 1.12944230805,
			"0.015": 0.0,
			"0.016": 0.0,
			"0.017": 0.0,
			"0.018": 0.0,
			"0.019": 0.0,
			"0.02": 0.0,
			"0.021": 0.0,
			"0.022": 0.0,
			"0.023": 0.0,
			"0.024": 0.0,
			"0.025": 0.0
		}
	}
}
