{
	 "smiles": "CCC(=O)OC1=CC=CC=C1", 
	 "Tm": 293.15, 
	 "num_atms": 21, 
	 "gaussian": { 
		 "optdone": 1, 
		 "sigma_profile": "yes", 
		 "theory": "DFT", 
		 "functional": "B3LYP", 
		 "basiset": "6-31G**", 
		 "properties": { 
			 "R2extent": 2181.5619, 
			 "electric_dipole_moment_norm": 1.74053041915, 
			 "electric_quadrupole_moment_norm": 9.93153170614, 
			 "total_energy": -499.444099878, 
			 "HOMO_LUMO_gap": 0.22765, 
			 "cosmo_polarized_energy": -7.1, 
			 "cosmo_cavitation_energy": 25.16, 
			 "cosmo_dispersion_energy": -18.21, 
			 "cosmo_repulsion_energy": 1.49, 
			 "cosmo_total_nonelectrostatic_energy": 8.43, 
			 "SMD_solvation_energy": 5.47 
		},
		"coords": [
			{
				"x": -1.5935365794,
				"y": -1.0643503861,
				"z": 3.0552112575,
				"element": "C" 
			},
			{
				"x": -0.57327294,
				"y": 0.0746644326,
				"z": 2.8956809509,
				"element": "C" 
			},
			{
				"x": 0.0525638157,
				"y": 0.1251294481,
				"z": 1.5171046495,
				"element": "C" 
			},
			{
				"x": 1.2244313313,
				"y": -0.0214827442,
				"z": 1.2683901495,
				"element": "O" 
			},
			{
				"x": -0.9167436736,
				"y": 0.3610572635,
				"z": 0.5761334886,
				"element": "O" 
			},
			{
				"x": -0.6183983656,
				"y": 0.4289855967,
				"z": -0.7866084504,
				"element": "C" 
			},
			{
				"x": 0.4817391137,
				"y": 1.1214101092,
				"z": -1.2943595467,
				"element": "C" 
			},
			{
				"x": 0.6475946733,
				"y": 1.1930823123,
				"z": -2.6787495068,
				"element": "C" 
			},
			{
				"x": -0.2690748577,
				"y": 0.5902701346,
				"z": -3.5420794807,
				"element": "C" 
			},
			{
				"x": -1.3673926834,
				"y": -0.0927376107,
				"z": -3.0159831906,
				"element": "C" 
			},
			{
				"x": -1.5448090079,
				"y": -0.1761388607,
				"z": -1.6353201303,
				"element": "C" 
			},
			{
				"x": -1.1268246632,
				"y": -2.0384846152,
				"z": 2.879352882,
				"element": "H" 
			},
			{
				"x": -2.0022496218,
				"y": -1.0657909225,
				"z": 4.0697225473,
				"element": "H" 
			},
			{
				"x": -2.4211510858,
				"y": -0.9488451257,
				"z": 2.3513354349,
				"element": "H" 
			},
			{
				"x": -1.0656406725,
				"y": 1.0371069477,
				"z": 3.0789475829,
				"element": "H" 
			},
			{
				"x": 0.246836519,
				"y": -0.0287939113,
				"z": 3.6095653173,
				"element": "H" 
			},
			{
				"x": 1.1960227795,
				"y": 1.5812781525,
				"z": -0.6248757615,
				"element": "H" 
			},
			{
				"x": 1.5033517696,
				"y": 1.7271505437,
				"z": -3.0813678647,
				"element": "H" 
			},
			{
				"x": -0.1290859436,
				"y": 0.6535578295,
				"z": -4.6169479358,
				"element": "H" 
			},
			{
				"x": -2.0886392444,
				"y": -0.5626310932,
				"z": -3.6781700094,
				"element": "H" 
			},
			{
				"x": -2.3919206632,
				"y": -0.6989375007,
				"z": -1.2034823835,
				"element": "H" 
			}
		],
		 "valence_orbital": [ 
			{
				"type": "occ",
				"energy": -0.34743,
				"method": "rhf"
			},
			{
				"type": "occ",
				"energy": -0.3195,
				"method": "rhf"
			},
			{
				"type": "occ",
				"energy": -0.27399,
				"method": "rhf"
			},
			{
				"type": "occ",
				"energy": -0.25212,
				"method": "rhf"
			},
			{
				"type": "occ",
				"energy": -0.23944,
				"method": "rhf"
			},
			{
				"type": "unocc",
				"energy": -0.01179,
				"method": "rhf"
			},
			{
				"type": "unocc",
				"energy": -0.00346,
				"method": "rhf"
			},
			{
				"type": "unocc",
				"energy": 0.01903,
				"method": "rhf"
			},
			{
				"type": "unocc",
				"energy": 0.08833,
				"method": "rhf"
			},
			{
				"type": "unocc",
				"energy": 0.10179,
				"method": "rhf"
			}
		],
		"cosmo_sigma_profile": { 
			"-0.025": 0.0,
			"-0.024": 0.0,
			"-0.023": 0.0,
			"-0.022": 0.0,
			"-0.021": 0.0,
			"-0.02": 0.0,
			"-0.019": 0.0,
			"-0.018": 0.0,
			"-0.017": 0.0,
			"-0.016": 0.0,
			"-0.015": 0.0,
			"-0.014": 0.0,
			"-0.013": 0.0,
			"-0.012": 0.0,
			"-0.011": 0.0,
			"-0.01": 0.0,
			"-0.009": 0.0,
			"-0.008": 0.0,
			"-0.007": 0.677319583572,
			"-0.006": 10.0085777188,
			"-0.005": 15.5275423795,
			"-0.004": 20.8284515921,
			"-0.003": 22.1256182534,
			"-0.002": 20.2852416471,
			"-0.001": 16.2021828463,
			"0.0": 16.2460902736,
			"0.001": 11.7117228125,
			"0.002": 12.0390924396,
			"0.003": 11.2518221537,
			"0.004": 11.7485362657,
			"0.005": 12.4791543064,
			"0.006": 3.43468956383,
			"0.007": 2.55531527443,
			"0.008": 1.42878668025,
			"0.009": 2.14465528831,
			"0.01": 2.8942750045,
			"0.011": 3.81936594512,
			"0.012": 2.44917527651,
			"0.013": 0.130744538715,
			"0.014": 0.0,
			"0.015": 0.0,
			"0.016": 0.0,
			"0.017": 0.0,
			"0.018": 0.0,
			"0.019": 0.0,
			"0.02": 0.0,
			"0.021": 0.0,
			"0.022": 0.0,
			"0.023": 0.0,
			"0.024": 0.0,
			"0.025": 0.0
		}
	}
}
