{
	 "smiles": "OS(=O)(=O)C1=C2C=CN=CC2=CC=C1", 
	 "Tm": 573.15, 
	 "num_atms": 21, 
	 "gaussian": { 
		 "optdone": 1, 
		 "sigma_profile": "yes", 
		 "theory": "DFT", 
		 "functional": "B3LYP", 
		 "basiset": "6-31G**", 
		 "properties": { 
			 "R2extent": 2979.8285, 
			 "electric_dipole_moment_norm": 4.62248377066, 
			 "electric_quadrupole_moment_norm": 10.4756756484, 
			 "total_energy": -1025.71260176, 
			 "HOMO_LUMO_gap": 0.1717, 
			 "cosmo_polarized_energy": -16.78, 
			 "cosmo_cavitation_energy": 26.62, 
			 "cosmo_dispersion_energy": -20.44, 
			 "cosmo_repulsion_energy": 1.52, 
			 "cosmo_total_nonelectrostatic_energy": 7.7, 
			 "SMD_solvation_energy": 2.13 
		},
		"coords": [
			{
				"x": -2.1323195124,
				"y": 0.6569587737,
				"z": 1.4233135801,
				"element": "O" 
			},
			{
				"x": -0.7847576168,
				"y": 1.1979156609,
				"z": 0.6512969491,
				"element": "S" 
			},
			{
				"x": -1.2318126167,
				"y": 1.9029500448,
				"z": -0.5391986446,
				"element": "O" 
			},
			{
				"x": 0.0309784614,
				"y": 1.8681990962,
				"z": 1.6658547482,
				"element": "O" 
			},
			{
				"x": 0.0019057189,
				"y": -0.3409412926,
				"z": 0.1672488426,
				"element": "C" 
			},
			{
				"x": 1.3408589575,
				"y": -0.3007749555,
				"z": -0.3349972785,
				"element": "C" 
			},
			{
				"x": 2.1617083261,
				"y": 0.8534587253,
				"z": -0.4274232913,
				"element": "C" 
			},
			{
				"x": 3.4336416921,
				"y": 0.733890935,
				"z": -0.9403112012,
				"element": "C" 
			},
			{
				"x": 3.9837205022,
				"y": -0.4336688316,
				"z": -1.3716076682,
				"element": "N" 
			},
			{
				"x": 3.2378643311,
				"y": -1.5131321749,
				"z": -1.2856628198,
				"element": "C" 
			},
			{
				"x": 1.9075766496,
				"y": -1.5358674891,
				"z": -0.7806602089,
				"element": "C" 
			},
			{
				"x": 1.1556088572,
				"y": -2.7360521753,
				"z": -0.7174160456,
				"element": "C" 
			},
			{
				"x": -0.1295289664,
				"y": -2.729845801,
				"z": -0.2284444228,
				"element": "C" 
			},
			{
				"x": -0.7134997624,
				"y": -1.5193082358,
				"z": 0.2123224228,
				"element": "C" 
			},
			{
				"x": -1.9757127935,
				"y": 0.8043824994,
				"z": 2.3716109525,
				"element": "H" 
			},
			{
				"x": 1.807047896,
				"y": 1.8191648867,
				"z": -0.0894649388,
				"element": "H" 
			},
			{
				"x": 4.0727221853,
				"y": 1.6098283359,
				"z": -1.0186866873,
				"element": "H" 
			},
			{
				"x": 3.6809042502,
				"y": -2.4487660051,
				"z": -1.6290767389,
				"element": "H" 
			},
			{
				"x": 1.6129567821,
				"y": -3.6593099752,
				"z": -1.0628473532,
				"element": "H" 
			},
			{
				"x": -0.7085243047,
				"y": -3.6462364144,
				"z": -0.1792654092,
				"element": "H" 
			},
			{
				"x": -1.728839037,
				"y": -1.5158456074,
				"z": 0.5896152128,
				"element": "H" 
			}
		],
		 "valence_orbital": [ 
			{
				"type": "occ",
				"energy": -0.31956,
				"method": "rhf"
			},
			{
				"type": "occ",
				"energy": -0.30778,
				"method": "rhf"
			},
			{
				"type": "occ",
				"energy": -0.28619,
				"method": "rhf"
			},
			{
				"type": "occ",
				"energy": -0.26732,
				"method": "rhf"
			},
			{
				"type": "occ",
				"energy": -0.24986,
				"method": "rhf"
			},
			{
				"type": "unocc",
				"energy": -0.07816,
				"method": "rhf"
			},
			{
				"type": "unocc",
				"energy": -0.04406,
				"method": "rhf"
			},
			{
				"type": "unocc",
				"energy": -0.00571,
				"method": "rhf"
			},
			{
				"type": "unocc",
				"energy": 0.02244,
				"method": "rhf"
			},
			{
				"type": "unocc",
				"energy": 0.05061,
				"method": "rhf"
			}
		],
		"cosmo_sigma_profile": { 
			"-0.025": 0.0,
			"-0.024": 0.0,
			"-0.023": 0.0,
			"-0.022": 0.0,
			"-0.021": 0.0890199356246,
			"-0.02": 0.840360623069,
			"-0.019": 0.987827088983,
			"-0.018": 0.656684737691,
			"-0.017": 1.03900566293,
			"-0.016": 0.542435127263,
			"-0.015": 0.773172327038,
			"-0.014": 0.675282416564,
			"-0.013": 0.865454813937,
			"-0.012": 0.773645224527,
			"-0.011": 0.69304725128,
			"-0.01": 0.988301996121,
			"-0.009": 1.53279344781,
			"-0.008": 7.18179175766,
			"-0.007": 11.8594497079,
			"-0.006": 13.0289764947,
			"-0.005": 9.67495935449,
			"-0.004": 9.45655489596,
			"-0.003": 9.84829051527,
			"-0.002": 9.99832648414,
			"-0.001": 14.8885913055,
			"0.0": 25.0649224653,
			"0.001": 19.5076016269,
			"0.002": 12.5903627894,
			"0.003": 5.89306144156,
			"0.004": 4.85075902597,
			"0.005": 5.53966421114,
			"0.006": 4.72826619574,
			"0.007": 5.03671508031,
			"0.008": 7.23216859606,
			"0.009": 11.4008769075,
			"0.01": 10.1221569597,
			"0.011": 2.01898806355,
			"0.012": 1.22885614669,
			"0.013": 0.65628023197,
			"0.014": 0.660276678902,
			"0.015": 1.19692630099,
			"0.016": 0.484682943914,
			"0.017": 0.0,
			"0.018": 0.0,
			"0.019": 0.0,
			"0.02": 0.0,
			"0.021": 0.0,
			"0.022": 0.0,
			"0.023": 0.0,
			"0.024": 0.0,
			"0.025": 0.0
		}
	}
}
