{
	 "smiles": "CC(=O)OC1=C(C=C(I)C=C1I)C(=O)NC1=CC=C(Cl)C=C1", 
	 "Tm": 489.15, 
	 "num_atms": 32, 
	 "gaussian": { 
		 "optdone": 1, 
		 "sigma_profile": "no", 
		 "theory": "DFT", 
		 "functional": "B3LYP", 
		 "basiset": "6-31G**", 
		 "properties": { 
			 "R2extent": 10276.373, 
			 "electric_dipole_moment_norm": 4.15592036257, 
			 "electric_quadrupole_moment_norm": 12.0631260501, 
			 "total_energy": -1341.03349957, 
			 "HOMO_LUMO_gap": 0.15997, 
			 "cosmo_polarized_energy": -230264.7, 
			 "cosmo_cavitation_energy": 46.15, 
			 "cosmo_dispersion_energy": -34.05, 
			 "cosmo_repulsion_energy": 2.56, 
			 "cosmo_total_nonelectrostatic_energy": 14.66, 
			 "SMD_solvation_energy": 7.12 
		},
		"coords": [
			{
				"x": -2.3808939386,
				"y": 1.364061748,
				"z": 1.6462050273,
				"element": "C" 
			},
			{
				"x": -2.0537096062,
				"y": 0.927374294,
				"z": 0.2455920529,
				"element": "C" 
			},
			{
				"x": -2.3364053736,
				"y": 1.4786267249,
				"z": -0.7802089644,
				"element": "O" 
			},
			{
				"x": -1.322639406,
				"y": -0.2670540056,
				"z": 0.2815824903,
				"element": "O" 
			},
			{
				"x": -0.9449036139,
				"y": -0.8165990448,
				"z": -0.9410795719,
				"element": "C" 
			},
			{
				"x": 0.3037865204,
				"y": -0.5055180206,
				"z": -1.504927956,
				"element": "C" 
			},
			{
				"x": 0.6567859074,
				"y": -1.0873028971,
				"z": -2.7295384021,
				"element": "C" 
			},
			{
				"x": -0.2029774544,
				"y": -1.9800910129,
				"z": -3.3589406418,
				"element": "C" 
			},
			{
				"x": 0.3584680252,
				"y": -2.8589399316,
				"z": -5.1999618951,
				"element": "I" 
			},
			{
				"x": -1.4340994856,
				"y": -2.3121086986,
				"z": -2.7906628971,
				"element": "C" 
			},
			{
				"x": -1.7996731906,
				"y": -1.7207065884,
				"z": -1.580740177,
				"element": "C" 
			},
			{
				"x": -3.6638944517,
				"y": -2.2307315138,
				"z": -0.7257114681,
				"element": "I" 
			},
			{
				"x": 1.3453738433,
				"y": 0.4316918058,
				"z": -0.922466449,
				"element": "C" 
			},
			{
				"x": 2.1886159806,
				"y": 0.9376559629,
				"z": -1.6532644072,
				"element": "O" 
			},
			{
				"x": 1.3036848284,
				"y": 0.6066698744,
				"z": 0.4380575617,
				"element": "N" 
			},
			{
				"x": 2.1655836208,
				"y": 1.3738747433,
				"z": 1.2479602347,
				"element": "C" 
			},
			{
				"x": 3.189226011,
				"y": 2.1907642958,
				"z": 0.7426252732,
				"element": "C" 
			},
			{
				"x": 3.9841795934,
				"y": 2.9262109683,
				"z": 1.6206665742,
				"element": "C" 
			},
			{
				"x": 3.7667386916,
				"y": 2.8532944788,
				"z": 2.9951146602,
				"element": "C" 
			},
			{
				"x": 4.7752144724,
				"y": 3.7862359026,
				"z": 4.0910156267,
				"element": "Cl" 
			},
			{
				"x": 2.7555425728,
				"y": 2.0435120873,
				"z": 3.5108367323,
				"element": "C" 
			},
			{
				"x": 1.9619885438,
				"y": 1.3082535852,
				"z": 2.6363645017,
				"element": "C" 
			},
			{
				"x": -3.0513375673,
				"y": 2.2215273841,
				"z": 1.6049369214,
				"element": "H" 
			},
			{
				"x": -1.4618806406,
				"y": 1.6483491577,
				"z": 2.1695069428,
				"element": "H" 
			},
			{
				"x": -2.8431178834,
				"y": 0.5435851481,
				"z": 2.2009999434,
				"element": "H" 
			},
			{
				"x": 1.610863682,
				"y": -0.809752711,
				"z": -3.1599973237,
				"element": "H" 
			},
			{
				"x": -2.1007248773,
				"y": -3.0127002039,
				"z": -3.2771626827,
				"element": "H" 
			},
			{
				"x": 0.5691188813,
				"y": 0.1119967661,
				"z": 0.9255680009,
				"element": "H" 
			},
			{
				"x": 3.3544836588,
				"y": 2.2410374753,
				"z": -0.3237506673,
				"element": "H" 
			},
			{
				"x": 4.7745310552,
				"y": 3.5581053294,
				"z": 1.230745225,
				"element": "H" 
			},
			{
				"x": 2.5931546239,
				"y": 1.9857153331,
				"z": 4.5812568334,
				"element": "H" 
			},
			{
				"x": 1.1816169769,
				"y": 0.6665615632,
				"z": 3.0391789015,
				"element": "H" 
			}
		],
		 "valence_orbital": [ 
			{
				"type": "occ",
				"energy": -0.27663,
				"method": "rhf"
			},
			{
				"type": "occ",
				"energy": -0.2714,
				"method": "rhf"
			},
			{
				"type": "occ",
				"energy": -0.26556,
				"method": "rhf"
			},
			{
				"type": "occ",
				"energy": -0.25399,
				"method": "rhf"
			},
			{
				"type": "occ",
				"energy": -0.23019,
				"method": "rhf"
			},
			{
				"type": "unocc",
				"energy": -0.07022,
				"method": "rhf"
			},
			{
				"type": "unocc",
				"energy": -0.06857,
				"method": "rhf"
			},
			{
				"type": "unocc",
				"energy": -0.04352,
				"method": "rhf"
			},
			{
				"type": "unocc",
				"energy": -0.03924,
				"method": "rhf"
			},
			{
				"type": "unocc",
				"energy": -0.02457,
				"method": "rhf"
			}
		],
		"cosmo_sigma_profile": { 
			"0.0": 0.0,
			"0.0": 0.0,
			"0.0": 0.0,
			"0.0": 0.0,
			"0.0": 0.0,
			"0.0": 0.0,
			"0.0": 0.0,
			"0.0": 0.0,
			"0.0": 0.0,
			"0.0": 0.0,
			"0.0": 0.0,
			"0.0": 0.0,
			"0.0": 0.0,
			"0.0": 0.0,
			"0.0": 0.0,
			"0.0": 0.0,
			"0.0": 0.0,
			"0.0": 0.0,
			"0.0": 0.0,
			"0.0": 0.0,
			"0.0": 0.0,
			"0.0": 0.0,
			"0.0": 0.0,
			"0.0": 0.0,
			"0.0": 0.0,
			"0.0": 0.0,
			"0.0": 0.0,
			"0.0": 0.0,
			"0.0": 0.0,
			"0.0": 0.0,
			"0.0": 0.0,
			"0.0": 0.0,
			"0.0": 0.0,
			"0.0": 0.0,
			"0.0": 0.0,
			"0.0": 0.0,
			"0.0": 0.0,
			"0.0": 0.0,
			"0.0": 0.0,
			"0.0": 0.0,
			"0.0": 0.0,
			"0.0": 0.0,
			"0.0": 0.0,
			"0.0": 0.0,
			"0.0": 0.0,
			"0.0": 0.0,
			"0.0": 0.0,
			"0.0": 0.0,
			"0.0": 0.0,
			"0.0": 0.0,
			"0.0": 0.0
		}
	}
}
