{
	 "smiles": "NC1=CC=C(N2CCOCC2)C(Cl)=C1", 
	 "Tm": 376.15, 
	 "num_atms": 27, 
	 "gaussian": { 
		 "optdone": 1, 
		 "sigma_profile": "yes", 
		 "theory": "DFT", 
		 "functional": "B3LYP", 
		 "basiset": "6-31G**", 
		 "properties": { 
			 "R2extent": 5012.8089, 
			 "electric_dipole_moment_norm": 3.55743899315, 
			 "electric_quadrupole_moment_norm": 18.4414267515, 
			 "total_energy": -1033.7838962, 
			 "HOMO_LUMO_gap": 0.18183, 
			 "cosmo_polarized_energy": -12.56, 
			 "cosmo_cavitation_energy": 30.5, 
			 "cosmo_dispersion_energy": -22.52, 
			 "cosmo_repulsion_energy": 1.78, 
			 "cosmo_total_nonelectrostatic_energy": 9.76, 
			 "SMD_solvation_energy": 3.79 
		},
		"coords": [
			{
				"x": 5.8334084498,
				"y": -1.8488336913,
				"z": 1.6492086873,
				"element": "N" 
			},
			{
				"x": 4.5288112251,
				"y": -1.5874207259,
				"z": 1.225385951,
				"element": "C" 
			},
			{
				"x": 3.456674757,
				"y": -1.591175935,
				"z": 2.1322524449,
				"element": "C" 
			},
			{
				"x": 2.1571056244,
				"y": -1.377300642,
				"z": 1.6874066554,
				"element": "C" 
			},
			{
				"x": 1.8432317782,
				"y": -1.1816339826,
				"z": 0.3308125677,
				"element": "C" 
			},
			{
				"x": 0.5209505097,
				"y": -0.971123445,
				"z": -0.1349833051,
				"element": "N" 
			},
			{
				"x": -0.5697006882,
				"y": -1.7594747175,
				"z": 0.4575763192,
				"element": "C" 
			},
			{
				"x": -1.567688366,
				"y": -0.8843873168,
				"z": 1.2152760661,
				"element": "C" 
			},
			{
				"x": -2.1495982189,
				"y": 0.1156221474,
				"z": 0.3816668224,
				"element": "O" 
			},
			{
				"x": -1.3267687589,
				"y": 0.5263834224,
				"z": -0.7102386673,
				"element": "C" 
			},
			{
				"x": 0.161245895,
				"y": 0.4318846447,
				"z": -0.396679038,
				"element": "C" 
			},
			{
				"x": 2.9344292806,
				"y": -1.1910085691,
				"z": -0.5590594251,
				"element": "C" 
			},
			{
				"x": 2.6628416907,
				"y": -0.9763589502,
				"z": -2.2845771011,
				"element": "Cl" 
			},
			{
				"x": 4.2466423371,
				"y": -1.3752615643,
				"z": -0.1326735882,
				"element": "C" 
			},
			{
				"x": 6.5611360823,
				"y": -1.4934515708,
				"z": 1.0444870174,
				"element": "H" 
			},
			{
				"x": 6.0170613604,
				"y": -1.636758699,
				"z": 2.6202906799,
				"element": "H" 
			},
			{
				"x": 3.6465947394,
				"y": -1.750525294,
				"z": 3.1906010675,
				"element": "H" 
			},
			{
				"x": 1.3523452542,
				"y": -1.3560288521,
				"z": 2.4165042153,
				"element": "H" 
			},
			{
				"x": -0.157370431,
				"y": -2.5198855983,
				"z": 1.1264098328,
				"element": "H" 
			},
			{
				"x": -1.1073469766,
				"y": -2.2976884713,
				"z": -0.3366978113,
				"element": "H" 
			},
			{
				"x": -2.3915294859,
				"y": -1.4950897676,
				"z": 1.6026079154,
				"element": "H" 
			},
			{
				"x": -1.0707175255,
				"y": -0.4111830508,
				"z": 2.0778803528,
				"element": "H" 
			},
			{
				"x": -1.5965678613,
				"y": 1.5637441151,
				"z": -0.9331297366,
				"element": "H" 
			},
			{
				"x": -1.5481238354,
				"y": -0.0784799074,
				"z": -1.6030555012,
				"element": "H" 
			},
			{
				"x": 0.737691243,
				"y": 0.8071903807,
				"z": -1.249463002,
				"element": "H" 
			},
			{
				"x": 0.3899121871,
				"y": 1.0805079889,
				"z": 0.4669175067,
				"element": "H" 
			},
			{
				"x": 5.0475297339,
				"y": -1.377861948,
				"z": -0.8650269259,
				"element": "H" 
			}
		],
		 "valence_orbital": [ 
			{
				"type": "occ",
				"energy": -0.29474,
				"method": "rhf"
			},
			{
				"type": "occ",
				"energy": -0.24472,
				"method": "rhf"
			},
			{
				"type": "occ",
				"energy": -0.24313,
				"method": "rhf"
			},
			{
				"type": "occ",
				"energy": -0.22785,
				"method": "rhf"
			},
			{
				"type": "occ",
				"energy": -0.18999,
				"method": "rhf"
			},
			{
				"type": "unocc",
				"energy": -0.00816,
				"method": "rhf"
			},
			{
				"type": "unocc",
				"energy": 0.00944,
				"method": "rhf"
			},
			{
				"type": "unocc",
				"energy": 0.03827,
				"method": "rhf"
			},
			{
				"type": "unocc",
				"energy": 0.07564,
				"method": "rhf"
			},
			{
				"type": "unocc",
				"energy": 0.08434,
				"method": "rhf"
			}
		],
		"cosmo_sigma_profile": { 
			"-0.025": 0.0,
			"-0.024": 0.0,
			"-0.023": 0.0,
			"-0.022": 0.0,
			"-0.021": 0.0,
			"-0.02": 0.0,
			"-0.019": 0.0,
			"-0.018": 0.0,
			"-0.017": 0.0,
			"-0.016": 0.0,
			"-0.015": 0.0,
			"-0.014": 0.0,
			"-0.013": 0.580228649531,
			"-0.012": 2.81120634152,
			"-0.011": 2.90649071266,
			"-0.01": 3.1310533629,
			"-0.009": 3.02335418038,
			"-0.008": 3.48990145519,
			"-0.007": 3.29953146476,
			"-0.006": 8.28147076712,
			"-0.005": 13.7308088646,
			"-0.004": 18.8398601931,
			"-0.003": 25.0322323643,
			"-0.002": 22.4662973108,
			"-0.001": 17.4719870505,
			"0.0": 12.5221142035,
			"0.001": 11.3973863402,
			"0.002": 13.748378524,
			"0.003": 13.5786325472,
			"0.004": 16.7928847374,
			"0.005": 19.1644474657,
			"0.006": 7.74400575504,
			"0.007": 3.64246807698,
			"0.008": 3.79390098317,
			"0.009": 2.05555877546,
			"0.01": 2.72749865694,
			"0.011": 2.65601903766,
			"0.012": 2.52758674825,
			"0.013": 2.5538698146,
			"0.014": 1.81170754797,
			"0.015": 0.127009756687,
			"0.016": 0.0,
			"0.017": 0.0,
			"0.018": 0.0,
			"0.019": 0.0,
			"0.02": 0.0,
			"0.021": 0.0,
			"0.022": 0.0,
			"0.023": 0.0,
			"0.024": 0.0,
			"0.025": 0.0
		}
	}
}
