{
	 "smiles": "CCOC(=O)[C@H](CCC1=CC=CC=C1)N[C@@H](C)C(=O)N1[C@@H](CN(C)C1=O)C(O)=O", 
	 "Tm": 412.15, 
	 "num_atms": 56, 
	 "gaussian": { 
		 "optdone": 1, 
		 "sigma_profile": "yes", 
		 "theory": "DFT", 
		 "functional": "B3LYP", 
		 "basiset": "6-31G**", 
		 "properties": { 
			 "R2extent": 12982.933, 
			 "electric_dipole_moment_norm": 5.7140174886, 
			 "electric_quadrupole_moment_norm": 25.4613959397, 
			 "total_energy": -1394.06787981, 
			 "HOMO_LUMO_gap": 0.20183, 
			 "cosmo_polarized_energy": -24.96, 
			 "cosmo_cavitation_energy": 58.1, 
			 "cosmo_dispersion_energy": -35.95, 
			 "cosmo_repulsion_energy": 2.8, 
			 "cosmo_total_nonelectrostatic_energy": 24.95, 
			 "SMD_solvation_energy": 10.65 
		},
		"coords": [
			{
				"x": -4.346248961,
				"y": 2.1204340654,
				"z": 0.0111706584,
				"element": "C" 
			},
			{
				"x": -3.6522385704,
				"y": 0.7737893366,
				"z": 0.1433205464,
				"element": "C" 
			},
			{
				"x": -2.2167079034,
				"y": 0.8891250187,
				"z": -0.0494030635,
				"element": "O" 
			},
			{
				"x": -1.7740874442,
				"y": 0.8600803451,
				"z": -1.3259798611,
				"element": "C" 
			},
			{
				"x": -2.5029775757,
				"y": 0.7452709272,
				"z": -2.2911284918,
				"element": "O" 
			},
			{
				"x": -0.2485895322,
				"y": 0.9992384895,
				"z": -1.433581225,
				"element": "C" 
			},
			{
				"x": 0.1480249244,
				"y": 2.4853526413,
				"z": -1.5873604247,
				"element": "C" 
			},
			{
				"x": -0.0598849987,
				"y": 3.3690587291,
				"z": -0.3383097165,
				"element": "C" 
			},
			{
				"x": 0.8449294202,
				"y": 3.0114837848,
				"z": 0.8251499991,
				"element": "C" 
			},
			{
				"x": 2.1782338637,
				"y": 3.4467054579,
				"z": 0.8462620119,
				"element": "C" 
			},
			{
				"x": 3.026400168,
				"y": 3.1144909838,
				"z": 1.9022695993,
				"element": "C" 
			},
			{
				"x": 2.5538761128,
				"y": 2.3383769523,
				"z": 2.9631955975,
				"element": "C" 
			},
			{
				"x": 1.2297149418,
				"y": 1.8985891504,
				"z": 2.955885767,
				"element": "C" 
			},
			{
				"x": 0.383649028,
				"y": 2.2326381166,
				"z": 1.8956023434,
				"element": "C" 
			},
			{
				"x": 0.2622598384,
				"y": 0.2478330331,
				"z": -2.5763924596,
				"element": "N" 
			},
			{
				"x": 0.2510816331,
				"y": -1.2044738259,
				"z": -2.421431086,
				"element": "C" 
			},
			{
				"x": 0.4822355556,
				"y": -1.864032831,
				"z": -3.7930347366,
				"element": "C" 
			},
			{
				"x": 1.3972091431,
				"y": -1.6073965337,
				"z": -1.4826731241,
				"element": "C" 
			},
			{
				"x": 2.4019276947,
				"y": -0.9040903521,
				"z": -1.3470589169,
				"element": "O" 
			},
			{
				"x": 1.3170248817,
				"y": -2.7878347987,
				"z": -0.7641795579,
				"element": "N" 
			},
			{
				"x": 2.3126129298,
				"y": -3.0930105054,
				"z": 0.2868965343,
				"element": "C" 
			},
			{
				"x": 1.6177745759,
				"y": -4.1824973172,
				"z": 1.1229393015,
				"element": "C" 
			},
			{
				"x": 0.5059591387,
				"y": -4.5924770465,
				"z": 0.2821168134,
				"element": "N" 
			},
			{
				"x": -0.3650367383,
				"y": -5.70026856,
				"z": 0.6093790951,
				"element": "C" 
			},
			{
				"x": 0.2731051416,
				"y": -3.7670726029,
				"z": -0.7733833517,
				"element": "C" 
			},
			{
				"x": -0.6346643291,
				"y": -3.8409362502,
				"z": -1.584008319,
				"element": "O" 
			},
			{
				"x": 3.6757054584,
				"y": -3.5816363244,
				"z": -0.2819144769,
				"element": "C" 
			},
			{
				"x": 4.3156690098,
				"y": -2.697573387,
				"z": -1.0423874323,
				"element": "O" 
			},
			{
				"x": 4.1313456998,
				"y": -4.6709793273,
				"z": -0.0168185878,
				"element": "O" 
			},
			{
				"x": -4.2413875691,
				"y": 2.5090841951,
				"z": -1.0045252575,
				"element": "H" 
			},
			{
				"x": -5.4142863322,
				"y": 2.0077058803,
				"z": 0.2253938018,
				"element": "H" 
			},
			{
				"x": -3.9320430295,
				"y": 2.8471869331,
				"z": 0.7164582138,
				"element": "H" 
			},
			{
				"x": -4.0422412434,
				"y": 0.0563540191,
				"z": -0.5821514612,
				"element": "H" 
			},
			{
				"x": -3.7557666196,
				"y": 0.3656490412,
				"z": 1.1513434039,
				"element": "H" 
			},
			{
				"x": 0.2094038387,
				"y": 0.613806645,
				"z": -0.5180614282,
				"element": "H" 
			},
			{
				"x": -0.4117149246,
				"y": 2.909885178,
				"z": -2.4309301706,
				"element": "H" 
			},
			{
				"x": 1.2049549756,
				"y": 2.4855180266,
				"z": -1.8709285829,
				"element": "H" 
			},
			{
				"x": -1.1059403705,
				"y": 3.325492044,
				"z": -0.0181035876,
				"element": "H" 
			},
			{
				"x": 0.130503766,
				"y": 4.4077857078,
				"z": -0.6336796711,
				"element": "H" 
			},
			{
				"x": 2.5532286897,
				"y": 4.0568360577,
				"z": 0.0275501838,
				"element": "H" 
			},
			{
				"x": 4.0546560757,
				"y": 3.4653695024,
				"z": 1.8999033841,
				"element": "H" 
			},
			{
				"x": 3.2117318775,
				"y": 2.0833506903,
				"z": 3.7892276822,
				"element": "H" 
			},
			{
				"x": 0.8506963096,
				"y": 1.298867958,
				"z": 3.7793109985,
				"element": "H" 
			},
			{
				"x": -0.6450499063,
				"y": 1.8834425884,
				"z": 1.8911874798,
				"element": "H" 
			},
			{
				"x": -0.31045272,
				"y": 0.4788410796,
				"z": -3.3851294011,
				"element": "H" 
			},
			{
				"x": -0.6893391623,
				"y": -1.5969579621,
				"z": -2.013733523,
				"element": "H" 
			},
			{
				"x": 0.4796848496,
				"y": -2.9511417624,
				"z": -3.7050669834,
				"element": "H" 
			},
			{
				"x": 1.4296801981,
				"y": -1.5234485445,
				"z": -4.2199371234,
				"element": "H" 
			},
			{
				"x": -0.3305504914,
				"y": -1.5814915389,
				"z": -4.4696124488,
				"element": "H" 
			},
			{
				"x": 2.5010677613,
				"y": -2.1807371618,
				"z": 0.8617879109,
				"element": "H" 
			},
			{
				"x": 1.2600990758,
				"y": -3.7948962489,
				"z": 2.0864317935,
				"element": "H" 
			},
			{
				"x": 2.3112538209,
				"y": -5.0088526634,
				"z": 1.2996222627,
				"element": "H" 
			},
			{
				"x": -0.8704846025,
				"y": -5.5333663965,
				"z": 1.5690402859,
				"element": "H" 
			},
			{
				"x": 0.2058482711,
				"y": -6.6332291126,
				"z": 0.6712114185,
				"element": "H" 
			},
			{
				"x": -1.1136536422,
				"y": -5.7838087035,
				"z": -0.1793422257,
				"element": "H" 
			},
			{
				"x": 3.7596979976,
				"y": -1.8818328216,
				"z": -1.1465103906,
				"element": "H" 
			}
		],
		 "valence_orbital": [ 
			{
				"type": "occ",
				"energy": -0.26721,
				"method": "rhf"
			},
			{
				"type": "occ",
				"energy": -0.25981,
				"method": "rhf"
			},
			{
				"type": "occ",
				"energy": -0.24825,
				"method": "rhf"
			},
			{
				"type": "occ",
				"energy": -0.24128,
				"method": "rhf"
			},
			{
				"type": "occ",
				"energy": -0.23283,
				"method": "rhf"
			},
			{
				"type": "unocc",
				"energy": -0.031,
				"method": "rhf"
			},
			{
				"type": "unocc",
				"energy": -0.00164,
				"method": "rhf"
			},
			{
				"type": "unocc",
				"energy": 0.00017,
				"method": "rhf"
			},
			{
				"type": "unocc",
				"energy": 0.0005,
				"method": "rhf"
			},
			{
				"type": "unocc",
				"energy": 0.00208,
				"method": "rhf"
			}
		],
		"cosmo_sigma_profile": { 
			"-0.025": 0.0,
			"-0.024": 0.0,
			"-0.023": 0.0,
			"-0.022": 0.0,
			"-0.021": 0.0,
			"-0.02": 0.0,
			"-0.019": 0.0,
			"-0.018": 0.0,
			"-0.017": 0.0,
			"-0.016": 0.0,
			"-0.015": 0.0,
			"-0.014": 0.0,
			"-0.013": 0.0,
			"-0.012": 0.0,
			"-0.011": 0.00883412461803,
			"-0.01": 1.41293840243,
			"-0.009": 3.95471619132,
			"-0.008": 5.02462258275,
			"-0.007": 8.76187030637,
			"-0.006": 21.8910556939,
			"-0.005": 34.7447497736,
			"-0.004": 47.0529272903,
			"-0.003": 54.4934711337,
			"-0.002": 46.1224912902,
			"-0.001": 38.4477981416,
			"0.0": 34.2518593411,
			"0.001": 22.2725263139,
			"0.002": 16.3153086477,
			"0.003": 15.9174528676,
			"0.004": 16.3209951061,
			"0.005": 15.7897351613,
			"0.006": 14.1167194249,
			"0.007": 10.0889806754,
			"0.008": 6.30150861749,
			"0.009": 8.72939736969,
			"0.01": 9.22076514475,
			"0.011": 11.9788461174,
			"0.012": 8.88433832708,
			"0.013": 2.41477405332,
			"0.014": 0.908947965841,
			"0.015": 0.92719410608,
			"0.016": 0.293947395471,
			"0.017": 0.518458742826,
			"0.018": 0.230516632327,
			"0.019": 0.0,
			"0.02": 0.0,
			"0.021": 0.0,
			"0.022": 0.0,
			"0.023": 0.0,
			"0.024": 0.0,
			"0.025": 0.0
		}
	}
}
