{
	 "smiles": "COC(=O)CCCCC(O)=O", 
	 "Tm": 282.15, 
	 "num_atms": 23, 
	 "gaussian": { 
		 "optdone": 1, 
		 "sigma_profile": "yes", 
		 "theory": "DFT", 
		 "functional": "B3LYP", 
		 "basiset": "6-31G**", 
		 "properties": { 
			 "R2extent": 3050.8296, 
			 "electric_dipole_moment_norm": 1.55825944245, 
			 "electric_quadrupole_moment_norm": 11.6739127858, 
			 "total_energy": -574.904882684, 
			 "HOMO_LUMO_gap": 0.27191, 
			 "cosmo_polarized_energy": -13.15, 
			 "cosmo_cavitation_energy": 27.05, 
			 "cosmo_dispersion_energy": -19.11, 
			 "cosmo_repulsion_energy": 1.59, 
			 "cosmo_total_nonelectrostatic_energy": 9.53, 
			 "SMD_solvation_energy": 6.97 
		},
		"coords": [
			{
				"x": -3.8332109535,
				"y": 0.782098156,
				"z": 0.7072714755,
				"element": "C" 
			},
			{
				"x": -2.4496669247,
				"y": 0.862432538,
				"z": 1.0842326481,
				"element": "O" 
			},
			{
				"x": -1.8195688522,
				"y": -0.3262064807,
				"z": 1.2288612637,
				"element": "C" 
			},
			{
				"x": -2.366585083,
				"y": -1.3951768244,
				"z": 1.0612838952,
				"element": "O" 
			},
			{
				"x": -0.3707379302,
				"y": -0.122230829,
				"z": 1.6252134066,
				"element": "C" 
			},
			{
				"x": 0.3968908121,
				"y": -1.4413766179,
				"z": 1.7424187818,
				"element": "C" 
			},
			{
				"x": 1.8045431113,
				"y": -1.2970445354,
				"z": 2.3407013284,
				"element": "C" 
			},
			{
				"x": 2.7422380321,
				"y": -0.3147357074,
				"z": 1.5984241152,
				"element": "C" 
			},
			{
				"x": 2.8572362695,
				"y": -0.6421821337,
				"z": 0.1278286585,
				"element": "C" 
			},
			{
				"x": 3.7058071997,
				"y": -1.675047616,
				"z": -0.0988318497,
				"element": "O" 
			},
			{
				"x": 2.2491730274,
				"y": -0.0937903327,
				"z": -0.7672360231,
				"element": "O" 
			},
			{
				"x": -3.9425597513,
				"y": 0.2735951233,
				"z": -0.2540496468,
				"element": "H" 
			},
			{
				"x": -4.4084061039,
				"y": 0.2361774689,
				"z": 1.4596696508,
				"element": "H" 
			},
			{
				"x": -4.1799608072,
				"y": 1.8130598895,
				"z": 0.6352824251,
				"element": "H" 
			},
			{
				"x": 0.0874057781,
				"y": 0.5387517464,
				"z": 0.8810943359,
				"element": "H" 
			},
			{
				"x": -0.3617252951,
				"y": 0.4325409225,
				"z": 2.5733678155,
				"element": "H" 
			},
			{
				"x": -0.1795718118,
				"y": -2.13801764,
				"z": 2.3596041115,
				"element": "H" 
			},
			{
				"x": 0.45469969,
				"y": -1.9039985884,
				"z": 0.7505242289,
				"element": "H" 
			},
			{
				"x": 1.7304133508,
				"y": -0.9577658381,
				"z": 3.3816042075,
				"element": "H" 
			},
			{
				"x": 2.2804602559,
				"y": -2.2835216894,
				"z": 2.3676404903,
				"element": "H" 
			},
			{
				"x": 3.7362568501,
				"y": -0.353533465,
				"z": 2.0545603266,
				"element": "H" 
			},
			{
				"x": 2.3686070538,
				"y": 0.7090132096,
				"z": 1.6715971751,
				"element": "H" 
			},
			{
				"x": 3.6816620819,
				"y": -1.839240756,
				"z": -1.0568628205,
				"element": "H" 
			}
		],
		 "valence_orbital": [ 
			{
				"type": "occ",
				"energy": -0.33493,
				"method": "rhf"
			},
			{
				"type": "occ",
				"energy": -0.31867,
				"method": "rhf"
			},
			{
				"type": "occ",
				"energy": -0.29667,
				"method": "rhf"
			},
			{
				"type": "occ",
				"energy": -0.27467,
				"method": "rhf"
			},
			{
				"type": "occ",
				"energy": -0.26729,
				"method": "rhf"
			},
			{
				"type": "unocc",
				"energy": 0.00462,
				"method": "rhf"
			},
			{
				"type": "unocc",
				"energy": 0.01811,
				"method": "rhf"
			},
			{
				"type": "unocc",
				"energy": 0.07088,
				"method": "rhf"
			},
			{
				"type": "unocc",
				"energy": 0.09774,
				"method": "rhf"
			},
			{
				"type": "unocc",
				"energy": 0.1181,
				"method": "rhf"
			}
		],
		"cosmo_sigma_profile": { 
			"-0.025": 0.0,
			"-0.024": 0.0,
			"-0.023": 0.0,
			"-0.022": 0.0,
			"-0.021": 0.0,
			"-0.02": 0.0,
			"-0.019": 0.0146835406887,
			"-0.018": 0.667891803809,
			"-0.017": 0.738836610064,
			"-0.016": 0.932815400354,
			"-0.015": 0.925146109179,
			"-0.014": 0.558133213085,
			"-0.013": 0.478497836895,
			"-0.012": 0.968635161224,
			"-0.011": 1.07052969512,
			"-0.01": 0.335200882214,
			"-0.009": 0.646815967368,
			"-0.008": 0.354817995186,
			"-0.007": 0.952761551547,
			"-0.006": 6.60226872254,
			"-0.005": 15.1791088152,
			"-0.004": 24.4537408556,
			"-0.003": 31.1232236952,
			"-0.002": 25.1786203952,
			"-0.001": 16.3311516445,
			"0.0": 11.2185754348,
			"0.001": 6.28102795981,
			"0.002": 6.15782995244,
			"0.003": 7.01777982297,
			"0.004": 5.50644285972,
			"0.005": 5.58073427627,
			"0.006": 4.61059188131,
			"0.007": 5.71874020706,
			"0.008": 5.58114016255,
			"0.009": 5.37617003095,
			"0.01": 4.31968850048,
			"0.011": 5.63323788945,
			"0.012": 9.26904267065,
			"0.013": 1.29492548671,
			"0.014": 0.0,
			"0.015": 0.0,
			"0.016": 0.0,
			"0.017": 0.0,
			"0.018": 0.0,
			"0.019": 0.0,
			"0.02": 0.0,
			"0.021": 0.0,
			"0.022": 0.0,
			"0.023": 0.0,
			"0.024": 0.0,
			"0.025": 0.0
		}
	}
}
