{
	 "smiles": "CC1=CC(=O)N=C2SC(=NN12)N1CCNCC1", 
	 "Tm": 508.15, 
	 "num_atms": 30, 
	 "gaussian": { 
		 "optdone": 1, 
		 "sigma_profile": "yes", 
		 "theory": "DFT", 
		 "functional": "B3LYP", 
		 "basiset": "6-31G**", 
		 "properties": { 
			 "R2extent": 6015.926, 
			 "electric_dipole_moment_norm": 9.22867259848, 
			 "electric_quadrupole_moment_norm": 32.785347212, 
			 "total_energy": -1136.03223152, 
			 "HOMO_LUMO_gap": 0.18339, 
			 "cosmo_polarized_energy": -23.87, 
			 "cosmo_cavitation_energy": 34.02, 
			 "cosmo_dispersion_energy": -25.69, 
			 "cosmo_repulsion_energy": 1.94, 
			 "cosmo_total_nonelectrostatic_energy": 10.27, 
			 "SMD_solvation_energy": 0.31 
		},
		"coords": [
			{
				"x": 3.3661553263,
				"y": -1.7271534026,
				"z": 2.5962305292,
				"element": "C" 
			},
			{
				"x": 2.888008441,
				"y": -0.3092206977,
				"z": 2.5386071834,
				"element": "C" 
			},
			{
				"x": 3.3452861587,
				"y": 0.7162304414,
				"z": 3.3013366777,
				"element": "C" 
			},
			{
				"x": 2.8288278129,
				"y": 2.0879367858,
				"z": 3.193011926,
				"element": "C" 
			},
			{
				"x": 3.2411538664,
				"y": 3.011758844,
				"z": 3.8784564686,
				"element": "O" 
			},
			{
				"x": 1.8023693066,
				"y": 2.2907651477,
				"z": 2.231030014,
				"element": "N" 
			},
			{
				"x": 1.4168919568,
				"y": 1.2813133282,
				"z": 1.5436203456,
				"element": "C" 
			},
			{
				"x": 0.1411501431,
				"y": 1.3175369387,
				"z": 0.2973344258,
				"element": "S" 
			},
			{
				"x": 0.4175843304,
				"y": -0.4261618321,
				"z": 0.0395733035,
				"element": "C" 
			},
			{
				"x": 1.322858261,
				"y": -0.9716116486,
				"z": 0.8011121485,
				"element": "N" 
			},
			{
				"x": 1.8870668913,
				"y": -0.0137139391,
				"z": 1.6210744822,
				"element": "N" 
			},
			{
				"x": -0.246262225,
				"y": -1.1122511198,
				"z": -0.936968134,
				"element": "N" 
			},
			{
				"x": -0.0588407508,
				"y": -2.570619613,
				"z": -0.9902358047,
				"element": "C" 
			},
			{
				"x": -0.3808700966,
				"y": -3.0892484333,
				"z": -2.3981966523,
				"element": "C" 
			},
			{
				"x": -1.6807203026,
				"y": -2.6574222763,
				"z": -2.910566739,
				"element": "N" 
			},
			{
				"x": -1.8144660773,
				"y": -1.2048517867,
				"z": -2.8326878024,
				"element": "C" 
			},
			{
				"x": -1.5399928464,
				"y": -0.6297447703,
				"z": -1.4347913572,
				"element": "C" 
			},
			{
				"x": 3.7656350417,
				"y": -2.0451582827,
				"z": 1.627894103,
				"element": "H" 
			},
			{
				"x": 2.5447400478,
				"y": -2.4076736538,
				"z": 2.8418916811,
				"element": "H" 
			},
			{
				"x": 4.1468068066,
				"y": -1.8211825198,
				"z": 3.3525744151,
				"element": "H" 
			},
			{
				"x": 4.1262800813,
				"y": 0.5381416653,
				"z": 4.0306875126,
				"element": "H" 
			},
			{
				"x": 0.974652589,
				"y": -2.7905968845,
				"z": -0.7178142044,
				"element": "H" 
			},
			{
				"x": -0.7084117076,
				"y": -3.0570083013,
				"z": -0.2435949384,
				"element": "H" 
			},
			{
				"x": -0.3394608701,
				"y": -4.183340954,
				"z": -2.3977842589,
				"element": "H" 
			},
			{
				"x": 0.3893113568,
				"y": -2.732672563,
				"z": -3.0935569041,
				"element": "H" 
			},
			{
				"x": -2.4268039555,
				"y": -3.1017246422,
				"z": -2.3782082765,
				"element": "H" 
			},
			{
				"x": -2.8215169323,
				"y": -0.9158026353,
				"z": -3.1500869822,
				"element": "H" 
			},
			{
				"x": -1.1050073272,
				"y": -0.7616503058,
				"z": -3.5426106696,
				"element": "H" 
			},
			{
				"x": -1.5240707596,
				"y": 0.4631673473,
				"z": -1.4839675585,
				"element": "H" 
			},
			{
				"x": -2.3474545669,
				"y": -0.9205402366,
				"z": -0.7416649343,
				"element": "H" 
			}
		],
		 "valence_orbital": [ 
			{
				"type": "occ",
				"energy": -0.272,
				"method": "rhf"
			},
			{
				"type": "occ",
				"energy": -0.26884,
				"method": "rhf"
			},
			{
				"type": "occ",
				"energy": -0.24413,
				"method": "rhf"
			},
			{
				"type": "occ",
				"energy": -0.2258,
				"method": "rhf"
			},
			{
				"type": "occ",
				"energy": -0.20892,
				"method": "rhf"
			},
			{
				"type": "unocc",
				"energy": -0.02553,
				"method": "rhf"
			},
			{
				"type": "unocc",
				"energy": -0.01713,
				"method": "rhf"
			},
			{
				"type": "unocc",
				"energy": -0.01701,
				"method": "rhf"
			},
			{
				"type": "unocc",
				"energy": 0.01025,
				"method": "rhf"
			},
			{
				"type": "unocc",
				"energy": 0.05537,
				"method": "rhf"
			}
		],
		"cosmo_sigma_profile": { 
			"-0.025": 0.0,
			"-0.024": 0.0,
			"-0.023": 0.0,
			"-0.022": 0.0,
			"-0.021": 0.0,
			"-0.02": 0.0,
			"-0.019": 0.0,
			"-0.018": 0.0,
			"-0.017": 0.0,
			"-0.016": 0.0,
			"-0.015": 0.0,
			"-0.014": 0.0,
			"-0.013": 0.0,
			"-0.012": 0.0,
			"-0.011": 0.20669596503,
			"-0.01": 1.49887554633,
			"-0.009": 1.78696468664,
			"-0.008": 2.98250414531,
			"-0.007": 6.30053070533,
			"-0.006": 12.7032115055,
			"-0.005": 28.7846601154,
			"-0.004": 33.7566489857,
			"-0.003": 30.0301145013,
			"-0.002": 25.8786407517,
			"-0.001": 21.6983892515,
			"0.0": 15.5713811721,
			"0.001": 14.5290903278,
			"0.002": 13.8043391479,
			"0.003": 7.74601494065,
			"0.004": 5.54905845054,
			"0.005": 4.73377837985,
			"0.006": 3.95034995944,
			"0.007": 3.72353102791,
			"0.008": 3.28214149649,
			"0.009": 3.25520442353,
			"0.01": 1.82794367783,
			"0.011": 2.92726693976,
			"0.012": 3.16406545727,
			"0.013": 3.83103226521,
			"0.014": 6.86456829458,
			"0.015": 6.77041661251,
			"0.016": 3.09847277417,
			"0.017": 0.822454715636,
			"0.018": 0.251600772156,
			"0.019": 0.0,
			"0.02": 0.0,
			"0.021": 0.0,
			"0.022": 0.0,
			"0.023": 0.0,
			"0.024": 0.0,
			"0.025": 0.0
		}
	}
}
