{
	 "smiles": "NS(=O)(=O)C1=C(Cl)N=C2C=CC=CN12", 
	 "Tm": 448.15, 
	 "num_atms": 20, 
	 "gaussian": { 
		 "optdone": 1, 
		 "sigma_profile": "yes", 
		 "theory": "DFT", 
		 "functional": "B3LYP", 
		 "basiset": "6-31G**", 
		 "properties": { 
			 "R2extent": 3677.3692, 
			 "electric_dipole_moment_norm": 5.3817245433, 
			 "electric_quadrupole_moment_norm": 17.0349138565, 
			 "total_energy": -1443.35544616, 
			 "HOMO_LUMO_gap": 0.18539, 
			 "cosmo_polarized_energy": -18.27, 
			 "cosmo_cavitation_energy": 27.59, 
			 "cosmo_dispersion_energy": -21.11, 
			 "cosmo_repulsion_energy": 1.6, 
			 "cosmo_total_nonelectrostatic_energy": 8.09, 
			 "SMD_solvation_energy": 2.63 
		},
		"coords": [
			{
				"x": 0.6133892016,
				"y": -0.2665410058,
				"z": 2.8728764952,
				"element": "N" 
			},
			{
				"x": -0.5451513396,
				"y": 0.8691931116,
				"z": 2.3788100027,
				"element": "S" 
			},
			{
				"x": 0.2437402563,
				"y": 2.0492393989,
				"z": 2.0065728496,
				"element": "O" 
			},
			{
				"x": -1.6414379516,
				"y": 0.9546730395,
				"z": 3.3388482827,
				"element": "O" 
			},
			{
				"x": -1.1752944101,
				"y": 0.1291490674,
				"z": 0.9197389503,
				"element": "C" 
			},
			{
				"x": -2.352772954,
				"y": -0.574227247,
				"z": 0.6443493284,
				"element": "C" 
			},
			{
				"x": -3.6539672939,
				"y": -0.881959741,
				"z": 1.7314864709,
				"element": "Cl" 
			},
			{
				"x": -2.399336704,
				"y": -1.0304018241,
				"z": -0.6137168387,
				"element": "N" 
			},
			{
				"x": -1.2476870736,
				"y": -0.6383428924,
				"z": -1.1749808736,
				"element": "C" 
			},
			{
				"x": -0.7691797174,
				"y": -0.848977143,
				"z": -2.4844286785,
				"element": "C" 
			},
			{
				"x": 0.462760576,
				"y": -0.3489512221,
				"z": -2.8366533288,
				"element": "C" 
			},
			{
				"x": 1.2361292398,
				"y": 0.3765743723,
				"z": -1.893525852,
				"element": "C" 
			},
			{
				"x": 0.7731549885,
				"y": 0.5885680169,
				"z": -0.6227393409,
				"element": "C" 
			},
			{
				"x": -0.4528902219,
				"y": 0.0776747172,
				"z": -0.2721837269,
				"element": "N" 
			},
			{
				"x": 0.184842472,
				"y": -0.9794805262,
				"z": 3.460247671,
				"element": "H" 
			},
			{
				"x": 1.3444434505,
				"y": 0.2262599179,
				"z": 3.3828117003,
				"element": "H" 
			},
			{
				"x": -1.397124352,
				"y": -1.4037872947,
				"z": -3.1710848449,
				"element": "H" 
			},
			{
				"x": 0.8465869275,
				"y": -0.5029609115,
				"z": -3.839622655,
				"element": "H" 
			},
			{
				"x": 2.203067106,
				"y": 0.7820654074,
				"z": -2.1673188184,
				"element": "H" 
			},
			{
				"x": 1.2925278,
				"y": 1.1558327588,
				"z": 0.1363132067,
				"element": "H" 
			}
		],
		 "valence_orbital": [ 
			{
				"type": "occ",
				"energy": -0.3093,
				"method": "rhf"
			},
			{
				"type": "occ",
				"energy": -0.30136,
				"method": "rhf"
			},
			{
				"type": "occ",
				"energy": -0.29989,
				"method": "rhf"
			},
			{
				"type": "occ",
				"energy": -0.25966,
				"method": "rhf"
			},
			{
				"type": "occ",
				"energy": -0.23963,
				"method": "rhf"
			},
			{
				"type": "unocc",
				"energy": -0.05424,
				"method": "rhf"
			},
			{
				"type": "unocc",
				"energy": -0.03657,
				"method": "rhf"
			},
			{
				"type": "unocc",
				"energy": 0.01914,
				"method": "rhf"
			},
			{
				"type": "unocc",
				"energy": 0.03547,
				"method": "rhf"
			},
			{
				"type": "unocc",
				"energy": 0.05583,
				"method": "rhf"
			}
		],
		"cosmo_sigma_profile": { 
			"-0.025": 0.0,
			"-0.024": 0.0,
			"-0.023": 0.0,
			"-0.022": 0.0,
			"-0.021": 0.0,
			"-0.02": 0.0,
			"-0.019": 0.0,
			"-0.018": 0.0,
			"-0.017": 0.0,
			"-0.016": 0.252679304711,
			"-0.015": 2.76576755091,
			"-0.014": 3.09123068237,
			"-0.013": 2.70257612317,
			"-0.012": 2.11255592047,
			"-0.011": 1.89706175067,
			"-0.01": 2.11513150286,
			"-0.009": 2.31812834178,
			"-0.008": 8.61374423008,
			"-0.007": 10.4738792082,
			"-0.006": 8.54691457251,
			"-0.005": 6.82331447549,
			"-0.004": 8.07864271486,
			"-0.003": 12.3536266519,
			"-0.002": 16.0134698829,
			"-0.001": 15.9036346722,
			"0.0": 16.2073548736,
			"0.001": 18.0098175738,
			"0.002": 14.7909814159,
			"0.003": 12.3297986413,
			"0.004": 8.23840726791,
			"0.005": 5.64575631281,
			"0.006": 6.10906762631,
			"0.007": 5.42916159308,
			"0.008": 5.31550786831,
			"0.009": 7.12060126922,
			"0.01": 10.6195361037,
			"0.011": 7.38489083271,
			"0.012": 0.772056868591,
			"0.013": 0.888106728556,
			"0.014": 1.17357789065,
			"0.015": 0.426723476216,
			"0.016": 0.00572558136703,
			"0.017": 0.0,
			"0.018": 0.0,
			"0.019": 0.0,
			"0.02": 0.0,
			"0.021": 0.0,
			"0.022": 0.0,
			"0.023": 0.0,
			"0.024": 0.0,
			"0.025": 0.0
		}
	}
}
