{
	 "smiles": "COC1=CC=C(C=C1)C1=NN2C(=C1)N=C(C)C=C2C(F)(F)F", 
	 "Tm": 440.15, 
	 "num_atms": 34, 
	 "gaussian": { 
		 "optdone": 1, 
		 "sigma_profile": "yes", 
		 "theory": "DFT", 
		 "functional": "B3LYP", 
		 "basiset": "6-31G**", 
		 "properties": { 
			 "R2extent": 9701.6378, 
			 "electric_dipole_moment_norm": 0.40670576588, 
			 "electric_quadrupole_moment_norm": 23.9900109314, 
			 "total_energy": -1117.80495435, 
			 "HOMO_LUMO_gap": 0.1388, 
			 "cosmo_polarized_energy": -11.8, 
			 "cosmo_cavitation_energy": 40.15, 
			 "cosmo_dispersion_energy": -28.64, 
			 "cosmo_repulsion_energy": 2.09, 
			 "cosmo_total_nonelectrostatic_energy": 13.6, 
			 "SMD_solvation_energy": 6.52 
		},
		"coords": [
			{
				"x": 4.7373824635,
				"y": -1.0130695234,
				"z": 3.6937528565,
				"element": "C" 
			},
			{
				"x": 4.4632309571,
				"y": -1.6950007973,
				"z": 2.4794454137,
				"element": "O" 
			},
			{
				"x": 3.2821405337,
				"y": -1.4427877843,
				"z": 1.8483699627,
				"element": "C" 
			},
			{
				"x": 3.0673518476,
				"y": -2.1462291624,
				"z": 0.6527939244,
				"element": "C" 
			},
			{
				"x": 1.8959659378,
				"y": -1.9596519276,
				"z": -0.0650208491,
				"element": "C" 
			},
			{
				"x": 0.9027545537,
				"y": -1.0691346283,
				"z": 0.382587593,
				"element": "C" 
			},
			{
				"x": 1.1312763588,
				"y": -0.3736650195,
				"z": 1.5785002867,
				"element": "C" 
			},
			{
				"x": 2.3040105481,
				"y": -0.5517004582,
				"z": 2.3097568815,
				"element": "C" 
			},
			{
				"x": -0.3395782627,
				"y": -0.8669912361,
				"z": -0.372889716,
				"element": "C" 
			},
			{
				"x": -1.2698099597,
				"y": -0.001817696,
				"z": 0.0940089751,
				"element": "N" 
			},
			{
				"x": -2.2604763245,
				"y": -0.0503522195,
				"z": -0.8118911742,
				"element": "N" 
			},
			{
				"x": -1.9875543862,
				"y": -0.9439995078,
				"z": -1.8744453451,
				"element": "C" 
			},
			{
				"x": -0.7369276151,
				"y": -1.4724658675,
				"z": -1.583878086,
				"element": "C" 
			},
			{
				"x": -2.8586281446,
				"y": -1.1335533775,
				"z": -2.8834233908,
				"element": "N" 
			},
			{
				"x": -3.9948559479,
				"y": -0.4572543281,
				"z": -2.8632529284,
				"element": "C" 
			},
			{
				"x": -4.9552427037,
				"y": -0.6848603086,
				"z": -4.002747521,
				"element": "C" 
			},
			{
				"x": -4.3162685047,
				"y": 0.4555682539,
				"z": -1.8134721914,
				"element": "C" 
			},
			{
				"x": -3.4282169871,
				"y": 0.6478829999,
				"z": -0.7863583806,
				"element": "C" 
			},
			{
				"x": -3.6793398756,
				"y": 1.591650085,
				"z": 0.3677983608,
				"element": "C" 
			},
			{
				"x": -2.747037325,
				"y": 2.556510444,
				"z": 0.4279633231,
				"element": "F" 
			},
			{
				"x": -3.6883476634,
				"y": 0.9420189013,
				"z": 1.5432413378,
				"element": "F" 
			},
			{
				"x": -4.8807524714,
				"y": 2.1899415574,
				"z": 0.2199110185,
				"element": "F" 
			},
			{
				"x": 5.7189993352,
				"y": -1.3606001463,
				"z": 4.0193212992,
				"element": "H" 
			},
			{
				"x": 3.9958788169,
				"y": -1.249969051,
				"z": 4.4674054453,
				"element": "H" 
			},
			{
				"x": 4.7693311432,
				"y": 0.0743675894,
				"z": 3.5490304624,
				"element": "H" 
			},
			{
				"x": 3.8351730029,
				"y": -2.832098662,
				"z": 0.3104425804,
				"element": "H" 
			},
			{
				"x": 1.751891998,
				"y": -2.5146748316,
				"z": -0.9868040459,
				"element": "H" 
			},
			{
				"x": 0.3738485737,
				"y": 0.3159041554,
				"z": 1.9350946316,
				"element": "H" 
			},
			{
				"x": 2.4444603237,
				"y": 0.0037495712,
				"z": 3.2294189778,
				"element": "H" 
			},
			{
				"x": -0.208912147,
				"y": -2.1952181969,
				"z": -2.1841769455,
				"element": "H" 
			},
			{
				"x": -5.8617105915,
				"y": -0.0843093715,
				"z": -3.8974174717,
				"element": "H" 
			},
			{
				"x": -5.238336589,
				"y": -1.7409758343,
				"z": -4.0530887672,
				"element": "H" 
			},
			{
				"x": -4.4775873411,
				"y": -0.4344354258,
				"z": -4.9552183267,
				"element": "H" 
			},
			{
				"x": -5.2506135537,
				"y": 0.999821804,
				"z": -1.8137581909,
				"element": "H" 
			}
		],
		 "valence_orbital": [ 
			{
				"type": "occ",
				"energy": -0.26924,
				"method": "rhf"
			},
			{
				"type": "occ",
				"energy": -0.26876,
				"method": "rhf"
			},
			{
				"type": "occ",
				"energy": -0.25268,
				"method": "rhf"
			},
			{
				"type": "occ",
				"energy": -0.22833,
				"method": "rhf"
			},
			{
				"type": "occ",
				"energy": -0.20703,
				"method": "rhf"
			},
			{
				"type": "unocc",
				"energy": -0.06823,
				"method": "rhf"
			},
			{
				"type": "unocc",
				"energy": -0.02544,
				"method": "rhf"
			},
			{
				"type": "unocc",
				"energy": -0.00054,
				"method": "rhf"
			},
			{
				"type": "unocc",
				"energy": 0.00723,
				"method": "rhf"
			},
			{
				"type": "unocc",
				"energy": 0.08348,
				"method": "rhf"
			}
		],
		"cosmo_sigma_profile": { 
			"-0.025": 0.0,
			"-0.024": 0.0,
			"-0.023": 0.0,
			"-0.022": 0.0,
			"-0.021": 0.0,
			"-0.02": 0.0,
			"-0.019": 0.0,
			"-0.018": 0.0,
			"-0.017": 0.0,
			"-0.016": 0.0,
			"-0.015": 0.0,
			"-0.014": 0.0,
			"-0.013": 0.0,
			"-0.012": 0.0,
			"-0.011": 0.0,
			"-0.01": 0.0,
			"-0.009": 0.898033865063,
			"-0.008": 4.1540813296,
			"-0.007": 6.02611548371,
			"-0.006": 14.0193438178,
			"-0.005": 24.5879159208,
			"-0.004": 27.4481310762,
			"-0.003": 28.1854617561,
			"-0.002": 27.0535715211,
			"-0.001": 23.4240127408,
			"0.0": 17.1018800572,
			"0.001": 20.812078287,
			"0.002": 38.2936116681,
			"0.003": 27.8310574878,
			"0.004": 22.2044218374,
			"0.005": 13.38028146,
			"0.006": 5.47200955992,
			"0.007": 6.1188836811,
			"0.008": 3.94368059619,
			"0.009": 5.1048882304,
			"0.01": 2.75002632274,
			"0.011": 0.894140540154,
			"0.012": 0.972376579779,
			"0.013": 0.660279846584,
			"0.014": 0.617538213386,
			"0.015": 0.373503347116,
			"0.016": 0.0,
			"0.017": 0.0,
			"0.018": 0.0,
			"0.019": 0.0,
			"0.02": 0.0,
			"0.021": 0.0,
			"0.022": 0.0,
			"0.023": 0.0,
			"0.024": 0.0,
			"0.025": 0.0
		}
	}
}
