{
	 "smiles": "OC(=O)CCOC1=CC(Cl)=C(F)C=C1", 
	 "Tm": 356.15, 
	 "num_atms": 22, 
	 "gaussian": { 
		 "optdone": 1, 
		 "sigma_profile": "yes", 
		 "theory": "DFT", 
		 "functional": "B3LYP", 
		 "basiset": "6-31G**", 
		 "properties": { 
			 "R2extent": 5075.3299, 
			 "electric_dipole_moment_norm": 4.87709531279, 
			 "electric_quadrupole_moment_norm": 19.4665958411, 
			 "total_energy": -1133.46437658, 
			 "HOMO_LUMO_gap": 0.20418, 
			 "cosmo_polarized_energy": -19.52, 
			 "cosmo_cavitation_energy": 29.24, 
			 "cosmo_dispersion_energy": -20.75, 
			 "cosmo_repulsion_energy": 1.65, 
			 "cosmo_total_nonelectrostatic_energy": 10.13, 
			 "SMD_solvation_energy": 6.52 
		},
		"coords": [
			{
				"x": -3.0492786202,
				"y": -0.6653487549,
				"z": 2.6178023746,
				"element": "O" 
			},
			{
				"x": -3.1483525488,
				"y": 0.002151098,
				"z": 1.4363612935,
				"element": "C" 
			},
			{
				"x": -3.8275121175,
				"y": 0.9920810475,
				"z": 1.3575687486,
				"element": "O" 
			},
			{
				"x": -2.3863779809,
				"y": -0.5958739157,
				"z": 0.2545328678,
				"element": "C" 
			},
			{
				"x": -0.8893885394,
				"y": -0.8098815295,
				"z": 0.5120097832,
				"element": "C" 
			},
			{
				"x": -0.2364173578,
				"y": 0.3681886915,
				"z": 0.9641937494,
				"element": "O" 
			},
			{
				"x": 0.1134168288,
				"y": 1.3482090778,
				"z": 0.0707895089,
				"element": "C" 
			},
			{
				"x": 0.0007285458,
				"y": 1.2377888615,
				"z": -1.3183263973,
				"element": "C" 
			},
			{
				"x": 0.4226344974,
				"y": 2.2965206769,
				"z": -2.1282816926,
				"element": "C" 
			},
			{
				"x": 0.2876834126,
				"y": 2.1721295964,
				"z": -3.8650561997,
				"element": "Cl" 
			},
			{
				"x": 0.9480978834,
				"y": 3.4518987984,
				"z": -1.5578068717,
				"element": "C" 
			},
			{
				"x": 1.3505638562,
				"y": 4.4683284956,
				"z": -2.3381285791,
				"element": "F" 
			},
			{
				"x": 1.0564793311,
				"y": 3.5615803286,
				"z": -0.173978496,
				"element": "C" 
			},
			{
				"x": 0.6406778895,
				"y": 2.5158447027,
				"z": 0.639985757,
				"element": "C" 
			},
			{
				"x": -2.4773342496,
				"y": -1.4404147624,
				"z": 2.5319136975,
				"element": "H" 
			},
			{
				"x": -2.5454783843,
				"y": 0.0784983489,
				"z": -0.5881339328,
				"element": "H" 
			},
			{
				"x": -2.8360160642,
				"y": -1.5641168171,
				"z": -0.0051514336,
				"element": "H" 
			},
			{
				"x": -0.4034481049,
				"y": -1.218071146,
				"z": -0.3825796116,
				"element": "H" 
			},
			{
				"x": -0.7240444667,
				"y": -1.5384936733,
				"z": 1.3137530105,
				"element": "H" 
			},
			{
				"x": -0.4046217459,
				"y": 0.3564277407,
				"z": -1.7975345932,
				"element": "H" 
			},
			{
				"x": 1.4662500442,
				"y": 4.4735997999,
				"z": 0.2462537297,
				"element": "H" 
			},
			{
				"x": 0.7145378911,
				"y": 2.5820533344,
				"z": 1.719513287,
				"element": "H" 
			}
		],
		 "valence_orbital": [ 
			{
				"type": "occ",
				"energy": -0.32138,
				"method": "rhf"
			},
			{
				"type": "occ",
				"energy": -0.31927,
				"method": "rhf"
			},
			{
				"type": "occ",
				"energy": -0.27663,
				"method": "rhf"
			},
			{
				"type": "occ",
				"energy": -0.26525,
				"method": "rhf"
			},
			{
				"type": "occ",
				"energy": -0.23247,
				"method": "rhf"
			},
			{
				"type": "unocc",
				"energy": -0.02829,
				"method": "rhf"
			},
			{
				"type": "unocc",
				"energy": -0.0029,
				"method": "rhf"
			},
			{
				"type": "unocc",
				"energy": 0.0005,
				"method": "rhf"
			},
			{
				"type": "unocc",
				"energy": 0.01621,
				"method": "rhf"
			},
			{
				"type": "unocc",
				"energy": 0.03285,
				"method": "rhf"
			}
		],
		"cosmo_sigma_profile": { 
			"-0.025": 0.0,
			"-0.024": 0.0,
			"-0.023": 0.0,
			"-0.022": 0.0,
			"-0.021": 0.0,
			"-0.02": 0.0221285551977,
			"-0.019": 0.765472254468,
			"-0.018": 1.14614578842,
			"-0.017": 1.5678157033,
			"-0.016": 1.1551566401,
			"-0.015": 0.687604282582,
			"-0.014": 1.42803712415,
			"-0.013": 0.624624725843,
			"-0.012": 1.48675664781,
			"-0.011": 1.48482048291,
			"-0.01": 2.08552057473,
			"-0.009": 3.97215933309,
			"-0.008": 8.70834564285,
			"-0.007": 11.5263077353,
			"-0.006": 11.5565560017,
			"-0.005": 9.93620184089,
			"-0.004": 9.03673065313,
			"-0.003": 8.92302255746,
			"-0.002": 7.32009309259,
			"-0.001": 11.5290495653,
			"0.0": 15.8704132763,
			"0.001": 20.1031147957,
			"0.002": 22.784499954,
			"0.003": 19.6077310264,
			"0.004": 21.6709084129,
			"0.005": 8.17794132126,
			"0.006": 3.90288083993,
			"0.007": 3.21755512264,
			"0.008": 3.4980812527,
			"0.009": 4.13709231862,
			"0.01": 5.04073871334,
			"0.011": 5.51699216483,
			"0.012": 5.28470868289,
			"0.013": 1.89644037452,
			"0.014": 0.0298773321449,
			"0.015": 0.0,
			"0.016": 0.0,
			"0.017": 0.0,
			"0.018": 0.0,
			"0.019": 0.0,
			"0.02": 0.0,
			"0.021": 0.0,
			"0.022": 0.0,
			"0.023": 0.0,
			"0.024": 0.0,
			"0.025": 0.0
		}
	}
}
