{
	 "smiles": "CC(C)CN(CC(C)C)CC(C)C", 
	 "Tm": 251.35, 
	 "num_atms": 40, 
	 "gaussian": { 
		 "optdone": 1, 
		 "sigma_profile": "yes", 
		 "theory": "DFT", 
		 "functional": "B3LYP", 
		 "basiset": "6-31G**", 
		 "properties": { 
			 "R2extent": 3587.0606, 
			 "electric_dipole_moment_norm": 0.62679349869, 
			 "electric_quadrupole_moment_norm": 1.29982788091, 
			 "total_energy": -528.313468685, 
			 "HOMO_LUMO_gap": 0.25754, 
			 "cosmo_polarized_energy": -1.88, 
			 "cosmo_cavitation_energy": 36.94, 
			 "cosmo_dispersion_energy": -24.58, 
			 "cosmo_repulsion_energy": 1.95, 
			 "cosmo_total_nonelectrostatic_energy": 14.32, 
			 "SMD_solvation_energy": 5.99 
		},
		"coords": [
			{
				"x": -1.1226470811,
				"y": -3.4921712228,
				"z": -2.0393223863,
				"element": "C" 
			},
			{
				"x": -0.7228055936,
				"y": -2.1554879178,
				"z": -2.6826976017,
				"element": "C" 
			},
			{
				"x": 0.6296418504,
				"y": -2.2943004046,
				"z": -3.4019459774,
				"element": "C" 
			},
			{
				"x": -0.8449458838,
				"y": -0.9126223336,
				"z": -1.7453301263,
				"element": "C" 
			},
			{
				"x": -0.111418247,
				"y": -0.8090767837,
				"z": -0.479359917,
				"element": "N" 
			},
			{
				"x": 1.3483134542,
				"y": -0.7990668049,
				"z": -0.5845619788,
				"element": "C" 
			},
			{
				"x": 2.060111504,
				"y": 0.2276570388,
				"z": 0.3205509256,
				"element": "C" 
			},
			{
				"x": 1.7089820671,
				"y": 1.6624966763,
				"z": -0.0917605692,
				"element": "C" 
			},
			{
				"x": 3.5775179783,
				"y": -0.0050471104,
				"z": 0.2891095037,
				"element": "C" 
			},
			{
				"x": -0.6678137001,
				"y": -1.5412059009,
				"z": 0.6667340131,
				"element": "C" 
			},
			{
				"x": -1.5846231553,
				"y": -0.7483280852,
				"z": 1.6355809114,
				"element": "C" 
			},
			{
				"x": -0.8468582215,
				"y": 0.3252453855,
				"z": 2.4448305525,
				"element": "C" 
			},
			{
				"x": -2.8176029898,
				"y": -0.1502223379,
				"z": 0.9433155314,
				"element": "C" 
			},
			{
				"x": -1.1478575726,
				"y": -4.2869149264,
				"z": -2.7937740243,
				"element": "H" 
			},
			{
				"x": -0.4066019773,
				"y": -3.7995221841,
				"z": -1.2696504264,
				"element": "H" 
			},
			{
				"x": -2.1153775501,
				"y": -3.4439787628,
				"z": -1.57868841,
				"element": "H" 
			},
			{
				"x": -1.4682041818,
				"y": -1.9439238066,
				"z": -3.466049293,
				"element": "H" 
			},
			{
				"x": 0.5601728512,
				"y": -3.0432884964,
				"z": -4.1991334748,
				"element": "H" 
			},
			{
				"x": 0.9419811891,
				"y": -1.3506543752,
				"z": -3.8633803188,
				"element": "H" 
			},
			{
				"x": 1.4249819744,
				"y": -2.6174094901,
				"z": -2.7233087705,
				"element": "H" 
			},
			{
				"x": -1.9073637343,
				"y": -0.7988221171,
				"z": -1.5082266686,
				"element": "H" 
			},
			{
				"x": -0.5794600582,
				"y": -0.0342870233,
				"z": -2.3505788254,
				"element": "H" 
			},
			{
				"x": 1.6103127942,
				"y": -0.5546532729,
				"z": -1.6192548263,
				"element": "H" 
			},
			{
				"x": 1.7765664613,
				"y": -1.7991897862,
				"z": -0.38748399,
				"element": "H" 
			},
			{
				"x": 1.7172492782,
				"y": 0.0693422052,
				"z": 1.3510213495,
				"element": "H" 
			},
			{
				"x": 2.1335380168,
				"y": 1.896007591,
				"z": -1.0768258699,
				"element": "H" 
			},
			{
				"x": 2.1049810939,
				"y": 2.3943324281,
				"z": 0.620746369,
				"element": "H" 
			},
			{
				"x": 0.6251382025,
				"y": 1.7932938804,
				"z": -0.1563256405,
				"element": "H" 
			},
			{
				"x": 3.8382541374,
				"y": -1.0136578653,
				"z": 0.6294736529,
				"element": "H" 
			},
			{
				"x": 3.9737628115,
				"y": 0.1152517686,
				"z": -0.7271230144,
				"element": "H" 
			},
			{
				"x": 4.1008529821,
				"y": 0.7106050768,
				"z": 0.9320203587,
				"element": "H" 
			},
			{
				"x": 0.1663968592,
				"y": -1.9468350802,
				"z": 1.2543557368,
				"element": "H" 
			},
			{
				"x": -1.2414871306,
				"y": -2.4119200034,
				"z": 0.3246278828,
				"element": "H" 
			},
			{
				"x": -1.9447159835,
				"y": -1.5053102496,
				"z": 2.3500037869,
				"element": "H" 
			},
			{
				"x": -0.0036185601,
				"y": -0.0988288479,
				"z": 3.0017098513,
				"element": "H" 
			},
			{
				"x": -1.5204059192,
				"y": 0.792776431,
				"z": 3.1718679504,
				"element": "H" 
			},
			{
				"x": -0.4607319534,
				"y": 1.1153908411,
				"z": 1.7945710433,
				"element": "H" 
			},
			{
				"x": -3.3942013822,
				"y": -0.9132973961,
				"z": 0.4078099754,
				"element": "H" 
			},
			{
				"x": -2.5253067812,
				"y": 0.6230505408,
				"z": 0.2250993952,
				"element": "H" 
			},
			{
				"x": -3.4863078493,
				"y": 0.3148727223,
				"z": 1.6760533196,
				"element": "H" 
			}
		],
		 "valence_orbital": [ 
			{
				"type": "occ",
				"energy": -0.3183,
				"method": "rhf"
			},
			{
				"type": "occ",
				"energy": -0.31501,
				"method": "rhf"
			},
			{
				"type": "occ",
				"energy": -0.30761,
				"method": "rhf"
			},
			{
				"type": "occ",
				"energy": -0.30488,
				"method": "rhf"
			},
			{
				"type": "occ",
				"energy": -0.18943,
				"method": "rhf"
			},
			{
				"type": "unocc",
				"energy": 0.06811,
				"method": "rhf"
			},
			{
				"type": "unocc",
				"energy": 0.09587,
				"method": "rhf"
			},
			{
				"type": "unocc",
				"energy": 0.09612,
				"method": "rhf"
			},
			{
				"type": "unocc",
				"energy": 0.11166,
				"method": "rhf"
			},
			{
				"type": "unocc",
				"energy": 0.12285,
				"method": "rhf"
			}
		],
		"cosmo_sigma_profile": { 
			"-0.025": 0.0,
			"-0.024": 0.0,
			"-0.023": 0.0,
			"-0.022": 0.0,
			"-0.021": 0.0,
			"-0.02": 0.0,
			"-0.019": 0.0,
			"-0.018": 0.0,
			"-0.017": 0.0,
			"-0.016": 0.0,
			"-0.015": 0.0,
			"-0.014": 0.0,
			"-0.013": 0.0,
			"-0.012": 0.0,
			"-0.011": 0.0,
			"-0.01": 0.0,
			"-0.009": 0.0,
			"-0.008": 0.0,
			"-0.007": 0.0,
			"-0.006": 0.0,
			"-0.005": 0.0,
			"-0.004": 0.0,
			"-0.003": 4.37182488084,
			"-0.002": 50.031800082,
			"-0.001": 67.3917815392,
			"0.0": 61.1352716181,
			"0.001": 50.4196162128,
			"0.002": 36.5486045035,
			"0.003": 6.04168374001,
			"0.004": 1.33365518187,
			"0.005": 0.83351247413,
			"0.006": 0.800005924717,
			"0.007": 1.10325299297,
			"0.008": 1.10710215761,
			"0.009": 0.649811873125,
			"0.01": 0.0952957490856,
			"0.011": 0.00326100309567,
			"0.012": 0.0,
			"0.013": 0.0,
			"0.014": 0.0,
			"0.015": 0.0,
			"0.016": 0.0,
			"0.017": 0.0,
			"0.018": 0.0,
			"0.019": 0.0,
			"0.02": 0.0,
			"0.021": 0.0,
			"0.022": 0.0,
			"0.023": 0.0,
			"0.024": 0.0,
			"0.025": 0.0
		}
	}
}
