{
	 "smiles": "FC(F)(F)C1=CN=C(C=C1)C1=CC=C(C=O)C=C1", 
	 "Tm": 365.15, 
	 "num_atms": 26, 
	 "gaussian": { 
		 "optdone": 1, 
		 "sigma_profile": "yes", 
		 "theory": "DFT", 
		 "functional": "B3LYP", 
		 "basiset": "6-31G**", 
		 "properties": { 
			 "R2extent": 8100.5313, 
			 "electric_dipole_moment_norm": 1.47834179404, 
			 "electric_quadrupole_moment_norm": 23.7127413835, 
			 "total_energy": -929.70248037, 
			 "HOMO_LUMO_gap": 0.16595, 
			 "cosmo_polarized_energy": -10.59, 
			 "cosmo_cavitation_energy": 33.0, 
			 "cosmo_dispersion_energy": -23.5, 
			 "cosmo_repulsion_energy": 1.71, 
			 "cosmo_total_nonelectrostatic_energy": 11.21, 
			 "SMD_solvation_energy": 6.73 
		},
		"coords": [
			{
				"x": -4.9269834717,
				"y": -3.6281218041,
				"z": 1.150593307,
				"element": "F" 
			},
			{
				"x": -3.9287175738,
				"y": -4.0734523148,
				"z": 0.3586629461,
				"element": "C" 
			},
			{
				"x": -3.4245075198,
				"y": -5.1844231822,
				"z": 0.9420258908,
				"element": "F" 
			},
			{
				"x": -4.4749596483,
				"y": -4.4594230514,
				"z": -0.8157339556,
				"element": "F" 
			},
			{
				"x": -2.8697803293,
				"y": -3.0270518376,
				"z": 0.1558595929,
				"element": "C" 
			},
			{
				"x": -2.6317547014,
				"y": -2.0482851033,
				"z": 1.1250714345,
				"element": "C" 
			},
			{
				"x": -1.6729133483,
				"y": -1.1305500957,
				"z": 1.019814917,
				"element": "N" 
			},
			{
				"x": -0.8842907929,
				"y": -1.1344460343,
				"z": -0.0730110984,
				"element": "C" 
			},
			{
				"x": -1.0724120781,
				"y": -2.0679587629,
				"z": -1.1078921568,
				"element": "C" 
			},
			{
				"x": -2.071412525,
				"y": -3.0256317277,
				"z": -0.9884009566,
				"element": "C" 
			},
			{
				"x": 0.172375879,
				"y": -0.0899786602,
				"z": -0.1293377823,
				"element": "C" 
			},
			{
				"x": 1.2736332551,
				"y": -0.1936719216,
				"z": -1.0017961274,
				"element": "C" 
			},
			{
				"x": 2.2439190221,
				"y": 0.797929277,
				"z": -1.0406412746,
				"element": "C" 
			},
			{
				"x": 2.1378455027,
				"y": 1.920111454,
				"z": -0.205687094,
				"element": "C" 
			},
			{
				"x": 3.168863912,
				"y": 2.9817565343,
				"z": -0.2450759038,
				"element": "C" 
			},
			{
				"x": 4.1438901291,
				"y": 2.9694469938,
				"z": -0.9724698859,
				"element": "O" 
			},
			{
				"x": 1.0504425478,
				"y": 2.0254253848,
				"z": 0.6715076321,
				"element": "C" 
			},
			{
				"x": 0.079677646,
				"y": 1.0310293429,
				"z": 0.7134172307,
				"element": "C" 
			},
			{
				"x": -3.2487346809,
				"y": -2.0042027377,
				"z": 2.0192411656,
				"element": "H" 
			},
			{
				"x": -0.4640593498,
				"y": -2.0340190484,
				"z": -2.0037817318,
				"element": "H" 
			},
			{
				"x": -2.2416840712,
				"y": -3.7516110952,
				"z": -1.7765937269,
				"element": "H" 
			},
			{
				"x": 1.3876264922,
				"y": -1.0660011128,
				"z": -1.6369284018,
				"element": "H" 
			},
			{
				"x": 3.0992644541,
				"y": 0.7243619684,
				"z": -1.7046337801,
				"element": "H" 
			},
			{
				"x": 2.9914648987,
				"y": 3.8255297411,
				"z": 0.4584358133,
				"element": "H" 
			},
			{
				"x": 0.9679090614,
				"y": 2.8931563743,
				"z": 1.3220811679,
				"element": "H" 
			},
			{
				"x": -0.7619027097,
				"y": 1.0994814195,
				"z": 1.3924727781,
				"element": "H" 
			}
		],
		 "valence_orbital": [ 
			{
				"type": "occ",
				"energy": -0.30313,
				"method": "rhf"
			},
			{
				"type": "occ",
				"energy": -0.27879,
				"method": "rhf"
			},
			{
				"type": "occ",
				"energy": -0.27187,
				"method": "rhf"
			},
			{
				"type": "occ",
				"energy": -0.25946,
				"method": "rhf"
			},
			{
				"type": "occ",
				"energy": -0.25299,
				"method": "rhf"
			},
			{
				"type": "unocc",
				"energy": -0.08704,
				"method": "rhf"
			},
			{
				"type": "unocc",
				"energy": -0.04678,
				"method": "rhf"
			},
			{
				"type": "unocc",
				"energy": -0.03453,
				"method": "rhf"
			},
			{
				"type": "unocc",
				"energy": -0.01762,
				"method": "rhf"
			},
			{
				"type": "unocc",
				"energy": 0.03844,
				"method": "rhf"
			}
		],
		"cosmo_sigma_profile": { 
			"-0.025": 0.0,
			"-0.024": 0.0,
			"-0.023": 0.0,
			"-0.022": 0.0,
			"-0.021": 0.0,
			"-0.02": 0.0,
			"-0.019": 0.0,
			"-0.018": 0.0,
			"-0.017": 0.0,
			"-0.016": 0.0,
			"-0.015": 0.0,
			"-0.014": 0.0,
			"-0.013": 0.0,
			"-0.012": 0.0,
			"-0.011": 0.0,
			"-0.01": 0.168914768236,
			"-0.009": 2.28653139595,
			"-0.008": 6.41500064509,
			"-0.007": 12.3960360407,
			"-0.006": 14.0318579706,
			"-0.005": 14.0921615665,
			"-0.004": 12.3809743987,
			"-0.003": 13.8134619917,
			"-0.002": 15.0945175684,
			"-0.001": 21.4767595588,
			"0.0": 28.0664576778,
			"0.001": 23.4911463174,
			"0.002": 37.245023614,
			"0.003": 34.4558345921,
			"0.004": 3.67602367285,
			"0.005": 3.72654156983,
			"0.006": 2.47790448544,
			"0.007": 3.37544692637,
			"0.008": 2.87266730814,
			"0.009": 2.90901409101,
			"0.01": 3.63712059959,
			"0.011": 4.90029275396,
			"0.012": 3.00293567458,
			"0.013": 0.608665999066,
			"0.014": 0.0,
			"0.015": 0.0,
			"0.016": 0.0,
			"0.017": 0.0,
			"0.018": 0.0,
			"0.019": 0.0,
			"0.02": 0.0,
			"0.021": 0.0,
			"0.022": 0.0,
			"0.023": 0.0,
			"0.024": 0.0,
			"0.025": 0.0
		}
	}
}
