{
	 "smiles": "CN1C=NC(=C1)S(=O)(=O)NCC(O)=O", 
	 "Tm": 485.15, 
	 "num_atms": 23, 
	 "gaussian": { 
		 "optdone": 1, 
		 "sigma_profile": "yes", 
		 "theory": "DFT", 
		 "functional": "B3LYP", 
		 "basiset": "6-31G**", 
		 "properties": { 
			 "R2extent": 3511.9303, 
			 "electric_dipole_moment_norm": 7.97699609189, 
			 "electric_quadrupole_moment_norm": 26.1235652102, 
			 "total_energy": -1097.32555103, 
			 "HOMO_LUMO_gap": 0.2428, 
			 "cosmo_polarized_energy": -27.21, 
			 "cosmo_cavitation_energy": 29.27, 
			 "cosmo_dispersion_energy": -21.18, 
			 "cosmo_repulsion_energy": 1.65, 
			 "cosmo_total_nonelectrostatic_energy": 9.73, 
			 "SMD_solvation_energy": 4.83 
		},
		"coords": [
			{
				"x": 4.2956787096,
				"y": -0.5063783349,
				"z": 2.0136228267,
				"element": "C" 
			},
			{
				"x": 2.9610857674,
				"y": -0.122371414,
				"z": 1.575304358,
				"element": "N" 
			},
			{
				"x": 2.1971758686,
				"y": 0.9003943821,
				"z": 2.0760700852,
				"element": "C" 
			},
			{
				"x": 1.0247525578,
				"y": 0.9840078238,
				"z": 1.4870479077,
				"element": "N" 
			},
			{
				"x": 1.0346415319,
				"y": -0.0274625402,
				"z": 0.5634930499,
				"element": "C" 
			},
			{
				"x": 2.2166702902,
				"y": -0.7286071776,
				"z": 0.5911511381,
				"element": "C" 
			},
			{
				"x": -0.360982675,
				"y": -0.3768590965,
				"z": -0.4739858195,
				"element": "S" 
			},
			{
				"x": 0.1138222802,
				"y": -1.3341890353,
				"z": -1.4740393898,
				"element": "O" 
			},
			{
				"x": -1.515256787,
				"y": -0.6392811229,
				"z": 0.382368532,
				"element": "O" 
			},
			{
				"x": -0.7143724482,
				"y": 1.0286739526,
				"z": -1.3166110636,
				"element": "N" 
			},
			{
				"x": -1.2681617719,
				"y": 2.1841424818,
				"z": -0.621363907,
				"element": "C" 
			},
			{
				"x": -0.2934200938,
				"y": 3.3003787468,
				"z": -0.2730104925,
				"element": "C" 
			},
			{
				"x": 0.877582281,
				"y": 3.1979247485,
				"z": -0.9487753174,
				"element": "O" 
			},
			{
				"x": -0.5548019014,
				"y": 4.223378498,
				"z": 0.4606478854,
				"element": "O" 
			},
			{
				"x": 4.6255009347,
				"y": 0.1878026933,
				"z": 2.788211476,
				"element": "H" 
			},
			{
				"x": 5.000564587,
				"y": -0.463693566,
				"z": 1.1789982717,
				"element": "H" 
			},
			{
				"x": 4.289175328,
				"y": -1.5185106621,
				"z": 2.4272560134,
				"element": "H" 
			},
			{
				"x": 2.5542828867,
				"y": 1.545423913,
				"z": 2.8678046225,
				"element": "H" 
			},
			{
				"x": 2.5646446721,
				"y": -1.5720280263,
				"z": 0.0166832935,
				"element": "H" 
			},
			{
				"x": -0.0017832649,
				"y": 1.2362286885,
				"z": -2.0091110365,
				"element": "H" 
			},
			{
				"x": -2.0512930548,
				"y": 2.6373122634,
				"z": -1.2432555042,
				"element": "H" 
			},
			{
				"x": -1.7535196601,
				"y": 1.8521325436,
				"z": 0.2978475441,
				"element": "H" 
			},
			{
				"x": 1.408613962,
				"y": 3.9667802406,
				"z": -0.6825544735,
				"element": "H" 
			}
		],
		 "valence_orbital": [ 
			{
				"type": "occ",
				"energy": -0.29755,
				"method": "rhf"
			},
			{
				"type": "occ",
				"energy": -0.29304,
				"method": "rhf"
			},
			{
				"type": "occ",
				"energy": -0.29133,
				"method": "rhf"
			},
			{
				"type": "occ",
				"energy": -0.26715,
				"method": "rhf"
			},
			{
				"type": "occ",
				"energy": -0.24898,
				"method": "rhf"
			},
			{
				"type": "unocc",
				"energy": -0.00618,
				"method": "rhf"
			},
			{
				"type": "unocc",
				"energy": 0.00595,
				"method": "rhf"
			},
			{
				"type": "unocc",
				"energy": 0.01786,
				"method": "rhf"
			},
			{
				"type": "unocc",
				"energy": 0.06167,
				"method": "rhf"
			},
			{
				"type": "unocc",
				"energy": 0.06916,
				"method": "rhf"
			}
		],
		"cosmo_sigma_profile": { 
			"-0.025": 0.0,
			"-0.024": 0.0,
			"-0.023": 0.0,
			"-0.022": 0.0,
			"-0.021": 0.0,
			"-0.02": 0.0,
			"-0.019": 0.179784282842,
			"-0.018": 1.13799926317,
			"-0.017": 0.795415620508,
			"-0.016": 0.759703742997,
			"-0.015": 0.599800314895,
			"-0.014": 1.42312230149,
			"-0.013": 1.69929685276,
			"-0.012": 0.890141874797,
			"-0.011": 1.92860149899,
			"-0.01": 6.34532286354,
			"-0.009": 7.44953947882,
			"-0.008": 10.1758140507,
			"-0.007": 15.4629857573,
			"-0.006": 14.2999104177,
			"-0.005": 13.0615572633,
			"-0.004": 15.9953385685,
			"-0.003": 10.8705617782,
			"-0.002": 7.13353684042,
			"-0.001": 8.88762383937,
			"0.0": 9.11649564365,
			"0.001": 8.50784926641,
			"0.002": 7.66505321376,
			"0.003": 8.25990504095,
			"0.004": 7.35927832605,
			"0.005": 7.50221057622,
			"0.006": 8.01250110009,
			"0.007": 5.97460150464,
			"0.008": 9.4044645268,
			"0.009": 7.31097652824,
			"0.01": 10.9491116913,
			"0.011": 16.1848982536,
			"0.012": 6.65017699706,
			"0.013": 0.736482374766,
			"0.014": 0.0,
			"0.015": 0.0,
			"0.016": 0.0,
			"0.017": 0.0,
			"0.018": 0.0,
			"0.019": 0.0,
			"0.02": 0.0,
			"0.021": 0.0,
			"0.022": 0.0,
			"0.023": 0.0,
			"0.024": 0.0,
			"0.025": 0.0
		}
	}
}
