{
	 "smiles": "ClC1=C(C=CC=C1)C1=CC=C(O1)C=O", 
	 "Tm": 349.65, 
	 "num_atms": 21, 
	 "gaussian": { 
		 "optdone": 1, 
		 "sigma_profile": "yes", 
		 "theory": "DFT", 
		 "functional": "B3LYP", 
		 "basiset": "6-31G**", 
		 "properties": { 
			 "R2extent": 4184.349, 
			 "electric_dipole_moment_norm": 5.17789910678, 
			 "electric_quadrupole_moment_norm": 12.6771895572, 
			 "total_energy": -1033.99703019, 
			 "HOMO_LUMO_gap": 0.15964, 
			 "cosmo_polarized_energy": -10.01, 
			 "cosmo_cavitation_energy": 28.33, 
			 "cosmo_dispersion_energy": -20.37, 
			 "cosmo_repulsion_energy": 1.59, 
			 "cosmo_total_nonelectrostatic_energy": 9.55, 
			 "SMD_solvation_energy": 6.08 
		},
		"coords": [
			{
				"x": -1.2634613151,
				"y": 1.5565328108,
				"z": -2.8693563687,
				"element": "Cl" 
			},
			{
				"x": 0.0322779167,
				"y": 0.6001993194,
				"z": -2.1707076457,
				"element": "C" 
			},
			{
				"x": 0.0332741524,
				"y": 0.2310950836,
				"z": -0.8100099639,
				"element": "C" 
			},
			{
				"x": 1.0899730944,
				"y": -0.5876341046,
				"z": -0.3631481596,
				"element": "C" 
			},
			{
				"x": 2.0962441357,
				"y": -1.0191248821,
				"z": -1.2195734768,
				"element": "C" 
			},
			{
				"x": 2.0782784826,
				"y": -0.6285847636,
				"z": -2.5593677088,
				"element": "C" 
			},
			{
				"x": 1.0464598548,
				"y": 0.1796758238,
				"z": -3.0319841471,
				"element": "C" 
			},
			{
				"x": -0.9896022647,
				"y": 0.611752343,
				"z": 0.1658015324,
				"element": "C" 
			},
			{
				"x": -1.5112421666,
				"y": -0.082549232,
				"z": 1.2397290085,
				"element": "C" 
			},
			{
				"x": -2.4369567601,
				"y": 0.7816384282,
				"z": 1.8725079689,
				"element": "C" 
			},
			{
				"x": -2.4280811517,
				"y": 1.9533338223,
				"z": 1.1534541303,
				"element": "C" 
			},
			{
				"x": -1.5426216609,
				"y": 1.8500358115,
				"z": 0.1116146311,
				"element": "O" 
			},
			{
				"x": -3.1527265651,
				"y": 3.2069295688,
				"z": 1.2958642659,
				"element": "C" 
			},
			{
				"x": -3.9591877693,
				"y": 3.4187329508,
				"z": 2.1863951623,
				"element": "O" 
			},
			{
				"x": 1.1189351494,
				"y": -0.8614064073,
				"z": 0.6865758254,
				"element": "H" 
			},
			{
				"x": 2.8974401882,
				"y": -1.6449055852,
				"z": -0.8394116333,
				"element": "H" 
			},
			{
				"x": 2.8618466338,
				"y": -0.949906068,
				"z": -3.2385627289,
				"element": "H" 
			},
			{
				"x": 1.011543243,
				"y": 0.4820170003,
				"z": -4.0726364738,
				"element": "H" 
			},
			{
				"x": -1.2718195078,
				"y": -1.0998612614,
				"z": 1.5130736536,
				"element": "H" 
			},
			{
				"x": -3.0493798731,
				"y": 0.5858300908,
				"z": 2.7403054738,
				"element": "H" 
			},
			{
				"x": -2.9105938166,
				"y": 3.9643992511,
				"z": 0.5217366544,
				"element": "H" 
			}
		],
		 "valence_orbital": [ 
			{
				"type": "occ",
				"energy": -0.30034,
				"method": "rhf"
			},
			{
				"type": "occ",
				"energy": -0.28965,
				"method": "rhf"
			},
			{
				"type": "occ",
				"energy": -0.26112,
				"method": "rhf"
			},
			{
				"type": "occ",
				"energy": -0.25573,
				"method": "rhf"
			},
			{
				"type": "occ",
				"energy": -0.23073,
				"method": "rhf"
			},
			{
				"type": "unocc",
				"energy": -0.07109,
				"method": "rhf"
			},
			{
				"type": "unocc",
				"energy": -0.02879,
				"method": "rhf"
			},
			{
				"type": "unocc",
				"energy": -0.02563,
				"method": "rhf"
			},
			{
				"type": "unocc",
				"energy": 0.0226,
				"method": "rhf"
			},
			{
				"type": "unocc",
				"energy": 0.04173,
				"method": "rhf"
			}
		],
		"cosmo_sigma_profile": { 
			"-0.025": 0.0,
			"-0.024": 0.0,
			"-0.023": 0.0,
			"-0.022": 0.0,
			"-0.021": 0.0,
			"-0.02": 0.0,
			"-0.019": 0.0,
			"-0.018": 0.0,
			"-0.017": 0.0,
			"-0.016": 0.0,
			"-0.015": 0.0,
			"-0.014": 0.0,
			"-0.013": 0.0,
			"-0.012": 0.0,
			"-0.011": 0.0,
			"-0.01": 0.0,
			"-0.009": 0.974208768044,
			"-0.008": 3.76338969179,
			"-0.007": 12.3304565524,
			"-0.006": 15.2991513895,
			"-0.005": 14.5387101732,
			"-0.004": 12.9697367871,
			"-0.003": 12.8748469975,
			"-0.002": 11.4982290767,
			"-0.001": 15.5834623259,
			"0.0": 21.8110784819,
			"0.001": 24.6673394802,
			"0.002": 24.2318317371,
			"0.003": 19.9540111685,
			"0.004": 12.4538432274,
			"0.005": 7.29076321359,
			"0.006": 2.82790549172,
			"0.007": 2.44412430705,
			"0.008": 1.93229106036,
			"0.009": 1.68366022818,
			"0.01": 2.38781461359,
			"0.011": 4.14794205681,
			"0.012": 3.9338149006,
			"0.013": 1.36836306865,
			"0.014": 0.0355842113082,
			"0.015": 0.0,
			"0.016": 0.0,
			"0.017": 0.0,
			"0.018": 0.0,
			"0.019": 0.0,
			"0.02": 0.0,
			"0.021": 0.0,
			"0.022": 0.0,
			"0.023": 0.0,
			"0.024": 0.0,
			"0.025": 0.0
		}
	}
}
