{
	 "smiles": "CCN1C=C(C(=O)NC(C)C(=O)OC)C(=O)C2=CC=C(C)N=C12", 
	 "Tm": 449.15, 
	 "num_atms": 42, 
	 "gaussian": { 
		 "optdone": 1, 
		 "sigma_profile": "yes", 
		 "theory": "DFT", 
		 "functional": "B3LYP", 
		 "basiset": "6-31G**", 
		 "properties": { 
			 "R2extent": 9873.724, 
			 "electric_dipole_moment_norm": 7.03399775021, 
			 "electric_quadrupole_moment_norm": 7.25804478975, 
			 "total_energy": -1086.37345049, 
			 "HOMO_LUMO_gap": 0.16582, 
			 "cosmo_polarized_energy": -20.33, 
			 "cosmo_cavitation_energy": 45.47, 
			 "cosmo_dispersion_energy": -31.5, 
			 "cosmo_repulsion_energy": 2.43, 
			 "cosmo_total_nonelectrostatic_energy": 16.41, 
			 "SMD_solvation_energy": 8.98 
		},
		"coords": [
			{
				"x": 0.4848772863,
				"y": -3.1135158608,
				"z": 2.1256164887,
				"element": "C" 
			},
			{
				"x": 1.5120943997,
				"y": -2.01700345,
				"z": 1.8458454584,
				"element": "C" 
			},
			{
				"x": 0.8872889707,
				"y": -0.7088924122,
				"z": 1.5609543815,
				"element": "N" 
			},
			{
				"x": 0.6533784294,
				"y": -0.331050353,
				"z": 0.278830702,
				"element": "C" 
			},
			{
				"x": 0.0497018168,
				"y": 0.8400410094,
				"z": -0.1000655688,
				"element": "C" 
			},
			{
				"x": -0.0944226936,
				"y": 1.0432153623,
				"z": -1.5798749358,
				"element": "C" 
			},
			{
				"x": 0.2996873235,
				"y": 0.1948285462,
				"z": -2.3880861187,
				"element": "O" 
			},
			{
				"x": -0.6819621058,
				"y": 2.205420561,
				"z": -1.9519899276,
				"element": "N" 
			},
			{
				"x": -0.8829817328,
				"y": 2.544045633,
				"z": -3.3522165875,
				"element": "C" 
			},
			{
				"x": 0.4134634061,
				"y": 2.9443879496,
				"z": -4.0657620495,
				"element": "C" 
			},
			{
				"x": -1.6070030533,
				"y": 1.4323634718,
				"z": -4.1285614651,
				"element": "C" 
			},
			{
				"x": -1.3980928197,
				"y": 1.1671475809,
				"z": -5.2914573519,
				"element": "O" 
			},
			{
				"x": -2.5743515598,
				"y": 0.8533188737,
				"z": -3.3897597365,
				"element": "O" 
			},
			{
				"x": -3.2921772103,
				"y": -0.1979621838,
				"z": -4.0519456195,
				"element": "C" 
			},
			{
				"x": -0.3986164253,
				"y": 1.7849119837,
				"z": 0.9118008504,
				"element": "C" 
			},
			{
				"x": -0.9576436903,
				"y": 2.872739967,
				"z": 0.6756432607,
				"element": "O" 
			},
			{
				"x": -0.1376261482,
				"y": 1.3537945134,
				"z": 2.2986016551,
				"element": "C" 
			},
			{
				"x": -0.5096596006,
				"y": 2.1587337995,
				"z": 3.3870528409,
				"element": "C" 
			},
			{
				"x": -0.2561046216,
				"y": 1.7305746742,
				"z": 4.6759084906,
				"element": "C" 
			},
			{
				"x": 0.3753317417,
				"y": 0.4831491556,
				"z": 4.8716822121,
				"element": "C" 
			},
			{
				"x": 0.6703847311,
				"y": -0.0230437322,
				"z": 6.2605214391,
				"element": "C" 
			},
			{
				"x": 0.735776563,
				"y": -0.2976518137,
				"z": 3.8516122646,
				"element": "N" 
			},
			{
				"x": 0.488781194,
				"y": 0.1277394733,
				"z": 2.6021241475,
				"element": "C" 
			},
			{
				"x": -0.1936808399,
				"y": -3.2465124569,
				"z": 1.2774378235,
				"element": "H" 
			},
			{
				"x": -0.1036932019,
				"y": -2.8701774601,
				"z": 3.0132452047,
				"element": "H" 
			},
			{
				"x": 0.9986117151,
				"y": -4.0635161587,
				"z": 2.3039361385,
				"element": "H" 
			},
			{
				"x": 2.1234196279,
				"y": -2.2668232058,
				"z": 0.9750863105,
				"element": "H" 
			},
			{
				"x": 2.1714997758,
				"y": -1.8834187734,
				"z": 2.7035770122,
				"element": "H" 
			},
			{
				"x": 0.9766627618,
				"y": -1.0147586331,
				"z": -0.4995959283,
				"element": "H" 
			},
			{
				"x": -0.9954697745,
				"y": 2.8191481893,
				"z": -1.2004935746,
				"element": "H" 
			},
			{
				"x": -1.5746893201,
				"y": 3.3964553648,
				"z": -3.3574731553,
				"element": "H" 
			},
			{
				"x": 0.2084092308,
				"y": 3.2037284719,
				"z": -5.1063616789,
				"element": "H" 
			},
			{
				"x": 0.863579826,
				"y": 3.8035571094,
				"z": -3.5608473564,
				"element": "H" 
			},
			{
				"x": 1.1163873495,
				"y": 2.1095513589,
				"z": -4.0500010922,
				"element": "H" 
			},
			{
				"x": -3.7770431809,
				"y": 0.1735204749,
				"z": -4.9585449275,
				"element": "H" 
			},
			{
				"x": -4.0358847898,
				"y": -0.5452802897,
				"z": -3.3343085446,
				"element": "H" 
			},
			{
				"x": -2.6123339899,
				"y": -1.0098161051,
				"z": -4.3223884184,
				"element": "H" 
			},
			{
				"x": -0.9925288502,
				"y": 3.1066878152,
				"z": 3.1726103469,
				"element": "H" 
			},
			{
				"x": -0.5350339951,
				"y": 2.3353154038,
				"z": 5.5330032962,
				"element": "H" 
			},
			{
				"x": -0.250229053,
				"y": -0.1145486203,
				"z": 6.8478656034,
				"element": "H" 
			},
			{
				"x": 1.3273880167,
				"y": 0.6699986183,
				"z": 6.7980488264,
				"element": "H" 
			},
			{
				"x": 1.1545044907,
				"y": -0.9991038524,
				"z": 6.2087292832,
				"element": "H" 
			}
		],
		 "valence_orbital": [ 
			{
				"type": "occ",
				"energy": -0.26563,
				"method": "rhf"
			},
			{
				"type": "occ",
				"energy": -0.25186,
				"method": "rhf"
			},
			{
				"type": "occ",
				"energy": -0.24314,
				"method": "rhf"
			},
			{
				"type": "occ",
				"energy": -0.2347,
				"method": "rhf"
			},
			{
				"type": "occ",
				"energy": -0.22949,
				"method": "rhf"
			},
			{
				"type": "unocc",
				"energy": -0.06367,
				"method": "rhf"
			},
			{
				"type": "unocc",
				"energy": -0.04311,
				"method": "rhf"
			},
			{
				"type": "unocc",
				"energy": -0.00725,
				"method": "rhf"
			},
			{
				"type": "unocc",
				"energy": 0.02685,
				"method": "rhf"
			},
			{
				"type": "unocc",
				"energy": 0.03366,
				"method": "rhf"
			}
		],
		"cosmo_sigma_profile": { 
			"-0.025": 0.0,
			"-0.024": 0.0,
			"-0.023": 0.0,
			"-0.022": 0.0,
			"-0.021": 0.0,
			"-0.02": 0.0,
			"-0.019": 0.0,
			"-0.018": 0.0,
			"-0.017": 0.0,
			"-0.016": 0.0,
			"-0.015": 0.0,
			"-0.014": 0.0,
			"-0.013": 0.0,
			"-0.012": 0.0,
			"-0.011": 0.0654438732153,
			"-0.01": 1.33493484806,
			"-0.009": 2.69560174578,
			"-0.008": 5.34880010314,
			"-0.007": 8.9831819949,
			"-0.006": 13.5109386679,
			"-0.005": 23.999842275,
			"-0.004": 32.769352419,
			"-0.003": 38.8712397907,
			"-0.002": 34.0355871108,
			"-0.001": 34.0378631513,
			"0.0": 37.9702845153,
			"0.001": 27.4036363995,
			"0.002": 16.868810159,
			"0.003": 9.308673919,
			"0.004": 9.08885516348,
			"0.005": 6.82393819964,
			"0.006": 8.54780184122,
			"0.007": 7.46315371324,
			"0.008": 7.12949925167,
			"0.009": 5.77823693767,
			"0.01": 6.3168101656,
			"0.011": 6.70682508935,
			"0.012": 8.05348381753,
			"0.013": 4.69030759699,
			"0.014": 2.26518365705,
			"0.015": 0.0,
			"0.016": 0.0,
			"0.017": 0.0,
			"0.018": 0.0,
			"0.019": 0.0,
			"0.02": 0.0,
			"0.021": 0.0,
			"0.022": 0.0,
			"0.023": 0.0,
			"0.024": 0.0,
			"0.025": 0.0
		}
	}
}
