{
	 "smiles": "CC1=C(C=C(I)C=C1)C(O)=O", 
	 "Tm": 440.15, 
	 "num_atms": 18, 
	 "gaussian": { 
		 "optdone": 1, 
		 "sigma_profile": "yes", 
		 "theory": "DFT", 
		 "functional": "B3LYP", 
		 "basiset": "6-31G**", 
		 "properties": { 
			 "R2extent": 2840.226, 
			 "electric_dipole_moment_norm": 3.18561937777, 
			 "electric_quadrupole_moment_norm": 10.6173244238, 
			 "total_energy": -470.924542954, 
			 "HOMO_LUMO_gap": 0.18295, 
			 "cosmo_polarized_energy": -8.94, 
			 "cosmo_cavitation_energy": 25.35, 
			 "cosmo_dispersion_energy": -20.17, 
			 "cosmo_repulsion_energy": 1.58, 
			 "cosmo_total_nonelectrostatic_energy": 6.77, 
			 "SMD_solvation_energy": 4.72 
		},
		"coords": [
			{
				"x": 3.7156696196,
				"y": -0.9015613434,
				"z": 0.1948856252,
				"element": "C" 
			},
			{
				"x": 2.3396783477,
				"y": -0.5311022219,
				"z": -0.3087862905,
				"element": "C" 
			},
			{
				"x": 1.4059699342,
				"y": -1.4444133672,
				"z": -0.8548566476,
				"element": "C" 
			},
			{
				"x": 0.1482869736,
				"y": -0.9984923104,
				"z": -1.2967530101,
				"element": "C" 
			},
			{
				"x": -0.1974657813,
				"y": 0.3428520035,
				"z": -1.2047294288,
				"element": "C" 
			},
			{
				"x": -2.0993431892,
				"y": 0.9929326264,
				"z": -1.8776467558,
				"element": "I" 
			},
			{
				"x": 0.7047450242,
				"y": 1.2630112803,
				"z": -0.6703554919,
				"element": "C" 
			},
			{
				"x": 1.9494487998,
				"y": 0.8140096175,
				"z": -0.2343215101,
				"element": "C" 
			},
			{
				"x": 1.6176508683,
				"y": -2.9147110425,
				"z": -1.0251273562,
				"element": "C" 
			},
			{
				"x": 2.8242700084,
				"y": -3.3670502297,
				"z": -0.6058164623,
				"element": "O" 
			},
			{
				"x": 0.7924038896,
				"y": -3.6716055505,
				"z": -1.4988337331,
				"element": "O" 
			},
			{
				"x": 3.6659137718,
				"y": -1.6335091334,
				"z": 1.0052992495,
				"element": "H" 
			},
			{
				"x": 4.2302331353,
				"y": -0.0107819098,
				"z": 0.5638127719,
				"element": "H" 
			},
			{
				"x": 4.3257657807,
				"y": -1.3532431598,
				"z": -0.5917302196,
				"element": "H" 
			},
			{
				"x": -0.532392875,
				"y": -1.7341127748,
				"z": -1.7071206289,
				"element": "H" 
			},
			{
				"x": 0.4475075313,
				"y": 2.3136215797,
				"z": -0.5926335901,
				"element": "H" 
			},
			{
				"x": 2.6465509131,
				"y": 1.5366833559,
				"z": 0.1806024293,
				"element": "H" 
			},
			{
				"x": 2.8115072478,
				"y": -4.3236274198,
				"z": -0.778788951,
				"element": "H" 
			}
		],
		 "valence_orbital": [ 
			{
				"type": "occ",
				"energy": -0.29509,
				"method": "rhf"
			},
			{
				"type": "occ",
				"energy": -0.28462,
				"method": "rhf"
			},
			{
				"type": "occ",
				"energy": -0.27155,
				"method": "rhf"
			},
			{
				"type": "occ",
				"energy": -0.26995,
				"method": "rhf"
			},
			{
				"type": "occ",
				"energy": -0.24162,
				"method": "rhf"
			},
			{
				"type": "unocc",
				"energy": -0.05867,
				"method": "rhf"
			},
			{
				"type": "unocc",
				"energy": -0.04063,
				"method": "rhf"
			},
			{
				"type": "unocc",
				"energy": -0.02085,
				"method": "rhf"
			},
			{
				"type": "unocc",
				"energy": 0.04171,
				"method": "rhf"
			},
			{
				"type": "unocc",
				"energy": 0.04517,
				"method": "rhf"
			}
		],
		"cosmo_sigma_profile": { 
			"-0.025": 0.0,
			"-0.024": 0.0,
			"-0.023": 0.0,
			"-0.022": 0.0,
			"-0.021": 0.0,
			"-0.02": 0.0,
			"-0.019": 0.075666373129,
			"-0.018": 0.678559576805,
			"-0.017": 0.999740783146,
			"-0.016": 0.785473758444,
			"-0.015": 0.575164628102,
			"-0.014": 0.712018268596,
			"-0.013": 0.466733607167,
			"-0.012": 0.853812660231,
			"-0.011": 1.0257560011,
			"-0.01": 0.97654827472,
			"-0.009": 0.227322847642,
			"-0.008": 0.950181520201,
			"-0.007": 4.93941674127,
			"-0.006": 7.39691932201,
			"-0.005": 9.75540343272,
			"-0.004": 9.41764097847,
			"-0.003": 14.0415355401,
			"-0.002": 17.2580078989,
			"-0.001": 18.2004302964,
			"0.0": 19.3595345713,
			"0.001": 18.7594032205,
			"0.002": 23.799989233,
			"0.003": 17.6307203416,
			"0.004": 16.0978256119,
			"0.005": 7.43907433262,
			"0.006": 1.77007876927,
			"0.007": 1.36000496995,
			"0.008": 1.9113090032,
			"0.009": 0.864210633535,
			"0.01": 1.77103483801,
			"0.011": 3.87071461142,
			"0.012": 3.55531578965,
			"0.013": 0.0505273658872,
			"0.014": 0.0,
			"0.015": 0.0,
			"0.016": 0.0,
			"0.017": 0.0,
			"0.018": 0.0,
			"0.019": 0.0,
			"0.02": 0.0,
			"0.021": 0.0,
			"0.022": 0.0,
			"0.023": 0.0,
			"0.024": 0.0,
			"0.025": 0.0
		}
	}
}
