{
	 "smiles": "O=CC1=C(N=C2C=CC=CN12)N1CCOCC1", 
	 "Tm": 438.15, 
	 "num_atms": 30, 
	 "gaussian": { 
		 "optdone": 1, 
		 "sigma_profile": "yes", 
		 "theory": "DFT", 
		 "functional": "B3LYP", 
		 "basiset": "6-31G**", 
		 "properties": { 
			 "R2extent": 4559.2053, 
			 "electric_dipole_moment_norm": 4.23570428736, 
			 "electric_quadrupole_moment_norm": 14.0548927694, 
			 "total_energy": -779.78176825, 
			 "HOMO_LUMO_gap": 0.14651, 
			 "cosmo_polarized_energy": -14.52, 
			 "cosmo_cavitation_energy": 32.2, 
			 "cosmo_dispersion_energy": -24.14, 
			 "cosmo_repulsion_energy": 1.83, 
			 "cosmo_total_nonelectrostatic_energy": 9.89, 
			 "SMD_solvation_energy": 4.51 
		},
		"coords": [
			{
				"x": 1.2103221505,
				"y": 1.2571902582,
				"z": 2.2604494965,
				"element": "O" 
			},
			{
				"x": 0.863296755,
				"y": 1.6149841497,
				"z": 1.1320801084,
				"element": "C" 
			},
			{
				"x": 0.3140697501,
				"y": 0.816465953,
				"z": 0.0807221553,
				"element": "C" 
			},
			{
				"x": 0.1233251551,
				"y": -0.591115331,
				"z": -0.1450809116,
				"element": "C" 
			},
			{
				"x": -0.2116079939,
				"y": -0.8406105833,
				"z": -1.437311261,
				"element": "N" 
			},
			{
				"x": -0.2695752509,
				"y": 0.3434062795,
				"z": -2.0503820463,
				"element": "C" 
			},
			{
				"x": -0.5883869807,
				"y": 0.6369502164,
				"z": -3.3920534209,
				"element": "C" 
			},
			{
				"x": -0.6148421327,
				"y": 1.9492257681,
				"z": -3.8113443134,
				"element": "C" 
			},
			{
				"x": -0.3296297948,
				"y": 2.9912800042,
				"z": -2.8969590086,
				"element": "C" 
			},
			{
				"x": -0.0220578165,
				"y": 2.6958480969,
				"z": -1.5919657544,
				"element": "C" 
			},
			{
				"x": 0.0229159994,
				"y": 1.3931493753,
				"z": -1.180501226,
				"element": "N" 
			},
			{
				"x": 0.245573709,
				"y": -1.6436939452,
				"z": 0.7004787757,
				"element": "N" 
			},
			{
				"x": 0.2392284259,
				"y": -1.565852333,
				"z": 2.1580456148,
				"element": "C" 
			},
			{
				"x": 1.3297493957,
				"y": -2.4810104409,
				"z": 2.728822735,
				"element": "C" 
			},
			{
				"x": 1.4613971421,
				"y": -3.7144338129,
				"z": 2.0150254284,
				"element": "O" 
			},
			{
				"x": 0.3158920343,
				"y": -4.0313328566,
				"z": 1.2469628622,
				"element": "C" 
			},
			{
				"x": 0.097108563,
				"y": -2.9961465596,
				"z": 0.1393331502,
				"element": "C" 
			},
			{
				"x": 0.9956619889,
				"y": 2.6830520885,
				"z": 0.8567788402,
				"element": "H" 
			},
			{
				"x": -0.8068357177,
				"y": -0.1924386297,
				"z": -4.0538840188,
				"element": "H" 
			},
			{
				"x": -0.8610873561,
				"y": 2.1878702215,
				"z": -4.840831784,
				"element": "H" 
			},
			{
				"x": -0.3576414986,
				"y": 4.0294420613,
				"z": -3.2057566779,
				"element": "H" 
			},
			{
				"x": 0.1867537902,
				"y": 3.4551086285,
				"z": -0.8509297762,
				"element": "H" 
			},
			{
				"x": -0.7511817167,
				"y": -1.8618913317,
				"z": 2.533993847,
				"element": "H" 
			},
			{
				"x": 0.4363536231,
				"y": -0.5409440077,
				"z": 2.473449444,
				"element": "H" 
			},
			{
				"x": 1.1126065372,
				"y": -2.6796642293,
				"z": 3.7896491848,
				"element": "H" 
			},
			{
				"x": 2.3021180623,
				"y": -1.981037162,
				"z": 2.667359572,
				"element": "H" 
			},
			{
				"x": 0.49813835,
				"y": -5.0111205321,
				"z": 0.79669127,
				"element": "H" 
			},
			{
				"x": -0.5797434199,
				"y": -4.1258894615,
				"z": 1.881405813,
				"element": "H" 
			},
			{
				"x": 0.8392721282,
				"y": -3.1284413053,
				"z": -0.6536798385,
				"element": "H" 
			},
			{
				"x": -0.8921938815,
				"y": -3.1246505795,
				"z": -0.3206682598,
				"element": "H" 
			}
		],
		 "valence_orbital": [ 
			{
				"type": "occ",
				"energy": -0.28351,
				"method": "rhf"
			},
			{
				"type": "occ",
				"energy": -0.24811,
				"method": "rhf"
			},
			{
				"type": "occ",
				"energy": -0.24104,
				"method": "rhf"
			},
			{
				"type": "occ",
				"energy": -0.22649,
				"method": "rhf"
			},
			{
				"type": "occ",
				"energy": -0.20126,
				"method": "rhf"
			},
			{
				"type": "unocc",
				"energy": -0.05475,
				"method": "rhf"
			},
			{
				"type": "unocc",
				"energy": -0.02717,
				"method": "rhf"
			},
			{
				"type": "unocc",
				"energy": 0.01526,
				"method": "rhf"
			},
			{
				"type": "unocc",
				"energy": 0.07744,
				"method": "rhf"
			},
			{
				"type": "unocc",
				"energy": 0.09326,
				"method": "rhf"
			}
		],
		"cosmo_sigma_profile": { 
			"-0.025": 0.0,
			"-0.024": 0.0,
			"-0.023": 0.0,
			"-0.022": 0.0,
			"-0.021": 0.0,
			"-0.02": 0.0,
			"-0.019": 0.0,
			"-0.018": 0.0,
			"-0.017": 0.0,
			"-0.016": 0.0,
			"-0.015": 0.0,
			"-0.014": 0.0,
			"-0.013": 0.0,
			"-0.012": 0.0,
			"-0.011": 0.674075774366,
			"-0.01": 2.24115769257,
			"-0.009": 2.19150653429,
			"-0.008": 3.662615901,
			"-0.007": 9.77733283796,
			"-0.006": 9.84863010364,
			"-0.005": 19.169526005,
			"-0.004": 28.2867644251,
			"-0.003": 21.6869191554,
			"-0.002": 18.7433143248,
			"-0.001": 20.4037222524,
			"0.0": 18.1388246875,
			"0.001": 16.1653096592,
			"0.002": 22.10129248,
			"0.003": 13.5778788713,
			"0.004": 6.58770975752,
			"0.005": 4.58844545162,
			"0.006": 4.59802421011,
			"0.007": 4.70621116258,
			"0.008": 4.26138259941,
			"0.009": 3.46698142144,
			"0.01": 4.1222362764,
			"0.011": 4.03062376694,
			"0.012": 4.39275888173,
			"0.013": 5.48273583876,
			"0.014": 2.8408780841,
			"0.015": 0.82182595676,
			"0.016": 0.0,
			"0.017": 0.0,
			"0.018": 0.0,
			"0.019": 0.0,
			"0.02": 0.0,
			"0.021": 0.0,
			"0.022": 0.0,
			"0.023": 0.0,
			"0.024": 0.0,
			"0.025": 0.0
		}
	}
}
