{
	 "smiles": "COC1=CC=CC=C1NC(=O)C1=NC=C(N=C1)C(C)(C)C", 
	 "Tm": 351.15, 
	 "num_atms": 40, 
	 "gaussian": { 
		 "optdone": 1, 
		 "sigma_profile": "yes", 
		 "theory": "DFT", 
		 "functional": "B3LYP", 
		 "basiset": "6-31G**", 
		 "properties": { 
			 "R2extent": 9648.6483, 
			 "electric_dipole_moment_norm": 4.77268146224, 
			 "electric_quadrupole_moment_norm": 27.6953773959, 
			 "total_energy": -935.86111133, 
			 "HOMO_LUMO_gap": 0.15152, 
			 "cosmo_polarized_energy": -17.16, 
			 "cosmo_cavitation_energy": 43.1, 
			 "cosmo_dispersion_energy": -30.51, 
			 "cosmo_repulsion_energy": 2.32, 
			 "cosmo_total_nonelectrostatic_energy": 14.91, 
			 "SMD_solvation_energy": 6.27 
		},
		"coords": [
			{
				"x": 0.6033648944,
				"y": -0.4788155243,
				"z": 5.0562582094,
				"element": "C" 
			},
			{
				"x": 0.7422085263,
				"y": 0.1913117439,
				"z": 3.8126022295,
				"element": "O" 
			},
			{
				"x": 1.2695309522,
				"y": 1.460510985,
				"z": 3.8094398102,
				"element": "C" 
			},
			{
				"x": 1.6677736119,
				"y": 2.1605189997,
				"z": 4.9447787567,
				"element": "C" 
			},
			{
				"x": 2.1905903809,
				"y": 3.4526528778,
				"z": 4.8148740514,
				"element": "C" 
			},
			{
				"x": 2.3126935094,
				"y": 4.0326076981,
				"z": 3.5564781782,
				"element": "C" 
			},
			{
				"x": 1.9172610264,
				"y": 3.3365625287,
				"z": 2.4102298776,
				"element": "C" 
			},
			{
				"x": 1.3922092177,
				"y": 2.0465844207,
				"z": 2.526245354,
				"element": "C" 
			},
			{
				"x": 0.9566355744,
				"y": 1.2595578221,
				"z": 1.4442236323,
				"element": "N" 
			},
			{
				"x": 0.9824043242,
				"y": 1.5647884011,
				"z": 0.1030758929,
				"element": "C" 
			},
			{
				"x": 1.4283765899,
				"y": 2.5984228571,
				"z": -0.3716752551,
				"element": "O" 
			},
			{
				"x": 0.3749949289,
				"y": 0.4887954807,
				"z": -0.7712894593,
				"element": "C" 
			},
			{
				"x": 0.9283972876,
				"y": 0.3223308715,
				"z": -1.9841334448,
				"element": "N" 
			},
			{
				"x": 0.3795377488,
				"y": -0.5957634387,
				"z": -2.7715494077,
				"element": "C" 
			},
			{
				"x": -0.7375622833,
				"y": -1.3716645229,
				"z": -2.3937383379,
				"element": "C" 
			},
			{
				"x": -1.2943855497,
				"y": -1.1805921561,
				"z": -1.1925229596,
				"element": "N" 
			},
			{
				"x": -0.7424902079,
				"y": -0.2597753524,
				"z": -0.3926350294,
				"element": "C" 
			},
			{
				"x": -1.3373333621,
				"y": -2.4243379374,
				"z": -3.3310482912,
				"element": "C" 
			},
			{
				"x": -2.5347459846,
				"y": -3.1278227772,
				"z": -2.6693350465,
				"element": "C" 
			},
			{
				"x": -1.8118101737,
				"y": -1.7335990653,
				"z": -4.6324382241,
				"element": "C" 
			},
			{
				"x": -0.2563384019,
				"y": -3.4780409278,
				"z": -3.6722873418,
				"element": "C" 
			},
			{
				"x": 0.180443766,
				"y": -1.4581300189,
				"z": 4.8274749834,
				"element": "H" 
			},
			{
				"x": -0.0751627127,
				"y": 0.0608689038,
				"z": 5.7283905376,
				"element": "H" 
			},
			{
				"x": 1.573521279,
				"y": -0.609059846,
				"z": 5.5514405866,
				"element": "H" 
			},
			{
				"x": 1.5743217669,
				"y": 1.7124191767,
				"z": 5.9269280222,
				"element": "H" 
			},
			{
				"x": 2.4992881813,
				"y": 3.9939081564,
				"z": 5.7039800301,
				"element": "H" 
			},
			{
				"x": 2.719161229,
				"y": 5.0338873306,
				"z": 3.4531841434,
				"element": "H" 
			},
			{
				"x": 2.0113424891,
				"y": 3.7713027606,
				"z": 1.4252270748,
				"element": "H" 
			},
			{
				"x": 0.6550602877,
				"y": 0.3328889728,
				"z": 1.7118705108,
				"element": "H" 
			},
			{
				"x": 0.8408880235,
				"y": -0.7243669064,
				"z": -3.7482623276,
				"element": "H" 
			},
			{
				"x": -1.229273226,
				"y": -0.1014005534,
				"z": 0.5682195029,
				"element": "H" 
			},
			{
				"x": -2.241385084,
				"y": -3.6322628181,
				"z": -1.7450092712,
				"element": "H" 
			},
			{
				"x": -2.9455086531,
				"y": -3.8747138164,
				"z": -3.3569361704,
				"element": "H" 
			},
			{
				"x": -3.3255295532,
				"y": -2.4175282792,
				"z": -2.4154818633,
				"element": "H" 
			},
			{
				"x": -0.9896428494,
				"y": -1.2408429972,
				"z": -5.1608421794,
				"element": "H" 
			},
			{
				"x": -2.5768417266,
				"y": -0.9795743589,
				"z": -4.421016838,
				"element": "H" 
			},
			{
				"x": -2.2463109963,
				"y": -2.4746887593,
				"z": -5.3119225931,
				"element": "H" 
			},
			{
				"x": 0.1010199336,
				"y": -3.9826959323,
				"z": -2.7686847285,
				"element": "H" 
			},
			{
				"x": 0.6084465312,
				"y": -3.0339226081,
				"z": -4.175101437,
				"element": "H" 
			},
			{
				"x": -0.6738512957,
				"y": -4.238621391,
				"z": -4.3407111784,
				"element": "H" 
			}
		],
		 "valence_orbital": [ 
			{
				"type": "occ",
				"energy": -0.27166,
				"method": "rhf"
			},
			{
				"type": "occ",
				"energy": -0.259,
				"method": "rhf"
			},
			{
				"type": "occ",
				"energy": -0.24106,
				"method": "rhf"
			},
			{
				"type": "occ",
				"energy": -0.23766,
				"method": "rhf"
			},
			{
				"type": "occ",
				"energy": -0.20868,
				"method": "rhf"
			},
			{
				"type": "unocc",
				"energy": -0.05716,
				"method": "rhf"
			},
			{
				"type": "unocc",
				"energy": -0.04218,
				"method": "rhf"
			},
			{
				"type": "unocc",
				"energy": 0.00083,
				"method": "rhf"
			},
			{
				"type": "unocc",
				"energy": 0.01142,
				"method": "rhf"
			},
			{
				"type": "unocc",
				"energy": 0.05502,
				"method": "rhf"
			}
		],
		"cosmo_sigma_profile": { 
			"-0.025": 0.0,
			"-0.024": 0.0,
			"-0.023": 0.0,
			"-0.022": 0.0,
			"-0.021": 0.0,
			"-0.02": 0.0,
			"-0.019": 0.0,
			"-0.018": 0.0,
			"-0.017": 0.0,
			"-0.016": 0.0,
			"-0.015": 0.0,
			"-0.014": 0.0,
			"-0.013": 0.0,
			"-0.012": 0.206480760391,
			"-0.011": 1.06816357799,
			"-0.01": 1.41610152125,
			"-0.009": 1.98503636647,
			"-0.008": 2.75391489028,
			"-0.007": 6.77492266736,
			"-0.006": 13.9515356732,
			"-0.005": 20.6554887315,
			"-0.004": 22.6492199849,
			"-0.003": 38.0766323029,
			"-0.002": 35.781119353,
			"-0.001": 33.9744930905,
			"0.0": 31.1984223983,
			"0.001": 29.4999570349,
			"0.002": 21.1248228531,
			"0.003": 14.9348837132,
			"0.004": 13.9653368036,
			"0.005": 12.9307017846,
			"0.006": 9.32405497675,
			"0.007": 3.65917818001,
			"0.008": 2.9080552948,
			"0.009": 3.58092508748,
			"0.01": 3.43968507658,
			"0.011": 2.6570629706,
			"0.012": 4.54403812819,
			"0.013": 3.27944555644,
			"0.014": 2.16624563009,
			"0.015": 1.77210141807,
			"0.016": 1.20739714378,
			"0.017": 0.0416207906776,
			"0.018": 0.0,
			"0.019": 0.0,
			"0.02": 0.0,
			"0.021": 0.0,
			"0.022": 0.0,
			"0.023": 0.0,
			"0.024": 0.0,
			"0.025": 0.0
		}
	}
}
