{
	 "smiles": "COC1=C(Cl)C=C(C=C[N+]([O-])=O)C=C1", 
	 "Tm": 369.15, 
	 "num_atms": 22, 
	 "gaussian": { 
		 "optdone": 1, 
		 "sigma_profile": "yes", 
		 "theory": "DFT", 
		 "functional": "B3LYP", 
		 "basiset": "6-31G**", 
		 "properties": { 
			 "R2extent": 5055.1523, 
			 "electric_dipole_moment_norm": 5.4421059545, 
			 "electric_quadrupole_moment_norm": 13.4506911313, 
			 "total_energy": -1088.25842374, 
			 "HOMO_LUMO_gap": 0.15169, 
			 "cosmo_polarized_energy": -12.7, 
			 "cosmo_cavitation_energy": 29.64, 
			 "cosmo_dispersion_energy": -21.35, 
			 "cosmo_repulsion_energy": 1.68, 
			 "cosmo_total_nonelectrostatic_energy": 9.98, 
			 "SMD_solvation_energy": 8.38 
		},
		"coords": [
			{
				"x": -2.6738923458,
				"y": -2.0986519218,
				"z": -3.3792213054,
				"element": "C" 
			},
			{
				"x": -2.1374963816,
				"y": -2.7875740943,
				"z": -2.2409577202,
				"element": "O" 
			},
			{
				"x": -1.4928553162,
				"y": -2.0072960535,
				"z": -1.3271131454,
				"element": "C" 
			},
			{
				"x": -2.1827662309,
				"y": -1.3193128472,
				"z": -0.3150191203,
				"element": "C" 
			},
			{
				"x": -3.9280578696,
				"y": -1.4150396836,
				"z": -0.2266409467,
				"element": "Cl" 
			},
			{
				"x": -1.4900327785,
				"y": -0.5785637883,
				"z": 0.6371689328,
				"element": "C" 
			},
			{
				"x": -0.0863938538,
				"y": -0.5014140678,
				"z": 0.6089246428,
				"element": "C" 
			},
			{
				"x": 0.578660555,
				"y": 0.2935302294,
				"z": 1.6357753544,
				"element": "C" 
			},
			{
				"x": 1.8979335857,
				"y": 0.4855339966,
				"z": 1.7760292909,
				"element": "C" 
			},
			{
				"x": 2.4095213402,
				"y": 1.3112009326,
				"z": 2.8550714919,
				"element": "N" 
			},
			{
				"x": 3.6371554735,
				"y": 1.4290426241,
				"z": 2.9014351268,
				"element": "O" 
			},
			{
				"x": 1.6182204252,
				"y": 1.8346279131,
				"z": 3.6423425768,
				"element": "O" 
			},
			{
				"x": 0.6029567949,
				"y": -1.1980513197,
				"z": -0.4029154746,
				"element": "C" 
			},
			{
				"x": -0.0926544985,
				"y": -1.9336425673,
				"z": -1.3509309184,
				"element": "C" 
			},
			{
				"x": -3.4243830985,
				"y": -1.3589523841,
				"z": -3.0819519262,
				"element": "H" 
			},
			{
				"x": -3.1435141056,
				"y": -2.8626962954,
				"z": -4.0001124043,
				"element": "H" 
			},
			{
				"x": -1.8758812765,
				"y": -1.6045361577,
				"z": -3.9467768664,
				"element": "H" 
			},
			{
				"x": -2.0463837084,
				"y": -0.0601836631,
				"z": 1.4111513419,
				"element": "H" 
			},
			{
				"x": -0.0549519451,
				"y": 0.7870173894,
				"z": 2.3687309727,
				"element": "H" 
			},
			{
				"x": 2.6946129375,
				"y": 0.089837867,
				"z": 1.1627108869,
				"element": "H" 
			},
			{
				"x": 1.6863820905,
				"y": -1.1648728966,
				"z": -0.4488962979,
				"element": "H" 
			},
			{
				"x": 0.4296202066,
				"y": -2.4818032121,
				"z": -2.128304492,
				"element": "H" 
			}
		],
		 "valence_orbital": [ 
			{
				"type": "occ",
				"energy": -0.30324,
				"method": "rhf"
			},
			{
				"type": "occ",
				"energy": -0.29742,
				"method": "rhf"
			},
			{
				"type": "occ",
				"energy": -0.286,
				"method": "rhf"
			},
			{
				"type": "occ",
				"energy": -0.2754,
				"method": "rhf"
			},
			{
				"type": "occ",
				"energy": -0.25286,
				"method": "rhf"
			},
			{
				"type": "unocc",
				"energy": -0.10117,
				"method": "rhf"
			},
			{
				"type": "unocc",
				"energy": -0.03704,
				"method": "rhf"
			},
			{
				"type": "unocc",
				"energy": -0.02884,
				"method": "rhf"
			},
			{
				"type": "unocc",
				"energy": 0.01255,
				"method": "rhf"
			},
			{
				"type": "unocc",
				"energy": 0.03868,
				"method": "rhf"
			}
		],
		"cosmo_sigma_profile": { 
			"-0.025": 0.0,
			"-0.024": 0.0,
			"-0.023": 0.0,
			"-0.022": 0.0,
			"-0.021": 0.0,
			"-0.02": 0.0,
			"-0.019": 0.0,
			"-0.018": 0.0,
			"-0.017": 0.0,
			"-0.016": 0.0,
			"-0.015": 0.0,
			"-0.014": 0.0,
			"-0.013": 0.0,
			"-0.012": 0.00827136210524,
			"-0.011": 1.29080514021,
			"-0.01": 3.14614607353,
			"-0.009": 3.9035383475,
			"-0.008": 5.38464170188,
			"-0.007": 6.93584135277,
			"-0.006": 9.89232974489,
			"-0.005": 12.8659992909,
			"-0.004": 17.5120872085,
			"-0.003": 21.4443571234,
			"-0.002": 16.6517800296,
			"-0.001": 16.5939884103,
			"0.0": 21.1780539906,
			"0.001": 22.8556393016,
			"0.002": 15.3622871906,
			"0.003": 9.59332239295,
			"0.004": 10.0004783948,
			"0.005": 4.98897138389,
			"0.006": 6.10254739429,
			"0.007": 5.98589732142,
			"0.008": 11.3924688791,
			"0.009": 9.1004217353,
			"0.01": 5.23987612514,
			"0.011": 2.32259037878,
			"0.012": 0.0,
			"0.013": 0.0,
			"0.014": 0.0,
			"0.015": 0.0,
			"0.016": 0.0,
			"0.017": 0.0,
			"0.018": 0.0,
			"0.019": 0.0,
			"0.02": 0.0,
			"0.021": 0.0,
			"0.022": 0.0,
			"0.023": 0.0,
			"0.024": 0.0,
			"0.025": 0.0
		}
	}
}
