{
	 "smiles": "ClS(=O)(=O)CCNC(=O)OCC1=CC=CC=C1", 
	 "Tm": 313.15, 
	 "num_atms": 29, 
	 "gaussian": { 
		 "optdone": 1, 
		 "sigma_profile": "yes", 
		 "theory": "DFT", 
		 "functional": "B3LYP", 
		 "basiset": "6-31G**", 
		 "properties": { 
			 "R2extent": 9465.6232, 
			 "electric_dipole_moment_norm": 4.87385603911, 
			 "electric_quadrupole_moment_norm": 17.2849392469, 
			 "total_energy": -1602.28172551, 
			 "HOMO_LUMO_gap": 0.16188, 
			 "cosmo_polarized_energy": -17.32, 
			 "cosmo_cavitation_energy": 36.91, 
			 "cosmo_dispersion_energy": -26.64, 
			 "cosmo_repulsion_energy": 2.05, 
			 "cosmo_total_nonelectrostatic_energy": 12.32, 
			 "SMD_solvation_energy": 5.18 
		},
		"coords": [
			{
				"x": 3.1793642371,
				"y": -0.6900903943,
				"z": -5.2761435965,
				"element": "Cl" 
			},
			{
				"x": 2.6498162796,
				"y": 1.2039197008,
				"z": -4.4290318435,
				"element": "S" 
			},
			{
				"x": 1.3459951713,
				"y": 1.5522303152,
				"z": -4.985554983,
				"element": "O" 
			},
			{
				"x": 3.8073499416,
				"y": 2.0756038604,
				"z": -4.5690133978,
				"element": "O" 
			},
			{
				"x": 2.4655537638,
				"y": 0.7162650777,
				"z": -2.6845847063,
				"element": "C" 
			},
			{
				"x": 1.188561139,
				"y": -0.0922073624,
				"z": -2.4106173498,
				"element": "C" 
			},
			{
				"x": -0.034197308,
				"y": 0.6783723253,
				"z": -2.4650263497,
				"element": "N" 
			},
			{
				"x": -0.5250578955,
				"y": 1.4472280888,
				"z": -1.441561854,
				"element": "C" 
			},
			{
				"x": -1.497058862,
				"y": 2.1726156954,
				"z": -1.5426698688,
				"element": "O" 
			},
			{
				"x": 0.2162705644,
				"y": 1.2841752542,
				"z": -0.3121721209,
				"element": "O" 
			},
			{
				"x": -0.2781904579,
				"y": 1.9658321107,
				"z": 0.8756827805,
				"element": "C" 
			},
			{
				"x": -1.1903996502,
				"y": 1.0836372217,
				"z": 1.6904150418,
				"element": "C" 
			},
			{
				"x": -0.6867470861,
				"y": 0.3491129582,
				"z": 2.7708394626,
				"element": "C" 
			},
			{
				"x": -1.5249511847,
				"y": -0.4756335221,
				"z": 3.522457897,
				"element": "C" 
			},
			{
				"x": -2.8787215289,
				"y": -0.5743935871,
				"z": 3.1966826976,
				"element": "C" 
			},
			{
				"x": -3.3898586097,
				"y": 0.1544263883,
				"z": 2.1198893154,
				"element": "C" 
			},
			{
				"x": -2.5522090891,
				"y": 0.9804908214,
				"z": 1.3707205091,
				"element": "C" 
			},
			{
				"x": 2.4601429214,
				"y": 1.6669587874,
				"z": -2.1429155271,
				"element": "H" 
			},
			{
				"x": 3.3777190254,
				"y": 0.1674177414,
				"z": -2.4396654576,
				"element": "H" 
			},
			{
				"x": 1.2884547854,
				"y": -0.5150841574,
				"z": -1.4091534392,
				"element": "H" 
			},
			{
				"x": 1.1154954132,
				"y": -0.9287220396,
				"z": -3.1117474857,
				"element": "H" 
			},
			{
				"x": -0.4177848636,
				"y": 0.9039782008,
				"z": -3.3721293912,
				"element": "H" 
			},
			{
				"x": 0.6245133046,
				"y": 2.2194628629,
				"z": 1.4355171779,
				"element": "H" 
			},
			{
				"x": -0.7834121664,
				"y": 2.8788593114,
				"z": 0.5564320966,
				"element": "H" 
			},
			{
				"x": 0.3671413284,
				"y": 0.4275605834,
				"z": 3.0277630345,
				"element": "H" 
			},
			{
				"x": -1.1230443538,
				"y": -1.0370686401,
				"z": 4.3610700307,
				"element": "H" 
			},
			{
				"x": -3.5338439887,
				"y": -1.2138809087,
				"z": 3.781471001,
				"element": "H" 
			},
			{
				"x": -4.4436069302,
				"y": 0.0824967088,
				"z": 1.8660354928,
				"element": "H" 
			},
			{
				"x": -2.9416939003,
				"y": 1.5449365973,
				"z": 0.5290108335,
				"element": "H" 
			}
		],
		 "valence_orbital": [ 
			{
				"type": "occ",
				"energy": -0.30502,
				"method": "rhf"
			},
			{
				"type": "occ",
				"energy": -0.28353,
				"method": "rhf"
			},
			{
				"type": "occ",
				"energy": -0.27374,
				"method": "rhf"
			},
			{
				"type": "occ",
				"energy": -0.25639,
				"method": "rhf"
			},
			{
				"type": "occ",
				"energy": -0.25401,
				"method": "rhf"
			},
			{
				"type": "unocc",
				"energy": -0.09213,
				"method": "rhf"
			},
			{
				"type": "unocc",
				"energy": -0.01668,
				"method": "rhf"
			},
			{
				"type": "unocc",
				"energy": -0.00733,
				"method": "rhf"
			},
			{
				"type": "unocc",
				"energy": 0.02929,
				"method": "rhf"
			},
			{
				"type": "unocc",
				"energy": 0.03974,
				"method": "rhf"
			}
		],
		"cosmo_sigma_profile": { 
			"-0.025": 0.0,
			"-0.024": 0.0,
			"-0.023": 0.0,
			"-0.022": 0.0,
			"-0.021": 0.0,
			"-0.02": 0.0,
			"-0.019": 0.0,
			"-0.018": 0.0,
			"-0.017": 0.0,
			"-0.016": 0.0,
			"-0.015": 0.0,
			"-0.014": 0.0,
			"-0.013": 0.106225521565,
			"-0.012": 1.24279434391,
			"-0.011": 2.90788948743,
			"-0.01": 5.17217771095,
			"-0.009": 4.80095066443,
			"-0.008": 6.46932936365,
			"-0.007": 10.0997210939,
			"-0.006": 16.4112981029,
			"-0.005": 19.9647965454,
			"-0.004": 19.045226573,
			"-0.003": 19.760695874,
			"-0.002": 16.8837043353,
			"-0.001": 16.5433213433,
			"0.0": 17.4412791894,
			"0.001": 16.1595860072,
			"0.002": 21.2632112654,
			"0.003": 23.8944695235,
			"0.004": 19.7870074747,
			"0.005": 16.5643647462,
			"0.006": 9.7012908171,
			"0.007": 6.19662416742,
			"0.008": 10.3809009123,
			"0.009": 5.63262556394,
			"0.01": 1.71356626565,
			"0.011": 1.23004417348,
			"0.012": 2.84001468463,
			"0.013": 3.50197620801,
			"0.014": 0.563047138229,
			"0.015": 0.0,
			"0.016": 0.0,
			"0.017": 0.0,
			"0.018": 0.0,
			"0.019": 0.0,
			"0.02": 0.0,
			"0.021": 0.0,
			"0.022": 0.0,
			"0.023": 0.0,
			"0.024": 0.0,
			"0.025": 0.0
		}
	}
}
