{
	 "smiles": "CN1N=C(C)C=C1N1CCCC(N)C1=O", 
	 "Tm": 362.15, 
	 "num_atms": 31, 
	 "gaussian": { 
		 "optdone": 1, 
		 "sigma_profile": "yes", 
		 "theory": "DFT", 
		 "functional": "B3LYP", 
		 "basiset": "6-31G**", 
		 "properties": { 
			 "R2extent": 4035.1826, 
			 "electric_dipole_moment_norm": 4.78427730175, 
			 "electric_quadrupole_moment_norm": 14.1085024003, 
			 "total_energy": -684.92862868, 
			 "HOMO_LUMO_gap": 0.22707, 
			 "cosmo_polarized_energy": -15.44, 
			 "cosmo_cavitation_energy": 32.6, 
			 "cosmo_dispersion_energy": -23.18, 
			 "cosmo_repulsion_energy": 1.84, 
			 "cosmo_total_nonelectrostatic_energy": 11.26, 
			 "SMD_solvation_energy": 4.35 
		},
		"coords": [
			{
				"x": -0.5557449697,
				"y": 0.2761141816,
				"z": 1.5687534413,
				"element": "C" 
			},
			{
				"x": 0.2484439801,
				"y": 0.6135720939,
				"z": 0.4097026327,
				"element": "N" 
			},
			{
				"x": 0.6779355561,
				"y": 1.8848204138,
				"z": 0.2363857704,
				"element": "N" 
			},
			{
				"x": 1.3307182999,
				"y": 1.8885296294,
				"z": -0.9294336162,
				"element": "C" 
			},
			{
				"x": 1.9601839462,
				"y": 3.149944832,
				"z": -1.4381569734,
				"element": "C" 
			},
			{
				"x": 1.3057784922,
				"y": 0.6088947947,
				"z": -1.528717498,
				"element": "C" 
			},
			{
				"x": 0.5921023126,
				"y": -0.1824038888,
				"z": -0.6435530758,
				"element": "C" 
			},
			{
				"x": 0.2957776002,
				"y": -1.5599451151,
				"z": -0.6962817859,
				"element": "N" 
			},
			{
				"x": 1.40185507,
				"y": -2.5397312949,
				"z": -0.7595500796,
				"element": "C" 
			},
			{
				"x": 1.1679968801,
				"y": -3.5398084789,
				"z": -1.8951373703,
				"element": "C" 
			},
			{
				"x": -0.2504467194,
				"y": -4.1642948319,
				"z": -1.8445195511,
				"element": "C" 
			},
			{
				"x": -1.1712640211,
				"y": -3.5260673528,
				"z": -0.7838638295,
				"element": "C" 
			},
			{
				"x": -0.8469575673,
				"y": -4.0567324841,
				"z": 0.5528720554,
				"element": "N" 
			},
			{
				"x": -1.0112695397,
				"y": -2.0000196083,
				"z": -0.7276103664,
				"element": "C" 
			},
			{
				"x": -1.9789186674,
				"y": -1.2503122202,
				"z": -0.6847000673,
				"element": "O" 
			},
			{
				"x": -1.6154515362,
				"y": 0.2402737379,
				"z": 1.3037842003,
				"element": "H" 
			},
			{
				"x": -0.374305168,
				"y": 1.0419075241,
				"z": 2.3223174122,
				"element": "H" 
			},
			{
				"x": -0.2538654534,
				"y": -0.7007803111,
				"z": 1.9561561238,
				"element": "H" 
			},
			{
				"x": 1.5460351301,
				"y": 3.4422792745,
				"z": -2.4097383136,
				"element": "H" 
			},
			{
				"x": 1.7796531807,
				"y": 3.9619154796,
				"z": -0.7300374578,
				"element": "H" 
			},
			{
				"x": 3.0430844534,
				"y": 3.0380699989,
				"z": -1.5655070399,
				"element": "H" 
			},
			{
				"x": 1.7301396398,
				"y": 0.3024318362,
				"z": -2.4737492454,
				"element": "H" 
			},
			{
				"x": 1.468015273,
				"y": -3.063396169,
				"z": 0.1988666226,
				"element": "H" 
			},
			{
				"x": 2.3235214965,
				"y": -1.9780568696,
				"z": -0.9188642381,
				"element": "H" 
			},
			{
				"x": 1.3053745446,
				"y": -3.0199197178,
				"z": -2.8494853988,
				"element": "H" 
			},
			{
				"x": 1.9389425693,
				"y": -4.3155842582,
				"z": -1.8441997673,
				"element": "H" 
			},
			{
				"x": -0.1968375852,
				"y": -5.2413552027,
				"z": -1.6447521801,
				"element": "H" 
			},
			{
				"x": -0.7336643755,
				"y": -4.0609783296,
				"z": -2.8208971021,
				"element": "H" 
			},
			{
				"x": -2.2197918564,
				"y": -3.6890173102,
				"z": -1.0702579979,
				"element": "H" 
			},
			{
				"x": -1.5167047411,
				"y": -3.6980913501,
				"z": 1.2302255113,
				"element": "H" 
			},
			{
				"x": -0.9541362241,
				"y": -5.0688590033,
				"z": 0.5490491846,
				"element": "H" 
			}
		],
		 "valence_orbital": [ 
			{
				"type": "occ",
				"energy": -0.25975,
				"method": "rhf"
			},
			{
				"type": "occ",
				"energy": -0.25635,
				"method": "rhf"
			},
			{
				"type": "occ",
				"energy": -0.24513,
				"method": "rhf"
			},
			{
				"type": "occ",
				"energy": -0.22694,
				"method": "rhf"
			},
			{
				"type": "occ",
				"energy": -0.2186,
				"method": "rhf"
			},
			{
				"type": "unocc",
				"energy": 0.00847,
				"method": "rhf"
			},
			{
				"type": "unocc",
				"energy": 0.03574,
				"method": "rhf"
			},
			{
				"type": "unocc",
				"energy": 0.06613,
				"method": "rhf"
			},
			{
				"type": "unocc",
				"energy": 0.07351,
				"method": "rhf"
			},
			{
				"type": "unocc",
				"energy": 0.09684,
				"method": "rhf"
			}
		],
		"cosmo_sigma_profile": { 
			"-0.025": 0.0,
			"-0.024": 0.0,
			"-0.023": 0.0,
			"-0.022": 0.0,
			"-0.021": 0.0,
			"-0.02": 0.0,
			"-0.019": 0.0,
			"-0.018": 0.0,
			"-0.017": 0.0,
			"-0.016": 0.0,
			"-0.015": 0.0,
			"-0.014": 0.0,
			"-0.013": 0.0,
			"-0.012": 0.0,
			"-0.011": 0.353983902369,
			"-0.01": 2.59033862935,
			"-0.009": 2.90101499292,
			"-0.008": 2.55180462618,
			"-0.007": 4.62380769522,
			"-0.006": 6.08395762395,
			"-0.005": 12.202413203,
			"-0.004": 26.8361053606,
			"-0.003": 39.7816079019,
			"-0.002": 34.0257022368,
			"-0.001": 22.6526176645,
			"0.0": 19.8972951155,
			"0.001": 9.92114727554,
			"0.002": 6.88408046453,
			"0.003": 6.21803194708,
			"0.004": 7.92365458883,
			"0.005": 8.33855178675,
			"0.006": 6.31963824606,
			"0.007": 5.95073958472,
			"0.008": 3.3812045234,
			"0.009": 3.61978304364,
			"0.01": 3.91275617886,
			"0.011": 3.3954628788,
			"0.012": 3.95343997972,
			"0.013": 5.44287239791,
			"0.014": 3.31305975322,
			"0.015": 1.02102050711,
			"0.016": 0.655141885264,
			"0.017": 0.0969321873156,
			"0.018": 0.0,
			"0.019": 0.0,
			"0.02": 0.0,
			"0.021": 0.0,
			"0.022": 0.0,
			"0.023": 0.0,
			"0.024": 0.0,
			"0.025": 0.0
		}
	}
}
