{
	 "smiles": "COC1=CC(C=O)=C(OC)C=C1Br", 
	 "Tm": 406.65, 
	 "num_atms": 22, 
	 "gaussian": { 
		 "optdone": 1, 
		 "sigma_profile": "yes", 
		 "theory": "DFT", 
		 "functional": "B3LYP", 
		 "basiset": "6-31G**", 
		 "properties": { 
			 "R2extent": 4237.6045, 
			 "electric_dipole_moment_norm": 3.1482425129, 
			 "electric_quadrupole_moment_norm": 10.0767012053, 
			 "total_energy": -3145.40758955, 
			 "HOMO_LUMO_gap": 0.17298, 
			 "cosmo_polarized_energy": -10.15, 
			 "cosmo_cavitation_energy": 28.63, 
			 "cosmo_dispersion_energy": -20.85, 
			 "cosmo_repulsion_energy": 1.65, 
			 "cosmo_total_nonelectrostatic_energy": 9.43, 
			 "SMD_solvation_energy": 6.44 
		},
		"coords": [
			{
				"x": 2.9411136272,
				"y": -1.3807835383,
				"z": -1.803288298,
				"element": "C" 
			},
			{
				"x": 2.2514538635,
				"y": -2.0720690059,
				"z": -0.7562157602,
				"element": "O" 
			},
			{
				"x": 1.2767082207,
				"y": -1.3446814208,
				"z": -0.1267798047,
				"element": "C" 
			},
			{
				"x": -0.0465168899,
				"y": -1.4431583123,
				"z": -0.5467060511,
				"element": "C" 
			},
			{
				"x": -1.0972821298,
				"y": -0.7649347316,
				"z": 0.0916376204,
				"element": "C" 
			},
			{
				"x": -2.4586992219,
				"y": -1.0308210617,
				"z": -0.4228277935,
				"element": "C" 
			},
			{
				"x": -3.4954220313,
				"y": -0.5053842173,
				"z": -0.0636953586,
				"element": "O" 
			},
			{
				"x": -0.793130558,
				"y": 0.0518089713,
				"z": 1.2094429048,
				"element": "C" 
			},
			{
				"x": -1.7296848064,
				"y": 0.7056814084,
				"z": 1.9518678475,
				"element": "O" 
			},
			{
				"x": -2.3285380562,
				"y": 1.8722861398,
				"z": 1.3694518698,
				"element": "C" 
			},
			{
				"x": 0.5312872618,
				"y": 0.1413568997,
				"z": 1.6495068919,
				"element": "C" 
			},
			{
				"x": 1.5505396001,
				"y": -0.5436610204,
				"z": 0.9934514253,
				"element": "C" 
			},
			{
				"x": 3.332919942,
				"y": -0.4018531505,
				"z": 1.6416016789,
				"element": "Br" 
			},
			{
				"x": 3.6662925582,
				"y": -2.0878314023,
				"z": -2.2094636037,
				"element": "H" 
			},
			{
				"x": 3.468506069,
				"y": -0.5003182408,
				"z": -1.4192884267,
				"element": "H" 
			},
			{
				"x": 2.2472758375,
				"y": -1.0732254406,
				"z": -2.5959141901,
				"element": "H" 
			},
			{
				"x": -0.2634376599,
				"y": -2.0927642966,
				"z": -1.3908948553,
				"element": "H" 
			},
			{
				"x": -2.4730837143,
				"y": -1.8092665202,
				"z": -1.2186003907,
				"element": "H" 
			},
			{
				"x": -1.5581421133,
				"y": 2.6070622037,
				"z": 1.1045004113,
				"element": "H" 
			},
			{
				"x": -2.9743144757,
				"y": 2.289088446,
				"z": 2.1438971227,
				"element": "H" 
			},
			{
				"x": -2.9307211058,
				"y": 1.6116779712,
				"z": 0.4972870201,
				"element": "H" 
			},
			{
				"x": 0.7457757825,
				"y": 0.7497903191,
				"z": 2.5198297401,
				"element": "H" 
			}
		],
		 "valence_orbital": [ 
			{
				"type": "occ",
				"energy": -0.28972,
				"method": "rhf"
			},
			{
				"type": "occ",
				"energy": -0.28489,
				"method": "rhf"
			},
			{
				"type": "occ",
				"energy": -0.26493,
				"method": "rhf"
			},
			{
				"type": "occ",
				"energy": -0.25808,
				"method": "rhf"
			},
			{
				"type": "occ",
				"energy": -0.24543,
				"method": "rhf"
			},
			{
				"type": "unocc",
				"energy": -0.07245,
				"method": "rhf"
			},
			{
				"type": "unocc",
				"energy": -0.02104,
				"method": "rhf"
			},
			{
				"type": "unocc",
				"energy": -0.00335,
				"method": "rhf"
			},
			{
				"type": "unocc",
				"energy": 0.02703,
				"method": "rhf"
			},
			{
				"type": "unocc",
				"energy": 0.09904,
				"method": "rhf"
			}
		],
		"cosmo_sigma_profile": { 
			"-0.025": 0.0,
			"-0.024": 0.0,
			"-0.023": 0.0,
			"-0.022": 0.0,
			"-0.021": 0.0,
			"-0.02": 0.0,
			"-0.019": 0.0,
			"-0.018": 0.0,
			"-0.017": 0.0,
			"-0.016": 0.0,
			"-0.015": 0.0,
			"-0.014": 0.0,
			"-0.013": 0.0,
			"-0.012": 0.0,
			"-0.011": 0.0,
			"-0.01": 0.0,
			"-0.009": 1.16784710299,
			"-0.008": 3.75539286942,
			"-0.007": 5.16991292803,
			"-0.006": 8.42059295265,
			"-0.005": 14.8653322444,
			"-0.004": 21.9720275408,
			"-0.003": 28.7134044258,
			"-0.002": 21.5726624672,
			"-0.001": 14.9743341946,
			"0.0": 20.9749377023,
			"0.001": 20.2102551729,
			"0.002": 10.4165324623,
			"0.003": 12.0262445173,
			"0.004": 10.6010447379,
			"0.005": 3.81089368339,
			"0.006": 5.32223605068,
			"0.007": 3.98889656177,
			"0.008": 4.36765222596,
			"0.009": 4.39812218756,
			"0.01": 6.56249934583,
			"0.011": 6.04772385348,
			"0.012": 1.96981986085,
			"0.013": 0.37883064683,
			"0.014": 0.0,
			"0.015": 0.0,
			"0.016": 0.0,
			"0.017": 0.0,
			"0.018": 0.0,
			"0.019": 0.0,
			"0.02": 0.0,
			"0.021": 0.0,
			"0.022": 0.0,
			"0.023": 0.0,
			"0.024": 0.0,
			"0.025": 0.0
		}
	}
}
