{
	 "smiles": "CC1=CC(NS(=O)(=O)C2=C(Cl)C=C(Cl)C(=C2)C(O)=O)=CC=C1", 
	 "Tm": 446.15, 
	 "num_atms": 33, 
	 "gaussian": { 
		 "optdone": 1, 
		 "sigma_profile": "yes", 
		 "theory": "DFT", 
		 "functional": "B3LYP", 
		 "basiset": "6-31G**", 
		 "properties": { 
			 "R2extent": 8631.1287, 
			 "electric_dipole_moment_norm": 3.20602483615, 
			 "electric_quadrupole_moment_norm": 25.19177883, 
			 "total_energy": -2214.26690642, 
			 "HOMO_LUMO_gap": 0.1603, 
			 "cosmo_polarized_energy": -23.02, 
			 "cosmo_cavitation_energy": 43.08, 
			 "cosmo_dispersion_energy": -29.6, 
			 "cosmo_repulsion_energy": 2.26, 
			 "cosmo_total_nonelectrostatic_energy": 15.74, 
			 "SMD_solvation_energy": 7.07 
		},
		"coords": [
			{
				"x": -4.0281554843,
				"y": 1.7964794418,
				"z": 0.4478977707,
				"element": "C" 
			},
			{
				"x": -3.194779199,
				"y": 1.023214872,
				"z": -0.5469792312,
				"element": "C" 
			},
			{
				"x": -1.9798751548,
				"y": 1.5427092689,
				"z": -1.0073051562,
				"element": "C" 
			},
			{
				"x": -1.1883266864,
				"y": 0.8104610933,
				"z": -1.8995096137,
				"element": "C" 
			},
			{
				"x": 0.0379801689,
				"y": 1.3551456089,
				"z": -2.3941960952,
				"element": "N" 
			},
			{
				"x": 1.3047853975,
				"y": 1.8226875119,
				"z": -1.3925625928,
				"element": "S" 
			},
			{
				"x": 2.4055791582,
				"y": 2.1604844026,
				"z": -2.2883639184,
				"element": "O" 
			},
			{
				"x": 0.7835301234,
				"y": 2.77766573,
				"z": -0.4159260212,
				"element": "O" 
			},
			{
				"x": 1.7742831952,
				"y": 0.3604349478,
				"z": -0.4241750341,
				"element": "C" 
			},
			{
				"x": 2.280567446,
				"y": -0.8248232222,
				"z": -0.973351376,
				"element": "C" 
			},
			{
				"x": 2.4670470591,
				"y": -1.0544525987,
				"z": -2.6961398251,
				"element": "Cl" 
			},
			{
				"x": 2.6483737926,
				"y": -1.8819575647,
				"z": -0.1430801325,
				"element": "C" 
			},
			{
				"x": 2.5061605901,
				"y": -1.7720041405,
				"z": 1.2405170551,
				"element": "C" 
			},
			{
				"x": 3.0157500454,
				"y": -3.1275260146,
				"z": 2.2060165218,
				"element": "Cl" 
			},
			{
				"x": 2.0039981982,
				"y": -0.5926489586,
				"z": 1.8179289949,
				"element": "C" 
			},
			{
				"x": 1.6466020508,
				"y": 0.4550847087,
				"z": 0.961091211,
				"element": "C" 
			},
			{
				"x": 1.7617006971,
				"y": -0.4396228803,
				"z": 3.2982895808,
				"element": "C" 
			},
			{
				"x": 2.0609181824,
				"y": 0.7817716129,
				"z": 3.8102682752,
				"element": "O" 
			},
			{
				"x": 1.2953367061,
				"y": -1.3021668022,
				"z": 3.9960138499,
				"element": "O" 
			},
			{
				"x": -1.6149254871,
				"y": -0.4404487034,
				"z": -2.3591856771,
				"element": "C" 
			},
			{
				"x": -2.8401512988,
				"y": -0.9452181686,
				"z": -1.9261205128,
				"element": "C" 
			},
			{
				"x": -3.620086736,
				"y": -0.2254221629,
				"z": -1.0222822162,
				"element": "C" 
			},
			{
				"x": -3.8287194051,
				"y": 2.8700046827,
				"z": 0.388769455,
				"element": "H" 
			},
			{
				"x": -3.8082123369,
				"y": 1.478960009,
				"z": 1.4747229242,
				"element": "H" 
			},
			{
				"x": -5.0979145015,
				"y": 1.6380841781,
				"z": 0.2816151863,
				"element": "H" 
			},
			{
				"x": -1.642168889,
				"y": 2.519658454,
				"z": -0.6811463929,
				"element": "H" 
			},
			{
				"x": 0.4117433775,
				"y": 0.9001266637,
				"z": -3.2214428911,
				"element": "H" 
			},
			{
				"x": 3.0478246236,
				"y": -2.7919765043,
				"z": -0.5735467166,
				"element": "H" 
			},
			{
				"x": 1.2288865129,
				"y": 1.3723722886,
				"z": 1.363001006,
				"element": "H" 
			},
			{
				"x": 2.5504948328,
				"y": 1.3137494318,
				"z": 3.1665069326,
				"element": "H" 
			},
			{
				"x": -0.997121166,
				"y": -1.0070732808,
				"z": -3.0506131544,
				"element": "H" 
			},
			{
				"x": -3.1816432973,
				"y": -1.9094263121,
				"z": -2.2910216114,
				"element": "H" 
			},
			{
				"x": -4.5704825157,
				"y": -0.6314275925,
				"z": -0.6864905947,
				"element": "H" 
			}
		],
		 "valence_orbital": [ 
			{
				"type": "occ",
				"energy": -0.29853,
				"method": "rhf"
			},
			{
				"type": "occ",
				"energy": -0.28838,
				"method": "rhf"
			},
			{
				"type": "occ",
				"energy": -0.28242,
				"method": "rhf"
			},
			{
				"type": "occ",
				"energy": -0.25723,
				"method": "rhf"
			},
			{
				"type": "occ",
				"energy": -0.24304,
				"method": "rhf"
			},
			{
				"type": "unocc",
				"energy": -0.08274,
				"method": "rhf"
			},
			{
				"type": "unocc",
				"energy": -0.06667,
				"method": "rhf"
			},
			{
				"type": "unocc",
				"energy": -0.02741,
				"method": "rhf"
			},
			{
				"type": "unocc",
				"energy": -0.01498,
				"method": "rhf"
			},
			{
				"type": "unocc",
				"energy": -0.01389,
				"method": "rhf"
			}
		],
		"cosmo_sigma_profile": { 
			"-0.025": 0.0,
			"-0.024": 0.0,
			"-0.023": 0.0,
			"-0.022": 0.0,
			"-0.021": 0.0,
			"-0.02": 0.0916310648414,
			"-0.019": 1.14425202545,
			"-0.018": 1.0538230184,
			"-0.017": 1.18757876375,
			"-0.016": 1.04589982975,
			"-0.015": 1.17877790286,
			"-0.014": 1.59266647076,
			"-0.013": 1.7457654037,
			"-0.012": 1.8755649497,
			"-0.011": 1.96613360616,
			"-0.01": 3.402085922,
			"-0.009": 4.51287151785,
			"-0.008": 5.4046617982,
			"-0.007": 5.60300214365,
			"-0.006": 9.89185959299,
			"-0.005": 15.5752386088,
			"-0.004": 24.5297755104,
			"-0.003": 28.3963561661,
			"-0.002": 34.3777494173,
			"-0.001": 30.6439083879,
			"0.0": 22.0324277483,
			"0.001": 20.273191019,
			"0.002": 25.2153306278,
			"0.003": 19.8145592194,
			"0.004": 16.1609864034,
			"0.005": 14.1798589788,
			"0.006": 8.39988891069,
			"0.007": 6.93709515481,
			"0.008": 8.13956509074,
			"0.009": 10.2609241949,
			"0.01": 14.0323913634,
			"0.011": 7.50646858443,
			"0.012": 1.56570363738,
			"0.013": 0.00319964614722,
			"0.014": 0.0,
			"0.015": 0.0,
			"0.016": 0.0,
			"0.017": 0.0,
			"0.018": 0.0,
			"0.019": 0.0,
			"0.02": 0.0,
			"0.021": 0.0,
			"0.022": 0.0,
			"0.023": 0.0,
			"0.024": 0.0,
			"0.0": 0.0
		}
	}
}
