{
	 "smiles": "CC(C(O)C1=CC=CC=C1)N(C)CC=CC1=CC=CC=C1", 
	 "Tm": 348.15, 
	 "num_atms": 44, 
	 "gaussian": { 
		 "optdone": 1, 
		 "sigma_profile": "yes", 
		 "theory": "DFT", 
		 "functional": "B3LYP", 
		 "basiset": "6-31G**", 
		 "properties": { 
			 "R2extent": 11242.9355, 
			 "electric_dipole_moment_norm": 1.82737771137, 
			 "electric_quadrupole_moment_norm": 8.93137494902, 
			 "total_energy": -867.82604506, 
			 "HOMO_LUMO_gap": 0.16978, 
			 "cosmo_polarized_energy": -11.62, 
			 "cosmo_cavitation_energy": 45.4, 
			 "cosmo_dispersion_energy": -31.26, 
			 "cosmo_repulsion_energy": 2.37, 
			 "cosmo_total_nonelectrostatic_energy": 16.51, 
			 "SMD_solvation_energy": 5.96 
		},
		"coords": [
			{
				"x": -0.686080096,
				"y": 0.3822392828,
				"z": 1.6924685113,
				"element": "C" 
			},
			{
				"x": 0.4176330048,
				"y": -0.4872427609,
				"z": 1.0523758784,
				"element": "C" 
			},
			{
				"x": 1.7710752474,
				"y": 0.2815810565,
				"z": 0.952326647,
				"element": "C" 
			},
			{
				"x": 1.6424017722,
				"y": 1.5372749431,
				"z": 0.2852212578,
				"element": "O" 
			},
			{
				"x": 2.4667789984,
				"y": 0.4240816608,
				"z": 2.3086748123,
				"element": "C" 
			},
			{
				"x": 2.840395351,
				"y": 1.6780557137,
				"z": 2.8048406386,
				"element": "C" 
			},
			{
				"x": 3.4791928295,
				"y": 1.799427974,
				"z": 4.0415358438,
				"element": "C" 
			},
			{
				"x": 3.7678342569,
				"y": 0.6648833453,
				"z": 4.7984280735,
				"element": "C" 
			},
			{
				"x": 3.4211804486,
				"y": -0.5947628912,
				"z": 4.3036412166,
				"element": "C" 
			},
			{
				"x": 2.7790409581,
				"y": -0.7119726238,
				"z": 3.0719075465,
				"element": "C" 
			},
			{
				"x": 0.0787363964,
				"y": -1.1443877447,
				"z": -0.2149651307,
				"element": "N" 
			},
			{
				"x": -0.7530519741,
				"y": -2.33016895,
				"z": -0.0758207221,
				"element": "C" 
			},
			{
				"x": -0.2642698822,
				"y": -0.3174198848,
				"z": -1.3831785943,
				"element": "C" 
			},
			{
				"x": -1.7161233581,
				"y": 0.0847076373,
				"z": -1.5333740687,
				"element": "C" 
			},
			{
				"x": -2.4819184491,
				"y": -0.2792253073,
				"z": -2.5735096312,
				"element": "C" 
			},
			{
				"x": -3.8876718206,
				"y": 0.0716576322,
				"z": -2.8295823508,
				"element": "C" 
			},
			{
				"x": -4.6293987638,
				"y": 0.9457290203,
				"z": -2.0119947279,
				"element": "C" 
			},
			{
				"x": -5.9601100335,
				"y": 1.2367412962,
				"z": -2.2975871804,
				"element": "C" 
			},
			{
				"x": -6.5874860625,
				"y": 0.666827578,
				"z": -3.4097990016,
				"element": "C" 
			},
			{
				"x": -5.8664482272,
				"y": -0.1973111216,
				"z": -4.2342692572,
				"element": "C" 
			},
			{
				"x": -4.5337738821,
				"y": -0.4884757491,
				"z": -3.9460571501,
				"element": "C" 
			},
			{
				"x": -0.9193549504,
				"y": 1.2645111501,
				"z": 1.0865060299,
				"element": "H" 
			},
			{
				"x": -1.6120578131,
				"y": -0.1889073929,
				"z": 1.802551427,
				"element": "H" 
			},
			{
				"x": -0.3828700497,
				"y": 0.7231909614,
				"z": 2.6884164201,
				"element": "H" 
			},
			{
				"x": 0.6018969734,
				"y": -1.3134817228,
				"z": 1.7475343755,
				"element": "H" 
			},
			{
				"x": 2.4111373551,
				"y": -0.3135668915,
				"z": 0.2920399206,
				"element": "H" 
			},
			{
				"x": 1.0194272369,
				"y": 2.0780930045,
				"z": 0.7892848395,
				"element": "H" 
			},
			{
				"x": 2.6557545117,
				"y": 2.5633113652,
				"z": 2.2058461005,
				"element": "H" 
			},
			{
				"x": 3.7579500709,
				"y": 2.7839401712,
				"z": 4.4071634061,
				"element": "H" 
			},
			{
				"x": 4.266732956,
				"y": 0.7576752571,
				"z": 5.7587721873,
				"element": "H" 
			},
			{
				"x": 3.6548618883,
				"y": -1.4883287785,
				"z": 4.8758454944,
				"element": "H" 
			},
			{
				"x": 2.532028247,
				"y": -1.7018369835,
				"z": 2.6962675825,
				"element": "H" 
			},
			{
				"x": -0.3039818636,
				"y": -3.0116762689,
				"z": 0.655345994,
				"element": "H" 
			},
			{
				"x": -0.795177772,
				"y": -2.8541103679,
				"z": -1.0371750873,
				"element": "H" 
			},
			{
				"x": -1.795304316,
				"y": -2.1376015153,
				"z": 0.2323190244,
				"element": "H" 
			},
			{
				"x": 0.3659417785,
				"y": 0.5757257297,
				"z": -1.3438271719,
				"element": "H" 
			},
			{
				"x": 0.0278538439,
				"y": -0.8776692844,
				"z": -2.2827031348,
				"element": "H" 
			},
			{
				"x": -2.1373851085,
				"y": 0.7037909601,
				"z": -0.7433571357,
				"element": "H" 
			},
			{
				"x": -2.0274246002,
				"y": -0.913331624,
				"z": -3.3367339595,
				"element": "H" 
			},
			{
				"x": -4.1595648928,
				"y": 1.4066715046,
				"z": -1.1484148884,
				"element": "H" 
			},
			{
				"x": -6.5116018194,
				"y": 1.9147960103,
				"z": -1.6519900542,
				"element": "H" 
			},
			{
				"x": -7.6254964294,
				"y": 0.8978257178,
				"z": -3.6307833011,
				"element": "H" 
			},
			{
				"x": -6.340622681,
				"y": -0.6452639439,
				"z": -5.1031152411,
				"element": "H" 
			},
			{
				"x": -3.9781792798,
				"y": -1.1632971653,
				"z": -4.5927754384,
				"element": "H" 
			}
		],
		 "valence_orbital": [ 
			{
				"type": "occ",
				"energy": -0.24991,
				"method": "rhf"
			},
			{
				"type": "occ",
				"energy": -0.24781,
				"method": "rhf"
			},
			{
				"type": "occ",
				"energy": -0.24317,
				"method": "rhf"
			},
			{
				"type": "occ",
				"energy": -0.21714,
				"method": "rhf"
			},
			{
				"type": "occ",
				"energy": -0.1982,
				"method": "rhf"
			},
			{
				"type": "unocc",
				"energy": -0.02842,
				"method": "rhf"
			},
			{
				"type": "unocc",
				"energy": -0.00464,
				"method": "rhf"
			},
			{
				"type": "unocc",
				"energy": 0.00028,
				"method": "rhf"
			},
			{
				"type": "unocc",
				"energy": 0.00293,
				"method": "rhf"
			},
			{
				"type": "unocc",
				"energy": 0.06211,
				"method": "rhf"
			}
		],
		"cosmo_sigma_profile": { 
			"-0.025": 0.0,
			"-0.024": 0.0,
			"-0.023": 0.0,
			"-0.022": 0.0,
			"-0.021": 0.0,
			"-0.02": 0.0,
			"-0.019": 0.0,
			"-0.018": 0.0,
			"-0.017": 0.0,
			"-0.016": 0.0,
			"-0.015": 0.0343773400712,
			"-0.014": 0.548858782661,
			"-0.013": 0.713382159939,
			"-0.012": 0.866518473263,
			"-0.011": 0.912709250774,
			"-0.01": 1.14476677861,
			"-0.009": 0.570496815587,
			"-0.008": 1.40727517738,
			"-0.007": 2.68356455529,
			"-0.006": 9.14582629696,
			"-0.005": 26.3549048486,
			"-0.004": 30.6866390109,
			"-0.003": 38.5671690901,
			"-0.002": 31.5372323221,
			"-0.001": 33.4030751311,
			"0.0": 31.0741119077,
			"0.001": 25.465057557,
			"0.002": 19.7762980769,
			"0.003": 20.9662512579,
			"0.004": 23.105212358,
			"0.005": 25.0614841074,
			"0.006": 20.287521627,
			"0.007": 3.92901192467,
			"0.008": 1.58259157549,
			"0.009": 1.73706730607,
			"0.01": 1.46879406476,
			"0.011": 1.54287931288,
			"0.012": 1.58763510211,
			"0.013": 1.32284537543,
			"0.014": 0.937186791433,
			"0.015": 0.0,
			"0.016": 0.0,
			"0.017": 0.0,
			"0.018": 0.0,
			"0.019": 0.0,
			"0.02": 0.0,
			"0.021": 0.0,
			"0.022": 0.0,
			"0.023": 0.0,
			"0.024": 0.0,
			"0.025": 0.0
		}
	}
}
