{
	 "smiles": "ON=CC(=O)NC1=CC(=CC=C1)C(F)(F)F", 
	 "Tm": 389.15, 
	 "num_atms": 23, 
	 "gaussian": { 
		 "optdone": 1, 
		 "sigma_profile": "yes", 
		 "theory": "DFT", 
		 "functional": "B3LYP", 
		 "basiset": "6-31G**", 
		 "properties": { 
			 "R2extent": 4335.567, 
			 "electric_dipole_moment_norm": 3.14497613028, 
			 "electric_quadrupole_moment_norm": 15.875835704, 
			 "total_energy": -906.592624876, 
			 "HOMO_LUMO_gap": 0.18036, 
			 "cosmo_polarized_energy": -14.45, 
			 "cosmo_cavitation_energy": 30.43, 
			 "cosmo_dispersion_energy": -20.58, 
			 "cosmo_repulsion_energy": 1.58, 
			 "cosmo_total_nonelectrostatic_energy": 11.42, 
			 "SMD_solvation_energy": 7.87 
		},
		"coords": [
			{
				"x": -1.6834472561,
				"y": -3.3647560097,
				"z": 2.5546187816,
				"element": "O" 
			},
			{
				"x": -0.6783031826,
				"y": -2.4512423349,
				"z": 2.2785116985,
				"element": "N" 
			},
			{
				"x": -0.4494934727,
				"y": -1.6904027145,
				"z": 3.2800511898,
				"element": "C" 
			},
			{
				"x": 0.6744393895,
				"y": -0.7084032763,
				"z": 3.2734515619,
				"element": "C" 
			},
			{
				"x": 1.180238911,
				"y": -0.397230106,
				"z": 4.3449771826,
				"element": "O" 
			},
			{
				"x": 1.1862451012,
				"y": -0.2161037766,
				"z": 2.0895504162,
				"element": "N" 
			},
			{
				"x": 0.6752151964,
				"y": -0.1738925259,
				"z": 0.7699534012,
				"element": "C" 
			},
			{
				"x": -0.6783917869,
				"y": 0.0602760616,
				"z": 0.5016998233,
				"element": "C" 
			},
			{
				"x": -1.1186375392,
				"y": 0.1361149232,
				"z": -0.8186675926,
				"element": "C" 
			},
			{
				"x": -0.2212642047,
				"y": 0.0183430329,
				"z": -1.8840517324,
				"element": "C" 
			},
			{
				"x": 1.1300044656,
				"y": -0.18465418,
				"z": -1.6122414036,
				"element": "C" 
			},
			{
				"x": 1.5767204372,
				"y": -0.2895989795,
				"z": -0.295928346,
				"element": "C" 
			},
			{
				"x": -2.5881513143,
				"y": 0.3104192398,
				"z": -1.0974283466,
				"element": "C" 
			},
			{
				"x": -3.2128444903,
				"y": -0.8846891754,
				"z": -1.2235156178,
				"element": "F" 
			},
			{
				"x": -3.2169132858,
				"y": 0.9778323174,
				"z": -0.1051567201,
				"element": "F" 
			},
			{
				"x": -2.8054019558,
				"y": 0.9878822439,
				"z": -2.2458208509,
				"element": "F" 
			},
			{
				"x": -1.7581162462,
				"y": -3.8620357624,
				"z": 1.7277482725,
				"element": "H" 
			},
			{
				"x": -0.9745394512,
				"y": -1.7920173364,
				"z": 4.2299112715,
				"element": "H" 
			},
			{
				"x": 2.0478797709,
				"y": 0.2907507276,
				"z": 2.2542046988,
				"element": "H" 
			},
			{
				"x": -1.3826073238,
				"y": 0.192577706,
				"z": 1.3129755467,
				"element": "H" 
			},
			{
				"x": -0.5767679453,
				"y": 0.0986380457,
				"z": -2.9049855783,
				"element": "H" 
			},
			{
				"x": 1.840609495,
				"y": -0.2700186828,
				"z": -2.4284528659,
				"element": "H" 
			},
			{
				"x": 2.6274266882,
				"y": -0.4683894377,
				"z": -0.0861047905,
				"element": "H" 
			}
		],
		 "valence_orbital": [ 
			{
				"type": "occ",
				"energy": -0.30012,
				"method": "rhf"
			},
			{
				"type": "occ",
				"energy": -0.28509,
				"method": "rhf"
			},
			{
				"type": "occ",
				"energy": -0.27502,
				"method": "rhf"
			},
			{
				"type": "occ",
				"energy": -0.26897,
				"method": "rhf"
			},
			{
				"type": "occ",
				"energy": -0.24242,
				"method": "rhf"
			},
			{
				"type": "unocc",
				"energy": -0.06206,
				"method": "rhf"
			},
			{
				"type": "unocc",
				"energy": -0.03475,
				"method": "rhf"
			},
			{
				"type": "unocc",
				"energy": -0.01809,
				"method": "rhf"
			},
			{
				"type": "unocc",
				"energy": 0.05498,
				"method": "rhf"
			},
			{
				"type": "unocc",
				"energy": 0.06792,
				"method": "rhf"
			}
		],
		"cosmo_sigma_profile": { 
			"-0.025": 0.0,
			"-0.024": 0.0,
			"-0.023": 0.0,
			"-0.022": 0.0,
			"-0.021": 0.0,
			"-0.02": 0.0,
			"-0.019": 0.167982097389,
			"-0.018": 1.05986330428,
			"-0.017": 1.0994082856,
			"-0.016": 1.10424982735,
			"-0.015": 0.957023124686,
			"-0.014": 2.08508424468,
			"-0.013": 1.96019026866,
			"-0.012": 1.65337326148,
			"-0.011": 1.9098696211,
			"-0.01": 1.60471191083,
			"-0.009": 2.78492071558,
			"-0.008": 4.61071485318,
			"-0.007": 8.90848869846,
			"-0.006": 10.2185323168,
			"-0.005": 10.9665742751,
			"-0.004": 10.7350369935,
			"-0.003": 11.2406857704,
			"-0.002": 9.8394013235,
			"-0.001": 12.7420236333,
			"0.0": 17.3870411174,
			"0.001": 18.3802362646,
			"0.002": 30.3339282663,
			"0.003": 39.831754356,
			"0.004": 8.69571730923,
			"0.005": 4.48835865706,
			"0.006": 3.33734690313,
			"0.007": 3.5355178399,
			"0.008": 4.11879386221,
			"0.009": 4.28715516476,
			"0.01": 2.41178873243,
			"0.011": 2.34790354597,
			"0.012": 4.70865775716,
			"0.013": 3.74725722498,
			"0.014": 0.286880442949,
			"0.015": 0.0,
			"0.016": 0.0,
			"0.017": 0.0,
			"0.018": 0.0,
			"0.019": 0.0,
			"0.02": 0.0,
			"0.021": 0.0,
			"0.022": 0.0,
			"0.023": 0.0,
			"0.024": 0.0,
			"0.025": 0.0
		}
	}
}
