{
	 "smiles": "CCCC1=C(C=NN1C1=CC=CC=C1)C(O)=O", 
	 "Tm": 381.15, 
	 "num_atms": 31, 
	 "gaussian": { 
		 "optdone": 1, 
		 "sigma_profile": "yes", 
		 "theory": "DFT", 
		 "functional": "B3LYP", 
		 "basiset": "6-31G**", 
		 "properties": { 
			 "R2extent": 4490.0504, 
			 "electric_dipole_moment_norm": 4.38784741531, 
			 "electric_quadrupole_moment_norm": 13.261112557, 
			 "total_energy": -763.772873539, 
			 "HOMO_LUMO_gap": 0.21593, 
			 "cosmo_polarized_energy": -16.31, 
			 "cosmo_cavitation_energy": 34.34, 
			 "cosmo_dispersion_energy": -23.8, 
			 "cosmo_repulsion_energy": 1.85, 
			 "cosmo_total_nonelectrostatic_energy": 12.39, 
			 "SMD_solvation_energy": 5.94 
		},
		"coords": [
			{
				"x": -0.5418016616,
				"y": 2.8103870528,
				"z": -0.2827336589,
				"element": "C" 
			},
			{
				"x": 0.0950839946,
				"y": 1.6977758457,
				"z": -1.1207999074,
				"element": "C" 
			},
			{
				"x": -0.7950038647,
				"y": 0.4413344999,
				"z": -1.2850974827,
				"element": "C" 
			},
			{
				"x": -1.135907027,
				"y": -0.234130432,
				"z": 0.0112458508,
				"element": "C" 
			},
			{
				"x": -2.318949269,
				"y": -0.1972910618,
				"z": 0.7571877369,
				"element": "C" 
			},
			{
				"x": -2.0274984724,
				"y": -0.9333376541,
				"z": 1.9365981467,
				"element": "C" 
			},
			{
				"x": -0.7896996031,
				"y": -1.3962641911,
				"z": 1.941805106,
				"element": "N" 
			},
			{
				"x": -0.2599935982,
				"y": -0.9746986982,
				"z": 0.7534284916,
				"element": "N" 
			},
			{
				"x": 1.0923271421,
				"y": -1.3331844536,
				"z": 0.4549972599,
				"element": "C" 
			},
			{
				"x": 2.0929055286,
				"y": -1.016328731,
				"z": 1.3776826348,
				"element": "C" 
			},
			{
				"x": 3.4122034637,
				"y": -1.3771033811,
				"z": 1.1089808255,
				"element": "C" 
			},
			{
				"x": 3.7327951459,
				"y": -2.0450162845,
				"z": -0.0753843661,
				"element": "C" 
			},
			{
				"x": 2.7256932422,
				"y": -2.3678963375,
				"z": -0.9862254621,
				"element": "C" 
			},
			{
				"x": 1.3999380896,
				"y": -2.0231806009,
				"z": -0.7201208267,
				"element": "C" 
			},
			{
				"x": -3.5689057475,
				"y": 0.4822861871,
				"z": 0.3721332356,
				"element": "C" 
			},
			{
				"x": -4.6679239914,
				"y": 0.1752191599,
				"z": 1.118308461,
				"element": "O" 
			},
			{
				"x": -3.6781455616,
				"y": 1.2769606436,
				"z": -0.5378724499,
				"element": "O" 
			},
			{
				"x": -1.5192505466,
				"y": 3.0952116148,
				"z": -0.6823753768,
				"element": "H" 
			},
			{
				"x": -0.6932422511,
				"y": 2.4937065221,
				"z": 0.7543952247,
				"element": "H" 
			},
			{
				"x": 0.0992320574,
				"y": 3.6978171223,
				"z": -0.2679979406,
				"element": "H" 
			},
			{
				"x": 0.3106866715,
				"y": 2.0735635652,
				"z": -2.1283870683,
				"element": "H" 
			},
			{
				"x": 1.0606840677,
				"y": 1.4079338085,
				"z": -0.6884770837,
				"element": "H" 
			},
			{
				"x": -0.2923106542,
				"y": -0.2619172293,
				"z": -1.9557387431,
				"element": "H" 
			},
			{
				"x": -1.7394609272,
				"y": 0.7302860046,
				"z": -1.7500181791,
				"element": "H" 
			},
			{
				"x": -2.6586535214,
				"y": -1.126320532,
				"z": 2.7965283372,
				"element": "H" 
			},
			{
				"x": 1.8244274686,
				"y": -0.5016409118,
				"z": 2.2934067961,
				"element": "H" 
			},
			{
				"x": 4.1909747199,
				"y": -1.1322664864,
				"z": 1.8248701049,
				"element": "H" 
			},
			{
				"x": 4.7623944684,
				"y": -2.3200276125,
				"z": -0.2833266518,
				"element": "H" 
			},
			{
				"x": 2.96639086,
				"y": -2.9034730363,
				"z": -1.8995189176,
				"element": "H" 
			},
			{
				"x": 0.6077318673,
				"y": -2.3077939541,
				"z": -1.4041119143,
				"element": "H" 
			},
			{
				"x": -4.4720220903,
				"y": -0.5512104383,
				"z": 1.7255178176,
				"element": "H" 
			}
		],
		 "valence_orbital": [ 
			{
				"type": "occ",
				"energy": -0.29087,
				"method": "rhf"
			},
			{
				"type": "occ",
				"energy": -0.27048,
				"method": "rhf"
			},
			{
				"type": "occ",
				"energy": -0.26632,
				"method": "rhf"
			},
			{
				"type": "occ",
				"energy": -0.25311,
				"method": "rhf"
			},
			{
				"type": "occ",
				"energy": -0.25148,
				"method": "rhf"
			},
			{
				"type": "unocc",
				"energy": -0.03555,
				"method": "rhf"
			},
			{
				"type": "unocc",
				"energy": -0.02063,
				"method": "rhf"
			},
			{
				"type": "unocc",
				"energy": -0.01409,
				"method": "rhf"
			},
			{
				"type": "unocc",
				"energy": 0.01071,
				"method": "rhf"
			},
			{
				"type": "unocc",
				"energy": 0.06407,
				"method": "rhf"
			}
		],
		"cosmo_sigma_profile": { 
			"-0.025": 0.0,
			"-0.024": 0.0,
			"-0.023": 0.0,
			"-0.022": 0.0,
			"-0.021": 0.0,
			"-0.02": 0.0,
			"-0.019": 0.0481286919639,
			"-0.018": 0.96371790211,
			"-0.017": 1.13846552521,
			"-0.016": 0.972307555553,
			"-0.015": 1.55703101802,
			"-0.014": 0.8920579186,
			"-0.013": 0.855393622085,
			"-0.012": 1.03735739319,
			"-0.011": 1.35417310971,
			"-0.01": 1.45140124053,
			"-0.009": 1.44569009096,
			"-0.008": 2.24106505018,
			"-0.007": 6.58905042797,
			"-0.006": 13.4647926226,
			"-0.005": 13.3627631597,
			"-0.004": 14.1553386188,
			"-0.003": 16.0490673735,
			"-0.002": 25.6092159425,
			"-0.001": 31.1144819375,
			"0.0": 26.9007338107,
			"0.001": 21.4806724385,
			"0.002": 17.5777636308,
			"0.003": 13.5161750196,
			"0.004": 15.3776013367,
			"0.005": 6.85330164027,
			"0.006": 4.24667232023,
			"0.007": 4.90422374728,
			"0.008": 4.36710637269,
			"0.009": 3.44549231088,
			"0.01": 5.30581597437,
			"0.011": 5.42080592762,
			"0.012": 4.30679778347,
			"0.013": 3.39469526819,
			"0.014": 1.50288080797,
			"0.015": 0.140080816978,
			"0.016": 0.0,
			"0.017": 0.0,
			"0.018": 0.0,
			"0.019": 0.0,
			"0.02": 0.0,
			"0.021": 0.0,
			"0.022": 0.0,
			"0.023": 0.0,
			"0.024": 0.0,
			"0.025": 0.0
		}
	}
}
