{
	 "smiles": "COCC1=CC(=CC=C1)C(O)=O", 
	 "Tm": 338.15, 
	 "num_atms": 22, 
	 "gaussian": { 
		 "optdone": 1, 
		 "sigma_profile": "yes", 
		 "theory": "DFT", 
		 "functional": "B3LYP", 
		 "basiset": "6-31G**", 
		 "properties": { 
			 "R2extent": 2429.8133, 
			 "electric_dipole_moment_norm": 5.28091872594, 
			 "electric_quadrupole_moment_norm": 9.67143654635, 
			 "total_energy": -574.647816628, 
			 "HOMO_LUMO_gap": 0.21272, 
			 "cosmo_polarized_energy": -15.81, 
			 "cosmo_cavitation_energy": 26.13, 
			 "cosmo_dispersion_energy": -18.85, 
			 "cosmo_repulsion_energy": 1.52, 
			 "cosmo_total_nonelectrostatic_energy": 8.81, 
			 "SMD_solvation_energy": 6.17 
		},
		"coords": [
			{
				"x": -2.3865290354,
				"y": -2.2183059619,
				"z": -1.4831176721,
				"element": "C" 
			},
			{
				"x": -1.829707227,
				"y": -2.6634189511,
				"z": -0.2569399211,
				"element": "O" 
			},
			{
				"x": -0.4341981445,
				"y": -2.8747917819,
				"z": -0.3127840329,
				"element": "C" 
			},
			{
				"x": 0.3887246895,
				"y": -1.5955982312,
				"z": -0.3319038736,
				"element": "C" 
			},
			{
				"x": -0.0751949877,
				"y": -0.4489839526,
				"z": 0.3159233967,
				"element": "C" 
			},
			{
				"x": 0.7001003946,
				"y": 0.7160349713,
				"z": 0.3538400158,
				"element": "C" 
			},
			{
				"x": 1.9485326173,
				"y": 0.7393432227,
				"z": -0.2852225629,
				"element": "C" 
			},
			{
				"x": 2.4133900753,
				"y": -0.3985084261,
				"z": -0.9431799423,
				"element": "C" 
			},
			{
				"x": 1.6377227918,
				"y": -1.5580314939,
				"z": -0.9645874622,
				"element": "C" 
			},
			{
				"x": 0.1272731315,
				"y": 1.91088377,
				"z": 1.057814428,
				"element": "C" 
			},
			{
				"x": 1.0157895778,
				"y": 2.8504158108,
				"z": 1.4835934432,
				"element": "O" 
			},
			{
				"x": -1.05467077,
				"y": 2.0656440357,
				"z": 1.2540363249,
				"element": "O" 
			},
			{
				"x": -2.2084803206,
				"y": -2.9461209418,
				"z": -2.2898088155,
				"element": "H" 
			},
			{
				"x": -1.9824658189,
				"y": -1.2453499759,
				"z": -1.7939621841,
				"element": "H" 
			},
			{
				"x": -3.462561345,
				"y": -2.1196961342,
				"z": -1.3250697984,
				"element": "H" 
			},
			{
				"x": -0.1904081773,
				"y": -3.4499295976,
				"z": 0.5890413798,
				"element": "H" 
			},
			{
				"x": -0.1641252091,
				"y": -3.5004567669,
				"z": -1.1797634099,
				"element": "H" 
			},
			{
				"x": -1.0486989509,
				"y": -0.4499748812,
				"z": 0.7940528676,
				"element": "H" 
			},
			{
				"x": 2.5425382278,
				"y": 1.6495943559,
				"z": -0.317025793,
				"element": "H" 
			},
			{
				"x": 3.3717413713,
				"y": -0.3761286645,
				"z": -1.4533106723,
				"element": "H" 
			},
			{
				"x": 2.0029786786,
				"y": -2.4399385223,
				"z": -1.4858540413,
				"element": "H" 
			},
			{
				"x": 1.9184484309,
				"y": 2.5120181166,
				"z": 1.4054283255,
				"element": "H" 
			}
		],
		 "valence_orbital": [ 
			{
				"type": "occ",
				"energy": -0.31473,
				"method": "rhf"
			},
			{
				"type": "occ",
				"energy": -0.27676,
				"method": "rhf"
			},
			{
				"type": "occ",
				"energy": -0.26768,
				"method": "rhf"
			},
			{
				"type": "occ",
				"energy": -0.26363,
				"method": "rhf"
			},
			{
				"type": "occ",
				"energy": -0.26304,
				"method": "rhf"
			},
			{
				"type": "unocc",
				"energy": -0.05032,
				"method": "rhf"
			},
			{
				"type": "unocc",
				"energy": -0.02357,
				"method": "rhf"
			},
			{
				"type": "unocc",
				"energy": 0.04584,
				"method": "rhf"
			},
			{
				"type": "unocc",
				"energy": 0.0628,
				"method": "rhf"
			},
			{
				"type": "unocc",
				"energy": 0.09244,
				"method": "rhf"
			}
		],
		"cosmo_sigma_profile": { 
			"-0.025": 0.0,
			"-0.024": 0.0,
			"-0.023": 0.0,
			"-0.022": 0.0,
			"-0.021": 0.0,
			"-0.02": 0.0,
			"-0.019": 0.0892488454595,
			"-0.018": 0.693375380025,
			"-0.017": 1.11886289716,
			"-0.016": 0.962334413314,
			"-0.015": 0.599195849257,
			"-0.014": 0.88625579785,
			"-0.013": 1.03969905434,
			"-0.012": 1.16461410539,
			"-0.011": 2.28158164196,
			"-0.01": 0.458316760726,
			"-0.009": 1.02214418539,
			"-0.008": 1.50291845037,
			"-0.007": 4.1160933234,
			"-0.006": 9.8990378385,
			"-0.005": 14.5908823519,
			"-0.004": 17.6700873761,
			"-0.003": 18.14542789,
			"-0.002": 19.746873397,
			"-0.001": 15.2347025733,
			"0.0": 11.5178565279,
			"0.001": 10.5739551213,
			"0.002": 11.7729989583,
			"0.003": 13.4886188786,
			"0.004": 8.44685852104,
			"0.005": 3.33338488741,
			"0.006": 3.58169057212,
			"0.007": 4.67341494615,
			"0.008": 3.25124795243,
			"0.009": 3.03538060766,
			"0.01": 7.11797698147,
			"0.011": 5.78457671398,
			"0.012": 6.51214136536,
			"0.013": 2.96564325509,
			"0.014": 0.113713090727,
			"0.015": 0.0,
			"0.016": 0.0,
			"0.017": 0.0,
			"0.018": 0.0,
			"0.019": 0.0,
			"0.02": 0.0,
			"0.021": 0.0,
			"0.022": 0.0,
			"0.023": 0.0,
			"0.024": 0.0,
			"0.025": 0.0
		}
	}
}
