{
	 "smiles": "CCC1=CC2=C(C=C1)N=C(N)S2", 
	 "Tm": 379.15, 
	 "num_atms": 22, 
	 "gaussian": { 
		 "optdone": 1, 
		 "sigma_profile": "yes", 
		 "theory": "DFT", 
		 "functional": "B3LYP", 
		 "basiset": "6-31G**", 
		 "properties": { 
			 "R2extent": 3672.2532, 
			 "electric_dipole_moment_norm": 1.70853698233, 
			 "electric_quadrupole_moment_norm": 16.8894566283, 
			 "total_energy": -856.69857704, 
			 "HOMO_LUMO_gap": 0.19578, 
			 "cosmo_polarized_energy": -10.68, 
			 "cosmo_cavitation_energy": 27.19, 
			 "cosmo_dispersion_energy": -20.6, 
			 "cosmo_repulsion_energy": 1.61, 
			 "cosmo_total_nonelectrostatic_energy": 8.2, 
			 "SMD_solvation_energy": 2.32 
		},
		"coords": [
			{
				"x": -0.7769861386,
				"y": -2.3045060286,
				"z": -1.2324442428,
				"element": "C" 
			},
			{
				"x": -1.5079289866,
				"y": -1.1951424255,
				"z": -0.4547778302,
				"element": "C" 
			},
			{
				"x": -0.5669382045,
				"y": -0.1597710766,
				"z": 0.1264570582,
				"element": "C" 
			},
			{
				"x": -0.2566843825,
				"y": 1.0015337274,
				"z": -0.5920060447,
				"element": "C" 
			},
			{
				"x": 0.6412363326,
				"y": 1.916054126,
				"z": -0.047578362,
				"element": "C" 
			},
			{
				"x": 1.2535059471,
				"y": 1.7076286103,
				"z": 1.2115680445,
				"element": "C" 
			},
			{
				"x": 0.9373341923,
				"y": 0.5454254389,
				"z": 1.9253958989,
				"element": "C" 
			},
			{
				"x": 0.0386711146,
				"y": -0.3666141589,
				"z": 1.3805079065,
				"element": "C" 
			},
			{
				"x": 2.13535793,
				"y": 2.694963501,
				"z": 1.6293417642,
				"element": "N" 
			},
			{
				"x": 2.2094712003,
				"y": 3.6436260456,
				"z": 0.7521799794,
				"element": "C" 
			},
			{
				"x": 2.9501618628,
				"y": 4.7875136839,
				"z": 0.9141505885,
				"element": "N" 
			},
			{
				"x": 1.1987795634,
				"y": 3.4515293466,
				"z": -0.7134820532,
				"element": "S" 
			},
			{
				"x": -1.4863098855,
				"y": -3.0364562982,
				"z": -1.6335094899,
				"element": "H" 
			},
			{
				"x": -0.0699573828,
				"y": -2.8353024798,
				"z": -0.5866104607,
				"element": "H" 
			},
			{
				"x": -0.2092252089,
				"y": -1.8864697453,
				"z": -2.0701343452,
				"element": "H" 
			},
			{
				"x": -2.093892633,
				"y": -1.6492535489,
				"z": 0.3535712004,
				"element": "H" 
			},
			{
				"x": -2.2281976725,
				"y": -0.7034437445,
				"z": -1.119602031,
				"element": "H" 
			},
			{
				"x": -0.7185701222,
				"y": 1.1823160103,
				"z": -1.5587655961,
				"element": "H" 
			},
			{
				"x": 1.3947619774,
				"y": 0.3777885103,
				"z": 2.8950744251,
				"element": "H" 
			},
			{
				"x": -0.2086094646,
				"y": -1.2654318898,
				"z": 1.9401757431,
				"element": "H" 
			},
			{
				"x": 3.6227773892,
				"y": 4.7272151692,
				"z": 1.6672476075,
				"element": "H" 
			},
			{
				"x": 3.293142572,
				"y": 5.2409972264,
				"z": 0.0799402394,
				"element": "H" 
			}
		],
		 "valence_orbital": [ 
			{
				"type": "occ",
				"energy": -0.29399,
				"method": "rhf"
			},
			{
				"type": "occ",
				"energy": -0.2865,
				"method": "rhf"
			},
			{
				"type": "occ",
				"energy": -0.2718,
				"method": "rhf"
			},
			{
				"type": "occ",
				"energy": -0.2267,
				"method": "rhf"
			},
			{
				"type": "occ",
				"energy": -0.20554,
				"method": "rhf"
			},
			{
				"type": "unocc",
				"energy": -0.00976,
				"method": "rhf"
			},
			{
				"type": "unocc",
				"energy": 0.00242,
				"method": "rhf"
			},
			{
				"type": "unocc",
				"energy": 0.00558,
				"method": "rhf"
			},
			{
				"type": "unocc",
				"energy": 0.04954,
				"method": "rhf"
			},
			{
				"type": "unocc",
				"energy": 0.07051,
				"method": "rhf"
			}
		],
		"cosmo_sigma_profile": { 
			"-0.025": 0.0,
			"-0.024": 0.0,
			"-0.023": 0.0,
			"-0.022": 0.0,
			"-0.021": 0.0,
			"-0.02": 0.0,
			"-0.019": 0.0,
			"-0.018": 0.0,
			"-0.017": 0.0,
			"-0.016": 0.0,
			"-0.015": 0.818185853428,
			"-0.014": 2.18726102368,
			"-0.013": 2.63714173557,
			"-0.012": 2.37095476521,
			"-0.011": 2.73000821945,
			"-0.01": 2.67237118252,
			"-0.009": 1.89105311944,
			"-0.008": 1.32998030381,
			"-0.007": 2.15437079581,
			"-0.006": 5.19816780005,
			"-0.005": 7.50502400759,
			"-0.004": 10.2284717166,
			"-0.003": 16.4435231737,
			"-0.002": 17.6439553565,
			"-0.001": 18.6892913985,
			"0.0": 20.6608026433,
			"0.001": 20.4891045644,
			"0.002": 16.3621564452,
			"0.003": 13.8416742592,
			"0.004": 16.0874291837,
			"0.005": 14.9008281485,
			"0.006": 7.77323518689,
			"0.007": 2.88620965111,
			"0.008": 2.19712828717,
			"0.009": 1.25558693235,
			"0.01": 1.61030964583,
			"0.011": 1.08349063621,
			"0.012": 1.5589643058,
			"0.013": 1.08779884889,
			"0.014": 0.443682844493,
			"0.015": 0.988383243651,
			"0.016": 0.133307808544,
			"0.017": 0.0,
			"0.018": 0.0,
			"0.019": 0.0,
			"0.02": 0.0,
			"0.021": 0.0,
			"0.022": 0.0,
			"0.023": 0.0,
			"0.024": 0.0,
			"0.025": 0.0
		}
	}
}
