{
	 "smiles": "[O-][N+](=O)C1=C(C=C2NC(=O)C(=O)NC2=C1)C#N", 
	 "Tm": 573.15, 
	 "num_atms": 21, 
	 "gaussian": { 
		 "optdone": 1, 
		 "sigma_profile": "yes", 
		 "theory": "DFT", 
		 "functional": "B3LYP", 
		 "basiset": "6-31G**", 
		 "properties": { 
			 "R2extent": 4824.2443, 
			 "electric_dipole_moment_norm": 2.01474629172, 
			 "electric_quadrupole_moment_norm": 36.2268612637, 
			 "total_energy": -865.166995622, 
			 "HOMO_LUMO_gap": 0.14609, 
			 "cosmo_polarized_energy": -32.41, 
			 "cosmo_cavitation_energy": 28.91, 
			 "cosmo_dispersion_energy": -20.8, 
			 "cosmo_repulsion_energy": 1.58, 
			 "cosmo_total_nonelectrostatic_energy": 9.69, 
			 "SMD_solvation_energy": 9.66 
		},
		"coords": [
			{
				"x": -2.3911540516,
				"y": 0.7800079224,
				"z": 2.7511264154,
				"element": "O" 
			},
			{
				"x": -1.3791268737,
				"y": 1.2158470831,
				"z": 2.2113134132,
				"element": "N" 
			},
			{
				"x": -0.5843623287,
				"y": 2.0033331442,
				"z": 2.7246609995,
				"element": "O" 
			},
			{
				"x": -1.0889275573,
				"y": 0.7641338681,
				"z": 0.8427037316,
				"element": "C" 
			},
			{
				"x": -1.9385975255,
				"y": -0.1362775755,
				"z": 0.1705590948,
				"element": "C" 
			},
			{
				"x": -1.5902451732,
				"y": -0.517562979,
				"z": -1.1336726482,
				"element": "C" 
			},
			{
				"x": -0.4408405532,
				"y": -0.0244869846,
				"z": -1.7505002318,
				"element": "C" 
			},
			{
				"x": -0.0838719993,
				"y": -0.3921369677,
				"z": -3.0384950142,
				"element": "N" 
			},
			{
				"x": 1.0369300186,
				"y": 0.0437712403,
				"z": -3.7341213945,
				"element": "C" 
			},
			{
				"x": 1.2829531945,
				"y": -0.3232456081,
				"z": -4.8609599411,
				"element": "O" 
			},
			{
				"x": 1.9450442714,
				"y": 1.0237689374,
				"z": -2.9782936534,
				"element": "C" 
			},
			{
				"x": 2.9525118411,
				"y": 1.4772186647,
				"z": -3.4735184832,
				"element": "O" 
			},
			{
				"x": 1.5317242056,
				"y": 1.3509533495,
				"z": -1.6948964647,
				"element": "N" 
			},
			{
				"x": 0.3946501984,
				"y": 0.8770498394,
				"z": -1.0554036596,
				"element": "C" 
			},
			{
				"x": 0.0597497242,
				"y": 1.2632362988,
				"z": 0.239668401,
				"element": "C" 
			},
			{
				"x": -3.1401808658,
				"y": -0.702894293,
				"z": 0.7074439858,
				"element": "C" 
			},
			{
				"x": -4.1292776315,
				"y": -1.2421616381,
				"z": 0.9959229558,
				"element": "N" 
			},
			{
				"x": -2.23330104,
				"y": -1.210191449,
				"z": -1.6658830068,
				"element": "H" 
			},
			{
				"x": -0.6724117853,
				"y": -1.038619119,
				"z": -3.5524313838,
				"element": "H" 
			},
			{
				"x": 2.1406093328,
				"y": 1.9987770158,
				"z": -1.2071667805,
				"element": "H" 
			},
			{
				"x": 0.6788245985,
				"y": 1.9529792502,
				"z": 0.8003436647,
				"element": "H" 
			}
		],
		 "valence_orbital": [ 
			{
				"type": "occ",
				"energy": -0.32507,
				"method": "rhf"
			},
			{
				"type": "occ",
				"energy": -0.31115,
				"method": "rhf"
			},
			{
				"type": "occ",
				"energy": -0.29679,
				"method": "rhf"
			},
			{
				"type": "occ",
				"energy": -0.29465,
				"method": "rhf"
			},
			{
				"type": "occ",
				"energy": -0.26715,
				"method": "rhf"
			},
			{
				"type": "unocc",
				"energy": -0.12106,
				"method": "rhf"
			},
			{
				"type": "unocc",
				"energy": -0.09364,
				"method": "rhf"
			},
			{
				"type": "unocc",
				"energy": -0.06415,
				"method": "rhf"
			},
			{
				"type": "unocc",
				"energy": -0.0341,
				"method": "rhf"
			},
			{
				"type": "unocc",
				"energy": 0.01627,
				"method": "rhf"
			}
		],
		"cosmo_sigma_profile": { 
			"-0.025": 0.0,
			"-0.024": 0.0,
			"-0.023": 0.0,
			"-0.022": 0.0,
			"-0.021": 0.0,
			"-0.02": 0.0,
			"-0.019": 0.0,
			"-0.018": 1.02330882107,
			"-0.017": 4.28401657955,
			"-0.016": 2.98693198519,
			"-0.015": 2.47610691889,
			"-0.014": 2.6140570689,
			"-0.013": 1.95384667808,
			"-0.012": 2.80835347221,
			"-0.011": 3.38733126648,
			"-0.01": 4.97914463719,
			"-0.009": 5.68466555293,
			"-0.008": 5.94971490036,
			"-0.007": 8.80056750244,
			"-0.006": 7.88805779978,
			"-0.005": 10.9315348087,
			"-0.004": 19.0908853795,
			"-0.003": 20.8814658706,
			"-0.002": 12.5028405007,
			"-0.001": 6.46564911782,
			"0.0": 4.22785402049,
			"0.001": 3.87051608795,
			"0.002": 5.91947856825,
			"0.003": 5.25464692978,
			"0.004": 5.61490968362,
			"0.005": 7.2383547308,
			"0.006": 9.37969564785,
			"0.007": 13.9381947192,
			"0.008": 13.2102188647,
			"0.009": 9.76313047587,
			"0.01": 9.76557433749,
			"0.011": 12.2999735802,
			"0.012": 6.29684261855,
			"0.013": 2.51461707936,
			"0.014": 0.629446839577,
			"0.015": 0.0,
			"0.016": 0.0,
			"0.017": 0.0,
			"0.018": 0.0,
			"0.019": 0.0,
			"0.02": 0.0,
			"0.021": 0.0,
			"0.022": 0.0,
			"0.023": 0.0,
			"0.024": 0.0,
			"0.025": 0.0
		}
	}
}
