{
	 "smiles": "OC(=O)C(OC1=CC(Cl)=C(Cl)C=C1)C1=CC=CC=C1", 
	 "Tm": 333.15, 
	 "num_atms": 29, 
	 "gaussian": { 
		 "optdone": 1, 
		 "sigma_profile": "yes", 
		 "theory": "DFT", 
		 "functional": "B3LYP", 
		 "basiset": "6-31G**", 
		 "properties": { 
			 "R2extent": 10299.938, 
			 "electric_dipole_moment_norm": 6.81044466316, 
			 "electric_quadrupole_moment_norm": 22.478881566, 
			 "total_energy": -1685.56114203, 
			 "HOMO_LUMO_gap": 0.19456, 
			 "cosmo_polarized_energy": -16.84, 
			 "cosmo_cavitation_energy": 37.65, 
			 "cosmo_dispersion_energy": -26.75, 
			 "cosmo_repulsion_energy": 2.08, 
			 "cosmo_total_nonelectrostatic_energy": 12.98, 
			 "SMD_solvation_energy": 6.96 
		},
		"coords": [
			{
				"x": 1.2602386357,
				"y": -3.3556378423,
				"z": 1.3580807625,
				"element": "O" 
			},
			{
				"x": 0.6763188145,
				"y": -2.9767119146,
				"z": 0.2006277154,
				"element": "C" 
			},
			{
				"x": 0.2975696712,
				"y": -3.7816360751,
				"z": -0.6090437688,
				"element": "O" 
			},
			{
				"x": 0.6025664224,
				"y": -1.4424846095,
				"z": -0.0293370417,
				"element": "C" 
			},
			{
				"x": -0.3583950686,
				"y": -1.1439661597,
				"z": -1.026516239,
				"element": "O" 
			},
			{
				"x": -0.0085872965,
				"y": -1.1235198171,
				"z": -2.3503272953,
				"element": "C" 
			},
			{
				"x": 1.1355485831,
				"y": -1.7234794537,
				"z": -2.8783405678,
				"element": "C" 
			},
			{
				"x": 1.4049239285,
				"y": -1.6150705846,
				"z": -4.2461146301,
				"element": "C" 
			},
			{
				"x": 2.8530623728,
				"y": -2.3772526583,
				"z": -4.8596559247,
				"element": "Cl" 
			},
			{
				"x": 0.5306974498,
				"y": -0.9264111965,
				"z": -5.09261788,
				"element": "C" 
			},
			{
				"x": 0.8346049459,
				"y": -0.7710518677,
				"z": -6.8064931751,
				"element": "Cl" 
			},
			{
				"x": -0.6222904052,
				"y": -0.3477415378,
				"z": -4.5521668648,
				"element": "C" 
			},
			{
				"x": -0.8916967716,
				"y": -0.4381716193,
				"z": -3.1939516567,
				"element": "C" 
			},
			{
				"x": 0.2396776418,
				"y": -0.6849515855,
				"z": 1.2350023256,
				"element": "C" 
			},
			{
				"x": -1.0889838217,
				"y": -0.6463590564,
				"z": 1.682037102,
				"element": "C" 
			},
			{
				"x": -1.4087056927,
				"y": 0.0141573215,
				"z": 2.8661851397,
				"element": "C" 
			},
			{
				"x": -0.4081404477,
				"y": 0.6329402253,
				"z": 3.6223931202,
				"element": "C" 
			},
			{
				"x": 0.9149266541,
				"y": 0.5970861237,
				"z": 3.1843644365,
				"element": "C" 
			},
			{
				"x": 1.2374048244,
				"y": -0.0557231623,
				"z": 1.9907714184,
				"element": "C" 
			},
			{
				"x": 1.3850957378,
				"y": -2.5845917034,
				"z": 1.93557894,
				"element": "H" 
			},
			{
				"x": 1.6046769722,
				"y": -1.1280217013,
				"z": -0.3568943066,
				"element": "H" 
			},
			{
				"x": 1.8014152317,
				"y": -2.3155529749,
				"z": -2.2661596029,
				"element": "H" 
			},
			{
				"x": -1.3007452123,
				"y": 0.1844123838,
				"z": -5.2095552834,
				"element": "H" 
			},
			{
				"x": -1.7770711932,
				"y": 0.0198907756,
				"z": -2.767621558,
				"element": "H" 
			},
			{
				"x": -1.8639837335,
				"y": -1.1231406818,
				"z": 1.0906296146,
				"element": "H" 
			},
			{
				"x": -2.4406232907,
				"y": 0.0443177533,
				"z": 3.2031347386,
				"element": "H" 
			},
			{
				"x": -0.6620919379,
				"y": 1.1442292309,
				"z": 4.5460629128,
				"element": "H" 
			},
			{
				"x": 1.6956183375,
				"y": 1.0859984172,
				"z": 3.7592871306,
				"element": "H" 
			},
			{
				"x": 2.2663686484,
				"y": -0.0568560293,
				"z": 1.6375404382,
				"element": "H" 
			}
		],
		 "valence_orbital": [ 
			{
				"type": "occ",
				"energy": -0.29493,
				"method": "rhf"
			},
			{
				"type": "occ",
				"energy": -0.27856,
				"method": "rhf"
			},
			{
				"type": "occ",
				"energy": -0.26735,
				"method": "rhf"
			},
			{
				"type": "occ",
				"energy": -0.25891,
				"method": "rhf"
			},
			{
				"type": "occ",
				"energy": -0.23048,
				"method": "rhf"
			},
			{
				"type": "unocc",
				"energy": -0.03592,
				"method": "rhf"
			},
			{
				"type": "unocc",
				"energy": -0.03483,
				"method": "rhf"
			},
			{
				"type": "unocc",
				"energy": -0.02315,
				"method": "rhf"
			},
			{
				"type": "unocc",
				"energy": -0.00986,
				"method": "rhf"
			},
			{
				"type": "unocc",
				"energy": -0.00246,
				"method": "rhf"
			}
		],
		"cosmo_sigma_profile": { 
			"-0.025": 0.0,
			"-0.024": 0.0,
			"-0.023": 0.0,
			"-0.022": 0.0,
			"-0.021": 0.0,
			"-0.02": 0.0,
			"-0.019": 0.0,
			"-0.018": 0.0,
			"-0.017": 0.0,
			"-0.016": 0.0,
			"-0.015": 0.250912868826,
			"-0.014": 0.927773019165,
			"-0.013": 1.09995374295,
			"-0.012": 3.07043917725,
			"-0.011": 3.3213087255,
			"-0.01": 2.66981148073,
			"-0.009": 3.68521913312,
			"-0.008": 5.06271207658,
			"-0.007": 9.55300958001,
			"-0.006": 17.0058032782,
			"-0.005": 18.2193684881,
			"-0.004": 15.4245953796,
			"-0.003": 15.071154797,
			"-0.002": 16.0192952028,
			"-0.001": 15.0303708207,
			"0.0": 21.749935522,
			"0.001": 29.1662941933,
			"0.002": 29.7145057323,
			"0.003": 27.629831121,
			"0.004": 29.6364676592,
			"0.005": 12.9349404657,
			"0.006": 4.49186446592,
			"0.007": 3.92090897668,
			"0.008": 3.98671572559,
			"0.009": 5.36301900256,
			"0.01": 4.91701341849,
			"0.011": 4.93442272941,
			"0.012": 1.81060435405,
			"0.013": 0.0858158783139,
			"0.014": 0.0,
			"0.015": 0.0,
			"0.016": 0.0,
			"0.017": 0.0,
			"0.018": 0.0,
			"0.019": 0.0,
			"0.02": 0.0,
			"0.021": 0.0,
			"0.022": 0.0,
			"0.023": 0.0,
			"0.024": 0.0,
			"0.025": 0.0
		}
	}
}
