{
	 "smiles": "OC(=O)C1=CC(OCC(F)(F)F)=CC(O)=C1", 
	 "Tm": 439.15, 
	 "num_atms": 23, 
	 "gaussian": { 
		 "optdone": 1, 
		 "sigma_profile": "yes", 
		 "theory": "DFT", 
		 "functional": "B3LYP", 
		 "basiset": "6-31G**", 
		 "properties": { 
			 "R2extent": 4727.8274, 
			 "electric_dipole_moment_norm": 1.58758952189, 
			 "electric_quadrupole_moment_norm": 9.09420816674, 
			 "total_energy": -947.59934602, 
			 "HOMO_LUMO_gap": 0.17858, 
			 "cosmo_polarized_energy": -15.33, 
			 "cosmo_cavitation_energy": 29.86, 
			 "cosmo_dispersion_energy": -21.35, 
			 "cosmo_repulsion_energy": 1.61, 
			 "cosmo_total_nonelectrostatic_energy": 10.12, 
			 "SMD_solvation_energy": 8.12 
		},
		"coords": [
			{
				"x": 1.9794246955,
				"y": -1.9187027892,
				"z": -3.4281805028,
				"element": "O" 
			},
			{
				"x": 2.6669316814,
				"y": -1.0365758825,
				"z": -2.6633225784,
				"element": "C" 
			},
			{
				"x": 3.8306714229,
				"y": -0.7615679122,
				"z": -2.8816531341,
				"element": "O" 
			},
			{
				"x": 1.8538207662,
				"y": -0.4601163054,
				"z": -1.5569721025,
				"element": "C" 
			},
			{
				"x": 0.5231912128,
				"y": -0.8265313703,
				"z": -1.355846138,
				"element": "C" 
			},
			{
				"x": -0.1872605512,
				"y": -0.2496690056,
				"z": -0.296217072,
				"element": "C" 
			},
			{
				"x": -1.4909863131,
				"y": -0.6725711518,
				"z": -0.1783170189,
				"element": "O" 
			},
			{
				"x": -2.1895614913,
				"y": -0.5059110951,
				"z": 1.0357138254,
				"element": "C" 
			},
			{
				"x": -3.0929922757,
				"y": 0.721019246,
				"z": 1.0208816058,
				"element": "C" 
			},
			{
				"x": -3.8070400103,
				"y": 0.7532295151,
				"z": 2.1678391989,
				"element": "F" 
			},
			{
				"x": -2.3972839581,
				"y": 1.874250617,
				"z": 0.9370698141,
				"element": "F" 
			},
			{
				"x": -3.9543134291,
				"y": 0.6883253239,
				"z": -0.008263269,
				"element": "F" 
			},
			{
				"x": 0.4170144475,
				"y": 0.683748078,
				"z": 0.5453298675,
				"element": "C" 
			},
			{
				"x": 1.7599079981,
				"y": 1.0284870281,
				"z": 0.3336039966,
				"element": "C" 
			},
			{
				"x": 2.2941117839,
				"y": 1.9425120323,
				"z": 1.1930808465,
				"element": "O" 
			},
			{
				"x": 2.4844977637,
				"y": 0.4630704517,
				"z": -0.7125058664,
				"element": "C" 
			},
			{
				"x": 2.6036804152,
				"y": -2.2216079691,
				"z": -4.107756113,
				"element": "H" 
			},
			{
				"x": 0.0333383193,
				"y": -1.5474890601,
				"z": -1.997076429,
				"element": "H" 
			},
			{
				"x": -1.5227712734,
				"y": -0.4440334209,
				"z": 1.9016336016,
				"element": "H" 
			},
			{
				"x": -2.8384230667,
				"y": -1.3783525156,
				"z": 1.1535079566,
				"element": "H" 
			},
			{
				"x": -0.1224093708,
				"y": 1.1877543591,
				"z": 1.3358295774,
				"element": "H" 
			},
			{
				"x": 3.2088508327,
				"y": 2.1201360423,
				"z": 0.9376845718,
				"element": "H" 
			},
			{
				"x": 3.5229004004,
				"y": 0.7209957845,
				"z": -0.8961646382,
				"element": "H" 
			}
		],
		 "valence_orbital": [ 
			{
				"type": "occ",
				"energy": -0.32786,
				"method": "rhf"
			},
			{
				"type": "occ",
				"energy": -0.31421,
				"method": "rhf"
			},
			{
				"type": "occ",
				"energy": -0.28126,
				"method": "rhf"
			},
			{
				"type": "occ",
				"energy": -0.25258,
				"method": "rhf"
			},
			{
				"type": "occ",
				"energy": -0.23015,
				"method": "rhf"
			},
			{
				"type": "unocc",
				"energy": -0.05157,
				"method": "rhf"
			},
			{
				"type": "unocc",
				"energy": 0.00294,
				"method": "rhf"
			},
			{
				"type": "unocc",
				"energy": 0.05844,
				"method": "rhf"
			},
			{
				"type": "unocc",
				"energy": 0.06465,
				"method": "rhf"
			},
			{
				"type": "unocc",
				"energy": 0.07385,
				"method": "rhf"
			}
		],
		"cosmo_sigma_profile": { 
			"-0.025": 0.0,
			"-0.024": 0.0,
			"-0.023": 0.0,
			"-0.022": 0.0,
			"-0.021": 0.0,
			"-0.02": 0.0,
			"-0.019": 0.0106200071884,
			"-0.018": 2.17720972943,
			"-0.017": 1.75644145744,
			"-0.016": 1.82521216032,
			"-0.015": 1.46620368074,
			"-0.014": 2.30297283595,
			"-0.013": 1.89562537325,
			"-0.012": 0.886484460648,
			"-0.011": 2.48708582484,
			"-0.01": 3.58390991969,
			"-0.009": 5.27086475241,
			"-0.008": 5.98218975218,
			"-0.007": 6.78992108991,
			"-0.006": 8.12947956745,
			"-0.005": 5.86939658886,
			"-0.004": 5.50578736409,
			"-0.003": 7.48382824594,
			"-0.002": 9.1675121485,
			"-0.001": 11.6172386734,
			"0.0": 12.3722442972,
			"0.001": 19.5118077639,
			"0.002": 44.1519536877,
			"0.003": 34.5255402898,
			"0.004": 6.04625778624,
			"0.005": 6.33636300188,
			"0.006": 5.5906955718,
			"0.007": 6.03226829136,
			"0.008": 3.75159420211,
			"0.009": 3.35470635399,
			"0.01": 3.84959369136,
			"0.011": 5.5128332987,
			"0.012": 3.22499667048,
			"0.013": 0.042711928303,
			"0.014": 0.0,
			"0.015": 0.0,
			"0.016": 0.0,
			"0.017": 0.0,
			"0.018": 0.0,
			"0.019": 0.0,
			"0.02": 0.0,
			"0.021": 0.0,
			"0.022": 0.0,
			"0.023": 0.0,
			"0.024": 0.0,
			"0.025": 0.0
		}
	}
}
