{
	 "smiles": "NC(=N)NS(=O)(=O)C1=CC(=CC(=C1)C(F)(F)F)C(F)(F)F", 
	 "Tm": 469.15, 
	 "num_atms": 28, 
	 "gaussian": { 
		 "optdone": 1, 
		 "sigma_profile": "yes", 
		 "theory": "DFT", 
		 "functional": "B3LYP", 
		 "basiset": "6-31G**", 
		 "properties": { 
			 "R2extent": 7967.5842, 
			 "electric_dipole_moment_norm": 3.23846242838, 
			 "electric_quadrupole_moment_norm": 18.07541133, 
			 "total_energy": -1659.04876754, 
			 "HOMO_LUMO_gap": 0.18439, 
			 "cosmo_polarized_energy": -18.06, 
			 "cosmo_cavitation_energy": 37.59, 
			 "cosmo_dispersion_energy": -25.58, 
			 "cosmo_repulsion_energy": 1.83, 
			 "cosmo_total_nonelectrostatic_energy": 13.84, 
			 "SMD_solvation_energy": 7.41 
		},
		"coords": [
			{
				"x": 3.3460742697,
				"y": 0.2033802953,
				"z": 1.6848122824,
				"element": "N" 
			},
			{
				"x": 2.1765141053,
				"y": 0.4942283537,
				"z": 2.353734236,
				"element": "C" 
			},
			{
				"x": 1.677627481,
				"y": 1.6255786952,
				"z": 2.6748885972,
				"element": "N" 
			},
			{
				"x": 1.4101288735,
				"y": -0.6446089186,
				"z": 2.7218347952,
				"element": "N" 
			},
			{
				"x": 1.3081486811,
				"y": -2.1152842792,
				"z": 1.9073150882,
				"element": "S" 
			},
			{
				"x": 0.3615184251,
				"y": -2.9048891266,
				"z": 2.6883028272,
				"element": "O" 
			},
			{
				"x": 2.6807089968,
				"y": -2.5576433421,
				"z": 1.6504448552,
				"element": "O" 
			},
			{
				"x": 0.5447908213,
				"y": -1.7797616468,
				"z": 0.3112817805,
				"element": "C" 
			},
			{
				"x": -0.8228765441,
				"y": -2.0054012726,
				"z": 0.164815272,
				"element": "C" 
			},
			{
				"x": -1.4220290801,
				"y": -1.7285629403,
				"z": -1.0650613089,
				"element": "C" 
			},
			{
				"x": -0.6631025974,
				"y": -1.234066408,
				"z": -2.126042514,
				"element": "C" 
			},
			{
				"x": 0.7068223898,
				"y": -1.0219939492,
				"z": -1.9602167228,
				"element": "C" 
			},
			{
				"x": 1.324386288,
				"y": -1.2967233903,
				"z": -0.7400892879,
				"element": "C" 
			},
			{
				"x": 1.5339478902,
				"y": -0.5435993105,
				"z": -3.1285057826,
				"element": "C" 
			},
			{
				"x": 1.9582969797,
				"y": -1.5789763981,
				"z": -3.8834818584,
				"element": "F" 
			},
			{
				"x": 0.8233242461,
				"y": 0.2727139126,
				"z": -3.9340322817,
				"element": "F" 
			},
			{
				"x": 2.6290032751,
				"y": 0.1291722194,
				"z": -2.7191778646,
				"element": "F" 
			},
			{
				"x": -2.8904690331,
				"y": -2.0156067272,
				"z": -1.2646902441,
				"element": "C" 
			},
			{
				"x": -3.5782374475,
				"y": -1.9024097209,
				"z": -0.1107465444,
				"element": "F" 
			},
			{
				"x": -3.0842752553,
				"y": -3.268799764,
				"z": -1.7269347103,
				"element": "F" 
			},
			{
				"x": -3.4402349045,
				"y": -1.1696698258,
				"z": -2.1605722031,
				"element": "F" 
			},
			{
				"x": 3.749265225,
				"y": -0.7142150875,
				"z": 1.833478623,
				"element": "H" 
			},
			{
				"x": 4.0015208102,
				"y": 0.9650570891,
				"z": 1.5958409691,
				"element": "H" 
			},
			{
				"x": 2.3226011257,
				"y": 2.3906084645,
				"z": 2.4787614995,
				"element": "H" 
			},
			{
				"x": 0.5438361131,
				"y": -0.3822101328,
				"z": 3.182730881,
				"element": "H" 
			},
			{
				"x": -1.4022342348,
				"y": -2.3937901815,
				"z": 0.9943489233,
				"element": "H" 
			},
			{
				"x": -1.1379856418,
				"y": -1.0038150428,
				"z": -3.0725866977,
				"element": "H" 
			},
			{
				"x": 2.385328742,
				"y": -1.1264115649,
				"z": -0.6047526094,
				"element": "H" 
			}
		],
		 "valence_orbital": [ 
			{
				"type": "occ",
				"energy": -0.3172,
				"method": "rhf"
			},
			{
				"type": "occ",
				"energy": -0.30632,
				"method": "rhf"
			},
			{
				"type": "occ",
				"energy": -0.29796,
				"method": "rhf"
			},
			{
				"type": "occ",
				"energy": -0.28851,
				"method": "rhf"
			},
			{
				"type": "occ",
				"energy": -0.25867,
				"method": "rhf"
			},
			{
				"type": "unocc",
				"energy": -0.07428,
				"method": "rhf"
			},
			{
				"type": "unocc",
				"energy": -0.06636,
				"method": "rhf"
			},
			{
				"type": "unocc",
				"energy": 0.01121,
				"method": "rhf"
			},
			{
				"type": "unocc",
				"energy": 0.04001,
				"method": "rhf"
			},
			{
				"type": "unocc",
				"energy": 0.05081,
				"method": "rhf"
			}
		],
		"cosmo_sigma_profile": { 
			"-0.025": 0.0,
			"-0.024": 0.0,
			"-0.023": 0.0,
			"-0.022": 0.0,
			"-0.021": 0.0,
			"-0.02": 0.0,
			"-0.019": 0.0,
			"-0.018": 0.0,
			"-0.017": 0.0,
			"-0.016": 0.171526573389,
			"-0.015": 1.40880053753,
			"-0.014": 3.31030361385,
			"-0.013": 3.16628073882,
			"-0.012": 2.95661393413,
			"-0.011": 3.48472730221,
			"-0.01": 3.84132698328,
			"-0.009": 3.99270111828,
			"-0.008": 6.17208016617,
			"-0.007": 8.81479991889,
			"-0.006": 7.68612896609,
			"-0.005": 8.03699967437,
			"-0.004": 11.8640014604,
			"-0.003": 15.7103752132,
			"-0.002": 27.9339156075,
			"-0.001": 21.0314199987,
			"0.0": 16.7683505162,
			"0.001": 24.2628436402,
			"0.002": 56.8572646315,
			"0.003": 26.4636361467,
			"0.004": 5.04197665439,
			"0.005": 4.06234731815,
			"0.006": 5.07485800543,
			"0.007": 3.84893659803,
			"0.008": 5.10025145129,
			"0.009": 7.66464319581,
			"0.01": 8.14560727052,
			"0.011": 2.0503041154,
			"0.012": 1.25737583511,
			"0.013": 0.818962344087,
			"0.014": 0.962256102046,
			"0.015": 1.06147633113,
			"0.016": 1.42923027612,
			"0.017": 0.90958527382,
			"0.018": 0.0120885282924,
			"0.019": 0.0,
			"0.02": 0.0,
			"0.021": 0.0,
			"0.022": 0.0,
			"0.023": 0.0,
			"0.024": 0.0,
			"0.025": 0.0
		}
	}
}
