{
	 "smiles": "COC(=O)CNS(=O)(=O)C1=CC=C(Br)C=C1", 
	 "Tm": 416.15, 
	 "num_atms": 26, 
	 "gaussian": { 
		 "optdone": 1, 
		 "sigma_profile": "yes", 
		 "theory": "DFT", 
		 "functional": "B3LYP", 
		 "basiset": "6-31G**", 
		 "properties": { 
			 "R2extent": 6554.4893, 
			 "electric_dipole_moment_norm": 4.83672036508, 
			 "electric_quadrupole_moment_norm": 12.6758539148, 
			 "total_energy": -3674.15218104, 
			 "HOMO_LUMO_gap": 0.20646, 
			 "cosmo_polarized_energy": -18.21, 
			 "cosmo_cavitation_energy": 34.45, 
			 "cosmo_dispersion_energy": -23.96, 
			 "cosmo_repulsion_energy": 1.84, 
			 "cosmo_total_nonelectrostatic_energy": 12.33, 
			 "SMD_solvation_energy": 4.71 
		},
		"coords": [
			{
				"x": 2.7785769696,
				"y": -0.8789699982,
				"z": -0.8486617177,
				"element": "C" 
			},
			{
				"x": 1.9322268268,
				"y": 0.2372016655,
				"z": -0.5104315991,
				"element": "O" 
			},
			{
				"x": 1.0874842534,
				"y": 0.6375194016,
				"z": -1.4828523375,
				"element": "C" 
			},
			{
				"x": 1.0303091099,
				"y": 0.1433751438,
				"z": -2.5852974075,
				"element": "O" 
			},
			{
				"x": 0.2557563865,
				"y": 1.8416950008,
				"z": -1.0436640959,
				"element": "C" 
			},
			{
				"x": 0.0277534383,
				"y": 1.9968129108,
				"z": 0.3865014149,
				"element": "N" 
			},
			{
				"x": -1.2904064643,
				"y": 1.2425408116,
				"z": 1.1137062347,
				"element": "S" 
			},
			{
				"x": -1.2309836746,
				"y": 1.6547767916,
				"z": 2.5149776484,
				"element": "O" 
			},
			{
				"x": -2.436128705,
				"y": 1.5103322582,
				"z": 0.2440981345,
				"element": "O" 
			},
			{
				"x": -1.0026107589,
				"y": -0.5333404921,
				"z": 1.0701488382,
				"element": "C" 
			},
			{
				"x": -1.4470187324,
				"y": -1.2786527672,
				"z": -0.0242617768,
				"element": "C" 
			},
			{
				"x": -1.1960318058,
				"y": -2.6501665989,
				"z": -0.0686647095,
				"element": "C" 
			},
			{
				"x": -0.5111784073,
				"y": -3.2516325622,
				"z": 0.9877306119,
				"element": "C" 
			},
			{
				"x": -0.1657956299,
				"y": -5.1262387902,
				"z": 0.9295278056,
				"element": "Br" 
			},
			{
				"x": -0.079949603,
				"y": -2.5126539444,
				"z": 2.0911831048,
				"element": "C" 
			},
			{
				"x": -0.3278633439,
				"y": -1.1420234793,
				"z": 2.1310999964,
				"element": "C" 
			},
			{
				"x": 3.3939019195,
				"y": -0.6405113357,
				"z": -1.7189948117,
				"element": "H" 
			},
			{
				"x": 2.1714685078,
				"y": -1.7593716551,
				"z": -1.0702815602,
				"element": "H" 
			},
			{
				"x": 3.4006598008,
				"y": -1.0529359327,
				"z": 0.0285426554,
				"element": "H" 
			},
			{
				"x": 0.7702365493,
				"y": 2.7392459785,
				"z": -1.409556691,
				"element": "H" 
			},
			{
				"x": -0.7072586137,
				"y": 1.8052910666,
				"z": -1.5551512838,
				"element": "H" 
			},
			{
				"x": 0.8591511274,
				"y": 1.9213642863,
				"z": 0.964800826,
				"element": "H" 
			},
			{
				"x": -2.0010747846,
				"y": -0.7961909345,
				"z": -0.8218907361,
				"element": "H" 
			},
			{
				"x": -1.5358688002,
				"y": -3.2442141799,
				"z": -0.9089776534,
				"element": "H" 
			},
			{
				"x": 0.434256056,
				"y": -3.0038309904,
				"z": 2.9091800191,
				"element": "H" 
			},
			{
				"x": -0.022111622,
				"y": -0.5506216547,
				"z": 2.9873890906,
				"element": "H" 
			}
		],
		 "valence_orbital": [ 
			{
				"type": "occ",
				"energy": -0.30944,
				"method": "rhf"
			},
			{
				"type": "occ",
				"energy": -0.30413,
				"method": "rhf"
			},
			{
				"type": "occ",
				"energy": -0.288,
				"method": "rhf"
			},
			{
				"type": "occ",
				"energy": -0.27777,
				"method": "rhf"
			},
			{
				"type": "occ",
				"energy": -0.26071,
				"method": "rhf"
			},
			{
				"type": "unocc",
				"energy": -0.05425,
				"method": "rhf"
			},
			{
				"type": "unocc",
				"energy": -0.03994,
				"method": "rhf"
			},
			{
				"type": "unocc",
				"energy": -0.0106,
				"method": "rhf"
			},
			{
				"type": "unocc",
				"energy": -0.00758,
				"method": "rhf"
			},
			{
				"type": "unocc",
				"energy": 0.0521,
				"method": "rhf"
			}
		],
		"cosmo_sigma_profile": { 
			"-0.025": 0.0,
			"-0.024": 0.0,
			"-0.023": 0.0,
			"-0.022": 0.0,
			"-0.021": 0.0,
			"-0.02": 0.0,
			"-0.019": 0.0,
			"-0.018": 0.0,
			"-0.017": 0.0,
			"-0.016": 0.0,
			"-0.015": 0.122353571595,
			"-0.014": 0.675599354341,
			"-0.013": 1.23941008848,
			"-0.012": 0.94559501206,
			"-0.011": 0.821499454221,
			"-0.01": 1.3100732666,
			"-0.009": 4.4258621415,
			"-0.008": 10.2804408562,
			"-0.007": 13.4116820743,
			"-0.006": 15.5079022052,
			"-0.005": 17.3006177552,
			"-0.004": 18.7607725509,
			"-0.003": 15.5939284037,
			"-0.002": 16.0364889412,
			"-0.001": 19.4777958327,
			"0.0": 21.860750456,
			"0.001": 22.5219422745,
			"0.002": 15.4566835939,
			"0.003": 13.9006466465,
			"0.004": 15.006042788,
			"0.005": 4.87879532273,
			"0.006": 5.32230549971,
			"0.007": 5.38332694562,
			"0.008": 5.24838480713,
			"0.009": 6.17356866985,
			"0.01": 10.1674380777,
			"0.011": 11.9927712682,
			"0.012": 4.06554558337,
			"0.013": 0.175261412617,
			"0.014": 0.0,
			"0.015": 0.0,
			"0.016": 0.0,
			"0.017": 0.0,
			"0.018": 0.0,
			"0.019": 0.0,
			"0.02": 0.0,
			"0.021": 0.0,
			"0.022": 0.0,
			"0.023": 0.0,
			"0.024": 0.0,
			"0.025": 0.0
		}
	}
}
