{
	 "smiles": "CC(=O)C1=C(C)NC(C(O)=O)=C1C", 
	 "Tm": 479.15, 
	 "num_atms": 24, 
	 "gaussian": { 
		 "optdone": 1, 
		 "sigma_profile": "yes", 
		 "theory": "DFT", 
		 "functional": "B3LYP", 
		 "basiset": "6-31G**", 
		 "properties": { 
			 "R2extent": 2921.8572, 
			 "electric_dipole_moment_norm": 7.25142068425, 
			 "electric_quadrupole_moment_norm": 17.1746800087, 
			 "total_energy": -630.02673016, 
			 "HOMO_LUMO_gap": 0.19773, 
			 "cosmo_polarized_energy": -24.85, 
			 "cosmo_cavitation_energy": 27.69, 
			 "cosmo_dispersion_energy": -20.05, 
			 "cosmo_repulsion_energy": 1.58, 
			 "cosmo_total_nonelectrostatic_energy": 9.22, 
			 "SMD_solvation_energy": 6.45 
		},
		"coords": [
			{
				"x": 0.8764659882,
				"y": 1.2522853613,
				"z": -2.328008079,
				"element": "C" 
			},
			{
				"x": 1.1265194798,
				"y": 0.7104804252,
				"z": -0.9269981097,
				"element": "C" 
			},
			{
				"x": 2.2212289108,
				"y": 0.8822192964,
				"z": -0.4035084283,
				"element": "O" 
			},
			{
				"x": 0.0521317149,
				"y": -0.0114046957,
				"z": -0.2151190074,
				"element": "C" 
			},
			{
				"x": -1.2441003254,
				"y": -0.3101252248,
				"z": -0.6637885478,
				"element": "C" 
			},
			{
				"x": -1.9643158035,
				"y": -0.0882480883,
				"z": -1.9594009399,
				"element": "C" 
			},
			{
				"x": -1.8854889181,
				"y": -0.9453115262,
				"z": 0.3546393759,
				"element": "N" 
			},
			{
				"x": -1.0291609947,
				"y": -1.1192107686,
				"z": 1.4435848353,
				"element": "C" 
			},
			{
				"x": -1.4777711959,
				"y": -1.7758747182,
				"z": 2.6768337107,
				"element": "C" 
			},
			{
				"x": -2.8434892282,
				"y": -1.8016665151,
				"z": 2.8583843836,
				"element": "O" 
			},
			{
				"x": -0.7559140195,
				"y": -2.2954326036,
				"z": 3.4955036229,
				"element": "O" 
			},
			{
				"x": 0.1869874242,
				"y": -0.5409965174,
				"z": 1.1183246418,
				"element": "C" 
			},
			{
				"x": 1.3859095155,
				"y": -0.4585768219,
				"z": 2.0117340515,
				"element": "C" 
			},
			{
				"x": 1.7833353238,
				"y": 1.7573267945,
				"z": -2.6623912902,
				"element": "H" 
			},
			{
				"x": 0.0432170422,
				"y": 1.963092391,
				"z": -2.3399960788,
				"element": "H" 
			},
			{
				"x": 0.6340824599,
				"y": 0.448218418,
				"z": -3.0310531803,
				"element": "H" 
			},
			{
				"x": -2.0549944486,
				"y": 0.9752612803,
				"z": -2.2004232004,
				"element": "H" 
			},
			{
				"x": -2.9771577799,
				"y": -0.4993722595,
				"z": -1.9079490962,
				"element": "H" 
			},
			{
				"x": -1.4542122669,
				"y": -0.5701128267,
				"z": -2.798996865,
				"element": "H" 
			},
			{
				"x": -2.7567557113,
				"y": -1.4429206626,
				"z": 0.2384131081,
				"element": "H" 
			},
			{
				"x": -3.249901143,
				"y": -1.0699762272,
				"z": 2.3723069295,
				"element": "H" 
			},
			{
				"x": 1.1807111447,
				"y": -0.9391783403,
				"z": 2.9684103178,
				"element": "H" 
			},
			{
				"x": 1.685044356,
				"y": 0.5816829326,
				"z": 2.1678112972,
				"element": "H" 
			},
			{
				"x": 2.2449284749,
				"y": -0.9472591031,
				"z": 1.5429865489,
				"element": "H" 
			}
		],
		 "valence_orbital": [ 
			{
				"type": "occ",
				"energy": -0.31891,
				"method": "rhf"
			},
			{
				"type": "occ",
				"energy": -0.27498,
				"method": "rhf"
			},
			{
				"type": "occ",
				"energy": -0.26085,
				"method": "rhf"
			},
			{
				"type": "occ",
				"energy": -0.24298,
				"method": "rhf"
			},
			{
				"type": "occ",
				"energy": -0.23445,
				"method": "rhf"
			},
			{
				"type": "unocc",
				"energy": -0.03672,
				"method": "rhf"
			},
			{
				"type": "unocc",
				"energy": -0.03297,
				"method": "rhf"
			},
			{
				"type": "unocc",
				"energy": 0.03594,
				"method": "rhf"
			},
			{
				"type": "unocc",
				"energy": 0.06058,
				"method": "rhf"
			},
			{
				"type": "unocc",
				"energy": 0.07002,
				"method": "rhf"
			}
		],
		"cosmo_sigma_profile": { 
			"-0.025": 0.0,
			"-0.024": 0.0,
			"-0.023": 0.0,
			"-0.022": 0.0,
			"-0.021": 0.0,
			"-0.02": 0.0,
			"-0.019": 0.727642127388,
			"-0.018": 1.59226047454,
			"-0.017": 1.75267644266,
			"-0.016": 2.51225728516,
			"-0.015": 2.07206886051,
			"-0.014": 1.46683164449,
			"-0.013": 1.77875753767,
			"-0.012": 1.72570490894,
			"-0.011": 2.47287911924,
			"-0.01": 1.75352061066,
			"-0.009": 1.74187710892,
			"-0.008": 1.73529337351,
			"-0.007": 5.34344520421,
			"-0.006": 9.52603992931,
			"-0.005": 9.68497769773,
			"-0.004": 12.3734488291,
			"-0.003": 15.8653759755,
			"-0.002": 18.9481263201,
			"-0.001": 17.2148653551,
			"0.0": 16.4809746373,
			"0.001": 13.5959085616,
			"0.002": 12.2042702201,
			"0.003": 9.49695474044,
			"0.004": 6.44126312013,
			"0.005": 4.64558484193,
			"0.006": 4.171787136,
			"0.007": 4.07449174175,
			"0.008": 4.87993687507,
			"0.009": 4.91438951247,
			"0.01": 5.37672997565,
			"0.011": 7.64628222189,
			"0.012": 7.88681720306,
			"0.013": 4.9879445195,
			"0.014": 1.6469024696,
			"0.015": 0.077939493798,
			"0.016": 0.0,
			"0.017": 0.0,
			"0.018": 0.0,
			"0.019": 0.0,
			"0.02": 0.0,
			"0.021": 0.0,
			"0.022": 0.0,
			"0.023": 0.0,
			"0.024": 0.0,
			"0.025": 0.0
		}
	}
}
