{
	 "smiles": "CCOC1=C(Br)C=C(C=C1)S(N)(=O)=O", 
	 "Tm": 413.15, 
	 "num_atms": 24, 
	 "gaussian": { 
		 "optdone": 1, 
		 "sigma_profile": "yes", 
		 "theory": "DFT", 
		 "functional": "B3LYP", 
		 "basiset": "6-31G**", 
		 "properties": { 
			 "R2extent": 6226.9513, 
			 "electric_dipole_moment_norm": 6.99027643659, 
			 "electric_quadrupole_moment_norm": 29.4111088727, 
			 "total_energy": -3560.81620493, 
			 "HOMO_LUMO_gap": 0.2057, 
			 "cosmo_polarized_energy": -20.69, 
			 "cosmo_cavitation_energy": 31.93, 
			 "cosmo_dispersion_energy": -23.93, 
			 "cosmo_repulsion_energy": 1.87, 
			 "cosmo_total_nonelectrostatic_energy": 9.87, 
			 "SMD_solvation_energy": 4.43 
		},
		"coords": [
			{
				"x": 1.7773239588,
				"y": -3.67139732,
				"z": -1.7711857325,
				"element": "C" 
			},
			{
				"x": 1.2219516243,
				"y": -2.2596151434,
				"z": -1.7309027328,
				"element": "C" 
			},
			{
				"x": 1.5242348261,
				"y": -1.719177301,
				"z": -0.4379032245,
				"element": "O" 
			},
			{
				"x": 1.1420711818,
				"y": -0.4603683975,
				"z": -0.140330038,
				"element": "C" 
			},
			{
				"x": 1.4854839836,
				"y": 0.0286753206,
				"z": 1.1395037907,
				"element": "C" 
			},
			{
				"x": 2.4548141501,
				"y": -1.082999866,
				"z": 2.3417941951,
				"element": "Br" 
			},
			{
				"x": 1.1353460457,
				"y": 1.312009483,
				"z": 1.5312196818,
				"element": "C" 
			},
			{
				"x": 0.4233369452,
				"y": 2.1293535755,
				"z": 0.6470403413,
				"element": "C" 
			},
			{
				"x": 0.0828203652,
				"y": 1.6732935607,
				"z": -0.6246079397,
				"element": "C" 
			},
			{
				"x": 0.4405042372,
				"y": 0.3841172292,
				"z": -1.0150002045,
				"element": "C" 
			},
			{
				"x": -0.0613347682,
				"y": 3.7775803408,
				"z": 1.1658113254,
				"element": "S" 
			},
			{
				"x": -1.5412392033,
				"y": 3.6337976999,
				"z": 1.9531404822,
				"element": "N" 
			},
			{
				"x": -0.3364420437,
				"y": 4.5476225221,
				"z": -0.0460532286,
				"element": "O" 
			},
			{
				"x": 0.8849344832,
				"y": 4.209104258,
				"z": 2.1926150997,
				"element": "O" 
			},
			{
				"x": 2.8591100332,
				"y": -3.6643867708,
				"z": -1.6143579403,
				"element": "H" 
			},
			{
				"x": 1.5689699436,
				"y": -4.1252524076,
				"z": -2.7446780236,
				"element": "H" 
			},
			{
				"x": 1.3191869362,
				"y": -4.2884871888,
				"z": -0.9937776249,
				"element": "H" 
			},
			{
				"x": 0.1345697811,
				"y": -2.2575589194,
				"z": -1.8853309338,
				"element": "H" 
			},
			{
				"x": 1.6792664585,
				"y": -1.6320504515,
				"z": -2.5073302388,
				"element": "H" 
			},
			{
				"x": 1.4318882877,
				"y": 1.685612889,
				"z": 2.5043544107,
				"element": "H" 
			},
			{
				"x": -0.4382983328,
				"y": 2.3311799694,
				"z": -1.3114927056,
				"element": "H" 
			},
			{
				"x": 0.179378136,
				"y": 0.0408124752,
				"z": -2.0083120817,
				"element": "H" 
			},
			{
				"x": -1.4785862498,
				"y": 3.1021093892,
				"z": 2.8156192074,
				"element": "H" 
			},
			{
				"x": -2.2845907797,
				"y": 3.3134250534,
				"z": 1.340664115,
				"element": "H" 
			}
		],
		 "valence_orbital": [ 
			{
				"type": "occ",
				"energy": -0.3061,
				"method": "rhf"
			},
			{
				"type": "occ",
				"energy": -0.30435,
				"method": "rhf"
			},
			{
				"type": "occ",
				"energy": -0.29007,
				"method": "rhf"
			},
			{
				"type": "occ",
				"energy": -0.2671,
				"method": "rhf"
			},
			{
				"type": "occ",
				"energy": -0.24227,
				"method": "rhf"
			},
			{
				"type": "unocc",
				"energy": -0.03657,
				"method": "rhf"
			},
			{
				"type": "unocc",
				"energy": -0.03324,
				"method": "rhf"
			},
			{
				"type": "unocc",
				"energy": -0.0033,
				"method": "rhf"
			},
			{
				"type": "unocc",
				"energy": 0.05383,
				"method": "rhf"
			},
			{
				"type": "unocc",
				"energy": 0.07896,
				"method": "rhf"
			}
		],
		"cosmo_sigma_profile": { 
			"-0.025": 0.0,
			"-0.024": 0.0,
			"-0.023": 0.0,
			"-0.022": 0.0,
			"-0.021": 0.0,
			"-0.02": 0.0,
			"-0.019": 0.0,
			"-0.018": 0.0,
			"-0.017": 0.0,
			"-0.016": 0.2184009785,
			"-0.015": 2.19752184896,
			"-0.014": 2.9965220038,
			"-0.013": 2.91442965055,
			"-0.012": 2.56040075697,
			"-0.011": 2.54286394717,
			"-0.01": 1.77980684348,
			"-0.009": 1.93781288893,
			"-0.008": 5.00280485313,
			"-0.007": 8.88975882412,
			"-0.006": 10.5540640551,
			"-0.005": 14.1902909318,
			"-0.004": 17.7815830251,
			"-0.003": 15.9921384041,
			"-0.002": 15.4902444064,
			"-0.001": 15.2392230642,
			"0.0": 21.1859516909,
			"0.001": 21.5193340464,
			"0.002": 15.1302799653,
			"0.003": 11.3635462753,
			"0.004": 11.3839689979,
			"0.005": 8.27899799623,
			"0.006": 6.24865383597,
			"0.007": 5.62071822793,
			"0.008": 6.92852267877,
			"0.009": 5.32436868359,
			"0.01": 7.88645178213,
			"0.011": 10.6005988385,
			"0.012": 5.04067130504,
			"0.013": 0.155834905715,
			"0.014": 0.0,
			"0.015": 0.0,
			"0.016": 0.0,
			"0.017": 0.0,
			"0.018": 0.0,
			"0.019": 0.0,
			"0.02": 0.0,
			"0.021": 0.0,
			"0.022": 0.0,
			"0.023": 0.0,
			"0.024": 0.0,
			"0.025": 0.0
		}
	}
}
