{
	 "smiles": "C1=CC(=CN=C1)C1=CN=CC=C1", 
	 "Tm": 341.15, 
	 "num_atms": 20, 
	 "gaussian": { 
		 "optdone": 1, 
		 "sigma_profile": "yes", 
		 "theory": "DFT", 
		 "functional": "B3LYP", 
		 "basiset": "6-31G**", 
		 "properties": { 
			 "R2extent": 2324.4072, 
			 "electric_dipole_moment_norm": 1.27822927912, 
			 "electric_quadrupole_moment_norm": 16.6366808625, 
			 "total_energy": -495.379622923, 
			 "HOMO_LUMO_gap": 0.19701, 
			 "cosmo_polarized_energy": -9.54, 
			 "cosmo_cavitation_energy": 24.33, 
			 "cosmo_dispersion_energy": -18.06, 
			 "cosmo_repulsion_energy": 1.41, 
			 "cosmo_total_nonelectrostatic_energy": 7.68, 
			 "SMD_solvation_energy": 1.23 
		},
		"coords": [
			{
				"x": 2.089502571,
				"y": 1.464981268,
				"z": -1.1401496751,
				"element": "C" 
			},
			{
				"x": 1.4053052824,
				"y": 0.6830860901,
				"z": -0.2137674169,
				"element": "C" 
			},
			{
				"x": 0.0024900118,
				"y": 0.7002465685,
				"z": -0.2013935613,
				"element": "C" 
			},
			{
				"x": -0.6296157125,
				"y": 1.5229644435,
				"z": -1.1508960051,
				"element": "C" 
			},
			{
				"x": 0.0134055398,
				"y": 2.2849800717,
				"z": -2.039162016,
				"element": "N" 
			},
			{
				"x": 1.3519093221,
				"y": 2.2516350803,
				"z": -2.0261067533,
				"element": "C" 
			},
			{
				"x": -0.7843827442,
				"y": -0.1104845379,
				"z": 0.7547281534,
				"element": "C" 
			},
			{
				"x": -0.3861119718,
				"y": -1.413108441,
				"z": 1.1047722204,
				"element": "C" 
			},
			{
				"x": -1.0408715054,
				"y": -2.1994825352,
				"z": 1.9627138067,
				"element": "N" 
			},
			{
				"x": -2.1579638808,
				"y": -1.711970995,
				"z": 2.5170718517,
				"element": "C" 
			},
			{
				"x": -2.6589395071,
				"y": -0.4396483357,
				"z": 2.2377610736,
				"element": "C" 
			},
			{
				"x": -1.9603364184,
				"y": 0.3720818512,
				"z": 1.3485337346,
				"element": "C" 
			},
			{
				"x": 3.1745985839,
				"y": 1.4762945093,
				"z": -1.1688812734,
				"element": "H" 
			},
			{
				"x": 1.9494833635,
				"y": 0.0817240103,
				"z": 0.5087148492,
				"element": "H" 
			},
			{
				"x": -1.717158109,
				"y": 1.5469934119,
				"z": -1.2023042126,
				"element": "H" 
			},
			{
				"x": 1.8561752836,
				"y": 2.8827346217,
				"z": -2.7556244919,
				"element": "H" 
			},
			{
				"x": 0.5027799192,
				"y": -1.8447329012,
				"z": 0.647016649,
				"element": "H" 
			},
			{
				"x": -2.6741127598,
				"y": -2.3676172939,
				"z": 3.2159888679,
				"element": "H" 
			},
			{
				"x": -3.5683303633,
				"y": -0.0905000399,
				"z": 2.7168125571,
				"element": "H" 
			},
			{
				"x": -2.3073269052,
				"y": 1.3782231532,
				"z": 1.1316716419,
				"element": "H" 
			}
		],
		 "valence_orbital": [ 
			{
				"type": "occ",
				"energy": -0.28839,
				"method": "rhf"
			},
			{
				"type": "occ",
				"energy": -0.27986,
				"method": "rhf"
			},
			{
				"type": "occ",
				"energy": -0.26628,
				"method": "rhf"
			},
			{
				"type": "occ",
				"energy": -0.25227,
				"method": "rhf"
			},
			{
				"type": "occ",
				"energy": -0.24373,
				"method": "rhf"
			},
			{
				"type": "unocc",
				"energy": -0.04672,
				"method": "rhf"
			},
			{
				"type": "unocc",
				"energy": -0.03016,
				"method": "rhf"
			},
			{
				"type": "unocc",
				"energy": -0.02503,
				"method": "rhf"
			},
			{
				"type": "unocc",
				"energy": 0.00945,
				"method": "rhf"
			},
			{
				"type": "unocc",
				"energy": 0.09735,
				"method": "rhf"
			}
		],
		"cosmo_sigma_profile": { 
			"-0.025": 0.0,
			"-0.024": 0.0,
			"-0.023": 0.0,
			"-0.022": 0.0,
			"-0.021": 0.0,
			"-0.02": 0.0,
			"-0.019": 0.0,
			"-0.018": 0.0,
			"-0.017": 0.0,
			"-0.016": 0.0,
			"-0.015": 0.0,
			"-0.014": 0.0,
			"-0.013": 0.0,
			"-0.012": 0.0,
			"-0.011": 0.0,
			"-0.01": 0.0,
			"-0.009": 0.0,
			"-0.008": 0.428046546858,
			"-0.007": 11.3758801931,
			"-0.006": 17.7886654323,
			"-0.005": 18.0679388898,
			"-0.004": 12.5812046688,
			"-0.003": 11.3313807426,
			"-0.002": 9.97554951672,
			"-0.001": 11.3681417417,
			"0.0": 14.7200659159,
			"0.001": 19.0667739488,
			"0.002": 25.3746328077,
			"0.003": 11.617511672,
			"0.004": 5.39440387014,
			"0.005": 3.74610042075,
			"0.006": 2.44728917482,
			"0.007": 2.23008053422,
			"0.008": 3.78670497569,
			"0.009": 2.01428750917,
			"0.01": 1.75294438347,
			"0.011": 1.65682476397,
			"0.012": 2.00209489519,
			"0.013": 2.11287698148,
			"0.014": 1.61421564008,
			"0.015": 1.98010422716,
			"0.016": 1.45349738428,
			"0.017": 0.466864834261,
			"0.018": 0.0,
			"0.019": 0.0,
			"0.02": 0.0,
			"0.021": 0.0,
			"0.022": 0.0,
			"0.023": 0.0,
			"0.024": 0.0,
			"0.025": 0.0
		}
	}
}
