{
	 "smiles": "COC1=C(C=CC(=C1)C(C)=O)S(=O)(=O)C(F)F", 
	 "Tm": 408.15, 
	 "num_atms": 27, 
	 "gaussian": { 
		 "optdone": 1, 
		 "sigma_profile": "yes", 
		 "theory": "DFT", 
		 "functional": "B3LYP", 
		 "basiset": "6-31G**", 
		 "properties": { 
			 "R2extent": 6285.8008, 
			 "electric_dipole_moment_norm": 4.92904783807, 
			 "electric_quadrupole_moment_norm": 33.7313557651, 
			 "total_energy": -1285.74731799, 
			 "HOMO_LUMO_gap": 0.17267, 
			 "cosmo_polarized_energy": -19.22, 
			 "cosmo_cavitation_energy": 33.73, 
			 "cosmo_dispersion_energy": -23.86, 
			 "cosmo_repulsion_energy": 1.76, 
			 "cosmo_total_nonelectrostatic_energy": 11.63, 
			 "SMD_solvation_energy": 7.54 
		},
		"coords": [
			{
				"x": -1.019227395,
				"y": 0.7420074378,
				"z": 3.0138570827,
				"element": "C" 
			},
			{
				"x": 0.271423114,
				"y": 0.6578323604,
				"z": 2.4107588029,
				"element": "O" 
			},
			{
				"x": 0.4624006955,
				"y": -0.2086835707,
				"z": 1.3867982723,
				"element": "C" 
			},
			{
				"x": 1.7844626725,
				"y": -0.3164849411,
				"z": 0.9068830801,
				"element": "C" 
			},
			{
				"x": 2.0877664622,
				"y": -1.144652437,
				"z": -0.1697473464,
				"element": "C" 
			},
			{
				"x": 1.0781714769,
				"y": -1.8866718261,
				"z": -0.7830249005,
				"element": "C" 
			},
			{
				"x": -0.2365488732,
				"y": -1.7927852262,
				"z": -0.3111110033,
				"element": "C" 
			},
			{
				"x": -0.5423192645,
				"y": -0.9508872149,
				"z": 0.7683946266,
				"element": "C" 
			},
			{
				"x": -1.3787841539,
				"y": -2.5638310925,
				"z": -0.9217273072,
				"element": "C" 
			},
			{
				"x": -1.0953649751,
				"y": -3.4977032496,
				"z": -2.0822114217,
				"element": "C" 
			},
			{
				"x": -2.5095633637,
				"y": -2.4324355731,
				"z": -0.4813573848,
				"element": "O" 
			},
			{
				"x": 3.1509312449,
				"y": 0.4997274163,
				"z": 1.7521658737,
				"element": "S" 
			},
			{
				"x": 4.3129917276,
				"y": 0.411533089,
				"z": 0.8573068594,
				"element": "O" 
			},
			{
				"x": 3.2200596981,
				"y": 0.0365715367,
				"z": 3.1406955695,
				"element": "O" 
			},
			{
				"x": 2.6120784112,
				"y": 2.3192553337,
				"z": 1.7674578291,
				"element": "C" 
			},
			{
				"x": 3.6291359401,
				"y": 3.0390174939,
				"z": 1.2634623482,
				"element": "F" 
			},
			{
				"x": 2.3896138321,
				"y": 2.6798229436,
				"z": 3.0398443605,
				"element": "F" 
			},
			{
				"x": -1.3330180632,
				"y": -0.2315298773,
				"z": 3.405184111,
				"element": "H" 
			},
			{
				"x": -0.9118784833,
				"y": 1.4501672156,
				"z": 3.8350688239,
				"element": "H" 
			},
			{
				"x": -1.7673028905,
				"y": 1.1110515749,
				"z": 2.302947755,
				"element": "H" 
			},
			{
				"x": 3.1155050597,
				"y": -1.196752332,
				"z": -0.5125143555,
				"element": "H" 
			},
			{
				"x": 1.3248777252,
				"y": -2.5302684929,
				"z": -1.6194271477,
				"element": "H" 
			},
			{
				"x": -1.5742700346,
				"y": -0.9051546501,
				"z": 1.0936783475,
				"element": "H" 
			},
			{
				"x": -0.3739758136,
				"y": -4.2708657679,
				"z": -1.7958915713,
				"element": "H" 
			},
			{
				"x": -0.6686638037,
				"y": -2.9510514882,
				"z": -2.9303777958,
				"element": "H" 
			},
			{
				"x": -2.029646355,
				"y": -3.968654252,
				"z": -2.3881720452,
				"element": "H" 
			},
			{
				"x": 1.7089454093,
				"y": 2.4467255897,
				"z": 1.1625585371,
				"element": "H" 
			}
		],
		 "valence_orbital": [ 
			{
				"type": "occ",
				"energy": -0.30983,
				"method": "rhf"
			},
			{
				"type": "occ",
				"energy": -0.29412,
				"method": "rhf"
			},
			{
				"type": "occ",
				"energy": -0.28502,
				"method": "rhf"
			},
			{
				"type": "occ",
				"energy": -0.26914,
				"method": "rhf"
			},
			{
				"type": "occ",
				"energy": -0.25862,
				"method": "rhf"
			},
			{
				"type": "unocc",
				"energy": -0.08595,
				"method": "rhf"
			},
			{
				"type": "unocc",
				"energy": -0.02601,
				"method": "rhf"
			},
			{
				"type": "unocc",
				"energy": 0.00354,
				"method": "rhf"
			},
			{
				"type": "unocc",
				"energy": 0.0402,
				"method": "rhf"
			},
			{
				"type": "unocc",
				"energy": 0.04432,
				"method": "rhf"
			}
		],
		"cosmo_sigma_profile": { 
			"-0.025": 0.0,
			"-0.024": 0.0,
			"-0.023": 0.0,
			"-0.022": 0.0,
			"-0.021": 0.0,
			"-0.02": 0.0,
			"-0.019": 0.0,
			"-0.018": 0.0,
			"-0.017": 0.0,
			"-0.016": 0.0,
			"-0.015": 0.0,
			"-0.014": 0.0,
			"-0.013": 0.120008682899,
			"-0.012": 1.87856597437,
			"-0.011": 2.02107439628,
			"-0.01": 1.96989494912,
			"-0.009": 1.66494388622,
			"-0.008": 3.0502888143,
			"-0.007": 15.3870922668,
			"-0.006": 22.7613014276,
			"-0.005": 18.7781492357,
			"-0.004": 20.1789901077,
			"-0.003": 16.239835622,
			"-0.002": 16.630951263,
			"-0.001": 16.3989769891,
			"0.0": 16.9052747127,
			"0.001": 19.2429650095,
			"0.002": 21.4371639811,
			"0.003": 11.5934420891,
			"0.004": 5.80411093619,
			"0.005": 5.58725683715,
			"0.006": 5.11851772188,
			"0.007": 5.35188804168,
			"0.008": 6.12526681785,
			"0.009": 9.25856440535,
			"0.01": 14.4974024394,
			"0.011": 9.09047482806,
			"0.012": 2.12239618019,
			"0.013": 0.35455901789,
			"0.014": 0.0,
			"0.015": 0.0,
			"0.016": 0.0,
			"0.017": 0.0,
			"0.018": 0.0,
			"0.019": 0.0,
			"0.02": 0.0,
			"0.021": 0.0,
			"0.022": 0.0,
			"0.023": 0.0,
			"0.024": 0.0,
			"0.025": 0.0
		}
	}
}
