{
	 "smiles": "OC(=O)C(OC1=C(F)C=C(Br)C=C1)C1=CC=CC=C1", 
	 "Tm": 378.15, 
	 "num_atms": 29, 
	 "gaussian": { 
		 "optdone": 1, 
		 "sigma_profile": "yes", 
		 "theory": "DFT", 
		 "functional": "B3LYP", 
		 "basiset": "6-31G**", 
		 "properties": { 
			 "R2extent": 8984.4756, 
			 "electric_dipole_moment_norm": 3.68472429905, 
			 "electric_quadrupole_moment_norm": 20.8675729911, 
			 "total_energy": -3436.41989957, 
			 "HOMO_LUMO_gap": 0.20992, 
			 "cosmo_polarized_energy": -12.29, 
			 "cosmo_cavitation_energy": 37.0, 
			 "cosmo_dispersion_energy": -26.11, 
			 "cosmo_repulsion_energy": 2.0, 
			 "cosmo_total_nonelectrostatic_energy": 12.89, 
			 "SMD_solvation_energy": 6.86 
		},
		"coords": [
			{
				"x": -0.4588821318,
				"y": 0.3943587906,
				"z": 3.6204220915,
				"element": "O" 
			},
			{
				"x": -0.7340948347,
				"y": -0.6630643728,
				"z": 2.8458800894,
				"element": "C" 
			},
			{
				"x": -1.3327424796,
				"y": -1.6327641484,
				"z": 3.2385512789,
				"element": "O" 
			},
			{
				"x": -0.2631377308,
				"y": -0.5477907065,
				"z": 1.3723779538,
				"element": "C" 
			},
			{
				"x": 0.4248990026,
				"y": 0.7063502416,
				"z": 1.2498930813,
				"element": "O" 
			},
			{
				"x": 0.2328584457,
				"y": 1.473824002,
				"z": 0.129868443,
				"element": "C" 
			},
			{
				"x": 0.2861766369,
				"y": 2.8608840256,
				"z": 0.3155597393,
				"element": "C" 
			},
			{
				"x": 0.4763604419,
				"y": 3.3290799373,
				"z": 1.5648015161,
				"element": "F" 
			},
			{
				"x": 0.1403979489,
				"y": 3.7474205116,
				"z": -0.7386992541,
				"element": "C" 
			},
			{
				"x": -0.074672598,
				"y": 3.2262944457,
				"z": -2.0162855359,
				"element": "C" 
			},
			{
				"x": -0.2849423549,
				"y": 4.4250456139,
				"z": -3.4845285699,
				"element": "Br" 
			},
			{
				"x": -0.137547641,
				"y": 1.8522124773,
				"z": -2.2316043021,
				"element": "C" 
			},
			{
				"x": 0.0223776379,
				"y": 0.9747548544,
				"z": -1.155195202,
				"element": "C" 
			},
			{
				"x": 0.5944149201,
				"y": -1.729623812,
				"z": 0.9526633153,
				"element": "C" 
			},
			{
				"x": 1.9751109393,
				"y": -1.5929158219,
				"z": 0.7775087507,
				"element": "C" 
			},
			{
				"x": 2.74615001,
				"y": -2.6955978351,
				"z": 0.4039592958,
				"element": "C" 
			},
			{
				"x": 2.1454636693,
				"y": -3.9395104569,
				"z": 0.2093344841,
				"element": "C" 
			},
			{
				"x": 0.7672584546,
				"y": -4.0788404345,
				"z": 0.3897591689,
				"element": "C" 
			},
			{
				"x": -0.0072643978,
				"y": -2.9798545609,
				"z": 0.7582095842,
				"element": "C" 
			},
			{
				"x": 0.0054773811,
				"y": 1.0556108156,
				"z": 3.0733958988,
				"element": "H" 
			},
			{
				"x": -1.1799966068,
				"y": -0.5156177167,
				"z": 0.7699865077,
				"element": "H" 
			},
			{
				"x": 0.1840096294,
				"y": 4.8135216061,
				"z": -0.5534936166,
				"element": "H" 
			},
			{
				"x": -0.3000702932,
				"y": 1.4629049527,
				"z": -3.2294338641,
				"element": "H" 
			},
			{
				"x": 0.0031974483,
				"y": -0.0966584774,
				"z": -1.3211927689,
				"element": "H" 
			},
			{
				"x": 2.4422258987,
				"y": -0.6259961394,
				"z": 0.9307845983,
				"element": "H" 
			},
			{
				"x": 3.81741238,
				"y": -2.5795511398,
				"z": 0.2675116188,
				"element": "H" 
			},
			{
				"x": 2.7464588513,
				"y": -4.7961383021,
				"z": -0.0814141777,
				"element": "H" 
			},
			{
				"x": 0.2928905667,
				"y": -5.0446447388,
				"z": 0.2426610133,
				"element": "H" 
			},
			{
				"x": -1.0748891941,
				"y": -3.0928936114,
				"z": 0.9160188622,
				"element": "H" 
			}
		],
		 "valence_orbital": [ 
			{
				"type": "occ",
				"energy": -0.28164,
				"method": "rhf"
			},
			{
				"type": "occ",
				"energy": -0.27881,
				"method": "rhf"
			},
			{
				"type": "occ",
				"energy": -0.26017,
				"method": "rhf"
			},
			{
				"type": "occ",
				"energy": -0.25632,
				"method": "rhf"
			},
			{
				"type": "occ",
				"energy": -0.24438,
				"method": "rhf"
			},
			{
				"type": "unocc",
				"energy": -0.03446,
				"method": "rhf"
			},
			{
				"type": "unocc",
				"energy": -0.02778,
				"method": "rhf"
			},
			{
				"type": "unocc",
				"energy": -0.01833,
				"method": "rhf"
			},
			{
				"type": "unocc",
				"energy": -0.01157,
				"method": "rhf"
			},
			{
				"type": "unocc",
				"energy": -0.00933,
				"method": "rhf"
			}
		],
		"cosmo_sigma_profile": { 
			"-0.025": 0.0309508071057,
			"-0.024": -0.000543178298574,
			"-0.023": 0.107387137142,
			"-0.022": 0.0785784957463,
			"-0.021": 0.0395106102878,
			"-0.02": 0.157481579376,
			"-0.019": 0.149199859555,
			"-0.018": 0.164730110273,
			"-0.017": 0.0137348695266,
			"-0.016": 0.113998618232,
			"-0.015": 0.209506528674,
			"-0.014": 0.132876559381,
			"-0.013": 0.0,
			"-0.012": 0.0,
			"-0.011": 0.362784356319,
			"-0.01": 1.55142696816,
			"-0.009": 4.36260610959,
			"-0.008": 8.03309184508,
			"-0.007": 10.7721230864,
			"-0.006": 14.6148941959,
			"-0.005": 17.7197708046,
			"-0.004": 20.3441756215,
			"-0.003": 17.9674477464,
			"-0.002": 16.6078542381,
			"-0.001": 21.7659564999,
			"0.0": 23.7527488608,
			"0.001": 25.7569479829,
			"0.002": 27.2491192663,
			"0.003": 23.0114669909,
			"0.004": 23.0563238441,
			"0.005": 13.2720659986,
			"0.006": 5.42837429754,
			"0.007": 2.77298485911,
			"0.008": 2.60903556655,
			"0.009": 4.29713394202,
			"0.01": 4.61525847614,
			"0.011": 3.07975395877,
			"0.012": 5.16003166057,
			"0.013": 1.41670656083,
			"0.014": 0.0,
			"0.015": 0.0,
			"0.016": 0.0,
			"0.017": 0.0,
			"0.018": 0.0,
			"0.019": 0.0,
			"0.02": 0.0,
			"0.021": 0.0,
			"0.022": 0.0,
			"0.023": 0.0,
			"0.024": 0.0,
			"0.025": 0.0
		}
	}
}
