{
	 "smiles": "CN1CCC2=CC3=C(OCO3)C=C2C1C1OC(=O)C2=C1C=CC1=C2OCO1", 
	 "Tm": 467.15, 
	 "num_atms": 44, 
	 "gaussian": { 
		 "optdone": 1, 
		 "sigma_profile": "yes", 
		 "theory": "DFT", 
		 "functional": "B3LYP", 
		 "basiset": "6-31G**", 
		 "properties": { 
			 "R2extent": 10067.0373, 
			 "electric_dipole_moment_norm": 4.67955909141, 
			 "electric_quadrupole_moment_norm": 17.5919800872, 
			 "total_energy": -1278.41163896, 
			 "HOMO_LUMO_gap": 0.16125, 
			 "cosmo_polarized_energy": -18.61, 
			 "cosmo_cavitation_energy": 45.69, 
			 "cosmo_dispersion_energy": -32.45, 
			 "cosmo_repulsion_energy": 2.42, 
			 "cosmo_total_nonelectrostatic_energy": 15.66, 
			 "SMD_solvation_energy": 7.3 
		},
		"coords": [
			{
				"x": -2.5326153271,
				"y": 0.2817749502,
				"z": -3.4450180642,
				"element": "C" 
			},
			{
				"x": -2.7519272968,
				"y": -0.2505920773,
				"z": -2.1045451317,
				"element": "N" 
			},
			{
				"x": -3.1847955419,
				"y": -1.6417528895,
				"z": -2.084723158,
				"element": "C" 
			},
			{
				"x": -3.8859224349,
				"y": -1.9563525072,
				"z": -0.7621327147,
				"element": "C" 
			},
			{
				"x": -3.1906361732,
				"y": -1.3466817131,
				"z": 0.4375977429,
				"element": "C" 
			},
			{
				"x": -3.6289305403,
				"y": -1.7145261971,
				"z": 1.7310850963,
				"element": "C" 
			},
			{
				"x": -3.0772495622,
				"y": -1.0605570346,
				"z": 2.809839428,
				"element": "C" 
			},
			{
				"x": -2.1219888883,
				"y": -0.0595733954,
				"z": 2.6457014552,
				"element": "C" 
			},
			{
				"x": -1.7374467034,
				"y": 0.418821626,
				"z": 3.8778106518,
				"element": "O" 
			},
			{
				"x": -2.6282008824,
				"y": -0.1898389572,
				"z": 4.8184522358,
				"element": "C" 
			},
			{
				"x": -3.325430068,
				"y": -1.2477906539,
				"z": 4.1489600822,
				"element": "O" 
			},
			{
				"x": -1.6702013227,
				"y": 0.3097567029,
				"z": 1.3994095438,
				"element": "C" 
			},
			{
				"x": -2.2066929947,
				"y": -0.3610933726,
				"z": 0.2746620378,
				"element": "C" 
			},
			{
				"x": -1.7195069424,
				"y": 0.0398331775,
				"z": -1.1118642697,
				"element": "C" 
			},
			{
				"x": -0.3134707305,
				"y": -0.5766743929,
				"z": -1.4946475331,
				"element": "C" 
			},
			{
				"x": 0.2362129022,
				"y": 0.2524148183,
				"z": -2.550540311,
				"element": "O" 
			},
			{
				"x": 1.4750535275,
				"y": 0.7589962942,
				"z": -2.2266295144,
				"element": "C" 
			},
			{
				"x": 2.0789413603,
				"y": 1.5063518027,
				"z": -2.954055353,
				"element": "O" 
			},
			{
				"x": 1.8348276388,
				"y": 0.1921004972,
				"z": -0.914287498,
				"element": "C" 
			},
			{
				"x": 0.7901178743,
				"y": -0.6344264586,
				"z": -0.4619058681,
				"element": "C" 
			},
			{
				"x": 0.9032609358,
				"y": -1.3799177228,
				"z": 0.706254304,
				"element": "C" 
			},
			{
				"x": 2.0802130964,
				"y": -1.2871134482,
				"z": 1.4763140786,
				"element": "C" 
			},
			{
				"x": 3.0868480758,
				"y": -0.4482455371,
				"z": 1.0298308173,
				"element": "C" 
			},
			{
				"x": 2.9846233131,
				"y": 0.2861639879,
				"z": -0.1510477163,
				"element": "C" 
			},
			{
				"x": 4.1248263703,
				"y": 1.0002086866,
				"z": -0.363382456,
				"element": "O" 
			},
			{
				"x": 4.9802379074,
				"y": 0.7246012288,
				"z": 0.757768071,
				"element": "C" 
			},
			{
				"x": 4.3096164813,
				"y": -0.213091038,
				"z": 1.609226803,
				"element": "O" 
			},
			{
				"x": -2.2275628313,
				"y": 1.3292754405,
				"z": -3.3785661793,
				"element": "H" 
			},
			{
				"x": -1.7627758799,
				"y": -0.247044237,
				"z": -4.0283580481,
				"element": "H" 
			},
			{
				"x": -3.4772967576,
				"y": 0.2330001524,
				"z": -3.9981610422,
				"element": "H" 
			},
			{
				"x": -3.8816657675,
				"y": -1.7944500022,
				"z": -2.9149610131,
				"element": "H" 
			},
			{
				"x": -2.3524593733,
				"y": -2.3535730815,
				"z": -2.2527135304,
				"element": "H" 
			},
			{
				"x": -3.9843260671,
				"y": -3.0421660262,
				"z": -0.6386201282,
				"element": "H" 
			},
			{
				"x": -4.9066536794,
				"y": -1.5536708979,
				"z": -0.8027541663,
				"element": "H" 
			},
			{
				"x": -4.3902711609,
				"y": -2.4759660341,
				"z": 1.8665076279,
				"element": "H" 
			},
			{
				"x": -2.0520240783,
				"y": -0.6036302265,
				"z": 5.6513560915,
				"element": "H" 
			},
			{
				"x": -3.3525470197,
				"y": 0.5563993769,
				"z": 5.1765498364,
				"element": "H" 
			},
			{
				"x": -0.9249027083,
				"y": 1.088788571,
				"z": 1.2863707346,
				"element": "H" 
			},
			{
				"x": -1.5563294577,
				"y": 1.1243438349,
				"z": -1.116474865,
				"element": "H" 
			},
			{
				"x": -0.4807666147,
				"y": -1.5713749011,
				"z": -1.9237547465,
				"element": "H" 
			},
			{
				"x": 0.0997538506,
				"y": -2.0280868712,
				"z": 1.0356014137,
				"element": "H" 
			},
			{
				"x": 2.2005479054,
				"y": -1.8552875396,
				"z": 2.3918004129,
				"element": "H" 
			},
			{
				"x": 5.1662298044,
				"y": 1.6549855264,
				"z": 1.3078175842,
				"element": "H" 
			},
			{
				"x": 5.9188857609,
				"y": 0.2888605384,
				"z": 0.3972272587,
				"element": "H" 
			}
		],
		 "valence_orbital": [ 
			{
				"type": "occ",
				"energy": -0.26227,
				"method": "rhf"
			},
			{
				"type": "occ",
				"energy": -0.24575,
				"method": "rhf"
			},
			{
				"type": "occ",
				"energy": -0.22215,
				"method": "rhf"
			},
			{
				"type": "occ",
				"energy": -0.2067,
				"method": "rhf"
			},
			{
				"type": "occ",
				"energy": -0.20514,
				"method": "rhf"
			},
			{
				"type": "unocc",
				"energy": -0.04389,
				"method": "rhf"
			},
			{
				"type": "unocc",
				"energy": -0.00798,
				"method": "rhf"
			},
			{
				"type": "unocc",
				"energy": -0.00545,
				"method": "rhf"
			},
			{
				"type": "unocc",
				"energy": 0.00719,
				"method": "rhf"
			},
			{
				"type": "unocc",
				"energy": 0.06159,
				"method": "rhf"
			}
		],
		"cosmo_sigma_profile": { 
			"-0.025": 0.0,
			"-0.024": 0.0,
			"-0.023": 0.0,
			"-0.022": 0.0,
			"-0.021": 0.0,
			"-0.02": 0.0,
			"-0.019": 0.0,
			"-0.018": 0.0,
			"-0.017": 0.0,
			"-0.016": 0.0,
			"-0.015": 0.0,
			"-0.014": 0.0,
			"-0.013": 0.0,
			"-0.012": 0.0,
			"-0.011": 0.0,
			"-0.01": 0.0,
			"-0.009": 0.50679343974,
			"-0.008": 9.38350159231,
			"-0.007": 18.9768821454,
			"-0.006": 23.572324451,
			"-0.005": 20.0070789001,
			"-0.004": 27.2131249051,
			"-0.003": 28.4083314374,
			"-0.002": 31.20517335,
			"-0.001": 33.1009669339,
			"0.0": 26.9377193443,
			"0.001": 22.5353254216,
			"0.002": 20.0139800083,
			"0.003": 19.9747848916,
			"0.004": 13.3239348451,
			"0.005": 10.0877951079,
			"0.006": 9.30717698106,
			"0.007": 8.91810196674,
			"0.008": 8.44579145224,
			"0.009": 10.2389509971,
			"0.01": 6.98727269609,
			"0.011": 5.66865352152,
			"0.012": 6.10360000116,
			"0.013": 1.95092136095,
			"0.014": 0.323368857223,
			"0.015": 0.11691681912,
			"0.016": 0.0,
			"0.017": 0.0,
			"0.018": 0.0,
			"0.019": 0.0,
			"0.02": 0.0,
			"0.021": 0.0,
			"0.022": 0.0,
			"0.023": 0.0,
			"0.024": 0.0,
			"0.025": 0.0
		}
	}
}
