{
	 "smiles": "CCCCCCC(O)=O", 
	 "Tm": 265.65, 
	 "num_atms": 23, 
	 "gaussian": { 
		 "optdone": 1, 
		 "sigma_profile": "yes", 
		 "theory": "DFT", 
		 "functional": "B3LYP", 
		 "basiset": "6-31G**", 
		 "properties": { 
			 "R2extent": 2327.0407, 
			 "electric_dipole_moment_norm": 4.68527053755, 
			 "electric_quadrupole_moment_norm": 17.2467597223, 
			 "total_energy": -425.653872096, 
			 "HOMO_LUMO_gap": 0.27578, 
			 "cosmo_polarized_energy": -13.02, 
			 "cosmo_cavitation_energy": 25.39, 
			 "cosmo_dispersion_energy": -18.05, 
			 "cosmo_repulsion_energy": 1.53, 
			 "cosmo_total_nonelectrostatic_energy": 8.88, 
			 "SMD_solvation_energy": 5.11 
		},
		"coords": [
			{
				"x": -1.9116124622,
				"y": 2.3015681066,
				"z": 1.962442647,
				"element": "C" 
			},
			{
				"x": -0.4001984844,
				"y": 2.5114962936,
				"z": 1.8127744955,
				"element": "C" 
			},
			{
				"x": 0.1334828671,
				"y": 2.2933549132,
				"z": 0.3856008706,
				"element": "C" 
			},
			{
				"x": -0.0306996431,
				"y": 0.8745844008,
				"z": -0.1869181119,
				"element": "C" 
			},
			{
				"x": 0.7544362619,
				"y": -0.2076119869,
				"z": 0.5671713833,
				"element": "C" 
			},
			{
				"x": 0.6238192748,
				"y": -1.5932894155,
				"z": -0.0947862196,
				"element": "C" 
			},
			{
				"x": 1.4480431703,
				"y": -2.6837652995,
				"z": 0.576773159,
				"element": "C" 
			},
			{
				"x": 1.173936611,
				"y": -2.9056953899,
				"z": 1.8943879372,
				"element": "O" 
			},
			{
				"x": 2.2983872937,
				"y": -3.3347509622,
				"z": 0.0245865099,
				"element": "O" 
			},
			{
				"x": -2.469774437,
				"y": 2.95001394,
				"z": 1.277209616,
				"element": "H" 
			},
			{
				"x": -2.2073527934,
				"y": 1.2684291345,
				"z": 1.7500618726,
				"element": "H" 
			},
			{
				"x": -2.2421672025,
				"y": 2.5322343898,
				"z": 2.980345412,
				"element": "H" 
			},
			{
				"x": -0.151623981,
				"y": 3.5361309425,
				"z": 2.1162171569,
				"element": "H" 
			},
			{
				"x": 0.1326997253,
				"y": 1.859185836,
				"z": 2.5169229804,
				"element": "H" 
			},
			{
				"x": 1.1983543196,
				"y": 2.5613406908,
				"z": 0.360791898,
				"element": "H" 
			},
			{
				"x": -0.371609572,
				"y": 2.9980200074,
				"z": -0.2885502148,
				"element": "H" 
			},
			{
				"x": -1.0934855047,
				"y": 0.59933549,
				"z": -0.2135231401,
				"element": "H" 
			},
			{
				"x": 0.302207551,
				"y": 0.8813302233,
				"z": -1.2329653626,
				"element": "H" 
			},
			{
				"x": 1.8149108959,
				"y": 0.0717764147,
				"z": 0.6119777358,
				"element": "H" 
			},
			{
				"x": 0.4087502143,
				"y": -0.2520049871,
				"z": 1.6091511565,
				"element": "H" 
			},
			{
				"x": -0.4310286527,
				"y": -1.9030703017,
				"z": -0.0974037617,
				"element": "H" 
			},
			{
				"x": 0.9520363268,
				"y": -1.5509951454,
				"z": -1.1357629115,
				"element": "H" 
			},
			{
				"x": 0.4679882214,
				"y": -2.3154172948,
				"z": 2.1928948917,
				"element": "H" 
			}
		],
		 "valence_orbital": [ 
			{
				"type": "occ",
				"energy": -0.33258,
				"method": "rhf"
			},
			{
				"type": "occ",
				"energy": -0.32812,
				"method": "rhf"
			},
			{
				"type": "occ",
				"energy": -0.32587,
				"method": "rhf"
			},
			{
				"type": "occ",
				"energy": -0.31085,
				"method": "rhf"
			},
			{
				"type": "occ",
				"energy": -0.2639,
				"method": "rhf"
			},
			{
				"type": "unocc",
				"energy": 0.01188,
				"method": "rhf"
			},
			{
				"type": "unocc",
				"energy": 0.0435,
				"method": "rhf"
			},
			{
				"type": "unocc",
				"energy": 0.07779,
				"method": "rhf"
			},
			{
				"type": "unocc",
				"energy": 0.10442,
				"method": "rhf"
			},
			{
				"type": "unocc",
				"energy": 0.10629,
				"method": "rhf"
			}
		],
		"cosmo_sigma_profile": { 
			"-0.025": 0.0,
			"-0.024": 0.0,
			"-0.023": 0.0,
			"-0.022": 0.0,
			"-0.021": 0.0,
			"-0.02": 0.0,
			"-0.019": 0.0,
			"-0.018": 0.387704311529,
			"-0.017": 1.19450334269,
			"-0.016": 0.925611452063,
			"-0.015": 1.09213550953,
			"-0.014": 0.785064430975,
			"-0.013": 1.0926032088,
			"-0.012": 1.32762410422,
			"-0.011": 1.23625543537,
			"-0.01": 0.762743748634,
			"-0.009": 0.924804284457,
			"-0.008": 1.64489510145,
			"-0.007": 1.75403431083,
			"-0.006": 3.10444371335,
			"-0.005": 4.66437882374,
			"-0.004": 7.82371399792,
			"-0.003": 17.0821474797,
			"-0.002": 30.1264557797,
			"-0.001": 27.5752886145,
			"0.0": 26.5693269363,
			"0.001": 22.3812502824,
			"0.002": 8.64808155485,
			"0.003": 2.03610476106,
			"0.004": 1.18098837357,
			"0.005": 1.94161135311,
			"0.006": 2.84263668094,
			"0.007": 1.92184680442,
			"0.008": 2.47064614703,
			"0.009": 2.96042901957,
			"0.01": 4.22829667637,
			"0.011": 5.69241722398,
			"0.012": 6.11337229271,
			"0.013": 3.42499336269,
			"0.014": 0.353262271576,
			"0.015": 0.0,
			"0.016": 0.0,
			"0.017": 0.0,
			"0.018": 0.0,
			"0.019": 0.0,
			"0.02": 0.0,
			"0.021": 0.0,
			"0.022": 0.0,
			"0.023": 0.0,
			"0.024": 0.0,
			"0.025": 0.0
		}
	}
}
