{
	 "smiles": "CN1C=C(C=N1)C(=O)NN", 
	 "Tm": 453.15, 
	 "num_atms": 18, 
	 "gaussian": { 
		 "optdone": 1, 
		 "sigma_profile": "yes", 
		 "theory": "DFT", 
		 "functional": "B3LYP", 
		 "basiset": "6-31G**", 
		 "properties": { 
			 "R2extent": 1655.1534, 
			 "electric_dipole_moment_norm": 5.7099887154, 
			 "electric_quadrupole_moment_norm": 5.67987829095, 
			 "total_energy": -489.533674969, 
			 "HOMO_LUMO_gap": 0.22981, 
			 "cosmo_polarized_energy": -19.98, 
			 "cosmo_cavitation_energy": 22.59, 
			 "cosmo_dispersion_energy": -16.56, 
			 "cosmo_repulsion_energy": 1.35, 
			 "cosmo_total_nonelectrostatic_energy": 7.38, 
			 "SMD_solvation_energy": 4.67 
		},
		"coords": [
			{
				"x": -2.5899994238,
				"y": -0.3876327571,
				"z": -2.2703986165,
				"element": "C" 
			},
			{
				"x": -1.5732110604,
				"y": -0.3990501019,
				"z": -1.2347184476,
				"element": "N" 
			},
			{
				"x": -0.3754822324,
				"y": 0.23377142,
				"z": -1.2314840295,
				"element": "C" 
			},
			{
				"x": 0.2479074849,
				"y": -0.0831033839,
				"z": -0.0260249164,
				"element": "C" 
			},
			{
				"x": -0.6919516334,
				"y": -0.927631085,
				"z": 0.6221141672,
				"element": "C" 
			},
			{
				"x": -1.7861402311,
				"y": -1.1145597829,
				"z": -0.1031530837,
				"element": "N" 
			},
			{
				"x": 1.5515284552,
				"y": 0.244089779,
				"z": 0.5960695956,
				"element": "C" 
			},
			{
				"x": 1.8887678571,
				"y": -0.2764247143,
				"z": 1.6566364901,
				"element": "O" 
			},
			{
				"x": 2.4061498865,
				"y": 1.1336669738,
				"z": -0.0212605925,
				"element": "N" 
			},
			{
				"x": 2.1481980688,
				"y": 1.9913094613,
				"z": -1.0979578611,
				"element": "N" 
			},
			{
				"x": -2.2485055315,
				"y": 0.2359752848,
				"z": -3.0981918738,
				"element": "H" 
			},
			{
				"x": -3.5243934473,
				"y": 0.0161428464,
				"z": -1.8725663654,
				"element": "H" 
			},
			{
				"x": -2.767968139,
				"y": -1.4040057114,
				"z": -2.6305379673,
				"element": "H" 
			},
			{
				"x": -0.0717095498,
				"y": 0.8307630153,
				"z": -2.0763136892,
				"element": "H" 
			},
			{
				"x": -0.5780144634,
				"y": -1.3901333346,
				"z": 1.5918365308,
				"element": "H" 
			},
			{
				"x": 3.2247286729,
				"y": 1.3642962516,
				"z": 0.5267357317,
				"element": "H" 
			},
			{
				"x": 1.2671351125,
				"y": 2.4825242197,
				"z": -0.9686089534,
				"element": "H" 
			},
			{
				"x": 2.1171601742,
				"y": 1.4673016191,
				"z": -1.9681761192,
				"element": "H" 
			}
		],
		 "valence_orbital": [ 
			{
				"type": "occ",
				"energy": -0.28925,
				"method": "rhf"
			},
			{
				"type": "occ",
				"energy": -0.26418,
				"method": "rhf"
			},
			{
				"type": "occ",
				"energy": -0.25576,
				"method": "rhf"
			},
			{
				"type": "occ",
				"energy": -0.24985,
				"method": "rhf"
			},
			{
				"type": "occ",
				"energy": -0.24428,
				"method": "rhf"
			},
			{
				"type": "unocc",
				"energy": -0.01447,
				"method": "rhf"
			},
			{
				"type": "unocc",
				"energy": 0.01458,
				"method": "rhf"
			},
			{
				"type": "unocc",
				"energy": 0.0569,
				"method": "rhf"
			},
			{
				"type": "unocc",
				"energy": 0.08689,
				"method": "rhf"
			},
			{
				"type": "unocc",
				"energy": 0.10918,
				"method": "rhf"
			}
		],
		"cosmo_sigma_profile": { 
			"-0.025": 0.0,
			"-0.024": 0.0,
			"-0.023": 0.0,
			"-0.022": 0.0,
			"-0.021": 0.0,
			"-0.02": 0.0,
			"-0.019": 0.0,
			"-0.018": 0.0,
			"-0.017": 0.0,
			"-0.016": 0.0,
			"-0.015": 0.0,
			"-0.014": 0.0,
			"-0.013": 1.13039500541,
			"-0.012": 2.88048128309,
			"-0.011": 4.1350447118,
			"-0.01": 6.95787883691,
			"-0.009": 6.37690828333,
			"-0.008": 6.08553811101,
			"-0.007": 7.35484260781,
			"-0.006": 10.2670053147,
			"-0.005": 9.78409450304,
			"-0.004": 11.6961725885,
			"-0.003": 12.6640055476,
			"-0.002": 6.5768452458,
			"-0.001": 6.73270195253,
			"0.0": 8.17725181109,
			"0.001": 7.29064786402,
			"0.002": 9.26765994518,
			"0.003": 10.2134115769,
			"0.004": 7.1875120193,
			"0.005": 4.82564627924,
			"0.006": 4.21869834501,
			"0.007": 3.57602966138,
			"0.008": 3.60358010499,
			"0.009": 2.93425650609,
			"0.01": 3.21585323026,
			"0.011": 3.49916269238,
			"0.012": 3.28130906354,
			"0.013": 4.65989816051,
			"0.014": 7.59770522754,
			"0.015": 2.13253198555,
			"0.016": 0.504182194983,
			"0.017": 0.0138496785333,
			"0.018": 0.0,
			"0.019": 0.0,
			"0.02": 0.0,
			"0.021": 0.0,
			"0.022": 0.0,
			"0.023": 0.0,
			"0.024": 0.0,
			"0.025": 0.0
		}
	}
}
