{
	 "smiles": "OC(=O)C1=C(OC=N1)C(F)(F)F", 
	 "Tm": 368.15, 
	 "num_atms": 14, 
	 "gaussian": { 
		 "optdone": 1, 
		 "sigma_profile": "yes", 
		 "theory": "DFT", 
		 "functional": "B3LYP", 
		 "basiset": "6-31G**", 
		 "properties": { 
			 "R2extent": 1917.0798, 
			 "electric_dipole_moment_norm": 5.19559531719, 
			 "electric_quadrupole_moment_norm": 4.78677978917, 
			 "total_energy": -771.661893873, 
			 "HOMO_LUMO_gap": 0.21759, 
			 "cosmo_polarized_energy": -12.34, 
			 "cosmo_cavitation_energy": 21.34, 
			 "cosmo_dispersion_energy": -15.34, 
			 "cosmo_repulsion_energy": 1.17, 
			 "cosmo_total_nonelectrostatic_energy": 7.17, 
			 "SMD_solvation_energy": 6.17 
		},
		"coords": [
			{
				"x": 1.9654417925,
				"y": 0.4341950171,
				"z": 1.5331556688,
				"element": "O" 
			},
			{
				"x": 1.280180061,
				"y": 0.1223999711,
				"z": 0.4172304444,
				"element": "C" 
			},
			{
				"x": 1.810557176,
				"y": -0.2476370176,
				"z": -0.6021627019,
				"element": "O" 
			},
			{
				"x": -0.1926587106,
				"y": 0.2770181545,
				"z": 0.5574994636,
				"element": "C" 
			},
			{
				"x": -1.1833341092,
				"y": 0.0546373179,
				"z": -0.3525210475,
				"element": "C" 
			},
			{
				"x": -2.3709941838,
				"y": 0.339120137,
				"z": 0.2530383282,
				"element": "O" 
			},
			{
				"x": -2.038131082,
				"y": 0.7225920352,
				"z": 1.5093002268,
				"element": "C" 
			},
			{
				"x": -0.7655446119,
				"y": 0.7059841339,
				"z": 1.7476822087,
				"element": "N" 
			},
			{
				"x": -1.2164492554,
				"y": -0.4079393437,
				"z": -1.7837953966,
				"element": "C" 
			},
			{
				"x": -2.4884713203,
				"y": -0.456128828,
				"z": -2.2189891534,
				"element": "F" 
			},
			{
				"x": -0.5313411456,
				"y": 0.4298992488,
				"z": -2.5755242016,
				"element": "F" 
			},
			{
				"x": -0.6823794099,
				"y": -1.6319138177,
				"z": -1.9055661697,
				"element": "F" 
			},
			{
				"x": 1.3329582832,
				"y": 0.7049213756,
				"z": 2.222871956,
				"element": "H" 
			},
			{
				"x": -2.8487334841,
				"y": 0.9964516161,
				"z": 2.1678803741,
				"element": "H" 
			}
		],
		 "valence_orbital": [ 
			{
				"type": "occ",
				"energy": -0.36993,
				"method": "rhf"
			},
			{
				"type": "occ",
				"energy": -0.34779,
				"method": "rhf"
			},
			{
				"type": "occ",
				"energy": -0.32833,
				"method": "rhf"
			},
			{
				"type": "occ",
				"energy": -0.29625,
				"method": "rhf"
			},
			{
				"type": "occ",
				"energy": -0.28979,
				"method": "rhf"
			},
			{
				"type": "unocc",
				"energy": -0.0722,
				"method": "rhf"
			},
			{
				"type": "unocc",
				"energy": -0.0329,
				"method": "rhf"
			},
			{
				"type": "unocc",
				"energy": 0.06863,
				"method": "rhf"
			},
			{
				"type": "unocc",
				"energy": 0.07531,
				"method": "rhf"
			},
			{
				"type": "unocc",
				"energy": 0.09027,
				"method": "rhf"
			}
		],
		"cosmo_sigma_profile": { 
			"-0.025": 0.0,
			"-0.024": 0.0,
			"-0.023": 0.0,
			"-0.022": 0.0,
			"-0.021": 0.0,
			"-0.02": 0.0,
			"-0.019": 0.0,
			"-0.018": 0.0,
			"-0.017": 0.0,
			"-0.016": 0.303469217051,
			"-0.015": 0.279519912763,
			"-0.014": 0.57508072285,
			"-0.013": 2.9020836273,
			"-0.012": 2.4997075527,
			"-0.011": 2.51511922634,
			"-0.01": 1.87924930511,
			"-0.009": 1.85258875954,
			"-0.008": 3.44391508922,
			"-0.007": 4.44629394374,
			"-0.006": 8.54329702588,
			"-0.005": 9.02052366812,
			"-0.004": 10.1509983679,
			"-0.003": 7.86940659748,
			"-0.002": 7.32570106058,
			"-0.001": 7.19159478799,
			"0.0": 10.0289578286,
			"0.001": 18.1613405429,
			"0.002": 26.3054860671,
			"0.003": 8.49648236385,
			"0.004": 5.73616643913,
			"0.005": 4.31974518291,
			"0.006": 4.31718243213,
			"0.007": 5.13155366054,
			"0.008": 4.89651697521,
			"0.009": 5.3680879521,
			"0.01": 4.46800938877,
			"0.011": 3.20483227431,
			"0.012": 1.58238654506,
			"0.013": 0.0176500748827,
			"0.014": 0.0,
			"0.015": 0.0,
			"0.016": 0.0,
			"0.017": 0.0,
			"0.018": 0.0,
			"0.019": 0.0,
			"0.02": 0.0,
			"0.021": 0.0,
			"0.022": 0.0,
			"0.023": 0.0,
			"0.024": 0.0,
			"0.025": 0.0
		}
	}
}
