{
	 "smiles": "NC1=C(N)C=C(C=C1)C(F)(F)F", 
	 "Tm": 330.15, 
	 "num_atms": 19, 
	 "gaussian": { 
		 "optdone": 1, 
		 "sigma_profile": "yes", 
		 "theory": "DFT", 
		 "functional": "B3LYP", 
		 "basiset": "6-31G**", 
		 "properties": { 
			 "R2extent": 2880.7995, 
			 "electric_dipole_moment_norm": 4.24488958749, 
			 "electric_quadrupole_moment_norm": 12.3162834662, 
			 "total_energy": -680.003792783, 
			 "HOMO_LUMO_gap": 0.19827, 
			 "cosmo_polarized_energy": -10.87, 
			 "cosmo_cavitation_energy": 24.2, 
			 "cosmo_dispersion_energy": -17.61, 
			 "cosmo_repulsion_energy": 1.35, 
			 "cosmo_total_nonelectrostatic_energy": 7.94, 
			 "SMD_solvation_energy": 5.28 
		},
		"coords": [
			{
				"x": -0.0047908835,
				"y": 2.7805938349,
				"z": -0.1328447114,
				"element": "N" 
			},
			{
				"x": -0.304571097,
				"y": 1.4240307974,
				"z": -0.3125058413,
				"element": "C" 
			},
			{
				"x": -0.8453006229,
				"y": 1.0267312401,
				"z": -1.5615397972,
				"element": "C" 
			},
			{
				"x": -1.0991633496,
				"y": 2.0342720662,
				"z": -2.5120641862,
				"element": "N" 
			},
			{
				"x": -1.1441495236,
				"y": -0.3154841543,
				"z": -1.780230886,
				"element": "C" 
			},
			{
				"x": -0.898387016,
				"y": -1.2737193517,
				"z": -0.7889543659,
				"element": "C" 
			},
			{
				"x": -0.3348761569,
				"y": -0.8904137419,
				"z": 0.4270943368,
				"element": "C" 
			},
			{
				"x": -0.0443952431,
				"y": 0.4538163607,
				"z": 0.6588198865,
				"element": "C" 
			},
			{
				"x": -1.2901142097,
				"y": -2.7002357719,
				"z": -1.0309722419,
				"element": "C" 
			},
			{
				"x": -0.5710714978,
				"y": -3.5622987534,
				"z": -0.2763675095,
				"element": "F" 
			},
			{
				"x": -1.1212936841,
				"y": -3.0601022004,
				"z": -2.3270090268,
				"element": "F" 
			},
			{
				"x": -2.5960695382,
				"y": -2.9283446975,
				"z": -0.7412813158,
				"element": "F" 
			},
			{
				"x": 0.204421508,
				"y": 3.0307849757,
				"z": 0.8252379587,
				"element": "H" 
			},
			{
				"x": -0.714738245,
				"y": 3.3926652733,
				"z": -0.5228689323,
				"element": "H" 
			},
			{
				"x": -1.3810495722,
				"y": 1.6694829909,
				"z": -3.41379631,
				"element": "H" 
			},
			{
				"x": -0.3116173598,
				"y": 2.6667866773,
				"z": -2.6225533353,
				"element": "H" 
			},
			{
				"x": -1.5535774492,
				"y": -0.6243454241,
				"z": -2.7376315233,
				"element": "H" 
			},
			{
				"x": -0.1295020151,
				"y": -1.6325291183,
				"z": 1.1899320836,
				"element": "H" 
			},
			{
				"x": 0.3819459556,
				"y": 0.7590089969,
				"z": 1.6112357171,
				"element": "H" 
			}
		],
		 "valence_orbital": [ 
			{
				"type": "occ",
				"energy": -0.35131,
				"method": "rhf"
			},
			{
				"type": "occ",
				"energy": -0.32064,
				"method": "rhf"
			},
			{
				"type": "occ",
				"energy": -0.31125,
				"method": "rhf"
			},
			{
				"type": "occ",
				"energy": -0.23548,
				"method": "rhf"
			},
			{
				"type": "occ",
				"energy": -0.20246,
				"method": "rhf"
			},
			{
				"type": "unocc",
				"energy": -0.00419,
				"method": "rhf"
			},
			{
				"type": "unocc",
				"energy": 0.00632,
				"method": "rhf"
			},
			{
				"type": "unocc",
				"energy": 0.0662,
				"method": "rhf"
			},
			{
				"type": "unocc",
				"energy": 0.09646,
				"method": "rhf"
			},
			{
				"type": "unocc",
				"energy": 0.10541,
				"method": "rhf"
			}
		],
		"cosmo_sigma_profile": { 
			"-0.025": 0.0,
			"-0.024": 0.0,
			"-0.023": 0.0,
			"-0.022": 0.0,
			"-0.021": 0.0,
			"-0.02": 0.0,
			"-0.019": 0.0,
			"-0.018": 0.0,
			"-0.017": 0.0,
			"-0.016": 0.0,
			"-0.015": 0.0,
			"-0.014": 0.0,
			"-0.013": 0.395937693981,
			"-0.012": 2.87648438744,
			"-0.011": 5.19705137797,
			"-0.01": 5.08781857826,
			"-0.009": 5.36930416172,
			"-0.008": 5.99242566522,
			"-0.007": 6.02313431652,
			"-0.006": 6.92531343484,
			"-0.005": 5.87003596775,
			"-0.004": 6.86672307522,
			"-0.003": 7.81555996624,
			"-0.002": 6.8995610075,
			"-0.001": 6.7004107922,
			"0.0": 8.55108987488,
			"0.001": 11.2328823818,
			"0.002": 15.0860358575,
			"0.003": 35.1935584456,
			"0.004": 24.6244748958,
			"0.005": 11.4688104973,
			"0.006": 4.70741445815,
			"0.007": 1.46190333127,
			"0.008": 1.44984327448,
			"0.009": 1.36773060976,
			"0.01": 1.03415613453,
			"0.011": 1.07257677347,
			"0.012": 1.25966124508,
			"0.013": 0.944355584784,
			"0.014": 0.698572716234,
			"0.015": 0.0283501384264,
			"0.016": 0.0,
			"0.017": 0.0,
			"0.018": 0.0,
			"0.019": 0.0,
			"0.02": 0.0,
			"0.021": 0.0,
			"0.022": 0.0,
			"0.023": 0.0,
			"0.024": 0.0,
			"0.025": 0.0
		}
	}
}
