{
	 "smiles": "CC1=CC=C(O[Si]23OCCN(CCO2)CCO3)C=C1", 
	 "Tm": 461.15, 
	 "num_atms": 38, 
	 "gaussian": { 
		 "optdone": 1, 
		 "sigma_profile": "yes", 
		 "theory": "DFT", 
		 "functional": "B3LYP", 
		 "basiset": "6-31G**", 
		 "properties": { 
			 "R2extent": 6755.3828, 
			 "electric_dipole_moment_norm": 6.44081359224, 
			 "electric_quadrupole_moment_norm": 15.019062264, 
			 "total_energy": -1152.12674067, 
			 "HOMO_LUMO_gap": 0.21926, 
			 "cosmo_polarized_energy": -18.39, 
			 "cosmo_cavitation_energy": 38.75, 
			 "cosmo_dispersion_energy": -27.06, 
			 "cosmo_repulsion_energy": 2.14, 
			 "cosmo_total_nonelectrostatic_energy": 13.83, 
			 "SMD_solvation_energy": 6.37 
		},
		"coords": [
			{
				"x": 3.7228133427,
				"y": -2.1085170566,
				"z": -4.1758415323,
				"element": "C" 
			},
			{
				"x": 3.1533809259,
				"y": -1.2256104723,
				"z": -3.0890882923,
				"element": "C" 
			},
			{
				"x": 3.4898623967,
				"y": -1.4271314471,
				"z": -1.743097944,
				"element": "C" 
			},
			{
				"x": 2.9926665106,
				"y": -0.6005888492,
				"z": -0.7376606329,
				"element": "C" 
			},
			{
				"x": 2.136582096,
				"y": 0.4566225394,
				"z": -1.0615696084,
				"element": "C" 
			},
			{
				"x": 1.7064582099,
				"y": 1.2882132839,
				"z": -0.061015689,
				"element": "O" 
			},
			{
				"x": 0.1394916799,
				"y": 1.5859745866,
				"z": 0.4041410383,
				"element": "Si" 
			},
			{
				"x": 0.4814294415,
				"y": 2.5223892179,
				"z": 1.7349877461,
				"element": "O" 
			},
			{
				"x": -0.4322220579,
				"y": 3.4785123921,
				"z": 2.2269698609,
				"element": "C" 
			},
			{
				"x": -1.7958592395,
				"y": 2.818871887,
				"z": 2.4645848307,
				"element": "C" 
			},
			{
				"x": -2.1434674408,
				"y": 2.0407245182,
				"z": 1.2706184471,
				"element": "N" 
			},
			{
				"x": -2.7001129103,
				"y": 2.8061289165,
				"z": 0.1537716615,
				"element": "C" 
			},
			{
				"x": -1.9206502444,
				"y": 2.4961026656,
				"z": -1.1384750471,
				"element": "C" 
			},
			{
				"x": -0.5337767501,
				"y": 2.4238121782,
				"z": -0.8780511671,
				"element": "O" 
			},
			{
				"x": -2.6414946338,
				"y": 0.6783436394,
				"z": 1.4608119376,
				"element": "C" 
			},
			{
				"x": -1.8214175963,
				"y": -0.3008619156,
				"z": 0.5969998669,
				"element": "C" 
			},
			{
				"x": -0.4526794149,
				"y": 0.0419368008,
				"z": 0.6183442532,
				"element": "O" 
			},
			{
				"x": 1.7914883285,
				"y": 0.6785704004,
				"z": -2.398846834,
				"element": "C" 
			},
			{
				"x": 2.2952187088,
				"y": -0.1615392172,
				"z": -3.3925852608,
				"element": "C" 
			},
			{
				"x": 4.7175693481,
				"y": -1.768690646,
				"z": -4.4923328657,
				"element": "H" 
			},
			{
				"x": 3.0842435127,
				"y": -2.1115259137,
				"z": -5.0647437039,
				"element": "H" 
			},
			{
				"x": 3.8302503966,
				"y": -3.1442016549,
				"z": -3.8368230015,
				"element": "H" 
			},
			{
				"x": 4.1518540686,
				"y": -2.2477998321,
				"z": -1.4751864533,
				"element": "H" 
			},
			{
				"x": 3.2548058445,
				"y": -0.7610941166,
				"z": 0.3031651119,
				"element": "H" 
			},
			{
				"x": -0.0387558685,
				"y": 3.8846973143,
				"z": 3.1653007692,
				"element": "H" 
			},
			{
				"x": -0.5277288535,
				"y": 4.3159228478,
				"z": 1.5196030736,
				"element": "H" 
			},
			{
				"x": -2.5603228225,
				"y": 3.5675821672,
				"z": 2.7209660984,
				"element": "H" 
			},
			{
				"x": -1.7074109316,
				"y": 2.1280828096,
				"z": 3.3067090367,
				"element": "H" 
			},
			{
				"x": -2.5884700271,
				"y": 3.8696848359,
				"z": 0.3841272588,
				"element": "H" 
			},
			{
				"x": -3.7739050642,
				"y": 2.6094539653,
				"z": 0.0150196121,
				"element": "H" 
			},
			{
				"x": -2.0929033206,
				"y": 3.2899166453,
				"z": -1.8743253289,
				"element": "H" 
			},
			{
				"x": -2.2735561934,
				"y": 1.5579593534,
				"z": -1.5877816294,
				"element": "H" 
			},
			{
				"x": -3.7138020212,
				"y": 0.5914213327,
				"z": 1.2296867084,
				"element": "H" 
			},
			{
				"x": -2.5084441073,
				"y": 0.4134641122,
				"z": 2.5126551014,
				"element": "H" 
			},
			{
				"x": -1.9287168597,
				"y": -1.3182911679,
				"z": 0.9899740947,
				"element": "H" 
			},
			{
				"x": -2.193695318,
				"y": -0.3157024671,
				"z": -0.4366245837,
				"element": "H" 
			},
			{
				"x": 1.1347033992,
				"y": 1.5063150268,
				"z": -2.6431073997,
				"element": "H" 
			},
			{
				"x": 2.0166734651,
				"y": 0.0196513195,
				"z": -4.4285795337,
				"element": "H" 
			}
		],
		 "valence_orbital": [ 
			{
				"type": "occ",
				"energy": -0.2772,
				"method": "rhf"
			},
			{
				"type": "occ",
				"energy": -0.26678,
				"method": "rhf"
			},
			{
				"type": "occ",
				"energy": -0.25365,
				"method": "rhf"
			},
			{
				"type": "occ",
				"energy": -0.22852,
				"method": "rhf"
			},
			{
				"type": "occ",
				"energy": -0.20014,
				"method": "rhf"
			},
			{
				"type": "unocc",
				"energy": 0.01912,
				"method": "rhf"
			},
			{
				"type": "unocc",
				"energy": 0.0307,
				"method": "rhf"
			},
			{
				"type": "unocc",
				"energy": 0.06002,
				"method": "rhf"
			},
			{
				"type": "unocc",
				"energy": 0.07852,
				"method": "rhf"
			},
			{
				"type": "unocc",
				"energy": 0.08633,
				"method": "rhf"
			}
		],
		"cosmo_sigma_profile": { 
			"-0.025": 0.0,
			"-0.024": 0.0,
			"-0.023": 0.0,
			"-0.022": 0.0,
			"-0.021": 0.0,
			"-0.02": 0.0,
			"-0.019": 0.0,
			"-0.018": 0.0,
			"-0.017": 0.0,
			"-0.016": 0.0,
			"-0.015": 0.0,
			"-0.014": 0.0,
			"-0.013": 0.0,
			"-0.012": 0.0,
			"-0.011": 0.0,
			"-0.01": 0.0,
			"-0.009": 0.0,
			"-0.008": 0.0,
			"-0.007": 1.73384510771,
			"-0.006": 10.0514520311,
			"-0.005": 37.3194710058,
			"-0.004": 42.6931713641,
			"-0.003": 36.603126667,
			"-0.002": 28.2385688482,
			"-0.001": 18.0145289051,
			"0.0": 18.2792986902,
			"0.001": 13.0512859491,
			"0.002": 9.85233394436,
			"0.003": 9.7806146089,
			"0.004": 12.8568643295,
			"0.005": 14.6025813371,
			"0.006": 13.825237492,
			"0.007": 7.92883569263,
			"0.008": 5.23688059115,
			"0.009": 4.14521756112,
			"0.01": 4.3808110588,
			"0.011": 3.90947876476,
			"0.012": 3.51804323258,
			"0.013": 2.66705272269,
			"0.014": 2.09086925645,
			"0.015": 1.07296958575,
			"0.016": 0.0,
			"0.017": 0.0,
			"0.018": 0.0,
			"0.019": 0.0,
			"0.02": 0.0,
			"0.021": 0.0,
			"0.022": 0.0,
			"0.023": 0.0,
			"0.024": 0.0,
			"0.025": 0.0
		}
	}
}
