{
	 "smiles": "BrC(Br)=C(Br)Br", 
	 "Tm": 329.65, 
	 "num_atms": 6, 
	 "gaussian": { 
		 "optdone": 1, 
		 "sigma_profile": "yes", 
		 "theory": "DFT", 
		 "functional": "B3LYP", 
		 "basiset": "6-31G**", 
		 "properties": { 
			 "R2extent": 3547.1446, 
			 "electric_dipole_moment_norm": 0.0, 
			 "electric_quadrupole_moment_norm": 4.08959437597, 
			 "total_energy": -10361.7766395, 
			 "HOMO_LUMO_gap": 0.2061, 
			 "cosmo_polarized_energy": -1.96, 
			 "cosmo_cavitation_energy": 19.68, 
			 "cosmo_dispersion_energy": -16.24, 
			 "cosmo_repulsion_energy": 1.38, 
			 "cosmo_total_nonelectrostatic_energy": 4.82, 
			 "SMD_solvation_energy": -0.46 
		},
		"coords": [
			{
				"x": 1.0250904629,
				"y": -1.6187087455,
				"z": 1.6026504908,
				"element": "Br" 
			},
			{
				"x": 0.9581493693,
				"y": -1.2351731509,
				"z": -0.2492516311,
				"element": "C" 
			},
			{
				"x": 1.6435163657,
				"y": -2.606775817,
				"z": -1.3583522874,
				"element": "Br" 
			},
			{
				"x": 0.4648372969,
				"y": -0.0841166893,
				"z": -0.7364128642,
				"element": "C" 
			},
			{
				"x": -0.2205682111,
				"y": 1.2874808279,
				"z": 0.3726809722,
				"element": "Br" 
			},
			{
				"x": 0.3978747163,
				"y": 0.2993935748,
				"z": -2.5883146803,
				"element": "Br" 
			}
		],
		 "valence_orbital": [ 
			{
				"type": "occ",
				"energy": -0.31663,
				"method": "rhf"
			},
			{
				"type": "occ",
				"energy": -0.31455,
				"method": "rhf"
			},
			{
				"type": "occ",
				"energy": -0.30634,
				"method": "rhf"
			},
			{
				"type": "occ",
				"energy": -0.278,
				"method": "rhf"
			},
			{
				"type": "occ",
				"energy": -0.25235,
				"method": "rhf"
			},
			{
				"type": "unocc",
				"energy": -0.04625,
				"method": "rhf"
			},
			{
				"type": "unocc",
				"energy": -0.04579,
				"method": "rhf"
			},
			{
				"type": "unocc",
				"energy": -0.0403,
				"method": "rhf"
			},
			{
				"type": "unocc",
				"energy": -0.03606,
				"method": "rhf"
			},
			{
				"type": "unocc",
				"energy": 0.10784,
				"method": "rhf"
			}
		],
		"cosmo_sigma_profile": { 
			"-0.025": 0.0,
			"-0.024": 0.0,
			"-0.023": 0.0,
			"-0.022": 0.0,
			"-0.021": 0.0,
			"-0.02": 0.0,
			"-0.019": 0.0,
			"-0.018": 0.0,
			"-0.017": 0.0,
			"-0.016": 0.0,
			"-0.015": 0.0,
			"-0.014": 0.0,
			"-0.013": 0.0,
			"-0.012": 0.0,
			"-0.011": 0.0,
			"-0.01": 0.0,
			"-0.009": 0.0,
			"-0.008": 0.159967583695,
			"-0.007": 4.29933996414,
			"-0.006": 4.99268720112,
			"-0.005": 6.33412114933,
			"-0.004": 5.31368680741,
			"-0.003": 6.96649357474,
			"-0.002": 14.7216623358,
			"-0.001": 20.2946169749,
			"0.0": 18.0872406512,
			"0.001": 22.3750423777,
			"0.002": 42.02880712,
			"0.003": 25.1290860368,
			"0.004": 0.950331086191,
			"0.005": 0.0,
			"0.006": 0.0,
			"0.007": 0.0,
			"0.008": 0.0,
			"0.009": 0.0,
			"0.01": 0.0,
			"0.011": 0.0,
			"0.012": 0.0,
			"0.013": 0.0,
			"0.014": 0.0,
			"0.015": 0.0,
			"0.016": 0.0,
			"0.017": 0.0,
			"0.018": 0.0,
			"0.019": 0.0,
			"0.02": 0.0,
			"0.021": 0.0,
			"0.022": 0.0,
			"0.023": 0.0,
			"0.024": 0.0,
			"0.025": 0.0
		}
	}
}
