{
	 "smiles": "CC1=CC(=O)C(=NN1C1=CC=CC=C1)C(O)=O", 
	 "Tm": 441.15, 
	 "num_atms": 27, 
	 "gaussian": { 
		 "optdone": 1, 
		 "sigma_profile": "yes", 
		 "theory": "DFT", 
		 "functional": "B3LYP", 
		 "basiset": "6-31G**", 
		 "properties": { 
			 "R2extent": 5079.5861, 
			 "electric_dipole_moment_norm": 6.73344916369, 
			 "electric_quadrupole_moment_norm": 12.4789331379, 
			 "total_energy": -798.447661413, 
			 "HOMO_LUMO_gap": 0.1728, 
			 "cosmo_polarized_energy": -22.61, 
			 "cosmo_cavitation_energy": 32.64, 
			 "cosmo_dispersion_energy": -22.93, 
			 "cosmo_repulsion_energy": 1.8, 
			 "cosmo_total_nonelectrostatic_energy": 11.51, 
			 "SMD_solvation_energy": 7.04 
		},
		"coords": [
			{
				"x": -1.867119782,
				"y": -1.7451099739,
				"z": -0.4656585514,
				"element": "C" 
			},
			{
				"x": -1.6892187762,
				"y": -0.7279861137,
				"z": 0.6293884296,
				"element": "C" 
			},
			{
				"x": -2.7090630644,
				"y": -0.3451038676,
				"z": 1.4495506917,
				"element": "C" 
			},
			{
				"x": -2.5201398296,
				"y": 0.6093207693,
				"z": 2.5270725479,
				"element": "C" 
			},
			{
				"x": -3.4209626421,
				"y": 1.0568930792,
				"z": 3.2351272873,
				"element": "O" 
			},
			{
				"x": -1.0947061347,
				"y": 0.9964446336,
				"z": 2.6714199357,
				"element": "C" 
			},
			{
				"x": -0.1425160484,
				"y": 0.6376879638,
				"z": 1.8580531773,
				"element": "N" 
			},
			{
				"x": -0.4286392667,
				"y": -0.1866118836,
				"z": 0.8331717259,
				"element": "N" 
			},
			{
				"x": 0.7119367332,
				"y": -0.5035423466,
				"z": 0.0076725431,
				"element": "C" 
			},
			{
				"x": 0.7470558715,
				"y": -0.0901017967,
				"z": -1.3252148474,
				"element": "C" 
			},
			{
				"x": 1.8628510428,
				"y": -0.3913144875,
				"z": -2.1072984798,
				"element": "C" 
			},
			{
				"x": 2.9399001654,
				"y": -1.086742047,
				"z": -1.5549390774,
				"element": "C" 
			},
			{
				"x": 2.9039356994,
				"y": -1.4790367098,
				"z": -0.2148027939,
				"element": "C" 
			},
			{
				"x": 1.7890337575,
				"y": -1.1901271358,
				"z": 0.5712172352,
				"element": "C" 
			},
			{
				"x": -0.6444995679,
				"y": 1.9225137336,
				"z": 3.7710195926,
				"element": "C" 
			},
			{
				"x": -1.1371229587,
				"y": 1.5502509727,
				"z": 4.9675463187,
				"element": "O" 
			},
			{
				"x": 0.0875819443,
				"y": 2.8729086213,
				"z": 3.6119191783,
				"element": "O" 
			},
			{
				"x": -1.7783650871,
				"y": -1.300578307,
				"z": -1.4610616783,
				"element": "H" 
			},
			{
				"x": -2.8583195382,
				"y": -2.1932241049,
				"z": -0.3793766572,
				"element": "H" 
			},
			{
				"x": -1.116416444,
				"y": -2.5382631808,
				"z": -0.3969602785,
				"element": "H" 
			},
			{
				"x": -3.7007189385,
				"y": -0.7604388074,
				"z": 1.3091529609,
				"element": "H" 
			},
			{
				"x": -0.0798364569,
				"y": 0.4798347697,
				"z": -1.7365885771,
				"element": "H" 
			},
			{
				"x": 1.8945764463,
				"y": -0.0684264273,
				"z": -3.1433660821,
				"element": "H" 
			},
			{
				"x": 3.8089446106,
				"y": -1.3147953485,
				"z": -2.1645366273,
				"element": "H" 
			},
			{
				"x": 3.7439555284,
				"y": -2.0114584087,
				"z": 0.2205964695,
				"element": "H" 
			},
			{
				"x": 1.7488466862,
				"y": -1.4799994442,
				"z": 1.6157201317,
				"element": "H" 
			},
			{
				"x": -0.8240739502,
				"y": 2.2131058478,
				"z": 5.6062754249,
				"element": "H" 
			}
		],
		 "valence_orbital": [ 
			{
				"type": "occ",
				"energy": -0.27829,
				"method": "rhf"
			},
			{
				"type": "occ",
				"energy": -0.27534,
				"method": "rhf"
			},
			{
				"type": "occ",
				"energy": -0.27166,
				"method": "rhf"
			},
			{
				"type": "occ",
				"energy": -0.23316,
				"method": "rhf"
			},
			{
				"type": "occ",
				"energy": -0.22769,
				"method": "rhf"
			},
			{
				"type": "unocc",
				"energy": -0.05489,
				"method": "rhf"
			},
			{
				"type": "unocc",
				"energy": -0.04131,
				"method": "rhf"
			},
			{
				"type": "unocc",
				"energy": -0.02583,
				"method": "rhf"
			},
			{
				"type": "unocc",
				"energy": -0.01917,
				"method": "rhf"
			},
			{
				"type": "unocc",
				"energy": 0.02864,
				"method": "rhf"
			}
		],
		"cosmo_sigma_profile": { 
			"-0.025": 0.0,
			"-0.024": 0.0,
			"-0.023": 0.0,
			"-0.022": 0.0,
			"-0.021": 0.0,
			"-0.02": 0.0,
			"-0.019": 0.274527428763,
			"-0.018": 1.25052913293,
			"-0.017": 0.95741696299,
			"-0.016": 0.363423127053,
			"-0.015": 0.90931585939,
			"-0.014": 0.994908740424,
			"-0.013": 0.787115245273,
			"-0.012": 0.663870105769,
			"-0.011": 0.779149412509,
			"-0.01": 0.714124532489,
			"-0.009": 0.585097303973,
			"-0.008": 4.43220172261,
			"-0.007": 12.2568097617,
			"-0.006": 18.4462709049,
			"-0.005": 22.9211133275,
			"-0.004": 19.8740320297,
			"-0.003": 20.2349382317,
			"-0.002": 21.7231950297,
			"-0.001": 14.7905122101,
			"0.0": 13.630728109,
			"0.001": 14.6097779918,
			"0.002": 11.1587285339,
			"0.003": 13.0601396974,
			"0.004": 11.5295890235,
			"0.005": 5.17402452751,
			"0.006": 4.49129498272,
			"0.007": 4.29916212212,
			"0.008": 4.4917365593,
			"0.009": 3.72971900949,
			"0.01": 5.65659620056,
			"0.011": 9.05589747063,
			"0.012": 5.41837726325,
			"0.013": 4.19253923155,
			"0.014": 5.90148151976,
			"0.015": 1.94033590799,
			"0.016": 0.0,
			"0.017": 0.0,
			"0.018": 0.0,
			"0.019": 0.0,
			"0.02": 0.0,
			"0.021": 0.0,
			"0.022": 0.0,
			"0.023": 0.0,
			"0.024": 0.0,
			"0.025": 0.0
		}
	}
}
