{
	 "smiles": "OC(=O)C1CCCN(C1)C(=O)N1CCC2=C(C1)C=CS2", 
	 "Tm": 340.15, 
	 "num_atms": 38, 
	 "gaussian": { 
		 "optdone": 1, 
		 "sigma_profile": "yes", 
		 "theory": "DFT", 
		 "functional": "B3LYP", 
		 "basiset": "6-31G**", 
		 "properties": { 
			 "R2extent": 7118.4586, 
			 "electric_dipole_moment_norm": 3.35335642305, 
			 "electric_quadrupole_moment_norm": 22.2009832748, 
			 "total_energy": -1277.70835081, 
			 "HOMO_LUMO_gap": 0.21492, 
			 "cosmo_polarized_energy": -22.27, 
			 "cosmo_cavitation_energy": 40.29, 
			 "cosmo_dispersion_energy": -28.47, 
			 "cosmo_repulsion_energy": 2.14, 
			 "cosmo_total_nonelectrostatic_energy": 13.96, 
			 "SMD_solvation_energy": 6.48 
		},
		"coords": [
			{
				"x": -3.4682602065,
				"y": 0.4801379805,
				"z": 2.0438208306,
				"element": "O" 
			},
			{
				"x": -3.8141170558,
				"y": 0.7732138624,
				"z": 0.7592884796,
				"element": "C" 
			},
			{
				"x": -4.8707487475,
				"y": 1.3071756337,
				"z": 0.5324249862,
				"element": "O" 
			},
			{
				"x": -2.7658432021,
				"y": 0.4125717564,
				"z": -0.2949005325,
				"element": "C" 
			},
			{
				"x": -3.2824403635,
				"y": 0.6413837067,
				"z": -1.7342363315,
				"element": "C" 
			},
			{
				"x": -2.846079444,
				"y": 2.014306077,
				"z": -2.2603156309,
				"element": "C" 
			},
			{
				"x": -1.3119398221,
				"y": 2.1206128748,
				"z": -2.3471995541,
				"element": "C" 
			},
			{
				"x": -0.6870293345,
				"y": 1.331728117,
				"z": -1.2700669874,
				"element": "N" 
			},
			{
				"x": -1.4779802008,
				"y": 1.2526557424,
				"z": -0.0454032307,
				"element": "C" 
			},
			{
				"x": 0.7011470826,
				"y": 1.3061872971,
				"z": -1.2668273644,
				"element": "C" 
			},
			{
				"x": 1.3596706349,
				"y": 1.9933172682,
				"z": -2.0402591775,
				"element": "O" 
			},
			{
				"x": 1.2906656244,
				"y": 0.4515663266,
				"z": -0.3198994387,
				"element": "N" 
			},
			{
				"x": 2.7389356533,
				"y": 0.6026170157,
				"z": -0.1415460265,
				"element": "C" 
			},
			{
				"x": 3.1188239253,
				"y": 0.2425375989,
				"z": 1.3035770524,
				"element": "C" 
			},
			{
				"x": 2.4555993821,
				"y": -1.0536914813,
				"z": 1.6758017521,
				"element": "C" 
			},
			{
				"x": 1.4183954692,
				"y": -1.6149860091,
				"z": 0.9777747093,
				"element": "C" 
			},
			{
				"x": 0.8585537646,
				"y": -0.9529815875,
				"z": -0.2567563789,
				"element": "C" 
			},
			{
				"x": 0.9763769342,
				"y": -2.8590235388,
				"z": 1.5343718971,
				"element": "C" 
			},
			{
				"x": 1.6777685709,
				"y": -3.2165467171,
				"z": 2.6503138546,
				"element": "C" 
			},
			{
				"x": 2.898382172,
				"y": -2.0423924183,
				"z": 3.0415697324,
				"element": "S" 
			},
			{
				"x": -2.6158435555,
				"y": 0.0228446977,
				"z": 2.071696252,
				"element": "H" 
			},
			{
				"x": -2.523169765,
				"y": -0.651347299,
				"z": -0.1632998552,
				"element": "H" 
			},
			{
				"x": -4.3715196664,
				"y": 0.5580900012,
				"z": -1.742133053,
				"element": "H" 
			},
			{
				"x": -2.8810864972,
				"y": -0.142561883,
				"z": -2.385530068,
				"element": "H" 
			},
			{
				"x": -3.252824907,
				"y": 2.7915479037,
				"z": -1.6036715856,
				"element": "H" 
			},
			{
				"x": -3.2717445786,
				"y": 2.1986509859,
				"z": -3.2515546314,
				"element": "H" 
			},
			{
				"x": -0.9828774052,
				"y": 3.166939527,
				"z": -2.2987793611,
				"element": "H" 
			},
			{
				"x": -0.9483094621,
				"y": 1.7215245589,
				"z": -3.29846476,
				"element": "H" 
			},
			{
				"x": -0.8578951314,
				"y": 0.8425488647,
				"z": 0.7522615826,
				"element": "H" 
			},
			{
				"x": -1.7625046588,
				"y": 2.2675301111,
				"z": 0.2726970231,
				"element": "H" 
			},
			{
				"x": 3.2854772952,
				"y": -0.0447185326,
				"z": -0.8446912707,
				"element": "H" 
			},
			{
				"x": 3.0056667256,
				"y": 1.6320967088,
				"z": -0.3781288722,
				"element": "H" 
			},
			{
				"x": 2.8003063289,
				"y": 1.0461411453,
				"z": 1.9804958238,
				"element": "H" 
			},
			{
				"x": 4.2097500336,
				"y": 0.1699176123,
				"z": 1.3862284496,
				"element": "H" 
			},
			{
				"x": -0.2315315526,
				"y": -1.0077373071,
				"z": -0.2597420578,
				"element": "H" 
			},
			{
				"x": 1.1957156754,
				"y": -1.4951701052,
				"z": -1.1586037395,
				"element": "H" 
			},
			{
				"x": 0.1730761872,
				"y": -3.4584747291,
				"z": 1.1183556397,
				"element": "H" 
			},
			{
				"x": 1.5544340973,
				"y": -4.0953117661,
				"z": 3.2677318423,
				"element": "H" 
			}
		],
		 "valence_orbital": [ 
			{
				"type": "occ",
				"energy": -0.27522,
				"method": "rhf"
			},
			{
				"type": "occ",
				"energy": -0.25565,
				"method": "rhf"
			},
			{
				"type": "occ",
				"energy": -0.24296,
				"method": "rhf"
			},
			{
				"type": "occ",
				"energy": -0.23717,
				"method": "rhf"
			},
			{
				"type": "occ",
				"energy": -0.23357,
				"method": "rhf"
			},
			{
				"type": "unocc",
				"energy": -0.01865,
				"method": "rhf"
			},
			{
				"type": "unocc",
				"energy": -0.00073,
				"method": "rhf"
			},
			{
				"type": "unocc",
				"energy": 0.02031,
				"method": "rhf"
			},
			{
				"type": "unocc",
				"energy": 0.0258,
				"method": "rhf"
			},
			{
				"type": "unocc",
				"energy": 0.03702,
				"method": "rhf"
			}
		],
		"cosmo_sigma_profile": { 
			"-0.025": 0.0,
			"-0.024": 0.0,
			"-0.023": 0.0,
			"-0.022": 0.0,
			"-0.021": 0.0,
			"-0.02": 0.0,
			"-0.019": 0.0,
			"-0.018": 0.582458634439,
			"-0.017": 1.63158638197,
			"-0.016": 1.57666115996,
			"-0.015": 1.35404587965,
			"-0.014": 0.851448538965,
			"-0.013": 1.02746369164,
			"-0.012": 1.65929928238,
			"-0.011": 1.37204521812,
			"-0.01": 1.23079374058,
			"-0.009": 1.16405016533,
			"-0.008": 3.90924974705,
			"-0.007": 5.84968110506,
			"-0.006": 10.8835435389,
			"-0.005": 16.1984831751,
			"-0.004": 30.2605398837,
			"-0.003": 40.311717466,
			"-0.002": 34.0186669985,
			"-0.001": 23.039398573,
			"0.0": 19.8944765949,
			"0.001": 13.5922640637,
			"0.002": 14.0562105847,
			"0.003": 13.5682336272,
			"0.004": 13.7798666413,
			"0.005": 17.0361192585,
			"0.006": 6.9910263031,
			"0.007": 4.36897981326,
			"0.008": 4.53014667492,
			"0.009": 4.83048319753,
			"0.01": 6.22390389969,
			"0.011": 7.07551504603,
			"0.012": 6.27472377031,
			"0.013": 4.03324611109,
			"0.014": 4.91520229391,
			"0.015": 0.389898569517,
			"0.016": 0.0,
			"0.017": 0.0,
			"0.018": 0.0,
			"0.019": 0.0,
			"0.02": 0.0,
			"0.021": 0.0,
			"0.022": 0.0,
			"0.023": 0.0,
			"0.024": 0.0,
			"0.025": 0.0
		}
	}
}
