{
	 "smiles": "OC(=O)C1=C(N(CC2=CC=CC=C2)N=N1)C(O)=O", 
	 "Tm": 453.15, 
	 "num_atms": 27, 
	 "gaussian": { 
		 "optdone": 1, 
		 "sigma_profile": "yes", 
		 "theory": "DFT", 
		 "functional": "B3LYP", 
		 "basiset": "6-31G**", 
		 "properties": { 
			 "R2extent": 5047.3335, 
			 "electric_dipole_moment_norm": 9.73523061206, 
			 "electric_quadrupole_moment_norm": 30.8517269019, 
			 "total_energy": -889.72542403, 
			 "HOMO_LUMO_gap": 0.16976, 
			 "cosmo_polarized_energy": -25.7, 
			 "cosmo_cavitation_energy": 32.5, 
			 "cosmo_dispersion_energy": -23.23, 
			 "cosmo_repulsion_energy": 1.77, 
			 "cosmo_total_nonelectrostatic_energy": 11.04, 
			 "SMD_solvation_energy": 6.41 
		},
		"coords": [
			{
				"x": 3.4932175946,
				"y": 0.6863594902,
				"z": -2.3549796333,
				"element": "O" 
			},
			{
				"x": 3.7036727248,
				"y": 1.0524005061,
				"z": -1.0867016242,
				"element": "C" 
			},
			{
				"x": 4.8122903719,
				"y": 1.124713491,
				"z": -0.6149696145,
				"element": "O" 
			},
			{
				"x": 2.4941339397,
				"y": 1.3739048877,
				"z": -0.2380189061,
				"element": "C" 
			},
			{
				"x": 1.1158068946,
				"y": 1.4600300326,
				"z": -0.4848122847,
				"element": "C" 
			},
			{
				"x": 0.5810481505,
				"y": 1.8162817434,
				"z": 0.7255662531,
				"element": "N" 
			},
			{
				"x": -0.8074718523,
				"y": 1.9773722904,
				"z": 1.1915673609,
				"element": "C" 
			},
			{
				"x": -1.5142021653,
				"y": 0.6559810177,
				"z": 1.4282908039,
				"element": "C" 
			},
			{
				"x": -0.9353992417,
				"y": -0.3202457069,
				"z": 2.250151408,
				"element": "C" 
			},
			{
				"x": -1.6050908852,
				"y": -1.5181377441,
				"z": 2.4953511575,
				"element": "C" 
			},
			{
				"x": -2.8619526735,
				"y": -1.7491138254,
				"z": 1.9299732903,
				"element": "C" 
			},
			{
				"x": -3.4452484849,
				"y": -0.7778434408,
				"z": 1.1159384506,
				"element": "C" 
			},
			{
				"x": -2.7707263423,
				"y": 0.4182711724,
				"z": 0.8623898112,
				"element": "C" 
			},
			{
				"x": 1.5570379403,
				"y": 1.9274741875,
				"z": 1.6418232254,
				"element": "N" 
			},
			{
				"x": 2.7003394126,
				"y": 1.6720973378,
				"z": 1.071149136,
				"element": "N" 
			},
			{
				"x": 0.3670332495,
				"y": 1.2621621473,
				"z": -1.7275991428,
				"element": "C" 
			},
			{
				"x": -0.9335944011,
				"y": 1.5867243669,
				"z": -1.6578531604,
				"element": "O" 
			},
			{
				"x": 0.864060603,
				"y": 0.8454239521,
				"z": -2.7659289511,
				"element": "O" 
			},
			{
				"x": 2.5379987705,
				"y": 0.6744050527,
				"z": -2.5921863046,
				"element": "H" 
			},
			{
				"x": -1.3475187503,
				"y": 2.5893264605,
				"z": 0.4706120674,
				"element": "H" 
			},
			{
				"x": -0.7047560137,
				"y": 2.5402337574,
				"z": 2.1226073798,
				"element": "H" 
			},
			{
				"x": 0.0391686468,
				"y": -0.1397425124,
				"z": 2.6955474785,
				"element": "H" 
			},
			{
				"x": -1.1475002636,
				"y": -2.2699131844,
				"z": 3.1315278878,
				"element": "H" 
			},
			{
				"x": -3.3831345882,
				"y": -2.6818675964,
				"z": 2.1242051811,
				"element": "H" 
			},
			{
				"x": -4.4219496154,
				"y": -0.9510932823,
				"z": 0.6735740603,
				"element": "H" 
			},
			{
				"x": -3.2236918032,
				"y": 1.1713701105,
				"z": 0.2232059316,
				"element": "H" 
			},
			{
				"x": -1.3137712181,
				"y": 1.3994252884,
				"z": -2.5336312617,
				"element": "H" 
			}
		],
		 "valence_orbital": [ 
			{
				"type": "occ",
				"energy": -0.29383,
				"method": "rhf"
			},
			{
				"type": "occ",
				"energy": -0.29082,
				"method": "rhf"
			},
			{
				"type": "occ",
				"energy": -0.27112,
				"method": "rhf"
			},
			{
				"type": "occ",
				"energy": -0.26907,
				"method": "rhf"
			},
			{
				"type": "occ",
				"energy": -0.26485,
				"method": "rhf"
			},
			{
				"type": "unocc",
				"energy": -0.09509,
				"method": "rhf"
			},
			{
				"type": "unocc",
				"energy": -0.03219,
				"method": "rhf"
			},
			{
				"type": "unocc",
				"energy": -0.02403,
				"method": "rhf"
			},
			{
				"type": "unocc",
				"energy": -0.01962,
				"method": "rhf"
			},
			{
				"type": "unocc",
				"energy": 0.02109,
				"method": "rhf"
			}
		],
		"cosmo_sigma_profile": { 
			"-0.025": 0.0,
			"-0.024": 0.0,
			"-0.023": 0.0,
			"-0.022": 0.0,
			"-0.021": 0.121951149745,
			"-0.02": 0.869132440201,
			"-0.019": 1.09482679121,
			"-0.018": 1.14198437178,
			"-0.017": 0.565074116424,
			"-0.016": 0.438283113838,
			"-0.015": 0.420015013632,
			"-0.014": 1.10565643349,
			"-0.013": 0.97055889071,
			"-0.012": 0.697104989743,
			"-0.011": 0.912150572293,
			"-0.01": 2.10523763538,
			"-0.009": 1.94090601113,
			"-0.008": 5.02163566217,
			"-0.007": 9.74352169686,
			"-0.006": 17.5421963816,
			"-0.005": 21.8742678156,
			"-0.004": 24.02929248,
			"-0.003": 17.8833323639,
			"-0.002": 15.6586098861,
			"-0.001": 12.6967014308,
			"0.0": 11.4672424111,
			"0.001": 12.388425344,
			"0.002": 11.8519281968,
			"0.003": 11.9770110239,
			"0.004": 11.0176097109,
			"0.005": 13.5132537796,
			"0.006": 6.63641651368,
			"0.007": 5.80689655237,
			"0.008": 6.67884227799,
			"0.009": 6.74377362703,
			"0.01": 6.22301086135,
			"0.011": 8.13255053871,
			"0.012": 5.76488015354,
			"0.013": 2.93732037462,
			"0.014": 1.68380164809,
			"0.015": 1.57737931099,
			"0.016": 0.176628809717,
			"0.017": 0.0,
			"0.018": 0.0,
			"0.019": 0.0,
			"0.02": 0.0,
			"0.021": 0.0,
			"0.022": 0.0,
			"0.023": 0.0,
			"0.024": 0.0,
			"0.025": 0.0
		}
	}
}
