{
	 "smiles": "NC(=S)NC1=CC(F)=CC(F)=C1", 
	 "Tm": 423.15, 
	 "num_atms": 18, 
	 "gaussian": { 
		 "optdone": 1, 
		 "sigma_profile": "yes", 
		 "theory": "DFT", 
		 "functional": "B3LYP", 
		 "basiset": "6-31G**", 
		 "properties": { 
			 "R2extent": 3336.088, 
			 "electric_dipole_moment_norm": 3.6521255893, 
			 "electric_quadrupole_moment_norm": 20.7690366274, 
			 "total_energy": -977.734557547, 
			 "HOMO_LUMO_gap": 0.17005, 
			 "cosmo_polarized_energy": -16.37, 
			 "cosmo_cavitation_energy": 25.41, 
			 "cosmo_dispersion_energy": -18.93, 
			 "cosmo_repulsion_energy": 1.43, 
			 "cosmo_total_nonelectrostatic_energy": 7.91, 
			 "SMD_solvation_energy": 4.55 
		},
		"coords": [
			{
				"x": 2.0954549374,
				"y": 1.9823140797,
				"z": 1.0350055466,
				"element": "N" 
			},
			{
				"x": 0.7864885623,
				"y": 2.3469654963,
				"z": 1.0737065188,
				"element": "C" 
			},
			{
				"x": 0.2957030669,
				"y": 3.9508862787,
				"z": 1.0849722889,
				"element": "S" 
			},
			{
				"x": -0.1458268879,
				"y": 1.3371256363,
				"z": 1.1009283095,
				"element": "N" 
			},
			{
				"x": 0.0006744334,
				"y": -0.0590763081,
				"z": 0.9890934088,
				"element": "C" 
			},
			{
				"x": -0.9165730331,
				"y": -0.8671584338,
				"z": 1.6805625154,
				"element": "C" 
			},
			{
				"x": -0.8269567473,
				"y": -2.245903455,
				"z": 1.5493782079,
				"element": "C" 
			},
			{
				"x": -1.7075960027,
				"y": -3.0121636357,
				"z": 2.2158894881,
				"element": "F" 
			},
			{
				"x": 0.1446748459,
				"y": -2.8712746734,
				"z": 0.7746995382,
				"element": "C" 
			},
			{
				"x": 1.0311877177,
				"y": -2.0390226785,
				"z": 0.1031931144,
				"element": "C" 
			},
			{
				"x": 1.9737457959,
				"y": -2.6000737135,
				"z": -0.6751853436,
				"element": "F" 
			},
			{
				"x": 0.9825074126,
				"y": -0.6510023483,
				"z": 0.177319888,
				"element": "C" 
			},
			{
				"x": 2.3820771331,
				"y": 1.0599663331,
				"z": 1.3334623028,
				"element": "H" 
			},
			{
				"x": 2.7546704579,
				"y": 2.7366190705,
				"z": 1.1508599438,
				"element": "H" 
			},
			{
				"x": -1.0820692919,
				"y": 1.6857018208,
				"z": 1.2553826513,
				"element": "H" 
			},
			{
				"x": -1.6781194293,
				"y": -0.4362210798,
				"z": 2.3205729952,
				"element": "H" 
			},
			{
				"x": 0.202379427,
				"y": -3.9490882361,
				"z": 0.694311138,
				"element": "H" 
			},
			{
				"x": 1.6602776022,
				"y": -0.0617941534,
				"z": -0.4261525121,
				"element": "H" 
			}
		],
		 "valence_orbital": [ 
			{
				"type": "occ",
				"energy": -0.31629,
				"method": "rhf"
			},
			{
				"type": "occ",
				"energy": -0.26799,
				"method": "rhf"
			},
			{
				"type": "occ",
				"energy": -0.26042,
				"method": "rhf"
			},
			{
				"type": "occ",
				"energy": -0.22162,
				"method": "rhf"
			},
			{
				"type": "occ",
				"energy": -0.21523,
				"method": "rhf"
			},
			{
				"type": "unocc",
				"energy": -0.04518,
				"method": "rhf"
			},
			{
				"type": "unocc",
				"energy": -0.02356,
				"method": "rhf"
			},
			{
				"type": "unocc",
				"energy": 0.00781,
				"method": "rhf"
			},
			{
				"type": "unocc",
				"energy": 0.05729,
				"method": "rhf"
			},
			{
				"type": "unocc",
				"energy": 0.07266,
				"method": "rhf"
			}
		],
		"cosmo_sigma_profile": { 
			"-0.025": 0.0,
			"-0.024": 0.0,
			"-0.023": 0.0,
			"-0.022": 0.0,
			"-0.021": 0.0,
			"-0.02": 0.0,
			"-0.019": 0.0,
			"-0.018": 0.0,
			"-0.017": 0.0,
			"-0.016": 0.00633813045323,
			"-0.015": 1.23500602804,
			"-0.014": 3.35475473707,
			"-0.013": 3.23860362248,
			"-0.012": 3.4672255557,
			"-0.011": 3.51734110581,
			"-0.01": 3.40794461351,
			"-0.009": 4.20418399341,
			"-0.008": 6.07439370922,
			"-0.007": 6.35938576528,
			"-0.006": 6.23329313136,
			"-0.005": 6.31818314188,
			"-0.004": 6.50325169366,
			"-0.003": 6.80992008203,
			"-0.002": 7.78126892065,
			"-0.001": 11.8444842466,
			"0.0": 23.6819767028,
			"0.001": 20.6938084543,
			"0.002": 10.9244998457,
			"0.003": 15.0098940552,
			"0.004": 20.3380348335,
			"0.005": 2.93411417912,
			"0.006": 3.1613309142,
			"0.007": 3.95919312269,
			"0.008": 2.96484940802,
			"0.009": 4.79043111768,
			"0.01": 6.92436922306,
			"0.011": 7.15948496632,
			"0.012": 3.71054936133,
			"0.013": 0.103319738946,
			"0.014": 0.0,
			"0.015": 0.0,
			"0.016": 0.0,
			"0.017": 0.0,
			"0.018": 0.0,
			"0.019": 0.0,
			"0.02": 0.0,
			"0.021": 0.0,
			"0.022": 0.0,
			"0.023": 0.0,
			"0.024": 0.0,
			"0.025": 0.0
		}
	}
}
