{
	 "smiles": "NC(=O)C1=CC=CC=C1Br", 
	 "Tm": 433.15, 
	 "num_atms": 16, 
	 "gaussian": { 
		 "optdone": 1, 
		 "sigma_profile": "yes", 
		 "theory": "DFT", 
		 "functional": "B3LYP", 
		 "basiset": "6-31G**", 
		 "properties": { 
			 "R2extent": 2720.8368, 
			 "electric_dipole_moment_norm": 2.62957234926, 
			 "electric_quadrupole_moment_norm": 14.4855236816, 
			 "total_energy": -2971.75408544, 
			 "HOMO_LUMO_gap": 0.20801, 
			 "cosmo_polarized_energy": -10.42, 
			 "cosmo_cavitation_energy": 22.21, 
			 "cosmo_dispersion_energy": -17.17, 
			 "cosmo_repulsion_energy": 1.38, 
			 "cosmo_total_nonelectrostatic_energy": 6.42, 
			 "SMD_solvation_energy": 3.52 
		},
		"coords": [
			{
				"x": 3.1782671272,
				"y": 1.2322430895,
				"z": 0.5773149349,
				"element": "N" 
			},
			{
				"x": 1.9150599777,
				"y": 1.079690553,
				"z": 1.0572388537,
				"element": "C" 
			},
			{
				"x": 1.6013240198,
				"y": 1.4722368167,
				"z": 2.1762932699,
				"element": "O" 
			},
			{
				"x": 0.8548870463,
				"y": 0.4875578027,
				"z": 0.1428536823,
				"element": "C" 
			},
			{
				"x": -0.4549835866,
				"y": 0.8832219822,
				"z": 0.4704178581,
				"element": "C" 
			},
			{
				"x": -1.5623716903,
				"y": 0.4544307792,
				"z": -0.2507610706,
				"element": "C" 
			},
			{
				"x": -1.3881017931,
				"y": -0.41150722,
				"z": -1.3305198901,
				"element": "C" 
			},
			{
				"x": -0.1078730148,
				"y": -0.8409348957,
				"z": -1.67075788,
				"element": "C" 
			},
			{
				"x": 0.9964034169,
				"y": -0.3927405774,
				"z": -0.9427463814,
				"element": "C" 
			},
			{
				"x": 2.6854748156,
				"y": -1.1265806514,
				"z": -1.5197936709,
				"element": "Br" 
			},
			{
				"x": 3.8619824344,
				"y": 1.5847667866,
				"z": 1.2302213115,
				"element": "H" 
			},
			{
				"x": 3.488947922,
				"y": 0.8153391721,
				"z": -0.2855988399,
				"element": "H" 
			},
			{
				"x": -0.5619563662,
				"y": 1.5393971801,
				"z": 1.3268208529,
				"element": "H" 
			},
			{
				"x": -2.5554417549,
				"y": 0.7904146476,
				"z": 0.030746152,
				"element": "H" 
			},
			{
				"x": -2.2401148543,
				"y": -0.7616677186,
				"z": -1.9055150607,
				"element": "H" 
			},
			{
				"x": 0.0415963003,
				"y": -1.5275677466,
				"z": -2.4958141217,
				"element": "H" 
			}
		],
		 "valence_orbital": [ 
			{
				"type": "occ",
				"energy": -0.3057,
				"method": "rhf"
			},
			{
				"type": "occ",
				"energy": -0.27277,
				"method": "rhf"
			},
			{
				"type": "occ",
				"energy": -0.2644,
				"method": "rhf"
			},
			{
				"type": "occ",
				"energy": -0.25568,
				"method": "rhf"
			},
			{
				"type": "occ",
				"energy": -0.25251,
				"method": "rhf"
			},
			{
				"type": "unocc",
				"energy": -0.0445,
				"method": "rhf"
			},
			{
				"type": "unocc",
				"energy": -0.02077,
				"method": "rhf"
			},
			{
				"type": "unocc",
				"energy": -0.01091,
				"method": "rhf"
			},
			{
				"type": "unocc",
				"energy": 0.05517,
				"method": "rhf"
			},
			{
				"type": "unocc",
				"energy": 0.09685,
				"method": "rhf"
			}
		],
		"cosmo_sigma_profile": { 
			"-0.025": 0.0,
			"-0.024": 0.0,
			"-0.023": 0.0,
			"-0.022": 0.0,
			"-0.021": 0.0,
			"-0.02": 0.0,
			"-0.019": 0.0,
			"-0.018": 0.0,
			"-0.017": 0.0,
			"-0.016": 0.0,
			"-0.015": 0.0268359960158,
			"-0.014": 0.992261016524,
			"-0.013": 0.98953972944,
			"-0.012": 0.956540335418,
			"-0.011": 1.54961223755,
			"-0.01": 2.01339202783,
			"-0.009": 2.23743038812,
			"-0.008": 2.22870165421,
			"-0.007": 6.85460079959,
			"-0.006": 8.73034658197,
			"-0.005": 12.0208487958,
			"-0.004": 9.93707568047,
			"-0.003": 9.3142310678,
			"-0.002": 10.3118695646,
			"-0.001": 11.5235758909,
			"0.0": 13.3756508074,
			"0.001": 18.975242303,
			"0.002": 19.4355072064,
			"0.003": 19.2607733189,
			"0.004": 8.86099471675,
			"0.005": 2.22293334023,
			"0.006": 2.35329893416,
			"0.007": 1.18687617337,
			"0.008": 1.88781591519,
			"0.009": 0.766742585404,
			"0.01": 1.31351909134,
			"0.011": 1.88444215925,
			"0.012": 1.82524693591,
			"0.013": 4.76707088272,
			"0.014": 3.25596516719,
			"0.015": 0.173929466615,
			"0.016": 0.0,
			"0.017": 0.0,
			"0.018": 0.0,
			"0.019": 0.0,
			"0.02": 0.0,
			"0.021": 0.0,
			"0.022": 0.0,
			"0.023": 0.0,
			"0.024": 0.0,
			"0.025": 0.0
		}
	}
}
