{
	 "smiles": "CC1=CN=C(NC(=O)C2=CC=C(Br)O2)S1", 
	 "Tm": 464.15, 
	 "num_atms": 22, 
	 "gaussian": { 
		 "optdone": 1, 
		 "sigma_profile": "yes", 
		 "theory": "DFT", 
		 "functional": "B3LYP", 
		 "basiset": "6-31G**", 
		 "properties": { 
			 "R2extent": 7128.0146, 
			 "electric_dipole_moment_norm": 2.98041934298, 
			 "electric_quadrupole_moment_norm": 18.4627954311, 
			 "total_energy": -3576.68578131, 
			 "HOMO_LUMO_gap": 0.17411, 
			 "cosmo_polarized_energy": -12.58, 
			 "cosmo_cavitation_energy": 32.07, 
			 "cosmo_dispersion_energy": -23.09, 
			 "cosmo_repulsion_energy": 1.8, 
			 "cosmo_total_nonelectrostatic_energy": 10.79, 
			 "SMD_solvation_energy": 4.08 
		},
		"coords": [
			{
				"x": -2.3960627407,
				"y": -4.1414564753,
				"z": -0.2631730114,
				"element": "C" 
			},
			{
				"x": -1.8683717347,
				"y": -3.1065184589,
				"z": 0.6809643787,
				"element": "C" 
			},
			{
				"x": -2.5373092798,
				"y": -2.4059138204,
				"z": 1.6441472781,
				"element": "C" 
			},
			{
				"x": -1.8025011465,
				"y": -1.5439544669,
				"z": 2.4266304725,
				"element": "N" 
			},
			{
				"x": -0.5584741593,
				"y": -1.5441363703,
				"z": 2.0585115473,
				"element": "C" 
			},
			{
				"x": 0.4530122169,
				"y": -0.7676290921,
				"z": 2.6282005916,
				"element": "N" 
			},
			{
				"x": 0.3134820814,
				"y": 0.4763120795,
				"z": 3.246648184,
				"element": "C" 
			},
			{
				"x": 1.0731554259,
				"y": 0.8024275215,
				"z": 4.1489088085,
				"element": "O" 
			},
			{
				"x": -0.6949419191,
				"y": 1.418350262,
				"z": 2.7457158402,
				"element": "C" 
			},
			{
				"x": -1.1208400382,
				"y": 2.5936273431,
				"z": 3.3042965568,
				"element": "C" 
			},
			{
				"x": -2.0611474568,
				"y": 3.1633325538,
				"z": 2.3989059044,
				"element": "C" 
			},
			{
				"x": -2.1240011161,
				"y": 2.2899219504,
				"z": 1.3493717628,
				"element": "C" 
			},
			{
				"x": -3.1080696509,
				"y": 2.336571409,
				"z": -0.2366697351,
				"element": "Br" 
			},
			{
				"x": -1.3087046604,
				"y": 1.2302494103,
				"z": 1.5298254621,
				"element": "O" 
			},
			{
				"x": -0.1854025826,
				"y": -2.6181084443,
				"z": 0.7079971765,
				"element": "S" 
			},
			{
				"x": -1.9101757351,
				"y": -5.1129476771,
				"z": -0.1182508448,
				"element": "H" 
			},
			{
				"x": -3.4686413635,
				"y": -4.2744098538,
				"z": -0.0955928053,
				"element": "H" 
			},
			{
				"x": -2.2529641504,
				"y": -3.8535866379,
				"z": -1.3106264513,
				"element": "H" 
			},
			{
				"x": -3.5988125931,
				"y": -2.513111008,
				"z": 1.8391962281,
				"element": "H" 
			},
			{
				"x": 1.2686115882,
				"y": -1.258899159,
				"z": 2.9772493091,
				"element": "H" 
			},
			{
				"x": -0.7887321501,
				"y": 2.9883702221,
				"z": 4.2527504163,
				"element": "H" 
			},
			{
				"x": -2.612608835,
				"y": 4.0852087122,
				"z": 2.4992929311,
				"element": "H" 
			}
		],
		 "valence_orbital": [ 
			{
				"type": "occ",
				"energy": -0.28609,
				"method": "rhf"
			},
			{
				"type": "occ",
				"energy": -0.28281,
				"method": "rhf"
			},
			{
				"type": "occ",
				"energy": -0.26763,
				"method": "rhf"
			},
			{
				"type": "occ",
				"energy": -0.23592,
				"method": "rhf"
			},
			{
				"type": "occ",
				"energy": -0.22716,
				"method": "rhf"
			},
			{
				"type": "unocc",
				"energy": -0.05305,
				"method": "rhf"
			},
			{
				"type": "unocc",
				"energy": -0.02091,
				"method": "rhf"
			},
			{
				"type": "unocc",
				"energy": 0.0018,
				"method": "rhf"
			},
			{
				"type": "unocc",
				"energy": 0.00663,
				"method": "rhf"
			},
			{
				"type": "unocc",
				"energy": 0.03169,
				"method": "rhf"
			}
		],
		"cosmo_sigma_profile": { 
			"-0.025": 0.0,
			"-0.024": 0.0,
			"-0.023": 0.0,
			"-0.022": 0.0,
			"-0.021": 0.0,
			"-0.02": 0.0,
			"-0.019": 0.0,
			"-0.018": 0.0,
			"-0.017": 0.0,
			"-0.016": 0.658977813302,
			"-0.015": 1.29747585914,
			"-0.014": 0.638904585151,
			"-0.013": 0.839804071081,
			"-0.012": 1.40306992707,
			"-0.011": 1.08231086268,
			"-0.01": 0.860985627391,
			"-0.009": 2.85364012855,
			"-0.008": 4.53861053446,
			"-0.007": 6.05209254435,
			"-0.006": 8.66511986519,
			"-0.005": 15.2932005974,
			"-0.004": 15.8739369448,
			"-0.003": 14.9039009447,
			"-0.002": 18.2699426513,
			"-0.001": 23.478336685,
			"0.0": 23.3021203433,
			"0.001": 26.3985977615,
			"0.002": 31.7838213882,
			"0.003": 24.1590333684,
			"0.004": 9.60512164095,
			"0.005": 4.28962951287,
			"0.006": 3.97019655766,
			"0.007": 2.96401413199,
			"0.008": 2.07616232558,
			"0.009": 3.22055864177,
			"0.01": 2.58879348983,
			"0.011": 3.57224317099,
			"0.012": 6.40476868076,
			"0.013": 2.19853423557,
			"0.014": 0.273483304208,
			"0.015": 0.0,
			"0.016": 0.0,
			"0.017": 0.0,
			"0.018": 0.0,
			"0.019": 0.0,
			"0.02": 0.0,
			"0.021": 0.0,
			"0.022": 0.0,
			"0.023": 0.0,
			"0.024": 0.0,
			"0.025": 0.0
		}
	}
}
