{
	 "smiles": "OCC1=CC=CC(OC2=NC=CC=C2)=C1", 
	 "Tm": 331.15, 
	 "num_atms": 26, 
	 "gaussian": { 
		 "optdone": 1, 
		 "sigma_profile": "yes", 
		 "theory": "DFT", 
		 "functional": "B3LYP", 
		 "basiset": "6-31G**", 
		 "properties": { 
			 "R2extent": 4339.5592, 
			 "electric_dipole_moment_norm": 2.50169549106, 
			 "electric_quadrupole_moment_norm": 9.76805507663, 
			 "total_energy": -669.083995151, 
			 "HOMO_LUMO_gap": 0.19732, 
			 "cosmo_polarized_energy": -12.28, 
			 "cosmo_cavitation_energy": 30.6, 
			 "cosmo_dispersion_energy": -22.37, 
			 "cosmo_repulsion_energy": 1.78, 
			 "cosmo_total_nonelectrostatic_energy": 10.01, 
			 "SMD_solvation_energy": 4.76 
		},
		"coords": [
			{
				"x": -1.4236747147,
				"y": -2.8606791758,
				"z": 3.0992014931,
				"element": "O" 
			},
			{
				"x": -0.4340866372,
				"y": -2.0728751303,
				"z": 2.452491822,
				"element": "C" 
			},
			{
				"x": -1.0789083935,
				"y": -0.8633961936,
				"z": 1.8117917734,
				"element": "C" 
			},
			{
				"x": -2.3031002678,
				"y": -0.3684133774,
				"z": 2.2751837989,
				"element": "C" 
			},
			{
				"x": -2.85881233,
				"y": 0.7726355042,
				"z": 1.6961823703,
				"element": "C" 
			},
			{
				"x": -2.1987308213,
				"y": 1.4381823246,
				"z": 0.6629289016,
				"element": "C" 
			},
			{
				"x": -0.979933391,
				"y": 0.9388022154,
				"z": 0.2093639386,
				"element": "C" 
			},
			{
				"x": -0.4155709511,
				"y": 1.5686612571,
				"z": -0.8969994036,
				"element": "O" 
			},
			{
				"x": 0.8697465425,
				"y": 2.0282836137,
				"z": -0.879917699,
				"element": "C" 
			},
			{
				"x": 1.5652818852,
				"y": 2.0220313114,
				"z": 0.2478372556,
				"element": "N" 
			},
			{
				"x": 2.8150579779,
				"y": 2.511829754,
				"z": 0.2034874373,
				"element": "C" 
			},
			{
				"x": 3.4062393968,
				"y": 3.0188165028,
				"z": -0.947875839,
				"element": "C" 
			},
			{
				"x": 2.6507741398,
				"y": 3.0140972216,
				"z": -2.1277442069,
				"element": "C" 
			},
			{
				"x": 1.3588273025,
				"y": 2.5109295861,
				"z": -2.1057666455,
				"element": "C" 
			},
			{
				"x": -0.421146284,
				"y": -0.2100881318,
				"z": 0.7655875242,
				"element": "C" 
			},
			{
				"x": -0.9721247684,
				"y": -3.52298707,
				"z": 3.6355235839,
				"element": "H" 
			},
			{
				"x": 0.3265905589,
				"y": -1.7304261005,
				"z": 3.1745753589,
				"element": "H" 
			},
			{
				"x": 0.0992827538,
				"y": -2.6516856526,
				"z": 1.6810708892,
				"element": "H" 
			},
			{
				"x": -2.8132630966,
				"y": -0.8912557862,
				"z": 3.0756825382,
				"element": "H" 
			},
			{
				"x": -3.8133829432,
				"y": 1.1495917151,
				"z": 2.0521519136,
				"element": "H" 
			},
			{
				"x": -2.6140807566,
				"y": 2.3260728274,
				"z": 0.198152043,
				"element": "H" 
			},
			{
				"x": 3.3608885842,
				"y": 2.4945743171,
				"z": 1.1450924307,
				"element": "H" 
			},
			{
				"x": 4.4201629422,
				"y": 3.4032942361,
				"z": -0.9254571699,
				"element": "H" 
			},
			{
				"x": 3.0688541144,
				"y": 3.3985815235,
				"z": -3.053668235,
				"element": "H" 
			},
			{
				"x": 0.7280265431,
				"y": 2.48124475,
				"z": -2.9867607682,
				"element": "H" 
			},
			{
				"x": 0.5230826142,
				"y": -0.5859220417,
				"z": 0.3854848949,
				"element": "H" 
			}
		],
		 "valence_orbital": [ 
			{
				"type": "occ",
				"energy": -0.27522,
				"method": "rhf"
			},
			{
				"type": "occ",
				"energy": -0.26736,
				"method": "rhf"
			},
			{
				"type": "occ",
				"energy": -0.24726,
				"method": "rhf"
			},
			{
				"type": "occ",
				"energy": -0.23537,
				"method": "rhf"
			},
			{
				"type": "occ",
				"energy": -0.22053,
				"method": "rhf"
			},
			{
				"type": "unocc",
				"energy": -0.02321,
				"method": "rhf"
			},
			{
				"type": "unocc",
				"energy": -0.00387,
				"method": "rhf"
			},
			{
				"type": "unocc",
				"energy": 0.00362,
				"method": "rhf"
			},
			{
				"type": "unocc",
				"energy": 0.01644,
				"method": "rhf"
			},
			{
				"type": "unocc",
				"energy": 0.07611,
				"method": "rhf"
			}
		],
		"cosmo_sigma_profile": { 
			"-0.025": 0.0,
			"-0.024": 0.0,
			"-0.023": 0.0,
			"-0.022": 0.0,
			"-0.021": 0.0,
			"-0.02": 0.0,
			"-0.019": 0.0,
			"-0.018": 0.0,
			"-0.017": 0.00453971420801,
			"-0.016": 0.91550118425,
			"-0.015": 1.06869056066,
			"-0.014": 1.06575424858,
			"-0.013": 1.16634268641,
			"-0.012": 0.626920333978,
			"-0.011": 0.504639836324,
			"-0.01": 0.574862465986,
			"-0.009": 0.940935839423,
			"-0.008": 0.973896336143,
			"-0.007": 6.4287345784,
			"-0.006": 16.2307038908,
			"-0.005": 18.1990077946,
			"-0.004": 22.0485363683,
			"-0.003": 17.1136425655,
			"-0.002": 13.6628004666,
			"-0.001": 11.6776416058,
			"0.0": 13.8615933249,
			"0.001": 17.299666304,
			"0.002": 20.7492758237,
			"0.003": 21.9723865571,
			"0.004": 14.1127392882,
			"0.005": 13.8166813794,
			"0.006": 6.58388395763,
			"0.007": 4.7611397947,
			"0.008": 4.5070892358,
			"0.009": 3.51715710185,
			"0.01": 2.51000831514,
			"0.011": 2.33319579938,
			"0.012": 1.79441615324,
			"0.013": 1.84107955082,
			"0.014": 1.36068950445,
			"0.015": 0.187959962533,
			"0.016": 0.0,
			"0.017": 0.0,
			"0.018": 0.0,
			"0.019": 0.0,
			"0.02": 0.0,
			"0.021": 0.0,
			"0.022": 0.0,
			"0.023": 0.0,
			"0.024": 0.0,
			"0.025": 0.0
		}
	}
}
