{
	 "smiles": "CCCCCCNC", 
	 "Tm": 242.15, 
	 "num_atms": 25, 
	 "gaussian": { 
		 "optdone": 1, 
		 "sigma_profile": "yes", 
		 "theory": "DFT", 
		 "functional": "B3LYP", 
		 "basiset": "6-31G**", 
		 "properties": { 
			 "R2extent": 1634.8917, 
			 "electric_dipole_moment_norm": 1.0150934686, 
			 "electric_quadrupole_moment_norm": 4.2532304887, 
			 "total_energy": -331.746252937, 
			 "HOMO_LUMO_gap": 0.27874, 
			 "cosmo_polarized_energy": -3.56, 
			 "cosmo_cavitation_energy": 25.41, 
			 "cosmo_dispersion_energy": -18.02, 
			 "cosmo_repulsion_energy": 1.52, 
			 "cosmo_total_nonelectrostatic_energy": 8.91, 
			 "SMD_solvation_energy": 1.76 
		},
		"coords": [
			{
				"x": -3.406960081,
				"y": 0.0827711682,
				"z": -0.3697022915,
				"element": "C" 
			},
			{
				"x": -2.1037993006,
				"y": 0.8883552554,
				"z": -0.391821666,
				"element": "C" 
			},
			{
				"x": -0.9627700324,
				"y": 0.2041148111,
				"z": 0.3743707271,
				"element": "C" 
			},
			{
				"x": 0.3570193539,
				"y": 0.9997341719,
				"z": 0.3920075512,
				"element": "C" 
			},
			{
				"x": 1.123773695,
				"y": 1.0895013312,
				"z": -0.944296898,
				"element": "C" 
			},
			{
				"x": 2.0885464845,
				"y": -0.0828084889,
				"z": -1.2365444967,
				"element": "C" 
			},
			{
				"x": 1.5421401621,
				"y": -1.4212086121,
				"z": -1.4500945273,
				"element": "N" 
			},
			{
				"x": 0.6640205442,
				"y": -1.5619357979,
				"z": -2.6033435748,
				"element": "C" 
			},
			{
				"x": -3.2714472781,
				"y": -0.9022908889,
				"z": -0.8310197725,
				"element": "H" 
			},
			{
				"x": -4.2058826096,
				"y": 0.5967849391,
				"z": -0.9141658762,
				"element": "H" 
			},
			{
				"x": -3.7553342009,
				"y": -0.0799581516,
				"z": 0.6567738286,
				"element": "H" 
			},
			{
				"x": -2.2789997376,
				"y": 1.8823578156,
				"z": 0.0424743489,
				"element": "H" 
			},
			{
				"x": -1.8047067016,
				"y": 1.0620120068,
				"z": -1.4334562173,
				"element": "H" 
			},
			{
				"x": -1.2885860263,
				"y": 0.0440813085,
				"z": 1.411450691,
				"element": "H" 
			},
			{
				"x": -0.7991176488,
				"y": -0.7966433297,
				"z": -0.0459368013,
				"element": "H" 
			},
			{
				"x": 1.0260135933,
				"y": 0.5703612774,
				"z": 1.1514861646,
				"element": "H" 
			},
			{
				"x": 0.1299364052,
				"y": 2.0159428008,
				"z": 0.7413666593,
				"element": "H" 
			},
			{
				"x": 1.737582766,
				"y": 2.0000658131,
				"z": -0.9347708019,
				"element": "H" 
			},
			{
				"x": 0.4231629818,
				"y": 1.2189603296,
				"z": -1.778546644,
				"element": "H" 
			},
			{
				"x": 2.8063413472,
				"y": -0.1537252284,
				"z": -0.4079879677,
				"element": "H" 
			},
			{
				"x": 2.6760509843,
				"y": 0.1703388748,
				"z": -2.1300397783,
				"element": "H" 
			},
			{
				"x": 1.0792202724,
				"y": -1.7540940963,
				"z": -0.6100196671,
				"element": "H" 
			},
			{
				"x": 1.2191218868,
				"y": -1.2967150439,
				"z": -3.5110568095,
				"element": "H" 
			},
			{
				"x": 0.3574611982,
				"y": -2.6085774236,
				"z": -2.7003669757,
				"element": "H" 
			},
			{
				"x": -0.2514880579,
				"y": -0.9446248423,
				"z": -2.5854592049,
				"element": "H" 
			}
		],
		 "valence_orbital": [ 
			{
				"type": "occ",
				"energy": -0.33457,
				"method": "rhf"
			},
			{
				"type": "occ",
				"energy": -0.31954,
				"method": "rhf"
			},
			{
				"type": "occ",
				"energy": -0.31353,
				"method": "rhf"
			},
			{
				"type": "occ",
				"energy": -0.30758,
				"method": "rhf"
			},
			{
				"type": "occ",
				"energy": -0.20847,
				"method": "rhf"
			},
			{
				"type": "unocc",
				"energy": 0.07027,
				"method": "rhf"
			},
			{
				"type": "unocc",
				"energy": 0.09583,
				"method": "rhf"
			},
			{
				"type": "unocc",
				"energy": 0.1093,
				"method": "rhf"
			},
			{
				"type": "unocc",
				"energy": 0.11287,
				"method": "rhf"
			},
			{
				"type": "unocc",
				"energy": 0.13537,
				"method": "rhf"
			}
		],
		"cosmo_sigma_profile": { 
			"-0.025": 0.0,
			"-0.024": 0.0,
			"-0.023": 0.0,
			"-0.022": 0.0,
			"-0.021": 0.0,
			"-0.02": 0.0,
			"-0.019": 0.0,
			"-0.018": 0.0,
			"-0.017": 0.0,
			"-0.016": 0.0,
			"-0.015": 0.0,
			"-0.014": 0.0,
			"-0.013": 0.0,
			"-0.012": 0.0,
			"-0.011": 0.0,
			"-0.01": 0.0,
			"-0.009": 0.306888608996,
			"-0.008": 1.07861469786,
			"-0.007": 1.23819811027,
			"-0.006": 1.77764750399,
			"-0.005": 1.69812161241,
			"-0.004": 2.61579602313,
			"-0.003": 9.27395455953,
			"-0.002": 31.5993536693,
			"-0.001": 41.2489812273,
			"0.0": 43.2052420935,
			"0.001": 32.59268363,
			"0.002": 15.3243428736,
			"0.003": 2.06570415225,
			"0.004": 0.835171824522,
			"0.005": 1.00196130172,
			"0.006": 0.931325790548,
			"0.007": 0.631623868531,
			"0.008": 0.684407494752,
			"0.009": 0.741283581084,
			"0.01": 1.03882494344,
			"0.011": 0.718668444183,
			"0.012": 0.426663231814,
			"0.013": 0.695267829874,
			"0.014": 0.616445511472,
			"0.015": 0.422842814828,
			"0.016": 0.644354525705,
			"0.017": 0.553087486609,
			"0.018": 0.485682505042,
			"0.019": 0.250679048823,
			"0.02": 0.0,
			"0.021": 0.0,
			"0.022": 0.0,
			"0.023": 0.0,
			"0.024": 0.0,
			"0.025": 0.0
		}
	}
}
