{
	 "smiles": "CCC1=CCCC1", 
	 "Tm": 155.15, 
	 "num_atms": 19, 
	 "gaussian": { 
		 "optdone": 1, 
		 "sigma_profile": "yes", 
		 "theory": "DFT", 
		 "functional": "B3LYP", 
		 "basiset": "6-31G**", 
		 "properties": { 
			 "R2extent": 1045.5539, 
			 "electric_dipole_moment_norm": 0.232313538133, 
			 "electric_quadrupole_moment_norm": 0.889455243393, 
			 "total_energy": -273.972416294, 
			 "HOMO_LUMO_gap": 0.25801, 
			 "cosmo_polarized_energy": -1.16, 
			 "cosmo_cavitation_energy": 20.49, 
			 "cosmo_dispersion_energy": -15.28, 
			 "cosmo_repulsion_energy": 1.32, 
			 "cosmo_total_nonelectrostatic_energy": 6.52, 
			 "SMD_solvation_energy": 3.12 
		},
		"coords": [
			{
				"x": 0.334875919,
				"y": -1.8772349564,
				"z": 1.0206280172,
				"element": "C" 
			},
			{
				"x": -0.1130169809,
				"y": -0.4041231207,
				"z": 1.0298888213,
				"element": "C" 
			},
			{
				"x": 0.399215193,
				"y": 0.3898666848,
				"z": -0.1395880257,
				"element": "C" 
			},
			{
				"x": 1.2360622766,
				"y": 1.4347788938,
				"z": -0.0977586565,
				"element": "C" 
			},
			{
				"x": 1.5766780881,
				"y": 1.969254284,
				"z": -1.4690395753,
				"element": "C" 
			},
			{
				"x": 0.5221291816,
				"y": 1.2829214142,
				"z": -2.3769780482,
				"element": "C" 
			},
			{
				"x": 0.0382290719,
				"y": 0.0479920301,
				"z": -1.5762593432,
				"element": "C" 
			},
			{
				"x": -0.0639757757,
				"y": -2.4114757409,
				"z": 1.8890859029,
				"element": "H" 
			},
			{
				"x": 1.4267877478,
				"y": -1.9539498918,
				"z": 1.0473127388,
				"element": "H" 
			},
			{
				"x": -0.0142962121,
				"y": -2.3969530105,
				"z": 0.1223731165,
				"element": "H" 
			},
			{
				"x": 0.2136940172,
				"y": 0.0708532062,
				"z": 1.9624877267,
				"element": "H" 
			},
			{
				"x": -1.2127554137,
				"y": -0.3735081015,
				"z": 1.0335650546,
				"element": "H" 
			},
			{
				"x": 1.6623529548,
				"y": 1.8431641211,
				"z": 0.8151749887,
				"element": "H" 
			},
			{
				"x": 2.6027157624,
				"y": 1.6896352068,
				"z": -1.7530296805,
				"element": "H" 
			},
			{
				"x": 1.5312531441,
				"y": 3.0636475496,
				"z": -1.5292220151,
				"element": "H" 
			},
			{
				"x": 0.9129497676,
				"y": 1.0242555173,
				"z": -3.3654654352,
				"element": "H" 
			},
			{
				"x": -0.3199882542,
				"y": 1.9663898356,
				"z": -2.5305057205,
				"element": "H" 
			},
			{
				"x": -1.0344303048,
				"y": -0.1456987063,
				"z": -1.7073823169,
				"element": "H" 
			},
			{
				"x": 0.5548198173,
				"y": -0.8695152155,
				"z": -1.8949875497,
				"element": "H" 
			}
		],
		 "valence_orbital": [ 
			{
				"type": "occ",
				"energy": -0.33316,
				"method": "rhf"
			},
			{
				"type": "occ",
				"energy": -0.33242,
				"method": "rhf"
			},
			{
				"type": "occ",
				"energy": -0.32483,
				"method": "rhf"
			},
			{
				"type": "occ",
				"energy": -0.31574,
				"method": "rhf"
			},
			{
				"type": "occ",
				"energy": -0.22314,
				"method": "rhf"
			},
			{
				"type": "unocc",
				"energy": 0.03487,
				"method": "rhf"
			},
			{
				"type": "unocc",
				"energy": 0.09496,
				"method": "rhf"
			},
			{
				"type": "unocc",
				"energy": 0.11115,
				"method": "rhf"
			},
			{
				"type": "unocc",
				"energy": 0.12647,
				"method": "rhf"
			},
			{
				"type": "unocc",
				"energy": 0.13889,
				"method": "rhf"
			}
		],
		"cosmo_sigma_profile": { 
			"-0.025": 0.0,
			"-0.024": 0.0,
			"-0.023": 0.0,
			"-0.022": 0.0,
			"-0.021": 0.0,
			"-0.02": 0.0,
			"-0.019": 0.0,
			"-0.018": 0.0,
			"-0.017": 0.0,
			"-0.016": 0.0,
			"-0.015": 0.0,
			"-0.014": 0.0,
			"-0.013": 0.0,
			"-0.012": 0.0,
			"-0.011": 0.0,
			"-0.01": 0.0,
			"-0.009": 0.0,
			"-0.008": 0.0,
			"-0.007": 0.0,
			"-0.006": 0.0,
			"-0.005": 0.0027250557282,
			"-0.004": 1.52387263794,
			"-0.003": 10.8003054744,
			"-0.002": 24.8090538656,
			"-0.001": 32.5477124518,
			"0.0": 31.8946657993,
			"0.001": 29.7004102318,
			"0.002": 12.8456091842,
			"0.003": 4.44422365917,
			"0.004": 3.67672015547,
			"0.005": 2.61651934793,
			"0.006": 2.33744485777,
			"0.007": 1.34064886636,
			"0.008": 0.231608820568,
			"0.009": 0.0,
			"0.01": 0.0,
			"0.011": 0.0,
			"0.012": 0.0,
			"0.013": 0.0,
			"0.014": 0.0,
			"0.015": 0.0,
			"0.016": 0.0,
			"0.017": 0.0,
			"0.018": 0.0,
			"0.019": 0.0,
			"0.02": 0.0,
			"0.021": 0.0,
			"0.022": 0.0,
			"0.023": 0.0,
			"0.024": 0.0,
			"0.025": 0.0
		}
	}
}
