{
	 "smiles": "OCC1=CC(Cl)=C(O)C=C1", 
	 "Tm": 359.15, 
	 "num_atms": 17, 
	 "gaussian": { 
		 "optdone": 1, 
		 "sigma_profile": "yes", 
		 "theory": "DFT", 
		 "functional": "B3LYP", 
		 "basiset": "6-31G**", 
		 "properties": { 
			 "R2extent": 3211.0253, 
			 "electric_dipole_moment_norm": 1.32837029852, 
			 "electric_quadrupole_moment_norm": 5.65058173996, 
			 "total_energy": -881.591938721, 
			 "HOMO_LUMO_gap": 0.21051, 
			 "cosmo_polarized_energy": -9.28, 
			 "cosmo_cavitation_energy": 22.65, 
			 "cosmo_dispersion_energy": -17.15, 
			 "cosmo_repulsion_energy": 1.4, 
			 "cosmo_total_nonelectrostatic_energy": 6.91, 
			 "SMD_solvation_energy": 4.01 
		},
		"coords": [
			{
				"x": -0.7520366687,
				"y": 1.9055461134,
				"z": -0.4801576921,
				"element": "O" 
			},
			{
				"x": 0.641490471,
				"y": 2.1589458708,
				"z": -0.585087149,
				"element": "C" 
			},
			{
				"x": 1.4795830823,
				"y": 0.9011934639,
				"z": -0.7163518518,
				"element": "C" 
			},
			{
				"x": 0.9576067756,
				"y": -0.2221039825,
				"z": -1.3648402391,
				"element": "C" 
			},
			{
				"x": 1.7361571278,
				"y": -1.3649212537,
				"z": -1.5108067942,
				"element": "C" 
			},
			{
				"x": 1.0766342549,
				"y": -2.789080573,
				"z": -2.3214871813,
				"element": "Cl" 
			},
			{
				"x": 3.051803133,
				"y": -1.428008968,
				"z": -1.0261467915,
				"element": "C" 
			},
			{
				"x": 3.8420385525,
				"y": -2.5227321015,
				"z": -1.1469715588,
				"element": "O" 
			},
			{
				"x": 3.5676623592,
				"y": -0.300077389,
				"z": -0.3769757064,
				"element": "C" 
			},
			{
				"x": 2.7888629785,
				"y": 0.8422198789,
				"z": -0.2221474015,
				"element": "C" 
			},
			{
				"x": -0.8881018223,
				"y": 1.3478789362,
				"z": 0.2978031562,
				"element": "H" 
			},
			{
				"x": 1.0115318546,
				"y": 2.7578509471,
				"z": 0.2621706024,
				"element": "H" 
			},
			{
				"x": 0.7487220166,
				"y": 2.7817011221,
				"z": -1.4814403622,
				"element": "H" 
			},
			{
				"x": -0.0572988577,
				"y": -0.2009443673,
				"z": -1.7462245736,
				"element": "H" 
			},
			{
				"x": 3.3476438482,
				"y": -3.2146682293,
				"z": -1.6126534374,
				"element": "H" 
			},
			{
				"x": 4.5812204379,
				"y": -0.3510915542,
				"z": 0.0067842699,
				"element": "H" 
			},
			{
				"x": 3.2074804567,
				"y": 1.7022920861,
				"z": 0.2946327103,
				"element": "H" 
			}
		],
		 "valence_orbital": [ 
			{
				"type": "occ",
				"energy": -0.33249,
				"method": "rhf"
			},
			{
				"type": "occ",
				"energy": -0.32707,
				"method": "rhf"
			},
			{
				"type": "occ",
				"energy": -0.28141,
				"method": "rhf"
			},
			{
				"type": "occ",
				"energy": -0.25615,
				"method": "rhf"
			},
			{
				"type": "occ",
				"energy": -0.22716,
				"method": "rhf"
			},
			{
				"type": "unocc",
				"energy": -0.01665,
				"method": "rhf"
			},
			{
				"type": "unocc",
				"energy": -0.00339,
				"method": "rhf"
			},
			{
				"type": "unocc",
				"energy": 0.01986,
				"method": "rhf"
			},
			{
				"type": "unocc",
				"energy": 0.08153,
				"method": "rhf"
			},
			{
				"type": "unocc",
				"energy": 0.08766,
				"method": "rhf"
			}
		],
		"cosmo_sigma_profile": { 
			"-0.025": 0.0,
			"-0.024": 0.0,
			"-0.023": 0.0,
			"-0.022": 0.0,
			"-0.021": 0.0,
			"-0.02": 0.0,
			"-0.019": 0.0,
			"-0.018": 0.0,
			"-0.017": 0.0,
			"-0.016": 0.317553350056,
			"-0.015": 1.30604599883,
			"-0.014": 1.45829542542,
			"-0.013": 1.26557317296,
			"-0.012": 1.18158079297,
			"-0.011": 2.1412597898,
			"-0.01": 1.79223342318,
			"-0.009": 1.5852667327,
			"-0.008": 1.55220947446,
			"-0.007": 3.26595635301,
			"-0.006": 7.5777591478,
			"-0.005": 12.6227776386,
			"-0.004": 11.5050117051,
			"-0.003": 10.7262334328,
			"-0.002": 12.8265149044,
			"-0.001": 10.8173041394,
			"0.0": 10.4610152241,
			"0.001": 13.6325891868,
			"0.002": 15.922612837,
			"0.003": 17.1836979095,
			"0.004": 17.1257188174,
			"0.005": 6.00974658437,
			"0.006": 2.7456948257,
			"0.007": 1.62621861335,
			"0.008": 2.73298066164,
			"0.009": 3.40000216306,
			"0.01": 2.49950030463,
			"0.011": 1.89652463021,
			"0.012": 1.78235456685,
			"0.013": 1.4940358927,
			"0.014": 1.70038359445,
			"0.015": 0.0114469188825,
			"0.016": 0.0,
			"0.017": 0.0,
			"0.018": 0.0,
			"0.019": 0.0,
			"0.02": 0.0,
			"0.021": 0.0,
			"0.022": 0.0,
			"0.023": 0.0,
			"0.024": 0.0,
			"0.025": 0.0
		}
	}
}
