{
	 "smiles": "CN1C=NC=C1C=O", 
	 "Tm": 328.15, 
	 "num_atms": 14, 
	 "gaussian": { 
		 "optdone": 1, 
		 "sigma_profile": "yes", 
		 "theory": "DFT", 
		 "functional": "B3LYP", 
		 "basiset": "6-31G**", 
		 "properties": { 
			 "R2extent": 943.8594, 
			 "electric_dipole_moment_norm": 5.18108206748, 
			 "electric_quadrupole_moment_norm": 7.03864943579, 
			 "total_energy": -378.85314357, 
			 "HOMO_LUMO_gap": 0.18861, 
			 "cosmo_polarized_energy": -14.48, 
			 "cosmo_cavitation_energy": 18.54, 
			 "cosmo_dispersion_energy": -13.46, 
			 "cosmo_repulsion_energy": 1.1, 
			 "cosmo_total_nonelectrostatic_energy": 6.18, 
			 "SMD_solvation_energy": 3.28 
		},
		"coords": [
			{
				"x": 1.8679843817,
				"y": 0.6697756897,
				"z": 0.2286430964,
				"element": "C" 
			},
			{
				"x": 0.7847826856,
				"y": -0.1999037713,
				"z": -0.2060333948,
				"element": "N" 
			},
			{
				"x": 0.8085450868,
				"y": -1.0322254241,
				"z": -1.2788110903,
				"element": "C" 
			},
			{
				"x": -0.3217680688,
				"y": -1.7062793571,
				"z": -1.4357970293,
				"element": "N" 
			},
			{
				"x": -1.1194419093,
				"y": -1.2914016726,
				"z": -0.4144748288,
				"element": "C" 
			},
			{
				"x": -0.4719856255,
				"y": -0.3525279375,
				"z": 0.3780251091,
				"element": "C" 
			},
			{
				"x": -0.9301900307,
				"y": 0.355414359,
				"z": 1.5616827643,
				"element": "C" 
			},
			{
				"x": -2.0354528218,
				"y": 0.2068711245,
				"z": 2.0571325989,
				"element": "O" 
			},
			{
				"x": 1.5578134469,
				"y": 1.718254767,
				"z": 0.2109389011,
				"element": "H" 
			},
			{
				"x": 2.1946812551,
				"y": 0.4109452791,
				"z": 1.2396357306,
				"element": "H" 
			},
			{
				"x": 2.7103578976,
				"y": 0.5433487547,
				"z": -0.4535288625,
				"element": "H" 
			},
			{
				"x": 1.6789247282,
				"y": -1.1108550512,
				"z": -1.9177242732,
				"element": "H" 
			},
			{
				"x": -2.1225977252,
				"y": -1.6689682229,
				"z": -0.2732447942,
				"element": "H" 
			},
			{
				"x": -0.1987533005,
				"y": 1.0644514627,
				"z": 2.0101560726,
				"element": "H" 
			}
		],
		 "valence_orbital": [ 
			{
				"type": "occ",
				"energy": -0.38174,
				"method": "rhf"
			},
			{
				"type": "occ",
				"energy": -0.28886,
				"method": "rhf"
			},
			{
				"type": "occ",
				"energy": -0.28402,
				"method": "rhf"
			},
			{
				"type": "occ",
				"energy": -0.25384,
				"method": "rhf"
			},
			{
				"type": "occ",
				"energy": -0.24488,
				"method": "rhf"
			},
			{
				"type": "unocc",
				"energy": -0.05627,
				"method": "rhf"
			},
			{
				"type": "unocc",
				"energy": 0.0322,
				"method": "rhf"
			},
			{
				"type": "unocc",
				"energy": 0.07002,
				"method": "rhf"
			},
			{
				"type": "unocc",
				"energy": 0.09466,
				"method": "rhf"
			},
			{
				"type": "unocc",
				"energy": 0.10442,
				"method": "rhf"
			}
		],
		"cosmo_sigma_profile": { 
			"-0.025": 0.0,
			"-0.024": 0.0,
			"-0.023": 0.0,
			"-0.022": 0.0,
			"-0.021": 0.0,
			"-0.02": 0.0,
			"-0.019": 0.0,
			"-0.018": 0.0,
			"-0.017": 0.0,
			"-0.016": 0.0,
			"-0.015": 0.0,
			"-0.014": 0.0,
			"-0.013": 0.0,
			"-0.012": 0.0,
			"-0.011": 0.0540143581177,
			"-0.01": 2.5001738525,
			"-0.009": 3.36273397357,
			"-0.008": 6.36788985557,
			"-0.007": 13.5893900257,
			"-0.006": 11.8794161091,
			"-0.005": 10.8659364969,
			"-0.004": 12.2102998522,
			"-0.003": 8.70376579399,
			"-0.002": 5.55894224917,
			"-0.001": 5.79925832094,
			"0.0": 7.15731581756,
			"0.001": 7.11287227168,
			"0.002": 8.51703436878,
			"0.003": 4.15308685723,
			"0.004": 3.55993370429,
			"0.005": 4.4214035331,
			"0.006": 2.84175756604,
			"0.007": 2.9129369958,
			"0.008": 3.15709024422,
			"0.009": 2.50566089852,
			"0.01": 3.54272926264,
			"0.011": 5.10356283778,
			"0.012": 5.63567987298,
			"0.013": 2.91650844784,
			"0.014": 1.11683658782,
			"0.015": 1.33894156648,
			"0.016": 0.888418771313,
			"0.017": 0.709595578451,
			"0.018": 0.0323797437114,
			"0.019": 0.0,
			"0.02": 0.0,
			"0.021": 0.0,
			"0.022": 0.0,
			"0.023": 0.0,
			"0.024": 0.0,
			"0.025": 0.0
		}
	}
}
