{
	 "smiles": "CCC1=C(C=C(C=C1)S(C)(=O)=O)C(O)=O", 
	 "Tm": 425.15, 
	 "num_atms": 27, 
	 "gaussian": { 
		 "optdone": 1, 
		 "sigma_profile": "yes", 
		 "theory": "DFT", 
		 "functional": "B3LYP", 
		 "basiset": "6-31G**", 
		 "properties": { 
			 "R2extent": 5017.9614, 
			 "electric_dipole_moment_norm": 6.0321107218, 
			 "electric_quadrupole_moment_norm": 23.0116902093, 
			 "total_energy": -1087.33921319, 
			 "HOMO_LUMO_gap": 0.20618, 
			 "cosmo_polarized_energy": -19.25, 
			 "cosmo_cavitation_energy": 32.12, 
			 "cosmo_dispersion_energy": -23.33, 
			 "cosmo_repulsion_energy": 1.79, 
			 "cosmo_total_nonelectrostatic_energy": 10.59, 
			 "SMD_solvation_energy": 6.45 
		},
		"coords": [
			{
				"x": -2.6894098036,
				"y": -0.3514752195,
				"z": -0.732474572,
				"element": "C" 
			},
			{
				"x": -2.1451866824,
				"y": -0.5063792565,
				"z": 0.7003345408,
				"element": "C" 
			},
			{
				"x": -0.7416727631,
				"y": 0.0467394173,
				"z": 0.8610873325,
				"element": "C" 
			},
			{
				"x": 0.4554660214,
				"y": -0.6334730522,
				"z": 0.5193908806,
				"element": "C" 
			},
			{
				"x": 1.6967765737,
				"y": -0.0003230213,
				"z": 0.697485032,
				"element": "C" 
			},
			{
				"x": 1.763503075,
				"y": 1.2963457485,
				"z": 1.1878496454,
				"element": "C" 
			},
			{
				"x": 0.6012791827,
				"y": 1.9860426977,
				"z": 1.5341607233,
				"element": "C" 
			},
			{
				"x": -0.6254783514,
				"y": 1.3528305262,
				"z": 1.3677644757,
				"element": "C" 
			},
			{
				"x": 3.3655169596,
				"y": 2.0890348259,
				"z": 1.4106883497,
				"element": "S" 
			},
			{
				"x": 3.7505394427,
				"y": 2.7372767843,
				"z": -0.2337203604,
				"element": "C" 
			},
			{
				"x": 4.3543757269,
				"y": 1.0453127025,
				"z": 1.7160597252,
				"element": "O" 
			},
			{
				"x": 3.1662329969,
				"y": 3.2397039387,
				"z": 2.306108409,
				"element": "O" 
			},
			{
				"x": 0.5701663046,
				"y": -2.0231707926,
				"z": -0.0277002889,
				"element": "C" 
			},
			{
				"x": -0.60249464,
				"y": -2.6822846972,
				"z": -0.188465294,
				"element": "O" 
			},
			{
				"x": 1.6271214651,
				"y": -2.5462684803,
				"z": -0.3209235852,
				"element": "O" 
			},
			{
				"x": -2.6951773633,
				"y": 0.6989784955,
				"z": -1.0410497135,
				"element": "H" 
			},
			{
				"x": -2.0830582588,
				"y": -0.9152114797,
				"z": -1.4455267342,
				"element": "H" 
			},
			{
				"x": -3.7159196759,
				"y": -0.7269345888,
				"z": -0.7904666948,
				"element": "H" 
			},
			{
				"x": -2.1796688574,
				"y": -1.5572176173,
				"z": 0.98850731,
				"element": "H" 
			},
			{
				"x": -2.799707951,
				"y": 0.0393430028,
				"z": 1.3886744081,
				"element": "H" 
			},
			{
				"x": 2.5987639872,
				"y": -0.5535405644,
				"z": 0.4607125997,
				"element": "H" 
			},
			{
				"x": 0.6693367678,
				"y": 2.9875960928,
				"z": 1.9457544289,
				"element": "H" 
			},
			{
				"x": -1.5328872881,
				"y": 1.8812585157,
				"z": 1.6464713728,
				"element": "H" 
			},
			{
				"x": 4.7194913953,
				"y": 3.2330828595,
				"z": -0.1456003212,
				"element": "H" 
			},
			{
				"x": 3.8110679012,
				"y": 1.9094914934,
				"z": -0.941528305,
				"element": "H" 
			},
			{
				"x": 2.9821693875,
				"y": 3.4540349709,
				"z": -0.5267614406,
				"element": "H" 
			},
			{
				"x": -0.3591455527,
				"y": -3.5541933019,
				"z": -0.5434319239,
				"element": "H" 
			}
		],
		 "valence_orbital": [ 
			{
				"type": "occ",
				"energy": -0.29614,
				"method": "rhf"
			},
			{
				"type": "occ",
				"energy": -0.29251,
				"method": "rhf"
			},
			{
				"type": "occ",
				"energy": -0.28848,
				"method": "rhf"
			},
			{
				"type": "occ",
				"energy": -0.27977,
				"method": "rhf"
			},
			{
				"type": "occ",
				"energy": -0.27349,
				"method": "rhf"
			},
			{
				"type": "unocc",
				"energy": -0.06731,
				"method": "rhf"
			},
			{
				"type": "unocc",
				"energy": -0.04148,
				"method": "rhf"
			},
			{
				"type": "unocc",
				"energy": 0.03039,
				"method": "rhf"
			},
			{
				"type": "unocc",
				"energy": 0.05859,
				"method": "rhf"
			},
			{
				"type": "unocc",
				"energy": 0.07345,
				"method": "rhf"
			}
		],
		"cosmo_sigma_profile": { 
			"-0.025": 0.0,
			"-0.024": 0.0,
			"-0.023": 0.0,
			"-0.022": 0.0,
			"-0.021": 0.0,
			"-0.02": 0.0,
			"-0.019": 0.173579309368,
			"-0.018": 0.667508634615,
			"-0.017": 0.924140414539,
			"-0.016": 1.30138987594,
			"-0.015": 0.435414893725,
			"-0.014": 0.301814370223,
			"-0.013": 0.528245593375,
			"-0.012": 0.991658363524,
			"-0.011": 1.35904494521,
			"-0.01": 0.467032817984,
			"-0.009": 3.2025302703,
			"-0.008": 8.29588328618,
			"-0.007": 9.85543869657,
			"-0.006": 11.940155157,
			"-0.005": 12.0823961529,
			"-0.004": 13.8064853053,
			"-0.003": 20.475326784,
			"-0.002": 22.2662630336,
			"-0.001": 23.623348556,
			"0.0": 23.0706909316,
			"0.001": 23.2358627337,
			"0.002": 11.5704263146,
			"0.003": 6.49631807103,
			"0.004": 5.67000899855,
			"0.005": 4.34909657649,
			"0.006": 3.30966871453,
			"0.007": 4.57336491397,
			"0.008": 4.60534120752,
			"0.009": 4.34226439381,
			"0.01": 6.57551462012,
			"0.011": 13.900332446,
			"0.012": 9.83153033773,
			"0.013": 0.576157697976,
			"0.014": 0.0,
			"0.015": 0.0,
			"0.016": 0.0,
			"0.017": 0.0,
			"0.018": 0.0,
			"0.019": 0.0,
			"0.02": 0.0,
			"0.021": 0.0,
			"0.022": 0.0,
			"0.023": 0.0,
			"0.024": 0.0,
			"0.025": 0.0
		}
	}
}
