{
	 "smiles": "CNC1CCC(CC1)NC(=O)OC(C)(C)C", 
	 "Tm": 346.15, 
	 "num_atms": 40, 
	 "gaussian": { 
		 "optdone": 1, 
		 "sigma_profile": "yes", 
		 "theory": "DFT", 
		 "functional": "B3LYP", 
		 "basiset": "6-31G**", 
		 "properties": { 
			 "R2extent": 4615.1212, 
			 "electric_dipole_moment_norm": 1.60318933068, 
			 "electric_quadrupole_moment_norm": 18.8674990908, 
			 "total_energy": -731.728015194, 
			 "HOMO_LUMO_gap": 0.26741, 
			 "cosmo_polarized_energy": -10.93, 
			 "cosmo_cavitation_energy": 38.09, 
			 "cosmo_dispersion_energy": -25.77, 
			 "cosmo_repulsion_energy": 2.01, 
			 "cosmo_total_nonelectrostatic_energy": 14.33, 
			 "SMD_solvation_energy": 4.61 
		},
		"coords": [
			{
				"x": 0.2901806129,
				"y": -2.6306286114,
				"z": 2.4138534939,
				"element": "C" 
			},
			{
				"x": 0.1598256844,
				"y": -1.1999956896,
				"z": 2.1636091822,
				"element": "N" 
			},
			{
				"x": 1.3405220398,
				"y": -0.5434735559,
				"z": 1.5948007276,
				"element": "C" 
			},
			{
				"x": 1.7192616465,
				"y": -0.9915953701,
				"z": 0.1661048555,
				"element": "C" 
			},
			{
				"x": 2.9693296212,
				"y": -0.2618893653,
				"z": -0.34848628,
				"element": "C" 
			},
			{
				"x": 2.9119638306,
				"y": 1.2816863993,
				"z": -0.2563507346,
				"element": "C" 
			},
			{
				"x": 2.3597624231,
				"y": 1.7465218682,
				"z": 1.1131263892,
				"element": "C" 
			},
			{
				"x": 1.1349478178,
				"y": 0.978742708,
				"z": 1.6311169472,
				"element": "C" 
			},
			{
				"x": 2.3466246633,
				"y": 1.9636484623,
				"z": -1.4389044031,
				"element": "N" 
			},
			{
				"x": 1.1181508399,
				"y": 2.0516532302,
				"z": -2.0369660785,
				"element": "C" 
			},
			{
				"x": 0.9590244143,
				"y": 2.7038003278,
				"z": -3.0605032018,
				"element": "O" 
			},
			{
				"x": 0.1444558079,
				"y": 1.3663692548,
				"z": -1.3902183777,
				"element": "O" 
			},
			{
				"x": -1.234201004,
				"y": 1.3783694421,
				"z": -1.9197747172,
				"element": "C" 
			},
			{
				"x": -2.0010244573,
				"y": 0.5080156343,
				"z": -0.9197590469,
				"element": "C" 
			},
			{
				"x": -1.788149406,
				"y": 2.8075476133,
				"z": -1.9152943687,
				"element": "C" 
			},
			{
				"x": -1.2685776524,
				"y": 0.743307918,
				"z": -3.3144837436,
				"element": "C" 
			},
			{
				"x": 1.0927815009,
				"y": -2.7978442022,
				"z": 3.1417660978,
				"element": "H" 
			},
			{
				"x": -0.6376346423,
				"y": -3.00396795,
				"z": 2.8593452482,
				"element": "H" 
			},
			{
				"x": 0.5115372467,
				"y": -3.2540893338,
				"z": 1.5301026445,
				"element": "H" 
			},
			{
				"x": -0.6405680941,
				"y": -1.0272889908,
				"z": 1.5595387672,
				"element": "H" 
			},
			{
				"x": 2.1814574909,
				"y": -0.7914981851,
				"z": 2.2630635721,
				"element": "H" 
			},
			{
				"x": 1.9066113988,
				"y": -2.0715974291,
				"z": 0.14329828,
				"element": "H" 
			},
			{
				"x": 0.8743337067,
				"y": -0.7939801872,
				"z": -0.5008979297,
				"element": "H" 
			},
			{
				"x": 3.8277779794,
				"y": -0.5827043784,
				"z": 0.2585798667,
				"element": "H" 
			},
			{
				"x": 3.1950381709,
				"y": -0.5518966343,
				"z": -1.380576651,
				"element": "H" 
			},
			{
				"x": 3.9520231856,
				"y": 1.6237755561,
				"z": -0.2899360889,
				"element": "H" 
			},
			{
				"x": 2.1544483454,
				"y": 2.8216062319,
				"z": 1.0706864732,
				"element": "H" 
			},
			{
				"x": 3.1756060376,
				"y": 1.6154293074,
				"z": 1.8376842814,
				"element": "H" 
			},
			{
				"x": 0.9161473997,
				"y": 1.2815042423,
				"z": 2.6608143099,
				"element": "H" 
			},
			{
				"x": 0.2597089867,
				"y": 1.2320769539,
				"z": 1.0260439336,
				"element": "H" 
			},
			{
				"x": 3.0118088612,
				"y": 2.4914214643,
				"z": -1.9837585447,
				"element": "H" 
			},
			{
				"x": -1.5886161561,
				"y": -0.5049975034,
				"z": -0.8860790423,
				"element": "H" 
			},
			{
				"x": -1.9621281573,
				"y": 0.9377340912,
				"z": 0.0855762642,
				"element": "H" 
			},
			{
				"x": -3.0507701272,
				"y": 0.4381599852,
				"z": -1.2198877856,
				"element": "H" 
			},
			{
				"x": -2.8467894416,
				"y": 2.7898987767,
				"z": -2.1945468973,
				"element": "H" 
			},
			{
				"x": -1.7095284323,
				"y": 3.2415819666,
				"z": -0.913316217,
				"element": "H" 
			},
			{
				"x": -1.2458690594,
				"y": 3.4382603205,
				"z": -2.6188942846,
				"element": "H" 
			},
			{
				"x": -2.3072689311,
				"y": 0.6515401957,
				"z": -3.648712773,
				"element": "H" 
			},
			{
				"x": -0.7169418281,
				"y": 1.3492202065,
				"z": -4.0324491315,
				"element": "H" 
			},
			{
				"x": -0.8324623229,
				"y": -0.2605247699,
				"z": -3.2856150365,
				"element": "H" 
			}
		],
		 "valence_orbital": [ 
			{
				"type": "occ",
				"energy": -0.30583,
				"method": "rhf"
			},
			{
				"type": "occ",
				"energy": -0.28491,
				"method": "rhf"
			},
			{
				"type": "occ",
				"energy": -0.25534,
				"method": "rhf"
			},
			{
				"type": "occ",
				"energy": -0.24202,
				"method": "rhf"
			},
			{
				"type": "occ",
				"energy": -0.20941,
				"method": "rhf"
			},
			{
				"type": "unocc",
				"energy": 0.058,
				"method": "rhf"
			},
			{
				"type": "unocc",
				"energy": 0.06021,
				"method": "rhf"
			},
			{
				"type": "unocc",
				"energy": 0.06845,
				"method": "rhf"
			},
			{
				"type": "unocc",
				"energy": 0.09223,
				"method": "rhf"
			},
			{
				"type": "unocc",
				"energy": 0.10516,
				"method": "rhf"
			}
		],
		"cosmo_sigma_profile": { 
			"-0.025": 0.0,
			"-0.024": 0.0,
			"-0.023": 0.0,
			"-0.022": 0.0,
			"-0.021": 0.0,
			"-0.02": 0.0,
			"-0.019": 0.0,
			"-0.018": 0.0,
			"-0.017": 0.0,
			"-0.016": 0.0,
			"-0.015": 0.0,
			"-0.014": 0.00162840633477,
			"-0.013": 0.725157990396,
			"-0.012": 1.222834976,
			"-0.011": 0.91209405984,
			"-0.01": 1.11061010346,
			"-0.009": 1.2777607813,
			"-0.008": 0.713225810829,
			"-0.007": 1.58254909912,
			"-0.006": 2.35647305606,
			"-0.005": 5.16747033038,
			"-0.004": 15.7969618008,
			"-0.003": 34.2367192163,
			"-0.002": 43.3122459264,
			"-0.001": 40.6072037199,
			"0.0": 49.9251496577,
			"0.001": 38.5474380545,
			"0.002": 15.5470654294,
			"0.003": 7.64299308722,
			"0.004": 3.64969195792,
			"0.005": 2.75254134609,
			"0.006": 3.66109940386,
			"0.007": 2.37438169146,
			"0.008": 2.53288788331,
			"0.009": 1.71143300973,
			"0.01": 2.12546603244,
			"0.011": 1.59212946419,
			"0.012": 2.58691932084,
			"0.013": 3.06211611376,
			"0.014": 3.68525531251,
			"0.015": 1.0786406088,
			"0.016": 0.606840485259,
			"0.017": 0.408892774219,
			"0.018": 0.617065922575,
			"0.019": 0.0123553630067,
			"0.02": 0.0,
			"0.021": 0.0,
			"0.022": 0.0,
			"0.023": 0.0,
			"0.024": 0.0,
			"0.025": 0.0
		}
	}
}
