{
	 "smiles": "CC1=NC(=CS1)C1=CC(N)=CC=C1", 
	 "Tm": 375.15, 
	 "num_atms": 23, 
	 "gaussian": { 
		 "optdone": 1, 
		 "sigma_profile": "yes", 
		 "theory": "DFT", 
		 "functional": "B3LYP", 
		 "basiset": "6-31G**", 
		 "properties": { 
			 "R2extent": 3532.543, 
			 "electric_dipole_moment_norm": 1.71348359782, 
			 "electric_quadrupole_moment_norm": 16.0602364024, 
			 "total_energy": -894.789085359, 
			 "HOMO_LUMO_gap": 0.16548, 
			 "cosmo_polarized_energy": -11.99, 
			 "cosmo_cavitation_energy": 28.55, 
			 "cosmo_dispersion_energy": -21.72, 
			 "cosmo_repulsion_energy": 1.67, 
			 "cosmo_total_nonelectrostatic_energy": 8.5, 
			 "SMD_solvation_energy": 3.5 
		},
		"coords": [
			{
				"x": 2.9690253133,
				"y": 2.712473266,
				"z": 0.8165488435,
				"element": "C" 
			},
			{
				"x": 1.5594104777,
				"y": 2.2185048119,
				"z": 0.6969860001,
				"element": "C" 
			},
			{
				"x": 1.2320321971,
				"y": 0.9971148782,
				"z": 0.4065582115,
				"element": "N" 
			},
			{
				"x": -0.1423657836,
				"y": 0.8126625116,
				"z": 0.3541129938,
				"element": "C" 
			},
			{
				"x": -0.8715838448,
				"y": 1.9440781065,
				"z": 0.6226600103,
				"element": "C" 
			},
			{
				"x": 0.17446731,
				"y": 3.2856274945,
				"z": 0.943627822,
				"element": "S" 
			},
			{
				"x": -0.6755255485,
				"y": -0.5281719559,
				"z": 0.0387047583,
				"element": "C" 
			},
			{
				"x": -2.0390313855,
				"y": -0.7242180719,
				"z": -0.2236573244,
				"element": "C" 
			},
			{
				"x": -2.5488526425,
				"y": -1.9978569642,
				"z": -0.5097376447,
				"element": "C" 
			},
			{
				"x": -3.9202445525,
				"y": -2.1867769564,
				"z": -0.7132819057,
				"element": "N" 
			},
			{
				"x": -1.66513877,
				"y": -3.0911864535,
				"z": -0.5369444886,
				"element": "C" 
			},
			{
				"x": -0.3098858807,
				"y": -2.8961929951,
				"z": -0.2854092909,
				"element": "C" 
			},
			{
				"x": 0.1951242708,
				"y": -1.6288739885,
				"z": 0.0003448036,
				"element": "C" 
			},
			{
				"x": 3.1809238531,
				"y": 3.5032737581,
				"z": 0.0890565247,
				"element": "H" 
			},
			{
				"x": 3.170514895,
				"y": 3.1161378978,
				"z": 1.814454353,
				"element": "H" 
			},
			{
				"x": 3.6452829208,
				"y": 1.8757795109,
				"z": 0.6323227118,
				"element": "H" 
			},
			{
				"x": -1.943911549,
				"y": 2.0618829801,
				"z": 0.6694386046,
				"element": "H" 
			},
			{
				"x": -2.7225925746,
				"y": 0.1209296526,
				"z": -0.2177764972,
				"element": "H" 
			},
			{
				"x": -4.1575728745,
				"y": -3.0022206471,
				"z": -1.261814296,
				"element": "H" 
			},
			{
				"x": -4.4184720795,
				"y": -1.3677533399,
				"z": -1.0346134279,
				"element": "H" 
			},
			{
				"x": -2.0470410815,
				"y": -4.0854525747,
				"z": -0.7554421263,
				"element": "H" 
			},
			{
				"x": 0.3638722052,
				"y": -3.7482668343,
				"z": -0.3145254071,
				"element": "H" 
			},
			{
				"x": 1.2495651241,
				"y": -1.4749940867,
				"z": 0.1935867717,
				"element": "H" 
			}
		],
		 "valence_orbital": [ 
			{
				"type": "occ",
				"energy": -0.27915,
				"method": "rhf"
			},
			{
				"type": "occ",
				"energy": -0.26702,
				"method": "rhf"
			},
			{
				"type": "occ",
				"energy": -0.26287,
				"method": "rhf"
			},
			{
				"type": "occ",
				"energy": -0.21445,
				"method": "rhf"
			},
			{
				"type": "occ",
				"energy": -0.19648,
				"method": "rhf"
			},
			{
				"type": "unocc",
				"energy": -0.031,
				"method": "rhf"
			},
			{
				"type": "unocc",
				"energy": 0.00319,
				"method": "rhf"
			},
			{
				"type": "unocc",
				"energy": 0.01986,
				"method": "rhf"
			},
			{
				"type": "unocc",
				"energy": 0.02277,
				"method": "rhf"
			},
			{
				"type": "unocc",
				"energy": 0.07914,
				"method": "rhf"
			}
		],
		"cosmo_sigma_profile": { 
			"-0.025": 0.0,
			"-0.024": 0.0,
			"-0.023": 0.0,
			"-0.022": 0.0,
			"-0.021": 0.0,
			"-0.02": 0.0,
			"-0.019": 0.0,
			"-0.018": 0.0,
			"-0.017": 0.0,
			"-0.016": 0.0,
			"-0.015": 0.0,
			"-0.014": 0.0,
			"-0.013": 0.156058251949,
			"-0.012": 2.30986533815,
			"-0.011": 2.69400855391,
			"-0.01": 2.79467439756,
			"-0.009": 5.05620003685,
			"-0.008": 4.67581964868,
			"-0.007": 5.74598666424,
			"-0.006": 9.32360246274,
			"-0.005": 14.5433554422,
			"-0.004": 14.5190599352,
			"-0.003": 16.3513270136,
			"-0.002": 15.1680893822,
			"-0.001": 15.0501930584,
			"0.0": 10.7074023047,
			"0.001": 14.5368096749,
			"0.002": 15.8868942308,
			"0.003": 18.0921541787,
			"0.004": 17.7368851219,
			"0.005": 10.5430522628,
			"0.006": 14.0601917354,
			"0.007": 9.04799999857,
			"0.008": 1.40628706765,
			"0.009": 2.46545692733,
			"0.01": 2.06828198575,
			"0.011": 1.67213146288,
			"0.012": 1.54929556181,
			"0.013": 0.913350078789,
			"0.014": 0.512796110057,
			"0.015": 0.421159669259,
			"0.016": 0.0,
			"0.017": 0.0,
			"0.018": 0.0,
			"0.019": 0.0,
			"0.02": 0.0,
			"0.021": 0.0,
			"0.022": 0.0,
			"0.023": 0.0,
			"0.024": 0.0,
			"0.025": 0.0
		}
	}
}
