{
	 "smiles": "OC(=O)C1=CC2=CC=C(C=C2C=C1)C(O)=O", 
	 "Tm": 573.15, 
	 "num_atms": 24, 
	 "gaussian": { 
		 "optdone": 1, 
		 "sigma_profile": "yes", 
		 "theory": "DFT", 
		 "functional": "B3LYP", 
		 "basiset": "6-31G**", 
		 "properties": { 
			 "R2extent": 5474.2916, 
			 "electric_dipole_moment_norm": 0.0, 
			 "electric_quadrupole_moment_norm": 17.7447527543, 
			 "total_energy": -763.044396467, 
			 "HOMO_LUMO_gap": 0.15438, 
			 "cosmo_polarized_energy": -14.64, 
			 "cosmo_cavitation_energy": 29.71, 
			 "cosmo_dispersion_energy": -21.91, 
			 "cosmo_repulsion_energy": 1.67, 
			 "cosmo_total_nonelectrostatic_energy": 9.47, 
			 "SMD_solvation_energy": 7.29 
		},
		"coords": [
			{
				"x": 0.233120178,
				"y": 1.6369260942,
				"z": -5.111518278,
				"element": "O" 
			},
			{
				"x": 0.8925192432,
				"y": 0.6426182185,
				"z": -4.4664153759,
				"element": "C" 
			},
			{
				"x": 1.9042102757,
				"y": 0.1409403193,
				"z": -4.9153075407,
				"element": "O" 
			},
			{
				"x": 0.2448415031,
				"y": 0.255184105,
				"z": -3.1836114549,
				"element": "C" 
			},
			{
				"x": 0.8356397043,
				"y": -0.7516519127,
				"z": -2.4430039089,
				"element": "C" 
			},
			{
				"x": 0.2756455732,
				"y": -1.1726603215,
				"z": -1.2130500761,
				"element": "C" 
			},
			{
				"x": 0.8607929711,
				"y": -2.2057392671,
				"z": -0.4291104892,
				"element": "C" 
			},
			{
				"x": 0.2964967089,
				"y": -2.5951963684,
				"z": 0.7614268343,
				"element": "C" 
			},
			{
				"x": -0.8900075951,
				"y": -1.9634297296,
				"z": 1.2269097457,
				"element": "C" 
			},
			{
				"x": -1.4808064576,
				"y": -0.9565949697,
				"z": 0.4863009179,
				"element": "C" 
			},
			{
				"x": -0.9208117572,
				"y": -0.5355860882,
				"z": -0.74365235,
				"element": "C" 
			},
			{
				"x": -1.5059595134,
				"y": 0.4974928571,
				"z": -1.5275918466,
				"element": "C" 
			},
			{
				"x": -0.9416634939,
				"y": 0.8869496047,
				"z": -2.7181293384,
				"element": "C" 
			},
			{
				"x": -1.5376829858,
				"y": -2.3508599938,
				"z": 2.5097163405,
				"element": "C" 
			},
			{
				"x": -0.8783448313,
				"y": -3.3452423454,
				"z": 3.15476695,
				"element": "O" 
			},
			{
				"x": -2.5494265182,
				"y": -1.8492467615,
				"z": 2.9585623169,
				"element": "O" 
			},
			{
				"x": 0.7381938524,
				"y": 1.8052103478,
				"z": -5.9239559064,
				"element": "H" 
			},
			{
				"x": 1.7406182979,
				"y": -1.2178395421,
				"z": -2.8201201658,
				"element": "H" 
			},
			{
				"x": 1.7669327559,
				"y": -2.6847764503,
				"z": -0.7894296014,
				"element": "H" 
			},
			{
				"x": 0.7449574018,
				"y": -3.3823696912,
				"z": 1.3558551651,
				"element": "H" 
			},
			{
				"x": -2.3857850893,
				"y": -0.4904071832,
				"z": 0.8634168075,
				"element": "H" 
			},
			{
				"x": -2.412099236,
				"y": 0.9765299463,
				"z": -1.1672722776,
				"element": "H" 
			},
			{
				"x": -1.3901235937,
				"y": 1.6741238452,
				"z": -3.3125570507,
				"element": "H" 
			},
			{
				"x": -1.3834573941,
				"y": -3.5135747133,
				"z": 3.9671705828,
				"element": "H" 
			}
		],
		 "valence_orbital": [ 
			{
				"type": "occ",
				"energy": -0.29998,
				"method": "rhf"
			},
			{
				"type": "occ",
				"energy": -0.28285,
				"method": "rhf"
			},
			{
				"type": "occ",
				"energy": -0.28162,
				"method": "rhf"
			},
			{
				"type": "occ",
				"energy": -0.26308,
				"method": "rhf"
			},
			{
				"type": "occ",
				"energy": -0.23391,
				"method": "rhf"
			},
			{
				"type": "unocc",
				"energy": -0.07953,
				"method": "rhf"
			},
			{
				"type": "unocc",
				"energy": -0.04107,
				"method": "rhf"
			},
			{
				"type": "unocc",
				"energy": -0.01626,
				"method": "rhf"
			},
			{
				"type": "unocc",
				"energy": 0.02518,
				"method": "rhf"
			},
			{
				"type": "unocc",
				"energy": 0.0605,
				"method": "rhf"
			}
		],
		"cosmo_sigma_profile": { 
			"-0.025": 0.0,
			"-0.024": 0.0,
			"-0.023": 0.0,
			"-0.022": 0.0,
			"-0.021": 0.0,
			"-0.02": 0.0,
			"-0.019": 0.13918603326,
			"-0.018": 2.18648910504,
			"-0.017": 1.63373280799,
			"-0.016": 0.89004322196,
			"-0.015": 2.22972363529,
			"-0.014": 1.19845443102,
			"-0.013": 0.912881288306,
			"-0.012": 1.08882999933,
			"-0.011": 2.33229082302,
			"-0.01": 1.36168506725,
			"-0.009": 0.858664861073,
			"-0.008": 2.12620096497,
			"-0.007": 10.5409554598,
			"-0.006": 10.6070454712,
			"-0.005": 10.4883373846,
			"-0.004": 8.83971044225,
			"-0.003": 11.8607513479,
			"-0.002": 13.5656041115,
			"-0.001": 14.7303125859,
			"0.0": 19.288293635,
			"0.001": 31.083831756,
			"0.002": 27.4219991782,
			"0.003": 14.4557095149,
			"0.004": 5.86536202472,
			"0.005": 6.34997167058,
			"0.006": 4.88781973197,
			"0.007": 5.88759469013,
			"0.008": 2.79400031852,
			"0.009": 3.86780784419,
			"0.01": 3.96120082485,
			"0.011": 8.54385920735,
			"0.012": 6.48746472147,
			"0.013": 0.0504595746498,
			"0.014": 0.0,
			"0.015": 0.0,
			"0.016": 0.0,
			"0.017": 0.0,
			"0.018": 0.0,
			"0.019": 0.0,
			"0.02": 0.0,
			"0.021": 0.0,
			"0.022": 0.0,
			"0.023": 0.0,
			"0.024": 0.0,
			"0.025": 0.0
		}
	}
}
