{
	 "smiles": "CC1=C(C)C2=C(S1)N=CN(CC(O)=O)C2=O", 
	 "Tm": 503.15, 
	 "num_atms": 26, 
	 "gaussian": { 
		 "optdone": 1, 
		 "sigma_profile": "yes", 
		 "theory": "DFT", 
		 "functional": "B3LYP", 
		 "basiset": "6-31G**", 
		 "properties": { 
			 "R2extent": 4987.9795, 
			 "electric_dipole_moment_norm": 1.60933361675, 
			 "electric_quadrupole_moment_norm": 26.3840278993, 
			 "total_energy": -1120.48767047, 
			 "HOMO_LUMO_gap": 0.16868, 
			 "cosmo_polarized_energy": -17.6, 
			 "cosmo_cavitation_energy": 32.0, 
			 "cosmo_dispersion_energy": -23.49, 
			 "cosmo_repulsion_energy": 1.78, 
			 "cosmo_total_nonelectrostatic_energy": 10.29, 
			 "SMD_solvation_energy": 5.38 
		},
		"coords": [
			{
				"x": 1.8424677606,
				"y": 3.70039843,
				"z": -1.4384814829,
				"element": "C" 
			},
			{
				"x": 1.7751576257,
				"y": 2.251662489,
				"z": -1.0537715579,
				"element": "C" 
			},
			{
				"x": 0.6783085641,
				"y": 1.4588145388,
				"z": -0.8247366812,
				"element": "C" 
			},
			{
				"x": -0.7592624871,
				"y": 1.8961005549,
				"z": -0.913771339,
				"element": "C" 
			},
			{
				"x": 1.0630245269,
				"y": 0.112414715,
				"z": -0.4780124211,
				"element": "C" 
			},
			{
				"x": 2.4396298157,
				"y": -0.087563943,
				"z": -0.4474280085,
				"element": "C" 
			},
			{
				"x": 3.2929409523,
				"y": 1.3758626996,
				"z": -0.8478902912,
				"element": "S" 
			},
			{
				"x": 3.0858427979,
				"y": -1.2485028429,
				"z": -0.1457211452,
				"element": "N" 
			},
			{
				"x": 2.301323543,
				"y": -2.2445776137,
				"z": 0.1307417267,
				"element": "C" 
			},
			{
				"x": 0.9317017994,
				"y": -2.1984382304,
				"z": 0.1148818413,
				"element": "N" 
			},
			{
				"x": 0.1504732342,
				"y": -3.3632573777,
				"z": 0.4898198085,
				"element": "C" 
			},
			{
				"x": -0.1557122193,
				"y": -3.3811074295,
				"z": 1.9836776571,
				"element": "C" 
			},
			{
				"x": -1.0502636972,
				"y": -4.3521140029,
				"z": 2.2632329591,
				"element": "O" 
			},
			{
				"x": 0.3420450211,
				"y": -2.6582139228,
				"z": 2.8117464432,
				"element": "O" 
			},
			{
				"x": 0.1984212227,
				"y": -1.0025109502,
				"z": -0.1560365194,
				"element": "C" 
			},
			{
				"x": -1.0278398273,
				"y": -1.0175905831,
				"z": -0.1063990172,
				"element": "O" 
			},
			{
				"x": 2.3924458323,
				"y": 4.2895423043,
				"z": -0.6955784463,
				"element": "H" 
			},
			{
				"x": 0.8409862578,
				"y": 4.1265688027,
				"z": -1.5232718547,
				"element": "H" 
			},
			{
				"x": 2.3451515614,
				"y": 3.8388949946,
				"z": -2.402763004,
				"element": "H" 
			},
			{
				"x": -0.8466060891,
				"y": 2.9531830163,
				"z": -1.1726044375,
				"element": "H" 
			},
			{
				"x": -1.2991470833,
				"y": 1.3109459279,
				"z": -1.6643693773,
				"element": "H" 
			},
			{
				"x": -1.2760266789,
				"y": 1.7262179089,
				"z": 0.0350876999,
				"element": "H" 
			},
			{
				"x": 2.7356632993,
				"y": -3.2075915604,
				"z": 0.3881628392,
				"element": "H" 
			},
			{
				"x": -0.7905945522,
				"y": -3.3475905302,
				"z": -0.0618548984,
				"element": "H" 
			},
			{
				"x": 0.6931827968,
				"y": -4.2770101727,
				"z": 0.2297275822,
				"element": "H" 
			},
			{
				"x": -1.198013977,
				"y": -4.3268372224,
				"z": 3.2237119244,
				"element": "H" 
			}
		],
		 "valence_orbital": [ 
			{
				"type": "occ",
				"energy": -0.28581,
				"method": "rhf"
			},
			{
				"type": "occ",
				"energy": -0.28216,
				"method": "rhf"
			},
			{
				"type": "occ",
				"energy": -0.26498,
				"method": "rhf"
			},
			{
				"type": "occ",
				"energy": -0.25154,
				"method": "rhf"
			},
			{
				"type": "occ",
				"energy": -0.21348,
				"method": "rhf"
			},
			{
				"type": "unocc",
				"energy": -0.0448,
				"method": "rhf"
			},
			{
				"type": "unocc",
				"energy": -0.00764,
				"method": "rhf"
			},
			{
				"type": "unocc",
				"energy": -0.00385,
				"method": "rhf"
			},
			{
				"type": "unocc",
				"energy": 0.02228,
				"method": "rhf"
			},
			{
				"type": "unocc",
				"energy": 0.03052,
				"method": "rhf"
			}
		],
		"cosmo_sigma_profile": { 
			"-0.025": 0.0,
			"-0.024": 0.0,
			"-0.023": 0.0,
			"-0.022": 0.0,
			"-0.021": 0.0,
			"-0.02": 0.010569372471,
			"-0.019": 0.690858497944,
			"-0.018": 0.721763610633,
			"-0.017": 1.11755892114,
			"-0.016": 0.744530577639,
			"-0.015": 0.919386274454,
			"-0.014": 0.664722873582,
			"-0.013": 1.03672747401,
			"-0.012": 2.38260219163,
			"-0.011": 3.21945581039,
			"-0.01": 4.49174604992,
			"-0.009": 3.36886216063,
			"-0.008": 4.58988628991,
			"-0.007": 4.6082208397,
			"-0.006": 7.06383053715,
			"-0.005": 11.0608799453,
			"-0.004": 16.1559495264,
			"-0.003": 18.8991407923,
			"-0.002": 17.5997639706,
			"-0.001": 20.8459011966,
			"0.0": 20.812447021,
			"0.001": 21.5089601077,
			"0.002": 19.1478176412,
			"0.003": 15.4090683306,
			"0.004": 11.8685784663,
			"0.005": 6.62433935713,
			"0.006": 5.54792377841,
			"0.007": 5.48154055763,
			"0.008": 5.86233870844,
			"0.009": 4.4973219494,
			"0.01": 5.52088820975,
			"0.011": 7.18169862749,
			"0.012": 4.61052615941,
			"0.013": 2.23773364276,
			"0.014": 0.614608473136,
			"0.015": 0.0242889701562,
			"0.016": 0.0,
			"0.017": 0.0,
			"0.018": 0.0,
			"0.019": 0.0,
			"0.02": 0.0,
			"0.021": 0.0,
			"0.022": 0.0,
			"0.023": 0.0,
			"0.024": 0.0,
			"0.025": 0.0
		}
	}
}
