{
	 "smiles": "CC(C)(C(O)=O)C1=CC=C(C=C1)C1=CC=CC=C1", 
	 "Tm": 447.15, 
	 "num_atms": 34, 
	 "gaussian": { 
		 "optdone": 1, 
		 "sigma_profile": "yes", 
		 "theory": "DFT", 
		 "functional": "B3LYP", 
		 "basiset": "6-31G**", 
		 "properties": { 
			 "R2extent": 6963.4517, 
			 "electric_dipole_moment_norm": 4.66668595151, 
			 "electric_quadrupole_moment_norm": 18.0879822321, 
			 "total_energy": -769.81899942, 
			 "HOMO_LUMO_gap": 0.1909, 
			 "cosmo_polarized_energy": -13.73, 
			 "cosmo_cavitation_energy": 36.75, 
			 "cosmo_dispersion_energy": -25.89, 
			 "cosmo_repulsion_energy": 1.97, 
			 "cosmo_total_nonelectrostatic_energy": 12.83, 
			 "SMD_solvation_energy": 7.06 
		},
		"coords": [
			{
				"x": -0.7774519169,
				"y": -0.2539467548,
				"z": -3.0014262516,
				"element": "C" 
			},
			{
				"x": -0.2667986664,
				"y": -1.4088321002,
				"z": -2.1060731144,
				"element": "C" 
			},
			{
				"x": -1.3283656174,
				"y": -2.5275708838,
				"z": -2.0817360617,
				"element": "C" 
			},
			{
				"x": 1.0053834629,
				"y": -1.9441295995,
				"z": -2.813047655,
				"element": "C" 
			},
			{
				"x": 2.1532110114,
				"y": -1.2658418109,
				"z": -2.5629833354,
				"element": "O" 
			},
			{
				"x": 1.000207565,
				"y": -2.8578855904,
				"z": -3.601064365,
				"element": "O" 
			},
			{
				"x": 0.063863306,
				"y": -0.9589250624,
				"z": -0.6756041592,
				"element": "C" 
			},
			{
				"x": 0.676376572,
				"y": -1.8658056484,
				"z": 0.2094601773,
				"element": "C" 
			},
			{
				"x": 0.9730653171,
				"y": -1.5132892196,
				"z": 1.5211179209,
				"element": "C" 
			},
			{
				"x": 0.6673450325,
				"y": -0.2330942913,
				"z": 2.0169435636,
				"element": "C" 
			},
			{
				"x": 0.060000361,
				"y": 0.6729644912,
				"z": 1.1357772706,
				"element": "C" 
			},
			{
				"x": -0.2322011908,
				"y": 0.3194265004,
				"z": -0.1825054722,
				"element": "C" 
			},
			{
				"x": 0.9795943925,
				"y": 0.1441338844,
				"z": 3.4184573097,
				"element": "C" 
			},
			{
				"x": 0.8326718303,
				"y": -0.7830279105,
				"z": 4.4643803943,
				"element": "C" 
			},
			{
				"x": 1.1247986841,
				"y": -0.4292572416,
				"z": 5.7808067387,
				"element": "C" 
			},
			{
				"x": 1.5699330546,
				"y": 0.8596879798,
				"z": 6.0804592571,
				"element": "C" 
			},
			{
				"x": 1.7207290524,
				"y": 1.7915492683,
				"z": 5.0517655711,
				"element": "C" 
			},
			{
				"x": 1.4292615279,
				"y": 1.4373977449,
				"z": 3.7353049511,
				"element": "C" 
			},
			{
				"x": -0.9496472049,
				"y": -0.6277835511,
				"z": -4.0140828408,
				"element": "H" 
			},
			{
				"x": -1.7251957934,
				"y": 0.1398072196,
				"z": -2.6223081429,
				"element": "H" 
			},
			{
				"x": -0.0596320373,
				"y": 0.5698051433,
				"z": -3.0632062433,
				"element": "H" 
			},
			{
				"x": -2.2608191998,
				"y": -2.1463368005,
				"z": -1.6548847999,
				"element": "H" 
			},
			{
				"x": -1.000037586,
				"y": -3.3786491587,
				"z": -1.4800687618,
				"element": "H" 
			},
			{
				"x": -1.5160914709,
				"y": -2.8890008212,
				"z": -3.0948217592,
				"element": "H" 
			},
			{
				"x": 2.002507062,
				"y": -0.6360982315,
				"z": -1.8401644932,
				"element": "H" 
			},
			{
				"x": 0.9390980183,
				"y": -2.8615056515,
				"z": -0.1392999395,
				"element": "H" 
			},
			{
				"x": 1.4723193401,
				"y": -2.2313354453,
				"z": 2.164671582,
				"element": "H" 
			},
			{
				"x": -0.2123372144,
				"y": 1.6626167709,
				"z": 1.4902738221,
				"element": "H" 
			},
			{
				"x": -0.710935644,
				"y": 1.0541413011,
				"z": -0.8204776088,
				"element": "H" 
			},
			{
				"x": 0.4616479273,
				"y": -1.7801767302,
				"z": 4.2463280116,
				"element": "H" 
			},
			{
				"x": 0.9961883811,
				"y": -1.1594931487,
				"z": 6.5747104646,
				"element": "H" 
			},
			{
				"x": 1.7975781133,
				"y": 1.135275347,
				"z": 7.1059990732,
				"element": "H" 
			},
			{
				"x": 2.0749969668,
				"y": 2.7944194689,
				"z": 5.2727861622,
				"element": "H" 
			},
			{
				"x": 1.5762365635,
				"y": 2.1618605322,
				"z": 2.9396127335,
				"element": "H" 
			}
		],
		 "valence_orbital": [ 
			{
				"type": "occ",
				"energy": -0.28553,
				"method": "rhf"
			},
			{
				"type": "occ",
				"energy": -0.26532,
				"method": "rhf"
			},
			{
				"type": "occ",
				"energy": -0.26189,
				"method": "rhf"
			},
			{
				"type": "occ",
				"energy": -0.25743,
				"method": "rhf"
			},
			{
				"type": "occ",
				"energy": -0.23164,
				"method": "rhf"
			},
			{
				"type": "unocc",
				"energy": -0.04074,
				"method": "rhf"
			},
			{
				"type": "unocc",
				"energy": -0.0183,
				"method": "rhf"
			},
			{
				"type": "unocc",
				"energy": -0.00846,
				"method": "rhf"
			},
			{
				"type": "unocc",
				"energy": 0.0125,
				"method": "rhf"
			},
			{
				"type": "unocc",
				"energy": 0.01703,
				"method": "rhf"
			}
		],
		"cosmo_sigma_profile": { 
			"-0.025": 0.0,
			"-0.024": 0.0,
			"-0.023": 0.0,
			"-0.022": 0.0,
			"-0.021": 0.0,
			"-0.02": 0.0,
			"-0.019": 0.0,
			"-0.018": 0.0,
			"-0.017": 0.0,
			"-0.016": 0.0,
			"-0.015": 0.51692661646,
			"-0.014": 0.543743458867,
			"-0.013": 0.692985053692,
			"-0.012": 0.451203693661,
			"-0.011": 0.982462826387,
			"-0.01": 1.51714954286,
			"-0.009": 1.00671121514,
			"-0.008": 1.14250080673,
			"-0.007": 2.26638453459,
			"-0.006": 11.8086284517,
			"-0.005": 26.1625155355,
			"-0.004": 30.4307367305,
			"-0.003": 26.8353187253,
			"-0.002": 23.0870507747,
			"-0.001": 22.8832677919,
			"0.0": 23.1939937904,
			"0.001": 16.9591184297,
			"0.002": 17.1877612436,
			"0.003": 17.5417419512,
			"0.004": 17.2463242096,
			"0.005": 15.3232143902,
			"0.006": 8.15192866992,
			"0.007": 2.51876525412,
			"0.008": 2.37914663092,
			"0.009": 3.0214888577,
			"0.01": 5.32322559208,
			"0.011": 4.93738190816,
			"0.012": 5.3330500926,
			"0.013": 1.7947215391,
			"0.014": 0.109111522617,
			"0.015": 0.0,
			"0.016": 0.0,
			"0.017": 0.0,
			"0.018": 0.0,
			"0.019": 0.0,
			"0.02": 0.0,
			"0.021": 0.0,
			"0.022": 0.0,
			"0.023": 0.0,
			"0.024": 0.0,
			"0.025": 0.0
		}
	}
}
