{
	 "smiles": "OC1=CC=C(C=C1)N1C(=O)C2=CC=CC=C2C1=O", 
	 "Tm": 569.15, 
	 "num_atms": 27, 
	 "gaussian": { 
		 "optdone": 1, 
		 "sigma_profile": "yes", 
		 "theory": "DFT", 
		 "functional": "B3LYP", 
		 "basiset": "6-31G**", 
		 "properties": { 
			 "R2extent": 5411.1716, 
			 "electric_dipole_moment_norm": 2.87292970676, 
			 "electric_quadrupole_moment_norm": 19.530853477, 
			 "total_energy": -819.358804195, 
			 "HOMO_LUMO_gap": 0.12362, 
			 "cosmo_polarized_energy": -13.63, 
			 "cosmo_cavitation_energy": 31.95, 
			 "cosmo_dispersion_energy": -23.82, 
			 "cosmo_repulsion_energy": 1.77, 
			 "cosmo_total_nonelectrostatic_energy": 9.9, 
			 "SMD_solvation_energy": 6.82 
		},
		"coords": [
			{
				"x": 2.8630725846,
				"y": -5.0966852423,
				"z": -1.2031384739,
				"element": "O" 
			},
			{
				"x": 2.213912218,
				"y": -3.9503437979,
				"z": -0.8418562694,
				"element": "C" 
			},
			{
				"x": 0.8208830932,
				"y": -3.9900010449,
				"z": -0.7475237275,
				"element": "C" 
			},
			{
				"x": 0.1023147605,
				"y": -2.8565502187,
				"z": -0.3844779412,
				"element": "C" 
			},
			{
				"x": 0.7647191153,
				"y": -1.6465908709,
				"z": -0.1048659269,
				"element": "C" 
			},
			{
				"x": 2.1653479047,
				"y": -1.6115950013,
				"z": -0.201064341,
				"element": "C" 
			},
			{
				"x": 2.8762850867,
				"y": -2.7529046686,
				"z": -0.5656300033,
				"element": "C" 
			},
			{
				"x": 0.0237861663,
				"y": -0.4711282507,
				"z": 0.2711746902,
				"element": "N" 
			},
			{
				"x": -1.3950483642,
				"y": -0.3983924641,
				"z": 0.3965497976,
				"element": "C" 
			},
			{
				"x": -2.1956125921,
				"y": -1.2933303808,
				"z": 0.2120007842,
				"element": "O" 
			},
			{
				"x": -1.7175226103,
				"y": 0.9953704922,
				"z": 0.8006403532,
				"element": "C" 
			},
			{
				"x": -2.9485439718,
				"y": 1.5841524208,
				"z": 1.0525025738,
				"element": "C" 
			},
			{
				"x": -2.9469892701,
				"y": 2.9359836313,
				"z": 1.4208423301,
				"element": "C" 
			},
			{
				"x": -1.7490397081,
				"y": 3.6558655046,
				"z": 1.5281590347,
				"element": "C" 
			},
			{
				"x": -0.5134586544,
				"y": 3.0474871934,
				"z": 1.2706514192,
				"element": "C" 
			},
			{
				"x": -0.5308045816,
				"y": 1.7084515419,
				"z": 0.9069221336,
				"element": "C" 
			},
			{
				"x": 0.5966417074,
				"y": 0.7983995815,
				"z": 0.5749396754,
				"element": "C" 
			},
			{
				"x": 1.7756848555,
				"y": 1.0928200892,
				"z": 0.5676705002,
				"element": "O" 
			},
			{
				"x": 3.8135609454,
				"y": -4.9263023574,
				"z": -1.2283594992,
				"element": "H" 
			},
			{
				"x": 0.304569872,
				"y": -4.9198318861,
				"z": -0.9618480479,
				"element": "H" 
			},
			{
				"x": -0.9729884051,
				"y": -2.9115685125,
				"z": -0.3182924613,
				"element": "H" 
			},
			{
				"x": 2.7008167857,
				"y": -0.6986302943,
				"z": 0.0071655379,
				"element": "H" 
			},
			{
				"x": 3.9610918419,
				"y": -2.7003243,
				"z": -0.6331899787,
				"element": "H" 
			},
			{
				"x": -3.8678237574,
				"y": 1.0144411005,
				"z": 0.9654146779,
				"element": "H" 
			},
			{
				"x": -3.8882709999,
				"y": 3.4365485906,
				"z": 1.6271164953,
				"element": "H" 
			},
			{
				"x": -1.781734484,
				"y": 4.7024304048,
				"z": 1.8158494705,
				"element": "H" 
			},
			{
				"x": 0.4215504618,
				"y": 3.5922287397,
				"z": 1.3497471965,
				"element": "H" 
			}
		],
		 "valence_orbital": [ 
			{
				"type": "occ",
				"energy": -0.27981,
				"method": "rhf"
			},
			{
				"type": "occ",
				"energy": -0.27968,
				"method": "rhf"
			},
			{
				"type": "occ",
				"energy": -0.26823,
				"method": "rhf"
			},
			{
				"type": "occ",
				"energy": -0.25038,
				"method": "rhf"
			},
			{
				"type": "occ",
				"energy": -0.20872,
				"method": "rhf"
			},
			{
				"type": "unocc",
				"energy": -0.0851,
				"method": "rhf"
			},
			{
				"type": "unocc",
				"energy": -0.04743,
				"method": "rhf"
			},
			{
				"type": "unocc",
				"energy": -0.00054,
				"method": "rhf"
			},
			{
				"type": "unocc",
				"energy": 0.01327,
				"method": "rhf"
			},
			{
				"type": "unocc",
				"energy": 0.02544,
				"method": "rhf"
			}
		],
		"cosmo_sigma_profile": { 
			"-0.025": 0.0,
			"-0.024": 0.0,
			"-0.023": 0.0,
			"-0.022": 0.0,
			"-0.021": 0.0,
			"-0.02": 0.0,
			"-0.019": 0.0,
			"-0.018": 0.313465895435,
			"-0.017": 1.52003423318,
			"-0.016": 0.466986900141,
			"-0.015": 1.21960984225,
			"-0.014": 1.20989079466,
			"-0.013": 1.08799032232,
			"-0.012": 1.05836600121,
			"-0.011": 0.788387846665,
			"-0.01": 1.30302969919,
			"-0.009": 0.875058373309,
			"-0.008": 2.97749538778,
			"-0.007": 10.5789986303,
			"-0.006": 14.361994905,
			"-0.005": 15.0518030976,
			"-0.004": 14.2728018089,
			"-0.003": 14.8158825698,
			"-0.002": 14.1472225991,
			"-0.001": 18.6360036324,
			"0.0": 19.8179818519,
			"0.001": 21.6780127575,
			"0.002": 24.0255654848,
			"0.003": 15.6847290587,
			"0.004": 16.9602191994,
			"0.005": 11.7455265121,
			"0.006": 4.38649713858,
			"0.007": 5.58025807418,
			"0.008": 5.44133334121,
			"0.009": 4.63079308822,
			"0.01": 7.28479630009,
			"0.011": 5.54102077322,
			"0.012": 0.707199237737,
			"0.013": 0.0,
			"0.014": 0.0,
			"0.015": 0.0,
			"0.016": 0.0,
			"0.017": 0.0,
			"0.018": 0.0,
			"0.019": 0.0,
			"0.02": 0.0,
			"0.021": 0.0,
			"0.022": 0.0,
			"0.023": 0.0,
			"0.024": 0.0,
			"0.025": 0.0
		}
	}
}
