{
	 "smiles": "CC1CCC=C1", 
	 "Tm": 146.15, 
	 "num_atms": 16, 
	 "gaussian": { 
		 "optdone": 1, 
		 "sigma_profile": "yes", 
		 "theory": "DFT", 
		 "functional": "B3LYP", 
		 "basiset": "6-31G**", 
		 "properties": { 
			 "R2extent": 663.5747, 
			 "electric_dipole_moment_norm": 0.165141060915, 
			 "electric_quadrupole_moment_norm": 1.25571660816, 
			 "total_energy": -234.652084892, 
			 "HOMO_LUMO_gap": 0.26315, 
			 "cosmo_polarized_energy": -1.2, 
			 "cosmo_cavitation_energy": 17.68, 
			 "cosmo_dispersion_energy": -13.41, 
			 "cosmo_repulsion_energy": 1.17, 
			 "cosmo_total_nonelectrostatic_energy": 5.44, 
			 "SMD_solvation_energy": 2.88 
		},
		"coords": [
			{
				"x": 1.6413545265,
				"y": 2.1587967999,
				"z": -0.6670210223,
				"element": "C" 
			},
			{
				"x": 0.6839400364,
				"y": 1.3286803783,
				"z": 0.1973972316,
				"element": "C" 
			},
			{
				"x": -0.6645338093,
				"y": 0.992133534,
				"z": -0.5001969518,
				"element": "C" 
			},
			{
				"x": -1.05038351,
				"y": -0.4305183036,
				"z": -0.0195003925,
				"element": "C" 
			},
			{
				"x": 0.2714573341,
				"y": -0.9943805414,
				"z": 0.4524391685,
				"element": "C" 
			},
			{
				"x": 1.2034098541,
				"y": -0.04591117,
				"z": 0.5728146808,
				"element": "C" 
			},
			{
				"x": 2.5822055226,
				"y": 2.3592570023,
				"z": -0.1422501553,
				"element": "H" 
			},
			{
				"x": 1.1972041235,
				"y": 3.1248523413,
				"z": -0.9316877791,
				"element": "H" 
			},
			{
				"x": 1.8817336207,
				"y": 1.6318914168,
				"z": -1.5974218806,
				"element": "H" 
			},
			{
				"x": 0.491485861,
				"y": 1.8961660249,
				"z": 1.1229635068,
				"element": "H" 
			},
			{
				"x": -0.5035253713,
				"y": 0.974823199,
				"z": -1.5849009809,
				"element": "H" 
			},
			{
				"x": -1.4404355342,
				"y": 1.7373105499,
				"z": -0.3003466921,
				"element": "H" 
			},
			{
				"x": -1.5171572283,
				"y": -1.0308069518,
				"z": -0.8099413304,
				"element": "H" 
			},
			{
				"x": -1.7733708477,
				"y": -0.3999930776,
				"z": 0.8093983743,
				"element": "H" 
			},
			{
				"x": 0.4098259274,
				"y": -2.0432650687,
				"z": 0.6995007728,
				"element": "H" 
			},
			{
				"x": 2.2168894946,
				"y": -0.2058361332,
				"z": 0.9319534502,
				"element": "H" 
			}
		],
		 "valence_orbital": [ 
			{
				"type": "occ",
				"energy": -0.34018,
				"method": "rhf"
			},
			{
				"type": "occ",
				"energy": -0.33612,
				"method": "rhf"
			},
			{
				"type": "occ",
				"energy": -0.32453,
				"method": "rhf"
			},
			{
				"type": "occ",
				"energy": -0.31642,
				"method": "rhf"
			},
			{
				"type": "occ",
				"energy": -0.23343,
				"method": "rhf"
			},
			{
				"type": "unocc",
				"energy": 0.02972,
				"method": "rhf"
			},
			{
				"type": "unocc",
				"energy": 0.10016,
				"method": "rhf"
			},
			{
				"type": "unocc",
				"energy": 0.12496,
				"method": "rhf"
			},
			{
				"type": "unocc",
				"energy": 0.13061,
				"method": "rhf"
			},
			{
				"type": "unocc",
				"energy": 0.14661,
				"method": "rhf"
			}
		],
		"cosmo_sigma_profile": { 
			"-0.025": 0.0,
			"-0.024": 0.0,
			"-0.023": 0.0,
			"-0.022": 0.0,
			"-0.021": 0.0,
			"-0.02": 0.0,
			"-0.019": 0.0,
			"-0.018": 0.0,
			"-0.017": 0.0,
			"-0.016": 0.0,
			"-0.015": 0.0,
			"-0.014": 0.0,
			"-0.013": 0.0,
			"-0.012": 0.0,
			"-0.011": 0.0,
			"-0.01": 0.0,
			"-0.009": 0.0,
			"-0.008": 0.0,
			"-0.007": 0.0,
			"-0.006": 0.0,
			"-0.005": 1.39512497447,
			"-0.004": 3.46995288522,
			"-0.003": 9.12303608851,
			"-0.002": 20.962244375,
			"-0.001": 24.5775785695,
			"0.0": 29.3011198121,
			"0.001": 22.988034775,
			"0.002": 10.4468735464,
			"0.003": 4.56104957429,
			"0.004": 3.03021147185,
			"0.005": 2.81038051556,
			"0.006": 2.42009979052,
			"0.007": 2.00181782393,
			"0.008": 0.425851266651,
			"0.009": 0.0,
			"0.01": 0.0,
			"0.011": 0.0,
			"0.012": 0.0,
			"0.013": 0.0,
			"0.014": 0.0,
			"0.015": 0.0,
			"0.016": 0.0,
			"0.017": 0.0,
			"0.018": 0.0,
			"0.019": 0.0,
			"0.02": 0.0,
			"0.021": 0.0,
			"0.022": 0.0,
			"0.023": 0.0,
			"0.024": 0.0,
			"0.025": 0.0
		}
	}
}
