{
	 "smiles": "NNC(=S)NC1=CC=C(F)C=C1", 
	 "Tm": 445.15, 
	 "num_atms": 20, 
	 "gaussian": { 
		 "optdone": 1, 
		 "sigma_profile": "yes", 
		 "theory": "DFT", 
		 "functional": "B3LYP", 
		 "basiset": "6-31G**", 
		 "properties": { 
			 "R2extent": 3541.4545, 
			 "electric_dipole_moment_norm": 6.50668401646, 
			 "electric_quadrupole_moment_norm": 10.0194083573, 
			 "total_energy": -933.822579896, 
			 "HOMO_LUMO_gap": 0.18822, 
			 "cosmo_polarized_energy": -18.75, 
			 "cosmo_cavitation_energy": 26.3, 
			 "cosmo_dispersion_energy": -20.01, 
			 "cosmo_repulsion_energy": 1.55, 
			 "cosmo_total_nonelectrostatic_energy": 7.85, 
			 "SMD_solvation_energy": 4.86 
		},
		"coords": [
			{
				"x": -0.9791686257,
				"y": 2.0685535935,
				"z": -1.3442947007,
				"element": "N" 
			},
			{
				"x": -1.2532048917,
				"y": 0.7617222433,
				"z": -1.7634622743,
				"element": "N" 
			},
			{
				"x": -0.6685264727,
				"y": -0.3358353174,
				"z": -1.1688995247,
				"element": "C" 
			},
			{
				"x": -1.0767637238,
				"y": -1.8562472324,
				"z": -1.7605722593,
				"element": "S" 
			},
			{
				"x": 0.1751885149,
				"y": 0.0011813171,
				"z": -0.1631727068,
				"element": "N" 
			},
			{
				"x": 0.9809174698,
				"y": -0.7545399413,
				"z": 0.7136854258,
				"element": "C" 
			},
			{
				"x": 1.0749872259,
				"y": -2.1542478688,
				"z": 0.7133954611,
				"element": "C" 
			},
			{
				"x": 1.9083097401,
				"y": -2.7939914744,
				"z": 1.6312569925,
				"element": "C" 
			},
			{
				"x": 2.6406509975,
				"y": -2.0433066007,
				"z": 2.5406120304,
				"element": "C" 
			},
			{
				"x": 3.4452461407,
				"y": -2.6710426041,
				"z": 3.4260097188,
				"element": "F" 
			},
			{
				"x": 2.564564073,
				"y": -0.6553364554,
				"z": 2.5608423523,
				"element": "C" 
			},
			{
				"x": 1.7335473287,
				"y": -0.0179444135,
				"z": 1.6455114104,
				"element": "C" 
			},
			{
				"x": -1.8271588607,
				"y": 2.5276850494,
				"z": -1.0195840114,
				"element": "H" 
			},
			{
				"x": -0.5702065802,
				"y": 2.6111878373,
				"z": -2.1016749383,
				"element": "H" 
			},
			{
				"x": -1.8927610807,
				"y": 0.5602641536,
				"z": -2.5217136879,
				"element": "H" 
			},
			{
				"x": 0.2190866093,
				"y": 1.0102912232,
				"z": -0.0340018095,
				"element": "H" 
			},
			{
				"x": 0.4996924538,
				"y": -2.7280260216,
				"z": 0.0001861542,
				"element": "H" 
			},
			{
				"x": 1.9904491669,
				"y": -3.8755512121,
				"z": 1.6420241017,
				"element": "H" 
			},
			{
				"x": 3.1471693227,
				"y": -0.0922618495,
				"z": 3.2815841056,
				"element": "H" 
			},
			{
				"x": 1.6671811921,
				"y": 1.0674455739,
				"z": 1.6533681601,
				"element": "H" 
			}
		],
		 "valence_orbital": [ 
			{
				"type": "occ",
				"energy": -0.30022,
				"method": "rhf"
			},
			{
				"type": "occ",
				"energy": -0.25904,
				"method": "rhf"
			},
			{
				"type": "occ",
				"energy": -0.2273,
				"method": "rhf"
			},
			{
				"type": "occ",
				"energy": -0.20764,
				"method": "rhf"
			},
			{
				"type": "occ",
				"energy": -0.20716,
				"method": "rhf"
			},
			{
				"type": "unocc",
				"energy": -0.01894,
				"method": "rhf"
			},
			{
				"type": "unocc",
				"energy": -0.00898,
				"method": "rhf"
			},
			{
				"type": "unocc",
				"energy": 0.0383,
				"method": "rhf"
			},
			{
				"type": "unocc",
				"energy": 0.04459,
				"method": "rhf"
			},
			{
				"type": "unocc",
				"energy": 0.07717,
				"method": "rhf"
			}
		],
		"cosmo_sigma_profile": { 
			"-0.025": 0.0,
			"-0.024": 0.0,
			"-0.023": 0.0,
			"-0.022": 0.0,
			"-0.021": 0.0,
			"-0.02": 0.0,
			"-0.019": 0.0,
			"-0.018": 0.0,
			"-0.017": 0.0,
			"-0.016": 0.0,
			"-0.015": 0.0223101427401,
			"-0.014": 0.874967063933,
			"-0.013": 4.28163751828,
			"-0.012": 5.16570040816,
			"-0.011": 5.55815019252,
			"-0.01": 6.0271647983,
			"-0.009": 4.61979989058,
			"-0.008": 4.12815367833,
			"-0.007": 7.62804392299,
			"-0.006": 6.48915201393,
			"-0.005": 8.50144937173,
			"-0.004": 6.77034784739,
			"-0.003": 8.01011196154,
			"-0.002": 9.38587847805,
			"-0.001": 7.72945192485,
			"0.0": 9.89564751334,
			"0.001": 15.0357083521,
			"0.002": 17.5746587718,
			"0.003": 19.8499708599,
			"0.004": 22.699453955,
			"0.005": 10.8462238814,
			"0.006": 5.5200051023,
			"0.007": 3.77825034332,
			"0.008": 4.1124888355,
			"0.009": 4.09879930988,
			"0.01": 4.56934344769,
			"0.011": 7.4792734857,
			"0.012": 1.98829705479,
			"0.013": 0.0,
			"0.014": 0.0,
			"0.015": 0.0,
			"0.016": 0.0,
			"0.017": 0.0,
			"0.018": 0.0,
			"0.019": 0.0,
			"0.02": 0.0,
			"0.021": 0.0,
			"0.022": 0.0,
			"0.023": 0.0,
			"0.024": 0.0,
			"0.025": 0.0
		}
	}
}
