{
	 "smiles": "C1CC(CCN1)C1=CC=NN1", 
	 "Tm": 420.15, 
	 "num_atms": 24, 
	 "gaussian": { 
		 "optdone": 1, 
		 "sigma_profile": "yes", 
		 "theory": "DFT", 
		 "functional": "B3LYP", 
		 "basiset": "6-31G**", 
		 "properties": { 
			 "R2extent": 2164.8494, 
			 "electric_dipole_moment_norm": 3.06248352485, 
			 "electric_quadrupole_moment_norm": 13.8170866803, 
			 "total_energy": -476.915751146, 
			 "HOMO_LUMO_gap": 0.24442, 
			 "cosmo_polarized_energy": -12.38, 
			 "cosmo_cavitation_energy": 24.9, 
			 "cosmo_dispersion_energy": -18.74, 
			 "cosmo_repulsion_energy": 1.5, 
			 "cosmo_total_nonelectrostatic_energy": 7.66, 
			 "SMD_solvation_energy": 0.22 
		},
		"coords": [
			{
				"x": -1.1096878105,
				"y": -0.5212948256,
				"z": 2.5168494705,
				"element": "C" 
			},
			{
				"x": -0.0996799094,
				"y": 0.6098494396,
				"z": 2.7758050739,
				"element": "C" 
			},
			{
				"x": 0.291312238,
				"y": 1.3648736646,
				"z": 1.4781400152,
				"element": "C" 
			},
			{
				"x": -0.9934551288,
				"y": 1.768703018,
				"z": 0.7079575635,
				"element": "C" 
			},
			{
				"x": -1.9680271691,
				"y": 0.5914982117,
				"z": 0.5312100581,
				"element": "C" 
			},
			{
				"x": -2.3060069708,
				"y": -0.1009732366,
				"z": 1.7793696063,
				"element": "N" 
			},
			{
				"x": 1.2880497615,
				"y": 0.6162401647,
				"z": 0.6276846354,
				"element": "C" 
			},
			{
				"x": 1.2883828768,
				"y": -0.5957306926,
				"z": -0.0531970479,
				"element": "C" 
			},
			{
				"x": 2.564908169,
				"y": -0.6834999304,
				"z": -0.6534688735,
				"element": "C" 
			},
			{
				"x": 3.3204715365,
				"y": 0.3788823619,
				"z": -0.3830471914,
				"element": "N" 
			},
			{
				"x": 2.5237566766,
				"y": 1.1457437581,
				"z": 0.3916312086,
				"element": "N" 
			},
			{
				"x": -1.4265302906,
				"y": -0.9650978705,
				"z": 3.4672024313,
				"element": "H" 
			},
			{
				"x": -0.6266617995,
				"y": -1.3244519989,
				"z": 1.9466762745,
				"element": "H" 
			},
			{
				"x": 0.7972354057,
				"y": 0.2175160151,
				"z": 3.2692597425,
				"element": "H" 
			},
			{
				"x": -0.5545822159,
				"y": 1.334298839,
				"z": 3.4660199805,
				"element": "H" 
			},
			{
				"x": 0.7938080402,
				"y": 2.2941109859,
				"z": 1.7817151686,
				"element": "H" 
			},
			{
				"x": -0.7306889014,
				"y": 2.1984987992,
				"z": -0.2657446873,
				"element": "H" 
			},
			{
				"x": -1.4988065273,
				"y": 2.5586092212,
				"z": 1.2813919766,
				"element": "H" 
			},
			{
				"x": -2.8966440338,
				"y": 0.9408537907,
				"z": 0.0663016069,
				"element": "H" 
			},
			{
				"x": -1.5361229152,
				"y": -0.1454108628,
				"z": -0.1571873891,
				"element": "H" 
			},
			{
				"x": -2.8514661671,
				"y": 0.5274177216,
				"z": 2.3673279502,
				"element": "H" 
			},
			{
				"x": 0.4884516866,
				"y": -1.3167005881,
				"z": -0.112858222,
				"element": "H" 
			},
			{
				"x": 2.9613537328,
				"y": -1.4786200167,
				"z": -1.2711923109,
				"element": "H" 
			},
			{
				"x": 2.8775297156,
				"y": 2.026384031,
				"z": 0.7334529596,
				"element": "H" 
			}
		],
		 "valence_orbital": [ 
			{
				"type": "occ",
				"energy": -0.32452,
				"method": "rhf"
			},
			{
				"type": "occ",
				"energy": -0.27929,
				"method": "rhf"
			},
			{
				"type": "occ",
				"energy": -0.2502,
				"method": "rhf"
			},
			{
				"type": "occ",
				"energy": -0.23235,
				"method": "rhf"
			},
			{
				"type": "occ",
				"energy": -0.21744,
				"method": "rhf"
			},
			{
				"type": "unocc",
				"energy": 0.02698,
				"method": "rhf"
			},
			{
				"type": "unocc",
				"energy": 0.06388,
				"method": "rhf"
			},
			{
				"type": "unocc",
				"energy": 0.07306,
				"method": "rhf"
			},
			{
				"type": "unocc",
				"energy": 0.08673,
				"method": "rhf"
			},
			{
				"type": "unocc",
				"energy": 0.1006,
				"method": "rhf"
			}
		],
		"cosmo_sigma_profile": { 
			"-0.025": 0.0,
			"-0.024": 0.0,
			"-0.023": 0.0,
			"-0.022": 0.0,
			"-0.021": 0.0,
			"-0.02": 0.0,
			"-0.019": 0.0,
			"-0.018": 0.0,
			"-0.017": 0.0,
			"-0.016": 0.295817330803,
			"-0.015": 1.39084402449,
			"-0.014": 0.907214784374,
			"-0.013": 1.54001094965,
			"-0.012": 1.11981921934,
			"-0.011": 1.35994262178,
			"-0.01": 1.10990524281,
			"-0.009": 2.39852697566,
			"-0.008": 2.54659075318,
			"-0.007": 2.78576183047,
			"-0.006": 5.95368299134,
			"-0.005": 8.96936577365,
			"-0.004": 10.0341892451,
			"-0.003": 23.6363362656,
			"-0.002": 23.7610346571,
			"-0.001": 21.8906096587,
			"0.0": 18.8237811858,
			"0.001": 9.59233447456,
			"0.002": 6.91846312112,
			"0.003": 5.37293408571,
			"0.004": 5.82965199143,
			"0.005": 6.79692875669,
			"0.006": 6.2593621407,
			"0.007": 3.76708019721,
			"0.008": 2.33929307542,
			"0.009": 3.61914670071,
			"0.01": 2.47401959286,
			"0.011": 1.49046853376,
			"0.012": 2.15331126698,
			"0.013": 1.39786419543,
			"0.014": 1.73073590034,
			"0.015": 2.20521550927,
			"0.016": 1.84012594513,
			"0.017": 1.0170905795,
			"0.018": 0.415900824849,
			"0.019": 0.441369387752,
			"0.02": 0.0073161467697,
			"0.021": 0.0,
			"0.022": 0.0,
			"0.023": 0.0,
			"0.024": 0.0,
			"0.025": 0.0
		}
	}
}
