{
	 "smiles": "CCN(CCO)C1=CC=C(C=C1)N=NC1=C(Cl)C=C(C=C1)[N+]([O-])=O", 
	 "Tm": 406.15, 
	 "num_atms": 41, 
	 "gaussian": { 
		 "optdone": 1, 
		 "sigma_profile": "yes", 
		 "theory": "DFT", 
		 "functional": "B3LYP", 
		 "basiset": "6-31G**", 
		 "properties": { 
			 "R2extent": 18585.5545, 
			 "electric_dipole_moment_norm": 9.78746076007, 
			 "electric_quadrupole_moment_norm": 53.7775245178, 
			 "total_energy": -1524.66365594, 
			 "HOMO_LUMO_gap": 0.10243, 
			 "cosmo_polarized_energy": -19.84, 
			 "cosmo_cavitation_energy": 48.04, 
			 "cosmo_dispersion_energy": -33.91, 
			 "cosmo_repulsion_energy": 2.58, 
			 "cosmo_total_nonelectrostatic_energy": 16.7, 
			 "SMD_solvation_energy": 8.73 
		},
		"coords": [
			{
				"x": -2.9062265809,
				"y": -4.0457710268,
				"z": -0.6009844936,
				"element": "C" 
			},
			{
				"x": -1.6034960077,
				"y": -4.0268435717,
				"z": -1.4095734902,
				"element": "C" 
			},
			{
				"x": -0.4479261602,
				"y": -3.528212085,
				"z": -0.6579981345,
				"element": "N" 
			},
			{
				"x": 0.3361162223,
				"y": -4.5346154572,
				"z": 0.0515496894,
				"element": "C" 
			},
			{
				"x": 1.5335425136,
				"y": -5.0635029878,
				"z": -0.7580900333,
				"element": "C" 
			},
			{
				"x": 2.1838717968,
				"y": -6.128624025,
				"z": -0.0848527295,
				"element": "O" 
			},
			{
				"x": -0.1515411731,
				"y": -2.1854695328,
				"z": -0.5810498042,
				"element": "C" 
			},
			{
				"x": -1.0072608119,
				"y": -1.2039292703,
				"z": -1.1626606522,
				"element": "C" 
			},
			{
				"x": -0.7128601507,
				"y": 0.141401993,
				"z": -1.0908253733,
				"element": "C" 
			},
			{
				"x": 0.4505304167,
				"y": 0.59280369,
				"z": -0.4307724137,
				"element": "C" 
			},
			{
				"x": 1.300033403,
				"y": -0.3661939877,
				"z": 0.148275194,
				"element": "C" 
			},
			{
				"x": 1.0165087964,
				"y": -1.7180632884,
				"z": 0.0783760075,
				"element": "C" 
			},
			{
				"x": 0.8378708974,
				"y": 1.9231504368,
				"z": -0.2992846778,
				"element": "N" 
			},
			{
				"x": 0.0563962113,
				"y": 2.7746220651,
				"z": -0.8285295782,
				"element": "N" 
			},
			{
				"x": 0.4766976781,
				"y": 4.1088843348,
				"z": -0.6780441034,
				"element": "C" 
			},
			{
				"x": -0.3374735114,
				"y": 5.1215950304,
				"z": -1.2325641331,
				"element": "C" 
			},
			{
				"x": -1.8162282187,
				"y": 4.7155656308,
				"z": -2.0741125807,
				"element": "Cl" 
			},
			{
				"x": 0.009363566,
				"y": 6.4640766818,
				"z": -1.1267409098,
				"element": "C" 
			},
			{
				"x": 1.1843161119,
				"y": 6.7973689283,
				"z": -0.4587427327,
				"element": "C" 
			},
			{
				"x": 2.0181356139,
				"y": 5.8280202319,
				"z": 0.1039799865,
				"element": "C" 
			},
			{
				"x": 1.6571184463,
				"y": 4.4965217889,
				"z": -0.0107938803,
				"element": "C" 
			},
			{
				"x": 1.551814897,
				"y": 8.2136767467,
				"z": -0.3462353965,
				"element": "N" 
			},
			{
				"x": 0.7964943184,
				"y": 9.0444559757,
				"z": -0.8519040588,
				"element": "O" 
			},
			{
				"x": 2.5956039515,
				"y": 8.4851364873,
				"z": 0.248501015,
				"element": "O" 
			},
			{
				"x": -3.7245132875,
				"y": -4.4462675404,
				"z": -1.2083794511,
				"element": "H" 
			},
			{
				"x": -3.1838895414,
				"y": -3.0410660828,
				"z": -0.2704193523,
				"element": "H" 
			},
			{
				"x": -2.8057151123,
				"y": -4.6763138353,
				"z": 0.2881095311,
				"element": "H" 
			},
			{
				"x": -1.7222904582,
				"y": -3.4355319025,
				"z": -2.3219293123,
				"element": "H" 
			},
			{
				"x": -1.3606746567,
				"y": -5.0416409035,
				"z": -1.7411018173,
				"element": "H" 
			},
			{
				"x": -0.3162390264,
				"y": -5.3809958528,
				"z": 0.2874021778,
				"element": "H" 
			},
			{
				"x": 0.6764977643,
				"y": -4.1348879306,
				"z": 1.0133671225,
				"element": "H" 
			},
			{
				"x": 2.2227146229,
				"y": -4.2416391992,
				"z": -1.0008485067,
				"element": "H" 
			},
			{
				"x": 1.1767793515,
				"y": -5.4736994196,
				"z": -1.7083960077,
				"element": "H" 
			},
			{
				"x": 2.6675640258,
				"y": -5.7628206271,
				"z": 0.6667013468,
				"element": "H" 
			},
			{
				"x": -1.9198054341,
				"y": -1.5053896835,
				"z": -1.6609758824,
				"element": "H" 
			},
			{
				"x": -1.3760276299,
				"y": 0.8757023064,
				"z": -1.5341495177,
				"element": "H" 
			},
			{
				"x": 2.1971092488,
				"y": -0.0171158462,
				"z": 0.650315185,
				"element": "H" 
			},
			{
				"x": 1.7136751488,
				"y": -2.4173929608,
				"z": 0.5217195917,
				"element": "H" 
			},
			{
				"x": -0.6120200647,
				"y": 7.2418174841,
				"z": -1.5500254034,
				"element": "H" 
			},
			{
				"x": 2.9224559808,
				"y": 6.1342151683,
				"z": 0.6142854375,
				"element": "H" 
			},
			{
				"x": 2.2729768424,
				"y": 3.7107720371,
				"z": 0.4100021419,
				"element": "H" 
			}
		],
		 "valence_orbital": [ 
			{
				"type": "occ",
				"energy": -0.27015,
				"method": "rhf"
			},
			{
				"type": "occ",
				"energy": -0.26949,
				"method": "rhf"
			},
			{
				"type": "occ",
				"energy": -0.25857,
				"method": "rhf"
			},
			{
				"type": "occ",
				"energy": -0.23179,
				"method": "rhf"
			},
			{
				"type": "occ",
				"energy": -0.20654,
				"method": "rhf"
			},
			{
				"type": "unocc",
				"energy": -0.10411,
				"method": "rhf"
			},
			{
				"type": "unocc",
				"energy": -0.06178,
				"method": "rhf"
			},
			{
				"type": "unocc",
				"energy": -0.02456,
				"method": "rhf"
			},
			{
				"type": "unocc",
				"energy": -0.01683,
				"method": "rhf"
			},
			{
				"type": "unocc",
				"energy": 0.0125,
				"method": "rhf"
			}
		],
		"cosmo_sigma_profile": { 
			"-0.025": 0.0,
			"-0.024": 0.0,
			"-0.023": 0.0,
			"-0.022": 0.0,
			"-0.021": 0.0,
			"-0.02": 0.0,
			"-0.019": 0.0,
			"-0.018": 0.0,
			"-0.017": 0.0,
			"-0.016": 0.674064247097,
			"-0.015": 1.09293643479,
			"-0.014": 0.873262261728,
			"-0.013": 1.27984847842,
			"-0.012": 1.17278152148,
			"-0.011": 0.839574524669,
			"-0.01": 1.73666617294,
			"-0.009": 1.98118378232,
			"-0.008": 3.2199654399,
			"-0.007": 8.73823604084,
			"-0.006": 18.7994114605,
			"-0.005": 23.0622305613,
			"-0.004": 27.2706330416,
			"-0.003": 28.5428497726,
			"-0.002": 31.246216912,
			"-0.001": 29.5211392341,
			"0.0": 40.2561205818,
			"0.001": 29.9051167474,
			"0.002": 24.6815286162,
			"0.003": 28.0343964075,
			"0.004": 21.0586509109,
			"0.005": 10.8779226176,
			"0.006": 9.47077439622,
			"0.007": 11.3838493177,
			"0.008": 10.2757048548,
			"0.009": 7.42918406983,
			"0.01": 4.78710791953,
			"0.011": 1.08107766773,
			"0.012": 1.04858664726,
			"0.013": 1.99889392349,
			"0.014": 2.21202490402,
			"0.015": 0.0870864236018,
			"0.016": 0.0,
			"0.017": 0.0,
			"0.018": 0.0,
			"0.019": 0.0,
			"0.02": 0.0,
			"0.021": 0.0,
			"0.022": 0.0,
			"0.023": 0.0,
			"0.024": 0.0,
			"0.025": 0.0
		}
	}
}
