{
	 "smiles": "OC(=O)CC1=CNC2=C1C(Br)=CC=C2", 
	 "Tm": 458.15, 
	 "num_atms": 22, 
	 "gaussian": { 
		 "optdone": 1, 
		 "sigma_profile": "yes", 
		 "theory": "DFT", 
		 "functional": "B3LYP", 
		 "basiset": "6-31G**", 
		 "properties": { 
			 "R2extent": 3677.7244, 
			 "electric_dipole_moment_norm": 5.86989947784, 
			 "electric_quadrupole_moment_norm": 24.5142644817, 
			 "total_energy": -3162.5040942, 
			 "HOMO_LUMO_gap": 0.1831, 
			 "cosmo_polarized_energy": -16.51, 
			 "cosmo_cavitation_energy": 27.99, 
			 "cosmo_dispersion_energy": -20.91, 
			 "cosmo_repulsion_energy": 1.61, 
			 "cosmo_total_nonelectrostatic_energy": 8.69, 
			 "SMD_solvation_energy": 4.7 
		},
		"coords": [
			{
				"x": -1.7331619931,
				"y": 1.8135923275,
				"z": 2.3018848243,
				"element": "O" 
			},
			{
				"x": -1.9248157728,
				"y": 2.5025614774,
				"z": 1.154876861,
				"element": "C" 
			},
			{
				"x": -2.8238876821,
				"y": 3.3021870041,
				"z": 1.0585709605,
				"element": "O" 
			},
			{
				"x": -0.9666473504,
				"y": 2.1813771651,
				"z": -0.0005191662,
				"element": "C" 
			},
			{
				"x": -1.3441223411,
				"y": 0.9037033376,
				"z": -0.7110774839,
				"element": "C" 
			},
			{
				"x": -2.2716690768,
				"y": 0.8510510671,
				"z": -1.7234281315,
				"element": "C" 
			},
			{
				"x": -2.4260719305,
				"y": -0.4431286159,
				"z": -2.1653551433,
				"element": "N" 
			},
			{
				"x": -1.5987913376,
				"y": -1.2732608206,
				"z": -1.4445380756,
				"element": "C" 
			},
			{
				"x": -0.8951710419,
				"y": -0.4555823667,
				"z": -0.5045867659,
				"element": "C" 
			},
			{
				"x": 0.0082666342,
				"y": -1.1270817388,
				"z": 0.3394604826,
				"element": "C" 
			},
			{
				"x": 1.0248294551,
				"y": -0.1791745209,
				"z": 1.6730376411,
				"element": "Br" 
			},
			{
				"x": 0.2023616236,
				"y": -2.4961290385,
				"z": 0.2529910062,
				"element": "C" 
			},
			{
				"x": -0.5109314707,
				"y": -3.255635602,
				"z": -0.6937681426,
				"element": "C" 
			},
			{
				"x": -1.4198307004,
				"y": -2.6552388883,
				"z": -1.5523534952,
				"element": "C" 
			},
			{
				"x": -0.9636914471,
				"y": 1.2227430127,
				"z": 2.2260605039,
				"element": "H" 
			},
			{
				"x": -1.0428362587,
				"y": 3.02055244,
				"z": -0.6949126335,
				"element": "H" 
			},
			{
				"x": 0.0643642172,
				"y": 2.1364125745,
				"z": 0.3596302526,
				"element": "H" 
			},
			{
				"x": -2.8397009604,
				"y": 1.6596360251,
				"z": -2.1611312646,
				"element": "H" 
			},
			{
				"x": -3.0488119913,
				"y": -0.7383358801,
				"z": -2.8996066321,
				"element": "H" 
			},
			{
				"x": 0.9041612095,
				"y": -2.9820922456,
				"z": 0.9204793372,
				"element": "H" 
			},
			{
				"x": -0.3430961338,
				"y": -4.3266638237,
				"z": -0.7436525666,
				"element": "H" 
			},
			{
				"x": -1.9750456509,
				"y": -3.2365928899,
				"z": -2.2822623685,
				"element": "H" 
			}
		],
		 "valence_orbital": [ 
			{
				"type": "occ",
				"energy": -0.29955,
				"method": "rhf"
			},
			{
				"type": "occ",
				"energy": -0.2843,
				"method": "rhf"
			},
			{
				"type": "occ",
				"energy": -0.25892,
				"method": "rhf"
			},
			{
				"type": "occ",
				"energy": -0.24348,
				"method": "rhf"
			},
			{
				"type": "occ",
				"energy": -0.2164,
				"method": "rhf"
			},
			{
				"type": "unocc",
				"energy": -0.0333,
				"method": "rhf"
			},
			{
				"type": "unocc",
				"energy": -0.00736,
				"method": "rhf"
			},
			{
				"type": "unocc",
				"energy": 0.00239,
				"method": "rhf"
			},
			{
				"type": "unocc",
				"energy": 0.01884,
				"method": "rhf"
			},
			{
				"type": "unocc",
				"energy": 0.05474,
				"method": "rhf"
			}
		],
		"cosmo_sigma_profile": { 
			"-0.025": 0.0,
			"-0.024": 0.0,
			"-0.023": 0.0,
			"-0.022": 0.0,
			"-0.021": 0.0,
			"-0.02": 0.0,
			"-0.019": 0.0,
			"-0.018": 0.0,
			"-0.017": 0.047709938295,
			"-0.016": 1.61194074266,
			"-0.015": 1.4846402661,
			"-0.014": 1.27314271189,
			"-0.013": 1.71043425878,
			"-0.012": 0.93771584407,
			"-0.011": 1.35839745246,
			"-0.01": 1.95282304703,
			"-0.009": 3.46164017034,
			"-0.008": 5.76692118832,
			"-0.007": 7.61788725934,
			"-0.006": 11.6171707934,
			"-0.005": 13.390408087,
			"-0.004": 15.1383520143,
			"-0.003": 13.1385913427,
			"-0.002": 12.613970912,
			"-0.001": 10.9293418961,
			"0.0": 10.2559105836,
			"0.001": 14.1819616053,
			"0.002": 19.1508026736,
			"0.003": 23.0281438898,
			"0.004": 18.5196768349,
			"0.005": 8.81681282642,
			"0.006": 2.90100019867,
			"0.007": 1.71960193182,
			"0.008": 2.48843219578,
			"0.009": 3.15844589239,
			"0.01": 4.28913341073,
			"0.011": 5.20731716451,
			"0.012": 5.78456315209,
			"0.013": 3.24688376052,
			"0.014": 0.459017372073,
			"0.015": 0.0,
			"0.016": 0.0,
			"0.017": 0.0,
			"0.018": 0.0,
			"0.019": 0.0,
			"0.02": 0.0,
			"0.021": 0.0,
			"0.022": 0.0,
			"0.023": 0.0,
			"0.024": 0.0,
			"0.025": 0.0
		}
	}
}
