{
	 "smiles": "CCOC(=O)C(=O)NC1=CC(=CC(=C1)C(F)(F)F)C(F)(F)F", 
	 "Tm": 364.15, 
	 "num_atms": 31, 
	 "gaussian": { 
		 "optdone": 1, 
		 "sigma_profile": "yes", 
		 "theory": "DFT", 
		 "functional": "B3LYP", 
		 "basiset": "6-31G**", 
		 "properties": { 
			 "R2extent": 7501.7278, 
			 "electric_dipole_moment_norm": 2.64855951981, 
			 "electric_quadrupole_moment_norm": 17.7305190336, 
			 "total_energy": -1342.19150689, 
			 "HOMO_LUMO_gap": 0.1995, 
			 "cosmo_polarized_energy": -14.84, 
			 "cosmo_cavitation_energy": 39.94, 
			 "cosmo_dispersion_energy": -25.56, 
			 "cosmo_repulsion_energy": 1.87, 
			 "cosmo_total_nonelectrostatic_energy": 16.26, 
			 "SMD_solvation_energy": 10.74 
		},
		"coords": [
			{
				"x": -1.2820808867,
				"y": 2.2028053307,
				"z": 3.4909623088,
				"element": "C" 
			},
			{
				"x": -0.4612999322,
				"y": 0.9386989455,
				"z": 3.3360199705,
				"element": "C" 
			},
			{
				"x": 0.4568888285,
				"y": 1.1474432482,
				"z": 2.2224203532,
				"element": "O" 
			},
			{
				"x": 1.4063463399,
				"y": 0.2201095067,
				"z": 2.0596426674,
				"element": "C" 
			},
			{
				"x": 1.5982079702,
				"y": -0.7386071377,
				"z": 2.771611809,
				"element": "O" 
			},
			{
				"x": 2.2868280826,
				"y": 0.5502366098,
				"z": 0.8457523845,
				"element": "C" 
			},
			{
				"x": 3.4340340824,
				"y": 0.921641887,
				"z": 1.0044113772,
				"element": "O" 
			},
			{
				"x": 1.7272785469,
				"y": 0.4063378087,
				"z": -0.4074589757,
				"element": "N" 
			},
			{
				"x": 0.4281272473,
				"y": -0.0023139968,
				"z": -0.7685909584,
				"element": "C" 
			},
			{
				"x": -0.2574668609,
				"y": -0.9960031816,
				"z": -0.061505659,
				"element": "C" 
			},
			{
				"x": -1.5649144698,
				"y": -1.326010095,
				"z": -0.4228871315,
				"element": "C" 
			},
			{
				"x": -2.17928645,
				"y": -0.7349900679,
				"z": -1.5234841538,
				"element": "C" 
			},
			{
				"x": -1.4655288537,
				"y": 0.2116971778,
				"z": -2.2624545162,
				"element": "C" 
			},
			{
				"x": -0.1803985675,
				"y": 0.5903986369,
				"z": -1.8842584057,
				"element": "C" 
			},
			{
				"x": -2.0836056546,
				"y": 0.8053946446,
				"z": -3.5035465601,
				"element": "C" 
			},
			{
				"x": -1.8478574561,
				"y": 0.0314211849,
				"z": -4.5855782465,
				"element": "F" 
			},
			{
				"x": -3.4221218739,
				"y": 0.9237062005,
				"z": -3.3836400198,
				"element": "F" 
			},
			{
				"x": -1.5845367334,
				"y": 2.0303887069,
				"z": -3.7748190706,
				"element": "F" 
			},
			{
				"x": -2.309858658,
				"y": -2.3138766078,
				"z": 0.4383343562,
				"element": "C" 
			},
			{
				"x": -3.4456348366,
				"y": -2.7437903121,
				"z": -0.1440492621,
				"element": "F" 
			},
			{
				"x": -1.5545155417,
				"y": -3.3941803423,
				"z": 0.7223592081,
				"element": "F" 
			},
			{
				"x": -2.6535270378,
				"y": -1.7533219549,
				"z": 1.6253234601,
				"element": "F" 
			},
			{
				"x": -1.8418176324,
				"y": 2.4224452623,
				"z": 2.5775876523,
				"element": "H" 
			},
			{
				"x": -1.9969226329,
				"y": 2.0766462361,
				"z": 4.3098318784,
				"element": "H" 
			},
			{
				"x": -0.6423080919,
				"y": 3.0592191636,
				"z": 3.7210402809,
				"element": "H" 
			},
			{
				"x": 0.1231462358,
				"y": 0.7047078408,
				"z": 4.2290980633,
				"element": "H" 
			},
			{
				"x": -1.0821703317,
				"y": 0.0697867404,
				"z": 3.0944210169,
				"element": "H" 
			},
			{
				"x": 2.3371150663,
				"y": 0.7421711317,
				"z": -1.1443963456,
				"element": "H" 
			},
			{
				"x": 0.2175797492,
				"y": -1.5185746913,
				"z": 0.7600675801,
				"element": "H" 
			},
			{
				"x": -3.1897096282,
				"y": -1.0054933002,
				"z": -1.8024409314,
				"element": "H" 
			},
			{
				"x": 0.3418099808,
				"y": 1.3608054244,
				"z": -2.4416741306,
				"element": "H" 
			}
		],
		 "valence_orbital": [ 
			{
				"type": "occ",
				"energy": -0.32216,
				"method": "rhf"
			},
			{
				"type": "occ",
				"energy": -0.31663,
				"method": "rhf"
			},
			{
				"type": "occ",
				"energy": -0.29872,
				"method": "rhf"
			},
			{
				"type": "occ",
				"energy": -0.27157,
				"method": "rhf"
			},
			{
				"type": "occ",
				"energy": -0.26188,
				"method": "rhf"
			},
			{
				"type": "unocc",
				"energy": -0.06238,
				"method": "rhf"
			},
			{
				"type": "unocc",
				"energy": -0.05493,
				"method": "rhf"
			},
			{
				"type": "unocc",
				"energy": -0.02519,
				"method": "rhf"
			},
			{
				"type": "unocc",
				"energy": 0.0128,
				"method": "rhf"
			},
			{
				"type": "unocc",
				"energy": 0.06672,
				"method": "rhf"
			}
		],
		"cosmo_sigma_profile": { 
			"-0.025": 0.0,
			"-0.024": 0.0,
			"-0.023": 0.0,
			"-0.022": 0.0,
			"-0.021": 0.0,
			"-0.02": 0.0,
			"-0.019": 0.0,
			"-0.018": 0.0,
			"-0.017": 0.184007635546,
			"-0.016": 1.40796532265,
			"-0.015": 1.24271486539,
			"-0.014": 1.57682379872,
			"-0.013": 1.00549246923,
			"-0.012": 1.31842332188,
			"-0.011": 0.920204125285,
			"-0.01": 1.6005125751,
			"-0.009": 1.56606384928,
			"-0.008": 2.40421129998,
			"-0.007": 4.33627114914,
			"-0.006": 8.77130976469,
			"-0.005": 15.9129118761,
			"-0.004": 21.7273454606,
			"-0.003": 20.998964067,
			"-0.002": 25.7832021958,
			"-0.001": 30.9504205733,
			"0.0": 33.7840992216,
			"0.001": 23.6224475334,
			"0.002": 47.9895936747,
			"0.003": 33.376333189,
			"0.004": 3.71024780974,
			"0.005": 4.11634414265,
			"0.006": 3.83874122258,
			"0.007": 3.12023728646,
			"0.008": 3.2684040218,
			"0.009": 4.02286680123,
			"0.01": 6.90279807022,
			"0.011": 7.6224428654,
			"0.012": 2.42808720178,
			"0.013": 0.0048820697291,
			"0.014": 0.0,
			"0.015": 0.0,
			"0.016": 0.0,
			"0.017": 0.0,
			"0.018": 0.0,
			"0.019": 0.0,
			"0.02": 0.0,
			"0.021": 0.0,
			"0.022": 0.0,
			"0.023": 0.0,
			"0.024": 0.0,
			"0.025": 0.0
		}
	}
}
