{
	 "smiles": "CCOC(=O)CSC1=NC(=O)NC2=C1CCCC2", 
	 "Tm": 465.15, 
	 "num_atms": 34, 
	 "gaussian": { 
		 "optdone": 1, 
		 "sigma_profile": "yes", 
		 "theory": "DFT", 
		 "functional": "B3LYP", 
		 "basiset": "6-31G**", 
		 "properties": { 
			 "R2extent": 6820.0091, 
			 "electric_dipole_moment_norm": 4.28857629523, 
			 "electric_quadrupole_moment_norm": 25.761271343, 
			 "total_energy": -1200.32634475, 
			 "HOMO_LUMO_gap": 0.17907, 
			 "cosmo_polarized_energy": -22.86, 
			 "cosmo_cavitation_energy": 38.28, 
			 "cosmo_dispersion_energy": -27.49, 
			 "cosmo_repulsion_energy": 2.14, 
			 "cosmo_total_nonelectrostatic_energy": 12.93, 
			 "SMD_solvation_energy": 6.64 
		},
		"coords": [
			{
				"x": -3.6389299689,
				"y": 4.0732532018,
				"z": 3.3276602177,
				"element": "C" 
			},
			{
				"x": -3.581165838,
				"y": 2.951664116,
				"z": 2.3086937801,
				"element": "C" 
			},
			{
				"x": -2.3520223802,
				"y": 3.1096605676,
				"z": 1.5602054684,
				"element": "O" 
			},
			{
				"x": -2.0961283033,
				"y": 2.1558145342,
				"z": 0.6481479167,
				"element": "C" 
			},
			{
				"x": -2.8403541623,
				"y": 1.2411857442,
				"z": 0.3805881465,
				"element": "O" 
			},
			{
				"x": -0.7598186318,
				"y": 2.4542108563,
				"z": -0.0275553131,
				"element": "C" 
			},
			{
				"x": 0.0371174456,
				"y": 0.9980892919,
				"z": -0.7670152817,
				"element": "S" 
			},
			{
				"x": 0.4236603157,
				"y": 0.0774022494,
				"z": 0.7073940231,
				"element": "C" 
			},
			{
				"x": 0.0878588408,
				"y": 0.6045765656,
				"z": 1.8564365945,
				"element": "N" 
			},
			{
				"x": 0.3429367109,
				"y": -0.0742835443,
				"z": 3.0333847879,
				"element": "C" 
			},
			{
				"x": 0.0734706288,
				"y": 0.3312354516,
				"z": 4.1515722717,
				"element": "O" 
			},
			{
				"x": 0.9603198053,
				"y": -1.337120851,
				"z": 2.877453172,
				"element": "N" 
			},
			{
				"x": 1.3159097233,
				"y": -1.8910180195,
				"z": 1.6827280566,
				"element": "C" 
			},
			{
				"x": 1.0761105058,
				"y": -1.1936283722,
				"z": 0.5261375841,
				"element": "C" 
			},
			{
				"x": 1.4436761343,
				"y": -1.746072119,
				"z": -0.8341467632,
				"element": "C" 
			},
			{
				"x": 2.4154006787,
				"y": -2.9327286661,
				"z": -0.7405469961,
				"element": "C" 
			},
			{
				"x": 1.9731405496,
				"y": -3.9242367192,
				"z": 0.3415738516,
				"element": "C" 
			},
			{
				"x": 1.9710221333,
				"y": -3.2491663008,
				"z": 1.7199197578,
				"element": "C" 
			},
			{
				"x": -3.63456411,
				"y": 5.0510137748,
				"z": 2.8367948745,
				"element": "H" 
			},
			{
				"x": -4.5561927411,
				"y": 3.9893228653,
				"z": 3.9190117977,
				"element": "H" 
			},
			{
				"x": -2.7840923248,
				"y": 4.0224196527,
				"z": 4.0074941593,
				"element": "H" 
			},
			{
				"x": -4.4254999736,
				"y": 2.9805333228,
				"z": 1.6120840364,
				"element": "H" 
			},
			{
				"x": -3.5723825715,
				"y": 1.9657992516,
				"z": 2.7823819369,
				"element": "H" 
			},
			{
				"x": -0.0876266229,
				"y": 2.9258914895,
				"z": 0.6885114485,
				"element": "H" 
			},
			{
				"x": -0.9281882962,
				"y": 3.141173055,
				"z": -0.8638474116,
				"element": "H" 
			},
			{
				"x": 1.1212455178,
				"y": -1.8375209434,
				"z": 3.7425599315,
				"element": "H" 
			},
			{
				"x": 1.8899908638,
				"y": -0.954437867,
				"z": -1.4479788667,
				"element": "H" 
			},
			{
				"x": 0.5308751015,
				"y": -2.0560242259,
				"z": -1.3629192841,
				"element": "H" 
			},
			{
				"x": 3.4223056641,
				"y": -2.5647601137,
				"z": -0.502876339,
				"element": "H" 
			},
			{
				"x": 2.4829440946,
				"y": -3.4309531871,
				"z": -1.7132351339,
				"element": "H" 
			},
			{
				"x": 0.9644004345,
				"y": -4.2906212614,
				"z": 0.1129296566,
				"element": "H" 
			},
			{
				"x": 2.6316519759,
				"y": -4.7987253849,
				"z": 0.3635016221,
				"element": "H" 
			},
			{
				"x": 1.4597672641,
				"y": -3.8761271368,
				"z": 2.4614267008,
				"element": "H" 
			},
			{
				"x": 3.0024615361,
				"y": -3.1257212781,
				"z": 2.0805295964,
				"element": "H" 
			}
		],
		 "valence_orbital": [ 
			{
				"type": "occ",
				"energy": -0.26987,
				"method": "rhf"
			},
			{
				"type": "occ",
				"energy": -0.26404,
				"method": "rhf"
			},
			{
				"type": "occ",
				"energy": -0.24994,
				"method": "rhf"
			},
			{
				"type": "occ",
				"energy": -0.24278,
				"method": "rhf"
			},
			{
				"type": "occ",
				"energy": -0.2248,
				"method": "rhf"
			},
			{
				"type": "unocc",
				"energy": -0.04573,
				"method": "rhf"
			},
			{
				"type": "unocc",
				"energy": 0.01288,
				"method": "rhf"
			},
			{
				"type": "unocc",
				"energy": 0.0156,
				"method": "rhf"
			},
			{
				"type": "unocc",
				"energy": 0.03779,
				"method": "rhf"
			},
			{
				"type": "unocc",
				"energy": 0.07012,
				"method": "rhf"
			}
		],
		"cosmo_sigma_profile": { 
			"-0.025": 0.0,
			"-0.024": 0.0,
			"-0.023": 0.0,
			"-0.022": 0.0,
			"-0.021": 0.0,
			"-0.02": 0.0,
			"-0.019": 0.0,
			"-0.018": 0.0,
			"-0.017": 0.0,
			"-0.016": 0.385230860371,
			"-0.015": 1.35723593906,
			"-0.014": 0.719211078185,
			"-0.013": 1.3957778518,
			"-0.012": 1.1046149201,
			"-0.011": 1.52030882675,
			"-0.01": 1.46667066323,
			"-0.009": 4.21635414415,
			"-0.008": 3.56335927322,
			"-0.007": 4.29181316876,
			"-0.006": 8.02234764812,
			"-0.005": 15.4567725353,
			"-0.004": 29.0714841585,
			"-0.003": 40.9671820268,
			"-0.002": 36.9104236164,
			"-0.001": 32.1623201117,
			"0.0": 24.1819616773,
			"0.001": 12.1457160348,
			"0.002": 9.02684093007,
			"0.003": 7.2291057054,
			"0.004": 7.06458409568,
			"0.005": 7.23191247308,
			"0.006": 6.92295941272,
			"0.007": 5.97210247397,
			"0.008": 5.06370777015,
			"0.009": 3.79059846024,
			"0.01": 3.73125023353,
			"0.011": 5.6294884894,
			"0.012": 6.47076327325,
			"0.013": 5.52461422701,
			"0.014": 6.56274293591,
			"0.015": 2.73483639061,
			"0.016": 0.637576980435,
			"0.017": 0.0,
			"0.018": 0.0,
			"0.019": 0.0,
			"0.02": 0.0,
			"0.021": 0.0,
			"0.022": 0.0,
			"0.023": 0.0,
			"0.024": 0.0,
			"0.025": 0.0
		}
	}
}
