{
	 "smiles": "COC1=CC=CC2=C1OC(=C2)C(C)=O", 
	 "Tm": 366.15, 
	 "num_atms": 24, 
	 "gaussian": { 
		 "optdone": 1, 
		 "sigma_profile": "yes", 
		 "theory": "DFT", 
		 "functional": "B3LYP", 
		 "basiset": "6-31G**", 
		 "properties": { 
			 "R2extent": 3349.6474, 
			 "electric_dipole_moment_norm": 2.57574685868, 
			 "electric_quadrupole_moment_norm": 11.6985474996, 
			 "total_energy": -650.841476789, 
			 "HOMO_LUMO_gap": 0.14764, 
			 "cosmo_polarized_energy": -10.83, 
			 "cosmo_cavitation_energy": 28.54, 
			 "cosmo_dispersion_energy": -20.62, 
			 "cosmo_repulsion_energy": 1.61, 
			 "cosmo_total_nonelectrostatic_energy": 9.53, 
			 "SMD_solvation_energy": 6.69 
		},
		"coords": [
			{
				"x": 1.4046715808,
				"y": -1.6589999433,
				"z": 1.8032942827,
				"element": "C" 
			},
			{
				"x": 0.8206869504,
				"y": -2.4066484037,
				"z": 0.7332161231,
				"element": "O" 
			},
			{
				"x": 0.4898301045,
				"y": -1.7881595769,
				"z": -0.428712725,
				"element": "C" 
			},
			{
				"x": -0.076419265,
				"y": -2.584735149,
				"z": -1.4295801783,
				"element": "C" 
			},
			{
				"x": -0.4613312224,
				"y": -2.0629629279,
				"z": -2.6758684956,
				"element": "C" 
			},
			{
				"x": -0.2999095294,
				"y": -0.7189026271,
				"z": -2.9849908019,
				"element": "C" 
			},
			{
				"x": 0.2663863903,
				"y": 0.1061139282,
				"z": -1.9990442812,
				"element": "C" 
			},
			{
				"x": 0.6498630802,
				"y": -0.4293109063,
				"z": -0.7493232427,
				"element": "C" 
			},
			{
				"x": 1.1740723666,
				"y": 0.5503603434,
				"z": 0.0486514596,
				"element": "O" 
			},
			{
				"x": 1.1306916389,
				"y": 1.7154588112,
				"z": -0.6798168403,
				"element": "C" 
			},
			{
				"x": 0.5931724622,
				"y": 1.5014399273,
				"z": -1.918863964,
				"element": "C" 
			},
			{
				"x": 1.6501496635,
				"y": 2.9257166671,
				"z": -0.0156670611,
				"element": "C" 
			},
			{
				"x": 1.6043714003,
				"y": 4.2144228572,
				"z": -0.8188959174,
				"element": "C" 
			},
			{
				"x": 2.0936755469,
				"y": 2.8811850174,
				"z": 1.1208143343,
				"element": "O" 
			},
			{
				"x": 0.7354654442,
				"y": -0.8683120064,
				"z": 2.1545771341,
				"element": "H" 
			},
			{
				"x": 2.3588637506,
				"y": -1.2124826924,
				"z": 1.5090520738,
				"element": "H" 
			},
			{
				"x": 1.5691931213,
				"y": -2.3827345251,
				"z": 2.6028750831,
				"element": "H" 
			},
			{
				"x": -0.2109360717,
				"y": -3.6381823469,
				"z": -1.2073590249,
				"element": "H" 
			},
			{
				"x": -0.8950295603,
				"y": -2.7369052663,
				"z": -3.4085388307,
				"element": "H" 
			},
			{
				"x": -0.5980251301,
				"y": -0.318565812,
				"z": -3.9481438715,
				"element": "H" 
			},
			{
				"x": 0.4457271001,
				"y": 2.2475846833,
				"z": -2.6865869212,
				"element": "H" 
			},
			{
				"x": 0.5755213284,
				"y": 4.4624345847,
				"z": -1.1015836948,
				"element": "H" 
			},
			{
				"x": 2.0174667223,
				"y": 5.0190097713,
				"z": -0.2099006805,
				"element": "H" 
			},
			{
				"x": 2.1861421274,
				"y": 4.1204755923,
				"z": -1.7423039597,
				"element": "H" 
			}
		],
		 "valence_orbital": [ 
			{
				"type": "occ",
				"energy": -0.3297,
				"method": "rhf"
			},
			{
				"type": "occ",
				"energy": -0.2848,
				"method": "rhf"
			},
			{
				"type": "occ",
				"energy": -0.25438,
				"method": "rhf"
			},
			{
				"type": "occ",
				"energy": -0.24079,
				"method": "rhf"
			},
			{
				"type": "occ",
				"energy": -0.21221,
				"method": "rhf"
			},
			{
				"type": "unocc",
				"energy": -0.06457,
				"method": "rhf"
			},
			{
				"type": "unocc",
				"energy": 0.00943,
				"method": "rhf"
			},
			{
				"type": "unocc",
				"energy": 0.01605,
				"method": "rhf"
			},
			{
				"type": "unocc",
				"energy": 0.08246,
				"method": "rhf"
			},
			{
				"type": "unocc",
				"energy": 0.08302,
				"method": "rhf"
			}
		],
		"cosmo_sigma_profile": { 
			"-0.025": 0.0,
			"-0.024": 0.0,
			"-0.023": 0.0,
			"-0.022": 0.0,
			"-0.021": 0.0,
			"-0.02": 0.0,
			"-0.019": 0.0,
			"-0.018": 0.0,
			"-0.017": 0.0,
			"-0.016": 0.0,
			"-0.015": 0.0,
			"-0.014": 0.0,
			"-0.013": 0.0,
			"-0.012": 0.0,
			"-0.011": 0.0,
			"-0.01": 0.0,
			"-0.009": 0.460802872492,
			"-0.008": 2.00458877652,
			"-0.007": 3.77672748143,
			"-0.006": 17.0374709809,
			"-0.005": 20.1504850698,
			"-0.004": 20.5717311383,
			"-0.003": 21.9860760934,
			"-0.002": 17.5633905351,
			"-0.001": 16.7463560352,
			"0.0": 15.6751623706,
			"0.001": 13.4271893731,
			"0.002": 15.1141399695,
			"0.003": 13.7653782727,
			"0.004": 12.2775450118,
			"0.005": 8.59893609963,
			"0.006": 4.54006411741,
			"0.007": 2.2982981211,
			"0.008": 3.84305251169,
			"0.009": 3.3696789108,
			"0.01": 3.40750124814,
			"0.011": 3.91652118828,
			"0.012": 5.20426073657,
			"0.013": 2.25355438943,
			"0.014": 0.0671430531151,
			"0.015": 0.0,
			"0.016": 0.0,
			"0.017": 0.0,
			"0.018": 0.0,
			"0.019": 0.0,
			"0.02": 0.0,
			"0.021": 0.0,
			"0.022": 0.0,
			"0.023": 0.0,
			"0.024": 0.0,
			"0.025": 0.0
		}
	}
}
