{
	 "smiles": "CCOC(=O)C1=C2NC=CN2N=C1N", 
	 "Tm": 442.15, 
	 "num_atms": 24, 
	 "gaussian": { 
		 "optdone": 1, 
		 "sigma_profile": "yes", 
		 "theory": "DFT", 
		 "functional": "B3LYP", 
		 "basiset": "6-31G**", 
		 "properties": { 
			 "R2extent": 3348.6476, 
			 "electric_dipole_moment_norm": 4.3713135909, 
			 "electric_quadrupole_moment_norm": 9.18961571449, 
			 "total_energy": -680.319372239, 
			 "HOMO_LUMO_gap": 0.19699, 
			 "cosmo_polarized_energy": -16.89, 
			 "cosmo_cavitation_energy": 28.4, 
			 "cosmo_dispersion_energy": -21.04, 
			 "cosmo_repulsion_energy": 1.67, 
			 "cosmo_total_nonelectrostatic_energy": 9.04, 
			 "SMD_solvation_energy": 5.12 
		},
		"coords": [
			{
				"x": 3.8937435138,
				"y": 0.6080726641,
				"z": 1.9467344422,
				"element": "C" 
			},
			{
				"x": 3.0838737425,
				"y": 1.0832633962,
				"z": 0.7487831197,
				"element": "C" 
			},
			{
				"x": 1.7844132019,
				"y": 0.4553175625,
				"z": 0.704934794,
				"element": "O" 
			},
			{
				"x": 1.7260149652,
				"y": -0.7716105826,
				"z": 0.0925512976,
				"element": "C" 
			},
			{
				"x": 2.7078070127,
				"y": -1.3155274952,
				"z": -0.4047643809,
				"element": "O" 
			},
			{
				"x": 0.3961330265,
				"y": -1.3040499803,
				"z": 0.1017952798,
				"element": "C" 
			},
			{
				"x": -0.8032505123,
				"y": -0.7435052878,
				"z": 0.5657968479,
				"element": "C" 
			},
			{
				"x": -1.3759668509,
				"y": 0.3258643574,
				"z": 1.1801545443,
				"element": "N" 
			},
			{
				"x": -2.752088777,
				"y": 0.0976120489,
				"z": 1.2670213833,
				"element": "C" 
			},
			{
				"x": -3.0156499975,
				"y": -1.1180271813,
				"z": 0.7010644913,
				"element": "C" 
			},
			{
				"x": -1.7983755978,
				"y": -1.6184461856,
				"z": 0.2756614159,
				"element": "N" 
			},
			{
				"x": -1.3640170325,
				"y": -2.7608691275,
				"z": -0.3641199144,
				"element": "N" 
			},
			{
				"x": -0.0437711862,
				"y": -2.5584654978,
				"z": -0.4560480477,
				"element": "C" 
			},
			{
				"x": 0.7995703797,
				"y": -3.4921061611,
				"z": -0.9930007239,
				"element": "N" 
			},
			{
				"x": 4.8426093223,
				"y": 1.153013851,
				"z": 1.9977809809,
				"element": "H" 
			},
			{
				"x": 4.1138688203,
				"y": -0.458297002,
				"z": 1.8568992206,
				"element": "H" 
			},
			{
				"x": 3.3488254455,
				"y": 0.779182505,
				"z": 2.8802660579,
				"element": "H" 
			},
			{
				"x": 2.8716800423,
				"y": 2.1544407843,
				"z": 0.8098998798,
				"element": "H" 
			},
			{
				"x": 3.6101546143,
				"y": 0.8733839349,
				"z": -0.1853777832,
				"element": "H" 
			},
			{
				"x": -0.8655329689,
				"y": 1.1293071561,
				"z": 1.5075404436,
				"element": "H" 
			},
			{
				"x": -3.4189607946,
				"y": 0.811416188,
				"z": 1.7212400207,
				"element": "H" 
			},
			{
				"x": -3.9414133559,
				"y": -1.6527628833,
				"z": 0.5714844897,
				"element": "H" 
			},
			{
				"x": 1.7208398439,
				"y": -3.1413919619,
				"z": -1.2220006815,
				"element": "H" 
			},
			{
				"x": 0.385293143,
				"y": -4.1619151021,
				"z": -1.6230971776,
				"element": "H" 
			}
		],
		 "valence_orbital": [ 
			{
				"type": "occ",
				"energy": -0.28399,
				"method": "rhf"
			},
			{
				"type": "occ",
				"energy": -0.27724,
				"method": "rhf"
			},
			{
				"type": "occ",
				"energy": -0.26316,
				"method": "rhf"
			},
			{
				"type": "occ",
				"energy": -0.21039,
				"method": "rhf"
			},
			{
				"type": "occ",
				"energy": -0.19136,
				"method": "rhf"
			},
			{
				"type": "unocc",
				"energy": 0.00563,
				"method": "rhf"
			},
			{
				"type": "unocc",
				"energy": 0.02376,
				"method": "rhf"
			},
			{
				"type": "unocc",
				"energy": 0.06317,
				"method": "rhf"
			},
			{
				"type": "unocc",
				"energy": 0.06809,
				"method": "rhf"
			},
			{
				"type": "unocc",
				"energy": 0.10584,
				"method": "rhf"
			}
		],
		"cosmo_sigma_profile": { 
			"-0.025": 0.0,
			"-0.024": 0.0,
			"-0.023": 0.0,
			"-0.022": 0.0,
			"-0.021": 0.0,
			"-0.02": 0.0,
			"-0.019": 0.0,
			"-0.018": 0.0,
			"-0.017": 0.386250126361,
			"-0.016": 0.724128086335,
			"-0.015": 1.14217484075,
			"-0.014": 1.113637055,
			"-0.013": 1.86794309463,
			"-0.012": 2.37471851275,
			"-0.011": 1.14268232751,
			"-0.01": 3.76840930785,
			"-0.009": 6.95004082033,
			"-0.008": 5.34572899866,
			"-0.007": 5.9625907299,
			"-0.006": 6.33162681389,
			"-0.005": 7.5011167853,
			"-0.004": 12.4743602669,
			"-0.003": 16.0530708616,
			"-0.002": 14.5351245331,
			"-0.001": 13.7882447765,
			"0.0": 20.9494732815,
			"0.001": 19.7472107971,
			"0.002": 18.7201607877,
			"0.003": 14.280662053,
			"0.004": 10.5643303026,
			"0.005": 5.42683982967,
			"0.006": 4.79057010169,
			"0.007": 3.88677211052,
			"0.008": 3.94945028049,
			"0.009": 3.86899036707,
			"0.01": 3.89727237005,
			"0.011": 3.9020562918,
			"0.012": 4.0316071185,
			"0.013": 2.85997985137,
			"0.014": 1.02251116761,
			"0.015": 1.19155009381,
			"0.016": 1.24429255245,
			"0.017": 0.227006376713,
			"0.018": 0.0,
			"0.019": 0.0,
			"0.02": 0.0,
			"0.021": 0.0,
			"0.022": 0.0,
			"0.023": 0.0,
			"0.024": 0.0,
			"0.025": 0.0
		}
	}
}
