{
	 "smiles": "CCC1=C(C)SC(=C1)C(O)=O", 
	 "Tm": 382.15, 
	 "num_atms": 21, 
	 "gaussian": { 
		 "optdone": 1, 
		 "sigma_profile": "yes", 
		 "theory": "DFT", 
		 "functional": "B3LYP", 
		 "basiset": "6-31G**", 
		 "properties": { 
			 "R2extent": 3380.9483, 
			 "electric_dipole_moment_norm": 5.52440313699, 
			 "electric_quadrupole_moment_norm": 19.0941656044, 
			 "total_energy": -859.522538928, 
			 "HOMO_LUMO_gap": 0.18518, 
			 "cosmo_polarized_energy": -12.78, 
			 "cosmo_cavitation_energy": 26.32, 
			 "cosmo_dispersion_energy": -19.37, 
			 "cosmo_repulsion_energy": 1.53, 
			 "cosmo_total_nonelectrostatic_energy": 8.48, 
			 "SMD_solvation_energy": 5.54 
		},
		"coords": [
			{
				"x": 1.8626892774,
				"y": 0.1533902019,
				"z": 0.0835566576,
				"element": "C" 
			},
			{
				"x": 0.9626286264,
				"y": -1.0798455014,
				"z": -0.1124206761,
				"element": "C" 
			},
			{
				"x": -0.5096562002,
				"y": -0.7683839818,
				"z": 0.0266270981,
				"element": "C" 
			},
			{
				"x": -1.3647328907,
				"y": -0.479579485,
				"z": -1.0184379115,
				"element": "C" 
			},
			{
				"x": -1.0757280508,
				"y": -0.4002090233,
				"z": -2.4888314502,
				"element": "C" 
			},
			{
				"x": -2.9738984085,
				"y": -0.1290223039,
				"z": -0.437836941,
				"element": "S" 
			},
			{
				"x": -2.4963992785,
				"y": -0.3835127188,
				"z": 1.2259338733,
				"element": "C" 
			},
			{
				"x": -1.1656545396,
				"y": -0.7070925844,
				"z": 1.2926192658,
				"element": "C" 
			},
			{
				"x": -3.3922328891,
				"y": -0.2763396031,
				"z": 2.3979238468,
				"element": "C" 
			},
			{
				"x": -4.7204895996,
				"y": -0.0939166508,
				"z": 2.1619874026,
				"element": "O" 
			},
			{
				"x": -2.9853430298,
				"y": -0.3425202789,
				"z": 3.5352913066,
				"element": "O" 
			},
			{
				"x": 2.9197509808,
				"y": -0.1191216576,
				"z": -0.0000302298,
				"element": "H" 
			},
			{
				"x": 1.6488039617,
				"y": 0.9206892373,
				"z": -0.6673198743,
				"element": "H" 
			},
			{
				"x": 1.7057158912,
				"y": 0.6022074573,
				"z": 1.0694511957,
				"element": "H" 
			},
			{
				"x": 1.1634051442,
				"y": -1.5239105474,
				"z": -1.0934400069,
				"element": "H" 
			},
			{
				"x": 1.230997541,
				"y": -1.8437881734,
				"z": 0.6268582335,
				"element": "H" 
			},
			{
				"x": -0.1433584429,
				"y": -0.9195902941,
				"z": -2.7236287057,
				"element": "H" 
			},
			{
				"x": -1.8718592192,
				"y": -0.8583768712,
				"z": -3.0839239651,
				"element": "H" 
			},
			{
				"x": -0.9695869532,
				"y": 0.638443445,
				"z": -2.8242393065,
				"element": "H" 
			},
			{
				"x": -0.6816662867,
				"y": -0.9066961745,
				"z": 2.2420490929,
				"element": "H" 
			},
			{
				"x": -4.925985634,
				"y": -0.1522244918,
				"z": 1.2179110943,
				"element": "H" 
			}
		],
		 "valence_orbital": [ 
			{
				"type": "occ",
				"energy": -0.34407,
				"method": "rhf"
			},
			{
				"type": "occ",
				"energy": -0.31233,
				"method": "rhf"
			},
			{
				"type": "occ",
				"energy": -0.27183,
				"method": "rhf"
			},
			{
				"type": "occ",
				"energy": -0.26108,
				"method": "rhf"
			},
			{
				"type": "occ",
				"energy": -0.24022,
				"method": "rhf"
			},
			{
				"type": "unocc",
				"energy": -0.05504,
				"method": "rhf"
			},
			{
				"type": "unocc",
				"energy": -0.00438,
				"method": "rhf"
			},
			{
				"type": "unocc",
				"energy": 0.02868,
				"method": "rhf"
			},
			{
				"type": "unocc",
				"energy": 0.0619,
				"method": "rhf"
			},
			{
				"type": "unocc",
				"energy": 0.08314,
				"method": "rhf"
			}
		],
		"cosmo_sigma_profile": { 
			"-0.025": 0.0,
			"-0.024": 0.0,
			"-0.023": 0.0,
			"-0.022": 0.0,
			"-0.021": 0.0,
			"-0.02": 0.0,
			"-0.019": 0.0,
			"-0.018": 0.127565628001,
			"-0.017": 0.554187704501,
			"-0.016": 1.2844013792,
			"-0.015": 0.528480307112,
			"-0.014": 0.784938077134,
			"-0.013": 0.695198709486,
			"-0.012": 1.57956533251,
			"-0.011": 1.11638577733,
			"-0.01": 1.07131421843,
			"-0.009": 0.455434129477,
			"-0.008": 0.873340837678,
			"-0.007": 2.14655040283,
			"-0.006": 5.67736081199,
			"-0.005": 11.2382743123,
			"-0.004": 13.3320751417,
			"-0.003": 21.6587320306,
			"-0.002": 23.3283435626,
			"-0.001": 24.0670354678,
			"0.0": 17.6722235427,
			"0.001": 17.1241182136,
			"0.002": 14.4952474944,
			"0.003": 14.4940657953,
			"0.004": 5.44950724596,
			"0.005": 2.63467363752,
			"0.006": 2.10451418125,
			"0.007": 1.8765477315,
			"0.008": 2.98732074013,
			"0.009": 3.31130328971,
			"0.01": 4.46925680543,
			"0.011": 5.06697379917,
			"0.012": 5.53190624773,
			"0.013": 2.26256139574,
			"0.014": 0.191023755168,
			"0.015": 0.0,
			"0.016": 0.0,
			"0.017": 0.0,
			"0.018": 0.0,
			"0.019": 0.0,
			"0.02": 0.0,
			"0.021": 0.0,
			"0.022": 0.0,
			"0.023": 0.0,
			"0.024": 0.0,
			"0.025": 0.0
		}
	}
}
