{
	 "smiles": "CC1=NOC(=O)C1CCC(O)=O", 
	 "Tm": 413.15, 
	 "num_atms": 21, 
	 "gaussian": { 
		 "optdone": 1, 
		 "sigma_profile": "yes", 
		 "theory": "DFT", 
		 "functional": "B3LYP", 
		 "basiset": "6-31G**", 
		 "properties": { 
			 "R2extent": 3655.3986, 
			 "electric_dipole_moment_norm": 4.12976516281, 
			 "electric_quadrupole_moment_norm": 22.8980352919, 
			 "total_energy": -627.791617581, 
			 "HOMO_LUMO_gap": 0.235, 
			 "cosmo_polarized_energy": -16.92, 
			 "cosmo_cavitation_energy": 25.06, 
			 "cosmo_dispersion_energy": -17.82, 
			 "cosmo_repulsion_energy": 1.44, 
			 "cosmo_total_nonelectrostatic_energy": 8.68, 
			 "SMD_solvation_energy": 5.93 
		},
		"coords": [
			{
				"x": 1.552470143,
				"y": -1.2041969345,
				"z": 0.4521413042,
				"element": "C" 
			},
			{
				"x": 2.4426146885,
				"y": -0.0319086755,
				"z": 0.1964984202,
				"element": "C" 
			},
			{
				"x": 2.96579322,
				"y": 0.612672297,
				"z": 1.1779721065,
				"element": "N" 
			},
			{
				"x": 3.8237034295,
				"y": 1.6406215875,
				"z": 0.6489384626,
				"element": "O" 
			},
			{
				"x": 3.8319426461,
				"y": 1.590709189,
				"z": -0.7200457163,
				"element": "C" 
			},
			{
				"x": 4.4597133711,
				"y": 2.3616552302,
				"z": -1.3984603032,
				"element": "O" 
			},
			{
				"x": 2.9015109823,
				"y": 0.4612510197,
				"z": -1.1479950886,
				"element": "C" 
			},
			{
				"x": 1.8593585228,
				"y": 0.9340298467,
				"z": -2.1897257257,
				"element": "C" 
			},
			{
				"x": 1.0314471014,
				"y": 2.1639683049,
				"z": -1.795873467,
				"element": "C" 
			},
			{
				"x": -0.1562338828,
				"y": 1.8655461034,
				"z": -0.9053929339,
				"element": "C" 
			},
			{
				"x": -0.6339719904,
				"y": 2.9860778242,
				"z": -0.325916149,
				"element": "O" 
			},
			{
				"x": -0.6701076409,
				"y": 0.7769700895,
				"z": -0.7458372281,
				"element": "O" 
			},
			{
				"x": 1.9866294062,
				"y": -2.1096842229,
				"z": 0.0117280157,
				"element": "H" 
			},
			{
				"x": 0.570627406,
				"y": -1.0413117898,
				"z": 0.0000926725,
				"element": "H" 
			},
			{
				"x": 1.4378289306,
				"y": -1.3558853663,
				"z": 1.5273433158,
				"element": "H" 
			},
			{
				"x": 3.507593898,
				"y": -0.3215854763,
				"z": -1.625257763,
				"element": "H" 
			},
			{
				"x": 2.4250693475,
				"y": 1.1798643718,
				"z": -3.0930263779,
				"element": "H" 
			},
			{
				"x": 1.1882388,
				"y": 0.1056570158,
				"z": -2.4336606599,
				"element": "H" 
			},
			{
				"x": 1.6424824565,
				"y": 2.9463419208,
				"z": -1.3356041573,
				"element": "H" 
			},
			{
				"x": 0.6148032137,
				"y": 2.6211766866,
				"z": -2.7029625952,
				"element": "H" 
			},
			{
				"x": -1.4102140491,
				"y": 2.7200309781,
				"z": 0.1957438674,
				"element": "H" 
			}
		],
		 "valence_orbital": [ 
			{
				"type": "occ",
				"energy": -0.33439,
				"method": "rhf"
			},
			{
				"type": "occ",
				"energy": -0.32665,
				"method": "rhf"
			},
			{
				"type": "occ",
				"energy": -0.29369,
				"method": "rhf"
			},
			{
				"type": "occ",
				"energy": -0.27658,
				"method": "rhf"
			},
			{
				"type": "occ",
				"energy": -0.2722,
				"method": "rhf"
			},
			{
				"type": "unocc",
				"energy": -0.0372,
				"method": "rhf"
			},
			{
				"type": "unocc",
				"energy": -0.00743,
				"method": "rhf"
			},
			{
				"type": "unocc",
				"energy": 0.01516,
				"method": "rhf"
			},
			{
				"type": "unocc",
				"energy": 0.0665,
				"method": "rhf"
			},
			{
				"type": "unocc",
				"energy": 0.07237,
				"method": "rhf"
			}
		],
		"cosmo_sigma_profile": { 
			"-0.025": 0.0,
			"-0.024": 0.0,
			"-0.023": 0.0,
			"-0.022": 0.0,
			"-0.021": 0.0,
			"-0.02": 0.0,
			"-0.019": 0.0814602854995,
			"-0.018": 0.956830900337,
			"-0.017": 0.650287456255,
			"-0.016": 0.845468613309,
			"-0.015": 1.16495634662,
			"-0.014": 0.660670636263,
			"-0.013": 0.952365564032,
			"-0.012": 0.327230108168,
			"-0.011": 0.714516795987,
			"-0.01": 1.96581184761,
			"-0.009": 5.34951804781,
			"-0.008": 5.68795206905,
			"-0.007": 8.6787633797,
			"-0.006": 13.0794179007,
			"-0.005": 14.2584525287,
			"-0.004": 13.4666973346,
			"-0.003": 14.0174306135,
			"-0.002": 15.0015872072,
			"-0.001": 10.2317806884,
			"0.0": 7.5467884308,
			"0.001": 7.16236896586,
			"0.002": 5.25442458925,
			"0.003": 5.69699283032,
			"0.004": 6.45319205588,
			"0.005": 5.41884803683,
			"0.006": 5.31426695729,
			"0.007": 8.98702575885,
			"0.008": 10.018518454,
			"0.009": 7.13957284703,
			"0.01": 7.49001558537,
			"0.011": 9.4848467474,
			"0.012": 2.92735077283,
			"0.013": 0.751414350472,
			"0.014": 0.0,
			"0.015": 0.0,
			"0.016": 0.0,
			"0.017": 0.0,
			"0.018": 0.0,
			"0.019": 0.0,
			"0.02": 0.0,
			"0.021": 0.0,
			"0.022": 0.0,
			"0.023": 0.0,
			"0.024": 0.0,
			"0.025": 0.0
		}
	}
}
