{
	 "smiles": "CCCCCCCC(=O)OCCC", 
	 "Tm": 226.95, 
	 "num_atms": 35, 
	 "gaussian": { 
		 "optdone": 1, 
		 "sigma_profile": "yes", 
		 "theory": "DFT", 
		 "functional": "B3LYP", 
		 "basiset": "6-31G**", 
		 "properties": { 
			 "R2extent": 4960.9306, 
			 "electric_dipole_moment_norm": 1.4236593764, 
			 "electric_quadrupole_moment_norm": 8.00090235911, 
			 "total_energy": -582.914700457, 
			 "HOMO_LUMO_gap": 0.28244, 
			 "cosmo_polarized_energy": -6.07, 
			 "cosmo_cavitation_energy": 35.75, 
			 "cosmo_dispersion_energy": -24.96, 
			 "cosmo_repulsion_energy": 2.05, 
			 "cosmo_total_nonelectrostatic_energy": 12.84, 
			 "SMD_solvation_energy": 6.3 
		},
		"coords": [
			{
				"x": 2.5661925093,
				"y": 2.8790392205,
				"z": 2.3077275238,
				"element": "C" 
			},
			{
				"x": 3.5638669888,
				"y": 2.8503572153,
				"z": 1.1418896044,
				"element": "C" 
			},
			{
				"x": 2.9961658503,
				"y": 3.3226105874,
				"z": -0.2150951311,
				"element": "C" 
			},
			{
				"x": 2.3695104838,
				"y": 2.2609141799,
				"z": -1.1411254035,
				"element": "C" 
			},
			{
				"x": 1.1045710252,
				"y": 1.5266618315,
				"z": -0.6436823105,
				"element": "C" 
			},
			{
				"x": 1.3806426589,
				"y": 0.2076052254,
				"z": 0.0955084713,
				"element": "C" 
			},
			{
				"x": 0.1113498539,
				"y": -0.4908233383,
				"z": 0.5953599731,
				"element": "C" 
			},
			{
				"x": -0.7463311825,
				"y": -1.0612023155,
				"z": -0.5201037236,
				"element": "C" 
			},
			{
				"x": -0.377329137,
				"y": -1.2598952176,
				"z": -1.6591066938,
				"element": "O" 
			},
			{
				"x": -1.9902088836,
				"y": -1.3489318399,
				"z": -0.0697640322,
				"element": "O" 
			},
			{
				"x": -2.9037707431,
				"y": -1.9482464226,
				"z": -1.0209978956,
				"element": "C" 
			},
			{
				"x": -2.7673304744,
				"y": -3.4676928178,
				"z": -1.0578008695,
				"element": "C" 
			},
			{
				"x": -3.0472493264,
				"y": -4.1435558903,
				"z": 0.2878135825,
				"element": "C" 
			},
			{
				"x": 3.0381368602,
				"y": 2.5501028903,
				"z": 3.240087882,
				"element": "H" 
			},
			{
				"x": 2.1898923124,
				"y": 3.8958048704,
				"z": 2.4689550475,
				"element": "H" 
			},
			{
				"x": 1.6990780375,
				"y": 2.2356892604,
				"z": 2.1322863433,
				"element": "H" 
			},
			{
				"x": 4.4089315659,
				"y": 3.4972336837,
				"z": 1.4097456125,
				"element": "H" 
			},
			{
				"x": 3.9877528018,
				"y": 1.8430278126,
				"z": 1.0333310617,
				"element": "H" 
			},
			{
				"x": 2.2615160466,
				"y": 4.1208518094,
				"z": -0.0354561899,
				"element": "H" 
			},
			{
				"x": 3.808861105,
				"y": 3.7941115975,
				"z": -0.782574766,
				"element": "H" 
			},
			{
				"x": 3.134945998,
				"y": 1.5161124568,
				"z": -1.4015721421,
				"element": "H" 
			},
			{
				"x": 2.124779428,
				"y": 2.768544279,
				"z": -2.082617328,
				"element": "H" 
			},
			{
				"x": 0.5139459633,
				"y": 2.1975008192,
				"z": -0.0038438368,
				"element": "H" 
			},
			{
				"x": 0.4716961812,
				"y": 1.2924222903,
				"z": -1.5067820492,
				"element": "H" 
			},
			{
				"x": 1.9112251712,
				"y": -0.4723193424,
				"z": -0.5806018086,
				"element": "H" 
			},
			{
				"x": 2.0396522169,
				"y": 0.3785666541,
				"z": 0.9530764539,
				"element": "H" 
			},
			{
				"x": 0.3694418716,
				"y": -1.3341549217,
				"z": 1.2501989216,
				"element": "H" 
			},
			{
				"x": -0.5093732953,
				"y": 0.1771859455,
				"z": 1.2032299749,
				"element": "H" 
			},
			{
				"x": -2.7177015013,
				"y": -1.5162041979,
				"z": -2.0069869611,
				"element": "H" 
			},
			{
				"x": -3.8957961126,
				"y": -1.6485932418,
				"z": -0.6705332724,
				"element": "H" 
			},
			{
				"x": -1.7613024574,
				"y": -3.7174947025,
				"z": -1.4125853639,
				"element": "H" 
			},
			{
				"x": -3.4657919232,
				"y": -3.8401642449,
				"z": -1.8187676975,
				"element": "H" 
			},
			{
				"x": -2.9245355125,
				"y": -5.2286672929,
				"z": 0.216234502,
				"element": "H" 
			},
			{
				"x": -4.0705163141,
				"y": -3.9446005844,
				"z": 0.6267496565,
				"element": "H" 
			},
			{
				"x": -2.3652180665,
				"y": -3.7768962588,
				"z": 1.0606028643,
				"element": "H" 
			}
		],
		 "valence_orbital": [ 
			{
				"type": "occ",
				"energy": -0.31529,
				"method": "rhf"
			},
			{
				"type": "occ",
				"energy": -0.30359,
				"method": "rhf"
			},
			{
				"type": "occ",
				"energy": -0.30003,
				"method": "rhf"
			},
			{
				"type": "occ",
				"energy": -0.2921,
				"method": "rhf"
			},
			{
				"type": "occ",
				"energy": -0.26684,
				"method": "rhf"
			},
			{
				"type": "unocc",
				"energy": 0.0156,
				"method": "rhf"
			},
			{
				"type": "unocc",
				"energy": 0.0818,
				"method": "rhf"
			},
			{
				"type": "unocc",
				"energy": 0.09612,
				"method": "rhf"
			},
			{
				"type": "unocc",
				"energy": 0.10601,
				"method": "rhf"
			},
			{
				"type": "unocc",
				"energy": 0.1169,
				"method": "rhf"
			}
		],
		"cosmo_sigma_profile": { 
			"-0.025": 0.0,
			"-0.024": 0.0,
			"-0.023": 0.0,
			"-0.022": 0.0,
			"-0.021": 0.0,
			"-0.02": 0.0,
			"-0.019": 0.0,
			"-0.018": 0.0,
			"-0.017": 0.0,
			"-0.016": 0.0,
			"-0.015": 0.0,
			"-0.014": 0.0,
			"-0.013": 0.0,
			"-0.012": 0.0,
			"-0.011": 0.0,
			"-0.01": 0.0,
			"-0.009": 0.0,
			"-0.008": 0.0,
			"-0.007": 0.000303836653955,
			"-0.006": 2.00738388618,
			"-0.005": 6.18314727297,
			"-0.004": 11.9094412143,
			"-0.003": 23.6108421411,
			"-0.002": 43.3120567988,
			"-0.001": 51.7190156658,
			"0.0": 48.7293898862,
			"0.001": 39.3055614803,
			"0.002": 18.0159229961,
			"0.003": 3.99131591393,
			"0.004": 3.34874042839,
			"0.005": 4.12539211759,
			"0.006": 2.92503074249,
			"0.007": 2.17566045762,
			"0.008": 2.17796265645,
			"0.009": 3.17503529395,
			"0.01": 1.93814962791,
			"0.011": 1.80242678237,
			"0.012": 3.9038865453,
			"0.013": 1.18907767455,
			"0.014": 0.0,
			"0.015": 0.0,
			"0.016": 0.0,
			"0.017": 0.0,
			"0.018": 0.0,
			"0.019": 0.0,
			"0.02": 0.0,
			"0.021": 0.0,
			"0.022": 0.0,
			"0.023": 0.0,
			"0.024": 0.0,
			"0.025": 0.0
		}
	}
}
