{
	 "smiles": "NC1=CC=NC2=NC=NN12", 
	 "Tm": 538.15, 
	 "num_atms": 15, 
	 "gaussian": { 
		 "optdone": 1, 
		 "sigma_profile": "yes", 
		 "theory": "DFT", 
		 "functional": "B3LYP", 
		 "basiset": "6-31G**", 
		 "properties": { 
			 "R2extent": 1553.7541, 
			 "electric_dipole_moment_norm": 6.05996246028, 
			 "electric_quadrupole_moment_norm": 14.0252117998, 
			 "total_energy": -467.288376618, 
			 "HOMO_LUMO_gap": 0.19492, 
			 "cosmo_polarized_energy": -18.03, 
			 "cosmo_cavitation_energy": 19.39, 
			 "cosmo_dispersion_energy": -15.1, 
			 "cosmo_repulsion_energy": 1.2, 
			 "cosmo_total_nonelectrostatic_energy": 5.49, 
			 "SMD_solvation_energy": -0.53 
		},
		"coords": [
			{
				"x": 1.2661094718,
				"y": 0.9902263899,
				"z": -1.1665876579,
				"element": "N" 
			},
			{
				"x": 0.3123361932,
				"y": 1.4963100036,
				"z": -0.3493144394,
				"element": "C" 
			},
			{
				"x": -0.0957101669,
				"y": 2.8191186,
				"z": -0.2160860098,
				"element": "C" 
			},
			{
				"x": -1.0895715718,
				"y": 3.1264530799,
				"z": 0.73510111,
				"element": "C" 
			},
			{
				"x": -1.6950246014,
				"y": 2.258772288,
				"z": 1.5367012123,
				"element": "N" 
			},
			{
				"x": -1.3009987391,
				"y": 0.9827363765,
				"z": 1.3990815612,
				"element": "C" 
			},
			{
				"x": -1.709473361,
				"y": -0.1209294678,
				"z": 2.0322973566,
				"element": "N" 
			},
			{
				"x": -0.9660275051,
				"y": -1.0953146734,
				"z": 1.4672466892,
				"element": "C" 
			},
			{
				"x": -0.1003387323,
				"y": -0.7321899017,
				"z": 0.5163090027,
				"element": "N" 
			},
			{
				"x": -0.3175276039,
				"y": 0.6115470499,
				"z": 0.4754454666,
				"element": "N" 
			},
			{
				"x": 1.3324401066,
				"y": -0.0162865774,
				"z": -1.225899525,
				"element": "H" 
			},
			{
				"x": 1.6204733228,
				"y": 1.5499356013,
				"z": -1.9238273448,
				"element": "H" 
			},
			{
				"x": 0.3502446259,
				"y": 3.5937392275,
				"z": -0.8278304684,
				"element": "H" 
			},
			{
				"x": -1.4023112658,
				"y": 4.1642906281,
				"z": 0.8367744471,
				"element": "H" 
			},
			{
				"x": -1.050820173,
				"y": -2.1347086242,
				"z": 1.7568885998,
				"element": "H" 
			}
		],
		 "valence_orbital": [ 
			{
				"type": "occ",
				"energy": -0.30278,
				"method": "rhf"
			},
			{
				"type": "occ",
				"energy": -0.27695,
				"method": "rhf"
			},
			{
				"type": "occ",
				"energy": -0.26907,
				"method": "rhf"
			},
			{
				"type": "occ",
				"energy": -0.26712,
				"method": "rhf"
			},
			{
				"type": "occ",
				"energy": -0.22961,
				"method": "rhf"
			},
			{
				"type": "unocc",
				"energy": -0.03469,
				"method": "rhf"
			},
			{
				"type": "unocc",
				"energy": -0.01218,
				"method": "rhf"
			},
			{
				"type": "unocc",
				"energy": 0.05615,
				"method": "rhf"
			},
			{
				"type": "unocc",
				"energy": 0.06256,
				"method": "rhf"
			},
			{
				"type": "unocc",
				"energy": 0.09326,
				"method": "rhf"
			}
		],
		"cosmo_sigma_profile": { 
			"-0.025": 0.0,
			"-0.024": 0.0,
			"-0.023": 0.0,
			"-0.022": 0.0,
			"-0.021": 0.0,
			"-0.02": 0.0,
			"-0.019": 0.0,
			"-0.018": 0.0,
			"-0.017": 0.0,
			"-0.016": 0.983233848037,
			"-0.015": 1.81249996208,
			"-0.014": 1.91573691484,
			"-0.013": 2.31129651705,
			"-0.012": 2.66446336961,
			"-0.011": 1.78571739973,
			"-0.01": 2.7052923982,
			"-0.009": 3.30137014912,
			"-0.008": 5.81285577868,
			"-0.007": 6.40727947811,
			"-0.006": 6.31103030284,
			"-0.005": 5.46834255333,
			"-0.004": 8.10702942561,
			"-0.003": 9.73436425809,
			"-0.002": 8.15738418486,
			"-0.001": 10.3222758961,
			"0.0": 8.49036658344,
			"0.001": 12.5317741424,
			"0.002": 8.11530416586,
			"0.003": 5.37235810555,
			"0.004": 5.29593114345,
			"0.005": 4.07144133535,
			"0.006": 4.0576485087,
			"0.007": 3.70590936191,
			"0.008": 4.4541244442,
			"0.009": 2.43053257482,
			"0.01": 3.46635500961,
			"0.011": 3.37155204317,
			"0.012": 2.80764269188,
			"0.013": 2.77229779031,
			"0.014": 3.43965668342,
			"0.015": 1.70350745922,
			"0.016": 2.17353222166,
			"0.017": 0.367670906795,
			"0.018": 0.0,
			"0.019": 0.0,
			"0.02": 0.0,
			"0.021": 0.0,
			"0.022": 0.0,
			"0.023": 0.0,
			"0.024": 0.0,
			"0.025": 0.0
		}
	}
}
