{
	 "smiles": "CN(CC(O)=O)S(=O)(=O)C1=CN=CC=C1", 
	 "Tm": 449.15, 
	 "num_atms": 25, 
	 "gaussian": { 
		 "optdone": 1, 
		 "sigma_profile": "yes", 
		 "theory": "DFT", 
		 "functional": "B3LYP", 
		 "basiset": "6-31G**", 
		 "properties": { 
			 "R2extent": 4055.0036, 
			 "electric_dipole_moment_norm": 5.26936828662, 
			 "electric_quadrupole_moment_norm": 13.9185974742, 
			 "total_energy": -1119.38631412, 
			 "HOMO_LUMO_gap": 0.20218, 
			 "cosmo_polarized_energy": -21.09, 
			 "cosmo_cavitation_energy": 30.88, 
			 "cosmo_dispersion_energy": -22.1, 
			 "cosmo_repulsion_energy": 1.68, 
			 "cosmo_total_nonelectrostatic_energy": 10.46, 
			 "SMD_solvation_energy": 3.89 
		},
		"coords": [
			{
				"x": 1.0507670095,
				"y": 0.8298122034,
				"z": 1.2440796188,
				"element": "C" 
			},
			{
				"x": 0.7694911034,
				"y": -0.3595670648,
				"z": 0.4283693146,
				"element": "N" 
			},
			{
				"x": 1.17018598,
				"y": -1.6488284718,
				"z": 0.9666375575,
				"element": "C" 
			},
			{
				"x": 2.6731572012,
				"y": -1.8340778312,
				"z": 1.1512178517,
				"element": "C" 
			},
			{
				"x": 2.9304490223,
				"y": -3.0318365729,
				"z": 1.7239021757,
				"element": "O" 
			},
			{
				"x": 3.5312984919,
				"y": -1.0416969816,
				"z": 0.8421182208,
				"element": "O" 
			},
			{
				"x": 0.8988926774,
				"y": -0.1489557516,
				"z": -1.2514486133,
				"element": "S" 
			},
			{
				"x": 0.9823063708,
				"y": -1.4985693905,
				"z": -1.8205918456,
				"element": "O" 
			},
			{
				"x": 1.8767835562,
				"y": 0.8915662907,
				"z": -1.5707560951,
				"element": "O" 
			},
			{
				"x": -0.7164299844,
				"y": 0.5212722137,
				"z": -1.660661005,
				"element": "C" 
			},
			{
				"x": -0.8743019411,
				"y": 1.8915194941,
				"z": -1.8823517902,
				"element": "C" 
			},
			{
				"x": -2.0557110271,
				"y": 2.4418128197,
				"z": -2.1900466402,
				"element": "N" 
			},
			{
				"x": -3.1083228572,
				"y": 1.6230097255,
				"z": -2.296962631,
				"element": "C" 
			},
			{
				"x": -3.0413481256,
				"y": 0.2380741068,
				"z": -2.114000543,
				"element": "C" 
			},
			{
				"x": -1.8149576429,
				"y": -0.3306905706,
				"z": -1.7866438992,
				"element": "C" 
			},
			{
				"x": 0.6906384613,
				"y": 0.6320480446,
				"z": 2.2579623827,
				"element": "H" 
			},
			{
				"x": 2.1154671051,
				"y": 1.0757477507,
				"z": 1.269846366,
				"element": "H" 
			},
			{
				"x": 0.4903628363,
				"y": 1.6822209093,
				"z": 0.8532971146,
				"element": "H" 
			},
			{
				"x": 0.8135691902,
				"y": -2.4460270072,
				"z": 0.3108021725,
				"element": "H" 
			},
			{
				"x": 0.6818222696,
				"y": -1.7870438946,
				"z": 1.9384983702,
				"element": "H" 
			},
			{
				"x": 3.8972862071,
				"y": -3.1007089254,
				"z": 1.7989047789,
				"element": "H" 
			},
			{
				"x": -0.0159826846,
				"y": 2.5551121725,
				"z": -1.8223690208,
				"element": "H" 
			},
			{
				"x": -4.0560112767,
				"y": 2.0955945965,
				"z": -2.5484638464,
				"element": "H" 
			},
			{
				"x": -3.9292838315,
				"y": -0.3746688551,
				"z": -2.2310137759,
				"element": "H" 
			},
			{
				"x": -1.6999281112,
				"y": -1.4005190099,
				"z": -1.6477262183,
				"element": "H" 
			}
		],
		 "valence_orbital": [ 
			{
				"type": "occ",
				"energy": -0.30783,
				"method": "rhf"
			},
			{
				"type": "occ",
				"energy": -0.296,
				"method": "rhf"
			},
			{
				"type": "occ",
				"energy": -0.28735,
				"method": "rhf"
			},
			{
				"type": "occ",
				"energy": -0.27005,
				"method": "rhf"
			},
			{
				"type": "occ",
				"energy": -0.25559,
				"method": "rhf"
			},
			{
				"type": "unocc",
				"energy": -0.05341,
				"method": "rhf"
			},
			{
				"type": "unocc",
				"energy": -0.03868,
				"method": "rhf"
			},
			{
				"type": "unocc",
				"energy": -0.00159,
				"method": "rhf"
			},
			{
				"type": "unocc",
				"energy": 0.05323,
				"method": "rhf"
			},
			{
				"type": "unocc",
				"energy": 0.06468,
				"method": "rhf"
			}
		],
		"cosmo_sigma_profile": { 
			"-0.025": 0.0,
			"-0.024": 0.0,
			"-0.023": 0.0,
			"-0.022": 0.0,
			"-0.021": 0.0,
			"-0.02": 0.0,
			"-0.019": 0.319084005012,
			"-0.018": 0.869349044679,
			"-0.017": 1.07712824845,
			"-0.016": 0.687609223957,
			"-0.015": 0.861830439806,
			"-0.014": 0.950842578582,
			"-0.013": 0.568129199897,
			"-0.012": 0.368668496023,
			"-0.011": 0.955746532516,
			"-0.01": 0.93804590702,
			"-0.009": 3.17091502936,
			"-0.008": 9.48921923241,
			"-0.007": 14.3128439476,
			"-0.006": 15.715846924,
			"-0.005": 14.8087571013,
			"-0.004": 14.7503562174,
			"-0.003": 18.4217300845,
			"-0.002": 13.349109947,
			"-0.001": 16.1593593453,
			"0.0": 18.4640183677,
			"0.001": 13.9698570448,
			"0.002": 7.06224308186,
			"0.003": 7.88430371706,
			"0.004": 7.05247614783,
			"0.005": 6.69884631385,
			"0.006": 6.94265649474,
			"0.007": 7.09859164681,
			"0.008": 6.95319618833,
			"0.009": 8.4640718383,
			"0.01": 11.9997369433,
			"0.011": 10.9391545848,
			"0.012": 2.02897551212,
			"0.013": 0.951872241174,
			"0.014": 0.850570021728,
			"0.015": 0.812261445776,
			"0.016": 0.0779985590678,
			"0.017": 0.0,
			"0.018": 0.0,
			"0.019": 0.0,
			"0.02": 0.0,
			"0.021": 0.0,
			"0.022": 0.0,
			"0.023": 0.0,
			"0.024": 0.0,
			"0.025": 0.0
		}
	}
}
