{
	 "smiles": "CCOP(=O)(CC1=CC=C(N)C=C1)OCC", 
	 "Tm": 366.15, 
	 "num_atms": 34, 
	 "gaussian": { 
		 "optdone": 1, 
		 "sigma_profile": "yes", 
		 "theory": "DFT", 
		 "functional": "B3LYP", 
		 "basiset": "6-31G**", 
		 "properties": { 
			 "R2extent": 5474.7011, 
			 "electric_dipole_moment_norm": 3.69302416185, 
			 "electric_quadrupole_moment_norm": 18.8167350401, 
			 "total_energy": -1051.87197569, 
			 "HOMO_LUMO_gap": 0.20039, 
			 "cosmo_polarized_energy": -19.43, 
			 "cosmo_cavitation_energy": 38.42, 
			 "cosmo_dispersion_energy": -26.35, 
			 "cosmo_repulsion_energy": 2.09, 
			 "cosmo_total_nonelectrostatic_energy": 14.17, 
			 "SMD_solvation_energy": 8.03 
		},
		"coords": [
			{
				"x": -3.8061271044,
				"y": 0.1365604738,
				"z": 2.1037953258,
				"element": "C" 
			},
			{
				"x": -3.5936619097,
				"y": 0.0829073108,
				"z": 0.600118297,
				"element": "C" 
			},
			{
				"x": -2.4585093059,
				"y": 0.8987329272,
				"z": 0.2068864165,
				"element": "O" 
			},
			{
				"x": -0.9851215679,
				"y": 0.2146319187,
				"z": 0.1074447953,
				"element": "P" 
			},
			{
				"x": -0.708998718,
				"y": -0.8640075904,
				"z": 1.0891184606,
				"element": "O" 
			},
			{
				"x": 0.0578114667,
				"y": 1.7112798425,
				"z": 0.2191742585,
				"element": "C" 
			},
			{
				"x": 1.5133206877,
				"y": 1.4874330867,
				"z": -0.1336091836,
				"element": "C" 
			},
			{
				"x": 2.2833099567,
				"y": 0.5137492891,
				"z": 0.5213754065,
				"element": "C" 
			},
			{
				"x": 3.624479511,
				"y": 0.3269708294,
				"z": 0.2063483822,
				"element": "C" 
			},
			{
				"x": 4.2502336542,
				"y": 1.1093913212,
				"z": -0.7803830807,
				"element": "C" 
			},
			{
				"x": 5.6119036301,
				"y": 0.9599335276,
				"z": -1.0544282546,
				"element": "N" 
			},
			{
				"x": 3.4834184269,
				"y": 2.0831424167,
				"z": -1.4396822877,
				"element": "C" 
			},
			{
				"x": 2.1399915947,
				"y": 2.2624230803,
				"z": -1.1166779427,
				"element": "C" 
			},
			{
				"x": -0.880590554,
				"y": -0.3491974987,
				"z": -1.4105806808,
				"element": "O" 
			},
			{
				"x": -1.1477896363,
				"y": 0.4809644225,
				"z": -2.5594194202,
				"element": "C" 
			},
			{
				"x": -1.2882427811,
				"y": -0.4248830352,
				"z": -3.769745258,
				"element": "C" 
			},
			{
				"x": -2.9507373309,
				"y": -0.3049306558,
				"z": 2.6202967292,
				"element": "H" 
			},
			{
				"x": -3.9303666118,
				"y": 1.1707709709,
				"z": 2.438790507,
				"element": "H" 
			},
			{
				"x": -4.7074884031,
				"y": -0.4243595685,
				"z": 2.3745101187,
				"element": "H" 
			},
			{
				"x": -4.4477020363,
				"y": 0.5017630707,
				"z": 0.0597598657,
				"element": "H" 
			},
			{
				"x": -3.4477438007,
				"y": -0.9483457943,
				"z": 0.2627769714,
				"element": "H" 
			},
			{
				"x": -0.0582458151,
				"y": 2.0560181138,
				"z": 1.2543314885,
				"element": "H" 
			},
			{
				"x": -0.3838431821,
				"y": 2.4861333535,
				"z": -0.4156927976,
				"element": "H" 
			},
			{
				"x": 1.8174352664,
				"y": -0.1172767141,
				"z": 1.2725181634,
				"element": "H" 
			},
			{
				"x": 4.1992653368,
				"y": -0.4337257848,
				"z": 0.7292907223,
				"element": "H" 
			},
			{
				"x": 5.9956089831,
				"y": 0.0527587826,
				"z": -0.8271277089,
				"element": "H" 
			},
			{
				"x": 5.9003757201,
				"y": 1.2684009308,
				"z": -1.9727848761,
				"element": "H" 
			},
			{
				"x": 3.9449763434,
				"y": 2.7052939914,
				"z": -2.2028318288,
				"element": "H" 
			},
			{
				"x": 1.5721270696,
				"y": 3.0303437369,
				"z": -1.6378171878,
				"element": "H" 
			},
			{
				"x": -2.0641457091,
				"y": 1.0585201079,
				"z": -2.3902465619,
				"element": "H" 
			},
			{
				"x": -0.3138344418,
				"y": 1.1806788428,
				"z": -2.6938745106,
				"element": "H" 
			},
			{
				"x": -0.3754272666,
				"y": -1.0075456318,
				"z": -3.9205408132,
				"element": "H" 
			},
			{
				"x": -1.4718747202,
				"y": 0.1738123434,
				"z": -4.6679286253,
				"element": "H" 
			},
			{
				"x": -2.1223067522,
				"y": -1.1196424175,
				"z": -3.6374648902,
				"element": "H" 
			}
		],
		 "valence_orbital": [ 
			{
				"type": "occ",
				"energy": -0.29379,
				"method": "rhf"
			},
			{
				"type": "occ",
				"energy": -0.27356,
				"method": "rhf"
			},
			{
				"type": "occ",
				"energy": -0.26945,
				"method": "rhf"
			},
			{
				"type": "occ",
				"energy": -0.2437,
				"method": "rhf"
			},
			{
				"type": "occ",
				"energy": -0.19759,
				"method": "rhf"
			},
			{
				"type": "unocc",
				"energy": 0.0028,
				"method": "rhf"
			},
			{
				"type": "unocc",
				"energy": 0.01616,
				"method": "rhf"
			},
			{
				"type": "unocc",
				"energy": 0.07187,
				"method": "rhf"
			},
			{
				"type": "unocc",
				"energy": 0.08042,
				"method": "rhf"
			},
			{
				"type": "unocc",
				"energy": 0.08868,
				"method": "rhf"
			}
		],
		"cosmo_sigma_profile": { 
			"-0.025": 0.0,
			"-0.024": 0.0,
			"-0.023": 0.0,
			"-0.022": 0.0,
			"-0.021": 0.0,
			"-0.02": 0.0,
			"-0.019": 0.0,
			"-0.018": 0.0,
			"-0.017": 0.0,
			"-0.016": 0.0,
			"-0.015": 0.0,
			"-0.014": 0.0,
			"-0.013": 0.143121028447,
			"-0.012": 2.20255509632,
			"-0.011": 2.67331044063,
			"-0.01": 2.81013134888,
			"-0.009": 3.41182694955,
			"-0.008": 3.25608384531,
			"-0.007": 6.12798617326,
			"-0.006": 11.9980904093,
			"-0.005": 18.2191176139,
			"-0.004": 31.8277192182,
			"-0.003": 31.2585336257,
			"-0.002": 26.5282844176,
			"-0.001": 23.979913405,
			"0.0": 23.1883100242,
			"0.001": 17.1307496436,
			"0.002": 10.4305785001,
			"0.003": 9.69295117612,
			"0.004": 10.6128687251,
			"0.005": 12.2537952978,
			"0.006": 14.1595292194,
			"0.007": 8.23404223557,
			"0.008": 3.75188341566,
			"0.009": 4.03060776539,
			"0.01": 3.8571042142,
			"0.011": 3.82845042539,
			"0.012": 2.65652830886,
			"0.013": 1.97655258864,
			"0.014": 4.26128234818,
			"0.015": 3.65942163375,
			"0.016": 0.890696005984,
			"0.017": 0.0,
			"0.018": 0.0,
			"0.019": 0.0,
			"0.02": 0.0,
			"0.021": 0.0,
			"0.022": 0.0,
			"0.023": 0.0,
			"0.024": 0.0,
			"0.025": 0.0
		}
	}
}
