{
	 "smiles": "NC(=O)C1=C(NC(=O)CCl)SC2=C1CCC2", 
	 "Tm": 455.15, 
	 "num_atms": 27, 
	 "gaussian": { 
		 "optdone": 1, 
		 "sigma_profile": "yes", 
		 "theory": "DFT", 
		 "functional": "B3LYP", 
		 "basiset": "6-31G**", 
		 "properties": { 
			 "R2extent": 6209.5644, 
			 "electric_dipole_moment_norm": 4.33343478548, 
			 "electric_quadrupole_moment_norm": 11.2215484248, 
			 "total_energy": -1506.05856755, 
			 "HOMO_LUMO_gap": 0.16548, 
			 "cosmo_polarized_energy": -15.82, 
			 "cosmo_cavitation_energy": 33.24, 
			 "cosmo_dispersion_energy": -25.24, 
			 "cosmo_repulsion_energy": 1.94, 
			 "cosmo_total_nonelectrostatic_energy": 9.93, 
			 "SMD_solvation_energy": 5.3 
		},
		"coords": [
			{
				"x": 1.1742101688,
				"y": -0.507242234,
				"z": 2.7931811545,
				"element": "N" 
			},
			{
				"x": 0.2980446008,
				"y": -1.1302799138,
				"z": 1.9494029961,
				"element": "C" 
			},
			{
				"x": -0.6282302732,
				"y": -1.8150761579,
				"z": 2.4098080735,
				"element": "O" 
			},
			{
				"x": 0.4957037112,
				"y": -0.9348516723,
				"z": 0.4989475567,
				"element": "C" 
			},
			{
				"x": -0.3185956388,
				"y": -1.5884586218,
				"z": -0.4239447657,
				"element": "C" 
			},
			{
				"x": -1.3665061813,
				"y": -2.4240752279,
				"z": -0.079425793,
				"element": "N" 
			},
			{
				"x": -2.1540299346,
				"y": -3.0759461336,
				"z": -0.9778207613,
				"element": "C" 
			},
			{
				"x": -2.0173955583,
				"y": -2.9879887166,
				"z": -2.1934899849,
				"element": "O" 
			},
			{
				"x": -3.2788436902,
				"y": -3.9638798733,
				"z": -0.45273976,
				"element": "C" 
			},
			{
				"x": -3.4325381918,
				"y": -4.1140537804,
				"z": 1.3398899104,
				"element": "Cl" 
			},
			{
				"x": 0.1045133017,
				"y": -1.2266767705,
				"z": -2.0871233488,
				"element": "S" 
			},
			{
				"x": 1.3739774986,
				"y": -0.172130723,
				"z": -1.5316058814,
				"element": "C" 
			},
			{
				"x": 1.4653761935,
				"y": -0.1133348695,
				"z": -0.1748078033,
				"element": "C" 
			},
			{
				"x": 2.6130456111,
				"y": 0.7815471286,
				"z": 0.2385266322,
				"element": "C" 
			},
			{
				"x": 2.986035379,
				"y": 1.5017972215,
				"z": -1.0936945149,
				"element": "C" 
			},
			{
				"x": 2.423562079,
				"y": 0.6246366125,
				"z": -2.2529750049,
				"element": "C" 
			},
			{
				"x": 1.0864124694,
				"y": -0.7343347328,
				"z": 3.7723123684,
				"element": "H" 
			},
			{
				"x": 2.0401981664,
				"y": -0.1115692078,
				"z": 2.4680079574,
				"element": "H" 
			},
			{
				"x": -1.4906033773,
				"y": -2.5007695644,
				"z": 0.9399654254,
				"element": "H" 
			},
			{
				"x": -4.2233701132,
				"y": -3.5719104567,
				"z": -0.8328039993,
				"element": "H" 
			},
			{
				"x": -3.1317528347,
				"y": -4.9658743232,
				"z": -0.8575749973,
				"element": "H" 
			},
			{
				"x": 3.4605209216,
				"y": 0.1915894918,
				"z": 0.6201260896,
				"element": "H" 
			},
			{
				"x": 2.3467704059,
				"y": 1.5056451005,
				"z": 1.0180419352,
				"element": "H" 
			},
			{
				"x": 4.0616754837,
				"y": 1.6744929591,
				"z": -1.1859610337,
				"element": "H" 
			},
			{
				"x": 2.4949240454,
				"y": 2.4793357323,
				"z": -1.1168197692,
				"element": "H" 
			},
			{
				"x": 3.1971115537,
				"y": -0.027977772,
				"z": -2.6812623131,
				"element": "H" 
			},
			{
				"x": 2.0325842036,
				"y": 1.234386505,
				"z": -3.0748603688,
				"element": "H" 
			}
		],
		 "valence_orbital": [ 
			{
				"type": "occ",
				"energy": -0.27697,
				"method": "rhf"
			},
			{
				"type": "occ",
				"energy": -0.271,
				"method": "rhf"
			},
			{
				"type": "occ",
				"energy": -0.26025,
				"method": "rhf"
			},
			{
				"type": "occ",
				"energy": -0.25247,
				"method": "rhf"
			},
			{
				"type": "occ",
				"energy": -0.20692,
				"method": "rhf"
			},
			{
				"type": "unocc",
				"energy": -0.04144,
				"method": "rhf"
			},
			{
				"type": "unocc",
				"energy": 0.01384,
				"method": "rhf"
			},
			{
				"type": "unocc",
				"energy": 0.01932,
				"method": "rhf"
			},
			{
				"type": "unocc",
				"energy": 0.03121,
				"method": "rhf"
			},
			{
				"type": "unocc",
				"energy": 0.03581,
				"method": "rhf"
			}
		],
		"cosmo_sigma_profile": { 
			"-0.025": 0.0,
			"-0.024": 0.0,
			"-0.023": 0.0,
			"-0.022": 0.0,
			"-0.021": 0.0,
			"-0.02": 0.0,
			"-0.019": 0.0,
			"-0.018": 0.0,
			"-0.017": 0.0,
			"-0.016": 0.0,
			"-0.015": 0.0630752582295,
			"-0.014": 1.00141759741,
			"-0.013": 1.11932798653,
			"-0.012": 2.12643704445,
			"-0.011": 2.37829534622,
			"-0.01": 3.58314937246,
			"-0.009": 6.32395954185,
			"-0.008": 6.55959953016,
			"-0.007": 5.65306734213,
			"-0.006": 6.16110701004,
			"-0.005": 8.52911223056,
			"-0.004": 16.7112468013,
			"-0.003": 23.5908001092,
			"-0.002": 24.7672432511,
			"-0.001": 22.8179411378,
			"0.0": 23.9143945109,
			"0.001": 15.7526756455,
			"0.002": 16.5711082085,
			"0.003": 17.3975103045,
			"0.004": 15.0608662209,
			"0.005": 14.8978218449,
			"0.006": 5.7379648206,
			"0.007": 3.14409523291,
			"0.008": 4.23193337862,
			"0.009": 3.20114718383,
			"0.01": 3.34652982711,
			"0.011": 4.0832576631,
			"0.012": 5.36829005423,
			"0.013": 2.87903246974,
			"0.014": 1.11792202783,
			"0.015": 0.0315509124731,
			"0.016": 0.0,
			"0.017": 0.0,
			"0.018": 0.0,
			"0.019": 0.0,
			"0.02": 0.0,
			"0.021": 0.0,
			"0.022": 0.0,
			"0.023": 0.0,
			"0.024": 0.0,
			"0.025": 0.0
		}
	}
}
