{
	 "smiles": "OC(=O)CS(=O)(=O)CC1=CC=C(C=C1)C#N", 
	 "Tm": 471.15, 
	 "num_atms": 25, 
	 "gaussian": { 
		 "optdone": 1, 
		 "sigma_profile": "yes", 
		 "theory": "DFT", 
		 "functional": "B3LYP", 
		 "basiset": "6-31G**", 
		 "properties": { 
			 "R2extent": 4867.512, 
			 "electric_dipole_moment_norm": 3.71294283016, 
			 "electric_quadrupole_moment_norm": 30.7021002852, 
			 "total_energy": -1140.2580796, 
			 "HOMO_LUMO_gap": 0.20035, 
			 "cosmo_polarized_energy": -22.88, 
			 "cosmo_cavitation_energy": 32.23, 
			 "cosmo_dispersion_energy": -22.59, 
			 "cosmo_repulsion_energy": 1.71, 
			 "cosmo_total_nonelectrostatic_energy": 11.35, 
			 "SMD_solvation_energy": 7.2 
		},
		"coords": [
			{
				"x": -4.8785671919,
				"y": -0.0042840452,
				"z": -0.2438421237,
				"element": "O" 
			},
			{
				"x": -3.5812963195,
				"y": -0.2704346688,
				"z": -0.030869689,
				"element": "C" 
			},
			{
				"x": -3.1866054774,
				"y": -1.150738937,
				"z": 0.7068116062,
				"element": "O" 
			},
			{
				"x": -2.6777905453,
				"y": 0.6515762573,
				"z": -0.8160500645,
				"element": "C" 
			},
			{
				"x": -1.6638115247,
				"y": 1.7197763115,
				"z": 0.2824908934,
				"element": "S" 
			},
			{
				"x": -0.8832787766,
				"y": 2.5905399184,
				"z": -0.6070861853,
				"element": "O" 
			},
			{
				"x": -2.5514747115,
				"y": 2.2837042066,
				"z": 1.3080479076,
				"element": "O" 
			},
			{
				"x": -0.5174346933,
				"y": 0.5622386116,
				"z": 1.1330617928,
				"element": "C" 
			},
			{
				"x": 0.4054558092,
				"y": -0.1847434833,
				"z": 0.2129327069,
				"element": "C" 
			},
			{
				"x": 0.1524667666,
				"y": -1.5304254838,
				"z": -0.0948303843,
				"element": "C" 
			},
			{
				"x": 1.0038632991,
				"y": -2.2359371661,
				"z": -0.9401647173,
				"element": "C" 
			},
			{
				"x": 2.1235982461,
				"y": -1.5962835474,
				"z": -1.4964645515,
				"element": "C" 
			},
			{
				"x": 2.3770005969,
				"y": -0.2457935524,
				"z": -1.199827032,
				"element": "C" 
			},
			{
				"x": 1.5219855061,
				"y": 0.4498857559,
				"z": -0.3527693338,
				"element": "C" 
			},
			{
				"x": 3.0057859897,
				"y": -2.3197686078,
				"z": -2.3657188812,
				"element": "C" 
			},
			{
				"x": 3.719644326,
				"y": -2.9075249399,
				"z": -3.0713863124,
				"element": "N" 
			},
			{
				"x": -5.3903341794,
				"y": -0.6208894946,
				"z": 0.308318682,
				"element": "H" 
			},
			{
				"x": -3.2347193939,
				"y": 1.3511907573,
				"z": -1.4405793995,
				"element": "H" 
			},
			{
				"x": -1.9817034351,
				"y": 0.0723965488,
				"z": -1.4265430436,
				"element": "H" 
			},
			{
				"x": 0.0161284563,
				"y": 1.2372813048,
				"z": 1.8093331099,
				"element": "H" 
			},
			{
				"x": -1.1568729246,
				"y": -0.1005617036,
				"z": 1.7172970991,
				"element": "H" 
			},
			{
				"x": -0.7193410296,
				"y": -2.0190564091,
				"z": 0.3296786705,
				"element": "H" 
			},
			{
				"x": 0.8105045189,
				"y": -3.2780486703,
				"z": -1.1710806064,
				"element": "H" 
			},
			{
				"x": 3.2405101759,
				"y": 0.2461400045,
				"z": -1.6343279173,
				"element": "H" 
			},
			{
				"x": 1.7122865119,
				"y": 1.4957610325,
				"z": -0.1354322266,
				"element": "H" 
			}
		],
		 "valence_orbital": [ 
			{
				"type": "occ",
				"energy": -0.31927,
				"method": "rhf"
			},
			{
				"type": "occ",
				"energy": -0.3117,
				"method": "rhf"
			},
			{
				"type": "occ",
				"energy": -0.30762,
				"method": "rhf"
			},
			{
				"type": "occ",
				"energy": -0.28594,
				"method": "rhf"
			},
			{
				"type": "occ",
				"energy": -0.2699,
				"method": "rhf"
			},
			{
				"type": "unocc",
				"energy": -0.06955,
				"method": "rhf"
			},
			{
				"type": "unocc",
				"energy": -0.04218,
				"method": "rhf"
			},
			{
				"type": "unocc",
				"energy": -0.03565,
				"method": "rhf"
			},
			{
				"type": "unocc",
				"energy": 0.02969,
				"method": "rhf"
			},
			{
				"type": "unocc",
				"energy": 0.04159,
				"method": "rhf"
			}
		],
		"cosmo_sigma_profile": { 
			"-0.025": 0.0,
			"-0.024": 0.0,
			"-0.023": 0.0,
			"-0.022": 0.0,
			"-0.021": 0.0,
			"-0.02": 0.161466930927,
			"-0.019": 0.911636908882,
			"-0.018": 1.03497989747,
			"-0.017": 0.969190121549,
			"-0.016": 0.819799535455,
			"-0.015": 0.55115337805,
			"-0.014": 0.349363997763,
			"-0.013": 0.921741544055,
			"-0.012": 1.13593255397,
			"-0.011": 1.06736898227,
			"-0.01": 4.6056350621,
			"-0.009": 7.58068560272,
			"-0.008": 10.9371699631,
			"-0.007": 16.1492944241,
			"-0.006": 16.0118580766,
			"-0.005": 13.9557873926,
			"-0.004": 11.7351328476,
			"-0.003": 11.6053324239,
			"-0.002": 13.7862167328,
			"-0.001": 14.2347531624,
			"0.0": 14.7918387719,
			"0.001": 16.4443030082,
			"0.002": 12.4128522292,
			"0.003": 7.97094907046,
			"0.004": 5.84459643336,
			"0.005": 7.28232958284,
			"0.006": 8.21432839902,
			"0.007": 7.26313590822,
			"0.008": 9.11131640042,
			"0.009": 9.0139857539,
			"0.01": 14.0170276389,
			"0.011": 12.2041509407,
			"0.012": 4.26654583638,
			"0.013": 1.22451040722,
			"0.014": 0.00918700089758,
			"0.015": 0.0,
			"0.016": 0.0,
			"0.017": 0.0,
			"0.018": 0.0,
			"0.019": 0.0,
			"0.02": 0.0,
			"0.021": 0.0,
			"0.022": 0.0,
			"0.023": 0.0,
			"0.024": 0.0,
			"0.025": 0.0
		}
	}
}
