{
	 "smiles": "CCOC(=O)C1=C2CCCC(O)C2=C(SC)S1", 
	 "Tm": 393.15, 
	 "num_atms": 33, 
	 "gaussian": { 
		 "optdone": 1, 
		 "sigma_profile": "yes", 
		 "theory": "DFT", 
		 "functional": "B3LYP", 
		 "basiset": "6-31G**", 
		 "properties": { 
			 "R2extent": 5942.3321, 
			 "electric_dipole_moment_norm": 3.30770227348, 
			 "electric_quadrupole_moment_norm": 18.1850939758, 
			 "total_energy": -1488.9777064, 
			 "HOMO_LUMO_gap": 0.177, 
			 "cosmo_polarized_energy": -12.06, 
			 "cosmo_cavitation_energy": 37.92, 
			 "cosmo_dispersion_energy": -27.68, 
			 "cosmo_repulsion_energy": 2.1, 
			 "cosmo_total_nonelectrostatic_energy": 12.33, 
			 "SMD_solvation_energy": 6.48 
		},
		"coords": [
			{
				"x": -4.0534397432,
				"y": -2.6084229324,
				"z": -1.9594194705,
				"element": "C" 
			},
			{
				"x": -3.8136210568,
				"y": -1.1256116867,
				"z": -1.7501111077,
				"element": "C" 
			},
			{
				"x": -2.4400926636,
				"y": -0.9623691174,
				"z": -1.322714294,
				"element": "O" 
			},
			{
				"x": -2.0563754104,
				"y": 0.3113517036,
				"z": -1.0797149467,
				"element": "C" 
			},
			{
				"x": -2.7985194153,
				"y": 1.2698325872,
				"z": -1.2038093323,
				"element": "O" 
			},
			{
				"x": -0.6554163448,
				"y": 0.4223761357,
				"z": -0.6405830324,
				"element": "C" 
			},
			{
				"x": 0.3451359437,
				"y": -0.5231759059,
				"z": -0.4762430041,
				"element": "C" 
			},
			{
				"x": 0.2283958036,
				"y": -2.0051557131,
				"z": -0.7532379196,
				"element": "C" 
			},
			{
				"x": 1.6072762662,
				"y": -2.6702277687,
				"z": -0.8795917745,
				"element": "C" 
			},
			{
				"x": 2.5202266938,
				"y": -2.2619210639,
				"z": 0.2775952338,
				"element": "C" 
			},
			{
				"x": 2.8307909498,
				"y": -0.7637011556,
				"z": 0.2517619023,
				"element": "C" 
			},
			{
				"x": 3.475109562,
				"y": -0.461033831,
				"z": 1.4788339205,
				"element": "O" 
			},
			{
				"x": 1.5660206818,
				"y": 0.057923421,
				"z": 0.004812907,
				"element": "C" 
			},
			{
				"x": 1.4661897172,
				"y": 1.4281693805,
				"z": 0.1628520636,
				"element": "C" 
			},
			{
				"x": 2.7157026162,
				"y": 2.5552965554,
				"z": 0.7271676294,
				"element": "S" 
			},
			{
				"x": 3.3945124976,
				"y": 3.1789904389,
				"z": -0.863269026,
				"element": "C" 
			},
			{
				"x": -0.1207753607,
				"y": 2.0234265324,
				"z": -0.2199377236,
				"element": "S" 
			},
			{
				"x": -5.0874327036,
				"y": -2.7737654864,
				"z": -2.2776477193,
				"element": "H" 
			},
			{
				"x": -3.3894499008,
				"y": -3.0094425895,
				"z": -2.7307870774,
				"element": "H" 
			},
			{
				"x": -3.8854585318,
				"y": -3.167107688,
				"z": -1.0342219196,
				"element": "H" 
			},
			{
				"x": -3.9686082439,
				"y": -0.5486453359,
				"z": -2.6670829424,
				"element": "H" 
			},
			{
				"x": -4.4717153168,
				"y": -0.7056858958,
				"z": -0.9832966889,
				"element": "H" 
			},
			{
				"x": -0.372956366,
				"y": -2.1715434605,
				"z": -1.6495139244,
				"element": "H" 
			},
			{
				"x": -0.329008248,
				"y": -2.4754203881,
				"z": 0.0687615327,
				"element": "H" 
			},
			{
				"x": 2.0693591429,
				"y": -2.3854309285,
				"z": -1.8348662438,
				"element": "H" 
			},
			{
				"x": 1.4862403158,
				"y": -3.7584247003,
				"z": -0.9050870052,
				"element": "H" 
			},
			{
				"x": 2.0368944096,
				"y": -2.4855109493,
				"z": 1.2371067725,
				"element": "H" 
			},
			{
				"x": 3.4658514667,
				"y": -2.8125399332,
				"z": 0.2602844548,
				"element": "H" 
			},
			{
				"x": 3.5161110005,
				"y": -0.570323912,
				"z": -0.593895947,
				"element": "H" 
			},
			{
				"x": 3.7092091536,
				"y": 0.4800029473,
				"z": 1.4630491344,
				"element": "H" 
			},
			{
				"x": 2.6172022787,
				"y": 3.6903893425,
				"z": -1.4332489112,
				"element": "H" 
			},
			{
				"x": 4.1793152635,
				"y": 3.8921597258,
				"z": -0.6000490402,
				"element": "H" 
			},
			{
				"x": 3.8231255426,
				"y": 2.3668416719,
				"z": -1.4524965002,
				"element": "H" 
			}
		],
		 "valence_orbital": [ 
			{
				"type": "occ",
				"energy": -0.27888,
				"method": "rhf"
			},
			{
				"type": "occ",
				"energy": -0.26366,
				"method": "rhf"
			},
			{
				"type": "occ",
				"energy": -0.25028,
				"method": "rhf"
			},
			{
				"type": "occ",
				"energy": -0.24897,
				"method": "rhf"
			},
			{
				"type": "occ",
				"energy": -0.23806,
				"method": "rhf"
			},
			{
				"type": "unocc",
				"energy": -0.06106,
				"method": "rhf"
			},
			{
				"type": "unocc",
				"energy": 0.01048,
				"method": "rhf"
			},
			{
				"type": "unocc",
				"energy": 0.02386,
				"method": "rhf"
			},
			{
				"type": "unocc",
				"energy": 0.04338,
				"method": "rhf"
			},
			{
				"type": "unocc",
				"energy": 0.06669,
				"method": "rhf"
			}
		],
		"cosmo_sigma_profile": { 
			"-0.025": 0.0,
			"-0.024": 0.0,
			"-0.023": 0.0,
			"-0.022": 0.0,
			"-0.021": 0.0,
			"-0.02": 0.0,
			"-0.019": 0.0,
			"-0.018": 0.0,
			"-0.017": 0.0,
			"-0.016": 0.0,
			"-0.015": 0.0,
			"-0.014": 0.0,
			"-0.013": 0.0,
			"-0.012": 0.0,
			"-0.011": 0.0,
			"-0.01": 0.0,
			"-0.009": 0.0,
			"-0.008": 0.132941354958,
			"-0.007": 2.55243932399,
			"-0.006": 5.78967928638,
			"-0.005": 15.7725504986,
			"-0.004": 32.1158530553,
			"-0.003": 37.9525512546,
			"-0.002": 38.8139325348,
			"-0.001": 33.8788072116,
			"0.0": 29.5473503086,
			"0.001": 23.2551257842,
			"0.002": 20.9592525586,
			"0.003": 14.5950788937,
			"0.004": 8.01140560544,
			"0.005": 5.35632695021,
			"0.006": 4.94427749677,
			"0.007": 3.85449703766,
			"0.008": 3.91133247689,
			"0.009": 3.16636989122,
			"0.01": 2.60432274577,
			"0.011": 4.49382894045,
			"0.012": 5.89948674698,
			"0.013": 1.97043980912,
			"0.014": 1.99230880848,
			"0.015": 0.135449852797,
			"0.016": 0.0,
			"0.017": 0.0,
			"0.018": 0.0,
			"0.019": 0.0,
			"0.02": 0.0,
			"0.021": 0.0,
			"0.022": 0.0,
			"0.023": 0.0,
			"0.024": 0.0,
			"0.025": 0.0
		}
	}
}
