{
	 "smiles": "FC(F)(F)C1=CC=CC(=N1)C(F)(F)F", 
	 "Tm": 330.15, 
	 "num_atms": 17, 
	 "gaussian": { 
		 "optdone": 1, 
		 "sigma_profile": "yes", 
		 "theory": "DFT", 
		 "functional": "B3LYP", 
		 "basiset": "6-31G**", 
		 "properties": { 
			 "R2extent": 3498.9261, 
			 "electric_dipole_moment_norm": 4.48709654119, 
			 "electric_quadrupole_moment_norm": 2.98519190338, 
			 "total_energy": -922.347906519, 
			 "HOMO_LUMO_gap": 0.23033, 
			 "cosmo_polarized_energy": -7.28, 
			 "cosmo_cavitation_energy": 25.06, 
			 "cosmo_dispersion_energy": -17.28, 
			 "cosmo_repulsion_energy": 1.25, 
			 "cosmo_total_nonelectrostatic_energy": 9.03, 
			 "SMD_solvation_energy": 5.65 
		},
		"coords": [
			{
				"x": 2.8574608216,
				"y": -0.5887128674,
				"z": 1.6334948801,
				"element": "F" 
			},
			{
				"x": 2.3031862208,
				"y": 0.4379556548,
				"z": 0.965737179,
				"element": "C" 
			},
			{
				"x": 3.2005711057,
				"y": 0.875462915,
				"z": 0.0654086711,
				"element": "F" 
			},
			{
				"x": 2.0893987666,
				"y": 1.4373273301,
				"z": 1.8521502259,
				"element": "F" 
			},
			{
				"x": 1.0086968991,
				"y": 0.0200873495,
				"z": 0.2925043669,
				"element": "C" 
			},
			{
				"x": -0.2030514098,
				"y": 0.6392168531,
				"z": 0.6036705243,
				"element": "C" 
			},
			{
				"x": -1.3485849465,
				"y": 0.2000917499,
				"z": -0.0575366983,
				"element": "C" 
			},
			{
				"x": -1.2391993331,
				"y": -0.8278773243,
				"z": -0.9921994903,
				"element": "C" 
			},
			{
				"x": 0.0261732852,
				"y": -1.3710473889,
				"z": -1.2208349783,
				"element": "C" 
			},
			{
				"x": 1.1320975157,
				"y": -0.9638883417,
				"z": -0.5981031069,
				"element": "N" 
			},
			{
				"x": 0.2332358896,
				"y": -2.4935175656,
				"z": -2.2212019095,
				"element": "C" 
			},
			{
				"x": 1.0847178035,
				"y": -2.1264631424,
				"z": -3.1945126435,
				"element": "F" 
			},
			{
				"x": -0.9346632825,
				"y": -2.8438645655,
				"z": -2.8072475613,
				"element": "F" 
			},
			{
				"x": 0.7363684042,
				"y": -3.5889423279,
				"z": -1.6259943464,
				"element": "F" 
			},
			{
				"x": -0.239964493,
				"y": 1.4346881049,
				"z": 1.3375350859,
				"element": "H" 
			},
			{
				"x": -2.3126285896,
				"y": 0.6524629143,
				"z": 0.1525293275,
				"element": "H" 
			},
			{
				"x": -2.1017146575,
				"y": -1.2012793478,
				"z": -1.530099526,
				"element": "H" 
			}
		],
		 "valence_orbital": [ 
			{
				"type": "occ",
				"energy": -0.40255,
				"method": "rhf"
			},
			{
				"type": "occ",
				"energy": -0.37625,
				"method": "rhf"
			},
			{
				"type": "occ",
				"energy": -0.32096,
				"method": "rhf"
			},
			{
				"type": "occ",
				"energy": -0.30006,
				"method": "rhf"
			},
			{
				"type": "occ",
				"energy": -0.29538,
				"method": "rhf"
			},
			{
				"type": "unocc",
				"energy": -0.06505,
				"method": "rhf"
			},
			{
				"type": "unocc",
				"energy": -0.05492,
				"method": "rhf"
			},
			{
				"type": "unocc",
				"energy": 0.07807,
				"method": "rhf"
			},
			{
				"type": "unocc",
				"energy": 0.08758,
				"method": "rhf"
			},
			{
				"type": "unocc",
				"energy": 0.12844,
				"method": "rhf"
			}
		],
		"cosmo_sigma_profile": { 
			"-0.025": 0.0,
			"-0.024": 0.0,
			"-0.023": 0.0,
			"-0.022": 0.0,
			"-0.021": 0.0,
			"-0.02": 0.0,
			"-0.019": 0.0,
			"-0.018": 0.0,
			"-0.017": 0.0,
			"-0.016": 0.0,
			"-0.015": 0.0,
			"-0.014": 0.0,
			"-0.013": 0.0,
			"-0.012": 0.0,
			"-0.011": 0.0,
			"-0.01": 0.0,
			"-0.009": 2.78318757578,
			"-0.008": 6.36890868724,
			"-0.007": 7.14495565035,
			"-0.006": 4.83016330847,
			"-0.005": 6.46696780679,
			"-0.004": 9.73511488735,
			"-0.003": 11.1554947301,
			"-0.002": 14.1609949616,
			"-0.001": 14.8418309564,
			"0.0": 14.8645787187,
			"0.001": 13.1579473197,
			"0.002": 47.856029009,
			"0.003": 33.3821698865,
			"0.004": 5.07759389747,
			"0.005": 3.42203466744,
			"0.006": 2.42355418413,
			"0.007": 1.79474571291,
			"0.008": 0.890549460291,
			"0.009": 1.10791274954,
			"0.01": 0.853105316333,
			"0.011": 0.242668008837,
			"0.012": 0.0,
			"0.013": 0.0,
			"0.014": 0.0,
			"0.015": 0.0,
			"0.016": 0.0,
			"0.017": 0.0,
			"0.018": 0.0,
			"0.019": 0.0,
			"0.02": 0.0,
			"0.021": 0.0,
			"0.022": 0.0,
			"0.023": 0.0,
			"0.024": 0.0,
			"0.025": 0.0
		}
	}
}
