{
	 "smiles": "NC1=NC(=NN1)C(O)=O", 
	 "Tm": 453.15, 
	 "num_atms": 13, 
	 "gaussian": { 
		 "optdone": 1, 
		 "sigma_profile": "yes", 
		 "theory": "DFT", 
		 "functional": "B3LYP", 
		 "basiset": "6-31G**", 
		 "properties": { 
			 "R2extent": 1942.2273, 
			 "electric_dipole_moment_norm": 8.18080257982, 
			 "electric_quadrupole_moment_norm": 13.9609002145, 
			 "total_energy": -486.178389097, 
			 "HOMO_LUMO_gap": 0.21553, 
			 "cosmo_polarized_energy": -25.53, 
			 "cosmo_cavitation_energy": 18.49, 
			 "cosmo_dispersion_energy": -14.24, 
			 "cosmo_repulsion_energy": 1.21, 
			 "cosmo_total_nonelectrostatic_energy": 5.46, 
			 "SMD_solvation_energy": 2.15 
		},
		"coords": [
			{
				"x": 2.2394474333,
				"y": -0.2759803191,
				"z": 3.0190084812,
				"element": "N" 
			},
			{
				"x": 2.0000137731,
				"y": 0.0269543194,
				"z": 1.6989098324,
				"element": "C" 
			},
			{
				"x": 1.8661926978,
				"y": -0.8431688365,
				"z": 0.7124687247,
				"element": "N" 
			},
			{
				"x": 1.7276066059,
				"y": -0.0393002005,
				"z": -0.3789414144,
				"element": "C" 
			},
			{
				"x": 1.7572383594,
				"y": 1.2643283558,
				"z": -0.1372221482,
				"element": "N" 
			},
			{
				"x": 1.9361698959,
				"y": 1.2982167365,
				"z": 1.2119512674,
				"element": "N" 
			},
			{
				"x": 1.539382912,
				"y": -0.5328875162,
				"z": -1.7782083203,
				"element": "C" 
			},
			{
				"x": 1.4112778159,
				"y": 0.4611063418,
				"z": -2.6872220223,
				"element": "O" 
			},
			{
				"x": 1.5028660575,
				"y": -1.6972218558,
				"z": -2.0843392867,
				"element": "O" 
			},
			{
				"x": 2.1222987193,
				"y": -1.2634551293,
				"z": 3.2053176255,
				"element": "H" 
			},
			{
				"x": 1.7811152554,
				"y": 0.3090666379,
				"z": 3.7047680287,
				"element": "H" 
			},
			{
				"x": 2.0612169649,
				"y": 2.1795283934,
				"z": 1.6870087069,
				"element": "H" 
			},
			{
				"x": 1.4709735096,
				"y": 1.3148130725,
				"z": -2.2236994747,
				"element": "H" 
			}
		],
		 "valence_orbital": [ 
			{
				"type": "occ",
				"energy": -0.31693,
				"method": "rhf"
			},
			{
				"type": "occ",
				"energy": -0.3001,
				"method": "rhf"
			},
			{
				"type": "occ",
				"energy": -0.29628,
				"method": "rhf"
			},
			{
				"type": "occ",
				"energy": -0.26734,
				"method": "rhf"
			},
			{
				"type": "occ",
				"energy": -0.2526,
				"method": "rhf"
			},
			{
				"type": "unocc",
				"energy": -0.03707,
				"method": "rhf"
			},
			{
				"type": "unocc",
				"energy": 0.02122,
				"method": "rhf"
			},
			{
				"type": "unocc",
				"energy": 0.04222,
				"method": "rhf"
			},
			{
				"type": "unocc",
				"energy": 0.07554,
				"method": "rhf"
			},
			{
				"type": "unocc",
				"energy": 0.1,
				"method": "rhf"
			}
		],
		"cosmo_sigma_profile": { 
			"-0.025": 0.0,
			"-0.024": 0.0,
			"-0.023": 0.0,
			"-0.022": 0.0,
			"-0.021": 0.0,
			"-0.02": 0.0,
			"-0.019": 0.131275651231,
			"-0.018": 2.04587840654,
			"-0.017": 2.7422065511,
			"-0.016": 1.42836066423,
			"-0.015": 3.15687769483,
			"-0.014": 4.1542793638,
			"-0.013": 4.08283356644,
			"-0.012": 3.84639137428,
			"-0.011": 3.32100778725,
			"-0.01": 3.08993670017,
			"-0.009": 2.66908571278,
			"-0.008": 2.86278695003,
			"-0.007": 3.57675495126,
			"-0.006": 3.03397915563,
			"-0.005": 4.22331244747,
			"-0.004": 4.89937115693,
			"-0.003": 4.36071640925,
			"-0.002": 6.42375276966,
			"-0.001": 8.85365570554,
			"0.0": 6.11679822886,
			"0.001": 4.64172308752,
			"0.002": 6.21328752101,
			"0.003": 4.6504170394,
			"0.004": 4.3207430465,
			"0.005": 5.01931153231,
			"0.006": 5.01504640949,
			"0.007": 5.34545383594,
			"0.008": 5.47023671415,
			"0.009": 5.65469637928,
			"0.01": 7.15737275934,
			"0.011": 6.86849678641,
			"0.012": 5.45011875225,
			"0.013": 3.17493048587,
			"0.014": 1.74767803147,
			"0.015": 1.3327026183,
			"0.016": 0.541923573497,
			"0.017": 0.0,
			"0.018": 0.0,
			"0.019": 0.0,
			"0.02": 0.0,
			"0.021": 0.0,
			"0.022": 0.0,
			"0.023": 0.0,
			"0.024": 0.0,
			"0.025": 0.0
		}
	}
}
