{
	 "smiles": "CC(C)(C)C1=CC=C(C=C1)C1(CCC1)C(O)=O", 
	 "Tm": 453.15, 
	 "num_atms": 37, 
	 "gaussian": { 
		 "optdone": 1, 
		 "sigma_profile": "yes", 
		 "theory": "DFT", 
		 "functional": "B3LYP", 
		 "basiset": "6-31G**", 
		 "properties": { 
			 "R2extent": 5390.8071, 
			 "electric_dipole_moment_norm": 4.94765636943, 
			 "electric_quadrupole_moment_norm": 17.4047132553, 
			 "total_energy": -734.099942955, 
			 "HOMO_LUMO_gap": 0.22069, 
			 "cosmo_polarized_energy": -11.4, 
			 "cosmo_cavitation_energy": 37.28, 
			 "cosmo_dispersion_energy": -25.95, 
			 "cosmo_repulsion_energy": 2.01, 
			 "cosmo_total_nonelectrostatic_energy": 13.33, 
			 "SMD_solvation_energy": 7.08 
		},
		"coords": [
			{
				"x": 0.2028710683,
				"y": -2.0173298807,
				"z": -3.7791527705,
				"element": "C" 
			},
			{
				"x": 0.4042877065,
				"y": -0.5222726262,
				"z": -3.467109034,
				"element": "C" 
			},
			{
				"x": -0.4801076601,
				"y": 0.2971550909,
				"z": -4.4371924128,
				"element": "C" 
			},
			{
				"x": 1.8921060837,
				"y": -0.1740171786,
				"z": -3.7115356138,
				"element": "C" 
			},
			{
				"x": 0.029742744,
				"y": -0.1731519257,
				"z": -2.015297182,
				"element": "C" 
			},
			{
				"x": 0.1534034985,
				"y": 1.1471588217,
				"z": -1.5544711934,
				"element": "C" 
			},
			{
				"x": -0.1813864808,
				"y": 1.5026502649,
				"z": -0.2476916835,
				"element": "C" 
			},
			{
				"x": -0.654212375,
				"y": 0.5459408398,
				"z": 0.6647106244,
				"element": "C" 
			},
			{
				"x": -0.7755764347,
				"y": -0.7738958204,
				"z": 0.2118226018,
				"element": "C" 
			},
			{
				"x": -0.4449412066,
				"y": -1.1227016006,
				"z": -1.0978413222,
				"element": "C" 
			},
			{
				"x": -0.9769871145,
				"y": 0.9050058382,
				"z": 2.1012522002,
				"element": "C" 
			},
			{
				"x": -2.2835768023,
				"y": 0.3253508572,
				"z": 2.7305247551,
				"element": "C" 
			},
			{
				"x": -2.5825477183,
				"y": 1.7098930561,
				"z": 3.3579106304,
				"element": "C" 
			},
			{
				"x": -1.5510496556,
				"y": 2.3448479952,
				"z": 2.392734828,
				"element": "C" 
			},
			{
				"x": 0.2216369604,
				"y": 0.6653344925,
				"z": 3.0407817902,
				"element": "C" 
			},
			{
				"x": 1.4488662784,
				"y": 0.8734381365,
				"z": 2.5083890007,
				"element": "O" 
			},
			{
				"x": 0.1084607914,
				"y": 0.370557395,
				"z": 4.2074587639,
				"element": "O" 
			},
			{
				"x": 0.4823326484,
				"y": -2.2168630988,
				"z": -4.818547661,
				"element": "H" 
			},
			{
				"x": 0.8255376425,
				"y": -2.6549252882,
				"z": -3.1429702953,
				"element": "H" 
			},
			{
				"x": -0.8410706418,
				"y": -2.3235219464,
				"z": -3.6548928527,
				"element": "H" 
			},
			{
				"x": -0.2217878467,
				"y": 0.0640566083,
				"z": -5.4762055962,
				"element": "H" 
			},
			{
				"x": -0.3503372496,
				"y": 1.3743676098,
				"z": -4.2965254979,
				"element": "H" 
			},
			{
				"x": -1.5404114257,
				"y": 0.0663925637,
				"z": -4.2909987634,
				"element": "H" 
			},
			{
				"x": 2.0946749365,
				"y": 0.8887098316,
				"z": -3.5483347947,
				"element": "H" 
			},
			{
				"x": 2.173595866,
				"y": -0.4111173342,
				"z": -4.7435783297,
				"element": "H" 
			},
			{
				"x": 2.543864316,
				"y": -0.7453567117,
				"z": -3.0424471794,
				"element": "H" 
			},
			{
				"x": 0.5101147235,
				"y": 1.9230277672,
				"z": -2.2255768623,
				"element": "H" 
			},
			{
				"x": -0.08902497,
				"y": 2.5420432269,
				"z": 0.0582582284,
				"element": "H" 
			},
			{
				"x": -1.1362185451,
				"y": -1.5419143245,
				"z": 0.891089385,
				"element": "H" 
			},
			{
				"x": -0.5618580853,
				"y": -2.1577933917,
				"z": -1.3975509024,
				"element": "H" 
			},
			{
				"x": -3.0015369926,
				"y": 0.055255384,
				"z": 1.9514664042,
				"element": "H" 
			},
			{
				"x": -2.1495543196,
				"y": -0.5097140402,
				"z": 3.4201275902,
				"element": "H" 
			},
			{
				"x": -2.2511699553,
				"y": 1.7561772419,
				"z": 4.396641013,
				"element": "H" 
			},
			{
				"x": -3.6091559016,
				"y": 2.0786000826,
				"z": 3.2887894322,
				"element": "H" 
			},
			{
				"x": -0.8589834215,
				"y": 3.088027834,
				"z": 2.7992851405,
				"element": "H" 
			},
			{
				"x": -2.0207110226,
				"y": 2.7537075638,
				"z": 1.493614516,
				"element": "H" 
			},
			{
				"x": 1.3661105612,
				"y": 1.014476666,
				"z": 1.550863043,
				"element": "H" 
			}
		],
		 "valence_orbital": [ 
			{
				"type": "occ",
				"energy": -0.31017,
				"method": "rhf"
			},
			{
				"type": "occ",
				"energy": -0.30303,
				"method": "rhf"
			},
			{
				"type": "occ",
				"energy": -0.26998,
				"method": "rhf"
			},
			{
				"type": "occ",
				"energy": -0.26221,
				"method": "rhf"
			},
			{
				"type": "occ",
				"energy": -0.23993,
				"method": "rhf"
			},
			{
				"type": "unocc",
				"energy": -0.01924,
				"method": "rhf"
			},
			{
				"type": "unocc",
				"energy": -0.01566,
				"method": "rhf"
			},
			{
				"type": "unocc",
				"energy": 0.01787,
				"method": "rhf"
			},
			{
				"type": "unocc",
				"energy": 0.07264,
				"method": "rhf"
			},
			{
				"type": "unocc",
				"energy": 0.08884,
				"method": "rhf"
			}
		],
		"cosmo_sigma_profile": { 
			"-0.025": 0.0,
			"-0.024": 0.0,
			"-0.023": 0.0,
			"-0.022": 0.0,
			"-0.021": 0.0,
			"-0.02": 0.0,
			"-0.019": 0.0,
			"-0.018": 0.0,
			"-0.017": 0.0,
			"-0.016": 0.0,
			"-0.015": 0.0,
			"-0.014": 0.0,
			"-0.013": 0.15070437478,
			"-0.012": 0.617706396631,
			"-0.011": 0.758617936003,
			"-0.01": 1.72512010476,
			"-0.009": 0.884434480418,
			"-0.008": 1.14253926948,
			"-0.007": 1.4900717462,
			"-0.006": 3.97413600689,
			"-0.005": 13.1469541595,
			"-0.004": 19.3044543688,
			"-0.003": 34.459875106,
			"-0.002": 42.0220778923,
			"-0.001": 33.9443497704,
			"0.0": 30.329178955,
			"0.001": 37.0870989845,
			"0.002": 16.0362878443,
			"0.003": 8.18806478031,
			"0.004": 8.65120502624,
			"0.005": 7.70892053015,
			"0.006": 4.75522678988,
			"0.007": 2.21555203773,
			"0.008": 2.71483897716,
			"0.009": 3.73721353381,
			"0.01": 3.443813112,
			"0.011": 5.26432430037,
			"0.012": 4.83798725187,
			"0.013": 2.2253862976,
			"0.014": 0.22400745092,
			"0.015": 0.0,
			"0.016": 0.0,
			"0.017": 0.0,
			"0.018": 0.0,
			"0.019": 0.0,
			"0.02": 0.0,
			"0.021": 0.0,
			"0.022": 0.0,
			"0.023": 0.0,
			"0.024": 0.0,
			"0.025": 0.0
		}
	}
}
