{
	 "smiles": "OC(=O)COC1=C(Cl)C=CC(Cl)=C1", 
	 "Tm": 420.15, 
	 "num_atms": 19, 
	 "gaussian": { 
		 "optdone": 1, 
		 "sigma_profile": "yes", 
		 "theory": "DFT", 
		 "functional": "B3LYP", 
		 "basiset": "6-31G**", 
		 "properties": { 
			 "R2extent": 4973.3321, 
			 "electric_dipole_moment_norm": 3.98733517528, 
			 "electric_quadrupole_moment_norm": 11.1525297803, 
			 "total_energy": -1454.51678157, 
			 "HOMO_LUMO_gap": 0.21042, 
			 "cosmo_polarized_energy": -13.23, 
			 "cosmo_cavitation_energy": 27.93, 
			 "cosmo_dispersion_energy": -20.53, 
			 "cosmo_repulsion_energy": 1.64, 
			 "cosmo_total_nonelectrostatic_energy": 9.04, 
			 "SMD_solvation_energy": 5.86 
		},
		"coords": [
			{
				"x": 2.6730650147,
				"y": 1.4568383494,
				"z": 1.9454483925,
				"element": "O" 
			},
			{
				"x": 2.4824650518,
				"y": 0.1539198983,
				"z": 1.6944652972,
				"element": "C" 
			},
			{
				"x": 2.9038860785,
				"y": -0.7251597229,
				"z": 2.4026697141,
				"element": "O" 
			},
			{
				"x": 1.6832224835,
				"y": -0.17545602,
				"z": 0.4302184359,
				"element": "C" 
			},
			{
				"x": 1.3160853708,
				"y": 1.0443126143,
				"z": -0.2054421372,
				"element": "O" 
			},
			{
				"x": 0.5936855054,
				"y": 1.0272289277,
				"z": -1.3596689709,
				"element": "C" 
			},
			{
				"x": 0.2709496911,
				"y": 2.2740322756,
				"z": -1.9260115932,
				"element": "C" 
			},
			{
				"x": 0.8008952643,
				"y": 3.7432009377,
				"z": -1.1379182344,
				"element": "Cl" 
			},
			{
				"x": -0.4639408672,
				"y": 2.3416741007,
				"z": -3.1038628297,
				"element": "C" 
			},
			{
				"x": -0.8920546874,
				"y": 1.1756955191,
				"z": -3.7414282438,
				"element": "C" 
			},
			{
				"x": -0.5685826595,
				"y": -0.0527340132,
				"z": -3.1745942218,
				"element": "C" 
			},
			{
				"x": -1.0936373622,
				"y": -1.5329767019,
				"z": -3.954619934,
				"element": "Cl" 
			},
			{
				"x": 0.1684257376,
				"y": -0.1440239639,
				"z": -1.9923791558,
				"element": "C" 
			},
			{
				"x": 2.2467992347,
				"y": 1.9801931644,
				"z": 1.243165072,
				"element": "H" 
			},
			{
				"x": 0.7997084293,
				"y": -0.7558203714,
				"z": 0.7213190869,
				"element": "H" 
			},
			{
				"x": 2.3097405868,
				"y": -0.793625928,
				"z": -0.2236257311,
				"element": "H" 
			},
			{
				"x": -0.7018390573,
				"y": 3.3128990287,
				"z": -3.5234352772,
				"element": "H" 
			},
			{
				"x": -1.464901477,
				"y": 1.2257883411,
				"z": -4.6595381201,
				"element": "H" 
			},
			{
				"x": 0.4013276621,
				"y": -1.1172864356,
				"z": -1.5807615494,
				"element": "H" 
			}
		],
		 "valence_orbital": [ 
			{
				"type": "occ",
				"energy": -0.32866,
				"method": "rhf"
			},
			{
				"type": "occ",
				"energy": -0.3211,
				"method": "rhf"
			},
			{
				"type": "occ",
				"energy": -0.28421,
				"method": "rhf"
			},
			{
				"type": "occ",
				"energy": -0.27613,
				"method": "rhf"
			},
			{
				"type": "occ",
				"energy": -0.25141,
				"method": "rhf"
			},
			{
				"type": "unocc",
				"energy": -0.04099,
				"method": "rhf"
			},
			{
				"type": "unocc",
				"energy": -0.02895,
				"method": "rhf"
			},
			{
				"type": "unocc",
				"energy": -0.00114,
				"method": "rhf"
			},
			{
				"type": "unocc",
				"energy": 0.00064,
				"method": "rhf"
			},
			{
				"type": "unocc",
				"energy": 0.02349,
				"method": "rhf"
			}
		],
		"cosmo_sigma_profile": { 
			"-0.025": 0.0,
			"-0.024": 0.0,
			"-0.023": 0.0,
			"-0.022": 0.0,
			"-0.021": 0.0,
			"-0.02": 0.0,
			"-0.019": 0.0,
			"-0.018": 0.0,
			"-0.017": 0.0,
			"-0.016": 0.0,
			"-0.015": 0.0,
			"-0.014": 0.0,
			"-0.013": 0.0,
			"-0.012": 0.0,
			"-0.011": 0.276946863714,
			"-0.01": 3.31558787478,
			"-0.009": 10.2476574835,
			"-0.008": 10.7946685503,
			"-0.007": 11.9933262062,
			"-0.006": 8.82473309096,
			"-0.005": 7.91909273765,
			"-0.004": 8.89368658625,
			"-0.003": 7.99093933569,
			"-0.002": 10.5884338704,
			"-0.001": 13.0723668318,
			"0.0": 19.0528299767,
			"0.001": 26.2307715174,
			"0.002": 21.9400424549,
			"0.003": 16.0312835218,
			"0.004": 18.9012496181,
			"0.005": 5.49741987627,
			"0.006": 2.5950117521,
			"0.007": 2.43128758776,
			"0.008": 3.1213001758,
			"0.009": 4.32959810305,
			"0.01": 4.58766267776,
			"0.011": 5.14110079479,
			"0.012": 4.24469791167,
			"0.013": 0.612525636618,
			"0.014": 0.0,
			"0.015": 0.0,
			"0.016": 0.0,
			"0.017": 0.0,
			"0.018": 0.0,
			"0.019": 0.0,
			"0.02": 0.0,
			"0.021": 0.0,
			"0.022": 0.0,
			"0.023": 0.0,
			"0.024": 0.0,
			"0.025": 0.0
		}
	}
}
