{
	 "smiles": "CC1=CC(=CC=C1)N1N=C(C=C1C1=CC=C(C=C1)C1=CC=CC=C1)C(O)=O", 
	 "Tm": 489.15, 
	 "num_atms": 45, 
	 "gaussian": { 
		 "optdone": 1, 
		 "sigma_profile": "yes", 
		 "theory": "DFT", 
		 "functional": "B3LYP", 
		 "basiset": "6-31G**", 
		 "properties": { 
			 "R2extent": 14927.3891, 
			 "electric_dipole_moment_norm": 7.78771247351, 
			 "electric_quadrupole_moment_norm": 46.9976602715, 
			 "total_energy": -1147.26442839, 
			 "HOMO_LUMO_gap": 0.17277, 
			 "cosmo_polarized_energy": -16.29, 
			 "cosmo_cavitation_energy": 50.18, 
			 "cosmo_dispersion_energy": -34.67, 
			 "cosmo_repulsion_energy": 2.63, 
			 "cosmo_total_nonelectrostatic_energy": 18.14, 
			 "SMD_solvation_energy": 8.7 
		},
		"coords": [
			{
				"x": -3.9936888161,
				"y": -1.1857,
				"z": 5.148631718,
				"element": "C" 
			},
			{
				"x": -2.9411296614,
				"y": -0.5626363485,
				"z": 4.2621655768,
				"element": "C" 
			},
			{
				"x": -3.3083997471,
				"y": 0.2291267964,
				"z": 3.1690518136,
				"element": "C" 
			},
			{
				"x": -2.3329854055,
				"y": 0.8313602186,
				"z": 2.3707911272,
				"element": "C" 
			},
			{
				"x": -0.9748039055,
				"y": 0.6601280776,
				"z": 2.6462967874,
				"element": "C" 
			},
			{
				"x": -0.6059728146,
				"y": -0.1422200667,
				"z": 3.7252615123,
				"element": "C" 
			},
			{
				"x": -1.5761450358,
				"y": -0.7474711859,
				"z": 4.5238153721,
				"element": "C" 
			},
			{
				"x": -2.7533399406,
				"y": 1.6579126703,
				"z": 1.2817628994,
				"element": "N" 
			},
			{
				"x": -3.7059154945,
				"y": 2.586885926,
				"z": 1.5104614661,
				"element": "N" 
			},
			{
				"x": -3.8321070854,
				"y": 3.2551113237,
				"z": 0.3618919502,
				"element": "C" 
			},
			{
				"x": -2.9566452731,
				"y": 2.762973021,
				"z": -0.6232235209,
				"element": "C" 
			},
			{
				"x": -2.2710414798,
				"y": 1.7235823618,
				"z": -0.0144962069,
				"element": "C" 
			},
			{
				"x": -1.2859937707,
				"y": 0.8048511468,
				"z": -0.6085758742,
				"element": "C" 
			},
			{
				"x": -1.3367174807,
				"y": -0.5845111404,
				"z": -0.4055425942,
				"element": "C" 
			},
			{
				"x": -0.4243893721,
				"y": -1.426628476,
				"z": -1.0320061987,
				"element": "C" 
			},
			{
				"x": 0.570999201,
				"y": -0.9207430876,
				"z": -1.8866156127,
				"element": "C" 
			},
			{
				"x": 0.6123929534,
				"y": 0.4689297554,
				"z": -2.0904978424,
				"element": "C" 
			},
			{
				"x": -0.2972016405,
				"y": 1.315946651,
				"z": -1.4649958402,
				"element": "C" 
			},
			{
				"x": 1.5425631582,
				"y": -1.8241530472,
				"z": -2.5520153668,
				"element": "C" 
			},
			{
				"x": 1.9757047252,
				"y": -1.5763577063,
				"z": -3.8660478711,
				"element": "C" 
			},
			{
				"x": 2.8884804151,
				"y": -2.4247429863,
				"z": -4.4907961038,
				"element": "C" 
			},
			{
				"x": 3.3880323143,
				"y": -3.5401563007,
				"z": -3.8157172761,
				"element": "C" 
			},
			{
				"x": 2.9665915445,
				"y": -3.7995025554,
				"z": -2.5101682855,
				"element": "C" 
			},
			{
				"x": 2.0541686712,
				"y": -2.9507948219,
				"z": -1.8852451517,
				"element": "C" 
			},
			{
				"x": -4.8133180982,
				"y": 4.3655325629,
				"z": 0.2600236406,
				"element": "C" 
			},
			{
				"x": -5.5040970001,
				"y": 4.6038820243,
				"z": 1.3976691347,
				"element": "O" 
			},
			{
				"x": -4.9889231349,
				"y": 5.0097305172,
				"z": -0.7481883835,
				"element": "O" 
			},
			{
				"x": -3.6592208692,
				"y": -2.1465740531,
				"z": 5.5509038322,
				"element": "H" 
			},
			{
				"x": -4.9289948688,
				"y": -1.3505968267,
				"z": 4.6063061754,
				"element": "H" 
			},
			{
				"x": -4.2216849192,
				"y": -0.5364986754,
				"z": 6.0029943483,
				"element": "H" 
			},
			{
				"x": -4.3544817067,
				"y": 0.3915529657,
				"z": 2.9311560729,
				"element": "H" 
			},
			{
				"x": -0.2263737433,
				"y": 1.1471895149,
				"z": 2.0323095863,
				"element": "H" 
			},
			{
				"x": 0.4468784613,
				"y": -0.287169995,
				"z": 3.9479039391,
				"element": "H" 
			},
			{
				"x": -1.2724038615,
				"y": -1.3682214503,
				"z": 5.362644948,
				"element": "H" 
			},
			{
				"x": -2.8748688837,
				"y": 3.0909654246,
				"z": -1.6475070309,
				"element": "H" 
			},
			{
				"x": -2.108683789,
				"y": -1.0097537132,
				"z": 0.2272398211,
				"element": "H" 
			},
			{
				"x": -0.5056350664,
				"y": -2.4990601062,
				"z": -0.8836780747,
				"element": "H" 
			},
			{
				"x": 1.3857093179,
				"y": 0.8942174389,
				"z": -2.7227920322,
				"element": "H" 
			},
			{
				"x": -0.2322586025,
				"y": 2.388364353,
				"z": -1.6225584557,
				"element": "H" 
			},
			{
				"x": 1.5725251603,
				"y": -0.7275534195,
				"z": -4.4104596659,
				"element": "H" 
			},
			{
				"x": 3.2028511775,
				"y": -2.2189814668,
				"z": -5.5100510664,
				"element": "H" 
			},
			{
				"x": 4.0989008353,
				"y": -4.2012690967,
				"z": -4.3026559551,
				"element": "H" 
			},
			{
				"x": 3.3554621252,
				"y": -4.6599958468,
				"z": -1.9730824698,
				"element": "H" 
			},
			{
				"x": 1.7537421902,
				"y": -3.146968765,
				"z": -0.8601606538,
				"element": "H" 
			},
			{
				"x": -5.192980784,
				"y": 3.9762183875,
				"z": 2.0744958113,
				"element": "H" 
			}
		],
		 "valence_orbital": [ 
			{
				"type": "occ",
				"energy": -0.26149,
				"method": "rhf"
			},
			{
				"type": "occ",
				"energy": -0.25912,
				"method": "rhf"
			},
			{
				"type": "occ",
				"energy": -0.25801,
				"method": "rhf"
			},
			{
				"type": "occ",
				"energy": -0.24554,
				"method": "rhf"
			},
			{
				"type": "occ",
				"energy": -0.22656,
				"method": "rhf"
			},
			{
				"type": "unocc",
				"energy": -0.05379,
				"method": "rhf"
			},
			{
				"type": "unocc",
				"energy": -0.03466,
				"method": "rhf"
			},
			{
				"type": "unocc",
				"energy": -0.02312,
				"method": "rhf"
			},
			{
				"type": "unocc",
				"energy": -0.01225,
				"method": "rhf"
			},
			{
				"type": "unocc",
				"energy": -0.01163,
				"method": "rhf"
			}
		],
		"cosmo_sigma_profile": { 
			"-0.025": 0.0,
			"-0.024": 0.0,
			"-0.023": 0.0,
			"-0.022": 0.0,
			"-0.021": 0.0,
			"-0.02": 0.0,
			"-0.019": 0.0,
			"-0.018": 0.0,
			"-0.017": 0.0,
			"-0.016": 0.0,
			"-0.015": 0.0884992975124,
			"-0.014": 0.483673381408,
			"-0.013": 0.525714088285,
			"-0.012": 0.731809742329,
			"-0.011": 0.691334392058,
			"-0.01": 0.653609136625,
			"-0.009": 0.894342249319,
			"-0.008": 1.09355884351,
			"-0.007": 3.33815944158,
			"-0.006": 20.7338548154,
			"-0.005": 35.3774855835,
			"-0.004": 38.6124892565,
			"-0.003": 31.0459452445,
			"-0.002": 31.0784971702,
			"-0.001": 31.8533713281,
			"0.0": 29.0842518167,
			"0.001": 30.6860900824,
			"0.002": 30.0801232538,
			"0.003": 31.1260019251,
			"0.004": 31.4781241112,
			"0.005": 17.5517089694,
			"0.006": 7.53204696176,
			"0.007": 3.64662299341,
			"0.008": 3.2507471983,
			"0.009": 3.49268093666,
			"0.01": 5.39087409983,
			"0.011": 5.08408559501,
			"0.012": 5.18179714518,
			"0.013": 1.61657253043,
			"0.014": 0.0578391220407,
			"0.015": 0.0,
			"0.016": 0.0,
			"0.017": 0.0,
			"0.018": 0.0,
			"0.019": 0.0,
			"0.02": 0.0,
			"0.021": 0.0,
			"0.022": 0.0,
			"0.023": 0.0,
			"0.024": 0.0,
			"0.025": 0.0
		}
	}
}
