{
	 "smiles": "CCOC(=O)C(N)=NO", 
	 "Tm": 368.15, 
	 "num_atms": 17, 
	 "gaussian": { 
		 "optdone": 1, 
		 "sigma_profile": "yes", 
		 "theory": "DFT", 
		 "functional": "B3LYP", 
		 "basiset": "6-31G**", 
		 "properties": { 
			 "R2extent": 2619.7133, 
			 "electric_dipole_moment_norm": 2.78040726154, 
			 "electric_quadrupole_moment_norm": 10.1381948309, 
			 "total_energy": -492.363178177, 
			 "HOMO_LUMO_gap": 0.17859, 
			 "cosmo_polarized_energy": -14.16, 
			 "cosmo_cavitation_energy": 21.62, 
			 "cosmo_dispersion_energy": -15.91, 
			 "cosmo_repulsion_energy": 1.37, 
			 "cosmo_total_nonelectrostatic_energy": 7.08, 
			 "SMD_solvation_energy": 5.22 
		},
		"coords": [
			{
				"x": 1.0252533037,
				"y": -0.3903394073,
				"z": -2.8244439894,
				"element": "C" 
			},
			{
				"x": 0.6125368492,
				"y": -0.0485371618,
				"z": -1.4010130397,
				"element": "C" 
			},
			{
				"x": -0.8159879668,
				"y": -0.2106824755,
				"z": -1.213350535,
				"element": "O" 
			},
			{
				"x": -1.2455433385,
				"y": -1.4642084499,
				"z": -0.9106464702,
				"element": "C" 
			},
			{
				"x": -0.5157059857,
				"y": -2.4162228229,
				"z": -0.7710324805,
				"element": "O" 
			},
			{
				"x": -2.7473809996,
				"y": -1.460232913,
				"z": -0.7600192601,
				"element": "C" 
			},
			{
				"x": -3.4200135919,
				"y": -0.4485042588,
				"z": -1.4393325298,
				"element": "N" 
			},
			{
				"x": -3.4513353751,
				"y": -2.3240522084,
				"z": -0.1119638089,
				"element": "N" 
			},
			{
				"x": -2.7178202339,
				"y": -3.3770838831,
				"z": 0.4400677367,
				"element": "O" 
			},
			{
				"x": 0.8471846557,
				"y": -1.4479165894,
				"z": -3.0327900648,
				"element": "H" 
			},
			{
				"x": 2.0935281038,
				"y": -0.1893781402,
				"z": -2.9572292627,
				"element": "H" 
			},
			{
				"x": 0.4692641774,
				"y": 0.2125992552,
				"z": -3.5482709585,
				"element": "H" 
			},
			{
				"x": 0.7973573226,
				"y": 1.002836259,
				"z": -1.168820188,
				"element": "H" 
			},
			{
				"x": 1.1325172096,
				"y": -0.6786770629,
				"z": -0.6758428502,
				"element": "H" 
			},
			{
				"x": -2.9322167596,
				"y": 0.436513959,
				"z": -1.4497448266,
				"element": "H" 
			},
			{
				"x": -4.3945746571,
				"y": -0.3790616622,
				"z": -1.1740726124,
				"element": "H" 
			},
			{
				"x": -3.4124627138,
				"y": -3.8735524376,
				"z": 0.89280514,
				"element": "H" 
			}
		],
		 "valence_orbital": [ 
			{
				"type": "occ",
				"energy": -0.32482,
				"method": "rhf"
			},
			{
				"type": "occ",
				"energy": -0.30421,
				"method": "rhf"
			},
			{
				"type": "occ",
				"energy": -0.29774,
				"method": "rhf"
			},
			{
				"type": "occ",
				"energy": -0.25675,
				"method": "rhf"
			},
			{
				"type": "occ",
				"energy": -0.21492,
				"method": "rhf"
			},
			{
				"type": "unocc",
				"energy": -0.03633,
				"method": "rhf"
			},
			{
				"type": "unocc",
				"energy": 0.07378,
				"method": "rhf"
			},
			{
				"type": "unocc",
				"energy": 0.08369,
				"method": "rhf"
			},
			{
				"type": "unocc",
				"energy": 0.10098,
				"method": "rhf"
			},
			{
				"type": "unocc",
				"energy": 0.10764,
				"method": "rhf"
			}
		],
		"cosmo_sigma_profile": { 
			"-0.025": 0.0,
			"-0.024": 0.0,
			"-0.023": 0.0,
			"-0.022": 0.0,
			"-0.021": 0.0,
			"-0.02": 0.0,
			"-0.019": 0.0,
			"-0.018": 0.152303541349,
			"-0.017": 0.809285211955,
			"-0.016": 0.996115906396,
			"-0.015": 1.10614661916,
			"-0.014": 0.864437248861,
			"-0.013": 1.70634450577,
			"-0.012": 2.1801151889,
			"-0.011": 2.08091323461,
			"-0.01": 2.17455100839,
			"-0.009": 3.12660080461,
			"-0.008": 2.83779414961,
			"-0.007": 2.26098062643,
			"-0.006": 4.18670695938,
			"-0.005": 8.35005376598,
			"-0.004": 15.5600550217,
			"-0.003": 16.7173169096,
			"-0.002": 13.4875366401,
			"-0.001": 11.8475666072,
			"0.0": 12.533052693,
			"0.001": 8.06357818217,
			"0.002": 6.0325994249,
			"0.003": 5.9204713153,
			"0.004": 4.61286091924,
			"0.005": 5.65378542063,
			"0.006": 5.61450131038,
			"0.007": 3.80241661588,
			"0.008": 3.92183256753,
			"0.009": 3.97376118039,
			"0.01": 4.83924129105,
			"0.011": 5.59062053011,
			"0.012": 3.82896717717,
			"0.013": 2.26886023981,
			"0.014": 1.29175424343,
			"0.015": 1.34886046549,
			"0.016": 0.221266788486,
			"0.017": 0.0,
			"0.018": 0.0,
			"0.019": 0.0,
			"0.02": 0.0,
			"0.021": 0.0,
			"0.022": 0.0,
			"0.023": 0.0,
			"0.024": 0.0,
			"0.025": 0.0
		}
	}
}
