{
	 "smiles": "COC(=O)C1=CC(=C(S1)C(=O)OC)S(Cl)(=O)=O", 
	 "Tm": 403.15, 
	 "num_atms": 24, 
	 "gaussian": { 
		 "optdone": 1, 
		 "sigma_profile": "yes", 
		 "theory": "DFT", 
		 "functional": "B3LYP", 
		 "basiset": "6-31G**", 
		 "properties": { 
			 "R2extent": 7271.2594, 
			 "electric_dipole_moment_norm": 7.44587334099, 
			 "electric_quadrupole_moment_norm": 17.6113903946, 
			 "total_energy": -2016.89651029, 
			 "HOMO_LUMO_gap": 0.17635, 
			 "cosmo_polarized_energy": -15.72, 
			 "cosmo_cavitation_energy": 35.04, 
			 "cosmo_dispersion_energy": -25.97, 
			 "cosmo_repulsion_energy": 1.95, 
			 "cosmo_total_nonelectrostatic_energy": 11.02, 
			 "SMD_solvation_energy": 7.79 
		},
		"coords": [
			{
				"x": -1.4628417127,
				"y": 3.5465753765,
				"z": -3.3129367207,
				"element": "C" 
			},
			{
				"x": -1.6126190052,
				"y": 2.6183058323,
				"z": -2.2219941198,
				"element": "O" 
			},
			{
				"x": -1.0195936171,
				"y": 1.420413864,
				"z": -2.3951804436,
				"element": "C" 
			},
			{
				"x": -0.3919135905,
				"y": 1.0940204964,
				"z": -3.3798178707,
				"element": "O" 
			},
			{
				"x": -1.2294557052,
				"y": 0.5409804423,
				"z": -1.2242748159,
				"element": "C" 
			},
			{
				"x": -0.7398876059,
				"y": -0.7403737084,
				"z": -1.1170087789,
				"element": "C" 
			},
			{
				"x": -1.097745735,
				"y": -1.3403086028,
				"z": 0.1143978449,
				"element": "C" 
			},
			{
				"x": -1.8548978525,
				"y": -0.5123658389,
				"z": 0.9315723714,
				"element": "C" 
			},
			{
				"x": -2.1288779859,
				"y": 1.0212766743,
				"z": 0.1753783747,
				"element": "S" 
			},
			{
				"x": -2.3985127994,
				"y": -0.8087405529,
				"z": 2.2765755244,
				"element": "C" 
			},
			{
				"x": -2.2416714804,
				"y": -1.8613230127,
				"z": 2.8552287206,
				"element": "O" 
			},
			{
				"x": -3.0848202495,
				"y": 0.2420987169,
				"z": 2.7639090487,
				"element": "O" 
			},
			{
				"x": -3.6559279348,
				"y": 0.0519177639,
				"z": 4.0735388073,
				"element": "C" 
			},
			{
				"x": -0.6360469072,
				"y": -3.0166463253,
				"z": 0.615281419,
				"element": "S" 
			},
			{
				"x": 0.4866722544,
				"y": -3.6457857679,
				"z": -1.1005912821,
				"element": "Cl" 
			},
			{
				"x": 0.3265771393,
				"y": -2.9547033198,
				"z": 1.7015624863,
				"element": "O" 
			},
			{
				"x": -1.815839826,
				"y": -3.8641580666,
				"z": 0.6333158618,
				"element": "O" 
			},
			{
				"x": -1.8958902928,
				"y": 3.1321950833,
				"z": -4.2261816211,
				"element": "H" 
			},
			{
				"x": -1.996082378,
				"y": 4.4453535409,
				"z": -3.0062540656,
				"element": "H" 
			},
			{
				"x": -0.4060293369,
				"y": 3.7631599845,
				"z": -3.484722412,
				"element": "H" 
			},
			{
				"x": -0.1548994222,
				"y": -1.2065790176,
				"z": -1.8963718839,
				"element": "H" 
			},
			{
				"x": -4.3611863152,
				"y": -0.7819981855,
				"z": 4.0611021125,
				"element": "H" 
			},
			{
				"x": -2.8694466344,
				"y": -0.1542957824,
				"z": 4.8028247873,
				"element": "H" 
			},
			{
				"x": -4.1648630068,
				"y": 0.9860804053,
				"z": 4.3064466554,
				"element": "H" 
			}
		],
		 "valence_orbital": [ 
			{
				"type": "occ",
				"energy": -0.31263,
				"method": "rhf"
			},
			{
				"type": "occ",
				"energy": -0.30855,
				"method": "rhf"
			},
			{
				"type": "occ",
				"energy": -0.29869,
				"method": "rhf"
			},
			{
				"type": "occ",
				"energy": -0.29834,
				"method": "rhf"
			},
			{
				"type": "occ",
				"energy": -0.28426,
				"method": "rhf"
			},
			{
				"type": "unocc",
				"energy": -0.10791,
				"method": "rhf"
			},
			{
				"type": "unocc",
				"energy": -0.08689,
				"method": "rhf"
			},
			{
				"type": "unocc",
				"energy": -0.04036,
				"method": "rhf"
			},
			{
				"type": "unocc",
				"energy": -0.00139,
				"method": "rhf"
			},
			{
				"type": "unocc",
				"energy": 0.02939,
				"method": "rhf"
			}
		],
		"cosmo_sigma_profile": { 
			"-0.025": 0.0,
			"-0.024": 0.0,
			"-0.023": 0.0,
			"-0.022": 0.0,
			"-0.021": 0.0,
			"-0.02": 0.0,
			"-0.019": 0.0,
			"-0.018": 0.0,
			"-0.017": 0.0,
			"-0.016": 0.0,
			"-0.015": 0.0,
			"-0.014": 0.0,
			"-0.013": 0.0,
			"-0.012": 0.0,
			"-0.011": 0.0,
			"-0.01": 0.0,
			"-0.009": 0.0,
			"-0.008": 0.92173940994,
			"-0.007": 9.51169714343,
			"-0.006": 18.9763671441,
			"-0.005": 26.0845254059,
			"-0.004": 31.9796801784,
			"-0.003": 23.5813884353,
			"-0.002": 22.687678584,
			"-0.001": 23.4791627295,
			"0.0": 16.8251184208,
			"0.001": 12.9771705151,
			"0.002": 14.8865660694,
			"0.003": 17.2878654246,
			"0.004": 9.67925026523,
			"0.005": 4.09273029966,
			"0.006": 6.13003824715,
			"0.007": 11.6666965848,
			"0.008": 14.7308916127,
			"0.009": 8.00526570601,
			"0.01": 7.64411525417,
			"0.011": 4.37254347117,
			"0.012": 0.0760100016846,
			"0.013": 0.0,
			"0.014": 0.0,
			"0.015": 0.0,
			"0.016": 0.0,
			"0.017": 0.0,
			"0.018": 0.0,
			"0.019": 0.0,
			"0.02": 0.0,
			"0.021": 0.0,
			"0.022": 0.0,
			"0.023": 0.0,
			"0.024": 0.0,
			"0.025": 0.0
		}
	}
}
