{
	 "smiles": "COC(=O)C1=CC=C(OC)N=C1", 
	 "Tm": 324.15, 
	 "num_atms": 21, 
	 "gaussian": { 
		 "optdone": 1, 
		 "sigma_profile": "yes", 
		 "theory": "DFT", 
		 "functional": "B3LYP", 
		 "basiset": "6-31G**", 
		 "properties": { 
			 "R2extent": 2921.8996, 
			 "electric_dipole_moment_norm": 1.9983889111, 
			 "electric_quadrupole_moment_norm": 13.4397902365, 
			 "total_energy": -590.702763425, 
			 "HOMO_LUMO_gap": 0.19784, 
			 "cosmo_polarized_energy": -8.63, 
			 "cosmo_cavitation_energy": 25.83, 
			 "cosmo_dispersion_energy": -19.13, 
			 "cosmo_repulsion_energy": 1.53, 
			 "cosmo_total_nonelectrostatic_energy": 8.23, 
			 "SMD_solvation_energy": 6.12 
		},
		"coords": [
			{
				"x": -1.3132104865,
				"y": 1.3545554528,
				"z": 4.404872047,
				"element": "C" 
			},
			{
				"x": -1.1353133977,
				"y": 0.8979112097,
				"z": 3.0555834201,
				"element": "O" 
			},
			{
				"x": 0.1106903163,
				"y": 1.0679299865,
				"z": 2.5501411436,
				"element": "C" 
			},
			{
				"x": 1.0206669983,
				"y": 1.5693377911,
				"z": 3.1826957897,
				"element": "O" 
			},
			{
				"x": 0.2213429173,
				"y": 0.5751771913,
				"z": 1.1569320498,
				"element": "C" 
			},
			{
				"x": -0.8485204403,
				"y": -0.002441736,
				"z": 0.4454803397,
				"element": "C" 
			},
			{
				"x": -0.6446521756,
				"y": -0.4319254889,
				"z": -0.8509663014,
				"element": "C" 
			},
			{
				"x": 0.6418558695,
				"y": -0.2682113188,
				"z": -1.4045407322,
				"element": "C" 
			},
			{
				"x": 0.8147514988,
				"y": -0.6946134759,
				"z": -2.6690642624,
				"element": "O" 
			},
			{
				"x": 2.1168064659,
				"y": -0.5352121016,
				"z": -3.2456000521,
				"element": "C" 
			},
			{
				"x": 1.6676507982,
				"y": 0.2749532565,
				"z": -0.7507990511,
				"element": "N" 
			},
			{
				"x": 1.4509020792,
				"y": 0.6852028625,
				"z": 0.5045951085,
				"element": "C" 
			},
			{
				"x": -0.6438464216,
				"y": 0.820571306,
				"z": 5.0840983447,
				"element": "H" 
			},
			{
				"x": -1.1073904246,
				"y": 2.4253218573,
				"z": 4.4798766754,
				"element": "H" 
			},
			{
				"x": -2.3544490054,
				"y": 1.146534565,
				"z": 4.6512399146,
				"element": "H" 
			},
			{
				"x": -1.8185770416,
				"y": -0.1048566691,
				"z": 0.9186994019,
				"element": "H" 
			},
			{
				"x": -1.4305428305,
				"y": -0.8832815179,
				"z": -1.4453629712,
				"element": "H" 
			},
			{
				"x": 2.8693041602,
				"y": -1.0850280572,
				"z": -2.6739710736,
				"element": "H" 
			},
			{
				"x": 2.4055694301,
				"y": 0.5187678818,
				"z": -3.2779134637,
				"element": "H" 
			},
			{
				"x": 2.0344860509,
				"y": -0.9392125483,
				"z": -4.2552029239,
				"element": "H" 
			},
			{
				"x": 2.2931756392,
				"y": 1.1270195532,
				"z": 1.0305065964,
				"element": "H" 
			}
		],
		 "valence_orbital": [ 
			{
				"type": "occ",
				"energy": -0.30191,
				"method": "rhf"
			},
			{
				"type": "occ",
				"energy": -0.29301,
				"method": "rhf"
			},
			{
				"type": "occ",
				"energy": -0.27965,
				"method": "rhf"
			},
			{
				"type": "occ",
				"energy": -0.26603,
				"method": "rhf"
			},
			{
				"type": "occ",
				"energy": -0.23925,
				"method": "rhf"
			},
			{
				"type": "unocc",
				"energy": -0.04141,
				"method": "rhf"
			},
			{
				"type": "unocc",
				"energy": -0.02605,
				"method": "rhf"
			},
			{
				"type": "unocc",
				"energy": 0.05874,
				"method": "rhf"
			},
			{
				"type": "unocc",
				"energy": 0.10278,
				"method": "rhf"
			},
			{
				"type": "unocc",
				"energy": 0.1175,
				"method": "rhf"
			}
		],
		"cosmo_sigma_profile": { 
			"-0.025": 0.0,
			"-0.024": 0.0,
			"-0.023": 0.0,
			"-0.022": 0.0,
			"-0.021": 0.0,
			"-0.02": 0.0,
			"-0.019": 0.0,
			"-0.018": 0.0,
			"-0.017": 0.0,
			"-0.016": 0.0,
			"-0.015": 0.0,
			"-0.014": 0.0,
			"-0.013": 0.0,
			"-0.012": 0.0,
			"-0.011": 0.0,
			"-0.01": 0.0,
			"-0.009": 0.0,
			"-0.008": 0.669273594756,
			"-0.007": 4.11413234289,
			"-0.006": 11.8850356399,
			"-0.005": 16.248973604,
			"-0.004": 18.685653015,
			"-0.003": 22.9400626879,
			"-0.002": 15.2247922925,
			"-0.001": 15.5859956896,
			"0.0": 21.4282415991,
			"0.001": 19.151216137,
			"0.002": 12.2671270871,
			"0.003": 6.64054326101,
			"0.004": 6.33147803235,
			"0.005": 6.1790526619,
			"0.006": 5.182995651,
			"0.007": 4.07140821867,
			"0.008": 3.93497495988,
			"0.009": 3.21330927112,
			"0.01": 3.44322048445,
			"0.011": 3.37882796164,
			"0.012": 5.03243904632,
			"0.013": 0.472216206825,
			"0.014": 0.0,
			"0.015": 0.0,
			"0.016": 0.0,
			"0.017": 0.0,
			"0.018": 0.0,
			"0.019": 0.0,
			"0.02": 0.0,
			"0.021": 0.0,
			"0.022": 0.0,
			"0.023": 0.0,
			"0.024": 0.0,
			"0.025": 0.0
		}
	}
}
