{
	 "smiles": "CC(C)C1=NOC2=C1C=C(C=N2)C(O)=O", 
	 "Tm": 433.15, 
	 "num_atms": 25, 
	 "gaussian": { 
		 "optdone": 1, 
		 "sigma_profile": "yes", 
		 "theory": "DFT", 
		 "functional": "B3LYP", 
		 "basiset": "6-31G**", 
		 "properties": { 
			 "R2extent": 4143.1298, 
			 "electric_dipole_moment_norm": 2.91955925612, 
			 "electric_quadrupole_moment_norm": 18.6409375784, 
			 "total_energy": -722.246751346, 
			 "HOMO_LUMO_gap": 0.20306, 
			 "cosmo_polarized_energy": -13.85, 
			 "cosmo_cavitation_energy": 30.0, 
			 "cosmo_dispersion_energy": -21.56, 
			 "cosmo_repulsion_energy": 1.69, 
			 "cosmo_total_nonelectrostatic_energy": 10.13, 
			 "SMD_solvation_energy": 4.87 
		},
		"coords": [
			{
				"x": -2.1160030421,
				"y": -1.489243895,
				"z": -2.033331008,
				"element": "C" 
			},
			{
				"x": -1.7353990622,
				"y": -0.2313708159,
				"z": -1.2300574637,
				"element": "C" 
			},
			{
				"x": -2.7384406224,
				"y": 0.9139791853,
				"z": -1.4633919548,
				"element": "C" 
			},
			{
				"x": -0.3244945972,
				"y": 0.2096970673,
				"z": -1.549148173,
				"element": "C" 
			},
			{
				"x": 0.0049555931,
				"y": 0.582614329,
				"z": -2.7594561649,
				"element": "N" 
			},
			{
				"x": 1.3766838688,
				"y": 0.93582867,
				"z": -2.751677246,
				"element": "O" 
			},
			{
				"x": 1.8451319256,
				"y": 0.7598359181,
				"z": -1.50151508,
				"element": "C" 
			},
			{
				"x": 0.812189185,
				"y": 0.294750969,
				"z": -0.6696102621,
				"element": "C" 
			},
			{
				"x": 1.1166036211,
				"y": 0.0555426573,
				"z": 0.6676715021,
				"element": "C" 
			},
			{
				"x": 2.4342418185,
				"y": 0.3021344919,
				"z": 1.0645397865,
				"element": "C" 
			},
			{
				"x": 3.3771416796,
				"y": 0.7712378712,
				"z": 0.1178162973,
				"element": "C" 
			},
			{
				"x": 3.1052972706,
				"y": 1.0066220956,
				"z": -1.1680005993,
				"element": "N" 
			},
			{
				"x": 2.7934780386,
				"y": 0.0574875067,
				"z": 2.4842440809,
				"element": "C" 
			},
			{
				"x": 4.091995976,
				"y": 0.3288581378,
				"z": 2.7566553555,
				"element": "O" 
			},
			{
				"x": 2.0188787915,
				"y": -0.3441986813,
				"z": 3.3298229055,
				"element": "O" 
			},
			{
				"x": -2.0986837609,
				"y": -1.2776153617,
				"z": -3.106278702,
				"element": "H" 
			},
			{
				"x": -1.4213934396,
				"y": -2.3125343455,
				"z": -1.84019215,
				"element": "H" 
			},
			{
				"x": -3.1227785103,
				"y": -1.8220087977,
				"z": -1.7617601714,
				"element": "H" 
			},
			{
				"x": -1.7497077906,
				"y": -0.4881150879,
				"z": -0.1631975352,
				"element": "H" 
			},
			{
				"x": -2.742879671,
				"y": 1.2098736073,
				"z": -2.5163540311,
				"element": "H" 
			},
			{
				"x": -2.485379835,
				"y": 1.7952454079,
				"z": -0.8659632338,
				"element": "H" 
			},
			{
				"x": -3.7487344553,
				"y": 0.5947181902,
				"z": -1.1886916803,
				"element": "H" 
			},
			{
				"x": 0.3949478671,
				"y": -0.3038989896,
				"z": 1.3940406385,
				"element": "H" 
			},
			{
				"x": 4.3981351683,
				"y": 0.9599188234,
				"z": 0.4355002535,
				"element": "H" 
			},
			{
				"x": 4.2147139827,
				"y": 0.1360410467,
				"z": 3.700834636,
				"element": "H" 
			}
		],
		 "valence_orbital": [ 
			{
				"type": "occ",
				"energy": -0.3186,
				"method": "rhf"
			},
			{
				"type": "occ",
				"energy": -0.29664,
				"method": "rhf"
			},
			{
				"type": "occ",
				"energy": -0.28269,
				"method": "rhf"
			},
			{
				"type": "occ",
				"energy": -0.27649,
				"method": "rhf"
			},
			{
				"type": "occ",
				"energy": -0.27497,
				"method": "rhf"
			},
			{
				"type": "unocc",
				"energy": -0.07191,
				"method": "rhf"
			},
			{
				"type": "unocc",
				"energy": -0.05515,
				"method": "rhf"
			},
			{
				"type": "unocc",
				"energy": 0.01087,
				"method": "rhf"
			},
			{
				"type": "unocc",
				"energy": 0.0565,
				"method": "rhf"
			},
			{
				"type": "unocc",
				"energy": 0.06539,
				"method": "rhf"
			}
		],
		"cosmo_sigma_profile": { 
			"-0.025": 0.0,
			"-0.024": 0.0,
			"-0.023": 0.0,
			"-0.022": 0.0,
			"-0.021": 0.0,
			"-0.02": 0.0,
			"-0.019": 0.285484542522,
			"-0.018": 0.753415991159,
			"-0.017": 1.16368250437,
			"-0.016": 0.64671467398,
			"-0.015": 1.03959045766,
			"-0.014": 0.447441315152,
			"-0.013": 0.978358103888,
			"-0.012": 0.551299276834,
			"-0.011": 0.797040360546,
			"-0.01": 0.566518263871,
			"-0.009": 0.743264855938,
			"-0.008": 3.5900876003,
			"-0.007": 5.49090930088,
			"-0.006": 5.18723372938,
			"-0.005": 4.83712083101,
			"-0.004": 18.8672625284,
			"-0.003": 30.9743481351,
			"-0.002": 30.9471039434,
			"-0.001": 24.5486992031,
			"0.0": 20.6170801809,
			"0.001": 15.4023245555,
			"0.002": 7.90233023354,
			"0.003": 6.23086516405,
			"0.004": 7.14953724506,
			"0.005": 6.18813123093,
			"0.006": 7.796826051,
			"0.007": 8.4161266957,
			"0.008": 5.74966276572,
			"0.009": 4.20595076545,
			"0.01": 4.61651928169,
			"0.011": 6.50606281311,
			"0.012": 3.59407645058,
			"0.013": 1.53041581519,
			"0.014": 0.497572857156,
			"0.015": 0.0,
			"0.016": 0.0,
			"0.017": 0.0,
			"0.018": 0.0,
			"0.019": 0.0,
			"0.02": 0.0,
			"0.021": 0.0,
			"0.022": 0.0,
			"0.023": 0.0,
			"0.024": 0.0,
			"0.025": 0.0
		}
	}
}
