{
	 "smiles": "ClC1=CC=C2C(=C1)C(=O)C1=C2C=CC=C1", 
	 "Tm": 399.15, 
	 "num_atms": 22, 
	 "gaussian": { 
		 "optdone": 1, 
		 "sigma_profile": "yes", 
		 "theory": "DFT", 
		 "functional": "B3LYP", 
		 "basiset": "6-31G**", 
		 "properties": { 
			 "R2extent": 4364.4069, 
			 "electric_dipole_moment_norm": 4.15026102071, 
			 "electric_quadrupole_moment_norm": 9.5798340805, 
			 "total_energy": -1035.02739545, 
			 "HOMO_LUMO_gap": 0.14115, 
			 "cosmo_polarized_energy": -8.69, 
			 "cosmo_cavitation_energy": 28.77, 
			 "cosmo_dispersion_energy": -21.21, 
			 "cosmo_repulsion_energy": 1.61, 
			 "cosmo_total_nonelectrostatic_energy": 9.18, 
			 "SMD_solvation_energy": 4.67 
		},
		"coords": [
			{
				"x": 2.9606150045,
				"y": -2.1945359374,
				"z": 1.9672808986,
				"element": "Cl" 
			},
			{
				"x": 1.9995746363,
				"y": -0.8524632991,
				"z": 1.3685509323,
				"element": "C" 
			},
			{
				"x": 1.6032008956,
				"y": 0.1510277322,
				"z": 2.2561956621,
				"element": "C" 
			},
			{
				"x": 0.83559151,
				"y": 1.2334827015,
				"z": 1.8046915695,
				"element": "C" 
			},
			{
				"x": 0.4772593488,
				"y": 1.2900325822,
				"z": 0.4623843233,
				"element": "C" 
			},
			{
				"x": 0.889378932,
				"y": 0.265748596,
				"z": -0.4126476276,
				"element": "C" 
			},
			{
				"x": 1.6480729119,
				"y": -0.8119270449,
				"z": 0.0141200441,
				"element": "C" 
			},
			{
				"x": 0.3747287664,
				"y": 0.5644384043,
				"z": -1.7924702944,
				"element": "C" 
			},
			{
				"x": 0.5358438113,
				"y": -0.1001306852,
				"z": -2.7997391604,
				"element": "O" 
			},
			{
				"x": -0.3757711418,
				"y": 1.8531301239,
				"z": -1.6524394028,
				"element": "C" 
			},
			{
				"x": -0.3117258372,
				"y": 2.2802662056,
				"z": -0.3099383137,
				"element": "C" 
			},
			{
				"x": -0.9377741168,
				"y": 3.4608202314,
				"z": 0.0732724056,
				"element": "C" 
			},
			{
				"x": -1.623584742,
				"y": 4.2008528979,
				"z": -0.9021792383,
				"element": "C" 
			},
			{
				"x": -1.6833453065,
				"y": 3.7719439607,
				"z": -2.231444733,
				"element": "C" 
			},
			{
				"x": -1.052706993,
				"y": 2.5820863597,
				"z": -2.6189894187,
				"element": "C" 
			},
			{
				"x": 1.895106199,
				"y": 0.0847449442,
				"z": 3.2986467801,
				"element": "H" 
			},
			{
				"x": 0.534627528,
				"y": 2.0061976601,
				"z": 2.5059447185,
				"element": "H" 
			},
			{
				"x": 1.9546189331,
				"y": -1.5897994367,
				"z": -0.6769581323,
				"element": "H" 
			},
			{
				"x": -0.9032958013,
				"y": 3.8115129181,
				"z": 1.1007286519,
				"element": "H" 
			},
			{
				"x": -2.1175164568,
				"y": 5.1254525094,
				"z": -0.6171065413,
				"element": "H" 
			},
			{
				"x": -2.221328419,
				"y": 4.3652267009,
				"z": -2.9644686085,
				"element": "H" 
			},
			{
				"x": -1.0852696624,
				"y": 2.2285918752,
				"z": -3.6453345152,
				"element": "H" 
			}
		],
		 "valence_orbital": [ 
			{
				"type": "occ",
				"energy": -0.28922,
				"method": "rhf"
			},
			{
				"type": "occ",
				"energy": -0.2766,
				"method": "rhf"
			},
			{
				"type": "occ",
				"energy": -0.26887,
				"method": "rhf"
			},
			{
				"type": "occ",
				"energy": -0.25774,
				"method": "rhf"
			},
			{
				"type": "occ",
				"energy": -0.23253,
				"method": "rhf"
			},
			{
				"type": "unocc",
				"energy": -0.09138,
				"method": "rhf"
			},
			{
				"type": "unocc",
				"energy": -0.04771,
				"method": "rhf"
			},
			{
				"type": "unocc",
				"energy": -0.01264,
				"method": "rhf"
			},
			{
				"type": "unocc",
				"energy": 0.0182,
				"method": "rhf"
			},
			{
				"type": "unocc",
				"energy": 0.02435,
				"method": "rhf"
			}
		],
		"cosmo_sigma_profile": { 
			"-0.025": 0.0,
			"-0.024": 0.0,
			"-0.023": 0.0,
			"-0.022": 0.0,
			"-0.021": 0.0,
			"-0.02": 0.0,
			"-0.019": 0.0,
			"-0.018": 0.0,
			"-0.017": 0.0,
			"-0.016": 0.0,
			"-0.015": 0.0,
			"-0.014": 0.0,
			"-0.013": 0.0,
			"-0.012": 0.0,
			"-0.011": 0.0,
			"-0.01": 0.0,
			"-0.009": 0.0146627804373,
			"-0.008": 2.96786306522,
			"-0.007": 11.2286707044,
			"-0.006": 14.8227958381,
			"-0.005": 13.5969971254,
			"-0.004": 11.9568718873,
			"-0.003": 13.1814625712,
			"-0.002": 14.2119266134,
			"-0.001": 15.9775767469,
			"0.0": 23.0145415456,
			"0.001": 30.1859819655,
			"0.002": 25.9414389748,
			"0.003": 20.4940599154,
			"0.004": 16.2713621408,
			"0.005": 5.16147811774,
			"0.006": 1.40957665543,
			"0.007": 1.27025362895,
			"0.008": 1.86966002126,
			"0.009": 1.72019371506,
			"0.01": 3.21197255284,
			"0.011": 4.42270700929,
			"0.012": 2.1970495584,
			"0.013": 0.0145395376083,
			"0.014": 0.0,
			"0.015": 0.0,
			"0.016": 0.0,
			"0.017": 0.0,
			"0.018": 0.0,
			"0.019": 0.0,
			"0.02": 0.0,
			"0.021": 0.0,
			"0.022": 0.0,
			"0.023": 0.0,
			"0.024": 0.0,
			"0.025": 0.0
		}
	}
}
