{
	 "smiles": "CC1=C2OC=CC2=CC=C1", 
	 "Tm": 382.15, 
	 "num_atms": 18, 
	 "gaussian": { 
		 "optdone": 1, 
		 "sigma_profile": "yes", 
		 "theory": "DFT", 
		 "functional": "B3LYP", 
		 "basiset": "6-31G**", 
		 "properties": { 
			 "R2extent": 1588.4183, 
			 "electric_dipole_moment_norm": 0.377884029829, 
			 "electric_quadrupole_moment_norm": 5.84467556414, 
			 "total_energy": -422.995698973, 
			 "HOMO_LUMO_gap": 0.19978, 
			 "cosmo_polarized_energy": -4.42, 
			 "cosmo_cavitation_energy": 21.49, 
			 "cosmo_dispersion_energy": -16.22, 
			 "cosmo_repulsion_energy": 1.3, 
			 "cosmo_total_nonelectrostatic_energy": 6.57, 
			 "SMD_solvation_energy": 4.48 
		},
		"coords": [
			{
				"x": 1.4191030093,
				"y": -0.1780375666,
				"z": -2.1364883516,
				"element": "C" 
			},
			{
				"x": 1.0052407135,
				"y": -1.0744566434,
				"z": -0.9956397597,
				"element": "C" 
			},
			{
				"x": 0.0696644023,
				"y": -0.6807960627,
				"z": -0.0396573501,
				"element": "C" 
			},
			{
				"x": -0.5745707977,
				"y": 0.5320728434,
				"z": -0.012946224,
				"element": "O" 
			},
			{
				"x": -1.3990778602,
				"y": 0.5002223269,
				"z": 1.0833340489,
				"element": "C" 
			},
			{
				"x": -1.3142654624,
				"y": -0.671909329,
				"z": 1.7587517683,
				"element": "C" 
			},
			{
				"x": -0.35179602,
				"y": -1.4769962734,
				"z": 1.0437332335,
				"element": "C" 
			},
			{
				"x": 0.1931593227,
				"y": -2.760405369,
				"z": 1.1937565313,
				"element": "C" 
			},
			{
				"x": 1.1304618181,
				"y": -3.1847547319,
				"z": 0.2561573393,
				"element": "C" 
			},
			{
				"x": 1.5258254868,
				"y": -2.3604652882,
				"z": -0.8121171882,
				"element": "C" 
			},
			{
				"x": 2.4958631888,
				"y": 0.0227026513,
				"z": -2.1095749391,
				"element": "H" 
			},
			{
				"x": 1.1992877224,
				"y": -0.6437539813,
				"z": -3.1035586524,
				"element": "H" 
			},
			{
				"x": 0.8963833972,
				"y": 0.7797736485,
				"z": -2.0968397801,
				"element": "H" 
			},
			{
				"x": -1.982460873,
				"y": 1.3943471509,
				"z": 1.2443928421,
				"element": "H" 
			},
			{
				"x": -1.8626520096,
				"y": -0.9368412337,
				"z": 2.6513800844,
				"element": "H" 
			},
			{
				"x": -0.1064394807,
				"y": -3.4035295986,
				"z": 2.0156623961,
				"element": "H" 
			},
			{
				"x": 1.5694563606,
				"y": -4.1741588865,
				"z": 0.3472075213,
				"element": "H" 
			},
			{
				"x": 2.261017082,
				"y": -2.7312136567,
				"z": -1.52215352,
				"element": "H" 
			}
		],
		 "valence_orbital": [ 
			{
				"type": "occ",
				"energy": -0.33959,
				"method": "rhf"
			},
			{
				"type": "occ",
				"energy": -0.33223,
				"method": "rhf"
			},
			{
				"type": "occ",
				"energy": -0.28329,
				"method": "rhf"
			},
			{
				"type": "occ",
				"energy": -0.23064,
				"method": "rhf"
			},
			{
				"type": "occ",
				"energy": -0.21398,
				"method": "rhf"
			},
			{
				"type": "unocc",
				"energy": -0.0142,
				"method": "rhf"
			},
			{
				"type": "unocc",
				"energy": 0.01993,
				"method": "rhf"
			},
			{
				"type": "unocc",
				"energy": 0.05723,
				"method": "rhf"
			},
			{
				"type": "unocc",
				"energy": 0.10815,
				"method": "rhf"
			},
			{
				"type": "unocc",
				"energy": 0.11824,
				"method": "rhf"
			}
		],
		"cosmo_sigma_profile": { 
			"-0.025": 0.0,
			"-0.024": 0.0,
			"-0.023": 0.0,
			"-0.022": 0.0,
			"-0.021": 0.0,
			"-0.02": 0.0,
			"-0.019": 0.0,
			"-0.018": 0.0,
			"-0.017": 0.0,
			"-0.016": 0.0,
			"-0.015": 0.0,
			"-0.014": 0.0,
			"-0.013": 0.0,
			"-0.012": 0.0,
			"-0.011": 0.0,
			"-0.01": 0.0610795881666,
			"-0.009": 1.37469221808,
			"-0.008": 1.9811017053,
			"-0.007": 3.17024354315,
			"-0.006": 4.58664694031,
			"-0.005": 9.88205556889,
			"-0.004": 14.4368854469,
			"-0.003": 15.3932302529,
			"-0.002": 15.7423719223,
			"-0.001": 13.493326443,
			"0.0": 13.970053914,
			"0.001": 11.6692230763,
			"0.002": 13.6213487309,
			"0.003": 14.1155642743,
			"0.004": 14.5727477297,
			"0.005": 12.2489337218,
			"0.006": 8.04688010441,
			"0.007": 3.05285431767,
			"0.008": 0.74138831799,
			"0.009": 0.0,
			"0.01": 0.0,
			"0.011": 0.0,
			"0.012": 0.0,
			"0.013": 0.0,
			"0.014": 0.0,
			"0.015": 0.0,
			"0.016": 0.0,
			"0.017": 0.0,
			"0.018": 0.0,
			"0.019": 0.0,
			"0.02": 0.0,
			"0.021": 0.0,
			"0.022": 0.0,
			"0.023": 0.0,
			"0.024": 0.0,
			"0.025": 0.0
		}
	}
}
