{
	 "smiles": "NNC(=O)C1COCCO1", 
	 "Tm": 380.15, 
	 "num_atms": 20, 
	 "gaussian": { 
		 "optdone": 1, 
		 "sigma_profile": "yes", 
		 "theory": "DFT", 
		 "functional": "B3LYP", 
		 "basiset": "6-31G**", 
		 "properties": { 
			 "R2extent": 2129.6505, 
			 "electric_dipole_moment_norm": 2.64160822606, 
			 "electric_quadrupole_moment_norm": 5.50402704299, 
			 "total_energy": -531.68697108, 
			 "HOMO_LUMO_gap": 0.26811, 
			 "cosmo_polarized_energy": -12.9, 
			 "cosmo_cavitation_energy": 22.82, 
			 "cosmo_dispersion_energy": -17.35, 
			 "cosmo_repulsion_energy": 1.44, 
			 "cosmo_total_nonelectrostatic_energy": 6.92, 
			 "SMD_solvation_energy": 4.9 
		},
		"coords": [
			{
				"x": -0.6563362122,
				"y": -2.2256906518,
				"z": -3.9999869189,
				"element": "N" 
			},
			{
				"x": -0.3778790393,
				"y": -1.484366723,
				"z": -2.8363230192,
				"element": "N" 
			},
			{
				"x": -0.4556573682,
				"y": -2.0305134925,
				"z": -1.5974239432,
				"element": "C" 
			},
			{
				"x": -0.7222023878,
				"y": -3.2107502047,
				"z": -1.3903201832,
				"element": "O" 
			},
			{
				"x": -0.1868716975,
				"y": -1.0702328507,
				"z": -0.4415284885,
				"element": "C" 
			},
			{
				"x": -1.3049118406,
				"y": -1.1435171232,
				"z": 0.6037168984,
				"element": "C" 
			},
			{
				"x": -1.0494197527,
				"y": -0.2262893851,
				"z": 1.6593482696,
				"element": "O" 
			},
			{
				"x": -0.935331968,
				"y": 1.1022866976,
				"z": 1.1651525836,
				"element": "C" 
			},
			{
				"x": 0.1801257398,
				"y": 1.1910803005,
				"z": 0.1299594023,
				"element": "C" 
			},
			{
				"x": -0.0564494231,
				"y": 0.2649872222,
				"z": -0.9313177734,
				"element": "O" 
			},
			{
				"x": 0.0636813705,
				"y": -2.9433990555,
				"z": -4.0854535873,
				"element": "H" 
			},
			{
				"x": -1.5218993164,
				"y": -2.7382410728,
				"z": -3.8284778851,
				"element": "H" 
			},
			{
				"x": -0.2354888955,
				"y": -0.4911166665,
				"z": -2.944420687,
				"element": "H" 
			},
			{
				"x": 0.7554262874,
				"y": -1.3818307587,
				"z": 0.038401565,
				"element": "H" 
			},
			{
				"x": -2.269206593,
				"y": -0.9164417199,
				"z": 0.1207146819,
				"element": "H" 
			},
			{
				"x": -1.3518082961,
				"y": -2.144100669,
				"z": 1.0356263538,
				"element": "H" 
			},
			{
				"x": -0.7219100454,
				"y": 1.7448212653,
				"z": 2.0249515534,
				"element": "H" 
			},
			{
				"x": -1.8863169526,
				"y": 1.4244408889,
				"z": 0.710151083,
				"element": "H" 
			},
			{
				"x": 1.1486283143,
				"y": 0.9732510886,
				"z": 0.6062881979,
				"element": "H" 
			},
			{
				"x": 0.2247280765,
				"y": 2.1850229103,
				"z": -0.325158103,
				"element": "H" 
			}
		],
		 "valence_orbital": [ 
			{
				"type": "occ",
				"energy": -0.29518,
				"method": "rhf"
			},
			{
				"type": "occ",
				"energy": -0.28198,
				"method": "rhf"
			},
			{
				"type": "occ",
				"energy": -0.26073,
				"method": "rhf"
			},
			{
				"type": "occ",
				"energy": -0.25558,
				"method": "rhf"
			},
			{
				"type": "occ",
				"energy": -0.24575,
				"method": "rhf"
			},
			{
				"type": "unocc",
				"energy": 0.02236,
				"method": "rhf"
			},
			{
				"type": "unocc",
				"energy": 0.07669,
				"method": "rhf"
			},
			{
				"type": "unocc",
				"energy": 0.09258,
				"method": "rhf"
			},
			{
				"type": "unocc",
				"energy": 0.10114,
				"method": "rhf"
			},
			{
				"type": "unocc",
				"energy": 0.11071,
				"method": "rhf"
			}
		],
		"cosmo_sigma_profile": { 
			"-0.025": 0.0,
			"-0.024": 0.0,
			"-0.023": 0.0,
			"-0.022": 0.0,
			"-0.021": 0.0,
			"-0.02": 0.0,
			"-0.019": 0.0,
			"-0.018": 0.0,
			"-0.017": 0.0,
			"-0.016": 0.0,
			"-0.015": 0.0,
			"-0.014": 0.0,
			"-0.013": 0.00899287905812,
			"-0.012": 0.939295012567,
			"-0.011": 3.05265848015,
			"-0.01": 2.50060537472,
			"-0.009": 3.88330980962,
			"-0.008": 2.43446709866,
			"-0.007": 2.8539716717,
			"-0.006": 10.2472701909,
			"-0.005": 18.4651101985,
			"-0.004": 21.8575896113,
			"-0.003": 14.6206794715,
			"-0.002": 11.8589466736,
			"-0.001": 10.3160143465,
			"0.0": 9.31955262111,
			"0.001": 6.86876005671,
			"0.002": 6.19639164521,
			"0.003": 6.11362538686,
			"0.004": 4.34176621744,
			"0.005": 4.26842911364,
			"0.006": 4.92443929649,
			"0.007": 5.1261905526,
			"0.008": 3.50848136125,
			"0.009": 2.14950595431,
			"0.01": 2.62257425802,
			"0.011": 3.60426888289,
			"0.012": 4.32083862894,
			"0.013": 6.19093775633,
			"0.014": 3.7646504056,
			"0.015": 0.641677690898,
			"0.016": 0.644163739704,
			"0.017": 0.115134141227,
			"0.018": 0.0,
			"0.019": 0.0,
			"0.02": 0.0,
			"0.021": 0.0,
			"0.022": 0.0,
			"0.023": 0.0,
			"0.024": 0.0,
			"0.025": 0.0
		}
	}
}
