{
	 "smiles": "OC1=NOC2=CC(Cl)=CC=C12", 
	 "Tm": 489.15, 
	 "num_atms": 15, 
	 "gaussian": { 
		 "optdone": 1, 
		 "sigma_profile": "yes", 
		 "theory": "DFT", 
		 "functional": "B3LYP", 
		 "basiset": "6-31G**", 
		 "properties": { 
			 "R2extent": 2513.1529, 
			 "electric_dipole_moment_norm": 4.03752008168, 
			 "electric_quadrupole_moment_norm": 15.3058336274, 
			 "total_energy": -934.48725166, 
			 "HOMO_LUMO_gap": 0.19286, 
			 "cosmo_polarized_energy": -14.76, 
			 "cosmo_cavitation_energy": 21.93, 
			 "cosmo_dispersion_energy": -16.75, 
			 "cosmo_repulsion_energy": 1.33, 
			 "cosmo_total_nonelectrostatic_energy": 6.51, 
			 "SMD_solvation_energy": 3.74 
		},
		"coords": [
			{
				"x": 1.4036507705,
				"y": -0.6513144366,
				"z": -2.7398258768,
				"element": "O" 
			},
			{
				"x": 0.641618616,
				"y": 0.3040258707,
				"z": -2.1722522043,
				"element": "C" 
			},
			{
				"x": 0.1892353817,
				"y": 1.2794128137,
				"z": -2.9158593241,
				"element": "N" 
			},
			{
				"x": -0.5664317162,
				"y": 2.1142145664,
				"z": -2.0552241785,
				"element": "O" 
			},
			{
				"x": -0.5331242772,
				"y": 1.5925722551,
				"z": -0.8097547855,
				"element": "C" 
			},
			{
				"x": -1.1521379722,
				"y": 2.1131894383,
				"z": 0.3275605229,
				"element": "C" 
			},
			{
				"x": -0.9647625817,
				"y": 1.384270482,
				"z": 1.4958236056,
				"element": "C" 
			},
			{
				"x": -1.7050576663,
				"y": 1.9607116703,
				"z": 2.9783579816,
				"element": "Cl" 
			},
			{
				"x": -0.2037214614,
				"y": 0.1965222684,
				"z": 1.5475186212,
				"element": "C" 
			},
			{
				"x": 0.3990661314,
				"y": -0.294430136,
				"z": 0.3975807924,
				"element": "C" 
			},
			{
				"x": 0.227768001,
				"y": 0.4195472306,
				"z": -0.7964889303,
				"element": "C" 
			},
			{
				"x": 1.6585667276,
				"y": -1.2962363773,
				"z": -2.0687058968,
				"element": "H" 
			},
			{
				"x": -1.7383712046,
				"y": 3.0230787557,
				"z": 0.3012357768,
				"element": "H" 
			},
			{
				"x": -0.0985104523,
				"y": -0.3220872155,
				"z": 2.4930107437,
				"element": "H" 
			},
			{
				"x": 0.9842117035,
				"y": -1.2089771857,
				"z": 0.4408231521,
				"element": "H" 
			}
		],
		 "valence_orbital": [ 
			{
				"type": "occ",
				"energy": -0.32881,
				"method": "rhf"
			},
			{
				"type": "occ",
				"energy": -0.31313,
				"method": "rhf"
			},
			{
				"type": "occ",
				"energy": -0.29633,
				"method": "rhf"
			},
			{
				"type": "occ",
				"energy": -0.26264,
				"method": "rhf"
			},
			{
				"type": "occ",
				"energy": -0.249,
				"method": "rhf"
			},
			{
				"type": "unocc",
				"energy": -0.05614,
				"method": "rhf"
			},
			{
				"type": "unocc",
				"energy": -0.01744,
				"method": "rhf"
			},
			{
				"type": "unocc",
				"energy": 0.00906,
				"method": "rhf"
			},
			{
				"type": "unocc",
				"energy": 0.03352,
				"method": "rhf"
			},
			{
				"type": "unocc",
				"energy": 0.04497,
				"method": "rhf"
			}
		],
		"cosmo_sigma_profile": { 
			"-0.025": 0.0,
			"-0.024": 0.0,
			"-0.023": 0.0,
			"-0.022": 0.0,
			"-0.021": 0.0,
			"-0.02": 0.00847633533655,
			"-0.019": 0.993847343113,
			"-0.018": 1.52795625095,
			"-0.017": 1.79686792736,
			"-0.016": 1.16790927003,
			"-0.015": 1.57852946098,
			"-0.014": 0.764564577779,
			"-0.013": 1.04348519011,
			"-0.012": 0.733044277136,
			"-0.011": 1.35753259637,
			"-0.01": 1.26321074732,
			"-0.009": 2.87280311746,
			"-0.008": 4.92262437932,
			"-0.007": 5.67330687403,
			"-0.006": 5.33685353876,
			"-0.005": 5.35867113355,
			"-0.004": 4.60830724204,
			"-0.003": 6.77877861525,
			"-0.002": 11.0740854275,
			"-0.001": 11.6394154771,
			"0.0": 19.0828284586,
			"0.001": 19.0991328696,
			"0.002": 13.1240456433,
			"0.003": 10.1035774872,
			"0.004": 12.7103543728,
			"0.005": 4.46678230388,
			"0.006": 3.47886947002,
			"0.007": 5.56583463966,
			"0.008": 8.14482667266,
			"0.009": 5.48354986989,
			"0.01": 2.10752479334,
			"0.011": 1.60853029511,
			"0.012": 1.9012226577,
			"0.013": 1.27500501753,
			"0.014": 0.674555142335,
			"0.015": 0.0,
			"0.016": 0.0,
			"0.017": 0.0,
			"0.018": 0.0,
			"0.019": 0.0,
			"0.02": 0.0,
			"0.021": 0.0,
			"0.022": 0.0,
			"0.023": 0.0,
			"0.024": 0.0,
			"0.025": 0.0
		}
	}
}
