{
	 "smiles": "CC(C)CN1NC=CC1=NC(=O)OCC(F)(F)F", 
	 "Tm": 337.15, 
	 "num_atms": 32, 
	 "gaussian": { 
		 "optdone": 1, 
		 "sigma_profile": "yes", 
		 "theory": "DFT", 
		 "functional": "B3LYP", 
		 "basiset": "6-31G**", 
		 "properties": { 
			 "R2extent": 6351.3575, 
			 "electric_dipole_moment_norm": 7.65826650685, 
			 "electric_quadrupole_moment_norm": 11.3348893863, 
			 "total_energy": -1003.71258353, 
			 "HOMO_LUMO_gap": 0.18058, 
			 "cosmo_polarized_energy": -21.48, 
			 "cosmo_cavitation_energy": 37.36, 
			 "cosmo_dispersion_energy": -25.36, 
			 "cosmo_repulsion_energy": 1.95, 
			 "cosmo_total_nonelectrostatic_energy": 13.95, 
			 "SMD_solvation_energy": 7.78 
		},
		"coords": [
			{
				"x": 2.9390277605,
				"y": -2.6348667487,
				"z": -0.8360744514,
				"element": "C" 
			},
			{
				"x": 2.2827045199,
				"y": -1.7670313245,
				"z": 0.2475649816,
				"element": "C" 
			},
			{
				"x": 3.205687059,
				"y": -1.5962996435,
				"z": 1.4607380115,
				"element": "C" 
			},
			{
				"x": 0.9172324197,
				"y": -2.3789511649,
				"z": 0.6182399473,
				"element": "C" 
			},
			{
				"x": 0.0880690928,
				"y": -1.5639529962,
				"z": 1.4982968752,
				"element": "N" 
			},
			{
				"x": 0.2393869379,
				"y": -1.597902017,
				"z": 2.882688925,
				"element": "N" 
			},
			{
				"x": -0.5371422251,
				"y": -0.5737807133,
				"z": 3.3839441863,
				"element": "C" 
			},
			{
				"x": -1.0247642136,
				"y": 0.1904607917,
				"z": 2.3716432209,
				"element": "C" 
			},
			{
				"x": -0.5968109088,
				"y": -0.4287005622,
				"z": 1.1329562646,
				"element": "C" 
			},
			{
				"x": -0.6951390622,
				"y": -0.1355970881,
				"z": -0.1488412665,
				"element": "N" 
			},
			{
				"x": -1.3879681804,
				"y": 0.9892605798,
				"z": -0.4849608809,
				"element": "C" 
			},
			{
				"x": -1.9780470501,
				"y": 1.7957571446,
				"z": 0.2252102406,
				"element": "O" 
			},
			{
				"x": -1.361776979,
				"y": 1.1195985011,
				"z": -1.8603637963,
				"element": "O" 
			},
			{
				"x": -1.971856591,
				"y": 2.2815672939,
				"z": -2.3873305444,
				"element": "C" 
			},
			{
				"x": -0.9085573351,
				"y": 3.2731323153,
				"z": -2.8264812701,
				"element": "C" 
			},
			{
				"x": -0.1165955707,
				"y": 2.7727259201,
				"z": -3.7956527196,
				"element": "F" 
			},
			{
				"x": -0.1151949211,
				"y": 3.6439210249,
				"z": -1.8041170413,
				"element": "F" 
			},
			{
				"x": -1.5032890212,
				"y": 4.3852144436,
				"z": -3.3188830402,
				"element": "F" 
			},
			{
				"x": 3.1389031834,
				"y": -3.6489398913,
				"z": -0.4670998898,
				"element": "H" 
			},
			{
				"x": 3.8954288772,
				"y": -2.2044605152,
				"z": -1.1485339545,
				"element": "H" 
			},
			{
				"x": 2.303881423,
				"y": -2.7172032547,
				"z": -1.7241691811,
				"element": "H" 
			},
			{
				"x": 2.0710925089,
				"y": -0.7807322609,
				"z": -0.1824782753,
				"element": "H" 
			},
			{
				"x": 3.438726911,
				"y": -2.5662621149,
				"z": 1.9193375361,
				"element": "H" 
			},
			{
				"x": 2.7581575699,
				"y": -0.9602803838,
				"z": 2.2294199423,
				"element": "H" 
			},
			{
				"x": 4.1540955571,
				"y": -1.1398241627,
				"z": 1.1592423818,
				"element": "H" 
			},
			{
				"x": 1.0462665457,
				"y": -3.3588412268,
				"z": 1.0961108799,
				"element": "H" 
			},
			{
				"x": 0.3222217076,
				"y": -2.5176329251,
				"z": -0.2872389292,
				"element": "H" 
			},
			{
				"x": 0.1757057202,
				"y": -2.5270962063,
				"z": 3.2880407373,
				"element": "H" 
			},
			{
				"x": -0.6528324207,
				"y": -0.4756593828,
				"z": 4.4545428787,
				"element": "H" 
			},
			{
				"x": -1.5955442147,
				"y": 1.1011520554,
				"z": 2.423978601,
				"element": "H" 
			},
			{
				"x": -2.5554494771,
				"y": 1.9952497407,
				"z": -3.2663798952,
				"element": "H" 
			},
			{
				"x": -2.6107196228,
				"y": 2.7616747716,
				"z": -1.6433504744,
				"element": "H" 
			}
		],
		 "valence_orbital": [ 
			{
				"type": "occ",
				"energy": -0.29128,
				"method": "rhf"
			},
			{
				"type": "occ",
				"energy": -0.28071,
				"method": "rhf"
			},
			{
				"type": "occ",
				"energy": -0.27685,
				"method": "rhf"
			},
			{
				"type": "occ",
				"energy": -0.23706,
				"method": "rhf"
			},
			{
				"type": "occ",
				"energy": -0.21577,
				"method": "rhf"
			},
			{
				"type": "unocc",
				"energy": -0.03519,
				"method": "rhf"
			},
			{
				"type": "unocc",
				"energy": 0.0362,
				"method": "rhf"
			},
			{
				"type": "unocc",
				"energy": 0.05243,
				"method": "rhf"
			},
			{
				"type": "unocc",
				"energy": 0.08365,
				"method": "rhf"
			},
			{
				"type": "unocc",
				"energy": 0.09898,
				"method": "rhf"
			}
		],
		"cosmo_sigma_profile": { 
			"-0.025": 0.0,
			"-0.024": 0.0,
			"-0.023": 0.0,
			"-0.022": 0.0,
			"-0.021": 0.0,
			"-0.02": 0.0,
			"-0.019": 0.0,
			"-0.018": 0.0298863130235,
			"-0.017": 1.43115873474,
			"-0.016": 2.09590195693,
			"-0.015": 1.41963274151,
			"-0.014": 1.46154036928,
			"-0.013": 1.79813506795,
			"-0.012": 0.99187862845,
			"-0.011": 1.87159247365,
			"-0.01": 3.92271334467,
			"-0.009": 3.4703091115,
			"-0.008": 5.4697229444,
			"-0.007": 5.05334465578,
			"-0.006": 7.92644539279,
			"-0.005": 10.2541271013,
			"-0.004": 12.8718135238,
			"-0.003": 20.1682137009,
			"-0.002": 22.2441974052,
			"-0.001": 23.8855986254,
			"0.0": 23.5115400432,
			"0.001": 28.6859755613,
			"0.002": 30.7168282344,
			"0.003": 39.0371482314,
			"0.004": 8.82405072221,
			"0.005": 5.20353311288,
			"0.006": 6.10589844578,
			"0.007": 3.20661490819,
			"0.008": 3.53943948979,
			"0.009": 3.34388135862,
			"0.01": 2.8458635549,
			"0.011": 3.24577506143,
			"0.012": 3.76336280498,
			"0.013": 3.73601006741,
			"0.014": 1.01900521618,
			"0.015": 1.03167623585,
			"0.016": 0.715101577063,
			"0.017": 0.0625619121766,
			"0.018": 0.0,
			"0.019": 0.0,
			"0.02": 0.0,
			"0.021": 0.0,
			"0.022": 0.0,
			"0.023": 0.0,
			"0.024": 0.0,
			"0.025": 0.0
		}
	}
}
