{
	 "smiles": "CCOC(=O)C1=C(CBr)OC2=C1C=CC=C2", 
	 "Tm": 358.15, 
	 "num_atms": 27, 
	 "gaussian": { 
		 "optdone": 1, 
		 "sigma_profile": "yes", 
		 "theory": "DFT", 
		 "functional": "B3LYP", 
		 "basiset": "6-31G**", 
		 "properties": { 
			 "R2extent": 7303.8209, 
			 "electric_dipole_moment_norm": 3.51430353128, 
			 "electric_quadrupole_moment_norm": 12.8842904294, 
			 "total_energy": -3261.00056289, 
			 "HOMO_LUMO_gap": 0.16768, 
			 "cosmo_polarized_energy": -8.82, 
			 "cosmo_cavitation_energy": 33.86, 
			 "cosmo_dispersion_energy": -24.48, 
			 "cosmo_repulsion_energy": 1.93, 
			 "cosmo_total_nonelectrostatic_energy": 11.31, 
			 "SMD_solvation_energy": 5.82 
		},
		"coords": [
			{
				"x": -2.4739269511,
				"y": -2.8967346398,
				"z": -1.055826259,
				"element": "C" 
			},
			{
				"x": -2.1486124095,
				"y": -1.7619474919,
				"z": -2.0078645348,
				"element": "C" 
			},
			{
				"x": -1.1603742975,
				"y": -0.9222121377,
				"z": -1.3643386763,
				"element": "O" 
			},
			{
				"x": -0.7554800639,
				"y": 0.1539471461,
				"z": -2.0734831376,
				"element": "C" 
			},
			{
				"x": -1.1792886024,
				"y": 0.414893612,
				"z": -3.1867611639,
				"element": "O" 
			},
			{
				"x": 0.2449791281,
				"y": 0.946436147,
				"z": -1.339718866,
				"element": "C" 
			},
			{
				"x": 0.7877350511,
				"y": 2.1243235651,
				"z": -1.7986987889,
				"element": "C" 
			},
			{
				"x": 0.5608765679,
				"y": 2.8991293586,
				"z": -3.02953511,
				"element": "C" 
			},
			{
				"x": -0.5356232228,
				"y": 4.53726944,
				"z": -2.6712007939,
				"element": "Br" 
			},
			{
				"x": 1.6996671014,
				"y": 2.6282233732,
				"z": -0.9191220106,
				"element": "O" 
			},
			{
				"x": 1.7517368584,
				"y": 1.7620523069,
				"z": 0.1450153983,
				"element": "C" 
			},
			{
				"x": 0.8680028925,
				"y": 0.6879470788,
				"z": -0.055747298,
				"element": "C" 
			},
			{
				"x": 0.7863598162,
				"y": -0.3092502494,
				"z": 0.92895381,
				"element": "C" 
			},
			{
				"x": 1.5866897408,
				"y": -0.1838260993,
				"z": 2.0606549983,
				"element": "C" 
			},
			{
				"x": 2.4612470573,
				"y": 0.9065770123,
				"z": 2.2291416008,
				"element": "C" 
			},
			{
				"x": 2.5604372905,
				"y": 1.907651651,
				"z": 1.2647506608,
				"element": "C" 
			},
			{
				"x": -1.5832475838,
				"y": -3.4925738884,
				"z": -0.8359336332,
				"element": "H" 
			},
			{
				"x": -3.2229437287,
				"y": -3.554360843,
				"z": -1.5076715399,
				"element": "H" 
			},
			{
				"x": -2.8771139165,
				"y": -2.5144792151,
				"z": -0.1136163287,
				"element": "H" 
			},
			{
				"x": -3.0278643367,
				"y": -1.1534818036,
				"z": -2.2402823105,
				"element": "H" 
			},
			{
				"x": -1.738729333,
				"y": -2.1233644247,
				"z": -2.9560660092,
				"element": "H" 
			},
			{
				"x": -0.0085143669,
				"y": 2.3154381418,
				"z": -3.745930832,
				"element": "H" 
			},
			{
				"x": 1.4911240341,
				"y": 3.2810719402,
				"z": -3.4463467268,
				"element": "H" 
			},
			{
				"x": 0.1137314364,
				"y": -1.1486125279,
				"z": 0.8034985398,
				"element": "H" 
			},
			{
				"x": 1.5361733361,
				"y": -0.9440648442,
				"z": 2.8344077266,
				"element": "H" 
			},
			{
				"x": 3.0692928597,
				"y": 0.9700074361,
				"z": 3.1263135258,
				"element": "H" 
			},
			{
				"x": 3.2261656422,
				"y": 2.7565399561,
				"z": 1.3734077589,
				"element": "H" 
			}
		],
		 "valence_orbital": [ 
			{
				"type": "occ",
				"energy": -0.28379,
				"method": "rhf"
			},
			{
				"type": "occ",
				"energy": -0.27486,
				"method": "rhf"
			},
			{
				"type": "occ",
				"energy": -0.26989,
				"method": "rhf"
			},
			{
				"type": "occ",
				"energy": -0.24842,
				"method": "rhf"
			},
			{
				"type": "occ",
				"energy": -0.23272,
				"method": "rhf"
			},
			{
				"type": "unocc",
				"energy": -0.06504,
				"method": "rhf"
			},
			{
				"type": "unocc",
				"energy": -0.0102,
				"method": "rhf"
			},
			{
				"type": "unocc",
				"energy": 0.00096,
				"method": "rhf"
			},
			{
				"type": "unocc",
				"energy": 0.01767,
				"method": "rhf"
			},
			{
				"type": "unocc",
				"energy": 0.08677,
				"method": "rhf"
			}
		],
		"cosmo_sigma_profile": { 
			"-0.025": 0.0,
			"-0.024": 0.0,
			"-0.023": 0.0,
			"-0.022": 0.0,
			"-0.021": 0.0,
			"-0.02": 0.0,
			"-0.019": 0.0,
			"-0.018": 0.0,
			"-0.017": 0.0,
			"-0.016": 0.0,
			"-0.015": 0.0,
			"-0.014": 0.0,
			"-0.013": 0.0,
			"-0.012": 0.0,
			"-0.011": 0.0,
			"-0.01": 0.134074632124,
			"-0.009": 1.79746445765,
			"-0.008": 2.30783215125,
			"-0.007": 4.36633154218,
			"-0.006": 9.94154668067,
			"-0.005": 17.8251712299,
			"-0.004": 23.7593254734,
			"-0.003": 24.0368557909,
			"-0.002": 23.1864763429,
			"-0.001": 22.8388179035,
			"0.0": 24.7997190739,
			"0.001": 20.9567229511,
			"0.002": 19.7690515394,
			"0.003": 20.3670913675,
			"0.004": 19.5977244063,
			"0.005": 17.334717567,
			"0.006": 9.66301611976,
			"0.007": 1.94372464691,
			"0.008": 1.58628889326,
			"0.009": 1.9062594237,
			"0.01": 1.41671533089,
			"0.011": 2.66810776357,
			"0.012": 1.67158748138,
			"0.013": 0.0221272650286,
			"0.014": 0.0,
			"0.015": 0.0,
			"0.016": 0.0,
			"0.017": 0.0,
			"0.018": 0.0,
			"0.019": 0.0,
			"0.02": 0.0,
			"0.021": 0.0,
			"0.022": 0.0,
			"0.023": 0.0,
			"0.024": 0.0,
			"0.025": 0.0
		}
	}
}
