{
	 "smiles": "CCCl", 
	 "Tm": 134.15, 
	 "num_atms": 8, 
	 "gaussian": { 
		 "optdone": 1, 
		 "sigma_profile": "yes", 
		 "theory": "DFT", 
		 "functional": "B3LYP", 
		 "basiset": "6-31G**", 
		 "properties": { 
			 "R2extent": 663.0471, 
			 "electric_dipole_moment_norm": 2.26377345598, 
			 "electric_quadrupole_moment_norm": 5.59203266443, 
			 "total_energy": -539.428137224, 
			 "HOMO_LUMO_gap": 0.31897, 
			 "cosmo_polarized_energy": -3.66, 
			 "cosmo_cavitation_energy": 12.48, 
			 "cosmo_dispersion_energy": -9.68, 
			 "cosmo_repulsion_energy": 0.93, 
			 "cosmo_total_nonelectrostatic_energy": 3.73, 
			 "SMD_solvation_energy": 2.22 
		},
		"coords": [
			{
				"x": 0.0849536286,
				"y": -0.1423114034,
				"z": 0.1873293221,
				"element": "C" 
			},
			{
				"x": -1.1946709307,
				"y": -0.8443586178,
				"z": 0.6067310057,
				"element": "C" 
			},
			{
				"x": -1.8097905997,
				"y": -0.2208299561,
				"z": 2.2038696367,
				"element": "Cl" 
			},
			{
				"x": 0.879768,
				"y": -0.2985093993,
				"z": 0.9212128076,
				"element": "H" 
			},
			{
				"x": -0.073905994,
				"y": 0.9330539204,
				"z": 0.0730220718,
				"element": "H" 
			},
			{
				"x": 0.4198198243,
				"y": -0.5460024128,
				"z": -0.7753322802,
				"element": "H" 
			},
			{
				"x": -2.0030327829,
				"y": -0.684202171,
				"z": -0.1083754265,
				"element": "H" 
			},
			{
				"x": -1.0482411457,
				"y": -1.9172399601,
				"z": 0.7407428628,
				"element": "H" 
			}
		],
		 "valence_orbital": [ 
			{
				"type": "occ",
				"energy": -0.40951,
				"method": "rhf"
			},
			{
				"type": "occ",
				"energy": -0.37779,
				"method": "rhf"
			},
			{
				"type": "occ",
				"energy": -0.37041,
				"method": "rhf"
			},
			{
				"type": "occ",
				"energy": -0.29288,
				"method": "rhf"
			},
			{
				"type": "occ",
				"energy": -0.29142,
				"method": "rhf"
			},
			{
				"type": "unocc",
				"energy": 0.02755,
				"method": "rhf"
			},
			{
				"type": "unocc",
				"energy": 0.09696,
				"method": "rhf"
			},
			{
				"type": "unocc",
				"energy": 0.13504,
				"method": "rhf"
			},
			{
				"type": "unocc",
				"energy": 0.13966,
				"method": "rhf"
			},
			{
				"type": "unocc",
				"energy": 0.16217,
				"method": "rhf"
			}
		],
		"cosmo_sigma_profile": { 
			"-0.025": 0.0,
			"-0.024": 0.0,
			"-0.023": 0.0,
			"-0.022": 0.0,
			"-0.021": 0.0,
			"-0.02": 0.0,
			"-0.019": 0.0,
			"-0.018": 0.0,
			"-0.017": 0.0,
			"-0.016": 0.0,
			"-0.015": 0.0,
			"-0.014": 0.0,
			"-0.013": 0.0,
			"-0.012": 0.0,
			"-0.011": 0.0,
			"-0.01": 0.0,
			"-0.009": 0.0,
			"-0.008": 0.0,
			"-0.007": 1.8687560837,
			"-0.006": 4.63360918892,
			"-0.005": 6.7566984448,
			"-0.004": 12.0582038061,
			"-0.003": 11.2192619906,
			"-0.002": 8.76178516543,
			"-0.001": 8.02040554396,
			"0.0": 8.4983452564,
			"0.001": 3.87706374236,
			"0.002": 3.66677774785,
			"0.003": 4.25532524304,
			"0.004": 3.50464667423,
			"0.005": 5.72884795374,
			"0.006": 6.08343368001,
			"0.007": 10.3891692314,
			"0.008": 0.719110439324,
			"0.009": 0.0,
			"0.01": 0.0,
			"0.011": 0.0,
			"0.012": 0.0,
			"0.013": 0.0,
			"0.014": 0.0,
			"0.015": 0.0,
			"0.016": 0.0,
			"0.017": 0.0,
			"0.018": 0.0,
			"0.019": 0.0,
			"0.02": 0.0,
			"0.021": 0.0,
			"0.022": 0.0,
			"0.023": 0.0,
			"0.024": 0.0,
			"0.025": 0.0
		}
	}
}
