{
	 "smiles": "FC(F)(F)C(C1=CC2=C(C=C1)C(=O)OC2=O)(C1=CC=C2C(=O)OC(=O)C2=C1)C(F)(F)F", 
	 "Tm": 518.65, 
	 "num_atms": 37, 
	 "gaussian": { 
		 "optdone": 1, 
		 "sigma_profile": "yes", 
		 "theory": "DFT", 
		 "functional": "B3LYP", 
		 "basiset": "6-31G**", 
		 "properties": { 
			 "R2extent": 12851.4828, 
			 "electric_dipole_moment_norm": 6.32815811749, 
			 "electric_quadrupole_moment_norm": 18.3880453292, 
			 "total_energy": -1778.05216598, 
			 "HOMO_LUMO_gap": 0.18809, 
			 "cosmo_polarized_energy": -20.7, 
			 "cosmo_cavitation_energy": 45.61, 
			 "cosmo_dispersion_energy": -30.5, 
			 "cosmo_repulsion_energy": 2.15, 
			 "cosmo_total_nonelectrostatic_energy": 17.26, 
			 "SMD_solvation_energy": 13.38 
		},
		"coords": [
			{
				"x": 2.3602223899,
				"y": 0.9085464429,
				"z": 1.2507380538,
				"element": "F" 
			},
			{
				"x": 2.9663232476,
				"y": 0.3724174247,
				"z": 0.1726449914,
				"element": "C" 
			},
			{
				"x": 4.0072028966,
				"y": 1.1692604044,
				"z": -0.145507048,
				"element": "F" 
			},
			{
				"x": 3.4689307909,
				"y": -0.815759679,
				"z": 0.53731794,
				"element": "F" 
			},
			{
				"x": 1.9525216028,
				"y": 0.2141734472,
				"z": -1.0021961319,
				"element": "C" 
			},
			{
				"x": 1.1886128969,
				"y": 1.5222098075,
				"z": -1.3179472622,
				"element": "C" 
			},
			{
				"x": 0.0287493518,
				"y": 1.4287288548,
				"z": -2.1072730105,
				"element": "C" 
			},
			{
				"x": -0.6321673724,
				"y": 2.6019977604,
				"z": -2.4362045877,
				"element": "C" 
			},
			{
				"x": -0.1812304059,
				"y": 3.8453710854,
				"z": -2.0098780153,
				"element": "C" 
			},
			{
				"x": 0.9651917151,
				"y": 3.9637292883,
				"z": -1.2380781353,
				"element": "C" 
			},
			{
				"x": 1.6475195621,
				"y": 2.7890035292,
				"z": -0.9058114305,
				"element": "C" 
			},
			{
				"x": -1.117794333,
				"y": 4.8719486716,
				"z": -2.5345702394,
				"element": "C" 
			},
			{
				"x": -1.1137526955,
				"y": 6.0637114474,
				"z": -2.4143438645,
				"element": "O" 
			},
			{
				"x": -2.1013833655,
				"y": 4.1927473346,
				"z": -3.2628378517,
				"element": "O" 
			},
			{
				"x": -1.8625880036,
				"y": 2.8150433187,
				"z": -3.240071796,
				"element": "C" 
			},
			{
				"x": -2.5742504652,
				"y": 2.0276072096,
				"z": -3.7959847843,
				"element": "O" 
			},
			{
				"x": 0.9779482248,
				"y": -0.9100852119,
				"z": -0.5774097748,
				"element": "C" 
			},
			{
				"x": 1.107883626,
				"y": -2.2390759416,
				"z": -1.0270048707,
				"element": "C" 
			},
			{
				"x": 0.2421362264,
				"y": -3.2500872288,
				"z": -0.5976844696,
				"element": "C" 
			},
			{
				"x": -0.7497858009,
				"y": -2.9056639419,
				"z": 0.3086530323,
				"element": "C" 
			},
			{
				"x": -1.8076102974,
				"y": -3.7212734762,
				"z": 0.9583557334,
				"element": "C" 
			},
			{
				"x": -2.0671961377,
				"y": -4.8859402948,
				"z": 0.8537916486,
				"element": "O" 
			},
			{
				"x": -2.5300431754,
				"y": -2.8617029328,
				"z": 1.794035889,
				"element": "O" 
			},
			{
				"x": -2.0137991997,
				"y": -1.5639229329,
				"z": 1.7242710523,
				"element": "C" 
			},
			{
				"x": -2.4711660362,
				"y": -0.652904048,
				"z": 2.3538900853,
				"element": "O" 
			},
			{
				"x": -0.8751529749,
				"y": -1.6014200429,
				"z": 0.7715879081,
				"element": "C" 
			},
			{
				"x": -0.0300271733,
				"y": -0.5874425981,
				"z": 0.3483098249,
				"element": "C" 
			},
			{
				"x": 2.7580385587,
				"y": -0.1363804023,
				"z": -2.2911370649,
				"element": "C" 
			},
			{
				"x": 3.4479435312,
				"y": 0.9257779936,
				"z": -2.7306784154,
				"element": "F" 
			},
			{
				"x": 1.9250695496,
				"y": -0.5205039101,
				"z": -3.2788972693,
				"element": "F" 
			},
			{
				"x": 3.641388734,
				"y": -1.1364882388,
				"z": -2.0936735022,
				"element": "F" 
			},
			{
				"x": -0.3470474892,
				"y": 0.4740697491,
				"z": -2.4552199445,
				"element": "H" 
			},
			{
				"x": 1.3252961338,
				"y": 4.9319014732,
				"z": -0.9071529103,
				"element": "H" 
			},
			{
				"x": 2.5511259216,
				"y": 2.8735783181,
				"z": -0.3183890563,
				"element": "H" 
			},
			{
				"x": 1.893973446,
				"y": -2.502290479,
				"z": -1.7209116401,
				"element": "H" 
			},
			{
				"x": 0.3485817803,
				"y": -4.2675212866,
				"z": -0.958305043,
				"element": "H" 
			},
			{
				"x": -0.1524652602,
				"y": 0.419839085,
				"z": 0.7278719593,
				"element": "H" 
			}
		],
		 "valence_orbital": [ 
			{
				"type": "occ",
				"energy": -0.31219,
				"method": "rhf"
			},
			{
				"type": "occ",
				"energy": -0.31073,
				"method": "rhf"
			},
			{
				"type": "occ",
				"energy": -0.30284,
				"method": "rhf"
			},
			{
				"type": "occ",
				"energy": -0.30268,
				"method": "rhf"
			},
			{
				"type": "occ",
				"energy": -0.30257,
				"method": "rhf"
			},
			{
				"type": "unocc",
				"energy": -0.11448,
				"method": "rhf"
			},
			{
				"type": "unocc",
				"energy": -0.10955,
				"method": "rhf"
			},
			{
				"type": "unocc",
				"energy": -0.08449,
				"method": "rhf"
			},
			{
				"type": "unocc",
				"energy": -0.07609,
				"method": "rhf"
			},
			{
				"type": "unocc",
				"energy": -0.00854,
				"method": "rhf"
			}
		],
		"cosmo_sigma_profile": { 
			"-0.025": 0.0,
			"-0.024": 0.0,
			"-0.023": 0.0,
			"-0.022": 0.0,
			"-0.021": 0.0,
			"-0.02": 0.0,
			"-0.019": 0.0,
			"-0.018": 0.0,
			"-0.017": 0.0,
			"-0.016": 0.0,
			"-0.015": 0.0,
			"-0.014": 0.0,
			"-0.013": 0.0,
			"-0.012": 0.0,
			"-0.011": 0.0,
			"-0.01": 1.30070799036,
			"-0.009": 10.2480724537,
			"-0.008": 13.2509078461,
			"-0.007": 14.443436361,
			"-0.006": 15.7429311063,
			"-0.005": 16.6428006814,
			"-0.004": 20.3938131152,
			"-0.003": 28.2705808827,
			"-0.002": 29.7925248639,
			"-0.001": 31.683100742,
			"0.0": 30.3438493536,
			"0.001": 44.8797971493,
			"0.002": 21.7204832192,
			"0.003": 5.51984382258,
			"0.004": 6.31584960653,
			"0.005": 9.27087123559,
			"0.006": 12.9190236252,
			"0.007": 13.0301158904,
			"0.008": 12.4449428958,
			"0.009": 20.5757622328,
			"0.01": 11.061569377,
			"0.011": 0.516781434296,
			"0.012": 0.0,
			"0.013": 0.0,
			"0.014": 0.0,
			"0.015": 0.0,
			"0.016": 0.0,
			"0.017": 0.0,
			"0.018": 0.0,
			"0.019": 0.0,
			"0.02": 0.0,
			"0.021": 0.0,
			"0.022": 0.0,
			"0.023": 0.0,
			"0.024": 0.0,
			"0.025": 0.0
		}
	}
}
