{
	 "smiles": "OC(=O)C1=CC=CC(=C1)C1=CC=CC=C1", 
	 "Tm": 440.15, 
	 "num_atms": 25, 
	 "gaussian": { 
		 "optdone": 1, 
		 "sigma_profile": "yes", 
		 "theory": "DFT", 
		 "functional": "B3LYP", 
		 "basiset": "6-31G**", 
		 "properties": { 
			 "R2extent": 3947.0315, 
			 "electric_dipole_moment_norm": 5.12613403356, 
			 "electric_quadrupole_moment_norm": 19.8597631673, 
			 "total_energy": -651.874587912, 
			 "HOMO_LUMO_gap": 0.18686, 
			 "cosmo_polarized_energy": -14.52, 
			 "cosmo_cavitation_energy": 29.61, 
			 "cosmo_dispersion_energy": -21.61, 
			 "cosmo_repulsion_energy": 1.67, 
			 "cosmo_total_nonelectrostatic_energy": 9.67, 
			 "SMD_solvation_energy": 5.99 
		},
		"coords": [
			{
				"x": -1.8216901163,
				"y": 3.1567775888,
				"z": -1.2888693662,
				"element": "O" 
			},
			{
				"x": -1.5502263978,
				"y": 3.124524117,
				"z": 0.044039657,
				"element": "C" 
			},
			{
				"x": -1.8278202751,
				"y": 4.0729052173,
				"z": 0.7396026836,
				"element": "O" 
			},
			{
				"x": -0.9068702062,
				"y": 1.8761816853,
				"z": 0.5720685046,
				"element": "C" 
			},
			{
				"x": -1.0237602448,
				"y": 1.6148219056,
				"z": 1.9433852813,
				"element": "C" 
			},
			{
				"x": -0.4503368694,
				"y": 0.4639887225,
				"z": 2.4766766964,
				"element": "C" 
			},
			{
				"x": 0.2571289297,
				"y": -0.4162185537,
				"z": 1.6570766218,
				"element": "C" 
			},
			{
				"x": 0.4094147221,
				"y": -0.1626179246,
				"z": 0.2837478701,
				"element": "C" 
			},
			{
				"x": -0.1865868674,
				"y": 0.9941331968,
				"z": -0.2423221194,
				"element": "C" 
			},
			{
				"x": 1.1819632387,
				"y": -1.0857972864,
				"z": -0.5869674768,
				"element": "C" 
			},
			{
				"x": 1.0886447672,
				"y": -2.4778505092,
				"z": -0.4202444597,
				"element": "C" 
			},
			{
				"x": 1.8109944868,
				"y": -3.3455512924,
				"z": -1.238116558,
				"element": "C" 
			},
			{
				"x": 2.641391064,
				"y": -2.8396383066,
				"z": -2.2400603187,
				"element": "C" 
			},
			{
				"x": 2.7444246341,
				"y": -1.4585714846,
				"z": -2.4164373818,
				"element": "C" 
			},
			{
				"x": 2.022764288,
				"y": -0.5905689548,
				"z": -1.598021787,
				"element": "C" 
			},
			{
				"x": -1.702320387,
				"y": 2.2773900459,
				"z": -1.6735758406,
				"element": "H" 
			},
			{
				"x": -1.5654742705,
				"y": 2.3206525438,
				"z": 2.5632605598,
				"element": "H" 
			},
			{
				"x": -0.5421375919,
				"y": 0.2548130664,
				"z": 3.5383158944,
				"element": "H" 
			},
			{
				"x": 0.7252393921,
				"y": -1.2952462287,
				"z": 2.0896440432,
				"element": "H" 
			},
			{
				"x": -0.0602690936,
				"y": 1.201284814,
				"z": -1.3021307847,
				"element": "H" 
			},
			{
				"x": 0.425372173,
				"y": -2.8820919669,
				"z": 0.338931899,
				"element": "H" 
			},
			{
				"x": 1.718099269,
				"y": -4.418685741,
				"z": -1.0977745984,
				"element": "H" 
			},
			{
				"x": 3.2039241497,
				"y": -3.515686852,
				"z": -2.8771667783,
				"element": "H" 
			},
			{
				"x": 3.3956867887,
				"y": -1.0545335128,
				"z": -3.1861839951,
				"element": "H" 
			},
			{
				"x": 2.1343444171,
				"y": 0.4825857103,
				"z": -1.7240782466,
				"element": "H" 
			}
		],
		 "valence_orbital": [ 
			{
				"type": "occ",
				"energy": -0.2876,
				"method": "rhf"
			},
			{
				"type": "occ",
				"energy": -0.27607,
				"method": "rhf"
			},
			{
				"type": "occ",
				"energy": -0.26855,
				"method": "rhf"
			},
			{
				"type": "occ",
				"energy": -0.26176,
				"method": "rhf"
			},
			{
				"type": "occ",
				"energy": -0.23926,
				"method": "rhf"
			},
			{
				"type": "unocc",
				"energy": -0.0524,
				"method": "rhf"
			},
			{
				"type": "unocc",
				"energy": -0.03983,
				"method": "rhf"
			},
			{
				"type": "unocc",
				"energy": -0.01342,
				"method": "rhf"
			},
			{
				"type": "unocc",
				"energy": 0.00838,
				"method": "rhf"
			},
			{
				"type": "unocc",
				"energy": 0.04934,
				"method": "rhf"
			}
		],
		"cosmo_sigma_profile": { 
			"-0.025": 0.0,
			"-0.024": 0.0,
			"-0.023": 0.0,
			"-0.022": 0.0,
			"-0.021": 0.0,
			"-0.02": 0.0,
			"-0.019": 0.0602324008968,
			"-0.018": 1.00995688594,
			"-0.017": 0.940232718973,
			"-0.016": 0.981530941645,
			"-0.015": 0.846363876014,
			"-0.014": 0.884180861296,
			"-0.013": 0.869066676311,
			"-0.012": 1.49574517013,
			"-0.011": 0.793421760866,
			"-0.01": 0.916403898066,
			"-0.009": 1.14470677533,
			"-0.008": 1.48729737392,
			"-0.007": 3.69476093629,
			"-0.006": 15.526180022,
			"-0.005": 18.9235068432,
			"-0.004": 18.7024461316,
			"-0.003": 16.2774878233,
			"-0.002": 14.5092637885,
			"-0.001": 12.8720381395,
			"0.0": 13.6655764577,
			"0.001": 14.9375141058,
			"0.002": 19.5910762072,
			"0.003": 21.6615947595,
			"0.004": 13.1323863646,
			"0.005": 12.0751071159,
			"0.006": 5.4216125417,
			"0.007": 2.94856533972,
			"0.008": 2.58014007651,
			"0.009": 3.0946428697,
			"0.01": 5.07820875075,
			"0.011": 4.99836342818,
			"0.012": 5.11059777205,
			"0.013": 1.54098714883,
			"0.014": 0.0604787361908,
			"0.015": 0.0,
			"0.016": 0.0,
			"0.017": 0.0,
			"0.018": 0.0,
			"0.019": 0.0,
			"0.02": 0.0,
			"0.021": 0.0,
			"0.022": 0.0,
			"0.023": 0.0,
			"0.024": 0.0,
			"0.025": 0.0
		}
	}
}
