{
	 "smiles": "[O-][N+](=O)C1=CC(=C(Br)C=C1)C(F)(F)F", 
	 "Tm": 316.15, 
	 "num_atms": 17, 
	 "gaussian": { 
		 "optdone": 1, 
		 "sigma_profile": "yes", 
		 "theory": "DFT", 
		 "functional": "B3LYP", 
		 "basiset": "6-31G**", 
		 "properties": { 
			 "R2extent": 3982.8297, 
			 "electric_dipole_moment_norm": 2.93412387094, 
			 "electric_quadrupole_moment_norm": 10.8091109824, 
			 "total_energy": -3344.57387149, 
			 "HOMO_LUMO_gap": 0.17427, 
			 "cosmo_polarized_energy": -7.63, 
			 "cosmo_cavitation_energy": 26.08, 
			 "cosmo_dispersion_energy": -19.06, 
			 "cosmo_repulsion_energy": 1.43, 
			 "cosmo_total_nonelectrostatic_energy": 8.44, 
			 "SMD_solvation_energy": 6.88 
		},
		"coords": [
			{
				"x": -1.3542712735,
				"y": 2.3436630123,
				"z": 2.3227118485,
				"element": "O" 
			},
			{
				"x": -2.0371463168,
				"y": 1.4839304591,
				"z": 1.7699546248,
				"element": "N" 
			},
			{
				"x": -3.2561453707,
				"y": 1.3674370041,
				"z": 1.8819996633,
				"element": "O" 
			},
			{
				"x": -1.3429007002,
				"y": 0.5162104953,
				"z": 0.9047787074,
				"element": "C" 
			},
			{
				"x": 0.0354462362,
				"y": 0.6181114862,
				"z": 0.75474556,
				"element": "C" 
			},
			{
				"x": 0.7095409958,
				"y": -0.2900729236,
				"z": -0.0609374946,
				"element": "C" 
			},
			{
				"x": -0.0286331311,
				"y": -1.2921503271,
				"z": -0.7149409808,
				"element": "C" 
			},
			{
				"x": 0.796951345,
				"y": -2.5752054762,
				"z": -1.8464617795,
				"element": "Br" 
			},
			{
				"x": -1.4136832254,
				"y": -1.3790930115,
				"z": -0.5521508808,
				"element": "C" 
			},
			{
				"x": -2.0823538723,
				"y": -0.4715745139,
				"z": 0.2622467812,
				"element": "C" 
			},
			{
				"x": 2.2121884136,
				"y": -0.1569126848,
				"z": -0.2077537361,
				"element": "C" 
			},
			{
				"x": 2.6806015266,
				"y": 0.8786272569,
				"z": 0.5190334031,
				"element": "F" 
			},
			{
				"x": 2.8515147077,
				"y": -1.2645449871,
				"z": 0.2143413415,
				"element": "F" 
			},
			{
				"x": 2.5676234765,
				"y": 0.0591370183,
				"z": -1.4886760292,
				"element": "F" 
			},
			{
				"x": 0.5720387059,
				"y": 1.401332181,
				"z": 1.2724796831,
				"element": "H" 
			},
			{
				"x": -1.9617518732,
				"y": -2.1596508084,
				"z": -1.0659389566,
				"element": "H" 
			},
			{
				"x": -3.1548196442,
				"y": -0.5188441807,
				"z": 0.4038682448,
				"element": "H" 
			}
		],
		 "valence_orbital": [ 
			{
				"type": "occ",
				"energy": -0.32319,
				"method": "rhf"
			},
			{
				"type": "occ",
				"energy": -0.31429,
				"method": "rhf"
			},
			{
				"type": "occ",
				"energy": -0.30735,
				"method": "rhf"
			},
			{
				"type": "occ",
				"energy": -0.30623,
				"method": "rhf"
			},
			{
				"type": "occ",
				"energy": -0.28268,
				"method": "rhf"
			},
			{
				"type": "unocc",
				"energy": -0.10841,
				"method": "rhf"
			},
			{
				"type": "unocc",
				"energy": -0.06092,
				"method": "rhf"
			},
			{
				"type": "unocc",
				"energy": -0.0282,
				"method": "rhf"
			},
			{
				"type": "unocc",
				"energy": -0.02186,
				"method": "rhf"
			},
			{
				"type": "unocc",
				"energy": 0.08342,
				"method": "rhf"
			}
		],
		"cosmo_sigma_profile": { 
			"-0.025": 0.0,
			"-0.024": 0.0,
			"-0.023": 0.0,
			"-0.022": 0.0,
			"-0.021": 0.0,
			"-0.02": 0.0,
			"-0.019": 0.0,
			"-0.018": 0.0,
			"-0.017": 0.0,
			"-0.016": 0.0,
			"-0.015": 0.0,
			"-0.014": 0.0,
			"-0.013": 0.0,
			"-0.012": 0.0,
			"-0.011": 0.0,
			"-0.01": 0.10135052987,
			"-0.009": 2.95948853192,
			"-0.008": 4.43680450736,
			"-0.007": 5.64194705168,
			"-0.006": 7.17848346522,
			"-0.005": 11.0173911619,
			"-0.004": 10.8895341723,
			"-0.003": 16.68407988,
			"-0.002": 23.4472223872,
			"-0.001": 17.0027011364,
			"0.0": 13.2135596226,
			"0.001": 15.2350584146,
			"0.002": 32.4773952268,
			"0.003": 21.7814442346,
			"0.004": 4.51526629139,
			"0.005": 3.75738817564,
			"0.006": 4.88615387927,
			"0.007": 9.13871503123,
			"0.008": 4.99172838885,
			"0.009": 3.6915174166,
			"0.01": 0.79863479052,
			"0.011": 0.0,
			"0.012": 0.0,
			"0.013": 0.0,
			"0.014": 0.0,
			"0.015": 0.0,
			"0.016": 0.0,
			"0.017": 0.0,
			"0.018": 0.0,
			"0.019": 0.0,
			"0.02": 0.0,
			"0.021": 0.0,
			"0.022": 0.0,
			"0.023": 0.0,
			"0.024": 0.0,
			"0.025": 0.0
		}
	}
}
