{
	 "smiles": "CCCCCCCCCC1=CC=CC=C1", 
	 "Tm": 249.15, 
	 "num_atms": 39, 
	 "gaussian": { 
		 "optdone": 1, 
		 "sigma_profile": "yes", 
		 "theory": "DFT", 
		 "functional": "B3LYP", 
		 "basiset": "6-31G**", 
		 "properties": { 
			 "R2extent": 6537.9472, 
			 "electric_dipole_moment_norm": 0.288526099339, 
			 "electric_quadrupole_moment_norm": 3.78514924012, 
			 "total_energy": -586.08905893, 
			 "HOMO_LUMO_gap": 0.23811, 
			 "cosmo_polarized_energy": -3.35, 
			 "cosmo_cavitation_energy": 38.98, 
			 "cosmo_dispersion_energy": -26.7, 
			 "cosmo_repulsion_energy": 2.13, 
			 "cosmo_total_nonelectrostatic_energy": 14.4, 
			 "SMD_solvation_energy": 5.44 
		},
		"coords": [
			{
				"x": -2.5945137429,
				"y": 3.6435834695,
				"z": -1.7366344407,
				"element": "C" 
			},
			{
				"x": -3.1947825339,
				"y": 3.6209674513,
				"z": -0.3243122058,
				"element": "C" 
			},
			{
				"x": -2.4844235981,
				"y": 2.7003589859,
				"z": 0.6917834252,
				"element": "C" 
			},
			{
				"x": -2.9530653937,
				"y": 1.232361061,
				"z": 0.7338621968,
				"element": "C" 
			},
			{
				"x": -2.6753239103,
				"y": 0.357168791,
				"z": -0.5027102854,
				"element": "C" 
			},
			{
				"x": -1.1961906484,
				"y": 0.1879831973,
				"z": -0.8941959557,
				"element": "C" 
			},
			{
				"x": -0.3339260058,
				"y": -0.5066025464,
				"z": 0.1707300025,
				"element": "C" 
			},
			{
				"x": 1.1342748379,
				"y": -0.7130724323,
				"z": -0.2379027324,
				"element": "C" 
			},
			{
				"x": 1.373547795,
				"y": -1.7351171636,
				"z": -1.3741510968,
				"element": "C" 
			},
			{
				"x": 0.9880746137,
				"y": -3.1559631123,
				"z": -1.0153109292,
				"element": "C" 
			},
			{
				"x": 1.795035923,
				"y": -3.9172644552,
				"z": -0.1559833101,
				"element": "C" 
			},
			{
				"x": 1.4430181145,
				"y": -5.21984213,
				"z": 0.1963426606,
				"element": "C" 
			},
			{
				"x": 0.2713551493,
				"y": -5.7904470743,
				"z": -0.3069988242,
				"element": "C" 
			},
			{
				"x": -0.5399664074,
				"y": -5.0476094731,
				"z": -1.1649751649,
				"element": "C" 
			},
			{
				"x": -0.1819744949,
				"y": -3.743463315,
				"z": -1.5145340211,
				"element": "C" 
			},
			{
				"x": -2.6429298756,
				"y": 2.6678318606,
				"z": -2.2279120264,
				"element": "H" 
			},
			{
				"x": -3.1243917798,
				"y": 4.3592135861,
				"z": -2.3748614914,
				"element": "H" 
			},
			{
				"x": -1.5411484212,
				"y": 3.9459705036,
				"z": -1.7078539125,
				"element": "H" 
			},
			{
				"x": -3.1732463099,
				"y": 4.6466731177,
				"z": 0.0656345654,
				"element": "H" 
			},
			{
				"x": -4.2576139177,
				"y": 3.3469935631,
				"z": -0.3784087757,
				"element": "H" 
			},
			{
				"x": -1.3989273725,
				"y": 2.7487083647,
				"z": 0.5290325184,
				"element": "H" 
			},
			{
				"x": -2.6471876228,
				"y": 3.1120917274,
				"z": 1.6961026934,
				"element": "H" 
			},
			{
				"x": -2.5011226549,
				"y": 0.7566821973,
				"z": 1.6138032363,
				"element": "H" 
			},
			{
				"x": -4.0359240638,
				"y": 1.2237945778,
				"z": 0.920458392,
				"element": "H" 
			},
			{
				"x": -3.2272450635,
				"y": 0.7545170173,
				"z": -1.3632381217,
				"element": "H" 
			},
			{
				"x": -3.1011475005,
				"y": -0.6382414866,
				"z": -0.3143147995,
				"element": "H" 
			},
			{
				"x": -1.159404178,
				"y": -0.3878605128,
				"z": -1.8278651538,
				"element": "H" 
			},
			{
				"x": -0.7563218178,
				"y": 1.1660109919,
				"z": -1.1315988506,
				"element": "H" 
			},
			{
				"x": -0.7811555793,
				"y": -1.476257463,
				"z": 0.4272738887,
				"element": "H" 
			},
			{
				"x": -0.3482599668,
				"y": 0.0877030319,
				"z": 1.0926430416,
				"element": "H" 
			},
			{
				"x": 1.563208808,
				"y": 0.251166345,
				"z": -0.5433891851,
				"element": "H" 
			},
			{
				"x": 1.7051262742,
				"y": -1.0363802178,
				"z": 0.6418598769,
				"element": "H" 
			},
			{
				"x": 2.438674185,
				"y": -1.7070375637,
				"z": -1.6366934732,
				"element": "H" 
			},
			{
				"x": 0.8301464805,
				"y": -1.4254270901,
				"z": -2.2738997459,
				"element": "H" 
			},
			{
				"x": 2.7131577257,
				"y": -3.484518077,
				"z": 0.2354353731,
				"element": "H" 
			},
			{
				"x": 2.0856374903,
				"y": -5.7922886382,
				"z": 0.8598106858,
				"element": "H" 
			},
			{
				"x": -0.0030531979,
				"y": -6.805909763,
				"z": -0.0358291145,
				"element": "H" 
			},
			{
				"x": -1.4511817261,
				"y": -5.4827574411,
				"z": -1.5663612781,
				"element": "H" 
			},
			{
				"x": -0.8167296136,
				"y": -3.174619885,
				"z": -2.189837662,
				"element": "H" 
			}
		],
		 "valence_orbital": [ 
			{
				"type": "occ",
				"energy": -0.30375,
				"method": "rhf"
			},
			{
				"type": "occ",
				"energy": -0.30147,
				"method": "rhf"
			},
			{
				"type": "occ",
				"energy": -0.2952,
				"method": "rhf"
			},
			{
				"type": "occ",
				"energy": -0.24425,
				"method": "rhf"
			},
			{
				"type": "occ",
				"energy": -0.23563,
				"method": "rhf"
			},
			{
				"type": "unocc",
				"energy": 0.00248,
				"method": "rhf"
			},
			{
				"type": "unocc",
				"energy": 0.00545,
				"method": "rhf"
			},
			{
				"type": "unocc",
				"energy": 0.07499,
				"method": "rhf"
			},
			{
				"type": "unocc",
				"energy": 0.09297,
				"method": "rhf"
			},
			{
				"type": "unocc",
				"energy": 0.10133,
				"method": "rhf"
			}
		],
		"cosmo_sigma_profile": { 
			"-0.025": 0.0,
			"-0.024": 0.0,
			"-0.023": 0.0,
			"-0.022": 0.0,
			"-0.021": 0.0,
			"-0.02": 0.0,
			"-0.019": 0.0,
			"-0.018": 0.0,
			"-0.017": 0.0,
			"-0.016": 0.0,
			"-0.015": 0.0,
			"-0.014": 0.0,
			"-0.013": 0.0,
			"-0.012": 0.0,
			"-0.011": 0.0,
			"-0.01": 0.0,
			"-0.009": 0.0,
			"-0.008": 0.0,
			"-0.007": 0.0,
			"-0.006": 0.799406105226,
			"-0.005": 7.78366290348,
			"-0.004": 12.218206804,
			"-0.003": 20.8528317585,
			"-0.002": 35.0183495118,
			"-0.001": 52.9874927919,
			"0.0": 59.1381673887,
			"0.001": 51.2456968939,
			"0.002": 25.5770815271,
			"0.003": 7.93837937232,
			"0.004": 8.53924384029,
			"0.005": 7.47012035961,
			"0.006": 8.27524978605,
			"0.007": 4.33152505643,
			"0.008": 0.0100373516211,
			"0.009": 0.0,
			"0.01": 0.0,
			"0.011": 0.0,
			"0.012": 0.0,
			"0.013": 0.0,
			"0.014": 0.0,
			"0.015": 0.0,
			"0.016": 0.0,
			"0.017": 0.0,
			"0.018": 0.0,
			"0.019": 0.0,
			"0.02": 0.0,
			"0.021": 0.0,
			"0.022": 0.0,
			"0.023": 0.0,
			"0.024": 0.0,
			"0.025": 0.0
		}
	}
}
