{
	 "smiles": "NC(=NO)C(N)=NO", 
	 "Tm": 475.15, 
	 "num_atms": 14, 
	 "gaussian": { 
		 "optdone": 1, 
		 "sigma_profile": "yes", 
		 "theory": "DFT", 
		 "functional": "B3LYP", 
		 "basiset": "6-31G**", 
		 "properties": { 
			 "R2extent": 1064.368, 
			 "electric_dipole_moment_norm": 0.835355193915, 
			 "electric_quadrupole_moment_norm": 11.5818872452, 
			 "total_energy": -449.161504126, 
			 "HOMO_LUMO_gap": 0.20524, 
			 "cosmo_polarized_energy": -14.42, 
			 "cosmo_cavitation_energy": 18.37, 
			 "cosmo_dispersion_energy": -14.12, 
			 "cosmo_repulsion_energy": 1.23, 
			 "cosmo_total_nonelectrostatic_energy": 5.49, 
			 "SMD_solvation_energy": 2.95 
		},
		"coords": [
			{
				"x": 1.3980907555,
				"y": 0.3656283447,
				"z": -2.2032417885,
				"element": "N" 
			},
			{
				"x": 0.3422924422,
				"y": 0.5530600076,
				"z": -1.3281706857,
				"element": "C" 
			},
			{
				"x": -0.2650340274,
				"y": 1.6907410244,
				"z": -1.3375267239,
				"element": "N" 
			},
			{
				"x": -1.4083796814,
				"y": 1.7033864539,
				"z": -0.4865720539,
				"element": "O" 
			},
			{
				"x": -0.0491085021,
				"y": -0.6486508776,
				"z": -0.5078405649,
				"element": "C" 
			},
			{
				"x": -1.3738387431,
				"y": -1.037291378,
				"z": -0.6050822443,
				"element": "N" 
			},
			{
				"x": 0.7507322182,
				"y": -1.3740453775,
				"z": 0.1973861351,
				"element": "N" 
			},
			{
				"x": 2.1042355503,
				"y": -0.9369137563,
				"z": 0.1057471927,
				"element": "O" 
			},
			{
				"x": 2.147824142,
				"y": -0.1842806884,
				"z": -1.799417105,
				"element": "H" 
			},
			{
				"x": 1.7087472348,
				"y": 1.2293008956,
				"z": -2.6322533636,
				"element": "H" 
			},
			{
				"x": -1.7540525205,
				"y": 2.5901242835,
				"z": -0.6459851088,
				"element": "H" 
			},
			{
				"x": -1.6190963871,
				"y": -1.7613206744,
				"z": 0.0598823195,
				"element": "H" 
			},
			{
				"x": -2.0130682699,
				"y": -0.2505143304,
				"z": -0.6086094688,
				"element": "H" 
			},
			{
				"x": 2.5545557884,
				"y": -1.5990239271,
				"z": 0.6442834601,
				"element": "H" 
			}
		],
		 "valence_orbital": [ 
			{
				"type": "occ",
				"energy": -0.31737,
				"method": "rhf"
			},
			{
				"type": "occ",
				"energy": -0.29475,
				"method": "rhf"
			},
			{
				"type": "occ",
				"energy": -0.26431,
				"method": "rhf"
			},
			{
				"type": "occ",
				"energy": -0.21673,
				"method": "rhf"
			},
			{
				"type": "occ",
				"energy": -0.21617,
				"method": "rhf"
			},
			{
				"type": "unocc",
				"energy": -0.01093,
				"method": "rhf"
			},
			{
				"type": "unocc",
				"energy": 0.04959,
				"method": "rhf"
			},
			{
				"type": "unocc",
				"energy": 0.07071,
				"method": "rhf"
			},
			{
				"type": "unocc",
				"energy": 0.08097,
				"method": "rhf"
			},
			{
				"type": "unocc",
				"energy": 0.1106,
				"method": "rhf"
			}
		],
		"cosmo_sigma_profile": { 
			"-0.025": 0.0,
			"-0.024": 0.0,
			"-0.023": 0.0,
			"-0.022": 0.0,
			"-0.021": 0.0,
			"-0.02": 0.0,
			"-0.019": 0.0,
			"-0.018": 0.238226893275,
			"-0.017": 1.68368458603,
			"-0.016": 2.19822792044,
			"-0.015": 1.59625797471,
			"-0.014": 1.71065771224,
			"-0.013": 2.80189065324,
			"-0.012": 3.67110497312,
			"-0.011": 2.74602422053,
			"-0.01": 3.62667088317,
			"-0.009": 4.90810555059,
			"-0.008": 5.39399464149,
			"-0.007": 4.62523751682,
			"-0.006": 3.97602747828,
			"-0.005": 3.73199052975,
			"-0.004": 3.11476356944,
			"-0.003": 5.2990263645,
			"-0.002": 4.51298402916,
			"-0.001": 4.96740816917,
			"0.0": 5.70726754205,
			"0.001": 5.51689068445,
			"0.002": 7.70084921757,
			"0.003": 8.84375128519,
			"0.004": 8.40314949322,
			"0.005": 7.8742051432,
			"0.006": 7.24976047646,
			"0.007": 7.14969680876,
			"0.008": 5.43067191171,
			"0.009": 6.32789879218,
			"0.01": 5.03466512422,
			"0.011": 3.3378002808,
			"0.012": 2.51373596677,
			"0.013": 2.33246506523,
			"0.014": 0.105396802198,
			"0.015": 0.0,
			"0.016": 0.0,
			"0.017": 0.0,
			"0.018": 0.0,
			"0.019": 0.0,
			"0.02": 0.0,
			"0.021": 0.0,
			"0.022": 0.0,
			"0.023": 0.0,
			"0.024": 0.0,
			"0.025": 0.0
		}
	}
}
