{
	 "smiles": "FC(F)(F)C1=C(OC2=NC=C(C=C2)C#N)C=CC=C1", 
	 "Tm": 354.15, 
	 "num_atms": 26, 
	 "gaussian": { 
		 "optdone": 1, 
		 "sigma_profile": "yes", 
		 "theory": "DFT", 
		 "functional": "B3LYP", 
		 "basiset": "6-31G**", 
		 "properties": { 
			 "R2extent": 5843.6095, 
			 "electric_dipole_moment_norm": 4.54801546501, 
			 "electric_quadrupole_moment_norm": 26.382972335, 
			 "total_energy": -983.828777967, 
			 "HOMO_LUMO_gap": 0.2014, 
			 "cosmo_polarized_energy": -12.19, 
			 "cosmo_cavitation_energy": 34.1, 
			 "cosmo_dispersion_energy": -23.0, 
			 "cosmo_repulsion_energy": 1.72, 
			 "cosmo_total_nonelectrostatic_energy": 12.82, 
			 "SMD_solvation_energy": 7.6 
		},
		"coords": [
			{
				"x": -0.6367038715,
				"y": -0.3418917889,
				"z": -2.6131058314,
				"element": "F" 
			},
			{
				"x": 0.211188501,
				"y": 0.708767802,
				"z": -2.5270316839,
				"element": "C" 
			},
			{
				"x": 0.044609317,
				"y": 1.4465666373,
				"z": -3.6460540003,
				"element": "F" 
			},
			{
				"x": 1.4645598353,
				"y": 0.2084305153,
				"z": -2.561979489,
				"element": "F" 
			},
			{
				"x": -0.0324790838,
				"y": 1.5254473439,
				"z": -1.2838921538,
				"element": "C" 
			},
			{
				"x": 0.004976751,
				"y": 0.9195954425,
				"z": -0.0232295457,
				"element": "C" 
			},
			{
				"x": 0.3479091376,
				"y": -0.4275460927,
				"z": 0.0611552382,
				"element": "O" 
			},
			{
				"x": -0.6128327297,
				"y": -1.3591846044,
				"z": 0.3053516454,
				"element": "C" 
			},
			{
				"x": -1.8698805782,
				"y": -0.97345862,
				"z": 0.4749655539,
				"element": "N" 
			},
			{
				"x": -2.7815861025,
				"y": -1.9194598218,
				"z": 0.7136670164,
				"element": "C" 
			},
			{
				"x": -2.4713592921,
				"y": -3.28358245,
				"z": 0.7946871863,
				"element": "C" 
			},
			{
				"x": -1.125980172,
				"y": -3.6668986062,
				"z": 0.6121383769,
				"element": "C" 
			},
			{
				"x": -0.1769272263,
				"y": -2.6941523326,
				"z": 0.3637371615,
				"element": "C" 
			},
			{
				"x": -3.4931280588,
				"y": -4.2487080824,
				"z": 1.056835544,
				"element": "C" 
			},
			{
				"x": -4.3258371546,
				"y": -5.032284133,
				"z": 1.2723600548,
				"element": "N" 
			},
			{
				"x": -0.1966314675,
				"y": 1.661336084,
				"z": 1.1356949357,
				"element": "C" 
			},
			{
				"x": -0.4435160919,
				"y": 3.0304566296,
				"z": 1.0383183636,
				"element": "C" 
			},
			{
				"x": -0.4843376221,
				"y": 3.6498485601,
				"z": -0.2116724805,
				"element": "C" 
			},
			{
				"x": -0.2764226222,
				"y": 2.8987051462,
				"z": -1.3675548687,
				"element": "C" 
			},
			{
				"x": -3.8069749681,
				"y": -1.5837890117,
				"z": 0.8470370741,
				"element": "H" 
			},
			{
				"x": -0.8475394171,
				"y": -4.713972988,
				"z": 0.6662174924,
				"element": "H" 
			},
			{
				"x": 0.8695882187,
				"y": -2.9294186101,
				"z": 0.2115867165,
				"element": "H" 
			},
			{
				"x": -0.1562084495,
				"y": 1.162353035,
				"z": 2.0975299195,
				"element": "H" 
			},
			{
				"x": -0.6019938458,
				"y": 3.6116239554,
				"z": 1.9415625037,
				"element": "H" 
			},
			{
				"x": -0.6740647179,
				"y": 4.7156336226,
				"z": -0.2877977387,
				"element": "H" 
			},
			{
				"x": -0.303628289,
				"y": 3.3698823678,
				"z": -2.3430269908,
				"element": "H" 
			}
		],
		 "valence_orbital": [ 
			{
				"type": "occ",
				"energy": -0.31292,
				"method": "rhf"
			},
			{
				"type": "occ",
				"energy": -0.29543,
				"method": "rhf"
			},
			{
				"type": "occ",
				"energy": -0.27914,
				"method": "rhf"
			},
			{
				"type": "occ",
				"energy": -0.26919,
				"method": "rhf"
			},
			{
				"type": "occ",
				"energy": -0.25709,
				"method": "rhf"
			},
			{
				"type": "unocc",
				"energy": -0.05569,
				"method": "rhf"
			},
			{
				"type": "unocc",
				"energy": -0.05004,
				"method": "rhf"
			},
			{
				"type": "unocc",
				"energy": -0.03522,
				"method": "rhf"
			},
			{
				"type": "unocc",
				"energy": -0.02366,
				"method": "rhf"
			},
			{
				"type": "unocc",
				"energy": 0.02786,
				"method": "rhf"
			}
		],
		"cosmo_sigma_profile": { 
			"-0.025": 0.0,
			"-0.024": 0.0,
			"-0.023": 0.0,
			"-0.022": 0.0,
			"-0.021": 0.0,
			"-0.02": 0.0,
			"-0.019": 0.0,
			"-0.018": 0.0,
			"-0.017": 0.0,
			"-0.016": 0.0,
			"-0.015": 0.0,
			"-0.014": 0.0,
			"-0.013": 0.0,
			"-0.012": 0.0,
			"-0.011": 0.0,
			"-0.01": 0.422839511972,
			"-0.009": 4.56695510992,
			"-0.008": 8.36169438378,
			"-0.007": 13.4288132429,
			"-0.006": 13.7918774876,
			"-0.005": 14.3182432401,
			"-0.004": 12.4887201034,
			"-0.003": 15.7329077931,
			"-0.002": 21.3206749832,
			"-0.001": 20.9460019654,
			"0.0": 19.9921887519,
			"0.001": 21.4389636338,
			"0.002": 29.8019883814,
			"0.003": 34.3170806141,
			"0.004": 8.63031876704,
			"0.005": 6.56518046657,
			"0.006": 5.46606426943,
			"0.007": 4.9327558218,
			"0.008": 3.77269036181,
			"0.009": 5.18517930017,
			"0.01": 3.54434384196,
			"0.011": 3.8726337103,
			"0.012": 2.6740390986,
			"0.013": 1.16180830207,
			"0.014": 0.0034105887971,
			"0.015": 0.0,
			"0.016": 0.0,
			"0.017": 0.0,
			"0.018": 0.0,
			"0.019": 0.0,
			"0.02": 0.0,
			"0.021": 0.0,
			"0.022": 0.0,
			"0.023": 0.0,
			"0.024": 0.0,
			"0.025": 0.0
		}
	}
}
