{
	 "smiles": "NC1=C(Cl)N=CC=C1", 
	 "Tm": 351.15, 
	 "num_atms": 13, 
	 "gaussian": { 
		 "optdone": 1, 
		 "sigma_profile": "yes", 
		 "theory": "DFT", 
		 "functional": "B3LYP", 
		 "basiset": "6-31G**", 
		 "properties": { 
			 "R2extent": 2705.1726, 
			 "electric_dipole_moment_norm": 3.98294399283, 
			 "electric_quadrupole_moment_norm": 13.5682055752, 
			 "total_energy": -763.240154447, 
			 "HOMO_LUMO_gap": 0.19361, 
			 "cosmo_polarized_energy": -10.35, 
			 "cosmo_cavitation_energy": 18.65, 
			 "cosmo_dispersion_energy": -14.47, 
			 "cosmo_repulsion_energy": 1.2, 
			 "cosmo_total_nonelectrostatic_energy": 5.39, 
			 "SMD_solvation_energy": 1.68 
		},
		"coords": [
			{
				"x": 0.8009045681,
				"y": 1.1361003816,
				"z": 1.0544447262,
				"element": "N" 
			},
			{
				"x": 1.6243880317,
				"y": 0.0299911746,
				"z": 1.1251959131,
				"element": "C" 
			},
			{
				"x": 1.7029469651,
				"y": -0.7891172642,
				"z": 2.2750608091,
				"element": "C" 
			},
			{
				"x": 0.6312213569,
				"y": -0.4093343687,
				"z": 3.6400373789,
				"element": "Cl" 
			},
			{
				"x": 2.5012170669,
				"y": -1.8194778846,
				"z": 2.4213258415,
				"element": "N" 
			},
			{
				"x": 3.3189783013,
				"y": -2.1436005467,
				"z": 1.4097050773,
				"element": "C" 
			},
			{
				"x": 3.3381515864,
				"y": -1.4220737837,
				"z": 0.2180907462,
				"element": "C" 
			},
			{
				"x": 2.4857808405,
				"y": -0.3311321184,
				"z": 0.07643476,
				"element": "C" 
			},
			{
				"x": 0.5554390962,
				"y": 1.4526753015,
				"z": 0.1280495877,
				"element": "H" 
			},
			{
				"x": 0.0409410467,
				"y": 1.1663741283,
				"z": 1.7189200724,
				"element": "H" 
			},
			{
				"x": 3.9658101484,
				"y": -3.0022966609,
				"z": 1.5668862201,
				"element": "H" 
			},
			{
				"x": 4.0070447922,
				"y": -1.7069002507,
				"z": -0.5877301448,
				"element": "H" 
			},
			{
				"x": 2.4814761998,
				"y": 0.2541918917,
				"z": -0.8395209877,
				"element": "H" 
			}
		],
		 "valence_orbital": [ 
			{
				"type": "occ",
				"energy": -0.33441,
				"method": "rhf"
			},
			{
				"type": "occ",
				"energy": -0.31532,
				"method": "rhf"
			},
			{
				"type": "occ",
				"energy": -0.27456,
				"method": "rhf"
			},
			{
				"type": "occ",
				"energy": -0.26794,
				"method": "rhf"
			},
			{
				"type": "occ",
				"energy": -0.21962,
				"method": "rhf"
			},
			{
				"type": "unocc",
				"energy": -0.02601,
				"method": "rhf"
			},
			{
				"type": "unocc",
				"energy": -0.00315,
				"method": "rhf"
			},
			{
				"type": "unocc",
				"energy": 0.03601,
				"method": "rhf"
			},
			{
				"type": "unocc",
				"energy": 0.07632,
				"method": "rhf"
			},
			{
				"type": "unocc",
				"energy": 0.10435,
				"method": "rhf"
			}
		],
		"cosmo_sigma_profile": { 
			"-0.025": 0.0,
			"-0.024": 0.0,
			"-0.023": 0.0,
			"-0.022": 0.0,
			"-0.021": 0.0,
			"-0.02": 0.0,
			"-0.019": 0.0,
			"-0.018": 0.0,
			"-0.017": 0.0,
			"-0.016": 0.0,
			"-0.015": 0.0,
			"-0.014": 0.610091292178,
			"-0.013": 1.67218979954,
			"-0.012": 2.03511765047,
			"-0.011": 2.65194092726,
			"-0.01": 2.84926919497,
			"-0.009": 2.61523908242,
			"-0.008": 3.14153273391,
			"-0.007": 5.40678087255,
			"-0.006": 7.4500572336,
			"-0.005": 8.23421671027,
			"-0.004": 6.19159300682,
			"-0.003": 5.25925949271,
			"-0.002": 6.52480611599,
			"-0.001": 7.14784565673,
			"0.0": 9.22621165513,
			"0.001": 13.6483909248,
			"0.002": 14.9680979361,
			"0.003": 14.9307220096,
			"0.004": 8.58346210172,
			"0.005": 9.20518943004,
			"0.006": 4.19270675509,
			"0.007": 3.24837912623,
			"0.008": 2.07005801149,
			"0.009": 2.24547820166,
			"0.01": 2.04123952406,
			"0.011": 1.52527945833,
			"0.012": 1.80900992434,
			"0.013": 0.598197067071,
			"0.014": 0.96732196482,
			"0.015": 0.595025705166,
			"0.016": 0.0,
			"0.017": 0.0,
			"0.018": 0.0,
			"0.019": 0.0,
			"0.02": 0.0,
			"0.021": 0.0,
			"0.022": 0.0,
			"0.023": 0.0,
			"0.024": 0.0,
			"0.025": 0.0
		}
	}
}
