{
	 "smiles": "CCCCCCC(O)C(O)=O", 
	 "Tm": 342.65, 
	 "num_atms": 27, 
	 "gaussian": { 
		 "optdone": 1, 
		 "sigma_profile": "yes", 
		 "theory": "DFT", 
		 "functional": "B3LYP", 
		 "basiset": "6-31G**", 
		 "properties": { 
			 "R2extent": 3119.4367, 
			 "electric_dipole_moment_norm": 1.67556557914, 
			 "electric_quadrupole_moment_norm": 13.9282334113, 
			 "total_energy": -540.187464659, 
			 "HOMO_LUMO_gap": 0.25994, 
			 "cosmo_polarized_energy": -10.39, 
			 "cosmo_cavitation_energy": 29.12, 
			 "cosmo_dispersion_energy": -20.75, 
			 "cosmo_repulsion_energy": 1.73, 
			 "cosmo_total_nonelectrostatic_energy": 10.1, 
			 "SMD_solvation_energy": 5.63 
		},
		"coords": [
			{
				"x": 4.2916924191,
				"y": 1.8505190827,
				"z": -0.9990044513,
				"element": "C" 
			},
			{
				"x": 3.0450363075,
				"y": 1.0049169137,
				"z": -0.7185013064,
				"element": "C" 
			},
			{
				"x": 1.7371015104,
				"y": 1.7598332089,
				"z": -0.9954864326,
				"element": "C" 
			},
			{
				"x": 0.4575354935,
				"y": 0.9316262275,
				"z": -0.7898107764,
				"element": "C" 
			},
			{
				"x": 0.1991179486,
				"y": 0.5261995789,
				"z": 0.6702820051,
				"element": "C" 
			},
			{
				"x": -1.1537471591,
				"y": -0.1648105071,
				"z": 0.9094648648,
				"element": "C" 
			},
			{
				"x": -1.3167309567,
				"y": -1.5601298387,
				"z": 0.2929502446,
				"element": "C" 
			},
			{
				"x": -2.7028886704,
				"y": -1.8585529831,
				"z": 0.2730014044,
				"element": "O" 
			},
			{
				"x": -0.5185368245,
				"y": -2.6335343216,
				"z": 1.0366305471,
				"element": "C" 
			},
			{
				"x": -1.1079740851,
				"y": -3.8523149105,
				"z": 0.9125421456,
				"element": "O" 
			},
			{
				"x": 0.5256531898,
				"y": -2.4794729044,
				"z": 1.6282807243,
				"element": "O" 
			},
			{
				"x": 4.3083723847,
				"y": 2.7507954599,
				"z": -0.3738806219,
				"element": "H" 
			},
			{
				"x": 5.2103962912,
				"y": 1.2899037442,
				"z": -0.7973114751,
				"element": "H" 
			},
			{
				"x": 4.3232969273,
				"y": 2.1763933327,
				"z": -2.0452039569,
				"element": "H" 
			},
			{
				"x": 3.06683515,
				"y": 0.6640645256,
				"z": 0.3237424109,
				"element": "H" 
			},
			{
				"x": 3.0725059085,
				"y": 0.0959004737,
				"z": -1.3354922484,
				"element": "H" 
			},
			{
				"x": 1.7565625683,
				"y": 2.1273732136,
				"z": -2.030709559,
				"element": "H" 
			},
			{
				"x": 1.6941825388,
				"y": 2.6552405716,
				"z": -0.3583656514,
				"element": "H" 
			},
			{
				"x": -0.401445237,
				"y": 1.5125839891,
				"z": -1.1530304077,
				"element": "H" 
			},
			{
				"x": 0.5107454733,
				"y": 0.0393070517,
				"z": -1.4294695045,
				"element": "H" 
			},
			{
				"x": 1.0005040873,
				"y": -0.1192980395,
				"z": 1.040362127,
				"element": "H" 
			},
			{
				"x": 0.2216835369,
				"y": 1.4332777887,
				"z": 1.2891594526,
				"element": "H" 
			},
			{
				"x": -1.962267402,
				"y": 0.4432898542,
				"z": 0.4870056087,
				"element": "H" 
			},
			{
				"x": -1.3486141874,
				"y": -0.2421701337,
				"z": 1.9847973178,
				"element": "H" 
			},
			{
				"x": -0.907466802,
				"y": -1.5580304781,
				"z": -0.7335075179,
				"element": "H" 
			},
			{
				"x": -2.8017957165,
				"y": -2.8005110519,
				"z": 0.080065948,
				"element": "H" 
			},
			{
				"x": -0.5376546945,
				"y": -4.4854998478,
				"z": 1.3796891086,
				"element": "H" 
			}
		],
		 "valence_orbital": [ 
			{
				"type": "occ",
				"energy": -0.31952,
				"method": "rhf"
			},
			{
				"type": "occ",
				"energy": -0.31033,
				"method": "rhf"
			},
			{
				"type": "occ",
				"energy": -0.30779,
				"method": "rhf"
			},
			{
				"type": "occ",
				"energy": -0.29222,
				"method": "rhf"
			},
			{
				"type": "occ",
				"energy": -0.26264,
				"method": "rhf"
			},
			{
				"type": "unocc",
				"energy": -0.0027,
				"method": "rhf"
			},
			{
				"type": "unocc",
				"energy": 0.06026,
				"method": "rhf"
			},
			{
				"type": "unocc",
				"energy": 0.09192,
				"method": "rhf"
			},
			{
				"type": "unocc",
				"energy": 0.1052,
				"method": "rhf"
			},
			{
				"type": "unocc",
				"energy": 0.10852,
				"method": "rhf"
			}
		],
		"cosmo_sigma_profile": { 
			"-0.025": 0.0,
			"-0.024": 0.0,
			"-0.023": 0.0,
			"-0.022": 0.0,
			"-0.021": 0.0,
			"-0.02": 0.0,
			"-0.019": 0.251615802414,
			"-0.018": 1.02968013227,
			"-0.017": 0.840713534643,
			"-0.016": 1.10580355993,
			"-0.015": 0.418310807857,
			"-0.014": 0.394150078454,
			"-0.013": 1.06615235317,
			"-0.012": 1.59556552671,
			"-0.011": 2.60267252194,
			"-0.01": 0.944617591369,
			"-0.009": 0.670263074543,
			"-0.008": 1.36060843401,
			"-0.007": 3.34189090976,
			"-0.006": 5.13622401741,
			"-0.005": 3.86792891065,
			"-0.004": 5.62419125601,
			"-0.003": 10.7250017115,
			"-0.002": 27.9902663271,
			"-0.001": 35.2084541256,
			"0.0": 35.1637097456,
			"0.001": 29.8180232559,
			"0.002": 15.2249608655,
			"0.003": 4.61249692747,
			"0.004": 4.36091938689,
			"0.005": 4.89949020306,
			"0.006": 3.06035134369,
			"0.007": 1.88355094744,
			"0.008": 3.94214078537,
			"0.009": 3.29249971208,
			"0.01": 3.08018059508,
			"0.011": 5.25424503992,
			"0.012": 3.39612697613,
			"0.013": 1.78964393639,
			"0.014": 0.716280235185,
			"0.015": 0.0,
			"0.016": 0.0,
			"0.017": 0.0,
			"0.018": 0.0,
			"0.019": 0.0,
			"0.02": 0.0,
			"0.021": 0.0,
			"0.022": 0.0,
			"0.023": 0.0,
			"0.024": 0.0,
			"0.025": 0.0
		}
	}
}
