{
	 "smiles": "NC1=NC2=C(C=CC=C2)N=C1", 
	 "Tm": 412.15, 
	 "num_atms": 18, 
	 "gaussian": { 
		 "optdone": 1, 
		 "sigma_profile": "yes", 
		 "theory": "DFT", 
		 "functional": "B3LYP", 
		 "basiset": "6-31G**", 
		 "properties": { 
			 "R2extent": 1717.6752, 
			 "electric_dipole_moment_norm": 1.98689859329, 
			 "electric_quadrupole_moment_norm": 16.9181568343, 
			 "total_energy": -473.334231228, 
			 "HOMO_LUMO_gap": 0.16073, 
			 "cosmo_polarized_energy": -11.38, 
			 "cosmo_cavitation_energy": 22.16, 
			 "cosmo_dispersion_energy": -16.98, 
			 "cosmo_repulsion_energy": 1.35, 
			 "cosmo_total_nonelectrostatic_energy": 6.54, 
			 "SMD_solvation_energy": 0.72 
		},
		"coords": [
			{
				"x": -3.1259397152,
				"y": -0.7699479664,
				"z": 0.985593404,
				"element": "N" 
			},
			{
				"x": -1.797328394,
				"y": -0.7520003396,
				"z": 0.6253190385,
				"element": "C" 
			},
			{
				"x": -1.0348742093,
				"y": 0.2254191793,
				"z": 1.0753539421,
				"element": "N" 
			},
			{
				"x": 0.2887292887,
				"y": 0.1748308499,
				"z": 0.743439682,
				"element": "C" 
			},
			{
				"x": 0.8135257392,
				"y": -0.8789722576,
				"z": -0.0649130909,
				"element": "C" 
			},
			{
				"x": 2.1889703654,
				"y": -0.8964594236,
				"z": -0.3955046342,
				"element": "C" 
			},
			{
				"x": 3.0224201187,
				"y": 0.1027616839,
				"z": 0.0623162494,
				"element": "C" 
			},
			{
				"x": 2.504734285,
				"y": 1.1490601245,
				"z": 0.8632210719,
				"element": "C" 
			},
			{
				"x": 1.1670128636,
				"y": 1.1889652826,
				"z": 1.1991683949,
				"element": "C" 
			},
			{
				"x": -0.0057621401,
				"y": -1.8767265821,
				"z": -0.5267189291,
				"element": "N" 
			},
			{
				"x": -1.2656660113,
				"y": -1.8146489244,
				"z": -0.1876222626,
				"element": "C" 
			},
			{
				"x": -3.4715283576,
				"y": 0.0945400685,
				"z": 1.3778669517,
				"element": "H" 
			},
			{
				"x": -3.7713760698,
				"y": -1.2652269392,
				"z": 0.3893609866,
				"element": "H" 
			},
			{
				"x": 2.5533658483,
				"y": -1.7127546167,
				"z": -1.0113296804,
				"element": "H" 
			},
			{
				"x": 4.0785404522,
				"y": 0.090911392,
				"z": -0.18972816,
				"element": "H" 
			},
			{
				"x": 3.1720865594,
				"y": 1.9298759939,
				"z": 1.2171825449,
				"element": "H" 
			},
			{
				"x": 0.7541590129,
				"y": 1.9837380874,
				"z": 1.8122278849,
				"element": "H" 
			},
			{
				"x": -1.9257696362,
				"y": -2.6072656125,
				"z": -0.542533394,
				"element": "H" 
			}
		],
		 "valence_orbital": [ 
			{
				"type": "occ",
				"energy": -0.30002,
				"method": "rhf"
			},
			{
				"type": "occ",
				"energy": -0.29436,
				"method": "rhf"
			},
			{
				"type": "occ",
				"energy": -0.24353,
				"method": "rhf"
			},
			{
				"type": "occ",
				"energy": -0.24001,
				"method": "rhf"
			},
			{
				"type": "occ",
				"energy": -0.21671,
				"method": "rhf"
			},
			{
				"type": "unocc",
				"energy": -0.05598,
				"method": "rhf"
			},
			{
				"type": "unocc",
				"energy": -0.00657,
				"method": "rhf"
			},
			{
				"type": "unocc",
				"energy": 0.01968,
				"method": "rhf"
			},
			{
				"type": "unocc",
				"energy": 0.07387,
				"method": "rhf"
			},
			{
				"type": "unocc",
				"energy": 0.09862,
				"method": "rhf"
			}
		],
		"cosmo_sigma_profile": { 
			"-0.025": 0.0,
			"-0.024": 0.0,
			"-0.023": 0.0,
			"-0.022": 0.0,
			"-0.021": 0.0,
			"-0.02": 0.0,
			"-0.019": 0.0,
			"-0.018": 0.0,
			"-0.017": 0.0,
			"-0.016": 0.0,
			"-0.015": 0.0,
			"-0.014": 1.20331527467,
			"-0.013": 2.94488853685,
			"-0.012": 2.63932161804,
			"-0.011": 2.53079258303,
			"-0.01": 2.69013363251,
			"-0.009": 3.23685208398,
			"-0.008": 2.58193892212,
			"-0.007": 3.25115446463,
			"-0.006": 8.15239240321,
			"-0.005": 10.048744513,
			"-0.004": 10.5038885606,
			"-0.003": 9.11430159217,
			"-0.002": 10.1046551354,
			"-0.001": 11.2810088337,
			"0.0": 10.8374598191,
			"0.001": 10.035711865,
			"0.002": 12.4686568302,
			"0.003": 16.0175636726,
			"0.004": 15.4230678911,
			"0.005": 8.83620338634,
			"0.006": 3.90043669038,
			"0.007": 3.85651200017,
			"0.008": 3.13064735371,
			"0.009": 2.70691875524,
			"0.01": 2.83610645687,
			"0.011": 1.87856437407,
			"0.012": 1.85558424344,
			"0.013": 1.49729980036,
			"0.014": 1.48118349247,
			"0.015": 0.715406947002,
			"0.016": 0.0753166251254,
			"0.017": 0.0,
			"0.018": 0.0,
			"0.019": 0.0,
			"0.02": 0.0,
			"0.021": 0.0,
			"0.022": 0.0,
			"0.023": 0.0,
			"0.024": 0.0,
			"0.025": 0.0
		}
	}
}
