{
	 "smiles": "CN1N=C(CCl)C=C1C", 
	 "Tm": 337.65, 
	 "num_atms": 18, 
	 "gaussian": { 
		 "optdone": 1, 
		 "sigma_profile": "yes", 
		 "theory": "DFT", 
		 "functional": "B3LYP", 
		 "basiset": "6-31G**", 
		 "properties": { 
			 "R2extent": 2711.7956, 
			 "electric_dipole_moment_norm": 4.54307191887, 
			 "electric_quadrupole_moment_norm": 10.9541969633, 
			 "total_energy": -803.750395578, 
			 "HOMO_LUMO_gap": 0.24136, 
			 "cosmo_polarized_energy": -9.55, 
			 "cosmo_cavitation_energy": 23.41, 
			 "cosmo_dispersion_energy": -17.14, 
			 "cosmo_repulsion_energy": 1.44, 
			 "cosmo_total_nonelectrostatic_energy": 7.7, 
			 "SMD_solvation_energy": 2.9 
		},
		"coords": [
			{
				"x": -0.6689643874,
				"y": 1.0226671667,
				"z": 0.6161108983,
				"element": "C" 
			},
			{
				"x": -0.0995939437,
				"y": 0.2366994523,
				"z": -0.4620649766,
				"element": "N" 
			},
			{
				"x": -0.8768696753,
				"y": -0.1217689798,
				"z": -1.506720347,
				"element": "N" 
			},
			{
				"x": -0.0674415241,
				"y": -0.808853975,
				"z": -2.3167817987,
				"element": "C" 
			},
			{
				"x": -0.602352449,
				"y": -1.3540532836,
				"z": -3.5909127189,
				"element": "C" 
			},
			{
				"x": -0.8277609667,
				"y": -3.180577668,
				"z": -3.5482194928,
				"element": "Cl" 
			},
			{
				"x": 1.2411621263,
				"y": -0.8915263198,
				"z": -1.7862396448,
				"element": "C" 
			},
			{
				"x": 1.1890880344,
				"y": -0.2074646122,
				"z": -0.5856019921,
				"element": "C" 
			},
			{
				"x": 2.2394593498,
				"y": 0.0616966365,
				"z": 0.4439197892,
				"element": "C" 
			},
			{
				"x": -1.7262705819,
				"y": 1.1568869882,
				"z": 0.3918485769,
				"element": "H" 
			},
			{
				"x": -0.1866983854,
				"y": 2.0032818495,
				"z": 0.6886633804,
				"element": "H" 
			},
			{
				"x": -0.5654306322,
				"y": 0.5048145169,
				"z": 1.5749667421,
				"element": "H" 
			},
			{
				"x": 0.0669940969,
				"y": -1.1768015029,
				"z": -4.4328267341,
				"element": "H" 
			},
			{
				"x": -1.5855511653,
				"y": -0.9345807611,
				"z": -3.7985983933,
				"element": "H" 
			},
			{
				"x": 2.0997406082,
				"y": -1.3914881367,
				"z": -2.2103190547,
				"element": "H" 
			},
			{
				"x": 3.1857787308,
				"y": -0.3862109276,
				"z": 0.133956045,
				"element": "H" 
			},
			{
				"x": 1.9739808075,
				"y": -0.3614136312,
				"z": 1.42019222,
				"element": "H" 
			},
			{
				"x": 2.408729957,
				"y": 1.1356931877,
				"z": 0.5876275011,
				"element": "H" 
			}
		],
		 "valence_orbital": [ 
			{
				"type": "occ",
				"energy": -0.29089,
				"method": "rhf"
			},
			{
				"type": "occ",
				"energy": -0.28487,
				"method": "rhf"
			},
			{
				"type": "occ",
				"energy": -0.28228,
				"method": "rhf"
			},
			{
				"type": "occ",
				"energy": -0.24291,
				"method": "rhf"
			},
			{
				"type": "occ",
				"energy": -0.23987,
				"method": "rhf"
			},
			{
				"type": "unocc",
				"energy": 0.00149,
				"method": "rhf"
			},
			{
				"type": "unocc",
				"energy": 0.02968,
				"method": "rhf"
			},
			{
				"type": "unocc",
				"energy": 0.07895,
				"method": "rhf"
			},
			{
				"type": "unocc",
				"energy": 0.0854,
				"method": "rhf"
			},
			{
				"type": "unocc",
				"energy": 0.11337,
				"method": "rhf"
			}
		],
		"cosmo_sigma_profile": { 
			"-0.025": 0.0,
			"-0.024": 0.0,
			"-0.023": 0.0,
			"-0.022": 0.0,
			"-0.021": 0.0,
			"-0.02": 0.0,
			"-0.019": 0.0,
			"-0.018": 0.0,
			"-0.017": 0.0,
			"-0.016": 0.0,
			"-0.015": 0.0,
			"-0.014": 0.0,
			"-0.013": 0.0,
			"-0.012": 0.0,
			"-0.011": 0.0,
			"-0.01": 0.0,
			"-0.009": 0.0,
			"-0.008": 0.860124492951,
			"-0.007": 4.5856374732,
			"-0.006": 12.994627602,
			"-0.005": 20.3256056104,
			"-0.004": 19.7834491298,
			"-0.003": 18.9981980093,
			"-0.002": 13.3328808009,
			"-0.001": 11.1718738265,
			"0.0": 8.73201319527,
			"0.001": 7.67060343182,
			"0.002": 7.98538977372,
			"0.003": 7.46473061992,
			"0.004": 9.88703151913,
			"0.005": 11.1310072371,
			"0.006": 12.0550212311,
			"0.007": 11.9424726493,
			"0.008": 1.46873081226,
			"0.009": 1.4958118149,
			"0.01": 0.865364288529,
			"0.011": 0.977447793692,
			"0.012": 1.4912441056,
			"0.013": 0.645489518207,
			"0.014": 0.625484629213,
			"0.015": 0.852798032788,
			"0.016": 0.0629908003453,
			"0.017": 0.0,
			"0.018": 0.0,
			"0.019": 0.0,
			"0.02": 0.0,
			"0.021": 0.0,
			"0.022": 0.0,
			"0.023": 0.0,
			"0.024": 0.0,
			"0.025": 0.0
		}
	}
}
