{
	 "smiles": "OC(=O)CN1C(=O)C2=C(C=C(Br)C=C2)C1=O", 
	 "Tm": 478.15, 
	 "num_atms": 22, 
	 "gaussian": { 
		 "optdone": 1, 
		 "sigma_profile": "yes", 
		 "theory": "DFT", 
		 "functional": "B3LYP", 
		 "basiset": "6-31G**", 
		 "properties": { 
			 "R2extent": 7074.8839, 
			 "electric_dipole_moment_norm": 0.954931898095, 
			 "electric_quadrupole_moment_norm": 17.0369074509, 
			 "total_energy": -3311.77256497, 
			 "HOMO_LUMO_gap": 0.1726, 
			 "cosmo_polarized_energy": -15.6, 
			 "cosmo_cavitation_energy": 31.02, 
			 "cosmo_dispersion_energy": -22.27, 
			 "cosmo_repulsion_energy": 1.74, 
			 "cosmo_total_nonelectrostatic_energy": 10.49, 
			 "SMD_solvation_energy": 6.51 
		},
		"coords": [
			{
				"x": 4.3558420322,
				"y": -0.5114171743,
				"z": -2.3963163649,
				"element": "O" 
			},
			{
				"x": 3.095785062,
				"y": -0.058868968,
				"z": -2.2272275023,
				"element": "C" 
			},
			{
				"x": 2.6278742939,
				"y": 0.8832040885,
				"z": -2.8190491675,
				"element": "O" 
			},
			{
				"x": 2.3650922905,
				"y": -0.9070833535,
				"z": -1.1904572645,
				"element": "C" 
			},
			{
				"x": 1.0171221921,
				"y": -0.4482747802,
				"z": -0.9854310424,
				"element": "N" 
			},
			{
				"x": -0.0669317486,
				"y": -0.8465129599,
				"z": -1.7896413904,
				"element": "C" 
			},
			{
				"x": -0.0189207395,
				"y": -1.6999941688,
				"z": -2.6508163034,
				"element": "O" 
			},
			{
				"x": -1.221681579,
				"y": -0.0223743589,
				"z": -1.3305291743,
				"element": "C" 
			},
			{
				"x": -0.7782351176,
				"y": 0.8339235542,
				"z": -0.320486699,
				"element": "C" 
			},
			{
				"x": -1.6285819726,
				"y": 1.7295198148,
				"z": 0.3087987777,
				"element": "C" 
			},
			{
				"x": -2.9607009993,
				"y": 1.7347950749,
				"z": -0.1212301712,
				"element": "C" 
			},
			{
				"x": -4.1900736337,
				"y": 2.9412784222,
				"z": 0.6954780068,
				"element": "Br" 
			},
			{
				"x": -3.4209059506,
				"y": 0.8829175847,
				"z": -1.1328957565,
				"element": "C" 
			},
			{
				"x": -2.5434708051,
				"y": -0.0142311356,
				"z": -1.7524397152,
				"element": "C" 
			},
			{
				"x": 0.6790138881,
				"y": 0.5870214097,
				"z": -0.098300063,
				"element": "C" 
			},
			{
				"x": 1.4429480324,
				"y": 1.1230567687,
				"z": 0.6767345262,
				"element": "O" 
			},
			{
				"x": 4.7710821526,
				"y": 0.0617788543,
				"z": -3.06256303,
				"element": "H" 
			},
			{
				"x": 2.3436197832,
				"y": -1.9451447997,
				"z": -1.5327872186,
				"element": "H" 
			},
			{
				"x": 2.9105232757,
				"y": -0.8590421062,
				"z": -0.244207533,
				"element": "H" 
			},
			{
				"x": -1.2790295761,
				"y": 2.3923539481,
				"z": 1.0915806123,
				"element": "H" 
			},
			{
				"x": -4.4619421426,
				"y": 0.9258227955,
				"z": -1.4316943721,
				"element": "H" 
			},
			{
				"x": -2.8849287378,
				"y": -0.6800285105,
				"z": -2.5382191548,
				"element": "H" 
			}
		],
		 "valence_orbital": [ 
			{
				"type": "occ",
				"energy": -0.29908,
				"method": "rhf"
			},
			{
				"type": "occ",
				"energy": -0.29164,
				"method": "rhf"
			},
			{
				"type": "occ",
				"energy": -0.28369,
				"method": "rhf"
			},
			{
				"type": "occ",
				"energy": -0.27727,
				"method": "rhf"
			},
			{
				"type": "occ",
				"energy": -0.26386,
				"method": "rhf"
			},
			{
				"type": "unocc",
				"energy": -0.09126,
				"method": "rhf"
			},
			{
				"type": "unocc",
				"energy": -0.05345,
				"method": "rhf"
			},
			{
				"type": "unocc",
				"energy": -0.00981,
				"method": "rhf"
			},
			{
				"type": "unocc",
				"energy": -0.00204,
				"method": "rhf"
			},
			{
				"type": "unocc",
				"energy": 0.01556,
				"method": "rhf"
			}
		],
		"cosmo_sigma_profile": { 
			"-0.025": 0.0,
			"-0.024": 0.0,
			"-0.023": 0.0,
			"-0.022": 0.0,
			"-0.021": 0.0,
			"-0.02": 0.0,
			"-0.019": 0.415096779863,
			"-0.018": 1.15881416902,
			"-0.017": 0.769906926534,
			"-0.016": 1.22888017082,
			"-0.015": 0.661114829812,
			"-0.014": 0.311323222793,
			"-0.013": 0.423156852548,
			"-0.012": 0.91352196423,
			"-0.011": 1.44010279223,
			"-0.01": 0.531316778867,
			"-0.009": 3.22666937182,
			"-0.008": 9.49415195501,
			"-0.007": 9.67816869518,
			"-0.006": 11.0413753942,
			"-0.005": 11.8937355057,
			"-0.004": 13.4598435231,
			"-0.003": 16.11821751,
			"-0.002": 17.8104619109,
			"-0.001": 21.5777078809,
			"0.0": 24.865122921,
			"0.001": 15.6188389539,
			"0.002": 12.614812984,
			"0.003": 15.3919089677,
			"0.004": 12.2350179234,
			"0.005": 4.21709129125,
			"0.006": 5.72340563316,
			"0.007": 5.28181280841,
			"0.008": 6.73792319226,
			"0.009": 5.95517010173,
			"0.01": 10.6473085164,
			"0.011": 10.7261081048,
			"0.012": 0.701672080437,
			"0.013": 0.0,
			"0.014": 0.0,
			"0.015": 0.0,
			"0.016": 0.0,
			"0.017": 0.0,
			"0.018": 0.0,
			"0.019": 0.0,
			"0.02": 0.0,
			"0.021": 0.0,
			"0.022": 0.0,
			"0.023": 0.0,
			"0.024": 0.0,
			"0.025": 0.0
		}
	}
}
