{
	 "smiles": "CC1=CC(CN2CCNCC2)=NO1", 
	 "Tm": 338.15, 
	 "num_atms": 28, 
	 "gaussian": { 
		 "optdone": 1, 
		 "sigma_profile": "yes", 
		 "theory": "DFT", 
		 "functional": "B3LYP", 
		 "basiset": "6-31G**", 
		 "properties": { 
			 "R2extent": 3046.349, 
			 "electric_dipole_moment_norm": 2.93377164415, 
			 "electric_quadrupole_moment_norm": 10.8003489008, 
			 "total_energy": -591.413715444, 
			 "HOMO_LUMO_gap": 0.20345, 
			 "cosmo_polarized_energy": -11.53, 
			 "cosmo_cavitation_energy": 29.63, 
			 "cosmo_dispersion_energy": -21.68, 
			 "cosmo_repulsion_energy": 1.74, 
			 "cosmo_total_nonelectrostatic_energy": 9.69, 
			 "SMD_solvation_energy": 0.09 
		},
		"coords": [
			{
				"x": -3.9866814589,
				"y": 0.6149132166,
				"z": 1.7414128669,
				"element": "C" 
			},
			{
				"x": -2.8987581808,
				"y": 0.3094178544,
				"z": 0.7704085886,
				"element": "C" 
			},
			{
				"x": -1.7834509889,
				"y": 0.9784424147,
				"z": 0.3623029416,
				"element": "C" 
			},
			{
				"x": -1.1820908106,
				"y": 0.1096421892,
				"z": -0.5990387413,
				"element": "C" 
			},
			{
				"x": 0.101387588,
				"y": 0.2870289118,
				"z": -1.3850777867,
				"element": "C" 
			},
			{
				"x": 1.3472805406,
				"y": -0.0025225247,
				"z": -0.6767037269,
				"element": "N" 
			},
			{
				"x": 1.4767127055,
				"y": -1.3970844771,
				"z": -0.2455445761,
				"element": "C" 
			},
			{
				"x": 2.8983067953,
				"y": -1.647034961,
				"z": 0.2590829959,
				"element": "C" 
			},
			{
				"x": 3.1866815114,
				"y": -0.7203759034,
				"z": 1.3547195292,
				"element": "N" 
			},
			{
				"x": 3.0895402568,
				"y": 0.6671000328,
				"z": 0.90323764,
				"element": "C" 
			},
			{
				"x": 1.6659615048,
				"y": 0.9270267857,
				"z": 0.407112608,
				"element": "C" 
			},
			{
				"x": -1.8853156409,
				"y": -0.9918746283,
				"z": -0.7538663232,
				"element": "N" 
			},
			{
				"x": -2.9779596718,
				"y": -0.8694544761,
				"z": 0.1162633277,
				"element": "O" 
			},
			{
				"x": -4.9627699396,
				"y": 0.6257099353,
				"z": 1.2450030306,
				"element": "H" 
			},
			{
				"x": -4.0277596618,
				"y": -0.140751215,
				"z": 2.5330021757,
				"element": "H" 
			},
			{
				"x": -3.8190602155,
				"y": 1.5909100692,
				"z": 2.2011482636,
				"element": "H" 
			},
			{
				"x": -1.4412122875,
				"y": 1.9488616552,
				"z": 0.6877601847,
				"element": "H" 
			},
			{
				"x": 0.0470584289,
				"y": -0.3704635845,
				"z": -2.2590640666,
				"element": "H" 
			},
			{
				"x": 0.1543104065,
				"y": 1.3194768638,
				"z": -1.7509541823,
				"element": "H" 
			},
			{
				"x": 1.2658099345,
				"y": -2.0473502498,
				"z": -1.1016999453,
				"element": "H" 
			},
			{
				"x": 0.7606608325,
				"y": -1.6570723605,
				"z": 0.5530711304,
				"element": "H" 
			},
			{
				"x": 2.9782718356,
				"y": -2.6746445904,
				"z": 0.6306530312,
				"element": "H" 
			},
			{
				"x": 3.5960910806,
				"y": -1.5355602613,
				"z": -0.5917450815,
				"element": "H" 
			},
			{
				"x": 4.1134972895,
				"y": -0.9011132568,
				"z": 1.7297926261,
				"element": "H" 
			},
			{
				"x": 3.7922470666,
				"y": 0.9046261981,
				"z": 0.0826980295,
				"element": "H" 
			},
			{
				"x": 3.3121276989,
				"y": 1.3336507734,
				"z": 1.7441712375,
				"element": "H" 
			},
			{
				"x": 0.9738871725,
				"y": 0.8327018799,
				"z": 1.2634740033,
				"element": "H" 
			},
			{
				"x": 1.5910262077,
				"y": 1.9516937088,
				"z": 0.0222802195,
				"element": "H" 
			}
		],
		 "valence_orbital": [ 
			{
				"type": "occ",
				"energy": -0.29493,
				"method": "rhf"
			},
			{
				"type": "occ",
				"energy": -0.28283,
				"method": "rhf"
			},
			{
				"type": "occ",
				"energy": -0.24938,
				"method": "rhf"
			},
			{
				"type": "occ",
				"energy": -0.21997,
				"method": "rhf"
			},
			{
				"type": "occ",
				"energy": -0.20931,
				"method": "rhf"
			},
			{
				"type": "unocc",
				"energy": -0.00586,
				"method": "rhf"
			},
			{
				"type": "unocc",
				"energy": 0.05716,
				"method": "rhf"
			},
			{
				"type": "unocc",
				"energy": 0.08803,
				"method": "rhf"
			},
			{
				"type": "unocc",
				"energy": 0.09373,
				"method": "rhf"
			},
			{
				"type": "unocc",
				"energy": 0.11019,
				"method": "rhf"
			}
		],
		"cosmo_sigma_profile": { 
			"-0.025": 0.0,
			"-0.024": 0.0,
			"-0.023": 0.0,
			"-0.022": 0.0,
			"-0.021": 0.0,
			"-0.02": 0.0,
			"-0.019": 0.0,
			"-0.018": 0.0,
			"-0.017": 0.0,
			"-0.016": 0.0,
			"-0.015": 0.0,
			"-0.014": 0.0,
			"-0.013": 0.0,
			"-0.012": 0.0,
			"-0.011": 0.0310067126198,
			"-0.01": 1.01623962038,
			"-0.009": 1.30410963903,
			"-0.008": 1.62110337446,
			"-0.007": 2.93049944076,
			"-0.006": 8.94954627257,
			"-0.005": 16.0212117006,
			"-0.004": 22.5789910129,
			"-0.003": 23.4041065231,
			"-0.002": 28.2572245475,
			"-0.001": 30.4579755889,
			"0.0": 21.2125551323,
			"0.001": 11.3327145016,
			"0.002": 10.2658083328,
			"0.003": 8.177501411,
			"0.004": 5.27633180201,
			"0.005": 3.75663290364,
			"0.006": 3.73882598424,
			"0.007": 4.32520941573,
			"0.008": 6.17454963634,
			"0.009": 5.10632631339,
			"0.01": 2.64415416718,
			"0.011": 2.81132019392,
			"0.012": 2.34796562352,
			"0.013": 2.24176042128,
			"0.014": 2.04884216343,
			"0.015": 1.60227369211,
			"0.016": 0.608647546786,
			"0.017": 0.242287669106,
			"0.018": 0.438841763335,
			"0.019": 0.0715429184418,
			"0.02": 0.0,
			"0.021": 0.0,
			"0.022": 0.0,
			"0.023": 0.0,
			"0.024": 0.0,
			"0.025": 0.0
		}
	}
}
