{
	 "smiles": "CC(=O)C1=CC=C(C)C(F)=C1", 
	 "Tm": 306.15, 
	 "num_atms": 20, 
	 "gaussian": { 
		 "optdone": 1, 
		 "sigma_profile": "yes", 
		 "theory": "DFT", 
		 "functional": "B3LYP", 
		 "basiset": "6-31G**", 
		 "properties": { 
			 "R2extent": 2201.1899, 
			 "electric_dipole_moment_norm": 2.15220706718, 
			 "electric_quadrupole_moment_norm": 11.2289197285, 
			 "total_energy": -523.452702703, 
			 "HOMO_LUMO_gap": 0.18985, 
			 "cosmo_polarized_energy": -7.69, 
			 "cosmo_cavitation_energy": 24.38, 
			 "cosmo_dispersion_energy": -17.58, 
			 "cosmo_repulsion_energy": 1.38, 
			 "cosmo_total_nonelectrostatic_energy": 8.18, 
			 "SMD_solvation_energy": 5.44 
		},
		"coords": [
			{
				"x": 2.4320938468,
				"y": -0.7314443679,
				"z": 0.454729193,
				"element": "C" 
			},
			{
				"x": 1.8141494791,
				"y": 0.1979816268,
				"z": -0.5761377821,
				"element": "C" 
			},
			{
				"x": 2.5209367777,
				"y": 0.8560689032,
				"z": -1.3243381628,
				"element": "O" 
			},
			{
				"x": 0.3198896795,
				"y": 0.2933430257,
				"z": -0.6601994316,
				"element": "C" 
			},
			{
				"x": -0.2427146105,
				"y": 1.1539787644,
				"z": -1.6136106324,
				"element": "C" 
			},
			{
				"x": -1.6244994955,
				"y": 1.275094437,
				"z": -1.7284850982,
				"element": "C" 
			},
			{
				"x": -2.4944081823,
				"y": 0.5484148587,
				"z": -0.9039216493,
				"element": "C" 
			},
			{
				"x": -3.993401787,
				"y": 0.6520057214,
				"z": -0.9978124053,
				"element": "C" 
			},
			{
				"x": -1.9030902101,
				"y": -0.3005901676,
				"z": 0.0356950354,
				"element": "C" 
			},
			{
				"x": -2.716687259,
				"y": -1.0168642066,
				"z": 0.8472705918,
				"element": "F" 
			},
			{
				"x": -0.5319534867,
				"y": -0.4442598524,
				"z": 0.1762396743,
				"element": "C" 
			},
			{
				"x": 2.1255979459,
				"y": -0.4539428056,
				"z": 1.4693329851,
				"element": "H" 
			},
			{
				"x": 2.1149906432,
				"y": -1.7672136362,
				"z": 0.2897358064,
				"element": "H" 
			},
			{
				"x": 3.5175490096,
				"y": -0.6687342476,
				"z": 0.3746016048,
				"element": "H" 
			},
			{
				"x": 0.4270154422,
				"y": 1.7176904712,
				"z": -2.2534905176,
				"element": "H" 
			},
			{
				"x": -2.0478259608,
				"y": 1.9457495387,
				"z": -2.471515107,
				"element": "H" 
			},
			{
				"x": -4.4269581705,
				"y": 0.9893492887,
				"z": -0.0501333512,
				"element": "H" 
			},
			{
				"x": -4.4440709166,
				"y": -0.3209705758,
				"z": -1.2215880454,
				"element": "H" 
			},
			{
				"x": -4.2880997349,
				"y": 1.3552555303,
				"z": -1.7800939141,
				"element": "H" 
			},
			{
				"x": -0.1560130101,
				"y": -1.1252123063,
				"z": 0.9311212063,
				"element": "H" 
			}
		],
		 "valence_orbital": [ 
			{
				"type": "occ",
				"energy": -0.35565,
				"method": "rhf"
			},
			{
				"type": "occ",
				"energy": -0.34482,
				"method": "rhf"
			},
			{
				"type": "occ",
				"energy": -0.26359,
				"method": "rhf"
			},
			{
				"type": "occ",
				"energy": -0.24981,
				"method": "rhf"
			},
			{
				"type": "occ",
				"energy": -0.24752,
				"method": "rhf"
			},
			{
				"type": "unocc",
				"energy": -0.05767,
				"method": "rhf"
			},
			{
				"type": "unocc",
				"energy": -0.0083,
				"method": "rhf"
			},
			{
				"type": "unocc",
				"energy": 0.03827,
				"method": "rhf"
			},
			{
				"type": "unocc",
				"energy": 0.08767,
				"method": "rhf"
			},
			{
				"type": "unocc",
				"energy": 0.10534,
				"method": "rhf"
			}
		],
		"cosmo_sigma_profile": { 
			"-0.025": 0.0,
			"-0.024": 0.0,
			"-0.023": 0.0,
			"-0.022": 0.0,
			"-0.021": 0.0,
			"-0.02": 0.0,
			"-0.019": 0.0,
			"-0.018": 0.0,
			"-0.017": 0.0,
			"-0.016": 0.0,
			"-0.015": 0.0,
			"-0.014": 0.0,
			"-0.013": 0.0,
			"-0.012": 0.0,
			"-0.011": 0.0,
			"-0.01": 0.0,
			"-0.009": 0.0,
			"-0.008": 0.404217489581,
			"-0.007": 3.46510550631,
			"-0.006": 11.1559026504,
			"-0.005": 15.6766248389,
			"-0.004": 15.3681547145,
			"-0.003": 16.0007577678,
			"-0.002": 16.0772185652,
			"-0.001": 20.5385396778,
			"0.0": 17.0848057363,
			"0.001": 14.1875227401,
			"0.002": 15.4508243813,
			"0.003": 13.3494407451,
			"0.004": 12.9913838378,
			"0.005": 4.55180307993,
			"0.006": 1.9425200083,
			"0.007": 1.64609152374,
			"0.008": 1.46131835068,
			"0.009": 1.97675647695,
			"0.01": 2.11010433418,
			"0.011": 2.97908088483,
			"0.012": 4.06105726042,
			"0.013": 1.35315266082,
			"0.014": 0.150379017013,
			"0.015": 0.0,
			"0.016": 0.0,
			"0.017": 0.0,
			"0.018": 0.0,
			"0.019": 0.0,
			"0.02": 0.0,
			"0.021": 0.0,
			"0.022": 0.0,
			"0.023": 0.0,
			"0.024": 0.0,
			"0.025": 0.0
		}
	}
}
