{
	 "smiles": "OC(=O)C1=CC2=C(C=CC(Br)=C2)C(Br)=C1O", 
	 "Tm": 525.15, 
	 "num_atms": 22, 
	 "gaussian": { 
		 "optdone": 1, 
		 "sigma_profile": "yes", 
		 "theory": "DFT", 
		 "functional": "B3LYP", 
		 "basiset": "6-31G**", 
		 "properties": { 
			 "R2extent": 9938.0672, 
			 "electric_dipole_moment_norm": 5.18400692997, 
			 "electric_quadrupole_moment_norm": 14.7885579097, 
			 "total_energy": -5791.28904648, 
			 "HOMO_LUMO_gap": 0.15552, 
			 "cosmo_polarized_energy": -13.47, 
			 "cosmo_cavitation_energy": 30.99, 
			 "cosmo_dispersion_energy": -24.21, 
			 "cosmo_repulsion_energy": 1.84, 
			 "cosmo_total_nonelectrostatic_energy": 8.62, 
			 "SMD_solvation_energy": 4.27 
		},
		"coords": [
			{
				"x": -0.0088582534,
				"y": 1.3644074301,
				"z": -3.4066268143,
				"element": "O" 
			},
			{
				"x": -0.3491514666,
				"y": 1.1064935716,
				"z": -2.133141793,
				"element": "C" 
			},
			{
				"x": -1.3376662595,
				"y": 1.6061935295,
				"z": -1.6434047848,
				"element": "O" 
			},
			{
				"x": 0.5346132105,
				"y": 0.1763235994,
				"z": -1.3285039536,
				"element": "C" 
			},
			{
				"x": 0.149432741,
				"y": -0.0612293187,
				"z": -0.0256363166,
				"element": "C" 
			},
			{
				"x": 0.8808887526,
				"y": -0.9083057651,
				"z": 0.8388247307,
				"element": "C" 
			},
			{
				"x": 2.0693121296,
				"y": -1.5510710811,
				"z": 0.357084871,
				"element": "C" 
			},
			{
				"x": 2.7866444974,
				"y": -2.3964587949,
				"z": 1.2426507982,
				"element": "C" 
			},
			{
				"x": 2.3560726343,
				"y": -2.598057717,
				"z": 2.5343871395,
				"element": "C" 
			},
			{
				"x": 1.1831930761,
				"y": -1.959016856,
				"z": 2.9975696107,
				"element": "C" 
			},
			{
				"x": 0.6184643715,
				"y": -2.2632794153,
				"z": 4.7938285236,
				"element": "Br" 
			},
			{
				"x": 0.4569583235,
				"y": -1.1323040689,
				"z": 2.1761607748,
				"element": "C" 
			},
			{
				"x": 2.4475587336,
				"y": -1.2926836609,
				"z": -0.9868559241,
				"element": "C" 
			},
			{
				"x": 4.0225881186,
				"y": -2.103851913,
				"z": -1.7296760371,
				"element": "Br" 
			},
			{
				"x": 1.7171025124,
				"y": -0.4601738749,
				"z": -1.8157378876,
				"element": "C" 
			},
			{
				"x": 2.0830024276,
				"y": -0.2140403878,
				"z": -3.1059480298,
				"element": "O" 
			},
			{
				"x": 0.8063526421,
				"y": 0.8889916207,
				"z": -3.6477844299,
				"element": "H" 
			},
			{
				"x": -0.7512886904,
				"y": 0.4316137615,
				"z": 0.3248524427,
				"element": "H" 
			},
			{
				"x": 3.6867368174,
				"y": -2.8899104794,
				"z": 0.8949963258,
				"element": "H" 
			},
			{
				"x": 2.9117800834,
				"y": -3.2459663786,
				"z": 3.2025108784,
				"element": "H" 
			},
			{
				"x": -0.4423883027,
				"y": -0.6433359924,
				"z": 2.533942472,
				"element": "H" 
			},
			{
				"x": 2.8982519008,
				"y": -0.7027378088,
				"z": -3.3134925965,
				"element": "H" 
			}
		],
		 "valence_orbital": [ 
			{
				"type": "occ",
				"energy": -0.29897,
				"method": "rhf"
			},
			{
				"type": "occ",
				"energy": -0.28836,
				"method": "rhf"
			},
			{
				"type": "occ",
				"energy": -0.27529,
				"method": "rhf"
			},
			{
				"type": "occ",
				"energy": -0.26301,
				"method": "rhf"
			},
			{
				"type": "occ",
				"energy": -0.23615,
				"method": "rhf"
			},
			{
				"type": "unocc",
				"energy": -0.08063,
				"method": "rhf"
			},
			{
				"type": "unocc",
				"energy": -0.04773,
				"method": "rhf"
			},
			{
				"type": "unocc",
				"energy": -0.02634,
				"method": "rhf"
			},
			{
				"type": "unocc",
				"energy": -0.00466,
				"method": "rhf"
			},
			{
				"type": "unocc",
				"energy": -0.00183,
				"method": "rhf"
			}
		],
		"cosmo_sigma_profile": { 
			"-0.025": 0.0,
			"-0.024": 0.0,
			"-0.023": 0.0,
			"-0.022": 0.0,
			"-0.021": 0.0,
			"-0.02": 0.0,
			"-0.019": 0.0,
			"-0.018": 0.0,
			"-0.017": 0.0,
			"-0.016": 0.305052540924,
			"-0.015": 0.653452861865,
			"-0.014": 0.92876127312,
			"-0.013": 0.727746833222,
			"-0.012": 0.440432093777,
			"-0.011": 1.31359984417,
			"-0.01": 1.36363667604,
			"-0.009": 2.68695668743,
			"-0.008": 5.23341121944,
			"-0.007": 8.41932053676,
			"-0.006": 10.1052748207,
			"-0.005": 11.1199894106,
			"-0.004": 13.4834299775,
			"-0.003": 14.0671816009,
			"-0.002": 16.7330219592,
			"-0.001": 23.4674008403,
			"0.0": 32.149016148,
			"0.001": 32.2785977611,
			"0.002": 21.506696846,
			"0.003": 14.1896933119,
			"0.004": 14.7147699878,
			"0.005": 4.4184967245,
			"0.006": 2.03655660733,
			"0.007": 2.52435218673,
			"0.008": 2.15870361379,
			"0.009": 3.54333547895,
			"0.01": 3.92044643063,
			"0.011": 6.03447289879,
			"0.012": 4.37463438738,
			"0.013": 1.75747294149,
			"0.014": 0.0851856866064,
			"0.015": 0.0,
			"0.016": 0.0,
			"0.017": 0.0,
			"0.018": 0.0,
			"0.019": 0.0,
			"0.02": 0.0,
			"0.021": 0.0,
			"0.022": 0.0,
			"0.023": 0.0,
			"0.024": 0.0,
			"0.025": 0.0
		}
	}
}
