{
	 "smiles": "OC(=O)CSC1=CC=CC=C1C(O)=O", 
	 "Tm": 490.65, 
	 "num_atms": 22, 
	 "gaussian": { 
		 "optdone": 1, 
		 "sigma_profile": "yes", 
		 "theory": "DFT", 
		 "functional": "B3LYP", 
		 "basiset": "6-31G**", 
		 "properties": { 
			 "R2extent": 2894.632, 
			 "electric_dipole_moment_norm": 6.34959807626, 
			 "electric_quadrupole_moment_norm": 15.542400469, 
			 "total_energy": -1046.87362224, 
			 "HOMO_LUMO_gap": 0.17079, 
			 "cosmo_polarized_energy": -19.86, 
			 "cosmo_cavitation_energy": 27.73, 
			 "cosmo_dispersion_energy": -20.24, 
			 "cosmo_repulsion_energy": 1.55, 
			 "cosmo_total_nonelectrostatic_energy": 9.04, 
			 "SMD_solvation_energy": 6.37 
		},
		"coords": [
			{
				"x": -2.4482125768,
				"y": -0.889346429,
				"z": -1.1894312222,
				"element": "O" 
			},
			{
				"x": -1.5266788496,
				"y": -1.4797088021,
				"z": -1.9685619008,
				"element": "C" 
			},
			{
				"x": -1.4342127312,
				"y": -2.6809534356,
				"z": -2.0535288008,
				"element": "O" 
			},
			{
				"x": -0.6091469084,
				"y": -0.5187275504,
				"z": -2.7236476141,
				"element": "C" 
			},
			{
				"x": 0.913762607,
				"y": -0.0395816793,
				"z": -1.7752016637,
				"element": "S" 
			},
			{
				"x": 0.4376757206,
				"y": 0.0115108008,
				"z": -0.0420072837,
				"element": "C" 
			},
			{
				"x": 1.0092963353,
				"y": -0.9511190802,
				"z": 0.7986941355,
				"element": "C" 
			},
			{
				"x": 0.8395928987,
				"y": -0.892571649,
				"z": 2.183912229,
				"element": "C" 
			},
			{
				"x": 0.0984756651,
				"y": 0.1395941249,
				"z": 2.7547463365,
				"element": "C" 
			},
			{
				"x": -0.4722454818,
				"y": 1.1121188185,
				"z": 1.9337146987,
				"element": "C" 
			},
			{
				"x": -0.3156316448,
				"y": 1.0540868799,
				"z": 0.541701563,
				"element": "C" 
			},
			{
				"x": -1.0323709271,
				"y": 2.0793006107,
				"z": -0.2816939612,
				"element": "C" 
			},
			{
				"x": -0.8153888622,
				"y": 3.3660017128,
				"z": 0.0455505525,
				"element": "O" 
			},
			{
				"x": -1.8269895793,
				"y": 1.815696954,
				"z": -1.1661543968,
				"element": "O" 
			},
			{
				"x": -2.3529052565,
				"y": 0.0880494187,
				"z": -1.2231936773,
				"element": "H" 
			},
			{
				"x": -1.1332230883,
				"y": 0.3875803281,
				"z": -3.0294667864,
				"element": "H" 
			},
			{
				"x": -0.2158282418,
				"y": -1.0414650013,
				"z": -3.5962395931,
				"element": "H" 
			},
			{
				"x": 1.5923412845,
				"y": -1.7494268215,
				"z": 0.3527827171,
				"element": "H" 
			},
			{
				"x": 1.2857631526,
				"y": -1.6578264037,
				"z": 2.8116010155,
				"element": "H" 
			},
			{
				"x": -0.0419190188,
				"y": 0.1887947095,
				"z": 3.8298834817,
				"element": "H" 
			},
			{
				"x": -1.0712356521,
				"y": 1.9060010106,
				"z": 2.3723006373,
				"element": "H" 
			},
			{
				"x": -0.0965188451,
				"y": 3.4200914833,
				"z": 0.6929395333,
				"element": "H" 
			}
		],
		 "valence_orbital": [ 
			{
				"type": "occ",
				"energy": -0.29989,
				"method": "rhf"
			},
			{
				"type": "occ",
				"energy": -0.28683,
				"method": "rhf"
			},
			{
				"type": "occ",
				"energy": -0.28447,
				"method": "rhf"
			},
			{
				"type": "occ",
				"energy": -0.2643,
				"method": "rhf"
			},
			{
				"type": "occ",
				"energy": -0.24005,
				"method": "rhf"
			},
			{
				"type": "unocc",
				"energy": -0.06926,
				"method": "rhf"
			},
			{
				"type": "unocc",
				"energy": -0.04451,
				"method": "rhf"
			},
			{
				"type": "unocc",
				"energy": -0.00627,
				"method": "rhf"
			},
			{
				"type": "unocc",
				"energy": -0.00045,
				"method": "rhf"
			},
			{
				"type": "unocc",
				"energy": 0.03229,
				"method": "rhf"
			}
		],
		"cosmo_sigma_profile": { 
			"-0.025": 0.0,
			"-0.024": 0.0,
			"-0.023": 0.0,
			"-0.022": 0.0,
			"-0.021": 0.0,
			"-0.02": 0.311765361282,
			"-0.019": 1.06036084646,
			"-0.018": 0.835237593224,
			"-0.017": 0.781609826804,
			"-0.016": 0.39282802663,
			"-0.015": 1.11643364092,
			"-0.014": 1.20775303267,
			"-0.013": 1.34571334006,
			"-0.012": 1.01622765666,
			"-0.011": 0.626753174128,
			"-0.01": 1.42553148494,
			"-0.009": 2.27201403159,
			"-0.008": 7.27918254994,
			"-0.007": 11.9519837632,
			"-0.006": 15.556038869,
			"-0.005": 15.523398509,
			"-0.004": 12.7747661195,
			"-0.003": 8.65559896461,
			"-0.002": 9.99864897936,
			"-0.001": 12.8670221827,
			"0.0": 12.4838520245,
			"0.001": 14.4488207911,
			"0.002": 16.6055502897,
			"0.003": 10.2043798658,
			"0.004": 8.54865364185,
			"0.005": 7.14353940541,
			"0.006": 6.37709459747,
			"0.007": 6.47395978409,
			"0.008": 6.65389318119,
			"0.009": 6.52794878951,
			"0.01": 5.46456105272,
			"0.011": 7.25033023894,
			"0.012": 5.88172560795,
			"0.013": 2.54237304539,
			"0.014": 0.117378443691,
			"0.015": 0.0,
			"0.016": 0.0,
			"0.017": 0.0,
			"0.018": 0.0,
			"0.019": 0.0,
			"0.02": 0.0,
			"0.021": 0.0,
			"0.022": 0.0,
			"0.023": 0.0,
			"0.024": 0.0,
			"0.025": 0.0
		}
	}
}
