{
	 "smiles": "COC(=O)C1=CC2=C(C=C(O2)C=O)N1C", 
	 "Tm": 435.15, 
	 "num_atms": 24, 
	 "gaussian": { 
		 "optdone": 1, 
		 "sigma_profile": "yes", 
		 "theory": "DFT", 
		 "functional": "B3LYP", 
		 "basiset": "6-31G**", 
		 "properties": { 
			 "R2extent": 4588.5638, 
			 "electric_dipole_moment_norm": 4.72489717772, 
			 "electric_quadrupole_moment_norm": 22.1297644504, 
			 "total_energy": -742.091290065, 
			 "HOMO_LUMO_gap": 0.14323, 
			 "cosmo_polarized_energy": -13.14, 
			 "cosmo_cavitation_energy": 29.68, 
			 "cosmo_dispersion_energy": -21.3, 
			 "cosmo_repulsion_energy": 1.65, 
			 "cosmo_total_nonelectrostatic_energy": 10.02, 
			 "SMD_solvation_energy": 8.2 
		},
		"coords": [
			{
				"x": 4.8553590313,
				"y": 1.615907331,
				"z": -2.7462211832,
				"element": "C" 
			},
			{
				"x": 3.6062325553,
				"y": 1.08191807,
				"z": -2.275480101,
				"element": "O" 
			},
			{
				"x": 3.5582904747,
				"y": 0.8338132169,
				"z": -0.9414341734,
				"element": "C" 
			},
			{
				"x": 4.4935400039,
				"y": 1.0423699445,
				"z": -0.1921251896,
				"element": "O" 
			},
			{
				"x": 2.2713771823,
				"y": 0.2894580231,
				"z": -0.4945327478,
				"element": "C" 
			},
			{
				"x": 2.0099269263,
				"y": -0.0371180657,
				"z": 0.8422499253,
				"element": "C" 
			},
			{
				"x": 0.6956372946,
				"y": -0.5129719056,
				"z": 0.8372412225,
				"element": "C" 
			},
			{
				"x": 0.1851833429,
				"y": -0.4729331777,
				"z": -0.4622053584,
				"element": "C" 
			},
			{
				"x": -1.1416274518,
				"y": -0.9635975032,
				"z": -0.4079680772,
				"element": "C" 
			},
			{
				"x": -1.3454555551,
				"y": -1.2684694138,
				"z": 0.9245853221,
				"element": "C" 
			},
			{
				"x": -0.2288765242,
				"y": -0.9983584567,
				"z": 1.7030191396,
				"element": "O" 
			},
			{
				"x": -2.5098514537,
				"y": -1.8090062339,
				"z": 1.6061385812,
				"element": "C" 
			},
			{
				"x": -3.553127593,
				"y": -2.0884606516,
				"z": 1.0362086549,
				"element": "O" 
			},
			{
				"x": 1.1533708583,
				"y": 0.0224569155,
				"z": -1.2943397862,
				"element": "N" 
			},
			{
				"x": 0.987468664,
				"y": 0.2112135333,
				"z": -2.7315018779,
				"element": "C" 
			},
			{
				"x": 5.0747758824,
				"y": 2.5680726199,
				"z": -2.2573822758,
				"element": "H" 
			},
			{
				"x": 4.7284223219,
				"y": 1.755711012,
				"z": -3.8197157594,
				"element": "H" 
			},
			{
				"x": 5.6721037816,
				"y": 0.9193015036,
				"z": -2.5427550366,
				"element": "H" 
			},
			{
				"x": 2.7160060246,
				"y": 0.0791866494,
				"z": 1.6490063806,
				"element": "H" 
			},
			{
				"x": -1.879956983,
				"y": -1.0968219079,
				"z": -1.1845668667,
				"element": "H" 
			},
			{
				"x": -2.374552751,
				"y": -1.9490805642,
				"z": 2.698519353,
				"element": "H" 
			},
			{
				"x": -0.0213498786,
				"y": -0.1094892435,
				"z": -2.9951568646,
				"element": "H" 
			},
			{
				"x": 1.7118988215,
				"y": -0.3839473089,
				"z": -3.2904275502,
				"element": "H" 
			},
			{
				"x": 1.1148050248,
				"y": 1.2600456133,
				"z": -3.0056557311,
				"element": "H" 
			}
		],
		 "valence_orbital": [ 
			{
				"type": "occ",
				"energy": -0.29973,
				"method": "rhf"
			},
			{
				"type": "occ",
				"energy": -0.284,
				"method": "rhf"
			},
			{
				"type": "occ",
				"energy": -0.25679,
				"method": "rhf"
			},
			{
				"type": "occ",
				"energy": -0.24841,
				"method": "rhf"
			},
			{
				"type": "occ",
				"energy": -0.22051,
				"method": "rhf"
			},
			{
				"type": "unocc",
				"energy": -0.07728,
				"method": "rhf"
			},
			{
				"type": "unocc",
				"energy": -0.01766,
				"method": "rhf"
			},
			{
				"type": "unocc",
				"energy": 0.06457,
				"method": "rhf"
			},
			{
				"type": "unocc",
				"energy": 0.08095,
				"method": "rhf"
			},
			{
				"type": "unocc",
				"energy": 0.09053,
				"method": "rhf"
			}
		],
		"cosmo_sigma_profile": { 
			"-0.025": 0.0,
			"-0.024": 0.0,
			"-0.023": 0.0,
			"-0.022": 0.0,
			"-0.021": 0.0,
			"-0.02": 0.0,
			"-0.019": 0.0,
			"-0.018": 0.0,
			"-0.017": 0.0,
			"-0.016": 0.0,
			"-0.015": 0.0,
			"-0.014": 0.0,
			"-0.013": 0.0,
			"-0.012": 0.0,
			"-0.011": 0.0,
			"-0.01": 0.194007085295,
			"-0.009": 1.68653496673,
			"-0.008": 4.27116834696,
			"-0.007": 7.31628453024,
			"-0.006": 14.1437137754,
			"-0.005": 18.5898876671,
			"-0.004": 19.0991265748,
			"-0.003": 26.2951310812,
			"-0.002": 16.3019951021,
			"-0.001": 16.3939221197,
			"0.0": 17.7560571819,
			"0.001": 21.6534133808,
			"0.002": 16.7413816558,
			"0.003": 10.7809036614,
			"0.004": 5.40783525556,
			"0.005": 4.47831349637,
			"0.006": 4.37632660153,
			"0.007": 4.38348632046,
			"0.008": 3.35661346661,
			"0.009": 3.66837973798,
			"0.01": 3.77032515197,
			"0.011": 6.94549260171,
			"0.012": 8.86457187625,
			"0.013": 1.33862152362,
			"0.014": 0.0473038775271,
			"0.015": 0.0,
			"0.016": 0.0,
			"0.017": 0.0,
			"0.018": 0.0,
			"0.019": 0.0,
			"0.02": 0.0,
			"0.021": 0.0,
			"0.022": 0.0,
			"0.023": 0.0,
			"0.024": 0.0,
			"0.025": 0.0
		}
	}
}
