{
	 "smiles": "CCS(=O)(=O)N1CC2=C(CC1C(O)=O)C=CC=C2", 
	 "Tm": 385.15, 
	 "num_atms": 33, 
	 "gaussian": { 
		 "optdone": 1, 
		 "sigma_profile": "yes", 
		 "theory": "DFT", 
		 "functional": "B3LYP", 
		 "basiset": "6-31G**", 
		 "properties": { 
			 "R2extent": 5074.2783, 
			 "electric_dipole_moment_norm": 3.79905092753, 
			 "electric_quadrupole_moment_norm": 13.6643106983, 
			 "total_energy": -1220.1057685, 
			 "HOMO_LUMO_gap": 0.22688, 
			 "cosmo_polarized_energy": -19.23, 
			 "cosmo_cavitation_energy": 36.31, 
			 "cosmo_dispersion_energy": -25.52, 
			 "cosmo_repulsion_energy": 1.93, 
			 "cosmo_total_nonelectrostatic_energy": 12.72, 
			 "SMD_solvation_energy": 5.85 
		},
		"coords": [
			{
				"x": -2.7283738987,
				"y": -1.6319447981,
				"z": 1.711130266,
				"element": "C" 
			},
			{
				"x": -3.467967587,
				"y": -0.5282749245,
				"z": 0.9644174144,
				"element": "C" 
			},
			{
				"x": -2.8307350083,
				"y": -0.218617991,
				"z": -0.7093801092,
				"element": "S" 
			},
			{
				"x": -3.5955206974,
				"y": 0.9160048019,
				"z": -1.2401907124,
				"element": "O" 
			},
			{
				"x": -2.7654711143,
				"y": -1.5051457357,
				"z": -1.410654142,
				"element": "O" 
			},
			{
				"x": -1.240044128,
				"y": 0.3061154111,
				"z": -0.4272138676,
				"element": "N" 
			},
			{
				"x": -0.1530082021,
				"y": -0.6276076041,
				"z": -0.7724328338,
				"element": "C" 
			},
			{
				"x": 1.1845262584,
				"y": -0.1401665948,
				"z": -0.2476233815,
				"element": "C" 
			},
			{
				"x": 1.359489548,
				"y": 1.1526838786,
				"z": 0.2673220548,
				"element": "C" 
			},
			{
				"x": 0.1904427885,
				"y": 2.1101183855,
				"z": 0.369232627,
				"element": "C" 
			},
			{
				"x": -0.952544607,
				"y": 1.7324437332,
				"z": -0.5849539233,
				"element": "C" 
			},
			{
				"x": -0.6446542075,
				"y": 2.2079527256,
				"z": -2.0149202434,
				"element": "C" 
			},
			{
				"x": -0.9012248652,
				"y": 1.2843076283,
				"z": -2.9609415734,
				"element": "O" 
			},
			{
				"x": -0.2375103639,
				"y": 3.3206564253,
				"z": -2.2649234138,
				"element": "O" 
			},
			{
				"x": 2.6323028277,
				"y": 1.5462676847,
				"z": 0.7050962742,
				"element": "C" 
			},
			{
				"x": 3.716844593,
				"y": 0.6767793759,
				"z": 0.6392865865,
				"element": "C" 
			},
			{
				"x": 3.5404757462,
				"y": -0.6106054917,
				"z": 0.1238805061,
				"element": "C" 
			},
			{
				"x": 2.2824245535,
				"y": -1.009468504,
				"z": -0.3170942163,
				"element": "C" 
			},
			{
				"x": -3.2026698549,
				"y": -1.7978354374,
				"z": 2.6830431886,
				"element": "H" 
			},
			{
				"x": -1.6850808727,
				"y": -1.3566402127,
				"z": 1.8874597222,
				"element": "H" 
			},
			{
				"x": -2.7583376667,
				"y": -2.5688423079,
				"z": 1.1497046513,
				"element": "H" 
			},
			{
				"x": -4.5210328964,
				"y": -0.7770030991,
				"z": 0.7998975552,
				"element": "H" 
			},
			{
				"x": -3.4214743653,
				"y": 0.4344791302,
				"z": 1.4803616704,
				"element": "H" 
			},
			{
				"x": -0.0955929407,
				"y": -0.7735114289,
				"z": -1.8584083118,
				"element": "H" 
			},
			{
				"x": -0.3876127173,
				"y": -1.6011678691,
				"z": -0.3360428588,
				"element": "H" 
			},
			{
				"x": 0.5089330439,
				"y": 3.1321953253,
				"z": 0.1468229196,
				"element": "H" 
			},
			{
				"x": -0.2067685574,
				"y": 2.1055191437,
				"z": 1.3918160222,
				"element": "H" 
			},
			{
				"x": -1.8502515216,
				"y": 2.2907602274,
				"z": -0.3062017791,
				"element": "H" 
			},
			{
				"x": -0.7259478583,
				"y": 1.7090486586,
				"z": -3.8177809445,
				"element": "H" 
			},
			{
				"x": 2.7671671271,
				"y": 2.5514010713,
				"z": 1.0974529258,
				"element": "H" 
			},
			{
				"x": 4.6953469831,
				"y": 1.0007887333,
				"z": 0.9814613584,
				"element": "H" 
			},
			{
				"x": 4.3794243432,
				"y": -1.2978710878,
				"z": 0.065754541,
				"element": "H" 
			},
			{
				"x": 2.1432461184,
				"y": -2.0095192532,
				"z": -0.7218779727,
				"element": "H" 
			}
		],
		 "valence_orbital": [ 
			{
				"type": "occ",
				"energy": -0.30122,
				"method": "rhf"
			},
			{
				"type": "occ",
				"energy": -0.28956,
				"method": "rhf"
			},
			{
				"type": "occ",
				"energy": -0.25775,
				"method": "rhf"
			},
			{
				"type": "occ",
				"energy": -0.24893,
				"method": "rhf"
			},
			{
				"type": "occ",
				"energy": -0.24287,
				"method": "rhf"
			},
			{
				"type": "unocc",
				"energy": -0.01599,
				"method": "rhf"
			},
			{
				"type": "unocc",
				"energy": -0.00594,
				"method": "rhf"
			},
			{
				"type": "unocc",
				"energy": 0.00575,
				"method": "rhf"
			},
			{
				"type": "unocc",
				"energy": 0.05583,
				"method": "rhf"
			},
			{
				"type": "unocc",
				"energy": 0.06733,
				"method": "rhf"
			}
		],
		"cosmo_sigma_profile": { 
			"-0.025": 0.0,
			"-0.024": 0.0,
			"-0.023": 0.0,
			"-0.022": 0.0,
			"-0.021": 0.0,
			"-0.02": 0.0,
			"-0.019": 0.51030358366,
			"-0.018": 0.852096433324,
			"-0.017": 0.66974909196,
			"-0.016": 1.59419640495,
			"-0.015": 0.582114362428,
			"-0.014": 0.153887991044,
			"-0.013": 0.418422231982,
			"-0.012": 1.37784460231,
			"-0.011": 0.927967325685,
			"-0.01": 0.488126512376,
			"-0.009": 1.14430985072,
			"-0.008": 5.9064794514,
			"-0.007": 7.22634229399,
			"-0.006": 13.7511713139,
			"-0.005": 24.1506827416,
			"-0.004": 29.5294620692,
			"-0.003": 24.9693362362,
			"-0.002": 23.8331786838,
			"-0.001": 18.6753192369,
			"0.0": 14.2807523845,
			"0.001": 12.5956545957,
			"0.002": 13.1669599646,
			"0.003": 11.364222478,
			"0.004": 11.5598679945,
			"0.005": 11.5799750674,
			"0.006": 9.72968071307,
			"0.007": 5.41441395973,
			"0.008": 5.56270593275,
			"0.009": 6.5774251442,
			"0.01": 7.8635307128,
			"0.011": 14.1782322048,
			"0.012": 5.68569783229,
			"0.013": 0.0,
			"0.014": 0.0,
			"0.015": 0.0,
			"0.016": 0.0,
			"0.017": 0.0,
			"0.018": 0.0,
			"0.019": 0.0,
			"0.02": 0.0,
			"0.021": 0.0,
			"0.022": 0.0,
			"0.023": 0.0,
			"0.024": 0.0,
			"0.025": 0.0
		}
	}
}
