{
	 "smiles": "NC1=CC=C(C=C1)C1=NC=CN1C(F)F", 
	 "Tm": 358.15, 
	 "num_atms": 24, 
	 "gaussian": { 
		 "optdone": 1, 
		 "sigma_profile": "yes", 
		 "theory": "DFT", 
		 "functional": "B3LYP", 
		 "basiset": "6-31G**", 
		 "properties": { 
			 "R2extent": 3792.8909, 
			 "electric_dipole_moment_norm": 3.90570438461, 
			 "electric_quadrupole_moment_norm": 16.9395421325, 
			 "total_energy": -750.419077424, 
			 "HOMO_LUMO_gap": 0.17785, 
			 "cosmo_polarized_energy": -14.25, 
			 "cosmo_cavitation_energy": 28.89, 
			 "cosmo_dispersion_energy": -20.97, 
			 "cosmo_repulsion_energy": 1.58, 
			 "cosmo_total_nonelectrostatic_energy": 9.5, 
			 "SMD_solvation_energy": 4.37 
		},
		"coords": [
			{
				"x": -1.8991577912,
				"y": 2.9568745122,
				"z": 3.4158169527,
				"element": "N" 
			},
			{
				"x": -1.2750811909,
				"y": 2.0303693057,
				"z": 2.5884141023,
				"element": "C" 
			},
			{
				"x": -2.0095969628,
				"y": 0.9861526939,
				"z": 1.9928886536,
				"element": "C" 
			},
			{
				"x": -1.3790172934,
				"y": 0.0350171361,
				"z": 1.205851393,
				"element": "C" 
			},
			{
				"x": 0.0081316087,
				"y": 0.0828773173,
				"z": 0.9737762828,
				"element": "C" 
			},
			{
				"x": 0.7428173963,
				"y": 1.1114619174,
				"z": 1.5899512633,
				"element": "C" 
			},
			{
				"x": 0.113462514,
				"y": 2.0718326615,
				"z": 2.3753309202,
				"element": "C" 
			},
			{
				"x": 0.6165763675,
				"y": -0.97075444,
				"z": 0.1536203694,
				"element": "C" 
			},
			{
				"x": 0.1859801324,
				"y": -2.2162408923,
				"z": 0.0913615768,
				"element": "N" 
			},
			{
				"x": 1.0256646234,
				"y": -2.8732682315,
				"z": -0.7790189676,
				"element": "C" 
			},
			{
				"x": 1.9867668378,
				"y": -2.0326743317,
				"z": -1.2645256681,
				"element": "C" 
			},
			{
				"x": 1.7248438686,
				"y": -0.8002996061,
				"z": -0.6746593221,
				"element": "N" 
			},
			{
				"x": 2.4037698211,
				"y": 0.4140736884,
				"z": -0.9788969134,
				"element": "C" 
			},
			{
				"x": 3.4799462631,
				"y": 0.5964897304,
				"z": -0.1518490918,
				"element": "F" 
			},
			{
				"x": 2.8896157872,
				"y": 0.3540205436,
				"z": -2.2440640009,
				"element": "F" 
			},
			{
				"x": -2.8933606788,
				"y": 3.0720169797,
				"z": 3.2808954203,
				"element": "H" 
			},
			{
				"x": -1.4176193661,
				"y": 3.8356641542,
				"z": 3.5411819336,
				"element": "H" 
			},
			{
				"x": -3.0831228895,
				"y": 0.9278167656,
				"z": 2.1550695169,
				"element": "H" 
			},
			{
				"x": -1.951935497,
				"y": -0.7678602991,
				"z": 0.7543754007,
				"element": "H" 
			},
			{
				"x": 1.8224958448,
				"y": 1.1486254624,
				"z": 1.4897264115,
				"element": "H" 
			},
			{
				"x": 0.7054873362,
				"y": 2.8502345626,
				"z": 2.8500735251,
				"element": "H" 
			},
			{
				"x": 0.8921011623,
				"y": -3.9223512946,
				"z": -1.0041281979,
				"element": "H" 
			},
			{
				"x": 2.7958267089,
				"y": -2.1645313681,
				"z": -1.963635346,
				"element": "H" 
			},
			{
				"x": 1.7380053974,
				"y": 1.2729530324,
				"z": -0.8735562143,
				"element": "H" 
			}
		],
		 "valence_orbital": [ 
			{
				"type": "occ",
				"energy": -0.28273,
				"method": "rhf"
			},
			{
				"type": "occ",
				"energy": -0.2668,
				"method": "rhf"
			},
			{
				"type": "occ",
				"energy": -0.25428,
				"method": "rhf"
			},
			{
				"type": "occ",
				"energy": -0.24287,
				"method": "rhf"
			},
			{
				"type": "occ",
				"energy": -0.19665,
				"method": "rhf"
			},
			{
				"type": "unocc",
				"energy": -0.0188,
				"method": "rhf"
			},
			{
				"type": "unocc",
				"energy": -0.00547,
				"method": "rhf"
			},
			{
				"type": "unocc",
				"energy": 0.03877,
				"method": "rhf"
			},
			{
				"type": "unocc",
				"energy": 0.07131,
				"method": "rhf"
			},
			{
				"type": "unocc",
				"energy": 0.07998,
				"method": "rhf"
			}
		],
		"cosmo_sigma_profile": { 
			"-0.025": 0.0,
			"-0.024": 0.0,
			"-0.023": 0.0,
			"-0.022": 0.0,
			"-0.021": 0.0,
			"-0.02": 0.0,
			"-0.019": 0.0,
			"-0.018": 0.0,
			"-0.017": 0.0,
			"-0.016": 0.0,
			"-0.015": 0.0,
			"-0.014": 0.00556911010652,
			"-0.013": 1.29154794876,
			"-0.012": 2.53957334962,
			"-0.011": 3.80206602571,
			"-0.01": 4.66536674139,
			"-0.009": 5.4041109952,
			"-0.008": 6.3777742732,
			"-0.007": 7.44516133897,
			"-0.006": 10.0491296615,
			"-0.005": 10.7667910515,
			"-0.004": 14.0533122165,
			"-0.003": 12.0483219911,
			"-0.002": 11.0388017482,
			"-0.001": 11.5199388485,
			"0.0": 12.0260187,
			"0.001": 14.9507887755,
			"0.002": 16.3230255384,
			"0.003": 25.1794310239,
			"0.004": 19.3601963204,
			"0.005": 16.8708867557,
			"0.006": 7.38257218278,
			"0.007": 2.95802765918,
			"0.008": 2.40752948046,
			"0.009": 2.50129140231,
			"0.01": 1.93131637596,
			"0.011": 1.68594940673,
			"0.012": 2.0372628676,
			"0.013": 1.46249425752,
			"0.014": 1.29398863381,
			"0.015": 0.971055747006,
			"0.016": 0.477804378334,
			"0.017": 0.666033767092,
			"0.018": 0.0,
			"0.019": 0.0,
			"0.02": 0.0,
			"0.021": 0.0,
			"0.022": 0.0,
			"0.023": 0.0,
			"0.024": 0.0,
			"0.025": 0.0
		}
	}
}
