{
	 "smiles": "O=C1C=CC(=O)[C@@H]2CC3=C(C[C@H]12)CC1=C(C[C@@H]2[C@H](C1)C(=O)C=CC2=O)C3", 
	 "Tm": 611.15, 
	 "num_atms": 46, 
	 "gaussian": { 
		 "optdone": 1, 
		 "sigma_profile": "yes", 
		 "theory": "DFT", 
		 "functional": "B3LYP", 
		 "basiset": "6-31G**", 
		 "properties": { 
			 "R2extent": 12259.1699, 
			 "electric_dipole_moment_norm": 0.659858174156, 
			 "electric_quadrupole_moment_norm": 18.2947946952, 
			 "total_energy": -1151.24363781, 
			 "HOMO_LUMO_gap": 0.13023, 
			 "cosmo_polarized_energy": -20.55, 
			 "cosmo_cavitation_energy": 46.7, 
			 "cosmo_dispersion_energy": -32.71, 
			 "cosmo_repulsion_energy": 2.43, 
			 "cosmo_total_nonelectrostatic_energy": 16.42, 
			 "SMD_solvation_energy": 8.39 
		},
		"coords": [
			{
				"x": 3.0267407009,
				"y": -1.8586328385,
				"z": -5.1130959122,
				"element": "O" 
			},
			{
				"x": 2.0311964433,
				"y": -1.1855595548,
				"z": -4.8973680747,
				"element": "C" 
			},
			{
				"x": 1.6757035905,
				"y": -0.0453916379,
				"z": -5.7862674212,
				"element": "C" 
			},
			{
				"x": 0.5296211119,
				"y": 0.6451777883,
				"z": -5.644925355,
				"element": "C" 
			},
			{
				"x": -0.4978502709,
				"y": 0.2861827953,
				"z": -4.6287415037,
				"element": "C" 
			},
			{
				"x": -1.4322930594,
				"y": 1.0374714212,
				"z": -4.4013728737,
				"element": "O" 
			},
			{
				"x": -0.3439352561,
				"y": -1.0911722812,
				"z": -3.9795966726,
				"element": "C" 
			},
			{
				"x": -1.2259055203,
				"y": -1.2739961897,
				"z": -2.7410559164,
				"element": "C" 
			},
			{
				"x": -0.5984878527,
				"y": -0.7954311933,
				"z": -1.4507304199,
				"element": "C" 
			},
			{
				"x": 0.6981372118,
				"y": -0.4757170215,
				"z": -1.3424072149,
				"element": "C" 
			},
			{
				"x": 1.6601063644,
				"y": -0.5509065671,
				"z": -2.506910921,
				"element": "C" 
			},
			{
				"x": 1.1386929458,
				"y": -1.4088717333,
				"z": -3.6840546776,
				"element": "C" 
			},
			{
				"x": 1.3016747581,
				"y": 0.0164463373,
				"z": -0.0507342002,
				"element": "C" 
			},
			{
				"x": 0.3511202089,
				"y": 0.1077303137,
				"z": 1.116749868,
				"element": "C" 
			},
			{
				"x": -0.938916203,
				"y": -0.2406122356,
				"z": 1.0185915547,
				"element": "C" 
			},
			{
				"x": -1.9034853173,
				"y": -0.1723228408,
				"z": 2.1815720091,
				"element": "C" 
			},
			{
				"x": -1.238639486,
				"y": 0.0471531069,
				"z": 3.543637919,
				"element": "C" 
			},
			{
				"x": -0.0665266997,
				"y": 1.0499604248,
				"z": 3.4587863425,
				"element": "C" 
			},
			{
				"x": 0.9722795855,
				"y": 0.5928079298,
				"z": 2.4074525301,
				"element": "C" 
			},
			{
				"x": 0.63100021,
				"y": 1.2396434851,
				"z": 4.7989472173,
				"element": "C" 
			},
			{
				"x": 1.1357020337,
				"y": 2.3002981314,
				"z": 5.1321188231,
				"element": "O" 
			},
			{
				"x": 0.7391642026,
				"y": 0.0378761215,
				"z": 5.6709512582,
				"element": "C" 
			},
			{
				"x": 0.1022547939,
				"y": -1.1133906498,
				"z": 5.389321447,
				"element": "C" 
			},
			{
				"x": -0.8059897258,
				"y": -1.2567093089,
				"z": 4.2180761957,
				"element": "C" 
			},
			{
				"x": -1.217596534,
				"y": -2.3562701022,
				"z": 3.8851498753,
				"element": "O" 
			},
			{
				"x": -1.5425785975,
				"y": -0.718283807,
				"z": -0.2777663773,
				"element": "C" 
			},
			{
				"x": 2.4084935153,
				"y": 0.2047327621,
				"z": -6.5493883285,
				"element": "H" 
			},
			{
				"x": 0.2957369231,
				"y": 1.5069147853,
				"z": -6.2650421748,
				"element": "H" 
			},
			{
				"x": -0.684581231,
				"y": -1.7898486953,
				"z": -4.759743667,
				"element": "H" 
			},
			{
				"x": -2.1666620843,
				"y": -0.7357031832,
				"z": -2.9067069684,
				"element": "H" 
			},
			{
				"x": -1.4949163188,
				"y": -2.3352214228,
				"z": -2.637273088,
				"element": "H" 
			},
			{
				"x": 2.6197545333,
				"y": -0.9670404465,
				"z": -2.1749449368,
				"element": "H" 
			},
			{
				"x": 1.8890551132,
				"y": 0.468934672,
				"z": -2.8532429563,
				"element": "H" 
			},
			{
				"x": 1.2314585988,
				"y": -2.4636894085,
				"z": -3.4062114133,
				"element": "H" 
			},
			{
				"x": 1.7654312234,
				"y": 1.0041368601,
				"z": -0.219789524,
				"element": "H" 
			},
			{
				"x": 2.152233455,
				"y": -0.6321091552,
				"z": 0.2233355757,
				"element": "H" 
			},
			{
				"x": -2.4808470886,
				"y": -1.1033577296,
				"z": 2.227195477,
				"element": "H" 
			},
			{
				"x": -2.631961377,
				"y": 0.6304751213,
				"z": 1.9967096707,
				"element": "H" 
			},
			{
				"x": -1.9855384304,
				"y": 0.4666310955,
				"z": 4.2357255502,
				"element": "H" 
			},
			{
				"x": -0.4524116811,
				"y": 2.0285343923,
				"z": 3.1555832352,
				"element": "H" 
			},
			{
				"x": 1.608537358,
				"y": -0.2033469554,
				"z": 2.8243272714,
				"element": "H" 
			},
			{
				"x": 1.6510983173,
				"y": 1.4311266344,
				"z": 2.2056653653,
				"element": "H" 
			},
			{
				"x": 1.3784433053,
				"y": 0.1438427222,
				"z": 6.5438716081,
				"element": "H" 
			},
			{
				"x": 0.2219153616,
				"y": -2.0031363922,
				"z": 6.0024154438,
				"element": "H" 
			},
			{
				"x": -2.3937093713,
				"y": -0.0677852592,
				"z": -0.5431033262,
				"element": "H" 
			},
			{
				"x": -2.0033197606,
				"y": -1.7081702912,
				"z": -0.1171103137,
				"element": "H" 
			}
		],
		 "valence_orbital": [ 
			{
				"type": "occ",
				"energy": -0.26234,
				"method": "rhf"
			},
			{
				"type": "occ",
				"energy": -0.25663,
				"method": "rhf"
			},
			{
				"type": "occ",
				"energy": -0.25421,
				"method": "rhf"
			},
			{
				"type": "occ",
				"energy": -0.24171,
				"method": "rhf"
			},
			{
				"type": "occ",
				"energy": -0.22772,
				"method": "rhf"
			},
			{
				"type": "unocc",
				"energy": -0.09749,
				"method": "rhf"
			},
			{
				"type": "unocc",
				"energy": -0.09701,
				"method": "rhf"
			},
			{
				"type": "unocc",
				"energy": -0.01116,
				"method": "rhf"
			},
			{
				"type": "unocc",
				"energy": -0.01001,
				"method": "rhf"
			},
			{
				"type": "unocc",
				"energy": 0.01896,
				"method": "rhf"
			}
		],
		"cosmo_sigma_profile": { 
			"-0.025": 0.0,
			"-0.024": 0.0,
			"-0.023": 0.0,
			"-0.022": 0.0,
			"-0.021": 0.0,
			"-0.02": 0.0,
			"-0.019": 0.0,
			"-0.018": 0.0,
			"-0.017": 0.0,
			"-0.016": 0.0,
			"-0.015": 0.0,
			"-0.014": 0.0,
			"-0.013": 0.0,
			"-0.012": 0.0,
			"-0.011": 0.0,
			"-0.01": 0.0,
			"-0.009": 0.222740001383,
			"-0.008": 8.38634015052,
			"-0.007": 15.5416584962,
			"-0.006": 15.6329396624,
			"-0.005": 22.230298266,
			"-0.004": 42.0223492267,
			"-0.003": 48.1240603391,
			"-0.002": 41.1428734049,
			"-0.001": 32.9608442526,
			"0.0": 20.6727559662,
			"0.001": 13.1526464339,
			"0.002": 8.55632173145,
			"0.003": 8.78981349497,
			"0.004": 12.4434715734,
			"0.005": 11.690428693,
			"0.006": 5.72146003558,
			"0.007": 6.14683165473,
			"0.008": 6.35004960303,
			"0.009": 7.2001533171,
			"0.01": 10.5414330119,
			"0.011": 16.1404789471,
			"0.012": 11.5595697698,
			"0.013": 2.20263326804,
			"0.014": 0.0,
			"0.015": 0.0,
			"0.016": 0.0,
			"0.017": 0.0,
			"0.018": 0.0,
			"0.019": 0.0,
			"0.02": 0.0,
			"0.021": 0.0,
			"0.022": 0.0,
			"0.023": 0.0,
			"0.024": 0.0,
			"0.025": 0.0
		}
	}
}
