{
	 "smiles": "CC(C)=CCCC(C)=C", 
	 "Tm": 203.15, 
	 "num_atms": 25, 
	 "gaussian": { 
		 "optdone": 1, 
		 "sigma_profile": "yes", 
		 "theory": "DFT", 
		 "functional": "B3LYP", 
		 "basiset": "6-31G**", 
		 "properties": { 
			 "R2extent": 1831.8854, 
			 "electric_dipole_moment_norm": 0.677183069782, 
			 "electric_quadrupole_moment_norm": 1.87890090212, 
			 "total_energy": -352.580617201, 
			 "HOMO_LUMO_gap": 0.24989, 
			 "cosmo_polarized_energy": -2.34, 
			 "cosmo_cavitation_energy": 26.89, 
			 "cosmo_dispersion_energy": -18.26, 
			 "cosmo_repulsion_energy": 1.53, 
			 "cosmo_total_nonelectrostatic_energy": 10.16, 
			 "SMD_solvation_energy": 5.45 
		},
		"coords": [
			{
				"x": -2.9190326981,
				"y": -0.8829680503,
				"z": 1.3544286803,
				"element": "C" 
			},
			{
				"x": -1.4284056298,
				"y": -0.8583058218,
				"z": 1.1091660757,
				"element": "C" 
			},
			{
				"x": -0.9343381362,
				"y": -1.9297374456,
				"z": 0.1680203337,
				"element": "C" 
			},
			{
				"x": -0.6496597131,
				"y": 0.0565855478,
				"z": 1.7096685623,
				"element": "C" 
			},
			{
				"x": 0.8438258644,
				"y": 0.2243357382,
				"z": 1.6284920879,
				"element": "C" 
			},
			{
				"x": 1.3251117835,
				"y": 1.6422992693,
				"z": 1.2140584136,
				"element": "C" 
			},
			{
				"x": 1.0726834257,
				"y": 2.0059236886,
				"z": -0.2368816985,
				"element": "C" 
			},
			{
				"x": -0.2998858442,
				"y": 2.522832973,
				"z": -0.5913505534,
				"element": "C" 
			},
			{
				"x": 2.0352669173,
				"y": 1.8748375206,
				"z": -1.1567156334,
				"element": "C" 
			},
			{
				"x": -3.2340050869,
				"y": -0.092838198,
				"z": 2.0417876457,
				"element": "H" 
			},
			{
				"x": -3.2335369103,
				"y": -1.8465014167,
				"z": 1.7776377096,
				"element": "H" 
			},
			{
				"x": -3.476826605,
				"y": -0.7614455659,
				"z": 0.4161700742,
				"element": "H" 
			},
			{
				"x": -1.1441031159,
				"y": -2.9281964918,
				"z": 0.5744792118,
				"element": "H" 
			},
			{
				"x": -1.4616880829,
				"y": -1.8706490403,
				"z": -0.7929837341,
				"element": "H" 
			},
			{
				"x": 0.1360721165,
				"y": -1.8682322122,
				"z": -0.0344318919,
				"element": "H" 
			},
			{
				"x": -1.1445868935,
				"y": 0.7714527522,
				"z": 2.3706106739,
				"element": "H" 
			},
			{
				"x": 1.2650998947,
				"y": 0.0232489633,
				"z": 2.6251564678,
				"element": "H" 
			},
			{
				"x": 1.2939166043,
				"y": -0.508098669,
				"z": 0.9519944043,
				"element": "H" 
			},
			{
				"x": 2.4013715118,
				"y": 1.6980555702,
				"z": 1.4121199833,
				"element": "H" 
			},
			{
				"x": 0.8468118569,
				"y": 2.3824448344,
				"z": 1.8709687892,
				"element": "H" 
			},
			{
				"x": -1.0758608224,
				"y": 1.7974318096,
				"z": -0.3234892428,
				"element": "H" 
			},
			{
				"x": -0.3841359531,
				"y": 2.7450299228,
				"z": -1.6588952016,
				"element": "H" 
			},
			{
				"x": -0.5238572593,
				"y": 3.4415971659,
				"z": -0.0329954897,
				"element": "H" 
			},
			{
				"x": 1.8642273078,
				"y": 2.1174965637,
				"z": -2.2021154955,
				"element": "H" 
			},
			{
				"x": 3.0291354679,
				"y": 1.5191005919,
				"z": -0.8966001723,
				"element": "H" 
			}
		],
		 "valence_orbital": [ 
			{
				"type": "occ",
				"energy": -0.34631,
				"method": "rhf"
			},
			{
				"type": "occ",
				"energy": -0.32222,
				"method": "rhf"
			},
			{
				"type": "occ",
				"energy": -0.3158,
				"method": "rhf"
			},
			{
				"type": "occ",
				"energy": -0.244,
				"method": "rhf"
			},
			{
				"type": "occ",
				"energy": -0.22177,
				"method": "rhf"
			},
			{
				"type": "unocc",
				"energy": 0.02812,
				"method": "rhf"
			},
			{
				"type": "unocc",
				"energy": 0.03162,
				"method": "rhf"
			},
			{
				"type": "unocc",
				"energy": 0.09323,
				"method": "rhf"
			},
			{
				"type": "unocc",
				"energy": 0.1131,
				"method": "rhf"
			},
			{
				"type": "unocc",
				"energy": 0.11924,
				"method": "rhf"
			}
		],
		"cosmo_sigma_profile": { 
			"-0.025": 0.0,
			"-0.024": 0.0,
			"-0.023": 0.0,
			"-0.022": 0.0,
			"-0.021": 0.0,
			"-0.02": 0.0,
			"-0.019": 0.0,
			"-0.018": 0.0,
			"-0.017": 0.0,
			"-0.016": 0.0,
			"-0.015": 0.0,
			"-0.014": 0.0,
			"-0.013": 0.0,
			"-0.012": 0.0,
			"-0.011": 0.0,
			"-0.01": 0.0,
			"-0.009": 0.0,
			"-0.008": 0.0,
			"-0.007": 0.0,
			"-0.006": 0.0,
			"-0.005": 0.297295836632,
			"-0.004": 5.69057121103,
			"-0.003": 27.7199730396,
			"-0.002": 32.1735289917,
			"-0.001": 31.7978206749,
			"0.0": 32.4715955506,
			"0.001": 32.3770452025,
			"0.002": 16.6128876224,
			"0.003": 9.11776516144,
			"0.004": 7.63713657594,
			"0.005": 4.82207199832,
			"0.006": 4.35764893586,
			"0.007": 3.24641549838,
			"0.008": 0.776042930687,
			"0.009": 0.0,
			"0.01": 0.0,
			"0.011": 0.0,
			"0.012": 0.0,
			"0.013": 0.0,
			"0.014": 0.0,
			"0.015": 0.0,
			"0.016": 0.0,
			"0.017": 0.0,
			"0.018": 0.0,
			"0.019": 0.0,
			"0.02": 0.0,
			"0.021": 0.0,
			"0.022": 0.0,
			"0.023": 0.0,
			"0.024": 0.0,
			"0.025": 0.0
		}
	}
}
