{
	 "smiles": "ClS(=O)(=O)CC1=C(C=CC=C1)C#N", 
	 "Tm": 359.15, 
	 "num_atms": 19, 
	 "gaussian": { 
		 "optdone": 1, 
		 "sigma_profile": "yes", 
		 "theory": "DFT", 
		 "functional": "B3LYP", 
		 "basiset": "6-31G**", 
		 "properties": { 
			 "R2extent": 3687.1423, 
			 "electric_dipole_moment_norm": 5.9642771842, 
			 "electric_quadrupole_moment_norm": 12.5992754248, 
			 "total_energy": -1371.9641889, 
			 "HOMO_LUMO_gap": 0.19083, 
			 "cosmo_polarized_energy": -15.28, 
			 "cosmo_cavitation_energy": 27.74, 
			 "cosmo_dispersion_energy": -19.7, 
			 "cosmo_repulsion_energy": 1.52, 
			 "cosmo_total_nonelectrostatic_energy": 9.55, 
			 "SMD_solvation_energy": 4.51 
		},
		"coords": [
			{
				"x": 2.9696111853,
				"y": 0.5232017727,
				"z": 2.2928571545,
				"element": "Cl" 
			},
			{
				"x": 1.1823989625,
				"y": -0.4051579978,
				"z": 2.956995592,
				"element": "S" 
			},
			{
				"x": 0.2955285616,
				"y": 0.6538500164,
				"z": 3.4262787032,
				"element": "O" 
			},
			{
				"x": 1.5584801425,
				"y": -1.5218300054,
				"z": 3.814055248,
				"element": "O" 
			},
			{
				"x": 0.5371151475,
				"y": -1.1030740024,
				"z": 1.3799009012,
				"element": "C" 
			},
			{
				"x": 0.201536753,
				"y": -0.0895563924,
				"z": 0.3267474195,
				"element": "C" 
			},
			{
				"x": 0.9406886491,
				"y": -0.0212247135,
				"z": -0.8768464896,
				"element": "C" 
			},
			{
				"x": 0.6072162235,
				"y": 0.921949177,
				"z": -1.8622325496,
				"element": "C" 
			},
			{
				"x": -0.4512390805,
				"y": 1.8010840039,
				"z": -1.6551649866,
				"element": "C" 
			},
			{
				"x": -1.1861183214,
				"y": 1.7389413504,
				"z": -0.4694427614,
				"element": "C" 
			},
			{
				"x": -0.8631484386,
				"y": 0.8000608242,
				"z": 0.509006488,
				"element": "C" 
			},
			{
				"x": 2.0233536557,
				"y": -0.9291068534,
				"z": -1.1246730944,
				"element": "C" 
			},
			{
				"x": 2.8910012792,
				"y": -1.6762351081,
				"z": -1.3307848945,
				"element": "N" 
			},
			{
				"x": -0.3466118444,
				"y": -1.6436454939,
				"z": 1.7355384348,
				"element": "H" 
			},
			{
				"x": 1.2915607475,
				"y": -1.8260271103,
				"z": 1.0651929613,
				"element": "H" 
			},
			{
				"x": 1.1837519958,
				"y": 0.9537046717,
				"z": -2.7802688837,
				"element": "H" 
			},
			{
				"x": -0.7035593844,
				"y": 2.5301188227,
				"z": -2.4185056666,
				"element": "H" 
			},
			{
				"x": -2.0133707797,
				"y": 2.4220459299,
				"z": -0.3046725812,
				"element": "H" 
			},
			{
				"x": -1.4290954541,
				"y": 0.7659011082,
				"z": 1.4337190052,
				"element": "H" 
			}
		],
		 "valence_orbital": [ 
			{
				"type": "occ",
				"energy": -0.34384,
				"method": "rhf"
			},
			{
				"type": "occ",
				"energy": -0.33795,
				"method": "rhf"
			},
			{
				"type": "occ",
				"energy": -0.32069,
				"method": "rhf"
			},
			{
				"type": "occ",
				"energy": -0.29022,
				"method": "rhf"
			},
			{
				"type": "occ",
				"energy": -0.28397,
				"method": "rhf"
			},
			{
				"type": "unocc",
				"energy": -0.09314,
				"method": "rhf"
			},
			{
				"type": "unocc",
				"energy": -0.06929,
				"method": "rhf"
			},
			{
				"type": "unocc",
				"energy": -0.04832,
				"method": "rhf"
			},
			{
				"type": "unocc",
				"energy": 0.01587,
				"method": "rhf"
			},
			{
				"type": "unocc",
				"energy": 0.04412,
				"method": "rhf"
			}
		],
		"cosmo_sigma_profile": { 
			"-0.025": 0.0,
			"-0.024": 0.0,
			"-0.023": 0.0,
			"-0.022": 0.0,
			"-0.021": 0.0,
			"-0.02": 0.0,
			"-0.019": 0.0,
			"-0.018": 0.0,
			"-0.017": 0.0,
			"-0.016": 0.0,
			"-0.015": 0.0,
			"-0.014": 0.0,
			"-0.013": 0.870233000957,
			"-0.012": 1.93130640655,
			"-0.011": 2.45467420767,
			"-0.01": 3.18905838602,
			"-0.009": 3.87049001895,
			"-0.008": 9.73407659786,
			"-0.007": 13.3341374777,
			"-0.006": 12.0560929573,
			"-0.005": 9.26292525202,
			"-0.004": 8.93373480655,
			"-0.003": 8.64489277429,
			"-0.002": 11.2001769117,
			"-0.001": 13.7159102057,
			"0.0": 17.3873996262,
			"0.001": 21.2645044188,
			"0.002": 17.6571262573,
			"0.003": 16.254074518,
			"0.004": 6.24379350259,
			"0.005": 5.71762547972,
			"0.006": 4.75343608173,
			"0.007": 8.88755405645,
			"0.008": 13.1345839772,
			"0.009": 7.84275509062,
			"0.01": 2.97801888989,
			"0.011": 2.44360999732,
			"0.012": 2.16346978074,
			"0.013": 0.509618671101,
			"0.014": 0.0,
			"0.015": 0.0,
			"0.016": 0.0,
			"0.017": 0.0,
			"0.018": 0.0,
			"0.019": 0.0,
			"0.02": 0.0,
			"0.021": 0.0,
			"0.022": 0.0,
			"0.023": 0.0,
			"0.024": 0.0,
			"0.025": 0.0
		}
	}
}
