{
	 "smiles": "CC(OC1=CC(=CC=C1)C(C)=O)C(O)=O", 
	 "Tm": 367.15, 
	 "num_atms": 27, 
	 "gaussian": { 
		 "optdone": 1, 
		 "sigma_profile": "yes", 
		 "theory": "DFT", 
		 "functional": "B3LYP", 
		 "basiset": "6-31G**", 
		 "properties": { 
			 "R2extent": 3893.3312, 
			 "electric_dipole_moment_norm": 4.5389441856, 
			 "electric_quadrupole_moment_norm": 15.9657948127, 
			 "total_energy": -727.302989162, 
			 "HOMO_LUMO_gap": 0.18892, 
			 "cosmo_polarized_energy": -14.58, 
			 "cosmo_cavitation_energy": 31.38, 
			 "cosmo_dispersion_energy": -21.74, 
			 "cosmo_repulsion_energy": 1.71, 
			 "cosmo_total_nonelectrostatic_energy": 11.35, 
			 "SMD_solvation_energy": 7.35 
		},
		"coords": [
			{
				"x": 1.5102624746,
				"y": 1.5908346483,
				"z": 0.5858195632,
				"element": "C" 
			},
			{
				"x": 1.7689060072,
				"y": 0.2143440744,
				"z": 1.2107367174,
				"element": "C" 
			},
			{
				"x": 0.6049549377,
				"y": -0.5792422771,
				"z": 1.4133242403,
				"element": "O" 
			},
			{
				"x": -0.4510179492,
				"y": -0.5336673331,
				"z": 0.5177281896,
				"element": "C" 
			},
			{
				"x": -0.3616652651,
				"y": -1.0734252031,
				"z": -0.7677305229,
				"element": "C" 
			},
			{
				"x": -1.485963784,
				"y": -1.0610318046,
				"z": -1.6061602622,
				"element": "C" 
			},
			{
				"x": -2.6956283239,
				"y": -0.5196008847,
				"z": -1.144698779,
				"element": "C" 
			},
			{
				"x": -2.7803832187,
				"y": -0.001355249,
				"z": 0.1437682696,
				"element": "C" 
			},
			{
				"x": -1.6594398265,
				"y": -0.0031731251,
				"z": 0.9773216768,
				"element": "C" 
			},
			{
				"x": -1.4476457596,
				"y": -1.625207316,
				"z": -2.9973562132,
				"element": "C" 
			},
			{
				"x": -0.1580122945,
				"y": -2.2518353138,
				"z": -3.4987577264,
				"element": "C" 
			},
			{
				"x": -2.4379362522,
				"y": -1.5823653053,
				"z": -3.7121099818,
				"element": "O" 
			},
			{
				"x": 2.8483897466,
				"y": -0.5472551407,
				"z": 0.4335896919,
				"element": "C" 
			},
			{
				"x": 4.0559592057,
				"y": 0.033285564,
				"z": 0.6299227067,
				"element": "O" 
			},
			{
				"x": 2.6979406053,
				"y": -1.5226604215,
				"z": -0.2658850553,
				"element": "O" 
			},
			{
				"x": 1.1428503349,
				"y": 1.5040950304,
				"z": -0.4396554892,
				"element": "H" 
			},
			{
				"x": 2.4370280491,
				"y": 2.1690627585,
				"z": 0.5788874077,
				"element": "H" 
			},
			{
				"x": 0.7633617294,
				"y": 2.128644092,
				"z": 1.1751694683,
				"element": "H" 
			},
			{
				"x": 2.1767254468,
				"y": 0.3620607106,
				"z": 2.2170576405,
				"element": "H" 
			},
			{
				"x": 0.5800394076,
				"y": -1.5080355883,
				"z": -1.0779791764,
				"element": "H" 
			},
			{
				"x": -3.54988568,
				"y": -0.5258370813,
				"z": -1.8126408898,
				"element": "H" 
			},
			{
				"x": -3.7182705116,
				"y": 0.4098560093,
				"z": 0.5056943887,
				"element": "H" 
			},
			{
				"x": -1.7057505073,
				"y": 0.3923523944,
				"z": 1.9870757233,
				"element": "H" 
			},
			{
				"x": 0.1407996935,
				"y": -3.0940926191,
				"z": -2.8652650733,
				"element": "H" 
			},
			{
				"x": 0.6653935077,
				"y": -1.5296534751,
				"z": -3.4812531841,
				"element": "H" 
			},
			{
				"x": -0.3140965723,
				"y": -2.6012415877,
				"z": -4.5197062517,
				"element": "H" 
			},
			{
				"x": 4.6962847989,
				"y": -0.4773555564,
				"z": 0.1061029213,
				"element": "H" 
			}
		],
		 "valence_orbital": [ 
			{
				"type": "occ",
				"energy": -0.3059,
				"method": "rhf"
			},
			{
				"type": "occ",
				"energy": -0.28216,
				"method": "rhf"
			},
			{
				"type": "occ",
				"energy": -0.25912,
				"method": "rhf"
			},
			{
				"type": "occ",
				"energy": -0.24357,
				"method": "rhf"
			},
			{
				"type": "occ",
				"energy": -0.24058,
				"method": "rhf"
			},
			{
				"type": "unocc",
				"energy": -0.05166,
				"method": "rhf"
			},
			{
				"type": "unocc",
				"energy": -0.00924,
				"method": "rhf"
			},
			{
				"type": "unocc",
				"energy": -0.00518,
				"method": "rhf"
			},
			{
				"type": "unocc",
				"energy": 0.04312,
				"method": "rhf"
			},
			{
				"type": "unocc",
				"energy": 0.06238,
				"method": "rhf"
			}
		],
		"cosmo_sigma_profile": { 
			"-0.025": 0.0,
			"-0.024": 0.0,
			"-0.023": 0.0,
			"-0.022": 0.0,
			"-0.021": 0.0,
			"-0.02": 0.0,
			"-0.019": 0.256619792772,
			"-0.018": 1.25837508606,
			"-0.017": 0.683696821796,
			"-0.016": 0.777433132774,
			"-0.015": 0.556987105401,
			"-0.014": 0.57712805192,
			"-0.013": 0.443816987458,
			"-0.012": 0.999012555315,
			"-0.011": 1.5643597086,
			"-0.01": 0.338616952499,
			"-0.009": 0.349000316055,
			"-0.008": 1.37081715422,
			"-0.007": 4.40942310533,
			"-0.006": 11.0731702191,
			"-0.005": 19.846397825,
			"-0.004": 22.6927983541,
			"-0.003": 21.574321309,
			"-0.002": 22.4907185848,
			"-0.001": 21.1780772712,
			"0.0": 15.5397957284,
			"0.001": 12.1537368223,
			"0.002": 13.8656565482,
			"0.003": 17.2141991465,
			"0.004": 10.8096496319,
			"0.005": 5.67032394296,
			"0.006": 6.61722962041,
			"0.007": 4.31818896849,
			"0.008": 4.81931241309,
			"0.009": 6.93510122474,
			"0.01": 6.35602047486,
			"0.011": 6.12093234705,
			"0.012": 4.27509407297,
			"0.013": 1.47124132693,
			"0.014": 0.150352635738,
			"0.015": 0.0,
			"0.016": 0.0,
			"0.017": 0.0,
			"0.018": 0.0,
			"0.019": 0.0,
			"0.02": 0.0,
			"0.021": 0.0,
			"0.022": 0.0,
			"0.023": 0.0,
			"0.024": 0.0,
			"0.025": 0.0
		}
	}
}
