{
	 "smiles": "C1CC(CCN1)N1CCN2C=CN=C2C1", 
	 "Tm": 337.15, 
	 "num_atms": 33, 
	 "gaussian": { 
		 "optdone": 1, 
		 "sigma_profile": "yes", 
		 "theory": "DFT", 
		 "functional": "B3LYP", 
		 "basiset": "6-31G**", 
		 "properties": { 
			 "R2extent": 6410.8877, 
			 "electric_dipole_moment_norm": 4.30953498303, 
			 "electric_quadrupole_moment_norm": 18.6567896737, 
			 "total_energy": -649.006386374, 
			 "HOMO_LUMO_gap": 0.2457, 
			 "cosmo_polarized_energy": -13.96, 
			 "cosmo_cavitation_energy": 32.23, 
			 "cosmo_dispersion_energy": -24.2, 
			 "cosmo_repulsion_energy": 1.86, 
			 "cosmo_total_nonelectrostatic_energy": 9.89, 
			 "SMD_solvation_energy": -1.54 
		},
		"coords": [
			{
				"x": 1.3002041319,
				"y": -0.5831555118,
				"z": -2.1353657486,
				"element": "C" 
			},
			{
				"x": 0.030715106,
				"y": 0.2630689311,
				"z": -1.9906800729,
				"element": "C" 
			},
			{
				"x": 0.1719757591,
				"y": 1.3200817302,
				"z": -0.8751442728,
				"element": "C" 
			},
			{
				"x": 0.6130365401,
				"y": 0.6069067409,
				"z": 0.4180612754,
				"element": "C" 
			},
			{
				"x": 1.8604530832,
				"y": -0.2535358207,
				"z": 0.1850758658,
				"element": "C" 
			},
			{
				"x": 1.6053450875,
				"y": -1.2353130388,
				"z": -0.8651855471,
				"element": "N" 
			},
			{
				"x": -1.0933886466,
				"y": 2.0665227291,
				"z": -0.6952854367,
				"element": "N" 
			},
			{
				"x": -1.416873731,
				"y": 2.9169720083,
				"z": -1.8446532281,
				"element": "C" 
			},
			{
				"x": -2.8832100569,
				"y": 3.3463389022,
				"z": -1.7930470974,
				"element": "C" 
			},
			{
				"x": -3.1594265829,
				"y": 3.920868074,
				"z": -0.4855006266,
				"element": "N" 
			},
			{
				"x": -4.2322670246,
				"y": 4.6870744231,
				"z": -0.0701753348,
				"element": "C" 
			},
			{
				"x": -4.0369281894,
				"y": 4.8788241337,
				"z": 1.2755562968,
				"element": "C" 
			},
			{
				"x": -2.8878544415,
				"y": 4.2482642014,
				"z": 1.6996913938,
				"element": "N" 
			},
			{
				"x": -2.3918907477,
				"y": 3.6795713652,
				"z": 0.6177946764,
				"element": "C" 
			},
			{
				"x": -1.1222070624,
				"y": 2.8853336961,
				"z": 0.5268945183,
				"element": "C" 
			},
			{
				"x": 1.143900334,
				"y": -1.3520414317,
				"z": -2.8999983725,
				"element": "H" 
			},
			{
				"x": 2.1256207517,
				"y": 0.0661352591,
				"z": -2.4918800067,
				"element": "H" 
			},
			{
				"x": -0.8143237471,
				"y": -0.388346465,
				"z": -1.7416181899,
				"element": "H" 
			},
			{
				"x": -0.1826182619,
				"y": 0.7279895514,
				"z": -2.9585004121,
				"element": "H" 
			},
			{
				"x": 0.9862085509,
				"y": 2.0201688732,
				"z": -1.1596557249,
				"element": "H" 
			},
			{
				"x": 0.8406937936,
				"y": 1.3292485843,
				"z": 1.207301729,
				"element": "H" 
			},
			{
				"x": -0.2060582961,
				"y": -0.0315469911,
				"z": 0.7700487165,
				"element": "H" 
			},
			{
				"x": 2.1159940841,
				"y": -0.7825113668,
				"z": 1.1096589131,
				"element": "H" 
			},
			{
				"x": 2.7131822056,
				"y": 0.4142102046,
				"z": -0.0529432044,
				"element": "H" 
			},
			{
				"x": 2.4082554599,
				"y": -1.8489624015,
				"z": -0.9712061079,
				"element": "H" 
			},
			{
				"x": -0.7684676963,
				"y": 3.8144788731,
				"z": -1.8863805299,
				"element": "H" 
			},
			{
				"x": -1.2635818271,
				"y": 2.3651115768,
				"z": -2.7726897046,
				"element": "H" 
			},
			{
				"x": -3.0900105066,
				"y": 4.0899135488,
				"z": -2.5702935093,
				"element": "H" 
			},
			{
				"x": -3.531271645,
				"y": 2.4780879042,
				"z": -1.9614547581,
				"element": "H" 
			},
			{
				"x": -5.0046413934,
				"y": 5.0076845981,
				"z": -0.7527229324,
				"element": "H" 
			},
			{
				"x": -4.6587653404,
				"y": 5.4369961595,
				"z": 1.9621763502,
				"element": "H" 
			},
			{
				"x": -1.0699365786,
				"y": 2.2492476762,
				"z": 1.4115570202,
				"element": "H" 
			},
			{
				"x": -0.255663112,
				"y": 3.5772132829,
				"z": 0.5738640623,
				"element": "H" 
			}
		],
		 "valence_orbital": [ 
			{
				"type": "occ",
				"energy": -0.25742,
				"method": "rhf"
			},
			{
				"type": "occ",
				"energy": -0.25232,
				"method": "rhf"
			},
			{
				"type": "occ",
				"energy": -0.22674,
				"method": "rhf"
			},
			{
				"type": "occ",
				"energy": -0.22038,
				"method": "rhf"
			},
			{
				"type": "occ",
				"energy": -0.2084,
				"method": "rhf"
			},
			{
				"type": "unocc",
				"energy": 0.0373,
				"method": "rhf"
			},
			{
				"type": "unocc",
				"energy": 0.074,
				"method": "rhf"
			},
			{
				"type": "unocc",
				"energy": 0.07542,
				"method": "rhf"
			},
			{
				"type": "unocc",
				"energy": 0.09199,
				"method": "rhf"
			},
			{
				"type": "unocc",
				"energy": 0.10677,
				"method": "rhf"
			}
		],
		"cosmo_sigma_profile": { 
			"-0.025": 0.0,
			"-0.024": 0.0,
			"-0.023": 0.0,
			"-0.022": 0.0,
			"-0.021": 0.0,
			"-0.02": 0.0,
			"-0.019": 0.0,
			"-0.018": 0.0,
			"-0.017": 0.0,
			"-0.016": 0.0,
			"-0.015": 0.0,
			"-0.014": 0.0,
			"-0.013": 0.0,
			"-0.012": 0.0,
			"-0.011": 0.0,
			"-0.01": 0.694630453923,
			"-0.009": 1.45685782995,
			"-0.008": 2.39285564218,
			"-0.007": 4.22780523762,
			"-0.006": 9.46250698803,
			"-0.005": 15.0907364404,
			"-0.004": 20.4161646672,
			"-0.003": 31.6467594626,
			"-0.002": 33.3566390182,
			"-0.001": 38.2228943103,
			"0.0": 19.2222139791,
			"0.001": 10.4469366686,
			"0.002": 7.53872079804,
			"0.003": 6.68009978016,
			"0.004": 6.82242340166,
			"0.005": 6.25968117366,
			"0.006": 7.80714009357,
			"0.007": 4.19467287521,
			"0.008": 3.49396469394,
			"0.009": 3.4682620918,
			"0.01": 2.84783027808,
			"0.011": 1.93894968865,
			"0.012": 2.15079439319,
			"0.013": 2.82570758173,
			"0.014": 0.911245726181,
			"0.015": 1.70991504538,
			"0.016": 1.96405355827,
			"0.017": 1.34447009408,
			"0.018": 1.41323864864,
			"0.019": 0.564690668776,
			"0.02": 0.0,
			"0.021": 0.0,
			"0.022": 0.0,
			"0.023": 0.0,
			"0.024": 0.0,
			"0.025": 0.0
		}
	}
}
