{
	 "smiles": "COP(=O)(OC)OC1=C(Cl)C=C(Cl)C(Cl)=N1", 
	 "Tm": 360.15, 
	 "num_atms": 23, 
	 "gaussian": { 
		 "optdone": 1, 
		 "sigma_profile": "yes", 
		 "theory": "DFT", 
		 "functional": "B3LYP", 
		 "basiset": "6-31G**", 
		 "properties": { 
			 "R2extent": 6314.3063, 
			 "electric_dipole_moment_norm": 2.36566266615, 
			 "electric_quadrupole_moment_norm": 11.4969162953, 
			 "total_energy": -2348.59099338, 
			 "HOMO_LUMO_gap": 0.19783, 
			 "cosmo_polarized_energy": -12.65, 
			 "cosmo_cavitation_energy": 35.22, 
			 "cosmo_dispersion_energy": -24.95, 
			 "cosmo_repulsion_energy": 1.94, 
			 "cosmo_total_nonelectrostatic_energy": 12.21, 
			 "SMD_solvation_energy": 8.05 
		},
		"coords": [
			{
				"x": 1.6547527852,
				"y": -2.7693982082,
				"z": 0.201835216,
				"element": "C" 
			},
			{
				"x": 0.4525374699,
				"y": -2.2518419795,
				"z": 0.8179565355,
				"element": "O" 
			},
			{
				"x": 0.4693035841,
				"y": -0.7984262911,
				"z": 1.467471104,
				"element": "P" 
			},
			{
				"x": 1.5547999824,
				"y": -0.4382836447,
				"z": 2.3963280123,
				"element": "O" 
			},
			{
				"x": -1.0359889307,
				"y": -0.7640130058,
				"z": 2.0043590623,
				"element": "O" 
			},
			{
				"x": -1.3741643815,
				"y": 0.104789142,
				"z": 3.1085687609,
				"element": "C" 
			},
			{
				"x": 0.4766644851,
				"y": 0.2738863033,
				"z": 0.2036474074,
				"element": "O" 
			},
			{
				"x": -0.3243878839,
				"y": 0.2139003091,
				"z": -0.8933267103,
				"element": "C" 
			},
			{
				"x": -1.2492217294,
				"y": 1.2426011883,
				"z": -1.1363214909,
				"element": "C" 
			},
			{
				"x": -1.4599613807,
				"y": 2.5534388633,
				"z": -0.0118743445,
				"element": "Cl" 
			},
			{
				"x": -1.9981274242,
				"y": 1.1952276972,
				"z": -2.3069417661,
				"element": "C" 
			},
			{
				"x": -1.814479323,
				"y": 0.1364375318,
				"z": -3.1967972125,
				"element": "C" 
			},
			{
				"x": -2.7521165493,
				"y": 0.0737855664,
				"z": -4.6592416691,
				"element": "Cl" 
			},
			{
				"x": -0.8638991842,
				"y": -0.8393813295,
				"z": -2.8618751427,
				"element": "C" 
			},
			{
				"x": -0.5593227441,
				"y": -2.1964970075,
				"z": -3.9159559778,
				"element": "Cl" 
			},
			{
				"x": -0.1503808369,
				"y": -0.7819907579,
				"z": -1.7505428244,
				"element": "N" 
			},
			{
				"x": 1.7664646293,
				"y": -2.3361706465,
				"z": -0.7940805823,
				"element": "H" 
			},
			{
				"x": 2.5263666383,
				"y": -2.5513017815,
				"z": 0.8238850189,
				"element": "H" 
			},
			{
				"x": 1.5116583245,
				"y": -3.8473564233,
				"z": 0.126301574,
				"element": "H" 
			},
			{
				"x": -0.5819010229,
				"y": 0.0959460338,
				"z": 3.8598087354,
				"element": "H" 
			},
			{
				"x": -2.3000601594,
				"y": -0.2884826927,
				"z": 3.5291002844,
				"element": "H" 
			},
			{
				"x": -1.5343558313,
				"y": 1.1236165873,
				"z": 2.7459722356,
				"element": "H" 
			},
			{
				"x": -2.7207805173,
				"y": 1.9720145456,
				"z": -2.5266762259,
				"element": "H" 
			}
		],
		 "valence_orbital": [ 
			{
				"type": "occ",
				"energy": -0.31033,
				"method": "rhf"
			},
			{
				"type": "occ",
				"energy": -0.30472,
				"method": "rhf"
			},
			{
				"type": "occ",
				"energy": -0.3016,
				"method": "rhf"
			},
			{
				"type": "occ",
				"energy": -0.29918,
				"method": "rhf"
			},
			{
				"type": "occ",
				"energy": -0.26273,
				"method": "rhf"
			},
			{
				"type": "unocc",
				"energy": -0.0649,
				"method": "rhf"
			},
			{
				"type": "unocc",
				"energy": -0.04941,
				"method": "rhf"
			},
			{
				"type": "unocc",
				"energy": -0.01623,
				"method": "rhf"
			},
			{
				"type": "unocc",
				"energy": 0.01258,
				"method": "rhf"
			},
			{
				"type": "unocc",
				"energy": 0.04243,
				"method": "rhf"
			}
		],
		"cosmo_sigma_profile": { 
			"-0.025": 0.0,
			"-0.024": 0.0,
			"-0.023": 0.0,
			"-0.022": 0.0,
			"-0.021": 0.0,
			"-0.02": 0.0,
			"-0.019": 0.0,
			"-0.018": 0.0,
			"-0.017": 0.0,
			"-0.016": 0.0,
			"-0.015": 0.0,
			"-0.014": 0.0,
			"-0.013": 0.0,
			"-0.012": 0.0,
			"-0.011": 0.502434747801,
			"-0.01": 1.86397205674,
			"-0.009": 1.29485326231,
			"-0.008": 1.89029812013,
			"-0.007": 6.4048748346,
			"-0.006": 9.75034880286,
			"-0.005": 18.1333702084,
			"-0.004": 30.58185061,
			"-0.003": 28.791641265,
			"-0.002": 25.999508459,
			"-0.001": 21.8855243147,
			"0.0": 16.7783310343,
			"0.001": 20.3618949165,
			"0.002": 22.3626417992,
			"0.003": 30.3842127503,
			"0.004": 14.4173060428,
			"0.005": 5.06690247141,
			"0.006": 4.18144708217,
			"0.007": 5.19280315553,
			"0.008": 3.95011542471,
			"0.009": 4.2631649085,
			"0.01": 2.14219008035,
			"0.011": 1.00436556069,
			"0.012": 2.61836343371,
			"0.013": 6.15100997442,
			"0.014": 1.11380271194,
			"0.015": 0.0,
			"0.016": 0.0,
			"0.017": 0.0,
			"0.018": 0.0,
			"0.019": 0.0,
			"0.02": 0.0,
			"0.021": 0.0,
			"0.022": 0.0,
			"0.023": 0.0,
			"0.024": 0.0,
			"0.025": 0.0
		}
	}
}
