{
	 "smiles": "N1N=NC(=N1)C1=CC2=C(O1)C=CC=C2", 
	 "Tm": 486.15, 
	 "num_atms": 20, 
	 "gaussian": { 
		 "optdone": 1, 
		 "sigma_profile": "yes", 
		 "theory": "DFT", 
		 "functional": "B3LYP", 
		 "basiset": "6-31G**", 
		 "properties": { 
			 "R2extent": 3252.4495, 
			 "electric_dipole_moment_norm": 2.74227396698, 
			 "electric_quadrupole_moment_norm": 18.5226793534, 
			 "total_energy": -640.739525136, 
			 "HOMO_LUMO_gap": 0.16895, 
			 "cosmo_polarized_energy": -14.07, 
			 "cosmo_cavitation_energy": 25.74, 
			 "cosmo_dispersion_energy": -19.52, 
			 "cosmo_repulsion_energy": 1.51, 
			 "cosmo_total_nonelectrostatic_energy": 7.74, 
			 "SMD_solvation_energy": 2.18 
		},
		"coords": [
			{
				"x": -2.0192174931,
				"y": -3.0001497125,
				"z": -0.4508439476,
				"element": "N" 
			},
			{
				"x": -2.2344356575,
				"y": -2.4990568101,
				"z": -1.663566409,
				"element": "N" 
			},
			{
				"x": -1.5187936553,
				"y": -1.4071832131,
				"z": -1.7262838885,
				"element": "N" 
			},
			{
				"x": -0.8862667098,
				"y": -1.2914335109,
				"z": -0.5209661121,
				"element": "C" 
			},
			{
				"x": -1.1898207443,
				"y": -2.2953667697,
				"z": 0.308653126,
				"element": "N" 
			},
			{
				"x": 0.0126509123,
				"y": -0.2142722469,
				"z": -0.1627551041,
				"element": "C" 
			},
			{
				"x": 0.709027032,
				"y": 0.0344307759,
				"z": 0.9839990936,
				"element": "C" 
			},
			{
				"x": 1.4341350118,
				"y": 1.2535629908,
				"z": 0.7537970235,
				"element": "C" 
			},
			{
				"x": 1.0991171332,
				"y": 1.6462189843,
				"z": -0.5579092661,
				"element": "C" 
			},
			{
				"x": 0.2314332193,
				"y": 0.7501808978,
				"z": -1.1173462752,
				"element": "O" 
			},
			{
				"x": 1.5959404451,
				"y": 2.789618387,
				"z": -1.1723343826,
				"element": "C" 
			},
			{
				"x": 2.4721911853,
				"y": 3.5658681381,
				"z": -0.4161193467,
				"element": "C" 
			},
			{
				"x": 2.8282206619,
				"y": 3.202219373,
				"z": 0.8982675955,
				"element": "C" 
			},
			{
				"x": 2.3199118198,
				"y": 2.0537128323,
				"z": 1.495149765,
				"element": "C" 
			},
			{
				"x": -2.4565387773,
				"y": -3.8550240947,
				"z": -0.1337573776,
				"element": "H" 
			},
			{
				"x": 0.6989879627,
				"y": -0.5793336609,
				"z": 1.8727726452,
				"element": "H" 
			},
			{
				"x": 1.3114664991,
				"y": 3.0545765961,
				"z": -2.1845785606,
				"element": "H" 
			},
			{
				"x": 2.8892756341,
				"y": 4.4699575482,
				"z": -0.8491016829,
				"element": "H" 
			},
			{
				"x": 3.5143092976,
				"y": 3.8348869798,
				"z": 1.4534037996,
				"element": "H" 
			},
			{
				"x": 2.6000062231,
				"y": 1.7816865155,
				"z": 2.5083193045,
				"element": "H" 
			}
		],
		 "valence_orbital": [ 
			{
				"type": "occ",
				"energy": -0.32794,
				"method": "rhf"
			},
			{
				"type": "occ",
				"energy": -0.29816,
				"method": "rhf"
			},
			{
				"type": "occ",
				"energy": -0.29135,
				"method": "rhf"
			},
			{
				"type": "occ",
				"energy": -0.24201,
				"method": "rhf"
			},
			{
				"type": "occ",
				"energy": -0.22095,
				"method": "rhf"
			},
			{
				"type": "unocc",
				"energy": -0.052,
				"method": "rhf"
			},
			{
				"type": "unocc",
				"energy": -0.02951,
				"method": "rhf"
			},
			{
				"type": "unocc",
				"energy": 0.0062,
				"method": "rhf"
			},
			{
				"type": "unocc",
				"energy": 0.02404,
				"method": "rhf"
			},
			{
				"type": "unocc",
				"energy": 0.05925,
				"method": "rhf"
			}
		],
		"cosmo_sigma_profile": { 
			"-0.025": 0.0,
			"-0.024": 0.0,
			"-0.023": 0.0,
			"-0.022": 0.0,
			"-0.021": 0.0,
			"-0.02": 1.15084120837,
			"-0.019": 1.9268326594,
			"-0.018": 1.3722056073,
			"-0.017": 1.15586748963,
			"-0.016": 0.860424881431,
			"-0.015": 1.20052118424,
			"-0.014": 0.424625684636,
			"-0.013": 0.569217445309,
			"-0.012": 0.846498109348,
			"-0.011": 0.921684489299,
			"-0.01": 0.753800894422,
			"-0.009": 0.859350579661,
			"-0.008": 1.8866335773,
			"-0.007": 4.41739944648,
			"-0.006": 9.91174382019,
			"-0.005": 12.946833017,
			"-0.004": 12.9337370465,
			"-0.003": 11.6725838173,
			"-0.002": 11.480978619,
			"-0.001": 13.0335590943,
			"0.0": 15.0037495347,
			"0.001": 16.0448907966,
			"0.002": 16.5513572751,
			"0.003": 16.2148895022,
			"0.004": 13.1844500987,
			"0.005": 11.1240268919,
			"0.006": 4.18922088897,
			"0.007": 4.42181937008,
			"0.008": 5.72504915615,
			"0.009": 4.75110040458,
			"0.01": 4.18837949236,
			"0.011": 3.23504205846,
			"0.012": 1.91587011023,
			"0.013": 0.830735659601,
			"0.014": 0.93600577031,
			"0.015": 0.0,
			"0.016": 0.0,
			"0.017": 0.0,
			"0.018": 0.0,
			"0.019": 0.0,
			"0.02": 0.0,
			"0.021": 0.0,
			"0.022": 0.0,
			"0.023": 0.0,
			"0.024": 0.0,
			"0.025": 0.0
		}
	}
}
