{
	 "smiles": "O=C1NC=CC(=O)N1", 
	 "Tm": 611.15, 
	 "num_atms": 12, 
	 "gaussian": { 
		 "optdone": 1, 
		 "sigma_profile": "yes", 
		 "theory": "DFT", 
		 "functional": "B3LYP", 
		 "basiset": "6-31G**", 
		 "properties": { 
			 "R2extent": 1220.0989, 
			 "electric_dipole_moment_norm": 4.24332301387, 
			 "electric_quadrupole_moment_norm": 16.3129816303, 
			 "total_energy": -414.81778997, 
			 "HOMO_LUMO_gap": 0.20934, 
			 "cosmo_polarized_energy": -17.37, 
			 "cosmo_cavitation_energy": 16.81, 
			 "cosmo_dispersion_energy": -12.88, 
			 "cosmo_repulsion_energy": 1.08, 
			 "cosmo_total_nonelectrostatic_energy": 5.01, 
			 "SMD_solvation_energy": 5.06 
		},
		"coords": [
			{
				"x": 1.6453601001,
				"y": -1.394349319,
				"z": 0.8265380607,
				"element": "O" 
			},
			{
				"x": 0.5860858483,
				"y": -1.3233925891,
				"z": 0.2322368465,
				"element": "C" 
			},
			{
				"x": 0.4840662391,
				"y": -1.4788540153,
				"z": -1.1505549564,
				"element": "N" 
			},
			{
				"x": -0.7034591305,
				"y": -1.4022131394,
				"z": -1.8413167199,
				"element": "C" 
			},
			{
				"x": -1.8775218745,
				"y": -1.1665311804,
				"z": -1.2179737255,
				"element": "C" 
			},
			{
				"x": -1.9102906306,
				"y": -0.9848918962,
				"z": 0.2308012934,
				"element": "C" 
			},
			{
				"x": -2.9004861972,
				"y": -0.7672055724,
				"z": 0.9083859685,
				"element": "O" 
			},
			{
				"x": -0.6370952445,
				"y": -1.0834244532,
				"z": 0.836544817,
				"element": "N" 
			},
			{
				"x": 1.3579294303,
				"y": -1.6554198461,
				"z": -1.6242330809,
				"element": "H" 
			},
			{
				"x": -0.6260717663,
				"y": -1.5439628242,
				"z": -2.9137547196,
				"element": "H" 
			},
			{
				"x": -2.810369505,
				"y": -1.1062917432,
				"z": -1.7607736903,
				"element": "H" 
			},
			{
				"x": -0.6102472691,
				"y": -0.9638634215,
				"z": 1.8420999065,
				"element": "H" 
			}
		],
		 "valence_orbital": [ 
			{
				"type": "occ",
				"energy": -0.36994,
				"method": "rhf"
			},
			{
				"type": "occ",
				"energy": -0.29588,
				"method": "rhf"
			},
			{
				"type": "occ",
				"energy": -0.28595,
				"method": "rhf"
			},
			{
				"type": "occ",
				"energy": -0.26412,
				"method": "rhf"
			},
			{
				"type": "occ",
				"energy": -0.25273,
				"method": "rhf"
			},
			{
				"type": "unocc",
				"energy": -0.04339,
				"method": "rhf"
			},
			{
				"type": "unocc",
				"energy": 0.00997,
				"method": "rhf"
			},
			{
				"type": "unocc",
				"energy": 0.05208,
				"method": "rhf"
			},
			{
				"type": "unocc",
				"energy": 0.10336,
				"method": "rhf"
			},
			{
				"type": "unocc",
				"energy": 0.11289,
				"method": "rhf"
			}
		],
		"cosmo_sigma_profile": { 
			"-0.025": 0.0,
			"-0.024": 0.0,
			"-0.023": 0.0,
			"-0.022": 0.0,
			"-0.021": 0.0,
			"-0.02": 0.0,
			"-0.019": 0.0,
			"-0.018": 0.0353218180944,
			"-0.017": 1.35683395879,
			"-0.016": 1.9120404983,
			"-0.015": 1.91376828721,
			"-0.014": 1.86244904025,
			"-0.013": 1.86708001207,
			"-0.012": 2.33680328017,
			"-0.011": 2.93818986827,
			"-0.01": 3.72676662676,
			"-0.009": 3.55901962751,
			"-0.008": 3.36690454612,
			"-0.007": 4.37966002631,
			"-0.006": 4.84615245196,
			"-0.005": 5.15148474563,
			"-0.004": 5.90377318418,
			"-0.003": 7.16050788918,
			"-0.002": 10.0424270819,
			"-0.001": 9.91937532381,
			"0.0": 6.92853268207,
			"0.001": 5.63936262733,
			"0.002": 4.66668602362,
			"0.003": 3.46452601472,
			"0.004": 2.92751934115,
			"0.005": 1.95942138908,
			"0.006": 2.3939860308,
			"0.007": 2.67998263482,
			"0.008": 1.32813574915,
			"0.009": 3.00446358509,
			"0.01": 2.97588799242,
			"0.011": 3.51712210088,
			"0.012": 9.29190733858,
			"0.013": 9.56151385497,
			"0.014": 1.89400600826,
			"0.015": 0.020318266538,
			"0.016": 0.0,
			"0.017": 0.0,
			"0.018": 0.0,
			"0.019": 0.0,
			"0.02": 0.0,
			"0.021": 0.0,
			"0.022": 0.0,
			"0.023": 0.0,
			"0.024": 0.0,
			"0.025": 0.0
		}
	}
}
