{
	 "smiles": "CC(CO)=CCNC1=C2NC=NC2=NC=N1", 
	 "Tm": 481.15, 
	 "num_atms": 29, 
	 "gaussian": { 
		 "optdone": 1, 
		 "sigma_profile": "yes", 
		 "theory": "DFT", 
		 "functional": "B3LYP", 
		 "basiset": "6-31G**", 
		 "properties": { 
			 "R2extent": 4397.2193, 
			 "electric_dipole_moment_norm": 8.24307875614, 
			 "electric_quadrupole_moment_norm": 26.8661706722, 
			 "total_energy": -737.862289042, 
			 "HOMO_LUMO_gap": 0.1949, 
			 "cosmo_polarized_energy": -29.47, 
			 "cosmo_cavitation_energy": 32.22, 
			 "cosmo_dispersion_energy": -23.4, 
			 "cosmo_repulsion_energy": 1.8, 
			 "cosmo_total_nonelectrostatic_energy": 10.62, 
			 "SMD_solvation_energy": 0.88 
		},
		"coords": [
			{
				"x": 1.0056225503,
				"y": 0.4831103784,
				"z": -3.6322729062,
				"element": "C" 
			},
			{
				"x": -0.2057354395,
				"y": 0.3877697152,
				"z": -2.7425221168,
				"element": "C" 
			},
			{
				"x": -0.7966465376,
				"y": 1.7227907783,
				"z": -2.3119483358,
				"element": "C" 
			},
			{
				"x": -0.1262882692,
				"y": 2.2347057814,
				"z": -1.1732130985,
				"element": "O" 
			},
			{
				"x": -0.6558990403,
				"y": -0.7911863067,
				"z": -2.2886178533,
				"element": "C" 
			},
			{
				"x": -1.7964488443,
				"y": -1.0092288157,
				"z": -1.3240795667,
				"element": "C" 
			},
			{
				"x": -1.3998117137,
				"y": -1.7005647736,
				"z": -0.0890871345,
				"element": "N" 
			},
			{
				"x": -0.758881949,
				"y": -1.0879709607,
				"z": 0.9551990925,
				"element": "C" 
			},
			{
				"x": -0.3236874045,
				"y": -1.7966570433,
				"z": 2.093600021,
				"element": "C" 
			},
			{
				"x": -0.3272873037,
				"y": -3.1223026521,
				"z": 2.4977364765,
				"element": "N" 
			},
			{
				"x": 0.2551966437,
				"y": -3.13779096,
				"z": 3.7436552443,
				"element": "C" 
			},
			{
				"x": 0.6363803028,
				"y": -1.9582683533,
				"z": 4.1667274474,
				"element": "N" 
			},
			{
				"x": 0.2809209312,
				"y": -1.0926310203,
				"z": 3.1493276659,
				"element": "C" 
			},
			{
				"x": 0.4557725732,
				"y": 0.2438314294,
				"z": 3.1396402349,
				"element": "N" 
			},
			{
				"x": 0.0064161291,
				"y": 0.8184071118,
				"z": 2.0364398913,
				"element": "C" 
			},
			{
				"x": -0.574262766,
				"y": 0.2408227599,
				"z": 0.9556598742,
				"element": "N" 
			},
			{
				"x": 1.753278654,
				"y": 1.1337688464,
				"z": -3.1628946097,
				"element": "H" 
			},
			{
				"x": 0.7528505461,
				"y": 0.9378485585,
				"z": -4.59893121,
				"element": "H" 
			},
			{
				"x": 1.4622911085,
				"y": -0.4927161794,
				"z": -3.8207374187,
				"element": "H" 
			},
			{
				"x": -1.8813744674,
				"y": 1.6395802722,
				"z": -2.1451099733,
				"element": "H" 
			},
			{
				"x": -0.6607068394,
				"y": 2.4584252,
				"z": -3.1127842359,
				"element": "H" 
			},
			{
				"x": -0.2652013919,
				"y": 1.5751800866,
				"z": -0.4643900115,
				"element": "H" 
			},
			{
				"x": -0.1417384707,
				"y": -1.701852359,
				"z": -2.6013318327,
				"element": "H" 
			},
			{
				"x": -2.5750455647,
				"y": -1.633199467,
				"z": -1.7801940095,
				"element": "H" 
			},
			{
				"x": -2.2654115386,
				"y": -0.069854314,
				"z": -1.031906556,
				"element": "H" 
			},
			{
				"x": -1.253909885,
				"y": -2.6955182553,
				"z": -0.1732762077,
				"element": "H" 
			},
			{
				"x": -0.7448669616,
				"y": -3.9139841152,
				"z": 2.0342955739,
				"element": "H" 
			},
			{
				"x": 0.3725043052,
				"y": -4.0632558231,
				"z": 4.2929426864,
				"element": "H" 
			},
			{
				"x": 0.118270643,
				"y": 1.8985404806,
				"z": 1.9666728688,
				"element": "H" 
			}
		],
		 "valence_orbital": [ 
			{
				"type": "occ",
				"energy": -0.26901,
				"method": "rhf"
			},
			{
				"type": "occ",
				"energy": -0.25592,
				"method": "rhf"
			},
			{
				"type": "occ",
				"energy": -0.25149,
				"method": "rhf"
			},
			{
				"type": "occ",
				"energy": -0.24022,
				"method": "rhf"
			},
			{
				"type": "occ",
				"energy": -0.22817,
				"method": "rhf"
			},
			{
				"type": "unocc",
				"energy": -0.03327,
				"method": "rhf"
			},
			{
				"type": "unocc",
				"energy": -0.00393,
				"method": "rhf"
			},
			{
				"type": "unocc",
				"energy": 0.00841,
				"method": "rhf"
			},
			{
				"type": "unocc",
				"energy": 0.03163,
				"method": "rhf"
			},
			{
				"type": "unocc",
				"energy": 0.04184,
				"method": "rhf"
			}
		],
		"cosmo_sigma_profile": { 
			"-0.025": 0.0,
			"-0.024": 0.0,
			"-0.023": 0.0,
			"-0.022": 0.0,
			"-0.021": 0.0,
			"-0.02": 0.0,
			"-0.019": 0.00256069721821,
			"-0.018": 1.6001071527,
			"-0.017": 2.92586003377,
			"-0.016": 2.73196329698,
			"-0.015": 2.10445396462,
			"-0.014": 1.83553527055,
			"-0.013": 2.39601043135,
			"-0.012": 2.40747874092,
			"-0.011": 1.90232186588,
			"-0.01": 4.23940886376,
			"-0.009": 3.50267666769,
			"-0.008": 2.92806561166,
			"-0.007": 4.07100967603,
			"-0.006": 6.59225941019,
			"-0.005": 9.41802197918,
			"-0.004": 16.0846693647,
			"-0.003": 20.1425550567,
			"-0.002": 18.4019824218,
			"-0.001": 21.5508867723,
			"0.0": 26.6593920523,
			"0.001": 18.4785091334,
			"0.002": 11.6766017661,
			"0.003": 11.0040302385,
			"0.004": 8.75620711138,
			"0.005": 9.33893229172,
			"0.006": 5.40476908457,
			"0.007": 4.62886863952,
			"0.008": 4.39973866429,
			"0.009": 3.50341574441,
			"0.01": 2.37110487096,
			"0.011": 4.36217293121,
			"0.012": 2.50128827833,
			"0.013": 4.49052618562,
			"0.014": 4.59409690112,
			"0.015": 4.54231887514,
			"0.016": 3.29970589283,
			"0.017": 0.965067604801,
			"0.018": 0.0,
			"0.019": 0.0,
			"0.02": 0.0,
			"0.021": 0.0,
			"0.022": 0.0,
			"0.023": 0.0,
			"0.024": 0.0,
			"0.025": 0.0
		}
	}
}
