{
	 "smiles": "OC(=O)C1(CC1)S(=O)(=O)C1=CC=C(Cl)C=C1", 
	 "Tm": 459.15, 
	 "num_atms": 25, 
	 "gaussian": { 
		 "optdone": 1, 
		 "sigma_profile": "yes", 
		 "theory": "DFT", 
		 "functional": "B3LYP", 
		 "basiset": "6-31G**", 
		 "properties": { 
			 "R2extent": 6356.6859, 
			 "electric_dipole_moment_norm": 3.09739700555, 
			 "electric_quadrupole_moment_norm": 14.6689522993, 
			 "total_energy": -1545.68090687, 
			 "HOMO_LUMO_gap": 0.21492, 
			 "cosmo_polarized_energy": -14.45, 
			 "cosmo_cavitation_energy": 31.99, 
			 "cosmo_dispersion_energy": -23.34, 
			 "cosmo_repulsion_energy": 1.75, 
			 "cosmo_total_nonelectrostatic_energy": 10.41, 
			 "SMD_solvation_energy": 5.45 
		},
		"coords": [
			{
				"x": -2.2940201519,
				"y": -1.9653964681,
				"z": -0.5037158248,
				"element": "O" 
			},
			{
				"x": -2.371527604,
				"y": -0.631773898,
				"z": -0.5903219593,
				"element": "C" 
			},
			{
				"x": -3.3785650947,
				"y": -0.0705549146,
				"z": -0.9548524514,
				"element": "O" 
			},
			{
				"x": -1.1508176038,
				"y": 0.1788441433,
				"z": -0.1728727112,
				"element": "C" 
			},
			{
				"x": -1.3936168364,
				"y": 1.2387850044,
				"z": 0.9052163797,
				"element": "C" 
			},
			{
				"x": -1.1589288052,
				"y": 1.6582643571,
				"z": -0.5038919411,
				"element": "C" 
			},
			{
				"x": 0.4721888966,
				"y": -0.6201853557,
				"z": -0.1194942601,
				"element": "S" 
			},
			{
				"x": 0.2380388211,
				"y": -2.0150837385,
				"z": 0.3392044125,
				"element": "O" 
			},
			{
				"x": 1.3971655521,
				"y": 0.252204292,
				"z": 0.6169167063,
				"element": "O" 
			},
			{
				"x": 1.0239610095,
				"y": -0.6890286108,
				"z": -1.8264287746,
				"element": "C" 
			},
			{
				"x": 0.4228544678,
				"y": -1.5839983143,
				"z": -2.7166793788,
				"element": "C" 
			},
			{
				"x": 0.8632090841,
				"y": -1.6291860306,
				"z": -4.0369099035,
				"element": "C" 
			},
			{
				"x": 1.90252924,
				"y": -0.7865070025,
				"z": -4.4398216214,
				"element": "C" 
			},
			{
				"x": 2.4578965817,
				"y": -0.8480989344,
				"z": -6.0979716849,
				"element": "Cl" 
			},
			{
				"x": 2.5100316678,
				"y": 0.0998342641,
				"z": -3.5488339116,
				"element": "C" 
			},
			{
				"x": 2.0639105662,
				"y": 0.1501379945,
				"z": -2.229206488,
				"element": "C" 
			},
			{
				"x": -1.4434297583,
				"y": -2.2344101825,
				"z": -0.0827995355,
				"element": "H" 
			},
			{
				"x": -2.4052661161,
				"y": 1.2660078779,
				"z": 1.2953124755,
				"element": "H" 
			},
			{
				"x": -0.5945127713,
				"y": 1.3879624361,
				"z": 1.6230867784,
				"element": "H" 
			},
			{
				"x": -2.0065644382,
				"y": 1.975216596,
				"z": -1.1009550864,
				"element": "H" 
			},
			{
				"x": -0.2030692074,
				"y": 2.1153553588,
				"z": -0.7385541696,
				"element": "H" 
			},
			{
				"x": -0.3780609313,
				"y": -2.2388781669,
				"z": -2.3912174481,
				"element": "H" 
			},
			{
				"x": 0.4110824129,
				"y": -2.3131344416,
				"z": -4.7458992502,
				"element": "H" 
			},
			{
				"x": 3.3205556528,
				"y": 0.7373393746,
				"z": -3.8830774525,
				"element": "H" 
			},
			{
				"x": 2.5247553661,
				"y": 0.8190843596,
				"z": -1.5109328994,
				"element": "H" 
			}
		],
		 "valence_orbital": [ 
			{
				"type": "occ",
				"energy": -0.31934,
				"method": "rhf"
			},
			{
				"type": "occ",
				"energy": -0.3172,
				"method": "rhf"
			},
			{
				"type": "occ",
				"energy": -0.29644,
				"method": "rhf"
			},
			{
				"type": "occ",
				"energy": -0.28331,
				"method": "rhf"
			},
			{
				"type": "occ",
				"energy": -0.27962,
				"method": "rhf"
			},
			{
				"type": "unocc",
				"energy": -0.0647,
				"method": "rhf"
			},
			{
				"type": "unocc",
				"energy": -0.04737,
				"method": "rhf"
			},
			{
				"type": "unocc",
				"energy": -0.01032,
				"method": "rhf"
			},
			{
				"type": "unocc",
				"energy": 0.00633,
				"method": "rhf"
			},
			{
				"type": "unocc",
				"energy": 0.03885,
				"method": "rhf"
			}
		],
		"cosmo_sigma_profile": { 
			"-0.025": 0.0,
			"-0.024": 0.0,
			"-0.023": 0.0,
			"-0.022": 0.0,
			"-0.021": 0.0,
			"-0.02": 0.0,
			"-0.019": 0.0,
			"-0.018": 0.0,
			"-0.017": 0.0,
			"-0.016": 0.0,
			"-0.015": 0.0,
			"-0.014": 0.0,
			"-0.013": 0.0,
			"-0.012": 0.000527384448199,
			"-0.011": 0.0288522796109,
			"-0.01": 0.128919955601,
			"-0.009": 2.3596547074,
			"-0.008": 10.1723774507,
			"-0.007": 14.1383689777,
			"-0.006": 14.6575766426,
			"-0.005": 16.5499353186,
			"-0.004": 15.4448418326,
			"-0.003": 17.8399249677,
			"-0.002": 19.5787569771,
			"-0.001": 18.6071268039,
			"0.0": 25.1144206877,
			"0.001": 21.3568377707,
			"0.002": 10.4381510999,
			"0.003": 12.3856084286,
			"0.004": 11.6964035428,
			"0.005": 4.28007000085,
			"0.006": 4.27553516268,
			"0.007": 5.60352526853,
			"0.008": 6.25405690095,
			"0.009": 8.91156962924,
			"0.01": 10.0071414263,
			"0.011": 6.72773106363,
			"0.012": 2.08650035494,
			"0.013": 0.302588198185,
			"0.014": 0.0,
			"0.015": 0.0,
			"0.016": 0.0,
			"0.017": 0.0,
			"0.018": 0.0,
			"0.019": 0.0,
			"0.02": 0.0,
			"0.021": 0.0,
			"0.022": 0.0,
			"0.023": 0.0,
			"0.024": 0.0,
			"0.025": 0.0
		}
	}
}
