{
	 "smiles": "[O-][N+]#N", 
	 "Tm": 182.35, 
	 "num_atms": 3, 
	 "gaussian": { 
		 "optdone": 1, 
		 "sigma_profile": "yes", 
		 "theory": "DFT", 
		 "functional": "B3LYP", 
		 "basiset": "6-31G**", 
		 "properties": { 
			 "R2extent": 700.5473, 
			 "electric_dipole_moment_norm": 0.0177825757414, 
			 "electric_quadrupole_moment_norm": 2.44365811439, 
			 "total_energy": -184.65624288, 
			 "HOMO_LUMO_gap": 0.32295, 
			 "cosmo_polarized_energy": -2.11, 
			 "cosmo_cavitation_energy": 8.09, 
			 "cosmo_dispersion_energy": -5.53, 
			 "cosmo_repulsion_energy": 0.59, 
			 "cosmo_total_nonelectrostatic_energy": 3.15, 
			 "SMD_solvation_energy": 2.22 
		},
		"coords": [
			{
				"x": -2.5344844361,
				"y": -0.3937120826,
				"z": -1.5468536243,
				"element": "O" 
			},
			{
				"x": -1.8760468631,
				"y": 0.5233243861,
				"z": -1.9321157698,
				"element": "N" 
			},
			{
				"x": -1.2498687009,
				"y": 1.3953876965,
				"z": -2.2985306059,
				"element": "N" 
			}
		],
		 "valence_orbital": [ 
			{
				"type": "occ",
				"energy": -0.56102,
				"method": "rhf"
			},
			{
				"type": "occ",
				"energy": -0.56102,
				"method": "rhf"
			},
			{
				"type": "occ",
				"energy": -0.47641,
				"method": "rhf"
			},
			{
				"type": "occ",
				"energy": -0.34154,
				"method": "rhf"
			},
			{
				"type": "occ",
				"energy": -0.34154,
				"method": "rhf"
			},
			{
				"type": "unocc",
				"energy": -0.01859,
				"method": "rhf"
			},
			{
				"type": "unocc",
				"energy": -0.01859,
				"method": "rhf"
			},
			{
				"type": "unocc",
				"energy": 0.13134,
				"method": "rhf"
			},
			{
				"type": "unocc",
				"energy": 0.41427,
				"method": "rhf"
			},
			{
				"type": "unocc",
				"energy": 0.59273,
				"method": "rhf"
			}
		],
		"cosmo_sigma_profile": { 
			"-0.025": 0.0,
			"-0.024": 0.0,
			"-0.023": 0.0,
			"-0.022": 0.0,
			"-0.021": 0.0,
			"-0.02": 0.0,
			"-0.019": 0.0,
			"-0.018": 0.0,
			"-0.017": 0.0,
			"-0.016": 0.0,
			"-0.015": 0.0,
			"-0.014": 0.0,
			"-0.013": 0.0,
			"-0.012": 0.0,
			"-0.011": 0.0,
			"-0.01": 0.0,
			"-0.009": 0.0,
			"-0.008": 0.84304776305,
			"-0.007": 6.71900887019,
			"-0.006": 4.58910601109,
			"-0.005": 4.29427183711,
			"-0.004": 2.64740516453,
			"-0.003": 3.12350042992,
			"-0.002": 3.21382442724,
			"-0.001": 2.58315999876,
			"0.0": 3.35685682019,
			"0.001": 3.37106881783,
			"0.002": 4.25548162487,
			"0.003": 4.70050142374,
			"0.004": 9.15512131844,
			"0.005": 11.0671069925,
			"0.006": 2.15817012251,
			"0.007": 0.00817592206857,
			"0.008": 0.0,
			"0.009": 0.0,
			"0.01": 0.0,
			"0.011": 0.0,
			"0.012": 0.0,
			"0.013": 0.0,
			"0.014": 0.0,
			"0.015": 0.0,
			"0.016": 0.0,
			"0.017": 0.0,
			"0.018": 0.0,
			"0.019": 0.0,
			"0.02": 0.0,
			"0.021": 0.0,
			"0.022": 0.0,
			"0.023": 0.0,
			"0.024": 0.0,
			"0.025": 0.0
		}
	}
}
