{
	 "smiles": "CC(C)CNC(=O)C1=C(N)C=CC=C1", 
	 "Tm": 383.15, 
	 "num_atms": 30, 
	 "gaussian": { 
		 "optdone": 1, 
		 "sigma_profile": "yes", 
		 "theory": "DFT", 
		 "functional": "B3LYP", 
		 "basiset": "6-31G**", 
		 "properties": { 
			 "R2extent": 3172.381, 
			 "electric_dipole_moment_norm": 4.5778923076, 
			 "electric_quadrupole_moment_norm": 10.7095790183, 
			 "total_energy": -613.569043476, 
			 "HOMO_LUMO_gap": 0.18022, 
			 "cosmo_polarized_energy": -14.44, 
			 "cosmo_cavitation_energy": 32.01, 
			 "cosmo_dispersion_energy": -22.19, 
			 "cosmo_repulsion_energy": 1.77, 
			 "cosmo_total_nonelectrostatic_energy": 11.59, 
			 "SMD_solvation_energy": 5.49 
		},
		"coords": [
			{
				"x": -1.0206157457,
				"y": 2.6416878546,
				"z": 0.7570311302,
				"element": "C" 
			},
			{
				"x": -0.5729597343,
				"y": 1.7394767012,
				"z": 1.9149423698,
				"element": "C" 
			},
			{
				"x": 0.534552074,
				"y": 2.4024907004,
				"z": 2.7466841438,
				"element": "C" 
			},
			{
				"x": -0.0975200854,
				"y": 0.3557487301,
				"z": 1.4265451744,
				"element": "C" 
			},
			{
				"x": -1.1320929043,
				"y": -0.4187568394,
				"z": 0.7299743603,
				"element": "N" 
			},
			{
				"x": -1.3167658598,
				"y": -0.4322055977,
				"z": -0.6527487722,
				"element": "C" 
			},
			{
				"x": -2.4480192057,
				"y": -0.453840786,
				"z": -1.1237913377,
				"element": "O" 
			},
			{
				"x": -0.0942376965,
				"y": -0.4586910267,
				"z": -1.5187730646,
				"element": "C" 
			},
			{
				"x": 1.0242042081,
				"y": -1.2962568452,
				"z": -1.2710391729,
				"element": "C" 
			},
			{
				"x": 1.0456577365,
				"y": -2.2009097973,
				"z": -0.224110931,
				"element": "N" 
			},
			{
				"x": 2.1068741685,
				"y": -1.2480540561,
				"z": -2.1729116705,
				"element": "C" 
			},
			{
				"x": 2.0745144139,
				"y": -0.4224999311,
				"z": -3.2892831334,
				"element": "C" 
			},
			{
				"x": 0.9539857968,
				"y": 0.3715057589,
				"z": -3.5582574643,
				"element": "C" 
			},
			{
				"x": -0.1208949203,
				"y": 0.3303933483,
				"z": -2.678293956,
				"element": "C" 
			},
			{
				"x": -0.1924626018,
				"y": 2.825027915,
				"z": 0.0619890498,
				"element": "H" 
			},
			{
				"x": -1.3609651124,
				"y": 3.6122725092,
				"z": 1.1327219822,
				"element": "H" 
			},
			{
				"x": -1.843238027,
				"y": 2.1978191303,
				"z": 0.1889811742,
				"element": "H" 
			},
			{
				"x": -1.4381829636,
				"y": 1.5743592582,
				"z": 2.5758777782,
				"element": "H" 
			},
			{
				"x": 0.8390549668,
				"y": 1.7732817114,
				"z": 3.590503768,
				"element": "H" 
			},
			{
				"x": 0.1990990709,
				"y": 3.3629893876,
				"z": 3.1502825345,
				"element": "H" 
			},
			{
				"x": 1.4235182023,
				"y": 2.5939260076,
				"z": 2.133611126,
				"element": "H" 
			},
			{
				"x": 0.2616402597,
				"y": -0.2229806293,
				"z": 2.2878562511,
				"element": "H" 
			},
			{
				"x": 0.7492832106,
				"y": 0.4782099476,
				"z": 0.745653996,
				"element": "H" 
			},
			{
				"x": -2.0374912136,
				"y": -0.4150382014,
				"z": 1.1907019955,
				"element": "H" 
			},
			{
				"x": 0.352668739,
				"y": -2.0915558832,
				"z": 0.501448309,
				"element": "H" 
			},
			{
				"x": 1.9433023239,
				"y": -2.5517435125,
				"z": 0.0701082418,
				"element": "H" 
			},
			{
				"x": 2.9678183008,
				"y": -1.8874233967,
				"z": -1.9926262734,
				"element": "H" 
			},
			{
				"x": 2.9276013143,
				"y": -0.4074536858,
				"z": -3.9622966929,
				"element": "H" 
			},
			{
				"x": 0.9211541779,
				"y": 1.0033753627,
				"z": -4.4397416931,
				"element": "H" 
			},
			{
				"x": -1.0125828938,
				"y": 0.9208458654,
				"z": -2.8643392229,
				"element": "H" 
			}
		],
		 "valence_orbital": [ 
			{
				"type": "occ",
				"energy": -0.30816,
				"method": "rhf"
			},
			{
				"type": "occ",
				"energy": -0.26224,
				"method": "rhf"
			},
			{
				"type": "occ",
				"energy": -0.25073,
				"method": "rhf"
			},
			{
				"type": "occ",
				"energy": -0.23534,
				"method": "rhf"
			},
			{
				"type": "occ",
				"energy": -0.20182,
				"method": "rhf"
			},
			{
				"type": "unocc",
				"energy": -0.0216,
				"method": "rhf"
			},
			{
				"type": "unocc",
				"energy": 0.0135,
				"method": "rhf"
			},
			{
				"type": "unocc",
				"energy": 0.05063,
				"method": "rhf"
			},
			{
				"type": "unocc",
				"energy": 0.07394,
				"method": "rhf"
			},
			{
				"type": "unocc",
				"energy": 0.08986,
				"method": "rhf"
			}
		],
		"cosmo_sigma_profile": { 
			"-0.025": 0.0,
			"-0.024": 0.0,
			"-0.023": 0.0,
			"-0.022": 0.0,
			"-0.021": 0.0,
			"-0.02": 0.0,
			"-0.019": 0.0,
			"-0.018": 0.0,
			"-0.017": 0.0,
			"-0.016": 0.0,
			"-0.015": 0.0,
			"-0.014": 0.0112053755377,
			"-0.013": 0.920536208655,
			"-0.012": 2.11216234918,
			"-0.011": 1.96252679125,
			"-0.01": 2.74758389535,
			"-0.009": 3.7224407824,
			"-0.008": 3.09181715561,
			"-0.007": 3.81163933008,
			"-0.006": 6.07508796501,
			"-0.005": 9.89195704261,
			"-0.004": 15.9507559948,
			"-0.003": 25.6913419522,
			"-0.002": 26.2597967216,
			"-0.001": 27.373370233,
			"0.0": 24.9454179669,
			"0.001": 23.421271443,
			"0.002": 11.9054569352,
			"0.003": 7.85176890388,
			"0.004": 8.5732087314,
			"0.005": 10.7969445194,
			"0.006": 9.77329291843,
			"0.007": 3.38274190508,
			"0.008": 2.56142760209,
			"0.009": 2.32477262538,
			"0.01": 1.85164143554,
			"0.011": 2.11753566053,
			"0.012": 2.39950691826,
			"0.013": 4.06703275776,
			"0.014": 4.27278355391,
			"0.015": 0.753129554021,
			"0.016": 0.0,
			"0.017": 0.0,
			"0.018": 0.0,
			"0.019": 0.0,
			"0.02": 0.0,
			"0.021": 0.0,
			"0.022": 0.0,
			"0.023": 0.0,
			"0.024": 0.0,
			"0.025": 0.0
		}
	}
}
