{
	 "smiles": "CC(=O)OC1C2(CC(OC(C)=O)C3C1(C(CC1C(C)(C)CCC(OC(C)=O)C31C)OC(C)=O)C(=O)C2=C)OC(C)=O", 
	 "Tm": 553.15, 
	 "num_atms": 81, 
	 "gaussian": { 
		 "optdone": 1, 
		 "sigma_profile": "yes", 
		 "theory": "DFT", 
		 "functional": "B3LYP", 
		 "basiset": "6-31G**", 
		 "properties": { 
			 "R2extent": 17772.4471, 
			 "electric_dipole_moment_norm": 0.5061748117, 
			 "electric_quadrupole_moment_norm": 19.1401068949, 
			 "total_energy": -1994.79520797, 
			 "HOMO_LUMO_gap": 0.17801, 
			 "cosmo_polarized_energy": -25.27, 
			 "cosmo_cavitation_energy": 73.01, 
			 "cosmo_dispersion_energy": -42.36, 
			 "cosmo_repulsion_energy": 3.08, 
			 "cosmo_total_nonelectrostatic_energy": 33.73, 
			 "SMD_solvation_energy": 16.87 
		},
		"coords": [
			{
				"x": -0.2193077218,
				"y": -2.5923698841,
				"z": -4.0630850119,
				"element": "C" 
			},
			{
				"x": -1.1642661642,
				"y": -2.4918427502,
				"z": -2.8933866152,
				"element": "C" 
			},
			{
				"x": -2.3052273471,
				"y": -2.8933417518,
				"z": -2.8929714673,
				"element": "O" 
			},
			{
				"x": -0.5712137632,
				"y": -1.8728265927,
				"z": -1.8258361712,
				"element": "O" 
			},
			{
				"x": -1.3185108407,
				"y": -1.8490379448,
				"z": -0.6060364061,
				"element": "C" 
			},
			{
				"x": -0.7478187973,
				"y": -2.806362841,
				"z": 0.4512346345,
				"element": "C" 
			},
			{
				"x": 0.7484609611,
				"y": -2.4829615974,
				"z": 0.674193823,
				"element": "C" 
			},
			{
				"x": 1.1239169557,
				"y": -1.0326413876,
				"z": 0.2912074625,
				"element": "C" 
			},
			{
				"x": 2.3891285132,
				"y": -0.7310676632,
				"z": 0.9389447288,
				"element": "O" 
			},
			{
				"x": 3.5047138035,
				"y": -1.270767052,
				"z": 0.3728966279,
				"element": "C" 
			},
			{
				"x": 4.7456413622,
				"y": -0.8197322199,
				"z": 1.1042928608,
				"element": "C" 
			},
			{
				"x": 3.4844374839,
				"y": -1.9999107571,
				"z": -0.5925677468,
				"element": "O" 
			},
			{
				"x": 0.0493457888,
				"y": -0.005348577,
				"z": 0.7325855386,
				"element": "C" 
			},
			{
				"x": -1.3593726179,
				"y": -0.4988424676,
				"z": 0.1534915896,
				"element": "C" 
			},
			{
				"x": -2.059198164,
				"y": 0.605988148,
				"z": -0.6300159854,
				"element": "C" 
			},
			{
				"x": -2.2133337256,
				"y": 1.8593841092,
				"z": 0.2148298853,
				"element": "C" 
			},
			{
				"x": -0.8502525811,
				"y": 2.5274340848,
				"z": 0.5388214423,
				"element": "C" 
			},
			{
				"x": -0.6540186388,
				"y": 3.8857075614,
				"z": -0.2613274377,
				"element": "C" 
			},
			{
				"x": -1.4900457597,
				"y": 4.9687707037,
				"z": 0.4568298537,
				"element": "C" 
			},
			{
				"x": -1.1193060224,
				"y": 3.8615869401,
				"z": -1.7374342885,
				"element": "C" 
			},
			{
				"x": 0.8263834175,
				"y": 4.3163531788,
				"z": -0.2077501956,
				"element": "C" 
			},
			{
				"x": 1.8192063924,
				"y": 3.2708956727,
				"z": -0.7535216197,
				"element": "C" 
			},
			{
				"x": 1.3696727136,
				"y": 1.798523142,
				"z": -0.6217116932,
				"element": "C" 
			},
			{
				"x": 0.7079035514,
				"y": 1.3734578272,
				"z": -1.8478955522,
				"element": "O" 
			},
			{
				"x": 1.5047663952,
				"y": 1.0571897165,
				"z": -2.9033985527,
				"element": "C" 
			},
			{
				"x": 0.6907992845,
				"y": 0.8973801032,
				"z": -4.1639522907,
				"element": "C" 
			},
			{
				"x": 2.7107926474,
				"y": 0.9681853289,
				"z": -2.8293101742,
				"element": "O" 
			},
			{
				"x": 0.4158396522,
				"y": 1.5441482418,
				"z": 0.5673496602,
				"element": "C" 
			},
			{
				"x": 1.2203176461,
				"y": 1.895503154,
				"z": 1.8560284205,
				"element": "C" 
			},
			{
				"x": -3.3688160056,
				"y": 0.1228901996,
				"z": -1.0319458747,
				"element": "O" 
			},
			{
				"x": -3.6361518127,
				"y": 0.0757275161,
				"z": -2.3620454252,
				"element": "C" 
			},
			{
				"x": -4.9839858834,
				"y": -0.5478567378,
				"z": -2.6189974475,
				"element": "C" 
			},
			{
				"x": -2.8731858827,
				"y": 0.4518487018,
				"z": -3.228729034,
				"element": "O" 
			},
			{
				"x": -2.0971359594,
				"y": -1.0213241808,
				"z": 1.4184118935,
				"element": "C" 
			},
			{
				"x": -2.863779062,
				"y": -0.4188072561,
				"z": 2.1429136051,
				"element": "O" 
			},
			{
				"x": -1.6319739953,
				"y": -2.4329116352,
				"z": 1.6355024148,
				"element": "C" 
			},
			{
				"x": -2.0167047029,
				"y": -3.1445626791,
				"z": 2.69795994,
				"element": "C" 
			},
			{
				"x": -0.9570625772,
				"y": -4.1440246779,
				"z": -0.0591847869,
				"element": "O" 
			},
			{
				"x": -0.45876317,
				"y": -5.2203028576,
				"z": 0.595591374,
				"element": "C" 
			},
			{
				"x": -0.7079709915,
				"y": -6.4782692315,
				"z": -0.2015083821,
				"element": "C" 
			},
			{
				"x": 0.107683668,
				"y": -5.1694178587,
				"z": 1.6659054872,
				"element": "O" 
			},
			{
				"x": 0.8136007289,
				"y": -2.3984780955,
				"z": -3.773536169,
				"element": "H" 
			},
			{
				"x": -0.5270197737,
				"y": -1.8682804857,
				"z": -4.8231004014,
				"element": "H" 
			},
			{
				"x": -0.3118617859,
				"y": -3.5885525559,
				"z": -4.5010850166,
				"element": "H" 
			},
			{
				"x": -2.3428264093,
				"y": -2.1450898055,
				"z": -0.8391795954,
				"element": "H" 
			},
			{
				"x": 1.3532458045,
				"y": -3.1485527539,
				"z": 0.0572095051,
				"element": "H" 
			},
			{
				"x": 1.0163374682,
				"y": -2.660329497,
				"z": 1.7172298048,
				"element": "H" 
			},
			{
				"x": 1.2878827419,
				"y": -0.9758076013,
				"z": -0.7828082374,
				"element": "H" 
			},
			{
				"x": 4.9385894432,
				"y": 0.2344972697,
				"z": 0.8796147411,
				"element": "H" 
			},
			{
				"x": 4.6124933094,
				"y": -0.9101842722,
				"z": 2.1851827581,
				"element": "H" 
			},
			{
				"x": 5.5953941882,
				"y": -1.4161169248,
				"z": 0.7734463066,
				"element": "H" 
			},
			{
				"x": -0.0249862322,
				"y": -0.1281656328,
				"z": 1.8196531634,
				"element": "H" 
			},
			{
				"x": -1.4910784804,
				"y": 0.8136722082,
				"z": -1.5347416142,
				"element": "H" 
			},
			{
				"x": -2.862212614,
				"y": 2.556763517,
				"z": -0.3182316224,
				"element": "H" 
			},
			{
				"x": -2.7339399153,
				"y": 1.5900213628,
				"z": 1.1340788568,
				"element": "H" 
			},
			{
				"x": -0.9378458758,
				"y": 2.8548481282,
				"z": 1.5794476958,
				"element": "H" 
			},
			{
				"x": -1.1557853949,
				"y": 5.1137150769,
				"z": 1.4903479104,
				"element": "H" 
			},
			{
				"x": -1.4031654012,
				"y": 5.9305179527,
				"z": -0.0612949069,
				"element": "H" 
			},
			{
				"x": -2.5531800748,
				"y": 4.7062151744,
				"z": 0.4831695673,
				"element": "H" 
			},
			{
				"x": -2.1957703874,
				"y": 3.6946963426,
				"z": -1.8305638893,
				"element": "H" 
			},
			{
				"x": -0.9124495706,
				"y": 4.8383383975,
				"z": -2.1898621762,
				"element": "H" 
			},
			{
				"x": -0.6157994782,
				"y": 3.1006434065,
				"z": -2.3298956211,
				"element": "H" 
			},
			{
				"x": 0.9451796877,
				"y": 5.2534177799,
				"z": -0.7649235017,
				"element": "H" 
			},
			{
				"x": 1.0790456731,
				"y": 4.5630902713,
				"z": 0.8296102967,
				"element": "H" 
			},
			{
				"x": 2.780678094,
				"y": 3.3843671288,
				"z": -0.2414253732,
				"element": "H" 
			},
			{
				"x": 2.0324755146,
				"y": 3.4524792362,
				"z": -1.8101437483,
				"element": "H" 
			},
			{
				"x": 2.2590173523,
				"y": 1.179501078,
				"z": -0.5198583765,
				"element": "H" 
			},
			{
				"x": 1.1944169877,
				"y": 0.2018507506,
				"z": -4.8363179715,
				"element": "H" 
			},
			{
				"x": -0.3324756373,
				"y": 0.5830663425,
				"z": -3.9523473008,
				"element": "H" 
			},
			{
				"x": 0.6433855453,
				"y": 1.8723769119,
				"z": -4.6629852225,
				"element": "H" 
			},
			{
				"x": 1.5250410553,
				"y": 2.9419713171,
				"z": 1.8805409406,
				"element": "H" 
			},
			{
				"x": 2.1100346282,
				"y": 1.2736513656,
				"z": 1.9542266816,
				"element": "H" 
			},
			{
				"x": 0.5919603514,
				"y": 1.7240150538,
				"z": 2.7358877389,
				"element": "H" 
			},
			{
				"x": -4.8315047075,
				"y": -1.6261815949,
				"z": -2.7372601001,
				"element": "H" 
			},
			{
				"x": -5.395274752,
				"y": -0.154456097,
				"z": -3.5494176144,
				"element": "H" 
			},
			{
				"x": -5.6699497417,
				"y": -0.3800950222,
				"z": -1.7873468432,
				"element": "H" 
			},
			{
				"x": -1.6832519461,
				"y": -4.1588294025,
				"z": 2.8769448432,
				"element": "H" 
			},
			{
				"x": -2.6855583836,
				"y": -2.6784810614,
				"z": 3.4166947461,
				"element": "H" 
			},
			{
				"x": -0.4223515201,
				"y": -7.3456487318,
				"z": 0.3926488226,
				"element": "H" 
			},
			{
				"x": -1.7595865616,
				"y": -6.5427709344,
				"z": -0.4927040125,
				"element": "H" 
			},
			{
				"x": -0.1161119803,
				"y": -6.4527393317,
				"z": -1.1218841478,
				"element": "H" 
			}
		],
		 "valence_orbital": [ 
			{
				"type": "occ",
				"energy": -0.27604,
				"method": "rhf"
			},
			{
				"type": "occ",
				"energy": -0.27297,
				"method": "rhf"
			},
			{
				"type": "occ",
				"energy": -0.26987,
				"method": "rhf"
			},
			{
				"type": "occ",
				"energy": -0.26779,
				"method": "rhf"
			},
			{
				"type": "occ",
				"energy": -0.24618,
				"method": "rhf"
			},
			{
				"type": "unocc",
				"energy": -0.06817,
				"method": "rhf"
			},
			{
				"type": "unocc",
				"energy": -0.00118,
				"method": "rhf"
			},
			{
				"type": "unocc",
				"energy": -0.0008,
				"method": "rhf"
			},
			{
				"type": "unocc",
				"energy": 0.00669,
				"method": "rhf"
			},
			{
				"type": "unocc",
				"energy": 0.0096,
				"method": "rhf"
			}
		],
		"cosmo_sigma_profile": { 
			"-0.025": 0.0,
			"-0.024": 0.0,
			"-0.023": 0.0,
			"-0.022": 0.0,
			"-0.021": 0.0,
			"-0.02": 0.0,
			"-0.019": 0.0,
			"-0.018": 0.0,
			"-0.017": 0.0,
			"-0.016": 0.0,
			"-0.015": 0.0,
			"-0.014": 0.0,
			"-0.013": 0.0,
			"-0.012": 0.0,
			"-0.011": 0.0,
			"-0.01": 0.0,
			"-0.009": 0.0,
			"-0.008": 0.0893444453129,
			"-0.007": 7.18900746731,
			"-0.006": 28.2009069256,
			"-0.005": 37.106690873,
			"-0.004": 52.7465622139,
			"-0.003": 66.4464002473,
			"-0.002": 77.3222194877,
			"-0.001": 55.7747919076,
			"0.0": 45.9803896997,
			"0.001": 42.3756972937,
			"0.002": 29.7972678382,
			"0.003": 17.2852207787,
			"0.004": 14.3135653314,
			"0.005": 13.5184851553,
			"0.006": 10.4491255612,
			"0.007": 12.299837703,
			"0.008": 10.3887132598,
			"0.009": 10.2701104895,
			"0.01": 12.3429084788,
			"0.011": 13.6893699839,
			"0.012": 10.4651901478,
			"0.013": 2.42568234922,
			"0.014": 0.0,
			"0.015": 0.0,
			"0.016": 0.0,
			"0.017": 0.0,
			"0.018": 0.0,
			"0.019": 0.0,
			"0.02": 0.0,
			"0.021": 0.0,
			"0.022": 0.0,
			"0.023": 0.0,
			"0.024": 0.0,
			"0.025": 0.0
		}
	}
}
