{
	 "smiles": "FC1=C(F)C(F)=C(C(F)=C1F)C(F)(F)F", 
	 "Tm": 207.35, 
	 "num_atms": 15, 
	 "gaussian": { 
		 "optdone": 1, 
		 "sigma_profile": "yes", 
		 "theory": "DFT", 
		 "functional": "B3LYP", 
		 "basiset": "6-31G**", 
		 "properties": { 
			 "R2extent": 3542.84, 
			 "electric_dipole_moment_norm": 0.97086103022, 
			 "electric_quadrupole_moment_norm": 5.49638123678, 
			 "total_energy": -1065.39563238, 
			 "HOMO_LUMO_gap": 0.21744, 
			 "cosmo_polarized_energy": -3.05, 
			 "cosmo_cavitation_energy": 24.27, 
			 "cosmo_dispersion_energy": -16.68, 
			 "cosmo_repulsion_energy": 1.14, 
			 "cosmo_total_nonelectrostatic_energy": 8.73, 
			 "SMD_solvation_energy": 7.73 
		},
		"coords": [
			{
				"x": 3.4271767067,
				"y": 1.1966709957,
				"z": -0.0432806519,
				"element": "F" 
			},
			{
				"x": 2.2488724958,
				"y": 0.8104981039,
				"z": 0.4419535756,
				"element": "C" 
			},
			{
				"x": 1.097915691,
				"y": 0.9466271847,
				"z": -0.3297027253,
				"element": "C" 
			},
			{
				"x": 1.1741288363,
				"y": 1.471729325,
				"z": -1.554662093,
				"element": "F" 
			},
			{
				"x": -0.131910252,
				"y": 0.543267812,
				"z": 0.1850324109,
				"element": "C" 
			},
			{
				"x": -1.2075335113,
				"y": 0.7196850849,
				"z": -0.5861766591,
				"element": "F" 
			},
			{
				"x": -0.240080325,
				"y": -0.0226998229,
				"z": 1.4611410101,
				"element": "C" 
			},
			{
				"x": 0.9281801724,
				"y": -0.1271377314,
				"z": 2.2258513494,
				"element": "C" 
			},
			{
				"x": 0.8992605046,
				"y": -0.6124674669,
				"z": 3.4694158139,
				"element": "F" 
			},
			{
				"x": 2.164352701,
				"y": 0.272138534,
				"z": 1.7232456927,
				"element": "C" 
			},
			{
				"x": 3.2644930551,
				"y": 0.1496011111,
				"z": 2.4693983794,
				"element": "F" 
			},
			{
				"x": -1.5856913696,
				"y": -0.4247878697,
				"z": 2.0277048971,
				"element": "C" 
			},
			{
				"x": -1.4702855399,
				"y": -1.4340654923,
				"z": 2.908324672,
				"element": "F" 
			},
			{
				"x": -2.4279998031,
				"y": -0.8304550281,
				"z": 1.0615567501,
				"element": "F" 
			},
			{
				"x": -2.166979362,
				"y": 0.6107952599,
				"z": 2.6675975779,
				"element": "F" 
			}
		],
		 "valence_orbital": [ 
			{
				"type": "occ",
				"energy": -0.39723,
				"method": "rhf"
			},
			{
				"type": "occ",
				"energy": -0.39204,
				"method": "rhf"
			},
			{
				"type": "occ",
				"energy": -0.37117,
				"method": "rhf"
			},
			{
				"type": "occ",
				"energy": -0.28975,
				"method": "rhf"
			},
			{
				"type": "occ",
				"energy": -0.27345,
				"method": "rhf"
			},
			{
				"type": "unocc",
				"energy": -0.05601,
				"method": "rhf"
			},
			{
				"type": "unocc",
				"energy": -0.03453,
				"method": "rhf"
			},
			{
				"type": "unocc",
				"energy": -0.00355,
				"method": "rhf"
			},
			{
				"type": "unocc",
				"energy": 0.07733,
				"method": "rhf"
			},
			{
				"type": "unocc",
				"energy": 0.10662,
				"method": "rhf"
			}
		],
		"cosmo_sigma_profile": { 
			"-0.025": 0.0,
			"-0.024": 0.0,
			"-0.023": 0.0,
			"-0.022": 0.0,
			"-0.021": 0.0,
			"-0.02": 0.0,
			"-0.019": 0.0,
			"-0.018": 0.0,
			"-0.017": 0.0,
			"-0.016": 0.0,
			"-0.015": 0.0,
			"-0.014": 0.0,
			"-0.013": 0.0,
			"-0.012": 0.0,
			"-0.011": 0.0,
			"-0.01": 0.0,
			"-0.009": 0.0,
			"-0.008": 0.0,
			"-0.007": 0.580260015361,
			"-0.006": 2.40893220487,
			"-0.005": 13.8822872638,
			"-0.004": 19.754950876,
			"-0.003": 9.82637921,
			"-0.002": 10.0536441978,
			"-0.001": 11.0266690627,
			"0.0": 12.4798061088,
			"0.001": 24.9841666114,
			"0.002": 76.0978835632,
			"0.003": 16.6228584226,
			"0.004": 0.0644572284472,
			"0.005": 0.0,
			"0.006": 0.0,
			"0.007": 0.0,
			"0.008": 0.0,
			"0.009": 0.0,
			"0.01": 0.0,
			"0.011": 0.0,
			"0.012": 0.0,
			"0.013": 0.0,
			"0.014": 0.0,
			"0.015": 0.0,
			"0.016": 0.0,
			"0.017": 0.0,
			"0.018": 0.0,
			"0.019": 0.0,
			"0.02": 0.0,
			"0.021": 0.0,
			"0.022": 0.0,
			"0.023": 0.0,
			"0.024": 0.0,
			"0.025": 0.0
		}
	}
}
