{
	 "smiles": "OC(=O)C1=C(C=CS1)C(=O)C1=CC=CC=C1", 
	 "Tm": 424.65, 
	 "num_atms": 24, 
	 "gaussian": { 
		 "optdone": 1, 
		 "sigma_profile": "yes", 
		 "theory": "DFT", 
		 "functional": "B3LYP", 
		 "basiset": "6-31G**", 
		 "properties": { 
			 "R2extent": 4667.0812, 
			 "electric_dipole_moment_norm": 4.9877699947, 
			 "electric_quadrupole_moment_norm": 20.3263681581, 
			 "total_energy": -1085.94187764, 
			 "HOMO_LUMO_gap": 0.17624, 
			 "cosmo_polarized_energy": -18.96, 
			 "cosmo_cavitation_energy": 30.78, 
			 "cosmo_dispersion_energy": -22.2, 
			 "cosmo_repulsion_energy": 1.69, 
			 "cosmo_total_nonelectrostatic_energy": 10.26, 
			 "SMD_solvation_energy": 6.78 
		},
		"coords": [
			{
				"x": 2.1780125583,
				"y": -2.0504113193,
				"z": -3.3414015763,
				"element": "O" 
			},
			{
				"x": 1.4803183267,
				"y": -0.994072794,
				"z": -2.8428848252,
				"element": "C" 
			},
			{
				"x": 2.0537527273,
				"y": 0.0193904537,
				"z": -2.5227144139,
				"element": "O" 
			},
			{
				"x": 0.0089722404,
				"y": -1.1547939101,
				"z": -2.7373932421,
				"element": "C" 
			},
			{
				"x": -0.8508925074,
				"y": -0.3851061667,
				"z": -1.977900221,
				"element": "C" 
			},
			{
				"x": -2.2206702246,
				"y": -0.7290911924,
				"z": -2.1927958836,
				"element": "C" 
			},
			{
				"x": -2.3882393442,
				"y": -1.7519184485,
				"z": -3.0839454376,
				"element": "C" 
			},
			{
				"x": -0.8786569358,
				"y": -2.2988632478,
				"z": -3.7231631808,
				"element": "S" 
			},
			{
				"x": -0.4922749601,
				"y": 0.7690277504,
				"z": -1.0704250355,
				"element": "C" 
			},
			{
				"x": -1.0443765231,
				"y": 1.8398407662,
				"z": -1.2789728352,
				"element": "O" 
			},
			{
				"x": 0.4235492003,
				"y": 0.5689797753,
				"z": 0.0879035999,
				"element": "C" 
			},
			{
				"x": 0.7939748477,
				"y": -0.7027748756,
				"z": 0.5480071321,
				"element": "C" 
			},
			{
				"x": 1.611550427,
				"y": -0.8325533396,
				"z": 1.6697562696,
				"element": "C" 
			},
			{
				"x": 2.0694196921,
				"y": 0.3061101798,
				"z": 2.3352425545,
				"element": "C" 
			},
			{
				"x": 1.7003502696,
				"y": 1.5774922041,
				"z": 1.8838725563,
				"element": "C" 
			},
			{
				"x": 0.8757572549,
				"y": 1.7086298076,
				"z": 0.7716243155,
				"element": "C" 
			},
			{
				"x": 1.6239582647,
				"y": -2.8427511605,
				"z": -3.3948542357,
				"element": "H" 
			},
			{
				"x": -3.0376027159,
				"y": -0.2205875227,
				"z": -1.6954469577,
				"element": "H" 
			},
			{
				"x": -3.3116950365,
				"y": -2.1997244834,
				"z": -3.4247123777,
				"element": "H" 
			},
			{
				"x": 0.4330673674,
				"y": -1.5900636155,
				"z": 0.0379302926,
				"element": "H" 
			},
			{
				"x": 1.8913195939,
				"y": -1.8202113217,
				"z": 2.0241581621,
				"element": "H" 
			},
			{
				"x": 2.7115757015,
				"y": 0.2041378251,
				"z": 3.2054864941,
				"element": "H" 
			},
			{
				"x": 2.056983422,
				"y": 2.4629059088,
				"z": 2.4018353671,
				"element": "H" 
			},
			{
				"x": 0.5700463536,
				"y": 2.683508727,
				"z": 0.4074934785,
				"element": "H" 
			}
		],
		 "valence_orbital": [ 
			{
				"type": "occ",
				"energy": -0.28164,
				"method": "rhf"
			},
			{
				"type": "occ",
				"energy": -0.26377,
				"method": "rhf"
			},
			{
				"type": "occ",
				"energy": -0.25946,
				"method": "rhf"
			},
			{
				"type": "occ",
				"energy": -0.25865,
				"method": "rhf"
			},
			{
				"type": "occ",
				"energy": -0.25324,
				"method": "rhf"
			},
			{
				"type": "unocc",
				"energy": -0.077,
				"method": "rhf"
			},
			{
				"type": "unocc",
				"energy": -0.05231,
				"method": "rhf"
			},
			{
				"type": "unocc",
				"energy": -0.01062,
				"method": "rhf"
			},
			{
				"type": "unocc",
				"energy": -0.00649,
				"method": "rhf"
			},
			{
				"type": "unocc",
				"energy": 0.01184,
				"method": "rhf"
			}
		],
		"cosmo_sigma_profile": { 
			"-0.025": 0.0,
			"-0.024": 0.0,
			"-0.023": 0.0,
			"-0.022": 0.0,
			"-0.021": 0.0,
			"-0.02": 0.0,
			"-0.019": 0.0725128570256,
			"-0.018": 0.750523714339,
			"-0.017": 0.958399153599,
			"-0.016": 0.56757783712,
			"-0.015": 1.18692510686,
			"-0.014": 0.971710520134,
			"-0.013": 0.944439835299,
			"-0.012": 0.994828596332,
			"-0.011": 0.95591065373,
			"-0.01": 2.93672951079,
			"-0.009": 2.87459748413,
			"-0.008": 4.89837262148,
			"-0.007": 6.81861495529,
			"-0.006": 15.9953893867,
			"-0.005": 17.7987088992,
			"-0.004": 17.6477640066,
			"-0.003": 13.1458628308,
			"-0.002": 14.8965351544,
			"-0.001": 12.5942515416,
			"0.0": 17.537500554,
			"0.001": 18.8615801353,
			"0.002": 18.0218992211,
			"0.003": 15.4468569517,
			"0.004": 13.9393165568,
			"0.005": 6.71255310478,
			"0.006": 4.41760875558,
			"0.007": 4.6561910818,
			"0.008": 6.87503972543,
			"0.009": 4.92855765105,
			"0.01": 8.77322669417,
			"0.011": 7.93900667163,
			"0.012": 4.37090863941,
			"0.013": 0.483233341888,
			"0.014": 0.0,
			"0.015": 0.0,
			"0.016": 0.0,
			"0.017": 0.0,
			"0.018": 0.0,
			"0.019": 0.0,
			"0.02": 0.0,
			"0.021": 0.0,
			"0.022": 0.0,
			"0.023": 0.0,
			"0.024": 0.0,
			"0.025": 0.0
		}
	}
}
