{
	 "smiles": "CC(N)C1=CC=C(NC(=O)C2=CC=NC=C2)C=C1", 
	 "Tm": 433.15, 
	 "num_atms": 33, 
	 "gaussian": { 
		 "optdone": 1, 
		 "sigma_profile": "yes", 
		 "theory": "DFT", 
		 "functional": "B3LYP", 
		 "basiset": "6-31G**", 
		 "properties": { 
			 "R2extent": 6276.9992, 
			 "electric_dipole_moment_norm": 4.71358651878, 
			 "electric_quadrupole_moment_norm": 8.36698393568, 
			 "total_energy": -782.016781851, 
			 "HOMO_LUMO_gap": 0.17339, 
			 "cosmo_polarized_energy": -15.96, 
			 "cosmo_cavitation_energy": 36.99, 
			 "cosmo_dispersion_energy": -25.58, 
			 "cosmo_repulsion_energy": 2.02, 
			 "cosmo_total_nonelectrostatic_energy": 13.42, 
			 "SMD_solvation_energy": 4.88 
		},
		"coords": [
			{
				"x": -2.5061277365,
				"y": 2.295639502,
				"z": 1.4367834808,
				"element": "C" 
			},
			{
				"x": -2.6241772942,
				"y": 1.7096989739,
				"z": 0.0200119821,
				"element": "C" 
			},
			{
				"x": -2.845124763,
				"y": 2.8126318371,
				"z": -0.9248483923,
				"element": "N" 
			},
			{
				"x": -1.3678377818,
				"y": 0.9386796259,
				"z": -0.3603463065,
				"element": "C" 
			},
			{
				"x": -1.2861674487,
				"y": -0.4413207973,
				"z": -0.1395570337,
				"element": "C" 
			},
			{
				"x": -0.1338757662,
				"y": -1.1604631283,
				"z": -0.4506212755,
				"element": "C" 
			},
			{
				"x": 0.9838690758,
				"y": -0.4959809722,
				"z": -0.971522206,
				"element": "C" 
			},
			{
				"x": 2.17298134,
				"y": -1.1857878882,
				"z": -1.3315770525,
				"element": "N" 
			},
			{
				"x": 2.7797992995,
				"y": -2.2896092781,
				"z": -0.7676926731,
				"element": "C" 
			},
			{
				"x": 3.5663603002,
				"y": -2.9646246441,
				"z": -1.4220105092,
				"element": "O" 
			},
			{
				"x": 2.5273672535,
				"y": -2.6097443471,
				"z": 0.6811534144,
				"element": "C" 
			},
			{
				"x": 2.3363989586,
				"y": -1.6408786924,
				"z": 1.6722958998,
				"element": "C" 
			},
			{
				"x": 2.2156241692,
				"y": -2.0585397709,
				"z": 2.9983510174,
				"element": "C" 
			},
			{
				"x": 2.257480704,
				"y": -3.3393810087,
				"z": 3.3854290231,
				"element": "N" 
			},
			{
				"x": 2.4489483226,
				"y": -4.2577973295,
				"z": 2.4286584162,
				"element": "C" 
			},
			{
				"x": 2.6026762464,
				"y": -3.9485653347,
				"z": 1.07837664,
				"element": "C" 
			},
			{
				"x": 0.9104302425,
				"y": 0.8838432768,
				"z": -1.2034500481,
				"element": "C" 
			},
			{
				"x": -0.2546184884,
				"y": 1.5885829641,
				"z": -0.9088501803,
				"element": "C" 
			},
			{
				"x": -1.6811346012,
				"y": 3.0127036601,
				"z": 1.4809665431,
				"element": "H" 
			},
			{
				"x": -2.3238950327,
				"y": 1.505985866,
				"z": 2.1710729787,
				"element": "H" 
			},
			{
				"x": -3.4296858598,
				"y": 2.8147746017,
				"z": 1.7197396802,
				"element": "H" 
			},
			{
				"x": -3.4580568058,
				"y": 0.9846476672,
				"z": 0.0320486952,
				"element": "H" 
			},
			{
				"x": -3.6697780188,
				"y": 3.3405534125,
				"z": -0.6497675288,
				"element": "H" 
			},
			{
				"x": -3.0277501418,
				"y": 2.4441005896,
				"z": -1.855430489,
				"element": "H" 
			},
			{
				"x": -2.1465242071,
				"y": -0.971167803,
				"z": 0.2628576324,
				"element": "H" 
			},
			{
				"x": -0.1057817497,
				"y": -2.23458552,
				"z": -0.3032754657,
				"element": "H" 
			},
			{
				"x": 2.5410878572,
				"y": -0.9979001857,
				"z": -2.2570295645,
				"element": "H" 
			},
			{
				"x": 2.292102805,
				"y": -0.5857110856,
				"z": 1.4278361204,
				"element": "H" 
			},
			{
				"x": 2.0771457021,
				"y": -1.3230243063,
				"z": 3.7888504459,
				"element": "H" 
			},
			{
				"x": 2.4883270563,
				"y": -5.293885908,
				"z": 2.7600391996,
				"element": "H" 
			},
			{
				"x": 2.7884835303,
				"y": -4.7204867756,
				"z": 0.3397917296,
				"element": "H" 
			},
			{
				"x": 1.7743301403,
				"y": 1.4011565073,
				"z": -1.6124186549,
				"element": "H" 
			},
			{
				"x": -0.314777308,
				"y": 2.6544562917,
				"z": -1.102665519,
				"element": "H" 
			}
		],
		 "valence_orbital": [ 
			{
				"type": "occ",
				"energy": -0.26211,
				"method": "rhf"
			},
			{
				"type": "occ",
				"energy": -0.25824,
				"method": "rhf"
			},
			{
				"type": "occ",
				"energy": -0.25298,
				"method": "rhf"
			},
			{
				"type": "occ",
				"energy": -0.24735,
				"method": "rhf"
			},
			{
				"type": "occ",
				"energy": -0.22745,
				"method": "rhf"
			},
			{
				"type": "unocc",
				"energy": -0.05406,
				"method": "rhf"
			},
			{
				"type": "unocc",
				"energy": -0.01902,
				"method": "rhf"
			},
			{
				"type": "unocc",
				"energy": -0.01064,
				"method": "rhf"
			},
			{
				"type": "unocc",
				"energy": -0.00613,
				"method": "rhf"
			},
			{
				"type": "unocc",
				"energy": 0.0462,
				"method": "rhf"
			}
		],
		"cosmo_sigma_profile": { 
			"-0.025": 0.0,
			"-0.024": 0.0,
			"-0.023": 0.0,
			"-0.022": 0.0,
			"-0.021": 0.0,
			"-0.02": 0.0,
			"-0.019": 0.0,
			"-0.018": 0.0,
			"-0.017": 0.0,
			"-0.016": 0.0,
			"-0.015": 0.129792262856,
			"-0.014": 1.1161134742,
			"-0.013": 0.885100383378,
			"-0.012": 0.814545929033,
			"-0.011": 1.1444615717,
			"-0.01": 1.71415511044,
			"-0.009": 3.98080151815,
			"-0.008": 3.66973448831,
			"-0.007": 8.65042708389,
			"-0.006": 16.8278070281,
			"-0.005": 18.4969527555,
			"-0.004": 19.4313317416,
			"-0.003": 23.1909348675,
			"-0.002": 25.0788454998,
			"-0.001": 21.6899988945,
			"0.0": 23.6087977466,
			"0.001": 27.6175289977,
			"0.002": 22.1019727781,
			"0.003": 11.8463018462,
			"0.004": 12.9112708436,
			"0.005": 10.0171016643,
			"0.006": 4.51049327785,
			"0.007": 4.91678712177,
			"0.008": 2.90775702325,
			"0.009": 2.37354751394,
			"0.01": 3.86247054379,
			"0.011": 3.35098324795,
			"0.012": 5.6613060922,
			"0.013": 6.11852227367,
			"0.014": 1.47419097448,
			"0.015": 1.31562796924,
			"0.016": 1.50376375428,
			"0.017": 0.195362592133,
			"0.018": 0.0,
			"0.019": 0.0,
			"0.02": 0.0,
			"0.021": 0.0,
			"0.022": 0.0,
			"0.023": 0.0,
			"0.024": 0.0,
			"0.025": 0.0
		}
	}
}
