{
	 "smiles": "CC(C)CC=C", 
	 "Tm": 119.15, 
	 "num_atms": 18, 
	 "gaussian": { 
		 "optdone": 1, 
		 "sigma_profile": "yes", 
		 "theory": "DFT", 
		 "functional": "B3LYP", 
		 "basiset": "6-31G**", 
		 "properties": { 
			 "R2extent": 997.6852, 
			 "electric_dipole_moment_norm": 0.336233148277, 
			 "electric_quadrupole_moment_norm": 1.56037485881, 
			 "total_energy": -235.860296052, 
			 "HOMO_LUMO_gap": 0.27148, 
			 "cosmo_polarized_energy": -1.52, 
			 "cosmo_cavitation_energy": 19.95, 
			 "cosmo_dispersion_energy": -14.1, 
			 "cosmo_repulsion_energy": 1.22, 
			 "cosmo_total_nonelectrostatic_energy": 7.07, 
			 "SMD_solvation_energy": 4.14 
		},
		"coords": [
			{
				"x": -0.0722775043,
				"y": -2.35679348,
				"z": -1.8602964017,
				"element": "C" 
			},
			{
				"x": -0.0858538538,
				"y": -0.8213560875,
				"z": -1.8086853441,
				"element": "C" 
			},
			{
				"x": 1.1614034241,
				"y": -0.2302352011,
				"z": -2.4799438162,
				"element": "C" 
			},
			{
				"x": -0.2752102519,
				"y": -0.2792393167,
				"z": -0.366421335,
				"element": "C" 
			},
			{
				"x": 0.8134037289,
				"y": -0.6490539014,
				"z": 0.6057467087,
				"element": "C" 
			},
			{
				"x": 1.6222069426,
				"y": 0.2179046505,
				"z": 1.2172276467,
				"element": "C" 
			},
			{
				"x": 0.810106024,
				"y": -2.7687559763,
				"z": -1.3580367649,
				"element": "H" 
			},
			{
				"x": -0.0513314725,
				"y": -2.7107054417,
				"z": -2.8966559567,
				"element": "H" 
			},
			{
				"x": -0.9608268087,
				"y": -2.7827752168,
				"z": -1.3804536191,
				"element": "H" 
			},
			{
				"x": -0.964241749,
				"y": -0.4820226464,
				"z": -2.3762328473,
				"element": "H" 
			},
			{
				"x": 1.122538564,
				"y": 0.8647202361,
				"z": -2.4975653563,
				"element": "H" 
			},
			{
				"x": 1.253183287,
				"y": -0.5787521668,
				"z": -3.5144004992,
				"element": "H" 
			},
			{
				"x": 2.0719433269,
				"y": -0.5192090904,
				"z": -1.9441723953,
				"element": "H" 
			},
			{
				"x": -1.2351835726,
				"y": -0.6581322408,
				"z": 0.0143218727,
				"element": "H" 
			},
			{
				"x": -0.3637635891,
				"y": 0.813673709,
				"z": -0.4077745357,
				"element": "H" 
			},
			{
				"x": 0.9308674204,
				"y": -1.7116976674,
				"z": 0.819926553,
				"element": "H" 
			},
			{
				"x": 2.3875187576,
				"y": -0.1067777638,
				"z": 1.9164893044,
				"element": "H" 
			},
			{
				"x": 1.5441173264,
				"y": 1.2892076016,
				"z": 1.0445267861,
				"element": "H" 
			}
		],
		 "valence_orbital": [ 
			{
				"type": "occ",
				"energy": -0.34885,
				"method": "rhf"
			},
			{
				"type": "occ",
				"energy": -0.33109,
				"method": "rhf"
			},
			{
				"type": "occ",
				"energy": -0.32228,
				"method": "rhf"
			},
			{
				"type": "occ",
				"energy": -0.31105,
				"method": "rhf"
			},
			{
				"type": "occ",
				"energy": -0.24941,
				"method": "rhf"
			},
			{
				"type": "unocc",
				"energy": 0.02207,
				"method": "rhf"
			},
			{
				"type": "unocc",
				"energy": 0.09223,
				"method": "rhf"
			},
			{
				"type": "unocc",
				"energy": 0.11637,
				"method": "rhf"
			},
			{
				"type": "unocc",
				"energy": 0.13732,
				"method": "rhf"
			},
			{
				"type": "unocc",
				"energy": 0.14433,
				"method": "rhf"
			}
		],
		"cosmo_sigma_profile": { 
			"-0.025": 0.0,
			"-0.024": 0.0,
			"-0.023": 0.0,
			"-0.022": 0.0,
			"-0.021": 0.0,
			"-0.02": 0.0,
			"-0.019": 0.0,
			"-0.018": 0.0,
			"-0.017": 0.0,
			"-0.016": 0.0,
			"-0.015": 0.0,
			"-0.014": 0.0,
			"-0.013": 0.0,
			"-0.012": 0.0,
			"-0.011": 0.0,
			"-0.01": 0.0,
			"-0.009": 0.0,
			"-0.008": 0.0,
			"-0.007": 0.0,
			"-0.006": 0.0,
			"-0.005": 0.797684759412,
			"-0.004": 4.97731166527,
			"-0.003": 11.0413865947,
			"-0.002": 26.1557086272,
			"-0.001": 28.1420166546,
			"0.0": 26.6398563143,
			"0.001": 22.7360656611,
			"0.002": 15.0349689525,
			"0.003": 5.05258890849,
			"0.004": 4.89942594211,
			"0.005": 4.50152989635,
			"0.006": 2.52944781077,
			"0.007": 1.66792808061,
			"0.008": 0.279341317565,
			"0.009": 0.0,
			"0.01": 0.0,
			"0.011": 0.0,
			"0.012": 0.0,
			"0.013": 0.0,
			"0.014": 0.0,
			"0.015": 0.0,
			"0.016": 0.0,
			"0.017": 0.0,
			"0.018": 0.0,
			"0.019": 0.0,
			"0.02": 0.0,
			"0.021": 0.0,
			"0.022": 0.0,
			"0.023": 0.0,
			"0.024": 0.0,
			"0.025": 0.0
		}
	}
}
