{
	 "smiles": "NC(=S)C1=CC=C(NC(=O)C2=CC=CO2)C=C1", 
	 "Tm": 532.15, 
	 "num_atms": 27, 
	 "gaussian": { 
		 "optdone": 1, 
		 "sigma_profile": "yes", 
		 "theory": "DFT", 
		 "functional": "B3LYP", 
		 "basiset": "6-31G**", 
		 "properties": { 
			 "R2extent": 6303.3365, 
			 "electric_dipole_moment_norm": 5.27969638995, 
			 "electric_quadrupole_moment_norm": 30.670918081, 
			 "total_energy": -1121.43085206, 
			 "HOMO_LUMO_gap": 0.14008, 
			 "cosmo_polarized_energy": -24.94, 
			 "cosmo_cavitation_energy": 34.14, 
			 "cosmo_dispersion_energy": -24.77, 
			 "cosmo_repulsion_energy": 1.89, 
			 "cosmo_total_nonelectrostatic_energy": 11.26, 
			 "SMD_solvation_energy": 6.52 
		},
		"coords": [
			{
				"x": 4.2414572409,
				"y": 0.9332909746,
				"z": 0.0757759719,
				"element": "N" 
			},
			{
				"x": 3.9424429167,
				"y": -0.0835954188,
				"z": 0.9197361382,
				"element": "C" 
			},
			{
				"x": 5.1459359413,
				"y": -0.9644211101,
				"z": 1.6715757045,
				"element": "S" 
			},
			{
				"x": 2.4915045906,
				"y": -0.3203808786,
				"z": 1.1372765966,
				"element": "C" 
			},
			{
				"x": 2.0269170533,
				"y": -1.5917076403,
				"z": 1.5107547807,
				"element": "C" 
			},
			{
				"x": 0.6723444695,
				"y": -1.8290624084,
				"z": 1.6968595352,
				"element": "C" 
			},
			{
				"x": -0.2658587158,
				"y": -0.794216799,
				"z": 1.5440126381,
				"element": "C" 
			},
			{
				"x": -1.6220276892,
				"y": -1.077640578,
				"z": 1.8030854868,
				"element": "N" 
			},
			{
				"x": -2.7972971852,
				"y": -0.4852887337,
				"z": 1.3493497404,
				"element": "C" 
			},
			{
				"x": -3.8238382442,
				"y": -0.5775533377,
				"z": 2.0070412361,
				"element": "O" 
			},
			{
				"x": -2.7854469057,
				"y": 0.1448148237,
				"z": 0.013821072,
				"element": "C" 
			},
			{
				"x": -2.0395849599,
				"y": -0.0181884351,
				"z": -1.1270471526,
				"element": "C" 
			},
			{
				"x": -2.6617259891,
				"y": 0.7742915079,
				"z": -2.1359174262,
				"element": "C" 
			},
			{
				"x": -3.7397657124,
				"y": 1.3612719192,
				"z": -1.5365546373,
				"element": "C" 
			},
			{
				"x": -3.8336329067,
				"y": 0.986542791,
				"z": -0.2406791235,
				"element": "O" 
			},
			{
				"x": 0.1912082655,
				"y": 0.4904562542,
				"z": 1.212151606,
				"element": "C" 
			},
			{
				"x": 1.5468930531,
				"y": 0.7128972179,
				"z": 0.9968414775,
				"element": "C" 
			},
			{
				"x": 5.2155957695,
				"y": 1.1106961828,
				"z": -0.1210706784,
				"element": "H" 
			},
			{
				"x": 3.5490199362,
				"y": 1.3141753596,
				"z": -0.5517917644,
				"element": "H" 
			},
			{
				"x": 2.7483026472,
				"y": -2.3911100874,
				"z": 1.6390871834,
				"element": "H" 
			},
			{
				"x": 0.3263522592,
				"y": -2.8254316902,
				"z": 1.9570507744,
				"element": "H" 
			},
			{
				"x": -1.8082361097,
				"y": -1.6813098197,
				"z": 2.5952884428,
				"element": "H" 
			},
			{
				"x": -1.160371743,
				"y": -0.6358374169,
				"z": -1.2320350941,
				"element": "H" 
			},
			{
				"x": -2.3532818963,
				"y": 0.8882792959,
				"z": -3.1649547124,
				"element": "H" 
			},
			{
				"x": -4.4994232343,
				"y": 2.0444712983,
				"z": -1.8845663204,
				"element": "H" 
			},
			{
				"x": -0.5085270216,
				"y": 1.3149219116,
				"z": 1.1456879302,
				"element": "H" 
			},
			{
				"x": 1.8763441702,
				"y": 1.7254348174,
				"z": 0.7830205946,
				"element": "H" 
			}
		],
		 "valence_orbital": [ 
			{
				"type": "occ",
				"energy": -0.26968,
				"method": "rhf"
			},
			{
				"type": "occ",
				"energy": -0.24974,
				"method": "rhf"
			},
			{
				"type": "occ",
				"energy": -0.24352,
				"method": "rhf"
			},
			{
				"type": "occ",
				"energy": -0.22752,
				"method": "rhf"
			},
			{
				"type": "occ",
				"energy": -0.20938,
				"method": "rhf"
			},
			{
				"type": "unocc",
				"energy": -0.0693,
				"method": "rhf"
			},
			{
				"type": "unocc",
				"energy": -0.04276,
				"method": "rhf"
			},
			{
				"type": "unocc",
				"energy": -0.02358,
				"method": "rhf"
			},
			{
				"type": "unocc",
				"energy": 0.01482,
				"method": "rhf"
			},
			{
				"type": "unocc",
				"energy": 0.03693,
				"method": "rhf"
			}
		],
		"cosmo_sigma_profile": { 
			"-0.025": 0.0,
			"-0.024": 0.0,
			"-0.023": 0.0,
			"-0.022": 0.0,
			"-0.021": 0.0,
			"-0.02": 0.0,
			"-0.019": 0.0,
			"-0.018": 0.0,
			"-0.017": 0.0,
			"-0.016": 0.115154507643,
			"-0.015": 2.25693604862,
			"-0.014": 3.35944683543,
			"-0.013": 3.14862892345,
			"-0.012": 4.90822389428,
			"-0.011": 2.44627973175,
			"-0.01": 4.29723898885,
			"-0.009": 5.67805658334,
			"-0.008": 7.49414724091,
			"-0.007": 11.2917284925,
			"-0.006": 13.680613089,
			"-0.005": 13.3438185931,
			"-0.004": 13.3361674938,
			"-0.003": 12.9487719572,
			"-0.002": 12.8064071262,
			"-0.001": 14.8376803827,
			"0.0": 17.5479115339,
			"0.001": 21.2799129762,
			"0.002": 19.4474538554,
			"0.003": 18.9789634555,
			"0.004": 11.3311871009,
			"0.005": 6.34537749407,
			"0.006": 6.66583094648,
			"0.007": 6.7549093575,
			"0.008": 7.79429544028,
			"0.009": 9.26210017514,
			"0.01": 5.81716382556,
			"0.011": 6.27716087043,
			"0.012": 7.06733009668,
			"0.013": 4.8689554501,
			"0.014": 1.21679322298,
			"0.015": 0.0,
			"0.016": 0.0,
			"0.017": 0.0,
			"0.018": 0.0,
			"0.019": 0.0,
			"0.02": 0.0,
			"0.021": 0.0,
			"0.022": 0.0,
			"0.023": 0.0,
			"0.024": 0.0,
			"0.025": 0.0
		}
	}
}
