{
	 "smiles": "CC1=CC(=CC=C1N=O)N=O", 
	 "Tm": 410.15, 
	 "num_atms": 17, 
	 "gaussian": { 
		 "optdone": 1, 
		 "sigma_profile": "yes", 
		 "theory": "DFT", 
		 "functional": "B3LYP", 
		 "basiset": "6-31G**", 
		 "properties": { 
			 "R2extent": 1941.4834, 
			 "electric_dipole_moment_norm": 0.717287313425, 
			 "electric_quadrupole_moment_norm": 14.5511631707, 
			 "total_energy": -530.141985528, 
			 "HOMO_LUMO_gap": 0.0973, 
			 "cosmo_polarized_energy": -7.3, 
			 "cosmo_cavitation_energy": 22.64, 
			 "cosmo_dispersion_energy": -16.32, 
			 "cosmo_repulsion_energy": 1.31, 
			 "cosmo_total_nonelectrostatic_energy": 7.63, 
			 "SMD_solvation_energy": 4.6 
		},
		"coords": [
			{
				"x": -0.3942380026,
				"y": -1.819774441,
				"z": 1.2653285794,
				"element": "C" 
			},
			{
				"x": -0.1780322066,
				"y": -0.4783132525,
				"z": 0.6074203576,
				"element": "C" 
			},
			{
				"x": 0.3279508279,
				"y": 0.6037169877,
				"z": 1.3264125808,
				"element": "C" 
			},
			{
				"x": 0.5223018404,
				"y": 1.840799275,
				"z": 0.7018090158,
				"element": "C" 
			},
			{
				"x": 0.2205299506,
				"y": 2.038517482,
				"z": -0.6515777417,
				"element": "C" 
			},
			{
				"x": -0.2836527267,
				"y": 0.9753573286,
				"z": -1.385428499,
				"element": "C" 
			},
			{
				"x": -0.4781235925,
				"y": -0.2633133818,
				"z": -0.7594011046,
				"element": "C" 
			},
			{
				"x": -1.0009488495,
				"y": -1.4055813696,
				"z": -1.4748639832,
				"element": "N" 
			},
			{
				"x": -1.2534891755,
				"y": -1.2022839815,
				"z": -2.6517769904,
				"element": "O" 
			},
			{
				"x": 1.0437982083,
				"y": 3.0039625014,
				"z": 1.3911453402,
				"element": "N" 
			},
			{
				"x": 1.3048950908,
				"y": 2.8220250463,
				"z": 2.5683456613,
				"element": "O" 
			},
			{
				"x": -1.4423299685,
				"y": -2.1270006239,
				"z": 1.2081335331,
				"element": "H" 
			},
			{
				"x": 0.1885952499,
				"y": -2.6034271511,
				"z": 0.7731172781,
				"element": "H" 
			},
			{
				"x": -0.1018514362,
				"y": -1.7790670492,
				"z": 2.3171063916,
				"element": "H" 
			},
			{
				"x": 0.5810971826,
				"y": 0.5142012907,
				"z": 2.3779437699,
				"element": "H" 
			},
			{
				"x": 0.3893469826,
				"y": 3.0175566592,
				"z": -1.0888088082,
				"element": "H" 
			},
			{
				"x": -0.536949375,
				"y": 1.0632246799,
				"z": -2.4363053808,
				"element": "H" 
			}
		],
		 "valence_orbital": [ 
			{
				"type": "occ",
				"energy": -0.37102,
				"method": "rhf"
			},
			{
				"type": "occ",
				"energy": -0.28947,
				"method": "rhf"
			},
			{
				"type": "occ",
				"energy": -0.28255,
				"method": "rhf"
			},
			{
				"type": "occ",
				"energy": -0.23649,
				"method": "rhf"
			},
			{
				"type": "occ",
				"energy": -0.23367,
				"method": "rhf"
			},
			{
				"type": "unocc",
				"energy": -0.13637,
				"method": "rhf"
			},
			{
				"type": "unocc",
				"energy": -0.08379,
				"method": "rhf"
			},
			{
				"type": "unocc",
				"energy": -0.03429,
				"method": "rhf"
			},
			{
				"type": "unocc",
				"energy": 0.01739,
				"method": "rhf"
			},
			{
				"type": "unocc",
				"energy": 0.09368,
				"method": "rhf"
			}
		],
		"cosmo_sigma_profile": { 
			"-0.025": 0.0,
			"-0.024": 0.0,
			"-0.023": 0.0,
			"-0.022": 0.0,
			"-0.021": 0.0,
			"-0.02": 0.0,
			"-0.019": 0.0,
			"-0.018": 0.0,
			"-0.017": 0.0,
			"-0.016": 0.0,
			"-0.015": 0.0,
			"-0.014": 0.0,
			"-0.013": 0.0,
			"-0.012": 0.0,
			"-0.011": 0.0,
			"-0.01": 0.0,
			"-0.009": 0.195579690407,
			"-0.008": 2.42006633508,
			"-0.007": 5.48810924709,
			"-0.006": 7.38949974424,
			"-0.005": 8.55244716004,
			"-0.004": 15.246618168,
			"-0.003": 15.7493398067,
			"-0.002": 22.7187986878,
			"-0.001": 27.2751588989,
			"0.0": 16.6104553902,
			"0.001": 7.34096343473,
			"0.002": 4.85570024409,
			"0.003": 4.64533561436,
			"0.004": 5.05961009744,
			"0.005": 6.4061358441,
			"0.006": 8.30348232973,
			"0.007": 8.20985621605,
			"0.008": 6.63641430536,
			"0.009": 5.09860439851,
			"0.01": 3.33845770562,
			"0.011": 0.398489356564,
			"0.012": 0.0,
			"0.013": 0.0,
			"0.014": 0.0,
			"0.015": 0.0,
			"0.016": 0.0,
			"0.017": 0.0,
			"0.018": 0.0,
			"0.019": 0.0,
			"0.02": 0.0,
			"0.021": 0.0,
			"0.022": 0.0,
			"0.023": 0.0,
			"0.024": 0.0,
			"0.025": 0.0
		}
	}
}
