{
	 "smiles": "NNC1=NC=C(C=C1)S(=O)(=O)NC1CCCC1", 
	 "Tm": 441.15, 
	 "num_atms": 33, 
	 "gaussian": { 
		 "optdone": 1, 
		 "sigma_profile": "yes", 
		 "theory": "DFT", 
		 "functional": "B3LYP", 
		 "basiset": "6-31G**", 
		 "properties": { 
			 "R2extent": 6905.7557, 
			 "electric_dipole_moment_norm": 4.25107701647, 
			 "electric_quadrupole_moment_norm": 27.575995239, 
			 "total_energy": -1158.25236303, 
			 "HOMO_LUMO_gap": 0.19275, 
			 "cosmo_polarized_energy": -19.61, 
			 "cosmo_cavitation_energy": 37.24, 
			 "cosmo_dispersion_energy": -26.61, 
			 "cosmo_repulsion_energy": 2.06, 
			 "cosmo_total_nonelectrostatic_energy": 12.69, 
			 "SMD_solvation_energy": 3.35 
		},
		"coords": [
			{
				"x": 2.7441482064,
				"y": 3.8711768433,
				"z": 3.2087486433,
				"element": "N" 
			},
			{
				"x": 1.425152964,
				"y": 3.5649889384,
				"z": 2.8616676021,
				"element": "N" 
			},
			{
				"x": 1.0089090122,
				"y": 3.2374609461,
				"z": 1.5966920066,
				"element": "C" 
			},
			{
				"x": -0.3299865293,
				"y": 3.2577405101,
				"z": 1.4219016646,
				"element": "N" 
			},
			{
				"x": -0.8083882289,
				"y": 2.9295367401,
				"z": 0.2266436613,
				"element": "C" 
			},
			{
				"x": 0.0061658605,
				"y": 2.5610891858,
				"z": -0.8501045625,
				"element": "C" 
			},
			{
				"x": 1.3921081249,
				"y": 2.5479162803,
				"z": -0.6706159257,
				"element": "C" 
			},
			{
				"x": 1.9114432711,
				"y": 2.8881454562,
				"z": 0.5686262493,
				"element": "C" 
			},
			{
				"x": -0.6941982193,
				"y": 2.2075598192,
				"z": -2.447708651,
				"element": "S" 
			},
			{
				"x": -1.5607033877,
				"y": 3.3211066648,
				"z": -2.852601243,
				"element": "O" 
			},
			{
				"x": 0.4113102687,
				"y": 1.7590008736,
				"z": -3.3069355867,
				"element": "O" 
			},
			{
				"x": -1.7710432763,
				"y": 0.936185761,
				"z": -2.1319930515,
				"element": "N" 
			},
			{
				"x": -1.3019373694,
				"y": -0.4504905174,
				"z": -2.3149420606,
				"element": "C" 
			},
			{
				"x": -0.4160635986,
				"y": -0.9691052314,
				"z": -1.1726514427,
				"element": "C" 
			},
			{
				"x": -0.4603868098,
				"y": -2.4997582783,
				"z": -1.3567565041,
				"element": "C" 
			},
			{
				"x": -1.8558864051,
				"y": -2.8056576495,
				"z": -1.9825539458,
				"element": "C" 
			},
			{
				"x": -2.4902691976,
				"y": -1.4273073712,
				"z": -2.2953907043,
				"element": "C" 
			},
			{
				"x": 3.3029236009,
				"y": 3.0215132485,
				"z": 3.2300693731,
				"element": "H" 
			},
			{
				"x": 3.156954404,
				"y": 4.5152617933,
				"z": 2.5345767446,
				"element": "H" 
			},
			{
				"x": 0.714763177,
				"y": 3.9478052647,
				"z": 3.47026705,
				"element": "H" 
			},
			{
				"x": -1.8894760386,
				"y": 2.9566151429,
				"z": 0.1123450288,
				"element": "H" 
			},
			{
				"x": 2.0371004829,
				"y": 2.2724507894,
				"z": -1.4982499973,
				"element": "H" 
			},
			{
				"x": 2.9803967582,
				"y": 2.8800999766,
				"z": 0.7454077489,
				"element": "H" 
			},
			{
				"x": -2.6027977311,
				"y": 1.1478092695,
				"z": -2.6804910961,
				"element": "H" 
			},
			{
				"x": -0.7564709761,
				"y": -0.5489398537,
				"z": -3.2637365916,
				"element": "H" 
			},
			{
				"x": 0.5995995825,
				"y": -0.5650927457,
				"z": -1.1990431324,
				"element": "H" 
			},
			{
				"x": -0.8701498633,
				"y": -0.6748321583,
				"z": -0.2188999214,
				"element": "H" 
			},
			{
				"x": 0.3354857577,
				"y": -2.8189460436,
				"z": -2.0381636406,
				"element": "H" 
			},
			{
				"x": -0.2983898076,
				"y": -3.0295334597,
				"z": -0.4137597732,
				"element": "H" 
			},
			{
				"x": -1.7477754764,
				"y": -3.401957587,
				"z": -2.8936783892,
				"element": "H" 
			},
			{
				"x": -2.4912126981,
				"y": -3.3825215644,
				"z": -1.3044165832,
				"element": "H" 
			},
			{
				"x": -3.1714696195,
				"y": -1.1252264937,
				"z": -1.4908062274,
				"element": "H" 
			},
			{
				"x": -3.0594562379,
				"y": -1.4192945499,
				"z": -3.2309467423,
				"element": "H" 
			}
		],
		 "valence_orbital": [ 
			{
				"type": "occ",
				"energy": -0.29415,
				"method": "rhf"
			},
			{
				"type": "occ",
				"energy": -0.28704,
				"method": "rhf"
			},
			{
				"type": "occ",
				"energy": -0.27113,
				"method": "rhf"
			},
			{
				"type": "occ",
				"energy": -0.26849,
				"method": "rhf"
			},
			{
				"type": "occ",
				"energy": -0.22724,
				"method": "rhf"
			},
			{
				"type": "unocc",
				"energy": -0.03449,
				"method": "rhf"
			},
			{
				"type": "unocc",
				"energy": -0.02531,
				"method": "rhf"
			},
			{
				"type": "unocc",
				"energy": 0.05824,
				"method": "rhf"
			},
			{
				"type": "unocc",
				"energy": 0.06675,
				"method": "rhf"
			},
			{
				"type": "unocc",
				"energy": 0.07584,
				"method": "rhf"
			}
		],
		"cosmo_sigma_profile": { 
			"-0.025": 0.0,
			"-0.024": 0.0,
			"-0.023": 0.0,
			"-0.022": 0.0,
			"-0.021": 0.0,
			"-0.02": 0.0,
			"-0.019": 0.0,
			"-0.018": 0.0,
			"-0.017": 0.0,
			"-0.016": 0.0,
			"-0.015": 0.0,
			"-0.014": 0.27327889407,
			"-0.013": 1.98403488239,
			"-0.012": 2.62337030693,
			"-0.011": 4.90228882148,
			"-0.01": 6.66922779026,
			"-0.009": 5.89736523286,
			"-0.008": 5.50654839537,
			"-0.007": 7.89534182075,
			"-0.006": 7.83471936446,
			"-0.005": 6.86731120563,
			"-0.004": 13.3330079911,
			"-0.003": 23.5294832134,
			"-0.002": 33.8432396135,
			"-0.001": 29.228747806,
			"0.0": 24.6144904816,
			"0.001": 29.2680022861,
			"0.002": 15.5410562748,
			"0.003": 9.76573773115,
			"0.004": 7.23909439993,
			"0.005": 5.38334371354,
			"0.006": 6.13333080512,
			"0.007": 5.1948325158,
			"0.008": 4.25126671244,
			"0.009": 4.97344545628,
			"0.01": 7.71828155897,
			"0.011": 10.5874925324,
			"0.012": 7.05849201213,
			"0.013": 1.49667259918,
			"0.014": 1.03727635462,
			"0.015": 0.816313745474,
			"0.016": 0.29595041524,
			"0.017": 0.0294962489517,
			"0.018": 0.0,
			"0.019": 0.0,
			"0.02": 0.0,
			"0.021": 0.0,
			"0.022": 0.0,
			"0.023": 0.0,
			"0.024": 0.0,
			"0.025": 0.0
		}
	}
}
