{
	 "smiles": "OC(=O)CC1=CC=C2CC(=O)NC2=C1", 
	 "Tm": 511.15, 
	 "num_atms": 23, 
	 "gaussian": { 
		 "optdone": 1, 
		 "sigma_profile": "yes", 
		 "theory": "DFT", 
		 "functional": "B3LYP", 
		 "basiset": "6-31G**", 
		 "properties": { 
			 "R2extent": 3999.9337, 
			 "electric_dipole_moment_norm": 5.57488344093, 
			 "electric_quadrupole_moment_norm": 19.4988812992, 
			 "total_energy": -666.940434442, 
			 "HOMO_LUMO_gap": 0.20043, 
			 "cosmo_polarized_energy": -23.26, 
			 "cosmo_cavitation_energy": 27.76, 
			 "cosmo_dispersion_energy": -20.46, 
			 "cosmo_repulsion_energy": 1.63, 
			 "cosmo_total_nonelectrostatic_energy": 8.93, 
			 "SMD_solvation_energy": 6.17 
		},
		"coords": [
			{
				"x": -3.1362989914,
				"y": -4.2033168487,
				"z": -2.3915032466,
				"element": "O" 
			},
			{
				"x": -2.4055775915,
				"y": -3.4424204218,
				"z": -1.5319465386,
				"element": "C" 
			},
			{
				"x": -2.1158580582,
				"y": -3.8735985618,
				"z": -0.4463667313,
				"element": "O" 
			},
			{
				"x": -2.073252679,
				"y": -2.0380238576,
				"z": -2.0499735545,
				"element": "C" 
			},
			{
				"x": -0.9644923323,
				"y": -1.3208667259,
				"z": -1.313434944,
				"element": "C" 
			},
			{
				"x": 0.1384951701,
				"y": -0.8349244253,
				"z": -2.0239000895,
				"element": "C" 
			},
			{
				"x": 1.1696066658,
				"y": -0.1383047724,
				"z": -1.3766206158,
				"element": "C" 
			},
			{
				"x": 1.0918894401,
				"y": 0.0669320712,
				"z": -0.009253246,
				"element": "C" 
			},
			{
				"x": 2.0099521541,
				"y": 0.7547852805,
				"z": 0.968904099,
				"element": "C" 
			},
			{
				"x": 1.2926783435,
				"y": 0.5878827086,
				"z": 2.3217528564,
				"element": "C" 
			},
			{
				"x": 1.6524285989,
				"y": 0.976541971,
				"z": 3.4144144594,
				"element": "O" 
			},
			{
				"x": 0.1225766014,
				"y": -0.1095771475,
				"z": 2.0541548431,
				"element": "N" 
			},
			{
				"x": -0.0189235838,
				"y": -0.4295007512,
				"z": 0.6987712635,
				"element": "C" 
			},
			{
				"x": -1.0511018777,
				"y": -1.1152472644,
				"z": 0.0742394113,
				"element": "C" 
			},
			{
				"x": -3.2791854917,
				"y": -3.733076975,
				"z": -3.224902362,
				"element": "H" 
			},
			{
				"x": -1.8302868068,
				"y": -2.0956041176,
				"z": -3.1176863492,
				"element": "H" 
			},
			{
				"x": -3.0104882309,
				"y": -1.4646615552,
				"z": -1.9838340903,
				"element": "H" 
			},
			{
				"x": 0.1976955909,
				"y": -0.9987119343,
				"z": -3.0964274691,
				"element": "H" 
			},
			{
				"x": 2.0176040244,
				"y": 0.2312428256,
				"z": -1.9465687934,
				"element": "H" 
			},
			{
				"x": 3.0067122621,
				"y": 0.3039991656,
				"z": 1.0325545555,
				"element": "H" 
			},
			{
				"x": 2.1541937287,
				"y": 1.8221170725,
				"z": 0.7665043632,
				"element": "H" 
			},
			{
				"x": -0.5218522428,
				"y": -0.367438272,
				"z": 2.7870439272,
				"element": "H" 
			},
			{
				"x": -1.8886146938,
				"y": -1.5100274644,
				"z": 0.6378782516,
				"element": "H" 
			}
		],
		 "valence_orbital": [ 
			{
				"type": "occ",
				"energy": -0.31031,
				"method": "rhf"
			},
			{
				"type": "occ",
				"energy": -0.28002,
				"method": "rhf"
			},
			{
				"type": "occ",
				"energy": -0.25622,
				"method": "rhf"
			},
			{
				"type": "occ",
				"energy": -0.25368,
				"method": "rhf"
			},
			{
				"type": "occ",
				"energy": -0.21948,
				"method": "rhf"
			},
			{
				"type": "unocc",
				"energy": -0.01905,
				"method": "rhf"
			},
			{
				"type": "unocc",
				"energy": -0.00703,
				"method": "rhf"
			},
			{
				"type": "unocc",
				"energy": 0.0039,
				"method": "rhf"
			},
			{
				"type": "unocc",
				"energy": 0.03263,
				"method": "rhf"
			},
			{
				"type": "unocc",
				"energy": 0.04733,
				"method": "rhf"
			}
		],
		"cosmo_sigma_profile": { 
			"-0.025": 0.0,
			"-0.024": 0.0,
			"-0.023": 0.0,
			"-0.022": 0.0,
			"-0.021": 0.0,
			"-0.02": 0.0317386453293,
			"-0.019": 0.872414822294,
			"-0.018": 1.13846787164,
			"-0.017": 0.926083338152,
			"-0.016": 1.55215567525,
			"-0.015": 2.68165463327,
			"-0.014": 2.27566361901,
			"-0.013": 1.29711341944,
			"-0.012": 2.72977250687,
			"-0.011": 2.42995541831,
			"-0.01": 2.95572112589,
			"-0.009": 2.22521768487,
			"-0.008": 5.20512249872,
			"-0.007": 9.30680722541,
			"-0.006": 13.6324049735,
			"-0.005": 14.0229354623,
			"-0.004": 14.9317123792,
			"-0.003": 14.2096837679,
			"-0.002": 10.5714834666,
			"-0.001": 8.87908831584,
			"0.0": 9.01406092528,
			"0.001": 10.5632432354,
			"0.002": 8.53674318659,
			"0.003": 10.1078993884,
			"0.004": 8.72685340935,
			"0.005": 9.98120627295,
			"0.006": 7.1971958368,
			"0.007": 4.13028128591,
			"0.008": 4.03142770953,
			"0.009": 5.2029888221,
			"0.01": 5.93505796695,
			"0.011": 7.59541133974,
			"0.012": 8.08942383395,
			"0.013": 7.34300997376,
			"0.014": 2.42897814591,
			"0.015": 0.0699858017164,
			"0.016": 0.0,
			"0.017": 0.0,
			"0.018": 0.0,
			"0.019": 0.0,
			"0.02": 0.0,
			"0.021": 0.0,
			"0.022": 0.0,
			"0.023": 0.0,
			"0.024": 0.0,
			"0.025": 0.0
		}
	}
}
