{
	 "smiles": "ClC(C=O)=CC1=CC=CC=C1", 
	 "Tm": 294.15, 
	 "num_atms": 18, 
	 "gaussian": { 
		 "optdone": 1, 
		 "sigma_profile": "yes", 
		 "theory": "DFT", 
		 "functional": "B3LYP", 
		 "basiset": "6-31G**", 
		 "properties": { 
			 "R2extent": 2907.3746, 
			 "electric_dipole_moment_norm": 3.06772873801, 
			 "electric_quadrupole_moment_norm": 4.77435092447, 
			 "total_energy": -882.5662061, 
			 "HOMO_LUMO_gap": 0.15319, 
			 "cosmo_polarized_energy": -6.68, 
			 "cosmo_cavitation_energy": 24.48, 
			 "cosmo_dispersion_energy": -18.0, 
			 "cosmo_repulsion_energy": 1.43, 
			 "cosmo_total_nonelectrostatic_energy": 7.91, 
			 "SMD_solvation_energy": 5.17 
		},
		"coords": [
			{
				"x": 2.7131758264,
				"y": 0.6638085941,
				"z": -2.569221856,
				"element": "Cl" 
			},
			{
				"x": 2.5448580836,
				"y": -0.0788443498,
				"z": -0.9853816163,
				"element": "C" 
			},
			{
				"x": 3.8350157946,
				"y": -0.5339939069,
				"z": -0.4036848716,
				"element": "C" 
			},
			{
				"x": 3.9320477132,
				"y": -1.0717832847,
				"z": 0.6822929648,
				"element": "O" 
			},
			{
				"x": 1.3907831266,
				"y": -0.2520333791,
				"z": -0.3046543015,
				"element": "C" 
			},
			{
				"x": -0.0068906543,
				"y": 0.0618870033,
				"z": -0.5640581814,
				"element": "C" 
			},
			{
				"x": -0.4997518286,
				"y": 0.690318519,
				"z": -1.7277355417,
				"element": "C" 
			},
			{
				"x": -1.8611601681,
				"y": 0.942665269,
				"z": -1.8700256418,
				"element": "C" 
			},
			{
				"x": -2.7618789273,
				"y": 0.5790689405,
				"z": -0.8653557925,
				"element": "C" 
			},
			{
				"x": -2.2921408374,
				"y": -0.0437244452,
				"z": 0.2931859794,
				"element": "C" 
			},
			{
				"x": -0.9328309674,
				"y": -0.2979363905,
				"z": 0.43974953,
				"element": "C" 
			},
			{
				"x": 4.7194620417,
				"y": -0.3439651,
				"z": -1.0439245648,
				"element": "H" 
			},
			{
				"x": 1.5793440392,
				"y": -0.7397078578,
				"z": 0.6520881365,
				"element": "H" 
			},
			{
				"x": 0.1807722668,
				"y": 0.9794813322,
				"z": -2.5167138314,
				"element": "H" 
			},
			{
				"x": -2.2223130245,
				"y": 1.4271077385,
				"z": -2.7724304705,
				"element": "H" 
			},
			{
				"x": -3.8224759036,
				"y": 0.7800094173,
				"z": -0.9851902685,
				"element": "H" 
			},
			{
				"x": -2.9839375907,
				"y": -0.330135586,
				"z": 1.0796130916,
				"element": "H" 
			},
			{
				"x": -0.5693789902,
				"y": -0.782622514,
				"z": 1.3418472358,
				"element": "H" 
			}
		],
		 "valence_orbital": [ 
			{
				"type": "occ",
				"energy": -0.324,
				"method": "rhf"
			},
			{
				"type": "occ",
				"energy": -0.3042,
				"method": "rhf"
			},
			{
				"type": "occ",
				"energy": -0.26726,
				"method": "rhf"
			},
			{
				"type": "occ",
				"energy": -0.26655,
				"method": "rhf"
			},
			{
				"type": "occ",
				"energy": -0.23982,
				"method": "rhf"
			},
			{
				"type": "unocc",
				"energy": -0.08663,
				"method": "rhf"
			},
			{
				"type": "unocc",
				"energy": -0.01512,
				"method": "rhf"
			},
			{
				"type": "unocc",
				"energy": -0.00284,
				"method": "rhf"
			},
			{
				"type": "unocc",
				"energy": 0.02539,
				"method": "rhf"
			},
			{
				"type": "unocc",
				"energy": 0.06898,
				"method": "rhf"
			}
		],
		"cosmo_sigma_profile": { 
			"-0.025": 0.0,
			"-0.024": 0.0,
			"-0.023": 0.0,
			"-0.022": 0.0,
			"-0.021": 0.0,
			"-0.02": 0.0,
			"-0.019": 0.0,
			"-0.018": 0.0,
			"-0.017": 0.0,
			"-0.016": 0.0,
			"-0.015": 0.0,
			"-0.014": 0.0,
			"-0.013": 0.0,
			"-0.012": 0.0,
			"-0.011": 0.0,
			"-0.01": 0.0,
			"-0.009": 0.18614738969,
			"-0.008": 1.98277748947,
			"-0.007": 6.39739146351,
			"-0.006": 11.9182511771,
			"-0.005": 14.6195619548,
			"-0.004": 14.4505047484,
			"-0.003": 11.9620205143,
			"-0.002": 13.1047434426,
			"-0.001": 13.0302222963,
			"0.0": 21.7565819109,
			"0.001": 18.8402399593,
			"0.002": 16.3442152335,
			"0.003": 18.5864414397,
			"0.004": 18.1035034275,
			"0.005": 2.3360027757,
			"0.006": 1.55547154888,
			"0.007": 1.93909281232,
			"0.008": 1.30129692263,
			"0.009": 2.29857292589,
			"0.01": 3.593992091,
			"0.011": 3.8065063492,
			"0.012": 1.23892200771,
			"0.013": 0.0393993296493,
			"0.014": 0.0,
			"0.015": 0.0,
			"0.016": 0.0,
			"0.017": 0.0,
			"0.018": 0.0,
			"0.019": 0.0,
			"0.02": 0.0,
			"0.021": 0.0,
			"0.022": 0.0,
			"0.023": 0.0,
			"0.024": 0.0,
			"0.025": 0.0
		}
	}
}
