{
	 "smiles": "FC(F)(F)C1=CC(NC(=O)C2=CC(NC(=O)CCl)=CC=C2)=CC=C1", 
	 "Tm": 471.15, 
	 "num_atms": 36, 
	 "gaussian": { 
		 "optdone": 1, 
		 "sigma_profile": "yes", 
		 "theory": "DFT", 
		 "functional": "B3LYP", 
		 "basiset": "6-31G**", 
		 "properties": { 
			 "R2extent": 9653.0574, 
			 "electric_dipole_moment_norm": 4.60646982623, 
			 "electric_quadrupole_moment_norm": 19.972990525, 
			 "total_energy": -1636.62832833, 
			 "HOMO_LUMO_gap": 0.18366, 
			 "cosmo_polarized_energy": -20.97, 
			 "cosmo_cavitation_energy": 44.3, 
			 "cosmo_dispersion_energy": -28.39, 
			 "cosmo_repulsion_energy": 2.08, 
			 "cosmo_total_nonelectrostatic_energy": 17.99, 
			 "SMD_solvation_energy": 9.45 
		},
		"coords": [
			{
				"x": -5.9239436948,
				"y": 0.8892235438,
				"z": -1.0421654368,
				"element": "F" 
			},
			{
				"x": -5.1081597941,
				"y": -0.0753538141,
				"z": -0.5563133034,
				"element": "C" 
			},
			{
				"x": -5.4472018816,
				"y": -0.2643347394,
				"z": 0.7364800503,
				"element": "F" 
			},
			{
				"x": -5.4004534558,
				"y": -1.2102474248,
				"z": -1.2274771346,
				"element": "F" 
			},
			{
				"x": -3.6584501557,
				"y": 0.3046751647,
				"z": -0.7119394242,
				"element": "C" 
			},
			{
				"x": -2.9923100082,
				"y": 0.9314716603,
				"z": 0.3393435084,
				"element": "C" 
			},
			{
				"x": -1.6617933223,
				"y": 1.343527742,
				"z": 0.1850891162,
				"element": "C" 
			},
			{
				"x": -1.0464756298,
				"y": 2.0187741098,
				"z": 1.2635479939,
				"element": "N" 
			},
			{
				"x": 0.2936561305,
				"y": 2.1981870772,
				"z": 1.5775886303,
				"element": "C" 
			},
			{
				"x": 0.637512025,
				"y": 3.164404567,
				"z": 2.2448987681,
				"element": "O" 
			},
			{
				"x": 1.2888439316,
				"y": 1.157553043,
				"z": 1.1519228947,
				"element": "C" 
			},
			{
				"x": 1.0030727589,
				"y": -0.2122618946,
				"z": 1.2328857006,
				"element": "C" 
			},
			{
				"x": 1.9911986538,
				"y": -1.1505175264,
				"z": 0.9078910895,
				"element": "C" 
			},
			{
				"x": 1.799339703,
				"y": -2.5483999471,
				"z": 1.0047397744,
				"element": "N" 
			},
			{
				"x": 0.7393870913,
				"y": -3.3888673296,
				"z": 0.7244125379,
				"element": "C" 
			},
			{
				"x": 0.8747179683,
				"y": -4.5976287114,
				"z": 0.8242578486,
				"element": "O" 
			},
			{
				"x": -0.582824454,
				"y": -2.791907635,
				"z": 0.2590948628,
				"element": "C" 
			},
			{
				"x": -1.705528853,
				"y": -2.5608628759,
				"z": 1.6661589669,
				"element": "Cl" 
			},
			{
				"x": 3.2651811446,
				"y": -0.7006319408,
				"z": 0.5215218007,
				"element": "C" 
			},
			{
				"x": 3.5507749692,
				"y": 0.6608780668,
				"z": 0.4747982455,
				"element": "C" 
			},
			{
				"x": 2.5686023133,
				"y": 1.596207023,
				"z": 0.7955200135,
				"element": "C" 
			},
			{
				"x": -1.014070208,
				"y": 1.12348638,
				"z": -1.0402680394,
				"element": "C" 
			},
			{
				"x": -1.6843977408,
				"y": 0.4722683389,
				"z": -2.0759898251,
				"element": "C" 
			},
			{
				"x": -3.0076721655,
				"y": 0.0606458515,
				"z": -1.9240988836,
				"element": "C" 
			},
			{
				"x": -3.4986146818,
				"y": 1.0855522651,
				"z": 1.2861073576,
				"element": "H" 
			},
			{
				"x": -1.6282858233,
				"y": 2.6852141915,
				"z": 1.7583450413,
				"element": "H" 
			},
			{
				"x": 0.0361817773,
				"y": -0.5373450256,
				"z": 1.5971051999,
				"element": "H" 
			},
			{
				"x": 2.6305850232,
				"y": -3.0908688791,
				"z": 1.209948358,
				"element": "H" 
			},
			{
				"x": -0.4874080206,
				"y": -1.829619719,
				"z": -0.2426283827,
				"element": "H" 
			},
			{
				"x": -1.0535425817,
				"y": -3.5232569508,
				"z": -0.3950593853,
				"element": "H" 
			},
			{
				"x": 4.0297418584,
				"y": -1.4281386134,
				"z": 0.2622913416,
				"element": "H" 
			},
			{
				"x": 4.5444068662,
				"y": 0.9907621743,
				"z": 0.1874437162,
				"element": "H" 
			},
			{
				"x": 2.7793830914,
				"y": 2.6597866154,
				"z": 0.7886856762,
				"element": "H" 
			},
			{
				"x": 0.0021243221,
				"y": 1.470187961,
				"z": -1.1858986475,
				"element": "H" 
			},
			{
				"x": -1.1716835025,
				"y": 0.3054462212,
				"z": -3.0184757528,
				"element": "H" 
			},
			{
				"x": -3.5299936544,
				"y": -0.4405089694,
				"z": -2.7311642778,
				"element": "H" 
			}
		],
		 "valence_orbital": [ 
			{
				"type": "occ",
				"energy": -0.27906,
				"method": "rhf"
			},
			{
				"type": "occ",
				"energy": -0.27152,
				"method": "rhf"
			},
			{
				"type": "occ",
				"energy": -0.26694,
				"method": "rhf"
			},
			{
				"type": "occ",
				"energy": -0.24642,
				"method": "rhf"
			},
			{
				"type": "occ",
				"energy": -0.24331,
				"method": "rhf"
			},
			{
				"type": "unocc",
				"energy": -0.05965,
				"method": "rhf"
			},
			{
				"type": "unocc",
				"energy": -0.04608,
				"method": "rhf"
			},
			{
				"type": "unocc",
				"energy": -0.03701,
				"method": "rhf"
			},
			{
				"type": "unocc",
				"energy": -0.02782,
				"method": "rhf"
			},
			{
				"type": "unocc",
				"energy": -0.0125,
				"method": "rhf"
			}
		],
		"cosmo_sigma_profile": { 
			"-0.025": 0.0,
			"-0.024": 0.0,
			"-0.023": 0.0,
			"-0.022": 0.0,
			"-0.021": 0.0,
			"-0.02": 0.0,
			"-0.019": 0.0,
			"-0.018": 0.0,
			"-0.017": 0.0,
			"-0.016": 0.00743845654473,
			"-0.015": 0.984541726894,
			"-0.014": 2.63300096006,
			"-0.013": 2.30982290904,
			"-0.012": 2.30353605542,
			"-0.011": 2.57899392783,
			"-0.01": 2.05643021917,
			"-0.009": 3.47199427768,
			"-0.008": 6.02601576731,
			"-0.007": 12.8850556576,
			"-0.006": 18.4643501091,
			"-0.005": 18.9911805707,
			"-0.004": 16.7910151121,
			"-0.003": 19.6729779095,
			"-0.002": 21.7347695067,
			"-0.001": 23.9671645958,
			"0.0": 26.6377240077,
			"0.001": 28.9077791652,
			"0.002": 39.56681402,
			"0.003": 50.8395193562,
			"0.004": 12.0579587708,
			"0.005": 7.83804700834,
			"0.006": 4.02662168312,
			"0.007": 1.96246174805,
			"0.008": 2.80174609252,
			"0.009": 3.63506286815,
			"0.01": 2.60033321497,
			"0.011": 4.47516756132,
			"0.012": 9.508021071,
			"0.013": 7.08708976441,
			"0.014": 0.454433798997,
			"0.015": 0.0,
			"0.016": 0.0,
			"0.017": 0.0,
			"0.018": 0.0,
			"0.019": 0.0,
			"0.02": 0.0,
			"0.021": 0.0,
			"0.022": 0.0,
			"0.023": 0.0,
			"0.024": 0.0,
			"0.025": 0.0
		}
	}
}
