{
	 "smiles": "CCCNC(=O)C1=CN=C(Cl)C=C1", 
	 "Tm": 382.15, 
	 "num_atms": 24, 
	 "gaussian": { 
		 "optdone": 1, 
		 "sigma_profile": "yes", 
		 "theory": "DFT", 
		 "functional": "B3LYP", 
		 "basiset": "6-31G**", 
		 "properties": { 
			 "R2extent": 4858.5463, 
			 "electric_dipole_moment_norm": 5.37436669851, 
			 "electric_quadrupole_moment_norm": 8.70536547079, 
			 "total_energy": -994.527890143, 
			 "HOMO_LUMO_gap": 0.19888, 
			 "cosmo_polarized_energy": -15.01, 
			 "cosmo_cavitation_energy": 30.03, 
			 "cosmo_dispersion_energy": -21.68, 
			 "cosmo_repulsion_energy": 1.74, 
			 "cosmo_total_nonelectrostatic_energy": 10.09, 
			 "SMD_solvation_energy": 3.47 
		},
		"coords": [
			{
				"x": -2.0176736709,
				"y": 2.3823159777,
				"z": -2.6014074086,
				"element": "C" 
			},
			{
				"x": -1.7552514561,
				"y": 0.9696122898,
				"z": -3.1312557347,
				"element": "C" 
			},
			{
				"x": -0.4187169035,
				"y": 0.3680291627,
				"z": -2.670244319,
				"element": "C" 
			},
			{
				"x": -0.311978155,
				"y": 0.18779767,
				"z": -1.2239932358,
				"element": "N" 
			},
			{
				"x": -0.825387303,
				"y": -0.9221628132,
				"z": -0.6094127484,
				"element": "C" 
			},
			{
				"x": -1.348286591,
				"y": -1.8424249445,
				"z": -1.2318183921,
				"element": "O" 
			},
			{
				"x": -0.7060923867,
				"y": -0.9662536202,
				"z": 0.8883961131,
				"element": "C" 
			},
			{
				"x": -1.5722120292,
				"y": -1.8165334513,
				"z": 1.5862938879,
				"element": "C" 
			},
			{
				"x": -1.5694853982,
				"y": -1.9506567325,
				"z": 2.9176978732,
				"element": "N" 
			},
			{
				"x": -0.6817653317,
				"y": -1.2443503038,
				"z": 3.595865181,
				"element": "C" 
			},
			{
				"x": -0.6897160643,
				"y": -1.4323419793,
				"z": 5.3452988241,
				"element": "Cl" 
			},
			{
				"x": 0.2529805487,
				"y": -0.3773130664,
				"z": 3.0226252096,
				"element": "C" 
			},
			{
				"x": 0.2308464586,
				"y": -0.2432996889,
				"z": 1.6387095687,
				"element": "C" 
			},
			{
				"x": -2.0651454803,
				"y": 2.3985019548,
				"z": -1.506684528,
				"element": "H" 
			},
			{
				"x": -2.9710814453,
				"y": 2.7714829314,
				"z": -2.9713512018,
				"element": "H" 
			},
			{
				"x": -1.2316697698,
				"y": 3.0802583544,
				"z": -2.9144775204,
				"element": "H" 
			},
			{
				"x": -2.5600471574,
				"y": 0.2922765528,
				"z": -2.8253501777,
				"element": "H" 
			},
			{
				"x": -1.7547559953,
				"y": 0.9806857729,
				"z": -4.2286653346,
				"element": "H" 
			},
			{
				"x": 0.4163562751,
				"y": 1.0037006472,
				"z": -2.9876864231,
				"element": "H" 
			},
			{
				"x": -0.2840173165,
				"y": -0.6179292612,
				"z": -3.1203073403,
				"element": "H" 
			},
			{
				"x": -0.097902726,
				"y": 0.9954934619,
				"z": -0.6594818271,
				"element": "H" 
			},
			{
				"x": -2.293244274,
				"y": -2.4096743049,
				"z": 1.0314978048,
				"element": "H" 
			},
			{
				"x": 0.9672224978,
				"y": 0.1556870969,
				"z": 3.6384106614,
				"element": "H" 
			},
			{
				"x": 0.9623236738,
				"y": 0.3972982936,
				"z": 1.1541410678,
				"element": "H" 
			}
		],
		 "valence_orbital": [ 
			{
				"type": "occ",
				"energy": -0.3087,
				"method": "rhf"
			},
			{
				"type": "occ",
				"energy": -0.28436,
				"method": "rhf"
			},
			{
				"type": "occ",
				"energy": -0.26941,
				"method": "rhf"
			},
			{
				"type": "occ",
				"energy": -0.2632,
				"method": "rhf"
			},
			{
				"type": "occ",
				"energy": -0.25565,
				"method": "rhf"
			},
			{
				"type": "unocc",
				"energy": -0.05677,
				"method": "rhf"
			},
			{
				"type": "unocc",
				"energy": -0.04228,
				"method": "rhf"
			},
			{
				"type": "unocc",
				"energy": 0.02786,
				"method": "rhf"
			},
			{
				"type": "unocc",
				"energy": 0.03874,
				"method": "rhf"
			},
			{
				"type": "unocc",
				"energy": 0.06615,
				"method": "rhf"
			}
		],
		"cosmo_sigma_profile": { 
			"-0.025": 0.0,
			"-0.024": 0.0,
			"-0.023": 0.0,
			"-0.022": 0.0,
			"-0.021": 0.0,
			"-0.02": 0.0,
			"-0.019": 0.0,
			"-0.018": 0.0,
			"-0.017": 0.0,
			"-0.016": 0.0,
			"-0.015": 0.171513839708,
			"-0.014": 1.31580008792,
			"-0.013": 0.935819743404,
			"-0.012": 1.16177078734,
			"-0.011": 1.32103647868,
			"-0.01": 2.51218731473,
			"-0.009": 3.08365794533,
			"-0.008": 5.2463419343,
			"-0.007": 5.55982522597,
			"-0.006": 6.00830186491,
			"-0.005": 7.07883396605,
			"-0.004": 9.50578650525,
			"-0.003": 18.8389561213,
			"-0.002": 25.0372265574,
			"-0.001": 31.9353357458,
			"0.0": 29.8324900101,
			"0.001": 21.5417159007,
			"0.002": 11.5036375445,
			"0.003": 10.3888592597,
			"0.004": 12.7773325238,
			"0.005": 5.73450245112,
			"0.006": 4.59596310112,
			"0.007": 3.69491645221,
			"0.008": 3.0507801388,
			"0.009": 1.81996963582,
			"0.01": 2.20372548889,
			"0.011": 2.92489651475,
			"0.012": 3.07110195993,
			"0.013": 4.53463342675,
			"0.014": 3.02859424629,
			"0.015": 0.0196089824207,
			"0.016": 0.0,
			"0.017": 0.0,
			"0.018": 0.0,
			"0.019": 0.0,
			"0.02": 0.0,
			"0.021": 0.0,
			"0.022": 0.0,
			"0.023": 0.0,
			"0.024": 0.0,
			"0.025": 0.0
		}
	}
}
