{
	 "smiles": "O=C1CNC(=O)CN1", 
	 "Tm": 573.15, 
	 "num_atms": 14, 
	 "gaussian": { 
		 "optdone": 1, 
		 "sigma_profile": "yes", 
		 "theory": "DFT", 
		 "functional": "B3LYP", 
		 "basiset": "6-31G**", 
		 "properties": { 
			 "R2extent": 1315.7959, 
			 "electric_dipole_moment_norm": 0.838885915962, 
			 "electric_quadrupole_moment_norm": 23.6314536739, 
			 "total_energy": -416.011004003, 
			 "HOMO_LUMO_gap": 0.26341, 
			 "cosmo_polarized_energy": -17.69, 
			 "cosmo_cavitation_energy": 17.82, 
			 "cosmo_dispersion_energy": -13.79, 
			 "cosmo_repulsion_energy": 1.18, 
			 "cosmo_total_nonelectrostatic_energy": 5.21, 
			 "SMD_solvation_energy": 3.23 
		},
		"coords": [
			{
				"x": -0.3883686911,
				"y": -1.3001275665,
				"z": 2.9211021283,
				"element": "O" 
			},
			{
				"x": -0.3723446623,
				"y": -1.2622437595,
				"z": 1.699931294,
				"element": "C" 
			},
			{
				"x": -0.1161002846,
				"y": -2.5265232961,
				"z": 0.8834299581,
				"element": "C" 
			},
			{
				"x": -0.5091128626,
				"y": -2.420988039,
				"z": -0.5136715862,
				"element": "N" 
			},
			{
				"x": -0.5719135679,
				"y": -1.2718317449,
				"z": -1.2418952632,
				"element": "C" 
			},
			{
				"x": -0.7575182156,
				"y": -1.2480959519,
				"z": -2.4493456854,
				"element": "O" 
			},
			{
				"x": -0.3860533275,
				"y": 0.0234501886,
				"z": -0.4554905447,
				"element": "C" 
			},
			{
				"x": -0.5685429171,
				"y": -0.1224374179,
				"z": 0.9807894034,
				"element": "N" 
			},
			{
				"x": -0.6798815385,
				"y": -3.3274129045,
				"z": 1.3683833833,
				"element": "H" 
			},
			{
				"x": 0.9506476762,
				"y": -2.7743444734,
				"z": 0.9909678639,
				"element": "H" 
			},
			{
				"x": -0.5909139453,
				"y": -3.2686631863,
				"z": -1.0606017869,
				"element": "H" 
			},
			{
				"x": -1.1158275693,
				"y": 0.7336263472,
				"z": -0.8523975162,
				"element": "H" 
			},
			{
				"x": 0.6115895416,
				"y": 0.4160108296,
				"z": -0.7035442701,
				"element": "H" 
			},
			{
				"x": -0.6928596359,
				"y": 0.7107809746,
				"z": 1.5417426217,
				"element": "H" 
			}
		],
		 "valence_orbital": [ 
			{
				"type": "occ",
				"energy": -0.36126,
				"method": "rhf"
			},
			{
				"type": "occ",
				"energy": -0.27693,
				"method": "rhf"
			},
			{
				"type": "occ",
				"energy": -0.27084,
				"method": "rhf"
			},
			{
				"type": "occ",
				"energy": -0.26166,
				"method": "rhf"
			},
			{
				"type": "occ",
				"energy": -0.25065,
				"method": "rhf"
			},
			{
				"type": "unocc",
				"energy": 0.01276,
				"method": "rhf"
			},
			{
				"type": "unocc",
				"energy": 0.01578,
				"method": "rhf"
			},
			{
				"type": "unocc",
				"energy": 0.06291,
				"method": "rhf"
			},
			{
				"type": "unocc",
				"energy": 0.0909,
				"method": "rhf"
			},
			{
				"type": "unocc",
				"energy": 0.11975,
				"method": "rhf"
			}
		],
		"cosmo_sigma_profile": { 
			"-0.025": 0.0,
			"-0.024": 0.0,
			"-0.023": 0.0,
			"-0.022": 0.0,
			"-0.021": 0.0,
			"-0.02": 0.0,
			"-0.019": 0.0,
			"-0.018": 0.0,
			"-0.017": 0.0,
			"-0.016": 0.0,
			"-0.015": 0.808138138711,
			"-0.014": 2.47689848505,
			"-0.013": 2.4102790484,
			"-0.012": 2.11489491887,
			"-0.011": 2.5676857522,
			"-0.01": 1.67975010117,
			"-0.009": 2.6593591818,
			"-0.008": 4.66360554367,
			"-0.007": 13.6639199935,
			"-0.006": 11.7976630138,
			"-0.005": 10.4914734273,
			"-0.004": 7.11545168769,
			"-0.003": 6.01486161846,
			"-0.002": 7.01828840548,
			"-0.001": 5.04842374199,
			"0.0": 3.94611307619,
			"0.001": 4.45928378515,
			"0.002": 4.84066236552,
			"0.003": 3.36367851619,
			"0.004": 2.41735397308,
			"0.005": 2.25377100197,
			"0.006": 2.06732020216,
			"0.007": 2.81713406011,
			"0.008": 1.87539560803,
			"0.009": 1.6712228478,
			"0.01": 2.14681197012,
			"0.011": 4.01834115597,
			"0.012": 4.14249535844,
			"0.013": 9.5446999183,
			"0.014": 9.21902702729,
			"0.015": 1.09859964556,
			"0.016": 0.0,
			"0.017": 0.0,
			"0.018": 0.0,
			"0.019": 0.0,
			"0.02": 0.0,
			"0.021": 0.0,
			"0.022": 0.0,
			"0.023": 0.0,
			"0.024": 0.0,
			"0.025": 0.0
		}
	}
}
