{
	 "smiles": "OC(=O)C1=CC=C(C=C1)C1=NN=NN1", 
	 "Tm": 556.15, 
	 "num_atms": 20, 
	 "gaussian": { 
		 "optdone": 1, 
		 "sigma_profile": "yes", 
		 "theory": "DFT", 
		 "functional": "B3LYP", 
		 "basiset": "6-31G**", 
		 "properties": { 
			 "R2extent": 4185.2167, 
			 "electric_dipole_moment_norm": 5.59783564782, 
			 "electric_quadrupole_moment_norm": 32.0888534463, 
			 "total_energy": -677.874263199, 
			 "HOMO_LUMO_gap": 0.18314, 
			 "cosmo_polarized_energy": -28.44, 
			 "cosmo_cavitation_energy": 26.02, 
			 "cosmo_dispersion_energy": -19.36, 
			 "cosmo_repulsion_energy": 1.49, 
			 "cosmo_total_nonelectrostatic_energy": 8.15, 
			 "SMD_solvation_energy": 3.83 
		},
		"coords": [
			{
				"x": 1.2518224656,
				"y": 5.0780450943,
				"z": -0.4996796237,
				"element": "O" 
			},
			{
				"x": 0.3241948224,
				"y": 4.6098621497,
				"z": 0.3766568514,
				"element": "C" 
			},
			{
				"x": -0.2042937917,
				"y": 5.360467673,
				"z": 1.160960664,
				"element": "O" 
			},
			{
				"x": 0.0108629506,
				"y": 3.1429716041,
				"z": 0.3116284123,
				"element": "C" 
			},
			{
				"x": -1.2092718989,
				"y": 2.7111657996,
				"z": 0.8517669024,
				"element": "C" 
			},
			{
				"x": -1.5545931511,
				"y": 1.3670227981,
				"z": 0.8303254887,
				"element": "C" 
			},
			{
				"x": -0.6721070019,
				"y": 0.4183193178,
				"z": 0.2845092671,
				"element": "C" 
			},
			{
				"x": 0.5585716378,
				"y": 0.8455504711,
				"z": -0.2350510491,
				"element": "C" 
			},
			{
				"x": 0.8953377802,
				"y": 2.1962467792,
				"z": -0.2224103834,
				"element": "C" 
			},
			{
				"x": -1.0699028115,
				"y": -0.9902390218,
				"z": 0.2831862117,
				"element": "C" 
			},
			{
				"x": -2.2381721499,
				"y": -1.4681183763,
				"z": 0.689195386,
				"element": "N" 
			},
			{
				"x": -2.1882026695,
				"y": -2.8121503496,
				"z": 0.5191363595,
				"element": "N" 
			},
			{
				"x": -1.0491551367,
				"y": -3.1815378802,
				"z": 0.0300960834,
				"element": "N" 
			},
			{
				"x": -0.3292316563,
				"y": -2.0474720657,
				"z": -0.1273127518,
				"element": "N" 
			},
			{
				"x": 1.4500773575,
				"y": 4.4109408008,
				"z": -1.1711667514,
				"element": "H" 
			},
			{
				"x": -1.8735840484,
				"y": 3.451035025,
				"z": 1.284546156,
				"element": "H" 
			},
			{
				"x": -2.5014133575,
				"y": 1.0273063248,
				"z": 1.2349304996,
				"element": "H" 
			},
			{
				"x": 1.2651863048,
				"y": 0.1331483829,
				"z": -0.6510536736,
				"element": "H" 
			},
			{
				"x": 1.8705480923,
				"y": 2.4943286514,
				"z": -0.5984378725,
				"element": "H" 
			},
			{
				"x": 0.6110262621,
				"y": -2.0993931783,
				"z": -0.4900261767,
				"element": "H" 
			}
		],
		 "valence_orbital": [ 
			{
				"type": "occ",
				"energy": -0.31073,
				"method": "rhf"
			},
			{
				"type": "occ",
				"energy": -0.29612,
				"method": "rhf"
			},
			{
				"type": "occ",
				"energy": -0.29416,
				"method": "rhf"
			},
			{
				"type": "occ",
				"energy": -0.2877,
				"method": "rhf"
			},
			{
				"type": "occ",
				"energy": -0.27161,
				"method": "rhf"
			},
			{
				"type": "unocc",
				"energy": -0.08847,
				"method": "rhf"
			},
			{
				"type": "unocc",
				"energy": -0.04513,
				"method": "rhf"
			},
			{
				"type": "unocc",
				"energy": -0.01846,
				"method": "rhf"
			},
			{
				"type": "unocc",
				"energy": 0.00354,
				"method": "rhf"
			},
			{
				"type": "unocc",
				"energy": 0.0295,
				"method": "rhf"
			}
		],
		"cosmo_sigma_profile": { 
			"-0.025": 0.0,
			"-0.024": 0.0,
			"-0.023": 0.0,
			"-0.022": 0.0,
			"-0.021": 0.0,
			"-0.02": 0.349757989423,
			"-0.019": 1.96015845331,
			"-0.018": 3.04106395743,
			"-0.017": 1.33837658469,
			"-0.016": 3.23715911978,
			"-0.015": 2.68580520895,
			"-0.014": 2.3011790683,
			"-0.013": 1.60134998064,
			"-0.012": 2.18412781853,
			"-0.011": 2.74328757254,
			"-0.01": 2.69193958234,
			"-0.009": 3.4739462471,
			"-0.008": 4.58846799871,
			"-0.007": 6.60004345908,
			"-0.006": 7.94774080003,
			"-0.005": 7.36898975928,
			"-0.004": 9.9533821882,
			"-0.003": 10.7746653985,
			"-0.002": 11.2390779833,
			"-0.001": 10.462208467,
			"0.0": 12.2199532558,
			"0.001": 18.0877334759,
			"0.002": 10.768534616,
			"0.003": 4.7240801979,
			"0.004": 4.50088751976,
			"0.005": 4.7806025829,
			"0.006": 5.62848611282,
			"0.007": 7.10130725353,
			"0.008": 7.68111736156,
			"0.009": 7.85807737346,
			"0.01": 10.4011645475,
			"0.011": 9.87674690096,
			"0.012": 6.41069481739,
			"0.013": 2.85745875762,
			"0.014": 0.7035375008,
			"0.015": 0.0,
			"0.016": 0.0,
			"0.017": 0.0,
			"0.018": 0.0,
			"0.019": 0.0,
			"0.02": 0.0,
			"0.021": 0.0,
			"0.022": 0.0,
			"0.023": 0.0,
			"0.024": 0.0,
			"0.025": 0.0
		}
	}
}
