{
	 "smiles": "OC(=O)CC1=CSC(=N1)C1=NC=CC=N1", 
	 "Tm": 447.15, 
	 "num_atms": 22, 
	 "gaussian": { 
		 "optdone": 1, 
		 "sigma_profile": "yes", 
		 "theory": "DFT", 
		 "functional": "B3LYP", 
		 "basiset": "6-31G**", 
		 "properties": { 
			 "R2extent": 4614.2045, 
			 "electric_dipole_moment_norm": 7.26821198232, 
			 "electric_quadrupole_moment_norm": 30.1438131967, 
			 "total_energy": -1060.06935489, 
			 "HOMO_LUMO_gap": 0.15489, 
			 "cosmo_polarized_energy": -17.66, 
			 "cosmo_cavitation_energy": 29.23, 
			 "cosmo_dispersion_energy": -22.05, 
			 "cosmo_repulsion_energy": 1.68, 
			 "cosmo_total_nonelectrostatic_energy": 8.86, 
			 "SMD_solvation_energy": 3.12 
		},
		"coords": [
			{
				"x": -0.9057574905,
				"y": 2.0491807523,
				"z": 2.8871485847,
				"element": "O" 
			},
			{
				"x": -2.163179021,
				"y": 2.5128106804,
				"z": 2.8925626409,
				"element": "C" 
			},
			{
				"x": -2.5225486033,
				"y": 3.387091735,
				"z": 3.6452451664,
				"element": "O" 
			},
			{
				"x": -3.1604375027,
				"y": 1.8167438652,
				"z": 1.9438621089,
				"element": "C" 
			},
			{
				"x": -2.6174444657,
				"y": 1.384643454,
				"z": 0.6094648434,
				"element": "C" 
			},
			{
				"x": -3.2128715407,
				"y": 1.5324029482,
				"z": -0.6174137327,
				"element": "C" 
			},
			{
				"x": -2.2253358303,
				"y": 0.8510068994,
				"z": -1.8618787893,
				"element": "S" 
			},
			{
				"x": -1.0517946591,
				"y": 0.4132862797,
				"z": -0.6422153767,
				"element": "C" 
			},
			{
				"x": -1.3992778564,
				"y": 0.7488676108,
				"z": 0.5737205116,
				"element": "N" 
			},
			{
				"x": 0.2039329019,
				"y": -0.2610073595,
				"z": -1.0112316114,
				"element": "C" 
			},
			{
				"x": 0.3565765239,
				"y": -0.5353103295,
				"z": -2.3170959478,
				"element": "N" 
			},
			{
				"x": 1.4923282279,
				"y": -1.1435915831,
				"z": -2.6658729317,
				"element": "C" 
			},
			{
				"x": 2.4714487342,
				"y": -1.4789208611,
				"z": -1.7315500503,
				"element": "C" 
			},
			{
				"x": 2.2026129376,
				"y": -1.1442789888,
				"z": -0.404176739,
				"element": "C" 
			},
			{
				"x": 1.0741040377,
				"y": -0.5359711513,
				"z": -0.0293365106,
				"element": "N" 
			},
			{
				"x": -0.7863919529,
				"y": 1.3877710664,
				"z": 2.1641913654,
				"element": "H" 
			},
			{
				"x": -4.0125448744,
				"y": 2.4868692171,
				"z": 1.8257265621,
				"element": "H" 
			},
			{
				"x": -3.5216701499,
				"y": 0.9308925624,
				"z": 2.4861941426,
				"element": "H" 
			},
			{
				"x": -4.1618458737,
				"y": 1.9969124672,
				"z": -0.8456519356,
				"element": "H" 
			},
			{
				"x": 1.6185584266,
				"y": -1.3667100778,
				"z": -3.7234462885,
				"element": "H" 
			},
			{
				"x": 3.3922288085,
				"y": -1.9722918759,
				"z": -2.0213615079,
				"element": "H" 
			},
			{
				"x": 2.9143092223,
				"y": -1.3694973111,
				"z": 0.3879154955,
				"element": "H" 
			}
		],
		 "valence_orbital": [ 
			{
				"type": "occ",
				"energy": -0.30308,
				"method": "rhf"
			},
			{
				"type": "occ",
				"energy": -0.29032,
				"method": "rhf"
			},
			{
				"type": "occ",
				"energy": -0.27249,
				"method": "rhf"
			},
			{
				"type": "occ",
				"energy": -0.26394,
				"method": "rhf"
			},
			{
				"type": "occ",
				"energy": -0.24292,
				"method": "rhf"
			},
			{
				"type": "unocc",
				"energy": -0.08803,
				"method": "rhf"
			},
			{
				"type": "unocc",
				"energy": -0.06061,
				"method": "rhf"
			},
			{
				"type": "unocc",
				"energy": -0.00741,
				"method": "rhf"
			},
			{
				"type": "unocc",
				"energy": 0.01033,
				"method": "rhf"
			},
			{
				"type": "unocc",
				"energy": 0.02583,
				"method": "rhf"
			}
		],
		"cosmo_sigma_profile": { 
			"-0.025": 0.0,
			"-0.024": 0.0,
			"-0.023": 0.0,
			"-0.022": 0.0,
			"-0.021": 0.0,
			"-0.02": 0.0,
			"-0.019": 0.0,
			"-0.018": 0.0,
			"-0.017": 0.0,
			"-0.016": 0.0,
			"-0.015": 0.0,
			"-0.014": 0.0,
			"-0.013": 0.0,
			"-0.012": 0.0,
			"-0.011": 0.0125364872558,
			"-0.01": 1.59680758207,
			"-0.009": 4.46397956403,
			"-0.008": 13.4031800548,
			"-0.007": 14.4588850566,
			"-0.006": 12.0489044766,
			"-0.005": 11.5584688255,
			"-0.004": 12.2269180753,
			"-0.003": 15.2766383339,
			"-0.002": 19.4561313531,
			"-0.001": 23.0061167848,
			"0.0": 19.9202468987,
			"0.001": 16.2040142277,
			"0.002": 12.5143982362,
			"0.003": 5.43893684487,
			"0.004": 5.00549898857,
			"0.005": 6.17160789037,
			"0.006": 4.71544234544,
			"0.007": 5.04541756093,
			"0.008": 4.53402966159,
			"0.009": 5.49100391182,
			"0.01": 5.92078145611,
			"0.011": 7.12519783048,
			"0.012": 7.25773125689,
			"0.013": 4.5939362897,
			"0.014": 0.629167958755,
			"0.015": 0.0,
			"0.016": 0.0,
			"0.017": 0.0,
			"0.018": 0.0,
			"0.019": 0.0,
			"0.02": 0.0,
			"0.021": 0.0,
			"0.022": 0.0,
			"0.023": 0.0,
			"0.024": 0.0,
			"0.025": 0.0
		}
	}
}
