{
	 "smiles": "CC1=C(OC(F)F)C(C=O)=CC(Br)=C1", 
	 "Tm": 320.15, 
	 "num_atms": 21, 
	 "gaussian": { 
		 "optdone": 1, 
		 "sigma_profile": "yes", 
		 "theory": "DFT", 
		 "functional": "B3LYP", 
		 "basiset": "6-31G**", 
		 "properties": { 
			 "R2extent": 5179.5172, 
			 "electric_dipole_moment_norm": 4.29105863512, 
			 "electric_quadrupole_moment_norm": 5.61482502755, 
			 "total_energy": -3268.69306642, 
			 "HOMO_LUMO_gap": 0.17913, 
			 "cosmo_polarized_energy": -9.7, 
			 "cosmo_cavitation_energy": 28.94, 
			 "cosmo_dispersion_energy": -20.66, 
			 "cosmo_repulsion_energy": 1.59, 
			 "cosmo_total_nonelectrostatic_energy": 9.86, 
			 "SMD_solvation_energy": 5.94 
		},
		"coords": [
			{
				"x": 0.0243338713,
				"y": -1.3927827914,
				"z": 1.8108903016,
				"element": "C" 
			},
			{
				"x": -0.5748953048,
				"y": -0.2760429014,
				"z": 0.990624303,
				"element": "C" 
			},
			{
				"x": -0.4903389738,
				"y": -0.2719081281,
				"z": -0.4103890717,
				"element": "C" 
			},
			{
				"x": 0.130242185,
				"y": -1.3488574095,
				"z": -1.045434938,
				"element": "O" 
			},
			{
				"x": 1.4946532331,
				"y": -1.2514112795,
				"z": -1.2261466451,
				"element": "C" 
			},
			{
				"x": 1.770567537,
				"y": -0.4972005179,
				"z": -2.3264164384,
				"element": "F" 
			},
			{
				"x": 1.946774995,
				"y": -2.4949520911,
				"z": -1.4551927767,
				"element": "F" 
			},
			{
				"x": -1.0816087205,
				"y": 0.7370035587,
				"z": -1.1845377729,
				"element": "C" 
			},
			{
				"x": -1.0536408329,
				"y": 0.7204844297,
				"z": -2.6760576139,
				"element": "C" 
			},
			{
				"x": -1.5527625798,
				"y": 1.6012494541,
				"z": -3.3504307676,
				"element": "O" 
			},
			{
				"x": -1.7494894748,
				"y": 1.7894707624,
				"z": -0.5436192073,
				"element": "C" 
			},
			{
				"x": -1.8196149796,
				"y": 1.8072750779,
				"z": 0.8407221651,
				"element": "C" 
			},
			{
				"x": -2.7239989403,
				"y": 3.2350393614,
				"z": 1.7279158298,
				"element": "Br" 
			},
			{
				"x": -1.2490602271,
				"y": 0.7860714611,
				"z": 1.6032421955,
				"element": "C" 
			},
			{
				"x": 1.1002500672,
				"y": -1.248105634,
				"z": 1.9690307954,
				"element": "H" 
			},
			{
				"x": -0.1040572114,
				"y": -2.3575428973,
				"z": 1.31385942,
				"element": "H" 
			},
			{
				"x": -0.4435227025,
				"y": -1.4414568698,
				"z": 2.7969528734,
				"element": "H" 
			},
			{
				"x": 2.0129080493,
				"y": -0.8062435344,
				"z": -0.3693305242,
				"element": "H" 
			},
			{
				"x": -0.5552419616,
				"y": -0.1469861491,
				"z": -3.1389023905,
				"element": "H" 
			},
			{
				"x": -2.2003447341,
				"y": 2.5624187454,
				"z": -1.1551175739,
				"element": "H" 
			},
			{
				"x": -1.3362532948,
				"y": 0.8106773527,
				"z": 2.6842378363,
				"element": "H" 
			}
		],
		 "valence_orbital": [ 
			{
				"type": "occ",
				"energy": -0.32003,
				"method": "rhf"
			},
			{
				"type": "occ",
				"energy": -0.29912,
				"method": "rhf"
			},
			{
				"type": "occ",
				"energy": -0.27841,
				"method": "rhf"
			},
			{
				"type": "occ",
				"energy": -0.26317,
				"method": "rhf"
			},
			{
				"type": "occ",
				"energy": -0.2576,
				"method": "rhf"
			},
			{
				"type": "unocc",
				"energy": -0.07847,
				"method": "rhf"
			},
			{
				"type": "unocc",
				"energy": -0.03395,
				"method": "rhf"
			},
			{
				"type": "unocc",
				"energy": -0.00543,
				"method": "rhf"
			},
			{
				"type": "unocc",
				"energy": 0.02017,
				"method": "rhf"
			},
			{
				"type": "unocc",
				"energy": 0.07171,
				"method": "rhf"
			}
		],
		"cosmo_sigma_profile": { 
			"-0.025": 0.0,
			"-0.024": 0.0,
			"-0.023": 0.0,
			"-0.022": 0.0,
			"-0.021": 0.0,
			"-0.02": 0.0,
			"-0.019": 0.0,
			"-0.018": 0.0,
			"-0.017": 0.0,
			"-0.016": 0.0,
			"-0.015": 0.0,
			"-0.014": 0.0,
			"-0.013": 0.0,
			"-0.012": 0.0,
			"-0.011": 0.528125114347,
			"-0.01": 3.41535715376,
			"-0.009": 3.00112141313,
			"-0.008": 3.46007537999,
			"-0.007": 5.149352798,
			"-0.006": 8.09227743739,
			"-0.005": 11.7578577392,
			"-0.004": 12.2870121457,
			"-0.003": 16.403867891,
			"-0.002": 20.0223076237,
			"-0.001": 22.3197421168,
			"0.0": 24.232810792,
			"0.001": 20.787593636,
			"0.002": 14.6057213981,
			"0.003": 25.6931360829,
			"0.004": 20.4598356093,
			"0.005": 4.58867374477,
			"0.006": 2.68365864222,
			"0.007": 2.78888117074,
			"0.008": 2.17466645176,
			"0.009": 2.30191661235,
			"0.01": 3.24565982008,
			"0.011": 3.60350785677,
			"0.012": 1.42224227764,
			"0.013": 0.107930196481,
			"0.014": 0.0,
			"0.015": 0.0,
			"0.016": 0.0,
			"0.017": 0.0,
			"0.018": 0.0,
			"0.019": 0.0,
			"0.02": 0.0,
			"0.021": 0.0,
			"0.022": 0.0,
			"0.023": 0.0,
			"0.024": 0.0,
			"0.025": 0.0
		}
	}
}
