{
	 "smiles": "CC1=NC2=C(C(C)=C1)C(=O)N(C(S)=N2)C1=CC=C(Br)C=C1", 
	 "Tm": 609.15, 
	 "num_atms": 33, 
	 "gaussian": { 
		 "optdone": 1, 
		 "sigma_profile": "yes", 
		 "theory": "DFT", 
		 "functional": "B3LYP", 
		 "basiset": "6-31G**", 
		 "properties": { 
			 "R2extent": 12937.3297, 
			 "electric_dipole_moment_norm": 1.73318226104, 
			 "electric_quadrupole_moment_norm": 23.8841230879, 
			 "total_energy": -3787.9242365, 
			 "HOMO_LUMO_gap": 0.17976, 
			 "cosmo_polarized_energy": -17.46, 
			 "cosmo_cavitation_energy": 41.41, 
			 "cosmo_dispersion_energy": -30.06, 
			 "cosmo_repulsion_energy": 2.26, 
			 "cosmo_total_nonelectrostatic_energy": 13.6, 
			 "SMD_solvation_energy": 2.85 
		},
		"coords": [
			{
				"x": 3.3509038642,
				"y": -1.6160511379,
				"z": 4.376534561,
				"element": "C" 
			},
			{
				"x": 2.5212029577,
				"y": -1.293222753,
				"z": 3.1592707944,
				"element": "C" 
			},
			{
				"x": 1.2200407638,
				"y": -1.5643993708,
				"z": 3.2270889126,
				"element": "N" 
			},
			{
				"x": 0.4602517641,
				"y": -1.2837225443,
				"z": 2.1507345917,
				"element": "C" 
			},
			{
				"x": 0.9801660295,
				"y": -0.7174002292,
				"z": 0.9596521585,
				"element": "C" 
			},
			{
				"x": 2.3697685499,
				"y": -0.4288852166,
				"z": 0.8896598818,
				"element": "C" 
			},
			{
				"x": 3.0322560848,
				"y": 0.1723820493,
				"z": -0.3223234689,
				"element": "C" 
			},
			{
				"x": 3.1231701865,
				"y": -0.7302949733,
				"z": 2.0155504112,
				"element": "C" 
			},
			{
				"x": 0.0745186039,
				"y": -0.4488249597,
				"z": -0.1553272202,
				"element": "C" 
			},
			{
				"x": 0.3734808385,
				"y": 0.0334611266,
				"z": -1.2384760704,
				"element": "O" 
			},
			{
				"x": -1.2929320658,
				"y": -0.8022357207,
				"z": 0.0901546583,
				"element": "N" 
			},
			{
				"x": -1.6787483469,
				"y": -1.3528668492,
				"z": 1.3051219099,
				"element": "C" 
			},
			{
				"x": -3.3744631498,
				"y": -1.7977057471,
				"z": 1.6269785455,
				"element": "S" 
			},
			{
				"x": -0.8783842243,
				"y": -1.5889541446,
				"z": 2.287272434,
				"element": "N" 
			},
			{
				"x": -2.2112064324,
				"y": -0.5494837827,
				"z": -0.9928138152,
				"element": "C" 
			},
			{
				"x": -2.8500283025,
				"y": 0.6886518204,
				"z": -1.0869443676,
				"element": "C" 
			},
			{
				"x": -3.7321090833,
				"y": 0.9396237346,
				"z": -2.1368468614,
				"element": "C" 
			},
			{
				"x": -3.9581111527,
				"y": -0.0547651332,
				"z": -3.0885747051,
				"element": "C" 
			},
			{
				"x": -5.1674881683,
				"y": 0.2820102427,
				"z": -4.5247319783,
				"element": "Br" 
			},
			{
				"x": -3.3157932285,
				"y": -1.2904609452,
				"z": -3.0103283355,
				"element": "C" 
			},
			{
				"x": -2.4350876667,
				"y": -1.5339739309,
				"z": -1.9575033257,
				"element": "C" 
			},
			{
				"x": 2.7150179612,
				"y": -2.0425624817,
				"z": 5.1530747954,
				"element": "H" 
			},
			{
				"x": 4.1443657868,
				"y": -2.3314897229,
				"z": 4.1318349266,
				"element": "H" 
			},
			{
				"x": 3.8383512961,
				"y": -0.7160810737,
				"z": 4.7686946248,
				"element": "H" 
			},
			{
				"x": 2.8906265137,
				"y": -0.4569186449,
				"z": -1.204859611,
				"element": "H" 
			},
			{
				"x": 2.5908819321,
				"y": 1.1396025396,
				"z": -0.5765634878,
				"element": "H" 
			},
			{
				"x": 4.1025276856,
				"y": 0.302170867,
				"z": -0.1414782037,
				"element": "H" 
			},
			{
				"x": 4.190964518,
				"y": -0.5306107755,
				"z": 2.0175360863,
				"element": "H" 
			},
			{
				"x": -3.8925767912,
				"y": -1.4280671871,
				"z": 0.441552091,
				"element": "H" 
			},
			{
				"x": -2.6558770702,
				"y": 1.4519709028,
				"z": -0.3405873347,
				"element": "H" 
			},
			{
				"x": -4.2346248524,
				"y": 1.8964430072,
				"z": -2.2163974527,
				"element": "H" 
			},
			{
				"x": -3.4979753976,
				"y": -2.0495600725,
				"z": -3.7619434475,
				"element": "H" 
			},
			{
				"x": -1.9206894041,
				"y": -2.4864788935,
				"z": -1.8831116974,
				"element": "H" 
			}
		],
		 "valence_orbital": [ 
			{
				"type": "occ",
				"energy": -0.27586,
				"method": "rhf"
			},
			{
				"type": "occ",
				"energy": -0.27379,
				"method": "rhf"
			},
			{
				"type": "occ",
				"energy": -0.26049,
				"method": "rhf"
			},
			{
				"type": "occ",
				"energy": -0.25122,
				"method": "rhf"
			},
			{
				"type": "occ",
				"energy": -0.2308,
				"method": "rhf"
			},
			{
				"type": "unocc",
				"energy": -0.05104,
				"method": "rhf"
			},
			{
				"type": "unocc",
				"energy": -0.04307,
				"method": "rhf"
			},
			{
				"type": "unocc",
				"energy": -0.04075,
				"method": "rhf"
			},
			{
				"type": "unocc",
				"energy": -0.03434,
				"method": "rhf"
			},
			{
				"type": "unocc",
				"energy": -0.00695,
				"method": "rhf"
			}
		],
		"cosmo_sigma_profile": { 
			"-0.025": 0.0,
			"-0.024": 0.0,
			"-0.023": 0.0,
			"-0.022": 0.0,
			"-0.021": 0.0,
			"-0.02": 0.0,
			"-0.019": 0.0,
			"-0.018": 0.0,
			"-0.017": 0.0,
			"-0.016": 0.0,
			"-0.015": 0.0,
			"-0.014": 0.0,
			"-0.013": 0.0,
			"-0.012": 0.188214554179,
			"-0.011": 0.785345381113,
			"-0.01": 0.721297128999,
			"-0.009": 1.49181991399,
			"-0.008": 7.91725447469,
			"-0.007": 12.2149610193,
			"-0.006": 16.6313078428,
			"-0.005": 20.5259987979,
			"-0.004": 25.8404504178,
			"-0.003": 23.5578225817,
			"-0.002": 26.0305566952,
			"-0.001": 32.1893137047,
			"0.0": 34.040765474,
			"0.001": 28.6668306484,
			"0.002": 21.1853471756,
			"0.003": 16.8751178295,
			"0.004": 20.9108605481,
			"0.005": 9.18467840448,
			"0.006": 7.10868069536,
			"0.007": 4.6169452168,
			"0.008": 3.33391813769,
			"0.009": 4.00243519569,
			"0.01": 3.53445074668,
			"0.011": 3.577361581,
			"0.012": 4.84165400522,
			"0.013": 2.22454484917,
			"0.014": 1.43216678171,
			"0.015": 1.5398155362,
			"0.016": 1.38390513193,
			"0.017": 1.42132802354,
			"0.018": 0.0200456895709,
			"0.019": 0.0,
			"0.02": 0.0,
			"0.021": 0.0,
			"0.022": 0.0,
			"0.023": 0.0,
			"0.024": 0.0,
			"0.025": 0.0
		}
	}
}
