{
	 "smiles": "OC(=O)[C@@H]1CCCN1C(=O)NC1=CC2=C(OCCO2)C=C1", 
	 "Tm": 450.15, 
	 "num_atms": 37, 
	 "gaussian": { 
		 "optdone": 1, 
		 "sigma_profile": "yes", 
		 "theory": "DFT", 
		 "functional": "B3LYP", 
		 "basiset": "6-31G**", 
		 "properties": { 
			 "R2extent": 7802.8553, 
			 "electric_dipole_moment_norm": 2.83358403616, 
			 "electric_quadrupole_moment_norm": 16.677344699, 
			 "total_energy": -1028.76628182, 
			 "HOMO_LUMO_gap": 0.19697, 
			 "cosmo_polarized_energy": -20.76, 
			 "cosmo_cavitation_energy": 39.41, 
			 "cosmo_dispersion_energy": -27.77, 
			 "cosmo_repulsion_energy": 2.15, 
			 "cosmo_total_nonelectrostatic_energy": 13.79, 
			 "SMD_solvation_energy": 8.16 
		},
		"coords": [
			{
				"x": 3.2047595964,
				"y": 0.397438393,
				"z": -3.2297389904,
				"element": "O" 
			},
			{
				"x": 1.9216164394,
				"y": -0.0034391916,
				"z": -3.3809904252,
				"element": "C" 
			},
			{
				"x": 1.6166150012,
				"y": -1.0882721067,
				"z": -3.8234350887,
				"element": "O" 
			},
			{
				"x": 0.9013520876,
				"y": 1.0728605448,
				"z": -3.0055424181,
				"element": "C" 
			},
			{
				"x": 0.5624517431,
				"y": 1.9567419933,
				"z": -4.2295671965,
				"element": "C" 
			},
			{
				"x": 1.6044888235,
				"y": 3.0836964402,
				"z": -4.1547063803,
				"element": "C" 
			},
			{
				"x": 1.7664866784,
				"y": 3.3319398967,
				"z": -2.6473793877,
				"element": "C" 
			},
			{
				"x": 1.3729360351,
				"y": 2.0515855757,
				"z": -2.0245732878,
				"element": "N" 
			},
			{
				"x": 1.9064372569,
				"y": 1.7330938259,
				"z": -0.7945239076,
				"element": "C" 
			},
			{
				"x": 2.7008056836,
				"y": 2.4585561257,
				"z": -0.2069290629,
				"element": "O" 
			},
			{
				"x": 1.5361714684,
				"y": 0.4890066451,
				"z": -0.2577726572,
				"element": "N" 
			},
			{
				"x": 0.2198914154,
				"y": -0.0382743958,
				"z": -0.1300843778,
				"element": "C" 
			},
			{
				"x": 0.0896060081,
				"y": -1.398736993,
				"z": 0.1704934222,
				"element": "C" 
			},
			{
				"x": -1.1693059862,
				"y": -1.9654631036,
				"z": 0.3585893029,
				"element": "C" 
			},
			{
				"x": -2.3245654479,
				"y": -1.1752394775,
				"z": 0.2280117173,
				"element": "C" 
			},
			{
				"x": -3.5863891622,
				"y": -1.6948051013,
				"z": 0.4028153281,
				"element": "O" 
			},
			{
				"x": -3.5960826901,
				"y": -2.9563633206,
				"z": 1.0693061895,
				"element": "C" 
			},
			{
				"x": -2.535483047,
				"y": -3.8703256917,
				"z": 0.4764494471,
				"element": "C" 
			},
			{
				"x": -1.2373344955,
				"y": -3.3027765544,
				"z": 0.6592074912,
				"element": "O" 
			},
			{
				"x": -2.1922302229,
				"y": 0.1741062942,
				"z": -0.0927610725,
				"element": "C" 
			},
			{
				"x": -0.933819077,
				"y": 0.7490894594,
				"z": -0.2626462247,
				"element": "C" 
			},
			{
				"x": 3.7562661719,
				"y": -0.3517701528,
				"z": -3.5118366428,
				"element": "H" 
			},
			{
				"x": 0.0184111512,
				"y": 0.5334259313,
				"z": -2.6577898751,
				"element": "H" 
			},
			{
				"x": -0.4492723192,
				"y": 2.3553154269,
				"z": -4.098923055,
				"element": "H" 
			},
			{
				"x": 0.5818686067,
				"y": 1.3909121264,
				"z": -5.1642058363,
				"element": "H" 
			},
			{
				"x": 1.2936917271,
				"y": 3.9826535021,
				"z": -4.6934460794,
				"element": "H" 
			},
			{
				"x": 2.553331624,
				"y": 2.7458337353,
				"z": -4.5820536363,
				"element": "H" 
			},
			{
				"x": 1.106989593,
				"y": 4.1339835395,
				"z": -2.2929073895,
				"element": "H" 
			},
			{
				"x": 2.7867183039,
				"y": 3.5867798795,
				"z": -2.3550597108,
				"element": "H" 
			},
			{
				"x": 2.1366730813,
				"y": 0.2875398602,
				"z": 0.5328009166,
				"element": "H" 
			},
			{
				"x": 0.9633388105,
				"y": -2.0375893909,
				"z": 0.2464756719,
				"element": "H" 
			},
			{
				"x": -3.4085929479,
				"y": -2.8153855393,
				"z": 2.1429459634,
				"element": "H" 
			},
			{
				"x": -4.5980237297,
				"y": -3.3718546581,
				"z": 0.9345520943,
				"element": "H" 
			},
			{
				"x": -2.521543125,
				"y": -4.8414705643,
				"z": 0.9776035626,
				"element": "H" 
			},
			{
				"x": -2.7285493707,
				"y": -4.0221912478,
				"z": -0.5941647039,
				"element": "H" 
			},
			{
				"x": -3.0939131912,
				"y": 0.7714226906,
				"z": -0.1825549879,
				"element": "H" 
			},
			{
				"x": -0.8469024941,
				"y": 1.8071756038,
				"z": -0.4819587126,
				"element": "H" 
			}
		],
		 "valence_orbital": [ 
			{
				"type": "occ",
				"energy": -0.27797,
				"method": "rhf"
			},
			{
				"type": "occ",
				"energy": -0.25194,
				"method": "rhf"
			},
			{
				"type": "occ",
				"energy": -0.23531,
				"method": "rhf"
			},
			{
				"type": "occ",
				"energy": -0.23219,
				"method": "rhf"
			},
			{
				"type": "occ",
				"energy": -0.20091,
				"method": "rhf"
			},
			{
				"type": "unocc",
				"energy": -0.00394,
				"method": "rhf"
			},
			{
				"type": "unocc",
				"energy": 0.00251,
				"method": "rhf"
			},
			{
				"type": "unocc",
				"energy": 0.01023,
				"method": "rhf"
			},
			{
				"type": "unocc",
				"energy": 0.04891,
				"method": "rhf"
			},
			{
				"type": "unocc",
				"energy": 0.06925,
				"method": "rhf"
			}
		],
		"cosmo_sigma_profile": { 
			"-0.025": 0.0,
			"-0.024": 0.0,
			"-0.023": 0.0,
			"-0.022": 0.0,
			"-0.021": 0.0,
			"-0.02": 0.0,
			"-0.019": 0.115843596441,
			"-0.018": 0.934905392433,
			"-0.017": 1.19701497033,
			"-0.016": 0.381715302857,
			"-0.015": 0.785030082169,
			"-0.014": 1.0098552972,
			"-0.013": 2.00231168346,
			"-0.012": 2.00614689248,
			"-0.011": 0.968735642364,
			"-0.01": 1.51252540774,
			"-0.009": 1.52202660708,
			"-0.008": 2.17177398841,
			"-0.007": 9.57732269171,
			"-0.006": 16.4849919502,
			"-0.005": 22.284122482,
			"-0.004": 29.6581870981,
			"-0.003": 30.2414480739,
			"-0.002": 24.8311603635,
			"-0.001": 21.6014378653,
			"0.0": 15.8322386955,
			"0.001": 12.0489388065,
			"0.002": 14.3017787806,
			"0.003": 19.186315189,
			"0.004": 16.3163785627,
			"0.005": 9.47655076129,
			"0.006": 7.04252836571,
			"0.007": 6.66352090603,
			"0.008": 6.69616417943,
			"0.009": 5.55090202872,
			"0.01": 6.09302548242,
			"0.011": 6.64988736416,
			"0.012": 6.25712686097,
			"0.013": 4.26866317175,
			"0.014": 4.67435461244,
			"0.015": 0.220334233176,
			"0.016": 0.0,
			"0.017": 0.0,
			"0.018": 0.0,
			"0.019": 0.0,
			"0.02": 0.0,
			"0.021": 0.0,
			"0.022": 0.0,
			"0.023": 0.0,
			"0.024": 0.0,
			"0.025": 0.0
		}
	}
}
