{
	 "smiles": "CC(=O)NC1=CC=C(OC2CCCCC2O)C=C1", 
	 "Tm": 413.15, 
	 "num_atms": 37, 
	 "gaussian": { 
		 "optdone": 1, 
		 "sigma_profile": "yes", 
		 "theory": "DFT", 
		 "functional": "B3LYP", 
		 "basiset": "6-31G**", 
		 "properties": { 
			 "R2extent": 7268.8502, 
			 "electric_dipole_moment_norm": 3.04595308729, 
			 "electric_quadrupole_moment_norm": 23.4584807818, 
			 "total_energy": -825.371358314, 
			 "HOMO_LUMO_gap": 0.19622, 
			 "cosmo_polarized_energy": -17.18, 
			 "cosmo_cavitation_energy": 38.16, 
			 "cosmo_dispersion_energy": -27.84, 
			 "cosmo_repulsion_energy": 2.16, 
			 "cosmo_total_nonelectrostatic_energy": 12.48, 
			 "SMD_solvation_energy": 6.56 
		},
		"coords": [
			{
				"x": 1.705670076,
				"y": -2.2755383826,
				"z": -6.2485398395,
				"element": "C" 
			},
			{
				"x": 1.1370556233,
				"y": -1.9142936177,
				"z": -4.8824558,
				"element": "C" 
			},
			{
				"x": 0.0712824706,
				"y": -2.374455426,
				"z": -4.4946151933,
				"element": "O" 
			},
			{
				"x": 1.9159349856,
				"y": -1.0471284828,
				"z": -4.1514067025,
				"element": "N" 
			},
			{
				"x": 1.6819108529,
				"y": -0.5201479106,
				"z": -2.8603497933,
				"element": "C" 
			},
			{
				"x": 0.549258955,
				"y": -0.8183097677,
				"z": -2.0939843871,
				"element": "C" 
			},
			{
				"x": 0.3877447844,
				"y": -0.2557626791,
				"z": -0.8249671491,
				"element": "C" 
			},
			{
				"x": 1.3532508566,
				"y": 0.6060770288,
				"z": -0.2917357011,
				"element": "C" 
			},
			{
				"x": 1.3110014717,
				"y": 1.2428418862,
				"z": 0.9231494779,
				"element": "O" 
			},
			{
				"x": 0.4233637908,
				"y": 0.8765237742,
				"z": 1.9972219926,
				"element": "C" 
			},
			{
				"x": 0.4362051218,
				"y": -0.5950149904,
				"z": 2.4206607544,
				"element": "C" 
			},
			{
				"x": -0.2180501407,
				"y": -0.7212839645,
				"z": 3.822372287,
				"element": "C" 
			},
			{
				"x": -1.3106770655,
				"y": 0.3510416791,
				"z": 4.0708898661,
				"element": "C" 
			},
			{
				"x": -1.9923223927,
				"y": 0.7765193677,
				"z": 2.7638177058,
				"element": "C" 
			},
			{
				"x": -1.0010009475,
				"y": 1.429253901,
				"z": 1.78286623,
				"element": "C" 
			},
			{
				"x": -1.0130100813,
				"y": 2.8371721358,
				"z": 2.010144999,
				"element": "O" 
			},
			{
				"x": 2.4863821506,
				"y": 0.9022617868,
				"z": -1.0642650722,
				"element": "C" 
			},
			{
				"x": 2.6457745552,
				"y": 0.3510704207,
				"z": -2.3273348989,
				"element": "C" 
			},
			{
				"x": 1.8291365274,
				"y": -3.3608256224,
				"z": -6.2987111757,
				"element": "H" 
			},
			{
				"x": 2.6626595095,
				"y": -1.7993468243,
				"z": -6.4801920585,
				"element": "H" 
			},
			{
				"x": 0.9768532876,
				"y": -1.9961405153,
				"z": -7.0142536487,
				"element": "H" 
			},
			{
				"x": 2.7739586389,
				"y": -0.7413510607,
				"z": -4.58577973,
				"element": "H" 
			},
			{
				"x": -0.2002443803,
				"y": -1.4848234749,
				"z": -2.4964014587,
				"element": "H" 
			},
			{
				"x": -0.508213433,
				"y": -0.5024297053,
				"z": -0.2714777433,
				"element": "H" 
			},
			{
				"x": 0.8399887855,
				"y": 1.4571145662,
				"z": 2.8283539946,
				"element": "H" 
			},
			{
				"x": 1.4672376243,
				"y": -0.9620377762,
				"z": 2.4375584081,
				"element": "H" 
			},
			{
				"x": -0.1038783806,
				"y": -1.2159789159,
				"z": 1.7007898773,
				"element": "H" 
			},
			{
				"x": -0.6480032097,
				"y": -1.7240624038,
				"z": 3.9205947286,
				"element": "H" 
			},
			{
				"x": 0.5513185988,
				"y": -0.6392375408,
				"z": 4.5985292038,
				"element": "H" 
			},
			{
				"x": -2.0522819222,
				"y": -0.0280615636,
				"z": 4.7818924582,
				"element": "H" 
			},
			{
				"x": -0.8679828656,
				"y": 1.2393042378,
				"z": 4.5365448466,
				"element": "H" 
			},
			{
				"x": -2.4471442414,
				"y": -0.0993963432,
				"z": 2.2844041197,
				"element": "H" 
			},
			{
				"x": -2.799026686,
				"y": 1.4924684363,
				"z": 2.9491584534,
				"element": "H" 
			},
			{
				"x": -1.3225668675,
				"y": 1.2234896853,
				"z": 0.7523143767,
				"element": "H" 
			},
			{
				"x": -0.3198899001,
				"y": 3.2161297467,
				"z": 1.4513784718,
				"element": "H" 
			},
			{
				"x": 3.2340931208,
				"y": 1.5709326947,
				"z": -0.6507979106,
				"element": "H" 
			},
			{
				"x": 3.5340107269,
				"y": 0.5961256205,
				"z": -2.9061739892,
				"element": "H" 
			}
		],
		 "valence_orbital": [ 
			{
				"type": "occ",
				"energy": -0.28306,
				"method": "rhf"
			},
			{
				"type": "occ",
				"energy": -0.25844,
				"method": "rhf"
			},
			{
				"type": "occ",
				"energy": -0.25183,
				"method": "rhf"
			},
			{
				"type": "occ",
				"energy": -0.24975,
				"method": "rhf"
			},
			{
				"type": "occ",
				"energy": -0.20026,
				"method": "rhf"
			},
			{
				"type": "unocc",
				"energy": -0.00404,
				"method": "rhf"
			},
			{
				"type": "unocc",
				"energy": -0.00375,
				"method": "rhf"
			},
			{
				"type": "unocc",
				"energy": 0.05149,
				"method": "rhf"
			},
			{
				"type": "unocc",
				"energy": 0.06381,
				"method": "rhf"
			},
			{
				"type": "unocc",
				"energy": 0.07023,
				"method": "rhf"
			}
		],
		"cosmo_sigma_profile": { 
			"-0.025": 0.0,
			"-0.024": 0.0,
			"-0.023": 0.0,
			"-0.022": 0.0,
			"-0.021": 0.0,
			"-0.02": 0.0,
			"-0.019": 0.0,
			"-0.018": 0.0,
			"-0.017": 0.0,
			"-0.016": 0.0127725640184,
			"-0.015": 0.819352255861,
			"-0.014": 1.64516434398,
			"-0.013": 2.28247943282,
			"-0.012": 1.84253501814,
			"-0.011": 2.61020000128,
			"-0.01": 2.29632816598,
			"-0.009": 2.42793282092,
			"-0.008": 2.10917552,
			"-0.007": 5.31212802312,
			"-0.006": 8.96859948141,
			"-0.005": 13.7218413551,
			"-0.004": 18.0063476944,
			"-0.003": 29.7108303793,
			"-0.002": 36.5972949825,
			"-0.001": 31.292941117,
			"0.0": 25.5774696732,
			"0.001": 19.1999919299,
			"0.002": 11.291193256,
			"0.003": 13.7483678711,
			"0.004": 15.7962021351,
			"0.005": 15.030455456,
			"0.006": 7.70744034103,
			"0.007": 4.33191551414,
			"0.008": 2.50239108005,
			"0.009": 4.51132490136,
			"0.01": 2.68683732874,
			"0.011": 3.27420921522,
			"0.012": 4.0983409389,
			"0.013": 4.25125430447,
			"0.014": 4.40054069611,
			"0.015": 0.808950057848,
			"0.016": 0.0,
			"0.017": 0.0,
			"0.018": 0.0,
			"0.019": 0.0,
			"0.02": 0.0,
			"0.021": 0.0,
			"0.022": 0.0,
			"0.023": 0.0,
			"0.024": 0.0,
			"0.025": 0.0
		}
	}
}
