{
	 "smiles": "OC1=CC=C(C=C1)C1CC(=O)C2=C(O)C=C(O)C=C2O1", 
	 "Tm": 523.15, 
	 "num_atms": 32, 
	 "gaussian": { 
		 "optdone": 1, 
		 "sigma_profile": "yes", 
		 "theory": "DFT", 
		 "functional": "B3LYP", 
		 "basiset": "6-31G**", 
		 "properties": { 
			 "R2extent": 6608.095, 
			 "electric_dipole_moment_norm": 2.55519121789, 
			 "electric_quadrupole_moment_norm": 24.1510477858, 
			 "total_energy": -954.929850122, 
			 "HOMO_LUMO_gap": 0.1801, 
			 "cosmo_polarized_energy": -27.39, 
			 "cosmo_cavitation_energy": 36.06, 
			 "cosmo_dispersion_energy": -25.95, 
			 "cosmo_repulsion_energy": 1.99, 
			 "cosmo_total_nonelectrostatic_energy": 12.1, 
			 "SMD_solvation_energy": 7.43 
		},
		"coords": [
			{
				"x": 2.201407543,
				"y": -1.1221674206,
				"z": -3.7592270723,
				"element": "O" 
			},
			{
				"x": 1.3075495702,
				"y": -0.7058641174,
				"z": -2.8150287526,
				"element": "C" 
			},
			{
				"x": 0.5264064455,
				"y": 0.4176900163,
				"z": -3.1171179909,
				"element": "C" 
			},
			{
				"x": -0.400076803,
				"y": 0.8780223922,
				"z": -2.1913815142,
				"element": "C" 
			},
			{
				"x": -0.5738410391,
				"y": 0.2460692903,
				"z": -0.9483097386,
				"element": "C" 
			},
			{
				"x": 0.2151120465,
				"y": -0.8722826155,
				"z": -0.6617738614,
				"element": "C" 
			},
			{
				"x": 1.1480084668,
				"y": -1.348549922,
				"z": -1.5856284995,
				"element": "C" 
			},
			{
				"x": -1.623474257,
				"y": 0.802313911,
				"z": 0.002699893,
				"element": "C" 
			},
			{
				"x": -1.7684957466,
				"y": 0.0875822074,
				"z": 1.3398419832,
				"element": "C" 
			},
			{
				"x": -0.5456584913,
				"y": 0.2911030173,
				"z": 2.2339789078,
				"element": "C" 
			},
			{
				"x": -0.1644374118,
				"y": -0.6035793173,
				"z": 2.9754889814,
				"element": "O" 
			},
			{
				"x": 0.0574211421,
				"y": 1.6319996649,
				"z": 2.1319684351,
				"element": "C" 
			},
			{
				"x": 1.0696870802,
				"y": 2.0991591455,
				"z": 3.0108305162,
				"element": "C" 
			},
			{
				"x": 1.5473843177,
				"y": 1.2491170693,
				"z": 3.9498338067,
				"element": "O" 
			},
			{
				"x": 1.550269235,
				"y": 3.4067754168,
				"z": 2.9258937806,
				"element": "C" 
			},
			{
				"x": 1.0371563923,
				"y": 4.2759991825,
				"z": 1.9550306599,
				"element": "C" 
			},
			{
				"x": 1.475788963,
				"y": 5.5572132547,
				"z": 1.8336269182,
				"element": "O" 
			},
			{
				"x": 0.0590022507,
				"y": 3.8504009984,
				"z": 1.0591196979,
				"element": "C" 
			},
			{
				"x": -0.4167070196,
				"y": 2.5443333973,
				"z": 1.1505616062,
				"element": "C" 
			},
			{
				"x": -1.3795267233,
				"y": 2.2153077544,
				"z": 0.2497605342,
				"element": "O" 
			},
			{
				"x": 2.6739888008,
				"y": -1.8967328174,
				"z": -3.4275000847,
				"element": "H" 
			},
			{
				"x": 0.6598184603,
				"y": 0.9076928931,
				"z": -4.0759277246,
				"element": "H" 
			},
			{
				"x": -0.9978683844,
				"y": 1.7539112899,
				"z": -2.4279976941,
				"element": "H" 
			},
			{
				"x": 0.1233623248,
				"y": -1.3873667334,
				"z": 0.2884395462,
				"element": "H" 
			},
			{
				"x": 1.7538881413,
				"y": -2.2189201169,
				"z": -1.3422071644,
				"element": "H" 
			},
			{
				"x": -2.5893507543,
				"y": 0.8170926643,
				"z": -0.5122945618,
				"element": "H" 
			},
			{
				"x": -2.6365890516,
				"y": 0.5109187278,
				"z": 1.8616115035,
				"element": "H" 
			},
			{
				"x": -1.9480761685,
				"y": -0.9827631862,
				"z": 1.2198447177,
				"element": "H" 
			},
			{
				"x": 2.2010955814,
				"y": 1.7162186864,
				"z": 4.4874878131,
				"element": "H" 
			},
			{
				"x": 2.3220736438,
				"y": 3.7465563913,
				"z": 3.6144493534,
				"element": "H" 
			},
			{
				"x": 2.1614291348,
				"y": 5.7269722741,
				"z": 2.4926589284,
				"element": "H" 
			},
			{
				"x": -0.3175476899,
				"y": 4.5162766013,
				"z": 0.2932670764,
				"element": "H" 
			}
		],
		 "valence_orbital": [ 
			{
				"type": "occ",
				"energy": -0.25311,
				"method": "rhf"
			},
			{
				"type": "occ",
				"energy": -0.22921,
				"method": "rhf"
			},
			{
				"type": "occ",
				"energy": -0.22735,
				"method": "rhf"
			},
			{
				"type": "occ",
				"energy": -0.22415,
				"method": "rhf"
			},
			{
				"type": "occ",
				"energy": -0.21792,
				"method": "rhf"
			},
			{
				"type": "unocc",
				"energy": -0.03782,
				"method": "rhf"
			},
			{
				"type": "unocc",
				"energy": -0.00276,
				"method": "rhf"
			},
			{
				"type": "unocc",
				"energy": 0.00425,
				"method": "rhf"
			},
			{
				"type": "unocc",
				"energy": 0.01064,
				"method": "rhf"
			},
			{
				"type": "unocc",
				"energy": 0.0543,
				"method": "rhf"
			}
		],
		"cosmo_sigma_profile": { 
			"-0.025": 0.0,
			"-0.024": 0.0,
			"-0.023": 0.0,
			"-0.022": 0.0,
			"-0.021": 0.0,
			"-0.02": 0.0,
			"-0.019": 0.34757611411,
			"-0.018": 2.4773835684,
			"-0.017": 4.01443125414,
			"-0.016": 3.31805210152,
			"-0.015": 2.01907218128,
			"-0.014": 3.97074115736,
			"-0.013": 1.85470512048,
			"-0.012": 3.2540602004,
			"-0.011": 3.91323488649,
			"-0.01": 3.02813951657,
			"-0.009": 3.9895783447,
			"-0.008": 2.05355143321,
			"-0.007": 5.61672841257,
			"-0.006": 15.3881964425,
			"-0.005": 17.8034836444,
			"-0.004": 15.7430976298,
			"-0.003": 12.9118790378,
			"-0.002": 11.9206103706,
			"-0.001": 9.76371689998,
			"0.0": 12.0466218008,
			"0.001": 14.2832953534,
			"0.002": 21.5293783903,
			"0.003": 27.5964084417,
			"0.004": 22.9340994596,
			"0.005": 16.167828496,
			"0.006": 6.98958521937,
			"0.007": 5.34745532322,
			"0.008": 5.14133659472,
			"0.009": 5.66232154456,
			"0.01": 6.389065644,
			"0.011": 5.19308018884,
			"0.012": 2.9591480034,
			"0.013": 5.14270236288,
			"0.014": 2.51840908608,
			"0.015": 1.24354350178,
			"0.016": 1.6098963015,
			"0.017": 0.658240995232,
			"0.018": 0.0041933482856,
			"0.019": 0.0,
			"0.02": 0.0,
			"0.021": 0.0,
			"0.022": 0.0,
			"0.023": 0.0,
			"0.024": 0.0,
			"0.025": 0.0
		}
	}
}
