{
	 "smiles": "COC1=CC=C(C=C1N)C(F)(F)F", 
	 "Tm": 331.15, 
	 "num_atms": 21, 
	 "gaussian": { 
		 "optdone": 1, 
		 "sigma_profile": "yes", 
		 "theory": "DFT", 
		 "functional": "B3LYP", 
		 "basiset": "6-31G**", 
		 "properties": { 
			 "R2extent": 4165.4908, 
			 "electric_dipole_moment_norm": 3.49457136714, 
			 "electric_quadrupole_moment_norm": 13.1134964666, 
			 "total_energy": -739.165271191, 
			 "HOMO_LUMO_gap": 0.19587, 
			 "cosmo_polarized_energy": -8.26, 
			 "cosmo_cavitation_energy": 26.46, 
			 "cosmo_dispersion_energy": -18.77, 
			 "cosmo_repulsion_energy": 1.44, 
			 "cosmo_total_nonelectrostatic_energy": 9.13, 
			 "SMD_solvation_energy": 6.37 
		},
		"coords": [
			{
				"x": -1.0057110356,
				"y": 1.1867771209,
				"z": -1.4835827169,
				"element": "C" 
			},
			{
				"x": -1.3941535682,
				"y": 0.5069753001,
				"z": -0.2848138751,
				"element": "O" 
			},
			{
				"x": -0.53304318,
				"y": -0.5059552205,
				"z": 0.0971356212,
				"element": "C" 
			},
			{
				"x": -0.6326704897,
				"y": -1.7809657095,
				"z": -0.4484720342,
				"element": "C" 
			},
			{
				"x": 0.2185600159,
				"y": -2.801292698,
				"z": -0.0220184877,
				"element": "C" 
			},
			{
				"x": 1.1695617864,
				"y": -2.5208831071,
				"z": 0.9610967671,
				"element": "C" 
			},
			{
				"x": 1.2715418706,
				"y": -1.2446553555,
				"z": 1.5191353686,
				"element": "C" 
			},
			{
				"x": 0.4236727853,
				"y": -0.2140133736,
				"z": 1.0942763998,
				"element": "C" 
			},
			{
				"x": 0.5188044789,
				"y": 1.0851845024,
				"z": 1.5805615536,
				"element": "N" 
			},
			{
				"x": 2.0512676074,
				"y": -3.6205206806,
				"z": 1.484713728,
				"element": "C" 
			},
			{
				"x": 2.2726003613,
				"y": -4.5784078229,
				"z": 0.5569814318,
				"element": "F" 
			},
			{
				"x": 1.5011388495,
				"y": -4.2377714929,
				"z": 2.55863388,
				"element": "F" 
			},
			{
				"x": 3.2587087811,
				"y": -3.1568581759,
				"z": 1.8835444931,
				"element": "F" 
			},
			{
				"x": -1.7597341172,
				"y": 1.956037404,
				"z": -1.6632806675,
				"element": "H" 
			},
			{
				"x": -0.9795985909,
				"y": 0.4992796386,
				"z": -2.3377332814,
				"element": "H" 
			},
			{
				"x": -0.0209021283,
				"y": 1.6567988541,
				"z": -1.3724439529,
				"element": "H" 
			},
			{
				"x": -1.3922347636,
				"y": -1.9667804537,
				"z": -1.2016576509,
				"element": "H" 
			},
			{
				"x": 0.1475413833,
				"y": -3.7953019191,
				"z": -0.4474080122,
				"element": "H" 
			},
			{
				"x": 2.0229361923,
				"y": -1.0452287935,
				"z": 2.2768160529,
				"element": "H" 
			},
			{
				"x": -0.3356629003,
				"y": 1.6153545157,
				"z": 1.4688807457,
				"element": "H" 
			},
			{
				"x": 0.9251766619,
				"y": 1.1754274671,
				"z": 2.5011346369,
				"element": "H" 
			}
		],
		 "valence_orbital": [ 
			{
				"type": "occ",
				"energy": -0.34746,
				"method": "rhf"
			},
			{
				"type": "occ",
				"energy": -0.31982,
				"method": "rhf"
			},
			{
				"type": "occ",
				"energy": -0.28399,
				"method": "rhf"
			},
			{
				"type": "occ",
				"energy": -0.25331,
				"method": "rhf"
			},
			{
				"type": "occ",
				"energy": -0.21219,
				"method": "rhf"
			},
			{
				"type": "unocc",
				"energy": -0.01632,
				"method": "rhf"
			},
			{
				"type": "unocc",
				"energy": 0.00269,
				"method": "rhf"
			},
			{
				"type": "unocc",
				"energy": 0.07447,
				"method": "rhf"
			},
			{
				"type": "unocc",
				"energy": 0.10017,
				"method": "rhf"
			},
			{
				"type": "unocc",
				"energy": 0.10775,
				"method": "rhf"
			}
		],
		"cosmo_sigma_profile": { 
			"-0.025": 0.0,
			"-0.024": 0.0,
			"-0.023": 0.0,
			"-0.022": 0.0,
			"-0.021": 0.0,
			"-0.02": 0.0,
			"-0.019": 0.0,
			"-0.018": 0.0,
			"-0.017": 0.0,
			"-0.016": 0.0,
			"-0.015": 0.0,
			"-0.014": 0.0244406470667,
			"-0.013": 0.823852418376,
			"-0.012": 1.36239571227,
			"-0.011": 2.43740076286,
			"-0.01": 2.40979932806,
			"-0.009": 2.33280613622,
			"-0.008": 2.90555323053,
			"-0.007": 3.7189957691,
			"-0.006": 7.15794462603,
			"-0.005": 10.1375340159,
			"-0.004": 14.760858835,
			"-0.003": 15.1430556509,
			"-0.002": 14.3876671332,
			"-0.001": 10.7804870809,
			"0.0": 11.2217296679,
			"0.001": 13.1523390561,
			"0.002": 22.0461025314,
			"0.003": 40.3097669586,
			"0.004": 19.5313527225,
			"0.005": 3.91019680361,
			"0.006": 2.02232747999,
			"0.007": 1.96099467503,
			"0.008": 1.24490485639,
			"0.009": 1.3108761106,
			"0.01": 1.99769600146,
			"0.011": 1.68081706169,
			"0.012": 1.105623144,
			"0.013": 0.445878730574,
			"0.014": 0.174102723765,
			"0.015": 0.0,
			"0.016": 0.0,
			"0.017": 0.0,
			"0.018": 0.0,
			"0.019": 0.0,
			"0.02": 0.0,
			"0.021": 0.0,
			"0.022": 0.0,
			"0.023": 0.0,
			"0.024": 0.0,
			"0.025": 0.0
		}
	}
}
