{
	 "smiles": "NS(=O)(=O)C1=C(C=CC(Cl)=C1)[N+]([O-])=O", 
	 "Tm": 431.15, 
	 "num_atms": 19, 
	 "gaussian": { 
		 "optdone": 1, 
		 "sigma_profile": "yes", 
		 "theory": "DFT", 
		 "functional": "B3LYP", 
		 "basiset": "6-31G**", 
		 "properties": { 
			 "R2extent": 4548.7198, 
			 "electric_dipole_moment_norm": 3.77193108898, 
			 "electric_quadrupole_moment_norm": 23.3359119368, 
			 "total_energy": -1500.24627633, 
			 "HOMO_LUMO_gap": 0.17369, 
			 "cosmo_polarized_energy": -16.1, 
			 "cosmo_cavitation_energy": 27.15, 
			 "cosmo_dispersion_energy": -20.86, 
			 "cosmo_repulsion_energy": 1.59, 
			 "cosmo_total_nonelectrostatic_energy": 7.88, 
			 "SMD_solvation_energy": 5.9 
		},
		"coords": [
			{
				"x": -1.1405691607,
				"y": 2.742432338,
				"z": 1.6063255436,
				"element": "N" 
			},
			{
				"x": -1.5278169374,
				"y": 1.2163802732,
				"z": 2.175873747,
				"element": "S" 
			},
			{
				"x": -1.5532731125,
				"y": 1.1267813849,
				"z": 3.6337912289,
				"element": "O" 
			},
			{
				"x": -2.6900917191,
				"y": 0.8064822079,
				"z": 1.3832405823,
				"element": "O" 
			},
			{
				"x": -0.1317123597,
				"y": 0.1952277244,
				"z": 1.5997350138,
				"element": "C" 
			},
			{
				"x": 1.1585201046,
				"y": 0.1594696581,
				"z": 2.1539781509,
				"element": "C" 
			},
			{
				"x": 2.0952246919,
				"y": -0.7772742045,
				"z": 1.7197433056,
				"element": "C" 
			},
			{
				"x": 1.7707730608,
				"y": -1.6808231253,
				"z": 0.7135825652,
				"element": "C" 
			},
			{
				"x": 0.491838876,
				"y": -1.6429256448,
				"z": 0.16031245,
				"element": "C" 
			},
			{
				"x": 0.0634259073,
				"y": -2.7700453771,
				"z": -1.1004821486,
				"element": "Cl" 
			},
			{
				"x": -0.4606157674,
				"y": -0.7238563726,
				"z": 0.6054828389,
				"element": "C" 
			},
			{
				"x": 1.6212909163,
				"y": 1.1096163906,
				"z": 3.177675348,
				"element": "N" 
			},
			{
				"x": 2.5583210867,
				"y": 0.76046021,
				"z": 3.8880713634,
				"element": "O" 
			},
			{
				"x": 1.0698794359,
				"y": 2.2079012741,
				"z": 3.2380031497,
				"element": "O" 
			},
			{
				"x": -1.9966642654,
				"y": 3.2127515471,
				"z": 1.3253595159,
				"element": "H" 
			},
			{
				"x": -0.5785093139,
				"y": 3.2624349918,
				"z": 2.2729086623,
				"element": "H" 
			},
			{
				"x": 3.0763294452,
				"y": -0.7796671058,
				"z": 2.1780398295,
				"element": "H" 
			},
			{
				"x": 2.4991488199,
				"y": -2.4036152104,
				"z": 0.3650832716,
				"element": "H" 
			},
			{
				"x": -1.4645997084,
				"y": -0.7196309597,
				"z": 0.1988755819,
				"element": "H" 
			}
		],
		 "valence_orbital": [ 
			{
				"type": "occ",
				"energy": -0.32445,
				"method": "rhf"
			},
			{
				"type": "occ",
				"energy": -0.31915,
				"method": "rhf"
			},
			{
				"type": "occ",
				"energy": -0.3044,
				"method": "rhf"
			},
			{
				"type": "occ",
				"energy": -0.29536,
				"method": "rhf"
			},
			{
				"type": "occ",
				"energy": -0.2875,
				"method": "rhf"
			},
			{
				"type": "unocc",
				"energy": -0.11381,
				"method": "rhf"
			},
			{
				"type": "unocc",
				"energy": -0.06308,
				"method": "rhf"
			},
			{
				"type": "unocc",
				"energy": -0.03482,
				"method": "rhf"
			},
			{
				"type": "unocc",
				"energy": -0.00316,
				"method": "rhf"
			},
			{
				"type": "unocc",
				"energy": 0.04045,
				"method": "rhf"
			}
		],
		"cosmo_sigma_profile": { 
			"-0.025": 0.0,
			"-0.024": 0.0,
			"-0.023": 0.0,
			"-0.022": 0.0,
			"-0.021": 0.0,
			"-0.02": 0.0,
			"-0.019": 0.0,
			"-0.018": 0.0,
			"-0.017": 0.0,
			"-0.016": 0.440069801043,
			"-0.015": 1.33278596917,
			"-0.014": 1.90248373361,
			"-0.013": 2.32045887542,
			"-0.012": 2.10910780831,
			"-0.011": 1.90181831868,
			"-0.01": 2.54330463414,
			"-0.009": 6.45965925502,
			"-0.008": 6.53913347735,
			"-0.007": 6.43945290496,
			"-0.006": 6.75606530344,
			"-0.005": 8.46564080584,
			"-0.004": 8.62830057746,
			"-0.003": 17.6149704231,
			"-0.002": 22.0418878505,
			"-0.001": 17.3102519713,
			"0.0": 10.930627013,
			"0.001": 9.54464867427,
			"0.002": 11.8812146057,
			"0.003": 15.0365515066,
			"0.004": 6.2676890476,
			"0.005": 6.00426622388,
			"0.006": 7.37109831953,
			"0.007": 10.0673866612,
			"0.008": 8.30387468014,
			"0.009": 7.17663155965,
			"0.01": 10.1638553067,
			"0.011": 5.170209862,
			"0.012": 0.0909171553419,
			"0.013": 0.0,
			"0.014": 0.0,
			"0.015": 0.0,
			"0.016": 0.0,
			"0.017": 0.0,
			"0.018": 0.0,
			"0.019": 0.0,
			"0.02": 0.0,
			"0.021": 0.0,
			"0.022": 0.0,
			"0.023": 0.0,
			"0.024": 0.0,
			"0.025": 0.0
		}
	}
}
