{
	 "smiles": "CCN1N=C(C=C1C(O)=O)C(C)C", 
	 "Tm": 389.15, 
	 "num_atms": 27, 
	 "gaussian": { 
		 "optdone": 1, 
		 "sigma_profile": "yes", 
		 "theory": "DFT", 
		 "functional": "B3LYP", 
		 "basiset": "6-31G**", 
		 "properties": { 
			 "R2extent": 3140.0097, 
			 "electric_dipole_moment_norm": 2.80311642462, 
			 "electric_quadrupole_moment_norm": 16.6474720255, 
			 "total_energy": -611.355804236, 
			 "HOMO_LUMO_gap": 0.20658, 
			 "cosmo_polarized_energy": -13.08, 
			 "cosmo_cavitation_energy": 30.14, 
			 "cosmo_dispersion_energy": -21.16, 
			 "cosmo_repulsion_energy": 1.72, 
			 "cosmo_total_nonelectrostatic_energy": 10.7, 
			 "SMD_solvation_energy": 5.56 
		},
		"coords": [
			{
				"x": -2.6718261929,
				"y": 0.1116684096,
				"z": -0.5186787248,
				"element": "C" 
			},
			{
				"x": -1.942338562,
				"y": 1.1954399046,
				"z": 0.2739491902,
				"element": "C" 
			},
			{
				"x": -0.4881117316,
				"y": 0.9979449075,
				"z": 0.2775795415,
				"element": "N" 
			},
			{
				"x": 0.0586542042,
				"y": 0.266239154,
				"z": 1.2588388563,
				"element": "N" 
			},
			{
				"x": 1.3746931447,
				"y": 0.2113145908,
				"z": 1.0024074457,
				"element": "C" 
			},
			{
				"x": 1.6732445517,
				"y": 0.9290451687,
				"z": -0.1690851759,
				"element": "C" 
			},
			{
				"x": 0.4511218162,
				"y": 1.4267312681,
				"z": -0.6208688785,
				"element": "C" 
			},
			{
				"x": 0.1210918074,
				"y": 2.2324176647,
				"z": -1.8127291202,
				"element": "C" 
			},
			{
				"x": 1.1816006362,
				"y": 2.8098821008,
				"z": -2.433638365,
				"element": "O" 
			},
			{
				"x": -0.9978308811,
				"y": 2.3898418684,
				"z": -2.2521624879,
				"element": "O" 
			},
			{
				"x": 2.3113348351,
				"y": -0.5451036105,
				"z": 1.9137985275,
				"element": "C" 
			},
			{
				"x": 2.3161572034,
				"y": 0.0576433424,
				"z": 3.3310687315,
				"element": "C" 
			},
			{
				"x": 1.9637784384,
				"y": -2.045003376,
				"z": 1.949209008,
				"element": "C" 
			},
			{
				"x": -3.7528617531,
				"y": 0.2653667946,
				"z": -0.4425820194,
				"element": "H" 
			},
			{
				"x": -2.3926702522,
				"y": 0.1604260678,
				"z": -1.5736140161,
				"element": "H" 
			},
			{
				"x": -2.4344709444,
				"y": -0.8809427034,
				"z": -0.1255456877,
				"element": "H" 
			},
			{
				"x": -2.2376993699,
				"y": 1.183299632,
				"z": 1.3250308847,
				"element": "H" 
			},
			{
				"x": -2.1451192968,
				"y": 2.1795658306,
				"z": -0.1482938346,
				"element": "H" 
			},
			{
				"x": 2.6445489549,
				"y": 1.0334365553,
				"z": -0.6341517824,
				"element": "H" 
			},
			{
				"x": 1.9826065916,
				"y": 2.6954956688,
				"z": -1.9031022669,
				"element": "H" 
			},
			{
				"x": 3.319500324,
				"y": -0.4372582533,
				"z": 1.4924606034,
				"element": "H" 
			},
			{
				"x": 3.0164893546,
				"y": -0.4811936601,
				"z": 3.978081155,
				"element": "H" 
			},
			{
				"x": 2.6094582941,
				"y": 1.1121425571,
				"z": 3.3140560779,
				"element": "H" 
			},
			{
				"x": 1.3183136233,
				"y": -0.0061103826,
				"z": 3.7756032535,
				"element": "H" 
			},
			{
				"x": 0.9525614784,
				"y": -2.1926046932,
				"z": 2.3404841708,
				"element": "H" 
			},
			{
				"x": 2.0045865042,
				"y": -2.4864017096,
				"z": 0.9483835993,
				"element": "H" 
			},
			{
				"x": 2.6642872217,
				"y": -2.5893830971,
				"z": 2.5914013141,
				"element": "H" 
			}
		],
		 "valence_orbital": [ 
			{
				"type": "occ",
				"energy": -0.32172,
				"method": "rhf"
			},
			{
				"type": "occ",
				"energy": -0.29405,
				"method": "rhf"
			},
			{
				"type": "occ",
				"energy": -0.28275,
				"method": "rhf"
			},
			{
				"type": "occ",
				"energy": -0.26327,
				"method": "rhf"
			},
			{
				"type": "occ",
				"energy": -0.25106,
				"method": "rhf"
			},
			{
				"type": "unocc",
				"energy": -0.04448,
				"method": "rhf"
			},
			{
				"type": "unocc",
				"energy": 0.03465,
				"method": "rhf"
			},
			{
				"type": "unocc",
				"energy": 0.06078,
				"method": "rhf"
			},
			{
				"type": "unocc",
				"energy": 0.09128,
				"method": "rhf"
			},
			{
				"type": "unocc",
				"energy": 0.09432,
				"method": "rhf"
			}
		],
		"cosmo_sigma_profile": { 
			"-0.025": 0.0,
			"-0.024": 0.0,
			"-0.023": 0.0,
			"-0.022": 0.0,
			"-0.021": 0.0,
			"-0.02": 0.0,
			"-0.019": 0.129813707856,
			"-0.018": 0.734913716324,
			"-0.017": 1.47757260388,
			"-0.016": 0.738808925627,
			"-0.015": 1.17685779242,
			"-0.014": 0.642101834858,
			"-0.013": 0.813917149382,
			"-0.012": 1.85370824103,
			"-0.011": 1.03474475415,
			"-0.01": 0.898174979419,
			"-0.009": 1.41897793204,
			"-0.008": 1.94826774234,
			"-0.007": 1.69829039428,
			"-0.006": 3.08342249946,
			"-0.005": 6.69647191213,
			"-0.004": 14.0670148743,
			"-0.003": 22.1660672239,
			"-0.002": 28.3958757978,
			"-0.001": 28.2356394881,
			"0.0": 27.5163041415,
			"0.001": 25.0893547744,
			"0.002": 13.4199002945,
			"0.003": 9.54684280642,
			"0.004": 5.93056860083,
			"0.005": 5.25146602911,
			"0.006": 4.29028570957,
			"0.007": 4.65942319987,
			"0.008": 3.57275966998,
			"0.009": 4.58846381879,
			"0.01": 5.83773533593,
			"0.011": 4.1182155039,
			"0.012": 3.65090354269,
			"0.013": 1.23572748713,
			"0.014": 0.62512114206,
			"0.015": 0.0,
			"0.016": 0.0,
			"0.017": 0.0,
			"0.018": 0.0,
			"0.019": 0.0,
			"0.02": 0.0,
			"0.021": 0.0,
			"0.022": 0.0,
			"0.023": 0.0,
			"0.024": 0.0,
			"0.025": 0.0
		}
	}
}
