{
	 "smiles": "CC(Cl)C(=O)C1=C(N)N(C)C(=O)N(C)C1=O", 
	 "Tm": 414.15, 
	 "num_atms": 28, 
	 "gaussian": { 
		 "optdone": 1, 
		 "sigma_profile": "yes", 
		 "theory": "DFT", 
		 "functional": "B3LYP", 
		 "basiset": "6-31G**", 
		 "properties": { 
			 "R2extent": 4242.3141, 
			 "electric_dipole_moment_norm": 5.18909984968, 
			 "electric_quadrupole_moment_norm": 13.06806629, 
			 "total_energy": -1200.3630544, 
			 "HOMO_LUMO_gap": 0.18746, 
			 "cosmo_polarized_energy": -18.23, 
			 "cosmo_cavitation_energy": 31.81, 
			 "cosmo_dispersion_energy": -23.68, 
			 "cosmo_repulsion_energy": 1.82, 
			 "cosmo_total_nonelectrostatic_energy": 9.96, 
			 "SMD_solvation_energy": 6.68 
		},
		"coords": [
			{
				"x": 0.8183146779,
				"y": -1.2080883864,
				"z": 4.0413713984,
				"element": "C" 
			},
			{
				"x": -0.2548877225,
				"y": -1.7488385268,
				"z": 3.1014019822,
				"element": "C" 
			},
			{
				"x": 0.3041865192,
				"y": -3.2373272411,
				"z": 2.1962802104,
				"element": "Cl" 
			},
			{
				"x": -0.9174451445,
				"y": -0.7107919162,
				"z": 2.1730785212,
				"element": "C" 
			},
			{
				"x": -2.0512063448,
				"y": -0.3711593731,
				"z": 2.56741503,
				"element": "O" 
			},
			{
				"x": -0.3498483826,
				"y": -0.1923291326,
				"z": 0.9330224038,
				"element": "C" 
			},
			{
				"x": -1.1947092025,
				"y": 0.5207030639,
				"z": 0.045398826,
				"element": "C" 
			},
			{
				"x": -2.4487793446,
				"y": 0.8494422097,
				"z": 0.3785214821,
				"element": "N" 
			},
			{
				"x": -0.7508468674,
				"y": 0.9021900924,
				"z": -1.1998589665,
				"element": "N" 
			},
			{
				"x": -1.631098227,
				"y": 1.6266730159,
				"z": -2.1187519116,
				"element": "C" 
			},
			{
				"x": 0.5559492783,
				"y": 0.6268616344,
				"z": -1.6625862551,
				"element": "C" 
			},
			{
				"x": 0.907697981,
				"y": 0.9483208982,
				"z": -2.7871493341,
				"element": "O" 
			},
			{
				"x": 1.3918399261,
				"y": 0.0089567674,
				"z": -0.7656705491,
				"element": "N" 
			},
			{
				"x": 2.7682713924,
				"y": -0.216038179,
				"z": -1.2256395555,
				"element": "C" 
			},
			{
				"x": 1.0467520653,
				"y": -0.368900254,
				"z": 0.5632634781,
				"element": "C" 
			},
			{
				"x": 1.9293235956,
				"y": -0.7978795173,
				"z": 1.29381139,
				"element": "O" 
			},
			{
				"x": 1.6990753055,
				"y": -0.8854675046,
				"z": 3.4909690131,
				"element": "H" 
			},
			{
				"x": 0.3988890019,
				"y": -0.3604635869,
				"z": 4.5962315619,
				"element": "H" 
			},
			{
				"x": 1.0962248027,
				"y": -1.9821173871,
				"z": 4.7615333059,
				"element": "H" 
			},
			{
				"x": -1.0980149178,
				"y": -2.1106907531,
				"z": 3.6891139072,
				"element": "H" 
			},
			{
				"x": -3.0939081749,
				"y": 1.2373829288,
				"z": -0.2872949306,
				"element": "H" 
			},
			{
				"x": -2.7263736007,
				"y": 0.5296935998,
				"z": 1.3168624362,
				"element": "H" 
			},
			{
				"x": -2.4955793897,
				"y": 1.0139139137,
				"z": -2.3963689104,
				"element": "H" 
			},
			{
				"x": -1.9683758895,
				"y": 2.5650666135,
				"z": -1.6673645326,
				"element": "H" 
			},
			{
				"x": -1.0497202978,
				"y": 1.8418025851,
				"z": -3.0119385521,
				"element": "H" 
			},
			{
				"x": 3.2875294914,
				"y": -0.7537403651,
				"z": -0.4368819369,
				"element": "H" 
			},
			{
				"x": 2.7541347412,
				"y": -0.7959329465,
				"z": -2.1498683567,
				"element": "H" 
			},
			{
				"x": 3.2615047279,
				"y": 0.738957747,
				"z": -1.4221011552,
				"element": "H" 
			}
		],
		 "valence_orbital": [ 
			{
				"type": "occ",
				"energy": -0.28423,
				"method": "rhf"
			},
			{
				"type": "occ",
				"energy": -0.27235,
				"method": "rhf"
			},
			{
				"type": "occ",
				"energy": -0.26139,
				"method": "rhf"
			},
			{
				"type": "occ",
				"energy": -0.25914,
				"method": "rhf"
			},
			{
				"type": "occ",
				"energy": -0.23929,
				"method": "rhf"
			},
			{
				"type": "unocc",
				"energy": -0.05183,
				"method": "rhf"
			},
			{
				"type": "unocc",
				"energy": -0.014,
				"method": "rhf"
			},
			{
				"type": "unocc",
				"energy": 0.01484,
				"method": "rhf"
			},
			{
				"type": "unocc",
				"energy": 0.04755,
				"method": "rhf"
			},
			{
				"type": "unocc",
				"energy": 0.05608,
				"method": "rhf"
			}
		],
		"cosmo_sigma_profile": { 
			"-0.025": 0.0,
			"-0.024": 0.0,
			"-0.023": 0.0,
			"-0.022": 0.0,
			"-0.021": 0.0,
			"-0.02": 0.0,
			"-0.019": 0.0,
			"-0.018": 0.0,
			"-0.017": 0.0,
			"-0.016": 0.364373706413,
			"-0.015": 1.31858153352,
			"-0.014": 0.913393605029,
			"-0.013": 1.30154043749,
			"-0.012": 2.11074313517,
			"-0.011": 1.56867849197,
			"-0.01": 1.83204433657,
			"-0.009": 2.77963632232,
			"-0.008": 3.18729229312,
			"-0.007": 6.31454672937,
			"-0.006": 9.1611778129,
			"-0.005": 16.8014991229,
			"-0.004": 24.7738984816,
			"-0.003": 23.7839143598,
			"-0.002": 19.6876167271,
			"-0.001": 19.4968555173,
			"0.0": 17.9975891785,
			"0.001": 14.16283628,
			"0.002": 10.0394542384,
			"0.003": 8.99275323891,
			"0.004": 9.01606711964,
			"0.005": 9.61760786795,
			"0.006": 12.3474986888,
			"0.007": 7.1815638016,
			"0.008": 4.25725705249,
			"0.009": 4.66338849305,
			"0.01": 5.8142670234,
			"0.011": 6.24008096725,
			"0.012": 7.1381962581,
			"0.013": 1.53884620339,
			"0.014": 0.0,
			"0.015": 0.0,
			"0.016": 0.0,
			"0.017": 0.0,
			"0.018": 0.0,
			"0.019": 0.0,
			"0.02": 0.0,
			"0.021": 0.0,
			"0.022": 0.0,
			"0.023": 0.0,
			"0.024": 0.0,
			"0.025": 0.0
		}
	}
}
