{
	 "smiles": "OC(=O)C1=CC(Br)=C(I)C=C1", 
	 "Tm": 517.15, 
	 "num_atms": 15, 
	 "gaussian": { 
		 "optdone": 1, 
		 "sigma_profile": "yes", 
		 "theory": "DFT", 
		 "functional": "B3LYP", 
		 "basiset": "6-31G**", 
		 "properties": { 
			 "R2extent": 6494.8781, 
			 "electric_dipole_moment_norm": 4.00605295022, 
			 "electric_quadrupole_moment_norm": 10.7793055838, 
			 "total_energy": -3002.39200609, 
			 "HOMO_LUMO_gap": 0.18813, 
			 "cosmo_polarized_energy": -14.24, 
			 "cosmo_cavitation_energy": 25.38, 
			 "cosmo_dispersion_energy": -20.47, 
			 "cosmo_repulsion_energy": 1.6, 
			 "cosmo_total_nonelectrostatic_energy": 6.51, 
			 "SMD_solvation_energy": 3.63 
		},
		"coords": [
			{
				"x": -0.3043381824,
				"y": -1.7647934695,
				"z": 0.9517884965,
				"element": "O" 
			},
			{
				"x": 0.5576326419,
				"y": -1.0430642814,
				"z": 0.188817184,
				"element": "C" 
			},
			{
				"x": 0.352622327,
				"y": -0.9018392174,
				"z": -0.9925244297,
				"element": "O" 
			},
			{
				"x": 1.7472210845,
				"y": -0.452283644,
				"z": 0.8898620572,
				"element": "C" 
			},
			{
				"x": 2.4007946133,
				"y": 0.607622057,
				"z": 0.2553154184,
				"element": "C" 
			},
			{
				"x": 3.5146211545,
				"y": 1.2094072056,
				"z": 0.8387645794,
				"element": "C" 
			},
			{
				"x": 4.317609781,
				"y": 2.6585419786,
				"z": -0.0934406318,
				"element": "Br" 
			},
			{
				"x": 4.0019397174,
				"y": 0.7376391326,
				"z": 2.0679009639,
				"element": "C" 
			},
			{
				"x": 5.6776716002,
				"y": 1.5724288642,
				"z": 3.0364975423,
				"element": "I" 
			},
			{
				"x": 3.3616308775,
				"y": -0.3407377693,
				"z": 2.6901177767,
				"element": "C" 
			},
			{
				"x": 2.2431402926,
				"y": -0.9307725069,
				"z": 2.1089979041,
				"element": "C" 
			},
			{
				"x": -0.1095485192,
				"y": -1.6446894136,
				"z": 1.8914161954,
				"element": "H" 
			},
			{
				"x": 2.026455458,
				"y": 0.9551455475,
				"z": -0.7000740384,
				"element": "H" 
			},
			{
				"x": 3.7466695866,
				"y": -0.7214934862,
				"z": 3.6289808258,
				"element": "H" 
			},
			{
				"x": 1.795077567,
				"y": -1.7895109972,
				"z": 2.6017801563,
				"element": "H" 
			}
		],
		 "valence_orbital": [ 
			{
				"type": "occ",
				"energy": -0.31333,
				"method": "rhf"
			},
			{
				"type": "occ",
				"energy": -0.28798,
				"method": "rhf"
			},
			{
				"type": "occ",
				"energy": -0.27481,
				"method": "rhf"
			},
			{
				"type": "occ",
				"energy": -0.27223,
				"method": "rhf"
			},
			{
				"type": "occ",
				"energy": -0.2603,
				"method": "rhf"
			},
			{
				"type": "unocc",
				"energy": -0.07217,
				"method": "rhf"
			},
			{
				"type": "unocc",
				"energy": -0.06367,
				"method": "rhf"
			},
			{
				"type": "unocc",
				"energy": -0.04532,
				"method": "rhf"
			},
			{
				"type": "unocc",
				"energy": 0.00244,
				"method": "rhf"
			},
			{
				"type": "unocc",
				"energy": 0.02566,
				"method": "rhf"
			}
		],
		"cosmo_sigma_profile": { 
			"-0.025": 0.0,
			"-0.024": 0.0,
			"-0.023": 0.0,
			"-0.022": 0.0,
			"-0.021": 0.0,
			"-0.02": 0.0598173097713,
			"-0.019": 0.771118280492,
			"-0.018": 1.02685286833,
			"-0.017": 0.980310313618,
			"-0.016": 1.0365252631,
			"-0.015": 0.934725179713,
			"-0.014": 1.0599543077,
			"-0.013": 1.50087014652,
			"-0.012": 1.20128723738,
			"-0.011": 1.05782886651,
			"-0.01": 1.15512883629,
			"-0.009": 1.89268414475,
			"-0.008": 5.82161462062,
			"-0.007": 6.37504238648,
			"-0.006": 5.82538519389,
			"-0.005": 8.93459265341,
			"-0.004": 8.76173917265,
			"-0.003": 10.334830474,
			"-0.002": 10.432320774,
			"-0.001": 16.0485298638,
			"0.0": 26.6052472564,
			"0.001": 18.3832773321,
			"0.002": 15.8527919677,
			"0.003": 20.572077763,
			"0.004": 16.316932582,
			"0.005": 4.05436517453,
			"0.006": 1.88361631384,
			"0.007": 2.99565553618,
			"0.008": 2.47979422821,
			"0.009": 3.999787154,
			"0.01": 5.3150153678,
			"0.011": 5.20149457993,
			"0.012": 3.07694262615,
			"0.013": 0.615171483187,
			"0.014": 0.0,
			"0.015": 0.0,
			"0.016": 0.0,
			"0.017": 0.0,
			"0.018": 0.0,
			"0.019": 0.0,
			"0.02": 0.0,
			"0.021": 0.0,
			"0.022": 0.0,
			"0.023": 0.0,
			"0.024": 0.0,
			"0.025": 0.0
		}
	}
}
