{
	 "smiles": "NC1=C(N=C(Br)C=N1)C(O)=O", 
	 "Tm": 446.15, 
	 "num_atms": 15, 
	 "gaussian": { 
		 "optdone": 1, 
		 "sigma_profile": "yes", 
		 "theory": "DFT", 
		 "functional": "B3LYP", 
		 "basiset": "6-31G**", 
		 "properties": { 
			 "R2extent": 3081.2132, 
			 "electric_dipole_moment_norm": 2.82553779837, 
			 "electric_quadrupole_moment_norm": 8.59125995765, 
			 "total_energy": -3079.06837248, 
			 "HOMO_LUMO_gap": 0.15096, 
			 "cosmo_polarized_energy": -10.91, 
			 "cosmo_cavitation_energy": 22.43, 
			 "cosmo_dispersion_energy": -17.64, 
			 "cosmo_repulsion_energy": 1.43, 
			 "cosmo_total_nonelectrostatic_energy": 6.22, 
			 "SMD_solvation_energy": 1.66 
		},
		"coords": [
			{
				"x": 1.2477874633,
				"y": -2.1718405974,
				"z": 1.4777524208,
				"element": "N" 
			},
			{
				"x": 0.8474522213,
				"y": -0.9028976896,
				"z": 1.2824447342,
				"element": "C" 
			},
			{
				"x": 0.6936995127,
				"y": -0.3407441096,
				"z": -0.0176401007,
				"element": "C" 
			},
			{
				"x": 0.2928287503,
				"y": 0.9271694124,
				"z": -0.1762860525,
				"element": "N" 
			},
			{
				"x": 0.043009624,
				"y": 1.6458768828,
				"z": 0.8973866324,
				"element": "C" 
			},
			{
				"x": -0.5301201568,
				"y": 3.4543330465,
				"z": 0.6873847371,
				"element": "Br" 
			},
			{
				"x": 0.1914372105,
				"y": 1.1029544184,
				"z": 2.1864599698,
				"element": "C" 
			},
			{
				"x": 0.585474734,
				"y": -0.1458467818,
				"z": 2.376167928,
				"element": "N" 
			},
			{
				"x": 0.9639469016,
				"y": -1.1100218,
				"z": -1.2649650769,
				"element": "C" 
			},
			{
				"x": 0.7678732261,
				"y": -0.427085655,
				"z": -2.3985195735,
				"element": "O" 
			},
			{
				"x": 1.3351523382,
				"y": -2.2725188256,
				"z": -1.2644229115,
				"element": "O" 
			},
			{
				"x": 1.4477355583,
				"y": -2.7437169844,
				"z": 0.6655119156,
				"element": "H" 
			},
			{
				"x": 1.3379931968,
				"y": -2.5081030185,
				"z": 2.423217261,
				"element": "H" 
			},
			{
				"x": -0.0177917273,
				"y": 1.7051849722,
				"z": 3.0666449745,
				"element": "H" 
			},
			{
				"x": 0.4766211468,
				"y": 0.4715567295,
				"z": -2.1436368583,
				"element": "H" 
			}
		],
		 "valence_orbital": [ 
			{
				"type": "occ",
				"energy": -0.31159,
				"method": "rhf"
			},
			{
				"type": "occ",
				"energy": -0.30498,
				"method": "rhf"
			},
			{
				"type": "occ",
				"energy": -0.30048,
				"method": "rhf"
			},
			{
				"type": "occ",
				"energy": -0.27946,
				"method": "rhf"
			},
			{
				"type": "occ",
				"energy": -0.24005,
				"method": "rhf"
			},
			{
				"type": "unocc",
				"energy": -0.08909,
				"method": "rhf"
			},
			{
				"type": "unocc",
				"energy": -0.03757,
				"method": "rhf"
			},
			{
				"type": "unocc",
				"energy": -0.00523,
				"method": "rhf"
			},
			{
				"type": "unocc",
				"energy": 0.02863,
				"method": "rhf"
			},
			{
				"type": "unocc",
				"energy": 0.08874,
				"method": "rhf"
			}
		],
		"cosmo_sigma_profile": { 
			"-0.025": 0.0,
			"-0.024": 0.0,
			"-0.023": 0.0,
			"-0.022": 0.0,
			"-0.021": 0.0,
			"-0.02": 0.0,
			"-0.019": 0.0,
			"-0.018": 0.0,
			"-0.017": 0.0,
			"-0.016": 0.0,
			"-0.015": 0.471481756728,
			"-0.014": 1.81836264263,
			"-0.013": 1.39748997915,
			"-0.012": 1.63079214681,
			"-0.011": 1.98515864408,
			"-0.01": 2.87513735156,
			"-0.009": 3.64481208509,
			"-0.008": 3.48871359118,
			"-0.007": 4.81566294052,
			"-0.006": 5.28334091645,
			"-0.005": 8.86481351076,
			"-0.004": 11.3919159463,
			"-0.003": 13.8507131843,
			"-0.002": 14.6179120484,
			"-0.001": 11.9682452759,
			"0.0": 10.236334115,
			"0.001": 12.6583794895,
			"0.002": 10.9449522622,
			"0.003": 14.2659607957,
			"0.004": 14.9401938737,
			"0.005": 4.67694228297,
			"0.006": 3.95621311659,
			"0.007": 3.22721374782,
			"0.008": 3.573951995,
			"0.009": 5.15524679338,
			"0.01": 5.54394916195,
			"0.011": 2.98955125494,
			"0.012": 3.01815136032,
			"0.013": 0.800325310022,
			"0.014": 0.0,
			"0.015": 0.0,
			"0.016": 0.0,
			"0.017": 0.0,
			"0.018": 0.0,
			"0.019": 0.0,
			"0.02": 0.0,
			"0.021": 0.0,
			"0.022": 0.0,
			"0.023": 0.0,
			"0.024": 0.0,
			"0.025": 0.0
		}
	}
}
