{
	 "smiles": "ClC1=CC=C(OC(=O)C2=CC=C(C=C2)C(=O)OC2=CC=C(Cl)C=C2)C=C1", 
	 "Tm": 470.15, 
	 "num_atms": 38, 
	 "gaussian": { 
		 "optdone": 1, 
		 "sigma_profile": "yes", 
		 "theory": "DFT", 
		 "functional": "B3LYP", 
		 "basiset": "6-31G**", 
		 "properties": { 
			 "R2extent": 26233.7323, 
			 "electric_dipole_moment_norm": 0.124954591752, 
			 "electric_quadrupole_moment_norm": 27.1914656339, 
			 "total_energy": -1990.66240645, 
			 "HOMO_LUMO_gap": 0.15627, 
			 "cosmo_polarized_energy": -12.31, 
			 "cosmo_cavitation_energy": 49.18, 
			 "cosmo_dispersion_energy": -35.53, 
			 "cosmo_repulsion_energy": 2.65, 
			 "cosmo_total_nonelectrostatic_energy": 16.29, 
			 "SMD_solvation_energy": 9.55 
		},
		"coords": [
			{
				"x": -5.0809349714,
				"y": -3.8367799828,
				"z": 7.5098120489,
				"element": "Cl" 
			},
			{
				"x": -4.1362032991,
				"y": -3.2805365989,
				"z": 6.136856308,
				"element": "C" 
			},
			{
				"x": -4.6974826737,
				"y": -2.3726402617,
				"z": 5.2393766843,
				"element": "C" 
			},
			{
				"x": -3.9541668517,
				"y": -1.9271640926,
				"z": 4.1463966455,
				"element": "C" 
			},
			{
				"x": -2.6520691662,
				"y": -2.3983154656,
				"z": 3.9742645166,
				"element": "C" 
			},
			{
				"x": -1.8583630435,
				"y": -2.0720218075,
				"z": 2.875172911,
				"element": "O" 
			},
			{
				"x": -1.7918905828,
				"y": -0.793109229,
				"z": 2.3947201164,
				"element": "C" 
			},
			{
				"x": -2.4030926078,
				"y": 0.1425263356,
				"z": 2.8595522168,
				"element": "O" 
			},
			{
				"x": -0.8682226186,
				"y": -0.7018985723,
				"z": 1.2271882672,
				"element": "C" 
			},
			{
				"x": -0.6847728397,
				"y": 0.5617045782,
				"z": 0.6479051692,
				"element": "C" 
			},
			{
				"x": 0.1630776596,
				"y": 0.7156285915,
				"z": -0.443129116,
				"element": "C" 
			},
			{
				"x": 0.8347832779,
				"y": -0.3987406461,
				"z": -0.9673188458,
				"element": "C" 
			},
			{
				"x": 0.6497424973,
				"y": -1.66269706,
				"z": -0.3893112407,
				"element": "C" 
			},
			{
				"x": -0.1958840772,
				"y": -1.8161239934,
				"z": 0.7035055545,
				"element": "C" 
			},
			{
				"x": 1.7560565376,
				"y": -0.3081809967,
				"z": -2.1367896124,
				"element": "C" 
			},
			{
				"x": 2.3357011144,
				"y": -1.2509499964,
				"z": -2.6269431449,
				"element": "O" 
			},
			{
				"x": 1.8637770895,
				"y": 0.979868398,
				"z": -2.5842349035,
				"element": "O" 
			},
			{
				"x": 2.680791468,
				"y": 1.3109438804,
				"z": -3.6646517291,
				"element": "C" 
			},
			{
				"x": 3.3901300527,
				"y": 2.5043444873,
				"z": -3.5381124135,
				"element": "C" 
			},
			{
				"x": 4.1753424915,
				"y": 2.9602840795,
				"z": -4.59512461,
				"element": "C" 
			},
			{
				"x": 4.2387994367,
				"y": 2.2086710526,
				"z": -5.7680992165,
				"element": "C" 
			},
			{
				"x": 5.2284945099,
				"y": 2.7742888955,
				"z": -7.1050851871,
				"element": "Cl" 
			},
			{
				"x": 3.5272056849,
				"y": 1.0162358223,
				"z": -5.8966004834,
				"element": "C" 
			},
			{
				"x": 2.7384883638,
				"y": 0.5611264762,
				"z": -4.8400323553,
				"element": "C" 
			},
			{
				"x": -2.092799887,
				"y": -3.3081320914,
				"z": 4.8702788312,
				"element": "C" 
			},
			{
				"x": -2.8369240219,
				"y": -3.755380545,
				"z": 5.9602136638,
				"element": "C" 
			},
			{
				"x": -5.7097245824,
				"y": -2.0151281886,
				"z": 5.3908520428,
				"element": "H" 
			},
			{
				"x": -4.3797296806,
				"y": -1.2172017458,
				"z": 3.4504668769,
				"element": "H" 
			},
			{
				"x": -1.2155329319,
				"y": 1.4087026353,
				"z": 1.0683781954,
				"element": "H" 
			},
			{
				"x": 0.3072781667,
				"y": 1.6908744822,
				"z": -0.892170761,
				"element": "H" 
			},
			{
				"x": 1.1781137921,
				"y": -2.5102260234,
				"z": -0.8117126907,
				"element": "H" 
			},
			{
				"x": -0.3400797856,
				"y": -2.7913693304,
				"z": 1.1525459535,
				"element": "H" 
			},
			{
				"x": 3.3197239738,
				"y": 3.0681172637,
				"z": -2.6140451862,
				"element": "H" 
			},
			{
				"x": 4.7314555531,
				"y": 3.8868106549,
				"z": -4.5088309476,
				"element": "H" 
			},
			{
				"x": 3.5864873681,
				"y": 0.4453162554,
				"z": -6.816342244,
				"element": "H" 
			},
			{
				"x": 2.1899446255,
				"y": -0.3665638745,
				"z": -4.9292617731,
				"element": "H" 
			},
			{
				"x": -1.0802981091,
				"y": -3.6609154761,
				"z": 4.705724526,
				"element": "H" 
			},
			{
				"x": -2.413121933,
				"y": -4.4628679103,
				"z": 6.6637859328,
				"element": "H" 
			}
		],
		 "valence_orbital": [ 
			{
				"type": "occ",
				"energy": -0.2784,
				"method": "rhf"
			},
			{
				"type": "occ",
				"energy": -0.27241,
				"method": "rhf"
			},
			{
				"type": "occ",
				"energy": -0.27223,
				"method": "rhf"
			},
			{
				"type": "occ",
				"energy": -0.2459,
				"method": "rhf"
			},
			{
				"type": "occ",
				"energy": -0.24479,
				"method": "rhf"
			},
			{
				"type": "unocc",
				"energy": -0.08852,
				"method": "rhf"
			},
			{
				"type": "unocc",
				"energy": -0.02717,
				"method": "rhf"
			},
			{
				"type": "unocc",
				"energy": -0.02694,
				"method": "rhf"
			},
			{
				"type": "unocc",
				"energy": -0.02314,
				"method": "rhf"
			},
			{
				"type": "unocc",
				"energy": -0.02311,
				"method": "rhf"
			}
		],
		"cosmo_sigma_profile": { 
			"-0.025": 0.0,
			"-0.024": 0.0,
			"-0.023": 0.0,
			"-0.022": 0.0,
			"-0.021": 0.0,
			"-0.02": 0.0,
			"-0.019": 0.0,
			"-0.018": 0.0,
			"-0.017": 0.0,
			"-0.016": 0.0,
			"-0.015": 0.0,
			"-0.014": 0.0,
			"-0.013": 0.0,
			"-0.012": 0.0,
			"-0.011": 0.0,
			"-0.01": 0.0,
			"-0.009": 0.0,
			"-0.008": 4.63242292965,
			"-0.007": 17.471381195,
			"-0.006": 24.1888958522,
			"-0.005": 20.5461372283,
			"-0.004": 20.8257086866,
			"-0.003": 22.268041866,
			"-0.002": 24.5103627559,
			"-0.001": 32.8490542368,
			"0.0": 36.5232794575,
			"0.001": 50.4962304678,
			"0.002": 51.5841372317,
			"0.003": 33.1187386938,
			"0.004": 23.4885060868,
			"0.005": 15.0637194503,
			"0.006": 2.11643294839,
			"0.007": 3.76759299111,
			"0.008": 3.67704302106,
			"0.009": 3.91935268195,
			"0.01": 6.24397558781,
			"0.011": 4.8228550085,
			"0.012": 0.0,
			"0.013": 0.0,
			"0.014": 0.0,
			"0.015": 0.0,
			"0.016": 0.0,
			"0.017": 0.0,
			"0.018": 0.0,
			"0.019": 0.0,
			"0.02": 0.0,
			"0.021": 0.0,
			"0.022": 0.0,
			"0.023": 0.0,
			"0.024": 0.0,
			"0.025": 0.0
		}
	}
}
