{
	 "smiles": "[O-][N+](=O)C1=CC=C(OC2=C(C=C(C=C2)C(F)(F)F)[N+]([O-])=O)C=C1", 
	 "Tm": 365.15, 
	 "num_atms": 30, 
	 "gaussian": { 
		 "optdone": 1, 
		 "sigma_profile": "yes", 
		 "theory": "DFT", 
		 "functional": "B3LYP", 
		 "basiset": "6-31G**", 
		 "properties": { 
			 "R2extent": 10536.6062, 
			 "electric_dipole_moment_norm": 6.05024603301, 
			 "electric_quadrupole_moment_norm": 17.4744260338, 
			 "total_energy": -1284.52872917, 
			 "HOMO_LUMO_gap": 0.15354, 
			 "cosmo_polarized_energy": -15.57, 
			 "cosmo_cavitation_energy": 38.77, 
			 "cosmo_dispersion_energy": -26.59, 
			 "cosmo_repulsion_energy": 1.94, 
			 "cosmo_total_nonelectrostatic_energy": 14.13, 
			 "SMD_solvation_energy": 12.35 
		},
		"coords": [
			{
				"x": -4.9288390816,
				"y": -0.6515536582,
				"z": 1.6277726731,
				"element": "O" 
			},
			{
				"x": -4.3055347329,
				"y": -1.5837376276,
				"z": 1.1190939083,
				"element": "N" 
			},
			{
				"x": -4.7511984022,
				"y": -2.7197368472,
				"z": 0.9564802796,
				"element": "O" 
			},
			{
				"x": -2.9316977865,
				"y": -1.3229388259,
				"z": 0.6772792102,
				"element": "C" 
			},
			{
				"x": -2.1964275057,
				"y": -2.3566772312,
				"z": 0.0940603383,
				"element": "C" 
			},
			{
				"x": -0.8965680934,
				"y": -2.1074947899,
				"z": -0.3221485328,
				"element": "C" 
			},
			{
				"x": -0.3505091128,
				"y": -0.8316139623,
				"z": -0.1486054948,
				"element": "C" 
			},
			{
				"x": 0.9663176515,
				"y": -0.6892571902,
				"z": -0.5306230471,
				"element": "O" 
			},
			{
				"x": 1.5213658219,
				"y": 0.5411793865,
				"z": -0.7505510002,
				"element": "C" 
			},
			{
				"x": 1.1421998192,
				"y": 1.4297035677,
				"z": -1.7769369128,
				"element": "C" 
			},
			{
				"x": 1.8049369746,
				"y": 2.6467321125,
				"z": -1.9400100265,
				"element": "C" 
			},
			{
				"x": 2.8659861835,
				"y": 2.981656688,
				"z": -1.1070670388,
				"element": "C" 
			},
			{
				"x": 3.2667147168,
				"y": 2.0971930771,
				"z": -0.0999272517,
				"element": "C" 
			},
			{
				"x": 2.592444902,
				"y": 0.8954893849,
				"z": 0.0767473141,
				"element": "C" 
			},
			{
				"x": 3.5580292308,
				"y": 4.312855813,
				"z": -1.2554528688,
				"element": "C" 
			},
			{
				"x": 3.4038705724,
				"y": 4.8223610024,
				"z": -2.4930440112,
				"element": "F" 
			},
			{
				"x": 3.0672990331,
				"y": 5.2188187636,
				"z": -0.3816938864,
				"element": "F" 
			},
			{
				"x": 4.8815259567,
				"y": 4.2051951488,
				"z": -1.0113939213,
				"element": "F" 
			},
			{
				"x": 0.0822554429,
				"y": 1.119216567,
				"z": -2.7526257382,
				"element": "N" 
			},
			{
				"x": -0.2617946511,
				"y": -0.0533778721,
				"z": -2.8748502033,
				"element": "O" 
			},
			{
				"x": -0.3734614201,
				"y": 2.0591620656,
				"z": -3.4012036954,
				"element": "O" 
			},
			{
				"x": -1.0880417716,
				"y": 0.1989902868,
				"z": 0.4421266555,
				"element": "C" 
			},
			{
				"x": -2.3934742951,
				"y": -0.0505484525,
				"z": 0.8546622663,
				"element": "C" 
			},
			{
				"x": -2.6535113928,
				"y": -3.330291889,
				"z": -0.0292032405,
				"element": "H" 
			},
			{
				"x": -0.2950399044,
				"y": -2.8780783592,
				"z": -0.7901075482,
				"element": "H" 
			},
			{
				"x": 1.4824740141,
				"y": 3.3060641455,
				"z": -2.7354113892,
				"element": "H" 
			},
			{
				"x": 4.102398577,
				"y": 2.3503983928,
				"z": 0.5433971321,
				"element": "H" 
			},
			{
				"x": 2.8787933501,
				"y": 0.1985995719,
				"z": 0.8565541083,
				"element": "H" 
			},
			{
				"x": -0.6506490598,
				"y": 1.1801760357,
				"z": 0.5882418212,
				"element": "H" 
			},
			{
				"x": -2.9956650367,
				"y": 0.7213146955,
				"z": 1.3171401,
				"element": "H" 
			}
		],
		 "valence_orbital": [ 
			{
				"type": "occ",
				"energy": -0.30601,
				"method": "rhf"
			},
			{
				"type": "occ",
				"energy": -0.30017,
				"method": "rhf"
			},
			{
				"type": "occ",
				"energy": -0.2917,
				"method": "rhf"
			},
			{
				"type": "occ",
				"energy": -0.28883,
				"method": "rhf"
			},
			{
				"type": "occ",
				"energy": -0.26607,
				"method": "rhf"
			},
			{
				"type": "unocc",
				"energy": -0.11253,
				"method": "rhf"
			},
			{
				"type": "unocc",
				"energy": -0.0895,
				"method": "rhf"
			},
			{
				"type": "unocc",
				"energy": -0.0621,
				"method": "rhf"
			},
			{
				"type": "unocc",
				"energy": -0.0387,
				"method": "rhf"
			},
			{
				"type": "unocc",
				"energy": -0.03324,
				"method": "rhf"
			}
		],
		"cosmo_sigma_profile": { 
			"-0.025": 0.0,
			"-0.024": 0.0,
			"-0.023": 0.0,
			"-0.022": 0.0,
			"-0.021": 0.0,
			"-0.02": 0.0,
			"-0.019": 0.0,
			"-0.018": 0.0,
			"-0.017": 0.0,
			"-0.016": 0.0,
			"-0.015": 0.0,
			"-0.014": 0.0,
			"-0.013": 0.0,
			"-0.012": 0.0,
			"-0.011": 0.0,
			"-0.01": 0.13732547217,
			"-0.009": 4.19190450569,
			"-0.008": 12.0151963691,
			"-0.007": 14.3207599762,
			"-0.006": 15.4062027698,
			"-0.005": 15.370046141,
			"-0.004": 15.7419437079,
			"-0.003": 18.5746941207,
			"-0.002": 24.8489202666,
			"-0.001": 28.1898788223,
			"0.0": 25.1673221184,
			"0.001": 22.1486710782,
			"0.002": 30.6839931512,
			"0.003": 19.7271367308,
			"0.004": 8.13148602556,
			"0.005": 7.86455745939,
			"0.006": 10.7542666492,
			"0.007": 15.0946013989,
			"0.008": 13.0874667944,
			"0.009": 7.84318381074,
			"0.01": 3.48687112792,
			"0.011": 0.294396156024,
			"0.012": 0.0,
			"0.013": 0.0,
			"0.014": 0.0,
			"0.015": 0.0,
			"0.016": 0.0,
			"0.017": 0.0,
			"0.018": 0.0,
			"0.019": 0.0,
			"0.02": 0.0,
			"0.021": 0.0,
			"0.022": 0.0,
			"0.023": 0.0,
			"0.024": 0.0,
			"0.025": 0.0
		}
	}
}
