{
	 "smiles": "CCCCCCCCCCBr", 
	 "Tm": 243.65, 
	 "num_atms": 32, 
	 "gaussian": { 
		 "optdone": 1, 
		 "sigma_profile": "yes", 
		 "theory": "DFT", 
		 "functional": "B3LYP", 
		 "basiset": "6-31G**", 
		 "properties": { 
			 "R2extent": 7055.2282, 
			 "electric_dipole_moment_norm": 2.40170399508, 
			 "electric_quadrupole_moment_norm": 12.6426485746, 
			 "total_energy": -2965.15914864, 
			 "HOMO_LUMO_gap": 0.26999, 
			 "cosmo_polarized_energy": -3.97, 
			 "cosmo_cavitation_energy": 34.6, 
			 "cosmo_dispersion_energy": -23.8, 
			 "cosmo_repulsion_energy": 1.99, 
			 "cosmo_total_nonelectrostatic_energy": 12.8, 
			 "SMD_solvation_energy": 3.58 
		},
		"coords": [
			{
				"x": 1.8814984,
				"y": -1.6726595904,
				"z": -2.051471455,
				"element": "C" 
			},
			{
				"x": 0.737232455,
				"y": -1.3931623054,
				"z": -1.0713606796,
				"element": "C" 
			},
			{
				"x": 1.2311416249,
				"y": -0.9672883929,
				"z": 0.3183420255,
				"element": "C" 
			},
			{
				"x": 0.1199805971,
				"y": -0.7635268786,
				"z": 1.363610661,
				"element": "C" 
			},
			{
				"x": -0.8862701568,
				"y": 0.3641291301,
				"z": 1.070288671,
				"element": "C" 
			},
			{
				"x": -0.2669379224,
				"y": 1.7694925982,
				"z": 1.0348253867,
				"element": "C" 
			},
			{
				"x": -1.293261236,
				"y": 2.9127714185,
				"z": 0.941189591,
				"element": "C" 
			},
			{
				"x": -2.1671782951,
				"y": 2.9298910577,
				"z": -0.3277418647,
				"element": "C" 
			},
			{
				"x": -1.412474434,
				"y": 3.0458743711,
				"z": -1.667901187,
				"element": "C" 
			},
			{
				"x": -0.6493552882,
				"y": 4.3563078399,
				"z": -1.8003016645,
				"element": "C" 
			},
			{
				"x": 0.2358852226,
				"y": 4.5101003951,
				"z": -3.5698097293,
				"element": "Br" 
			},
			{
				"x": 2.5310640088,
				"y": -2.4750717849,
				"z": -1.6831820416,
				"element": "H" 
			},
			{
				"x": 1.5038812697,
				"y": -1.9745156171,
				"z": -3.0338650443,
				"element": "H" 
			},
			{
				"x": 2.5059656521,
				"y": -0.7834868214,
				"z": -2.1952052273,
				"element": "H" 
			},
			{
				"x": 0.1114744566,
				"y": -2.2910605034,
				"z": -0.9716949347,
				"element": "H" 
			},
			{
				"x": 0.0860584377,
				"y": -0.6162954193,
				"z": -1.4924857666,
				"element": "H" 
			},
			{
				"x": 1.9205686444,
				"y": -1.7351115861,
				"z": 0.6953318823,
				"element": "H" 
			},
			{
				"x": 1.8314270673,
				"y": -0.0522088819,
				"z": 0.2240152499,
				"element": "H" 
			},
			{
				"x": 0.5867148186,
				"y": -0.5704887358,
				"z": 2.3393396662,
				"element": "H" 
			},
			{
				"x": -0.4335141802,
				"y": -1.7059956775,
				"z": 1.4749178579,
				"element": "H" 
			},
			{
				"x": -1.4045400793,
				"y": 0.1578975612,
				"z": 0.125544995,
				"element": "H" 
			},
			{
				"x": -1.663299732,
				"y": 0.3429731546,
				"z": 1.8471516244,
				"element": "H" 
			},
			{
				"x": 0.4469016877,
				"y": 1.8428863795,
				"z": 0.2044078681,
				"element": "H" 
			},
			{
				"x": 0.3259435962,
				"y": 1.9160583221,
				"z": 1.9480895379,
				"element": "H" 
			},
			{
				"x": -0.7647947193,
				"y": 3.8704524017,
				"z": 1.0355381494,
				"element": "H" 
			},
			{
				"x": -1.9613091265,
				"y": 2.8585853987,
				"z": 1.8112814256,
				"element": "H" 
			},
			{
				"x": -2.8808027424,
				"y": 3.7610793354,
				"z": -0.2489438822,
				"element": "H" 
			},
			{
				"x": -2.7762438263,
				"y": 2.0188133764,
				"z": -0.364454786,
				"element": "H" 
			},
			{
				"x": -2.1326455053,
				"y": 2.9723723398,
				"z": -2.4898412261,
				"element": "H" 
			},
			{
				"x": -0.7165734217,
				"y": 2.2090520779,
				"z": -1.7913971793,
				"element": "H" 
			},
			{
				"x": 0.1583983889,
				"y": 4.4558567416,
				"z": -1.0763745999,
				"element": "H" 
			},
			{
				"x": -1.3044356619,
				"y": 5.2257782953,
				"z": -1.7323433237,
				"element": "H" 
			}
		],
		 "valence_orbital": [ 
			{
				"type": "occ",
				"energy": -0.31084,
				"method": "rhf"
			},
			{
				"type": "occ",
				"energy": -0.30821,
				"method": "rhf"
			},
			{
				"type": "occ",
				"energy": -0.30735,
				"method": "rhf"
			},
			{
				"type": "occ",
				"energy": -0.26737,
				"method": "rhf"
			},
			{
				"type": "occ",
				"energy": -0.26676,
				"method": "rhf"
			},
			{
				"type": "unocc",
				"energy": 0.00323,
				"method": "rhf"
			},
			{
				"type": "unocc",
				"energy": 0.06589,
				"method": "rhf"
			},
			{
				"type": "unocc",
				"energy": 0.09251,
				"method": "rhf"
			},
			{
				"type": "unocc",
				"energy": 0.09929,
				"method": "rhf"
			},
			{
				"type": "unocc",
				"energy": 0.10339,
				"method": "rhf"
			}
		],
		"cosmo_sigma_profile": { 
			"-0.025": 0.0,
			"-0.024": 0.0,
			"-0.023": 0.0,
			"-0.022": 0.0,
			"-0.021": 0.0,
			"-0.02": 0.0,
			"-0.019": 0.0,
			"-0.018": 0.0,
			"-0.017": 0.0,
			"-0.016": 0.0,
			"-0.015": 0.0,
			"-0.014": 0.0,
			"-0.013": 0.0,
			"-0.012": 0.0,
			"-0.011": 0.0,
			"-0.01": 0.0,
			"-0.009": 0.0,
			"-0.008": 0.0,
			"-0.007": 0.406239068406,
			"-0.006": 3.46240429336,
			"-0.005": 5.1169798285,
			"-0.004": 7.30844936921,
			"-0.003": 16.8811968357,
			"-0.002": 39.6804192381,
			"-0.001": 50.3967145833,
			"0.0": 51.4902660952,
			"0.001": 42.2469489138,
			"0.002": 19.53716448,
			"0.003": 5.02479962771,
			"0.004": 4.2472451632,
			"0.005": 5.77556114663,
			"0.006": 9.68125796884,
			"0.007": 7.97449844847,
			"0.008": 0.0688637656663,
			"0.009": 0.0,
			"0.01": 0.0,
			"0.011": 0.0,
			"0.012": 0.0,
			"0.013": 0.0,
			"0.014": 0.0,
			"0.015": 0.0,
			"0.016": 0.0,
			"0.017": 0.0,
			"0.018": 0.0,
			"0.019": 0.0,
			"0.02": 0.0,
			"0.021": 0.0,
			"0.022": 0.0,
			"0.023": 0.0,
			"0.024": 0.0,
			"0.025": 0.0
		}
	}
}
