{
	 "smiles": "NC(=O)C1(CCCCC1)N1C(=O)C2=C(C1=O)C(Cl)=CC=C2", 
	 "Tm": 467.15, 
	 "num_atms": 36, 
	 "gaussian": { 
		 "optdone": 1, 
		 "sigma_profile": "yes", 
		 "theory": "DFT", 
		 "functional": "B3LYP", 
		 "basiset": "6-31G**", 
		 "properties": { 
			 "R2extent": 6837.6993, 
			 "electric_dipole_moment_norm": 4.34408486335, 
			 "electric_quadrupole_moment_norm": 24.136963576, 
			 "total_energy": -1376.04585064, 
			 "HOMO_LUMO_gap": 0.14372, 
			 "cosmo_polarized_energy": -16.19, 
			 "cosmo_cavitation_energy": 38.61, 
			 "cosmo_dispersion_energy": -27.62, 
			 "cosmo_repulsion_energy": 2.09, 
			 "cosmo_total_nonelectrostatic_energy": 13.08, 
			 "SMD_solvation_energy": 7.23 
		},
		"coords": [
			{
				"x": -0.4805579025,
				"y": 3.0341061205,
				"z": -0.7116115402,
				"element": "N" 
			},
			{
				"x": 0.7330197791,
				"y": 2.4550565747,
				"z": -0.5003483407,
				"element": "C" 
			},
			{
				"x": 1.7880740609,
				"y": 3.0242271874,
				"z": -0.7371735429,
				"element": "O" 
			},
			{
				"x": 0.6911991102,
				"y": 1.0128558047,
				"z": 0.102336944,
				"element": "C" 
			},
			{
				"x": 2.1375672227,
				"y": 0.5181048794,
				"z": 0.3075430941,
				"element": "C" 
			},
			{
				"x": 2.2339214993,
				"y": -0.910014254,
				"z": 0.8868795321,
				"element": "C" 
			},
			{
				"x": 1.0512607433,
				"y": -1.2584020376,
				"z": 1.8148838623,
				"element": "C" 
			},
			{
				"x": 0.5488353848,
				"y": 0.0050446208,
				"z": 2.5191228641,
				"element": "C" 
			},
			{
				"x": 0.0184412186,
				"y": 1.0621928973,
				"z": 1.5183712858,
				"element": "C" 
			},
			{
				"x": -0.075741139,
				"y": 0.1237098624,
				"z": -0.8509614361,
				"element": "N" 
			},
			{
				"x": 0.504826509,
				"y": -0.6400974155,
				"z": -1.9009682258,
				"element": "C" 
			},
			{
				"x": 1.6760810743,
				"y": -0.7137074111,
				"z": -2.2041827857,
				"element": "O" 
			},
			{
				"x": -0.6174669687,
				"y": -1.3399314333,
				"z": -2.5886205518,
				"element": "C" 
			},
			{
				"x": -1.8145683073,
				"y": -0.9229509994,
				"z": -2.0113795667,
				"element": "C" 
			},
			{
				"x": -1.4829651564,
				"y": 0.0819220255,
				"z": -0.9612464083,
				"element": "C" 
			},
			{
				"x": -2.2784076497,
				"y": 0.7780750136,
				"z": -0.3502070638,
				"element": "O" 
			},
			{
				"x": -3.0239194523,
				"y": -1.4208551334,
				"z": -2.486552598,
				"element": "C" 
			},
			{
				"x": -4.5602822185,
				"y": -0.9422576623,
				"z": -1.8154504119,
				"element": "Cl" 
			},
			{
				"x": -2.9950366686,
				"y": -2.3473179519,
				"z": -3.5393486979,
				"element": "C" 
			},
			{
				"x": -1.781582913,
				"y": -2.7497413469,
				"z": -4.1041558487,
				"element": "C" 
			},
			{
				"x": -0.5622252451,
				"y": -2.2446734385,
				"z": -3.6356953078,
				"element": "C" 
			},
			{
				"x": -1.3489135494,
				"y": 2.5733647257,
				"z": -0.4718920602,
				"element": "H" 
			},
			{
				"x": -0.4866714513,
				"y": 3.9777553915,
				"z": -1.0680064519,
				"element": "H" 
			},
			{
				"x": 2.5661991528,
				"y": 1.2361955424,
				"z": 1.0133176286,
				"element": "H" 
			},
			{
				"x": 2.7163292622,
				"y": 0.6129912206,
				"z": -0.6071667005,
				"element": "H" 
			},
			{
				"x": 3.1728135656,
				"y": -0.9791860698,
				"z": 1.4489537402,
				"element": "H" 
			},
			{
				"x": 2.3102130972,
				"y": -1.6394468211,
				"z": 0.0757996441,
				"element": "H" 
			},
			{
				"x": 1.3497831463,
				"y": -2.01514612,
				"z": 2.5487814151,
				"element": "H" 
			},
			{
				"x": 0.2306666595,
				"y": -1.7013732871,
				"z": 1.2363553528,
				"element": "H" 
			},
			{
				"x": -0.2445628521,
				"y": -0.2352081149,
				"z": 3.2353975491,
				"element": "H" 
			},
			{
				"x": 1.3726846348,
				"y": 0.4287996186,
				"z": 3.1070835608,
				"element": "H" 
			},
			{
				"x": -1.0622646904,
				"y": 0.9837010783,
				"z": 1.4234571482,
				"element": "H" 
			},
			{
				"x": 0.2156178777,
				"y": 2.0617268188,
				"z": 1.9201879409,
				"element": "H" 
			},
			{
				"x": -3.9314038884,
				"y": -2.7471560998,
				"z": -3.9127905926,
				"element": "H" 
			},
			{
				"x": -1.7945572713,
				"y": -3.4649530678,
				"z": -4.9208149148,
				"element": "H" 
			},
			{
				"x": 0.3885933256,
				"y": -2.5398107172,
				"z": -4.0657985156,
				"element": "H" 
			}
		],
		 "valence_orbital": [ 
			{
				"type": "occ",
				"energy": -0.2842,
				"method": "rhf"
			},
			{
				"type": "occ",
				"energy": -0.27455,
				"method": "rhf"
			},
			{
				"type": "occ",
				"energy": -0.27246,
				"method": "rhf"
			},
			{
				"type": "occ",
				"energy": -0.26229,
				"method": "rhf"
			},
			{
				"type": "occ",
				"energy": -0.24024,
				"method": "rhf"
			},
			{
				"type": "unocc",
				"energy": -0.09652,
				"method": "rhf"
			},
			{
				"type": "unocc",
				"energy": -0.05689,
				"method": "rhf"
			},
			{
				"type": "unocc",
				"energy": 0.01063,
				"method": "rhf"
			},
			{
				"type": "unocc",
				"energy": 0.01597,
				"method": "rhf"
			},
			{
				"type": "unocc",
				"energy": 0.02691,
				"method": "rhf"
			}
		],
		"cosmo_sigma_profile": { 
			"-0.025": 0.0,
			"-0.024": 0.0,
			"-0.023": 0.0,
			"-0.022": 0.0,
			"-0.021": 0.0,
			"-0.02": 0.0,
			"-0.019": 0.0,
			"-0.018": 0.0,
			"-0.017": 0.0,
			"-0.016": 0.0,
			"-0.015": 0.0244585625074,
			"-0.014": 0.733607057616,
			"-0.013": 1.16205786947,
			"-0.012": 0.817532718147,
			"-0.011": 1.39289458129,
			"-0.01": 1.00207535,
			"-0.009": 2.34526929033,
			"-0.008": 7.54816374818,
			"-0.007": 9.61873538469,
			"-0.006": 8.22970982813,
			"-0.005": 10.4991075558,
			"-0.004": 16.0783701992,
			"-0.003": 25.3706041036,
			"-0.002": 34.2997695864,
			"-0.001": 41.2309494078,
			"0.0": 35.3846965418,
			"0.001": 29.2577135101,
			"0.002": 13.2356961,
			"0.003": 12.9188096135,
			"0.004": 10.1293500729,
			"0.005": 5.88009998043,
			"0.006": 4.54026483057,
			"0.007": 4.7999002676,
			"0.008": 4.66226784549,
			"0.009": 4.69816458161,
			"0.01": 7.41145577975,
			"0.011": 4.31377407768,
			"0.012": 1.75487475641,
			"0.013": 4.94482281719,
			"0.014": 3.52772187526,
			"0.015": 0.100180851413,
			"0.016": 0.0,
			"0.017": 0.0,
			"0.018": 0.0,
			"0.019": 0.0,
			"0.02": 0.0,
			"0.021": 0.0,
			"0.022": 0.0,
			"0.023": 0.0,
			"0.024": 0.0,
			"0.025": 0.0
		}
	}
}
