{
	 "smiles": "CC1=CC=CC=C1N1CSC2=NN=C(N2C1)C1=CN=CC=C1", 
	 "Tm": 475.15, 
	 "num_atms": 37, 
	 "gaussian": { 
		 "optdone": 1, 
		 "sigma_profile": "yes", 
		 "theory": "DFT", 
		 "functional": "B3LYP", 
		 "basiset": "6-31G**", 
		 "properties": { 
			 "R2extent": 8483.0612, 
			 "electric_dipole_moment_norm": 5.51693472138, 
			 "electric_quadrupole_moment_norm": 30.953756201, 
			 "total_energy": -1290.64779617, 
			 "HOMO_LUMO_gap": 0.17529, 
			 "cosmo_polarized_energy": -22.26, 
			 "cosmo_cavitation_energy": 41.24, 
			 "cosmo_dispersion_energy": -29.29, 
			 "cosmo_repulsion_energy": 2.15, 
			 "cosmo_total_nonelectrostatic_energy": 14.09, 
			 "SMD_solvation_energy": 2.56 
		},
		"coords": [
			{
				"x": -1.4952995282,
				"y": 1.1208522445,
				"z": 2.8669809118,
				"element": "C" 
			},
			{
				"x": -0.2040864179,
				"y": 1.185689831,
				"z": 2.0870688234,
				"element": "C" 
			},
			{
				"x": 0.8069165407,
				"y": 2.0724537456,
				"z": 2.4776235043,
				"element": "C" 
			},
			{
				"x": 1.9978807067,
				"y": 2.1914064498,
				"z": 1.7621071612,
				"element": "C" 
			},
			{
				"x": 2.2001396426,
				"y": 1.4092004837,
				"z": 0.6265713757,
				"element": "C" 
			},
			{
				"x": 1.2166479426,
				"y": 0.5058898332,
				"z": 0.22540527,
				"element": "C" 
			},
			{
				"x": 0.0187660336,
				"y": 0.3888876156,
				"z": 0.9429869669,
				"element": "C" 
			},
			{
				"x": -1.0214571377,
				"y": -0.5089965473,
				"z": 0.5174424535,
				"element": "N" 
			},
			{
				"x": -1.1984369479,
				"y": -1.7324915831,
				"z": 1.2541366413,
				"element": "C" 
			},
			{
				"x": 0.0601341498,
				"y": -3.0660570265,
				"z": 0.8407728781,
				"element": "S" 
			},
			{
				"x": -0.0014271356,
				"y": -2.8552324432,
				"z": -0.9066836576,
				"element": "C" 
			},
			{
				"x": 0.4381894349,
				"y": -3.7320930746,
				"z": -1.7803103948,
				"element": "N" 
			},
			{
				"x": 0.2806572509,
				"y": -3.1713179471,
				"z": -3.0283197693,
				"element": "N" 
			},
			{
				"x": -0.2481351917,
				"y": -1.9744370001,
				"z": -2.8797306577,
				"element": "C" 
			},
			{
				"x": -0.4315614748,
				"y": -1.7032014809,
				"z": -1.5320269785,
				"element": "N" 
			},
			{
				"x": -1.2712078962,
				"y": -0.6561716208,
				"z": -0.8912735393,
				"element": "C" 
			},
			{
				"x": -0.5849412358,
				"y": -1.0882390595,
				"z": -4.0011709556,
				"element": "C" 
			},
			{
				"x": -0.3759404825,
				"y": 0.3005315016,
				"z": -3.9758819966,
				"element": "C" 
			},
			{
				"x": -0.6586608347,
				"y": 1.1189138845,
				"z": -4.9931756014,
				"element": "N" 
			},
			{
				"x": -1.150684789,
				"y": 0.5689424988,
				"z": -6.1097957082,
				"element": "C" 
			},
			{
				"x": -1.3626288238,
				"y": -0.8036002152,
				"z": -6.2614100146,
				"element": "C" 
			},
			{
				"x": -1.0787118228,
				"y": -1.6446068189,
				"z": -5.1915559635,
				"element": "C" 
			},
			{
				"x": -1.664831032,
				"y": 2.0546076267,
				"z": 3.4097038466,
				"element": "H" 
			},
			{
				"x": -2.3472055205,
				"y": 0.9409366698,
				"z": 2.2055449471,
				"element": "H" 
			},
			{
				"x": -1.487981509,
				"y": 0.3157522707,
				"z": 3.6134838331,
				"element": "H" 
			},
			{
				"x": 0.6422847843,
				"y": 2.6965333594,
				"z": 3.3523794128,
				"element": "H" 
			},
			{
				"x": 2.7579472366,
				"y": 2.8957782857,
				"z": 2.0866171844,
				"element": "H" 
			},
			{
				"x": 3.1222314312,
				"y": 1.4881578869,
				"z": 0.0587909438,
				"element": "H" 
			},
			{
				"x": 1.3865883146,
				"y": -0.1237402976,
				"z": -0.6412407009,
				"element": "H" 
			},
			{
				"x": -2.1936960907,
				"y": -2.1403363386,
				"z": 1.057962375,
				"element": "H" 
			},
			{
				"x": -1.0835300772,
				"y": -1.5642842673,
				"z": 2.323823436,
				"element": "H" 
			},
			{
				"x": -1.0954591696,
				"y": 0.2941981931,
				"z": -1.3898994527,
				"element": "H" 
			},
			{
				"x": -2.3202423518,
				"y": -0.9407830548,
				"z": -1.0396167779,
				"element": "H" 
			},
			{
				"x": 0.0712381978,
				"y": 0.773187666,
				"z": -3.1028037949,
				"element": "H" 
			},
			{
				"x": -1.3777411494,
				"y": 1.2558335938,
				"z": -6.9229428917,
				"element": "H" 
			},
			{
				"x": -1.7472237877,
				"y": -1.1993654343,
				"z": -7.1960394773,
				"element": "H" 
			},
			{
				"x": -1.2242312599,
				"y": -2.7177994306,
				"z": -5.2547236322,
				"element": "H" 
			}
		],
		 "valence_orbital": [ 
			{
				"type": "occ",
				"energy": -0.26418,
				"method": "rhf"
			},
			{
				"type": "occ",
				"energy": -0.25599,
				"method": "rhf"
			},
			{
				"type": "occ",
				"energy": -0.25353,
				"method": "rhf"
			},
			{
				"type": "occ",
				"energy": -0.23754,
				"method": "rhf"
			},
			{
				"type": "occ",
				"energy": -0.22026,
				"method": "rhf"
			},
			{
				"type": "unocc",
				"energy": -0.04497,
				"method": "rhf"
			},
			{
				"type": "unocc",
				"energy": -0.03185,
				"method": "rhf"
			},
			{
				"type": "unocc",
				"energy": -0.01762,
				"method": "rhf"
			},
			{
				"type": "unocc",
				"energy": -0.01391,
				"method": "rhf"
			},
			{
				"type": "unocc",
				"energy": 0.00875,
				"method": "rhf"
			}
		],
		"cosmo_sigma_profile": { 
			"-0.025": 0.0,
			"-0.024": 0.0,
			"-0.023": 0.0,
			"-0.022": 0.0,
			"-0.021": 0.0,
			"-0.02": 0.0,
			"-0.019": 0.0,
			"-0.018": 0.0,
			"-0.017": 0.0,
			"-0.016": 0.0,
			"-0.015": 0.0,
			"-0.014": 0.0,
			"-0.013": 0.0,
			"-0.012": 0.0,
			"-0.011": 0.0127368454832,
			"-0.01": 1.27940056951,
			"-0.009": 6.16536952097,
			"-0.008": 11.2969431705,
			"-0.007": 14.863320373,
			"-0.006": 20.9604183117,
			"-0.005": 25.4184428978,
			"-0.004": 23.6302870618,
			"-0.003": 20.9212096092,
			"-0.002": 21.00027658,
			"-0.001": 21.9398799512,
			"0.0": 22.4109725394,
			"0.001": 25.5768149642,
			"0.002": 22.5193950188,
			"0.003": 15.4529487301,
			"0.004": 15.0612744753,
			"0.005": 16.0827706963,
			"0.006": 11.4213672974,
			"0.007": 5.94200927501,
			"0.008": 3.65102140751,
			"0.009": 2.63498985618,
			"0.01": 3.04309704899,
			"0.011": 3.66200004981,
			"0.012": 3.60378015116,
			"0.013": 4.38999130038,
			"0.014": 3.72434722889,
			"0.015": 2.88185656872,
			"0.016": 2.69912015551,
			"0.017": 0.199972758044,
			"0.018": 0.0,
			"0.019": 0.0,
			"0.02": 0.0,
			"0.021": 0.0,
			"0.022": 0.0,
			"0.023": 0.0,
			"0.024": 0.0,
			"0.025": 0.0
		}
	}
}
