{
	 "smiles": "CC1=NC(=NC=C1)C1=CC=C(N)C=C1", 
	 "Tm": 392.15, 
	 "num_atms": 25, 
	 "gaussian": { 
		 "optdone": 1, 
		 "sigma_profile": "yes", 
		 "theory": "DFT", 
		 "functional": "B3LYP", 
		 "basiset": "6-31G**", 
		 "properties": { 
			 "R2extent": 3716.9083, 
			 "electric_dipole_moment_norm": 1.23089608822, 
			 "electric_quadrupole_moment_norm": 18.3960749955, 
			 "total_energy": -590.073747001, 
			 "HOMO_LUMO_gap": 0.15994, 
			 "cosmo_polarized_energy": -12.92, 
			 "cosmo_cavitation_energy": 29.09, 
			 "cosmo_dispersion_energy": -21.63, 
			 "cosmo_repulsion_energy": 1.7, 
			 "cosmo_total_nonelectrostatic_energy": 9.16, 
			 "SMD_solvation_energy": 2.97 
		},
		"coords": [
			{
				"x": 3.7921413594,
				"y": -1.5435304489,
				"z": 1.8868740048,
				"element": "C" 
			},
			{
				"x": 2.9414810185,
				"y": -1.7024167012,
				"z": 0.6526031629,
				"element": "C" 
			},
			{
				"x": 1.9101998621,
				"y": -0.8652127583,
				"z": 0.5055497271,
				"element": "N" 
			},
			{
				"x": 1.1391796147,
				"y": -0.9960483638,
				"z": -0.5949970414,
				"element": "C" 
			},
			{
				"x": 1.3301724867,
				"y": -1.9112735872,
				"z": -1.5651210787,
				"element": "N" 
			},
			{
				"x": 2.3636698875,
				"y": -2.7407196173,
				"z": -1.4053089393,
				"element": "C" 
			},
			{
				"x": 3.2146060507,
				"y": -2.6868643426,
				"z": -0.3075232994,
				"element": "C" 
			},
			{
				"x": 0.002644723,
				"y": -0.0660117464,
				"z": -0.7447674043,
				"element": "C" 
			},
			{
				"x": -0.846086476,
				"y": -0.1389527367,
				"z": -1.8627427847,
				"element": "C" 
			},
			{
				"x": -1.9139830452,
				"y": 0.7341836891,
				"z": -2.0100172786,
				"element": "C" 
			},
			{
				"x": -2.1747057653,
				"y": 1.7189305092,
				"z": -1.0379550636,
				"element": "C" 
			},
			{
				"x": -3.2743642813,
				"y": 2.5611196859,
				"z": -1.1561732918,
				"element": "N" 
			},
			{
				"x": -1.3269586271,
				"y": 1.794287692,
				"z": 0.0836436246,
				"element": "C" 
			},
			{
				"x": -0.2609635746,
				"y": 0.9174446354,
				"z": 0.2239059964,
				"element": "C" 
			},
			{
				"x": 3.4098924962,
				"y": -0.7239378815,
				"z": 2.4969634736,
				"element": "H" 
			},
			{
				"x": 3.7908486293,
				"y": -2.4623590013,
				"z": 2.4840537224,
				"element": "H" 
			},
			{
				"x": 4.8339671024,
				"y": -1.3330828865,
				"z": 1.6200610921,
				"element": "H" 
			},
			{
				"x": 2.5150449026,
				"y": -3.4796639768,
				"z": -2.1917008203,
				"element": "H" 
			},
			{
				"x": 4.0482760793,
				"y": -3.3728614839,
				"z": -0.2002356437,
				"element": "H" 
			},
			{
				"x": -0.6486067219,
				"y": -0.893846557,
				"z": -2.6155346189,
				"element": "H" 
			},
			{
				"x": -2.5609583953,
				"y": 0.6591072016,
				"z": -2.8808978244,
				"element": "H" 
			},
			{
				"x": -3.6351268461,
				"y": 2.6879497877,
				"z": -2.0910738234,
				"element": "H" 
			},
			{
				"x": -3.2267827162,
				"y": 3.4256090693,
				"z": -0.6359245429,
				"element": "H" 
			},
			{
				"x": -1.5158859817,
				"y": 2.5462835039,
				"z": 0.8461925316,
				"element": "H" 
			},
			{
				"x": 0.3899982182,
				"y": 0.9814663153,
				"z": 1.08852612,
				"element": "H" 
			}
		],
		 "valence_orbital": [ 
			{
				"type": "occ",
				"energy": -0.29103,
				"method": "rhf"
			},
			{
				"type": "occ",
				"energy": -0.26491,
				"method": "rhf"
			},
			{
				"type": "occ",
				"energy": -0.24193,
				"method": "rhf"
			},
			{
				"type": "occ",
				"energy": -0.2347,
				"method": "rhf"
			},
			{
				"type": "occ",
				"energy": -0.19433,
				"method": "rhf"
			},
			{
				"type": "unocc",
				"energy": -0.03439,
				"method": "rhf"
			},
			{
				"type": "unocc",
				"energy": -0.02352,
				"method": "rhf"
			},
			{
				"type": "unocc",
				"energy": 0.01212,
				"method": "rhf"
			},
			{
				"type": "unocc",
				"energy": 0.04585,
				"method": "rhf"
			},
			{
				"type": "unocc",
				"energy": 0.08142,
				"method": "rhf"
			}
		],
		"cosmo_sigma_profile": { 
			"-0.025": 0.0,
			"-0.024": 0.0,
			"-0.023": 0.0,
			"-0.022": 0.0,
			"-0.021": 0.0,
			"-0.02": 0.0,
			"-0.019": 0.0,
			"-0.018": 0.0,
			"-0.017": 0.0,
			"-0.016": 0.0,
			"-0.015": 0.0,
			"-0.014": 0.0,
			"-0.013": 1.21740336414,
			"-0.012": 2.85469491021,
			"-0.011": 2.28779956493,
			"-0.01": 3.90273814087,
			"-0.009": 2.59363818073,
			"-0.008": 2.92106923188,
			"-0.007": 6.36074036384,
			"-0.006": 9.71647116005,
			"-0.005": 13.6523853295,
			"-0.004": 15.7250923966,
			"-0.003": 16.1810681524,
			"-0.002": 13.9830661925,
			"-0.001": 16.0411357384,
			"0.0": 17.1368666562,
			"0.001": 17.2863673433,
			"0.002": 12.4927988936,
			"0.003": 12.4519686942,
			"0.004": 15.1774016061,
			"0.005": 16.859141782,
			"0.006": 13.6544720396,
			"0.007": 3.99721539917,
			"0.008": 3.99548751628,
			"0.009": 3.49432541132,
			"0.01": 3.35954231477,
			"0.011": 2.35492254074,
			"0.012": 1.71584666463,
			"0.013": 0.648445791316,
			"0.014": 0.135766260883,
			"0.015": 0.0,
			"0.016": 0.0,
			"0.017": 0.0,
			"0.018": 0.0,
			"0.019": 0.0,
			"0.02": 0.0,
			"0.021": 0.0,
			"0.022": 0.0,
			"0.023": 0.0,
			"0.024": 0.0,
			"0.025": 0.0
		}
	}
}
