{
	 "smiles": "NC1=CC(NC(=O)C2CCCCC2)=C(F)C=C1", 
	 "Tm": 431.15, 
	 "num_atms": 34, 
	 "gaussian": { 
		 "optdone": 1, 
		 "sigma_profile": "yes", 
		 "theory": "DFT", 
		 "functional": "B3LYP", 
		 "basiset": "6-31G**", 
		 "properties": { 
			 "R2extent": 6452.1342, 
			 "electric_dipole_moment_norm": 1.28971518174, 
			 "electric_quadrupole_moment_norm": 18.6456333314, 
			 "total_energy": -790.234378197, 
			 "HOMO_LUMO_gap": 0.1835, 
			 "cosmo_polarized_energy": -13.42, 
			 "cosmo_cavitation_energy": 36.04, 
			 "cosmo_dispersion_energy": -26.25, 
			 "cosmo_repulsion_energy": 2.04, 
			 "cosmo_total_nonelectrostatic_energy": 11.83, 
			 "SMD_solvation_energy": 5.83 
		},
		"coords": [
			{
				"x": 2.4541560018,
				"y": 4.6620195868,
				"z": 0.2850177953,
				"element": "N" 
			},
			{
				"x": 1.3742395862,
				"y": 4.0468651433,
				"z": 0.9255965837,
				"element": "C" 
			},
			{
				"x": 1.1758125082,
				"y": 2.6625638799,
				"z": 0.7804646187,
				"element": "C" 
			},
			{
				"x": 0.1365459057,
				"y": 2.0241706481,
				"z": 1.4635587774,
				"element": "C" 
			},
			{
				"x": -0.1512002759,
				"y": 0.6507836775,
				"z": 1.3885070416,
				"element": "N" 
			},
			{
				"x": 0.4809824035,
				"y": -0.3199057361,
				"z": 0.6452832702,
				"element": "C" 
			},
			{
				"x": 1.4355672414,
				"y": -0.0993038232,
				"z": -0.0918864606,
				"element": "O" 
			},
			{
				"x": -0.1000765985,
				"y": -1.7250893701,
				"z": 0.8042919892,
				"element": "C" 
			},
			{
				"x": -0.6090394016,
				"y": -2.2379626753,
				"z": -0.560909235,
				"element": "C" 
			},
			{
				"x": -1.1055700175,
				"y": -3.6885699537,
				"z": -0.4768671713,
				"element": "C" 
			},
			{
				"x": -0.0284416222,
				"y": -4.6233649504,
				"z": 0.0926880583,
				"element": "C" 
			},
			{
				"x": 0.477356855,
				"y": -4.1236066259,
				"z": 1.4539004947,
				"element": "C" 
			},
			{
				"x": 0.9774895863,
				"y": -2.6740327525,
				"z": 1.3741242695,
				"element": "C" 
			},
			{
				"x": -0.6951615904,
				"y": 2.7946038601,
				"z": 2.2887732375,
				"element": "C" 
			},
			{
				"x": -1.7064194482,
				"y": 2.1528978346,
				"z": 2.946232381,
				"element": "F" 
			},
			{
				"x": -0.5166146745,
				"y": 4.1556247772,
				"z": 2.4414894278,
				"element": "C" 
			},
			{
				"x": 0.5216058803,
				"y": 4.7897283381,
				"z": 1.7585478309,
				"element": "C" 
			},
			{
				"x": 2.3354079797,
				"y": 5.6488164638,
				"z": 0.1015278771,
				"element": "H" 
			},
			{
				"x": 2.8012365206,
				"y": 4.1696052962,
				"z": -0.5266742991,
				"element": "H" 
			},
			{
				"x": 1.8197938957,
				"y": 2.0696112607,
				"z": 0.1451459728,
				"element": "H" 
			},
			{
				"x": -0.9335218507,
				"y": 0.3629287105,
				"z": 1.958585446,
				"element": "H" 
			},
			{
				"x": -0.9479821833,
				"y": -1.7010876439,
				"z": 1.5051178778,
				"element": "H" 
			},
			{
				"x": -1.407612073,
				"y": -1.5829316091,
				"z": -0.9304699901,
				"element": "H" 
			},
			{
				"x": 0.2177544182,
				"y": -2.162557826,
				"z": -1.277314756,
				"element": "H" 
			},
			{
				"x": -1.9984785187,
				"y": -3.7323499582,
				"z": 0.1634632284,
				"element": "H" 
			},
			{
				"x": -1.4205795292,
				"y": -4.029370193,
				"z": -1.4703240357,
				"element": "H" 
			},
			{
				"x": 0.8151811223,
				"y": -4.6722512206,
				"z": -0.6099777801,
				"element": "H" 
			},
			{
				"x": -0.4198290863,
				"y": -5.6436130732,
				"z": 0.1836120514,
				"element": "H" 
			},
			{
				"x": -0.3376245887,
				"y": -4.1888445519,
				"z": 2.1892643399,
				"element": "H" 
			},
			{
				"x": 1.2805839091,
				"y": -4.7716288365,
				"z": 1.8242755866,
				"element": "H" 
			},
			{
				"x": 1.8571626454,
				"y": -2.6132893626,
				"z": 0.7221997086,
				"element": "H" 
			},
			{
				"x": 1.2942066208,
				"y": -2.3252309948,
				"z": 2.3647040617,
				"element": "H" 
			},
			{
				"x": -1.1882190164,
				"y": 4.7085378829,
				"z": 3.0894553759,
				"element": "H" 
			},
			{
				"x": 0.6740873951,
				"y": 5.8584337972,
				"z": 1.878096426,
				"element": "H" 
			}
		],
		 "valence_orbital": [ 
			{
				"type": "occ",
				"energy": -0.29868,
				"method": "rhf"
			},
			{
				"type": "occ",
				"energy": -0.28533,
				"method": "rhf"
			},
			{
				"type": "occ",
				"energy": -0.24727,
				"method": "rhf"
			},
			{
				"type": "occ",
				"energy": -0.22706,
				"method": "rhf"
			},
			{
				"type": "occ",
				"energy": -0.19565,
				"method": "rhf"
			},
			{
				"type": "unocc",
				"energy": -0.01215,
				"method": "rhf"
			},
			{
				"type": "unocc",
				"energy": 0.01782,
				"method": "rhf"
			},
			{
				"type": "unocc",
				"energy": 0.04976,
				"method": "rhf"
			},
			{
				"type": "unocc",
				"energy": 0.07401,
				"method": "rhf"
			},
			{
				"type": "unocc",
				"energy": 0.08242,
				"method": "rhf"
			}
		],
		"cosmo_sigma_profile": { 
			"-0.025": 0.0,
			"-0.024": 0.0,
			"-0.023": 0.0,
			"-0.022": 0.0,
			"-0.021": 0.0,
			"-0.02": 0.0,
			"-0.019": 0.0,
			"-0.018": 0.0,
			"-0.017": 0.0,
			"-0.016": 0.0,
			"-0.015": 0.0,
			"-0.014": 0.0,
			"-0.013": 0.982953435055,
			"-0.012": 3.40281227534,
			"-0.011": 3.33371343956,
			"-0.01": 4.71160907741,
			"-0.009": 3.98986716076,
			"-0.008": 3.90329110336,
			"-0.007": 5.89851565079,
			"-0.006": 7.03657800872,
			"-0.005": 7.66524859253,
			"-0.004": 8.5105544393,
			"-0.003": 18.9330931437,
			"-0.002": 31.0644997624,
			"-0.001": 33.1500518495,
			"0.0": 33.8065912603,
			"0.001": 26.6686905334,
			"0.002": 14.3436269817,
			"0.003": 13.0089011768,
			"0.004": 17.826910967,
			"0.005": 16.6622692802,
			"0.006": 5.73060549554,
			"0.007": 2.95338795774,
			"0.008": 2.99874269639,
			"0.009": 2.58673428677,
			"0.01": 2.30884747964,
			"0.011": 2.69523035701,
			"0.012": 2.94964547555,
			"0.013": 2.87261403896,
			"0.014": 1.88758981178,
			"0.015": 0.397514940732,
			"0.016": 0.0,
			"0.017": 0.0,
			"0.018": 0.0,
			"0.019": 0.0,
			"0.02": 0.0,
			"0.021": 0.0,
			"0.022": 0.0,
			"0.023": 0.0,
			"0.024": 0.0,
			"0.025": 0.0
		}
	}
}
