{
	 "smiles": "ClC1=CC(Cl)=C(Cl)C2=C1OC1=C(O2)C=CC=C1", 
	 "Tm": 401.15, 
	 "num_atms": 22, 
	 "gaussian": { 
		 "optdone": 1, 
		 "sigma_profile": "yes", 
		 "theory": "DFT", 
		 "functional": "B3LYP", 
		 "basiset": "6-31G**", 
		 "properties": { 
			 "R2extent": 5712.3393, 
			 "electric_dipole_moment_norm": 2.54709228141, 
			 "electric_quadrupole_moment_norm": 12.2120602963, 
			 "total_energy": -1991.2849477, 
			 "HOMO_LUMO_gap": 0.17692, 
			 "cosmo_polarized_energy": -5.63, 
			 "cosmo_cavitation_energy": 32.14, 
			 "cosmo_dispersion_energy": -24.34, 
			 "cosmo_repulsion_energy": 1.86, 
			 "cosmo_total_nonelectrostatic_energy": 9.66, 
			 "SMD_solvation_energy": 5.13 
		},
		"coords": [
			{
				"x": 1.7900170107,
				"y": 1.0358546775,
				"z": -2.5591933151,
				"element": "Cl" 
			},
			{
				"x": 1.1414030375,
				"y": 0.8609134688,
				"z": -0.9506145097,
				"element": "C" 
			},
			{
				"x": 1.3726755017,
				"y": 1.8526702802,
				"z": 0.001466924,
				"element": "C" 
			},
			{
				"x": 0.8549707698,
				"y": 1.7132930275,
				"z": 1.285702856,
				"element": "C" 
			},
			{
				"x": 1.1626213726,
				"y": 2.971997,
				"z": 2.4524591943,
				"element": "Cl" 
			},
			{
				"x": 0.1007533084,
				"y": 0.5799368411,
				"z": 1.6295970218,
				"element": "C" 
			},
			{
				"x": -0.5647888749,
				"y": 0.3627158985,
				"z": 3.2181186229,
				"element": "Cl" 
			},
			{
				"x": -0.1244982731,
				"y": -0.4088356661,
				"z": 0.6648650964,
				"element": "C" 
			},
			{
				"x": 0.3946441519,
				"y": -0.273505112,
				"z": -0.6303615951,
				"element": "C" 
			},
			{
				"x": 0.1908103043,
				"y": -1.2237336224,
				"z": -1.5947213627,
				"element": "O" 
			},
			{
				"x": -0.5554260796,
				"y": -2.3308214869,
				"z": -1.2308582938,
				"element": "C" 
			},
			{
				"x": -1.0731926189,
				"y": -2.4676436935,
				"z": 0.0579162871,
				"element": "C" 
			},
			{
				"x": -0.8629050753,
				"y": -1.5021236879,
				"z": 1.0283302828,
				"element": "O" 
			},
			{
				"x": -1.8194839095,
				"y": -3.5882466774,
				"z": 0.3996679603,
				"element": "C" 
			},
			{
				"x": -2.0488229982,
				"y": -4.5798486334,
				"z": -0.5577150032,
				"element": "C" 
			},
			{
				"x": -1.5312767422,
				"y": -4.4432535092,
				"z": -1.8461371771,
				"element": "C" 
			},
			{
				"x": -0.7811284067,
				"y": -3.3143757589,
				"z": -2.1856113665,
				"element": "C" 
			},
			{
				"x": 1.9534801268,
				"y": 2.7280882292,
				"z": -0.2589972093,
				"element": "H" 
			},
			{
				"x": -2.2082314892,
				"y": -3.6652548366,
				"z": 1.40948023,
				"element": "H" 
			},
			{
				"x": -2.6317421549,
				"y": -5.4553274063,
				"z": -0.2911094405,
				"element": "H" 
			},
			{
				"x": -1.7075981806,
				"y": -5.2115033993,
				"z": -2.5918480557,
				"element": "H" 
			},
			{
				"x": -0.3655807806,
				"y": -3.1793959326,
				"z": -3.1785371467,
				"element": "H" 
			}
		],
		 "valence_orbital": [ 
			{
				"type": "occ",
				"energy": -0.31554,
				"method": "rhf"
			},
			{
				"type": "occ",
				"energy": -0.27747,
				"method": "rhf"
			},
			{
				"type": "occ",
				"energy": -0.26986,
				"method": "rhf"
			},
			{
				"type": "occ",
				"energy": -0.24579,
				"method": "rhf"
			},
			{
				"type": "occ",
				"energy": -0.21669,
				"method": "rhf"
			},
			{
				"type": "unocc",
				"energy": -0.03977,
				"method": "rhf"
			},
			{
				"type": "unocc",
				"energy": -0.03391,
				"method": "rhf"
			},
			{
				"type": "unocc",
				"energy": -0.01855,
				"method": "rhf"
			},
			{
				"type": "unocc",
				"energy": -0.01793,
				"method": "rhf"
			},
			{
				"type": "unocc",
				"energy": 0.00707,
				"method": "rhf"
			}
		],
		"cosmo_sigma_profile": { 
			"-0.025": 0.0,
			"-0.024": 0.0,
			"-0.023": 0.0,
			"-0.022": 0.0,
			"-0.021": 0.0,
			"-0.02": 0.0,
			"-0.019": 0.0,
			"-0.018": 0.0,
			"-0.017": 0.0,
			"-0.016": 0.0,
			"-0.015": 0.0,
			"-0.014": 0.0,
			"-0.013": 0.0,
			"-0.012": 0.0,
			"-0.011": 0.0,
			"-0.01": 0.0782099526103,
			"-0.009": 1.18432107193,
			"-0.008": 2.27654161154,
			"-0.007": 6.24811774146,
			"-0.006": 10.7250669371,
			"-0.005": 12.6031022491,
			"-0.004": 12.3876800713,
			"-0.003": 15.522816487,
			"-0.002": 21.6903335973,
			"-0.001": 27.2104155135,
			"0.0": 30.0610547611,
			"0.001": 26.7609562277,
			"0.002": 25.9479843856,
			"0.003": 34.1952738561,
			"0.004": 25.8047813297,
			"0.005": 7.05181211935,
			"0.006": 3.73571777156,
			"0.007": 3.12520140389,
			"0.008": 0.610123601207,
			"0.009": 0.0,
			"0.01": 0.0,
			"0.011": 0.0,
			"0.012": 0.0,
			"0.013": 0.0,
			"0.014": 0.0,
			"0.015": 0.0,
			"0.016": 0.0,
			"0.017": 0.0,
			"0.018": 0.0,
			"0.019": 0.0,
			"0.02": 0.0,
			"0.021": 0.0,
			"0.022": 0.0,
			"0.023": 0.0,
			"0.024": 0.0,
			"0.025": 0.0
		}
	}
}
