{
	 "smiles": "OC1=CC(C=C(C#N)C2=NC3=C(C=CC=C3)C(=O)N2)=CC=C1", 
	 "Tm": 567.15, 
	 "num_atms": 33, 
	 "gaussian": { 
		 "optdone": 1, 
		 "sigma_profile": "yes", 
		 "theory": "DFT", 
		 "functional": "B3LYP", 
		 "basiset": "6-31G**", 
		 "properties": { 
			 "R2extent": 7518.0342, 
			 "electric_dipole_moment_norm": 5.43007804088, 
			 "electric_quadrupole_moment_norm": 21.6207580998, 
			 "total_energy": -969.135029913, 
			 "HOMO_LUMO_gap": 0.13152, 
			 "cosmo_polarized_energy": -19.66, 
			 "cosmo_cavitation_energy": 39.43, 
			 "cosmo_dispersion_energy": -27.46, 
			 "cosmo_repulsion_energy": 2.02, 
			 "cosmo_total_nonelectrostatic_energy": 13.99, 
			 "SMD_solvation_energy": 7.9 
		},
		"coords": [
			{
				"x": 0.3827440708,
				"y": -2.425631508,
				"z": 3.6709410999,
				"element": "O" 
			},
			{
				"x": 0.8779881463,
				"y": -2.7302778529,
				"z": 2.43689921,
				"element": "C" 
			},
			{
				"x": 0.6749439904,
				"y": -1.9070740554,
				"z": 1.3312252546,
				"element": "C" 
			},
			{
				"x": 1.2003173314,
				"y": -2.2664801549,
				"z": 0.0743383732,
				"element": "C" 
			},
			{
				"x": 1.0271505341,
				"y": -1.5347343106,
				"z": -1.1721489342,
				"element": "C" 
			},
			{
				"x": 0.3446594064,
				"y": -0.4269310117,
				"z": -1.6105687307,
				"element": "C" 
			},
			{
				"x": 0.4357213505,
				"y": -0.2006258248,
				"z": -3.0289131353,
				"element": "C" 
			},
			{
				"x": 0.4764569455,
				"y": -0.0022117939,
				"z": -4.1760877943,
				"element": "N" 
			},
			{
				"x": -0.4876881202,
				"y": 0.5717321053,
				"z": -0.8910544432,
				"element": "C" 
			},
			{
				"x": -0.3846941685,
				"y": 0.7633558297,
				"z": 0.3905073209,
				"element": "N" 
			},
			{
				"x": -1.176603203,
				"y": 1.7414514665,
				"z": 0.9741303204,
				"element": "C" 
			},
			{
				"x": -2.0970487723,
				"y": 2.5229047179,
				"z": 0.2364495336,
				"element": "C" 
			},
			{
				"x": -2.8787510379,
				"y": 3.4975778013,
				"z": 0.8725710911,
				"element": "C" 
			},
			{
				"x": -2.7504187664,
				"y": 3.7047830274,
				"z": 2.2382231539,
				"element": "C" 
			},
			{
				"x": -1.8310690288,
				"y": 2.9401345653,
				"z": 2.9783348942,
				"element": "C" 
			},
			{
				"x": -1.0530801621,
				"y": 1.9734180564,
				"z": 2.3593384047,
				"element": "C" 
			},
			{
				"x": -2.2149228462,
				"y": 2.3061077082,
				"z": -1.2092798662,
				"element": "C" 
			},
			{
				"x": -2.9588436152,
				"y": 2.8982812295,
				"z": -1.9756964927,
				"element": "O" 
			},
			{
				"x": -1.3516254705,
				"y": 1.3052155515,
				"z": -1.6799185047,
				"element": "N" 
			},
			{
				"x": 1.9451426031,
				"y": -3.4644950905,
				"z": -0.0298502762,
				"element": "C" 
			},
			{
				"x": 2.1478086342,
				"y": -4.2726010005,
				"z": 1.0844436965,
				"element": "C" 
			},
			{
				"x": 1.6168110713,
				"y": -3.9159015339,
				"z": 2.3215816885,
				"element": "C" 
			},
			{
				"x": -0.1250573329,
				"y": -1.6055470098,
				"z": 3.6134502075,
				"element": "H" 
			},
			{
				"x": 0.1391819088,
				"y": -0.9694021967,
				"z": 1.4228913952,
				"element": "H" 
			},
			{
				"x": 1.5503366243,
				"y": -2.0292133089,
				"z": -1.9881192637,
				"element": "H" 
			},
			{
				"x": -3.5720186423,
				"y": 4.073432993,
				"z": 0.2684123851,
				"element": "H" 
			},
			{
				"x": -3.3532757349,
				"y": 4.4581677187,
				"z": 2.7354556182,
				"element": "H" 
			},
			{
				"x": -1.7258776934,
				"y": 3.1111435114,
				"z": 4.045867845,
				"element": "H" 
			},
			{
				"x": -0.3270341038,
				"y": 1.3917384341,
				"z": 2.9186809384,
				"element": "H" 
			},
			{
				"x": -1.3897064743,
				"y": 1.1461529997,
				"z": -2.6817088572,
				"element": "H" 
			},
			{
				"x": 2.3558340267,
				"y": -3.7576928836,
				"z": -0.9912302394,
				"element": "H" 
			},
			{
				"x": 2.7218239018,
				"y": -5.1892415988,
				"z": 0.9905887581,
				"element": "H" 
			},
			{
				"x": 1.7638946271,
				"y": -4.5318365807,
				"z": 3.2025453485,
				"element": "H" 
			}
		],
		 "valence_orbital": [ 
			{
				"type": "occ",
				"energy": -0.27232,
				"method": "rhf"
			},
			{
				"type": "occ",
				"energy": -0.27146,
				"method": "rhf"
			},
			{
				"type": "occ",
				"energy": -0.26201,
				"method": "rhf"
			},
			{
				"type": "occ",
				"energy": -0.24512,
				"method": "rhf"
			},
			{
				"type": "occ",
				"energy": -0.23229,
				"method": "rhf"
			},
			{
				"type": "unocc",
				"energy": -0.10077,
				"method": "rhf"
			},
			{
				"type": "unocc",
				"energy": -0.0516,
				"method": "rhf"
			},
			{
				"type": "unocc",
				"energy": -0.03712,
				"method": "rhf"
			},
			{
				"type": "unocc",
				"energy": -0.00886,
				"method": "rhf"
			},
			{
				"type": "unocc",
				"energy": 0.00997,
				"method": "rhf"
			}
		],
		"cosmo_sigma_profile": { 
			"-0.025": 0.0,
			"-0.024": 0.0,
			"-0.023": 0.0,
			"-0.022": 0.0,
			"-0.021": 0.0,
			"-0.02": 0.0,
			"-0.019": 0.0,
			"-0.018": 0.0,
			"-0.017": 0.0,
			"-0.016": 0.619983033353,
			"-0.015": 0.860384408014,
			"-0.014": 1.32443953253,
			"-0.013": 1.79959279663,
			"-0.012": 1.69685257968,
			"-0.011": 1.96989614894,
			"-0.01": 2.98651915873,
			"-0.009": 5.24884863714,
			"-0.008": 5.69661198978,
			"-0.007": 11.0613327332,
			"-0.006": 17.1728356001,
			"-0.005": 21.0358353139,
			"-0.004": 20.9906547555,
			"-0.003": 18.5434932767,
			"-0.002": 21.0449639983,
			"-0.001": 17.9398656361,
			"0.0": 20.2655477138,
			"0.001": 22.8984020644,
			"0.002": 26.9059691999,
			"0.003": 32.4099269924,
			"0.004": 12.9810774944,
			"0.005": 6.05515856922,
			"0.006": 6.19429017502,
			"0.007": 5.12938775189,
			"0.008": 6.48059603284,
			"0.009": 6.09082595905,
			"0.01": 6.09367935738,
			"0.011": 6.35220319784,
			"0.012": 7.19027481877,
			"0.013": 4.1337310598,
			"0.014": 0.046833618751,
			"0.015": 0.0,
			"0.016": 0.0,
			"0.017": 0.0,
			"0.018": 0.0,
			"0.019": 0.0,
			"0.02": 0.0,
			"0.021": 0.0,
			"0.022": 0.0,
			"0.023": 0.0,
			"0.024": 0.0,
			"0.025": 0.0
		}
	}
}
