{
	 "smiles": "C(OC1=CC=C(C=C1)C1=CSN=N1)C1CO1", 
	 "Tm": 344.15, 
	 "num_atms": 26, 
	 "gaussian": { 
		 "optdone": 1, 
		 "sigma_profile": "yes", 
		 "theory": "DFT", 
		 "functional": "B3LYP", 
		 "basiset": "6-31G**", 
		 "properties": { 
			 "R2extent": 6599.3414, 
			 "electric_dipole_moment_norm": 2.3886466189, 
			 "electric_quadrupole_moment_norm": 16.256625243, 
			 "total_energy": -1083.2317531, 
			 "HOMO_LUMO_gap": 0.15697, 
			 "cosmo_polarized_energy": -13.42, 
			 "cosmo_cavitation_energy": 32.39, 
			 "cosmo_dispersion_energy": -24.34, 
			 "cosmo_repulsion_energy": 1.83, 
			 "cosmo_total_nonelectrostatic_energy": 9.88, 
			 "SMD_solvation_energy": 3.92 
		},
		"coords": [
			{
				"x": 0.7420729523,
				"y": -2.5903301455,
				"z": 1.5519177598,
				"element": "C" 
			},
			{
				"x": 1.4494170261,
				"y": -1.8075005888,
				"z": 0.5930037574,
				"element": "O" 
			},
			{
				"x": 0.8308555588,
				"y": -0.7696465302,
				"z": -0.0436520495,
				"element": "C" 
			},
			{
				"x": -0.4778685272,
				"y": -0.3359218131,
				"z": 0.1950885171,
				"element": "C" 
			},
			{
				"x": -0.9995879964,
				"y": 0.7309557016,
				"z": -0.5352503864,
				"element": "C" 
			},
			{
				"x": -0.2388247505,
				"y": 1.3918244633,
				"z": -1.5098094234,
				"element": "C" 
			},
			{
				"x": 1.076616877,
				"y": 0.9454356376,
				"z": -1.7330630736,
				"element": "C" 
			},
			{
				"x": 1.6048465208,
				"y": -0.1167674623,
				"z": -1.015872624,
				"element": "C" 
			},
			{
				"x": -0.8158201655,
				"y": 2.5163675856,
				"z": -2.2624181927,
				"element": "C" 
			},
			{
				"x": -0.2357666019,
				"y": 3.2733599394,
				"z": -3.2589313805,
				"element": "C" 
			},
			{
				"x": -1.3336414705,
				"y": 4.4557210931,
				"z": -3.8027414472,
				"element": "S" 
			},
			{
				"x": -2.5531348923,
				"y": 3.8987852338,
				"z": -2.6690996464,
				"element": "N" 
			},
			{
				"x": -2.109422417,
				"y": 2.925005375,
				"z": -1.9886538165,
				"element": "N" 
			},
			{
				"x": 0.691540693,
				"y": -1.9314897647,
				"z": 2.91887279,
				"element": "C" 
			},
			{
				"x": -0.5620501122,
				"y": -1.5566075851,
				"z": 3.5904748235,
				"element": "C" 
			},
			{
				"x": 0.1339207974,
				"y": -2.7571509133,
				"z": 3.945650679,
				"element": "O" 
			},
			{
				"x": 1.3208343369,
				"y": -3.5147114425,
				"z": 1.6365888376,
				"element": "H" 
			},
			{
				"x": -0.2623961079,
				"y": -2.8530178633,
				"z": 1.1974967387,
				"element": "H" 
			},
			{
				"x": -1.0939313915,
				"y": -0.8101698859,
				"z": 0.947982952,
				"element": "H" 
			},
			{
				"x": -2.0140242511,
				"y": 1.064259688,
				"z": -0.3470855522,
				"element": "H" 
			},
			{
				"x": 1.7001584145,
				"y": 1.4305217698,
				"z": -2.4781777907,
				"element": "H" 
			},
			{
				"x": 2.6173868645,
				"y": -0.4646125908,
				"z": -1.1910216505,
				"element": "H" 
			},
			{
				"x": 0.7575501313,
				"y": 3.1750643385,
				"z": -3.671390382,
				"element": "H" 
			},
			{
				"x": 1.6097449412,
				"y": -1.4087515352,
				"z": 3.1943799973,
				"element": "H" 
			},
			{
				"x": -1.515386976,
				"y": -1.7079037799,
				"z": 3.0827547355,
				"element": "H" 
			},
			{
				"x": -0.5583894539,
				"y": -0.7689189251,
				"z": 4.3436558276,
				"element": "H" 
			}
		],
		 "valence_orbital": [ 
			{
				"type": "occ",
				"energy": -0.28713,
				"method": "rhf"
			},
			{
				"type": "occ",
				"energy": -0.27735,
				"method": "rhf"
			},
			{
				"type": "occ",
				"energy": -0.26317,
				"method": "rhf"
			},
			{
				"type": "occ",
				"energy": -0.26249,
				"method": "rhf"
			},
			{
				"type": "occ",
				"energy": -0.21762,
				"method": "rhf"
			},
			{
				"type": "unocc",
				"energy": -0.06065,
				"method": "rhf"
			},
			{
				"type": "unocc",
				"energy": -0.02454,
				"method": "rhf"
			},
			{
				"type": "unocc",
				"energy": -0.01228,
				"method": "rhf"
			},
			{
				"type": "unocc",
				"energy": -0.01118,
				"method": "rhf"
			},
			{
				"type": "unocc",
				"energy": 0.06307,
				"method": "rhf"
			}
		],
		"cosmo_sigma_profile": { 
			"-0.025": 0.0,
			"-0.024": 0.0,
			"-0.023": 0.0,
			"-0.022": 0.0,
			"-0.021": 0.0,
			"-0.02": 0.0,
			"-0.019": 0.0,
			"-0.018": 0.0,
			"-0.017": 0.0,
			"-0.016": 0.0,
			"-0.015": 0.0,
			"-0.014": 0.0,
			"-0.013": 0.0,
			"-0.012": 0.0,
			"-0.011": 1.4766471457,
			"-0.01": 3.77754906408,
			"-0.009": 2.80019711805,
			"-0.008": 5.38496283583,
			"-0.007": 8.95895453815,
			"-0.006": 15.7612668447,
			"-0.005": 17.752515284,
			"-0.004": 17.8104393672,
			"-0.003": 15.8468636147,
			"-0.002": 17.0553191774,
			"-0.001": 18.4765476801,
			"0.0": 22.0014679922,
			"0.001": 23.1374203996,
			"0.002": 14.848756493,
			"0.003": 15.0180682599,
			"0.004": 17.2322681986,
			"0.005": 8.79829748544,
			"0.006": 5.49987408781,
			"0.007": 3.36368416965,
			"0.008": 5.79974437358,
			"0.009": 6.05983498541,
			"0.01": 6.29255228733,
			"0.011": 5.84884467544,
			"0.012": 2.91149065935,
			"0.013": 0.445188514816,
			"0.014": 0.0,
			"0.015": 0.0,
			"0.016": 0.0,
			"0.017": 0.0,
			"0.018": 0.0,
			"0.019": 0.0,
			"0.02": 0.0,
			"0.021": 0.0,
			"0.022": 0.0,
			"0.023": 0.0,
			"0.024": 0.0,
			"0.025": 0.0
		}
	}
}
