{
	 "smiles": "COC1=C(OC)C=C2C(N(CCC2=C1)C(=O)CCl)C1=CC=CC=C1", 
	 "Tm": 493.15, 
	 "num_atms": 44, 
	 "gaussian": { 
		 "optdone": 1, 
		 "sigma_profile": "yes", 
		 "theory": "DFT", 
		 "functional": "B3LYP", 
		 "basiset": "6-31G**", 
		 "properties": { 
			 "R2extent": 8576.008, 
			 "electric_dipole_moment_norm": 4.32934536622, 
			 "electric_quadrupole_moment_norm": 28.6129496996, 
			 "total_energy": -1476.65600255, 
			 "HOMO_LUMO_gap": 0.19521, 
			 "cosmo_polarized_energy": -17.79, 
			 "cosmo_cavitation_energy": 46.25, 
			 "cosmo_dispersion_energy": -31.67, 
			 "cosmo_repulsion_energy": 2.43, 
			 "cosmo_total_nonelectrostatic_energy": 17.01, 
			 "SMD_solvation_energy": 8.71 
		},
		"coords": [
			{
				"x": -3.8030597981,
				"y": 4.0403290826,
				"z": -0.5202251046,
				"element": "C" 
			},
			{
				"x": -2.3960816193,
				"y": 3.9217031574,
				"z": -0.3735798024,
				"element": "O" 
			},
			{
				"x": -1.8203975657,
				"y": 2.7087933835,
				"z": -0.6181954544,
				"element": "C" 
			},
			{
				"x": -0.4192295029,
				"y": 2.6404214936,
				"z": -0.4639837639,
				"element": "C" 
			},
			{
				"x": 0.3264081023,
				"y": 3.7393931741,
				"z": -0.1191398444,
				"element": "O" 
			},
			{
				"x": 0.13244135,
				"y": 4.23857917,
				"z": 1.2084632245,
				"element": "C" 
			},
			{
				"x": 0.2460433524,
				"y": 1.4422304666,
				"z": -0.7200824454,
				"element": "C" 
			},
			{
				"x": -0.4475286521,
				"y": 0.3042365413,
				"z": -1.1417628812,
				"element": "C" 
			},
			{
				"x": 0.1119513298,
				"y": -1.1020849876,
				"z": -1.3534668862,
				"element": "C" 
			},
			{
				"x": -0.6822764484,
				"y": -1.9853009264,
				"z": -0.4518503077,
				"element": "N" 
			},
			{
				"x": -2.0395873705,
				"y": -2.1842556064,
				"z": -0.9909977571,
				"element": "C" 
			},
			{
				"x": -2.5755657723,
				"y": -0.892912188,
				"z": -1.6945841825,
				"element": "C" 
			},
			{
				"x": -1.8479206936,
				"y": 0.3641958074,
				"z": -1.2678269904,
				"element": "C" 
			},
			{
				"x": -2.5205171118,
				"y": 1.5603778151,
				"z": -1.0036761255,
				"element": "C" 
			},
			{
				"x": -0.5900310598,
				"y": -1.9760831604,
				"z": 0.9399660834,
				"element": "C" 
			},
			{
				"x": -1.4577720028,
				"y": -2.4651447754,
				"z": 1.6434728613,
				"element": "O" 
			},
			{
				"x": 0.6846078545,
				"y": -1.3744473303,
				"z": 1.5512078933,
				"element": "C" 
			},
			{
				"x": 0.4914310297,
				"y": -1.0474803196,
				"z": 3.3075093207,
				"element": "Cl" 
			},
			{
				"x": 1.6122647312,
				"y": -1.3678072357,
				"z": -1.398898305,
				"element": "C" 
			},
			{
				"x": 2.4847195544,
				"y": -0.4494146691,
				"z": -2.0023061205,
				"element": "C" 
			},
			{
				"x": 3.840031544,
				"y": -0.7463444704,
				"z": -2.1577314726,
				"element": "C" 
			},
			{
				"x": 4.3477722939,
				"y": -1.9727202778,
				"z": -1.7290673289,
				"element": "C" 
			},
			{
				"x": 3.4819594968,
				"y": -2.9095863456,
				"z": -1.1635131027,
				"element": "C" 
			},
			{
				"x": 2.1272780693,
				"y": -2.613185395,
				"z": -1.0087072827,
				"element": "C" 
			},
			{
				"x": -4.1216837477,
				"y": 3.8151713992,
				"z": -1.5459142915,
				"element": "H" 
			},
			{
				"x": -4.3405894729,
				"y": 3.3838315535,
				"z": 0.1758668747,
				"element": "H" 
			},
			{
				"x": -4.0417247199,
				"y": 5.0797526674,
				"z": -0.2906272364,
				"element": "H" 
			},
			{
				"x": 0.352824695,
				"y": 3.4630332577,
				"z": 1.9529976909,
				"element": "H" 
			},
			{
				"x": 0.8391016636,
				"y": 5.0624380806,
				"z": 1.3271384508,
				"element": "H" 
			},
			{
				"x": -0.8869947963,
				"y": 4.6066249207,
				"z": 1.35396991,
				"element": "H" 
			},
			{
				"x": 1.320356862,
				"y": 1.4380067007,
				"z": -0.5763272366,
				"element": "H" 
			},
			{
				"x": -0.2217832079,
				"y": -1.4146693786,
				"z": -2.3534301674,
				"element": "H" 
			},
			{
				"x": -2.67091132,
				"y": -2.4664898355,
				"z": -0.1504535082,
				"element": "H" 
			},
			{
				"x": -2.0278734755,
				"y": -3.0154470224,
				"z": -1.7047964673,
				"element": "H" 
			},
			{
				"x": -3.6497226623,
				"y": -0.796532425,
				"z": -1.5095915149,
				"element": "H" 
			},
			{
				"x": -2.4648695807,
				"y": -1.0125036577,
				"z": -2.7812695741,
				"element": "H" 
			},
			{
				"x": -3.5996340824,
				"y": 1.5888758761,
				"z": -1.1052801309,
				"element": "H" 
			},
			{
				"x": 0.9539077242,
				"y": -0.4314355333,
				"z": 1.0793806063,
				"element": "H" 
			},
			{
				"x": 1.5212462563,
				"y": -2.0642500961,
				"z": 1.4425759649,
				"element": "H" 
			},
			{
				"x": 2.1055204306,
				"y": 0.4954983206,
				"z": -2.3749437564,
				"element": "H" 
			},
			{
				"x": 4.4966623088,
				"y": -0.0155918623,
				"z": -2.6211095948,
				"element": "H" 
			},
			{
				"x": 5.4028787678,
				"y": -2.2012087439,
				"z": -1.8466829652,
				"element": "H" 
			},
			{
				"x": 3.8573704561,
				"y": -3.8783582126,
				"z": -0.8463537051,
				"element": "H" 
			},
			{
				"x": 1.4562767902,
				"y": -3.3594384131,
				"z": -0.5958735738,
				"element": "H" 
			}
		],
		 "valence_orbital": [ 
			{
				"type": "occ",
				"energy": -0.25938,
				"method": "rhf"
			},
			{
				"type": "occ",
				"energy": -0.25593,
				"method": "rhf"
			},
			{
				"type": "occ",
				"energy": -0.24717,
				"method": "rhf"
			},
			{
				"type": "occ",
				"energy": -0.24023,
				"method": "rhf"
			},
			{
				"type": "occ",
				"energy": -0.2142,
				"method": "rhf"
			},
			{
				"type": "unocc",
				"energy": -0.01899,
				"method": "rhf"
			},
			{
				"type": "unocc",
				"energy": -0.01353,
				"method": "rhf"
			},
			{
				"type": "unocc",
				"energy": -0.00646,
				"method": "rhf"
			},
			{
				"type": "unocc",
				"energy": -0.00134,
				"method": "rhf"
			},
			{
				"type": "unocc",
				"energy": 0.01416,
				"method": "rhf"
			}
		],
		"cosmo_sigma_profile": { 
			"-0.025": 0.0,
			"-0.024": 0.0,
			"-0.023": 0.0,
			"-0.022": 0.0,
			"-0.021": 0.0,
			"-0.02": 0.0,
			"-0.019": 0.0,
			"-0.018": 0.0,
			"-0.017": 0.0,
			"-0.016": 0.0,
			"-0.015": 0.0,
			"-0.014": 0.0,
			"-0.013": 0.0,
			"-0.012": 0.0,
			"-0.011": 0.0,
			"-0.01": 0.0,
			"-0.009": 0.0607877557676,
			"-0.008": 2.0506770203,
			"-0.007": 6.54843429344,
			"-0.006": 18.0151930741,
			"-0.005": 37.7460144663,
			"-0.004": 38.8809623047,
			"-0.003": 38.7896357102,
			"-0.002": 33.1531914243,
			"-0.001": 24.7375171215,
			"0.0": 21.5357754198,
			"0.001": 19.5371702045,
			"0.002": 19.9153757091,
			"0.003": 21.600470083,
			"0.004": 21.8602073688,
			"0.005": 17.7539685486,
			"0.006": 13.4858670334,
			"0.007": 5.0886176503,
			"0.008": 3.94710667598,
			"0.009": 3.98897094392,
			"0.01": 4.98552048382,
			"0.011": 4.51336094227,
			"0.012": 5.31132365335,
			"0.013": 3.71391394694,
			"0.014": 1.72357325659,
			"0.015": 0.118476430938,
			"0.016": 0.0,
			"0.017": 0.0,
			"0.018": 0.0,
			"0.019": 0.0,
			"0.02": 0.0,
			"0.021": 0.0,
			"0.022": 0.0,
			"0.023": 0.0,
			"0.024": 0.0,
			"0.025": 0.0
		}
	}
}
