{
	 "smiles": "FC1=CN=C(Cl)N=C1Cl", 
	 "Tm": 311.15, 
	 "num_atms": 10, 
	 "gaussian": { 
		 "optdone": 1, 
		 "sigma_profile": "yes", 
		 "theory": "DFT", 
		 "functional": "B3LYP", 
		 "basiset": "6-31G**", 
		 "properties": { 
			 "R2extent": 2690.8577, 
			 "electric_dipole_moment_norm": 2.14088891351, 
			 "electric_quadrupole_moment_norm": 5.29357528425, 
			 "total_energy": -1282.72846499, 
			 "HOMO_LUMO_gap": 0.20592, 
			 "cosmo_polarized_energy": -6.02, 
			 "cosmo_cavitation_energy": 19.41, 
			 "cosmo_dispersion_energy": -14.85, 
			 "cosmo_repulsion_energy": 1.21, 
			 "cosmo_total_nonelectrostatic_energy": 5.77, 
			 "SMD_solvation_energy": 0.59 
		},
		"coords": [
			{
				"x": 2.6173371327,
				"y": 1.0867184592,
				"z": 0.5119422044,
				"element": "F" 
			},
			{
				"x": 1.3282269376,
				"y": 1.4183835844,
				"z": 0.5859253541,
				"element": "C" 
			},
			{
				"x": 0.660979088,
				"y": 1.4319302087,
				"z": 1.8036479193,
				"element": "C" 
			},
			{
				"x": -0.6321338528,
				"y": 1.7621897248,
				"z": 1.895496814,
				"element": "N" 
			},
			{
				"x": -1.2272888133,
				"y": 2.0731789436,
				"z": 0.7504765001,
				"element": "C" 
			},
			{
				"x": -2.9138046784,
				"y": 2.5079316897,
				"z": 0.8447109964,
				"element": "Cl" 
			},
			{
				"x": -0.6871645464,
				"y": 2.0933759095,
				"z": -0.4659261477,
				"element": "N" 
			},
			{
				"x": 0.5905839472,
				"y": 1.7661049459,
				"z": -0.5493648557,
				"element": "C" 
			},
			{
				"x": 1.3545137394,
				"y": 1.7728021397,
				"z": -2.1086943262,
				"element": "Cl" 
			},
			{
				"x": 1.187951046,
				"y": 1.1697843945,
				"z": 2.7177855414,
				"element": "H" 
			}
		],
		 "valence_orbital": [ 
			{
				"type": "occ",
				"energy": -0.34617,
				"method": "rhf"
			},
			{
				"type": "occ",
				"energy": -0.33313,
				"method": "rhf"
			},
			{
				"type": "occ",
				"energy": -0.32807,
				"method": "rhf"
			},
			{
				"type": "occ",
				"energy": -0.29137,
				"method": "rhf"
			},
			{
				"type": "occ",
				"energy": -0.28454,
				"method": "rhf"
			},
			{
				"type": "unocc",
				"energy": -0.07862,
				"method": "rhf"
			},
			{
				"type": "unocc",
				"energy": -0.05547,
				"method": "rhf"
			},
			{
				"type": "unocc",
				"energy": -0.00012,
				"method": "rhf"
			},
			{
				"type": "unocc",
				"energy": 0.03031,
				"method": "rhf"
			},
			{
				"type": "unocc",
				"energy": 0.09807,
				"method": "rhf"
			}
		],
		"cosmo_sigma_profile": { 
			"-0.025": 0.0,
			"-0.024": 0.0,
			"-0.023": 0.0,
			"-0.022": 0.0,
			"-0.021": 0.0,
			"-0.02": 0.0,
			"-0.019": 0.0,
			"-0.018": 0.0,
			"-0.017": 0.0,
			"-0.016": 0.0,
			"-0.015": 0.0,
			"-0.014": 0.0,
			"-0.013": 0.0,
			"-0.012": 0.0,
			"-0.011": 1.04771283303,
			"-0.01": 2.19880154746,
			"-0.009": 1.87002377626,
			"-0.008": 2.81859575315,
			"-0.007": 3.26722982291,
			"-0.006": 6.82143809053,
			"-0.005": 10.0021087148,
			"-0.004": 10.4555721905,
			"-0.003": 9.93068544449,
			"-0.002": 10.1595573126,
			"-0.001": 9.38423731801,
			"0.0": 11.169799344,
			"0.001": 14.2181317239,
			"0.002": 24.9655003975,
			"0.003": 18.8631420016,
			"0.004": 7.92300741331,
			"0.005": 4.06002043375,
			"0.006": 3.01955390197,
			"0.007": 2.24709086192,
			"0.008": 2.19699744007,
			"0.009": 2.10302943074,
			"0.01": 1.70440644833,
			"0.011": 1.38084281297,
			"0.012": 0.692237667981,
			"0.013": 0.159993774108,
			"0.014": 0.0,
			"0.015": 0.0,
			"0.016": 0.0,
			"0.017": 0.0,
			"0.018": 0.0,
			"0.019": 0.0,
			"0.02": 0.0,
			"0.021": 0.0,
			"0.022": 0.0,
			"0.023": 0.0,
			"0.024": 0.0,
			"0.025": 0.0
		}
	}
}
