{
	 "smiles": "CC1=C2CC(=O)C2=C(C)C2=C1C(=O)C2", 
	 "Tm": 511.15, 
	 "num_atms": 24, 
	 "gaussian": { 
		 "optdone": 1, 
		 "sigma_profile": "yes", 
		 "theory": "DFT", 
		 "functional": "B3LYP", 
		 "basiset": "6-31G**", 
		 "properties": { 
			 "R2extent": 2946.5171, 
			 "electric_dipole_moment_norm": 0.00211187120819, 
			 "electric_quadrupole_moment_norm": 23.5791299297, 
			 "total_energy": -613.689938195, 
			 "HOMO_LUMO_gap": 0.16541, 
			 "cosmo_polarized_energy": -10.47, 
			 "cosmo_cavitation_energy": 28.82, 
			 "cosmo_dispersion_energy": -20.18, 
			 "cosmo_repulsion_energy": 1.62, 
			 "cosmo_total_nonelectrostatic_energy": 10.26, 
			 "SMD_solvation_energy": 5.79 
		},
		"coords": [
			{
				"x": 2.434753226,
				"y": 2.2015356289,
				"z": 0.5499958703,
				"element": "C" 
			},
			{
				"x": 1.5405597348,
				"y": 0.997494856,
				"z": 0.4343548596,
				"element": "C" 
			},
			{
				"x": 1.6352032632,
				"y": -0.1676649389,
				"z": 1.1973881971,
				"element": "C" 
			},
			{
				"x": 2.4589996409,
				"y": -0.8028409725,
				"z": 2.3175716476,
				"element": "C" 
			},
			{
				"x": 1.4778129932,
				"y": -2.017770604,
				"z": 2.1304930054,
				"element": "C" 
			},
			{
				"x": 1.3668209988,
				"y": -3.0967979424,
				"z": 2.6576242145,
				"element": "O" 
			},
			{
				"x": 0.7660891491,
				"y": -1.2694235521,
				"z": 1.0463346053,
				"element": "C" 
			},
			{
				"x": -0.298245053,
				"y": -1.3702638933,
				"z": 0.1367910019,
				"element": "C" 
			},
			{
				"x": -1.1932073948,
				"y": -2.5738498006,
				"z": 0.0220852289,
				"element": "C" 
			},
			{
				"x": -0.3927209316,
				"y": -0.2052169367,
				"z": -0.6264395509,
				"element": "C" 
			},
			{
				"x": 0.4765946988,
				"y": 0.8964325126,
				"z": -0.4756143135,
				"element": "C" 
			},
			{
				"x": -0.2368737901,
				"y": 1.6458537232,
				"z": -1.5578712168,
				"element": "C" 
			},
			{
				"x": -0.1272185901,
				"y": 2.7257282952,
				"z": -2.0835517327,
				"element": "O" 
			},
			{
				"x": -1.2180517897,
				"y": 0.4309524096,
				"z": -1.7449284446,
				"element": "C" 
			},
			{
				"x": 3.4810433703,
				"y": 1.9345669858,
				"z": 0.3629788066,
				"element": "H" 
			},
			{
				"x": 2.1424134201,
				"y": 2.9718879265,
				"z": -0.1665826436,
				"element": "H" 
			},
			{
				"x": 2.3884088188,
				"y": 2.6309726431,
				"z": 1.5571867253,
				"element": "H" 
			},
			{
				"x": 2.4040190194,
				"y": -0.3235631546,
				"z": 3.3014694147,
				"element": "H" 
			},
			{
				"x": 3.5073047831,
				"y": -1.0277238154,
				"z": 2.0912339442,
				"element": "H" 
			},
			{
				"x": -2.2391454379,
				"y": -2.3063089673,
				"z": 0.2102303866,
				"element": "H" 
			},
			{
				"x": -1.1483074402,
				"y": -3.0033308278,
				"z": -0.9851653957,
				"element": "H" 
			},
			{
				"x": -0.9003256875,
				"y": -3.3443768544,
				"z": 0.738247314,
				"element": "H" 
			},
			{
				"x": -2.2660945737,
				"y": 0.6553924084,
				"z": -1.5169292817,
				"element": "H" 
			},
			{
				"x": -1.1643324279,
				"y": -0.0472851292,
				"z": -2.7294026429,
				"element": "H" 
			}
		],
		 "valence_orbital": [ 
			{
				"type": "occ",
				"energy": -0.33763,
				"method": "rhf"
			},
			{
				"type": "occ",
				"energy": -0.26639,
				"method": "rhf"
			},
			{
				"type": "occ",
				"energy": -0.25993,
				"method": "rhf"
			},
			{
				"type": "occ",
				"energy": -0.25564,
				"method": "rhf"
			},
			{
				"type": "occ",
				"energy": -0.25012,
				"method": "rhf"
			},
			{
				"type": "unocc",
				"energy": -0.08471,
				"method": "rhf"
			},
			{
				"type": "unocc",
				"energy": -0.02514,
				"method": "rhf"
			},
			{
				"type": "unocc",
				"energy": -0.00559,
				"method": "rhf"
			},
			{
				"type": "unocc",
				"energy": 0.06265,
				"method": "rhf"
			},
			{
				"type": "unocc",
				"energy": 0.0929,
				"method": "rhf"
			}
		],
		"cosmo_sigma_profile": { 
			"-0.025": 0.0,
			"-0.024": 0.0,
			"-0.023": 0.0,
			"-0.022": 0.0,
			"-0.021": 0.0,
			"-0.02": 0.0,
			"-0.019": 0.0,
			"-0.018": 0.0,
			"-0.017": 0.0,
			"-0.016": 0.0,
			"-0.015": 0.0,
			"-0.014": 0.0,
			"-0.013": 0.0,
			"-0.012": 0.0,
			"-0.011": 0.0,
			"-0.01": 0.0,
			"-0.009": 0.0,
			"-0.008": 0.0,
			"-0.007": 0.705042064411,
			"-0.006": 9.36804287548,
			"-0.005": 18.2447314546,
			"-0.004": 22.3192945064,
			"-0.003": 25.781245418,
			"-0.002": 28.4107904183,
			"-0.001": 35.6563669747,
			"0.0": 19.4486513485,
			"0.001": 14.3179564164,
			"0.002": 9.78191985209,
			"0.003": 4.48098289237,
			"0.004": 3.17529400249,
			"0.005": 2.88768628036,
			"0.006": 2.53246554504,
			"0.007": 4.19395657802,
			"0.008": 4.80938010794,
			"0.009": 3.32274029817,
			"0.01": 6.30383653742,
			"0.011": 10.2813886335,
			"0.012": 3.69056085827,
			"0.013": 0.399076809601,
			"0.014": 0.0,
			"0.015": 0.0,
			"0.016": 0.0,
			"0.017": 0.0,
			"0.018": 0.0,
			"0.019": 0.0,
			"0.02": 0.0,
			"0.021": 0.0,
			"0.022": 0.0,
			"0.023": 0.0,
			"0.024": 0.0,
			"0.025": 0.0
		}
	}
}
