{
	 "smiles": "COC1=CC(Cl)=C(OC)C=C1Cl", 
	 "Tm": 407.15, 
	 "num_atms": 20, 
	 "gaussian": { 
		 "optdone": 1, 
		 "sigma_profile": "yes", 
		 "theory": "DFT", 
		 "functional": "B3LYP", 
		 "basiset": "6-31G**", 
		 "properties": { 
			 "R2extent": 3210.6173, 
			 "electric_dipole_moment_norm": 2.80920001958, 
			 "electric_quadrupole_moment_norm": 8.42554697572, 
			 "total_energy": -1380.46581404, 
			 "HOMO_LUMO_gap": 0.21272, 
			 "cosmo_polarized_energy": -7.02, 
			 "cosmo_cavitation_energy": 27.7, 
			 "cosmo_dispersion_energy": -20.12, 
			 "cosmo_repulsion_energy": 1.62, 
			 "cosmo_total_nonelectrostatic_energy": 9.2, 
			 "SMD_solvation_energy": 5.85 
		},
		"coords": [
			{
				"x": 3.4435319845,
				"y": -2.5134475953,
				"z": -0.147620322,
				"element": "C" 
			},
			{
				"x": 3.1655503787,
				"y": -1.1673144032,
				"z": -0.5487041781,
				"element": "O" 
			},
			{
				"x": 1.903154075,
				"y": -0.7248260095,
				"z": -0.259950761,
				"element": "C" 
			},
			{
				"x": 1.6836164475,
				"y": 0.000769717,
				"z": 0.9142386445,
				"element": "C" 
			},
			{
				"x": 0.4230193831,
				"y": 0.5147746648,
				"z": 1.2073401214,
				"element": "C" 
			},
			{
				"x": 0.1902744344,
				"y": 1.4423135459,
				"z": 2.67400189,
				"element": "Cl" 
			},
			{
				"x": -0.6527060367,
				"y": 0.3129169982,
				"z": 0.3284930472,
				"element": "C" 
			},
			{
				"x": -1.8877993221,
				"y": 0.854363926,
				"z": 0.5612729802,
				"element": "O" 
			},
			{
				"x": -2.7572749778,
				"y": 0.0566721014,
				"z": 1.37240013,
				"element": "C" 
			},
			{
				"x": -0.4326897468,
				"y": -0.4109550873,
				"z": -0.8466661938,
				"element": "C" 
			},
			{
				"x": 0.8281202306,
				"y": -0.9241831734,
				"z": -1.1402103072,
				"element": "C" 
			},
			{
				"x": 1.0743366105,
				"y": -1.8028985884,
				"z": -2.6344745929,
				"element": "Cl" 
			},
			{
				"x": 3.3360117154,
				"y": -2.6301631222,
				"z": 0.9382051399,
				"element": "H" 
			},
			{
				"x": 2.7855217974,
				"y": -3.2263087192,
				"z": -0.6569489355,
				"element": "H" 
			},
			{
				"x": 4.4784411345,
				"y": -2.7086124087,
				"z": -0.4333206865,
				"element": "H" 
			},
			{
				"x": 2.51829109,
				"y": 0.1722909917,
				"z": 1.584204047,
				"element": "H" 
			},
			{
				"x": -3.6926342722,
				"y": 0.6127377422,
				"z": 1.4539080252,
				"element": "H" 
			},
			{
				"x": -2.950252407,
				"y": -0.9160999319,
				"z": 0.902640036,
				"element": "H" 
			},
			{
				"x": -2.3390437264,
				"y": -0.0992491987,
				"z": 2.3730668451,
				"element": "H" 
			},
			{
				"x": -1.2582687923,
				"y": -0.5494814493,
				"z": -1.5352749296,
				"element": "H" 
			}
		],
		 "valence_orbital": [ 
			{
				"type": "occ",
				"energy": -0.31172,
				"method": "rhf"
			},
			{
				"type": "occ",
				"energy": -0.28653,
				"method": "rhf"
			},
			{
				"type": "occ",
				"energy": -0.28553,
				"method": "rhf"
			},
			{
				"type": "occ",
				"energy": -0.26112,
				"method": "rhf"
			},
			{
				"type": "occ",
				"energy": -0.23953,
				"method": "rhf"
			},
			{
				"type": "unocc",
				"energy": -0.02681,
				"method": "rhf"
			},
			{
				"type": "unocc",
				"energy": -0.01681,
				"method": "rhf"
			},
			{
				"type": "unocc",
				"energy": 0.01396,
				"method": "rhf"
			},
			{
				"type": "unocc",
				"energy": 0.03599,
				"method": "rhf"
			},
			{
				"type": "unocc",
				"energy": 0.09989,
				"method": "rhf"
			}
		],
		"cosmo_sigma_profile": { 
			"-0.025": 0.0,
			"-0.024": 0.0,
			"-0.023": 0.0,
			"-0.022": 0.0,
			"-0.021": 0.0,
			"-0.02": 0.0,
			"-0.019": 0.0,
			"-0.018": 0.0,
			"-0.017": 0.0,
			"-0.016": 0.0,
			"-0.015": 0.0,
			"-0.014": 0.0,
			"-0.013": 0.0,
			"-0.012": 0.0,
			"-0.011": 0.0,
			"-0.01": 0.0,
			"-0.009": 0.188137964821,
			"-0.008": 2.71384120622,
			"-0.007": 2.43964259178,
			"-0.006": 7.09677303795,
			"-0.005": 14.0369928834,
			"-0.004": 19.556679066,
			"-0.003": 27.6547890331,
			"-0.002": 18.0633766555,
			"-0.001": 13.5902974021,
			"0.0": 18.0380369515,
			"0.001": 27.6142087074,
			"0.002": 17.2731028048,
			"0.003": 14.2299767125,
			"0.004": 17.0977793608,
			"0.005": 7.22663990074,
			"0.006": 3.48246719425,
			"0.007": 3.20604668822,
			"0.008": 3.21775693986,
			"0.009": 2.98418288657,
			"0.01": 3.06118419144,
			"0.011": 2.40841263653,
			"0.012": 0.0358104893997,
			"0.013": 0.0,
			"0.014": 0.0,
			"0.015": 0.0,
			"0.016": 0.0,
			"0.017": 0.0,
			"0.018": 0.0,
			"0.019": 0.0,
			"0.02": 0.0,
			"0.021": 0.0,
			"0.022": 0.0,
			"0.023": 0.0,
			"0.024": 0.0,
			"0.025": 0.0
		}
	}
}
