{
	 "smiles": "OC(=O)CN1N=C(CC1=O)C(F)(F)F", 
	 "Tm": 492.15, 
	 "num_atms": 19, 
	 "gaussian": { 
		 "optdone": 1, 
		 "sigma_profile": "yes", 
		 "theory": "DFT", 
		 "functional": "B3LYP", 
		 "basiset": "6-31G**", 
		 "properties": { 
			 "R2extent": 3650.5451, 
			 "electric_dipole_moment_norm": 4.72959628827, 
			 "electric_quadrupole_moment_norm": 14.0753356607, 
			 "total_energy": -866.330243933, 
			 "HOMO_LUMO_gap": 0.18483, 
			 "cosmo_polarized_energy": -16.52, 
			 "cosmo_cavitation_energy": 25.9, 
			 "cosmo_dispersion_energy": -18.48, 
			 "cosmo_repulsion_energy": 1.41, 
			 "cosmo_total_nonelectrostatic_energy": 8.84, 
			 "SMD_solvation_energy": 6.4 
		},
		"coords": [
			{
				"x": -2.6220214948,
				"y": -0.269346002,
				"z": -0.9210128734,
				"element": "O" 
			},
			{
				"x": -1.5515661443,
				"y": -0.9568063702,
				"z": -1.3410770296,
				"element": "C" 
			},
			{
				"x": -1.4546630314,
				"y": -1.3825744438,
				"z": -2.465220592,
				"element": "O" 
			},
			{
				"x": -0.4609035962,
				"y": -1.2325456624,
				"z": -0.284952151,
				"element": "C" 
			},
			{
				"x": 0.0281500686,
				"y": -0.0482601294,
				"z": 0.415976425,
				"element": "N" 
			},
			{
				"x": 1.3591719191,
				"y": 0.32252238,
				"z": 0.3053325577,
				"element": "N" 
			},
			{
				"x": 1.5481715826,
				"y": 1.3174863551,
				"z": 1.0979349564,
				"element": "C" 
			},
			{
				"x": 0.3200026715,
				"y": 1.7265424593,
				"z": 1.854061593,
				"element": "C" 
			},
			{
				"x": -0.6818414329,
				"y": 0.7152319359,
				"z": 1.3144447154,
				"element": "C" 
			},
			{
				"x": -1.8735014488,
				"y": 0.576662876,
				"z": 1.5703586614,
				"element": "O" 
			},
			{
				"x": 2.8901239809,
				"y": 1.9733258002,
				"z": 1.232557555,
				"element": "C" 
			},
			{
				"x": 3.3064611743,
				"y": 1.9059194998,
				"z": 2.5176823988,
				"element": "F" 
			},
			{
				"x": 2.797870942,
				"y": 3.2836935021,
				"z": 0.9146261512,
				"element": "F" 
			},
			{
				"x": 3.8160940669,
				"y": 1.4093899115,
				"z": 0.4545250544,
				"element": "F" 
			},
			{
				"x": -2.5516414499,
				"y": -0.0321347275,
				"z": 0.0317623703,
				"element": "H" 
			},
			{
				"x": -0.8582739551,
				"y": -1.9398260849,
				"z": 0.454175273,
				"element": "H" 
			},
			{
				"x": 0.3908319503,
				"y": -1.6826560119,
				"z": -0.7898438062,
				"element": "H" 
			},
			{
				"x": -0.0028964964,
				"y": 2.7505499727,
				"z": 1.6365595265,
				"element": "H" 
			},
			{
				"x": 0.4322306938,
				"y": 1.6420247395,
				"z": 2.9405092144,
				"element": "H" 
			}
		],
		 "valence_orbital": [ 
			{
				"type": "occ",
				"energy": -0.35857,
				"method": "rhf"
			},
			{
				"type": "occ",
				"energy": -0.31582,
				"method": "rhf"
			},
			{
				"type": "occ",
				"energy": -0.30903,
				"method": "rhf"
			},
			{
				"type": "occ",
				"energy": -0.29619,
				"method": "rhf"
			},
			{
				"type": "occ",
				"energy": -0.26616,
				"method": "rhf"
			},
			{
				"type": "unocc",
				"energy": -0.08133,
				"method": "rhf"
			},
			{
				"type": "unocc",
				"energy": -0.01597,
				"method": "rhf"
			},
			{
				"type": "unocc",
				"energy": 0.00078,
				"method": "rhf"
			},
			{
				"type": "unocc",
				"energy": 0.06911,
				"method": "rhf"
			},
			{
				"type": "unocc",
				"energy": 0.08003,
				"method": "rhf"
			}
		],
		"cosmo_sigma_profile": { 
			"-0.025": 0.0,
			"-0.024": 0.0,
			"-0.023": 0.0,
			"-0.022": 0.0,
			"-0.021": 0.0,
			"-0.02": 0.0,
			"-0.019": 0.0,
			"-0.018": 0.0,
			"-0.017": 0.0,
			"-0.016": 0.0,
			"-0.015": 0.0,
			"-0.014": 0.0,
			"-0.013": 0.0,
			"-0.012": 0.0,
			"-0.011": 1.63695377134,
			"-0.01": 7.51054244087,
			"-0.009": 9.53208181176,
			"-0.008": 9.22433087869,
			"-0.007": 10.6564291034,
			"-0.006": 12.4440070352,
			"-0.005": 9.17366667115,
			"-0.004": 9.32557184262,
			"-0.003": 8.77661645759,
			"-0.002": 6.69403210965,
			"-0.001": 8.6900090652,
			"0.0": 9.50869261441,
			"0.001": 14.4680636921,
			"0.002": 30.050949324,
			"0.003": 9.02493762159,
			"0.004": 5.85839730566,
			"0.005": 4.856957951,
			"0.006": 2.6648171187,
			"0.007": 5.03343503622,
			"0.008": 5.02065635095,
			"0.009": 6.52151266943,
			"0.01": 7.67188506614,
			"0.011": 7.88199914318,
			"0.012": 4.71914556517,
			"0.013": 0.768172873873,
			"0.014": 0.0,
			"0.015": 0.0,
			"0.016": 0.0,
			"0.017": 0.0,
			"0.018": 0.0,
			"0.019": 0.0,
			"0.02": 0.0,
			"0.021": 0.0,
			"0.022": 0.0,
			"0.023": 0.0,
			"0.024": 0.0,
			"0.025": 0.0
		}
	}
}
