{
	 "smiles": "CNCCCN", 
	 "Tm": 201.15, 
	 "num_atms": 18, 
	 "gaussian": { 
		 "optdone": 1, 
		 "sigma_profile": "yes", 
		 "theory": "DFT", 
		 "functional": "B3LYP", 
		 "basiset": "6-31G**", 
		 "properties": { 
			 "R2extent": 1108.8611, 
			 "electric_dipole_moment_norm": 1.47912586009, 
			 "electric_quadrupole_moment_norm": 5.51067716256, 
			 "total_energy": -269.147916544, 
			 "HOMO_LUMO_gap": 0.29749, 
			 "cosmo_polarized_energy": -7.45, 
			 "cosmo_cavitation_energy": 19.81, 
			 "cosmo_dispersion_energy": -14.66, 
			 "cosmo_repulsion_energy": 1.3, 
			 "cosmo_total_nonelectrostatic_energy": 6.46, 
			 "SMD_solvation_energy": 0.81 
		},
		"coords": [
			{
				"x": 0.8992703994,
				"y": -1.0721265903,
				"z": 0.3920883624,
				"element": "C" 
			},
			{
				"x": 0.5420799044,
				"y": 0.2995984365,
				"z": 0.0461038641,
				"element": "N" 
			},
			{
				"x": -0.3862613609,
				"y": 0.4101608972,
				"z": -1.0819915456,
				"element": "C" 
			},
			{
				"x": -1.8331801477,
				"y": 0.0795981504,
				"z": -0.693114069,
				"element": "C" 
			},
			{
				"x": -2.3986555668,
				"y": 1.0036925369,
				"z": 0.3868410664,
				"element": "C" 
			},
			{
				"x": -3.7569068931,
				"y": 0.5906312861,
				"z": 0.7582325374,
				"element": "N" 
			},
			{
				"x": 1.2700446433,
				"y": -1.6710714294,
				"z": -0.4609205522,
				"element": "H" 
			},
			{
				"x": 0.0321799512,
				"y": -1.5953141352,
				"z": 0.8076935969,
				"element": "H" 
			},
			{
				"x": 1.6735738381,
				"y": -1.0627559906,
				"z": 1.1653066909,
				"element": "H" 
			},
			{
				"x": 1.3890550535,
				"y": 0.8145703767,
				"z": -0.1741132891,
				"element": "H" 
			},
			{
				"x": -0.090504407,
				"y": -0.233963108,
				"z": -1.9327599103,
				"element": "H" 
			},
			{
				"x": -0.3434787841,
				"y": 1.4461401334,
				"z": -1.4416997799,
				"element": "H" 
			},
			{
				"x": -2.4528136873,
				"y": 0.1445348094,
				"z": -1.5990280396,
				"element": "H" 
			},
			{
				"x": -1.9153971465,
				"y": -0.9563692338,
				"z": -0.3444060903,
				"element": "H" 
			},
			{
				"x": -1.7616482754,
				"y": 0.9348813041,
				"z": 1.2740474207,
				"element": "H" 
			},
			{
				"x": -2.3270412136,
				"y": 2.0500539795,
				"z": 0.0338629321,
				"element": "H" 
			},
			{
				"x": -4.391107331,
				"y": 0.7524292554,
				"z": -0.0217085721,
				"element": "H" 
			},
			{
				"x": -4.0983089765,
				"y": 1.1692093217,
				"z": 1.5218653772,
				"element": "H" 
			}
		],
		 "valence_orbital": [ 
			{
				"type": "occ",
				"energy": -0.33845,
				"method": "rhf"
			},
			{
				"type": "occ",
				"energy": -0.32698,
				"method": "rhf"
			},
			{
				"type": "occ",
				"energy": -0.32323,
				"method": "rhf"
			},
			{
				"type": "occ",
				"energy": -0.2237,
				"method": "rhf"
			},
			{
				"type": "occ",
				"energy": -0.21534,
				"method": "rhf"
			},
			{
				"type": "unocc",
				"energy": 0.08215,
				"method": "rhf"
			},
			{
				"type": "unocc",
				"energy": 0.09465,
				"method": "rhf"
			},
			{
				"type": "unocc",
				"energy": 0.11857,
				"method": "rhf"
			},
			{
				"type": "unocc",
				"energy": 0.1329,
				"method": "rhf"
			},
			{
				"type": "unocc",
				"energy": 0.15099,
				"method": "rhf"
			}
		],
		"cosmo_sigma_profile": { 
			"-0.025": 0.0,
			"-0.024": 0.0,
			"-0.023": 0.0,
			"-0.022": 0.0,
			"-0.021": 0.0,
			"-0.02": 0.0,
			"-0.019": 0.0,
			"-0.018": 0.0,
			"-0.017": 0.0,
			"-0.016": 0.0,
			"-0.015": 0.0,
			"-0.014": 0.0,
			"-0.013": 0.0,
			"-0.012": 0.0,
			"-0.011": 0.0,
			"-0.01": 0.72503873071,
			"-0.009": 3.43336501113,
			"-0.008": 4.59179080326,
			"-0.007": 2.41705631713,
			"-0.006": 4.94464158593,
			"-0.005": 4.87048580674,
			"-0.004": 5.60541674824,
			"-0.003": 12.2521655581,
			"-0.002": 15.9680565082,
			"-0.001": 27.3110882805,
			"0.0": 25.9693384408,
			"0.001": 11.6519970623,
			"0.002": 4.98727582223,
			"0.003": 4.18678986106,
			"0.004": 2.69348792996,
			"0.005": 1.93716385254,
			"0.006": 1.53128770131,
			"0.007": 1.5046857335,
			"0.008": 1.27530901594,
			"0.009": 2.30206382815,
			"0.01": 1.92869240972,
			"0.011": 1.32236998488,
			"0.012": 1.63375923486,
			"0.013": 1.72706661397,
			"0.014": 0.715399753022,
			"0.015": 0.475509415165,
			"0.016": 1.13089691215,
			"0.017": 0.77635138715,
			"0.018": 0.822100192958,
			"0.019": 0.321739519615,
			"0.02": 0.581159174887,
			"0.021": 0.0866323829145,
			"0.022": 0.0,
			"0.023": 0.0,
			"0.024": 0.0,
			"0.025": 0.0
		}
	}
}
