{
	 "smiles": "NC1=CC=C(C=C1[N+]([O-])=O)[N+]([O-])=O", 
	 "Tm": 451.15, 
	 "num_atms": 18, 
	 "gaussian": { 
		 "optdone": 1, 
		 "sigma_profile": "yes", 
		 "theory": "DFT", 
		 "functional": "B3LYP", 
		 "basiset": "6-31G**", 
		 "properties": { 
			 "R2extent": 3980.6099, 
			 "electric_dipole_moment_norm": 6.63112656869, 
			 "electric_quadrupole_moment_norm": 19.1506916011, 
			 "total_energy": -696.609214897, 
			 "HOMO_LUMO_gap": 0.14992, 
			 "cosmo_polarized_energy": -16.73, 
			 "cosmo_cavitation_energy": 23.83, 
			 "cosmo_dispersion_energy": -17.91, 
			 "cosmo_repulsion_energy": 1.41, 
			 "cosmo_total_nonelectrostatic_energy": 7.33, 
			 "SMD_solvation_energy": 8.43 
		},
		"coords": [
			{
				"x": -0.4734014758,
				"y": -1.0146371641,
				"z": -2.3615190396,
				"element": "N" 
			},
			{
				"x": -0.6380668428,
				"y": 0.1234284081,
				"z": -1.6577203107,
				"element": "C" 
			},
			{
				"x": 0.471925172,
				"y": 0.9911637334,
				"z": -1.4524866348,
				"element": "C" 
			},
			{
				"x": 0.358522901,
				"y": 2.1636590747,
				"z": -0.7427999957,
				"element": "C" 
			},
			{
				"x": -0.8854594918,
				"y": 2.5260577201,
				"z": -0.199374597,
				"element": "C" 
			},
			{
				"x": -1.9966353962,
				"y": 1.722167859,
				"z": -0.3670824503,
				"element": "C" 
			},
			{
				"x": -1.8828737298,
				"y": 0.5319717502,
				"z": -1.0870774391,
				"element": "C" 
			},
			{
				"x": -3.0920695032,
				"y": -0.2662643281,
				"z": -1.2251673915,
				"element": "N" 
			},
			{
				"x": -4.1262353131,
				"y": 0.1464960522,
				"z": -0.708194364,
				"element": "O" 
			},
			{
				"x": -3.0299429849,
				"y": -1.3342766233,
				"z": -1.8609685088,
				"element": "O" 
			},
			{
				"x": -1.0067762728,
				"y": 3.7705860143,
				"z": 0.5540752272,
				"element": "N" 
			},
			{
				"x": -2.111017995,
				"y": 4.0576132309,
				"z": 1.0162841111,
				"element": "O" 
			},
			{
				"x": 0.0095836531,
				"y": 4.4572530671,
				"z": 0.6793917082,
				"element": "O" 
			},
			{
				"x": 0.4309066342,
				"y": -1.2465140084,
				"z": -2.7381036857,
				"element": "H" 
			},
			{
				"x": -1.2728157076,
				"y": -1.6184684255,
				"z": -2.4968837612,
				"element": "H" 
			},
			{
				"x": 1.430182965,
				"y": 0.7045889893,
				"z": -1.8754280256,
				"element": "H" 
			},
			{
				"x": 1.2093860739,
				"y": 2.8166102633,
				"z": -0.5925901459,
				"element": "H" 
			},
			{
				"x": -2.9522126863,
				"y": 2.0048643868,
				"z": 0.0529453035,
				"element": "H" 
			}
		],
		 "valence_orbital": [ 
			{
				"type": "occ",
				"energy": -0.31118,
				"method": "rhf"
			},
			{
				"type": "occ",
				"energy": -0.3055,
				"method": "rhf"
			},
			{
				"type": "occ",
				"energy": -0.302,
				"method": "rhf"
			},
			{
				"type": "occ",
				"energy": -0.29317,
				"method": "rhf"
			},
			{
				"type": "occ",
				"energy": -0.25285,
				"method": "rhf"
			},
			{
				"type": "unocc",
				"energy": -0.10293,
				"method": "rhf"
			},
			{
				"type": "unocc",
				"energy": -0.08958,
				"method": "rhf"
			},
			{
				"type": "unocc",
				"energy": -0.02519,
				"method": "rhf"
			},
			{
				"type": "unocc",
				"energy": 0.00655,
				"method": "rhf"
			},
			{
				"type": "unocc",
				"energy": 0.05599,
				"method": "rhf"
			}
		],
		"cosmo_sigma_profile": { 
			"-0.025": 0.0,
			"-0.024": 0.0,
			"-0.023": 0.0,
			"-0.022": 0.0,
			"-0.021": 0.0,
			"-0.02": 0.0,
			"-0.019": 0.0,
			"-0.018": 0.0,
			"-0.017": 0.0,
			"-0.016": 0.643475027402,
			"-0.015": 1.73629699423,
			"-0.014": 1.73625048459,
			"-0.013": 1.87678750945,
			"-0.012": 2.05362734322,
			"-0.011": 2.5164972652,
			"-0.01": 2.28555173474,
			"-0.009": 2.52986148331,
			"-0.008": 4.19666852373,
			"-0.007": 5.64884535027,
			"-0.006": 7.22678471856,
			"-0.005": 8.21846555709,
			"-0.004": 10.0529559308,
			"-0.003": 13.1147195753,
			"-0.002": 18.7517312305,
			"-0.001": 18.1108330331,
			"0.0": 10.3570603099,
			"0.001": 10.6163517582,
			"0.002": 6.35099506073,
			"0.003": 4.9702430776,
			"0.004": 3.96675639922,
			"0.005": 5.64671578651,
			"0.006": 7.44034296375,
			"0.007": 11.1124773044,
			"0.008": 14.3838309236,
			"0.009": 9.05823886005,
			"0.01": 6.25341778668,
			"0.011": 0.767845266882,
			"0.012": 0.0,
			"0.013": 0.0,
			"0.014": 0.0,
			"0.015": 0.0,
			"0.016": 0.0,
			"0.017": 0.0,
			"0.018": 0.0,
			"0.019": 0.0,
			"0.02": 0.0,
			"0.021": 0.0,
			"0.022": 0.0,
			"0.023": 0.0,
			"0.024": 0.0,
			"0.025": 0.0
		}
	}
}
