{
	 "smiles": "CC1=CC=C(C)N1C1=CC(Cl)=CC(Cl)=C1", 
	 "Tm": 352.15, 
	 "num_atms": 26, 
	 "gaussian": { 
		 "optdone": 1, 
		 "sigma_profile": "yes", 
		 "theory": "DFT", 
		 "functional": "B3LYP", 
		 "basiset": "6-31G**", 
		 "properties": { 
			 "R2extent": 6483.0333, 
			 "electric_dipole_moment_norm": 0.141547377228, 
			 "electric_quadrupole_moment_norm": 4.44288285576, 
			 "total_energy": -1439.04257643, 
			 "HOMO_LUMO_gap": 0.15854, 
			 "cosmo_polarized_energy": -5.8, 
			 "cosmo_cavitation_energy": 33.38, 
			 "cosmo_dispersion_energy": -23.28, 
			 "cosmo_repulsion_energy": 1.85, 
			 "cosmo_total_nonelectrostatic_energy": 11.95, 
			 "SMD_solvation_energy": 5.28 
		},
		"coords": [
			{
				"x": 2.3846804677,
				"y": -1.7546894726,
				"z": 0.4163785697,
				"element": "C" 
			},
			{
				"x": 1.5210983389,
				"y": -0.9502873029,
				"z": -0.5028043857,
				"element": "C" 
			},
			{
				"x": 1.8702739971,
				"y": -0.0704112379,
				"z": -1.5005807216,
				"element": "C" 
			},
			{
				"x": 0.6745580385,
				"y": 0.4807007156,
				"z": -2.0459502654,
				"element": "C" 
			},
			{
				"x": -0.3943092199,
				"y": -0.0593372774,
				"z": -1.3695349423,
				"element": "C" 
			},
			{
				"x": -1.8626842768,
				"y": 0.1394124742,
				"z": -1.5747395226,
				"element": "C" 
			},
			{
				"x": 0.1259626062,
				"y": -0.9427949157,
				"z": -0.4197136102,
				"element": "N" 
			},
			{
				"x": -0.6453358394,
				"y": -1.7154963635,
				"z": 0.49057026,
				"element": "C" 
			},
			{
				"x": -0.661855505,
				"y": -3.1106190147,
				"z": 0.3788489926,
				"element": "C" 
			},
			{
				"x": -1.4161290761,
				"y": -3.8518516574,
				"z": 1.2857404594,
				"element": "C" 
			},
			{
				"x": -1.4373932674,
				"y": -5.6009633449,
				"z": 1.1538798303,
				"element": "Cl" 
			},
			{
				"x": -2.1689455384,
				"y": -3.2421424473,
				"z": 2.2888123818,
				"element": "C" 
			},
			{
				"x": -2.1412271316,
				"y": -1.8503257392,
				"z": 2.3705993892,
				"element": "C" 
			},
			{
				"x": -3.0727054747,
				"y": -1.0558326762,
				"z": 3.6269261377,
				"element": "Cl" 
			},
			{
				"x": -1.3839756852,
				"y": -1.0769839296,
				"z": 1.4934747101,
				"element": "C" 
			},
			{
				"x": 2.1766671713,
				"y": -1.5433442903,
				"z": 1.4724422999,
				"element": "H" 
			},
			{
				"x": 2.2728309261,
				"y": -2.8368413083,
				"z": 0.2776912947,
				"element": "H" 
			},
			{
				"x": 3.4319867461,
				"y": -1.5065302304,
				"z": 0.2281061576,
				"element": "H" 
			},
			{
				"x": 2.8848658751,
				"y": 0.1571879853,
				"z": -1.7982707413,
				"element": "H" 
			},
			{
				"x": 0.5985355246,
				"y": 1.1929838596,
				"z": -2.8563146332,
				"element": "H" 
			},
			{
				"x": -2.3867425945,
				"y": -0.8050731085,
				"z": -1.7658044449,
				"element": "H" 
			},
			{
				"x": -2.0161089702,
				"y": 0.785705111,
				"z": -2.4422921427,
				"element": "H" 
			},
			{
				"x": -2.3582745415,
				"y": 0.6139189017,
				"z": -0.7191460558,
				"element": "H" 
			},
			{
				"x": -0.1057766605,
				"y": -3.6002524181,
				"z": -0.4110944374,
				"element": "H" 
			},
			{
				"x": -2.7563412668,
				"y": -3.8307182843,
				"z": 2.9821216451,
				"element": "H" 
			},
			{
				"x": -1.3526546433,
				"y": 0.0012859717,
				"z": 1.5900537752,
				"element": "H" 
			}
		],
		 "valence_orbital": [ 
			{
				"type": "occ",
				"energy": -0.32358,
				"method": "rhf"
			},
			{
				"type": "occ",
				"energy": -0.27554,
				"method": "rhf"
			},
			{
				"type": "occ",
				"energy": -0.26178,
				"method": "rhf"
			},
			{
				"type": "occ",
				"energy": -0.23366,
				"method": "rhf"
			},
			{
				"type": "occ",
				"energy": -0.19678,
				"method": "rhf"
			},
			{
				"type": "unocc",
				"energy": -0.03824,
				"method": "rhf"
			},
			{
				"type": "unocc",
				"energy": -0.03501,
				"method": "rhf"
			},
			{
				"type": "unocc",
				"energy": -0.00263,
				"method": "rhf"
			},
			{
				"type": "unocc",
				"energy": 0.03275,
				"method": "rhf"
			},
			{
				"type": "unocc",
				"energy": 0.04697,
				"method": "rhf"
			}
		],
		"cosmo_sigma_profile": { 
			"-0.025": 0.0,
			"-0.024": 0.0,
			"-0.023": 0.0,
			"-0.022": 0.0,
			"-0.021": 0.0,
			"-0.02": 0.0,
			"-0.019": 0.0,
			"-0.018": 0.0,
			"-0.017": 0.0,
			"-0.016": 0.0,
			"-0.015": 0.0,
			"-0.014": 0.0,
			"-0.013": 0.0,
			"-0.012": 0.0,
			"-0.011": 0.0,
			"-0.01": 0.0,
			"-0.009": 0.567874102285,
			"-0.008": 3.82861603919,
			"-0.007": 4.19949936212,
			"-0.006": 5.98073970431,
			"-0.005": 10.5327794575,
			"-0.004": 18.3899564108,
			"-0.003": 20.6210365613,
			"-0.002": 26.2152977908,
			"-0.001": 28.4195098289,
			"0.0": 38.8208640756,
			"0.001": 32.0739309335,
			"0.002": 16.3978919526,
			"0.003": 19.094266609,
			"0.004": 22.675753136,
			"0.005": 6.72294952236,
			"0.006": 3.71622594544,
			"0.007": 4.75120692638,
			"0.008": 4.34725364067,
			"0.009": 3.1376522936,
			"0.01": 0.211152542716,
			"0.011": 0.0,
			"0.012": 0.0,
			"0.013": 0.0,
			"0.014": 0.0,
			"0.015": 0.0,
			"0.016": 0.0,
			"0.017": 0.0,
			"0.018": 0.0,
			"0.019": 0.0,
			"0.02": 0.0,
			"0.021": 0.0,
			"0.022": 0.0,
			"0.023": 0.0,
			"0.024": 0.0,
			"0.025": 0.0
		}
	}
}
