{
	 "smiles": "COC(=O)C=CC1=CC=C(C=CC(=O)OC)C(=C1)[N+]([O-])=O", 
	 "Tm": 439.15, 
	 "num_atms": 34, 
	 "gaussian": { 
		 "optdone": 1, 
		 "sigma_profile": "yes", 
		 "theory": "DFT", 
		 "functional": "B3LYP", 
		 "basiset": "6-31G**", 
		 "properties": { 
			 "R2extent": 11672.5043, 
			 "electric_dipole_moment_norm": 1.11125515522, 
			 "electric_quadrupole_moment_norm": 17.4209586358, 
			 "total_energy": -1047.29668838, 
			 "HOMO_LUMO_gap": 0.13663, 
			 "cosmo_polarized_energy": -18.41, 
			 "cosmo_cavitation_energy": 41.62, 
			 "cosmo_dispersion_energy": -29.31, 
			 "cosmo_repulsion_energy": 2.25, 
			 "cosmo_total_nonelectrostatic_energy": 14.56, 
			 "SMD_solvation_energy": 12.73 
		},
		"coords": [
			{
				"x": -6.7126313241,
				"y": -1.1791205361,
				"z": 2.3442042119,
				"element": "C" 
			},
			{
				"x": -5.4685790629,
				"y": -0.8049084366,
				"z": 1.7322296724,
				"element": "O" 
			},
			{
				"x": -5.5490111361,
				"y": 0.2118196461,
				"z": 0.8416028265,
				"element": "C" 
			},
			{
				"x": -6.5877099798,
				"y": 0.7810550671,
				"z": 0.5654459753,
				"element": "O" 
			},
			{
				"x": -4.2460158232,
				"y": 0.5617233018,
				"z": 0.2371040492,
				"element": "C" 
			},
			{
				"x": -3.0866787021,
				"y": -0.0556767153,
				"z": 0.528398687,
				"element": "C" 
			},
			{
				"x": -1.7703090544,
				"y": 0.2444109551,
				"z": -0.036651254,
				"element": "C" 
			},
			{
				"x": -1.5344845327,
				"y": 1.247135055,
				"z": -0.9945978204,
				"element": "C" 
			},
			{
				"x": -0.2597482436,
				"y": 1.465426334,
				"z": -1.492172935,
				"element": "C" 
			},
			{
				"x": 0.8711738065,
				"y": 0.7263328101,
				"z": -1.0765650165,
				"element": "C" 
			},
			{
				"x": 2.1180507349,
				"y": 1.0326245018,
				"z": -1.7851437773,
				"element": "C" 
			},
			{
				"x": 3.2690893163,
				"y": 0.3479098247,
				"z": -1.8963510032,
				"element": "C" 
			},
			{
				"x": 4.3338623551,
				"y": 0.8879988507,
				"z": -2.7764878308,
				"element": "C" 
			},
			{
				"x": 4.2736160414,
				"y": 1.9214801015,
				"z": -3.4161441021,
				"element": "O" 
			},
			{
				"x": 5.4068006651,
				"y": 0.0662517462,
				"z": -2.7807962055,
				"element": "O" 
			},
			{
				"x": 6.504758411,
				"y": 0.4964085075,
				"z": -3.5999179382,
				"element": "C" 
			},
			{
				"x": 0.6132290253,
				"y": -0.2529091912,
				"z": -0.0907125302,
				"element": "C" 
			},
			{
				"x": -0.6642334507,
				"y": -0.5019579239,
				"z": 0.3966847805,
				"element": "C" 
			},
			{
				"x": 1.6782532604,
				"y": -1.0548573043,
				"z": 0.5442153013,
				"element": "N" 
			},
			{
				"x": 2.7301112377,
				"y": -0.4879932262,
				"z": 0.8285650707,
				"element": "O" 
			},
			{
				"x": 1.4215430499,
				"y": -2.2325467083,
				"z": 0.7885049041,
				"element": "O" 
			},
			{
				"x": -6.4725220714,
				"y": -1.9985296382,
				"z": 3.0215113351,
				"element": "H" 
			},
			{
				"x": -7.4314872254,
				"y": -1.504059617,
				"z": 1.5878292969,
				"element": "H" 
			},
			{
				"x": -7.1391709893,
				"y": -0.337407686,
				"z": 2.8956161027,
				"element": "H" 
			},
			{
				"x": -4.3143544413,
				"y": 1.3771735,
				"z": -0.4754775284,
				"element": "H" 
			},
			{
				"x": -3.1136111724,
				"y": -0.8630799747,
				"z": 1.2559036102,
				"element": "H" 
			},
			{
				"x": -2.3532996132,
				"y": 1.8573018689,
				"z": -1.3607353428,
				"element": "H" 
			},
			{
				"x": -0.1142698934,
				"y": 2.2289861849,
				"z": -2.2501525641,
				"element": "H" 
			},
			{
				"x": 2.069060434,
				"y": 1.9445575992,
				"z": -2.3781128072,
				"element": "H" 
			},
			{
				"x": 3.4876797599,
				"y": -0.5787959334,
				"z": -1.3839611877,
				"element": "H" 
			},
			{
				"x": 6.8780460563,
				"y": 1.4670092327,
				"z": -3.2633625688,
				"element": "H" 
			},
			{
				"x": 7.2725596553,
				"y": -0.2689965587,
				"z": -3.4892962048,
				"element": "H" 
			},
			{
				"x": 6.1949307737,
				"y": 0.5827201427,
				"z": -4.6446288024,
				"element": "H" 
			},
			{
				"x": -0.7878478664,
				"y": -1.2861857801,
				"z": 1.1347515955,
				"element": "H" 
			}
		],
		 "valence_orbital": [ 
			{
				"type": "occ",
				"energy": -0.29368,
				"method": "rhf"
			},
			{
				"type": "occ",
				"energy": -0.28465,
				"method": "rhf"
			},
			{
				"type": "occ",
				"energy": -0.28005,
				"method": "rhf"
			},
			{
				"type": "occ",
				"energy": -0.27827,
				"method": "rhf"
			},
			{
				"type": "occ",
				"energy": -0.24746,
				"method": "rhf"
			},
			{
				"type": "unocc",
				"energy": -0.11083,
				"method": "rhf"
			},
			{
				"type": "unocc",
				"energy": -0.0825,
				"method": "rhf"
			},
			{
				"type": "unocc",
				"energy": -0.04627,
				"method": "rhf"
			},
			{
				"type": "unocc",
				"energy": -0.02947,
				"method": "rhf"
			},
			{
				"type": "unocc",
				"energy": 0.01548,
				"method": "rhf"
			}
		],
		"cosmo_sigma_profile": { 
			"-0.025": 0.0,
			"-0.024": 0.0,
			"-0.023": 0.0,
			"-0.022": 0.0,
			"-0.021": 0.0,
			"-0.02": 0.0,
			"-0.019": 0.0,
			"-0.018": 0.0,
			"-0.017": 0.0,
			"-0.016": 0.0,
			"-0.015": 0.0,
			"-0.014": 0.0,
			"-0.013": 0.0,
			"-0.012": 0.0,
			"-0.011": 0.020711072309,
			"-0.01": 2.44396180367,
			"-0.009": 7.04554641715,
			"-0.008": 8.95032779249,
			"-0.007": 11.3541121147,
			"-0.006": 18.1458499368,
			"-0.005": 21.4201319757,
			"-0.004": 24.0206931308,
			"-0.003": 27.0022287512,
			"-0.002": 23.9920680662,
			"-0.001": 28.2514867473,
			"0.0": 32.5961753911,
			"0.001": 23.6671089236,
			"0.002": 13.1522459116,
			"0.003": 10.6811820448,
			"0.004": 9.12002519802,
			"0.005": 9.14784848067,
			"0.006": 10.3276574802,
			"0.007": 14.2941962414,
			"0.008": 10.2817577397,
			"0.009": 6.19171191432,
			"0.01": 4.05016204979,
			"0.011": 5.81369882552,
			"0.012": 9.41705792905,
			"0.013": 1.78011105284,
			"0.014": 0.0,
			"0.015": 0.0,
			"0.016": 0.0,
			"0.017": 0.0,
			"0.018": 0.0,
			"0.019": 0.0,
			"0.02": 0.0,
			"0.021": 0.0,
			"0.022": 0.0,
			"0.023": 0.0,
			"0.024": 0.0,
			"0.025": 0.0
		}
	}
}
