{
	 "smiles": "COC(=O)C1=C(CC2=C(CC3=C(C2)CC(C(=O)OC)=C(C3)C(=O)OC)C1)C(=O)OC", 
	 "Tm": 533.15, 
	 "num_atms": 54, 
	 "gaussian": { 
		 "optdone": 1, 
		 "sigma_profile": "yes", 
		 "theory": "DFT", 
		 "functional": "B3LYP", 
		 "basiset": "6-31G**", 
		 "properties": { 
			 "R2extent": 20875.0247, 
			 "electric_dipole_moment_norm": 4.81839822036, 
			 "electric_quadrupole_moment_norm": 25.293538247, 
			 "total_energy": -1454.58616516, 
			 "HOMO_LUMO_gap": 0.18353, 
			 "cosmo_polarized_energy": -23.18, 
			 "cosmo_cavitation_energy": 57.8, 
			 "cosmo_dispersion_energy": -39.8, 
			 "cosmo_repulsion_energy": 3.04, 
			 "cosmo_total_nonelectrostatic_energy": 21.05, 
			 "SMD_solvation_energy": 13.78 
		},
		"coords": [
			{
				"x": 3.9088587192,
				"y": -3.4170680975,
				"z": 5.6859054699,
				"element": "C" 
			},
			{
				"x": 3.3660570441,
				"y": -2.5735040115,
				"z": 4.6557489699,
				"element": "O" 
			},
			{
				"x": 2.0599050671,
				"y": -2.2836230111,
				"z": 4.7893391017,
				"element": "C" 
			},
			{
				"x": 1.3177736164,
				"y": -2.7941540102,
				"z": 5.6002172242,
				"element": "O" 
			},
			{
				"x": 1.5755961658,
				"y": -1.3587870323,
				"z": 3.7047735105,
				"element": "C" 
			},
			{
				"x": 1.8020064659,
				"y": -0.0335355862,
				"z": 3.6960714949,
				"element": "C" 
			},
			{
				"x": 1.2681361517,
				"y": 0.8654996481,
				"z": 2.6071290566,
				"element": "C" 
			},
			{
				"x": 0.4391210162,
				"y": 0.1669704416,
				"z": 1.5583275414,
				"element": "C" 
			},
			{
				"x": 0.1971777758,
				"y": -1.1485416434,
				"z": 1.5818968002,
				"element": "C" 
			},
			{
				"x": -0.6355581983,
				"y": -1.8373301158,
				"z": 0.5313206922,
				"element": "C" 
			},
			{
				"x": -1.1680457784,
				"y": -0.939886444,
				"z": -0.5562077074,
				"element": "C" 
			},
			{
				"x": -0.9281697301,
				"y": 0.3759342174,
				"z": -0.5834143762,
				"element": "C" 
			},
			{
				"x": -0.1037873076,
				"y": 1.063932238,
				"z": 0.4749136429,
				"element": "C" 
			},
			{
				"x": -1.4592502246,
				"y": 1.2823559999,
				"z": -1.6658029512,
				"element": "C" 
			},
			{
				"x": -2.2928739483,
				"y": 0.5923976675,
				"z": -2.7184251455,
				"element": "C" 
			},
			{
				"x": -2.9052832132,
				"y": 1.422067021,
				"z": -3.7943574314,
				"element": "C" 
			},
			{
				"x": -3.7204902672,
				"y": 1.0375373907,
				"z": -4.6117962696,
				"element": "O" 
			},
			{
				"x": -2.4544826181,
				"y": 2.698383571,
				"z": -3.755453898,
				"element": "O" 
			},
			{
				"x": -3.0084450449,
				"y": 3.5727616331,
				"z": -4.7507968592,
				"element": "C" 
			},
			{
				"x": -2.5138932605,
				"y": -0.7336739886,
				"z": -2.700284071,
				"element": "C" 
			},
			{
				"x": -1.9912389736,
				"y": -1.6320584535,
				"z": -1.6113070691,
				"element": "C" 
			},
			{
				"x": -3.3667820661,
				"y": -1.4538966224,
				"z": -3.7102357589,
				"element": "C" 
			},
			{
				"x": -4.4575149175,
				"y": -1.9111556533,
				"z": -3.4454046057,
				"element": "O" 
			},
			{
				"x": -2.717257989,
				"y": -1.64306804,
				"z": -4.8722600692,
				"element": "O" 
			},
			{
				"x": -3.489329298,
				"y": -2.2847863019,
				"z": -5.9015835936,
				"element": "C" 
			},
			{
				"x": 0.7376910574,
				"y": -2.0491927008,
				"z": 2.6620306539,
				"element": "C" 
			},
			{
				"x": 2.5835790685,
				"y": 0.5828905243,
				"z": 4.8052051536,
				"element": "C" 
			},
			{
				"x": 2.9410522204,
				"y": 0.0186560194,
				"z": 5.8223080592,
				"element": "O" 
			},
			{
				"x": 2.8501402792,
				"y": 1.8877476347,
				"z": 4.5602862001,
				"element": "O" 
			},
			{
				"x": 3.5872703193,
				"y": 2.5646330346,
				"z": 5.5901429112,
				"element": "C" 
			},
			{
				"x": 4.9429061986,
				"y": -3.6052724082,
				"z": 5.3973072817,
				"element": "H" 
			},
			{
				"x": 3.8673734938,
				"y": -2.899678302,
				"z": 6.647491567,
				"element": "H" 
			},
			{
				"x": 3.3500305947,
				"y": -4.3533005652,
				"z": 5.7560075119,
				"element": "H" 
			},
			{
				"x": 2.1093120658,
				"y": 1.3881274249,
				"z": 2.1270490528,
				"element": "H" 
			},
			{
				"x": 0.6785352822,
				"y": 1.6758604454,
				"z": 3.0620966715,
				"element": "H" 
			},
			{
				"x": -0.0462319597,
				"y": -2.6522528671,
				"z": 0.0754845522,
				"element": "H" 
			},
			{
				"x": -1.4777164757,
				"y": -2.3593073123,
				"z": 1.0181888091,
				"element": "H" 
			},
			{
				"x": -0.7025041518,
				"y": 1.8688258585,
				"z": 0.9356097752,
				"element": "H" 
			},
			{
				"x": 0.7328772931,
				"y": 1.5991526191,
				"z": -0.0070059165,
				"element": "H" 
			},
			{
				"x": -0.6231891003,
				"y": 1.8053167147,
				"z": -2.1543826245,
				"element": "H" 
			},
			{
				"x": -2.0480706333,
				"y": 2.0930162502,
				"z": -1.2103554048,
				"element": "H" 
			},
			{
				"x": -4.0954391224,
				"y": 3.6276699726,
				"z": -4.6523313515,
				"element": "H" 
			},
			{
				"x": -2.7646955692,
				"y": 3.2155853349,
				"z": -5.7545164218,
				"element": "H" 
			},
			{
				"x": -2.5560682764,
				"y": 4.5478614185,
				"z": -4.5704289882,
				"element": "H" 
			},
			{
				"x": -1.4042045979,
				"y": -2.4447239405,
				"z": -2.0713752849,
				"element": "H" 
			},
			{
				"x": -2.8532158157,
				"y": -2.1440124426,
				"z": -1.154454677,
				"element": "H" 
			},
			{
				"x": -2.8065737304,
				"y": -2.4194949786,
				"z": -6.7404338584,
				"element": "H" 
			},
			{
				"x": -3.8729585681,
				"y": -3.2477488405,
				"z": -5.5562536967,
				"element": "H" 
			},
			{
				"x": -4.327324458,
				"y": -1.644809418,
				"z": -6.1883961079,
				"element": "H" 
			},
			{
				"x": -0.0848345891,
				"y": -2.5676730768,
				"z": 3.1801511567,
				"element": "H" 
			},
			{
				"x": 1.3304714675,
				"y": -2.8622752777,
				"z": 2.2101251834,
				"element": "H" 
			},
			{
				"x": 3.7004187391,
				"y": 3.5919956775,
				"z": 5.2441420287,
				"element": "H" 
			},
			{
				"x": 3.0418474049,
				"y": 2.5342165013,
				"z": 6.5366363237,
				"element": "H" 
			},
			{
				"x": 4.5647923769,
				"y": 2.0973158828,
				"z": 5.7333577415,
				"element": "H" 
			}
		],
		 "valence_orbital": [ 
			{
				"type": "occ",
				"energy": -0.27055,
				"method": "rhf"
			},
			{
				"type": "occ",
				"energy": -0.2589,
				"method": "rhf"
			},
			{
				"type": "occ",
				"energy": -0.25526,
				"method": "rhf"
			},
			{
				"type": "occ",
				"energy": -0.23735,
				"method": "rhf"
			},
			{
				"type": "occ",
				"energy": -0.23005,
				"method": "rhf"
			},
			{
				"type": "unocc",
				"energy": -0.04652,
				"method": "rhf"
			},
			{
				"type": "unocc",
				"energy": -0.04487,
				"method": "rhf"
			},
			{
				"type": "unocc",
				"energy": 0.0181,
				"method": "rhf"
			},
			{
				"type": "unocc",
				"energy": 0.02031,
				"method": "rhf"
			},
			{
				"type": "unocc",
				"energy": 0.02217,
				"method": "rhf"
			}
		],
		"cosmo_sigma_profile": { 
			"-0.025": 0.0,
			"-0.024": 0.0,
			"-0.023": 0.0,
			"-0.022": 0.0,
			"-0.021": 0.0,
			"-0.02": 0.0,
			"-0.019": 0.0,
			"-0.018": 0.0,
			"-0.017": 0.0,
			"-0.016": 0.0,
			"-0.015": 0.0,
			"-0.014": 0.0,
			"-0.013": 0.0,
			"-0.012": 0.0,
			"-0.011": 0.0,
			"-0.01": 0.0,
			"-0.009": 0.0,
			"-0.008": 0.0,
			"-0.007": 3.16174708224,
			"-0.006": 21.4395239357,
			"-0.005": 41.7603360179,
			"-0.004": 67.2630573443,
			"-0.003": 62.0367688368,
			"-0.002": 41.9116770712,
			"-0.001": 27.0242410383,
			"0.0": 22.5369149163,
			"0.001": 23.9885671746,
			"0.002": 18.4943527258,
			"0.003": 17.5321005188,
			"0.004": 19.4807130108,
			"0.005": 14.0161878996,
			"0.006": 12.0834762051,
			"0.007": 9.87724925655,
			"0.008": 10.5376844985,
			"0.009": 10.2572279832,
			"0.01": 8.89364698953,
			"0.011": 12.1178835648,
			"0.012": 9.86288180361,
			"0.013": 0.64711493847,
			"0.014": 0.0,
			"0.015": 0.0,
			"0.016": 0.0,
			"0.017": 0.0,
			"0.018": 0.0,
			"0.019": 0.0,
			"0.02": 0.0,
			"0.021": 0.0,
			"0.022": 0.0,
			"0.023": 0.0,
			"0.024": 0.0,
			"0.025": 0.0
		}
	}
}
