{
	 "smiles": "CC(=O)C1=NN(C(S1)=NC(=O)C1=CC=CC=C1)C1=CC=CC=C1[N+]([O-])=O", 
	 "Tm": 477.15, 
	 "num_atms": 38, 
	 "gaussian": { 
		 "optdone": 1, 
		 "sigma_profile": "yes", 
		 "theory": "DFT", 
		 "functional": "B3LYP", 
		 "basiset": "6-31G**", 
		 "properties": { 
			 "R2extent": 9708.6473, 
			 "electric_dipole_moment_norm": 5.25982944305, 
			 "electric_quadrupole_moment_norm": 19.1656343047, 
			 "total_energy": -1572.98865252, 
			 "HOMO_LUMO_gap": 0.13833, 
			 "cosmo_polarized_energy": -17.72, 
			 "cosmo_cavitation_energy": 46.54, 
			 "cosmo_dispersion_energy": -30.89, 
			 "cosmo_repulsion_energy": 2.33, 
			 "cosmo_total_nonelectrostatic_energy": 17.98, 
			 "SMD_solvation_energy": 9.12 
		},
		"coords": [
			{
				"x": 2.3846058128,
				"y": 5.4501698155,
				"z": -0.6791347508,
				"element": "C" 
			},
			{
				"x": 2.0694740078,
				"y": 4.713844146,
				"z": 0.6010070709,
				"element": "C" 
			},
			{
				"x": 2.2470868115,
				"y": 5.1789414699,
				"z": 1.7135215084,
				"element": "O" 
			},
			{
				"x": 1.5012155389,
				"y": 3.3419155872,
				"z": 0.4835331804,
				"element": "C" 
			},
			{
				"x": 1.2777015206,
				"y": 2.7544964588,
				"z": -0.647041339,
				"element": "N" 
			},
			{
				"x": 0.7574449495,
				"y": 1.511035118,
				"z": -0.4598060664,
				"element": "N" 
			},
			{
				"x": 0.5256067334,
				"y": 1.1050628326,
				"z": 0.8604232517,
				"element": "C" 
			},
			{
				"x": 1.0733562449,
				"y": 2.422958992,
				"z": 1.9173157898,
				"element": "S" 
			},
			{
				"x": 0.0025639876,
				"y": 0.0334018224,
				"z": 1.3234502836,
				"element": "N" 
			},
			{
				"x": -0.010950854,
				"y": -1.2112569763,
				"z": 0.7010351911,
				"element": "C" 
			},
			{
				"x": 0.8475162449,
				"y": -1.577468567,
				"z": -0.0994766947,
				"element": "O" 
			},
			{
				"x": -1.1123994687,
				"y": -2.1159011616,
				"z": 1.1482835791,
				"element": "C" 
			},
			{
				"x": -2.0687562154,
				"y": -1.7149168461,
				"z": 2.0917410329,
				"element": "C" 
			},
			{
				"x": -3.0905837285,
				"y": -2.5872331984,
				"z": 2.4644005591,
				"element": "C" 
			},
			{
				"x": -3.1616662331,
				"y": -3.8635738805,
				"z": 1.9012023982,
				"element": "C" 
			},
			{
				"x": -2.2082785874,
				"y": -4.2687769803,
				"z": 0.961968859,
				"element": "C" 
			},
			{
				"x": -1.1884233042,
				"y": -3.398772861,
				"z": 0.5864121368,
				"element": "C" 
			},
			{
				"x": 0.2296512845,
				"y": 0.866239373,
				"z": -1.6259282039,
				"element": "C" 
			},
			{
				"x": 1.1170940353,
				"y": 0.1952596707,
				"z": -2.4649202998,
				"element": "C" 
			},
			{
				"x": 0.6615999623,
				"y": -0.4313407862,
				"z": -3.6222361637,
				"element": "C" 
			},
			{
				"x": -0.698840266,
				"y": -0.418713362,
				"z": -3.9356161325,
				"element": "C" 
			},
			{
				"x": -1.5990398631,
				"y": 0.2325857599,
				"z": -3.098533898,
				"element": "C" 
			},
			{
				"x": -1.1353328782,
				"y": 0.8871360213,
				"z": -1.9564961562,
				"element": "C" 
			},
			{
				"x": -2.1379176344,
				"y": 1.6145164653,
				"z": -1.1543907458,
				"element": "N" 
			},
			{
				"x": -3.3146987029,
				"y": 1.2969060419,
				"z": -1.3080430754,
				"element": "O" 
			},
			{
				"x": -1.7465275424,
				"y": 2.5082507772,
				"z": -0.4050069277,
				"element": "O" 
			},
			{
				"x": 2.8174542377,
				"y": 6.4196695263,
				"z": -0.4316512134,
				"element": "H" 
			},
			{
				"x": 3.0793677958,
				"y": 4.8706746206,
				"z": -1.294737086,
				"element": "H" 
			},
			{
				"x": 1.4730979438,
				"y": 5.5854757858,
				"z": -1.2701560394,
				"element": "H" 
			},
			{
				"x": -1.9976498888,
				"y": -0.7243384932,
				"z": 2.5272635238,
				"element": "H" 
			},
			{
				"x": -3.8298352834,
				"y": -2.272997482,
				"z": 3.1954215684,
				"element": "H" 
			},
			{
				"x": -3.957757878,
				"y": -4.5424480297,
				"z": 2.1942742111,
				"element": "H" 
			},
			{
				"x": -2.2628990283,
				"y": -5.2619664368,
				"z": 0.5254073085,
				"element": "H" 
			},
			{
				"x": -0.4364207674,
				"y": -3.6884625043,
				"z": -0.1398247755,
				"element": "H" 
			},
			{
				"x": 2.1611915873,
				"y": 0.15545941,
				"z": -2.1794838369,
				"element": "H" 
			},
			{
				"x": 1.3672903283,
				"y": -0.9445054855,
				"z": -4.2673716448,
				"element": "H" 
			},
			{
				"x": -1.0613261221,
				"y": -0.9161022344,
				"z": -4.8292753106,
				"element": "H" 
			},
			{
				"x": -2.6599147808,
				"y": 0.259375591,
				"z": -3.3124310924,
				"element": "H" 
			}
		],
		 "valence_orbital": [ 
			{
				"type": "occ",
				"energy": -0.27726,
				"method": "rhf"
			},
			{
				"type": "occ",
				"energy": -0.25373,
				"method": "rhf"
			},
			{
				"type": "occ",
				"energy": -0.25004,
				"method": "rhf"
			},
			{
				"type": "occ",
				"energy": -0.24589,
				"method": "rhf"
			},
			{
				"type": "occ",
				"energy": -0.24051,
				"method": "rhf"
			},
			{
				"type": "unocc",
				"energy": -0.10218,
				"method": "rhf"
			},
			{
				"type": "unocc",
				"energy": -0.0866,
				"method": "rhf"
			},
			{
				"type": "unocc",
				"energy": -0.05316,
				"method": "rhf"
			},
			{
				"type": "unocc",
				"energy": -0.04653,
				"method": "rhf"
			},
			{
				"type": "unocc",
				"energy": -0.01713,
				"method": "rhf"
			}
		],
		"cosmo_sigma_profile": { 
			"-0.025": 0.0,
			"-0.024": 0.0,
			"-0.023": 0.0,
			"-0.022": 0.0,
			"-0.021": 0.0,
			"-0.02": 0.0,
			"-0.019": 0.0,
			"-0.018": 0.0,
			"-0.017": 0.0,
			"-0.016": 0.0,
			"-0.015": 0.0,
			"-0.014": 0.0,
			"-0.013": 0.0,
			"-0.012": 0.0,
			"-0.011": 0.0,
			"-0.01": 0.0,
			"-0.009": 0.899968527515,
			"-0.008": 9.03755382232,
			"-0.007": 16.4120562888,
			"-0.006": 23.8576378534,
			"-0.005": 25.6570695769,
			"-0.004": 27.3972730199,
			"-0.003": 23.7899369322,
			"-0.002": 28.6586885355,
			"-0.001": 27.441010232,
			"0.0": 29.1238760794,
			"0.001": 29.9983716338,
			"0.002": 24.7778653631,
			"0.003": 20.4672799583,
			"0.004": 24.3783821104,
			"0.005": 13.0237052808,
			"0.006": 9.67256168023,
			"0.007": 11.4323303825,
			"0.008": 9.72028289585,
			"0.009": 7.87830757794,
			"0.01": 5.73349354556,
			"0.011": 4.04158268583,
			"0.012": 2.82436988092,
			"0.013": 0.819065908728,
			"0.014": 0.0,
			"0.015": 0.0,
			"0.016": 0.0,
			"0.017": 0.0,
			"0.018": 0.0,
			"0.019": 0.0,
			"0.02": 0.0,
			"0.021": 0.0,
			"0.022": 0.0,
			"0.023": 0.0,
			"0.024": 0.0,
			"0.025": 0.0
		}
	}
}
