{
	 "smiles": "NS(=O)(=O)C1=CC(NC(=O)CCl)=C(Cl)C=C1", 
	 "Tm": 446.15, 
	 "num_atms": 24, 
	 "gaussian": { 
		 "optdone": 1, 
		 "sigma_profile": "yes", 
		 "theory": "DFT", 
		 "functional": "B3LYP", 
		 "basiset": "6-31G**", 
		 "properties": { 
			 "R2extent": 7955.8358, 
			 "electric_dipole_moment_norm": 5.52454418482, 
			 "electric_quadrupole_moment_norm": 25.7963953902, 
			 "total_energy": -1963.36631853, 
			 "HOMO_LUMO_gap": 0.19984, 
			 "cosmo_polarized_energy": -22.55, 
			 "cosmo_cavitation_energy": 33.82, 
			 "cosmo_dispersion_energy": -24.96, 
			 "cosmo_repulsion_energy": 1.91, 
			 "cosmo_total_nonelectrostatic_energy": 10.77, 
			 "SMD_solvation_energy": 5.31 
		},
		"coords": [
			{
				"x": 1.0029555194,
				"y": -2.1194144053,
				"z": 3.71325231,
				"element": "N" 
			},
			{
				"x": -0.5749015356,
				"y": -2.2162253449,
				"z": 3.1513418958,
				"element": "S" 
			},
			{
				"x": -1.1867412985,
				"y": -3.3348663791,
				"z": 3.8658402541,
				"element": "O" 
			},
			{
				"x": -1.0972102158,
				"y": -0.8537087195,
				"z": 3.2011666239,
				"element": "O" 
			},
			{
				"x": -0.4755977005,
				"y": -2.697123189,
				"z": 1.4150486424,
				"element": "C" 
			},
			{
				"x": -0.1390468258,
				"y": -1.7293457193,
				"z": 0.4704931307,
				"element": "C" 
			},
			{
				"x": -0.0368845981,
				"y": -2.0870271957,
				"z": -0.8824313773,
				"element": "C" 
			},
			{
				"x": 0.2969875945,
				"y": -1.1699780099,
				"z": -1.8903800664,
				"element": "N" 
			},
			{
				"x": 0.7347559266,
				"y": 0.1153351522,
				"z": -1.7315949757,
				"element": "C" 
			},
			{
				"x": 0.9029787277,
				"y": 0.6900352477,
				"z": -0.6666047907,
				"element": "O" 
			},
			{
				"x": 1.031095774,
				"y": 0.9130490284,
				"z": -3.0052446938,
				"element": "C" 
			},
			{
				"x": 0.8771098493,
				"y": 0.0376460404,
				"z": -4.5832999827,
				"element": "Cl" 
			},
			{
				"x": -0.3017328725,
				"y": -3.4280753856,
				"z": -1.2346704559,
				"element": "C" 
			},
			{
				"x": -0.2014796766,
				"y": -3.9247329204,
				"z": -2.917788904,
				"element": "Cl" 
			},
			{
				"x": -0.6515569586,
				"y": -4.3791987713,
				"z": -0.2813333269,
				"element": "C" 
			},
			{
				"x": -0.7378084252,
				"y": -4.0195459327,
				"z": 1.0620842554,
				"element": "C" 
			},
			{
				"x": 1.4859948616,
				"y": -3.0118383718,
				"z": 3.7110164089,
				"element": "H" 
			},
			{
				"x": 1.5345058793,
				"y": -1.3674558054,
				"z": 3.2864399303,
				"element": "H" 
			},
			{
				"x": 0.0314364607,
				"y": -0.7008287345,
				"z": 0.7577479397,
				"element": "H" 
			},
			{
				"x": 0.2422284015,
				"y": -1.5144547672,
				"z": -2.8423569204,
				"element": "H" 
			},
			{
				"x": 2.0527654841,
				"y": 1.2867514004,
				"z": -2.9364478552,
				"element": "H" 
			},
			{
				"x": 0.3481602949,
				"y": 1.7629115468,
				"z": -3.0378523641,
				"element": "H" 
			},
			{
				"x": -0.8575155438,
				"y": -5.395544367,
				"z": -0.597461834,
				"element": "H" 
			},
			{
				"x": -1.0214991228,
				"y": -4.7401643975,
				"z": 1.8201361559,
				"element": "H" 
			}
		],
		 "valence_orbital": [ 
			{
				"type": "occ",
				"energy": -0.30809,
				"method": "rhf"
			},
			{
				"type": "occ",
				"energy": -0.30799,
				"method": "rhf"
			},
			{
				"type": "occ",
				"energy": -0.28566,
				"method": "rhf"
			},
			{
				"type": "occ",
				"energy": -0.27582,
				"method": "rhf"
			},
			{
				"type": "occ",
				"energy": -0.25567,
				"method": "rhf"
			},
			{
				"type": "unocc",
				"energy": -0.05583,
				"method": "rhf"
			},
			{
				"type": "unocc",
				"energy": -0.04777,
				"method": "rhf"
			},
			{
				"type": "unocc",
				"energy": -0.00309,
				"method": "rhf"
			},
			{
				"type": "unocc",
				"energy": 0.00264,
				"method": "rhf"
			},
			{
				"type": "unocc",
				"energy": 0.00879,
				"method": "rhf"
			}
		],
		"cosmo_sigma_profile": { 
			"-0.025": 0.0,
			"-0.024": 0.0,
			"-0.023": 0.0,
			"-0.022": 0.0,
			"-0.021": 0.0,
			"-0.02": 0.0,
			"-0.019": 0.0,
			"-0.018": 0.0,
			"-0.017": 0.0,
			"-0.016": 0.503475283009,
			"-0.015": 2.35607860618,
			"-0.014": 2.89623312914,
			"-0.013": 2.74504644913,
			"-0.012": 2.96405438137,
			"-0.011": 2.71389403142,
			"-0.01": 2.94490149264,
			"-0.009": 7.21304982045,
			"-0.008": 9.66059522712,
			"-0.007": 10.5329539909,
			"-0.006": 10.995520122,
			"-0.005": 12.3860820047,
			"-0.004": 9.83100324663,
			"-0.003": 11.7298580942,
			"-0.002": 16.7207391017,
			"-0.001": 19.4684210159,
			"0.0": 25.4345528893,
			"0.001": 21.3850685896,
			"0.002": 15.7196103299,
			"0.003": 14.1572546391,
			"0.004": 10.3685661079,
			"0.005": 10.1227984749,
			"0.006": 5.850564604,
			"0.007": 5.69835050736,
			"0.008": 6.24710173327,
			"0.009": 5.60019034762,
			"0.01": 10.4335953574,
			"0.011": 13.2128353155,
			"0.012": 5.19049018432,
			"0.013": 0.316262577189,
			"0.014": 0.0,
			"0.015": 0.0,
			"0.016": 0.0,
			"0.017": 0.0,
			"0.018": 0.0,
			"0.019": 0.0,
			"0.02": 0.0,
			"0.021": 0.0,
			"0.022": 0.0,
			"0.023": 0.0,
			"0.024": 0.0,
			"0.025": 0.0
		}
	}
}
