{
	 "smiles": "CN(C)C(=O)C1=CC(O)=CC=C1", 
	 "Tm": 400.15, 
	 "num_atms": 23, 
	 "gaussian": { 
		 "optdone": 1, 
		 "sigma_profile": "yes", 
		 "theory": "DFT", 
		 "functional": "B3LYP", 
		 "basiset": "6-31G**", 
		 "properties": { 
			 "R2extent": 2406.7303, 
			 "electric_dipole_moment_norm": 3.72997773318, 
			 "electric_quadrupole_moment_norm": 13.2942009459, 
			 "total_energy": -554.789970521, 
			 "HOMO_LUMO_gap": 0.19779, 
			 "cosmo_polarized_energy": -14.88, 
			 "cosmo_cavitation_energy": 26.52, 
			 "cosmo_dispersion_energy": -19.19, 
			 "cosmo_repulsion_energy": 1.54, 
			 "cosmo_total_nonelectrostatic_energy": 8.87, 
			 "SMD_solvation_energy": 5.51 
		},
		"coords": [
			{
				"x": -3.7293024396,
				"y": -1.4014123247,
				"z": 0.0570215676,
				"element": "C" 
			},
			{
				"x": -2.5303873452,
				"y": -0.6492591064,
				"z": -0.2907565802,
				"element": "N" 
			},
			{
				"x": -2.6303070919,
				"y": 0.1267829137,
				"z": -1.5195772139,
				"element": "C" 
			},
			{
				"x": -1.3435219607,
				"y": -1.0296985734,
				"z": 0.3030821079,
				"element": "C" 
			},
			{
				"x": -1.2774670742,
				"y": -1.9962304599,
				"z": 1.0587987118,
				"element": "O" 
			},
			{
				"x": -0.1157476677,
				"y": -0.191354615,
				"z": 0.054966418,
				"element": "C" 
			},
			{
				"x": -0.1421713594,
				"y": 1.2079883263,
				"z": 0.1328972028,
				"element": "C" 
			},
			{
				"x": 1.040724206,
				"y": 1.9409914812,
				"z": -0.001153553,
				"element": "C" 
			},
			{
				"x": 1.0741258381,
				"y": 3.3046647927,
				"z": 0.0824020345,
				"element": "O" 
			},
			{
				"x": 2.2529934428,
				"y": 1.2804692091,
				"z": -0.2300239251,
				"element": "C" 
			},
			{
				"x": 2.2732795706,
				"y": -0.1108782034,
				"z": -0.2988084383,
				"element": "C" 
			},
			{
				"x": 1.1014503167,
				"y": -0.8521154842,
				"z": -0.1432533746,
				"element": "C" 
			},
			{
				"x": -3.9389106716,
				"y": -2.1879447125,
				"z": -0.6814732682,
				"element": "H" 
			},
			{
				"x": -4.588480925,
				"y": -0.7225353373,
				"z": 0.0911171782,
				"element": "H" 
			},
			{
				"x": -3.5841513895,
				"y": -1.8698012169,
				"z": 1.0288263417,
				"element": "H" 
			},
			{
				"x": -1.6579169639,
				"y": 0.5186075995,
				"z": -1.8105432481,
				"element": "H" 
			},
			{
				"x": -3.3269892335,
				"y": 0.9660078537,
				"z": -1.3975360862,
				"element": "H" 
			},
			{
				"x": -3.0057924965,
				"y": -0.5045860426,
				"z": -2.3369515442,
				"element": "H" 
			},
			{
				"x": -1.0807737576,
				"y": 1.7240912661,
				"z": 0.3232959903,
				"element": "H" 
			},
			{
				"x": 0.1847492525,
				"y": 3.6340242963,
				"z": 0.2655731756,
				"element": "H" 
			},
			{
				"x": 3.1580747318,
				"y": 1.8689498265,
				"z": -0.3377866532,
				"element": "H" 
			},
			{
				"x": 3.21693528,
				"y": -0.6219333184,
				"z": -0.4663300568,
				"element": "H" 
			},
			{
				"x": 1.1161877377,
				"y": -1.9360281705,
				"z": -0.1616867865,
				"element": "H" 
			}
		],
		 "valence_orbital": [ 
			{
				"type": "occ",
				"energy": -0.33291,
				"method": "rhf"
			},
			{
				"type": "occ",
				"energy": -0.26118,
				"method": "rhf"
			},
			{
				"type": "occ",
				"energy": -0.24832,
				"method": "rhf"
			},
			{
				"type": "occ",
				"energy": -0.23613,
				"method": "rhf"
			},
			{
				"type": "occ",
				"energy": -0.22373,
				"method": "rhf"
			},
			{
				"type": "unocc",
				"energy": -0.02594,
				"method": "rhf"
			},
			{
				"type": "unocc",
				"energy": 0.00527,
				"method": "rhf"
			},
			{
				"type": "unocc",
				"energy": 0.05137,
				"method": "rhf"
			},
			{
				"type": "unocc",
				"energy": 0.06471,
				"method": "rhf"
			},
			{
				"type": "unocc",
				"energy": 0.08735,
				"method": "rhf"
			}
		],
		"cosmo_sigma_profile": { 
			"-0.025": 0.0,
			"-0.024": 0.0,
			"-0.023": 0.0,
			"-0.022": 0.0,
			"-0.021": 0.0,
			"-0.02": 0.0,
			"-0.019": 0.0,
			"-0.018": 0.449076535534,
			"-0.017": 1.17365059978,
			"-0.016": 1.22073189135,
			"-0.015": 0.950934439328,
			"-0.014": 1.48599903969,
			"-0.013": 0.610397639037,
			"-0.012": 0.723452044976,
			"-0.011": 1.11332453994,
			"-0.01": 1.1507174025,
			"-0.009": 0.98606587601,
			"-0.008": 1.42273717363,
			"-0.007": 1.57883155502,
			"-0.006": 4.87715355682,
			"-0.005": 12.8473275614,
			"-0.004": 23.5778630093,
			"-0.003": 21.8053399255,
			"-0.002": 25.944570443,
			"-0.001": 16.2587972715,
			"0.0": 8.87589366723,
			"0.001": 8.73678242895,
			"0.002": 9.80889452604,
			"0.003": 12.2531743805,
			"0.004": 11.7513021193,
			"0.005": 9.76644317426,
			"0.006": 3.78119546182,
			"0.007": 2.46470124192,
			"0.008": 3.70479778158,
			"0.009": 2.908712422,
			"0.01": 2.98576701566,
			"0.011": 3.97284639379,
			"0.012": 1.87809986467,
			"0.013": 3.7318432566,
			"0.014": 4.25177512696,
			"0.015": 0.890978540287,
			"0.016": 0.0,
			"0.017": 0.0,
			"0.018": 0.0,
			"0.019": 0.0,
			"0.02": 0.0,
			"0.021": 0.0,
			"0.022": 0.0,
			"0.023": 0.0,
			"0.024": 0.0,
			"0.025": 0.0
		}
	}
}
