{
	 "smiles": "CC1=C(C)N=C(N)S1", 
	 "Tm": 547.15, 
	 "num_atms": 16, 
	 "gaussian": { 
		 "optdone": 1, 
		 "sigma_profile": "yes", 
		 "theory": "DFT", 
		 "functional": "B3LYP", 
		 "basiset": "6-31G**", 
		 "properties": { 
			 "R2extent": 1774.9847, 
			 "electric_dipole_moment_norm": 1.25105585407, 
			 "electric_quadrupole_moment_norm": 11.5110076427, 
			 "total_energy": -703.050447112, 
			 "HOMO_LUMO_gap": 0.2031, 
			 "cosmo_polarized_energy": -9.25, 
			 "cosmo_cavitation_energy": 20.87, 
			 "cosmo_dispersion_energy": -16.24, 
			 "cosmo_repulsion_energy": 1.32, 
			 "cosmo_total_nonelectrostatic_energy": 5.95, 
			 "SMD_solvation_energy": 1.98 
		},
		"coords": [
			{
				"x": -1.3927939298,
				"y": -1.821200291,
				"z": 1.5781668856,
				"element": "C" 
			},
			{
				"x": -1.3978322089,
				"y": -0.455384472,
				"z": 0.962600813,
				"element": "C" 
			},
			{
				"x": -1.914859086,
				"y": -0.0101984137,
				"z": -0.2216768214,
				"element": "C" 
			},
			{
				"x": -2.6345921098,
				"y": -0.8329225356,
				"z": -1.2513574902,
				"element": "C" 
			},
			{
				"x": -1.7650265151,
				"y": 1.3459644036,
				"z": -0.4889207275,
				"element": "N" 
			},
			{
				"x": -1.1298563078,
				"y": 1.9470611774,
				"z": 0.4697763735,
				"element": "C" 
			},
			{
				"x": -0.7724026831,
				"y": 3.2802114483,
				"z": 0.4430759468,
				"element": "N" 
			},
			{
				"x": -0.644912306,
				"y": 0.9022907279,
				"z": 1.8092457386,
				"element": "S" 
			},
			{
				"x": -1.9080348667,
				"y": -1.8367165332,
				"z": 2.5462112413,
				"element": "H" 
			},
			{
				"x": -1.9005543472,
				"y": -2.534276101,
				"z": 0.9243158205,
				"element": "H" 
			},
			{
				"x": -0.3746300315,
				"y": -2.1933976775,
				"z": 1.7440413571,
				"element": "H" 
			},
			{
				"x": -3.6431995362,
				"y": -0.4388978179,
				"z": -1.4182402512,
				"element": "H" 
			},
			{
				"x": -2.1093512092,
				"y": -0.7856113154,
				"z": -2.2117441727,
				"element": "H" 
			},
			{
				"x": -2.7200603709,
				"y": -1.8814963895,
				"z": -0.9595793964,
				"element": "H" 
			},
			{
				"x": -0.7467187623,
				"y": 3.7557687962,
				"z": 1.3343410031,
				"element": "H" 
			},
			{
				"x": -1.2692757296,
				"y": 3.7948049932,
				"z": -0.2732563201,
				"element": "H" 
			}
		],
		 "valence_orbital": [ 
			{
				"type": "occ",
				"energy": -0.33574,
				"method": "rhf"
			},
			{
				"type": "occ",
				"energy": -0.30034,
				"method": "rhf"
			},
			{
				"type": "occ",
				"energy": -0.26183,
				"method": "rhf"
			},
			{
				"type": "occ",
				"energy": -0.25976,
				"method": "rhf"
			},
			{
				"type": "occ",
				"energy": -0.1971,
				"method": "rhf"
			},
			{
				"type": "unocc",
				"energy": 0.006,
				"method": "rhf"
			},
			{
				"type": "unocc",
				"energy": 0.01751,
				"method": "rhf"
			},
			{
				"type": "unocc",
				"energy": 0.07081,
				"method": "rhf"
			},
			{
				"type": "unocc",
				"energy": 0.07725,
				"method": "rhf"
			},
			{
				"type": "unocc",
				"energy": 0.10554,
				"method": "rhf"
			}
		],
		"cosmo_sigma_profile": { 
			"-0.025": 0.0,
			"-0.024": 0.0,
			"-0.023": 0.0,
			"-0.022": 0.0,
			"-0.021": 0.0,
			"-0.02": 0.0,
			"-0.019": 0.0,
			"-0.018": 0.0,
			"-0.017": 0.0,
			"-0.016": 0.0,
			"-0.015": 0.0575358286985,
			"-0.014": 1.06188712281,
			"-0.013": 2.4686280411,
			"-0.012": 2.69009122847,
			"-0.011": 2.52828379299,
			"-0.01": 2.66260906856,
			"-0.009": 2.39299185193,
			"-0.008": 1.34180530915,
			"-0.007": 1.24800751258,
			"-0.006": 3.83616000678,
			"-0.005": 5.0101237021,
			"-0.004": 10.7556118071,
			"-0.003": 12.3141165569,
			"-0.002": 15.3254194654,
			"-0.001": 15.0165910319,
			"0.0": 17.3187961159,
			"0.001": 9.75083220618,
			"0.002": 9.20430724486,
			"0.003": 10.928854088,
			"0.004": 10.9103589984,
			"0.005": 10.1208167,
			"0.006": 4.3385936606,
			"0.007": 2.72388791514,
			"0.008": 1.93379417874,
			"0.009": 2.38020828057,
			"0.01": 1.80572387307,
			"0.011": 2.05272414565,
			"0.012": 1.41101569222,
			"0.013": 0.779677629942,
			"0.014": 0.920885117076,
			"0.015": 1.10727306873,
			"0.016": 0.587208506203,
			"0.017": 0.0387680492079,
			"0.018": 0.0,
			"0.019": 0.0,
			"0.02": 0.0,
			"0.021": 0.0,
			"0.022": 0.0,
			"0.023": 0.0,
			"0.024": 0.0,
			"0.025": 0.0
		}
	}
}
