{
	 "smiles": "COC1=NC2=C(N1C)C(=O)N(C)C(=O)N2C", 
	 "Tm": 449.15, 
	 "num_atms": 28, 
	 "gaussian": { 
		 "optdone": 1, 
		 "sigma_profile": "yes", 
		 "theory": "DFT", 
		 "functional": "B3LYP", 
		 "basiset": "6-31G**", 
		 "properties": { 
			 "R2extent": 4439.5725, 
			 "electric_dipole_moment_norm": 4.91395516667, 
			 "electric_quadrupole_moment_norm": 6.77913121867, 
			 "total_energy": -794.90931322, 
			 "HOMO_LUMO_gap": 0.18774, 
			 "cosmo_polarized_energy": -13.39, 
			 "cosmo_cavitation_energy": 31.53, 
			 "cosmo_dispersion_energy": -23.07, 
			 "cosmo_repulsion_energy": 1.78, 
			 "cosmo_total_nonelectrostatic_energy": 10.24, 
			 "SMD_solvation_energy": 6.66 
		},
		"coords": [
			{
				"x": -3.9621492474,
				"y": 1.1970396951,
				"z": 0.0188165769,
				"element": "C" 
			},
			{
				"x": -3.3852894452,
				"y": 0.5344953755,
				"z": 1.1556335787,
				"element": "O" 
			},
			{
				"x": -2.053628733,
				"y": 0.4478996035,
				"z": 1.1570891073,
				"element": "C" 
			},
			{
				"x": -1.2352899571,
				"y": 0.9124003752,
				"z": 0.2172789831,
				"element": "N" 
			},
			{
				"x": -0.0011397621,
				"y": 0.5733569604,
				"z": 0.6886120724,
				"element": "C" 
			},
			{
				"x": -0.0664018027,
				"y": -0.0868382196,
				"z": 1.8958404802,
				"element": "C" 
			},
			{
				"x": -1.4308486231,
				"y": -0.1640444637,
				"z": 2.1960162549,
				"element": "N" 
			},
			{
				"x": -2.0398820937,
				"y": -0.7718940847,
				"z": 3.3716799674,
				"element": "C" 
			},
			{
				"x": 1.0795764997,
				"y": -0.552277863,
				"z": 2.6072669838,
				"element": "C" 
			},
			{
				"x": 1.0874438984,
				"y": -1.1453693623,
				"z": 3.6841689119,
				"element": "O" 
			},
			{
				"x": 2.2774644659,
				"y": -0.2419049842,
				"z": 1.9023381499,
				"element": "N" 
			},
			{
				"x": 3.5499064381,
				"y": -0.6547758064,
				"z": 2.5031501284,
				"element": "C" 
			},
			{
				"x": 2.3891430644,
				"y": 0.4274133028,
				"z": 0.6731408083,
				"element": "C" 
			},
			{
				"x": 3.4818910527,
				"y": 0.6374380774,
				"z": 0.1633597125,
				"element": "O" 
			},
			{
				"x": 1.1961335769,
				"y": 0.8367896919,
				"z": 0.0696765066,
				"element": "N" 
			},
			{
				"x": 1.2355292985,
				"y": 1.5394253349,
				"z": -1.2108636274,
				"element": "C" 
			},
			{
				"x": -5.0386826266,
				"y": 1.1744021542,
				"z": 0.1859420096,
				"element": "H" 
			},
			{
				"x": -3.7046068381,
				"y": 0.6706809033,
				"z": -0.9038433729,
				"element": "H" 
			},
			{
				"x": -3.6043711655,
				"y": 2.2277230716,
				"z": -0.0472743241,
				"element": "H" 
			},
			{
				"x": -1.7781054471,
				"y": -1.8306764157,
				"z": 3.4251558225,
				"element": "H" 
			},
			{
				"x": -1.6777800776,
				"y": -0.2818605514,
				"z": 4.2778500913,
				"element": "H" 
			},
			{
				"x": -3.1205081068,
				"y": -0.6584255732,
				"z": 3.2926777896,
				"element": "H" 
			},
			{
				"x": 4.0812253951,
				"y": -1.3296936453,
				"z": 1.8286233614,
				"element": "H" 
			},
			{
				"x": 3.3152416444,
				"y": -1.1552333986,
				"z": 3.4401009387,
				"element": "H" 
			},
			{
				"x": 4.1812613659,
				"y": 0.218536595,
				"z": 2.6806745262,
				"element": "H" 
			},
			{
				"x": 0.7817998212,
				"y": 2.5290681237,
				"z": -1.1109335259,
				"element": "H" 
			},
			{
				"x": 2.2807294539,
				"y": 1.6306069279,
				"z": -1.4984286291,
				"element": "H" 
			},
			{
				"x": 0.6819379508,
				"y": 0.9756181755,
				"z": -1.9664492823,
				"element": "H" 
			}
		],
		 "valence_orbital": [ 
			{
				"type": "occ",
				"energy": -0.28056,
				"method": "rhf"
			},
			{
				"type": "occ",
				"energy": -0.27007,
				"method": "rhf"
			},
			{
				"type": "occ",
				"energy": -0.25875,
				"method": "rhf"
			},
			{
				"type": "occ",
				"energy": -0.25187,
				"method": "rhf"
			},
			{
				"type": "occ",
				"energy": -0.20532,
				"method": "rhf"
			},
			{
				"type": "unocc",
				"energy": -0.01758,
				"method": "rhf"
			},
			{
				"type": "unocc",
				"energy": 0.02871,
				"method": "rhf"
			},
			{
				"type": "unocc",
				"energy": 0.05445,
				"method": "rhf"
			},
			{
				"type": "unocc",
				"energy": 0.08463,
				"method": "rhf"
			},
			{
				"type": "unocc",
				"energy": 0.10563,
				"method": "rhf"
			}
		],
		"cosmo_sigma_profile": { 
			"-0.025": 0.0,
			"-0.024": 0.0,
			"-0.023": 0.0,
			"-0.022": 0.0,
			"-0.021": 0.0,
			"-0.02": 0.0,
			"-0.019": 0.0,
			"-0.018": 0.0,
			"-0.017": 0.0,
			"-0.016": 0.0,
			"-0.015": 0.0,
			"-0.014": 0.0,
			"-0.013": 0.0,
			"-0.012": 0.0,
			"-0.011": 0.0,
			"-0.01": 0.0,
			"-0.009": 0.0,
			"-0.008": 0.0409327121325,
			"-0.007": 2.69891390321,
			"-0.006": 12.3592001605,
			"-0.005": 21.9571384653,
			"-0.004": 28.3289788031,
			"-0.003": 33.910099918,
			"-0.002": 33.5361112298,
			"-0.001": 22.6485260015,
			"0.0": 17.3515843046,
			"0.001": 8.54480738039,
			"0.002": 7.75136420488,
			"0.003": 6.57829081257,
			"0.004": 7.47576657334,
			"0.005": 6.87307771943,
			"0.006": 5.4148892037,
			"0.007": 3.64914224481,
			"0.008": 3.97078556654,
			"0.009": 4.50866603751,
			"0.01": 3.88902586517,
			"0.011": 3.81034232473,
			"0.012": 5.89686474026,
			"0.013": 8.97787586013,
			"0.014": 0.337226380384,
			"0.015": 0.0,
			"0.016": 0.0,
			"0.017": 0.0,
			"0.018": 0.0,
			"0.019": 0.0,
			"0.02": 0.0,
			"0.021": 0.0,
			"0.022": 0.0,
			"0.023": 0.0,
			"0.024": 0.0,
			"0.025": 0.0
		}
	}
}
