{
	 "smiles": "O=C(NC1=CC(NC(=O)C2=CC=CC=C2)=C(C=C1)C1=CC=C(NC(=O)C2=CC=CC=C2)C=C1NC(=O)C1=CC=CC=C1)C1=CC=CC=C1", 
	 "Tm": 552.15, 
	 "num_atms": 78, 
	 "gaussian": { 
		 "optdone": 1, 
		 "sigma_profile": "yes", 
		 "theory": "DFT", 
		 "functional": "B3LYP", 
		 "basiset": "6-31G**", 
		 "properties": { 
			 "R2extent": 41531.6868, 
			 "electric_dipole_moment_norm": 5.07293332205, 
			 "electric_quadrupole_moment_norm": 62.6326606605, 
			 "total_energy": -2062.32532335, 
			 "HOMO_LUMO_gap": 0.15924, 
			 "cosmo_polarized_energy": -40.93, 
			 "cosmo_cavitation_energy": 84.78, 
			 "cosmo_dispersion_energy": -53.53, 
			 "cosmo_repulsion_energy": 3.93, 
			 "cosmo_total_nonelectrostatic_energy": 35.18, 
			 "SMD_solvation_energy": 15.4 
		},
		"coords": [
			{
				"x": 1.7544201102,
				"y": 5.3574806078,
				"z": -2.565749463,
				"element": "O" 
			},
			{
				"x": 1.8145941379,
				"y": 4.622482377,
				"z": -3.545060359,
				"element": "C" 
			},
			{
				"x": 1.8316108145,
				"y": 3.2436052965,
				"z": -3.4663017332,
				"element": "N" 
			},
			{
				"x": 1.8331297812,
				"y": 2.4270294245,
				"z": -2.3196487366,
				"element": "C" 
			},
			{
				"x": 1.7937215313,
				"y": 1.0419230535,
				"z": -2.5338377891,
				"element": "C" 
			},
			{
				"x": 1.7791803343,
				"y": 0.1457970546,
				"z": -1.4608029027,
				"element": "C" 
			},
			{
				"x": 1.7593178319,
				"y": -1.2508181502,
				"z": -1.6511974481,
				"element": "N" 
			},
			{
				"x": 1.4202856281,
				"y": -2.0308854204,
				"z": -2.7506882228,
				"element": "C" 
			},
			{
				"x": 1.9311445328,
				"y": -3.135536688,
				"z": -2.8866869262,
				"element": "O" 
			},
			{
				"x": 0.3690080476,
				"y": -1.5428448157,
				"z": -3.7015804319,
				"element": "C" 
			},
			{
				"x": 0.4807858619,
				"y": -1.9126611733,
				"z": -5.0489688722,
				"element": "C" 
			},
			{
				"x": -0.507158698,
				"y": -1.5459972296,
				"z": -5.9611330094,
				"element": "C" 
			},
			{
				"x": -1.6298264371,
				"y": -0.8350235475,
				"z": -5.5281879882,
				"element": "C" 
			},
			{
				"x": -1.7624066602,
				"y": -0.4920933327,
				"z": -4.1804443791,
				"element": "C" 
			},
			{
				"x": -0.7641020112,
				"y": -0.8384813583,
				"z": -3.2708049806,
				"element": "C" 
			},
			{
				"x": 1.8532204491,
				"y": 0.636941142,
				"z": -0.1337823891,
				"element": "C" 
			},
			{
				"x": 1.9211910674,
				"y": 2.024615906,
				"z": 0.0486258185,
				"element": "C" 
			},
			{
				"x": 1.9008385891,
				"y": 2.9287768704,
				"z": -1.0109305165,
				"element": "C" 
			},
			{
				"x": 1.873722419,
				"y": -0.2922880184,
				"z": 1.0389754664,
				"element": "C" 
			},
			{
				"x": 3.0850891106,
				"y": -0.6723184426,
				"z": 1.6257509444,
				"element": "C" 
			},
			{
				"x": 3.1257754941,
				"y": -1.5300020127,
				"z": 2.7187032171,
				"element": "C" 
			},
			{
				"x": 1.92993965,
				"y": -2.0275341249,
				"z": 3.2595188898,
				"element": "C" 
			},
			{
				"x": 2.0432206823,
				"y": -2.9050791692,
				"z": 4.3544344413,
				"element": "N" 
			},
			{
				"x": 1.0518851921,
				"y": -3.3885404467,
				"z": 5.1885072206,
				"element": "C" 
			},
			{
				"x": -0.1278174888,
				"y": -3.0776821783,
				"z": 5.0938173247,
				"element": "O" 
			},
			{
				"x": 1.5337764852,
				"y": -4.3285516883,
				"z": 6.2606461057,
				"element": "C" 
			},
			{
				"x": 2.7003547581,
				"y": -5.100266929,
				"z": 6.1551616825,
				"element": "C" 
			},
			{
				"x": 3.0727676113,
				"y": -5.9596779517,
				"z": 7.189351339,
				"element": "C" 
			},
			{
				"x": 2.2842250049,
				"y": -6.0555563462,
				"z": 8.337122505,
				"element": "C" 
			},
			{
				"x": 1.1126381099,
				"y": -5.3008518597,
				"z": 8.4416759118,
				"element": "C" 
			},
			{
				"x": 0.7353826167,
				"y": -4.4492623186,
				"z": 7.4064703532,
				"element": "C" 
			},
			{
				"x": 0.6964358792,
				"y": -1.6631849357,
				"z": 2.7013640698,
				"element": "C" 
			},
			{
				"x": 0.6735999983,
				"y": -0.8004567131,
				"z": 1.5973185344,
				"element": "C" 
			},
			{
				"x": -0.5263482508,
				"y": -0.3703570259,
				"z": 1.0034313124,
				"element": "N" 
			},
			{
				"x": -1.8145824535,
				"y": -0.8246362563,
				"z": 1.201643866,
				"element": "C" 
			},
			{
				"x": -2.1083231556,
				"y": -1.7374646511,
				"z": 1.9624887617,
				"element": "O" 
			},
			{
				"x": -2.8632177775,
				"y": -0.1262448658,
				"z": 0.374253679,
				"element": "C" 
			},
			{
				"x": -4.0720309979,
				"y": -0.8096947248,
				"z": 0.1807317323,
				"element": "C" 
			},
			{
				"x": -5.0914297993,
				"y": -0.2407592666,
				"z": -0.5783058389,
				"element": "C" 
			},
			{
				"x": -4.921476215,
				"y": 1.0264401148,
				"z": -1.1430463958,
				"element": "C" 
			},
			{
				"x": -3.7293814539,
				"y": 1.7240722671,
				"z": -0.9381322733,
				"element": "C" 
			},
			{
				"x": -2.7040626455,
				"y": 1.1521741521,
				"z": -0.18279768,
				"element": "C" 
			},
			{
				"x": 1.8530771687,
				"y": 5.1781400812,
				"z": -4.9419436092,
				"element": "C" 
			},
			{
				"x": 2.3913134133,
				"y": 4.4913296689,
				"z": -6.0404687164,
				"element": "C" 
			},
			{
				"x": 2.4011342549,
				"y": 5.0817036914,
				"z": -7.3044331761,
				"element": "C" 
			},
			{
				"x": 1.8739061584,
				"y": 6.3618609451,
				"z": -7.4826530078,
				"element": "C" 
			},
			{
				"x": 1.3499171523,
				"y": 7.0573564635,
				"z": -6.3896603919,
				"element": "C" 
			},
			{
				"x": 1.3470757328,
				"y": 6.4725542784,
				"z": -5.1259173627,
				"element": "C" 
			},
			{
				"x": 1.7400054233,
				"y": 2.7484462498,
				"z": -4.3410577015,
				"element": "H" 
			},
			{
				"x": 1.7822128745,
				"y": 0.6587007413,
				"z": -3.5481435018,
				"element": "H" 
			},
			{
				"x": 2.2767322196,
				"y": -1.7849737607,
				"z": -0.9616458978,
				"element": "H" 
			},
			{
				"x": 1.3424962283,
				"y": -2.4939997472,
				"z": -5.3604619523,
				"element": "H" 
			},
			{
				"x": -0.4090915439,
				"y": -1.8255263204,
				"z": -7.0061191337,
				"element": "H" 
			},
			{
				"x": -2.4049708185,
				"y": -0.5591452664,
				"z": -6.2375727773,
				"element": "H" 
			},
			{
				"x": -2.6433042239,
				"y": 0.0389233334,
				"z": -3.8321254251,
				"element": "H" 
			},
			{
				"x": -0.8793141441,
				"y": -0.5852127746,
				"z": -2.2227598487,
				"element": "H" 
			},
			{
				"x": 1.9821489043,
				"y": 2.4062018845,
				"z": 1.0638598653,
				"element": "H" 
			},
			{
				"x": 1.9371919985,
				"y": 3.9948800516,
				"z": -0.8439981093,
				"element": "H" 
			},
			{
				"x": 4.0116435225,
				"y": -0.2838677028,
				"z": 1.212849357,
				"element": "H" 
			},
			{
				"x": 4.0816356038,
				"y": -1.8101856444,
				"z": 3.1541485982,
				"element": "H" 
			},
			{
				"x": 2.9909928861,
				"y": -3.1081984956,
				"z": 4.6351120797,
				"element": "H" 
			},
			{
				"x": 3.3038008343,
				"y": -5.0709380558,
				"z": 5.25170551,
				"element": "H" 
			},
			{
				"x": 3.9719570552,
				"y": -6.5611190072,
				"z": 7.0931964851,
				"element": "H" 
			},
			{
				"x": 2.5763009535,
				"y": -6.7231448039,
				"z": 9.1426318223,
				"element": "H" 
			},
			{
				"x": 0.4920676179,
				"y": -5.3799745495,
				"z": 9.3294936697,
				"element": "H" 
			},
			{
				"x": -0.1778601183,
				"y": -3.8663903098,
				"z": 7.4592001377,
				"element": "H" 
			},
			{
				"x": -0.2251712179,
				"y": -2.0380968951,
				"z": 3.1161363401,
				"element": "H" 
			},
			{
				"x": -0.3941182118,
				"y": 0.3130844111,
				"z": 0.2715338271,
				"element": "H" 
			},
			{
				"x": -4.1859529712,
				"y": -1.7862570058,
				"z": 0.6386432149,
				"element": "H" 
			},
			{
				"x": -6.0203948837,
				"y": -0.783125244,
				"z": -0.7281381901,
				"element": "H" 
			},
			{
				"x": -5.7186871135,
				"y": 1.4733452511,
				"z": -1.7302206495,
				"element": "H" 
			},
			{
				"x": -3.6000065346,
				"y": 2.7190014176,
				"z": -1.3539561534,
				"element": "H" 
			},
			{
				"x": -1.8020291462,
				"y": 1.7316199836,
				"z": -0.0049177797,
				"element": "H" 
			},
			{
				"x": 2.8440629115,
				"y": 3.5113035054,
				"z": -5.915035452,
				"element": "H" 
			},
			{
				"x": 2.8294932819,
				"y": 4.5457990197,
				"z": -8.1462137004,
				"element": "H" 
			},
			{
				"x": 1.8799976769,
				"y": 6.8193816124,
				"z": -8.4676912941,
				"element": "H" 
			},
			{
				"x": 0.9467604552,
				"y": 8.0568697145,
				"z": -6.523382037,
				"element": "H" 
			},
			{
				"x": 0.9590789153,
				"y": 7.0002666533,
				"z": -4.2613998792,
				"element": "H" 
			}
		],
		 "valence_orbital": [ 
			{
				"type": "occ",
				"energy": -0.24523,
				"method": "rhf"
			},
			{
				"type": "occ",
				"energy": -0.23779,
				"method": "rhf"
			},
			{
				"type": "occ",
				"energy": -0.23008,
				"method": "rhf"
			},
			{
				"type": "occ",
				"energy": -0.22318,
				"method": "rhf"
			},
			{
				"type": "occ",
				"energy": -0.21221,
				"method": "rhf"
			},
			{
				"type": "unocc",
				"energy": -0.05297,
				"method": "rhf"
			},
			{
				"type": "unocc",
				"energy": -0.04605,
				"method": "rhf"
			},
			{
				"type": "unocc",
				"energy": -0.04422,
				"method": "rhf"
			},
			{
				"type": "unocc",
				"energy": -0.04038,
				"method": "rhf"
			},
			{
				"type": "unocc",
				"energy": -0.01927,
				"method": "rhf"
			}
		],
		"cosmo_sigma_profile": { 
			"-0.025": 0.0,
			"-0.024": 0.0,
			"-0.023": 0.0,
			"-0.022": 0.0,
			"-0.021": 0.0,
			"-0.02": 0.0,
			"-0.019": 0.0,
			"-0.018": 0.0,
			"-0.017": 0.0,
			"-0.016": 0.0,
			"-0.015": 1.37312004881,
			"-0.014": 2.66356225311,
			"-0.013": 2.94945549979,
			"-0.012": 3.34215926777,
			"-0.011": 2.20450981167,
			"-0.01": 3.52572122991,
			"-0.009": 5.50490369694,
			"-0.008": 9.17437538873,
			"-0.007": 12.8798717585,
			"-0.006": 41.2802845712,
			"-0.005": 50.4795953127,
			"-0.004": 52.4715198389,
			"-0.003": 42.1783496076,
			"-0.002": 43.5955274816,
			"-0.001": 43.9774157532,
			"0.0": 53.3173335557,
			"0.001": 52.122465343,
			"0.002": 51.3874058632,
			"0.003": 56.5351463281,
			"0.004": 63.923111464,
			"0.005": 17.5576298614,
			"0.006": 7.36539888522,
			"0.007": 8.26182038396,
			"0.008": 6.13395781485,
			"0.009": 7.45734259476,
			"0.01": 7.02555961977,
			"0.011": 8.61391953103,
			"0.012": 12.9921464927,
			"0.013": 11.1323618981,
			"0.014": 1.10397837952,
			"0.015": 0.0,
			"0.016": 0.0,
			"0.017": 0.0,
			"0.018": 0.0,
			"0.019": 0.0,
			"0.02": 0.0,
			"0.021": 0.0,
			"0.022": 0.0,
			"0.023": 0.0,
			"0.024": 0.0,
			"0.025": 0.0
		}
	}
}
