{
	 "smiles": "OC(=O)C1CCN(CC1)C(=O)C1=CC2=C(NN=C2)C=C1", 
	 "Tm": 520.15, 
	 "num_atms": 35, 
	 "gaussian": { 
		 "optdone": 1, 
		 "sigma_profile": "yes", 
		 "theory": "DFT", 
		 "functional": "B3LYP", 
		 "basiset": "6-31G**", 
		 "properties": { 
			 "R2extent": 6678.6069, 
			 "electric_dipole_moment_norm": 4.57492160589, 
			 "electric_quadrupole_moment_norm": 10.4394469657, 
			 "total_energy": -932.470512548, 
			 "HOMO_LUMO_gap": 0.1874, 
			 "cosmo_polarized_energy": -21.71, 
			 "cosmo_cavitation_energy": 37.21, 
			 "cosmo_dispersion_energy": -26.6, 
			 "cosmo_repulsion_energy": 2.01, 
			 "cosmo_total_nonelectrostatic_energy": 12.62, 
			 "SMD_solvation_energy": 6.43 
		},
		"coords": [
			{
				"x": 4.2822875355,
				"y": -2.0041943238,
				"z": 0.9035787491,
				"element": "O" 
			},
			{
				"x": 3.6258798655,
				"y": -0.8312122283,
				"z": 0.7422401375,
				"element": "C" 
			},
			{
				"x": 3.1961008095,
				"y": -0.2021042885,
				"z": 1.6869918416,
				"element": "O" 
			},
			{
				"x": 3.566965387,
				"y": -0.4057919878,
				"z": -0.7218688629,
				"element": "C" 
			},
			{
				"x": 2.5268190672,
				"y": 0.7136081283,
				"z": -0.9308604676,
				"element": "C" 
			},
			{
				"x": 1.1497641914,
				"y": 0.1138852834,
				"z": -1.2982026931,
				"element": "C" 
			},
			{
				"x": 1.0097137977,
				"y": -1.2415518788,
				"z": -0.7642837055,
				"element": "N" 
			},
			{
				"x": 1.912305337,
				"y": -2.2313107621,
				"z": -1.364888106,
				"element": "C" 
			},
			{
				"x": 3.2769437864,
				"y": -1.5824012484,
				"z": -1.6766380183,
				"element": "C" 
			},
			{
				"x": -0.1015612488,
				"y": -1.7287628899,
				"z": -0.1047032213,
				"element": "C" 
			},
			{
				"x": -0.3587084483,
				"y": -2.9313419085,
				"z": -0.1059839154,
				"element": "O" 
			},
			{
				"x": -0.9607082183,
				"y": -0.7595414283,
				"z": 0.6582729371,
				"element": "C" 
			},
			{
				"x": -2.3380839204,
				"y": -0.9499545698,
				"z": 0.6179959269,
				"element": "C" 
			},
			{
				"x": -3.1615694752,
				"y": -0.0990811104,
				"z": 1.3705312918,
				"element": "C" 
			},
			{
				"x": -2.5753881098,
				"y": 0.9097294135,
				"z": 2.1791623755,
				"element": "C" 
			},
			{
				"x": -3.6209666132,
				"y": 1.5508773647,
				"z": 2.780977092,
				"element": "N" 
			},
			{
				"x": -4.8304363031,
				"y": 1.0344878249,
				"z": 2.426009493,
				"element": "N" 
			},
			{
				"x": -4.5682598829,
				"y": 0.0509074164,
				"z": 1.5855169419,
				"element": "C" 
			},
			{
				"x": -1.1844297112,
				"y": 1.0863899406,
				"z": 2.2579109866,
				"element": "C" 
			},
			{
				"x": -0.3948417652,
				"y": 0.2476124673,
				"z": 1.4883013398,
				"element": "C" 
			},
			{
				"x": 4.2898372881,
				"y": -2.1809762913,
				"z": 1.8595743783,
				"element": "H" 
			},
			{
				"x": 4.5717991148,
				"y": -0.0185804476,
				"z": -0.9390905821,
				"element": "H" 
			},
			{
				"x": 2.8554918256,
				"y": 1.378227893,
				"z": -1.7366790242,
				"element": "H" 
			},
			{
				"x": 2.4586877636,
				"y": 1.3097650177,
				"z": -0.0180758951,
				"element": "H" 
			},
			{
				"x": 0.3367793477,
				"y": 0.7363142905,
				"z": -0.9273019418,
				"element": "H" 
			},
			{
				"x": 1.0401486188,
				"y": 0.0677354831,
				"z": -2.3923802236,
				"element": "H" 
			},
			{
				"x": 2.0199851407,
				"y": -3.0483904145,
				"z": -0.649404665,
				"element": "H" 
			},
			{
				"x": 1.4707413346,
				"y": -2.6639966064,
				"z": -2.2740008983,
				"element": "H" 
			},
			{
				"x": 3.2913111284,
				"y": -1.1881329601,
				"z": -2.6992195827,
				"element": "H" 
			},
			{
				"x": 4.0623127339,
				"y": -2.3390947469,
				"z": -1.6169993117,
				"element": "H" 
			},
			{
				"x": -2.7488229949,
				"y": -1.7540362057,
				"z": 0.016043933,
				"element": "H" 
			},
			{
				"x": -3.5936724424,
				"y": 2.3184640187,
				"z": 3.432356541,
				"element": "H" 
			},
			{
				"x": -5.3802134952,
				"y": -0.5221065379,
				"z": 1.1580596502,
				"element": "H" 
			},
			{
				"x": -0.7389263848,
				"y": 1.8366488269,
				"z": 2.9038661414,
				"element": "H" 
			},
			{
				"x": 0.6860149403,
				"y": 0.3316094658,
				"z": 1.5520913577,
				"element": "H" 
			}
		],
		 "valence_orbital": [ 
			{
				"type": "occ",
				"energy": -0.28161,
				"method": "rhf"
			},
			{
				"type": "occ",
				"energy": -0.25205,
				"method": "rhf"
			},
			{
				"type": "occ",
				"energy": -0.24004,
				"method": "rhf"
			},
			{
				"type": "occ",
				"energy": -0.23229,
				"method": "rhf"
			},
			{
				"type": "occ",
				"energy": -0.21946,
				"method": "rhf"
			},
			{
				"type": "unocc",
				"energy": -0.03206,
				"method": "rhf"
			},
			{
				"type": "unocc",
				"energy": -0.01033,
				"method": "rhf"
			},
			{
				"type": "unocc",
				"energy": 0.00126,
				"method": "rhf"
			},
			{
				"type": "unocc",
				"energy": 0.05182,
				"method": "rhf"
			},
			{
				"type": "unocc",
				"energy": 0.06192,
				"method": "rhf"
			}
		],
		"cosmo_sigma_profile": { 
			"-0.025": 0.0,
			"-0.024": 0.0,
			"-0.023": 0.0,
			"-0.022": 0.0,
			"-0.021": 0.0,
			"-0.02": 0.0,
			"-0.019": 0.0562229487533,
			"-0.018": 0.587498804512,
			"-0.017": 1.33195845198,
			"-0.016": 2.36630071877,
			"-0.015": 2.57113984883,
			"-0.014": 1.74907298985,
			"-0.013": 1.41284675454,
			"-0.012": 1.58951997567,
			"-0.011": 1.75380856199,
			"-0.01": 2.15646380233,
			"-0.009": 1.8546246734,
			"-0.008": 2.60468088434,
			"-0.007": 7.50489282266,
			"-0.006": 9.13072573985,
			"-0.005": 13.960337461,
			"-0.004": 28.3879345502,
			"-0.003": 26.8619555634,
			"-0.002": 28.3552217542,
			"-0.001": 21.5150276592,
			"0.0": 13.9208487378,
			"0.001": 14.298124058,
			"0.002": 20.9017052496,
			"0.003": 20.0453702349,
			"0.004": 13.1078948229,
			"0.005": 7.70371613063,
			"0.006": 5.3555316199,
			"0.007": 5.38980700234,
			"0.008": 6.01945578071,
			"0.009": 4.73527386273,
			"0.01": 4.91223963683,
			"0.011": 5.0234113557,
			"0.012": 5.28575045755,
			"0.013": 4.13336528766,
			"0.014": 5.54463348111,
			"0.015": 2.20526902916,
			"0.016": 0.00699006387834,
			"0.017": 0.0,
			"0.018": 0.0,
			"0.019": 0.0,
			"0.02": 0.0,
			"0.021": 0.0,
			"0.022": 0.0,
			"0.023": 0.0,
			"0.024": 0.0,
			"0.025": 0.0
		}
	}
}
