{
	 "smiles": "OC(=O)C1CC2=C(O1)C=CC(F)=C2", 
	 "Tm": 403.15, 
	 "num_atms": 20, 
	 "gaussian": { 
		 "optdone": 1, 
		 "sigma_profile": "yes", 
		 "theory": "DFT", 
		 "functional": "B3LYP", 
		 "basiset": "6-31G**", 
		 "properties": { 
			 "R2extent": 3019.4635, 
			 "electric_dipole_moment_norm": 3.1480064263, 
			 "electric_quadrupole_moment_norm": 22.79224425, 
			 "total_energy": -672.683300026, 
			 "HOMO_LUMO_gap": 0.20199, 
			 "cosmo_polarized_energy": -12.13, 
			 "cosmo_cavitation_energy": 24.8, 
			 "cosmo_dispersion_energy": -18.3, 
			 "cosmo_repulsion_energy": 1.43, 
			 "cosmo_total_nonelectrostatic_energy": 7.93, 
			 "SMD_solvation_energy": 5.83 
		},
		"coords": [
			{
				"x": 0.8854053152,
				"y": -4.1936485799,
				"z": 0.8987940183,
				"element": "O" 
			},
			{
				"x": -0.2990448523,
				"y": -3.7777094072,
				"z": 0.4253067738,
				"element": "C" 
			},
			{
				"x": -0.9067344454,
				"y": -4.3585342812,
				"z": -0.4401927794,
				"element": "O" 
			},
			{
				"x": -0.8586056399,
				"y": -2.5152812965,
				"z": 1.1052660832,
				"element": "C" 
			},
			{
				"x": -1.354541553,
				"y": -1.4612847763,
				"z": 0.0848917171,
				"element": "C" 
			},
			{
				"x": -0.2636542693,
				"y": -0.4206564486,
				"z": 0.1701642932,
				"element": "C" 
			},
			{
				"x": 0.566492631,
				"y": -0.7318593118,
				"z": 1.2463564912,
				"element": "C" 
			},
			{
				"x": 0.1855740312,
				"y": -1.8892910592,
				"z": 1.90324972,
				"element": "O" 
			},
			{
				"x": 1.6486546698,
				"y": 0.0557559693,
				"z": 1.6141973268,
				"element": "C" 
			},
			{
				"x": 1.8991372695,
				"y": 1.2039320796,
				"z": 0.8545462585,
				"element": "C" 
			},
			{
				"x": 1.0726767883,
				"y": 1.5115310354,
				"z": -0.2225954358,
				"element": "C" 
			},
			{
				"x": 1.3338541124,
				"y": 2.6223519371,
				"z": -0.9450943012,
				"element": "F" 
			},
			{
				"x": -0.0162869296,
				"y": 0.7194326946,
				"z": -0.5863712188,
				"element": "C" 
			},
			{
				"x": 1.1787271195,
				"y": -3.5337879631,
				"z": 1.5550648501,
				"element": "H" 
			},
			{
				"x": -1.643364442,
				"y": -2.8376489904,
				"z": 1.795455692,
				"element": "H" 
			},
			{
				"x": -1.4717004792,
				"y": -1.9136154596,
				"z": -0.9032881242,
				"element": "H" 
			},
			{
				"x": -2.3256353822,
				"y": -1.0476930266,
				"z": 0.3787952889,
				"element": "H" 
			},
			{
				"x": 2.2758865758,
				"y": -0.2097800248,
				"z": 2.4579462519,
				"element": "H" 
			},
			{
				"x": 2.7304285985,
				"y": 1.8599796235,
				"z": 1.0873077654,
				"element": "H" 
			},
			{
				"x": -0.6324691181,
				"y": 1.0032072854,
				"z": -1.4328006709,
				"element": "H" 
			}
		],
		 "valence_orbital": [ 
			{
				"type": "occ",
				"energy": -0.33905,
				"method": "rhf"
			},
			{
				"type": "occ",
				"energy": -0.32008,
				"method": "rhf"
			},
			{
				"type": "occ",
				"energy": -0.27915,
				"method": "rhf"
			},
			{
				"type": "occ",
				"energy": -0.27095,
				"method": "rhf"
			},
			{
				"type": "occ",
				"energy": -0.23164,
				"method": "rhf"
			},
			{
				"type": "unocc",
				"energy": -0.02965,
				"method": "rhf"
			},
			{
				"type": "unocc",
				"energy": -0.0008,
				"method": "rhf"
			},
			{
				"type": "unocc",
				"energy": 0.00205,
				"method": "rhf"
			},
			{
				"type": "unocc",
				"energy": 0.07334,
				"method": "rhf"
			},
			{
				"type": "unocc",
				"energy": 0.08048,
				"method": "rhf"
			}
		],
		"cosmo_sigma_profile": { 
			"-0.025": 0.0,
			"-0.024": 0.0,
			"-0.023": 0.0,
			"-0.022": 0.0,
			"-0.021": 0.0,
			"-0.02": 0.0,
			"-0.019": 0.0,
			"-0.018": 0.0,
			"-0.017": 0.0,
			"-0.016": 0.0,
			"-0.015": 0.185456056638,
			"-0.014": 0.76182434825,
			"-0.013": 0.742843203632,
			"-0.012": 0.269652167281,
			"-0.011": 0.724022592058,
			"-0.01": 1.76928494886,
			"-0.009": 4.71627202809,
			"-0.008": 5.82399443443,
			"-0.007": 9.95213819305,
			"-0.006": 12.5824405724,
			"-0.005": 12.5943108036,
			"-0.004": 13.5919846076,
			"-0.003": 11.1544666189,
			"-0.002": 9.36174428908,
			"-0.001": 8.43432901574,
			"0.0": 9.53493488374,
			"0.001": 12.9622280353,
			"0.002": 15.5540203537,
			"0.003": 15.9137578785,
			"0.004": 14.0897339571,
			"0.005": 9.21543208678,
			"0.006": 3.01993019606,
			"0.007": 2.74670789154,
			"0.008": 4.15025202652,
			"0.009": 5.29475144911,
			"0.01": 4.0568218448,
			"0.011": 5.09616230621,
			"0.012": 3.68959477317,
			"0.013": 0.665027785718,
			"0.014": 0.0,
			"0.015": 0.0,
			"0.016": 0.0,
			"0.017": 0.0,
			"0.018": 0.0,
			"0.019": 0.0,
			"0.02": 0.0,
			"0.021": 0.0,
			"0.022": 0.0,
			"0.023": 0.0,
			"0.024": 0.0,
			"0.025": 0.0
		}
	}
}
