{
	 "smiles": "ClC1=C(OCC2=CC=CC=C2)C=CC(C=O)=C1", 
	 "Tm": 366.65, 
	 "num_atms": 28, 
	 "gaussian": { 
		 "optdone": 1, 
		 "sigma_profile": "yes", 
		 "theory": "DFT", 
		 "functional": "B3LYP", 
		 "basiset": "6-31G**", 
		 "properties": { 
			 "R2extent": 7106.2972, 
			 "electric_dipole_moment_norm": 3.80768215454, 
			 "electric_quadrupole_moment_norm": 15.5084418818, 
			 "total_energy": -1150.73679088, 
			 "HOMO_LUMO_gap": 0.17822, 
			 "cosmo_polarized_energy": -11.12, 
			 "cosmo_cavitation_energy": 35.14, 
			 "cosmo_dispersion_energy": -24.82, 
			 "cosmo_repulsion_energy": 1.91, 
			 "cosmo_total_nonelectrostatic_energy": 12.23, 
			 "SMD_solvation_energy": 6.77 
		},
		"coords": [
			{
				"x": 0.911316904,
				"y": -0.4350829625,
				"z": 3.2046186688,
				"element": "Cl" 
			},
			{
				"x": 1.6014985618,
				"y": 0.6386899279,
				"z": 2.0038335604,
				"element": "C" 
			},
			{
				"x": 0.7683000793,
				"y": 1.2142407341,
				"z": 1.0215275845,
				"element": "C" 
			},
			{
				"x": -0.5763244906,
				"y": 0.9833689999,
				"z": 0.9957815349,
				"element": "O" 
			},
			{
				"x": -0.9906868819,
				"y": -0.221779132,
				"z": 0.3124525532,
				"element": "C" 
			},
			{
				"x": -2.4808504413,
				"y": -0.3839463842,
				"z": 0.4666185162,
				"element": "C" 
			},
			{
				"x": -3.2653323121,
				"y": -0.7610244702,
				"z": -0.6280856358,
				"element": "C" 
			},
			{
				"x": -4.6391475555,
				"y": -0.9632697316,
				"z": -0.4804798791,
				"element": "C" 
			},
			{
				"x": -5.2418675387,
				"y": -0.7762505478,
				"z": 0.7636435059,
				"element": "C" 
			},
			{
				"x": -4.4649158678,
				"y": -0.3895788322,
				"z": 1.8590081296,
				"element": "C" 
			},
			{
				"x": -3.0916519908,
				"y": -0.1986540742,
				"z": 1.7138483784,
				"element": "C" 
			},
			{
				"x": 1.3288499731,
				"y": 2.0934702693,
				"z": 0.0879049025,
				"element": "C" 
			},
			{
				"x": 2.6868419776,
				"y": 2.3934443214,
				"z": 0.1258428563,
				"element": "C" 
			},
			{
				"x": 3.5069242865,
				"y": 1.8115168173,
				"z": 1.0999313407,
				"element": "C" 
			},
			{
				"x": 4.9527954996,
				"y": 2.1253395329,
				"z": 1.1439337486,
				"element": "C" 
			},
			{
				"x": 5.7347211189,
				"y": 1.6647749539,
				"z": 1.9532473814,
				"element": "O" 
			},
			{
				"x": 2.9566179719,
				"y": 0.9325403919,
				"z": 2.0443432111,
				"element": "C" 
			},
			{
				"x": -0.457445036,
				"y": -1.0780758887,
				"z": 0.7460382206,
				"element": "H" 
			},
			{
				"x": -0.7142310496,
				"y": -0.152074484,
				"z": -0.7477914982,
				"element": "H" 
			},
			{
				"x": -2.8010690056,
				"y": -0.8965414072,
				"z": -1.6020625704,
				"element": "H" 
			},
			{
				"x": -5.2370420739,
				"y": -1.2568266992,
				"z": -1.3385424788,
				"element": "H" 
			},
			{
				"x": -6.3113762108,
				"y": -0.9265601264,
				"z": 0.8796384961,
				"element": "H" 
			},
			{
				"x": -4.9301990866,
				"y": -0.2381646622,
				"z": 2.8289021703,
				"element": "H" 
			},
			{
				"x": -2.4865145645,
				"y": 0.1069465917,
				"z": 2.5613315125,
				"element": "H" 
			},
			{
				"x": 0.6692677993,
				"y": 2.5384014714,
				"z": -0.6499705172,
				"element": "H" 
			},
			{
				"x": 3.1151397955,
				"y": 3.0799860999,
				"z": -0.6001068109,
				"element": "H" 
			},
			{
				"x": 5.2934721533,
				"y": 2.8366355758,
				"z": 0.3590202402,
				"element": "H" 
			},
			{
				"x": 3.602407985,
				"y": 0.4976737151,
				"z": 2.7993728782,
				"element": "H" 
			}
		],
		 "valence_orbital": [ 
			{
				"type": "occ",
				"energy": -0.2702,
				"method": "rhf"
			},
			{
				"type": "occ",
				"energy": -0.2621,
				"method": "rhf"
			},
			{
				"type": "occ",
				"energy": -0.25836,
				"method": "rhf"
			},
			{
				"type": "occ",
				"energy": -0.25343,
				"method": "rhf"
			},
			{
				"type": "occ",
				"energy": -0.249,
				"method": "rhf"
			},
			{
				"type": "unocc",
				"energy": -0.07078,
				"method": "rhf"
			},
			{
				"type": "unocc",
				"energy": -0.02877,
				"method": "rhf"
			},
			{
				"type": "unocc",
				"energy": -0.01034,
				"method": "rhf"
			},
			{
				"type": "unocc",
				"energy": -0.00482,
				"method": "rhf"
			},
			{
				"type": "unocc",
				"energy": 0.02109,
				"method": "rhf"
			}
		],
		"cosmo_sigma_profile": { 
			"-0.025": 0.0,
			"-0.024": 0.0,
			"-0.023": 0.0,
			"-0.022": 0.0,
			"-0.021": 0.0,
			"-0.02": 0.0,
			"-0.019": 0.0,
			"-0.018": 0.0,
			"-0.017": 0.0,
			"-0.016": 0.0,
			"-0.015": 0.0,
			"-0.014": 0.0,
			"-0.013": 0.0,
			"-0.012": 0.0,
			"-0.011": 0.0,
			"-0.01": 0.0,
			"-0.009": 0.27667024939,
			"-0.008": 4.02295317085,
			"-0.007": 8.34141837853,
			"-0.006": 16.2549019163,
			"-0.005": 21.6043951821,
			"-0.004": 23.9760126607,
			"-0.003": 19.8894856998,
			"-0.002": 18.1956338691,
			"-0.001": 19.1267393491,
			"0.0": 23.8790806548,
			"0.001": 30.1988308741,
			"0.002": 21.202644877,
			"0.003": 15.7963305206,
			"0.004": 17.9339285448,
			"0.005": 13.6704558908,
			"0.006": 9.65878330033,
			"0.007": 3.57393250499,
			"0.008": 2.9426294175,
			"0.009": 2.60457515186,
			"0.01": 3.88365756141,
			"0.011": 4.36114583618,
			"0.012": 2.15659513532,
			"0.013": 0.475920254419,
			"0.014": 0.0,
			"0.015": 0.0,
			"0.016": 0.0,
			"0.017": 0.0,
			"0.018": 0.0,
			"0.019": 0.0,
			"0.02": 0.0,
			"0.021": 0.0,
			"0.022": 0.0,
			"0.023": 0.0,
			"0.024": 0.0,
			"0.025": 0.0
		}
	}
}
