{
	 "smiles": "CCOC1=CC=C(CO)C=C1", 
	 "Tm": 306.15, 
	 "num_atms": 23, 
	 "gaussian": { 
		 "optdone": 1, 
		 "sigma_profile": "yes", 
		 "theory": "DFT", 
		 "functional": "B3LYP", 
		 "basiset": "6-31G**", 
		 "properties": { 
			 "R2extent": 2383.8904, 
			 "electric_dipole_moment_norm": 1.98020752448, 
			 "electric_quadrupole_moment_norm": 9.01039315624, 
			 "total_energy": -500.622187622, 
			 "HOMO_LUMO_gap": 0.21057, 
			 "cosmo_polarized_energy": -8.88, 
			 "cosmo_cavitation_energy": 25.97, 
			 "cosmo_dispersion_energy": -19.19, 
			 "cosmo_repulsion_energy": 1.57, 
			 "cosmo_total_nonelectrostatic_energy": 8.34, 
			 "SMD_solvation_energy": 4.88 
		},
		"coords": [
			{
				"x": -2.752089642,
				"y": -0.5942346328,
				"z": 2.6453435202,
				"element": "C" 
			},
			{
				"x": -3.0493337,
				"y": 0.1932500582,
				"z": 1.3729206823,
				"element": "C" 
			},
			{
				"x": -2.0134124998,
				"y": 1.1219775307,
				"z": 1.0465312959,
				"element": "O" 
			},
			{
				"x": -0.8838351191,
				"y": 0.6890212072,
				"z": 0.4110403758,
				"element": "C" 
			},
			{
				"x": 0.0854163489,
				"y": 1.6747512819,
				"z": 0.170585619,
				"element": "C" 
			},
			{
				"x": 1.2688833746,
				"y": 1.3487388775,
				"z": -0.4810021187,
				"element": "C" 
			},
			{
				"x": 1.5199227282,
				"y": 0.0408546601,
				"z": -0.9191701547,
				"element": "C" 
			},
			{
				"x": 2.7942141202,
				"y": -0.3087446814,
				"z": -1.6610710637,
				"element": "C" 
			},
			{
				"x": 3.2692978663,
				"y": -1.6220982468,
				"z": -1.3896782256,
				"element": "O" 
			},
			{
				"x": 0.5493182656,
				"y": -0.9331214001,
				"z": -0.6705756349,
				"element": "C" 
			},
			{
				"x": -0.6420492124,
				"y": -0.6256902347,
				"z": -0.0092361209,
				"element": "C" 
			},
			{
				"x": -3.5997997403,
				"y": -1.2421389538,
				"z": 2.8927782693,
				"element": "H" 
			},
			{
				"x": -1.8633535672,
				"y": -1.2213524109,
				"z": 2.5351564824,
				"element": "H" 
			},
			{
				"x": -2.5849610166,
				"y": 0.0895552719,
				"z": 3.4824587828,
				"element": "H" 
			},
			{
				"x": -3.9380429196,
				"y": 0.8153700013,
				"z": 1.5130349345,
				"element": "H" 
			},
			{
				"x": -3.2475181668,
				"y": -0.4723112497,
				"z": 0.5231116486,
				"element": "H" 
			},
			{
				"x": -0.112196068,
				"y": 2.6862537004,
				"z": 0.5104433749,
				"element": "H" 
			},
			{
				"x": 2.0119242273,
				"y": 2.1249491064,
				"z": -0.6510930728,
				"element": "H" 
			},
			{
				"x": 3.5636131299,
				"y": 0.4511476837,
				"z": -1.4485805954,
				"element": "H" 
			},
			{
				"x": 2.6256831015,
				"y": -0.2899874378,
				"z": -2.7449136002,
				"element": "H" 
			},
			{
				"x": 3.3679529462,
				"y": -1.6968135675,
				"z": -0.4308843858,
				"element": "H" 
			},
			{
				"x": 0.7361048215,
				"y": -1.9536365847,
				"z": -0.9919260669,
				"element": "H" 
			},
			{
				"x": -1.3643392785,
				"y": -1.413339979,
				"z": 0.1701260539,
				"element": "H" 
			}
		],
		 "valence_orbital": [ 
			{
				"type": "occ",
				"energy": -0.31616,
				"method": "rhf"
			},
			{
				"type": "occ",
				"energy": -0.31125,
				"method": "rhf"
			},
			{
				"type": "occ",
				"energy": -0.26965,
				"method": "rhf"
			},
			{
				"type": "occ",
				"energy": -0.24893,
				"method": "rhf"
			},
			{
				"type": "occ",
				"energy": -0.21177,
				"method": "rhf"
			},
			{
				"type": "unocc",
				"energy": -0.0012,
				"method": "rhf"
			},
			{
				"type": "unocc",
				"energy": 0.01054,
				"method": "rhf"
			},
			{
				"type": "unocc",
				"energy": 0.09012,
				"method": "rhf"
			},
			{
				"type": "unocc",
				"energy": 0.09321,
				"method": "rhf"
			},
			{
				"type": "unocc",
				"energy": 0.10792,
				"method": "rhf"
			}
		],
		"cosmo_sigma_profile": { 
			"-0.025": 0.0,
			"-0.024": 0.0,
			"-0.023": 0.0,
			"-0.022": 0.0,
			"-0.021": 0.0,
			"-0.02": 0.0,
			"-0.019": 0.0,
			"-0.018": 0.0,
			"-0.017": 0.0,
			"-0.016": 0.0,
			"-0.015": 0.699351255681,
			"-0.014": 0.723139354987,
			"-0.013": 0.871360818943,
			"-0.012": 1.05553116711,
			"-0.011": 0.640401809449,
			"-0.01": 0.841266669033,
			"-0.009": 0.727057857013,
			"-0.008": 1.07826328207,
			"-0.007": 1.18695857113,
			"-0.006": 4.83879525472,
			"-0.005": 13.8530038728,
			"-0.004": 22.7290409353,
			"-0.003": 23.9755838699,
			"-0.002": 19.3069987078,
			"-0.001": 15.6284170206,
			"0.0": 16.7007841092,
			"0.001": 11.5540926888,
			"0.002": 8.15502945963,
			"0.003": 10.005125139,
			"0.004": 11.0761080784,
			"0.005": 11.6490212337,
			"0.006": 9.80450791549,
			"0.007": 1.99916303874,
			"0.008": 2.97094803929,
			"0.009": 2.28036757911,
			"0.01": 2.9311926268,
			"0.011": 1.78314416461,
			"0.012": 1.0997597862,
			"0.013": 1.98289173842,
			"0.014": 1.90933647779,
			"0.015": 0.331714682378,
			"0.016": 0.0,
			"0.017": 0.0,
			"0.018": 0.0,
			"0.019": 0.0,
			"0.02": 0.0,
			"0.021": 0.0,
			"0.022": 0.0,
			"0.023": 0.0,
			"0.024": 0.0,
			"0.025": 0.0
		}
	}
}
