{
	 "smiles": "OC(=O)C1CC2CCC1C2", 
	 "Tm": 313.15, 
	 "num_atms": 22, 
	 "gaussian": { 
		 "optdone": 1, 
		 "sigma_profile": "yes", 
		 "theory": "DFT", 
		 "functional": "B3LYP", 
		 "basiset": "6-31G**", 
		 "properties": { 
			 "R2extent": 1661.9617, 
			 "electric_dipole_moment_norm": 4.13940170918, 
			 "electric_quadrupole_moment_norm": 12.886106883, 
			 "total_energy": -462.541069154, 
			 "HOMO_LUMO_gap": 0.27481, 
			 "cosmo_polarized_energy": -12.37, 
			 "cosmo_cavitation_energy": 22.84, 
			 "cosmo_dispersion_energy": -17.26, 
			 "cosmo_repulsion_energy": 1.39, 
			 "cosmo_total_nonelectrostatic_energy": 6.98, 
			 "SMD_solvation_energy": 4.09 
		},
		"coords": [
			{
				"x": 1.8877091203,
				"y": 2.6964171295,
				"z": -0.3034156702,
				"element": "O" 
			},
			{
				"x": 1.1175883367,
				"y": 1.8160165925,
				"z": 0.3961912294,
				"element": "C" 
			},
			{
				"x": 0.1425998616,
				"y": 2.2163180247,
				"z": 0.9842714585,
				"element": "O" 
			},
			{
				"x": 1.5677261718,
				"y": 0.3602090773,
				"z": 0.3136978762,
				"element": "C" 
			},
			{
				"x": 0.8357692734,
				"y": -0.5615010516,
				"z": 1.3353005965,
				"element": "C" 
			},
			{
				"x": 0.1341156006,
				"y": -1.6088104115,
				"z": 0.4400499084,
				"element": "C" 
			},
			{
				"x": 1.206977534,
				"y": -2.5394629672,
				"z": -0.1732796295,
				"element": "C" 
			},
			{
				"x": 1.92743227,
				"y": -1.6125374183,
				"z": -1.2071942352,
				"element": "C" 
			},
			{
				"x": 1.1708380965,
				"y": -0.270683638,
				"z": -1.0633554759,
				"element": "C" 
			},
			{
				"x": -0.2692022466,
				"y": -0.7473745526,
				"z": -0.7761674777,
				"element": "C" 
			},
			{
				"x": 2.6309572364,
				"y": 2.2307748245,
				"z": -0.7122759898,
				"element": "H" 
			},
			{
				"x": 2.658064189,
				"y": 0.3346549911,
				"z": 0.4418477049,
				"element": "H" 
			},
			{
				"x": 1.5287876076,
				"y": -1.0165334119,
				"z": 2.0496353679,
				"element": "H" 
			},
			{
				"x": 0.1078493099,
				"y": 0.0326160314,
				"z": 1.8937933424,
				"element": "H" 
			},
			{
				"x": -0.6775518302,
				"y": -2.1390993949,
				"z": 0.94464516,
				"element": "H" 
			},
			{
				"x": 1.8894408909,
				"y": -2.9367350447,
				"z": 0.5850469761,
				"element": "H" 
			},
			{
				"x": 0.7425432883,
				"y": -3.3962892016,
				"z": -0.6723306733,
				"element": "H" 
			},
			{
				"x": 1.8222565714,
				"y": -1.9990213271,
				"z": -2.2262030347,
				"element": "H" 
			},
			{
				"x": 2.999913143,
				"y": -1.5076752695,
				"z": -1.0108954919,
				"element": "H" 
			},
			{
				"x": 1.2988540863,
				"y": 0.4056242439,
				"z": -1.9138290384,
				"element": "H" 
			},
			{
				"x": -0.9526543004,
				"y": 0.0679843827,
				"z": -0.5219231483,
				"element": "H" 
			},
			{
				"x": -0.6944142104,
				"y": -1.3287916087,
				"z": -1.6012097554,
				"element": "H" 
			}
		],
		 "valence_orbital": [ 
			{
				"type": "occ",
				"energy": -0.32774,
				"method": "rhf"
			},
			{
				"type": "occ",
				"energy": -0.31478,
				"method": "rhf"
			},
			{
				"type": "occ",
				"energy": -0.31134,
				"method": "rhf"
			},
			{
				"type": "occ",
				"energy": -0.30589,
				"method": "rhf"
			},
			{
				"type": "occ",
				"energy": -0.266,
				"method": "rhf"
			},
			{
				"type": "unocc",
				"energy": 0.00881,
				"method": "rhf"
			},
			{
				"type": "unocc",
				"energy": 0.05379,
				"method": "rhf"
			},
			{
				"type": "unocc",
				"energy": 0.08087,
				"method": "rhf"
			},
			{
				"type": "unocc",
				"energy": 0.09857,
				"method": "rhf"
			},
			{
				"type": "unocc",
				"energy": 0.12682,
				"method": "rhf"
			}
		],
		"cosmo_sigma_profile": { 
			"-0.025": 0.0,
			"-0.024": 0.0,
			"-0.023": 0.0,
			"-0.022": 0.0,
			"-0.021": 0.0,
			"-0.02": 0.0,
			"-0.019": 0.0519611662881,
			"-0.018": 0.872590608893,
			"-0.017": 0.92593210165,
			"-0.016": 0.830558686887,
			"-0.015": 0.935846623469,
			"-0.014": 1.24560065674,
			"-0.013": 1.21144865013,
			"-0.012": 0.737871152496,
			"-0.011": 1.18181753373,
			"-0.01": 1.05185900114,
			"-0.009": 1.42478029307,
			"-0.008": 1.16666638082,
			"-0.007": 1.60448346654,
			"-0.006": 2.43906024597,
			"-0.005": 3.64202271756,
			"-0.004": 5.54739848648,
			"-0.003": 16.2129062074,
			"-0.002": 26.0984020943,
			"-0.001": 24.695118261,
			"0.0": 22.1861862253,
			"0.001": 21.0929930465,
			"0.002": 7.11440931198,
			"0.003": 2.43298307218,
			"0.004": 2.56223565227,
			"0.005": 2.3811602531,
			"0.006": 2.23137097992,
			"0.007": 2.37914346816,
			"0.008": 2.27651239442,
			"0.009": 3.0586688073,
			"0.01": 4.16431397976,
			"0.011": 5.34347079965,
			"0.012": 5.33093400696,
			"0.013": 2.35595005473,
			"0.014": 0.197209260166,
			"0.015": 0.0,
			"0.016": 0.0,
			"0.017": 0.0,
			"0.018": 0.0,
			"0.019": 0.0,
			"0.02": 0.0,
			"0.021": 0.0,
			"0.022": 0.0,
			"0.023": 0.0,
			"0.024": 0.0,
			"0.025": 0.0
		}
	}
}
