{
	 "smiles": "ClCC(=O)C1=CC2=C3N(CCCC3=C1)C(=O)C2", 
	 "Tm": 433.15, 
	 "num_atms": 29, 
	 "gaussian": { 
		 "optdone": 1, 
		 "sigma_profile": "yes", 
		 "theory": "DFT", 
		 "functional": "B3LYP", 
		 "basiset": "6-31G**", 
		 "properties": { 
			 "R2extent": 6787.3844, 
			 "electric_dipole_moment_norm": 3.28762538772, 
			 "electric_quadrupole_moment_norm": 31.09210767, 
			 "total_energy": -1168.04073225, 
			 "HOMO_LUMO_gap": 0.16567, 
			 "cosmo_polarized_energy": -18.3, 
			 "cosmo_cavitation_energy": 33.62, 
			 "cosmo_dispersion_energy": -24.98, 
			 "cosmo_repulsion_energy": 1.94, 
			 "cosmo_total_nonelectrostatic_energy": 10.58, 
			 "SMD_solvation_energy": 5.39 
		},
		"coords": [
			{
				"x": -5.4225330942,
				"y": -2.9595353841,
				"z": 1.7511942832,
				"element": "Cl" 
			},
			{
				"x": -4.0938589828,
				"y": -2.5300545478,
				"z": 0.6309625632,
				"element": "C" 
			},
			{
				"x": -2.9024125831,
				"y": -1.8597941314,
				"z": 1.3326328862,
				"element": "C" 
			},
			{
				"x": -2.9048715234,
				"y": -1.6575281949,
				"z": 2.5330954166,
				"element": "O" 
			},
			{
				"x": -1.7495684623,
				"y": -1.4728578317,
				"z": 0.468159353,
				"element": "C" 
			},
			{
				"x": -1.7260834358,
				"y": -1.6914921495,
				"z": -0.9297503207,
				"element": "C" 
			},
			{
				"x": -0.6159752336,
				"y": -1.2963234253,
				"z": -1.6551519247,
				"element": "C" 
			},
			{
				"x": 0.4537378409,
				"y": -0.6975675306,
				"z": -0.9764666772,
				"element": "C" 
			},
			{
				"x": 1.4748786275,
				"y": -0.3600505664,
				"z": -1.854646988,
				"element": "N" 
			},
			{
				"x": 2.7049265266,
				"y": 0.2721872135,
				"z": -1.3909286473,
				"element": "C" 
			},
			{
				"x": 2.4181521196,
				"y": 1.0688498406,
				"z": -0.1067278359,
				"element": "C" 
			},
			{
				"x": 1.7074981162,
				"y": 0.2177097299,
				"z": 0.9693193461,
				"element": "C" 
			},
			{
				"x": 0.4775171181,
				"y": -0.4562701064,
				"z": 0.3965793313,
				"element": "C" 
			},
			{
				"x": -0.6537194595,
				"y": -0.8562879008,
				"z": 1.1046916862,
				"element": "C" 
			},
			{
				"x": 1.1540559591,
				"y": -0.6985077763,
				"z": -3.1652148609,
				"element": "C" 
			},
			{
				"x": 1.8626413386,
				"y": -0.5055981823,
				"z": -4.1330760753,
				"element": "O" 
			},
			{
				"x": -0.2479487537,
				"y": -1.3467284424,
				"z": -3.1190449425,
				"element": "C" 
			},
			{
				"x": -4.5063958498,
				"y": -1.8615936373,
				"z": -0.1289434157,
				"element": "H" 
			},
			{
				"x": -3.769647449,
				"y": -3.4488968578,
				"z": 0.1359428706,
				"element": "H" 
			},
			{
				"x": -2.5648204933,
				"y": -2.1586896657,
				"z": -1.4362421772,
				"element": "H" 
			},
			{
				"x": 3.0786360519,
				"y": 0.9116587975,
				"z": -2.1947142182,
				"element": "H" 
			},
			{
				"x": 3.4644650731,
				"y": -0.4986022806,
				"z": -1.2029939541,
				"element": "H" 
			},
			{
				"x": 3.3628621225,
				"y": 1.4591729206,
				"z": 0.283932754,
				"element": "H" 
			},
			{
				"x": 1.79057092,
				"y": 1.9321809178,
				"z": -0.3571364009,
				"element": "H" 
			},
			{
				"x": 1.4354073612,
				"y": 0.8445258208,
				"z": 1.8248920876,
				"element": "H" 
			},
			{
				"x": 2.4032201312,
				"y": -0.5420721756,
				"z": 1.3524150834,
				"element": "H" 
			},
			{
				"x": -0.722802935,
				"y": -0.6990260671,
				"z": 2.176870527,
				"element": "H" 
			},
			{
				"x": -0.9281494206,
				"y": -0.7826868066,
				"z": -3.7667223587,
				"element": "H" 
			},
			{
				"x": -0.1863816305,
				"y": -2.3620215801,
				"z": -3.5266273909,
				"element": "H" 
			}
		],
		 "valence_orbital": [ 
			{
				"type": "occ",
				"energy": -0.29542,
				"method": "rhf"
			},
			{
				"type": "occ",
				"energy": -0.26938,
				"method": "rhf"
			},
			{
				"type": "occ",
				"energy": -0.2649,
				"method": "rhf"
			},
			{
				"type": "occ",
				"energy": -0.25898,
				"method": "rhf"
			},
			{
				"type": "occ",
				"energy": -0.22638,
				"method": "rhf"
			},
			{
				"type": "unocc",
				"energy": -0.06071,
				"method": "rhf"
			},
			{
				"type": "unocc",
				"energy": -0.02784,
				"method": "rhf"
			},
			{
				"type": "unocc",
				"energy": 0.00469,
				"method": "rhf"
			},
			{
				"type": "unocc",
				"energy": 0.02684,
				"method": "rhf"
			},
			{
				"type": "unocc",
				"energy": 0.04335,
				"method": "rhf"
			}
		],
		"cosmo_sigma_profile": { 
			"-0.025": 0.0,
			"-0.024": 0.0,
			"-0.023": 0.0,
			"-0.022": 0.0,
			"-0.021": 0.0,
			"-0.02": 0.0,
			"-0.019": 0.0,
			"-0.018": 0.0,
			"-0.017": 0.0,
			"-0.016": 0.0,
			"-0.015": 0.0,
			"-0.014": 0.0,
			"-0.013": 0.0,
			"-0.012": 0.0,
			"-0.011": 0.0,
			"-0.01": 0.114723226247,
			"-0.009": 6.98579719695,
			"-0.008": 7.10831264256,
			"-0.007": 9.2841091026,
			"-0.006": 11.5148496864,
			"-0.005": 20.5395119893,
			"-0.004": 30.390180705,
			"-0.003": 27.5976772574,
			"-0.002": 20.4977343565,
			"-0.001": 17.729368547,
			"0.0": 11.7968666259,
			"0.001": 11.0300897946,
			"0.002": 13.592824618,
			"0.003": 15.3318479909,
			"0.004": 9.59487049558,
			"0.005": 7.59288086794,
			"0.006": 10.8370804933,
			"0.007": 4.68556767201,
			"0.008": 4.09726515832,
			"0.009": 3.29084696955,
			"0.01": 4.49749509688,
			"0.011": 5.72544866099,
			"0.012": 7.91428967552,
			"0.013": 6.31255314855,
			"0.014": 1.08542751788,
			"0.015": 0.0,
			"0.016": 0.0,
			"0.017": 0.0,
			"0.018": 0.0,
			"0.019": 0.0,
			"0.02": 0.0,
			"0.021": 0.0,
			"0.022": 0.0,
			"0.023": 0.0,
			"0.024": 0.0,
			"0.025": 0.0
		}
	}
}
