{
	 "smiles": "OC1=C(O)C=C(C=C1)[N+]([O-])=O", 
	 "Tm": 449.15, 
	 "num_atms": 16, 
	 "gaussian": { 
		 "optdone": 1, 
		 "sigma_profile": "yes", 
		 "theory": "DFT", 
		 "functional": "B3LYP", 
		 "basiset": "6-31G**", 
		 "properties": { 
			 "R2extent": 2114.0633, 
			 "electric_dipole_moment_norm": 4.66158922364, 
			 "electric_quadrupole_moment_norm": 14.9737004331, 
			 "total_energy": -587.191973618, 
			 "HOMO_LUMO_gap": 0.1578, 
			 "cosmo_polarized_energy": -14.36, 
			 "cosmo_cavitation_energy": 21.33, 
			 "cosmo_dispersion_energy": -16.14, 
			 "cosmo_repulsion_energy": 1.29, 
			 "cosmo_total_nonelectrostatic_energy": 6.48, 
			 "SMD_solvation_energy": 6.73 
		},
		"coords": [
			{
				"x": 1.9024346113,
				"y": 2.3315748813,
				"z": -1.2075064277,
				"element": "O" 
			},
			{
				"x": 1.4422535529,
				"y": 1.2502685653,
				"z": -0.5387670949,
				"element": "C" 
			},
			{
				"x": 1.2375472763,
				"y": 1.3141626806,
				"z": 0.8577765689,
				"element": "C" 
			},
			{
				"x": 1.5409995664,
				"y": 2.5270963166,
				"z": 1.4222786732,
				"element": "O" 
			},
			{
				"x": 0.767160954,
				"y": 0.2127133493,
				"z": 1.5507698103,
				"element": "C" 
			},
			{
				"x": 0.5006947454,
				"y": -0.9607861174,
				"z": 0.8363099638,
				"element": "C" 
			},
			{
				"x": 0.6942231682,
				"y": -1.0481498538,
				"z": -0.5399860498,
				"element": "C" 
			},
			{
				"x": 1.1679497217,
				"y": 0.0671527103,
				"z": -1.2260988697,
				"element": "C" 
			},
			{
				"x": 0.0042208313,
				"y": -2.1238098556,
				"z": 1.5682786989,
				"element": "N" 
			},
			{
				"x": -0.1546553941,
				"y": -2.0092243973,
				"z": 2.7865610264,
				"element": "O" 
			},
			{
				"x": -0.2270342521,
				"y": -3.1509827877,
				"z": 0.9287418121,
				"element": "O" 
			},
			{
				"x": 2.0315983353,
				"y": 3.0476473424,
				"z": -0.5659467442,
				"element": "H" 
			},
			{
				"x": 1.3797827334,
				"y": 2.5046709718,
				"z": 2.3737621956,
				"element": "H" 
			},
			{
				"x": 0.6007010073,
				"y": 0.2325630429,
				"z": 2.6219359809,
				"element": "H" 
			},
			{
				"x": 0.4742275516,
				"y": -1.9768528605,
				"z": -1.0500534305,
				"element": "H" 
			},
			{
				"x": 1.3321955911,
				"y": 0.0403560117,
				"z": -2.2975561133,
				"element": "H" 
			}
		],
		 "valence_orbital": [ 
			{
				"type": "occ",
				"energy": -0.30357,
				"method": "rhf"
			},
			{
				"type": "occ",
				"energy": -0.30253,
				"method": "rhf"
			},
			{
				"type": "occ",
				"energy": -0.28469,
				"method": "rhf"
			},
			{
				"type": "occ",
				"energy": -0.26869,
				"method": "rhf"
			},
			{
				"type": "occ",
				"energy": -0.23972,
				"method": "rhf"
			},
			{
				"type": "unocc",
				"energy": -0.08192,
				"method": "rhf"
			},
			{
				"type": "unocc",
				"energy": -0.01958,
				"method": "rhf"
			},
			{
				"type": "unocc",
				"energy": 0.01591,
				"method": "rhf"
			},
			{
				"type": "unocc",
				"energy": 0.03469,
				"method": "rhf"
			},
			{
				"type": "unocc",
				"energy": 0.07808,
				"method": "rhf"
			}
		],
		"cosmo_sigma_profile": { 
			"-0.025": 0.0,
			"-0.024": 0.0,
			"-0.023": 0.0,
			"-0.022": 0.0,
			"-0.021": 0.0,
			"-0.02": 0.133012335475,
			"-0.019": 1.0505818818,
			"-0.018": 1.20326843466,
			"-0.017": 0.99633270441,
			"-0.016": 1.64355335323,
			"-0.015": 1.73228471616,
			"-0.014": 1.0015509933,
			"-0.013": 1.65670100296,
			"-0.012": 1.51758087377,
			"-0.011": 1.60398099383,
			"-0.01": 1.85912762738,
			"-0.009": 1.99894882771,
			"-0.008": 2.55202647648,
			"-0.007": 5.18474723135,
			"-0.006": 5.92458655554,
			"-0.005": 6.59187084555,
			"-0.004": 5.89622053369,
			"-0.003": 7.45813330076,
			"-0.002": 7.71631464189,
			"-0.001": 11.114441162,
			"0.0": 17.0129798367,
			"0.001": 18.095777363,
			"0.002": 11.5469508709,
			"0.003": 6.28521759597,
			"0.004": 5.56822940633,
			"0.005": 6.29587330662,
			"0.006": 5.10348378178,
			"0.007": 6.42816770044,
			"0.008": 12.0562964322,
			"0.009": 6.70309805264,
			"0.01": 5.28627309988,
			"0.011": 1.5693177836,
			"0.012": 0.0,
			"0.013": 0.0,
			"0.014": 0.0,
			"0.015": 0.0,
			"0.016": 0.0,
			"0.017": 0.0,
			"0.018": 0.0,
			"0.019": 0.0,
			"0.02": 0.0,
			"0.021": 0.0,
			"0.022": 0.0,
			"0.023": 0.0,
			"0.024": 0.0,
			"0.025": 0.0
		}
	}
}
