{
	 "smiles": "CCCCN1C(=O)NC(=O)C(NCC2=C(OC)C=CC=C2)=C1N", 
	 "Tm": 472.15, 
	 "num_atms": 45, 
	 "gaussian": { 
		 "optdone": 1, 
		 "sigma_profile": "yes", 
		 "theory": "DFT", 
		 "functional": "B3LYP", 
		 "basiset": "6-31G**", 
		 "properties": { 
			 "R2extent": 7097.1329, 
			 "electric_dipole_moment_norm": 6.21932218011, 
			 "electric_quadrupole_moment_norm": 17.2001248423, 
			 "total_energy": -1067.66798814, 
			 "HOMO_LUMO_gap": 0.1732, 
			 "cosmo_polarized_energy": -25.66, 
			 "cosmo_cavitation_energy": 45.79, 
			 "cosmo_dispersion_energy": -29.44, 
			 "cosmo_repulsion_energy": 2.21, 
			 "cosmo_total_nonelectrostatic_energy": 18.57, 
			 "SMD_solvation_energy": 7.83 
		},
		"coords": [
			{
				"x": 2.6905126266,
				"y": -1.0559156817,
				"z": -1.168476066,
				"element": "C" 
			},
			{
				"x": 3.0902823569,
				"y": 0.2185031472,
				"z": -1.9240612489,
				"element": "C" 
			},
			{
				"x": 2.3350955593,
				"y": 1.4893815072,
				"z": -1.4836164138,
				"element": "C" 
			},
			{
				"x": 0.9896214606,
				"y": 1.7556060749,
				"z": -2.1839950581,
				"element": "C" 
			},
			{
				"x": -0.0470073844,
				"y": 0.7171773354,
				"z": -2.031600805,
				"element": "N" 
			},
			{
				"x": -0.1956572213,
				"y": -0.1771343925,
				"z": -3.0996637255,
				"element": "C" 
			},
			{
				"x": 0.5409349427,
				"y": -0.1676804197,
				"z": -4.0790304503,
				"element": "O" 
			},
			{
				"x": -1.2267370293,
				"y": -1.0738667308,
				"z": -2.951782925,
				"element": "N" 
			},
			{
				"x": -2.2065136101,
				"y": -1.1263174017,
				"z": -1.935232598,
				"element": "C" 
			},
			{
				"x": -3.0895852199,
				"y": -1.9722485143,
				"z": -1.9889133087,
				"element": "O" 
			},
			{
				"x": -2.0073515663,
				"y": -0.1430949995,
				"z": -0.8887082857,
				"element": "C" 
			},
			{
				"x": -2.9759244825,
				"y": -0.0690396925,
				"z": 0.1351929152,
				"element": "N" 
			},
			{
				"x": -3.0251863826,
				"y": -1.1245776905,
				"z": 1.1580996448,
				"element": "C" 
			},
			{
				"x": -1.8550333623,
				"y": -1.1208589274,
				"z": 2.1305357188,
				"element": "C" 
			},
			{
				"x": -0.7372954477,
				"y": -1.9646397649,
				"z": 1.9398539518,
				"element": "C" 
			},
			{
				"x": -0.8086604636,
				"y": -2.8161616211,
				"z": 0.8756572905,
				"element": "O" 
			},
			{
				"x": 0.2290252231,
				"y": -3.7652287432,
				"z": 0.6862787538,
				"element": "C" 
			},
			{
				"x": 0.3537272665,
				"y": -1.9053727896,
				"z": 2.8166425707,
				"element": "C" 
			},
			{
				"x": 0.3420012668,
				"y": -1.0073748985,
				"z": 3.8875305504,
				"element": "C" 
			},
			{
				"x": -0.7533243888,
				"y": -0.1731158299,
				"z": 4.098011959,
				"element": "C" 
			},
			{
				"x": -1.8390147324,
				"y": -0.2441846877,
				"z": 3.219718319,
				"element": "C" 
			},
			{
				"x": -0.9121628716,
				"y": 0.6896145738,
				"z": -0.9362736146,
				"element": "C" 
			},
			{
				"x": -0.6696123563,
				"y": 1.6191853826,
				"z": 0.0672992505,
				"element": "N" 
			},
			{
				"x": 2.8516564422,
				"y": -0.9387177815,
				"z": -0.0897389648,
				"element": "H" 
			},
			{
				"x": 1.6390604804,
				"y": -1.3147355177,
				"z": -1.3195670792,
				"element": "H" 
			},
			{
				"x": 3.2915715272,
				"y": -1.9077768774,
				"z": -1.5033300355,
				"element": "H" 
			},
			{
				"x": 2.9458799373,
				"y": 0.0699679502,
				"z": -2.9993791778,
				"element": "H" 
			},
			{
				"x": 4.1628902304,
				"y": 0.3879227148,
				"z": -1.7692637494,
				"element": "H" 
			},
			{
				"x": 2.2188343842,
				"y": 1.4753123493,
				"z": -0.3895132577,
				"element": "H" 
			},
			{
				"x": 2.952123759,
				"y": 2.370819509,
				"z": -1.7012765054,
				"element": "H" 
			},
			{
				"x": 0.5633643789,
				"y": 2.7031111396,
				"z": -1.8402985832,
				"element": "H" 
			},
			{
				"x": 1.1613623547,
				"y": 1.8351614745,
				"z": -3.2578927973,
				"element": "H" 
			},
			{
				"x": -1.3450084524,
				"y": -1.7290638447,
				"z": -3.714169103,
				"element": "H" 
			},
			{
				"x": -3.1018578192,
				"y": 0.862512861,
				"z": 0.5099766385,
				"element": "H" 
			},
			{
				"x": -3.0909655222,
				"y": -2.0776607712,
				"z": 0.6328305517,
				"element": "H" 
			},
			{
				"x": -3.9578942247,
				"y": -0.9879711217,
				"z": 1.7162676748,
				"element": "H" 
			},
			{
				"x": 0.3386850463,
				"y": -4.4221822281,
				"z": 1.558591833,
				"element": "H" 
			},
			{
				"x": 1.1906546076,
				"y": -3.2792975271,
				"z": 0.4781426593,
				"element": "H" 
			},
			{
				"x": -0.0660800341,
				"y": -4.3601784655,
				"z": -0.1789903493,
				"element": "H" 
			},
			{
				"x": 1.2106918257,
				"y": -2.5531480954,
				"z": 2.6742637125,
				"element": "H" 
			},
			{
				"x": 1.194235303,
				"y": -0.9731628222,
				"z": 4.5604064267,
				"element": "H" 
			},
			{
				"x": -0.7717805934,
				"y": 0.5130604596,
				"z": 4.9391611206,
				"element": "H" 
			},
			{
				"x": -2.7088677713,
				"y": 0.388541614,
				"z": 3.3891580933,
				"element": "H" 
			},
			{
				"x": -1.0694940245,
				"y": 1.3286549616,
				"z": 0.9526969586,
				"element": "H" 
			},
			{
				"x": 0.2984039818,
				"y": 1.8856747836,
				"z": 0.1815575085,
				"element": "H" 
			}
		],
		 "valence_orbital": [ 
			{
				"type": "occ",
				"energy": -0.25911,
				"method": "rhf"
			},
			{
				"type": "occ",
				"energy": -0.25142,
				"method": "rhf"
			},
			{
				"type": "occ",
				"energy": -0.24037,
				"method": "rhf"
			},
			{
				"type": "occ",
				"energy": -0.22558,
				"method": "rhf"
			},
			{
				"type": "occ",
				"energy": -0.1865,
				"method": "rhf"
			},
			{
				"type": "unocc",
				"energy": -0.0133,
				"method": "rhf"
			},
			{
				"type": "unocc",
				"energy": -0.00409,
				"method": "rhf"
			},
			{
				"type": "unocc",
				"energy": 0.00362,
				"method": "rhf"
			},
			{
				"type": "unocc",
				"energy": 0.02663,
				"method": "rhf"
			},
			{
				"type": "unocc",
				"energy": 0.05723,
				"method": "rhf"
			}
		],
		"cosmo_sigma_profile": { 
			"-0.025": 0.0,
			"-0.024": 0.0,
			"-0.023": 0.0,
			"-0.022": 0.0,
			"-0.021": 0.0,
			"-0.02": 0.0,
			"-0.019": 0.0,
			"-0.018": 0.0,
			"-0.017": 0.0,
			"-0.016": 0.0,
			"-0.015": 0.560747749791,
			"-0.014": 1.06792792922,
			"-0.013": 1.32840198898,
			"-0.012": 2.84477391545,
			"-0.011": 3.76262754773,
			"-0.01": 3.70692276396,
			"-0.009": 4.08523107732,
			"-0.008": 4.51548682268,
			"-0.007": 5.41294148803,
			"-0.006": 11.1969138644,
			"-0.005": 21.8023279974,
			"-0.004": 30.3646771416,
			"-0.003": 35.2580417024,
			"-0.002": 35.6215812978,
			"-0.001": 36.3841792548,
			"0.0": 28.6386283514,
			"0.001": 23.2874633022,
			"0.002": 16.3727665081,
			"0.003": 13.5531339417,
			"0.004": 12.8756353972,
			"0.005": 11.8670520933,
			"0.006": 10.0311375239,
			"0.007": 6.59763734711,
			"0.008": 5.51526044452,
			"0.009": 3.43439713478,
			"0.01": 3.81495831421,
			"0.011": 3.55236762941,
			"0.012": 4.99727924628,
			"0.013": 7.9905425818,
			"0.014": 6.34911780281,
			"0.015": 1.99997724484,
			"0.016": 1.18987584032,
			"0.017": 0.385250878699,
			"0.018": 0.0,
			"0.019": 0.0,
			"0.02": 0.0,
			"0.021": 0.0,
			"0.022": 0.0,
			"0.023": 0.0,
			"0.024": 0.0,
			"0.025": 0.0
		}
	}
}
