{
	 "smiles": "OC1=CC(F)=C(Br)C=C1F", 
	 "Tm": 325.15, 
	 "num_atms": 13, 
	 "gaussian": { 
		 "optdone": 1, 
		 "sigma_profile": "yes", 
		 "theory": "DFT", 
		 "functional": "B3LYP", 
		 "basiset": "6-31G**", 
		 "properties": { 
			 "R2extent": 2331.2203, 
			 "electric_dipole_moment_norm": 2.01780964662, 
			 "electric_quadrupole_moment_norm": 1.96175051421, 
			 "total_energy": -3076.72964955, 
			 "HOMO_LUMO_gap": 0.2064, 
			 "cosmo_polarized_energy": -6.21, 
			 "cosmo_cavitation_energy": 20.92, 
			 "cosmo_dispersion_energy": -15.92, 
			 "cosmo_repulsion_energy": 1.25, 
			 "cosmo_total_nonelectrostatic_energy": 6.25, 
			 "SMD_solvation_energy": 3.85 
		},
		"coords": [
			{
				"x": -1.9136112288,
				"y": -0.0384562456,
				"z": 2.754064249,
				"element": "O" 
			},
			{
				"x": -1.1399621066,
				"y": -0.1741580467,
				"z": 1.6484507248,
				"element": "C" 
			},
			{
				"x": -1.2744768073,
				"y": -1.2955686473,
				"z": 0.8302517186,
				"element": "C" 
			},
			{
				"x": -0.4719217522,
				"y": -1.4167032987,
				"z": -0.299234084,
				"element": "C" 
			},
			{
				"x": -0.6164808719,
				"y": -2.5026381538,
				"z": -1.0732449249,
				"element": "F" 
			},
			{
				"x": 0.4683744696,
				"y": -0.4433009952,
				"z": -0.6383451583,
				"element": "C" 
			},
			{
				"x": 1.5406444394,
				"y": -0.6537231148,
				"z": -2.1898872968,
				"element": "Br" 
			},
			{
				"x": 0.6077248871,
				"y": 0.6818710238,
				"z": 0.1769361473,
				"element": "C" 
			},
			{
				"x": -0.1936028975,
				"y": 0.7953541085,
				"z": 1.2980822665,
				"element": "C" 
			},
			{
				"x": -0.0905176186,
				"y": 1.8744096105,
				"z": 2.1189485377,
				"element": "F" 
			},
			{
				"x": -1.6748675403,
				"y": 0.795221255,
				"z": 3.1857324366,
				"element": "H" 
			},
			{
				"x": -1.9972199916,
				"y": -2.0659379589,
				"z": 1.0713633979,
				"element": "H" 
			},
			{
				"x": 1.3273170188,
				"y": 1.4572304634,
				"z": -0.0557180145,
				"element": "H" 
			}
		],
		 "valence_orbital": [ 
			{
				"type": "occ",
				"energy": -0.36744,
				"method": "rhf"
			},
			{
				"type": "occ",
				"energy": -0.30459,
				"method": "rhf"
			},
			{
				"type": "occ",
				"energy": -0.29504,
				"method": "rhf"
			},
			{
				"type": "occ",
				"energy": -0.2664,
				"method": "rhf"
			},
			{
				"type": "occ",
				"energy": -0.23242,
				"method": "rhf"
			},
			{
				"type": "unocc",
				"energy": -0.02602,
				"method": "rhf"
			},
			{
				"type": "unocc",
				"energy": -0.0065,
				"method": "rhf"
			},
			{
				"type": "unocc",
				"energy": -0.0064,
				"method": "rhf"
			},
			{
				"type": "unocc",
				"energy": 0.06033,
				"method": "rhf"
			},
			{
				"type": "unocc",
				"energy": 0.1142,
				"method": "rhf"
			}
		],
		"cosmo_sigma_profile": { 
			"-0.025": 0.0,
			"-0.024": 0.0,
			"-0.023": 0.0,
			"-0.022": 0.0,
			"-0.021": 0.0,
			"-0.02": 0.0,
			"-0.019": 0.0,
			"-0.018": 0.0,
			"-0.017": 0.513171397243,
			"-0.016": 0.615895912984,
			"-0.015": 0.860401460706,
			"-0.014": 0.876272931473,
			"-0.013": 0.636471348627,
			"-0.012": 0.526150387904,
			"-0.011": 1.03830603223,
			"-0.01": 1.3188534724,
			"-0.009": 3.14444398134,
			"-0.008": 3.5643812764,
			"-0.007": 3.06057181822,
			"-0.006": 4.55745396811,
			"-0.005": 5.56464903988,
			"-0.004": 5.12419859318,
			"-0.003": 6.62816866957,
			"-0.002": 7.18113675233,
			"-0.001": 15.2456450116,
			"0.0": 21.2793779129,
			"0.001": 22.2563054046,
			"0.002": 14.307405939,
			"0.003": 20.3242251424,
			"0.004": 20.3620680776,
			"0.005": 5.51736565874,
			"0.006": 1.27232309415,
			"0.007": 1.39224201706,
			"0.008": 1.28597180542,
			"0.009": 1.70944197881,
			"0.01": 1.71639362242,
			"0.011": 0.221455963684,
			"0.012": 0.0,
			"0.013": 0.0,
			"0.014": 0.0,
			"0.015": 0.0,
			"0.016": 0.0,
			"0.017": 0.0,
			"0.018": 0.0,
			"0.019": 0.0,
			"0.02": 0.0,
			"0.021": 0.0,
			"0.022": 0.0,
			"0.023": 0.0,
			"0.024": 0.0,
			"0.025": 0.0
		}
	}
}
