{
	 "smiles": "CC1N(C(=O)NC1=O)C1=CC=C(C)C=C1", 
	 "Tm": 384.15, 
	 "num_atms": 27, 
	 "gaussian": { 
		 "optdone": 1, 
		 "sigma_profile": "yes", 
		 "theory": "DFT", 
		 "functional": "B3LYP", 
		 "basiset": "6-31G**", 
		 "properties": { 
			 "R2extent": 4168.9934, 
			 "electric_dipole_moment_norm": 2.42366413927, 
			 "electric_quadrupole_moment_norm": 6.13437985374, 
			 "total_energy": -686.404900982, 
			 "HOMO_LUMO_gap": 0.20066, 
			 "cosmo_polarized_energy": -14.16, 
			 "cosmo_cavitation_energy": 30.44, 
			 "cosmo_dispersion_energy": -22.08, 
			 "cosmo_repulsion_energy": 1.72, 
			 "cosmo_total_nonelectrostatic_energy": 10.08, 
			 "SMD_solvation_energy": 6.55 
		},
		"coords": [
			{
				"x": 1.0021132752,
				"y": -2.3976012165,
				"z": -1.836424531,
				"element": "C" 
			},
			{
				"x": 1.9462310037,
				"y": -1.3284411456,
				"z": -1.2780019753,
				"element": "C" 
			},
			{
				"x": 1.4074875956,
				"y": 0.0386323962,
				"z": -1.3155654773,
				"element": "N" 
			},
			{
				"x": 2.2096944665,
				"y": 0.881353702,
				"z": -2.0684539235,
				"element": "C" 
			},
			{
				"x": 2.0728617438,
				"y": 2.0643563312,
				"z": -2.3072544777,
				"element": "O" 
			},
			{
				"x": 3.2751918805,
				"y": 0.0896253148,
				"z": -2.5405274981,
				"element": "N" 
			},
			{
				"x": 3.2173907381,
				"y": -1.2209870644,
				"z": -2.129039777,
				"element": "C" 
			},
			{
				"x": 3.9917688035,
				"y": -2.1156924531,
				"z": -2.3940782073,
				"element": "O" 
			},
			{
				"x": 0.27531199,
				"y": 0.4542399945,
				"z": -0.5650480848,
				"element": "C" 
			},
			{
				"x": -0.1308002539,
				"y": -0.2859638115,
				"z": 0.5532651709,
				"element": "C" 
			},
			{
				"x": -1.2520933131,
				"y": 0.1018754027,
				"z": 1.2871972168,
				"element": "C" 
			},
			{
				"x": -1.9947537636,
				"y": 1.2348510299,
				"z": 0.9436331243,
				"element": "C" 
			},
			{
				"x": -3.1953000916,
				"y": 1.6680502214,
				"z": 1.7509653536,
				"element": "C" 
			},
			{
				"x": -1.5734651569,
				"y": 1.9662161417,
				"z": -0.1760265916,
				"element": "C" 
			},
			{
				"x": -0.4652753735,
				"y": 1.5911755917,
				"z": -0.9290167288,
				"element": "C" 
			},
			{
				"x": 1.5290318715,
				"y": -3.3545529833,
				"z": -1.8650613787,
				"element": "H" 
			},
			{
				"x": 0.6902861433,
				"y": -2.1387191436,
				"z": -2.852307908,
				"element": "H" 
			},
			{
				"x": 0.1094208458,
				"y": -2.4985719119,
				"z": -1.2157922916,
				"element": "H" 
			},
			{
				"x": 2.2558900825,
				"y": -1.5941899681,
				"z": -0.2588072818,
				"element": "H" 
			},
			{
				"x": 3.9972959085,
				"y": 0.4760819057,
				"z": -3.1317094816,
				"element": "H" 
			},
			{
				"x": 0.4227457721,
				"y": -1.1646282816,
				"z": 0.8657124243,
				"element": "H" 
			},
			{
				"x": -1.5467828468,
				"y": -0.4924464985,
				"z": 2.1484063817,
				"element": "H" 
			},
			{
				"x": -3.5020534664,
				"y": 0.89264749,
				"z": 2.4586332181,
				"element": "H" 
			},
			{
				"x": -2.9815301035,
				"y": 2.575811899,
				"z": 2.3284499585,
				"element": "H" 
			},
			{
				"x": -4.0520444115,
				"y": 1.8925818285,
				"z": 1.1063329039,
				"element": "H" 
			},
			{
				"x": -2.1300642347,
				"y": 2.8511776114,
				"z": -0.4753911177,
				"element": "H" 
			},
			{
				"x": -0.1593591052,
				"y": 2.1784176172,
				"z": -1.7835890205,
				"element": "H" 
			}
		],
		 "valence_orbital": [ 
			{
				"type": "occ",
				"energy": -0.29417,
				"method": "rhf"
			},
			{
				"type": "occ",
				"energy": -0.29258,
				"method": "rhf"
			},
			{
				"type": "occ",
				"energy": -0.26686,
				"method": "rhf"
			},
			{
				"type": "occ",
				"energy": -0.25371,
				"method": "rhf"
			},
			{
				"type": "occ",
				"energy": -0.2201,
				"method": "rhf"
			},
			{
				"type": "unocc",
				"energy": -0.01944,
				"method": "rhf"
			},
			{
				"type": "unocc",
				"energy": -0.00654,
				"method": "rhf"
			},
			{
				"type": "unocc",
				"energy": -0.00026,
				"method": "rhf"
			},
			{
				"type": "unocc",
				"energy": 0.06101,
				"method": "rhf"
			},
			{
				"type": "unocc",
				"energy": 0.08312,
				"method": "rhf"
			}
		],
		"cosmo_sigma_profile": { 
			"-0.025": 0.0,
			"-0.024": 0.0,
			"-0.023": 0.0,
			"-0.022": 0.0,
			"-0.021": 0.0,
			"-0.02": 0.0,
			"-0.019": 0.0,
			"-0.018": 0.0,
			"-0.017": 0.653568273498,
			"-0.016": 1.52413123122,
			"-0.015": 0.922654070873,
			"-0.014": 0.798924748426,
			"-0.013": 0.650456163987,
			"-0.012": 0.462829520935,
			"-0.011": 1.73110472267,
			"-0.01": 0.704635680912,
			"-0.009": 2.11668528434,
			"-0.008": 5.38216540049,
			"-0.007": 5.61003451051,
			"-0.006": 6.78858705491,
			"-0.005": 13.2899827784,
			"-0.004": 21.870699076,
			"-0.003": 22.1542593175,
			"-0.002": 21.9998297269,
			"-0.001": 22.9194966129,
			"0.0": 19.5070850601,
			"0.001": 12.892818639,
			"0.002": 9.77936728048,
			"0.003": 10.2052450897,
			"0.004": 9.73319103882,
			"0.005": 11.8040201033,
			"0.006": 7.62824577153,
			"0.007": 2.44928098807,
			"0.008": 3.42436264457,
			"0.009": 2.66789061391,
			"0.01": 3.60486459166,
			"0.011": 6.35766871006,
			"0.012": 9.71929565773,
			"0.013": 2.30767795866,
			"0.014": 0.0,
			"0.015": 0.0,
			"0.016": 0.0,
			"0.017": 0.0,
			"0.018": 0.0,
			"0.019": 0.0,
			"0.02": 0.0,
			"0.021": 0.0,
			"0.022": 0.0,
			"0.023": 0.0,
			"0.024": 0.0,
			"0.025": 0.0
		}
	}
}
