{
	 "smiles": "OC(=O)C1=NC2=C(C=CN2)C=C1", 
	 "Tm": 483.15, 
	 "num_atms": 18, 
	 "gaussian": { 
		 "optdone": 1, 
		 "sigma_profile": "yes", 
		 "theory": "DFT", 
		 "functional": "B3LYP", 
		 "basiset": "6-31G**", 
		 "properties": { 
			 "R2extent": 2196.6525, 
			 "electric_dipole_moment_norm": 7.10569054913, 
			 "electric_quadrupole_moment_norm": 7.96047683182, 
			 "total_energy": -568.440105225, 
			 "HOMO_LUMO_gap": 0.17559, 
			 "cosmo_polarized_energy": -15.46, 
			 "cosmo_cavitation_energy": 22.85, 
			 "cosmo_dispersion_energy": -17.46, 
			 "cosmo_repulsion_energy": 1.38, 
			 "cosmo_total_nonelectrostatic_energy": 6.77, 
			 "SMD_solvation_energy": 4.21 
		},
		"coords": [
			{
				"x": 0.3442582454,
				"y": -2.3971475602,
				"z": -0.7236366216,
				"element": "O" 
			},
			{
				"x": -0.6917304865,
				"y": -1.6079918087,
				"z": -1.0621042477,
				"element": "C" 
			},
			{
				"x": -1.5949044071,
				"y": -1.9828429318,
				"z": -1.776393831,
				"element": "O" 
			},
			{
				"x": -0.6208548496,
				"y": -0.2255894113,
				"z": -0.4723703628,
				"element": "C" 
			},
			{
				"x": 0.4513467373,
				"y": 0.0226256809,
				"z": 0.2980540766,
				"element": "N" 
			},
			{
				"x": 0.5044677302,
				"y": 1.245623035,
				"z": 0.8138076377,
				"element": "C" 
			},
			{
				"x": -0.4546199891,
				"y": 2.2867459326,
				"z": 0.6229078835,
				"element": "C" 
			},
			{
				"x": 0.0144120158,
				"y": 3.4196530633,
				"z": 1.3640543674,
				"element": "C" 
			},
			{
				"x": 1.1942271189,
				"y": 3.0469421223,
				"z": 1.9571083232,
				"element": "C" 
			},
			{
				"x": 1.4953156965,
				"y": 1.7378436341,
				"z": 1.629526073,
				"element": "N" 
			},
			{
				"x": -1.5578399689,
				"y": 1.9852389961,
				"z": -0.1880609822,
				"element": "C" 
			},
			{
				"x": -1.634516044,
				"y": 0.7108989231,
				"z": -0.7388096524,
				"element": "C" 
			},
			{
				"x": 0.921381326,
				"y": -1.855522054,
				"z": -0.1480808299,
				"element": "H" 
			},
			{
				"x": -0.4589825621,
				"y": 4.3869842015,
				"z": 1.4487172157,
				"element": "H" 
			},
			{
				"x": 1.8550629597,
				"y": 3.6150969018,
				"z": 2.5957836157,
				"element": "H" 
			},
			{
				"x": 2.3028560802,
				"y": 1.2152007957,
				"z": 1.9299304802,
				"element": "H" 
			},
			{
				"x": -2.3310463948,
				"y": 2.7229134175,
				"z": -0.3821235977,
				"element": "H" 
			},
			{
				"x": -2.4568332079,
				"y": 0.406227062,
				"z": -1.3748095476,
				"element": "H" 
			}
		],
		 "valence_orbital": [ 
			{
				"type": "occ",
				"energy": -0.30277,
				"method": "rhf"
			},
			{
				"type": "occ",
				"energy": -0.30093,
				"method": "rhf"
			},
			{
				"type": "occ",
				"energy": -0.25928,
				"method": "rhf"
			},
			{
				"type": "occ",
				"energy": -0.25336,
				"method": "rhf"
			},
			{
				"type": "occ",
				"energy": -0.23777,
				"method": "rhf"
			},
			{
				"type": "unocc",
				"energy": -0.06218,
				"method": "rhf"
			},
			{
				"type": "unocc",
				"energy": -0.015,
				"method": "rhf"
			},
			{
				"type": "unocc",
				"energy": 0.03269,
				"method": "rhf"
			},
			{
				"type": "unocc",
				"energy": 0.06609,
				"method": "rhf"
			},
			{
				"type": "unocc",
				"energy": 0.07861,
				"method": "rhf"
			}
		],
		"cosmo_sigma_profile": { 
			"-0.025": 0.0,
			"-0.024": 0.0,
			"-0.023": 0.0,
			"-0.022": 0.0,
			"-0.021": 0.0,
			"-0.02": 0.0,
			"-0.019": 0.0,
			"-0.018": 0.0,
			"-0.017": 0.385650165807,
			"-0.016": 1.59101953457,
			"-0.015": 1.31983271692,
			"-0.014": 1.16547900877,
			"-0.013": 0.749166111096,
			"-0.012": 1.47839320615,
			"-0.011": 1.81620021391,
			"-0.01": 2.48681757729,
			"-0.009": 3.67550230685,
			"-0.008": 3.56954344577,
			"-0.007": 6.26710951626,
			"-0.006": 8.26200320604,
			"-0.005": 10.2324614713,
			"-0.004": 8.86610327905,
			"-0.003": 9.29954677077,
			"-0.002": 8.67440355674,
			"-0.001": 9.74406813838,
			"0.0": 13.1328687325,
			"0.001": 18.6072036633,
			"0.002": 17.36560617,
			"0.003": 13.5942863865,
			"0.004": 7.30925485198,
			"0.005": 5.57787077019,
			"0.006": 2.60764533222,
			"0.007": 2.4228087388,
			"0.008": 3.24210817292,
			"0.009": 3.1838009334,
			"0.01": 5.00217572765,
			"0.011": 4.93733432815,
			"0.012": 5.328980548,
			"0.013": 1.99529865156,
			"0.014": 0.280465290123,
			"0.015": 0.0,
			"0.016": 0.0,
			"0.017": 0.0,
			"0.018": 0.0,
			"0.019": 0.0,
			"0.02": 0.0,
			"0.021": 0.0,
			"0.022": 0.0,
			"0.023": 0.0,
			"0.024": 0.0,
			"0.025": 0.0
		}
	}
}
