{
	 "smiles": "CO[C@@H]1O[C@H](CO)[C@H](O)[C@H](O)[C@H]1O", 
	 "Tm": 447.15, 
	 "num_atms": 27, 
	 "gaussian": { 
		 "optdone": 1, 
		 "sigma_profile": "yes", 
		 "theory": "DFT", 
		 "functional": "B3LYP", 
		 "basiset": "6-31G**", 
		 "properties": { 
			 "R2extent": 2933.6784, 
			 "electric_dipole_moment_norm": 1.21931290898, 
			 "electric_quadrupole_moment_norm": 18.5159893908, 
			 "total_energy": -726.459793883, 
			 "HOMO_LUMO_gap": 0.28661, 
			 "cosmo_polarized_energy": -18.26, 
			 "cosmo_cavitation_energy": 28.05, 
			 "cosmo_dispersion_energy": -20.53, 
			 "cosmo_repulsion_energy": 1.64, 
			 "cosmo_total_nonelectrostatic_energy": 9.16, 
			 "SMD_solvation_energy": 5.06 
		},
		"coords": [
			{
				"x": -0.8932311611,
				"y": -0.6116530124,
				"z": -4.1437013315,
				"element": "C" 
			},
			{
				"x": -0.6627778175,
				"y": -1.7584011942,
				"z": -3.3248955054,
				"element": "O" 
			},
			{
				"x": -0.4831618582,
				"y": -1.5296669639,
				"z": -1.9545522261,
				"element": "C" 
			},
			{
				"x": -1.5048786484,
				"y": -0.6845565102,
				"z": -1.4621774813,
				"element": "O" 
			},
			{
				"x": -1.5760197321,
				"y": -0.5878876301,
				"z": -0.0264177959,
				"element": "C" 
			},
			{
				"x": -2.1150066143,
				"y": 0.8167356589,
				"z": 0.2514245092,
				"element": "C" 
			},
			{
				"x": -3.3852897208,
				"y": 0.9880668381,
				"z": -0.3522418921,
				"element": "O" 
			},
			{
				"x": -0.2137728035,
				"y": -0.9163364692,
				"z": 0.6440418582,
				"element": "C" 
			},
			{
				"x": -0.0801212987,
				"y": -0.2966945228,
				"z": 1.9224382857,
				"element": "O" 
			},
			{
				"x": 0.9883264361,
				"y": -0.4445155899,
				"z": -0.182108939,
				"element": "C" 
			},
			{
				"x": 1.0629445163,
				"y": 0.9747089028,
				"z": -0.1972177057,
				"element": "O" 
			},
			{
				"x": 0.900959672,
				"y": -0.9396104861,
				"z": -1.6365775096,
				"element": "C" 
			},
			{
				"x": 1.8926786747,
				"y": -1.9359686498,
				"z": -1.8401810093,
				"element": "O" 
			},
			{
				"x": -1.8361324216,
				"y": -0.1218986622,
				"z": -3.8845091856,
				"element": "H" 
			},
			{
				"x": -0.0822547268,
				"y": 0.1242014799,
				"z": -4.0790008634,
				"element": "H" 
			},
			{
				"x": -0.9487654398,
				"y": -0.9857137009,
				"z": -5.1677576448,
				"element": "H" 
			},
			{
				"x": -0.5501319668,
				"y": -2.531945161,
				"z": -1.5035340855,
				"element": "H" 
			},
			{
				"x": -2.3292614264,
				"y": -1.3144643264,
				"z": 0.3213406124,
				"element": "H" 
			},
			{
				"x": -2.2521522441,
				"y": 0.9646330213,
				"z": 1.3256645738,
				"element": "H" 
			},
			{
				"x": -1.3809863896,
				"y": 1.5499123759,
				"z": -0.1068288563,
				"element": "H" 
			},
			{
				"x": -3.2692715914,
				"y": 0.7667756246,
				"z": -1.2867179519,
				"element": "H" 
			},
			{
				"x": -0.1275237674,
				"y": -2.0082718151,
				"z": 0.7482329569,
				"element": "H" 
			},
			{
				"x": -0.7575012788,
				"y": -0.6434554673,
				"z": 2.5165748535,
				"element": "H" 
			},
			{
				"x": 1.8974663962,
				"y": -0.8755743524,
				"z": 0.2604705687,
				"element": "H" 
			},
			{
				"x": 1.0041223478,
				"y": 1.2565857758,
				"z": 0.7275004795,
				"element": "H" 
			},
			{
				"x": 1.0756763647,
				"y": -0.0593825203,
				"z": -2.2699607863,
				"element": "H" 
			},
			{
				"x": 1.7464664995,
				"y": -2.2938226435,
				"z": -2.7276079282,
				"element": "H" 
			}
		],
		 "valence_orbital": [ 
			{
				"type": "occ",
				"energy": -0.29384,
				"method": "rhf"
			},
			{
				"type": "occ",
				"energy": -0.28404,
				"method": "rhf"
			},
			{
				"type": "occ",
				"energy": -0.27525,
				"method": "rhf"
			},
			{
				"type": "occ",
				"energy": -0.26038,
				"method": "rhf"
			},
			{
				"type": "occ",
				"energy": -0.24538,
				"method": "rhf"
			},
			{
				"type": "unocc",
				"energy": 0.04123,
				"method": "rhf"
			},
			{
				"type": "unocc",
				"energy": 0.07365,
				"method": "rhf"
			},
			{
				"type": "unocc",
				"energy": 0.07936,
				"method": "rhf"
			},
			{
				"type": "unocc",
				"energy": 0.08551,
				"method": "rhf"
			},
			{
				"type": "unocc",
				"energy": 0.10918,
				"method": "rhf"
			}
		],
		"cosmo_sigma_profile": { 
			"-0.025": 0.0,
			"-0.024": 0.0,
			"-0.023": 0.0,
			"-0.022": 0.0,
			"-0.021": 0.0,
			"-0.02": 0.0,
			"-0.019": 0.0,
			"-0.018": 0.0,
			"-0.017": 0.409497151563,
			"-0.016": 1.10212725123,
			"-0.015": 1.21866863846,
			"-0.014": 1.87606599139,
			"-0.013": 1.86622036386,
			"-0.012": 2.91279299659,
			"-0.011": 2.57233877264,
			"-0.01": 2.76450726606,
			"-0.009": 2.97787574039,
			"-0.008": 3.67536503679,
			"-0.007": 6.95552690662,
			"-0.006": 12.3318963341,
			"-0.005": 14.6945063264,
			"-0.004": 16.353341235,
			"-0.003": 17.4721340123,
			"-0.002": 16.6516593114,
			"-0.001": 12.7306684911,
			"0.0": 9.78960163768,
			"0.001": 7.46774973764,
			"0.002": 7.22801198988,
			"0.003": 7.95324138869,
			"0.004": 7.95711828029,
			"0.005": 7.03532784091,
			"0.006": 7.1152144259,
			"0.007": 6.68013212086,
			"0.008": 5.17987364365,
			"0.009": 6.08571335273,
			"0.01": 6.00898337623,
			"0.011": 5.40214556541,
			"0.012": 5.43621442535,
			"0.013": 4.87075326214,
			"0.014": 3.06482612452,
			"0.015": 0.602919418261,
			"0.016": 0.0,
			"0.017": 0.0,
			"0.018": 0.0,
			"0.019": 0.0,
			"0.02": 0.0,
			"0.021": 0.0,
			"0.022": 0.0,
			"0.023": 0.0,
			"0.024": 0.0,
			"0.025": 0.0
		}
	}
}
