{
	 "smiles": "CNC(=O)CC(O)=O", 
	 "Tm": 378.15, 
	 "num_atms": 15, 
	 "gaussian": { 
		 "optdone": 1, 
		 "sigma_profile": "yes", 
		 "theory": "DFT", 
		 "functional": "B3LYP", 
		 "basiset": "6-31G**", 
		 "properties": { 
			 "R2extent": 1658.43, 
			 "electric_dipole_moment_norm": 7.22267104263, 
			 "electric_quadrupole_moment_norm": 15.468086616, 
			 "total_energy": -437.095486296, 
			 "HOMO_LUMO_gap": 0.25078, 
			 "cosmo_polarized_energy": -17.91, 
			 "cosmo_cavitation_energy": 19.03, 
			 "cosmo_dispersion_energy": -14.35, 
			 "cosmo_repulsion_energy": 1.22, 
			 "cosmo_total_nonelectrostatic_energy": 5.89, 
			 "SMD_solvation_energy": 4.96 
		},
		"coords": [
			{
				"x": -1.0461333948,
				"y": -0.1710891345,
				"z": -1.560570418,
				"element": "C" 
			},
			{
				"x": -0.8178008859,
				"y": -0.940407974,
				"z": -0.3451543307,
				"element": "N" 
			},
			{
				"x": -0.7920833499,
				"y": -0.4793798362,
				"z": 0.9270680591,
				"element": "C" 
			},
			{
				"x": -0.5776512255,
				"y": -1.2545115002,
				"z": 1.8715489301,
				"element": "O" 
			},
			{
				"x": -1.0668489461,
				"y": 1.0013201218,
				"z": 1.1413626069,
				"element": "C" 
			},
			{
				"x": -0.6731256194,
				"y": 1.5999158549,
				"z": 2.5088743092,
				"element": "C" 
			},
			{
				"x": -0.4457790751,
				"y": 0.7418643801,
				"z": 3.5002463328,
				"element": "O" 
			},
			{
				"x": -0.6208010708,
				"y": 2.8003449619,
				"z": 2.6428169332,
				"element": "O" 
			},
			{
				"x": -1.1706301114,
				"y": -0.8691538359,
				"z": -2.3898109632,
				"element": "H" 
			},
			{
				"x": -1.9575228765,
				"y": 0.4298252718,
				"z": -1.489303295,
				"element": "H" 
			},
			{
				"x": -0.2058555432,
				"y": 0.4922304344,
				"z": -1.796770227,
				"element": "H" 
			},
			{
				"x": -0.6253961568,
				"y": -1.9304034387,
				"z": -0.4238436549,
				"element": "H" 
			},
			{
				"x": -2.1469150452,
				"y": 1.1676633359,
				"z": 1.028895557,
				"element": "H" 
			},
			{
				"x": -0.5897603435,
				"y": 1.6173129611,
				"z": 0.3756626019,
				"element": "H" 
			},
			{
				"x": -0.485096356,
				"y": -0.1810316025,
				"z": 3.1278775586,
				"element": "H" 
			}
		],
		 "valence_orbital": [ 
			{
				"type": "occ",
				"energy": -0.35704,
				"method": "rhf"
			},
			{
				"type": "occ",
				"energy": -0.29539,
				"method": "rhf"
			},
			{
				"type": "occ",
				"energy": -0.28966,
				"method": "rhf"
			},
			{
				"type": "occ",
				"energy": -0.28419,
				"method": "rhf"
			},
			{
				"type": "occ",
				"energy": -0.25869,
				"method": "rhf"
			},
			{
				"type": "unocc",
				"energy": -0.00791,
				"method": "rhf"
			},
			{
				"type": "unocc",
				"energy": 0.02252,
				"method": "rhf"
			},
			{
				"type": "unocc",
				"energy": 0.05623,
				"method": "rhf"
			},
			{
				"type": "unocc",
				"energy": 0.07442,
				"method": "rhf"
			},
			{
				"type": "unocc",
				"energy": 0.11607,
				"method": "rhf"
			}
		],
		"cosmo_sigma_profile": { 
			"-0.025": 0.0,
			"-0.024": 0.0,
			"-0.023": 0.0,
			"-0.022": 0.0,
			"-0.021": 0.0,
			"-0.02": 0.0,
			"-0.019": 0.0,
			"-0.018": 0.0,
			"-0.017": 0.0,
			"-0.016": 0.0,
			"-0.015": 0.577881358424,
			"-0.014": 1.10770354006,
			"-0.013": 1.4156772617,
			"-0.012": 0.47124616939,
			"-0.011": 1.72785261027,
			"-0.01": 0.959026579292,
			"-0.009": 4.22470946808,
			"-0.008": 7.24981089687,
			"-0.007": 9.78832228815,
			"-0.006": 13.1668363527,
			"-0.005": 10.5472641717,
			"-0.004": 9.97092280149,
			"-0.003": 12.3608314086,
			"-0.002": 8.0064587328,
			"-0.001": 4.91831667245,
			"0.0": 5.02137214919,
			"0.001": 5.72239982553,
			"0.002": 3.08727928439,
			"0.003": 3.20715833293,
			"0.004": 2.06706628383,
			"0.005": 3.09527080331,
			"0.006": 3.47031705693,
			"0.007": 3.27825422405,
			"0.008": 3.67901025045,
			"0.009": 4.39692298136,
			"0.01": 5.20567661575,
			"0.011": 6.89256451511,
			"0.012": 8.07298905086,
			"0.013": 5.48694884196,
			"0.014": 0.972894516306,
			"0.015": 0.0,
			"0.016": 0.0,
			"0.017": 0.0,
			"0.018": 0.0,
			"0.019": 0.0,
			"0.02": 0.0,
			"0.021": 0.0,
			"0.022": 0.0,
			"0.023": 0.0,
			"0.024": 0.0,
			"0.025": 0.0
		}
	}
}
