{
	 "smiles": "OC(=O)C1=CC2=C3C=CC=CC3=CC=C2N1", 
	 "Tm": 487.15, 
	 "num_atms": 25, 
	 "gaussian": { 
		 "optdone": 1, 
		 "sigma_profile": "yes", 
		 "theory": "DFT", 
		 "functional": "B3LYP", 
		 "basiset": "6-31G**", 
		 "properties": { 
			 "R2extent": 4507.7352, 
			 "electric_dipole_moment_norm": 3.56265190694, 
			 "electric_quadrupole_moment_norm": 24.623967392, 
			 "total_energy": -706.040076448, 
			 "HOMO_LUMO_gap": 0.1566, 
			 "cosmo_polarized_energy": -16.51, 
			 "cosmo_cavitation_energy": 29.53, 
			 "cosmo_dispersion_energy": -22.06, 
			 "cosmo_repulsion_energy": 1.66, 
			 "cosmo_total_nonelectrostatic_energy": 9.13, 
			 "SMD_solvation_energy": 5.49 
		},
		"coords": [
			{
				"x": 2.0719866856,
				"y": 4.0927406885,
				"z": -1.1159731395,
				"element": "O" 
			},
			{
				"x": 0.7755015229,
				"y": 3.9069910182,
				"z": -1.4672435189,
				"element": "C" 
			},
			{
				"x": 0.1980792303,
				"y": 4.7238453403,
				"z": -2.1555533381,
				"element": "O" 
			},
			{
				"x": 0.116113645,
				"y": 2.6869073775,
				"z": -0.9818773617,
				"element": "C" 
			},
			{
				"x": 0.5231371056,
				"y": 1.6137957143,
				"z": -0.2037554543,
				"element": "C" 
			},
			{
				"x": -0.5903847718,
				"y": 0.7355965802,
				"z": -0.0814012899,
				"element": "C" 
			},
			{
				"x": -0.7913088183,
				"y": -0.5179255837,
				"z": 0.5872396697,
				"element": "C" 
			},
			{
				"x": 0.213023901,
				"y": -1.1759314577,
				"z": 1.3327984477,
				"element": "C" 
			},
			{
				"x": -0.0421192258,
				"y": -2.3834039834,
				"z": 1.9551245207,
				"element": "C" 
			},
			{
				"x": -1.315597957,
				"y": -2.9814301352,
				"z": 1.8555623631,
				"element": "C" 
			},
			{
				"x": -2.3143916908,
				"y": -2.3592761406,
				"z": 1.1330845198,
				"element": "C" 
			},
			{
				"x": -2.0856658178,
				"y": -1.1215203173,
				"z": 0.4835004139,
				"element": "C" 
			},
			{
				"x": -3.1263840245,
				"y": -0.477063142,
				"z": -0.2670500034,
				"element": "C" 
			},
			{
				"x": -2.9351005065,
				"y": 0.7200608657,
				"z": -0.9059442578,
				"element": "C" 
			},
			{
				"x": -1.6562651993,
				"y": 1.3211942646,
				"z": -0.8061581821,
				"element": "C" 
			},
			{
				"x": -1.2024910649,
				"y": 2.4956083203,
				"z": -1.3380308606,
				"element": "N" 
			},
			{
				"x": 2.3829860885,
				"y": 3.3566839112,
				"z": -0.5705496763,
				"element": "H" 
			},
			{
				"x": 1.503680568,
				"y": 1.4687603546,
				"z": 0.2306562566,
				"element": "H" 
			},
			{
				"x": 1.1969384605,
				"y": -0.7226113527,
				"z": 1.4148561582,
				"element": "H" 
			},
			{
				"x": 0.7417578876,
				"y": -2.8749927304,
				"z": 2.5240594291,
				"element": "H" 
			},
			{
				"x": -1.5078444133,
				"y": -3.930255593,
				"z": 2.3475019507,
				"element": "H" 
			},
			{
				"x": -3.2977104649,
				"y": -2.8160899668,
				"z": 1.0532345983,
				"element": "H" 
			},
			{
				"x": -4.0940754704,
				"y": -0.9681970266,
				"z": -0.3210951834,
				"element": "H" 
			},
			{
				"x": -3.7325124445,
				"y": 1.1945550461,
				"z": -1.4696503414,
				"element": "H" 
			},
			{
				"x": -1.7017532253,
				"y": 3.1623579478,
				"z": -1.9091357204,
				"element": "H" 
			}
		],
		 "valence_orbital": [ 
			{
				"type": "occ",
				"energy": -0.29607,
				"method": "rhf"
			},
			{
				"type": "occ",
				"energy": -0.28027,
				"method": "rhf"
			},
			{
				"type": "occ",
				"energy": -0.26271,
				"method": "rhf"
			},
			{
				"type": "occ",
				"energy": -0.22887,
				"method": "rhf"
			},
			{
				"type": "occ",
				"energy": -0.2123,
				"method": "rhf"
			},
			{
				"type": "unocc",
				"energy": -0.0557,
				"method": "rhf"
			},
			{
				"type": "unocc",
				"energy": -0.02631,
				"method": "rhf"
			},
			{
				"type": "unocc",
				"energy": -0.002,
				"method": "rhf"
			},
			{
				"type": "unocc",
				"energy": 0.0405,
				"method": "rhf"
			},
			{
				"type": "unocc",
				"energy": 0.05102,
				"method": "rhf"
			}
		],
		"cosmo_sigma_profile": { 
			"-0.025": 0.0,
			"-0.024": 0.0,
			"-0.023": 0.0,
			"-0.022": 0.0,
			"-0.021": 0.0,
			"-0.02": 0.0,
			"-0.019": 0.145146957813,
			"-0.018": 0.951593842025,
			"-0.017": 1.09648057699,
			"-0.016": 1.21135781032,
			"-0.015": 2.05132405268,
			"-0.014": 1.80302732977,
			"-0.013": 1.62814543807,
			"-0.012": 2.26630165774,
			"-0.011": 1.91002828675,
			"-0.01": 2.8711278407,
			"-0.009": 1.8789804872,
			"-0.008": 3.42103565946,
			"-0.007": 5.62756187412,
			"-0.006": 11.9248619436,
			"-0.005": 14.2073357519,
			"-0.004": 14.0853808278,
			"-0.003": 14.2823271545,
			"-0.002": 11.5227742147,
			"-0.001": 12.0290331879,
			"0.0": 12.7900484216,
			"0.001": 10.7035033805,
			"0.002": 15.4211586786,
			"0.003": 22.3235769268,
			"0.004": 26.8244129996,
			"0.005": 15.367802963,
			"0.006": 5.14062716873,
			"0.007": 2.26238218629,
			"0.008": 2.7381380462,
			"0.009": 3.30495619382,
			"0.01": 4.41315456278,
			"0.011": 4.94736639725,
			"0.012": 4.00747364898,
			"0.013": 2.03586323657,
			"0.014": 0.249828984398,
			"0.015": 0.0,
			"0.016": 0.0,
			"0.017": 0.0,
			"0.018": 0.0,
			"0.019": 0.0,
			"0.02": 0.0,
			"0.021": 0.0,
			"0.022": 0.0,
			"0.023": 0.0,
			"0.024": 0.0,
			"0.025": 0.0
		}
	}
}
