{
	 "smiles": "CCOC(=O)C1=C(N)N2N=C(N=C2NC1C1=CC=C(Cl)C=C1)C(F)(F)F", 
	 "Tm": 471.15, 
	 "num_atms": 39, 
	 "gaussian": { 
		 "optdone": 1, 
		 "sigma_profile": "yes", 
		 "theory": "DFT", 
		 "functional": "B3LYP", 
		 "basiset": "6-31G**", 
		 "properties": { 
			 "R2extent": 12906.8152, 
			 "electric_dipole_moment_norm": 4.45449485127, 
			 "electric_quadrupole_moment_norm": 16.1648988246, 
			 "total_energy": -1763.36286204, 
			 "HOMO_LUMO_gap": 0.1683, 
			 "cosmo_polarized_energy": -16.17, 
			 "cosmo_cavitation_energy": 47.17, 
			 "cosmo_dispersion_energy": -32.31, 
			 "cosmo_repulsion_energy": 2.44, 
			 "cosmo_total_nonelectrostatic_energy": 17.3, 
			 "SMD_solvation_energy": 6.04 
		},
		"coords": [
			{
				"x": -4.5574648818,
				"y": -1.5421496699,
				"z": 0.6676002005,
				"element": "C" 
			},
			{
				"x": -3.2204571875,
				"y": -1.9758658007,
				"z": 1.2499255223,
				"element": "C" 
			},
			{
				"x": -2.1134033081,
				"y": -1.4638349437,
				"z": 0.4726093096,
				"element": "O" 
			},
			{
				"x": -1.6842396245,
				"y": -0.2115166228,
				"z": 0.7715014157,
				"element": "C" 
			},
			{
				"x": -2.2059921902,
				"y": 0.4696476152,
				"z": 1.6584406159,
				"element": "O" 
			},
			{
				"x": -0.5726144391,
				"y": 0.2038130824,
				"z": -0.0605434492,
				"element": "C" 
			},
			{
				"x": -0.0576010126,
				"y": 1.474683687,
				"z": 0.1198040271,
				"element": "C" 
			},
			{
				"x": -0.4398603261,
				"y": 2.3883765944,
				"z": 1.0223269761,
				"element": "N" 
			},
			{
				"x": 0.9674002174,
				"y": 1.8663500435,
				"z": -0.7411246853,
				"element": "N" 
			},
			{
				"x": 1.6336493017,
				"y": 3.0675550627,
				"z": -0.6971675958,
				"element": "N" 
			},
			{
				"x": 2.3893130076,
				"y": 2.972164304,
				"z": -1.7734828928,
				"element": "C" 
			},
			{
				"x": 2.2752606503,
				"y": 1.8313808982,
				"z": -2.5177313962,
				"element": "N" 
			},
			{
				"x": 1.3576883231,
				"y": 1.1568749781,
				"z": -1.8438719348,
				"element": "C" 
			},
			{
				"x": 0.7582514044,
				"y": -0.0208728037,
				"z": -2.1249132736,
				"element": "N" 
			},
			{
				"x": 0.0304896758,
				"y": -0.7685820044,
				"z": -1.0684687574,
				"element": "C" 
			},
			{
				"x": 0.9241820702,
				"y": -1.848696436,
				"z": -0.4517395917,
				"element": "C" 
			},
			{
				"x": 1.8915152421,
				"y": -1.5436636983,
				"z": 0.5142769512,
				"element": "C" 
			},
			{
				"x": 2.7341749202,
				"y": -2.5298828338,
				"z": 1.0229526878,
				"element": "C" 
			},
			{
				"x": 2.6022262284,
				"y": -3.841084687,
				"z": 0.5632167673,
				"element": "C" 
			},
			{
				"x": 3.6561620952,
				"y": -5.0917115046,
				"z": 1.2048381832,
				"element": "Cl" 
			},
			{
				"x": 1.6431233909,
				"y": -4.1747250707,
				"z": -0.3909391281,
				"element": "C" 
			},
			{
				"x": 0.8114563159,
				"y": -3.1720182058,
				"z": -0.8909848235,
				"element": "C" 
			},
			{
				"x": 3.3492779303,
				"y": 4.0626808507,
				"z": -2.1607600781,
				"element": "C" 
			},
			{
				"x": 3.265797703,
				"y": 5.1060414889,
				"z": -1.3192344963,
				"element": "F" 
			},
			{
				"x": 3.0927297518,
				"y": 4.505181115,
				"z": -3.4064199775,
				"element": "F" 
			},
			{
				"x": 4.618711012,
				"y": 3.6112033022,
				"z": -2.1443962683,
				"element": "F" 
			},
			{
				"x": -5.3752662988,
				"y": -2.0074389901,
				"z": 1.2280698708,
				"element": "H" 
			},
			{
				"x": -4.6441908944,
				"y": -1.8452959403,
				"z": -0.3801492879,
				"element": "H" 
			},
			{
				"x": -4.6699459664,
				"y": -0.457382483,
				"z": 0.7334854194,
				"element": "H" 
			},
			{
				"x": -3.0987399733,
				"y": -3.0611059638,
				"z": 1.2094388463,
				"element": "H" 
			},
			{
				"x": -3.1126991653,
				"y": -1.6371840369,
				"z": 2.2827120742,
				"element": "H" 
			},
			{
				"x": -1.207931414,
				"y": 2.1234730111,
				"z": 1.6312175243,
				"element": "H" 
			},
			{
				"x": -0.0252486387,
				"y": 3.3072965809,
				"z": 0.9950046113,
				"element": "H" 
			},
			{
				"x": 1.1946646446,
				"y": -0.5629677571,
				"z": -2.8581340246,
				"element": "H" 
			},
			{
				"x": -0.7933263786,
				"y": -1.2831243023,
				"z": -1.570925221,
				"element": "H" 
			},
			{
				"x": 1.9844950797,
				"y": -0.5280510305,
				"z": 0.8872947339,
				"element": "H" 
			},
			{
				"x": 3.4815659898,
				"y": -2.2893829209,
				"z": 1.7709089079,
				"element": "H" 
			},
			{
				"x": 1.5462930212,
				"y": -5.1998055978,
				"z": -0.7311323826,
				"element": "H" 
			},
			{
				"x": 0.0557537239,
				"y": -3.4305793107,
				"z": -1.6290053801,
				"element": "H" 
			}
		],
		 "valence_orbital": [ 
			{
				"type": "occ",
				"energy": -0.28176,
				"method": "rhf"
			},
			{
				"type": "occ",
				"energy": -0.27365,
				"method": "rhf"
			},
			{
				"type": "occ",
				"energy": -0.26341,
				"method": "rhf"
			},
			{
				"type": "occ",
				"energy": -0.24414,
				"method": "rhf"
			},
			{
				"type": "occ",
				"energy": -0.22309,
				"method": "rhf"
			},
			{
				"type": "unocc",
				"energy": -0.05479,
				"method": "rhf"
			},
			{
				"type": "unocc",
				"energy": -0.02651,
				"method": "rhf"
			},
			{
				"type": "unocc",
				"energy": -0.02181,
				"method": "rhf"
			},
			{
				"type": "unocc",
				"energy": 0.01,
				"method": "rhf"
			},
			{
				"type": "unocc",
				"energy": 0.02281,
				"method": "rhf"
			}
		],
		"cosmo_sigma_profile": { 
			"-0.025": 0.0,
			"-0.024": 0.0,
			"-0.023": 0.0,
			"-0.022": 0.0,
			"-0.021": 0.0,
			"-0.02": 0.0,
			"-0.019": 0.0,
			"-0.018": 0.0,
			"-0.017": 0.0,
			"-0.016": 0.28520154337,
			"-0.015": 1.29696238872,
			"-0.014": 1.49821291783,
			"-0.013": 1.61225838856,
			"-0.012": 1.89347784121,
			"-0.011": 2.17438594152,
			"-0.01": 3.19071369929,
			"-0.009": 3.45748556821,
			"-0.008": 3.90612290476,
			"-0.007": 10.3364085912,
			"-0.006": 12.4062228347,
			"-0.005": 15.6915417542,
			"-0.004": 20.4559996371,
			"-0.003": 24.939007629,
			"-0.002": 26.3346769453,
			"-0.001": 25.906502925,
			"0.0": 32.2788991475,
			"0.001": 35.2198406786,
			"0.002": 51.1632961161,
			"0.003": 38.9345511889,
			"0.004": 23.6979945211,
			"0.005": 15.4356780961,
			"0.006": 6.10622518707,
			"0.007": 4.17153532188,
			"0.008": 3.74674573795,
			"0.009": 4.20131955534,
			"0.01": 1.94042092035,
			"0.011": 2.44362792453,
			"0.012": 2.69185046128,
			"0.013": 1.12549130685,
			"0.014": 0.762407223618,
			"0.015": 0.113460402915,
			"0.016": 0.0,
			"0.017": 0.0,
			"0.018": 0.0,
			"0.019": 0.0,
			"0.02": 0.0,
			"0.021": 0.0,
			"0.022": 0.0,
			"0.023": 0.0,
			"0.024": 0.0,
			"0.025": 0.0
		}
	}
}
