{
	 "smiles": "ClC1=C2OCCOC2=CC(CC#N)=C1", 
	 "Tm": 376.15, 
	 "num_atms": 22, 
	 "gaussian": { 
		 "optdone": 1, 
		 "sigma_profile": "yes", 
		 "theory": "DFT", 
		 "functional": "B3LYP", 
		 "basiset": "6-31G**", 
		 "properties": { 
			 "R2extent": 3573.9942, 
			 "electric_dipole_moment_norm": 3.26558198182, 
			 "electric_quadrupole_moment_norm": 31.620210123, 
			 "total_energy": -1051.23726767, 
			 "HOMO_LUMO_gap": 0.20942, 
			 "cosmo_polarized_energy": -13.98, 
			 "cosmo_cavitation_energy": 28.49, 
			 "cosmo_dispersion_energy": -20.9, 
			 "cosmo_repulsion_energy": 1.65, 
			 "cosmo_total_nonelectrostatic_energy": 9.25, 
			 "SMD_solvation_energy": 6.19 
		},
		"coords": [
			{
				"x": -2.2248658583,
				"y": 0.8303793031,
				"z": 1.7243700431,
				"element": "Cl" 
			},
			{
				"x": -0.9161142062,
				"y": 0.8069742987,
				"z": 0.5632280313,
				"element": "C" 
			},
			{
				"x": -0.8708791297,
				"y": -0.2196959267,
				"z": -0.388131822,
				"element": "C" 
			},
			{
				"x": -1.8400760043,
				"y": -1.1811178057,
				"z": -0.3878939556,
				"element": "O" 
			},
			{
				"x": -1.500287208,
				"y": -2.3467194645,
				"z": -1.1435488633,
				"element": "C" 
			},
			{
				"x": -0.9115641022,
				"y": -1.9428212527,
				"z": -2.4840643463,
				"element": "C" 
			},
			{
				"x": 0.283128758,
				"y": -1.1844944331,
				"z": -2.2850613542,
				"element": "O" 
			},
			{
				"x": 0.1855833714,
				"y": -0.2198171662,
				"z": -1.3174293489,
				"element": "C" 
			},
			{
				"x": 1.1745906682,
				"y": 0.7625448585,
				"z": -1.2727963941,
				"element": "C" 
			},
			{
				"x": 1.1212510924,
				"y": 1.7699791256,
				"z": -0.3101658637,
				"element": "C" 
			},
			{
				"x": 2.1542836387,
				"y": 2.8903505794,
				"z": -0.2636745573,
				"element": "C" 
			},
			{
				"x": 3.4559257279,
				"y": 2.5355517443,
				"z": -0.8356384291,
				"element": "C" 
			},
			{
				"x": 4.4819161589,
				"y": 2.2570833595,
				"z": -1.3008140272,
				"element": "N" 
			},
			{
				"x": 0.064793342,
				"y": 1.7941311371,
				"z": 0.6066597153,
				"element": "C" 
			},
			{
				"x": -0.7788849779,
				"y": -2.9547043889,
				"z": -0.5820909573,
				"element": "H" 
			},
			{
				"x": -2.4268507201,
				"y": -2.9119105473,
				"z": -1.2667291829,
				"element": "H" 
			},
			{
				"x": -0.6271199334,
				"y": -2.8168317154,
				"z": -3.0746838401,
				"element": "H" 
			},
			{
				"x": -1.640109896,
				"y": -1.3478836833,
				"z": -3.0508605172,
				"element": "H" 
			},
			{
				"x": 1.9787514423,
				"y": 0.7143867243,
				"z": -1.9994564152,
				"element": "H" 
			},
			{
				"x": 2.3133755219,
				"y": 3.21073512,
				"z": 0.7722900911,
				"element": "H" 
			},
			{
				"x": 1.7841552122,
				"y": 3.7724009597,
				"z": -0.804201323,
				"element": "H" 
			},
			{
				"x": -0.0014028978,
				"y": 2.5694791736,
				"z": 1.3623933166,
				"element": "H" 
			}
		],
		 "valence_orbital": [ 
			{
				"type": "occ",
				"energy": -0.32115,
				"method": "rhf"
			},
			{
				"type": "occ",
				"energy": -0.31416,
				"method": "rhf"
			},
			{
				"type": "occ",
				"energy": -0.31073,
				"method": "rhf"
			},
			{
				"type": "occ",
				"energy": -0.24246,
				"method": "rhf"
			},
			{
				"type": "occ",
				"energy": -0.22762,
				"method": "rhf"
			},
			{
				"type": "unocc",
				"energy": -0.0182,
				"method": "rhf"
			},
			{
				"type": "unocc",
				"energy": -0.01014,
				"method": "rhf"
			},
			{
				"type": "unocc",
				"energy": 0.01538,
				"method": "rhf"
			},
			{
				"type": "unocc",
				"energy": 0.03829,
				"method": "rhf"
			},
			{
				"type": "unocc",
				"energy": 0.04107,
				"method": "rhf"
			}
		],
		"cosmo_sigma_profile": { 
			"-0.025": 0.0,
			"-0.024": 0.0,
			"-0.023": 0.0,
			"-0.022": 0.0,
			"-0.021": 0.0,
			"-0.02": 0.0,
			"-0.019": 0.0,
			"-0.018": 0.0,
			"-0.017": 0.0,
			"-0.016": 0.0,
			"-0.015": 0.0,
			"-0.014": 0.0,
			"-0.013": 0.0,
			"-0.012": 0.0,
			"-0.011": 0.0,
			"-0.01": 0.209431177071,
			"-0.009": 5.69394674207,
			"-0.008": 8.30097886407,
			"-0.007": 15.304481149,
			"-0.006": 20.6452717785,
			"-0.005": 15.1284934784,
			"-0.004": 12.6317759602,
			"-0.003": 9.66540459634,
			"-0.002": 9.67799751567,
			"-0.001": 9.77539858253,
			"0.0": 10.2551411009,
			"0.001": 17.2289049385,
			"0.002": 19.1235240338,
			"0.003": 16.8865651552,
			"0.004": 13.462007566,
			"0.005": 10.5192555921,
			"0.006": 5.20680512147,
			"0.007": 5.54500969631,
			"0.008": 6.02436652428,
			"0.009": 6.80325553027,
			"0.01": 5.60446665088,
			"0.011": 2.75819957795,
			"0.012": 2.60875835956,
			"0.013": 1.58808672309,
			"0.014": 0.103630936863,
			"0.015": 0.0,
			"0.016": 0.0,
			"0.017": 0.0,
			"0.018": 0.0,
			"0.019": 0.0,
			"0.02": 0.0,
			"0.021": 0.0,
			"0.022": 0.0,
			"0.023": 0.0,
			"0.024": 0.0,
			"0.025": 0.0
		}
	}
}
