{
	 "smiles": "[O-][N+](=O)C1=CC(Br)=CC2=C1NC=C2", 
	 "Tm": 486.15, 
	 "num_atms": 18, 
	 "gaussian": { 
		 "optdone": 1, 
		 "sigma_profile": "yes", 
		 "theory": "DFT", 
		 "functional": "B3LYP", 
		 "basiset": "6-31G**", 
		 "properties": { 
			 "R2extent": 5280.445, 
			 "electric_dipole_moment_norm": 4.256361015, 
			 "electric_quadrupole_moment_norm": 8.18317544722, 
			 "total_energy": -3139.12557797, 
			 "HOMO_LUMO_gap": 0.13936, 
			 "cosmo_polarized_energy": -9.27, 
			 "cosmo_cavitation_energy": 25.34, 
			 "cosmo_dispersion_energy": -19.49, 
			 "cosmo_repulsion_energy": 1.52, 
			 "cosmo_total_nonelectrostatic_energy": 7.37, 
			 "SMD_solvation_energy": 5.17 
		},
		"coords": [
			{
				"x": 3.3284320126,
				"y": -1.9086613751,
				"z": 1.122539081,
				"element": "O" 
			},
			{
				"x": 2.249874051,
				"y": -1.3895241341,
				"z": 1.3981677204,
				"element": "N" 
			},
			{
				"x": 2.0533131973,
				"y": -0.6851929563,
				"z": 2.4019310576,
				"element": "O" 
			},
			{
				"x": 1.1232458479,
				"y": -1.6004251414,
				"z": 0.5069955998,
				"element": "C" 
			},
			{
				"x": 1.2895887178,
				"y": -2.382265254,
				"z": -0.6339039484,
				"element": "C" 
			},
			{
				"x": 0.2035282767,
				"y": -2.5844760264,
				"z": -1.4913302446,
				"element": "C" 
			},
			{
				"x": 0.456973696,
				"y": -3.6611482408,
				"z": -3.0503465322,
				"element": "Br" 
			},
			{
				"x": -1.0502296575,
				"y": -2.0291087037,
				"z": -1.2465479913,
				"element": "C" 
			},
			{
				"x": -1.2277585498,
				"y": -1.241365343,
				"z": -0.1020106748,
				"element": "C" 
			},
			{
				"x": -0.1275410855,
				"y": -1.0260200252,
				"z": 0.7830993219,
				"element": "C" 
			},
			{
				"x": -0.5661117416,
				"y": -0.2341357852,
				"z": 1.8041132672,
				"element": "N" 
			},
			{
				"x": -1.9020247802,
				"y": 0.0647469738,
				"z": 1.6063982453,
				"element": "C" 
			},
			{
				"x": -2.3445481167,
				"y": -0.5299205296,
				"z": 0.4551892058,
				"element": "C" 
			},
			{
				"x": 2.2583616801,
				"y": -2.8189978313,
				"z": -0.8350113372,
				"element": "H" 
			},
			{
				"x": -1.869633364,
				"y": -2.2074588553,
				"z": -1.9339066742,
				"element": "H" 
			},
			{
				"x": 0.0369448735,
				"y": 0.0564301695,
				"z": 2.5592372995,
				"element": "H" 
			},
			{
				"x": -2.4312868952,
				"y": 0.6856193125,
				"z": 2.3145429736,
				"element": "H" 
			},
			{
				"x": -3.3433281626,
				"y": -0.4718962544,
				"z": 0.0484436307,
				"element": "H" 
			}
		],
		 "valence_orbital": [ 
			{
				"type": "occ",
				"energy": -0.30404,
				"method": "rhf"
			},
			{
				"type": "occ",
				"energy": -0.29979,
				"method": "rhf"
			},
			{
				"type": "occ",
				"energy": -0.29423,
				"method": "rhf"
			},
			{
				"type": "occ",
				"energy": -0.24413,
				"method": "rhf"
			},
			{
				"type": "occ",
				"energy": -0.23715,
				"method": "rhf"
			},
			{
				"type": "unocc",
				"energy": -0.09779,
				"method": "rhf"
			},
			{
				"type": "unocc",
				"energy": -0.01887,
				"method": "rhf"
			},
			{
				"type": "unocc",
				"energy": -0.00786,
				"method": "rhf"
			},
			{
				"type": "unocc",
				"energy": -0.00269,
				"method": "rhf"
			},
			{
				"type": "unocc",
				"energy": 0.04972,
				"method": "rhf"
			}
		],
		"cosmo_sigma_profile": { 
			"-0.025": 0.0,
			"-0.024": 0.0,
			"-0.023": 0.0,
			"-0.022": 0.0,
			"-0.021": 0.0,
			"-0.02": 0.0,
			"-0.019": 0.0,
			"-0.018": 0.0,
			"-0.017": 0.0,
			"-0.016": 0.0190352297297,
			"-0.015": 0.498802372372,
			"-0.014": 0.916636563431,
			"-0.013": 0.731639020689,
			"-0.012": 0.656242301231,
			"-0.011": 0.412251549037,
			"-0.01": 1.30212319683,
			"-0.009": 3.50246734994,
			"-0.008": 4.53799241867,
			"-0.007": 7.43173544676,
			"-0.006": 8.1897668306,
			"-0.005": 9.16723460599,
			"-0.004": 11.7792249939,
			"-0.003": 11.6452902261,
			"-0.002": 12.0958776725,
			"-0.001": 13.8945965551,
			"0.0": 19.564303951,
			"0.001": 22.3461301603,
			"0.002": 17.2720315336,
			"0.003": 14.4613924114,
			"0.004": 16.9985441315,
			"0.005": 8.33329060302,
			"0.006": 3.15203805331,
			"0.007": 5.46742982869,
			"0.008": 6.259894613,
			"0.009": 4.15480117671,
			"0.01": 3.00812224268,
			"0.011": 0.265440562905,
			"0.012": 0.0,
			"0.013": 0.0,
			"0.014": 0.0,
			"0.015": 0.0,
			"0.016": 0.0,
			"0.017": 0.0,
			"0.018": 0.0,
			"0.019": 0.0,
			"0.02": 0.0,
			"0.021": 0.0,
			"0.022": 0.0,
			"0.023": 0.0,
			"0.024": 0.0,
			"0.025": 0.0
		}
	}
}
