{
	 "smiles": "CCCCCCCCCCOC1=CC=C(C=C1)C(C)=O", 
	 "Tm": 309.15, 
	 "num_atms": 48, 
	 "gaussian": { 
		 "optdone": 1, 
		 "sigma_profile": "yes", 
		 "theory": "DFT", 
		 "functional": "B3LYP", 
		 "basiset": "6-31G**", 
		 "properties": { 
			 "R2extent": 15752.0229, 
			 "electric_dipole_moment_norm": 5.05080120476, 
			 "electric_quadrupole_moment_norm": 36.567686326, 
			 "total_energy": -853.267078667, 
			 "HOMO_LUMO_gap": 0.18457, 
			 "cosmo_polarized_energy": -10.6, 
			 "cosmo_cavitation_energy": 49.31, 
			 "cosmo_dispersion_energy": -34.24, 
			 "cosmo_repulsion_energy": 2.69, 
			 "cosmo_total_nonelectrostatic_energy": 17.75, 
			 "SMD_solvation_energy": 8.03 
		},
		"coords": [
			{
				"x": 2.0133098907,
				"y": 7.073558696,
				"z": -1.0248634869,
				"element": "C" 
			},
			{
				"x": 3.4047605366,
				"y": 6.4418752987,
				"z": -1.1539599707,
				"element": "C" 
			},
			{
				"x": 3.5369021725,
				"y": 5.0534050963,
				"z": -0.5057150916,
				"element": "C" 
			},
			{
				"x": 2.6927820525,
				"y": 3.9582390892,
				"z": -1.1751459921,
				"element": "C" 
			},
			{
				"x": 2.9478498545,
				"y": 2.540280463,
				"z": -0.633119668,
				"element": "C" 
			},
			{
				"x": 2.6056777749,
				"y": 2.3165159965,
				"z": 0.8519482451,
				"element": "C" 
			},
			{
				"x": 1.1379304921,
				"y": 2.5670119924,
				"z": 1.2449219385,
				"element": "C" 
			},
			{
				"x": 0.0917101422,
				"y": 1.6998849018,
				"z": 0.5223610982,
				"element": "C" 
			},
			{
				"x": 0.2327288702,
				"y": 0.1944466189,
				"z": 0.7869277848,
				"element": "C" 
			},
			{
				"x": -0.8830076107,
				"y": -0.6096242263,
				"z": 0.1343333318,
				"element": "C" 
			},
			{
				"x": -0.6540660677,
				"y": -1.9903359921,
				"z": 0.425434509,
				"element": "O" 
			},
			{
				"x": -1.5212995754,
				"y": -2.9200157207,
				"z": -0.0506575857,
				"element": "C" 
			},
			{
				"x": -1.2252779591,
				"y": -4.2557269762,
				"z": 0.279871143,
				"element": "C" 
			},
			{
				"x": -2.0484094615,
				"y": -5.2769680896,
				"z": -0.1578571923,
				"element": "C" 
			},
			{
				"x": -3.1906557572,
				"y": -5.0064961291,
				"z": -0.9367367443,
				"element": "C" 
			},
			{
				"x": -3.4738646078,
				"y": -3.6732204442,
				"z": -1.2585641702,
				"element": "C" 
			},
			{
				"x": -2.6538718769,
				"y": -2.6310252554,
				"z": -0.8251441077,
				"element": "C" 
			},
			{
				"x": -4.0379690683,
				"y": -6.1521931963,
				"z": -1.377676976,
				"element": "C" 
			},
			{
				"x": -5.2747224628,
				"y": -5.8713293519,
				"z": -2.2188219615,
				"element": "C" 
			},
			{
				"x": -3.7493275155,
				"y": -7.3014802058,
				"z": -1.0717272111,
				"element": "O" 
			},
			{
				"x": 1.9956627825,
				"y": 8.0795653854,
				"z": -1.4569235593,
				"element": "H" 
			},
			{
				"x": 1.246839307,
				"y": 6.4840306221,
				"z": -1.5383905467,
				"element": "H" 
			},
			{
				"x": 1.7155924084,
				"y": 7.1596072397,
				"z": 0.0269653315,
				"element": "H" 
			},
			{
				"x": 3.6762554874,
				"y": 6.3708054436,
				"z": -2.216335582,
				"element": "H" 
			},
			{
				"x": 4.1430841234,
				"y": 7.1135255152,
				"z": -0.6975300336,
				"element": "H" 
			},
			{
				"x": 3.2738721754,
				"y": 5.1326464729,
				"z": 0.5579889062,
				"element": "H" 
			},
			{
				"x": 4.5924962068,
				"y": 4.7491109482,
				"z": -0.5347663767,
				"element": "H" 
			},
			{
				"x": 1.6265659219,
				"y": 4.2015125223,
				"z": -1.0857768699,
				"element": "H" 
			},
			{
				"x": 2.9090612154,
				"y": 3.9588384102,
				"z": -2.2525574629,
				"element": "H" 
			},
			{
				"x": 4.007643775,
				"y": 2.2921059485,
				"z": -0.781356962,
				"element": "H" 
			},
			{
				"x": 2.3882391344,
				"y": 1.8232133267,
				"z": -1.2480144446,
				"element": "H" 
			},
			{
				"x": 3.2397588388,
				"y": 2.9614434386,
				"z": 1.4728361327,
				"element": "H" 
			},
			{
				"x": 2.8850835198,
				"y": 1.2895912195,
				"z": 1.1195848166,
				"element": "H" 
			},
			{
				"x": 0.889719111,
				"y": 3.6220498153,
				"z": 1.0744639505,
				"element": "H" 
			},
			{
				"x": 1.0375883699,
				"y": 2.4088747174,
				"z": 2.3271792809,
				"element": "H" 
			},
			{
				"x": 0.1353022252,
				"y": 1.8861027393,
				"z": -0.559065398,
				"element": "H" 
			},
			{
				"x": -0.9067648713,
				"y": 2.0273843175,
				"z": 0.8427308166,
				"element": "H" 
			},
			{
				"x": 1.1914312964,
				"y": -0.1786837789,
				"z": 0.4099860902,
				"element": "H" 
			},
			{
				"x": 0.2210985356,
				"y": -0.0009163918,
				"z": 1.8665008656,
				"element": "H" 
			},
			{
				"x": -0.8903539472,
				"y": -0.4543838351,
				"z": -0.9542083552,
				"element": "H" 
			},
			{
				"x": -1.8644113128,
				"y": -0.3038903611,
				"z": 0.5245048073,
				"element": "H" 
			},
			{
				"x": -0.3434134009,
				"y": -4.4541319348,
				"z": 0.8802774338,
				"element": "H" 
			},
			{
				"x": -1.8333151474,
				"y": -6.3113269962,
				"z": 0.0887905236,
				"element": "H" 
			},
			{
				"x": -4.3458577186,
				"y": -3.428588426,
				"z": -1.8569543976,
				"element": "H" 
			},
			{
				"x": -2.9014180419,
				"y": -1.6107872687,
				"z": -1.0917252849,
				"element": "H" 
			},
			{
				"x": -5.7641283754,
				"y": -6.8194176058,
				"z": -2.443439441,
				"element": "H" 
			},
			{
				"x": -5.0094061411,
				"y": -5.3694408957,
				"z": -3.1559350539,
				"element": "H" 
			},
			{
				"x": -5.9752053011,
				"y": -5.2190431536,
				"z": -1.6856370795,
				"element": "H" 
			}
		],
		 "valence_orbital": [ 
			{
				"type": "occ",
				"energy": -0.30838,
				"method": "rhf"
			},
			{
				"type": "occ",
				"energy": -0.30568,
				"method": "rhf"
			},
			{
				"type": "occ",
				"energy": -0.25758,
				"method": "rhf"
			},
			{
				"type": "occ",
				"energy": -0.2386,
				"method": "rhf"
			},
			{
				"type": "occ",
				"energy": -0.22651,
				"method": "rhf"
			},
			{
				"type": "unocc",
				"energy": -0.04194,
				"method": "rhf"
			},
			{
				"type": "unocc",
				"energy": -0.00588,
				"method": "rhf"
			},
			{
				"type": "unocc",
				"energy": 0.05376,
				"method": "rhf"
			},
			{
				"type": "unocc",
				"energy": 0.06631,
				"method": "rhf"
			},
			{
				"type": "unocc",
				"energy": 0.08469,
				"method": "rhf"
			}
		],
		"cosmo_sigma_profile": { 
			"-0.025": 0.0,
			"-0.024": 0.0,
			"-0.023": 0.0,
			"-0.022": 0.0,
			"-0.021": 0.0,
			"-0.02": 0.0,
			"-0.019": 0.0,
			"-0.018": 0.0,
			"-0.017": 0.0,
			"-0.016": 0.0,
			"-0.015": 0.0,
			"-0.014": 0.0,
			"-0.013": 0.0,
			"-0.012": 0.0,
			"-0.011": 0.0,
			"-0.01": 0.0,
			"-0.009": 0.0,
			"-0.008": 0.0,
			"-0.007": 1.89459090214,
			"-0.006": 10.8016221499,
			"-0.005": 18.3000648337,
			"-0.004": 18.9383704657,
			"-0.003": 22.9294879401,
			"-0.002": 49.8922473133,
			"-0.001": 62.1248392208,
			"0.0": 58.8571890217,
			"0.001": 51.425607986,
			"0.002": 27.934223808,
			"0.003": 14.6256376409,
			"0.004": 15.9019556194,
			"0.005": 4.76918918441,
			"0.006": 3.52042103112,
			"0.007": 3.28429471341,
			"0.008": 2.90272158249,
			"0.009": 2.72676291395,
			"0.01": 2.15251880823,
			"0.011": 2.66947152529,
			"0.012": 3.89829404704,
			"0.013": 2.88670411007,
			"0.014": 0.715603640372,
			"0.015": 0.0,
			"0.016": 0.0,
			"0.017": 0.0,
			"0.018": 0.0,
			"0.019": 0.0,
			"0.02": 0.0,
			"0.021": 0.0,
			"0.022": 0.0,
			"0.023": 0.0,
			"0.024": 0.0,
			"0.025": 0.0
		}
	}
}
