{
	 "smiles": "CC1=CC(C)=C(C#N)C(O)=N1", 
	 "Tm": 559.15, 
	 "num_atms": 19, 
	 "gaussian": { 
		 "optdone": 1, 
		 "sigma_profile": "yes", 
		 "theory": "DFT", 
		 "functional": "B3LYP", 
		 "basiset": "6-31G**", 
		 "properties": { 
			 "R2extent": 1883.4087, 
			 "electric_dipole_moment_norm": 3.91398526441, 
			 "electric_quadrupole_moment_norm": 5.95341488643, 
			 "total_energy": -494.399168551, 
			 "HOMO_LUMO_gap": 0.18991, 
			 "cosmo_polarized_energy": -12.4, 
			 "cosmo_cavitation_energy": 23.97, 
			 "cosmo_dispersion_energy": -17.13, 
			 "cosmo_repulsion_energy": 1.38, 
			 "cosmo_total_nonelectrostatic_energy": 8.23, 
			 "SMD_solvation_energy": 4.37 
		},
		"coords": [
			{
				"x": 2.1726193671,
				"y": 1.741733292,
				"z": 1.5449668978,
				"element": "C" 
			},
			{
				"x": 1.1653015182,
				"y": 0.7452526874,
				"z": 1.030978937,
				"element": "C" 
			},
			{
				"x": 1.3818507801,
				"y": 0.063812776,
				"z": -0.1783595633,
				"element": "C" 
			},
			{
				"x": 0.4438805675,
				"y": -0.8526168948,
				"z": -0.640086443,
				"element": "C" 
			},
			{
				"x": 0.6277739675,
				"y": -1.6085458844,
				"z": -1.9282619729,
				"element": "C" 
			},
			{
				"x": -0.7057521417,
				"y": -1.0515061319,
				"z": 0.1560680677,
				"element": "C" 
			},
			{
				"x": -1.7391520151,
				"y": -1.9629745141,
				"z": -0.2080409356,
				"element": "C" 
			},
			{
				"x": -2.6216200776,
				"y": -2.6888670018,
				"z": -0.4407230817,
				"element": "N" 
			},
			{
				"x": -0.8356332113,
				"y": -0.3176108136,
				"z": 1.3606548012,
				"element": "C" 
			},
			{
				"x": -1.9044157059,
				"y": -0.4569748439,
				"z": 2.1678547817,
				"element": "O" 
			},
			{
				"x": 0.0736382328,
				"y": 0.5530883125,
				"z": 1.7821769689,
				"element": "N" 
			},
			{
				"x": 1.8278388294,
				"y": 2.161525251,
				"z": 2.4904395514,
				"element": "H" 
			},
			{
				"x": 3.1484312262,
				"y": 1.2677249879,
				"z": 1.7000156648,
				"element": "H" 
			},
			{
				"x": 2.3202358218,
				"y": 2.5556574517,
				"z": 0.8261693399,
				"element": "H" 
			},
			{
				"x": 2.283488726,
				"y": 0.2542108798,
				"z": -0.7520721995,
				"element": "H" 
			},
			{
				"x": -0.1940893539,
				"y": -1.405044233,
				"z": -2.6232880702,
				"element": "H" 
			},
			{
				"x": 1.5666680631,
				"y": -1.3346508454,
				"z": -2.4139496156,
				"element": "H" 
			},
			{
				"x": 0.6315830175,
				"y": -2.6896138156,
				"z": -1.7515976763,
				"element": "H" 
			},
			{
				"x": -2.5189476117,
				"y": -1.1067006598,
				"z": 1.7926545478,
				"element": "H" 
			}
		],
		 "valence_orbital": [ 
			{
				"type": "occ",
				"energy": -0.3494,
				"method": "rhf"
			},
			{
				"type": "occ",
				"energy": -0.34699,
				"method": "rhf"
			},
			{
				"type": "occ",
				"energy": -0.28668,
				"method": "rhf"
			},
			{
				"type": "occ",
				"energy": -0.27629,
				"method": "rhf"
			},
			{
				"type": "occ",
				"energy": -0.24835,
				"method": "rhf"
			},
			{
				"type": "unocc",
				"energy": -0.05844,
				"method": "rhf"
			},
			{
				"type": "unocc",
				"energy": -0.01915,
				"method": "rhf"
			},
			{
				"type": "unocc",
				"energy": 0.01475,
				"method": "rhf"
			},
			{
				"type": "unocc",
				"energy": 0.06154,
				"method": "rhf"
			},
			{
				"type": "unocc",
				"energy": 0.07411,
				"method": "rhf"
			}
		],
		"cosmo_sigma_profile": { 
			"-0.025": 0.0,
			"-0.024": 0.0,
			"-0.023": 0.0,
			"-0.022": 0.0,
			"-0.021": 0.0,
			"-0.02": 0.0,
			"-0.019": 0.0,
			"-0.018": 0.0,
			"-0.017": 0.0188822357742,
			"-0.016": 0.619476011388,
			"-0.015": 0.708754947428,
			"-0.014": 0.796613084106,
			"-0.013": 1.1087847826,
			"-0.012": 0.863662442533,
			"-0.011": 1.37624453072,
			"-0.01": 1.04263567177,
			"-0.009": 0.564285984773,
			"-0.008": 1.36469998206,
			"-0.007": 3.35797064202,
			"-0.006": 9.14362901812,
			"-0.005": 14.6407361711,
			"-0.004": 16.1913365301,
			"-0.003": 17.0467898048,
			"-0.002": 19.7160035344,
			"-0.001": 23.9321665966,
			"0.0": 14.0006772979,
			"0.001": 9.44041413823,
			"0.002": 6.66779726271,
			"0.003": 3.79001271054,
			"0.004": 4.06363848697,
			"0.005": 4.06961960648,
			"0.006": 4.19095345615,
			"0.007": 4.27714980818,
			"0.008": 4.89470875955,
			"0.009": 5.32629115573,
			"0.01": 5.70819297954,
			"0.011": 5.10283919395,
			"0.012": 3.96916966687,
			"0.013": 2.08253204344,
			"0.014": 0.867472833272,
			"0.015": 0.761617987318,
			"0.016": 0.0234149999089,
			"0.017": 0.0,
			"0.018": 0.0,
			"0.019": 0.0,
			"0.02": 0.0,
			"0.021": 0.0,
			"0.022": 0.0,
			"0.023": 0.0,
			"0.024": 0.0,
			"0.025": 0.0
		}
	}
}
