{
	 "smiles": "C1=CC=C(C=C1)C1=CC=C(C=C1)C1=CC=C(C=C1)C1=CC=CC=C1", 
	 "Tm": 591.15, 
	 "num_atms": 42, 
	 "gaussian": { 
		 "optdone": 1, 
		 "sigma_profile": "yes", 
		 "theory": "DFT", 
		 "functional": "B3LYP", 
		 "basiset": "6-31G**", 
		 "properties": { 
			 "R2extent": 15718.7965, 
			 "electric_dipole_moment_norm": 0.000244948974278, 
			 "electric_quadrupole_moment_norm": 9.82870026555, 
			 "total_energy": -925.429833418, 
			 "HOMO_LUMO_gap": 0.16289, 
			 "cosmo_polarized_energy": -8.88, 
			 "cosmo_cavitation_energy": 45.9, 
			 "cosmo_dispersion_energy": -33.27, 
			 "cosmo_repulsion_energy": 2.45, 
			 "cosmo_total_nonelectrostatic_energy": 15.09, 
			 "SMD_solvation_energy": 6.95 
		},
		"coords": [
			{
				"x": -5.9948494467,
				"y": -4.7245784307,
				"z": -1.1995375421,
				"element": "C" 
			},
			{
				"x": -4.6902168523,
				"y": -5.1239183111,
				"z": -1.4959607557,
				"element": "C" 
			},
			{
				"x": -3.629746065,
				"y": -4.2326343762,
				"z": -1.3392944963,
				"element": "C" 
			},
			{
				"x": -3.8483959164,
				"y": -2.9217138199,
				"z": -0.8810993818,
				"element": "C" 
			},
			{
				"x": -5.1673846045,
				"y": -2.5350000767,
				"z": -0.5861484642,
				"element": "C" 
			},
			{
				"x": -6.2282904184,
				"y": -3.4255154283,
				"z": -0.7441921428,
				"element": "C" 
			},
			{
				"x": -2.7191354927,
				"y": -1.9731401698,
				"z": -0.7135185228,
				"element": "C" 
			},
			{
				"x": -2.860910891,
				"y": -0.6095896116,
				"z": -1.0219663777,
				"element": "C" 
			},
			{
				"x": -1.8027245667,
				"y": 0.2799160725,
				"z": -0.8640209637,
				"element": "C" 
			},
			{
				"x": -0.5516263728,
				"y": -0.1522391105,
				"z": -0.3915300762,
				"element": "C" 
			},
			{
				"x": -0.4096807638,
				"y": -1.5162346063,
				"z": -0.0839517171,
				"element": "C" 
			},
			{
				"x": -1.4685228375,
				"y": -2.4052136341,
				"z": -0.2404607694,
				"element": "C" 
			},
			{
				"x": 0.5764354348,
				"y": 0.7955713742,
				"z": -0.2236677878,
				"element": "C" 
			},
			{
				"x": 1.4805136729,
				"y": 0.6707904215,
				"z": 0.845124981,
				"element": "C" 
			},
			{
				"x": 2.5392846493,
				"y": 1.5597642082,
				"z": 1.0021491616,
				"element": "C" 
			},
			{
				"x": 2.743572727,
				"y": 2.6167528822,
				"z": 0.0990677038,
				"element": "C" 
			},
			{
				"x": 1.8392965966,
				"y": 2.742067435,
				"z": -0.9691510134,
				"element": "C" 
			},
			{
				"x": 0.7813660661,
				"y": 1.8522951005,
				"z": -1.1273226522,
				"element": "C" 
			},
			{
				"x": 3.8725384172,
				"y": 3.5655752865,
				"z": 0.2672381682,
				"element": "C" 
			},
			{
				"x": 4.2762663084,
				"y": 3.9898819013,
				"z": 1.545215812,
				"element": "C" 
			},
			{
				"x": 5.3370732767,
				"y": 4.8805007869,
				"z": 1.7033831894,
				"element": "C" 
			},
			{
				"x": 6.0182438066,
				"y": 5.369110663,
				"z": 0.5868422562,
				"element": "C" 
			},
			{
				"x": 5.6285968139,
				"y": 4.9576602768,
				"z": -0.6892025879,
				"element": "C" 
			},
			{
				"x": 4.5687510053,
				"y": 4.0658184246,
				"z": -0.8468994658,
				"element": "C" 
			},
			{
				"x": -6.8212266343,
				"y": -5.4186804084,
				"z": -1.3221347622,
				"element": "H" 
			},
			{
				"x": -4.4978275787,
				"y": -6.1296071014,
				"z": -1.8592417851,
				"element": "H" 
			},
			{
				"x": -2.6228364581,
				"y": -4.5455910275,
				"z": -1.5994530982,
				"element": "H" 
			},
			{
				"x": -5.357542915,
				"y": -1.5360445898,
				"z": -0.2048197354,
				"element": "H" 
			},
			{
				"x": -7.2382965213,
				"y": -3.1065715697,
				"z": -0.5022034001,
				"element": "H" 
			},
			{
				"x": -3.8087910116,
				"y": -0.2448022506,
				"z": -1.406607378,
				"element": "H" 
			},
			{
				"x": -1.9532242586,
				"y": 1.330520011,
				"z": -1.0943158301,
				"element": "H" 
			},
			{
				"x": 0.5486528857,
				"y": -1.8882107782,
				"z": 0.2662954195,
				"element": "H" 
			},
			{
				"x": -1.3292305378,
				"y": -3.4493054305,
				"z": 0.02404722,
				"element": "H" 
			},
			{
				"x": 1.3416003581,
				"y": -0.1234709939,
				"z": 1.5726546708,
				"element": "H" 
			},
			{
				"x": 3.2296217055,
				"y": 1.4231206549,
				"z": 1.829349225,
				"element": "H" 
			},
			{
				"x": 1.9574606557,
				"y": 3.5581492557,
				"z": -1.6759342809,
				"element": "H" 
			},
			{
				"x": 0.1125437582,
				"y": 1.9677785001,
				"z": -1.9751378119,
				"element": "H" 
			},
			{
				"x": 3.735975037,
				"y": 3.6381744965,
				"z": 2.4192146925,
				"element": "H" 
			},
			{
				"x": 5.6259832859,
				"y": 5.2005487452,
				"z": 2.7006285835,
				"element": "H" 
			},
			{
				"x": 6.844336486,
				"y": 6.0634718573,
				"z": 0.7098898205,
				"element": "H" 
			},
			{
				"x": 6.1570096156,
				"y": 5.3246330626,
				"z": -1.5647068589,
				"element": "H" 
			},
			{
				"x": 4.2925375807,
				"y": 3.7312603085,
				"z": -1.8425212467,
				"element": "H" 
			}
		],
		 "valence_orbital": [ 
			{
				"type": "occ",
				"energy": -0.251,
				"method": "rhf"
			},
			{
				"type": "occ",
				"energy": -0.24975,
				"method": "rhf"
			},
			{
				"type": "occ",
				"energy": -0.24968,
				"method": "rhf"
			},
			{
				"type": "occ",
				"energy": -0.23413,
				"method": "rhf"
			},
			{
				"type": "occ",
				"energy": -0.20679,
				"method": "rhf"
			},
			{
				"type": "unocc",
				"energy": -0.0439,
				"method": "rhf"
			},
			{
				"type": "unocc",
				"energy": -0.01452,
				"method": "rhf"
			},
			{
				"type": "unocc",
				"energy": -0.00676,
				"method": "rhf"
			},
			{
				"type": "unocc",
				"energy": -0.00309,
				"method": "rhf"
			},
			{
				"type": "unocc",
				"energy": -0.00029,
				"method": "rhf"
			}
		],
		"cosmo_sigma_profile": { 
			"-0.025": 0.0,
			"-0.024": 0.0,
			"-0.023": 0.0,
			"-0.022": 0.0,
			"-0.021": 0.0,
			"-0.02": 0.0,
			"-0.019": 0.0,
			"-0.018": 0.0,
			"-0.017": 0.0,
			"-0.016": 0.0,
			"-0.015": 0.0,
			"-0.014": 0.0,
			"-0.013": 0.0,
			"-0.012": 0.0,
			"-0.011": 0.0,
			"-0.01": 0.0,
			"-0.009": 0.0,
			"-0.008": 0.0,
			"-0.007": 0.0,
			"-0.006": 14.5585210718,
			"-0.005": 39.2903338352,
			"-0.004": 38.8599463496,
			"-0.003": 33.8526551717,
			"-0.002": 24.1194741494,
			"-0.001": 23.1988599817,
			"0.0": 20.3720546572,
			"0.001": 23.9589479773,
			"0.002": 27.2752953957,
			"0.003": 34.9579643494,
			"0.004": 34.1929860388,
			"0.005": 38.2064681064,
			"0.006": 16.0650985934,
			"0.007": 0.0281793143584,
			"0.008": 0.0,
			"0.009": 0.0,
			"0.01": 0.0,
			"0.011": 0.0,
			"0.012": 0.0,
			"0.013": 0.0,
			"0.014": 0.0,
			"0.015": 0.0,
			"0.016": 0.0,
			"0.017": 0.0,
			"0.018": 0.0,
			"0.019": 0.0,
			"0.02": 0.0,
			"0.021": 0.0,
			"0.022": 0.0,
			"0.023": 0.0,
			"0.024": 0.0,
			"0.025": 0.0
		}
	}
}
