{
	 "smiles": "CS(=O)C1=NN=CN1", 
	 "Tm": 393.15, 
	 "num_atms": 13, 
	 "gaussian": { 
		 "optdone": 1, 
		 "sigma_profile": "yes", 
		 "theory": "DFT", 
		 "functional": "B3LYP", 
		 "basiset": "6-31G**", 
		 "properties": { 
			 "R2extent": 1189.791, 
			 "electric_dipole_moment_norm": 2.14224243493, 
			 "electric_quadrupole_moment_norm": 16.2515859832, 
			 "total_energy": -754.911676509, 
			 "HOMO_LUMO_gap": 0.23181, 
			 "cosmo_polarized_energy": -18.21, 
			 "cosmo_cavitation_energy": 18.97, 
			 "cosmo_dispersion_energy": -14.73, 
			 "cosmo_repulsion_energy": 1.17, 
			 "cosmo_total_nonelectrostatic_energy": 5.41, 
			 "SMD_solvation_energy": 1.66 
		},
		"coords": [
			{
				"x": 1.046841493,
				"y": 1.4171595247,
				"z": 2.0092821673,
				"element": "C" 
			},
			{
				"x": 1.6754489834,
				"y": -0.150609175,
				"z": 1.2967784331,
				"element": "S" 
			},
			{
				"x": 1.315775993,
				"y": -1.3009221864,
				"z": 2.2183365535,
				"element": "O" 
			},
			{
				"x": 0.4359602754,
				"y": -0.2636563257,
				"z": -0.0103050757,
				"element": "C" 
			},
			{
				"x": 0.1980501469,
				"y": 0.5414050421,
				"z": -1.0143057988,
				"element": "N" 
			},
			{
				"x": -0.8153338788,
				"y": -0.0424782304,
				"z": -1.7564771815,
				"element": "N" 
			},
			{
				"x": -1.1301268815,
				"y": -1.1738911724,
				"z": -1.1663776682,
				"element": "C" 
			},
			{
				"x": -0.3606768262,
				"y": -1.3665566614,
				"z": -0.0540731771,
				"element": "N" 
			},
			{
				"x": 0.0418064179,
				"y": 1.2535201079,
				"z": 2.4031776586,
				"element": "H" 
			},
			{
				"x": 1.7304694281,
				"y": 1.7063458504,
				"z": 2.809959944,
				"element": "H" 
			},
			{
				"x": 1.0393355507,
				"y": 2.1664099969,
				"z": 1.2139088491,
				"element": "H" 
			},
			{
				"x": -1.8870350617,
				"y": -1.8686275328,
				"z": -1.4997957496,
				"element": "H" 
			},
			{
				"x": -0.3535156404,
				"y": -2.1035992378,
				"z": 0.6405910452,
				"element": "H" 
			}
		],
		 "valence_orbital": [ 
			{
				"type": "occ",
				"energy": -0.31962,
				"method": "rhf"
			},
			{
				"type": "occ",
				"energy": -0.29188,
				"method": "rhf"
			},
			{
				"type": "occ",
				"energy": -0.28411,
				"method": "rhf"
			},
			{
				"type": "occ",
				"energy": -0.26984,
				"method": "rhf"
			},
			{
				"type": "occ",
				"energy": -0.24789,
				"method": "rhf"
			},
			{
				"type": "unocc",
				"energy": -0.01608,
				"method": "rhf"
			},
			{
				"type": "unocc",
				"energy": 0.01096,
				"method": "rhf"
			},
			{
				"type": "unocc",
				"energy": 0.01752,
				"method": "rhf"
			},
			{
				"type": "unocc",
				"energy": 0.04501,
				"method": "rhf"
			},
			{
				"type": "unocc",
				"energy": 0.08125,
				"method": "rhf"
			}
		],
		"cosmo_sigma_profile": { 
			"-0.025": 0.0,
			"-0.024": 0.0,
			"-0.023": 0.0,
			"-0.022": 0.0,
			"-0.021": 0.0,
			"-0.02": 0.0,
			"-0.019": 0.0,
			"-0.018": 0.187509050697,
			"-0.017": 0.902273994609,
			"-0.016": 0.964152084617,
			"-0.015": 0.95509521501,
			"-0.014": 1.09559568807,
			"-0.013": 0.705652260192,
			"-0.012": 0.818226392111,
			"-0.011": 3.33604614571,
			"-0.01": 2.76485587154,
			"-0.009": 4.05659302666,
			"-0.008": 6.76227694409,
			"-0.007": 8.60678264721,
			"-0.006": 8.95164225226,
			"-0.005": 10.2472168409,
			"-0.004": 9.88945837909,
			"-0.003": 11.1378599601,
			"-0.002": 10.44879716,
			"-0.001": 7.0155086452,
			"0.0": 6.12965995487,
			"0.001": 6.09519106869,
			"0.002": 3.37498046446,
			"0.003": 2.54315715873,
			"0.004": 3.01718711436,
			"0.005": 2.91475376142,
			"0.006": 3.11564624423,
			"0.007": 2.23624671883,
			"0.008": 1.86506003379,
			"0.009": 4.23728259115,
			"0.01": 3.12672437249,
			"0.011": 3.90421789782,
			"0.012": 5.49104251264,
			"0.013": 6.86158273409,
			"0.014": 5.42346724865,
			"0.015": 2.90702804748,
			"0.016": 1.03296096785,
			"0.017": 0.0837717494408,
			"0.018": 0.0,
			"0.019": 0.0,
			"0.02": 0.0,
			"0.021": 0.0,
			"0.022": 0.0,
			"0.023": 0.0,
			"0.024": 0.0,
			"0.025": 0.0
		}
	}
}
