{
	 "smiles": "CC1=NC2=C(NC1=O)C=CC=C2", 
	 "Tm": 543.65, 
	 "num_atms": 20, 
	 "gaussian": { 
		 "optdone": 1, 
		 "sigma_profile": "yes", 
		 "theory": "DFT", 
		 "functional": "B3LYP", 
		 "basiset": "6-31G**", 
		 "properties": { 
			 "R2extent": 2353.5868, 
			 "electric_dipole_moment_norm": 3.07317613553, 
			 "electric_quadrupole_moment_norm": 10.7182903889, 
			 "total_energy": -532.531600285, 
			 "HOMO_LUMO_gap": 0.16388, 
			 "cosmo_polarized_energy": -12.19, 
			 "cosmo_cavitation_energy": 24.15, 
			 "cosmo_dispersion_energy": -18.17, 
			 "cosmo_repulsion_energy": 1.43, 
			 "cosmo_total_nonelectrostatic_energy": 7.41, 
			 "SMD_solvation_energy": 3.31 
		},
		"coords": [
			{
				"x": -1.2256590568,
				"y": 1.9539832766,
				"z": -2.806255493,
				"element": "C" 
			},
			{
				"x": -0.4012272791,
				"y": 1.5365633174,
				"z": -1.6266313341,
				"element": "C" 
			},
			{
				"x": -0.9538574468,
				"y": 0.9412556094,
				"z": -0.616188728,
				"element": "N" 
			},
			{
				"x": -0.1751760781,
				"y": 0.5616106549,
				"z": 0.4682122377,
				"element": "C" 
			},
			{
				"x": 1.2176979455,
				"y": 0.806485265,
				"z": 0.5061202885,
				"element": "C" 
			},
			{
				"x": 1.7722113763,
				"y": 1.4435787986,
				"z": -0.5896348483,
				"element": "N" 
			},
			{
				"x": 1.0561974265,
				"y": 1.8492127258,
				"z": -1.7034207959,
				"element": "C" 
			},
			{
				"x": 1.5909223815,
				"y": 2.4113449755,
				"z": -2.652286973,
				"element": "O" 
			},
			{
				"x": 1.980605238,
				"y": 0.4122347578,
				"z": 1.6145415819,
				"element": "C" 
			},
			{
				"x": 1.3556721789,
				"y": -0.2236093589,
				"z": 2.6802411465,
				"element": "C" 
			},
			{
				"x": -0.0260184327,
				"y": -0.4737900329,
				"z": 2.6575693057,
				"element": "C" 
			},
			{
				"x": -0.7806805447,
				"y": -0.0835306661,
				"z": 1.5605758164,
				"element": "C" 
			},
			{
				"x": -1.144428812,
				"y": 3.03458864,
				"z": -2.9667326713,
				"element": "H" 
			},
			{
				"x": -0.851075937,
				"y": 1.4820940644,
				"z": -3.7211644978,
				"element": "H" 
			},
			{
				"x": -2.2683909194,
				"y": 1.6787418074,
				"z": -2.6452722975,
				"element": "H" 
			},
			{
				"x": 2.7653317751,
				"y": 1.6435324045,
				"z": -0.6147918181,
				"element": "H" 
			},
			{
				"x": 3.0498736729,
				"y": 0.6062077424,
				"z": 1.6312998076,
				"element": "H" 
			},
			{
				"x": 1.946984777,
				"y": -0.5287210299,
				"z": 3.538362632,
				"element": "H" 
			},
			{
				"x": -0.5006101034,
				"y": -0.971396,
				"z": 3.4971317802,
				"element": "H" 
			},
			{
				"x": -1.8499721617,
				"y": -0.2606869518,
				"z": 1.5091248604,
				"element": "H" 
			}
		],
		 "valence_orbital": [ 
			{
				"type": "occ",
				"energy": -0.31863,
				"method": "rhf"
			},
			{
				"type": "occ",
				"energy": -0.29752,
				"method": "rhf"
			},
			{
				"type": "occ",
				"energy": -0.25252,
				"method": "rhf"
			},
			{
				"type": "occ",
				"energy": -0.24468,
				"method": "rhf"
			},
			{
				"type": "occ",
				"energy": -0.22741,
				"method": "rhf"
			},
			{
				"type": "unocc",
				"energy": -0.06353,
				"method": "rhf"
			},
			{
				"type": "unocc",
				"energy": -0.01163,
				"method": "rhf"
			},
			{
				"type": "unocc",
				"energy": 0.00156,
				"method": "rhf"
			},
			{
				"type": "unocc",
				"energy": 0.07647,
				"method": "rhf"
			},
			{
				"type": "unocc",
				"energy": 0.08447,
				"method": "rhf"
			}
		],
		"cosmo_sigma_profile": { 
			"-0.025": 0.0,
			"-0.024": 0.0,
			"-0.023": 0.0,
			"-0.022": 0.0,
			"-0.021": 0.0,
			"-0.02": 0.0,
			"-0.019": 0.0,
			"-0.018": 0.0,
			"-0.017": 0.066183693187,
			"-0.016": 0.88152053651,
			"-0.015": 1.4275249565,
			"-0.014": 0.916303140962,
			"-0.013": 0.997834360041,
			"-0.012": 1.36731115278,
			"-0.011": 1.52253294876,
			"-0.01": 1.22166181723,
			"-0.009": 0.827652060181,
			"-0.008": 1.62726141179,
			"-0.007": 3.68934090998,
			"-0.006": 7.70627510971,
			"-0.005": 13.3449361355,
			"-0.004": 16.6795951631,
			"-0.003": 14.9157131108,
			"-0.002": 14.2165725907,
			"-0.001": 17.9701970456,
			"0.0": 13.9013952835,
			"0.001": 11.2740943448,
			"0.002": 11.8678418369,
			"0.003": 14.0922350011,
			"0.004": 11.8407105523,
			"0.005": 3.94909749646,
			"0.006": 3.55819093788,
			"0.007": 2.21008174912,
			"0.008": 1.64352447676,
			"0.009": 2.98071321492,
			"0.01": 2.26328762492,
			"0.011": 2.11790134262,
			"0.012": 3.27735225407,
			"0.013": 6.74270417478,
			"0.014": 2.16239340453,
			"0.015": 0.0,
			"0.016": 0.0,
			"0.017": 0.0,
			"0.018": 0.0,
			"0.019": 0.0,
			"0.02": 0.0,
			"0.021": 0.0,
			"0.022": 0.0,
			"0.023": 0.0,
			"0.024": 0.0,
			"0.025": 0.0
		}
	}
}
