{
	 "smiles": "NCC1=NN=C(O1)C1=CC(Br)=CC=C1", 
	 "Tm": 372.15, 
	 "num_atms": 22, 
	 "gaussian": { 
		 "optdone": 1, 
		 "sigma_profile": "yes", 
		 "theory": "DFT", 
		 "functional": "B3LYP", 
		 "basiset": "6-31G**", 
		 "properties": { 
			 "R2extent": 6556.1547, 
			 "electric_dipole_moment_norm": 1.83523558161, 
			 "electric_quadrupole_moment_norm": 10.2504144555, 
			 "total_energy": -3158.63180844, 
			 "HOMO_LUMO_gap": 0.18264, 
			 "cosmo_polarized_energy": -13.64, 
			 "cosmo_cavitation_energy": 29.79, 
			 "cosmo_dispersion_energy": -22.14, 
			 "cosmo_repulsion_energy": 1.77, 
			 "cosmo_total_nonelectrostatic_energy": 9.42, 
			 "SMD_solvation_energy": 0.92 
		},
		"coords": [
			{
				"x": 2.5763557714,
				"y": 1.6933879362,
				"z": 2.8590665619,
				"element": "N" 
			},
			{
				"x": 1.9197435073,
				"y": 2.2240797408,
				"z": 1.6625360501,
				"element": "C" 
			},
			{
				"x": 1.5056232283,
				"y": 1.2019346057,
				"z": 0.6483749892,
				"element": "C" 
			},
			{
				"x": 1.9892485729,
				"y": 0.9809797953,
				"z": -0.5342449436,
				"element": "N" 
			},
			{
				"x": 1.3000522647,
				"y": -0.1152181431,
				"z": -1.0499203649,
				"element": "N" 
			},
			{
				"x": 0.4501930308,
				"y": -0.4820406556,
				"z": -0.1366498211,
				"element": "C" 
			},
			{
				"x": 0.5209250189,
				"y": 0.3094579468,
				"z": 0.9761580742,
				"element": "O" 
			},
			{
				"x": -0.5090310671,
				"y": -1.5806557897,
				"z": -0.18141634,
				"element": "C" 
			},
			{
				"x": -1.3624614818,
				"y": -1.8298174858,
				"z": 0.9035870792,
				"element": "C" 
			},
			{
				"x": -2.2637749829,
				"y": -2.8870714771,
				"z": 0.8253936213,
				"element": "C" 
			},
			{
				"x": -3.4270490821,
				"y": -3.2289193486,
				"z": 2.302190089,
				"element": "Br" 
			},
			{
				"x": -2.3359812544,
				"y": -3.7001054077,
				"z": -0.3046810878,
				"element": "C" 
			},
			{
				"x": -1.480832709,
				"y": -3.4413809859,
				"z": -1.3793935221,
				"element": "C" 
			},
			{
				"x": -0.5703777539,
				"y": -2.3909182309,
				"z": -1.326534106,
				"element": "C" 
			},
			{
				"x": 3.4077128109,
				"y": 1.1698509031,
				"z": 2.5959985625,
				"element": "H" 
			},
			{
				"x": 1.9590646482,
				"y": 1.0448261313,
				"z": 3.3409604886,
				"element": "H" 
			},
			{
				"x": 2.5967596033,
				"y": 2.9165622682,
				"z": 1.1561569664,
				"element": "H" 
			},
			{
				"x": 1.03999666,
				"y": 2.7968407837,
				"z": 1.9768295047,
				"element": "H" 
			},
			{
				"x": -1.3216955127,
				"y": -1.2078249415,
				"z": 1.7891154929,
				"element": "H" 
			},
			{
				"x": -3.0461258215,
				"y": -4.5179992027,
				"z": -0.3434036697,
				"element": "H" 
			},
			{
				"x": -1.5306124496,
				"y": -4.0693927983,
				"z": -2.2635387405,
				"element": "H" 
			},
			{
				"x": 0.0966669985,
				"y": -2.1829756444,
				"z": -2.1555848844,
				"element": "H" 
			}
		],
		 "valence_orbital": [ 
			{
				"type": "occ",
				"energy": -0.29684,
				"method": "rhf"
			},
			{
				"type": "occ",
				"energy": -0.28291,
				"method": "rhf"
			},
			{
				"type": "occ",
				"energy": -0.26644,
				"method": "rhf"
			},
			{
				"type": "occ",
				"energy": -0.25857,
				"method": "rhf"
			},
			{
				"type": "occ",
				"energy": -0.24494,
				"method": "rhf"
			},
			{
				"type": "unocc",
				"energy": -0.0623,
				"method": "rhf"
			},
			{
				"type": "unocc",
				"energy": -0.02745,
				"method": "rhf"
			},
			{
				"type": "unocc",
				"energy": -0.00303,
				"method": "rhf"
			},
			{
				"type": "unocc",
				"energy": 0.00297,
				"method": "rhf"
			},
			{
				"type": "unocc",
				"energy": 0.0479,
				"method": "rhf"
			}
		],
		"cosmo_sigma_profile": { 
			"-0.025": 0.0,
			"-0.024": 0.0,
			"-0.023": 0.0,
			"-0.022": 0.0,
			"-0.021": 0.0,
			"-0.02": 0.0,
			"-0.019": 0.0,
			"-0.018": 0.0,
			"-0.017": 0.0,
			"-0.016": 0.0,
			"-0.015": 0.0,
			"-0.014": 0.0,
			"-0.013": 0.0,
			"-0.012": 0.0,
			"-0.011": 1.3269719103,
			"-0.01": 2.75731816619,
			"-0.009": 2.82562820357,
			"-0.008": 4.72303343973,
			"-0.007": 12.0061119011,
			"-0.006": 16.194507263,
			"-0.005": 15.4443005391,
			"-0.004": 15.8165943069,
			"-0.003": 15.5162549007,
			"-0.002": 15.3467852332,
			"-0.001": 14.7189854527,
			"0.0": 17.2022294775,
			"0.001": 23.2708767202,
			"0.002": 22.3792940754,
			"0.003": 13.4256341737,
			"0.004": 14.7174150412,
			"0.005": 4.733550657,
			"0.006": 2.00951877003,
			"0.007": 2.34109955309,
			"0.008": 2.3668599635,
			"0.009": 3.207732626,
			"0.01": 3.19514757424,
			"0.011": 3.4772285238,
			"0.012": 3.64794397208,
			"0.013": 3.18740222249,
			"0.014": 3.15345411275,
			"0.015": 1.05169677251,
			"0.016": 0.720225648528,
			"0.017": 0.621983285657,
			"0.018": 0.587825924542,
			"0.019": 0.0645746331305,
			"0.02": 0.0,
			"0.021": 0.0,
			"0.022": 0.0,
			"0.023": 0.0,
			"0.024": 0.0,
			"0.025": 0.0
		}
	}
}
