{
	 "smiles": "ON=CC(=O)C1=CC=CC=C1", 
	 "Tm": 401.15, 
	 "num_atms": 18, 
	 "gaussian": { 
		 "optdone": 1, 
		 "sigma_profile": "yes", 
		 "theory": "DFT", 
		 "functional": "B3LYP", 
		 "basiset": "6-31G**", 
		 "properties": { 
			 "R2extent": 2442.7266, 
			 "electric_dipole_moment_norm": 3.24424348809, 
			 "electric_quadrupole_moment_norm": 13.0164574363, 
			 "total_energy": -514.196971345, 
			 "HOMO_LUMO_gap": 0.17649, 
			 "cosmo_polarized_energy": -10.14, 
			 "cosmo_cavitation_energy": 23.18, 
			 "cosmo_dispersion_energy": -17.07, 
			 "cosmo_repulsion_energy": 1.38, 
			 "cosmo_total_nonelectrostatic_energy": 7.49, 
			 "SMD_solvation_energy": 5.46 
		},
		"coords": [
			{
				"x": -2.999016117,
				"y": 0.7610324996,
				"z": 2.85631445,
				"element": "O" 
			},
			{
				"x": -1.8343183223,
				"y": 0.6688961226,
				"z": 2.1061352585,
				"element": "N" 
			},
			{
				"x": -0.9423311528,
				"y": 1.4799379961,
				"z": 2.5374080466,
				"element": "C" 
			},
			{
				"x": 0.3998531187,
				"y": 1.6620916798,
				"z": 1.9033217825,
				"element": "C" 
			},
			{
				"x": 1.0358227071,
				"y": 2.6373210146,
				"z": 2.292926736,
				"element": "O" 
			},
			{
				"x": 0.9576693471,
				"y": 0.7511095702,
				"z": 0.8566852509,
				"element": "C" 
			},
			{
				"x": 0.4235317509,
				"y": -0.5067641332,
				"z": 0.532710953,
				"element": "C" 
			},
			{
				"x": 1.0368880713,
				"y": -1.2978377768,
				"z": -0.4386863089,
				"element": "C" 
			},
			{
				"x": 2.1817832021,
				"y": -0.8458430903,
				"z": -1.0967024227,
				"element": "C" 
			},
			{
				"x": 2.7215885397,
				"y": 0.4039137686,
				"z": -0.7775605048,
				"element": "C" 
			},
			{
				"x": 2.117506085,
				"y": 1.1927316004,
				"z": 0.1953088757,
				"element": "C" 
			},
			{
				"x": -3.5873668282,
				"y": 0.1255979999,
				"z": 2.4246316798,
				"element": "H" 
			},
			{
				"x": -1.1367932974,
				"y": 2.1482893269,
				"z": 3.3779982438,
				"element": "H" 
			},
			{
				"x": -0.467430566,
				"y": -0.8596318971,
				"z": 1.034782486,
				"element": "H" 
			},
			{
				"x": 0.619487457,
				"y": -2.2710123397,
				"z": -0.68037153,
				"element": "H" 
			},
			{
				"x": 2.653996543,
				"y": -1.4653165772,
				"z": -1.8541133644,
				"element": "H" 
			},
			{
				"x": 3.6132300734,
				"y": 0.758636331,
				"z": -1.2862354807,
				"element": "H" 
			},
			{
				"x": 2.5244993885,
				"y": 2.1609479045,
				"z": 0.4656458488,
				"element": "H" 
			}
		],
		 "valence_orbital": [ 
			{
				"type": "occ",
				"energy": -0.29919,
				"method": "rhf"
			},
			{
				"type": "occ",
				"energy": -0.27988,
				"method": "rhf"
			},
			{
				"type": "occ",
				"energy": -0.2621,
				"method": "rhf"
			},
			{
				"type": "occ",
				"energy": -0.25877,
				"method": "rhf"
			},
			{
				"type": "occ",
				"energy": -0.25586,
				"method": "rhf"
			},
			{
				"type": "unocc",
				"energy": -0.07937,
				"method": "rhf"
			},
			{
				"type": "unocc",
				"energy": -0.01532,
				"method": "rhf"
			},
			{
				"type": "unocc",
				"energy": -0.00665,
				"method": "rhf"
			},
			{
				"type": "unocc",
				"energy": 0.0585,
				"method": "rhf"
			},
			{
				"type": "unocc",
				"energy": 0.07373,
				"method": "rhf"
			}
		],
		"cosmo_sigma_profile": { 
			"-0.025": 0.0,
			"-0.024": 0.0,
			"-0.023": 0.0,
			"-0.022": 0.0,
			"-0.021": 0.0,
			"-0.02": 0.0,
			"-0.019": 0.377413962758,
			"-0.018": 1.28594322511,
			"-0.017": 0.909056274193,
			"-0.016": 0.85340123448,
			"-0.015": 0.857891498148,
			"-0.014": 0.326963941313,
			"-0.013": 0.422316264129,
			"-0.012": 0.777019733111,
			"-0.011": 1.11276167911,
			"-0.01": 0.7727241196,
			"-0.009": 0.877449158663,
			"-0.008": 1.0350896748,
			"-0.007": 3.24638181395,
			"-0.006": 9.67622306666,
			"-0.005": 11.0473261735,
			"-0.004": 12.6157153874,
			"-0.003": 12.2827261737,
			"-0.002": 14.5696294643,
			"-0.001": 10.7333902702,
			"0.0": 12.6573020611,
			"0.001": 14.0371772257,
			"0.002": 13.5422934399,
			"0.003": 17.0706581859,
			"0.004": 16.2110288612,
			"0.005": 4.57329415605,
			"0.006": 4.10400647114,
			"0.007": 4.00097110358,
			"0.008": 3.0299351782,
			"0.009": 4.20099447916,
			"0.01": 2.35312590348,
			"0.011": 3.8438397237,
			"0.012": 2.46930593084,
			"0.013": 0.127101783952,
			"0.014": 0.0,
			"0.015": 0.0,
			"0.016": 0.0,
			"0.017": 0.0,
			"0.018": 0.0,
			"0.019": 0.0,
			"0.02": 0.0,
			"0.021": 0.0,
			"0.022": 0.0,
			"0.023": 0.0,
			"0.024": 0.0,
			"0.025": 0.0
		}
	}
}
