{
	 "smiles": "OC(=O)C=CC1=CC=C(C=C1)C#N", 
	 "Tm": 524.15, 
	 "num_atms": 20, 
	 "gaussian": { 
		 "optdone": 1, 
		 "sigma_profile": "yes", 
		 "theory": "DFT", 
		 "functional": "B3LYP", 
		 "basiset": "6-31G**", 
		 "properties": { 
			 "R2extent": 4219.1862, 
			 "electric_dipole_moment_norm": 2.57845455651, 
			 "electric_quadrupole_moment_norm": 47.3337359408, 
			 "total_energy": -590.458074341, 
			 "HOMO_LUMO_gap": 0.16077, 
			 "cosmo_polarized_energy": -21.24, 
			 "cosmo_cavitation_energy": 27.02, 
			 "cosmo_dispersion_energy": -18.98, 
			 "cosmo_repulsion_energy": 1.5, 
			 "cosmo_total_nonelectrostatic_energy": 9.54, 
			 "SMD_solvation_energy": 7.41 
		},
		"coords": [
			{
				"x": -4.4436699456,
				"y": -1.7939780106,
				"z": 1.4584167475,
				"element": "O" 
			},
			{
				"x": -3.5268713568,
				"y": -0.9016709648,
				"z": 0.9949495461,
				"element": "C" 
			},
			{
				"x": -3.8544715031,
				"y": 0.2427773361,
				"z": 0.7793844385,
				"element": "O" 
			},
			{
				"x": -2.1521595509,
				"y": -1.433502634,
				"z": 0.7869965383,
				"element": "C" 
			},
			{
				"x": -1.1885404889,
				"y": -0.61393807,
				"z": 0.3306481046,
				"element": "C" 
			},
			{
				"x": 0.2129120893,
				"y": -0.9343410159,
				"z": 0.0607842247,
				"element": "C" 
			},
			{
				"x": 0.7665417,
				"y": -2.2154722637,
				"z": 0.256779101,
				"element": "C" 
			},
			{
				"x": 2.1030402905,
				"y": -2.4653226575,
				"z": -0.0152895178,
				"element": "C" 
			},
			{
				"x": 2.9296273641,
				"y": -1.4316629229,
				"z": -0.4950150968,
				"element": "C" 
			},
			{
				"x": 2.3939651634,
				"y": -0.1493675768,
				"z": -0.6957775676,
				"element": "C" 
			},
			{
				"x": 1.0530614022,
				"y": 0.0879172002,
				"z": -0.4192666545,
				"element": "C" 
			},
			{
				"x": 4.3110292777,
				"y": -1.6894659853,
				"z": -0.7763335546,
				"element": "C" 
			},
			{
				"x": 5.4321480338,
				"y": -1.9007289504,
				"z": -1.0041263964,
				"element": "N" 
			},
			{
				"x": -4.0406991204,
				"y": -2.6641815522,
				"z": 1.5837029834,
				"element": "H" 
			},
			{
				"x": -1.9560215061,
				"y": -2.4802464349,
				"z": 1.0100593337,
				"element": "H" 
			},
			{
				"x": -1.4933121493,
				"y": 0.4138099012,
				"z": 0.1396136717,
				"element": "H" 
			},
			{
				"x": 0.1464158079,
				"y": -3.0256949203,
				"z": 0.6258986648,
				"element": "H" 
			},
			{
				"x": 2.5199392376,
				"y": -3.4547842654,
				"z": 0.1388119403,
				"element": "H" 
			},
			{
				"x": 3.0302717671,
				"y": 0.6474541985,
				"z": -1.0652983539,
				"element": "H" 
			},
			{
				"x": 0.6421934874,
				"y": 1.0809995886,
				"z": -0.5757381531,
				"element": "H" 
			}
		],
		 "valence_orbital": [ 
			{
				"type": "occ",
				"energy": -0.32942,
				"method": "rhf"
			},
			{
				"type": "occ",
				"energy": -0.31361,
				"method": "rhf"
			},
			{
				"type": "occ",
				"energy": -0.29165,
				"method": "rhf"
			},
			{
				"type": "occ",
				"energy": -0.28177,
				"method": "rhf"
			},
			{
				"type": "occ",
				"energy": -0.25987,
				"method": "rhf"
			},
			{
				"type": "unocc",
				"energy": -0.0991,
				"method": "rhf"
			},
			{
				"type": "unocc",
				"energy": -0.03919,
				"method": "rhf"
			},
			{
				"type": "unocc",
				"energy": -0.02395,
				"method": "rhf"
			},
			{
				"type": "unocc",
				"energy": 0.02548,
				"method": "rhf"
			},
			{
				"type": "unocc",
				"energy": 0.04604,
				"method": "rhf"
			}
		],
		"cosmo_sigma_profile": { 
			"-0.025": 0.0,
			"-0.024": 0.0,
			"-0.023": 0.0,
			"-0.022": 0.0,
			"-0.021": 0.0,
			"-0.02": 0.187228141114,
			"-0.019": 0.939050869945,
			"-0.018": 1.31416691142,
			"-0.017": 1.12716516015,
			"-0.016": 1.54222010023,
			"-0.015": 0.509513721035,
			"-0.014": 0.733080225942,
			"-0.013": 1.08404980704,
			"-0.012": 1.7740768635,
			"-0.011": 1.02090679537,
			"-0.01": 2.27153996032,
			"-0.009": 3.8917512188,
			"-0.008": 10.0683066691,
			"-0.007": 10.7418406784,
			"-0.006": 11.0505470882,
			"-0.005": 9.05061288195,
			"-0.004": 8.81200266633,
			"-0.003": 9.28324084,
			"-0.002": 12.7135907287,
			"-0.001": 14.7113353718,
			"0.0": 16.9972156822,
			"0.001": 22.5796680341,
			"0.002": 13.5728753499,
			"0.003": 4.71948730765,
			"0.004": 3.56436059703,
			"0.005": 4.28771060088,
			"0.006": 5.97476037532,
			"0.007": 5.04168005247,
			"0.008": 5.5136495069,
			"0.009": 6.47969858506,
			"0.01": 7.56653082384,
			"0.011": 7.74854208981,
			"0.012": 7.92951291701,
			"0.013": 3.37078788076,
			"0.014": 0.222160693702,
			"0.015": 0.0,
			"0.016": 0.0,
			"0.017": 0.0,
			"0.018": 0.0,
			"0.019": 0.0,
			"0.02": 0.0,
			"0.021": 0.0,
			"0.022": 0.0,
			"0.023": 0.0,
			"0.024": 0.0,
			"0.025": 0.0
		}
	}
}
