{
	 "smiles": "CC(=O)C1=C(C)N(N=N1)C1=CC=C(C)C=C1", 
	 "Tm": 385.15, 
	 "num_atms": 29, 
	 "gaussian": { 
		 "optdone": 1, 
		 "sigma_profile": "yes", 
		 "theory": "DFT", 
		 "functional": "B3LYP", 
		 "basiset": "6-31G**", 
		 "properties": { 
			 "R2extent": 4801.9933, 
			 "electric_dipole_moment_norm": 8.21793846229, 
			 "electric_quadrupole_moment_norm": 20.449710305, 
			 "total_energy": -704.559445013, 
			 "HOMO_LUMO_gap": 0.1974, 
			 "cosmo_polarized_energy": -20.77, 
			 "cosmo_cavitation_energy": 33.05, 
			 "cosmo_dispersion_energy": -23.59, 
			 "cosmo_repulsion_energy": 1.82, 
			 "cosmo_total_nonelectrostatic_energy": 11.29, 
			 "SMD_solvation_energy": 5.08 
		},
		"coords": [
			{
				"x": 0.8811912927,
				"y": 3.0425040442,
				"z": 3.5197155564,
				"element": "C" 
			},
			{
				"x": 1.2842699412,
				"y": 3.2186392332,
				"z": 2.0631383275,
				"element": "C" 
			},
			{
				"x": 1.8870612731,
				"y": 4.2146604471,
				"z": 1.7035426261,
				"element": "O" 
			},
			{
				"x": 0.9311867156,
				"y": 2.1521371693,
				"z": 1.0898192869,
				"element": "C" 
			},
			{
				"x": 0.2342825459,
				"y": 0.9519598929,
				"z": 1.2341381167,
				"element": "C" 
			},
			{
				"x": -0.4768929541,
				"y": 0.3111873907,
				"z": 2.3845063613,
				"element": "C" 
			},
			{
				"x": 0.2637301978,
				"y": 0.4104297299,
				"z": -0.0173650684,
				"element": "N" 
			},
			{
				"x": 0.9321462216,
				"y": 1.2409000916,
				"z": -0.8883750009,
				"element": "N" 
			},
			{
				"x": 1.323788796,
				"y": 2.2696839146,
				"z": -0.2211987695,
				"element": "N" 
			},
			{
				"x": -0.2888347164,
				"y": -0.8068265064,
				"z": -0.5132307601,
				"element": "C" 
			},
			{
				"x": -1.0220214763,
				"y": -0.7787654405,
				"z": -1.7040748326,
				"element": "C" 
			},
			{
				"x": -1.546012529,
				"y": -1.9621226617,
				"z": -2.2137867526,
				"element": "C" 
			},
			{
				"x": -1.3621999213,
				"y": -3.1874072392,
				"z": -1.5541224018,
				"element": "C" 
			},
			{
				"x": -1.9291645964,
				"y": -4.4639964094,
				"z": -2.1276587266,
				"element": "C" 
			},
			{
				"x": -0.6222325048,
				"y": -3.1908361928,
				"z": -0.3660098631,
				"element": "C" 
			},
			{
				"x": -0.076164986,
				"y": -2.0158815373,
				"z": 0.1515806182,
				"element": "C" 
			},
			{
				"x": 1.2061247732,
				"y": 2.0768210733,
				"z": 3.9205398184,
				"element": "H" 
			},
			{
				"x": 1.3322335457,
				"y": 3.8494913681,
				"z": 4.0983497989,
				"element": "H" 
			},
			{
				"x": -0.2083545721,
				"y": 3.0976959886,
				"z": 3.6298097886,
				"element": "H" 
			},
			{
				"x": -0.9795250405,
				"y": 1.0623066454,
				"z": 2.9955483845,
				"element": "H" 
			},
			{
				"x": 0.2143978355,
				"y": -0.2341570868,
				"z": 3.0375486239,
				"element": "H" 
			},
			{
				"x": -1.2278133183,
				"y": -0.3982590274,
				"z": 2.0304698377,
				"element": "H" 
			},
			{
				"x": -1.165444126,
				"y": 0.1656242827,
				"z": -2.2165561104,
				"element": "H" 
			},
			{
				"x": -2.114711603,
				"y": -1.9332346171,
				"z": -3.1395617235,
				"element": "H" 
			},
			{
				"x": -1.3760379692,
				"y": -4.7742120438,
				"z": -3.0222747283,
				"element": "H" 
			},
			{
				"x": -2.9756790258,
				"y": -4.3378254323,
				"z": -2.4242932085,
				"element": "H" 
			},
			{
				"x": -1.8787730289,
				"y": -5.2844605687,
				"z": -1.4068952145,
				"element": "H" 
			},
			{
				"x": -0.4552503803,
				"y": -4.1277926517,
				"z": 0.1583037044,
				"element": "H" 
			},
			{
				"x": 0.52699961,
				"y": -2.0444638564,
				"z": 1.0527923113,
				"element": "H" 
			}
		],
		 "valence_orbital": [ 
			{
				"type": "occ",
				"energy": -0.27215,
				"method": "rhf"
			},
			{
				"type": "occ",
				"energy": -0.26778,
				"method": "rhf"
			},
			{
				"type": "occ",
				"energy": -0.26143,
				"method": "rhf"
			},
			{
				"type": "occ",
				"energy": -0.24721,
				"method": "rhf"
			},
			{
				"type": "occ",
				"energy": -0.24045,
				"method": "rhf"
			},
			{
				"type": "unocc",
				"energy": -0.04305,
				"method": "rhf"
			},
			{
				"type": "unocc",
				"energy": -0.02727,
				"method": "rhf"
			},
			{
				"type": "unocc",
				"energy": -0.02212,
				"method": "rhf"
			},
			{
				"type": "unocc",
				"energy": 0.00772,
				"method": "rhf"
			},
			{
				"type": "unocc",
				"energy": 0.06909,
				"method": "rhf"
			}
		],
		"cosmo_sigma_profile": { 
			"-0.025": 0.0,
			"-0.024": 0.0,
			"-0.023": 0.0,
			"-0.022": 0.0,
			"-0.021": 0.0,
			"-0.02": 0.0,
			"-0.019": 0.0,
			"-0.018": 0.0,
			"-0.017": 0.0,
			"-0.016": 0.0,
			"-0.015": 0.0,
			"-0.014": 0.0,
			"-0.013": 0.0,
			"-0.012": 0.0,
			"-0.011": 0.0,
			"-0.01": 0.0,
			"-0.009": 0.125780306113,
			"-0.008": 3.29492412775,
			"-0.007": 9.71469798375,
			"-0.006": 18.3270034438,
			"-0.005": 21.9225746569,
			"-0.004": 26.7860256943,
			"-0.003": 26.9345927818,
			"-0.002": 26.1982084594,
			"-0.001": 22.5192338743,
			"0.0": 16.6301087486,
			"0.001": 11.2628735863,
			"0.002": 10.4809909783,
			"0.003": 11.9446543904,
			"0.004": 11.702252198,
			"0.005": 3.81327955084,
			"0.006": 2.83858655303,
			"0.007": 3.75853614736,
			"0.008": 3.12868575469,
			"0.009": 4.71976183869,
			"0.01": 5.00371519617,
			"0.011": 5.02905779098,
			"0.012": 7.51997293504,
			"0.013": 4.09047040675,
			"0.014": 1.54225734638,
			"0.015": 2.24854442937,
			"0.016": 1.39200651892,
			"0.017": 0.335750446024,
			"0.018": 0.0,
			"0.019": 0.0,
			"0.02": 0.0,
			"0.021": 0.0,
			"0.022": 0.0,
			"0.023": 0.0,
			"0.024": 0.0,
			"0.025": 0.0
		}
	}
}
