{
	 "smiles": "NC(CC(N)=O)C(O)=O", 
	 "Tm": 507.15, 
	 "num_atms": 17, 
	 "gaussian": { 
		 "optdone": 1, 
		 "sigma_profile": "yes", 
		 "theory": "DFT", 
		 "functional": "B3LYP", 
		 "basiset": "6-31G**", 
		 "properties": { 
			 "R2extent": 2483.3591, 
			 "electric_dipole_moment_norm": 5.28391277275, 
			 "electric_quadrupole_moment_norm": 10.4821856461, 
			 "total_energy": -492.449383401, 
			 "HOMO_LUMO_gap": 0.2281, 
			 "cosmo_polarized_energy": -20.13, 
			 "cosmo_cavitation_energy": 21.25, 
			 "cosmo_dispersion_energy": -15.62, 
			 "cosmo_repulsion_energy": 1.33, 
			 "cosmo_total_nonelectrostatic_energy": 6.96, 
			 "SMD_solvation_energy": 4.29 
		},
		"coords": [
			{
				"x": -2.0318125493,
				"y": 2.7497133149,
				"z": 1.5022937242,
				"element": "N" 
			},
			{
				"x": -1.7483008833,
				"y": 1.8098714354,
				"z": 0.4349767111,
				"element": "C" 
			},
			{
				"x": -1.376960948,
				"y": 0.3591778454,
				"z": 0.8780596811,
				"element": "C" 
			},
			{
				"x": -0.081073765,
				"y": 0.3177145088,
				"z": 1.6842503674,
				"element": "C" 
			},
			{
				"x": 0.7410617191,
				"y": -0.7348848513,
				"z": 1.4095245625,
				"element": "N" 
			},
			{
				"x": 0.2060332223,
				"y": 1.1565055441,
				"z": 2.5321894204,
				"element": "O" 
			},
			{
				"x": -2.9724690892,
				"y": 1.7044807458,
				"z": -0.4635691678,
				"element": "C" 
			},
			{
				"x": -2.6477443468,
				"y": 1.3460342041,
				"z": -1.7283532591,
				"element": "O" 
			},
			{
				"x": -4.1161881942,
				"y": 1.8646912644,
				"z": -0.0997475104,
				"element": "O" 
			},
			{
				"x": -2.9463510311,
				"y": 2.5411558945,
				"z": 1.8955509634,
				"element": "H" 
			},
			{
				"x": -1.3256777084,
				"y": 2.6352167347,
				"z": 2.2253999141,
				"element": "H" 
			},
			{
				"x": -0.92012197,
				"y": 2.1908466953,
				"z": -0.1747273383,
				"element": "H" 
			},
			{
				"x": -1.3102204848,
				"y": -0.2963240836,
				"z": 0.0022083902,
				"element": "H" 
			},
			{
				"x": -2.1830808727,
				"y": -0.0249831702,
				"z": 1.5160078004,
				"element": "H" 
			},
			{
				"x": 0.5281234209,
				"y": -1.4229709966,
				"z": 0.7065674951,
				"element": "H" 
			},
			{
				"x": 1.5975578007,
				"y": -0.8188427073,
				"z": 1.9366453494,
				"element": "H" 
			},
			{
				"x": -3.4878743201,
				"y": 1.2619976214,
				"z": -2.2106771038,
				"element": "H" 
			}
		],
		 "valence_orbital": [ 
			{
				"type": "occ",
				"energy": -0.32411,
				"method": "rhf"
			},
			{
				"type": "occ",
				"energy": -0.28322,
				"method": "rhf"
			},
			{
				"type": "occ",
				"energy": -0.27933,
				"method": "rhf"
			},
			{
				"type": "occ",
				"energy": -0.26237,
				"method": "rhf"
			},
			{
				"type": "occ",
				"energy": -0.22691,
				"method": "rhf"
			},
			{
				"type": "unocc",
				"energy": 0.00119,
				"method": "rhf"
			},
			{
				"type": "unocc",
				"energy": 0.01904,
				"method": "rhf"
			},
			{
				"type": "unocc",
				"energy": 0.06117,
				"method": "rhf"
			},
			{
				"type": "unocc",
				"energy": 0.07313,
				"method": "rhf"
			},
			{
				"type": "unocc",
				"energy": 0.1109,
				"method": "rhf"
			}
		],
		"cosmo_sigma_profile": { 
			"-0.025": 0.0,
			"-0.024": 0.0,
			"-0.023": 0.0,
			"-0.022": 0.0,
			"-0.021": 0.0,
			"-0.02": 0.0,
			"-0.019": 0.034737165652,
			"-0.018": 0.991318173637,
			"-0.017": 0.993203645826,
			"-0.016": 0.838537176002,
			"-0.015": 0.687318974835,
			"-0.014": 3.45842956702,
			"-0.013": 3.7096268697,
			"-0.012": 2.92396789062,
			"-0.011": 3.50153243193,
			"-0.01": 2.98412207219,
			"-0.009": 3.25832342271,
			"-0.008": 3.78665532016,
			"-0.007": 4.58937103404,
			"-0.006": 8.17416063125,
			"-0.005": 10.4379078737,
			"-0.004": 11.0946730874,
			"-0.003": 10.0914809622,
			"-0.002": 7.53791295448,
			"-0.001": 5.85543513402,
			"0.0": 5.85133140489,
			"0.001": 6.27724604144,
			"0.002": 6.72217343779,
			"0.003": 7.7796889595,
			"0.004": 5.67267758481,
			"0.005": 4.4285432962,
			"0.006": 3.631006274,
			"0.007": 3.88977023903,
			"0.008": 6.14477345888,
			"0.009": 5.67357655676,
			"0.01": 4.52375595592,
			"0.011": 6.71678038924,
			"0.012": 4.25025279445,
			"0.013": 3.18898206071,
			"0.014": 3.42387316295,
			"0.015": 0.621033203573,
			"0.016": 0.91026878778,
			"0.017": 0.130304781707,
			"0.018": 0.840702790972,
			"0.019": 0.322173873028,
			"0.02": 0.0,
			"0.021": 0.0,
			"0.022": 0.0,
			"0.023": 0.0,
			"0.024": 0.0,
			"0.025": 0.0
		}
	}
}
