{
	 "smiles": "CC1=CC=CC=C1NC(=S)C(=N/NC(N)=N)C1=CC=CC=C1", 
	 "Tm": 479.15, 
	 "num_atms": 39, 
	 "gaussian": { 
		 "optdone": 1, 
		 "sigma_profile": "yes", 
		 "theory": "DFT", 
		 "functional": "B3LYP", 
		 "basiset": "6-31G**", 
		 "properties": { 
			 "R2extent": 8005.8486, 
			 "electric_dipole_moment_norm": 6.04708486545, 
			 "electric_quadrupole_moment_norm": 32.5950423551, 
			 "total_energy": -1291.87273102, 
			 "HOMO_LUMO_gap": 0.13794, 
			 "cosmo_polarized_energy": -22.61, 
			 "cosmo_cavitation_energy": 45.07, 
			 "cosmo_dispersion_energy": -29.43, 
			 "cosmo_repulsion_energy": 2.27, 
			 "cosmo_total_nonelectrostatic_energy": 17.9, 
			 "SMD_solvation_energy": 5.4 
		},
		"coords": [
			{
				"x": -0.3117836732,
				"y": -2.4181136337,
				"z": -3.6280666379,
				"element": "C" 
			},
			{
				"x": -0.7932554331,
				"y": -1.1159672296,
				"z": -3.0365229312,
				"element": "C" 
			},
			{
				"x": -2.1528020201,
				"y": -0.7875725767,
				"z": -3.0204209735,
				"element": "C" 
			},
			{
				"x": -2.6096113454,
				"y": 0.4028648686,
				"z": -2.4536810652,
				"element": "C" 
			},
			{
				"x": -1.6990181699,
				"y": 1.3020614935,
				"z": -1.8993689411,
				"element": "C" 
			},
			{
				"x": -0.3365217374,
				"y": 1.0101115313,
				"z": -1.9175767831,
				"element": "C" 
			},
			{
				"x": 0.1098430839,
				"y": -0.1964630372,
				"z": -2.4674043838,
				"element": "C" 
			},
			{
				"x": 1.5047563162,
				"y": -0.493107859,
				"z": -2.515749946,
				"element": "N" 
			},
			{
				"x": 2.4387936959,
				"y": -0.3634335736,
				"z": -1.5460312256,
				"element": "C" 
			},
			{
				"x": 4.0680713492,
				"y": -0.5428587372,
				"z": -1.8700470468,
				"element": "S" 
			},
			{
				"x": 1.9406705347,
				"y": -0.1133407425,
				"z": -0.1477288252,
				"element": "C" 
			},
			{
				"x": 2.1375492041,
				"y": 0.9923356983,
				"z": 0.4954633793,
				"element": "N" 
			},
			{
				"x": 2.7522681773,
				"y": 2.033411567,
				"z": -0.0902017735,
				"element": "N" 
			},
			{
				"x": 3.0732117462,
				"y": 3.1792310483,
				"z": 0.6563441633,
				"element": "C" 
			},
			{
				"x": 2.6755701233,
				"y": 3.1256259725,
				"z": 1.9736291896,
				"element": "N" 
			},
			{
				"x": 3.7063146522,
				"y": 4.1026034324,
				"z": 0.0314390426,
				"element": "N" 
			},
			{
				"x": 1.2194453316,
				"y": -1.2115259101,
				"z": 0.5389676931,
				"element": "C" 
			},
			{
				"x": 1.4102659371,
				"y": -2.5491290688,
				"z": 0.1534254766,
				"element": "C" 
			},
			{
				"x": 0.7428757438,
				"y": -3.5809449265,
				"z": 0.8137167146,
				"element": "C" 
			},
			{
				"x": -0.1256760732,
				"y": -3.2966397667,
				"z": 1.8677900038,
				"element": "C" 
			},
			{
				"x": -0.3216039887,
				"y": -1.9688214095,
				"z": 2.258808232,
				"element": "C" 
			},
			{
				"x": 0.340473708,
				"y": -0.936524471,
				"z": 1.6011895418,
				"element": "C" 
			},
			{
				"x": 0.2837346978,
				"y": -2.9852994553,
				"z": -2.9048362601,
				"element": "H" 
			},
			{
				"x": 0.3162067242,
				"y": -2.263832753,
				"z": -4.5156376831,
				"element": "H" 
			},
			{
				"x": -1.1564072251,
				"y": -3.0393372517,
				"z": -3.9351433268,
				"element": "H" 
			},
			{
				"x": -2.8642631123,
				"y": -1.4867778959,
				"z": -3.4515813855,
				"element": "H" 
			},
			{
				"x": -3.6718922777,
				"y": 0.6278650717,
				"z": -2.4508312364,
				"element": "H" 
			},
			{
				"x": -2.041834597,
				"y": 2.238347332,
				"z": -1.4698756607,
				"element": "H" 
			},
			{
				"x": 0.3828278473,
				"y": 1.7221533947,
				"z": -1.5273560052,
				"element": "H" 
			},
			{
				"x": 1.8857365976,
				"y": -0.7828000696,
				"z": -3.4116078166,
				"element": "H" 
			},
			{
				"x": 3.2952237671,
				"y": 1.9155960094,
				"z": -0.942977799,
				"element": "H" 
			},
			{
				"x": 2.5317327706,
				"y": 4.0072502897,
				"z": 2.438827692,
				"element": "H" 
			},
			{
				"x": 2.0525308628,
				"y": 2.3693837753,
				"z": 2.2201725719,
				"element": "H" 
			},
			{
				"x": 3.9274935001,
				"y": 4.879176587,
				"z": 0.6531075924,
				"element": "H" 
			},
			{
				"x": 2.1062408518,
				"y": -2.7856330937,
				"z": -0.6456444628,
				"element": "H" 
			},
			{
				"x": 0.9111677253,
				"y": -4.6097083653,
				"z": 0.5081616308,
				"element": "H" 
			},
			{
				"x": -0.6462595053,
				"y": -4.1002855357,
				"z": 2.3803395856,
				"element": "H" 
			},
			{
				"x": -1.0010127117,
				"y": -1.7369257258,
				"z": 3.0742683082,
				"element": "H" 
			},
			{
				"x": 0.1779369219,
				"y": 0.0947250166,
				"z": 1.8944413515,
				"element": "H" 
			}
		],
		 "valence_orbital": [ 
			{
				"type": "occ",
				"energy": -0.25393,
				"method": "rhf"
			},
			{
				"type": "occ",
				"energy": -0.24213,
				"method": "rhf"
			},
			{
				"type": "occ",
				"energy": -0.23048,
				"method": "rhf"
			},
			{
				"type": "occ",
				"energy": -0.22111,
				"method": "rhf"
			},
			{
				"type": "occ",
				"energy": -0.20402,
				"method": "rhf"
			},
			{
				"type": "unocc",
				"energy": -0.06608,
				"method": "rhf"
			},
			{
				"type": "unocc",
				"energy": -0.03813,
				"method": "rhf"
			},
			{
				"type": "unocc",
				"energy": -0.01409,
				"method": "rhf"
			},
			{
				"type": "unocc",
				"energy": -0.00839,
				"method": "rhf"
			},
			{
				"type": "unocc",
				"energy": -0.00356,
				"method": "rhf"
			}
		],
		"cosmo_sigma_profile": { 
			"-0.025": 0.0,
			"-0.024": 0.0,
			"-0.023": 0.0,
			"-0.022": 0.0,
			"-0.021": 0.0,
			"-0.02": 0.0,
			"-0.019": 0.0,
			"-0.018": 0.0,
			"-0.017": 0.0,
			"-0.016": 0.0,
			"-0.015": 0.197204332273,
			"-0.014": 1.88896868187,
			"-0.013": 2.90215349682,
			"-0.012": 2.97587730231,
			"-0.011": 3.51467258024,
			"-0.01": 4.47958805426,
			"-0.009": 5.01697324885,
			"-0.008": 4.97416084578,
			"-0.007": 4.68383435941,
			"-0.006": 16.1024521664,
			"-0.005": 24.9500740829,
			"-0.004": 29.3086327221,
			"-0.003": 26.3233326395,
			"-0.002": 24.0212080089,
			"-0.001": 23.0988675807,
			"0.0": 22.4464840899,
			"0.001": 21.6650462108,
			"0.002": 22.7679603388,
			"0.003": 25.0066430459,
			"0.004": 28.1399788398,
			"0.005": 23.3096646358,
			"0.006": 8.90003606915,
			"0.007": 6.69204990245,
			"0.008": 5.99597913004,
			"0.009": 5.65913357557,
			"0.01": 4.23521060987,
			"0.011": 3.21074202231,
			"0.012": 1.38358381128,
			"0.013": 1.35805437668,
			"0.014": 1.17481346362,
			"0.015": 0.853513197059,
			"0.016": 1.72909625124,
			"0.017": 0.829768953646,
			"0.018": 1.36339118855,
			"0.019": 0.472892984296,
			"0.02": 0.0,
			"0.021": 0.0,
			"0.022": 0.0,
			"0.023": 0.0,
			"0.024": 0.0,
			"0.025": 0.0
		}
	}
}
