{
	 "smiles": "NC1=C(F)C=C(Cl)C=C1F", 
	 "Tm": 318.15, 
	 "num_atms": 14, 
	 "gaussian": { 
		 "optdone": 1, 
		 "sigma_profile": "yes", 
		 "theory": "DFT", 
		 "functional": "B3LYP", 
		 "basiset": "6-31G**", 
		 "properties": { 
			 "R2extent": 2857.9522, 
			 "electric_dipole_moment_norm": 2.27865638261, 
			 "electric_quadrupole_moment_norm": 5.39843865576, 
			 "total_energy": -945.659784899, 
			 "HOMO_LUMO_gap": 0.20529, 
			 "cosmo_polarized_energy": -6.29, 
			 "cosmo_cavitation_energy": 21.09, 
			 "cosmo_dispersion_energy": -15.76, 
			 "cosmo_repulsion_energy": 1.24, 
			 "cosmo_total_nonelectrostatic_energy": 6.58, 
			 "SMD_solvation_energy": 4.23 
		},
		"coords": [
			{
				"x": -0.3373917253,
				"y": 0.2790188072,
				"z": 1.3070170356,
				"element": "N" 
			},
			{
				"x": -0.2042749006,
				"y": -0.7382013822,
				"z": 0.3741651478,
				"element": "C" 
			},
			{
				"x": 0.9048610904,
				"y": -1.5926507247,
				"z": 0.3528455272,
				"element": "C" 
			},
			{
				"x": 1.8162723131,
				"y": -1.4352722873,
				"z": 1.3429023865,
				"element": "F" 
			},
			{
				"x": 1.0968239493,
				"y": -2.5765021024,
				"z": -0.6052343235,
				"element": "C" 
			},
			{
				"x": 0.1322485163,
				"y": -2.7222648696,
				"z": -1.6023639754,
				"element": "C" 
			},
			{
				"x": 0.3428949479,
				"y": -3.9552728645,
				"z": -2.8338338595,
				"element": "Cl" 
			},
			{
				"x": -0.9997321065,
				"y": -1.907660802,
				"z": -1.6335947973,
				"element": "C" 
			},
			{
				"x": -1.138198168,
				"y": -0.9408694758,
				"z": -0.6492979432,
				"element": "C" 
			},
			{
				"x": -2.2334134932,
				"y": -0.1432895044,
				"z": -0.6434709727,
				"element": "F" 
			},
			{
				"x": 0.1761848713,
				"y": 0.1324836642,
				"z": 2.1643823547,
				"element": "H" 
			},
			{
				"x": -1.2852540471,
				"y": 0.5985976607,
				"z": 1.4475047836,
				"element": "H" 
			},
			{
				"x": 1.9770830472,
				"y": -3.2056152093,
				"z": -0.5632163449,
				"element": "H" 
			},
			{
				"x": -1.7607042949,
				"y": -2.0132009099,
				"z": -2.3966050189,
				"element": "H" 
			}
		],
		 "valence_orbital": [ 
			{
				"type": "occ",
				"energy": -0.3595,
				"method": "rhf"
			},
			{
				"type": "occ",
				"energy": -0.31659,
				"method": "rhf"
			},
			{
				"type": "occ",
				"energy": -0.30339,
				"method": "rhf"
			},
			{
				"type": "occ",
				"energy": -0.25813,
				"method": "rhf"
			},
			{
				"type": "occ",
				"energy": -0.21521,
				"method": "rhf"
			},
			{
				"type": "unocc",
				"energy": -0.00992,
				"method": "rhf"
			},
			{
				"type": "unocc",
				"energy": -0.00667,
				"method": "rhf"
			},
			{
				"type": "unocc",
				"energy": 0.01753,
				"method": "rhf"
			},
			{
				"type": "unocc",
				"energy": 0.07129,
				"method": "rhf"
			},
			{
				"type": "unocc",
				"energy": 0.12801,
				"method": "rhf"
			}
		],
		"cosmo_sigma_profile": { 
			"-0.025": 0.0,
			"-0.024": 0.0,
			"-0.023": 0.0,
			"-0.022": 0.0,
			"-0.021": 0.0,
			"-0.02": 0.0,
			"-0.019": 0.0,
			"-0.018": 0.0,
			"-0.017": 0.0,
			"-0.016": 0.0,
			"-0.015": 0.0,
			"-0.014": 0.0237030541057,
			"-0.013": 1.24144972882,
			"-0.012": 1.85379871024,
			"-0.011": 2.17473511652,
			"-0.01": 2.44293205593,
			"-0.009": 2.73198575202,
			"-0.008": 4.86064493054,
			"-0.007": 4.3611961298,
			"-0.006": 5.15810441733,
			"-0.005": 5.17516814921,
			"-0.004": 5.37053502385,
			"-0.003": 5.2625099468,
			"-0.002": 6.55002069305,
			"-0.001": 9.40119039758,
			"0.0": 17.6948504392,
			"0.001": 21.4421230478,
			"0.002": 22.089328456,
			"0.003": 20.1996557848,
			"0.004": 21.7083437939,
			"0.005": 6.93390996681,
			"0.006": 0.992461226163,
			"0.007": 0.819456305678,
			"0.008": 0.445214389698,
			"0.009": 0.890848101032,
			"0.01": 0.35432903821,
			"0.011": 0.598151005479,
			"0.012": 0.724757551228,
			"0.013": 0.311382936216,
			"0.014": 0.0,
			"0.015": 0.0,
			"0.016": 0.0,
			"0.017": 0.0,
			"0.018": 0.0,
			"0.019": 0.0,
			"0.02": 0.0,
			"0.021": 0.0,
			"0.022": 0.0,
			"0.023": 0.0,
			"0.024": 0.0,
			"0.025": 0.0
		}
	}
}
