{
	 "smiles": "ClC(=C)C=C", 
	 "Tm": 143.15, 
	 "num_atms": 10, 
	 "gaussian": { 
		 "optdone": 1, 
		 "sigma_profile": "yes", 
		 "theory": "DFT", 
		 "functional": "B3LYP", 
		 "basiset": "6-31G**", 
		 "properties": { 
			 "R2extent": 1245.4322, 
			 "electric_dipole_moment_norm": 1.83185790661, 
			 "electric_quadrupole_moment_norm": 5.23364314125, 
			 "total_energy": -615.585001844, 
			 "HOMO_LUMO_gap": 0.20655, 
			 "cosmo_polarized_energy": -3.24, 
			 "cosmo_cavitation_energy": 15.98, 
			 "cosmo_dispersion_energy": -11.45, 
			 "cosmo_repulsion_energy": 1.0, 
			 "cosmo_total_nonelectrostatic_energy": 5.53, 
			 "SMD_solvation_energy": 3.98 
		},
		"coords": [
			{
				"x": -1.715300424,
				"y": -0.684694346,
				"z": 2.8381271112,
				"element": "Cl" 
			},
			{
				"x": -0.5460254948,
				"y": -0.633048591,
				"z": 1.5052888578,
				"element": "C" 
			},
			{
				"x": -0.8283467758,
				"y": 0.0776895457,
				"z": 0.4107310058,
				"element": "C" 
			},
			{
				"x": 0.6781699691,
				"y": -1.4053948121,
				"z": 1.7616898826,
				"element": "C" 
			},
			{
				"x": 1.3498981528,
				"y": -2.0778169975,
				"z": 0.8209803276,
				"element": "C" 
			},
			{
				"x": -0.0918733845,
				"y": 0.1533485848,
				"z": -0.3821019467,
				"element": "H" 
			},
			{
				"x": -1.7701577313,
				"y": 0.5981263908,
				"z": 0.2875092564,
				"element": "H" 
			},
			{
				"x": 1.0237657814,
				"y": -1.4192443724,
				"z": 2.7929852403,
				"element": "H" 
			},
			{
				"x": 2.2687380472,
				"y": -2.6044858861,
				"z": 1.0579267096,
				"element": "H" 
			},
			{
				"x": 1.00083186,
				"y": -2.1295795164,
				"z": -0.2060364446,
				"element": "H" 
			}
		],
		 "valence_orbital": [ 
			{
				"type": "occ",
				"energy": -0.37139,
				"method": "rhf"
			},
			{
				"type": "occ",
				"energy": -0.36244,
				"method": "rhf"
			},
			{
				"type": "occ",
				"energy": -0.31276,
				"method": "rhf"
			},
			{
				"type": "occ",
				"energy": -0.29209,
				"method": "rhf"
			},
			{
				"type": "occ",
				"energy": -0.24518,
				"method": "rhf"
			},
			{
				"type": "unocc",
				"energy": -0.03863,
				"method": "rhf"
			},
			{
				"type": "unocc",
				"energy": 0.02445,
				"method": "rhf"
			},
			{
				"type": "unocc",
				"energy": 0.06156,
				"method": "rhf"
			},
			{
				"type": "unocc",
				"energy": 0.11316,
				"method": "rhf"
			},
			{
				"type": "unocc",
				"energy": 0.13304,
				"method": "rhf"
			}
		],
		"cosmo_sigma_profile": { 
			"-0.025": 0.0,
			"-0.024": 0.0,
			"-0.023": 0.0,
			"-0.022": 0.0,
			"-0.021": 0.0,
			"-0.02": 0.0,
			"-0.019": 0.0,
			"-0.018": 0.0,
			"-0.017": 0.0,
			"-0.016": 0.0,
			"-0.015": 0.0,
			"-0.014": 0.0,
			"-0.013": 0.0,
			"-0.012": 0.0,
			"-0.011": 0.0,
			"-0.01": 0.0,
			"-0.009": 0.0,
			"-0.008": 0.020801776404,
			"-0.007": 2.75974865607,
			"-0.006": 8.01664425512,
			"-0.005": 9.34052888412,
			"-0.004": 8.97151835275,
			"-0.003": 8.70273473424,
			"-0.002": 9.6987681175,
			"-0.001": 9.28243154102,
			"0.0": 9.12158082428,
			"0.001": 9.09610382721,
			"0.002": 13.2795633231,
			"0.003": 13.8606430442,
			"0.004": 14.6926258408,
			"0.005": 11.6203366879,
			"0.006": 1.54171516726,
			"0.007": 0.0,
			"0.008": 0.0,
			"0.009": 0.0,
			"0.01": 0.0,
			"0.011": 0.0,
			"0.012": 0.0,
			"0.013": 0.0,
			"0.014": 0.0,
			"0.015": 0.0,
			"0.016": 0.0,
			"0.017": 0.0,
			"0.018": 0.0,
			"0.019": 0.0,
			"0.02": 0.0,
			"0.021": 0.0,
			"0.022": 0.0,
			"0.023": 0.0,
			"0.024": 0.0,
			"0.025": 0.0
		}
	}
}
