{
	 "smiles": "O=C1NN=C(C=C1)S(=O)(=O)C1=CC=CC=C1", 
	 "Tm": 456.15, 
	 "num_atms": 24, 
	 "gaussian": { 
		 "optdone": 1, 
		 "sigma_profile": "yes", 
		 "theory": "DFT", 
		 "functional": "B3LYP", 
		 "basiset": "6-31G**", 
		 "properties": { 
			 "R2extent": 4464.2624, 
			 "electric_dipole_moment_norm": 4.28564122857, 
			 "electric_quadrupole_moment_norm": 24.0801060388, 
			 "total_energy": -1119.14385443, 
			 "HOMO_LUMO_gap": 0.17009, 
			 "cosmo_polarized_energy": -19.09, 
			 "cosmo_cavitation_energy": 30.86, 
			 "cosmo_dispersion_energy": -22.68, 
			 "cosmo_repulsion_energy": 1.73, 
			 "cosmo_total_nonelectrostatic_energy": 9.91, 
			 "SMD_solvation_energy": 4.9 
		},
		"coords": [
			{
				"x": -1.3620406247,
				"y": 1.9557270958,
				"z": 3.258335124,
				"element": "O" 
			},
			{
				"x": -0.731926682,
				"y": 1.7922227024,
				"z": 2.2251393268,
				"element": "C" 
			},
			{
				"x": 0.0603684762,
				"y": 0.6335394566,
				"z": 2.0522110769,
				"element": "N" 
			},
			{
				"x": 0.8090143571,
				"y": 0.2955037254,
				"z": 1.0043557422,
				"element": "N" 
			},
			{
				"x": 0.8097998055,
				"y": 1.1268070115,
				"z": 0.0028016719,
				"element": "C" 
			},
			{
				"x": 0.0709449008,
				"y": 2.3525015361,
				"z": -0.0200235675,
				"element": "C" 
			},
			{
				"x": -0.6786261809,
				"y": 2.6761729261,
				"z": 1.066651034,
				"element": "C" 
			},
			{
				"x": 1.8683451301,
				"y": 0.6712743801,
				"z": -1.4041291992,
				"element": "S" 
			},
			{
				"x": 3.2199196358,
				"y": 0.417669233,
				"z": -0.8932712028,
				"element": "O" 
			},
			{
				"x": 1.6052476062,
				"y": 1.7045866119,
				"z": -2.4201185265,
				"element": "O" 
			},
			{
				"x": 1.1873112051,
				"y": -0.8825682688,
				"z": -1.989679888,
				"element": "C" 
			},
			{
				"x": 1.6379260519,
				"y": -2.077604757,
				"z": -1.4241816321,
				"element": "C" 
			},
			{
				"x": 1.1084493021,
				"y": -3.2803414202,
				"z": -1.8907237689,
				"element": "C" 
			},
			{
				"x": 0.1491632439,
				"y": -3.2773705934,
				"z": -2.9071809292,
				"element": "C" 
			},
			{
				"x": -0.2839936843,
				"y": -2.0736473385,
				"z": -3.4683979937,
				"element": "C" 
			},
			{
				"x": 0.2349295611,
				"y": -0.8622225552,
				"z": -3.0105499129,
				"element": "C" 
			},
			{
				"x": 0.0697549373,
				"y": -0.0229763215,
				"z": 2.825785295,
				"element": "H" 
			},
			{
				"x": 0.1346111056,
				"y": 2.9846445597,
				"z": -0.8987057604,
				"element": "H" 
			},
			{
				"x": -1.2607184771,
				"y": 3.5891686919,
				"z": 1.1228012859,
				"element": "H" 
			},
			{
				"x": 2.3952174385,
				"y": -2.0561848217,
				"z": -0.6487215168,
				"element": "H" 
			},
			{
				"x": 1.4492275232,
				"y": -4.2194707478,
				"z": -1.4657322454,
				"element": "H" 
			},
			{
				"x": -0.2571787995,
				"y": -4.2177228532,
				"z": -3.2679262926,
				"element": "H" 
			},
			{
				"x": -1.0202593876,
				"y": -2.0773469596,
				"z": -4.2662738618,
				"element": "H" 
			},
			{
				"x": -0.0715864444,
				"y": 0.0836387065,
				"z": -3.4437642588,
				"element": "H" 
			}
		],
		 "valence_orbital": [ 
			{
				"type": "occ",
				"energy": -0.30141,
				"method": "rhf"
			},
			{
				"type": "occ",
				"energy": -0.28453,
				"method": "rhf"
			},
			{
				"type": "occ",
				"energy": -0.27707,
				"method": "rhf"
			},
			{
				"type": "occ",
				"energy": -0.27009,
				"method": "rhf"
			},
			{
				"type": "occ",
				"energy": -0.25862,
				"method": "rhf"
			},
			{
				"type": "unocc",
				"energy": -0.08853,
				"method": "rhf"
			},
			{
				"type": "unocc",
				"energy": -0.05285,
				"method": "rhf"
			},
			{
				"type": "unocc",
				"energy": -0.02806,
				"method": "rhf"
			},
			{
				"type": "unocc",
				"energy": -0.02265,
				"method": "rhf"
			},
			{
				"type": "unocc",
				"energy": 0.04677,
				"method": "rhf"
			}
		],
		"cosmo_sigma_profile": { 
			"-0.025": 0.0,
			"-0.024": 0.0,
			"-0.023": 0.0,
			"-0.022": 0.0,
			"-0.021": 0.0,
			"-0.02": 0.0,
			"-0.019": 0.0,
			"-0.018": 0.0,
			"-0.017": 1.12209987205,
			"-0.016": 1.17521656675,
			"-0.015": 1.30679041682,
			"-0.014": 0.719366507406,
			"-0.013": 0.708164994993,
			"-0.012": 1.15973860953,
			"-0.011": 0.651473678979,
			"-0.01": 0.73468731281,
			"-0.009": 3.77744431073,
			"-0.008": 5.16216831969,
			"-0.007": 12.9760734437,
			"-0.006": 17.350714502,
			"-0.005": 17.4421048393,
			"-0.004": 16.6135864375,
			"-0.003": 17.441693018,
			"-0.002": 16.1653233488,
			"-0.001": 14.0947211578,
			"0.0": 13.9481987523,
			"0.001": 12.7369383484,
			"0.002": 17.1903067651,
			"0.003": 15.7534354414,
			"0.004": 5.579792147,
			"0.005": 4.24805411758,
			"0.006": 4.96617030454,
			"0.007": 5.43608583869,
			"0.008": 4.79021212543,
			"0.009": 6.80020059731,
			"0.01": 8.4560714347,
			"0.011": 9.4544200928,
			"0.012": 5.74165190346,
			"0.013": 4.59087700916,
			"0.014": 0.49542030639,
			"0.015": 0.0,
			"0.016": 0.0,
			"0.017": 0.0,
			"0.018": 0.0,
			"0.019": 0.0,
			"0.02": 0.0,
			"0.021": 0.0,
			"0.022": 0.0,
			"0.023": 0.0,
			"0.024": 0.0,
			"0.025": 0.0
		}
	}
}
