{
	 "smiles": "ClC1=CC=C(C=C1)N1CCC(=O)CC1", 
	 "Tm": 328.15, 
	 "num_atms": 26, 
	 "gaussian": { 
		 "optdone": 1, 
		 "sigma_profile": "yes", 
		 "theory": "DFT", 
		 "functional": "B3LYP", 
		 "basiset": "6-31G**", 
		 "properties": { 
			 "R2extent": 4640.3736, 
			 "electric_dipole_moment_norm": 1.58651705002, 
			 "electric_quadrupole_moment_norm": 21.9284402364, 
			 "total_energy": -1016.56290069, 
			 "HOMO_LUMO_gap": 0.18143, 
			 "cosmo_polarized_energy": -12.0, 
			 "cosmo_cavitation_energy": 30.0, 
			 "cosmo_dispersion_energy": -22.12, 
			 "cosmo_repulsion_energy": 1.73, 
			 "cosmo_total_nonelectrostatic_energy": 9.6, 
			 "SMD_solvation_energy": 3.68 
		},
		"coords": [
			{
				"x": -4.0026577015,
				"y": 1.540591523,
				"z": 3.3346281198,
				"element": "Cl" 
			},
			{
				"x": -2.6065348881,
				"y": 0.7587513717,
				"z": 2.603603356,
				"element": "C" 
			},
			{
				"x": -2.7024228548,
				"y": -0.5491193483,
				"z": 2.1403586024,
				"element": "C" 
			},
			{
				"x": -1.5971669291,
				"y": -1.163297842,
				"z": 1.5522243294,
				"element": "C" 
			},
			{
				"x": -0.3635746714,
				"y": -0.4922156788,
				"z": 1.4240095856,
				"element": "C" 
			},
			{
				"x": -0.2971088613,
				"y": 0.8299858319,
				"z": 1.9148713875,
				"element": "C" 
			},
			{
				"x": -1.4007960214,
				"y": 1.4497295829,
				"z": 2.490388402,
				"element": "C" 
			},
			{
				"x": 0.7811593424,
				"y": -1.1137781036,
				"z": 0.889730833,
				"element": "N" 
			},
			{
				"x": 0.7166723647,
				"y": -2.5000184037,
				"z": 0.4400475795,
				"element": "C" 
			},
			{
				"x": 0.2080425831,
				"y": -2.6321538203,
				"z": -1.0180895579,
				"element": "C" 
			},
			{
				"x": 1.0146946898,
				"y": -1.738178954,
				"z": -1.9511979116,
				"element": "C" 
			},
			{
				"x": 1.4455882106,
				"y": -2.125879201,
				"z": -3.0201305414,
				"element": "O" 
			},
			{
				"x": 1.2550870791,
				"y": -0.3274853043,
				"z": -1.4310073062,
				"element": "C" 
			},
			{
				"x": 1.7022035369,
				"y": -0.3434447224,
				"z": 0.0532213185,
				"element": "C" 
			},
			{
				"x": -3.6394320844,
				"y": -1.0890378181,
				"z": 2.2242306354,
				"element": "H" 
			},
			{
				"x": -1.7180988642,
				"y": -2.1756945966,
				"z": 1.1870646393,
				"element": "H" 
			},
			{
				"x": 0.6359498256,
				"y": 1.380274661,
				"z": 1.8788130712,
				"element": "H" 
			},
			{
				"x": -1.3189692184,
				"y": 2.4649348505,
				"z": 2.8634246497,
				"element": "H" 
			},
			{
				"x": 1.7318210859,
				"y": -2.911559149,
				"z": 0.5008417203,
				"element": "H" 
			},
			{
				"x": 0.1053622893,
				"y": -3.0881918638,
				"z": 1.1267115541,
				"element": "H" 
			},
			{
				"x": 0.2658740044,
				"y": -3.6631977888,
				"z": -1.3777734501,
				"element": "H" 
			},
			{
				"x": -0.8414544655,
				"y": -2.3113776365,
				"z": -1.0619368052,
				"element": "H" 
			},
			{
				"x": 1.9923417289,
				"y": 0.1648448845,
				"z": -2.0712403876,
				"element": "H" 
			},
			{
				"x": 0.3119760434,
				"y": 0.2319592042,
				"z": -1.4996844523,
				"element": "H" 
			},
			{
				"x": 2.6953481091,
				"y": -0.8018490174,
				"z": 0.1330065137,
				"element": "H" 
			},
			{
				"x": 1.798495667,
				"y": 0.6767073391,
				"z": 0.4225841148,
				"element": "H" 
			}
		],
		 "valence_orbital": [ 
			{
				"type": "occ",
				"energy": -0.30881,
				"method": "rhf"
			},
			{
				"type": "occ",
				"energy": -0.2808,
				"method": "rhf"
			},
			{
				"type": "occ",
				"energy": -0.26452,
				"method": "rhf"
			},
			{
				"type": "occ",
				"energy": -0.24695,
				"method": "rhf"
			},
			{
				"type": "occ",
				"energy": -0.20521,
				"method": "rhf"
			},
			{
				"type": "unocc",
				"energy": -0.02378,
				"method": "rhf"
			},
			{
				"type": "unocc",
				"energy": -0.01615,
				"method": "rhf"
			},
			{
				"type": "unocc",
				"energy": -0.00192,
				"method": "rhf"
			},
			{
				"type": "unocc",
				"energy": 0.03237,
				"method": "rhf"
			},
			{
				"type": "unocc",
				"energy": 0.08614,
				"method": "rhf"
			}
		],
		"cosmo_sigma_profile": { 
			"-0.025": 0.0,
			"-0.024": 0.0,
			"-0.023": 0.0,
			"-0.022": 0.0,
			"-0.021": 0.0,
			"-0.02": 0.0,
			"-0.019": 0.0,
			"-0.018": 0.0,
			"-0.017": 0.0,
			"-0.016": 0.0,
			"-0.015": 0.0,
			"-0.014": 0.0,
			"-0.013": 0.0,
			"-0.012": 0.0,
			"-0.011": 0.0,
			"-0.01": 0.0,
			"-0.009": 0.0571292027701,
			"-0.008": 2.5203592087,
			"-0.007": 7.93477533012,
			"-0.006": 17.1245453737,
			"-0.005": 24.2242422691,
			"-0.004": 23.0211861985,
			"-0.003": 22.3505579608,
			"-0.002": 16.3800017918,
			"-0.001": 12.6204947795,
			"0.0": 10.5709036779,
			"0.001": 9.75314312872,
			"0.002": 12.9102842483,
			"0.003": 15.1734228004,
			"0.004": 19.178459996,
			"0.005": 20.8461540964,
			"0.006": 5.71118851342,
			"0.007": 2.1665406856,
			"0.008": 1.64618705162,
			"0.009": 2.59181399129,
			"0.01": 1.99044048909,
			"0.011": 2.92359544655,
			"0.012": 4.75676525532,
			"0.013": 2.95288623973,
			"0.014": 0.454847355699,
			"0.015": 0.0,
			"0.016": 0.0,
			"0.017": 0.0,
			"0.018": 0.0,
			"0.019": 0.0,
			"0.02": 0.0,
			"0.021": 0.0,
			"0.022": 0.0,
			"0.023": 0.0,
			"0.024": 0.0,
			"0.025": 0.0
		}
	}
}
