{
	 "smiles": "CCCCCCCCOCCCCCCCC", 
	 "Tm": 265.55, 
	 "num_atms": 51, 
	 "gaussian": { 
		 "optdone": 1, 
		 "sigma_profile": "yes", 
		 "theory": "DFT", 
		 "functional": "B3LYP", 
		 "basiset": "6-31G**", 
		 "properties": { 
			 "R2extent": 8038.3519, 
			 "electric_dipole_moment_norm": 1.05699919584, 
			 "electric_quadrupole_moment_norm": 5.87200493188, 
			 "total_energy": -705.447951631, 
			 "HOMO_LUMO_gap": 0.3131, 
			 "cosmo_polarized_energy": -3.73, 
			 "cosmo_cavitation_energy": 49.32, 
			 "cosmo_dispersion_energy": -31.86, 
			 "cosmo_repulsion_energy": 2.61, 
			 "cosmo_total_nonelectrostatic_energy": 20.08, 
			 "SMD_solvation_energy": 6.72 
		},
		"coords": [
			{
				"x": 3.9443704365,
				"y": 1.0191669868,
				"z": 0.6689315326,
				"element": "C" 
			},
			{
				"x": 4.2181517126,
				"y": 0.3598061005,
				"z": -0.6865633043,
				"element": "C" 
			},
			{
				"x": 3.156239826,
				"y": -0.6739103787,
				"z": -1.0854921795,
				"element": "C" 
			},
			{
				"x": 3.4404862553,
				"y": -1.3374209408,
				"z": -2.4400431119,
				"element": "C" 
			},
			{
				"x": 2.3617461492,
				"y": -2.2981021785,
				"z": -2.9724803032,
				"element": "C" 
			},
			{
				"x": 2.1361091926,
				"y": -3.582597916,
				"z": -2.1415178436,
				"element": "C" 
			},
			{
				"x": 1.0717740872,
				"y": -3.5237525338,
				"z": -1.0283234001,
				"element": "C" 
			},
			{
				"x": -0.3821026299,
				"y": -3.4643721585,
				"z": -1.5192667274,
				"element": "C" 
			},
			{
				"x": -0.7723159698,
				"y": -2.2319163136,
				"z": -2.1142261476,
				"element": "O" 
			},
			{
				"x": -1.1222233972,
				"y": -1.2147283433,
				"z": -1.188253732,
				"element": "C" 
			},
			{
				"x": -1.6580239344,
				"y": -0.0217044796,
				"z": -1.9738684899,
				"element": "C" 
			},
			{
				"x": -2.0076444018,
				"y": 1.1963236294,
				"z": -1.1039913235,
				"element": "C" 
			},
			{
				"x": -3.1883573261,
				"y": 0.9786376256,
				"z": -0.1440425254,
				"element": "C" 
			},
			{
				"x": -3.6561424223,
				"y": 2.2521532251,
				"z": 0.5824758019,
				"element": "C" 
			},
			{
				"x": -2.623975702,
				"y": 2.9081292491,
				"z": 1.5191631205,
				"element": "C" 
			},
			{
				"x": -2.1274075844,
				"y": 2.0343753404,
				"z": 2.6845162479,
				"element": "C" 
			},
			{
				"x": -3.2227203547,
				"y": 1.6130706807,
				"z": 3.6713849713,
				"element": "C" 
			},
			{
				"x": 2.980251824,
				"y": 1.5408581971,
				"z": 0.6683449302,
				"element": "H" 
			},
			{
				"x": 3.9149915406,
				"y": 0.2750617745,
				"z": 1.4733415424,
				"element": "H" 
			},
			{
				"x": 4.717600995,
				"y": 1.7517672388,
				"z": 0.9230100172,
				"element": "H" 
			},
			{
				"x": 5.203764611,
				"y": -0.1252301465,
				"z": -0.6652188853,
				"element": "H" 
			},
			{
				"x": 4.2791984757,
				"y": 1.1329713701,
				"z": -1.4646743286,
				"element": "H" 
			},
			{
				"x": 3.0942109913,
				"y": -1.4371065019,
				"z": -0.2984038184,
				"element": "H" 
			},
			{
				"x": 2.1713221524,
				"y": -0.1854762018,
				"z": -1.117403775,
				"element": "H" 
			},
			{
				"x": 4.3980632644,
				"y": -1.8754257084,
				"z": -2.377470114,
				"element": "H" 
			},
			{
				"x": 3.591748099,
				"y": -0.5458706172,
				"z": -3.187550978,
				"element": "H" 
			},
			{
				"x": 1.4090142311,
				"y": -1.7709145074,
				"z": -3.0882830063,
				"element": "H" 
			},
			{
				"x": 2.6677993785,
				"y": -2.5964099982,
				"z": -3.9834017088,
				"element": "H" 
			},
			{
				"x": 1.8506240211,
				"y": -4.3966794435,
				"z": -2.8220105618,
				"element": "H" 
			},
			{
				"x": 3.0928856418,
				"y": -3.8933516599,
				"z": -1.6988567566,
				"element": "H" 
			},
			{
				"x": 1.2622193582,
				"y": -2.6893965112,
				"z": -0.3441843936,
				"element": "H" 
			},
			{
				"x": 1.1594346112,
				"y": -4.4349154784,
				"z": -0.4199500398,
				"element": "H" 
			},
			{
				"x": -0.5378395847,
				"y": -4.2272346157,
				"z": -2.2921084459,
				"element": "H" 
			},
			{
				"x": -1.0620873068,
				"y": -3.700246937,
				"z": -0.6839639343,
				"element": "H" 
			},
			{
				"x": -0.2517228328,
				"y": -0.9047386202,
				"z": -0.58621025,
				"element": "H" 
			},
			{
				"x": -1.8801940715,
				"y": -1.5992989315,
				"z": -0.4861181426,
				"element": "H" 
			},
			{
				"x": -2.5384954497,
				"y": -0.3452505717,
				"z": -2.543287164,
				"element": "H" 
			},
			{
				"x": -0.8981093424,
				"y": 0.2618460221,
				"z": -2.7119191049,
				"element": "H" 
			},
			{
				"x": -2.2464810774,
				"y": 2.0379807491,
				"z": -1.7678996183,
				"element": "H" 
			},
			{
				"x": -1.1164806491,
				"y": 1.5028321783,
				"z": -0.5398199437,
				"element": "H" 
			},
			{
				"x": -2.9352964839,
				"y": 0.2065984379,
				"z": 0.5937192199,
				"element": "H" 
			},
			{
				"x": -4.035430613,
				"y": 0.5765653786,
				"z": -0.7167839966,
				"element": "H" 
			},
			{
				"x": -3.9589703523,
				"y": 2.9939417969,
				"z": -0.1693270645,
				"element": "H" 
			},
			{
				"x": -4.5649762691,
				"y": 2.0179671422,
				"z": 1.1510564987,
				"element": "H" 
			},
			{
				"x": -1.7574644075,
				"y": 3.2381953611,
				"z": 0.9321637481,
				"element": "H" 
			},
			{
				"x": -3.0692071923,
				"y": 3.8236350457,
				"z": 1.9325323944,
				"element": "H" 
			},
			{
				"x": -1.6259465834,
				"y": 1.1396201553,
				"z": 2.2930082507,
				"element": "H" 
			},
			{
				"x": -1.3544578638,
				"y": 2.5932386159,
				"z": 3.2275401351,
				"element": "H" 
			},
			{
				"x": -3.740092324,
				"y": 2.4875578547,
				"z": 4.0833544216,
				"element": "H" 
			},
			{
				"x": -3.9778650951,
				"y": 0.9767338952,
				"z": 3.1981883999,
				"element": "H" 
			},
			{
				"x": -2.8015756333,
				"y": 1.0509176422,
				"z": 4.5114838871,
				"element": "H" 
			}
		],
		 "valence_orbital": [ 
			{
				"type": "occ",
				"energy": -0.30474,
				"method": "rhf"
			},
			{
				"type": "occ",
				"energy": -0.30309,
				"method": "rhf"
			},
			{
				"type": "occ",
				"energy": -0.29806,
				"method": "rhf"
			},
			{
				"type": "occ",
				"energy": -0.29174,
				"method": "rhf"
			},
			{
				"type": "occ",
				"energy": -0.24394,
				"method": "rhf"
			},
			{
				"type": "unocc",
				"energy": 0.06916,
				"method": "rhf"
			},
			{
				"type": "unocc",
				"energy": 0.08156,
				"method": "rhf"
			},
			{
				"type": "unocc",
				"energy": 0.09597,
				"method": "rhf"
			},
			{
				"type": "unocc",
				"energy": 0.10048,
				"method": "rhf"
			},
			{
				"type": "unocc",
				"energy": 0.1069,
				"method": "rhf"
			}
		],
		"cosmo_sigma_profile": { 
			"-0.025": 0.0,
			"-0.024": 0.0,
			"-0.023": 0.0,
			"-0.022": 0.0,
			"-0.021": 0.0,
			"-0.02": 0.0,
			"-0.019": 0.0,
			"-0.018": 0.0,
			"-0.017": 0.0,
			"-0.016": 0.0,
			"-0.015": 0.0,
			"-0.014": 0.0,
			"-0.013": 0.0,
			"-0.012": 0.0,
			"-0.011": 0.0,
			"-0.01": 0.0,
			"-0.009": 0.0,
			"-0.008": 0.0,
			"-0.007": 0.0,
			"-0.006": 0.0,
			"-0.005": 0.0,
			"-0.004": 0.851141252674,
			"-0.003": 15.0702018531,
			"-0.002": 65.0754208857,
			"-0.001": 87.8255610345,
			"0.0": 84.2642105315,
			"0.001": 71.1118332096,
			"0.002": 33.5112198899,
			"0.003": 5.37833713788,
			"0.004": 2.41240363243,
			"0.005": 1.41210142635,
			"0.006": 1.18974699698,
			"0.007": 1.57628568855,
			"0.008": 1.84720644751,
			"0.009": 0.890412786198,
			"0.01": 1.11989659342,
			"0.011": 0.700943549937,
			"0.012": 1.16204078009,
			"0.013": 0.963801089479,
			"0.014": 0.541986671298,
			"0.015": 0.000724029898857,
			"0.016": 0.0,
			"0.017": 0.0,
			"0.018": 0.0,
			"0.019": 0.0,
			"0.02": 0.0,
			"0.021": 0.0,
			"0.022": 0.0,
			"0.023": 0.0,
			"0.024": 0.0,
			"0.025": 0.0
		}
	}
}
