{
	 "smiles": "CC1=NN=C(Cl)N1C1=CC=CC=C1", 
	 "Tm": 526.15, 
	 "num_atms": 21, 
	 "gaussian": { 
		 "optdone": 1, 
		 "sigma_profile": "yes", 
		 "theory": "DFT", 
		 "functional": "B3LYP", 
		 "basiset": "6-31G**", 
		 "properties": { 
			 "R2extent": 3033.2854, 
			 "electric_dipole_moment_norm": 6.56947096957, 
			 "electric_quadrupole_moment_norm": 19.1226264488, 
			 "total_energy": -972.200469864, 
			 "HOMO_LUMO_gap": 0.21373, 
			 "cosmo_polarized_energy": -14.14, 
			 "cosmo_cavitation_energy": 27.54, 
			 "cosmo_dispersion_energy": -19.38, 
			 "cosmo_repulsion_energy": 1.55, 
			 "cosmo_total_nonelectrostatic_energy": 9.71, 
			 "SMD_solvation_energy": 2.87 
		},
		"coords": [
			{
				"x": 1.1437724319,
				"y": -1.7711666874,
				"z": 1.9110999714,
				"element": "C" 
			},
			{
				"x": -0.0778616988,
				"y": -0.9777945495,
				"z": 2.2264480205,
				"element": "C" 
			},
			{
				"x": -0.5667123281,
				"y": -0.7711890473,
				"z": 3.4268900208,
				"element": "N" 
			},
			{
				"x": -1.6937046566,
				"y": 0.0239273591,
				"z": 3.3065926977,
				"element": "N" 
			},
			{
				"x": -1.8380990079,
				"y": 0.2697683605,
				"z": 2.0365516364,
				"element": "C" 
			},
			{
				"x": -3.0954322804,
				"y": 1.2107171498,
				"z": 1.3328639033,
				"element": "Cl" 
			},
			{
				"x": -0.8543051608,
				"y": -0.3310429075,
				"z": 1.2803617225,
				"element": "N" 
			},
			{
				"x": -0.6667916823,
				"y": -0.2955151816,
				"z": -0.1393240117,
				"element": "C" 
			},
			{
				"x": -0.1209542954,
				"y": 0.8433047738,
				"z": -0.7372451948,
				"element": "C" 
			},
			{
				"x": 0.0690968321,
				"y": 0.86728292,
				"z": -2.1188482944,
				"element": "C" 
			},
			{
				"x": -0.2768521347,
				"y": -0.2414521632,
				"z": -2.894392706,
				"element": "C" 
			},
			{
				"x": -0.8201334888,
				"y": -1.3767146359,
				"z": -2.2893080851,
				"element": "C" 
			},
			{
				"x": -1.0209841872,
				"y": -1.4064893051,
				"z": -0.9091939877,
				"element": "C" 
			},
			{
				"x": 0.9191603722,
				"y": -2.6323203076,
				"z": 1.2732460225,
				"element": "H" 
			},
			{
				"x": 1.5638727022,
				"y": -2.1308639882,
				"z": 2.8514337113,
				"element": "H" 
			},
			{
				"x": 1.8959998804,
				"y": -1.1645391326,
				"z": 1.3957163228,
				"element": "H" 
			},
			{
				"x": 0.1471356733,
				"y": 1.6954289169,
				"z": -0.1210532617,
				"element": "H" 
			},
			{
				"x": 0.4900678506,
				"y": 1.7513515632,
				"z": -2.5876957993,
				"element": "H" 
			},
			{
				"x": -0.1251036438,
				"y": -0.2199652491,
				"z": -3.9693164689,
				"element": "H" 
			},
			{
				"x": -1.0941800801,
				"y": -2.2378726829,
				"z": -2.8909295663,
				"element": "H" 
			},
			{
				"x": -1.4559910978,
				"y": -2.2758552053,
				"z": -0.4263966536,
				"element": "H" 
			}
		],
		 "valence_orbital": [ 
			{
				"type": "occ",
				"energy": -0.30311,
				"method": "rhf"
			},
			{
				"type": "occ",
				"energy": -0.2815,
				"method": "rhf"
			},
			{
				"type": "occ",
				"energy": -0.27819,
				"method": "rhf"
			},
			{
				"type": "occ",
				"energy": -0.25311,
				"method": "rhf"
			},
			{
				"type": "occ",
				"energy": -0.24876,
				"method": "rhf"
			},
			{
				"type": "unocc",
				"energy": -0.03503,
				"method": "rhf"
			},
			{
				"type": "unocc",
				"energy": -0.02937,
				"method": "rhf"
			},
			{
				"type": "unocc",
				"energy": 0.0123,
				"method": "rhf"
			},
			{
				"type": "unocc",
				"energy": 0.03111,
				"method": "rhf"
			},
			{
				"type": "unocc",
				"energy": 0.04285,
				"method": "rhf"
			}
		],
		"cosmo_sigma_profile": { 
			"-0.025": 0.0,
			"-0.024": 0.0,
			"-0.023": 0.0,
			"-0.022": 0.0,
			"-0.021": 0.0,
			"-0.02": 0.0,
			"-0.019": 0.0,
			"-0.018": 0.0,
			"-0.017": 0.0,
			"-0.016": 0.0,
			"-0.015": 0.0,
			"-0.014": 0.0,
			"-0.013": 0.0,
			"-0.012": 0.0,
			"-0.011": 0.0,
			"-0.01": 0.0,
			"-0.009": 0.0,
			"-0.008": 0.948913703012,
			"-0.007": 8.45375561098,
			"-0.006": 18.0336637154,
			"-0.005": 21.8429607542,
			"-0.004": 19.0946333289,
			"-0.003": 17.0829234841,
			"-0.002": 19.3080587903,
			"-0.001": 13.9995751719,
			"0.0": 12.8154558918,
			"0.001": 13.7463970447,
			"0.002": 18.9954503808,
			"0.003": 20.1303299908,
			"0.004": 9.78732038546,
			"0.005": 2.32482109468,
			"0.006": 2.1091744357,
			"0.007": 2.17978089491,
			"0.008": 2.18367174683,
			"0.009": 2.07886064168,
			"0.01": 2.07880177284,
			"0.011": 2.23860349312,
			"0.012": 3.6913129357,
			"0.013": 3.24082242206,
			"0.014": 2.65538857821,
			"0.015": 2.60284543862,
			"0.016": 1.52803139218,
			"0.017": 0.218435975105,
			"0.018": 0.0,
			"0.019": 0.0,
			"0.02": 0.0,
			"0.021": 0.0,
			"0.022": 0.0,
			"0.023": 0.0,
			"0.024": 0.0,
			"0.025": 0.0
		}
	}
}
