{
	 "smiles": "CC1=CC(=CC(Cl)=C1N)C#N", 
	 "Tm": 402.15, 
	 "num_atms": 18, 
	 "gaussian": { 
		 "optdone": 1, 
		 "sigma_profile": "yes", 
		 "theory": "DFT", 
		 "functional": "B3LYP", 
		 "basiset": "6-31G**", 
		 "properties": { 
			 "R2extent": 3874.9094, 
			 "electric_dipole_moment_norm": 6.39040888989, 
			 "electric_quadrupole_moment_norm": 14.7353054424, 
			 "total_energy": -878.763664301, 
			 "HOMO_LUMO_gap": 0.18672, 
			 "cosmo_polarized_energy": -13.01, 
			 "cosmo_cavitation_energy": 24.58, 
			 "cosmo_dispersion_energy": -17.83, 
			 "cosmo_repulsion_energy": 1.43, 
			 "cosmo_total_nonelectrostatic_energy": 8.18, 
			 "SMD_solvation_energy": 5.27 
		},
		"coords": [
			{
				"x": -0.5183481841,
				"y": -1.2376230753,
				"z": 0.3773832369,
				"element": "C" 
			},
			{
				"x": -1.0082079077,
				"y": 0.1065887903,
				"z": -0.100554733,
				"element": "C" 
			},
			{
				"x": -0.1157523351,
				"y": 1.103154825,
				"z": -0.4738968944,
				"element": "C" 
			},
			{
				"x": -0.5577595582,
				"y": 2.3649660049,
				"z": -0.9095212009,
				"element": "C" 
			},
			{
				"x": -1.9346668666,
				"y": 2.6251846868,
				"z": -0.9688395182,
				"element": "C" 
			},
			{
				"x": -2.8290104074,
				"y": 1.6334726468,
				"z": -0.5998158642,
				"element": "C" 
			},
			{
				"x": -4.556591246,
				"y": 1.9707419849,
				"z": -0.6888203262,
				"element": "Cl" 
			},
			{
				"x": -2.4047212156,
				"y": 0.3610873572,
				"z": -0.1599087127,
				"element": "C" 
			},
			{
				"x": -3.3085751597,
				"y": -0.5925407609,
				"z": 0.2467017041,
				"element": "N" 
			},
			{
				"x": 0.3836692414,
				"y": 3.3728315082,
				"z": -1.2879039266,
				"element": "C" 
			},
			{
				"x": 1.1538608256,
				"y": 4.1897391371,
				"z": -1.5957916607,
				"element": "N" 
			},
			{
				"x": 0.5729040698,
				"y": -1.2674821719,
				"z": 0.4063434528,
				"element": "H" 
			},
			{
				"x": -0.8481078105,
				"y": -2.0522823899,
				"z": -0.2823014438,
				"element": "H" 
			},
			{
				"x": -0.8875865076,
				"y": -1.463705588,
				"z": 1.3853578567,
				"element": "H" 
			},
			{
				"x": 0.9503469259,
				"y": 0.9053668641,
				"z": -0.4266968652,
				"element": "H" 
			},
			{
				"x": -2.3007852615,
				"y": 3.5886563126,
				"z": -1.3026935597,
				"element": "H" 
			},
			{
				"x": -4.2750475029,
				"y": -0.446448306,
				"z": -0.0042304457,
				"element": "H" 
			},
			{
				"x": -3.0068210999,
				"y": -1.5537078257,
				"z": 0.2496889008,
				"element": "H" 
			}
		],
		 "valence_orbital": [ 
			{
				"type": "occ",
				"energy": -0.33302,
				"method": "rhf"
			},
			{
				"type": "occ",
				"energy": -0.32262,
				"method": "rhf"
			},
			{
				"type": "occ",
				"energy": -0.31157,
				"method": "rhf"
			},
			{
				"type": "occ",
				"energy": -0.26308,
				"method": "rhf"
			},
			{
				"type": "occ",
				"energy": -0.22498,
				"method": "rhf"
			},
			{
				"type": "unocc",
				"energy": -0.03826,
				"method": "rhf"
			},
			{
				"type": "unocc",
				"energy": -0.02394,
				"method": "rhf"
			},
			{
				"type": "unocc",
				"energy": 0.0139,
				"method": "rhf"
			},
			{
				"type": "unocc",
				"energy": 0.04482,
				"method": "rhf"
			},
			{
				"type": "unocc",
				"energy": 0.05964,
				"method": "rhf"
			}
		],
		"cosmo_sigma_profile": { 
			"-0.025": 0.0,
			"-0.024": 0.0,
			"-0.023": 0.0,
			"-0.022": 0.0,
			"-0.021": 0.0,
			"-0.02": 0.0,
			"-0.019": 0.0,
			"-0.018": 0.0,
			"-0.017": 0.0,
			"-0.016": 0.0,
			"-0.015": 0.0,
			"-0.014": 0.317840973078,
			"-0.013": 1.45859258455,
			"-0.012": 1.42991555472,
			"-0.011": 2.98539075162,
			"-0.01": 2.29823916845,
			"-0.009": 3.28654253422,
			"-0.008": 4.00796559512,
			"-0.007": 6.5476635438,
			"-0.006": 7.79435612442,
			"-0.005": 10.9548430194,
			"-0.004": 9.31758097626,
			"-0.003": 10.6123187176,
			"-0.002": 12.8988889669,
			"-0.001": 15.6034450345,
			"0.0": 18.3910104126,
			"0.001": 17.3392698919,
			"0.002": 21.3291639034,
			"0.003": 12.1263395594,
			"0.004": 8.92589972057,
			"0.005": 4.97086583532,
			"0.006": 3.23011368102,
			"0.007": 2.75258617123,
			"0.008": 3.92695828316,
			"0.009": 3.94612705103,
			"0.01": 4.19119274445,
			"0.011": 3.09653098041,
			"0.012": 2.75485593963,
			"0.013": 2.21276543473,
			"0.014": 0.753945159465,
			"0.015": 0.0,
			"0.016": 0.0,
			"0.017": 0.0,
			"0.018": 0.0,
			"0.019": 0.0,
			"0.02": 0.0,
			"0.021": 0.0,
			"0.022": 0.0,
			"0.023": 0.0,
			"0.024": 0.0,
			"0.025": 0.0
		}
	}
}
