{
	 "smiles": "CCN1C(S)=NC2=C(C=CC=C2)C1=O", 
	 "Tm": 531.15, 
	 "num_atms": 24, 
	 "gaussian": { 
		 "optdone": 1, 
		 "sigma_profile": "yes", 
		 "theory": "DFT", 
		 "functional": "B3LYP", 
		 "basiset": "6-31G**", 
		 "properties": { 
			 "R2extent": 3256.5259, 
			 "electric_dipole_moment_norm": 1.4822298371, 
			 "electric_quadrupole_moment_norm": 12.9246362746, 
			 "total_energy": -970.036067682, 
			 "HOMO_LUMO_gap": 0.18075, 
			 "cosmo_polarized_energy": -9.31, 
			 "cosmo_cavitation_energy": 28.88, 
			 "cosmo_dispersion_energy": -21.84, 
			 "cosmo_repulsion_energy": 1.65, 
			 "cosmo_total_nonelectrostatic_energy": 8.69, 
			 "SMD_solvation_energy": 3.65 
		},
		"coords": [
			{
				"x": -0.5340285686,
				"y": -3.7642089825,
				"z": -1.0617101542,
				"element": "C" 
			},
			{
				"x": -1.1982388162,
				"y": -3.0144300292,
				"z": 0.0936959117,
				"element": "C" 
			},
			{
				"x": -0.7101174002,
				"y": -1.6269639482,
				"z": 0.228038401,
				"element": "N" 
			},
			{
				"x": 0.3532946301,
				"y": -1.2763111935,
				"z": 1.0358440659,
				"element": "C" 
			},
			{
				"x": 1.1284926603,
				"y": -2.6031271602,
				"z": 1.9594275028,
				"element": "S" 
			},
			{
				"x": 0.8281679038,
				"y": -0.082267812,
				"z": 1.1778314871,
				"element": "N" 
			},
			{
				"x": 0.2303703001,
				"y": 0.9412862912,
				"z": 0.4624116635,
				"element": "C" 
			},
			{
				"x": -0.8588574407,
				"y": 0.7090441516,
				"z": -0.4051298126,
				"element": "C" 
			},
			{
				"x": -1.4408844506,
				"y": 1.7694844916,
				"z": -1.1193409482,
				"element": "C" 
			},
			{
				"x": -0.9456696275,
				"y": 3.0552359809,
				"z": -0.9706932828,
				"element": "C" 
			},
			{
				"x": 0.1402581145,
				"y": 3.292331142,
				"z": -0.1068485644,
				"element": "C" 
			},
			{
				"x": 0.7241871695,
				"y": 2.2539191507,
				"z": 0.601513689,
				"element": "C" 
			},
			{
				"x": -1.375370464,
				"y": -0.6505243798,
				"z": -0.5602102076,
				"element": "C" 
			},
			{
				"x": -2.3014674566,
				"y": -0.9778129768,
				"z": -1.2925020902,
				"element": "O" 
			},
			{
				"x": 0.549193259,
				"y": -3.8324457314,
				"z": -0.9269310895,
				"element": "H" 
			},
			{
				"x": -0.9355704233,
				"y": -4.780838208,
				"z": -1.1202233558,
				"element": "H" 
			},
			{
				"x": -0.7440833922,
				"y": -3.2588839544,
				"z": -2.0073813101,
				"element": "H" 
			},
			{
				"x": -1.0422810671,
				"y": -3.5237061661,
				"z": 1.0477367085,
				"element": "H" 
			},
			{
				"x": -2.2724585091,
				"y": -2.9376232509,
				"z": -0.0777789586,
				"element": "H" 
			},
			{
				"x": 2.007489686,
				"y": -1.7584024329,
				"z": 2.5279329851,
				"element": "H" 
			},
			{
				"x": -2.2752013303,
				"y": 1.5494981716,
				"z": -1.7770045199,
				"element": "H" 
			},
			{
				"x": -1.3921892196,
				"y": 3.8790978081,
				"z": -1.5187656575,
				"element": "H" 
			},
			{
				"x": 0.5259194811,
				"y": 4.3017127118,
				"z": 0.0058947696,
				"element": "H" 
			},
			{
				"x": 1.5620449616,
				"y": 2.4193363263,
				"z": 1.2705927673,
				"element": "H" 
			}
		],
		 "valence_orbital": [ 
			{
				"type": "occ",
				"energy": -0.27826,
				"method": "rhf"
			},
			{
				"type": "occ",
				"energy": -0.27688,
				"method": "rhf"
			},
			{
				"type": "occ",
				"energy": -0.26679,
				"method": "rhf"
			},
			{
				"type": "occ",
				"energy": -0.26059,
				"method": "rhf"
			},
			{
				"type": "occ",
				"energy": -0.22382,
				"method": "rhf"
			},
			{
				"type": "unocc",
				"energy": -0.04307,
				"method": "rhf"
			},
			{
				"type": "unocc",
				"energy": -0.03436,
				"method": "rhf"
			},
			{
				"type": "unocc",
				"energy": 0.00183,
				"method": "rhf"
			},
			{
				"type": "unocc",
				"energy": 0.02684,
				"method": "rhf"
			},
			{
				"type": "unocc",
				"energy": 0.05917,
				"method": "rhf"
			}
		],
		"cosmo_sigma_profile": { 
			"-0.025": 0.0,
			"-0.024": 0.0,
			"-0.023": 0.0,
			"-0.022": 0.0,
			"-0.021": 0.0,
			"-0.02": 0.0,
			"-0.019": 0.0,
			"-0.018": 0.0,
			"-0.017": 0.0,
			"-0.016": 0.0,
			"-0.015": 0.0,
			"-0.014": 0.0,
			"-0.013": 0.0,
			"-0.012": 0.647137975923,
			"-0.011": 1.34634489953,
			"-0.01": 1.21541950088,
			"-0.009": 1.27739426611,
			"-0.008": 1.16860240502,
			"-0.007": 2.19085808277,
			"-0.006": 9.40761170472,
			"-0.005": 15.8115894821,
			"-0.004": 21.5007760187,
			"-0.003": 22.5065055759,
			"-0.002": 19.6646216091,
			"-0.001": 19.1686285785,
			"0.0": 19.5195455159,
			"0.001": 17.0586698425,
			"0.002": 18.3921597456,
			"0.003": 18.6716045434,
			"0.004": 13.3840395514,
			"0.005": 5.93138649975,
			"0.006": 4.87004164866,
			"0.007": 2.44882947198,
			"0.008": 2.65074461449,
			"0.009": 2.69572717885,
			"0.01": 2.70320699586,
			"0.011": 2.76230104588,
			"0.012": 3.86491084018,
			"0.013": 2.33461715828,
			"0.014": 0.0,
			"0.015": 0.0,
			"0.016": 0.0,
			"0.017": 0.0,
			"0.018": 0.0,
			"0.019": 0.0,
			"0.02": 0.0,
			"0.021": 0.0,
			"0.022": 0.0,
			"0.023": 0.0,
			"0.024": 0.0,
			"0.025": 0.0
		}
	}
}
