{
	 "smiles": "CCOC(=O)C1=C(OC=N1)C1=C(C)N=CS1", 
	 "Tm": 352.15, 
	 "num_atms": 26, 
	 "gaussian": { 
		 "optdone": 1, 
		 "sigma_profile": "yes", 
		 "theory": "DFT", 
		 "functional": "B3LYP", 
		 "basiset": "6-31G**", 
		 "properties": { 
			 "R2extent": 4048.0491, 
			 "electric_dipole_moment_norm": 2.68655938702, 
			 "electric_quadrupole_moment_norm": 18.8805912103, 
			 "total_energy": -1120.43859848, 
			 "HOMO_LUMO_gap": 0.17827, 
			 "cosmo_polarized_energy": -14.58, 
			 "cosmo_cavitation_energy": 32.6, 
			 "cosmo_dispersion_energy": -22.94, 
			 "cosmo_repulsion_energy": 1.74, 
			 "cosmo_total_nonelectrostatic_energy": 11.41, 
			 "SMD_solvation_energy": 4.52 
		},
		"coords": [
			{
				"x": -3.2058233631,
				"y": -0.6395302325,
				"z": 3.1075160029,
				"element": "C" 
			},
			{
				"x": -1.975767682,
				"y": -1.4641935508,
				"z": 2.7591901721,
				"element": "C" 
			},
			{
				"x": -1.4562946918,
				"y": -1.1372197966,
				"z": 1.445573988,
				"element": "O" 
			},
			{
				"x": -2.059409687,
				"y": -1.7501651637,
				"z": 0.4009483668,
				"element": "C" 
			},
			{
				"x": -3.008135372,
				"y": -2.4973305577,
				"z": 0.500888962,
				"element": "O" 
			},
			{
				"x": -1.3961698619,
				"y": -1.4292158409,
				"z": -0.8853336845,
				"element": "C" 
			},
			{
				"x": -0.2769005708,
				"y": -0.6762329479,
				"z": -1.1687305309,
				"element": "C" 
			},
			{
				"x": -0.0355347585,
				"y": -0.8264191289,
				"z": -2.5163118058,
				"element": "O" 
			},
			{
				"x": -1.0267062273,
				"y": -1.6434177094,
				"z": -2.9615689053,
				"element": "C" 
			},
			{
				"x": -1.8584383846,
				"y": -2.025278262,
				"z": -2.0542336608,
				"element": "N" 
			},
			{
				"x": 0.6510293721,
				"y": 0.1659541406,
				"z": -0.4399886946,
				"element": "C" 
			},
			{
				"x": 0.4030175867,
				"y": 1.2582048027,
				"z": 0.3662311939,
				"element": "C" 
			},
			{
				"x": -0.9334761272,
				"y": 1.8620291362,
				"z": 0.6700713409,
				"element": "C" 
			},
			{
				"x": 1.5274059207,
				"y": 1.8535749915,
				"z": 0.8979094652,
				"element": "N" 
			},
			{
				"x": 2.6125909136,
				"y": 1.2528442472,
				"z": 0.5090764112,
				"element": "C" 
			},
			{
				"x": 2.3798082753,
				"y": -0.1061017982,
				"z": -0.5511854539,
				"element": "S" 
			},
			{
				"x": -3.5265240292,
				"y": -0.8726943916,
				"z": 4.1284103911,
				"element": "H" 
			},
			{
				"x": -2.9906998012,
				"y": 0.431903396,
				"z": 3.0550615803,
				"element": "H" 
			},
			{
				"x": -4.0287382103,
				"y": -0.871412704,
				"z": 2.4279444121,
				"element": "H" 
			},
			{
				"x": -2.2018334744,
				"y": -2.5328348674,
				"z": 2.7877928551,
				"element": "H" 
			},
			{
				"x": -1.1440331926,
				"y": -1.2505282707,
				"z": 3.4343896938,
				"element": "H" 
			},
			{
				"x": -1.0168269949,
				"y": -1.8887626924,
				"z": -4.0135119413,
				"element": "H" 
			},
			{
				"x": -1.1960487274,
				"y": 1.7024687509,
				"z": 1.7204871847,
				"element": "H" 
			},
			{
				"x": -1.7220315681,
				"y": 1.4285164691,
				"z": 0.0535460667,
				"element": "H" 
			},
			{
				"x": -0.8952897341,
				"y": 2.9421512422,
				"z": 0.4995993929,
				"element": "H" 
			},
			{
				"x": 3.61123039,
				"y": 1.5561907385,
				"z": 0.8022271973,
				"element": "H" 
			}
		],
		 "valence_orbital": [ 
			{
				"type": "occ",
				"energy": -0.29576,
				"method": "rhf"
			},
			{
				"type": "occ",
				"energy": -0.28487,
				"method": "rhf"
			},
			{
				"type": "occ",
				"energy": -0.27643,
				"method": "rhf"
			},
			{
				"type": "occ",
				"energy": -0.27305,
				"method": "rhf"
			},
			{
				"type": "occ",
				"energy": -0.23998,
				"method": "rhf"
			},
			{
				"type": "unocc",
				"energy": -0.06171,
				"method": "rhf"
			},
			{
				"type": "unocc",
				"energy": -0.02601,
				"method": "rhf"
			},
			{
				"type": "unocc",
				"energy": -0.00321,
				"method": "rhf"
			},
			{
				"type": "unocc",
				"energy": 0.00987,
				"method": "rhf"
			},
			{
				"type": "unocc",
				"energy": 0.03564,
				"method": "rhf"
			}
		],
		"cosmo_sigma_profile": { 
			"-0.025": 0.0,
			"-0.024": 0.0,
			"-0.023": 0.0,
			"-0.022": 0.0,
			"-0.021": 0.0,
			"-0.02": 0.0,
			"-0.019": 0.0,
			"-0.018": 0.0,
			"-0.017": 0.0,
			"-0.016": 0.0,
			"-0.015": 0.0,
			"-0.014": 0.0,
			"-0.013": 0.0,
			"-0.012": 0.952417128901,
			"-0.011": 2.56554782761,
			"-0.01": 4.37920078944,
			"-0.009": 3.33812265426,
			"-0.008": 2.85257684505,
			"-0.007": 4.04123196811,
			"-0.006": 5.16370801372,
			"-0.005": 12.5962601478,
			"-0.004": 24.8170733881,
			"-0.003": 27.843177052,
			"-0.002": 25.5649692008,
			"-0.001": 26.9943701123,
			"0.0": 30.0042064084,
			"0.001": 18.4929047141,
			"0.002": 14.1774583159,
			"0.003": 7.9978110218,
			"0.004": 7.22584903524,
			"0.005": 6.19826736429,
			"0.006": 4.79214924997,
			"0.007": 3.9748996962,
			"0.008": 3.6926944111,
			"0.009": 3.43424018387,
			"0.01": 2.99372111974,
			"0.011": 6.02339788838,
			"0.012": 4.20053956842,
			"0.013": 3.35709528055,
			"0.014": 2.9334141033,
			"0.015": 2.08380575425,
			"0.016": 0.439833942393,
			"0.017": 0.0,
			"0.018": 0.0,
			"0.019": 0.0,
			"0.02": 0.0,
			"0.021": 0.0,
			"0.022": 0.0,
			"0.023": 0.0,
			"0.024": 0.0,
			"0.025": 0.0
		}
	}
}
