{
	 "smiles": "CCCS(=O)(=O)NC1=C(C=CC=C1)C(C)NC", 
	 "Tm": 332.15, 
	 "num_atms": 37, 
	 "gaussian": { 
		 "optdone": 1, 
		 "sigma_profile": "yes", 
		 "theory": "DFT", 
		 "functional": "B3LYP", 
		 "basiset": "6-31G**", 
		 "properties": { 
			 "R2extent": 4796.7041, 
			 "electric_dipole_moment_norm": 3.3584424634, 
			 "electric_quadrupole_moment_norm": 17.7822545913, 
			 "total_energy": -1127.39619426, 
			 "HOMO_LUMO_gap": 0.19938, 
			 "cosmo_polarized_energy": -17.59, 
			 "cosmo_cavitation_energy": 38.39, 
			 "cosmo_dispersion_energy": -26.32, 
			 "cosmo_repulsion_energy": 1.99, 
			 "cosmo_total_nonelectrostatic_energy": 14.06, 
			 "SMD_solvation_energy": 3.95 
		},
		"coords": [
			{
				"x": -2.1220530459,
				"y": -0.8579963782,
				"z": -2.8491128721,
				"element": "C" 
			},
			{
				"x": -2.9533780192,
				"y": -1.4166116443,
				"z": -1.6898383249,
				"element": "C" 
			},
			{
				"x": -2.2743818463,
				"y": -1.4156164149,
				"z": -0.3181074155,
				"element": "C" 
			},
			{
				"x": -1.9624193413,
				"y": 0.2245024236,
				"z": 0.4115513535,
				"element": "S" 
			},
			{
				"x": -3.0350058869,
				"y": 1.1291689693,
				"z": -0.0357050875,
				"element": "O" 
			},
			{
				"x": -1.6889142676,
				"y": 0.0382209631,
				"z": 1.8383253675,
				"element": "O" 
			},
			{
				"x": -0.4660763458,
				"y": 0.6810293065,
				"z": -0.3197610881,
				"element": "N" 
			},
			{
				"x": 0.3045474984,
				"y": 1.6647956145,
				"z": 0.4236700106,
				"element": "C" 
			},
			{
				"x": 1.530611318,
				"y": 1.3186791404,
				"z": 1.0238213083,
				"element": "C" 
			},
			{
				"x": 2.2060276335,
				"y": 2.3399361157,
				"z": 1.7163804934,
				"element": "C" 
			},
			{
				"x": 1.7128350751,
				"y": 3.6379347277,
				"z": 1.8121670925,
				"element": "C" 
			},
			{
				"x": 0.5009305702,
				"y": 3.9613118977,
				"z": 1.2016574559,
				"element": "C" 
			},
			{
				"x": -0.1959775244,
				"y": 2.9726447702,
				"z": 0.5152898087,
				"element": "C" 
			},
			{
				"x": 2.2671946996,
				"y": -0.0290717686,
				"z": 0.9244468623,
				"element": "C" 
			},
			{
				"x": 1.420646087,
				"y": -1.3014701634,
				"z": 1.034549166,
				"element": "C" 
			},
			{
				"x": 3.179879515,
				"y": -0.1111578291,
				"z": -0.2358149386,
				"element": "N" 
			},
			{
				"x": 2.5897095344,
				"y": 0.0286616842,
				"z": -1.5630711933,
				"element": "C" 
			},
			{
				"x": -2.6208112853,
				"y": -1.0528157694,
				"z": -3.8031537501,
				"element": "H" 
			},
			{
				"x": -2.003842978,
				"y": 0.2278200019,
				"z": -2.7720629747,
				"element": "H" 
			},
			{
				"x": -1.1264669209,
				"y": -1.3126768326,
				"z": -2.8929574034,
				"element": "H" 
			},
			{
				"x": -3.2110952305,
				"y": -2.4618895905,
				"z": -1.9008521011,
				"element": "H" 
			},
			{
				"x": -3.898130299,
				"y": -0.8694977402,
				"z": -1.6130166361,
				"element": "H" 
			},
			{
				"x": -1.3143012286,
				"y": -1.9368237749,
				"z": -0.3111642296,
				"element": "H" 
			},
			{
				"x": -2.9192328463,
				"y": -1.8811882543,
				"z": 0.4338743668,
				"element": "H" 
			},
			{
				"x": -0.6928954059,
				"y": 1.0350627111,
				"z": -1.2475328741,
				"element": "H" 
			},
			{
				"x": 3.1522986479,
				"y": 2.0984167205,
				"z": 2.195850607,
				"element": "H" 
			},
			{
				"x": 2.2694166386,
				"y": 4.3904954121,
				"z": 2.3633008307,
				"element": "H" 
			},
			{
				"x": 0.0967963733,
				"y": 4.9669275544,
				"z": 1.2666910331,
				"element": "H" 
			},
			{
				"x": -1.1517382163,
				"y": 3.197967331,
				"z": 0.0511487436,
				"element": "H" 
			},
			{
				"x": 2.9377781789,
				"y": -0.0398489574,
				"z": 1.7923853411,
				"element": "H" 
			},
			{
				"x": 0.713916454,
				"y": -1.2263016189,
				"z": 1.8647515492,
				"element": "H" 
			},
			{
				"x": 2.0864408712,
				"y": -2.1529697385,
				"z": 1.2019290416,
				"element": "H" 
			},
			{
				"x": 0.8500162719,
				"y": -1.4881077368,
				"z": 0.1246884271,
				"element": "H" 
			},
			{
				"x": 3.900753037,
				"y": 0.5971595858,
				"z": -0.1255992929,
				"element": "H" 
			},
			{
				"x": 3.3892396519,
				"y": -0.0397647241,
				"z": -2.3076188518,
				"element": "H" 
			},
			{
				"x": 2.0473735361,
				"y": 0.9745135034,
				"z": -1.7339709221,
				"element": "H" 
			},
			{
				"x": 1.893309096,
				"y": -0.7924394969,
				"z": -1.7547389031,
				"element": "H" 
			}
		],
		 "valence_orbital": [ 
			{
				"type": "occ",
				"energy": -0.29729,
				"method": "rhf"
			},
			{
				"type": "occ",
				"energy": -0.27479,
				"method": "rhf"
			},
			{
				"type": "occ",
				"energy": -0.25446,
				"method": "rhf"
			},
			{
				"type": "occ",
				"energy": -0.24834,
				"method": "rhf"
			},
			{
				"type": "occ",
				"energy": -0.21708,
				"method": "rhf"
			},
			{
				"type": "unocc",
				"energy": -0.0177,
				"method": "rhf"
			},
			{
				"type": "unocc",
				"energy": -0.00798,
				"method": "rhf"
			},
			{
				"type": "unocc",
				"energy": 0.05154,
				"method": "rhf"
			},
			{
				"type": "unocc",
				"energy": 0.06517,
				"method": "rhf"
			},
			{
				"type": "unocc",
				"energy": 0.07023,
				"method": "rhf"
			}
		],
		"cosmo_sigma_profile": { 
			"-0.025": 0.0,
			"-0.024": 0.0,
			"-0.023": 0.0,
			"-0.022": 0.0,
			"-0.021": 0.0,
			"-0.02": 0.0,
			"-0.019": 0.0,
			"-0.018": 0.0,
			"-0.017": 0.0,
			"-0.016": 0.0,
			"-0.015": 0.0,
			"-0.014": 0.102349862525,
			"-0.013": 0.676668192154,
			"-0.012": 1.04685939507,
			"-0.011": 0.793684266565,
			"-0.01": 1.08425928835,
			"-0.009": 2.94627458185,
			"-0.008": 4.82109526111,
			"-0.007": 5.9134069424,
			"-0.006": 13.6385488042,
			"-0.005": 19.8330032077,
			"-0.004": 26.805298204,
			"-0.003": 27.3546156968,
			"-0.002": 27.9165173632,
			"-0.001": 28.4582483096,
			"0.0": 29.2032137744,
			"0.001": 20.020187075,
			"0.002": 12.8294157949,
			"0.003": 10.8771422987,
			"0.004": 11.2233154025,
			"0.005": 11.2461866224,
			"0.006": 5.71896222606,
			"0.007": 3.97551680662,
			"0.008": 5.37972406086,
			"0.009": 4.41729910271,
			"0.01": 6.17750256399,
			"0.011": 9.54102547852,
			"0.012": 5.55188090576,
			"0.013": 0.871086869649,
			"0.014": 0.508237152545,
			"0.015": 0.285037106725,
			"0.016": 0.223104174706,
			"0.017": 0.903298120746,
			"0.018": 0.153764425626,
			"0.019": 0.0,
			"0.02": 0.0,
			"0.021": 0.0,
			"0.022": 0.0,
			"0.023": 0.0,
			"0.024": 0.0,
			"0.025": 0.0
		}
	}
}
