{
	 "smiles": "O=C1C(CCCC1=CC1=CC=CC=C1)=C/C1=CC=CC=C1", 
	 "Tm": 391.15, 
	 "num_atms": 39, 
	 "gaussian": { 
		 "optdone": 1, 
		 "sigma_profile": "yes", 
		 "theory": "DFT", 
		 "functional": "B3LYP", 
		 "basiset": "6-31G**", 
		 "properties": { 
			 "R2extent": 8915.1249, 
			 "electric_dipole_moment_norm": 2.11282037807, 
			 "electric_quadrupole_moment_norm": 12.5492757927, 
			 "total_energy": -848.173491464, 
			 "HOMO_LUMO_gap": 0.1494, 
			 "cosmo_polarized_energy": -9.35, 
			 "cosmo_cavitation_energy": 41.49, 
			 "cosmo_dispersion_energy": -29.81, 
			 "cosmo_repulsion_energy": 2.27, 
			 "cosmo_total_nonelectrostatic_energy": 13.95, 
			 "SMD_solvation_energy": 6.62 
		},
		"coords": [
			{
				"x": 0.5010026298,
				"y": 0.1270155695,
				"z": 1.8538386968,
				"element": "O" 
			},
			{
				"x": 0.5138263858,
				"y": -0.1622591908,
				"z": 0.6576632492,
				"element": "C" 
			},
			{
				"x": 1.3325007388,
				"y": -1.2816114652,
				"z": 0.0898156618,
				"element": "C" 
			},
			{
				"x": 0.6920407943,
				"y": -1.9002933896,
				"z": -1.1419100301,
				"element": "C" 
			},
			{
				"x": 0.5448246365,
				"y": -0.8765968477,
				"z": -2.2940567612,
				"element": "C" 
			},
			{
				"x": 0.3802325907,
				"y": 0.5599729806,
				"z": -1.7407017892,
				"element": "C" 
			},
			{
				"x": -0.2876050081,
				"y": 0.5700121079,
				"z": -0.3753598629,
				"element": "C" 
			},
			{
				"x": -1.5013316951,
				"y": 1.1614256412,
				"z": -0.2270933285,
				"element": "C" 
			},
			{
				"x": -2.471744947,
				"y": 1.3199841704,
				"z": 0.8641904019,
				"element": "C" 
			},
			{
				"x": -3.7976429921,
				"y": 1.6123597666,
				"z": 0.4732561937,
				"element": "C" 
			},
			{
				"x": -4.8131117781,
				"y": 1.7761540993,
				"z": 1.4095486776,
				"element": "C" 
			},
			{
				"x": -4.5255221178,
				"y": 1.6699235318,
				"z": 2.7723074387,
				"element": "C" 
			},
			{
				"x": -3.2166518681,
				"y": 1.4042926638,
				"z": 3.1791195283,
				"element": "C" 
			},
			{
				"x": -2.1968999701,
				"y": 1.2337252894,
				"z": 2.2442128962,
				"element": "C" 
			},
			{
				"x": 2.5403766373,
				"y": -1.7334353281,
				"z": 0.5161146482,
				"element": "C" 
			},
			{
				"x": 3.4876170377,
				"y": -1.370741614,
				"z": 1.5786428146,
				"element": "C" 
			},
			{
				"x": 4.8201670024,
				"y": -1.8012907453,
				"z": 1.3909000388,
				"element": "C" 
			},
			{
				"x": 5.8153914957,
				"y": -1.5140569403,
				"z": 2.3191676515,
				"element": "C" 
			},
			{
				"x": 5.5000637169,
				"y": -0.7999092076,
				"z": 3.4774796419,
				"element": "C" 
			},
			{
				"x": 4.1841128057,
				"y": -0.3858101019,
				"z": 3.6918723153,
				"element": "C" 
			},
			{
				"x": 3.1846245256,
				"y": -0.6663279039,
				"z": 2.7616180692,
				"element": "C" 
			},
			{
				"x": -0.3065269192,
				"y": -2.2651129429,
				"z": -0.8672678506,
				"element": "H" 
			},
			{
				"x": 1.2611746143,
				"y": -2.7753772302,
				"z": -1.4697837601,
				"element": "H" 
			},
			{
				"x": 1.4239196429,
				"y": -0.9143990337,
				"z": -2.9462791662,
				"element": "H" 
			},
			{
				"x": -0.3213714542,
				"y": -1.1453252286,
				"z": -2.90815116,
				"element": "H" 
			},
			{
				"x": -0.1778884629,
				"y": 1.1857309942,
				"z": -2.4436294295,
				"element": "H" 
			},
			{
				"x": 1.3750596913,
				"y": 1.0144389828,
				"z": -1.6435374276,
				"element": "H" 
			},
			{
				"x": -1.8909723989,
				"y": 1.5723377824,
				"z": -1.1602073619,
				"element": "H" 
			},
			{
				"x": -4.028452886,
				"y": 1.700077648,
				"z": -0.5856875081,
				"element": "H" 
			},
			{
				"x": -5.8248361136,
				"y": 1.9920079137,
				"z": 1.0780762545,
				"element": "H" 
			},
			{
				"x": -5.312299614,
				"y": 1.8040034258,
				"z": 3.509356036,
				"element": "H" 
			},
			{
				"x": -2.9818861328,
				"y": 1.3369579603,
				"z": 4.2378172809,
				"element": "H" 
			},
			{
				"x": -1.1821113058,
				"y": 1.0463824629,
				"z": 2.5655280513,
				"element": "H" 
			},
			{
				"x": 2.947035077,
				"y": -2.523200672,
				"z": -0.1181526665,
				"element": "H" 
			},
			{
				"x": 5.0724851016,
				"y": -2.3608858977,
				"z": 0.49339374,
				"element": "H" 
			},
			{
				"x": 6.8329197868,
				"y": -1.8512337859,
				"z": 2.1430977436,
				"element": "H" 
			},
			{
				"x": 6.2708751656,
				"y": -0.5785245326,
				"z": 4.2103343961,
				"element": "H" 
			},
			{
				"x": 3.9277309167,
				"y": 0.1554155148,
				"z": 4.598422965,
				"element": "H" 
			},
			{
				"x": 2.1641746703,
				"y": -0.3590264475,
				"z": 2.9415437112,
				"element": "H" 
			}
		],
		 "valence_orbital": [ 
			{
				"type": "occ",
				"energy": -0.2468,
				"method": "rhf"
			},
			{
				"type": "occ",
				"energy": -0.24674,
				"method": "rhf"
			},
			{
				"type": "occ",
				"energy": -0.24358,
				"method": "rhf"
			},
			{
				"type": "occ",
				"energy": -0.22385,
				"method": "rhf"
			},
			{
				"type": "occ",
				"energy": -0.22118,
				"method": "rhf"
			},
			{
				"type": "unocc",
				"energy": -0.07178,
				"method": "rhf"
			},
			{
				"type": "unocc",
				"energy": -0.03448,
				"method": "rhf"
			},
			{
				"type": "unocc",
				"energy": 0.00355,
				"method": "rhf"
			},
			{
				"type": "unocc",
				"energy": 0.00405,
				"method": "rhf"
			},
			{
				"type": "unocc",
				"energy": 0.01283,
				"method": "rhf"
			}
		],
		"cosmo_sigma_profile": { 
			"-0.025": 0.0,
			"-0.024": 0.0,
			"-0.023": 0.0,
			"-0.022": 0.0,
			"-0.021": 0.0,
			"-0.02": 0.0,
			"-0.019": 0.0,
			"-0.018": 0.0,
			"-0.017": 0.0,
			"-0.016": 0.0,
			"-0.015": 0.0,
			"-0.014": 0.0,
			"-0.013": 0.0,
			"-0.012": 0.0,
			"-0.011": 0.0,
			"-0.01": 0.0,
			"-0.009": 0.0,
			"-0.008": 0.0,
			"-0.007": 0.889677909525,
			"-0.006": 15.8087288007,
			"-0.005": 22.8131861825,
			"-0.004": 29.1168841078,
			"-0.003": 32.6615139259,
			"-0.002": 31.7741947343,
			"-0.001": 27.8552655638,
			"0.0": 27.5486389464,
			"0.001": 19.858048451,
			"0.002": 22.4843471958,
			"0.003": 26.9515066171,
			"0.004": 27.7674106512,
			"0.005": 27.7801535509,
			"0.006": 9.71972767932,
			"0.007": 3.13001547733,
			"0.008": 2.3841605846,
			"0.009": 1.90734883971,
			"0.01": 0.731840920082,
			"0.011": 0.0,
			"0.012": 0.0,
			"0.013": 0.0,
			"0.014": 0.0,
			"0.015": 0.0,
			"0.016": 0.0,
			"0.017": 0.0,
			"0.018": 0.0,
			"0.019": 0.0,
			"0.02": 0.0,
			"0.021": 0.0,
			"0.022": 0.0,
			"0.023": 0.0,
			"0.024": 0.0,
			"0.025": 0.0
		}
	}
}
