{
	 "smiles": "COC1=CC=C2C=C(NC3=CC4=C(OCCO4)C=C3)C=CC2=C1", 
	 "Tm": 375.15, 
	 "num_atms": 40, 
	 "gaussian": { 
		 "optdone": 1, 
		 "sigma_profile": "yes", 
		 "theory": "DFT", 
		 "functional": "B3LYP", 
		 "basiset": "6-31G**", 
		 "properties": { 
			 "R2extent": 12540.238, 
			 "electric_dipole_moment_norm": 1.22885945901, 
			 "electric_quadrupole_moment_norm": 23.7425193052, 
			 "total_energy": -1014.66956926, 
			 "HOMO_LUMO_gap": 0.13967, 
			 "cosmo_polarized_energy": -14.73, 
			 "cosmo_cavitation_energy": 43.12, 
			 "cosmo_dispersion_energy": -32.11, 
			 "cosmo_repulsion_energy": 2.4, 
			 "cosmo_total_nonelectrostatic_energy": 13.42, 
			 "SMD_solvation_energy": 7.62 
		},
		"coords": [
			{
				"x": 4.0423998824,
				"y": 5.2942065372,
				"z": -4.0536853265,
				"element": "C" 
			},
			{
				"x": 3.7911465395,
				"y": 4.728485063,
				"z": -2.7792663323,
				"element": "O" 
			},
			{
				"x": 2.9835105085,
				"y": 3.6255597718,
				"z": -2.6994412706,
				"element": "C" 
			},
			{
				"x": 2.3765551692,
				"y": 3.0085755145,
				"z": -3.8235543009,
				"element": "C" 
			},
			{
				"x": 1.5769140571,
				"y": 1.8972455538,
				"z": -3.6542541876,
				"element": "C" 
			},
			{
				"x": 1.3369020325,
				"y": 1.3429232209,
				"z": -2.3715113746,
				"element": "C" 
			},
			{
				"x": 0.5038538439,
				"y": 0.2124071363,
				"z": -2.1724267566,
				"element": "C" 
			},
			{
				"x": 0.2880730346,
				"y": -0.3142863624,
				"z": -0.9097930097,
				"element": "C" 
			},
			{
				"x": -0.4718198368,
				"y": -1.479496819,
				"z": -0.7572709568,
				"element": "N" 
			},
			{
				"x": -1.3144231012,
				"y": -1.83927759,
				"z": 0.3065618192,
				"element": "C" 
			},
			{
				"x": -1.8121306289,
				"y": -0.9097845791,
				"z": 1.2303035797,
				"element": "C" 
			},
			{
				"x": -2.6543915332,
				"y": -1.3244026819,
				"z": 2.2624608145,
				"element": "C" 
			},
			{
				"x": -3.0502892905,
				"y": -2.6669404164,
				"z": 2.3662791182,
				"element": "C" 
			},
			{
				"x": -3.9008580482,
				"y": -3.1050096292,
				"z": 3.3594954021,
				"element": "O" 
			},
			{
				"x": -4.6275632462,
				"y": -2.0489077675,
				"z": 3.9818744832,
				"element": "C" 
			},
			{
				"x": -3.6897457832,
				"y": -0.9031031823,
				"z": 4.3294206484,
				"element": "C" 
			},
			{
				"x": -3.0989585026,
				"y": -0.368854875,
				"z": 3.144914981,
				"element": "O" 
			},
			{
				"x": -2.5662679656,
				"y": -3.5880156324,
				"z": 1.4379761028,
				"element": "C" 
			},
			{
				"x": -1.6959261471,
				"y": -3.1885296004,
				"z": 0.4300138679,
				"element": "C" 
			},
			{
				"x": 0.9241902528,
				"y": 0.3024261105,
				"z": 0.2110045767,
				"element": "C" 
			},
			{
				"x": 1.716487212,
				"y": 1.4105654979,
				"z": 0.0455182552,
				"element": "C" 
			},
			{
				"x": 1.9528993892,
				"y": 1.9735360664,
				"z": -1.2408146671,
				"element": "C" 
			},
			{
				"x": 2.769695042,
				"y": 3.1101433054,
				"z": -1.4330960164,
				"element": "C" 
			},
			{
				"x": 4.5476431838,
				"y": 4.5864543583,
				"z": -4.7243117128,
				"element": "H" 
			},
			{
				"x": 3.1203249414,
				"y": 5.6457511951,
				"z": -4.5354552134,
				"element": "H" 
			},
			{
				"x": 4.6992848426,
				"y": 6.1482452088,
				"z": -3.8793957461,
				"element": "H" 
			},
			{
				"x": 2.5353903039,
				"y": 3.402770699,
				"z": -4.8204449982,
				"element": "H" 
			},
			{
				"x": 1.1160181187,
				"y": 1.4326638319,
				"z": -4.5223373255,
				"element": "H" 
			},
			{
				"x": 0.0244667602,
				"y": -0.2437217825,
				"z": -3.0362920897,
				"element": "H" 
			},
			{
				"x": -0.5909099137,
				"y": -2.0259191713,
				"z": -1.5970368335,
				"element": "H" 
			},
			{
				"x": -1.5703561974,
				"y": 0.1438377729,
				"z": 1.161422788,
				"element": "H" 
			},
			{
				"x": -5.0857431995,
				"y": -2.4711458684,
				"z": 4.8801402954,
				"element": "H" 
			},
			{
				"x": -5.4206218909,
				"y": -1.6893333478,
				"z": 3.3108218188,
				"element": "H" 
			},
			{
				"x": -4.22716099,
				"y": -0.0790606276,
				"z": 4.80606565,
				"element": "H" 
			},
			{
				"x": -2.9047322038,
				"y": -1.2595362537,
				"z": 5.0106175488,
				"element": "H" 
			},
			{
				"x": -2.8771441872,
				"y": -4.6238322607,
				"z": 1.5298036704,
				"element": "H" 
			},
			{
				"x": -1.3060055091,
				"y": -3.9215451292,
				"z": -0.2705083343,
				"element": "H" 
			},
			{
				"x": 0.7919216202,
				"y": -0.1285379531,
				"z": 1.1969313692,
				"element": "H" 
			},
			{
				"x": 2.1944705612,
				"y": 1.863618167,
				"z": 0.9102571375,
				"element": "H" 
			},
			{
				"x": 3.2425008794,
				"y": 3.5944265192,
				"z": -0.5839874745,
				"element": "H" 
			}
		],
		 "valence_orbital": [ 
			{
				"type": "occ",
				"energy": -0.25393,
				"method": "rhf"
			},
			{
				"type": "occ",
				"energy": -0.23022,
				"method": "rhf"
			},
			{
				"type": "occ",
				"energy": -0.22111,
				"method": "rhf"
			},
			{
				"type": "occ",
				"energy": -0.20299,
				"method": "rhf"
			},
			{
				"type": "occ",
				"energy": -0.1704,
				"method": "rhf"
			},
			{
				"type": "unocc",
				"energy": -0.03073,
				"method": "rhf"
			},
			{
				"type": "unocc",
				"energy": -7e-05,
				"method": "rhf"
			},
			{
				"type": "unocc",
				"energy": 0.00942,
				"method": "rhf"
			},
			{
				"type": "unocc",
				"energy": 0.03217,
				"method": "rhf"
			},
			{
				"type": "unocc",
				"energy": 0.04177,
				"method": "rhf"
			}
		],
		"cosmo_sigma_profile": { 
			"-0.025": 0.0,
			"-0.024": 0.0,
			"-0.023": 0.0,
			"-0.022": 0.0,
			"-0.021": 0.0,
			"-0.02": 0.0,
			"-0.019": 0.0,
			"-0.018": 0.0,
			"-0.017": 0.0,
			"-0.016": 0.0,
			"-0.015": 0.0,
			"-0.014": 0.169147888923,
			"-0.013": 1.01005938921,
			"-0.012": 1.28502875755,
			"-0.011": 1.41810765816,
			"-0.01": 1.37217756751,
			"-0.009": 1.2601483854,
			"-0.008": 1.83478093917,
			"-0.007": 6.43242633571,
			"-0.006": 22.3294451281,
			"-0.005": 36.4810399452,
			"-0.004": 31.6950428199,
			"-0.003": 27.9406785675,
			"-0.002": 18.9565867962,
			"-0.001": 16.7388868532,
			"0.0": 15.6582730178,
			"0.001": 14.1276466131,
			"0.002": 16.470850821,
			"0.003": 21.2117243452,
			"0.004": 32.2249884125,
			"0.005": 41.88005876,
			"0.006": 13.0810397865,
			"0.007": 5.10871920725,
			"0.008": 2.95955782064,
			"0.009": 3.8791737657,
			"0.01": 5.33020822682,
			"0.011": 2.8011458837,
			"0.012": 0.0509815510715,
			"0.013": 0.0,
			"0.014": 0.0,
			"0.015": 0.0,
			"0.016": 0.0,
			"0.017": 0.0,
			"0.018": 0.0,
			"0.019": 0.0,
			"0.02": 0.0,
			"0.021": 0.0,
			"0.022": 0.0,
			"0.023": 0.0,
			"0.024": 0.0,
			"0.025": 0.0
		}
	}
}
