{
	 "smiles": "OCCOC1=CC=C(OCCO)C=C1", 
	 "Tm": 379.15, 
	 "num_atms": 28, 
	 "gaussian": { 
		 "optdone": 1, 
		 "sigma_profile": "yes", 
		 "theory": "DFT", 
		 "functional": "B3LYP", 
		 "basiset": "6-31G**", 
		 "properties": { 
			 "R2extent": 5708.425, 
			 "electric_dipole_moment_norm": 2.34024986059, 
			 "electric_quadrupole_moment_norm": 12.8859115339, 
			 "total_energy": -690.35302561, 
			 "HOMO_LUMO_gap": 0.19695, 
			 "cosmo_polarized_energy": -14.75, 
			 "cosmo_cavitation_energy": 31.81, 
			 "cosmo_dispersion_energy": -23.45, 
			 "cosmo_repulsion_energy": 1.9, 
			 "cosmo_total_nonelectrostatic_energy": 10.27, 
			 "SMD_solvation_energy": 5.78 
		},
		"coords": [
			{
				"x": -1.5200917567,
				"y": -0.6878411557,
				"z": -5.1960344391,
				"element": "O" 
			},
			{
				"x": -1.2985881548,
				"y": -1.2600563001,
				"z": -3.9171154483,
				"element": "C" 
			},
			{
				"x": -0.7163482472,
				"y": -0.2352546579,
				"z": -2.945739051,
				"element": "C" 
			},
			{
				"x": -0.5138587412,
				"y": -0.8980804727,
				"z": -1.7071879208,
				"element": "O" 
			},
			{
				"x": 0.0116273329,
				"y": -0.1875724361,
				"z": -0.6597192753,
				"element": "C" 
			},
			{
				"x": 0.3744125353,
				"y": 1.1643553341,
				"z": -0.7154082819,
				"element": "C" 
			},
			{
				"x": 0.901052317,
				"y": 1.7894804562,
				"z": 0.4138418816,
				"element": "C" 
			},
			{
				"x": 1.0735088801,
				"y": 1.0841326994,
				"z": 1.6078267147,
				"element": "C" 
			},
			{
				"x": 1.5945024362,
				"y": 1.7949245749,
				"z": 2.6604972182,
				"element": "O" 
			},
			{
				"x": 1.8400884242,
				"y": 1.1220294303,
				"z": 3.8938017798,
				"element": "C" 
			},
			{
				"x": 2.4997817697,
				"y": 2.1451187271,
				"z": 4.805207682,
				"element": "C" 
			},
			{
				"x": 3.7299592217,
				"y": 2.6002947703,
				"z": 4.2760854007,
				"element": "O" 
			},
			{
				"x": 0.709474023,
				"y": -0.2672306853,
				"z": 1.664655919,
				"element": "C" 
			},
			{
				"x": 0.1835133913,
				"y": -0.8923044439,
				"z": 0.535586963,
				"element": "C" 
			},
			{
				"x": -2.271265594,
				"y": -0.0846322388,
				"z": -5.1288810873,
				"element": "H" 
			},
			{
				"x": -2.212635812,
				"y": -1.6943163448,
				"z": -3.4866630479,
				"element": "H" 
			},
			{
				"x": -0.5826419053,
				"y": -2.0747764406,
				"z": -4.0575398637,
				"element": "H" 
			},
			{
				"x": 0.227262928,
				"y": 0.1600374534,
				"z": -3.3459880191,
				"element": "H" 
			},
			{
				"x": -1.4128416867,
				"y": 0.6100492834,
				"z": -2.8239090584,
				"element": "H" 
			},
			{
				"x": 0.2550023025,
				"y": 1.7380711139,
				"z": -1.6268736506,
				"element": "H" 
			},
			{
				"x": 1.185235217,
				"y": 2.8364209742,
				"z": 0.3817082778,
				"element": "H" 
			},
			{
				"x": 0.9002961243,
				"y": 0.7542380965,
				"z": 4.330925301,
				"element": "H" 
			},
			{
				"x": 2.5146361958,
				"y": 0.2700220882,
				"z": 3.7332535968,
				"element": "H" 
			},
			{
				"x": 2.7160257426,
				"y": 1.6817436078,
				"z": 5.7734790358,
				"element": "H" 
			},
			{
				"x": 1.7971423449,
				"y": 2.9760241487,
				"z": 4.9780938824,
				"element": "H" 
			},
			{
				"x": 3.5401606606,
				"y": 2.8943320537,
				"z": 3.3740633242,
				"element": "H" 
			},
			{
				"x": 0.828413024,
				"y": -0.8404952719,
				"z": 2.5763569142,
				"element": "H" 
			},
			{
				"x": -0.1017229734,
				"y": -1.9388143645,
				"z": 0.5664752521,
				"element": "H" 
			}
		],
		 "valence_orbital": [ 
			{
				"type": "occ",
				"energy": -0.29218,
				"method": "rhf"
			},
			{
				"type": "occ",
				"energy": -0.27888,
				"method": "rhf"
			},
			{
				"type": "occ",
				"energy": -0.26765,
				"method": "rhf"
			},
			{
				"type": "occ",
				"energy": -0.25487,
				"method": "rhf"
			},
			{
				"type": "occ",
				"energy": -0.20318,
				"method": "rhf"
			},
			{
				"type": "unocc",
				"energy": -0.00623,
				"method": "rhf"
			},
			{
				"type": "unocc",
				"energy": 0.02195,
				"method": "rhf"
			},
			{
				"type": "unocc",
				"energy": 0.06187,
				"method": "rhf"
			},
			{
				"type": "unocc",
				"energy": 0.08755,
				"method": "rhf"
			},
			{
				"type": "unocc",
				"energy": 0.09415,
				"method": "rhf"
			}
		],
		"cosmo_sigma_profile": { 
			"-0.025": 0.0,
			"-0.024": 0.0,
			"-0.023": 0.0,
			"-0.022": 0.0,
			"-0.021": 0.0,
			"-0.02": 0.0,
			"-0.019": 0.0,
			"-0.018": 0.0,
			"-0.017": 0.0,
			"-0.016": 0.560002442382,
			"-0.015": 1.19550247937,
			"-0.014": 1.04393900438,
			"-0.013": 1.61241548866,
			"-0.012": 1.51565855414,
			"-0.011": 2.18914058597,
			"-0.01": 0.916860812092,
			"-0.009": 1.30582127024,
			"-0.008": 1.70124358706,
			"-0.007": 3.47701143505,
			"-0.006": 11.9410628958,
			"-0.005": 26.7503169505,
			"-0.004": 28.0886993442,
			"-0.003": 19.7944325235,
			"-0.002": 17.588515161,
			"-0.001": 13.3058862418,
			"0.0": 11.833900309,
			"0.001": 10.1971061761,
			"0.002": 9.50266604439,
			"0.003": 12.7483558009,
			"0.004": 16.4243492031,
			"0.005": 16.8387804151,
			"0.006": 8.82990297926,
			"0.007": 4.87510499821,
			"0.008": 4.03879064749,
			"0.009": 4.69549702521,
			"0.01": 2.93873915602,
			"0.011": 1.91493530213,
			"0.012": 2.6964689608,
			"0.013": 4.20056314734,
			"0.014": 4.21824972572,
			"0.015": 0.749207359009,
			"0.016": 0.0,
			"0.017": 0.0,
			"0.018": 0.0,
			"0.019": 0.0,
			"0.02": 0.0,
			"0.021": 0.0,
			"0.022": 0.0,
			"0.023": 0.0,
			"0.024": 0.0,
			"0.025": 0.0
		}
	}
}
