{
	 "smiles": "CS(=O)(=O)C1=C(C=C(F)C=C1)[N+]([O-])=O", 
	 "Tm": 422.15, 
	 "num_atms": 20, 
	 "gaussian": { 
		 "optdone": 1, 
		 "sigma_profile": "yes", 
		 "theory": "DFT", 
		 "functional": "B3LYP", 
		 "basiset": "6-31G**", 
		 "properties": { 
			 "R2extent": 3743.2406, 
			 "electric_dipole_moment_norm": 7.26916090137, 
			 "electric_quadrupole_moment_norm": 23.4892007097, 
			 "total_energy": -1123.83585829, 
			 "HOMO_LUMO_gap": 0.18546, 
			 "cosmo_polarized_energy": -22.29, 
			 "cosmo_cavitation_energy": 27.02, 
			 "cosmo_dispersion_energy": -19.71, 
			 "cosmo_repulsion_energy": 1.46, 
			 "cosmo_total_nonelectrostatic_energy": 8.77, 
			 "SMD_solvation_energy": 7.15 
		},
		"coords": [
			{
				"x": 2.2627688712,
				"y": -1.7815985332,
				"z": -2.208888544,
				"element": "C" 
			},
			{
				"x": 0.7536218137,
				"y": -2.4624411187,
				"z": -1.4726876732,
				"element": "S" 
			},
			{
				"x": 1.1641531185,
				"y": -3.4291643026,
				"z": -0.4507671504,
				"element": "O" 
			},
			{
				"x": -0.1065733009,
				"y": -2.8339909113,
				"z": -2.6010204589,
				"element": "O" 
			},
			{
				"x": -0.0108196682,
				"y": -1.0136333271,
				"z": -0.6602553035,
				"element": "C" 
			},
			{
				"x": -1.3990008987,
				"y": -0.8653935931,
				"z": -0.5256724846,
				"element": "C" 
			},
			{
				"x": -1.9662644575,
				"y": 0.2890928716,
				"z": 0.0015606922,
				"element": "C" 
			},
			{
				"x": -1.1199173066,
				"y": 1.2969051139,
				"z": 0.4466321822,
				"element": "C" 
			},
			{
				"x": -1.6555685211,
				"y": 2.4070242008,
				"z": 0.9713128572,
				"element": "F" 
			},
			{
				"x": 0.2617863549,
				"y": 1.178583766,
				"z": 0.3674119601,
				"element": "C" 
			},
			{
				"x": 0.8033693895,
				"y": 0.0234081993,
				"z": -0.1949370279,
				"element": "C" 
			},
			{
				"x": -2.3517666972,
				"y": -1.9464151955,
				"z": -0.8620542843,
				"element": "N" 
			},
			{
				"x": -2.0236707844,
				"y": -3.0851066622,
				"z": -0.5568521356,
				"element": "O" 
			},
			{
				"x": -3.4208212335,
				"y": -1.6070212959,
				"z": -1.3611864059,
				"element": "O" 
			},
			{
				"x": 2.9984931953,
				"y": -1.5321463382,
				"z": -1.444669889,
				"element": "H" 
			},
			{
				"x": 2.0182872808,
				"y": -0.9260860813,
				"z": -2.839291879,
				"element": "H" 
			},
			{
				"x": 2.6380568762,
				"y": -2.6013912909,
				"z": -2.8249364233,
				"element": "H" 
			},
			{
				"x": -3.0422049245,
				"y": 0.3880273707,
				"z": 0.0701820779,
				"element": "H" 
			},
			{
				"x": 0.8944141525,
				"y": 1.9793666093,
				"z": 0.732950641,
				"element": "H" 
			},
			{
				"x": 1.88095674,
				"y": -0.0561194816,
				"z": -0.2696307513,
				"element": "H" 
			}
		],
		 "valence_orbital": [ 
			{
				"type": "occ",
				"energy": -0.31671,
				"method": "rhf"
			},
			{
				"type": "occ",
				"energy": -0.311,
				"method": "rhf"
			},
			{
				"type": "occ",
				"energy": -0.30056,
				"method": "rhf"
			},
			{
				"type": "occ",
				"energy": -0.29459,
				"method": "rhf"
			},
			{
				"type": "occ",
				"energy": -0.28527,
				"method": "rhf"
			},
			{
				"type": "unocc",
				"energy": -0.09981,
				"method": "rhf"
			},
			{
				"type": "unocc",
				"energy": -0.05908,
				"method": "rhf"
			},
			{
				"type": "unocc",
				"energy": -0.037,
				"method": "rhf"
			},
			{
				"type": "unocc",
				"energy": 0.02259,
				"method": "rhf"
			},
			{
				"type": "unocc",
				"energy": 0.04961,
				"method": "rhf"
			}
		],
		"cosmo_sigma_profile": { 
			"-0.025": 0.0,
			"-0.024": 0.0,
			"-0.023": 0.0,
			"-0.022": 0.0,
			"-0.021": 0.0,
			"-0.02": 0.0,
			"-0.019": 0.0,
			"-0.018": 0.0,
			"-0.017": 0.0,
			"-0.016": 0.0,
			"-0.015": 0.0,
			"-0.014": 0.0,
			"-0.013": 0.36001547813,
			"-0.012": 1.42855063219,
			"-0.011": 1.98942022041,
			"-0.01": 5.02947809183,
			"-0.009": 12.2113135059,
			"-0.008": 9.4037336121,
			"-0.007": 11.3224592882,
			"-0.006": 9.07334362431,
			"-0.005": 10.0768015322,
			"-0.004": 10.3246323363,
			"-0.003": 18.092907637,
			"-0.002": 15.4173170928,
			"-0.001": 11.3846836167,
			"0.0": 7.8539441447,
			"0.001": 6.40844032776,
			"0.002": 7.61967265241,
			"0.003": 12.6665343897,
			"0.004": 4.94591816442,
			"0.005": 4.88662760157,
			"0.006": 7.81563577391,
			"0.007": 10.3001260138,
			"0.008": 8.94052371141,
			"0.009": 7.1931801408,
			"0.01": 9.55119219245,
			"0.011": 10.7507079005,
			"0.012": 2.05785201154,
			"0.013": 0.0,
			"0.014": 0.0,
			"0.015": 0.0,
			"0.016": 0.0,
			"0.017": 0.0,
			"0.018": 0.0,
			"0.019": 0.0,
			"0.02": 0.0,
			"0.021": 0.0,
			"0.022": 0.0,
			"0.023": 0.0,
			"0.024": 0.0,
			"0.025": 0.0
		}
	}
}
