{
	 "smiles": "CC1=C(Br)SC(=C1)[N+]([O-])=O", 
	 "Tm": 311.15, 
	 "num_atms": 14, 
	 "gaussian": { 
		 "optdone": 1, 
		 "sigma_profile": "yes", 
		 "theory": "DFT", 
		 "functional": "B3LYP", 
		 "basiset": "6-31G**", 
		 "properties": { 
			 "R2extent": 3502.7769, 
			 "electric_dipole_moment_norm": 4.62353753526, 
			 "electric_quadrupole_moment_norm": 7.56805144935, 
			 "total_energy": -3367.61085213, 
			 "HOMO_LUMO_gap": 0.15515, 
			 "cosmo_polarized_energy": -7.57, 
			 "cosmo_cavitation_energy": 23.12, 
			 "cosmo_dispersion_energy": -17.81, 
			 "cosmo_repulsion_energy": 1.4, 
			 "cosmo_total_nonelectrostatic_energy": 6.72, 
			 "SMD_solvation_energy": 5.13 
		},
		"coords": [
			{
				"x": -2.462581499,
				"y": 0.4851761213,
				"z": 2.5253856028,
				"element": "C" 
			},
			{
				"x": -1.7263208891,
				"y": 0.0485951094,
				"z": 1.2896728028,
				"element": "C" 
			},
			{
				"x": -1.3657822408,
				"y": -1.2523484395,
				"z": 0.9995658508,
				"element": "C" 
			},
			{
				"x": -1.7150888476,
				"y": -2.7533273393,
				"z": 2.0797279607,
				"element": "Br" 
			},
			{
				"x": -0.5215215217,
				"y": -1.4503363912,
				"z": -0.5048721618,
				"element": "S" 
			},
			{
				"x": -0.6506241687,
				"y": 0.2618821774,
				"z": -0.7622115439,
				"element": "C" 
			},
			{
				"x": -1.3000921697,
				"y": 0.9211769708,
				"z": 0.2482714936,
				"element": "C" 
			},
			{
				"x": -0.1009577913,
				"y": 0.8469301836,
				"z": -1.9486262875,
				"element": "N" 
			},
			{
				"x": -0.2172592523,
				"y": 2.0654792655,
				"z": -2.0868331585,
				"element": "O" 
			},
			{
				"x": 0.4505272118,
				"y": 0.0813338347,
				"z": -2.7466248323,
				"element": "O" 
			},
			{
				"x": -2.6270965308,
				"y": 1.5649565895,
				"z": 2.5158755127,
				"element": "H" 
			},
			{
				"x": -3.4371124512,
				"y": -0.0082198519,
				"z": 2.6008000811,
				"element": "H" 
			},
			{
				"x": -1.9008429172,
				"y": 0.2331891204,
				"z": 3.4308115113,
				"element": "H" 
			},
			{
				"x": -1.4603469324,
				"y": 1.9920126494,
				"z": 0.2343571682,
				"element": "H" 
			}
		],
		 "valence_orbital": [ 
			{
				"type": "occ",
				"energy": -0.31425,
				"method": "rhf"
			},
			{
				"type": "occ",
				"energy": -0.31354,
				"method": "rhf"
			},
			{
				"type": "occ",
				"energy": -0.29646,
				"method": "rhf"
			},
			{
				"type": "occ",
				"energy": -0.28378,
				"method": "rhf"
			},
			{
				"type": "occ",
				"energy": -0.25678,
				"method": "rhf"
			},
			{
				"type": "unocc",
				"energy": -0.10163,
				"method": "rhf"
			},
			{
				"type": "unocc",
				"energy": -0.02428,
				"method": "rhf"
			},
			{
				"type": "unocc",
				"energy": -0.02015,
				"method": "rhf"
			},
			{
				"type": "unocc",
				"energy": -0.00089,
				"method": "rhf"
			},
			{
				"type": "unocc",
				"energy": 0.0439,
				"method": "rhf"
			}
		],
		"cosmo_sigma_profile": { 
			"-0.025": 0.0,
			"-0.024": 0.0,
			"-0.023": 0.0,
			"-0.022": 0.0,
			"-0.021": 0.0,
			"-0.02": 0.0,
			"-0.019": 0.0,
			"-0.018": 0.0,
			"-0.017": 0.0,
			"-0.016": 0.0,
			"-0.015": 0.0,
			"-0.014": 0.0,
			"-0.013": 0.0,
			"-0.012": 0.0,
			"-0.011": 0.0,
			"-0.01": 0.177810238651,
			"-0.009": 1.52507349235,
			"-0.008": 1.79751384613,
			"-0.007": 2.62057322224,
			"-0.006": 6.56192082995,
			"-0.005": 9.70893852173,
			"-0.004": 11.445078813,
			"-0.003": 16.0593369434,
			"-0.002": 22.3621028735,
			"-0.001": 29.3631705243,
			"0.0": 20.8822591469,
			"0.001": 15.1092479835,
			"0.002": 13.2381754125,
			"0.003": 6.23642336297,
			"0.004": 3.42309905565,
			"0.005": 3.15657853872,
			"0.006": 3.13309095974,
			"0.007": 8.52417076787,
			"0.008": 8.6771796406,
			"0.009": 4.24078672231,
			"0.01": 2.52936492378,
			"0.011": 0.115347532286,
			"0.012": 0.0,
			"0.013": 0.0,
			"0.014": 0.0,
			"0.015": 0.0,
			"0.016": 0.0,
			"0.017": 0.0,
			"0.018": 0.0,
			"0.019": 0.0,
			"0.02": 0.0,
			"0.021": 0.0,
			"0.022": 0.0,
			"0.023": 0.0,
			"0.024": 0.0,
			"0.025": 0.0
		}
	}
}
