{
	 "smiles": "ClC1=CC2=CC=C(Cl)C=C2C=C1", 
	 "Tm": 413.15, 
	 "num_atms": 18, 
	 "gaussian": { 
		 "optdone": 1, 
		 "sigma_profile": "yes", 
		 "theory": "DFT", 
		 "functional": "B3LYP", 
		 "basiset": "6-31G**", 
		 "properties": { 
			 "R2extent": 3565.4702, 
			 "electric_dipole_moment_norm": 0.0, 
			 "electric_quadrupole_moment_norm": 13.5621865966, 
			 "total_energy": -1305.0787316, 
			 "HOMO_LUMO_gap": 0.17112, 
			 "cosmo_polarized_energy": -5.19, 
			 "cosmo_cavitation_energy": 25.81, 
			 "cosmo_dispersion_energy": -19.54, 
			 "cosmo_repulsion_energy": 1.53, 
			 "cosmo_total_nonelectrostatic_energy": 7.81, 
			 "SMD_solvation_energy": 3.53 
		},
		"coords": [
			{
				"x": 3.6401789589,
				"y": 0.0627712613,
				"z": -2.2697010558,
				"element": "Cl" 
			},
			{
				"x": 1.9696361099,
				"y": 0.1513904241,
				"z": -1.7319828392,
				"element": "C" 
			},
			{
				"x": 1.685300448,
				"y": 0.216148595,
				"z": -0.3885036493,
				"element": "C" 
			},
			{
				"x": 0.3348082248,
				"y": 0.2877074474,
				"z": 0.0439103913,
				"element": "C" 
			},
			{
				"x": -0.0108026779,
				"y": 0.3562810377,
				"z": 1.4207030155,
				"element": "C" 
			},
			{
				"x": -1.3247052745,
				"y": 0.4250890423,
				"z": 1.8215862507,
				"element": "C" 
			},
			{
				"x": -2.3497582182,
				"y": 0.4276095589,
				"z": 0.8451936339,
				"element": "C" 
			},
			{
				"x": -4.0203008093,
				"y": 0.5162288582,
				"z": 1.3829134319,
				"element": "Cl" 
			},
			{
				"x": -2.0654233067,
				"y": 0.3628514354,
				"z": -0.4982852279,
				"element": "C" 
			},
			{
				"x": -0.7149305361,
				"y": 0.2912925254,
				"z": -0.9306995821,
				"element": "C" 
			},
			{
				"x": -0.3693193448,
				"y": 0.2227189735,
				"z": -2.3074913729,
				"element": "C" 
			},
			{
				"x": 0.9445833887,
				"y": 0.1539109414,
				"z": -2.7083752751,
				"element": "C" 
			},
			{
				"x": 2.4853979701,
				"y": 0.2130049409,
				"z": 0.3442687969,
				"element": "H" 
			},
			{
				"x": 0.7819568585,
				"y": 0.3538634323,
				"z": 2.1635876318,
				"element": "H" 
			},
			{
				"x": -1.5871727259,
				"y": 0.4773756475,
				"z": 2.8722225427,
				"element": "H" 
			},
			{
				"x": -2.8655202579,
				"y": 0.3659950452,
				"z": -1.2310582543,
				"element": "H" 
			},
			{
				"x": -1.1620784694,
				"y": 0.225136487,
				"z": -3.0503765937,
				"element": "H" 
			},
			{
				"x": 1.2070496616,
				"y": 0.1016243465,
				"z": -3.7590118445,
				"element": "H" 
			}
		],
		 "valence_orbital": [ 
			{
				"type": "occ",
				"energy": -0.31741,
				"method": "rhf"
			},
			{
				"type": "occ",
				"energy": -0.31487,
				"method": "rhf"
			},
			{
				"type": "occ",
				"energy": -0.29153,
				"method": "rhf"
			},
			{
				"type": "occ",
				"energy": -0.25314,
				"method": "rhf"
			},
			{
				"type": "occ",
				"energy": -0.22909,
				"method": "rhf"
			},
			{
				"type": "unocc",
				"energy": -0.05797,
				"method": "rhf"
			},
			{
				"type": "unocc",
				"energy": -0.02881,
				"method": "rhf"
			},
			{
				"type": "unocc",
				"energy": 0.01173,
				"method": "rhf"
			},
			{
				"type": "unocc",
				"energy": 0.02077,
				"method": "rhf"
			},
			{
				"type": "unocc",
				"energy": 0.02962,
				"method": "rhf"
			}
		],
		"cosmo_sigma_profile": { 
			"-0.025": 0.0,
			"-0.024": 0.0,
			"-0.023": 0.0,
			"-0.022": 0.0,
			"-0.021": 0.0,
			"-0.02": 0.0,
			"-0.019": 0.0,
			"-0.018": 0.0,
			"-0.017": 0.0,
			"-0.016": 0.0,
			"-0.015": 0.0,
			"-0.014": 0.0,
			"-0.013": 0.0,
			"-0.012": 0.0,
			"-0.011": 0.0,
			"-0.01": 0.0,
			"-0.009": 0.0,
			"-0.008": 3.34096881112,
			"-0.007": 13.0801140363,
			"-0.006": 11.055891004,
			"-0.005": 10.1898448345,
			"-0.004": 6.97881237161,
			"-0.003": 10.0743524061,
			"-0.002": 9.02233649344,
			"-0.001": 12.9318786519,
			"0.0": 15.1795379424,
			"0.001": 21.7488381262,
			"0.002": 40.3933048041,
			"0.003": 27.8096408116,
			"0.004": 19.1380163129,
			"0.005": 11.7412911671,
			"0.006": 0.00256038276395,
			"0.007": 0.0,
			"0.008": 0.0,
			"0.009": 0.0,
			"0.01": 0.0,
			"0.011": 0.0,
			"0.012": 0.0,
			"0.013": 0.0,
			"0.014": 0.0,
			"0.015": 0.0,
			"0.016": 0.0,
			"0.017": 0.0,
			"0.018": 0.0,
			"0.019": 0.0,
			"0.02": 0.0,
			"0.021": 0.0,
			"0.022": 0.0,
			"0.023": 0.0,
			"0.024": 0.0,
			"0.025": 0.0
		}
	}
}
