{
	 "smiles": "NC1=CC=C(C=C1)C1=NC2=C(N1)C=CC=C2", 
	 "Tm": 493.15, 
	 "num_atms": 27, 
	 "gaussian": { 
		 "optdone": 1, 
		 "sigma_profile": "yes", 
		 "theory": "DFT", 
		 "functional": "B3LYP", 
		 "basiset": "6-31G**", 
		 "properties": { 
			 "R2extent": 5012.2367, 
			 "electric_dipole_moment_norm": 4.56795562478, 
			 "electric_quadrupole_moment_norm": 17.0690394566, 
			 "total_energy": -666.294228744, 
			 "HOMO_LUMO_gap": 0.1605, 
			 "cosmo_polarized_energy": -18.62, 
			 "cosmo_cavitation_energy": 31.13, 
			 "cosmo_dispersion_energy": -23.47, 
			 "cosmo_repulsion_energy": 1.79, 
			 "cosmo_total_nonelectrostatic_energy": 9.45, 
			 "SMD_solvation_energy": 3.03 
		},
		"coords": [
			{
				"x": 3.8714986269,
				"y": 2.1789419505,
				"z": 3.3737435397,
				"element": "N" 
			},
			{
				"x": 2.9249927664,
				"y": 1.7238668138,
				"z": 2.4626425271,
				"element": "C" 
			},
			{
				"x": 3.1058081091,
				"y": 0.5078625337,
				"z": 1.7800236383,
				"element": "C" 
			},
			{
				"x": 2.1832418846,
				"y": 0.0857595802,
				"z": 0.8301739498,
				"element": "C" 
			},
			{
				"x": 1.0497047843,
				"y": 0.8547575776,
				"z": 0.5218492769,
				"element": "C" 
			},
			{
				"x": 0.8710883002,
				"y": 2.0681728602,
				"z": 1.2109409209,
				"element": "C" 
			},
			{
				"x": 1.7860992763,
				"y": 2.4957123503,
				"z": 2.1597610823,
				"element": "C" 
			},
			{
				"x": 0.05471881,
				"y": 0.4481971154,
				"z": -0.4698466227,
				"element": "C" 
			},
			{
				"x": -1.0887811385,
				"y": 1.0691181226,
				"z": -0.687407947,
				"element": "N" 
			},
			{
				"x": -1.7093842354,
				"y": 0.3618310255,
				"z": -1.7008468602,
				"element": "C" 
			},
			{
				"x": -0.9023377577,
				"y": -0.7303991389,
				"z": -2.107443102,
				"element": "C" 
			},
			{
				"x": 0.2165722133,
				"y": -0.6514260137,
				"z": -1.298474853,
				"element": "N" 
			},
			{
				"x": -1.2839234524,
				"y": -1.6125147687,
				"z": -3.1187744981,
				"element": "C" 
			},
			{
				"x": -2.5159597254,
				"y": -1.3750267045,
				"z": -3.7264513871,
				"element": "C" 
			},
			{
				"x": -3.3335216949,
				"y": -0.2963055405,
				"z": -3.3345692456,
				"element": "C" 
			},
			{
				"x": -2.9451159012,
				"y": 0.5793140172,
				"z": -2.3247903657,
				"element": "C" 
			},
			{
				"x": 4.4631390198,
				"y": 1.4725476138,
				"z": 3.7875468875,
				"element": "H" 
			},
			{
				"x": 3.5434893813,
				"y": 2.8549821288,
				"z": 4.048825604,
				"element": "H" 
			},
			{
				"x": 3.9752989037,
				"y": -0.1064874211,
				"z": 1.9997404994,
				"element": "H" 
			},
			{
				"x": 2.3540122533,
				"y": -0.8706083688,
				"z": 0.3422901195,
				"element": "H" 
			},
			{
				"x": -0.0060706991,
				"y": 2.6634966417,
				"z": 0.9819003415,
				"element": "H" 
			},
			{
				"x": 1.6291448489,
				"y": 3.4400762628,
				"z": 2.6752636844,
				"element": "H" 
			},
			{
				"x": 1.0285428303,
				"y": -1.2444685933,
				"z": -1.3504152179,
				"element": "H" 
			},
			{
				"x": -0.6567319035,
				"y": -2.4455691616,
				"z": -3.4227920691,
				"element": "H" 
			},
			{
				"x": -2.8525480054,
				"y": -2.0369758427,
				"z": -4.5189631096,
				"element": "H" 
			},
			{
				"x": -4.2865757377,
				"y": -0.1484040267,
				"z": -3.8340292569,
				"element": "H" 
			},
			{
				"x": -3.5710017573,
				"y": 1.4117489863,
				"z": -2.0195975366,
				"element": "H" 
			}
		],
		 "valence_orbital": [ 
			{
				"type": "occ",
				"energy": -0.26017,
				"method": "rhf"
			},
			{
				"type": "occ",
				"energy": -0.25396,
				"method": "rhf"
			},
			{
				"type": "occ",
				"energy": -0.2343,
				"method": "rhf"
			},
			{
				"type": "occ",
				"energy": -0.21719,
				"method": "rhf"
			},
			{
				"type": "occ",
				"energy": -0.18979,
				"method": "rhf"
			},
			{
				"type": "unocc",
				"energy": -0.02929,
				"method": "rhf"
			},
			{
				"type": "unocc",
				"energy": -0.00288,
				"method": "rhf"
			},
			{
				"type": "unocc",
				"energy": 0.02228,
				"method": "rhf"
			},
			{
				"type": "unocc",
				"energy": 0.03495,
				"method": "rhf"
			},
			{
				"type": "unocc",
				"energy": 0.06631,
				"method": "rhf"
			}
		],
		"cosmo_sigma_profile": { 
			"-0.025": 0.0,
			"-0.024": 0.0,
			"-0.023": 0.0,
			"-0.022": 0.0,
			"-0.021": 0.0,
			"-0.02": 0.0,
			"-0.019": 0.0,
			"-0.018": 0.0,
			"-0.017": 0.0531521971083,
			"-0.016": 1.09190311593,
			"-0.015": 1.58336230133,
			"-0.014": 1.18663749739,
			"-0.013": 2.34214913721,
			"-0.012": 4.08867706327,
			"-0.011": 4.42158460287,
			"-0.01": 4.74568174949,
			"-0.009": 4.06312480921,
			"-0.008": 4.62873101406,
			"-0.007": 6.23903379193,
			"-0.006": 9.43870243853,
			"-0.005": 13.539153356,
			"-0.004": 14.4203077715,
			"-0.003": 15.9334847644,
			"-0.002": 11.4862535505,
			"-0.001": 11.1715862027,
			"0.0": 9.98646762497,
			"0.001": 13.2375265844,
			"0.002": 16.5445923798,
			"0.003": 16.8337051944,
			"0.004": 20.0702535068,
			"0.005": 24.1964387104,
			"0.006": 16.5599762201,
			"0.007": 6.36179504495,
			"0.008": 2.03088314673,
			"0.009": 2.68366150888,
			"0.01": 2.28240919157,
			"0.011": 1.91100708035,
			"0.012": 1.93803507539,
			"0.013": 1.26128869874,
			"0.014": 1.48022762091,
			"0.015": 0.80871880755,
			"0.016": 0.737456344737,
			"0.017": 0.0531180179516,
			"0.018": 0.0,
			"0.019": 0.0,
			"0.02": 0.0,
			"0.021": 0.0,
			"0.022": 0.0,
			"0.023": 0.0,
			"0.024": 0.0,
			"0.025": 0.0
		}
	}
}
