{
	 "smiles": "NC(=O)C1CCCN(C1)C1=CC=C(C=C1)C(O)=O", 
	 "Tm": 533.15, 
	 "num_atms": 34, 
	 "gaussian": { 
		 "optdone": 1, 
		 "sigma_profile": "yes", 
		 "theory": "DFT", 
		 "functional": "B3LYP", 
		 "basiset": "6-31G**", 
		 "properties": { 
			 "R2extent": 7046.4937, 
			 "electric_dipole_moment_norm": 3.8636312117, 
			 "electric_quadrupole_moment_norm": 16.5444661343, 
			 "total_energy": -840.245001205, 
			 "HOMO_LUMO_gap": 0.1774, 
			 "cosmo_polarized_energy": -19.54, 
			 "cosmo_cavitation_energy": 35.88, 
			 "cosmo_dispersion_energy": -25.93, 
			 "cosmo_repulsion_energy": 1.99, 
			 "cosmo_total_nonelectrostatic_energy": 11.94, 
			 "SMD_solvation_energy": 7.36 
		},
		"coords": [
			{
				"x": 2.3444221302,
				"y": -1.8627543525,
				"z": -1.9923337432,
				"element": "N" 
			},
			{
				"x": 3.0316035345,
				"y": -0.6853404459,
				"z": -2.0870605849,
				"element": "C" 
			},
			{
				"x": 4.1166979072,
				"y": -0.5922228976,
				"z": -2.6448776415,
				"element": "O" 
			},
			{
				"x": 2.3708625626,
				"y": 0.5497071442,
				"z": -1.4497297458,
				"element": "C" 
			},
			{
				"x": 3.0092716925,
				"y": 0.857159522,
				"z": -0.0768008234,
				"element": "C" 
			},
			{
				"x": 2.4931711793,
				"y": -0.1067289575,
				"z": 0.9973416125,
				"element": "C" 
			},
			{
				"x": 0.960406703,
				"y": -0.13427723,
				"z": 1.0448441762,
				"element": "C" 
			},
			{
				"x": 0.3991784236,
				"y": -0.4554200891,
				"z": -0.2740987722,
				"element": "N" 
			},
			{
				"x": 0.8414406704,
				"y": 0.4995211053,
				"z": -1.314266727,
				"element": "C" 
			},
			{
				"x": -0.9548807048,
				"y": -0.861075124,
				"z": -0.3328203703,
				"element": "C" 
			},
			{
				"x": -1.4687439682,
				"y": -1.3929933135,
				"z": -1.5369763199,
				"element": "C" 
			},
			{
				"x": -2.7786734912,
				"y": -1.8345903725,
				"z": -1.6180499645,
				"element": "C" 
			},
			{
				"x": -3.627950118,
				"y": -1.7716454485,
				"z": -0.5017591092,
				"element": "C" 
			},
			{
				"x": -3.126374321,
				"y": -1.253356317,
				"z": 0.6970503466,
				"element": "C" 
			},
			{
				"x": -1.8124492543,
				"y": -0.8000170293,
				"z": 0.782141372,
				"element": "C" 
			},
			{
				"x": -5.0166690059,
				"y": -2.2626804391,
				"z": -0.6444862955,
				"element": "C" 
			},
			{
				"x": -5.7408897132,
				"y": -2.160639554,
				"z": 0.5016302199,
				"element": "O" 
			},
			{
				"x": -5.4958184918,
				"y": -2.7174950797,
				"z": -1.6663016093,
				"element": "O" 
			},
			{
				"x": 1.5625779012,
				"y": -1.9384669485,
				"z": -1.353046761,
				"element": "H" 
			},
			{
				"x": 2.812340846,
				"y": -2.6951806055,
				"z": -2.3205301788,
				"element": "H" 
			},
			{
				"x": 2.6181833719,
				"y": 1.3673553532,
				"z": -2.1347138897,
				"element": "H" 
			},
			{
				"x": 2.7491058338,
				"y": 1.8867640289,
				"z": 0.2032739433,
				"element": "H" 
			},
			{
				"x": 4.0990963827,
				"y": 0.8105523004,
				"z": -0.1599723862,
				"element": "H" 
			},
			{
				"x": 2.8699382159,
				"y": 0.1834463032,
				"z": 1.9845398103,
				"element": "H" 
			},
			{
				"x": 2.8625028566,
				"y": -1.1198866879,
				"z": 0.8004101291,
				"element": "H" 
			},
			{
				"x": 0.5837828404,
				"y": 0.8401764107,
				"z": 1.4064575223,
				"element": "H" 
			},
			{
				"x": 0.6306115581,
				"y": -0.8971156501,
				"z": 1.7547384645,
				"element": "H" 
			},
			{
				"x": 0.3857177263,
				"y": 0.2270425226,
				"z": -2.266217541,
				"element": "H" 
			},
			{
				"x": 0.4795322786,
				"y": 1.5115585108,
				"z": -1.0618741902,
				"element": "H" 
			},
			{
				"x": -0.821047736,
				"y": -1.4884414977,
				"z": -2.4023893225,
				"element": "H" 
			},
			{
				"x": -3.1664270743,
				"y": -2.2508580076,
				"z": -2.5418307513,
				"element": "H" 
			},
			{
				"x": -3.7726505413,
				"y": -1.192329303,
				"z": 1.5656030556,
				"element": "H" 
			},
			{
				"x": -1.4663798527,
				"y": -0.3816666278,
				"z": 1.7191496169,
				"element": "H" 
			},
			{
				"x": -6.6212903421,
				"y": -2.5074012229,
				"z": 0.2835564582,
				"element": "H" 
			}
		],
		 "valence_orbital": [ 
			{
				"type": "occ",
				"energy": -0.27352,
				"method": "rhf"
			},
			{
				"type": "occ",
				"energy": -0.26505,
				"method": "rhf"
			},
			{
				"type": "occ",
				"energy": -0.26403,
				"method": "rhf"
			},
			{
				"type": "occ",
				"energy": -0.24194,
				"method": "rhf"
			},
			{
				"type": "occ",
				"energy": -0.22205,
				"method": "rhf"
			},
			{
				"type": "unocc",
				"energy": -0.04465,
				"method": "rhf"
			},
			{
				"type": "unocc",
				"energy": -0.01401,
				"method": "rhf"
			},
			{
				"type": "unocc",
				"energy": 0.02846,
				"method": "rhf"
			},
			{
				"type": "unocc",
				"energy": 0.0556,
				"method": "rhf"
			},
			{
				"type": "unocc",
				"energy": 0.0728,
				"method": "rhf"
			}
		],
		"cosmo_sigma_profile": { 
			"-0.025": 0.0,
			"-0.024": 0.0,
			"-0.023": 0.0,
			"-0.022": 0.0,
			"-0.021": 0.0,
			"-0.02": 0.0,
			"-0.019": 0.0,
			"-0.018": 0.603046029028,
			"-0.017": 0.694659972583,
			"-0.016": 0.981630642804,
			"-0.015": 1.11452317062,
			"-0.014": 0.411197658085,
			"-0.013": 1.20731938245,
			"-0.012": 1.6498516617,
			"-0.011": 2.23126476789,
			"-0.01": 2.02386229285,
			"-0.009": 1.78245763626,
			"-0.008": 2.12521989291,
			"-0.007": 3.55687284747,
			"-0.006": 9.30381809638,
			"-0.005": 16.7596289191,
			"-0.004": 29.8317657147,
			"-0.003": 32.1546531971,
			"-0.002": 27.9373733365,
			"-0.001": 22.7088390514,
			"0.0": 18.5829910165,
			"0.001": 13.5647032768,
			"0.002": 12.8029050843,
			"0.003": 14.6159645782,
			"0.004": 16.0325565484,
			"0.005": 6.41389819622,
			"0.006": 5.44753071314,
			"0.007": 4.49137294914,
			"0.008": 4.31190622674,
			"0.009": 2.41510774586,
			"0.01": 2.40491035104,
			"0.011": 4.20584881939,
			"0.012": 7.07564205834,
			"0.013": 3.5071665865,
			"0.014": 5.64368183946,
			"0.015": 3.28442894529,
			"0.016": 0.224146206905,
			"0.017": 0.0,
			"0.018": 0.0,
			"0.019": 0.0,
			"0.02": 0.0,
			"0.021": 0.0,
			"0.022": 0.0,
			"0.023": 0.0,
			"0.024": 0.0,
			"0.025": 0.0
		}
	}
}
