{
	 "smiles": "C1CCCCCC=CCCCC1", 
	 "Tm": 264.15, 
	 "num_atms": 34, 
	 "gaussian": { 
		 "optdone": 1, 
		 "sigma_profile": "yes", 
		 "theory": "DFT", 
		 "functional": "B3LYP", 
		 "basiset": "6-31G**", 
		 "properties": { 
			 "R2extent": 2444.4635, 
			 "electric_dipole_moment_norm": 0.287752063416, 
			 "electric_quadrupole_moment_norm": 2.21559696245, 
			 "total_energy": -470.524987868, 
			 "HOMO_LUMO_gap": 0.25826, 
			 "cosmo_polarized_energy": -1.26, 
			 "cosmo_cavitation_energy": 30.09, 
			 "cosmo_dispersion_energy": -22.14, 
			 "cosmo_repulsion_energy": 1.76, 
			 "cosmo_total_nonelectrostatic_energy": 9.7, 
			 "SMD_solvation_energy": 3.64 
		},
		"coords": [
			{
				"x": -0.3206905063,
				"y": 2.4245092906,
				"z": 0.7960787181,
				"element": "C" 
			},
			{
				"x": 0.4717399911,
				"y": 2.292595609,
				"z": -0.522895075,
				"element": "C" 
			},
			{
				"x": 1.9962001244,
				"y": 2.0603471444,
				"z": -0.4250894842,
				"element": "C" 
			},
			{
				"x": 2.545458227,
				"y": 0.6159635673,
				"z": -0.3753812273,
				"element": "C" 
			},
			{
				"x": 2.4503273706,
				"y": -0.2445318111,
				"z": -1.6663031166,
				"element": "C" 
			},
			{
				"x": 1.2626534417,
				"y": -1.2343856058,
				"z": -1.8419820089,
				"element": "C" 
			},
			{
				"x": -0.0006082926,
				"y": -0.6446111514,
				"z": -2.4136980955,
				"element": "C" 
			},
			{
				"x": -1.2652953552,
				"y": -0.7227990105,
				"z": -1.9751271362,
				"element": "C" 
			},
			{
				"x": -1.8182774393,
				"y": -1.3659559524,
				"z": -0.724633514,
				"element": "C" 
			},
			{
				"x": -1.9595673143,
				"y": -0.3461990452,
				"z": 0.4378982661,
				"element": "C" 
			},
			{
				"x": -0.6103291507,
				"y": -0.1429810029,
				"z": 1.1523994797,
				"element": "C" 
			},
			{
				"x": -0.3201260332,
				"y": 1.2311443476,
				"z": 1.7726893703,
				"element": "C" 
			},
			{
				"x": 0.0468250559,
				"y": 3.3041600228,
				"z": 1.3429041625,
				"element": "H" 
			},
			{
				"x": -1.3581420996,
				"y": 2.6634338548,
				"z": 0.5262407759,
				"element": "H" 
			},
			{
				"x": 0.0192522746,
				"y": 1.5196194504,
				"z": -1.1492300895,
				"element": "H" 
			},
			{
				"x": 0.3154055905,
				"y": 3.2350361605,
				"z": -1.064261663,
				"element": "H" 
			},
			{
				"x": 2.3794479478,
				"y": 2.5971565619,
				"z": 0.4544513019,
				"element": "H" 
			},
			{
				"x": 2.4701086343,
				"y": 2.5473632937,
				"z": -1.288531118,
				"element": "H" 
			},
			{
				"x": 2.1245374689,
				"y": 0.063426652,
				"z": 0.4715191405,
				"element": "H" 
			},
			{
				"x": 3.6144933531,
				"y": 0.7124676284,
				"z": -0.1448604797,
				"element": "H" 
			},
			{
				"x": 3.3609647327,
				"y": -0.8540962942,
				"z": -1.7082023382,
				"element": "H" 
			},
			{
				"x": 2.4994431804,
				"y": 0.4125831083,
				"z": -2.5459557919,
				"element": "H" 
			},
			{
				"x": 1.0716439134,
				"y": -1.7597781812,
				"z": -0.9002453618,
				"element": "H" 
			},
			{
				"x": 1.6055242133,
				"y": -2.0054361519,
				"z": -2.5485133056,
				"element": "H" 
			},
			{
				"x": 0.1594901166,
				"y": -0.0874686206,
				"z": -3.3391673734,
				"element": "H" 
			},
			{
				"x": -2.0158232553,
				"y": -0.2029812372,
				"z": -2.5726413172,
				"element": "H" 
			},
			{
				"x": -1.1919908692,
				"y": -2.2029085081,
				"z": -0.392901059,
				"element": "H" 
			},
			{
				"x": -2.801315779,
				"y": -1.7913215579,
				"z": -0.9616552293,
				"element": "H" 
			},
			{
				"x": -2.3354964318,
				"y": 0.6005211332,
				"z": 0.0314561892,
				"element": "H" 
			},
			{
				"x": -2.7170849791,
				"y": -0.6946184564,
				"z": 1.1507091774,
				"element": "H" 
			},
			{
				"x": -0.5040586179,
				"y": -0.9125916286,
				"z": 1.9286886469,
				"element": "H" 
			},
			{
				"x": 0.1789768616,
				"y": -0.3476407987,
				"z": 0.4296664651,
				"element": "H" 
			},
			{
				"x": 0.6598875903,
				"y": 1.1707226564,
				"z": 2.2652721379,
				"element": "H" 
			},
			{
				"x": -1.0403739646,
				"y": 1.4443545327,
				"z": 2.5747009529,
				"element": "H" 
			}
		],
		 "valence_orbital": [ 
			{
				"type": "occ",
				"energy": -0.30619,
				"method": "rhf"
			},
			{
				"type": "occ",
				"energy": -0.299,
				"method": "rhf"
			},
			{
				"type": "occ",
				"energy": -0.29896,
				"method": "rhf"
			},
			{
				"type": "occ",
				"energy": -0.29057,
				"method": "rhf"
			},
			{
				"type": "occ",
				"energy": -0.2336,
				"method": "rhf"
			},
			{
				"type": "unocc",
				"energy": 0.02466,
				"method": "rhf"
			},
			{
				"type": "unocc",
				"energy": 0.08341,
				"method": "rhf"
			},
			{
				"type": "unocc",
				"energy": 0.09863,
				"method": "rhf"
			},
			{
				"type": "unocc",
				"energy": 0.10147,
				"method": "rhf"
			},
			{
				"type": "unocc",
				"energy": 0.11172,
				"method": "rhf"
			}
		],
		"cosmo_sigma_profile": { 
			"-0.025": 0.0,
			"-0.024": 0.0,
			"-0.023": 0.0,
			"-0.022": 0.0,
			"-0.021": 0.0,
			"-0.02": 0.0,
			"-0.019": 0.0,
			"-0.018": 0.0,
			"-0.017": 0.0,
			"-0.016": 0.0,
			"-0.015": 0.0,
			"-0.014": 0.0,
			"-0.013": 0.0,
			"-0.012": 0.0,
			"-0.011": 0.0,
			"-0.01": 0.0,
			"-0.009": 0.0,
			"-0.008": 0.0,
			"-0.007": 0.0,
			"-0.006": 0.0,
			"-0.005": 0.0,
			"-0.004": 0.78512991738,
			"-0.003": 9.23049117309,
			"-0.002": 32.5847758702,
			"-0.001": 51.7211261893,
			"0.0": 54.4132212392,
			"0.001": 45.8509804338,
			"0.002": 21.4350298086,
			"0.003": 7.3925671706,
			"0.004": 2.57104414337,
			"0.005": 1.63635611854,
			"0.006": 1.55363228164,
			"0.007": 1.10012552905,
			"0.008": 0.306540573226,
			"0.009": 0.0,
			"0.01": 0.0,
			"0.011": 0.0,
			"0.012": 0.0,
			"0.013": 0.0,
			"0.014": 0.0,
			"0.015": 0.0,
			"0.016": 0.0,
			"0.017": 0.0,
			"0.018": 0.0,
			"0.019": 0.0,
			"0.02": 0.0,
			"0.021": 0.0,
			"0.022": 0.0,
			"0.023": 0.0,
			"0.024": 0.0,
			"0.025": 0.0
		}
	}
}
