{
	 "smiles": "CCC1=CC(=NN1C)C(O)=O", 
	 "Tm": 393.15, 
	 "num_atms": 21, 
	 "gaussian": { 
		 "optdone": 1, 
		 "sigma_profile": "yes", 
		 "theory": "DFT", 
		 "functional": "B3LYP", 
		 "basiset": "6-31G**", 
		 "properties": { 
			 "R2extent": 2690.1845, 
			 "electric_dipole_moment_norm": 7.41077392652, 
			 "electric_quadrupole_moment_norm": 21.2087520331, 
			 "total_energy": -532.72711431, 
			 "HOMO_LUMO_gap": 0.22991, 
			 "cosmo_polarized_energy": -14.39, 
			 "cosmo_cavitation_energy": 25.06, 
			 "cosmo_dispersion_energy": -18.16, 
			 "cosmo_repulsion_energy": 1.48, 
			 "cosmo_total_nonelectrostatic_energy": 8.39, 
			 "SMD_solvation_energy": 4.96 
		},
		"coords": [
			{
				"x": -2.5783148225,
				"y": -0.3182456693,
				"z": -0.850050844,
				"element": "C" 
			},
			{
				"x": -1.2116627016,
				"y": 0.3852870461,
				"z": -0.7482009049,
				"element": "C" 
			},
			{
				"x": -0.2195903061,
				"y": -0.3352640171,
				"z": 0.1164328361,
				"element": "C" 
			},
			{
				"x": 0.8143424612,
				"y": -1.1907005488,
				"z": -0.2229217011,
				"element": "C" 
			},
			{
				"x": 1.3805395713,
				"y": -1.5841178233,
				"z": 1.0050149977,
				"element": "C" 
			},
			{
				"x": 0.7502807512,
				"y": -1.0175057615,
				"z": 2.0397707906,
				"element": "N" 
			},
			{
				"x": -0.2160523369,
				"y": -0.2617468696,
				"z": 1.4884260606,
				"element": "N" 
			},
			{
				"x": -1.1160395893,
				"y": 0.4808631658,
				"z": 2.3546804082,
				"element": "C" 
			},
			{
				"x": 2.5294852638,
				"y": -2.4908632784,
				"z": 1.2486838038,
				"element": "C" 
			},
			{
				"x": 2.8360785512,
				"y": -2.6627837064,
				"z": 2.5554486881,
				"element": "O" 
			},
			{
				"x": 3.1491045657,
				"y": -3.0383345546,
				"z": 0.3658386441,
				"element": "O" 
			},
			{
				"x": -3.0665781846,
				"y": -0.3977796347,
				"z": 0.1264239044,
				"element": "H" 
			},
			{
				"x": -3.2473089036,
				"y": 0.2379194757,
				"z": -1.5138880482,
				"element": "H" 
			},
			{
				"x": -2.4641261502,
				"y": -1.3304103806,
				"z": -1.2484844093,
				"element": "H" 
			},
			{
				"x": -1.3517332253,
				"y": 1.4115681028,
				"z": -0.3856991268,
				"element": "H" 
			},
			{
				"x": -0.7749179811,
				"y": 0.4746339208,
				"z": -1.7477322907,
				"element": "H" 
			},
			{
				"x": 1.1289828116,
				"y": -1.4877208417,
				"z": -1.2114429628,
				"element": "H" 
			},
			{
				"x": -2.0829298056,
				"y": -0.0235380884,
				"z": 2.4504472238,
				"element": "H" 
			},
			{
				"x": -0.6467942166,
				"y": 0.5455966105,
				"z": 3.3356527857,
				"element": "H" 
			},
			{
				"x": -1.2751761126,
				"y": 1.4882207329,
				"z": 1.9627237544,
				"element": "H" 
			},
			{
				"x": 2.21171036,
				"y": -2.1307778804,
				"z": 3.0804763904,
				"element": "H" 
			}
		],
		 "valence_orbital": [ 
			{
				"type": "occ",
				"energy": -0.31556,
				"method": "rhf"
			},
			{
				"type": "occ",
				"energy": -0.30045,
				"method": "rhf"
			},
			{
				"type": "occ",
				"energy": -0.2626,
				"method": "rhf"
			},
			{
				"type": "occ",
				"energy": -0.26083,
				"method": "rhf"
			},
			{
				"type": "occ",
				"energy": -0.25631,
				"method": "rhf"
			},
			{
				"type": "unocc",
				"energy": -0.0264,
				"method": "rhf"
			},
			{
				"type": "unocc",
				"energy": 0.01731,
				"method": "rhf"
			},
			{
				"type": "unocc",
				"energy": 0.06386,
				"method": "rhf"
			},
			{
				"type": "unocc",
				"energy": 0.0955,
				"method": "rhf"
			},
			{
				"type": "unocc",
				"energy": 0.10324,
				"method": "rhf"
			}
		],
		"cosmo_sigma_profile": { 
			"-0.025": 0.0,
			"-0.024": 0.0,
			"-0.023": 0.0,
			"-0.022": 0.0,
			"-0.021": 0.0,
			"-0.02": 0.0,
			"-0.019": 0.0,
			"-0.018": 0.0,
			"-0.017": 0.0,
			"-0.016": 0.0,
			"-0.015": 0.0,
			"-0.014": 0.587211851521,
			"-0.013": 0.487398483571,
			"-0.012": 0.345763141138,
			"-0.011": 0.664052409331,
			"-0.01": 0.847263966096,
			"-0.009": 0.268400856519,
			"-0.008": 1.46019094808,
			"-0.007": 6.14942487221,
			"-0.006": 12.4365928246,
			"-0.005": 14.9254700523,
			"-0.004": 16.7710862827,
			"-0.003": 21.3984088079,
			"-0.002": 18.4074418312,
			"-0.001": 14.7564845497,
			"0.0": 15.1163458695,
			"0.001": 11.8008537503,
			"0.002": 10.3260921142,
			"0.003": 7.76973908925,
			"0.004": 6.60795110773,
			"0.005": 3.64570537304,
			"0.006": 4.04425155992,
			"0.007": 4.14713829191,
			"0.008": 3.20457744053,
			"0.009": 3.27276583456,
			"0.01": 4.92911498852,
			"0.011": 5.05265739516,
			"0.012": 6.0202010582,
			"0.013": 2.45207588765,
			"0.014": 0.315525596624,
			"0.015": 0.0,
			"0.016": 0.0,
			"0.017": 0.0,
			"0.018": 0.0,
			"0.019": 0.0,
			"0.02": 0.0,
			"0.021": 0.0,
			"0.022": 0.0,
			"0.023": 0.0,
			"0.024": 0.0,
			"0.025": 0.0
		}
	}
}
