{
	 "smiles": "NC(=O)C1=NC(Cl)=C2C=CC=CC2=C1", 
	 "Tm": 538.15, 
	 "num_atms": 21, 
	 "gaussian": { 
		 "optdone": 1, 
		 "sigma_profile": "yes", 
		 "theory": "DFT", 
		 "functional": "B3LYP", 
		 "basiset": "6-31G**", 
		 "properties": { 
			 "R2extent": 4871.3098, 
			 "electric_dipole_moment_norm": 6.62767232443, 
			 "electric_quadrupole_moment_norm": 20.0847026983, 
			 "total_energy": -1030.2217958, 
			 "HOMO_LUMO_gap": 0.17142, 
			 "cosmo_polarized_energy": -19.79, 
			 "cosmo_cavitation_energy": 27.68, 
			 "cosmo_dispersion_energy": -20.63, 
			 "cosmo_repulsion_energy": 1.62, 
			 "cosmo_total_nonelectrostatic_energy": 8.66, 
			 "SMD_solvation_energy": 3.87 
		},
		"coords": [
			{
				"x": 1.809446876,
				"y": -0.3361606989,
				"z": 1.8144731957,
				"element": "N" 
			},
			{
				"x": 1.2708292846,
				"y": 0.8431069405,
				"z": 1.345770617,
				"element": "C" 
			},
			{
				"x": 1.0596966589,
				"y": 1.8042440514,
				"z": 2.0631214709,
				"element": "O" 
			},
			{
				"x": 1.0246078956,
				"y": 0.8757033448,
				"z": -0.1461526129,
				"element": "C" 
			},
			{
				"x": -0.0220319786,
				"y": 1.6560146343,
				"z": -0.5426771727,
				"element": "N" 
			},
			{
				"x": -0.2695270778,
				"y": 1.7615789774,
				"z": -1.8098206257,
				"element": "C" 
			},
			{
				"x": -1.6564959744,
				"y": 2.7694673506,
				"z": -2.247133872,
				"element": "Cl" 
			},
			{
				"x": 0.4793971471,
				"y": 1.1376450347,
				"z": -2.8602576971,
				"element": "C" 
			},
			{
				"x": 0.2058971774,
				"y": 1.2691844559,
				"z": -4.2434486009,
				"element": "C" 
			},
			{
				"x": 0.9999925423,
				"y": 0.628388412,
				"z": -5.1704894628,
				"element": "C" 
			},
			{
				"x": 2.0952867805,
				"y": -0.1648943354,
				"z": -4.7548254628,
				"element": "C" 
			},
			{
				"x": 2.3830119587,
				"y": -0.3092603553,
				"z": -3.415737941,
				"element": "C" 
			},
			{
				"x": 1.5837657526,
				"y": 0.3338491452,
				"z": -2.4352407332,
				"element": "C" 
			},
			{
				"x": 1.8338120905,
				"y": 0.2139104638,
				"z": -1.0425288233,
				"element": "C" 
			},
			{
				"x": 1.8856632557,
				"y": -0.402834335,
				"z": 2.819980112,
				"element": "H" 
			},
			{
				"x": 1.6423659725,
				"y": -1.1966698713,
				"z": 1.3151537092,
				"element": "H" 
			},
			{
				"x": -0.6316550915,
				"y": 1.8790174392,
				"z": -4.5604154978,
				"element": "H" 
			},
			{
				"x": 0.7854372012,
				"y": 0.7336111899,
				"z": -6.2295402865,
				"element": "H" 
			},
			{
				"x": 2.7111006916,
				"y": -0.6610808028,
				"z": -5.4990829458,
				"element": "H" 
			},
			{
				"x": 3.2237394054,
				"y": -0.9161031722,
				"z": -3.091559846,
				"element": "H" 
			},
			{
				"x": 2.6789594317,
				"y": -0.3730178689,
				"z": -0.6971875243,
				"element": "H" 
			}
		],
		 "valence_orbital": [ 
			{
				"type": "occ",
				"energy": -0.28085,
				"method": "rhf"
			},
			{
				"type": "occ",
				"energy": -0.27864,
				"method": "rhf"
			},
			{
				"type": "occ",
				"energy": -0.27667,
				"method": "rhf"
			},
			{
				"type": "occ",
				"energy": -0.25167,
				"method": "rhf"
			},
			{
				"type": "occ",
				"energy": -0.24238,
				"method": "rhf"
			},
			{
				"type": "unocc",
				"energy": -0.07096,
				"method": "rhf"
			},
			{
				"type": "unocc",
				"energy": -0.0513,
				"method": "rhf"
			},
			{
				"type": "unocc",
				"energy": 0.00435,
				"method": "rhf"
			},
			{
				"type": "unocc",
				"energy": 0.02801,
				"method": "rhf"
			},
			{
				"type": "unocc",
				"energy": 0.03537,
				"method": "rhf"
			}
		],
		"cosmo_sigma_profile": { 
			"-0.025": 0.0,
			"-0.024": 0.0,
			"-0.023": 0.0,
			"-0.022": 0.0,
			"-0.021": 0.0,
			"-0.02": 0.0,
			"-0.019": 0.0,
			"-0.018": 0.0,
			"-0.017": 0.0,
			"-0.016": 0.0,
			"-0.015": 0.150547195882,
			"-0.014": 1.86176891169,
			"-0.013": 2.48380677013,
			"-0.012": 1.75150477518,
			"-0.011": 3.51180813067,
			"-0.01": 2.55458911057,
			"-0.009": 2.49788781571,
			"-0.008": 6.01754697165,
			"-0.007": 9.98147796421,
			"-0.006": 11.0819825067,
			"-0.005": 11.2432537136,
			"-0.004": 8.12008087809,
			"-0.003": 9.24672143323,
			"-0.002": 14.6923957375,
			"-0.001": 19.4870891256,
			"0.0": 20.5645296616,
			"0.001": 20.6473843713,
			"0.002": 16.8339048658,
			"0.003": 14.8109078218,
			"0.004": 9.70056207091,
			"0.005": 5.14662402529,
			"0.006": 3.8184817477,
			"0.007": 2.99322118165,
			"0.008": 2.31065420118,
			"0.009": 1.9091016732,
			"0.01": 2.77090863788,
			"0.011": 2.18934701386,
			"0.012": 3.17514655005,
			"0.013": 6.58949881498,
			"0.014": 3.31635112268,
			"0.015": 1.71023905991,
			"0.016": 1.387328764,
			"0.017": 0.250581540806,
			"0.018": 0.0,
			"0.019": 0.0,
			"0.02": 0.0,
			"0.021": 0.0,
			"0.022": 0.0,
			"0.023": 0.0,
			"0.024": 0.0,
			"0.025": 0.0
		}
	}
}
