{
	 "smiles": "CN1CCN(CC1)S(=O)(=O)C1=C(NN)N=CC=C1", 
	 "Tm": 383.15, 
	 "num_atms": 35, 
	 "gaussian": { 
		 "optdone": 1, 
		 "sigma_profile": "yes", 
		 "theory": "DFT", 
		 "functional": "B3LYP", 
		 "basiset": "6-31G**", 
		 "properties": { 
			 "R2extent": 6799.7148, 
			 "electric_dipole_moment_norm": 5.16383163552, 
			 "electric_quadrupole_moment_norm": 23.9978897518, 
			 "total_energy": -1213.58028159, 
			 "HOMO_LUMO_gap": 0.16968, 
			 "cosmo_polarized_energy": -16.18, 
			 "cosmo_cavitation_energy": 37.0, 
			 "cosmo_dispersion_energy": -26.47, 
			 "cosmo_repulsion_energy": 2.01, 
			 "cosmo_total_nonelectrostatic_energy": 12.54, 
			 "SMD_solvation_energy": 1.18 
		},
		"coords": [
			{
				"x": -0.1057063206,
				"y": -1.9795296319,
				"z": -1.2944244573,
				"element": "C" 
			},
			{
				"x": 0.5708897991,
				"y": -0.6925520637,
				"z": -1.2595044033,
				"element": "N" 
			},
			{
				"x": 0.9181567118,
				"y": -0.3027412008,
				"z": 0.1106022332,
				"element": "C" 
			},
			{
				"x": 1.2222543186,
				"y": 1.1903231466,
				"z": 0.1934380945,
				"element": "C" 
			},
			{
				"x": 0.0324006983,
				"y": 1.9859332025,
				"z": -0.1880598794,
				"element": "N" 
			},
			{
				"x": -0.9112862669,
				"y": 1.3368257298,
				"z": -1.1203822167,
				"element": "C" 
			},
			{
				"x": -0.1118495935,
				"y": 0.3751609539,
				"z": -2.0068640536,
				"element": "C" 
			},
			{
				"x": -0.5970732793,
				"y": 3.1157893032,
				"z": 0.8675428239,
				"element": "S" 
			},
			{
				"x": 0.5491448305,
				"y": 3.7207344011,
				"z": 1.5639503691,
				"element": "O" 
			},
			{
				"x": -1.5319192539,
				"y": 3.9240880744,
				"z": 0.0831288787,
				"element": "O" 
			},
			{
				"x": -1.5785014514,
				"y": 2.2462219451,
				"z": 2.0988103431,
				"element": "C" 
			},
			{
				"x": -1.02865955,
				"y": 1.6761210633,
				"z": 3.2870408767,
				"element": "C" 
			},
			{
				"x": 0.3008915225,
				"y": 1.8022725972,
				"z": 3.6145003805,
				"element": "N" 
			},
			{
				"x": 0.7792339086,
				"y": 1.4011712178,
				"z": 4.8812955696,
				"element": "N" 
			},
			{
				"x": -1.7969734582,
				"y": 0.97825576,
				"z": 4.1402612921,
				"element": "N" 
			},
			{
				"x": -3.0985743121,
				"y": 0.8350278537,
				"z": 3.8689464588,
				"element": "C" 
			},
			{
				"x": -3.7313020869,
				"y": 1.3835441054,
				"z": 2.7580115386,
				"element": "C" 
			},
			{
				"x": -2.9421423746,
				"y": 2.1066120263,
				"z": 1.8611404031,
				"element": "C" 
			},
			{
				"x": 0.5251096207,
				"y": -2.7340997558,
				"z": -0.8118829634,
				"element": "H" 
			},
			{
				"x": -1.0853289051,
				"y": -1.9873307851,
				"z": -0.7773172081,
				"element": "H" 
			},
			{
				"x": -0.2623155825,
				"y": -2.2937816809,
				"z": -2.3307548496,
				"element": "H" 
			},
			{
				"x": 0.1049779484,
				"y": -0.533837328,
				"z": 0.8254811871,
				"element": "H" 
			},
			{
				"x": 1.7973391966,
				"y": -0.8726349533,
				"z": 0.4383915259,
				"element": "H" 
			},
			{
				"x": 1.5317822596,
				"y": 1.4580374436,
				"z": 1.2029349514,
				"element": "H" 
			},
			{
				"x": 2.0476169407,
				"y": 1.4445880328,
				"z": -0.481783007,
				"element": "H" 
			},
			{
				"x": -1.394651242,
				"y": 2.1079259648,
				"z": -1.7238647772,
				"element": "H" 
			},
			{
				"x": -1.6949232175,
				"y": 0.7843751254,
				"z": -0.5785354667,
				"element": "H" 
			},
			{
				"x": 0.6238043927,
				"y": 0.9608543373,
				"z": -2.5737014496,
				"element": "H" 
			},
			{
				"x": -0.7882745424,
				"y": -0.075395234,
				"z": -2.7390570387,
				"element": "H" 
			},
			{
				"x": 0.7877872593,
				"y": 2.5975074538,
				"z": 3.2165992933,
				"element": "H" 
			},
			{
				"x": 0.0606021498,
				"y": 1.6176017303,
				"z": 5.574082933,
				"element": "H" 
			},
			{
				"x": 0.8370076109,
				"y": 0.3839628655,
				"z": 4.875025621,
				"element": "H" 
			},
			{
				"x": -3.6661114267,
				"y": 0.2541934639,
				"z": 4.5944404973,
				"element": "H" 
			},
			{
				"x": -4.7960310256,
				"y": 1.2564567148,
				"z": 2.5994666934,
				"element": "H" 
			},
			{
				"x": -3.3711752789,
				"y": 2.5798181211,
				"z": 0.9843398062,
				"element": "H" 
			}
		],
		 "valence_orbital": [ 
			{
				"type": "occ",
				"energy": -0.28044,
				"method": "rhf"
			},
			{
				"type": "occ",
				"energy": -0.26491,
				"method": "rhf"
			},
			{
				"type": "occ",
				"energy": -0.25653,
				"method": "rhf"
			},
			{
				"type": "occ",
				"energy": -0.22565,
				"method": "rhf"
			},
			{
				"type": "occ",
				"energy": -0.21615,
				"method": "rhf"
			},
			{
				"type": "unocc",
				"energy": -0.04647,
				"method": "rhf"
			},
			{
				"type": "unocc",
				"energy": -0.0151,
				"method": "rhf"
			},
			{
				"type": "unocc",
				"energy": 0.05833,
				"method": "rhf"
			},
			{
				"type": "unocc",
				"energy": 0.06818,
				"method": "rhf"
			},
			{
				"type": "unocc",
				"energy": 0.08179,
				"method": "rhf"
			}
		],
		"cosmo_sigma_profile": { 
			"-0.025": 0.0,
			"-0.024": 0.0,
			"-0.023": 0.0,
			"-0.022": 0.0,
			"-0.021": 0.0,
			"-0.02": 0.0,
			"-0.019": 0.0,
			"-0.018": 0.0,
			"-0.017": 0.0,
			"-0.016": 0.0,
			"-0.015": 0.0,
			"-0.014": 0.0,
			"-0.013": 0.0,
			"-0.012": 0.0263452460213,
			"-0.011": 1.0600403006,
			"-0.01": 1.33736622503,
			"-0.009": 2.38309147553,
			"-0.008": 3.04798092714,
			"-0.007": 7.19610594902,
			"-0.006": 9.40697601267,
			"-0.005": 19.1416300829,
			"-0.004": 34.9976028526,
			"-0.003": 32.8769478461,
			"-0.002": 29.2894031977,
			"-0.001": 25.7879927028,
			"0.0": 21.4995586788,
			"0.001": 15.4201533123,
			"0.002": 13.8503710411,
			"0.003": 10.633373556,
			"0.004": 7.42783281154,
			"0.005": 6.34201968202,
			"0.006": 7.03889151143,
			"0.007": 6.64928881688,
			"0.008": 5.2701162462,
			"0.009": 6.88774462155,
			"0.01": 6.9997969077,
			"0.011": 8.05447576062,
			"0.012": 4.05378353501,
			"0.013": 1.02774731919,
			"0.014": 1.11177559833,
			"0.015": 0.685832628996,
			"0.016": 1.03295496199,
			"0.017": 0.340480413235,
			"0.018": 0.0,
			"0.019": 0.0,
			"0.02": 0.0,
			"0.021": 0.0,
			"0.022": 0.0,
			"0.023": 0.0,
			"0.024": 0.0,
			"0.025": 0.0
		}
	}
}
