{
	 "smiles": "BrC1=CC=CC(=C1)C1=NNC=C1", 
	 "Tm": 346.65, 
	 "num_atms": 19, 
	 "gaussian": { 
		 "optdone": 1, 
		 "sigma_profile": "yes", 
		 "theory": "DFT", 
		 "functional": "B3LYP", 
		 "basiset": "6-31G**", 
		 "properties": { 
			 "R2extent": 4934.3523, 
			 "electric_dipole_moment_norm": 4.23931070576, 
			 "electric_quadrupole_moment_norm": 12.3630791124, 
			 "total_energy": -3028.06690189, 
			 "HOMO_LUMO_gap": 0.19594, 
			 "cosmo_polarized_energy": -11.26, 
			 "cosmo_cavitation_energy": 25.84, 
			 "cosmo_dispersion_energy": -19.76, 
			 "cosmo_repulsion_energy": 1.56, 
			 "cosmo_total_nonelectrostatic_energy": 7.64, 
			 "SMD_solvation_energy": 2.72 
		},
		"coords": [
			{
				"x": 0.3360458796,
				"y": -0.1376626564,
				"z": 4.8430693234,
				"element": "Br" 
			},
			{
				"x": 0.4798227057,
				"y": 0.7253323558,
				"z": 3.1390023166,
				"element": "C" 
			},
			{
				"x": 1.1495614804,
				"y": 1.9458573928,
				"z": 3.0531057199,
				"element": "C" 
			},
			{
				"x": 1.2457008418,
				"y": 2.5619777897,
				"z": 1.8050829367,
				"element": "C" 
			},
			{
				"x": 0.685857213,
				"y": 1.9709430235,
				"z": 0.6738792938,
				"element": "C" 
			},
			{
				"x": 0.0137758172,
				"y": 0.7429219195,
				"z": 0.7687748987,
				"element": "C" 
			},
			{
				"x": -0.0852167161,
				"y": 0.1190897154,
				"z": 2.0242964427,
				"element": "C" 
			},
			{
				"x": -0.5838058211,
				"y": 0.1037153085,
				"z": -0.4160027549,
				"element": "C" 
			},
			{
				"x": -1.2211077967,
				"y": -1.0694027046,
				"z": -0.3052780655,
				"element": "N" 
			},
			{
				"x": -1.6321676306,
				"y": -1.3543715837,
				"z": -1.553075264,
				"element": "N" 
			},
			{
				"x": -1.2825592216,
				"y": -0.4072341212,
				"z": -2.4631972547,
				"element": "C" 
			},
			{
				"x": -0.5970470037,
				"y": 0.5616109352,
				"z": -1.7629037611,
				"element": "C" 
			},
			{
				"x": 1.5823144905,
				"y": 2.3993680622,
				"z": 3.9371053703,
				"element": "H" 
			},
			{
				"x": 1.7633721096,
				"y": 3.512862529,
				"z": 1.7178607875,
				"element": "H" 
			},
			{
				"x": 0.7730081417,
				"y": 2.4684998363,
				"z": -0.2865406228,
				"element": "H" 
			},
			{
				"x": -0.601766512,
				"y": -0.8287913592,
				"z": 2.1087247181,
				"element": "H" 
			},
			{
				"x": -2.1442958062,
				"y": -2.2075609293,
				"z": -1.7140602278,
				"element": "H" 
			},
			{
				"x": -1.541348243,
				"y": -0.4939107842,
				"z": -3.5082347191,
				"element": "H" 
			},
			{
				"x": -0.1699439286,
				"y": 1.4659552706,
				"z": -2.1678091378,
				"element": "H" 
			}
		],
		 "valence_orbital": [ 
			{
				"type": "occ",
				"energy": -0.28616,
				"method": "rhf"
			},
			{
				"type": "occ",
				"energy": -0.27855,
				"method": "rhf"
			},
			{
				"type": "occ",
				"energy": -0.25593,
				"method": "rhf"
			},
			{
				"type": "occ",
				"energy": -0.23922,
				"method": "rhf"
			},
			{
				"type": "occ",
				"energy": -0.22395,
				"method": "rhf"
			},
			{
				"type": "unocc",
				"energy": -0.02801,
				"method": "rhf"
			},
			{
				"type": "unocc",
				"energy": -0.00729,
				"method": "rhf"
			},
			{
				"type": "unocc",
				"energy": 0.01539,
				"method": "rhf"
			},
			{
				"type": "unocc",
				"energy": 0.02363,
				"method": "rhf"
			},
			{
				"type": "unocc",
				"energy": 0.07337,
				"method": "rhf"
			}
		],
		"cosmo_sigma_profile": { 
			"-0.025": 0.0,
			"-0.024": 0.0,
			"-0.023": 0.0,
			"-0.022": 0.0,
			"-0.021": 0.0,
			"-0.02": 0.0,
			"-0.019": 0.0,
			"-0.018": 0.0,
			"-0.017": 0.69091665655,
			"-0.016": 1.74594250519,
			"-0.015": 1.36408106333,
			"-0.014": 1.02235139783,
			"-0.013": 1.01828633346,
			"-0.012": 0.919031114569,
			"-0.011": 1.08833802038,
			"-0.01": 1.38839464691,
			"-0.009": 3.20908088258,
			"-0.008": 3.6859473058,
			"-0.007": 7.03855700809,
			"-0.006": 9.90703561393,
			"-0.005": 9.02423699104,
			"-0.004": 10.640281576,
			"-0.003": 10.7971818702,
			"-0.002": 10.2861573027,
			"-0.001": 9.43078146998,
			"0.0": 10.0111248307,
			"0.001": 13.2667612284,
			"0.002": 19.8015593562,
			"0.003": 28.2872525272,
			"0.004": 28.6592560656,
			"0.005": 16.1711236379,
			"0.006": 2.75785855221,
			"0.007": 2.17206325387,
			"0.008": 1.41428901427,
			"0.009": 0.80899680656,
			"0.01": 1.0535130355,
			"0.011": 1.1015970301,
			"0.012": 1.41807301024,
			"0.013": 1.09269493191,
			"0.014": 0.0842318866356,
			"0.015": 0.0,
			"0.016": 0.0,
			"0.017": 0.0,
			"0.018": 0.0,
			"0.019": 0.0,
			"0.02": 0.0,
			"0.021": 0.0,
			"0.022": 0.0,
			"0.023": 0.0,
			"0.024": 0.0,
			"0.025": 0.0
		}
	}
}
