{
	 "smiles": "CC(C)NC1=CC=C(C=C1[N+]([O-])=O)C(F)(F)F", 
	 "Tm": 377.15, 
	 "num_atms": 28, 
	 "gaussian": { 
		 "optdone": 1, 
		 "sigma_profile": "yes", 
		 "theory": "DFT", 
		 "functional": "B3LYP", 
		 "basiset": "6-31G**", 
		 "properties": { 
			 "R2extent": 5386.6327, 
			 "electric_dipole_moment_norm": 5.78576727582, 
			 "electric_quadrupole_moment_norm": 8.87948538486, 
			 "total_energy": -947.09124392, 
			 "HOMO_LUMO_gap": 0.13916, 
			 "cosmo_polarized_energy": -9.86, 
			 "cosmo_cavitation_energy": 33.22, 
			 "cosmo_dispersion_energy": -23.22, 
			 "cosmo_repulsion_energy": 1.74, 
			 "cosmo_total_nonelectrostatic_energy": 11.74, 
			 "SMD_solvation_energy": 8.42 
		},
		"coords": [
			{
				"x": -2.9080354497,
				"y": -0.6187665927,
				"z": -1.4860793495,
				"element": "C" 
			},
			{
				"x": -1.8906091474,
				"y": -1.7314467467,
				"z": -1.1850712138,
				"element": "C" 
			},
			{
				"x": -2.5570451073,
				"y": -3.1098845643,
				"z": -1.1324616901,
				"element": "C" 
			},
			{
				"x": -1.1996237493,
				"y": -1.5069685677,
				"z": 0.0854616738,
				"element": "N" 
			},
			{
				"x": -0.1739656785,
				"y": -0.6532534315,
				"z": 0.3055354329,
				"element": "C" 
			},
			{
				"x": 0.398278267,
				"y": 0.109326506,
				"z": -0.7554378444,
				"element": "C" 
			},
			{
				"x": 1.4575954013,
				"y": 0.9644001411,
				"z": -0.5493496007,
				"element": "C" 
			},
			{
				"x": 2.0212317745,
				"y": 1.1278727229,
				"z": 0.7313197528,
				"element": "C" 
			},
			{
				"x": 1.4942288899,
				"y": 0.4138911389,
				"z": 1.7889305255,
				"element": "C" 
			},
			{
				"x": 0.4176155899,
				"y": -0.4624091803,
				"z": 1.5971732191,
				"element": "C" 
			},
			{
				"x": -0.0563366563,
				"y": -1.1581595455,
				"z": 2.7774078059,
				"element": "N" 
			},
			{
				"x": 0.5013508613,
				"y": -0.9441403485,
				"z": 3.8533231043,
				"element": "O" 
			},
			{
				"x": -1.0141708547,
				"y": -1.95080638,
				"z": 2.6677508189,
				"element": "O" 
			},
			{
				"x": 3.1711861903,
				"y": 2.0721841342,
				"z": 0.9143315329,
				"element": "C" 
			},
			{
				"x": 2.8381926203,
				"y": 3.3358991185,
				"z": 0.5557612836,
				"element": "F" 
			},
			{
				"x": 4.22653363,
				"y": 1.7252836576,
				"z": 0.1384493728,
				"element": "F" 
			},
			{
				"x": 3.6027956227,
				"y": 2.1137643647,
				"z": 2.1908794213,
				"element": "F" 
			},
			{
				"x": -3.6942726427,
				"y": -0.6051648888,
				"z": -0.724196184,
				"element": "H" 
			},
			{
				"x": -3.3779753068,
				"y": -0.7820818386,
				"z": -2.4614174017,
				"element": "H" 
			},
			{
				"x": -2.4328557449,
				"y": 0.3662748298,
				"z": -1.4969325604,
				"element": "H" 
			},
			{
				"x": -1.137289334,
				"y": -1.7521683876,
				"z": -1.9825730156,
				"element": "H" 
			},
			{
				"x": -1.8202486683,
				"y": -3.8972425561,
				"z": -0.9498683841,
				"element": "H" 
			},
			{
				"x": -3.3081746511,
				"y": -3.1486440228,
				"z": -0.3350598438,
				"element": "H" 
			},
			{
				"x": -3.0636520864,
				"y": -3.3228951889,
				"z": -2.0777052009,
				"element": "H" 
			},
			{
				"x": -1.5400211328,
				"y": -1.9740240369,
				"z": 0.9200937362,
				"element": "H" 
			},
			{
				"x": -0.0136983402,
				"y": 0.0127428241,
				"z": -1.7514844516,
				"element": "H" 
			},
			{
				"x": 1.861541685,
				"y": 1.5223601531,
				"z": -1.3886625672,
				"element": "H" 
			},
			{
				"x": 1.8966240184,
				"y": 0.5118566863,
				"z": 2.7879816276,
				"element": "H" 
			}
		],
		 "valence_orbital": [ 
			{
				"type": "occ",
				"energy": -0.30979,
				"method": "rhf"
			},
			{
				"type": "occ",
				"energy": -0.30904,
				"method": "rhf"
			},
			{
				"type": "occ",
				"energy": -0.29095,
				"method": "rhf"
			},
			{
				"type": "occ",
				"energy": -0.28686,
				"method": "rhf"
			},
			{
				"type": "occ",
				"energy": -0.22925,
				"method": "rhf"
			},
			{
				"type": "unocc",
				"energy": -0.09009,
				"method": "rhf"
			},
			{
				"type": "unocc",
				"energy": -0.02238,
				"method": "rhf"
			},
			{
				"type": "unocc",
				"energy": -0.00692,
				"method": "rhf"
			},
			{
				"type": "unocc",
				"energy": 0.06865,
				"method": "rhf"
			},
			{
				"type": "unocc",
				"energy": 0.08347,
				"method": "rhf"
			}
		],
		"cosmo_sigma_profile": { 
			"-0.025": 0.0,
			"-0.024": 0.0,
			"-0.023": 0.0,
			"-0.022": 0.0,
			"-0.021": 0.0,
			"-0.02": 0.0,
			"-0.019": 0.0,
			"-0.018": 0.0,
			"-0.017": 0.0,
			"-0.016": 0.0,
			"-0.015": 0.0,
			"-0.014": 0.0,
			"-0.013": 0.0,
			"-0.012": 0.0,
			"-0.011": 0.0,
			"-0.01": 0.0,
			"-0.009": 0.314155571428,
			"-0.008": 3.98183395477,
			"-0.007": 5.44245304062,
			"-0.006": 6.46185697621,
			"-0.005": 11.3133690493,
			"-0.004": 20.1932229988,
			"-0.003": 25.0666621935,
			"-0.002": 24.3402261082,
			"-0.001": 25.3396445556,
			"0.0": 32.0449613841,
			"0.001": 25.9807814172,
			"0.002": 21.8916655051,
			"0.003": 29.6721022366,
			"0.004": 5.19838503264,
			"0.005": 3.11259252942,
			"0.006": 2.77654519131,
			"0.007": 3.66752630835,
			"0.008": 6.81414742174,
			"0.009": 4.25911348414,
			"0.01": 4.15548419981,
			"0.011": 2.02217350913,
			"0.012": 0.0178352919988,
			"0.013": 0.0,
			"0.014": 0.0,
			"0.015": 0.0,
			"0.016": 0.0,
			"0.017": 0.0,
			"0.018": 0.0,
			"0.019": 0.0,
			"0.02": 0.0,
			"0.021": 0.0,
			"0.022": 0.0,
			"0.023": 0.0,
			"0.024": 0.0,
			"0.025": 0.0
		}
	}
}
