{
	 "smiles": "CC1=CSC(SC2=C(C=C(C=C2)C(O)=O)[N+]([O-])=O)=N1", 
	 "Tm": 481.15, 
	 "num_atms": 27, 
	 "gaussian": { 
		 "optdone": 1, 
		 "sigma_profile": "yes", 
		 "theory": "DFT", 
		 "functional": "B3LYP", 
		 "basiset": "6-31G**", 
		 "properties": { 
			 "R2extent": 7477.0641, 
			 "electric_dipole_moment_norm": 5.40992373883, 
			 "electric_quadrupole_moment_norm": 33.0601557821, 
			 "total_energy": -1630.64659276, 
			 "HOMO_LUMO_gap": 0.12967, 
			 "cosmo_polarized_energy": -21.3, 
			 "cosmo_cavitation_energy": 36.43, 
			 "cosmo_dispersion_energy": -26.15, 
			 "cosmo_repulsion_energy": 1.92, 
			 "cosmo_total_nonelectrostatic_energy": 12.2, 
			 "SMD_solvation_energy": 8.09 
		},
		"coords": [
			{
				"x": -1.6790348373,
				"y": 0.7636961193,
				"z": -2.6108922834,
				"element": "C" 
			},
			{
				"x": -1.2495335938,
				"y": -0.3695184112,
				"z": -1.728348419,
				"element": "C" 
			},
			{
				"x": -1.3580981624,
				"y": -1.7031578854,
				"z": -2.0069419625,
				"element": "C" 
			},
			{
				"x": -0.6796191954,
				"y": -2.6588203474,
				"z": -0.724012584,
				"element": "S" 
			},
			{
				"x": -0.3320392071,
				"y": -1.1627023162,
				"z": 0.1238137864,
				"element": "C" 
			},
			{
				"x": 0.4193031302,
				"y": -1.2230619385,
				"z": 1.7292645601,
				"element": "S" 
			},
			{
				"x": 1.1682598445,
				"y": 0.3862536228,
				"z": 1.8913857673,
				"element": "C" 
			},
			{
				"x": 1.9214087457,
				"y": 1.0916333428,
				"z": 0.9321758437,
				"element": "C" 
			},
			{
				"x": 2.4452832833,
				"y": 2.3495467079,
				"z": 1.2024455104,
				"element": "C" 
			},
			{
				"x": 2.266601928,
				"y": 2.9379658243,
				"z": 2.4568230661,
				"element": "C" 
			},
			{
				"x": 1.5557810144,
				"y": 2.2332048128,
				"z": 3.4357406658,
				"element": "C" 
			},
			{
				"x": 1.0010653273,
				"y": 0.9902423372,
				"z": 3.1465964846,
				"element": "C" 
			},
			{
				"x": 2.8902809184,
				"y": 4.2840206203,
				"z": 2.6862248296,
				"element": "C" 
			},
			{
				"x": 2.3901799269,
				"y": 5.0235377963,
				"z": 3.7098434823,
				"element": "O" 
			},
			{
				"x": 3.7970739653,
				"y": 4.709339181,
				"z": 2.0125280112,
				"element": "O" 
			},
			{
				"x": 2.2466961732,
				"y": 0.5392172177,
				"z": -0.3968642746,
				"element": "N" 
			},
			{
				"x": 2.4603584197,
				"y": -0.6668692173,
				"z": -0.475659361,
				"element": "O" 
			},
			{
				"x": 2.3237869506,
				"y": 1.3359399338,
				"z": -1.3280699789,
				"element": "O" 
			},
			{
				"x": -0.6748107602,
				"y": -0.0796597645,
				"z": -0.5024020354,
				"element": "N" 
			},
			{
				"x": -0.8201872925,
				"y": 1.3990181814,
				"z": -2.8519688406,
				"element": "H" 
			},
			{
				"x": -2.4189693966,
				"y": 1.3920936391,
				"z": -2.1041625803,
				"element": "H" 
			},
			{
				"x": -2.1136945979,
				"y": 0.3960727241,
				"z": -3.54323861,
				"element": "H" 
			},
			{
				"x": -1.7852901797,
				"y": -2.1741378011,
				"z": -2.8806984833,
				"element": "H" 
			},
			{
				"x": 3.008978233,
				"y": 2.8721442102,
				"z": 0.4394517398,
				"element": "H" 
			},
			{
				"x": 1.4320451353,
				"y": 2.635512689,
				"z": 4.4377383317,
				"element": "H" 
			},
			{
				"x": 0.4128655128,
				"y": 0.4749592968,
				"z": 3.8986385912,
				"element": "H" 
			},
			{
				"x": 1.563508714,
				"y": 4.6420294247,
				"z": 4.0358887426,
				"element": "H" 
			}
		],
		 "valence_orbital": [ 
			{
				"type": "occ",
				"energy": -0.29115,
				"method": "rhf"
			},
			{
				"type": "occ",
				"energy": -0.28768,
				"method": "rhf"
			},
			{
				"type": "occ",
				"energy": -0.28629,
				"method": "rhf"
			},
			{
				"type": "occ",
				"energy": -0.27448,
				"method": "rhf"
			},
			{
				"type": "occ",
				"energy": -0.22991,
				"method": "rhf"
			},
			{
				"type": "unocc",
				"energy": -0.10024,
				"method": "rhf"
			},
			{
				"type": "unocc",
				"energy": -0.071,
				"method": "rhf"
			},
			{
				"type": "unocc",
				"energy": -0.037,
				"method": "rhf"
			},
			{
				"type": "unocc",
				"energy": -0.03249,
				"method": "rhf"
			},
			{
				"type": "unocc",
				"energy": -0.00611,
				"method": "rhf"
			}
		],
		"cosmo_sigma_profile": { 
			"-0.025": 0.0,
			"-0.024": 0.0,
			"-0.023": 0.0,
			"-0.022": 0.0,
			"-0.021": 0.0,
			"-0.02": 0.449862454503,
			"-0.019": 0.794941554576,
			"-0.018": 1.09424783143,
			"-0.017": 1.45178057901,
			"-0.016": 0.744077878337,
			"-0.015": 0.943055580793,
			"-0.014": 0.997038828471,
			"-0.013": 1.25596067858,
			"-0.012": 1.5533657828,
			"-0.011": 1.28543571004,
			"-0.01": 1.77333109485,
			"-0.009": 6.01840701938,
			"-0.008": 7.46500966993,
			"-0.007": 7.59192233342,
			"-0.006": 10.1625697899,
			"-0.005": 13.7187296658,
			"-0.004": 16.7860580803,
			"-0.003": 17.5194437727,
			"-0.002": 20.8766578669,
			"-0.001": 27.8289302235,
			"0.0": 25.3319220781,
			"0.001": 19.1589700176,
			"0.002": 20.8743737998,
			"0.003": 16.2809731442,
			"0.004": 11.6144417047,
			"0.005": 8.47939828652,
			"0.006": 10.3173757883,
			"0.007": 11.8543700009,
			"0.008": 9.31155183088,
			"0.009": 8.27070595977,
			"0.01": 6.22932622173,
			"0.011": 5.93038755919,
			"0.012": 2.70271158538,
			"0.013": 0.274608282687,
			"0.014": 0.0,
			"0.015": 0.0,
			"0.016": 0.0,
			"0.017": 0.0,
			"0.018": 0.0,
			"0.019": 0.0,
			"0.02": 0.0,
			"0.021": 0.0,
			"0.022": 0.0,
			"0.023": 0.0,
			"0.024": 0.0,
			"0.025": 0.0
		}
	}
}
