{
	 "smiles": "[O-][N+](=O)C1=CC=CC=C1C=CC1=NC2=C(S1)C=CC=C2", 
	 "Tm": 404.15, 
	 "num_atms": 30, 
	 "gaussian": { 
		 "optdone": 1, 
		 "sigma_profile": "yes", 
		 "theory": "DFT", 
		 "functional": "B3LYP", 
		 "basiset": "6-31G**", 
		 "properties": { 
			 "R2extent": 7120.2578, 
			 "electric_dipole_moment_norm": 4.5134983649, 
			 "electric_quadrupole_moment_norm": 19.6558445494, 
			 "total_energy": -1235.64905593, 
			 "HOMO_LUMO_gap": 0.13333, 
			 "cosmo_polarized_energy": -11.67, 
			 "cosmo_cavitation_energy": 37.09, 
			 "cosmo_dispersion_energy": -26.87, 
			 "cosmo_repulsion_energy": 2.0, 
			 "cosmo_total_nonelectrostatic_energy": 12.23, 
			 "SMD_solvation_energy": 6.69 
		},
		"coords": [
			{
				"x": 3.2245022265,
				"y": 1.6641953822,
				"z": 4.1618750576,
				"element": "O" 
			},
			{
				"x": 2.2261394746,
				"y": 1.1835634709,
				"z": 3.6254276848,
				"element": "N" 
			},
			{
				"x": 1.0727911014,
				"y": 1.5374040726,
				"z": 3.8778223981,
				"element": "O" 
			},
			{
				"x": 2.4295050735,
				"y": 0.1260533793,
				"z": 2.6196773769,
				"element": "C" 
			},
			{
				"x": 3.7528926661,
				"y": -0.134507099,
				"z": 2.2567011631,
				"element": "C" 
			},
			{
				"x": 4.0254756809,
				"y": -1.1020422511,
				"z": 1.2981206776,
				"element": "C" 
			},
			{
				"x": 2.9692007857,
				"y": -1.8018596225,
				"z": 0.7088946511,
				"element": "C" 
			},
			{
				"x": 1.6554740449,
				"y": -1.5316197761,
				"z": 1.0766191932,
				"element": "C" 
			},
			{
				"x": 1.3386670355,
				"y": -0.5578324869,
				"z": 2.0403565998,
				"element": "C" 
			},
			{
				"x": -0.0618967113,
				"y": -0.3972680216,
				"z": 2.4774634796,
				"element": "C" 
			},
			{
				"x": -1.1808289267,
				"y": -0.2712163909,
				"z": 1.7312517901,
				"element": "C" 
			},
			{
				"x": -1.3287698471,
				"y": -0.0864431476,
				"z": 0.2944035035,
				"element": "C" 
			},
			{
				"x": -0.3938533781,
				"y": -0.026683656,
				"z": -0.607016364,
				"element": "N" 
			},
			{
				"x": -0.9102316356,
				"y": 0.1875298073,
				"z": -1.8679985204,
				"element": "C" 
			},
			{
				"x": -2.3240581897,
				"y": 0.2961661196,
				"z": -1.940694137,
				"element": "C" 
			},
			{
				"x": -2.9944947979,
				"y": 0.1198536925,
				"z": -0.3376970772,
				"element": "S" 
			},
			{
				"x": -2.9754039776,
				"y": 0.5120028955,
				"z": -3.1581496765,
				"element": "C" 
			},
			{
				"x": -2.1985980194,
				"y": 0.6196572194,
				"z": -4.3083475357,
				"element": "C" 
			},
			{
				"x": -0.7966504775,
				"y": 0.5150219211,
				"z": -4.2501453629,
				"element": "C" 
			},
			{
				"x": -0.1471586465,
				"y": 0.3003477029,
				"z": -3.0421266528,
				"element": "C" 
			},
			{
				"x": 4.5405678787,
				"y": 0.4334348232,
				"z": 2.7342561888,
				"element": "H" 
			},
			{
				"x": 5.0523400707,
				"y": -1.3072126936,
				"z": 1.013156509,
				"element": "H" 
			},
			{
				"x": 3.1690997594,
				"y": -2.5643239424,
				"z": -0.0379621539,
				"element": "H" 
			},
			{
				"x": 0.8433628717,
				"y": -2.084483822,
				"z": 0.6218118714,
				"element": "H" 
			},
			{
				"x": -0.2127401756,
				"y": -0.409045647,
				"z": 3.5519960249,
				"element": "H" 
			},
			{
				"x": -2.1184422674,
				"y": -0.2397349849,
				"z": 2.2806293876,
				"element": "H" 
			},
			{
				"x": -4.0562227461,
				"y": 0.5952493755,
				"z": -3.2087607253,
				"element": "H" 
			},
			{
				"x": -2.6843823831,
				"y": 0.788430877,
				"z": -5.2647062754,
				"element": "H" 
			},
			{
				"x": -0.2168287062,
				"y": 0.6050006515,
				"z": -5.1637480565,
				"element": "H" 
			},
			{
				"x": 0.9330422162,
				"y": 0.2200621508,
				"z": -2.9803110197,
				"element": "H" 
			}
		],
		 "valence_orbital": [ 
			{
				"type": "occ",
				"energy": -0.28183,
				"method": "rhf"
			},
			{
				"type": "occ",
				"energy": -0.27704,
				"method": "rhf"
			},
			{
				"type": "occ",
				"energy": -0.26279,
				"method": "rhf"
			},
			{
				"type": "occ",
				"energy": -0.23905,
				"method": "rhf"
			},
			{
				"type": "occ",
				"energy": -0.22571,
				"method": "rhf"
			},
			{
				"type": "unocc",
				"energy": -0.09238,
				"method": "rhf"
			},
			{
				"type": "unocc",
				"energy": -0.06653,
				"method": "rhf"
			},
			{
				"type": "unocc",
				"energy": -0.02116,
				"method": "rhf"
			},
			{
				"type": "unocc",
				"energy": -0.00995,
				"method": "rhf"
			},
			{
				"type": "unocc",
				"energy": 0.00044,
				"method": "rhf"
			}
		],
		"cosmo_sigma_profile": { 
			"-0.025": 0.0,
			"-0.024": 0.0,
			"-0.023": 0.0,
			"-0.022": 0.0,
			"-0.021": 0.0,
			"-0.02": 0.0,
			"-0.019": 0.0,
			"-0.018": 0.0,
			"-0.017": 0.0,
			"-0.016": 0.0,
			"-0.015": 0.0,
			"-0.014": 0.0,
			"-0.013": 0.0,
			"-0.012": 0.0,
			"-0.011": 0.0,
			"-0.01": 0.0,
			"-0.009": 0.0,
			"-0.008": 2.81320561783,
			"-0.007": 15.2317781067,
			"-0.006": 21.722207308,
			"-0.005": 21.1113825857,
			"-0.004": 18.8679396404,
			"-0.003": 17.8691899248,
			"-0.002": 16.8026289767,
			"-0.001": 19.9701794759,
			"0.0": 25.4932771281,
			"0.001": 27.0552110174,
			"0.002": 28.2714215902,
			"0.003": 23.3593642079,
			"0.004": 18.502296366,
			"0.005": 11.4430849996,
			"0.006": 5.4716780384,
			"0.007": 8.05960410146,
			"0.008": 8.64722903331,
			"0.009": 5.71161869124,
			"0.01": 4.00943873927,
			"0.011": 0.971752385363,
			"0.012": 0.226051479712,
			"0.013": 0.0,
			"0.014": 0.0,
			"0.015": 0.0,
			"0.016": 0.0,
			"0.017": 0.0,
			"0.018": 0.0,
			"0.019": 0.0,
			"0.02": 0.0,
			"0.021": 0.0,
			"0.022": 0.0,
			"0.023": 0.0,
			"0.024": 0.0,
			"0.025": 0.0
		}
	}
}
