{
	 "smiles": "CC(C)(C)OC(=O)NN", 
	 "Tm": 312.15, 
	 "num_atms": 21, 
	 "gaussian": { 
		 "optdone": 1, 
		 "sigma_profile": "yes", 
		 "theory": "DFT", 
		 "functional": "B3LYP", 
		 "basiset": "6-31G**", 
		 "properties": { 
			 "R2extent": 2057.3127, 
			 "electric_dipole_moment_norm": 2.53088459832, 
			 "electric_quadrupole_moment_norm": 6.6081256291, 
			 "total_energy": -457.715990915, 
			 "HOMO_LUMO_gap": 0.30685, 
			 "cosmo_polarized_energy": -10.35, 
			 "cosmo_cavitation_energy": 23.58, 
			 "cosmo_dispersion_energy": -16.73, 
			 "cosmo_repulsion_energy": 1.4, 
			 "cosmo_total_nonelectrostatic_energy": 8.25, 
			 "SMD_solvation_energy": 5.95 
		},
		"coords": [
			{
				"x": 0.9258709461,
				"y": -0.9068454719,
				"z": 1.0851073849,
				"element": "C" 
			},
			{
				"x": 0.071442747,
				"y": 0.1326405697,
				"z": 0.3522149989,
				"element": "C" 
			},
			{
				"x": -1.4038594484,
				"y": -0.274819676,
				"z": 0.2797228863,
				"element": "C" 
			},
			{
				"x": 0.6294622767,
				"y": 0.4075047802,
				"z": -1.0464870918,
				"element": "C" 
			},
			{
				"x": 0.1996933148,
				"y": 1.4435911398,
				"z": 1.0114974959,
				"element": "O" 
			},
			{
				"x": -0.1973806917,
				"y": 1.6105779193,
				"z": 2.2956793535,
				"element": "C" 
			},
			{
				"x": -0.6848896249,
				"y": 0.7663700229,
				"z": 3.029434482,
				"element": "O" 
			},
			{
				"x": 0.0301345917,
				"y": 2.901287393,
				"z": 2.6976678185,
				"element": "N" 
			},
			{
				"x": 0.5139922647,
				"y": 3.9528844704,
				"z": 1.9030397864,
				"element": "N" 
			},
			{
				"x": 0.9143949608,
				"y": -1.8498086817,
				"z": 0.5288781304,
				"element": "H" 
			},
			{
				"x": 0.5447274584,
				"y": -1.0847616267,
				"z": 2.0908127739,
				"element": "H" 
			},
			{
				"x": 1.9639265823,
				"y": -0.5659219908,
				"z": 1.1533405565,
				"element": "H" 
			},
			{
				"x": -1.5026506306,
				"y": -1.1936473925,
				"z": -0.3073958419,
				"element": "H" 
			},
			{
				"x": -1.9905317346,
				"y": 0.5070447961,
				"z": -0.2132980469,
				"element": "H" 
			},
			{
				"x": -1.8098092431,
				"y": -0.4466991177,
				"z": 1.2767124685,
				"element": "H" 
			},
			{
				"x": 0.5914892921,
				"y": -0.5030651056,
				"z": -1.6516213724,
				"element": "H" 
			},
			{
				"x": 0.0448145853,
				"y": 1.1823171885,
				"z": -1.5513404066,
				"element": "H" 
			},
			{
				"x": 1.6697205802,
				"y": 0.7414902377,
				"z": -0.9895693975,
				"element": "H" 
			},
			{
				"x": -0.2914842038,
				"y": 3.1435030428,
				"z": 3.6220700141,
				"element": "H" 
			},
			{
				"x": -0.0597212891,
				"y": 4.0219526151,
				"z": 1.0643581627,
				"element": "H" 
			},
			{
				"x": 1.453957266,
				"y": 3.7163048875,
				"z": 1.5916758445,
				"element": "H" 
			}
		],
		 "valence_orbital": [ 
			{
				"type": "occ",
				"energy": -0.33386,
				"method": "rhf"
			},
			{
				"type": "occ",
				"energy": -0.29198,
				"method": "rhf"
			},
			{
				"type": "occ",
				"energy": -0.29039,
				"method": "rhf"
			},
			{
				"type": "occ",
				"energy": -0.25505,
				"method": "rhf"
			},
			{
				"type": "occ",
				"energy": -0.25162,
				"method": "rhf"
			},
			{
				"type": "unocc",
				"energy": 0.05523,
				"method": "rhf"
			},
			{
				"type": "unocc",
				"energy": 0.0747,
				"method": "rhf"
			},
			{
				"type": "unocc",
				"energy": 0.09385,
				"method": "rhf"
			},
			{
				"type": "unocc",
				"energy": 0.09587,
				"method": "rhf"
			},
			{
				"type": "unocc",
				"energy": 0.12091,
				"method": "rhf"
			}
		],
		"cosmo_sigma_profile": { 
			"-0.025": 0.0,
			"-0.024": 0.0,
			"-0.023": 0.0,
			"-0.022": 0.0,
			"-0.021": 0.0,
			"-0.02": 0.0,
			"-0.019": 0.0,
			"-0.018": 0.0,
			"-0.017": 0.0,
			"-0.016": 0.0,
			"-0.015": 0.0,
			"-0.014": 0.5971631769,
			"-0.013": 1.31213083557,
			"-0.012": 0.438656948766,
			"-0.011": 2.72493885106,
			"-0.01": 3.6969622851,
			"-0.009": 3.01893907544,
			"-0.008": 2.92827265853,
			"-0.007": 2.17176093056,
			"-0.006": 2.16837664653,
			"-0.005": 2.90840504628,
			"-0.004": 12.6279454164,
			"-0.003": 19.6003805206,
			"-0.002": 15.4231713214,
			"-0.001": 19.4382348557,
			"0.0": 25.8186656146,
			"0.001": 20.7609746446,
			"0.002": 7.37731805877,
			"0.003": 5.82219156258,
			"0.004": 5.33858939641,
			"0.005": 4.58302015601,
			"0.006": 2.5180731211,
			"0.007": 2.19863156,
			"0.008": 2.66331268847,
			"0.009": 1.47822914919,
			"0.01": 1.49932045616,
			"0.011": 2.67056454366,
			"0.012": 2.72922355579,
			"0.013": 3.82665383476,
			"0.014": 2.93120529065,
			"0.015": 0.843782337387,
			"0.016": 0.417508464558,
			"0.017": 0.150042970529,
			"0.018": 0.0,
			"0.019": 0.0,
			"0.02": 0.0,
			"0.021": 0.0,
			"0.022": 0.0,
			"0.023": 0.0,
			"0.024": 0.0,
			"0.025": 0.0
		}
	}
}
