{
	 "smiles": "NC1=NOC(=N1)C1CC1", 
	 "Tm": 358.15, 
	 "num_atms": 16, 
	 "gaussian": { 
		 "optdone": 1, 
		 "sigma_profile": "yes", 
		 "theory": "DFT", 
		 "functional": "B3LYP", 
		 "basiset": "6-31G**", 
		 "properties": { 
			 "R2extent": 2731.8811, 
			 "electric_dipole_moment_norm": 2.41448069365, 
			 "electric_quadrupole_moment_norm": 15.7124837842, 
			 "total_energy": -434.165778659, 
			 "HOMO_LUMO_gap": 0.22664, 
			 "cosmo_polarized_energy": -11.69, 
			 "cosmo_cavitation_energy": 20.37, 
			 "cosmo_dispersion_energy": -15.34, 
			 "cosmo_repulsion_energy": 1.28, 
			 "cosmo_total_nonelectrostatic_energy": 6.32, 
			 "SMD_solvation_energy": 1.55 
		},
		"coords": [
			{
				"x": -1.1227351217,
				"y": 0.0360446971,
				"z": -4.0836986854,
				"element": "N" 
			},
			{
				"x": 0.0917478233,
				"y": -0.2735766192,
				"z": -3.5240816567,
				"element": "C" 
			},
			{
				"x": 0.9741596393,
				"y": -1.0612258966,
				"z": -4.1046138417,
				"element": "N" 
			},
			{
				"x": 2.0030930245,
				"y": -1.1284068717,
				"z": -3.1237752218,
				"element": "O" 
			},
			{
				"x": 1.6076775156,
				"y": -0.3650748315,
				"z": -2.097508355,
				"element": "C" 
			},
			{
				"x": 0.4411718018,
				"y": 0.1928419128,
				"z": -2.2756879294,
				"element": "N" 
			},
			{
				"x": 2.4995011192,
				"y": -0.2558352803,
				"z": -0.9386223817,
				"element": "C" 
			},
			{
				"x": 1.8850066985,
				"y": -0.1503841682,
				"z": 0.4492710372,
				"element": "C" 
			},
			{
				"x": 2.5331448284,
				"y": 1.0506890872,
				"z": -0.1609830208,
				"element": "C" 
			},
			{
				"x": -1.5178309319,
				"y": 0.9064156408,
				"z": -3.7590806158,
				"element": "H" 
			},
			{
				"x": -1.1848575168,
				"y": -0.1087494297,
				"z": -5.0812647167,
				"element": "H" 
			},
			{
				"x": 3.4256058891,
				"y": -0.8102804181,
				"z": -1.0438186595,
				"element": "H" 
			},
			{
				"x": 0.8014875554,
				"y": -0.1717998844,
				"z": 0.4978543519,
				"element": "H" 
			},
			{
				"x": 2.3958746455,
				"y": -0.6721860644,
				"z": 1.2522427227,
				"element": "H" 
			},
			{
				"x": 1.8885549751,
				"y": 1.8436599468,
				"z": -0.5250218096,
				"element": "H" 
			},
			{
				"x": 3.4994980547,
				"y": 1.3732681793,
				"z": 0.2133887823,
				"element": "H" 
			}
		],
		 "valence_orbital": [ 
			{
				"type": "occ",
				"energy": -0.33288,
				"method": "rhf"
			},
			{
				"type": "occ",
				"energy": -0.3159,
				"method": "rhf"
			},
			{
				"type": "occ",
				"energy": -0.28598,
				"method": "rhf"
			},
			{
				"type": "occ",
				"energy": -0.2775,
				"method": "rhf"
			},
			{
				"type": "occ",
				"energy": -0.23157,
				"method": "rhf"
			},
			{
				"type": "unocc",
				"energy": -0.00493,
				"method": "rhf"
			},
			{
				"type": "unocc",
				"energy": 0.06134,
				"method": "rhf"
			},
			{
				"type": "unocc",
				"energy": 0.0775,
				"method": "rhf"
			},
			{
				"type": "unocc",
				"energy": 0.08631,
				"method": "rhf"
			},
			{
				"type": "unocc",
				"energy": 0.11047,
				"method": "rhf"
			}
		],
		"cosmo_sigma_profile": { 
			"-0.025": 0.0,
			"-0.024": 0.0,
			"-0.023": 0.0,
			"-0.022": 0.0,
			"-0.021": 0.0,
			"-0.02": 0.0,
			"-0.019": 0.0,
			"-0.018": 0.0,
			"-0.017": 0.0,
			"-0.016": 0.0,
			"-0.015": 0.0855508692276,
			"-0.014": 1.87932230275,
			"-0.013": 2.14444670059,
			"-0.012": 2.70399350159,
			"-0.011": 1.61862214292,
			"-0.01": 2.30285619966,
			"-0.009": 2.63669965328,
			"-0.008": 1.42808309075,
			"-0.007": 3.60046494026,
			"-0.006": 9.0666766472,
			"-0.005": 9.66777098413,
			"-0.004": 9.046349233,
			"-0.003": 9.8500048552,
			"-0.002": 11.0260931896,
			"-0.001": 14.9263002824,
			"0.0": 13.4560129986,
			"0.001": 9.91158289762,
			"0.002": 6.88481886516,
			"0.003": 6.34072761348,
			"0.004": 5.67339511133,
			"0.005": 4.5236900629,
			"0.006": 4.66520280217,
			"0.007": 5.15326879831,
			"0.008": 6.58056950959,
			"0.009": 3.15000451721,
			"0.01": 3.28640837389,
			"0.011": 3.1854456819,
			"0.012": 2.80368539332,
			"0.013": 1.87005440887,
			"0.014": 1.7876858737,
			"0.015": 0.503304674361,
			"0.016": 0.0,
			"0.017": 0.0,
			"0.018": 0.0,
			"0.019": 0.0,
			"0.02": 0.0,
			"0.021": 0.0,
			"0.022": 0.0,
			"0.023": 0.0,
			"0.024": 0.0,
			"0.025": 0.0
		}
	}
}
