{
	 "smiles": "COC1=CC=CC=C1C1=NN=C2SC(NN12)C1=CC=CC=C1", 
	 "Tm": 481.15, 
	 "num_atms": 36, 
	 "gaussian": { 
		 "optdone": 1, 
		 "sigma_profile": "yes", 
		 "theory": "DFT", 
		 "functional": "B3LYP", 
		 "basiset": "6-31G**", 
		 "properties": { 
			 "R2extent": 8021.4958, 
			 "electric_dipole_moment_norm": 8.33088491218, 
			 "electric_quadrupole_moment_norm": 27.2028446531, 
			 "total_energy": -1310.47567971, 
			 "HOMO_LUMO_gap": 0.17079, 
			 "cosmo_polarized_energy": -21.54, 
			 "cosmo_cavitation_energy": 41.61, 
			 "cosmo_dispersion_energy": -29.52, 
			 "cosmo_repulsion_energy": 2.19, 
			 "cosmo_total_nonelectrostatic_energy": 14.28, 
			 "SMD_solvation_energy": 3.95 
		},
		"coords": [
			{
				"x": -0.3798541079,
				"y": -3.2870060218,
				"z": -1.697508877,
				"element": "C" 
			},
			{
				"x": -0.8554016947,
				"y": -2.4527004482,
				"z": -0.6495517659,
				"element": "O" 
			},
			{
				"x": -2.199242522,
				"y": -2.1912584521,
				"z": -0.5867494786,
				"element": "C" 
			},
			{
				"x": -3.1211182697,
				"y": -2.6515180831,
				"z": -1.5319653932,
				"element": "C" 
			},
			{
				"x": -4.4834813119,
				"y": -2.3924790071,
				"z": -1.3627605744,
				"element": "C" 
			},
			{
				"x": -4.9381699143,
				"y": -1.682189634,
				"z": -0.253885437,
				"element": "C" 
			},
			{
				"x": -4.0169781779,
				"y": -1.2120647223,
				"z": 0.6804536193,
				"element": "C" 
			},
			{
				"x": -2.6444118333,
				"y": -1.441214348,
				"z": 0.5250023905,
				"element": "C" 
			},
			{
				"x": -1.7298446484,
				"y": -0.9465431507,
				"z": 1.558795492,
				"element": "C" 
			},
			{
				"x": -1.9573712981,
				"y": -0.983692828,
				"z": 2.8614870815,
				"element": "N" 
			},
			{
				"x": -0.8936230668,
				"y": -0.3830707015,
				"z": 3.5255107067,
				"element": "N" 
			},
			{
				"x": -0.0422593013,
				"y": -0.025178801,
				"z": 2.5997291931,
				"element": "C" 
			},
			{
				"x": 1.5215772376,
				"y": 0.7842840502,
				"z": 2.5261021102,
				"element": "S" 
			},
			{
				"x": 1.118634556,
				"y": 1.1127736048,
				"z": 0.6765604741,
				"element": "C" 
			},
			{
				"x": 0.2351884259,
				"y": 0.034657988,
				"z": 0.2277568298,
				"element": "N" 
			},
			{
				"x": -0.5117426731,
				"y": -0.3451052081,
				"z": 1.3535720855,
				"element": "N" 
			},
			{
				"x": 2.3403254645,
				"y": 1.2469282415,
				"z": -0.1922457067,
				"element": "C" 
			},
			{
				"x": 2.464844617,
				"y": 2.3544445151,
				"z": -1.0395632422,
				"element": "C" 
			},
			{
				"x": 3.5691113795,
				"y": 2.4793625013,
				"z": -1.8834580556,
				"element": "C" 
			},
			{
				"x": 4.5593802255,
				"y": 1.4961081101,
				"z": -1.8877425803,
				"element": "C" 
			},
			{
				"x": 4.444141854,
				"y": 0.3894426414,
				"z": -1.04294687,
				"element": "C" 
			},
			{
				"x": 3.3425116197,
				"y": 0.2657336045,
				"z": -0.1974353285,
				"element": "C" 
			},
			{
				"x": -0.5383424167,
				"y": -2.8302500102,
				"z": -2.6822300324,
				"element": "H" 
			},
			{
				"x": -0.8596786878,
				"y": -4.2726830177,
				"z": -1.6735014374,
				"element": "H" 
			},
			{
				"x": 0.6910960167,
				"y": -3.4065338862,
				"z": -1.5255319049,
				"element": "H" 
			},
			{
				"x": -2.7907977066,
				"y": -3.2200822747,
				"z": -2.3925475842,
				"element": "H" 
			},
			{
				"x": -5.1868129912,
				"y": -2.7576678381,
				"z": -2.1055572618,
				"element": "H" 
			},
			{
				"x": -5.997531671,
				"y": -1.4898567521,
				"z": -0.1184184688,
				"element": "H" 
			},
			{
				"x": -4.3425645246,
				"y": -0.6569617278,
				"z": 1.5535922005,
				"element": "H" 
			},
			{
				"x": 0.5425001815,
				"y": 2.0403889766,
				"z": 0.6842803488,
				"element": "H" 
			},
			{
				"x": 0.7659774209,
				"y": -0.7811095219,
				"z": -0.07934134,
				"element": "H" 
			},
			{
				"x": 1.6922003881,
				"y": 3.1184649007,
				"z": -1.0400045418,
				"element": "H" 
			},
			{
				"x": 3.6550994246,
				"y": 3.3438399676,
				"z": -2.5349462297,
				"element": "H" 
			},
			{
				"x": 5.4208368625,
				"y": 1.5936639255,
				"z": -2.5418689859,
				"element": "H" 
			},
			{
				"x": 5.2175777054,
				"y": -0.3728642355,
				"z": -1.0351201516,
				"element": "H" 
			},
			{
				"x": 3.269823438,
				"y": -0.5808623574,
				"z": 0.479638716,
				"element": "H" 
			}
		],
		 "valence_orbital": [ 
			{
				"type": "occ",
				"energy": -0.26237,
				"method": "rhf"
			},
			{
				"type": "occ",
				"energy": -0.25381,
				"method": "rhf"
			},
			{
				"type": "occ",
				"energy": -0.24362,
				"method": "rhf"
			},
			{
				"type": "occ",
				"energy": -0.23303,
				"method": "rhf"
			},
			{
				"type": "occ",
				"energy": -0.21119,
				"method": "rhf"
			},
			{
				"type": "unocc",
				"energy": -0.0404,
				"method": "rhf"
			},
			{
				"type": "unocc",
				"energy": -0.02575,
				"method": "rhf"
			},
			{
				"type": "unocc",
				"energy": -0.02195,
				"method": "rhf"
			},
			{
				"type": "unocc",
				"energy": 0.00147,
				"method": "rhf"
			},
			{
				"type": "unocc",
				"energy": 0.00497,
				"method": "rhf"
			}
		],
		"cosmo_sigma_profile": { 
			"-0.025": 0.0,
			"-0.024": 0.0,
			"-0.023": 0.0,
			"-0.022": 0.0,
			"-0.021": 0.0,
			"-0.02": 0.0,
			"-0.019": 0.0,
			"-0.018": 0.0,
			"-0.017": 0.0,
			"-0.016": 0.0,
			"-0.015": 0.0,
			"-0.014": 0.0,
			"-0.013": 0.0,
			"-0.012": 0.148452019771,
			"-0.011": 1.0686224078,
			"-0.01": 1.41952666861,
			"-0.009": 1.86706175568,
			"-0.008": 5.83162656997,
			"-0.007": 9.0782885917,
			"-0.006": 27.1106380072,
			"-0.005": 29.2092740293,
			"-0.004": 29.7073147143,
			"-0.003": 22.8908197314,
			"-0.002": 19.4910289044,
			"-0.001": 17.723083671,
			"0.0": 20.0273325087,
			"0.001": 22.0266006748,
			"0.002": 25.3986264397,
			"0.003": 25.2378884774,
			"0.004": 28.7734866444,
			"0.005": 14.0285052433,
			"0.006": 5.27934221732,
			"0.007": 3.8197565197,
			"0.008": 3.13687365751,
			"0.009": 3.08998424834,
			"0.01": 2.37277757331,
			"0.011": 1.87366878812,
			"0.012": 3.21978961875,
			"0.013": 3.16189377146,
			"0.014": 3.85135943409,
			"0.015": 2.45006128906,
			"0.016": 2.2010131439,
			"0.017": 0.49781738806,
			"0.018": 0.0,
			"0.019": 0.0,
			"0.02": 0.0,
			"0.021": 0.0,
			"0.022": 0.0,
			"0.023": 0.0,
			"0.024": 0.0,
			"0.025": 0.0
		}
	}
}
