{
	 "smiles": "NC(CC1=CC=C(O)C(O)=C1)C(O)=O", 
	 "Tm": 568.15, 
	 "num_atms": 25, 
	 "gaussian": { 
		 "optdone": 1, 
		 "sigma_profile": "yes", 
		 "theory": "DFT", 
		 "functional": "B3LYP", 
		 "basiset": "6-31G**", 
		 "properties": { 
			 "R2extent": 4086.4662, 
			 "electric_dipole_moment_norm": 7.10347092202, 
			 "electric_quadrupole_moment_norm": 3.55465302807, 
			 "total_energy": -705.243889883, 
			 "HOMO_LUMO_gap": 0.20759, 
			 "cosmo_polarized_energy": -22.29, 
			 "cosmo_cavitation_energy": 28.41, 
			 "cosmo_dispersion_energy": -20.81, 
			 "cosmo_repulsion_energy": 1.66, 
			 "cosmo_total_nonelectrostatic_energy": 9.26, 
			 "SMD_solvation_energy": 5.87 
		},
		"coords": [
			{
				"x": 0.4474915041,
				"y": 1.0474737872,
				"z": 0.7613475704,
				"element": "N" 
			},
			{
				"x": -0.8470169934,
				"y": 0.5755859579,
				"z": 0.2426306556,
				"element": "C" 
			},
			{
				"x": -0.8294946644,
				"y": -0.0377962821,
				"z": -1.1786505843,
				"element": "C" 
			},
			{
				"x": 0.2152075315,
				"y": -1.1175591616,
				"z": -1.3717715349,
				"element": "C" 
			},
			{
				"x": -0.0053336306,
				"y": -2.4318048705,
				"z": -0.9366457586,
				"element": "C" 
			},
			{
				"x": 0.972363745,
				"y": -3.4150990454,
				"z": -1.0972755208,
				"element": "C" 
			},
			{
				"x": 2.1917169783,
				"y": -3.1078035975,
				"z": -1.69683815,
				"element": "C" 
			},
			{
				"x": 3.140999273,
				"y": -4.070623736,
				"z": -1.8597817853,
				"element": "O" 
			},
			{
				"x": 2.4228292641,
				"y": -1.7944415,
				"z": -2.137890964,
				"element": "C" 
			},
			{
				"x": 3.6523940104,
				"y": -1.5836846328,
				"z": -2.7223767322,
				"element": "O" 
			},
			{
				"x": 1.4493291631,
				"y": -0.8134557559,
				"z": -1.9731428319,
				"element": "C" 
			},
			{
				"x": -1.4713838594,
				"y": -0.3948300426,
				"z": 1.2747720623,
				"element": "C" 
			},
			{
				"x": -0.9093143153,
				"y": -0.3165851944,
				"z": 2.4857597218,
				"element": "O" 
			},
			{
				"x": -2.4076641997,
				"y": -1.1191109303,
				"z": 1.0193994801,
				"element": "O" 
			},
			{
				"x": 0.6475919212,
				"y": 1.9963286456,
				"z": 0.4617311011,
				"element": "H" 
			},
			{
				"x": 1.1977419326,
				"y": 0.450673101,
				"z": 0.4162102108,
				"element": "H" 
			},
			{
				"x": -1.5279513392,
				"y": 1.4367193515,
				"z": 0.2289353493,
				"element": "H" 
			},
			{
				"x": -1.8298109973,
				"y": -0.4388254573,
				"z": -1.3646476247,
				"element": "H" 
			},
			{
				"x": -0.6612100569,
				"y": 0.7713148193,
				"z": -1.8988245773,
				"element": "H" 
			},
			{
				"x": -0.9511081565,
				"y": -2.6854577493,
				"z": -0.4694052868,
				"element": "H" 
			},
			{
				"x": 0.8013703849,
				"y": -4.4345929555,
				"z": -0.7673624811,
				"element": "H" 
			},
			{
				"x": 3.8956906534,
				"y": -3.6640049285,
				"z": -2.3111572125,
				"element": "H" 
			},
			{
				"x": 3.6954860447,
				"y": -0.6908840747,
				"z": -3.0855261321,
				"element": "H" 
			},
			{
				"x": 1.6426230718,
				"y": 0.1944374187,
				"z": -2.3390761105,
				"element": "H" 
			},
			{
				"x": -0.1636472654,
				"y": 0.3219268333,
				"z": 2.3675871359,
				"element": "H" 
			}
		],
		 "valence_orbital": [ 
			{
				"type": "occ",
				"energy": -0.29854,
				"method": "rhf"
			},
			{
				"type": "occ",
				"energy": -0.29378,
				"method": "rhf"
			},
			{
				"type": "occ",
				"energy": -0.25113,
				"method": "rhf"
			},
			{
				"type": "occ",
				"energy": -0.24513,
				"method": "rhf"
			},
			{
				"type": "occ",
				"energy": -0.21182,
				"method": "rhf"
			},
			{
				"type": "unocc",
				"energy": -0.00423,
				"method": "rhf"
			},
			{
				"type": "unocc",
				"energy": 0.00626,
				"method": "rhf"
			},
			{
				"type": "unocc",
				"energy": 0.01775,
				"method": "rhf"
			},
			{
				"type": "unocc",
				"energy": 0.04612,
				"method": "rhf"
			},
			{
				"type": "unocc",
				"energy": 0.06756,
				"method": "rhf"
			}
		],
		"cosmo_sigma_profile": { 
			"-0.025": 0.0,
			"-0.024": 0.0,
			"-0.023": 0.0,
			"-0.022": 0.0,
			"-0.021": 0.0,
			"-0.02": 0.0,
			"-0.019": 0.0266702919376,
			"-0.018": 0.763138155582,
			"-0.017": 1.13116515765,
			"-0.016": 1.16698858601,
			"-0.015": 1.0341322618,
			"-0.014": 1.66395077456,
			"-0.013": 1.09010190609,
			"-0.012": 2.70322689489,
			"-0.011": 3.28823459243,
			"-0.01": 3.49882293784,
			"-0.009": 3.99950248574,
			"-0.008": 5.91211347366,
			"-0.007": 9.74067362699,
			"-0.006": 10.5277330459,
			"-0.005": 15.1853581548,
			"-0.004": 12.4581028287,
			"-0.003": 10.9237476108,
			"-0.002": 11.6578333472,
			"-0.001": 9.65810335641,
			"0.0": 10.3833024078,
			"0.001": 10.8099304813,
			"0.002": 11.8454516153,
			"0.003": 13.2923721014,
			"0.004": 13.1919570507,
			"0.005": 11.578201581,
			"0.006": 8.90967466087,
			"0.007": 6.13059174451,
			"0.008": 4.93306973054,
			"0.009": 4.4158219724,
			"0.01": 5.30465562102,
			"0.011": 6.89552316664,
			"0.012": 5.77799208014,
			"0.013": 2.97027368109,
			"0.014": 0.975006197284,
			"0.015": 0.0,
			"0.016": 0.0,
			"0.017": 0.0,
			"0.018": 0.0,
			"0.019": 0.0,
			"0.02": 0.0,
			"0.021": 0.0,
			"0.022": 0.0,
			"0.023": 0.0,
			"0.024": 0.0,
			"0.025": 0.0
		}
	}
}
