{
	 "smiles": "NS(=O)(=O)C1=CC=C(SCCCO)C(F)=C1", 
	 "Tm": 383.15, 
	 "num_atms": 28, 
	 "gaussian": { 
		 "optdone": 1, 
		 "sigma_profile": "yes", 
		 "theory": "DFT", 
		 "functional": "B3LYP", 
		 "basiset": "6-31G**", 
		 "properties": { 
			 "R2extent": 8406.0498, 
			 "electric_dipole_moment_norm": 3.01171626486, 
			 "electric_quadrupole_moment_norm": 35.4116661307, 
			 "total_energy": -1526.74047578, 
			 "HOMO_LUMO_gap": 0.18085, 
			 "cosmo_polarized_energy": -19.57, 
			 "cosmo_cavitation_energy": 35.39, 
			 "cosmo_dispersion_energy": -26.45, 
			 "cosmo_repulsion_energy": 2.0, 
			 "cosmo_total_nonelectrostatic_energy": 10.94, 
			 "SMD_solvation_energy": 5.58 
		},
		"coords": [
			{
				"x": -2.7195484009,
				"y": 3.0679219337,
				"z": -4.0020064206,
				"element": "N" 
			},
			{
				"x": -3.4731807109,
				"y": 3.0555383185,
				"z": -2.4841884781,
				"element": "S" 
			},
			{
				"x": -4.4973213819,
				"y": 2.0082928498,
				"z": -2.5261122891,
				"element": "O" 
			},
			{
				"x": -3.7784632634,
				"y": 4.4461011543,
				"z": -2.1376077116,
				"element": "O" 
			},
			{
				"x": -2.172700856,
				"y": 2.4992605733,
				"z": -1.3819358036,
				"element": "C" 
			},
			{
				"x": -1.3442656799,
				"y": 3.4358166329,
				"z": -0.7641207606,
				"element": "C" 
			},
			{
				"x": -0.323850665,
				"y": 2.9873876809,
				"z": 0.0726447673,
				"element": "C" 
			},
			{
				"x": -0.1303698388,
				"y": 1.619412148,
				"z": 0.3195548364,
				"element": "C" 
			},
			{
				"x": 1.1219481273,
				"y": 1.1037995154,
				"z": 1.4748919829,
				"element": "S" 
			},
			{
				"x": 2.0749887231,
				"y": -0.1495528098,
				"z": 0.4968137094,
				"element": "C" 
			},
			{
				"x": 3.2907463149,
				"y": -0.6324143337,
				"z": 1.2901738683,
				"element": "C" 
			},
			{
				"x": 2.9470955691,
				"y": -1.4291344766,
				"z": 2.5456068567,
				"element": "C" 
			},
			{
				"x": 4.1725639078,
				"y": -1.9058273141,
				"z": 3.0852391945,
				"element": "O" 
			},
			{
				"x": -1.009385672,
				"y": 0.7193311034,
				"z": -0.300418001,
				"element": "C" 
			},
			{
				"x": -0.8846302983,
				"y": -0.6010492088,
				"z": -0.0582069542,
				"element": "F" 
			},
			{
				"x": -2.020030734,
				"y": 1.1314728668,
				"z": -1.1561632325,
				"element": "C" 
			},
			{
				"x": -2.7002671209,
				"y": 4.0184398605,
				"z": -4.3622465277,
				"element": "H" 
			},
			{
				"x": -3.2200238889,
				"y": 2.443091284,
				"z": -4.6287499882,
				"element": "H" 
			},
			{
				"x": -1.5003074096,
				"y": 4.4947557785,
				"z": -0.9346284088,
				"element": "H" 
			},
			{
				"x": 0.3414746839,
				"y": 3.7005123306,
				"z": 0.5481445148,
				"element": "H" 
			},
			{
				"x": 1.4088970061,
				"y": -0.9788242526,
				"z": 0.2516897692,
				"element": "H" 
			},
			{
				"x": 2.3947681332,
				"y": 0.330169193,
				"z": -0.4313992972,
				"element": "H" 
			},
			{
				"x": 3.9322442476,
				"y": 0.2121488711,
				"z": 1.5656583013,
				"element": "H" 
			},
			{
				"x": 3.8860008477,
				"y": -1.2788109655,
				"z": 0.6339357811,
				"element": "H" 
			},
			{
				"x": 2.4116916959,
				"y": -0.7933232891,
				"z": 3.267115219,
				"element": "H" 
			},
			{
				"x": 2.2716819376,
				"y": -2.2599347963,
				"z": 2.2806320893,
				"element": "H" 
			},
			{
				"x": 3.9797704793,
				"y": -2.3606480368,
				"z": 3.9140909919,
				"element": "H" 
			},
			{
				"x": -2.687725753,
				"y": 0.4041673888,
				"z": -1.6029080088,
				"element": "H" 
			}
		],
		 "valence_orbital": [ 
			{
				"type": "occ",
				"energy": -0.30568,
				"method": "rhf"
			},
			{
				"type": "occ",
				"energy": -0.28201,
				"method": "rhf"
			},
			{
				"type": "occ",
				"energy": -0.27115,
				"method": "rhf"
			},
			{
				"type": "occ",
				"energy": -0.27014,
				"method": "rhf"
			},
			{
				"type": "occ",
				"energy": -0.23339,
				"method": "rhf"
			},
			{
				"type": "unocc",
				"energy": -0.05254,
				"method": "rhf"
			},
			{
				"type": "unocc",
				"energy": -0.02536,
				"method": "rhf"
			},
			{
				"type": "unocc",
				"energy": 0.02213,
				"method": "rhf"
			},
			{
				"type": "unocc",
				"energy": 0.0491,
				"method": "rhf"
			},
			{
				"type": "unocc",
				"energy": 0.05986,
				"method": "rhf"
			}
		],
		"cosmo_sigma_profile": { 
			"-0.025": 0.0,
			"-0.024": 0.0,
			"-0.023": 0.0,
			"-0.022": 0.0,
			"-0.021": 0.0,
			"-0.02": 0.0,
			"-0.019": 0.0,
			"-0.018": 0.0,
			"-0.017": 0.0,
			"-0.016": 0.339921827896,
			"-0.015": 2.69747603123,
			"-0.014": 3.1161767509,
			"-0.013": 3.48122192149,
			"-0.012": 4.02614925909,
			"-0.011": 2.80904750338,
			"-0.01": 2.01426095465,
			"-0.009": 2.93543609887,
			"-0.008": 5.25322333058,
			"-0.007": 7.6765326942,
			"-0.006": 8.23673310415,
			"-0.005": 12.3302129369,
			"-0.004": 18.4412621074,
			"-0.003": 24.05998117,
			"-0.002": 23.2049105978,
			"-0.001": 19.8356294119,
			"0.0": 20.4779170206,
			"0.001": 19.9759538837,
			"0.002": 14.3177727916,
			"0.003": 13.4168991596,
			"0.004": 11.0793918625,
			"0.005": 8.47016081941,
			"0.006": 6.36398281102,
			"0.007": 7.11937206695,
			"0.008": 6.23702966079,
			"0.009": 6.82850214625,
			"0.01": 9.84851945638,
			"0.011": 9.75491730448,
			"0.012": 3.5288337742,
			"0.013": 1.49291242453,
			"0.014": 2.25346855666,
			"0.015": 0.191426665941,
			"0.016": 0.0,
			"0.017": 0.0,
			"0.018": 0.0,
			"0.019": 0.0,
			"0.02": 0.0,
			"0.021": 0.0,
			"0.022": 0.0,
			"0.023": 0.0,
			"0.024": 0.0,
			"0.025": 0.0
		}
	}
}
