{
	 "smiles": "COC1=C(OC)C=C(NC(=O)C=CC(O)=O)C=C1", 
	 "Tm": 393.15, 
	 "num_atms": 31, 
	 "gaussian": { 
		 "optdone": 1, 
		 "sigma_profile": "yes", 
		 "theory": "DFT", 
		 "functional": "B3LYP", 
		 "basiset": "6-31G**", 
		 "properties": { 
			 "R2extent": 10001.0252, 
			 "electric_dipole_moment_norm": 3.0648762993, 
			 "electric_quadrupole_moment_norm": 25.9895054982, 
			 "total_energy": -895.952024158, 
			 "HOMO_LUMO_gap": 0.13265, 
			 "cosmo_polarized_energy": -23.79, 
			 "cosmo_cavitation_energy": 36.81, 
			 "cosmo_dispersion_energy": -26.24, 
			 "cosmo_repulsion_energy": 2.04, 
			 "cosmo_total_nonelectrostatic_energy": 12.61, 
			 "SMD_solvation_energy": 9.74 
		},
		"coords": [
			{
				"x": -2.1110940074,
				"y": -0.0501175443,
				"z": -3.4175693528,
				"element": "C" 
			},
			{
				"x": -2.1751209535,
				"y": -0.419748717,
				"z": -2.0339634034,
				"element": "O" 
			},
			{
				"x": -0.9605385869,
				"y": -0.4560612102,
				"z": -1.3874625689,
				"element": "C" 
			},
			{
				"x": -0.2288687895,
				"y": 0.7147704176,
				"z": -1.1121462142,
				"element": "C" 
			},
			{
				"x": -0.6744871291,
				"y": 1.9474257951,
				"z": -1.5323722619,
				"element": "O" 
			},
			{
				"x": -1.8309068273,
				"y": 2.4354706471,
				"z": -0.840716537,
				"element": "C" 
			},
			{
				"x": 0.9917214355,
				"y": 0.650712306,
				"z": -0.4408429045,
				"element": "C" 
			},
			{
				"x": 1.4918034134,
				"y": -0.5907341138,
				"z": -0.0210613371,
				"element": "C" 
			},
			{
				"x": 2.7177620628,
				"y": -0.7339375182,
				"z": 0.6620858203,
				"element": "N" 
			},
			{
				"x": 3.6120151768,
				"y": 0.23748247,
				"z": 1.0464556269,
				"element": "C" 
			},
			{
				"x": 3.468631428,
				"y": 1.4393015621,
				"z": 0.8424740514,
				"element": "O" 
			},
			{
				"x": 4.8062823722,
				"y": -0.3136305333,
				"z": 1.7534489954,
				"element": "C" 
			},
			{
				"x": 5.773732746,
				"y": 0.4990293958,
				"z": 2.1908093867,
				"element": "C" 
			},
			{
				"x": 6.9656049895,
				"y": -0.0526951977,
				"z": 2.8964760638,
				"element": "C" 
			},
			{
				"x": 7.887542171,
				"y": 0.860953847,
				"z": 3.2955922218,
				"element": "O" 
			},
			{
				"x": 7.1372068485,
				"y": -1.2291290391,
				"z": 3.1182228486,
				"element": "O" 
			},
			{
				"x": 0.7516578844,
				"y": -1.7563862385,
				"z": -0.2711276705,
				"element": "C" 
			},
			{
				"x": -0.4588609331,
				"y": -1.6835200813,
				"z": -0.9528858113,
				"element": "C" 
			},
			{
				"x": -1.5189265748,
				"y": -0.7784951055,
				"z": -3.9857386077,
				"element": "H" 
			},
			{
				"x": -3.1398390017,
				"y": -0.0583915566,
				"z": -3.783401843,
				"element": "H" 
			},
			{
				"x": -1.6800875348,
				"y": 0.9475351082,
				"z": -3.5439476799,
				"element": "H" 
			},
			{
				"x": -2.0637764327,
				"y": 3.4058814866,
				"z": -1.2835227197,
				"element": "H" 
			},
			{
				"x": -2.682879573,
				"y": 1.7590292024,
				"z": -0.9609319648,
				"element": "H" 
			},
			{
				"x": -1.615484827,
				"y": 2.5674490518,
				"z": 0.2268388141,
				"element": "H" 
			},
			{
				"x": 1.5414647556,
				"y": 1.5604344926,
				"z": -0.2473735492,
				"element": "H" 
			},
			{
				"x": 2.9625645816,
				"y": -1.6847034538,
				"z": 0.9004824253,
				"element": "H" 
			},
			{
				"x": 4.9061745536,
				"y": -1.3839885562,
				"z": 1.9224018973,
				"element": "H" 
			},
			{
				"x": 5.6711244442,
				"y": 1.5690259821,
				"z": 2.020078889,
				"element": "H" 
			},
			{
				"x": 7.6106384082,
				"y": 1.7540672311,
				"z": 3.0469608673,
				"element": "H" 
			},
			{
				"x": 1.1277850414,
				"y": -2.7220748625,
				"z": 0.0579115342,
				"element": "H" 
			},
			{
				"x": -1.035641142,
				"y": -2.5788552675,
				"z": -1.1607750161,
				"element": "H" 
			}
		],
		 "valence_orbital": [ 
			{
				"type": "occ",
				"energy": -0.28324,
				"method": "rhf"
			},
			{
				"type": "occ",
				"energy": -0.27229,
				"method": "rhf"
			},
			{
				"type": "occ",
				"energy": -0.2652,
				"method": "rhf"
			},
			{
				"type": "occ",
				"energy": -0.24811,
				"method": "rhf"
			},
			{
				"type": "occ",
				"energy": -0.21929,
				"method": "rhf"
			},
			{
				"type": "unocc",
				"energy": -0.08664,
				"method": "rhf"
			},
			{
				"type": "unocc",
				"energy": -0.00769,
				"method": "rhf"
			},
			{
				"type": "unocc",
				"energy": -0.00211,
				"method": "rhf"
			},
			{
				"type": "unocc",
				"energy": 0.04685,
				"method": "rhf"
			},
			{
				"type": "unocc",
				"energy": 0.05094,
				"method": "rhf"
			}
		],
		"cosmo_sigma_profile": { 
			"-0.025": 0.0,
			"-0.024": 0.0,
			"-0.023": 0.0,
			"-0.022": 0.0,
			"-0.021": 0.0,
			"-0.02": 0.494799749771,
			"-0.019": 0.93985066986,
			"-0.018": 1.55944889237,
			"-0.017": 1.69672263692,
			"-0.016": 2.37975762065,
			"-0.015": 2.63315918267,
			"-0.014": 1.96757701355,
			"-0.013": 2.88029903291,
			"-0.012": 2.79839577265,
			"-0.011": 2.73828341227,
			"-0.01": 2.27533752954,
			"-0.009": 2.93436010736,
			"-0.008": 3.15642072572,
			"-0.007": 4.471448679,
			"-0.006": 7.4111967505,
			"-0.005": 13.5156022024,
			"-0.004": 18.9984374644,
			"-0.003": 24.1599713301,
			"-0.002": 24.6767544306,
			"-0.001": 19.1740881408,
			"0.0": 21.7734972703,
			"0.001": 17.4621616511,
			"0.002": 15.6363755946,
			"0.003": 19.9534877322,
			"0.004": 15.0337938745,
			"0.005": 8.11663893672,
			"0.006": 6.18098397822,
			"0.007": 6.65504463618,
			"0.008": 6.08939125341,
			"0.009": 6.75778800951,
			"0.01": 8.69214037433,
			"0.011": 9.42114497501,
			"0.012": 8.71274559565,
			"0.013": 1.93406877734,
			"0.014": 0.0,
			"0.015": 0.0,
			"0.016": 0.0,
			"0.017": 0.0,
			"0.018": 0.0,
			"0.019": 0.0,
			"0.02": 0.0,
			"0.021": 0.0,
			"0.022": 0.0,
			"0.023": 0.0,
			"0.024": 0.0,
			"0.025": 0.0
		}
	}
}
