{
	 "smiles": "COC(=O)C1=CC=C(CCC(O)=O)C=C1", 
	 "Tm": 387.15, 
	 "num_atms": 27, 
	 "gaussian": { 
		 "optdone": 1, 
		 "sigma_profile": "yes", 
		 "theory": "DFT", 
		 "functional": "B3LYP", 
		 "basiset": "6-31G**", 
		 "properties": { 
			 "R2extent": 5808.7333, 
			 "electric_dipole_moment_norm": 3.6482501929, 
			 "electric_quadrupole_moment_norm": 27.4639149473, 
			 "total_energy": -727.325204423, 
			 "HOMO_LUMO_gap": 0.20704, 
			 "cosmo_polarized_energy": -19.51, 
			 "cosmo_cavitation_energy": 32.34, 
			 "cosmo_dispersion_energy": -23.02, 
			 "cosmo_repulsion_energy": 1.82, 
			 "cosmo_total_nonelectrostatic_energy": 11.14, 
			 "SMD_solvation_energy": 8.06 
		},
		"coords": [
			{
				"x": 4.2063952915,
				"y": -3.894075455,
				"z": -0.5473743814,
				"element": "C" 
			},
			{
				"x": 3.4565759452,
				"y": -2.7237542244,
				"z": -0.1887609586,
				"element": "O" 
			},
			{
				"x": 2.1907471819,
				"y": -2.6825988638,
				"z": -0.6666754921,
				"element": "C" 
			},
			{
				"x": 1.7117039608,
				"y": -3.5679074813,
				"z": -1.3490720734,
				"element": "O" 
			},
			{
				"x": 1.4685281678,
				"y": -1.4448650268,
				"z": -0.2614613394,
				"element": "C" 
			},
			{
				"x": 0.1487624587,
				"y": -1.2806565393,
				"z": -0.7026097999,
				"element": "C" 
			},
			{
				"x": -0.5689950768,
				"y": -0.1412568466,
				"z": -0.3537440911,
				"element": "C" 
			},
			{
				"x": 0.0086306274,
				"y": 0.8594296453,
				"z": 0.4423747697,
				"element": "C" 
			},
			{
				"x": -0.7871758177,
				"y": 2.0786770587,
				"z": 0.8518939799,
				"element": "C" 
			},
			{
				"x": -1.5669036216,
				"y": 1.8503835826,
				"z": 2.1570798039,
				"element": "C" 
			},
			{
				"x": -2.3673829744,
				"y": 3.0752799403,
				"z": 2.5830939594,
				"element": "C" 
			},
			{
				"x": -3.0882505199,
				"y": 2.9288785133,
				"z": 3.7285490562,
				"element": "O" 
			},
			{
				"x": -2.3914137474,
				"y": 4.1202661506,
				"z": 1.9837228438,
				"element": "O" 
			},
			{
				"x": 1.3313092538,
				"y": 0.6864170982,
				"z": 0.875391317,
				"element": "C" 
			},
			{
				"x": 2.0581558404,
				"y": -0.450454014,
				"z": 0.5306090285,
				"element": "C" 
			},
			{
				"x": 3.7189255172,
				"y": -4.7956717176,
				"z": -0.1677957682,
				"element": "H" 
			},
			{
				"x": 5.1873051979,
				"y": -3.7670871054,
				"z": -0.0893277737,
				"element": "H" 
			},
			{
				"x": 4.2973315746,
				"y": -3.9756968045,
				"z": -1.633450839,
				"element": "H" 
			},
			{
				"x": -0.2915310374,
				"y": -2.0555269195,
				"z": -1.3211401265,
				"element": "H" 
			},
			{
				"x": -1.5894731334,
				"y": -0.0193897122,
				"z": -0.7089080413,
				"element": "H" 
			},
			{
				"x": -0.1264846364,
				"y": 2.9404203097,
				"z": 0.9860265988,
				"element": "H" 
			},
			{
				"x": -1.4960734339,
				"y": 2.3549510851,
				"z": 0.0653842072,
				"element": "H" 
			},
			{
				"x": -2.2545022117,
				"y": 1.0003761975,
				"z": 2.0486333738,
				"element": "H" 
			},
			{
				"x": -0.8798201315,
				"y": 1.5802186509,
				"z": 2.9708069035,
				"element": "H" 
			},
			{
				"x": -2.9679897867,
				"y": 2.039180217,
				"z": 4.0901977456,
				"element": "H" 
			},
			{
				"x": 1.7989818022,
				"y": 1.4568471547,
				"z": 1.4837249749,
				"element": "H" 
			},
			{
				"x": 3.0815433094,
				"y": -0.5708848935,
				"z": 0.8670321224,
				"element": "H" 
			}
		],
		 "valence_orbital": [ 
			{
				"type": "occ",
				"energy": -0.30316,
				"method": "rhf"
			},
			{
				"type": "occ",
				"energy": -0.27903,
				"method": "rhf"
			},
			{
				"type": "occ",
				"energy": -0.27491,
				"method": "rhf"
			},
			{
				"type": "occ",
				"energy": -0.26303,
				"method": "rhf"
			},
			{
				"type": "occ",
				"energy": -0.25517,
				"method": "rhf"
			},
			{
				"type": "unocc",
				"energy": -0.04813,
				"method": "rhf"
			},
			{
				"type": "unocc",
				"energy": -0.01406,
				"method": "rhf"
			},
			{
				"type": "unocc",
				"energy": 0.0067,
				"method": "rhf"
			},
			{
				"type": "unocc",
				"energy": 0.04875,
				"method": "rhf"
			},
			{
				"type": "unocc",
				"energy": 0.05386,
				"method": "rhf"
			}
		],
		"cosmo_sigma_profile": { 
			"-0.025": 0.0,
			"-0.024": 0.0,
			"-0.023": 0.0,
			"-0.022": 0.0,
			"-0.021": 0.0,
			"-0.02": 0.0244576967237,
			"-0.019": 0.657777481431,
			"-0.018": 0.903867727238,
			"-0.017": 1.2523297382,
			"-0.016": 1.2027638434,
			"-0.015": 0.860127188299,
			"-0.014": 0.751952891318,
			"-0.013": 1.38813805036,
			"-0.012": 1.37090399044,
			"-0.011": 1.22272724244,
			"-0.01": 1.33477241187,
			"-0.009": 1.15771759062,
			"-0.008": 2.32198593694,
			"-0.007": 4.37591351928,
			"-0.006": 14.9980453858,
			"-0.005": 24.3147999832,
			"-0.004": 22.8371648321,
			"-0.003": 20.5443470304,
			"-0.002": 15.0587968127,
			"-0.001": 14.9100167928,
			"0.0": 13.5317989562,
			"0.001": 15.1035530651,
			"0.002": 13.7116756105,
			"0.003": 15.202624997,
			"0.004": 15.279884094,
			"0.005": 6.25197907456,
			"0.006": 5.53473342396,
			"0.007": 4.19332050603,
			"0.008": 3.88835533229,
			"0.009": 4.99630071327,
			"0.01": 6.59689568515,
			"0.011": 8.31741750795,
			"0.012": 9.87207803391,
			"0.013": 2.18020861727,
			"0.014": 0.0523252670901,
			"0.015": 0.0,
			"0.016": 0.0,
			"0.017": 0.0,
			"0.018": 0.0,
			"0.019": 0.0,
			"0.02": 0.0,
			"0.021": 0.0,
			"0.022": 0.0,
			"0.023": 0.0,
			"0.024": 0.0,
			"0.025": 0.0
		}
	}
}
