{
	 "smiles": "CCN(CC)S(=O)(=O)C1=CC2=C(C=C1)N=C(CCl)N2", 
	 "Tm": 367.15, 
	 "num_atms": 35, 
	 "gaussian": { 
		 "optdone": 1, 
		 "sigma_profile": "yes", 
		 "theory": "DFT", 
		 "functional": "B3LYP", 
		 "basiset": "6-31G**", 
		 "properties": { 
			 "R2extent": 9961.8108, 
			 "electric_dipole_moment_norm": 3.63757178074, 
			 "electric_quadrupole_moment_norm": 24.1286053839, 
			 "total_energy": -1639.95427247, 
			 "HOMO_LUMO_gap": 0.18154, 
			 "cosmo_polarized_energy": -20.56, 
			 "cosmo_cavitation_energy": 40.86, 
			 "cosmo_dispersion_energy": -29.0, 
			 "cosmo_repulsion_energy": 2.22, 
			 "cosmo_total_nonelectrostatic_energy": 14.08, 
			 "SMD_solvation_energy": 3.54 
		},
		"coords": [
			{
				"x": 2.7084383308,
				"y": -0.606083288,
				"z": 0.1087589336,
				"element": "C" 
			},
			{
				"x": 1.9872360298,
				"y": 0.0951814901,
				"z": 1.264797371,
				"element": "C" 
			},
			{
				"x": 0.7756720013,
				"y": 0.8248982124,
				"z": 0.8694571436,
				"element": "N" 
			},
			{
				"x": 0.9098312972,
				"y": 2.1359872766,
				"z": 0.2153758701,
				"element": "C" 
			},
			{
				"x": 1.0191672143,
				"y": 3.2928784285,
				"z": 1.2108533283,
				"element": "C" 
			},
			{
				"x": -0.7372977588,
				"y": 0.1605739386,
				"z": 1.089337031,
				"element": "S" 
			},
			{
				"x": -0.6224266937,
				"y": -0.812580208,
				"z": 2.1816157013,
				"element": "O" 
			},
			{
				"x": -1.6814401677,
				"y": 1.2812168448,
				"z": 1.1382277808,
				"element": "O" 
			},
			{
				"x": -1.1313411379,
				"y": -0.779119885,
				"z": -0.3957691527,
				"element": "C" 
			},
			{
				"x": -0.8563436245,
				"y": -2.1457779716,
				"z": -0.4045703888,
				"element": "C" 
			},
			{
				"x": -1.1514395775,
				"y": -2.8183577202,
				"z": -1.5887235213,
				"element": "C" 
			},
			{
				"x": -1.6943169447,
				"y": -2.1670285822,
				"z": -2.7258538721,
				"element": "C" 
			},
			{
				"x": -1.975422685,
				"y": -0.7952112386,
				"z": -2.6766983363,
				"element": "C" 
			},
			{
				"x": -1.6928053868,
				"y": -0.1082226124,
				"z": -1.5028307517,
				"element": "C" 
			},
			{
				"x": -1.8745828666,
				"y": -3.072852921,
				"z": -3.7589881053,
				"element": "N" 
			},
			{
				"x": -1.4741682215,
				"y": -4.2234081982,
				"z": -3.2715335801,
				"element": "C" 
			},
			{
				"x": -1.5489339173,
				"y": -5.5082099137,
				"z": -4.0225428352,
				"element": "C" 
			},
			{
				"x": -0.0067624903,
				"y": -6.4722196886,
				"z": -3.8975135948,
				"element": "Cl" 
			},
			{
				"x": -1.0390262175,
				"y": -4.1436698388,
				"z": -1.9677758235,
				"element": "N" 
			},
			{
				"x": 3.0027371225,
				"y": 0.1004401142,
				"z": -0.6740920796,
				"element": "H" 
			},
			{
				"x": 2.0721273183,
				"y": -1.3687236444,
				"z": -0.3488855385,
				"element": "H" 
			},
			{
				"x": 3.6183807573,
				"y": -1.0935475777,
				"z": 0.4751396078,
				"element": "H" 
			},
			{
				"x": 2.6581741911,
				"y": 0.8186062952,
				"z": 1.744030622,
				"element": "H" 
			},
			{
				"x": 1.7032991794,
				"y": -0.6224065559,
				"z": 2.0363576673,
				"element": "H" 
			},
			{
				"x": 0.0525284427,
				"y": 2.2947192406,
				"z": -0.4423421997,
				"element": "H" 
			},
			{
				"x": 1.7954463571,
				"y": 2.0936037678,
				"z": -0.4295403571,
				"element": "H" 
			},
			{
				"x": 1.1663577706,
				"y": 4.2391446674,
				"z": 0.6785305593,
				"element": "H" 
			},
			{
				"x": 1.8656430879,
				"y": 3.155154398,
				"z": 1.8914738339,
				"element": "H" 
			},
			{
				"x": 0.1047667906,
				"y": 3.3629603317,
				"z": 1.8042141428,
				"element": "H" 
			},
			{
				"x": -0.4652990044,
				"y": -2.6368004507,
				"z": 0.479304107,
				"element": "H" 
			},
			{
				"x": -2.4137280625,
				"y": -0.2950200853,
				"z": -3.5336440195,
				"element": "H" 
			},
			{
				"x": -1.9321275968,
				"y": 0.9448773125,
				"z": -1.4114376199,
				"element": "H" 
			},
			{
				"x": -1.7283635264,
				"y": -5.2928505923,
				"z": -5.0740466383,
				"element": "H" 
			},
			{
				"x": -2.335621793,
				"y": -6.1616872924,
				"z": -3.6393752017,
				"element": "H" 
			},
			{
				"x": -0.6118582181,
				"y": -4.8935640532,
				"z": -1.4448100834,
				"element": "H" 
			}
		],
		 "valence_orbital": [ 
			{
				"type": "occ",
				"energy": -0.29661,
				"method": "rhf"
			},
			{
				"type": "occ",
				"energy": -0.29292,
				"method": "rhf"
			},
			{
				"type": "occ",
				"energy": -0.26124,
				"method": "rhf"
			},
			{
				"type": "occ",
				"energy": -0.24951,
				"method": "rhf"
			},
			{
				"type": "occ",
				"energy": -0.23391,
				"method": "rhf"
			},
			{
				"type": "unocc",
				"energy": -0.05237,
				"method": "rhf"
			},
			{
				"type": "unocc",
				"energy": -0.00855,
				"method": "rhf"
			},
			{
				"type": "unocc",
				"energy": -0.00375,
				"method": "rhf"
			},
			{
				"type": "unocc",
				"energy": 0.03901,
				"method": "rhf"
			},
			{
				"type": "unocc",
				"energy": 0.06096,
				"method": "rhf"
			}
		],
		"cosmo_sigma_profile": { 
			"-0.025": 0.0,
			"-0.024": 0.0,
			"-0.023": 0.0,
			"-0.022": 0.0,
			"-0.021": 0.0,
			"-0.02": 0.0,
			"-0.019": 0.0,
			"-0.018": 0.0,
			"-0.017": 0.540684665383,
			"-0.016": 1.36696632861,
			"-0.015": 1.16004199064,
			"-0.014": 0.813536560947,
			"-0.013": 1.48528177068,
			"-0.012": 1.17033495523,
			"-0.011": 0.962060187952,
			"-0.01": 1.94955165207,
			"-0.009": 6.06705860861,
			"-0.008": 5.80842036771,
			"-0.007": 7.24354611934,
			"-0.006": 10.0450795229,
			"-0.005": 18.4592364971,
			"-0.004": 21.5127093388,
			"-0.003": 25.7810535679,
			"-0.002": 27.5233313243,
			"-0.001": 24.767102808,
			"0.0": 30.5049185404,
			"0.001": 28.0414464382,
			"0.002": 20.1576316968,
			"0.003": 20.7294009479,
			"0.004": 12.0640708944,
			"0.005": 13.3478800189,
			"0.006": 7.36435514216,
			"0.007": 4.96782254103,
			"0.008": 4.34248344046,
			"0.009": 3.98256564565,
			"0.01": 6.12105079269,
			"0.011": 8.3244462101,
			"0.012": 6.26473298983,
			"0.013": 0.674892902812,
			"0.014": 1.20068336377,
			"0.015": 0.562540591969,
			"0.016": 0.71528214068,
			"0.017": 0.0999574301113,
			"0.018": 0.0,
			"0.019": 0.0,
			"0.02": 0.0,
			"0.021": 0.0,
			"0.022": 0.0,
			"0.023": 0.0,
			"0.024": 0.0,
			"0.025": 0.0
		}
	}
}
