{
	 "smiles": "CC1=CC(CCC(O)=O)=CC(C)=C1", 
	 "Tm": 323.15, 
	 "num_atms": 27, 
	 "gaussian": { 
		 "optdone": 1, 
		 "sigma_profile": "yes", 
		 "theory": "DFT", 
		 "functional": "B3LYP", 
		 "basiset": "6-31G**", 
		 "properties": { 
			 "R2extent": 3653.6358, 
			 "electric_dipole_moment_norm": 5.43598042123, 
			 "electric_quadrupole_moment_norm": 25.0496685367, 
			 "total_energy": -578.087104238, 
			 "HOMO_LUMO_gap": 0.23053, 
			 "cosmo_polarized_energy": -12.18, 
			 "cosmo_cavitation_energy": 29.98, 
			 "cosmo_dispersion_energy": -21.08, 
			 "cosmo_repulsion_energy": 1.69, 
			 "cosmo_total_nonelectrostatic_energy": 10.59, 
			 "SMD_solvation_energy": 6.05 
		},
		"coords": [
			{
				"x": 0.3951019936,
				"y": -2.5055531561,
				"z": 0.7648227332,
				"element": "C" 
			},
			{
				"x": 0.408192093,
				"y": -1.0069338251,
				"z": 0.5736203963,
				"element": "C" 
			},
			{
				"x": -0.0729492844,
				"y": -0.4238527824,
				"z": -0.5991087939,
				"element": "C" 
			},
			{
				"x": -0.059808248,
				"y": 0.9697169103,
				"z": -0.78351212,
				"element": "C" 
			},
			{
				"x": -0.5865616452,
				"y": 1.5757623059,
				"z": -2.0724015702,
				"element": "C" 
			},
			{
				"x": 0.2817172246,
				"y": 1.3116622488,
				"z": -3.3283894138,
				"element": "C" 
			},
			{
				"x": 1.5956172314,
				"y": 2.0860140696,
				"z": -3.4120552718,
				"element": "C" 
			},
			{
				"x": 2.3900597142,
				"y": 2.0616938668,
				"z": -2.3132744751,
				"element": "O" 
			},
			{
				"x": 1.9484343261,
				"y": 2.6792254668,
				"z": -4.4021365806,
				"element": "O" 
			},
			{
				"x": 0.4507669117,
				"y": 1.7753099236,
				"z": 0.2400193565,
				"element": "C" 
			},
			{
				"x": 0.9419004259,
				"y": 1.2189215721,
				"z": 1.4339660665,
				"element": "C" 
			},
			{
				"x": 1.4733952874,
				"y": 2.1133290931,
				"z": 2.5292841109,
				"element": "C" 
			},
			{
				"x": 0.913532959,
				"y": -0.1680219382,
				"z": 1.5806427173,
				"element": "C" 
			},
			{
				"x": 1.4135864474,
				"y": -2.9049441119,
				"z": 0.8363202605,
				"element": "H" 
			},
			{
				"x": -0.1240690348,
				"y": -2.7843094186,
				"z": 1.6884711462,
				"element": "H" 
			},
			{
				"x": -0.1031511997,
				"y": -3.0114345684,
				"z": -0.066481158,
				"element": "H" 
			},
			{
				"x": -0.4756459534,
				"y": -1.0616507667,
				"z": -1.3834982101,
				"element": "H" 
			},
			{
				"x": -0.722308741,
				"y": 2.6554024449,
				"z": -1.9458554312,
				"element": "H" 
			},
			{
				"x": -1.5815041122,
				"y": 1.1622621444,
				"z": -2.2746062105,
				"element": "H" 
			},
			{
				"x": -0.2758307702,
				"y": 1.5711847979,
				"z": -4.2305354222,
				"element": "H" 
			},
			{
				"x": 0.5169456509,
				"y": 0.2407777931,
				"z": -3.3897470086,
				"element": "H" 
			},
			{
				"x": 1.963635378,
				"y": 1.5774833358,
				"z": -1.5862657026,
				"element": "H" 
			},
			{
				"x": 0.4597697193,
				"y": 2.8560214227,
				"z": 0.113111283,
				"element": "H" 
			},
			{
				"x": 0.6766144473,
				"y": 2.7352780496,
				"z": 2.954000165,
				"element": "H" 
			},
			{
				"x": 2.2435106655,
				"y": 2.7937182151,
				"z": 2.1497202644,
				"element": "H" 
			},
			{
				"x": 1.9108010297,
				"y": 1.5305737702,
				"z": 3.344216461,
				"element": "H" 
			},
			{
				"x": 1.2907474839,
				"y": -0.6118368631,
				"z": 2.4996724077,
				"element": "H" 
			}
		],
		 "valence_orbital": [ 
			{
				"type": "occ",
				"energy": -0.33759,
				"method": "rhf"
			},
			{
				"type": "occ",
				"energy": -0.30161,
				"method": "rhf"
			},
			{
				"type": "occ",
				"energy": -0.26004,
				"method": "rhf"
			},
			{
				"type": "occ",
				"energy": -0.25177,
				"method": "rhf"
			},
			{
				"type": "occ",
				"energy": -0.24833,
				"method": "rhf"
			},
			{
				"type": "unocc",
				"energy": -0.0178,
				"method": "rhf"
			},
			{
				"type": "unocc",
				"energy": -0.01463,
				"method": "rhf"
			},
			{
				"type": "unocc",
				"energy": 0.0203,
				"method": "rhf"
			},
			{
				"type": "unocc",
				"energy": 0.08366,
				"method": "rhf"
			},
			{
				"type": "unocc",
				"energy": 0.09945,
				"method": "rhf"
			}
		],
		"cosmo_sigma_profile": { 
			"-0.025": 0.0,
			"-0.024": 0.0,
			"-0.023": 0.0,
			"-0.022": 0.0,
			"-0.021": 0.0,
			"-0.02": 0.0,
			"-0.019": 0.0,
			"-0.018": 0.0,
			"-0.017": 0.0,
			"-0.016": 0.0,
			"-0.015": 0.0,
			"-0.014": 0.0,
			"-0.013": 0.0,
			"-0.012": 0.0,
			"-0.011": 0.0,
			"-0.01": 0.0,
			"-0.009": 0.768766326345,
			"-0.008": 1.47627136061,
			"-0.007": 1.88136515956,
			"-0.006": 7.69228564528,
			"-0.005": 19.3424862057,
			"-0.004": 29.2635848638,
			"-0.003": 27.3911214883,
			"-0.002": 25.5862100605,
			"-0.001": 22.4409178746,
			"0.0": 21.0878077172,
			"0.001": 14.2739270481,
			"0.002": 9.53711090125,
			"0.003": 7.88051960491,
			"0.004": 7.42026295471,
			"0.005": 6.91200380949,
			"0.006": 5.2908648546,
			"0.007": 2.56040195832,
			"0.008": 2.18144929546,
			"0.009": 3.05241591558,
			"0.01": 3.40150084928,
			"0.011": 5.78707276858,
			"0.012": 6.1456863049,
			"0.013": 3.90554196706,
			"0.014": 0.477597071877,
			"0.015": 0.0,
			"0.016": 0.0,
			"0.017": 0.0,
			"0.018": 0.0,
			"0.019": 0.0,
			"0.02": 0.0,
			"0.021": 0.0,
			"0.022": 0.0,
			"0.023": 0.0,
			"0.024": 0.0,
			"0.025": 0.0
		}
	}
}
