{
	 "smiles": "OC(=O)C1=C2C=CC(F)=CC2=NC(=C1)C1=CC=CO1", 
	 "Tm": 546.15, 
	 "num_atms": 27, 
	 "gaussian": { 
		 "optdone": 1, 
		 "sigma_profile": "yes", 
		 "theory": "DFT", 
		 "functional": "B3LYP", 
		 "basiset": "6-31G**", 
		 "properties": { 
			 "R2extent": 5814.0305, 
			 "electric_dipole_moment_norm": 0.986913775362, 
			 "electric_quadrupole_moment_norm": 22.3315353803, 
			 "total_energy": -918.568379459, 
			 "HOMO_LUMO_gap": 0.13282, 
			 "cosmo_polarized_energy": -11.51, 
			 "cosmo_cavitation_energy": 33.28, 
			 "cosmo_dispersion_energy": -24.37, 
			 "cosmo_repulsion_energy": 1.8, 
			 "cosmo_total_nonelectrostatic_energy": 10.71, 
			 "SMD_solvation_energy": 6.82 
		},
		"coords": [
			{
				"x": -0.4465552365,
				"y": 3.2068840619,
				"z": 0.547913118,
				"element": "O" 
			},
			{
				"x": -0.7122158035,
				"y": 2.0556449176,
				"z": 1.2095796226,
				"element": "C" 
			},
			{
				"x": -1.3487061836,
				"y": 2.0577015978,
				"z": 2.2435269502,
				"element": "O" 
			},
			{
				"x": -0.190952135,
				"y": 0.807556198,
				"z": 0.5571296538,
				"element": "C" 
			},
			{
				"x": 0.7396904482,
				"y": 0.7328118546,
				"z": -0.5339658006,
				"element": "C" 
			},
			{
				"x": 1.3624470402,
				"y": 1.8354930313,
				"z": -1.1811516832,
				"element": "C" 
			},
			{
				"x": 2.2519604353,
				"y": 1.6472104048,
				"z": -2.2158826484,
				"element": "C" 
			},
			{
				"x": 2.5529185378,
				"y": 0.3396433111,
				"z": -2.6437632631,
				"element": "C" 
			},
			{
				"x": 3.4254362956,
				"y": 0.1913162045,
				"z": -3.6597879629,
				"element": "F" 
			},
			{
				"x": 1.9922846735,
				"y": -0.7641465436,
				"z": -2.0599015817,
				"element": "C" 
			},
			{
				"x": 1.0752115928,
				"y": -0.5944470897,
				"z": -0.9879115075,
				"element": "C" 
			},
			{
				"x": 0.5617413904,
				"y": -1.727571749,
				"z": -0.4442862936,
				"element": "N" 
			},
			{
				"x": -0.2876816491,
				"y": -1.6164502283,
				"z": 0.5679844131,
				"element": "C" 
			},
			{
				"x": -0.684323247,
				"y": -0.360423514,
				"z": 1.0991328689,
				"element": "C" 
			},
			{
				"x": -0.8094395298,
				"y": -2.856405002,
				"z": 1.1239454417,
				"element": "C" 
			},
			{
				"x": -0.5964371353,
				"y": -4.1740685976,
				"z": 0.8104277733,
				"element": "C" 
			},
			{
				"x": -1.3927667445,
				"y": -4.9393566455,
				"z": 1.7134626777,
				"element": "C" 
			},
			{
				"x": -2.0341503437,
				"y": -4.037759293,
				"z": 2.5126876834,
				"element": "C" 
			},
			{
				"x": -1.6925870656,
				"y": -2.7678301193,
				"z": 2.1696500568,
				"element": "O" 
			},
			{
				"x": -0.8517620507,
				"y": 3.911328333,
				"z": 1.0817851425,
				"element": "H" 
			},
			{
				"x": 1.1330366403,
				"y": 2.8397090418,
				"z": -0.8569521736,
				"element": "H" 
			},
			{
				"x": 2.728569596,
				"y": 2.4866568784,
				"z": -2.7104150108,
				"element": "H" 
			},
			{
				"x": 2.2327954428,
				"y": -1.7668287899,
				"z": -2.3913880969,
				"element": "H" 
			},
			{
				"x": -1.3775964074,
				"y": -0.3103318905,
				"z": 1.9288191794,
				"element": "H" 
			},
			{
				"x": 0.053988915,
				"y": -4.5310613336,
				"z": 0.0267188711,
				"element": "H" 
			},
			{
				"x": -1.4779528962,
				"y": -6.0152508096,
				"z": 1.7632187005,
				"element": "H" 
			},
			{
				"x": -2.73125458,
				"y": -4.1324242292,
				"z": 3.3308238692,
				"element": "H" 
			}
		],
		 "valence_orbital": [ 
			{
				"type": "occ",
				"energy": -0.28639,
				"method": "rhf"
			},
			{
				"type": "occ",
				"energy": -0.2736,
				"method": "rhf"
			},
			{
				"type": "occ",
				"energy": -0.26817,
				"method": "rhf"
			},
			{
				"type": "occ",
				"energy": -0.24038,
				"method": "rhf"
			},
			{
				"type": "occ",
				"energy": -0.21729,
				"method": "rhf"
			},
			{
				"type": "unocc",
				"energy": -0.08447,
				"method": "rhf"
			},
			{
				"type": "unocc",
				"energy": -0.03793,
				"method": "rhf"
			},
			{
				"type": "unocc",
				"energy": -0.01,
				"method": "rhf"
			},
			{
				"type": "unocc",
				"energy": 0.01313,
				"method": "rhf"
			},
			{
				"type": "unocc",
				"energy": 0.0461,
				"method": "rhf"
			}
		],
		"cosmo_sigma_profile": { 
			"-0.025": 0.0,
			"-0.024": 0.0,
			"-0.023": 0.0,
			"-0.022": 0.0,
			"-0.021": 0.0,
			"-0.02": 0.0,
			"-0.019": 0.434891304343,
			"-0.018": 1.13555023054,
			"-0.017": 0.733641344495,
			"-0.016": 0.63412823617,
			"-0.015": 0.689817600561,
			"-0.014": 0.141591064865,
			"-0.013": 1.21252010958,
			"-0.012": 0.984521673937,
			"-0.011": 0.784504830815,
			"-0.01": 0.968166145562,
			"-0.009": 2.29208324186,
			"-0.008": 4.78537553661,
			"-0.007": 8.52230894876,
			"-0.006": 8.15065459679,
			"-0.005": 10.9005753559,
			"-0.004": 12.42180107,
			"-0.003": 13.4873829243,
			"-0.002": 13.6743316445,
			"-0.001": 25.713889696,
			"0.0": 29.4888319197,
			"0.001": 32.0700334004,
			"0.002": 26.1965944081,
			"0.003": 22.017468713,
			"0.004": 21.5642056496,
			"0.005": 8.02245212196,
			"0.006": 3.60755981262,
			"0.007": 3.19542415843,
			"0.008": 2.99098079688,
			"0.009": 2.97242989767,
			"0.01": 3.78798925325,
			"0.011": 5.54633418123,
			"0.012": 0.405539769552,
			"0.013": 0.0,
			"0.014": 0.0,
			"0.015": 0.0,
			"0.016": 0.0,
			"0.017": 0.0,
			"0.018": 0.0,
			"0.019": 0.0,
			"0.02": 0.0,
			"0.021": 0.0,
			"0.022": 0.0,
			"0.023": 0.0,
			"0.024": 0.0,
			"0.025": 0.0
		}
	}
}
