{
	 "smiles": "CCC(=O)C1C(=O)CC(CC1=O)C(O)=O", 
	 "Tm": 633.15, 
	 "num_atms": 27, 
	 "gaussian": { 
		 "optdone": 1, 
		 "sigma_profile": "yes", 
		 "theory": "DFT", 
		 "functional": "B3LYP", 
		 "basiset": "6-31G**", 
		 "properties": { 
			 "R2extent": 4452.1244, 
			 "electric_dipole_moment_norm": 4.28729159843, 
			 "electric_quadrupole_moment_norm": 8.28802714342, 
			 "total_energy": -764.420020136, 
			 "HOMO_LUMO_gap": 0.19486, 
			 "cosmo_polarized_energy": -20.74, 
			 "cosmo_cavitation_energy": 31.02, 
			 "cosmo_dispersion_energy": -21.79, 
			 "cosmo_repulsion_energy": 1.75, 
			 "cosmo_total_nonelectrostatic_energy": 10.98, 
			 "SMD_solvation_energy": 8.03 
		},
		"coords": [
			{
				"x": 2.009661222,
				"y": 2.6910088215,
				"z": 1.2190427137,
				"element": "C" 
			},
			{
				"x": 1.2606577978,
				"y": 1.4524540416,
				"z": 0.7314576773,
				"element": "C" 
			},
			{
				"x": -0.0288955951,
				"y": 1.782430052,
				"z": 0.011040164,
				"element": "C" 
			},
			{
				"x": -0.4249363131,
				"y": 2.917680039,
				"z": -0.161803037,
				"element": "O" 
			},
			{
				"x": -0.8824689977,
				"y": 0.6190330331,
				"z": -0.5307550693,
				"element": "C" 
			},
			{
				"x": -0.2174403858,
				"y": -0.1973229357,
				"z": -1.6490085349,
				"element": "C" 
			},
			{
				"x": 0.86205526,
				"y": 0.0968235806,
				"z": -2.1162082974,
				"element": "O" 
			},
			{
				"x": -0.9985962244,
				"y": -1.4104911664,
				"z": -2.1507786376,
				"element": "C" 
			},
			{
				"x": -2.3825814236,
				"y": -1.5736746941,
				"z": -1.4904676252,
				"element": "C" 
			},
			{
				"x": -2.2480673051,
				"y": -1.5165406696,
				"z": 0.0446424185,
				"element": "C" 
			},
			{
				"x": -1.4704653379,
				"y": -0.3019800942,
				"z": 0.548643342,
				"element": "C" 
			},
			{
				"x": -1.3348284323,
				"y": -0.0854367613,
				"z": 1.7338879469,
				"element": "O" 
			},
			{
				"x": -3.0565070703,
				"y": -2.8612528252,
				"z": -1.9362065241,
				"element": "C" 
			},
			{
				"x": -2.3383861571,
				"y": -3.9557254845,
				"z": -1.5806096879,
				"element": "O" 
			},
			{
				"x": -4.1043502344,
				"y": -2.9306020106,
				"z": -2.5356630421,
				"element": "O" 
			},
			{
				"x": 2.2691470641,
				"y": 3.3463454976,
				"z": 0.3834789285,
				"element": "H" 
			},
			{
				"x": 1.3964470608,
				"y": 3.2719937108,
				"z": 1.9128803716,
				"element": "H" 
			},
			{
				"x": 2.9319859502,
				"y": 2.4022979964,
				"z": 1.7313241121,
				"element": "H" 
			},
			{
				"x": 1.0042595491,
				"y": 0.7865582921,
				"z": 1.5650828196,
				"element": "H" 
			},
			{
				"x": 1.8743827531,
				"y": 0.8604873381,
				"z": 0.0407683044,
				"element": "H" 
			},
			{
				"x": -1.7571797983,
				"y": 1.0940953087,
				"z": -1.006796323,
				"element": "H" 
			},
			{
				"x": -1.0775121416,
				"y": -1.3294179003,
				"z": -3.2402539002,
				"element": "H" 
			},
			{
				"x": -0.3794999696,
				"y": -2.2935324473,
				"z": -1.9507039125,
				"element": "H" 
			},
			{
				"x": -3.0495838959,
				"y": -0.7761227903,
				"z": -1.8314956808,
				"element": "H" 
			},
			{
				"x": -1.7210297561,
				"y": -2.4065603935,
				"z": 0.4096662275,
				"element": "H" 
			},
			{
				"x": -3.2266972552,
				"y": -1.5140660124,
				"z": 0.5365624746,
				"element": "H" 
			},
			{
				"x": -2.8349703639,
				"y": -4.7278815261,
				"z": -1.9004272288,
				"element": "H" 
			}
		],
		 "valence_orbital": [ 
			{
				"type": "occ",
				"energy": -0.34042,
				"method": "rhf"
			},
			{
				"type": "occ",
				"energy": -0.30693,
				"method": "rhf"
			},
			{
				"type": "occ",
				"energy": -0.28114,
				"method": "rhf"
			},
			{
				"type": "occ",
				"energy": -0.26849,
				"method": "rhf"
			},
			{
				"type": "occ",
				"energy": -0.25108,
				"method": "rhf"
			},
			{
				"type": "unocc",
				"energy": -0.05622,
				"method": "rhf"
			},
			{
				"type": "unocc",
				"energy": -0.03547,
				"method": "rhf"
			},
			{
				"type": "unocc",
				"energy": -0.02245,
				"method": "rhf"
			},
			{
				"type": "unocc",
				"energy": -0.01397,
				"method": "rhf"
			},
			{
				"type": "unocc",
				"energy": 0.04728,
				"method": "rhf"
			}
		],
		"cosmo_sigma_profile": { 
			"-0.025": 0.0,
			"-0.024": 0.0,
			"-0.023": 0.0,
			"-0.022": 0.0,
			"-0.021": 0.0,
			"-0.02": 0.0,
			"-0.019": 0.186432405414,
			"-0.018": 0.884092947975,
			"-0.017": 1.01237829976,
			"-0.016": 0.654970775948,
			"-0.015": 1.11293884383,
			"-0.014": 0.840664021197,
			"-0.013": 0.226996418765,
			"-0.012": 1.80823237574,
			"-0.011": 4.45732993865,
			"-0.01": 4.05246758686,
			"-0.009": 4.49105598815,
			"-0.008": 7.89219584301,
			"-0.007": 16.1846930147,
			"-0.006": 9.79264959436,
			"-0.005": 8.57581611895,
			"-0.004": 13.2207517253,
			"-0.003": 17.4051789524,
			"-0.002": 17.1741921206,
			"-0.001": 18.0199823944,
			"0.0": 12.8410689906,
			"0.001": 12.7218960607,
			"0.002": 9.69803567457,
			"0.003": 8.26103465269,
			"0.004": 6.36510355968,
			"0.005": 6.48072830789,
			"0.006": 6.45971317814,
			"0.007": 7.56435959295,
			"0.008": 6.18416847475,
			"0.009": 7.69885754146,
			"0.01": 11.6554841211,
			"0.011": 13.6942999085,
			"0.012": 5.94502284478,
			"0.013": 0.147964985154,
			"0.014": 0.0,
			"0.015": 0.0,
			"0.016": 0.0,
			"0.017": 0.0,
			"0.018": 0.0,
			"0.019": 0.0,
			"0.02": 0.0,
			"0.021": 0.0,
			"0.022": 0.0,
			"0.023": 0.0,
			"0.024": 0.0,
			"0.025": 0.0
		}
	}
}
