{
	 "smiles": "OC1=CC=C(CCNC(=O)C2=CC=C(Cl)C=C2)C=C1", 
	 "Tm": 442.15, 
	 "num_atms": 33, 
	 "gaussian": { 
		 "optdone": 1, 
		 "sigma_profile": "yes", 
		 "theory": "DFT", 
		 "functional": "B3LYP", 
		 "basiset": "6-31G**", 
		 "properties": { 
			 "R2extent": 9741.4043, 
			 "electric_dipole_moment_norm": 2.25586339347, 
			 "electric_quadrupole_moment_norm": 15.5653105012, 
			 "total_energy": -1245.44227842, 
			 "HOMO_LUMO_gap": 0.17784, 
			 "cosmo_polarized_energy": -16.25, 
			 "cosmo_cavitation_energy": 39.37, 
			 "cosmo_dispersion_energy": -27.57, 
			 "cosmo_repulsion_energy": 2.13, 
			 "cosmo_total_nonelectrostatic_energy": 13.94, 
			 "SMD_solvation_energy": 6.06 
		},
		"coords": [
			{
				"x": 5.303570626,
				"y": -2.5415691972,
				"z": 1.4675542503,
				"element": "O" 
			},
			{
				"x": 4.2280773378,
				"y": -1.8243976272,
				"z": 1.0257850187,
				"element": "C" 
			},
			{
				"x": 4.1594418974,
				"y": -0.4740437646,
				"z": 1.3877155557,
				"element": "C" 
			},
			{
				"x": 3.0850531281,
				"y": 0.3005340799,
				"z": 0.9615778701,
				"element": "C" 
			},
			{
				"x": 2.0581170292,
				"y": -0.2361160196,
				"z": 0.1690308917,
				"element": "C" 
			},
			{
				"x": 0.876194685,
				"y": 0.610387987,
				"z": -0.251688928,
				"element": "C" 
			},
			{
				"x": -0.3229967573,
				"y": 0.5364939753,
				"z": 0.7242995665,
				"element": "C" 
			},
			{
				"x": -0.8645437777,
				"y": -0.8155267402,
				"z": 0.8741195017,
				"element": "N" 
			},
			{
				"x": -1.7459073687,
				"y": -1.4276233496,
				"z": 0.0033132617,
				"element": "C" 
			},
			{
				"x": -1.6451142795,
				"y": -2.6213012923,
				"z": -0.2676690123,
				"element": "O" 
			},
			{
				"x": -2.879589996,
				"y": -0.6127730339,
				"z": -0.551451,
				"element": "C" 
			},
			{
				"x": -3.5403788126,
				"y": 0.3772475901,
				"z": 0.1886831138,
				"element": "C" 
			},
			{
				"x": -4.6377552803,
				"y": 1.0522235718,
				"z": -0.3449192916,
				"element": "C" 
			},
			{
				"x": -5.0679310608,
				"y": 0.7339163977,
				"z": -1.6328734143,
				"element": "C" 
			},
			{
				"x": -6.4397235322,
				"y": 1.5899414905,
				"z": -2.3183544013,
				"element": "Cl" 
			},
			{
				"x": -4.4356712221,
				"y": -0.2592362053,
				"z": -2.3830839335,
				"element": "C" 
			},
			{
				"x": -3.3524391107,
				"y": -0.9364317859,
				"z": -1.8301194021,
				"element": "C" 
			},
			{
				"x": 2.1465431885,
				"y": -1.5899451426,
				"z": -0.184625391,
				"element": "C" 
			},
			{
				"x": 3.2164386915,
				"y": -2.3807992635,
				"z": 0.2374656991,
				"element": "C" 
			},
			{
				"x": 5.2305056762,
				"y": -3.4506320283,
				"z": 1.1490730443,
				"element": "H" 
			},
			{
				"x": 4.9542128319,
				"y": -0.0525640437,
				"z": 1.9943901887,
				"element": "H" 
			},
			{
				"x": 3.0471223536,
				"y": 1.3498372807,
				"z": 1.2454091039,
				"element": "H" 
			},
			{
				"x": 0.5290096212,
				"y": 0.3071735527,
				"z": -1.2467246548,
				"element": "H" 
			},
			{
				"x": 1.1793241119,
				"y": 1.6617316491,
				"z": -0.3288774324,
				"element": "H" 
			},
			{
				"x": -0.0150608127,
				"y": 0.891645057,
				"z": 1.7142852084,
				"element": "H" 
			},
			{
				"x": -1.1149060406,
				"y": 1.1987101228,
				"z": 0.3715544784,
				"element": "H" 
			},
			{
				"x": -0.1756959425,
				"y": -1.4910503986,
				"z": 1.1917391585,
				"element": "H" 
			},
			{
				"x": -3.2165793948,
				"y": 0.6026041393,
				"z": 1.1998144317,
				"element": "H" 
			},
			{
				"x": -5.1582102231,
				"y": 1.8094256152,
				"z": 0.2308008066,
				"element": "H" 
			},
			{
				"x": -4.7944762158,
				"y": -0.5001829823,
				"z": -3.3775193885,
				"element": "H" 
			},
			{
				"x": -2.8629686994,
				"y": -1.7330638639,
				"z": -2.380326985,
				"element": "H" 
			},
			{
				"x": 1.3692308328,
				"y": -2.0405139905,
				"z": -0.7967944124,
				"element": "H" 
			},
			{
				"x": 3.2637065157,
				"y": -3.4288017799,
				"z": -0.0514835029,
				"element": "H" 
			}
		],
		 "valence_orbital": [ 
			{
				"type": "occ",
				"energy": -0.26846,
				"method": "rhf"
			},
			{
				"type": "occ",
				"energy": -0.25734,
				"method": "rhf"
			},
			{
				"type": "occ",
				"energy": -0.25384,
				"method": "rhf"
			},
			{
				"type": "occ",
				"energy": -0.24356,
				"method": "rhf"
			},
			{
				"type": "occ",
				"energy": -0.22163,
				"method": "rhf"
			},
			{
				"type": "unocc",
				"energy": -0.04379,
				"method": "rhf"
			},
			{
				"type": "unocc",
				"energy": -0.02135,
				"method": "rhf"
			},
			{
				"type": "unocc",
				"energy": -0.00928,
				"method": "rhf"
			},
			{
				"type": "unocc",
				"energy": 0.00596,
				"method": "rhf"
			},
			{
				"type": "unocc",
				"energy": 0.02521,
				"method": "rhf"
			}
		],
		"cosmo_sigma_profile": { 
			"-0.025": 0.0,
			"-0.024": 0.0,
			"-0.023": 0.0,
			"-0.022": 0.0,
			"-0.021": 0.0,
			"-0.02": 0.0,
			"-0.019": 0.0,
			"-0.018": 0.325147189698,
			"-0.017": 1.00255170566,
			"-0.016": 0.870664552483,
			"-0.015": 1.50770637279,
			"-0.014": 0.778274770288,
			"-0.013": 0.74921510613,
			"-0.012": 0.607653670261,
			"-0.011": 1.10724979713,
			"-0.01": 2.03057258119,
			"-0.009": 1.97923159057,
			"-0.008": 3.00219796261,
			"-0.007": 7.7217222806,
			"-0.006": 12.3966780295,
			"-0.005": 18.6634096484,
			"-0.004": 29.1684381184,
			"-0.003": 24.76065648,
			"-0.002": 23.6032040436,
			"-0.001": 18.7985276856,
			"0.0": 21.998169476,
			"0.001": 22.6152478645,
			"0.002": 25.4091704217,
			"0.003": 23.3171792675,
			"0.004": 23.4781838292,
			"0.005": 14.8686357689,
			"0.006": 8.94019301084,
			"0.007": 3.59541711141,
			"0.008": 2.95007913515,
			"0.009": 2.64264076415,
			"0.01": 2.69233209448,
			"0.011": 3.99746111209,
			"0.012": 3.10952617379,
			"0.013": 4.66072055015,
			"0.014": 2.30818220333,
			"0.015": 0.00109305788029,
			"0.016": 0.0,
			"0.017": 0.0,
			"0.018": 0.0,
			"0.019": 0.0,
			"0.02": 0.0,
			"0.021": 0.0,
			"0.022": 0.0,
			"0.023": 0.0,
			"0.024": 0.0,
			"0.025": 0.0
		}
	}
}
