{
	 "smiles": "ClC1=C(Cl)C=NC=C1", 
	 "Tm": 295.65, 
	 "num_atms": 11, 
	 "gaussian": { 
		 "optdone": 1, 
		 "sigma_profile": "yes", 
		 "theory": "DFT", 
		 "functional": "B3LYP", 
		 "basiset": "6-31G**", 
		 "properties": { 
			 "R2extent": 1530.6257, 
			 "electric_dipole_moment_norm": 1.31299266563, 
			 "electric_quadrupole_moment_norm": 5.8237152566, 
			 "total_energy": -1167.46293529, 
			 "HOMO_LUMO_gap": 0.22141, 
			 "cosmo_polarized_energy": -4.9, 
			 "cosmo_cavitation_energy": 18.94, 
			 "cosmo_dispersion_energy": -14.55, 
			 "cosmo_repulsion_energy": 1.2, 
			 "cosmo_total_nonelectrostatic_energy": 5.58, 
			 "SMD_solvation_energy": 1.47 
		},
		"coords": [
			{
				"x": 1.8841770296,
				"y": 0.0988931363,
				"z": -0.4407757034,
				"element": "Cl" 
			},
			{
				"x": 0.3831315093,
				"y": -0.7779061819,
				"z": -0.5197236736,
				"element": "C" 
			},
			{
				"x": -0.7588411005,
				"y": -0.2367276562,
				"z": -1.1214994328,
				"element": "C" 
			},
			{
				"x": -0.7736753101,
				"y": 1.3501250626,
				"z": -1.8376160526,
				"element": "Cl" 
			},
			{
				"x": -1.9266523764,
				"y": -1.0093205624,
				"z": -1.1423909998,
				"element": "C" 
			},
			{
				"x": -2.0123083112,
				"y": -2.2329533292,
				"z": -0.6207334288,
				"element": "N" 
			},
			{
				"x": -0.9130855879,
				"y": -2.7385643073,
				"z": -0.0483565451,
				"element": "C" 
			},
			{
				"x": 0.3002814132,
				"y": -2.0582894805,
				"z": 0.0282635698,
				"element": "C" 
			},
			{
				"x": -2.8210003694,
				"y": -0.6007965532,
				"z": -1.6068265813,
				"element": "H" 
			},
			{
				"x": -1.0016110767,
				"y": -3.7378483287,
				"z": 0.3718082762,
				"element": "H" 
			},
			{
				"x": 1.1664841802,
				"y": -2.5063117994,
				"z": 0.5015505715,
				"element": "H" 
			}
		],
		 "valence_orbital": [ 
			{
				"type": "occ",
				"energy": -0.34159,
				"method": "rhf"
			},
			{
				"type": "occ",
				"energy": -0.32629,
				"method": "rhf"
			},
			{
				"type": "occ",
				"energy": -0.28764,
				"method": "rhf"
			},
			{
				"type": "occ",
				"energy": -0.27667,
				"method": "rhf"
			},
			{
				"type": "occ",
				"energy": -0.26953,
				"method": "rhf"
			},
			{
				"type": "unocc",
				"energy": -0.04812,
				"method": "rhf"
			},
			{
				"type": "unocc",
				"energy": -0.03641,
				"method": "rhf"
			},
			{
				"type": "unocc",
				"energy": -0.00801,
				"method": "rhf"
			},
			{
				"type": "unocc",
				"energy": 0.05157,
				"method": "rhf"
			},
			{
				"type": "unocc",
				"energy": 0.11535,
				"method": "rhf"
			}
		],
		"cosmo_sigma_profile": { 
			"-0.025": 0.0,
			"-0.024": 0.0,
			"-0.023": 0.0,
			"-0.022": 0.0,
			"-0.021": 0.0,
			"-0.02": 0.0,
			"-0.019": 0.0,
			"-0.018": 0.0,
			"-0.017": 0.0,
			"-0.016": 0.0,
			"-0.015": 0.0,
			"-0.014": 0.0,
			"-0.013": 0.0,
			"-0.012": 0.0,
			"-0.011": 0.0,
			"-0.01": 0.0,
			"-0.009": 1.11001956263,
			"-0.008": 5.24850599408,
			"-0.007": 6.31243771709,
			"-0.006": 5.31789747212,
			"-0.005": 4.87762791141,
			"-0.004": 5.32671450345,
			"-0.003": 8.39690107869,
			"-0.002": 13.0568324753,
			"-0.001": 23.2268159642,
			"0.0": 16.6697107888,
			"0.001": 13.2623647429,
			"0.002": 13.9962830085,
			"0.003": 18.6598534201,
			"0.004": 10.0709505545,
			"0.005": 2.21235224476,
			"0.006": 1.0939953623,
			"0.007": 1.01874264579,
			"0.008": 1.61259908039,
			"0.009": 0.901162755927,
			"0.01": 1.26446966825,
			"0.011": 0.349553226268,
			"0.012": 1.11058903741,
			"0.013": 1.01034082695,
			"0.014": 0.683547217679,
			"0.015": 0.753291390139,
			"0.016": 0.00382059038794,
			"0.017": 0.0,
			"0.018": 0.0,
			"0.019": 0.0,
			"0.02": 0.0,
			"0.021": 0.0,
			"0.022": 0.0,
			"0.023": 0.0,
			"0.024": 0.0,
			"0.025": 0.0
		}
	}
}
