{
	 "smiles": "CN1N=NC2=C1C=CC(CCl)=C2", 
	 "Tm": 357.15, 
	 "num_atms": 20, 
	 "gaussian": { 
		 "optdone": 1, 
		 "sigma_profile": "yes", 
		 "theory": "DFT", 
		 "functional": "B3LYP", 
		 "basiset": "6-31G**", 
		 "properties": { 
			 "R2extent": 2999.1813, 
			 "electric_dipole_moment_norm": 4.44001099773, 
			 "electric_quadrupole_moment_norm": 14.2190524421, 
			 "total_energy": -934.090361196, 
			 "HOMO_LUMO_gap": 0.19178, 
			 "cosmo_polarized_energy": -14.02, 
			 "cosmo_cavitation_energy": 26.07, 
			 "cosmo_dispersion_energy": -19.25, 
			 "cosmo_repulsion_energy": 1.53, 
			 "cosmo_total_nonelectrostatic_energy": 8.35, 
			 "SMD_solvation_energy": 2.44 
		},
		"coords": [
			{
				"x": -0.9437791035,
				"y": 0.8824374408,
				"z": -3.3480587816,
				"element": "C" 
			},
			{
				"x": 0.0032034319,
				"y": 0.5380533904,
				"z": -2.3037501072,
				"element": "N" 
			},
			{
				"x": 1.1671102618,
				"y": -0.0983309986,
				"z": -2.6290906588,
				"element": "N" 
			},
			{
				"x": 1.8551007793,
				"y": -0.3104891555,
				"z": -1.5546921154,
				"element": "N" 
			},
			{
				"x": 1.1481297287,
				"y": 0.1876414267,
				"z": -0.4814438933,
				"element": "C" 
			},
			{
				"x": -0.0580334268,
				"y": 0.7426076568,
				"z": -0.9551795663,
				"element": "C" 
			},
			{
				"x": -0.9916401968,
				"y": 1.3351134412,
				"z": -0.088445528,
				"element": "C" 
			},
			{
				"x": -0.6656762796,
				"y": 1.3467941507,
				"z": 1.2561682113,
				"element": "C" 
			},
			{
				"x": 0.5459615535,
				"y": 0.7912969847,
				"z": 1.7552800339,
				"element": "C" 
			},
			{
				"x": 0.8338861545,
				"y": 0.8494966765,
				"z": 3.2251064268,
				"element": "C" 
			},
			{
				"x": -0.1131314503,
				"y": -0.4046430892,
				"z": 4.1812219384,
				"element": "Cl" 
			},
			{
				"x": 1.4581186482,
				"y": 0.2054817396,
				"z": 0.8869299333,
				"element": "C" 
			},
			{
				"x": -1.2823817198,
				"y": -0.0201544217,
				"z": -3.8625114598,
				"element": "H" 
			},
			{
				"x": -1.8022601836,
				"y": 1.3805772466,
				"z": -2.8960282319,
				"element": "H" 
			},
			{
				"x": -0.4781694287,
				"y": 1.5552231342,
				"z": -4.072343672,
				"element": "H" 
			},
			{
				"x": -1.9218308746,
				"y": 1.7662414471,
				"z": -0.4438018525,
				"element": "H" 
			},
			{
				"x": -1.3608726795,
				"y": 1.7895834985,
				"z": 1.9639733576,
				"element": "H" 
			},
			{
				"x": 0.5512953551,
				"y": 1.8070907694,
				"z": 3.6639323796,
				"element": "H" 
			},
			{
				"x": 1.8832181633,
				"y": 0.6501056884,
				"z": 3.4403153828,
				"element": "H" 
			},
			{
				"x": 2.3866512669,
				"y": -0.2286270265,
				"z": 1.2442182031,
				"element": "H" 
			}
		],
		 "valence_orbital": [ 
			{
				"type": "occ",
				"energy": -0.29715,
				"method": "rhf"
			},
			{
				"type": "occ",
				"energy": -0.29416,
				"method": "rhf"
			},
			{
				"type": "occ",
				"energy": -0.27137,
				"method": "rhf"
			},
			{
				"type": "occ",
				"energy": -0.25663,
				"method": "rhf"
			},
			{
				"type": "occ",
				"energy": -0.24238,
				"method": "rhf"
			},
			{
				"type": "unocc",
				"energy": -0.0506,
				"method": "rhf"
			},
			{
				"type": "unocc",
				"energy": -0.02128,
				"method": "rhf"
			},
			{
				"type": "unocc",
				"energy": 0.02387,
				"method": "rhf"
			},
			{
				"type": "unocc",
				"energy": 0.0465,
				"method": "rhf"
			},
			{
				"type": "unocc",
				"energy": 0.07616,
				"method": "rhf"
			}
		],
		"cosmo_sigma_profile": { 
			"-0.025": 0.0,
			"-0.024": 0.0,
			"-0.023": 0.0,
			"-0.022": 0.0,
			"-0.021": 0.0,
			"-0.02": 0.0,
			"-0.019": 0.0,
			"-0.018": 0.0,
			"-0.017": 0.0,
			"-0.016": 0.0,
			"-0.015": 0.0,
			"-0.014": 0.0,
			"-0.013": 0.0,
			"-0.012": 0.0,
			"-0.011": 0.0,
			"-0.01": 0.00609921517262,
			"-0.009": 1.60428835714,
			"-0.008": 8.67776518867,
			"-0.007": 15.4754533018,
			"-0.006": 15.7712800984,
			"-0.005": 15.5187805281,
			"-0.004": 18.4452119018,
			"-0.003": 11.6369007927,
			"-0.002": 7.88676640076,
			"-0.001": 9.99731088498,
			"0.0": 9.62186445158,
			"0.001": 11.7574971735,
			"0.002": 15.037332267,
			"0.003": 13.1501320942,
			"0.004": 9.9568019906,
			"0.005": 8.16898949636,
			"0.006": 9.65515982402,
			"0.007": 9.50317409031,
			"0.008": 2.85328207476,
			"0.009": 2.34164876605,
			"0.01": 4.0431527881,
			"0.011": 3.15364377085,
			"0.012": 1.75204468614,
			"0.013": 2.40675773321,
			"0.014": 1.18943463084,
			"0.015": 1.089460263,
			"0.016": 0.230920695027,
			"0.017": 0.0,
			"0.018": 0.0,
			"0.019": 0.0,
			"0.02": 0.0,
			"0.021": 0.0,
			"0.022": 0.0,
			"0.023": 0.0,
			"0.024": 0.0,
			"0.025": 0.0
		}
	}
}
