{
	 "smiles": "CCC(=O)C1=CC=C(C=C1)C(O)=O", 
	 "Tm": 452.15, 
	 "num_atms": 23, 
	 "gaussian": { 
		 "optdone": 1, 
		 "sigma_profile": "yes", 
		 "theory": "DFT", 
		 "functional": "B3LYP", 
		 "basiset": "6-31G**", 
		 "properties": { 
			 "R2extent": 3711.8875, 
			 "electric_dipole_moment_norm": 2.69778270808, 
			 "electric_quadrupole_moment_norm": 22.8710815934, 
			 "total_energy": -612.777975459, 
			 "HOMO_LUMO_gap": 0.17832, 
			 "cosmo_polarized_energy": -16.8, 
			 "cosmo_cavitation_energy": 27.58, 
			 "cosmo_dispersion_energy": -20.14, 
			 "cosmo_repulsion_energy": 1.59, 
			 "cosmo_total_nonelectrostatic_energy": 9.03, 
			 "SMD_solvation_energy": 6.41 
		},
		"coords": [
			{
				"x": -3.877315486,
				"y": 0.6906061002,
				"z": 0.7675776473,
				"element": "C" 
			},
			{
				"x": -2.5254582756,
				"y": 0.3621734893,
				"z": 0.1371394668,
				"element": "C" 
			},
			{
				"x": -1.3497878413,
				"y": 0.65575182,
				"z": 1.0598391671,
				"element": "C" 
			},
			{
				"x": -1.5241820472,
				"y": 1.1084668553,
				"z": 2.1805209026,
				"element": "O" 
			},
			{
				"x": 0.0473506447,
				"y": 0.3787483715,
				"z": 0.5695830089,
				"element": "C" 
			},
			{
				"x": 1.1121458755,
				"y": 0.6469916019,
				"z": 1.4423230352,
				"element": "C" 
			},
			{
				"x": 2.4248150628,
				"y": 0.4193626948,
				"z": 1.0456283755,
				"element": "C" 
			},
			{
				"x": 2.7002442905,
				"y": -0.0840752106,
				"z": -0.2355108139,
				"element": "C" 
			},
			{
				"x": 1.6380449307,
				"y": -0.3744510261,
				"z": -1.1009059466,
				"element": "C" 
			},
			{
				"x": 0.3250373728,
				"y": -0.1376358172,
				"z": -0.7058942002,
				"element": "C" 
			},
			{
				"x": 4.0916901694,
				"y": -0.3666779573,
				"z": -0.7246847671,
				"element": "C" 
			},
			{
				"x": 5.1064513954,
				"y": 0.2784610727,
				"z": -0.0922922673,
				"element": "O" 
			},
			{
				"x": 4.3293234664,
				"y": -1.1249390749,
				"z": -1.6347939679,
				"element": "O" 
			},
			{
				"x": -3.9359703606,
				"y": 1.7477111661,
				"z": 1.0386344102,
				"element": "H" 
			},
			{
				"x": -4.6892595939,
				"y": 0.4647829887,
				"z": 0.0704528078,
				"element": "H" 
			},
			{
				"x": -4.0333042307,
				"y": 0.112193584,
				"z": 1.6816208386,
				"element": "H" 
			},
			{
				"x": -2.3809677725,
				"y": 0.9272708871,
				"z": -0.7941017404,
				"element": "H" 
			},
			{
				"x": -2.4770490613,
				"y": -0.6960021567,
				"z": -0.1548285306,
				"element": "H" 
			},
			{
				"x": 0.8805824228,
				"y": 1.028634791,
				"z": 2.4307954245,
				"element": "H" 
			},
			{
				"x": 3.2268452064,
				"y": 0.6005456363,
				"z": 1.7574679551,
				"element": "H" 
			},
			{
				"x": 1.8655880588,
				"y": -0.784708747,
				"z": -2.0786826526,
				"element": "H" 
			},
			{
				"x": -0.4812745806,
				"y": -0.3602488448,
				"z": -1.396481599,
				"element": "H" 
			},
			{
				"x": 4.7568503537,
				"y": 0.9594377757,
				"z": 0.4988934459,
				"element": "H" 
			}
		],
		 "valence_orbital": [ 
			{
				"type": "occ",
				"energy": -0.32324,
				"method": "rhf"
			},
			{
				"type": "occ",
				"energy": -0.28534,
				"method": "rhf"
			},
			{
				"type": "occ",
				"energy": -0.28233,
				"method": "rhf"
			},
			{
				"type": "occ",
				"energy": -0.27235,
				"method": "rhf"
			},
			{
				"type": "occ",
				"energy": -0.2623,
				"method": "rhf"
			},
			{
				"type": "unocc",
				"energy": -0.08398,
				"method": "rhf"
			},
			{
				"type": "unocc",
				"energy": -0.03107,
				"method": "rhf"
			},
			{
				"type": "unocc",
				"energy": -0.00952,
				"method": "rhf"
			},
			{
				"type": "unocc",
				"energy": 0.05331,
				"method": "rhf"
			},
			{
				"type": "unocc",
				"energy": 0.06243,
				"method": "rhf"
			}
		],
		"cosmo_sigma_profile": { 
			"-0.025": 0.0,
			"-0.024": 0.0,
			"-0.023": 0.0,
			"-0.022": 0.0,
			"-0.021": 0.0,
			"-0.02": 0.0,
			"-0.019": 0.369017700976,
			"-0.018": 1.07851690323,
			"-0.017": 0.997658023847,
			"-0.016": 0.916732892518,
			"-0.015": 0.867907736096,
			"-0.014": 0.850486548547,
			"-0.013": 1.71290962512,
			"-0.012": 0.813366232614,
			"-0.011": 1.18702283712,
			"-0.01": 1.17948731262,
			"-0.009": 1.37158829225,
			"-0.008": 2.27945621542,
			"-0.007": 7.07861060796,
			"-0.006": 13.9463934772,
			"-0.005": 11.3488524972,
			"-0.004": 12.8916268876,
			"-0.003": 16.4687092938,
			"-0.002": 17.8498315361,
			"-0.001": 16.8125315233,
			"0.0": 15.446515181,
			"0.001": 19.6807224971,
			"0.002": 18.496613078,
			"0.003": 5.72650454665,
			"0.004": 4.07752184242,
			"0.005": 4.27539025113,
			"0.006": 3.97443527918,
			"0.007": 3.88649538788,
			"0.008": 4.29163709766,
			"0.009": 6.07778357789,
			"0.01": 6.90612872269,
			"0.011": 8.6703734457,
			"0.012": 6.49640567282,
			"0.013": 1.40783698636,
			"0.014": 0.0,
			"0.015": 0.0,
			"0.016": 0.0,
			"0.017": 0.0,
			"0.018": 0.0,
			"0.019": 0.0,
			"0.02": 0.0,
			"0.021": 0.0,
			"0.022": 0.0,
			"0.023": 0.0,
			"0.024": 0.0,
			"0.025": 0.0
		}
	}
}
