{
	 "smiles": "NN1C(S)=NN=C1C1=CN=CC=C1", 
	 "Tm": 464.15, 
	 "num_atms": 20, 
	 "gaussian": { 
		 "optdone": 1, 
		 "sigma_profile": "yes", 
		 "theory": "DFT", 
		 "functional": "B3LYP", 
		 "basiset": "6-31G**", 
		 "properties": { 
			 "R2extent": 3493.9175, 
			 "electric_dipole_moment_norm": 7.62438590445, 
			 "electric_quadrupole_moment_norm": 9.51895819142, 
			 "total_energy": -942.835137859, 
			 "HOMO_LUMO_gap": 0.17415, 
			 "cosmo_polarized_energy": -25.37, 
			 "cosmo_cavitation_energy": 26.51, 
			 "cosmo_dispersion_energy": -20.18, 
			 "cosmo_repulsion_energy": 1.53, 
			 "cosmo_total_nonelectrostatic_energy": 7.86, 
			 "SMD_solvation_energy": 1.09 
		},
		"coords": [
			{
				"x": -1.8075006989,
				"y": -1.4743599394,
				"z": -1.8335792817,
				"element": "N" 
			},
			{
				"x": -1.5155738329,
				"y": -0.4938455336,
				"z": -0.8815367177,
				"element": "N" 
			},
			{
				"x": -2.3363339412,
				"y": 0.5820990492,
				"z": -0.6184313707,
				"element": "C" 
			},
			{
				"x": -3.7886186993,
				"y": 0.9721916049,
				"z": -1.5294727162,
				"element": "S" 
			},
			{
				"x": -1.8689870233,
				"y": 1.2787254202,
				"z": 0.388370885,
				"element": "N" 
			},
			{
				"x": -0.72052475,
				"y": 0.6487219997,
				"z": 0.8243935244,
				"element": "N" 
			},
			{
				"x": -0.5075798543,
				"y": -0.4093736651,
				"z": 0.0740176745,
				"element": "C" 
			},
			{
				"x": 0.5870915849,
				"y": -1.3613569435,
				"z": 0.2766389074,
				"element": "C" 
			},
			{
				"x": 1.1167318841,
				"y": -1.4989409052,
				"z": 1.5766703129,
				"element": "C" 
			},
			{
				"x": 2.1243560939,
				"y": -2.3133433834,
				"z": 1.8885652717,
				"element": "N" 
			},
			{
				"x": 2.6593900687,
				"y": -3.0485208239,
				"z": 0.9034094401,
				"element": "C" 
			},
			{
				"x": 2.2197912819,
				"y": -2.9923496193,
				"z": -0.4183938643,
				"element": "C" 
			},
			{
				"x": 1.1718179547,
				"y": -2.1319128642,
				"z": -0.7381141119,
				"element": "C" 
			},
			{
				"x": -1.7931134877,
				"y": -2.3917202264,
				"z": -1.3949104545,
				"element": "H" 
			},
			{
				"x": -1.1221757155,
				"y": -1.4475789068,
				"z": -2.5837641879,
				"element": "H" 
			},
			{
				"x": -3.7416696313,
				"y": -0.1709007619,
				"z": -2.2470842871,
				"element": "H" 
			},
			{
				"x": 0.6887697405,
				"y": -0.9079340688,
				"z": 2.3820326576,
				"element": "H" 
			},
			{
				"x": 3.477729216,
				"y": -3.7081022697,
				"z": 1.1854996693,
				"element": "H" 
			},
			{
				"x": 2.695537319,
				"y": -3.5983063488,
				"z": -1.1828932758,
				"element": "H" 
			},
			{
				"x": 0.8404624906,
				"y": -2.0500918143,
				"z": -1.7679180751,
				"element": "H" 
			}
		],
		 "valence_orbital": [ 
			{
				"type": "occ",
				"energy": -0.29938,
				"method": "rhf"
			},
			{
				"type": "occ",
				"energy": -0.27924,
				"method": "rhf"
			},
			{
				"type": "occ",
				"energy": -0.26706,
				"method": "rhf"
			},
			{
				"type": "occ",
				"energy": -0.25482,
				"method": "rhf"
			},
			{
				"type": "occ",
				"energy": -0.22773,
				"method": "rhf"
			},
			{
				"type": "unocc",
				"energy": -0.05358,
				"method": "rhf"
			},
			{
				"type": "unocc",
				"energy": -0.0361,
				"method": "rhf"
			},
			{
				"type": "unocc",
				"energy": 0.01365,
				"method": "rhf"
			},
			{
				"type": "unocc",
				"energy": 0.02083,
				"method": "rhf"
			},
			{
				"type": "unocc",
				"energy": 0.02765,
				"method": "rhf"
			}
		],
		"cosmo_sigma_profile": { 
			"-0.025": 0.0,
			"-0.024": 0.0,
			"-0.023": 0.0,
			"-0.022": 0.0,
			"-0.021": 0.0,
			"-0.02": 0.0,
			"-0.019": 0.0,
			"-0.018": 0.0,
			"-0.017": 0.0,
			"-0.016": 0.0833478102372,
			"-0.015": 2.30455062126,
			"-0.014": 3.69447338879,
			"-0.013": 4.12084675242,
			"-0.012": 3.03772989297,
			"-0.011": 3.67016822124,
			"-0.01": 3.87786443536,
			"-0.009": 3.30377363796,
			"-0.008": 3.99958525766,
			"-0.007": 7.90507118274,
			"-0.006": 10.8015725506,
			"-0.005": 8.81651985409,
			"-0.004": 9.26624213154,
			"-0.003": 10.4891529271,
			"-0.002": 11.5196460026,
			"-0.001": 11.473067233,
			"0.0": 14.1505608101,
			"0.001": 19.7975284317,
			"0.002": 16.1292196273,
			"0.003": 9.39395229374,
			"0.004": 10.0011629238,
			"0.005": 6.85843909263,
			"0.006": 6.79332685947,
			"0.007": 5.22220323969,
			"0.008": 2.87938813583,
			"0.009": 2.83103858213,
			"0.01": 3.09964545082,
			"0.011": 3.17394786226,
			"0.012": 3.7172937007,
			"0.013": 4.6819575681,
			"0.014": 3.35734239146,
			"0.015": 3.17655571112,
			"0.016": 2.08464219849,
			"0.017": 0.221157544979,
			"0.018": 0.0,
			"0.019": 0.0,
			"0.02": 0.0,
			"0.021": 0.0,
			"0.022": 0.0,
			"0.023": 0.0,
			"0.024": 0.0,
			"0.025": 0.0
		}
	}
}
