{
	 "smiles": "COC1=C(C=C(C=C1)C(=O)NCC1=CN=CC=C1)C(=O)NCC1=CC=CN=C1", 
	 "Tm": 397.15, 
	 "num_atms": 48, 
	 "gaussian": { 
		 "optdone": 1, 
		 "sigma_profile": "yes", 
		 "theory": "DFT", 
		 "functional": "B3LYP", 
		 "basiset": "6-31G**", 
		 "properties": { 
			 "R2extent": 18514.8133, 
			 "electric_dipole_moment_norm": 2.90972188534, 
			 "electric_quadrupole_moment_norm": 20.7243713934, 
			 "total_energy": -1256.96826862, 
			 "HOMO_LUMO_gap": 0.19991, 
			 "cosmo_polarized_energy": -26.37, 
			 "cosmo_cavitation_energy": 53.2, 
			 "cosmo_dispersion_energy": -36.38, 
			 "cosmo_repulsion_energy": 2.76, 
			 "cosmo_total_nonelectrostatic_energy": 19.57, 
			 "SMD_solvation_energy": 7.3 
		},
		"coords": [
			{
				"x": -2.9187781276,
				"y": -0.9879808241,
				"z": 1.7345986693,
				"element": "C" 
			},
			{
				"x": -1.5569764352,
				"y": -0.9694743296,
				"z": 1.2799274978,
				"element": "O" 
			},
			{
				"x": -1.2942351778,
				"y": -0.1220414386,
				"z": 0.2392936096,
				"element": "C" 
			},
			{
				"x": -0.792170953,
				"y": 1.1765372951,
				"z": 0.4675800625,
				"element": "C" 
			},
			{
				"x": -0.440146621,
				"y": 1.9663757955,
				"z": -0.6296993984,
				"element": "C" 
			},
			{
				"x": -0.6109983822,
				"y": 1.5162049356,
				"z": -1.9448173541,
				"element": "C" 
			},
			{
				"x": -1.0995073171,
				"y": 0.2191379405,
				"z": -2.1551669646,
				"element": "C" 
			},
			{
				"x": -1.4314356251,
				"y": -0.5903076262,
				"z": -1.0708793192,
				"element": "C" 
			},
			{
				"x": -0.1421580796,
				"y": 2.4302714661,
				"z": -3.040102426,
				"element": "C" 
			},
			{
				"x": 0.8122961327,
				"y": 3.1809089678,
				"z": -2.8620812078,
				"element": "O" 
			},
			{
				"x": -0.7728117747,
				"y": 2.3882802432,
				"z": -4.2676645477,
				"element": "N" 
			},
			{
				"x": -2.1514060335,
				"y": 2.0177318337,
				"z": -4.5589492039,
				"element": "C" 
			},
			{
				"x": -2.2977596174,
				"y": 0.9570201384,
				"z": -5.638452123,
				"element": "C" 
			},
			{
				"x": -3.5498325674,
				"y": 0.7351844496,
				"z": -6.2293704755,
				"element": "C" 
			},
			{
				"x": -3.7905878918,
				"y": -0.1869620217,
				"z": -7.1648735016,
				"element": "N" 
			},
			{
				"x": -2.7573030535,
				"y": -0.9419196608,
				"z": -7.5634380278,
				"element": "C" 
			},
			{
				"x": -1.4672441032,
				"y": -0.8032193427,
				"z": -7.0534920322,
				"element": "C" 
			},
			{
				"x": -1.2349661976,
				"y": 0.1634764405,
				"z": -6.0745277471,
				"element": "C" 
			},
			{
				"x": -0.6531254309,
				"y": 1.7109636548,
				"z": 1.8679092355,
				"element": "C" 
			},
			{
				"x": -1.5431331548,
				"y": 1.6112673425,
				"z": 2.7108262406,
				"element": "O" 
			},
			{
				"x": 0.528382012,
				"y": 2.3528096811,
				"z": 2.1166442733,
				"element": "N" 
			},
			{
				"x": 0.8301125241,
				"y": 2.9340799853,
				"z": 3.4231032102,
				"element": "C" 
			},
			{
				"x": 1.6124508852,
				"y": 2.0120509243,
				"z": 4.3366092194,
				"element": "C" 
			},
			{
				"x": 1.0617705648,
				"y": 0.8137276179,
				"z": 4.8103017163,
				"element": "C" 
			},
			{
				"x": 1.8287368921,
				"y": 0.0058214099,
				"z": 5.6444937973,
				"element": "C" 
			},
			{
				"x": 3.1200457889,
				"y": 0.4222295971,
				"z": 5.9798440081,
				"element": "C" 
			},
			{
				"x": 3.6649598599,
				"y": 1.5620178194,
				"z": 5.5409978433,
				"element": "N" 
			},
			{
				"x": 2.9143514932,
				"y": 2.3268660884,
				"z": 4.7381241607,
				"element": "C" 
			},
			{
				"x": -2.9664104152,
				"y": -1.7544468591,
				"z": 2.5101695722,
				"element": "H" 
			},
			{
				"x": -3.1880479602,
				"y": -0.0153908206,
				"z": 2.1540231993,
				"element": "H" 
			},
			{
				"x": -3.6005614125,
				"y": -1.2574138982,
				"z": 0.9176392738,
				"element": "H" 
			},
			{
				"x": -0.0359044062,
				"y": 2.9618243014,
				"z": -0.478438325,
				"element": "H" 
			},
			{
				"x": -1.1923959067,
				"y": -0.1780897438,
				"z": -3.1609901769,
				"element": "H" 
			},
			{
				"x": -1.7755913559,
				"y": -1.6086245538,
				"z": -1.2211585346,
				"element": "H" 
			},
			{
				"x": -0.3426730297,
				"y": 3.0424446361,
				"z": -4.9112632325,
				"element": "H" 
			},
			{
				"x": -2.6158658197,
				"y": 1.6704551452,
				"z": -3.6320532377,
				"element": "H" 
			},
			{
				"x": -2.7134467225,
				"y": 2.9125318378,
				"z": -4.8592835073,
				"element": "H" 
			},
			{
				"x": -4.4052445627,
				"y": 1.3415319608,
				"z": -5.9283314826,
				"element": "H" 
			},
			{
				"x": -2.9732174384,
				"y": -1.6863120673,
				"z": -8.3275062505,
				"element": "H" 
			},
			{
				"x": -0.6624114235,
				"y": -1.4349539917,
				"z": -7.4164502434,
				"element": "H" 
			},
			{
				"x": -0.2434963961,
				"y": 0.3124988476,
				"z": -5.6572805312,
				"element": "H" 
			},
			{
				"x": 1.2819543746,
				"y": 2.2435208328,
				"z": 1.4532085752,
				"element": "H" 
			},
			{
				"x": -0.1341378859,
				"y": 3.1842054063,
				"z": 3.8725537447,
				"element": "H" 
			},
			{
				"x": 1.3848762331,
				"y": 3.8653094046,
				"z": 3.2681510512,
				"element": "H" 
			},
			{
				"x": 0.0519899972,
				"y": 0.5335822067,
				"z": 4.5239446912,
				"element": "H" 
			},
			{
				"x": 1.4368803031,
				"y": -0.9291305741,
				"z": 6.0332052175,
				"element": "H" 
			},
			{
				"x": 3.7435849013,
				"y": -0.1885245632,
				"z": 6.6308024766,
				"element": "H" 
			},
			{
				"x": 3.3771893164,
				"y": 3.2522241093,
				"z": 4.3929185053,
				"element": "H" 
			}
		],
		 "valence_orbital": [ 
			{
				"type": "occ",
				"energy": -0.26049,
				"method": "rhf"
			},
			{
				"type": "occ",
				"energy": -0.25634,
				"method": "rhf"
			},
			{
				"type": "occ",
				"energy": -0.25259,
				"method": "rhf"
			},
			{
				"type": "occ",
				"energy": -0.24885,
				"method": "rhf"
			},
			{
				"type": "occ",
				"energy": -0.24769,
				"method": "rhf"
			},
			{
				"type": "unocc",
				"energy": -0.04778,
				"method": "rhf"
			},
			{
				"type": "unocc",
				"energy": -0.03642,
				"method": "rhf"
			},
			{
				"type": "unocc",
				"energy": -0.03332,
				"method": "rhf"
			},
			{
				"type": "unocc",
				"energy": -0.02477,
				"method": "rhf"
			},
			{
				"type": "unocc",
				"energy": -0.02247,
				"method": "rhf"
			}
		],
		"cosmo_sigma_profile": { 
			"-0.025": 0.0,
			"-0.024": 0.0,
			"-0.023": 0.0,
			"-0.022": 0.0,
			"-0.021": 0.0,
			"-0.02": 0.0,
			"-0.019": 0.0,
			"-0.018": 0.0,
			"-0.017": 0.0,
			"-0.016": 0.0,
			"-0.015": 0.191257493022,
			"-0.014": 1.26617829038,
			"-0.013": 2.9016882228,
			"-0.012": 1.53152513558,
			"-0.011": 2.25512816053,
			"-0.01": 2.54788554834,
			"-0.009": 2.47975922272,
			"-0.008": 2.75776071126,
			"-0.007": 12.1509842106,
			"-0.006": 29.4752367695,
			"-0.005": 37.4202088629,
			"-0.004": 35.011923593,
			"-0.003": 34.2354711341,
			"-0.002": 31.9935077685,
			"-0.001": 24.2580133573,
			"0.0": 24.9927404043,
			"0.001": 30.2169005712,
			"0.002": 37.2239229241,
			"0.003": 26.366532019,
			"0.004": 11.5126342203,
			"0.005": 8.08970512937,
			"0.006": 7.21382592547,
			"0.007": 7.00409377914,
			"0.008": 7.79013350523,
			"0.009": 7.63164493544,
			"0.01": 6.34925881199,
			"0.011": 5.69851278293,
			"0.012": 6.31916581515,
			"0.013": 8.5159930697,
			"0.014": 5.17907262759,
			"0.015": 1.73856288904,
			"0.016": 1.99886619658,
			"0.017": 0.755882424277,
			"0.018": 0.00676686066508,
			"0.019": 0.0,
			"0.02": 0.0,
			"0.021": 0.0,
			"0.022": 0.0,
			"0.023": 0.0,
			"0.024": 0.0,
			"0.025": 0.0
		}
	}
}
