{
	 "smiles": "NC1=NC=C(C=C1)C1=NC=CC=C1", 
	 "Tm": 363.15, 
	 "num_atms": 22, 
	 "gaussian": { 
		 "optdone": 1, 
		 "sigma_profile": "yes", 
		 "theory": "DFT", 
		 "functional": "B3LYP", 
		 "basiset": "6-31G**", 
		 "properties": { 
			 "R2extent": 3153.3577, 
			 "electric_dipole_moment_norm": 2.95794558943, 
			 "electric_quadrupole_moment_norm": 15.5500415823, 
			 "total_energy": -550.750917883, 
			 "HOMO_LUMO_gap": 0.16833, 
			 "cosmo_polarized_energy": -13.33, 
			 "cosmo_cavitation_energy": 26.25, 
			 "cosmo_dispersion_energy": -19.81, 
			 "cosmo_repulsion_energy": 1.55, 
			 "cosmo_total_nonelectrostatic_energy": 7.99, 
			 "SMD_solvation_energy": 2.05 
		},
		"coords": [
			{
				"x": 2.6066733922,
				"y": -2.8290309575,
				"z": -3.1153411256,
				"element": "N" 
			},
			{
				"x": 1.7879816666,
				"y": -2.2982227238,
				"z": -2.1407532325,
				"element": "C" 
			},
			{
				"x": 2.2638143132,
				"y": -1.2236595869,
				"z": -1.4894839188,
				"element": "N" 
			},
			{
				"x": 1.4843792222,
				"y": -0.6500241506,
				"z": -0.5713355597,
				"element": "C" 
			},
			{
				"x": 0.194331181,
				"y": -1.0868799298,
				"z": -0.2298918226,
				"element": "C" 
			},
			{
				"x": -0.2763745486,
				"y": -2.2204207094,
				"z": -0.91743156,
				"element": "C" 
			},
			{
				"x": 0.5101559128,
				"y": -2.8334732147,
				"z": -1.8768982329,
				"element": "C" 
			},
			{
				"x": -0.5907522518,
				"y": -0.374637578,
				"z": 0.8035458454,
				"element": "C" 
			},
			{
				"x": 0.0919861623,
				"y": 0.4703946975,
				"z": 1.603484081,
				"element": "N" 
			},
			{
				"x": -0.5738922853,
				"y": 1.1352028727,
				"z": 2.5494985886,
				"element": "C" 
			},
			{
				"x": -1.9452556236,
				"y": 1.0065803255,
				"z": 2.773400853,
				"element": "C" 
			},
			{
				"x": -2.6578326867,
				"y": 0.1420644904,
				"z": 1.9428955107,
				"element": "C" 
			},
			{
				"x": -1.9799633859,
				"y": -0.5506602078,
				"z": 0.945069886,
				"element": "C" 
			},
			{
				"x": 2.4749408696,
				"y": -3.796595845,
				"z": -3.3672172615,
				"element": "H" 
			},
			{
				"x": 3.5668627363,
				"y": -2.5193015957,
				"z": -3.0647266679,
				"element": "H" 
			},
			{
				"x": 1.8958738738,
				"y": 0.2146491348,
				"z": -0.058764686,
				"element": "H" 
			},
			{
				"x": -1.2520688222,
				"y": -2.6398514985,
				"z": -0.6909227695,
				"element": "H" 
			},
			{
				"x": 0.15675857,
				"y": -3.7090614793,
				"z": -2.4134352456,
				"element": "H" 
			},
			{
				"x": 0.0220254812,
				"y": 1.8062832045,
				"z": 3.1668560252,
				"element": "H" 
			},
			{
				"x": -2.4326787054,
				"y": 1.5684198396,
				"z": 3.5635026128,
				"element": "H" 
			},
			{
				"x": -3.7300949524,
				"y": 0.0147768558,
				"z": 2.0637590282,
				"element": "H" 
			},
			{
				"x": -2.5258701193,
				"y": -1.2045519437,
				"z": 0.2738896516,
				"element": "H" 
			}
		],
		 "valence_orbital": [ 
			{
				"type": "occ",
				"energy": -0.27871,
				"method": "rhf"
			},
			{
				"type": "occ",
				"energy": -0.2613,
				"method": "rhf"
			},
			{
				"type": "occ",
				"energy": -0.25894,
				"method": "rhf"
			},
			{
				"type": "occ",
				"energy": -0.24108,
				"method": "rhf"
			},
			{
				"type": "occ",
				"energy": -0.20215,
				"method": "rhf"
			},
			{
				"type": "unocc",
				"energy": -0.03382,
				"method": "rhf"
			},
			{
				"type": "unocc",
				"energy": -0.02068,
				"method": "rhf"
			},
			{
				"type": "unocc",
				"energy": -0.00492,
				"method": "rhf"
			},
			{
				"type": "unocc",
				"energy": 0.03979,
				"method": "rhf"
			},
			{
				"type": "unocc",
				"energy": 0.08611,
				"method": "rhf"
			}
		],
		"cosmo_sigma_profile": { 
			"-0.025": 0.0,
			"-0.024": 0.0,
			"-0.023": 0.0,
			"-0.022": 0.0,
			"-0.021": 0.0,
			"-0.02": 0.0,
			"-0.019": 0.0,
			"-0.018": 0.0,
			"-0.017": 0.0,
			"-0.016": 0.0,
			"-0.015": 0.0,
			"-0.014": 0.433574934969,
			"-0.013": 1.36637581645,
			"-0.012": 2.72920093507,
			"-0.011": 2.07250955507,
			"-0.01": 2.40892489992,
			"-0.009": 2.97618578324,
			"-0.008": 4.79426292284,
			"-0.007": 7.81782924773,
			"-0.006": 12.4731401055,
			"-0.005": 14.0213310222,
			"-0.004": 12.9354831623,
			"-0.003": 10.0137872522,
			"-0.002": 9.79953971088,
			"-0.001": 8.32779519676,
			"0.0": 9.81921182889,
			"0.001": 13.1520899498,
			"0.002": 20.8083449358,
			"0.003": 28.091620994,
			"0.004": 13.9090562896,
			"0.005": 5.52676410512,
			"0.006": 4.18488747842,
			"0.007": 4.80339737197,
			"0.008": 3.28911788651,
			"0.009": 3.66444869651,
			"0.01": 2.47823247238,
			"0.011": 2.8617203525,
			"0.012": 1.88638000525,
			"0.013": 1.84669783186,
			"0.014": 1.14389426343,
			"0.015": 0.59357461784,
			"0.016": 0.484129146685,
			"0.017": 0.00457020125707,
			"0.018": 0.0,
			"0.019": 0.0,
			"0.02": 0.0,
			"0.021": 0.0,
			"0.022": 0.0,
			"0.023": 0.0,
			"0.024": 0.0,
			"0.025": 0.0
		}
	}
}
