{
	 "smiles": "BrC1=CC2=C(CCC(=O)N2)C=C1", 
	 "Tm": 450.15, 
	 "num_atms": 20, 
	 "gaussian": { 
		 "optdone": 1, 
		 "sigma_profile": "yes", 
		 "theory": "DFT", 
		 "functional": "B3LYP", 
		 "basiset": "6-31G**", 
		 "properties": { 
			 "R2extent": 3940.1303, 
			 "electric_dipole_moment_norm": 2.33441957454, 
			 "electric_quadrupole_moment_norm": 15.2044831527, 
			 "total_energy": -3049.1890983, 
			 "HOMO_LUMO_gap": 0.20282, 
			 "cosmo_polarized_energy": -11.48, 
			 "cosmo_cavitation_energy": 25.84, 
			 "cosmo_dispersion_energy": -19.82, 
			 "cosmo_repulsion_energy": 1.58, 
			 "cosmo_total_nonelectrostatic_energy": 7.59, 
			 "SMD_solvation_energy": 3.44 
		},
		"coords": [
			{
				"x": 3.1605902332,
				"y": 2.4331227862,
				"z": -1.1310226759,
				"element": "Br" 
			},
			{
				"x": 1.8145879892,
				"y": 1.3691103337,
				"z": -0.2887253302,
				"element": "C" 
			},
			{
				"x": 0.9070771444,
				"y": 0.6769988314,
				"z": -1.0859384848,
				"element": "C" 
			},
			{
				"x": -0.0779634894,
				"y": -0.103898937,
				"z": -0.4712703762,
				"element": "C" 
			},
			{
				"x": -0.1531090188,
				"y": -0.1954051425,
				"z": 0.9317559449,
				"element": "C" 
			},
			{
				"x": -1.2006973133,
				"y": -1.1074055791,
				"z": 1.5260842056,
				"element": "C" 
			},
			{
				"x": -2.4797205044,
				"y": -1.1037065444,
				"z": 0.6757580412,
				"element": "C" 
			},
			{
				"x": -2.2003347432,
				"y": -1.3442340721,
				"z": -0.8004840385,
				"element": "C" 
			},
			{
				"x": -2.9646931305,
				"y": -1.9152337474,
				"z": -1.559633842,
				"element": "O" 
			},
			{
				"x": -0.9997048862,
				"y": -0.8201931781,
				"z": -1.2498961887,
				"element": "N" 
			},
			{
				"x": 0.7646768033,
				"y": 0.525689409,
				"z": 1.6936395159,
				"element": "C" 
			},
			{
				"x": 1.7564173547,
				"y": 1.3111700633,
				"z": 1.1012455504,
				"element": "C" 
			},
			{
				"x": 0.9594303026,
				"y": 0.7480252749,
				"z": -2.1670329367,
				"element": "H" 
			},
			{
				"x": -1.4259914839,
				"y": -0.8158694155,
				"z": 2.5566138209,
				"element": "H" 
			},
			{
				"x": -0.8043061767,
				"y": -2.1323168489,
				"z": 1.5716615643,
				"element": "H" 
			},
			{
				"x": -3.1961222836,
				"y": -1.8601045938,
				"z": 1.0019307289,
				"element": "H" 
			},
			{
				"x": -2.9776944103,
				"y": -0.1273637556,
				"z": 0.7523217856,
				"element": "H" 
			},
			{
				"x": -0.8544201515,
				"y": -0.8895202858,
				"z": -2.2491973388,
				"element": "H" 
			},
			{
				"x": 0.7120171418,
				"y": 0.4672638531,
				"z": 2.7778023663,
				"element": "H" 
			},
			{
				"x": 2.4659606226,
				"y": 1.8628715483,
				"z": 1.7058876879,
				"element": "H" 
			}
		],
		 "valence_orbital": [ 
			{
				"type": "occ",
				"energy": -0.3004,
				"method": "rhf"
			},
			{
				"type": "occ",
				"energy": -0.29138,
				"method": "rhf"
			},
			{
				"type": "occ",
				"energy": -0.2597,
				"method": "rhf"
			},
			{
				"type": "occ",
				"energy": -0.25182,
				"method": "rhf"
			},
			{
				"type": "occ",
				"energy": -0.22752,
				"method": "rhf"
			},
			{
				"type": "unocc",
				"energy": -0.0247,
				"method": "rhf"
			},
			{
				"type": "unocc",
				"energy": -0.02139,
				"method": "rhf"
			},
			{
				"type": "unocc",
				"energy": 0.00218,
				"method": "rhf"
			},
			{
				"type": "unocc",
				"energy": 0.02709,
				"method": "rhf"
			},
			{
				"type": "unocc",
				"energy": 0.08346,
				"method": "rhf"
			}
		],
		"cosmo_sigma_profile": { 
			"-0.025": 0.0,
			"-0.024": 0.0,
			"-0.023": 0.0,
			"-0.022": 0.0,
			"-0.021": 0.0,
			"-0.02": 0.0,
			"-0.019": 0.0,
			"-0.018": 0.0,
			"-0.017": 0.0,
			"-0.016": 0.016191039452,
			"-0.015": 0.789837951602,
			"-0.014": 1.23152106974,
			"-0.013": 1.10897843955,
			"-0.012": 1.57124384057,
			"-0.011": 0.959322114805,
			"-0.01": 0.982590630516,
			"-0.009": 1.23363695175,
			"-0.008": 2.31691001005,
			"-0.007": 3.3097549344,
			"-0.006": 10.0142040171,
			"-0.005": 17.0901137284,
			"-0.004": 17.4974618064,
			"-0.003": 15.8449341883,
			"-0.002": 16.2369514764,
			"-0.001": 11.4543717228,
			"0.0": 12.1232501292,
			"0.001": 12.1604076658,
			"0.002": 16.6301197988,
			"0.003": 19.5396558892,
			"0.004": 18.4959560868,
			"0.005": 9.10590426264,
			"0.006": 1.16057191813,
			"0.007": 1.61872122755,
			"0.008": 1.15412542806,
			"0.009": 0.767403398124,
			"0.01": 1.64971258774,
			"0.011": 1.80148062073,
			"0.012": 2.87969319228,
			"0.013": 5.66746496032,
			"0.014": 2.48436047121,
			"0.015": 0.161862266451,
			"0.016": 0.0,
			"0.017": 0.0,
			"0.018": 0.0,
			"0.019": 0.0,
			"0.02": 0.0,
			"0.021": 0.0,
			"0.022": 0.0,
			"0.023": 0.0,
			"0.024": 0.0,
			"0.025": 0.0
		}
	}
}
