{
	 "smiles": "CCCCCCOC1=CC=C(CO)C=C1", 
	 "Tm": 306.15, 
	 "num_atms": 35, 
	 "gaussian": { 
		 "optdone": 1, 
		 "sigma_profile": "yes", 
		 "theory": "DFT", 
		 "functional": "B3LYP", 
		 "basiset": "6-31G**", 
		 "properties": { 
			 "R2extent": 8590.3649, 
			 "electric_dipole_moment_norm": 1.97576909076, 
			 "electric_quadrupole_moment_norm": 16.3426990935, 
			 "total_energy": -657.886506736, 
			 "HOMO_LUMO_gap": 0.21213, 
			 "cosmo_polarized_energy": -8.87, 
			 "cosmo_cavitation_energy": 37.18, 
			 "cosmo_dispersion_energy": -26.74, 
			 "cosmo_repulsion_energy": 2.16, 
			 "cosmo_total_nonelectrostatic_energy": 12.6, 
			 "SMD_solvation_energy": 6.01 
		},
		"coords": [
			{
				"x": -2.6538577286,
				"y": -2.6348412589,
				"z": 3.9915374264,
				"element": "C" 
			},
			{
				"x": -2.2974403847,
				"y": -1.3393301168,
				"z": 3.2549090753,
				"element": "C" 
			},
			{
				"x": -1.039312195,
				"y": -1.473302051,
				"z": 2.3850562068,
				"element": "C" 
			},
			{
				"x": -0.5965690001,
				"y": -0.1806194688,
				"z": 1.6816303313,
				"element": "C" 
			},
			{
				"x": -1.5809238945,
				"y": 0.332110434,
				"z": 0.6208061195,
				"element": "C" 
			},
			{
				"x": -1.0839888879,
				"y": 1.5644728612,
				"z": -0.1244434672,
				"element": "C" 
			},
			{
				"x": 0.0900424866,
				"y": 1.2008062864,
				"z": -0.8498864285,
				"element": "O" 
			},
			{
				"x": 0.730475567,
				"y": 2.1534407647,
				"z": -1.5880821528,
				"element": "C" 
			},
			{
				"x": 0.3187352766,
				"y": 3.4875296339,
				"z": -1.7000150357,
				"element": "C" 
			},
			{
				"x": 1.0558533382,
				"y": 4.3739548114,
				"z": -2.4893653536,
				"element": "C" 
			},
			{
				"x": 2.2042184825,
				"y": 3.9628543863,
				"z": -3.1706183102,
				"element": "C" 
			},
			{
				"x": 2.973967908,
				"y": 4.9327998627,
				"z": -4.0445258058,
				"element": "C" 
			},
			{
				"x": 2.9635592,
				"y": 6.2696119086,
				"z": -3.5582288249,
				"element": "O" 
			},
			{
				"x": 2.6075901761,
				"y": 2.6259499616,
				"z": -3.0402877862,
				"element": "C" 
			},
			{
				"x": 1.8830993009,
				"y": 1.7282211469,
				"z": -2.2658308203,
				"element": "C" 
			},
			{
				"x": -2.8422866249,
				"y": -3.452327127,
				"z": 3.2861245029,
				"element": "H" 
			},
			{
				"x": -3.5517870371,
				"y": -2.5133736471,
				"z": 4.6062751533,
				"element": "H" 
			},
			{
				"x": -1.8385854604,
				"y": -2.9519693065,
				"z": 4.6519318919,
				"element": "H" 
			},
			{
				"x": -3.1503779835,
				"y": -1.0320456788,
				"z": 2.6363534535,
				"element": "H" 
			},
			{
				"x": -2.1450216135,
				"y": -0.5325065037,
				"z": 3.9853906464,
				"element": "H" 
			},
			{
				"x": -0.2133857331,
				"y": -1.8284519216,
				"z": 3.0161867904,
				"element": "H" 
			},
			{
				"x": -1.2014182381,
				"y": -2.258398823,
				"z": 1.6323421446,
				"element": "H" 
			},
			{
				"x": 0.3726871974,
				"y": -0.3474911511,
				"z": 1.1993403869,
				"element": "H" 
			},
			{
				"x": -0.4354048069,
				"y": 0.6058668773,
				"z": 2.4334095545,
				"element": "H" 
			},
			{
				"x": -1.7846084089,
				"y": -0.4593051649,
				"z": -0.1120396392,
				"element": "H" 
			},
			{
				"x": -2.542820994,
				"y": 0.592232722,
				"z": 1.0792938818,
				"element": "H" 
			},
			{
				"x": -1.852093602,
				"y": 1.932198478,
				"z": -0.8195985989,
				"element": "H" 
			},
			{
				"x": -0.8510463622,
				"y": 2.3761119796,
				"z": 0.581099294,
				"element": "H" 
			},
			{
				"x": -0.5654238223,
				"y": 3.8433758857,
				"z": -1.1845107096,
				"element": "H" 
			},
			{
				"x": 0.7385412443,
				"y": 5.4092214683,
				"z": -2.5735087592,
				"element": "H" 
			},
			{
				"x": 2.5216299937,
				"y": 4.9935642436,
				"z": -5.0421220322,
				"element": "H" 
			},
			{
				"x": 4.0022588817,
				"y": 4.5627352099,
				"z": -4.1869448864,
				"element": "H" 
			},
			{
				"x": 3.2969570245,
				"y": 6.2454470874,
				"z": -2.6511008664,
				"element": "H" 
			},
			{
				"x": 3.5046535598,
				"y": 2.2827095219,
				"z": -3.5511440934,
				"element": "H" 
			},
			{
				"x": 2.1934831404,
				"y": 0.6936466878,
				"z": -2.1603332891,
				"element": "H" 
			}
		],
		 "valence_orbital": [ 
			{
				"type": "occ",
				"energy": -0.3138,
				"method": "rhf"
			},
			{
				"type": "occ",
				"energy": -0.30535,
				"method": "rhf"
			},
			{
				"type": "occ",
				"energy": -0.26955,
				"method": "rhf"
			},
			{
				"type": "occ",
				"energy": -0.24881,
				"method": "rhf"
			},
			{
				"type": "occ",
				"energy": -0.21266,
				"method": "rhf"
			},
			{
				"type": "unocc",
				"energy": -0.00053,
				"method": "rhf"
			},
			{
				"type": "unocc",
				"energy": 0.01087,
				"method": "rhf"
			},
			{
				"type": "unocc",
				"energy": 0.09017,
				"method": "rhf"
			},
			{
				"type": "unocc",
				"energy": 0.09274,
				"method": "rhf"
			},
			{
				"type": "unocc",
				"energy": 0.09812,
				"method": "rhf"
			}
		],
		"cosmo_sigma_profile": { 
			"-0.025": 0.0,
			"-0.024": 0.0,
			"-0.023": 0.0,
			"-0.022": 0.0,
			"-0.021": 0.0,
			"-0.02": 0.0,
			"-0.019": 0.0,
			"-0.018": 0.0,
			"-0.017": 0.0,
			"-0.016": 0.0466668216736,
			"-0.015": 0.600192500549,
			"-0.014": 0.769663674976,
			"-0.013": 1.03999016819,
			"-0.012": 0.853300852738,
			"-0.011": 0.562328311505,
			"-0.01": 0.727627682414,
			"-0.009": 0.817516599935,
			"-0.008": 0.872346669861,
			"-0.007": 0.798176802257,
			"-0.006": 3.94129191465,
			"-0.005": 12.4362107977,
			"-0.004": 20.7950006383,
			"-0.003": 25.6330242341,
			"-0.002": 35.8483680351,
			"-0.001": 36.4438621312,
			"0.0": 36.80849755,
			"0.001": 31.7369898783,
			"0.002": 17.6236337863,
			"0.003": 10.2880885627,
			"0.004": 11.8071630515,
			"0.005": 12.1645750985,
			"0.006": 10.9082810599,
			"0.007": 3.23450690435,
			"0.008": 1.96988690075,
			"0.009": 2.53104170831,
			"0.01": 1.4978047184,
			"0.011": 1.48835042704,
			"0.012": 1.10192713128,
			"0.013": 1.63674988597,
			"0.014": 2.19680551589,
			"0.015": 0.238224181554,
			"0.016": 0.0,
			"0.017": 0.0,
			"0.018": 0.0,
			"0.019": 0.0,
			"0.02": 0.0,
			"0.021": 0.0,
			"0.022": 0.0,
			"0.023": 0.0,
			"0.024": 0.0,
			"0.025": 0.0
		}
	}
}
