{
	 "smiles": "CN1C(Br)=NC(C(O)=O)=C1C(O)=O", 
	 "Tm": 433.15, 
	 "num_atms": 18, 
	 "gaussian": { 
		 "optdone": 1, 
		 "sigma_profile": "yes", 
		 "theory": "DFT", 
		 "functional": "B3LYP", 
		 "basiset": "6-31G**", 
		 "properties": { 
			 "R2extent": 4713.5915, 
			 "electric_dipole_moment_norm": 4.42792409827, 
			 "electric_quadrupole_moment_norm": 9.51808532847, 
			 "total_energy": -3213.46288576, 
			 "HOMO_LUMO_gap": 0.18622, 
			 "cosmo_polarized_energy": -20.85, 
			 "cosmo_cavitation_energy": 26.17, 
			 "cosmo_dispersion_energy": -19.52, 
			 "cosmo_repulsion_energy": 1.57, 
			 "cosmo_total_nonelectrostatic_energy": 8.21, 
			 "SMD_solvation_energy": 4.37 
		},
		"coords": [
			{
				"x": 1.3639112722,
				"y": -0.8471319537,
				"z": -2.0137108923,
				"element": "C" 
			},
			{
				"x": 1.4447791805,
				"y": -0.6887273301,
				"z": -0.5617964143,
				"element": "N" 
			},
			{
				"x": 2.4289694087,
				"y": -1.1622987521,
				"z": 0.2627459691,
				"element": "C" 
			},
			{
				"x": 3.8814868334,
				"y": -2.1811236856,
				"z": -0.3651320197,
				"element": "Br" 
			},
			{
				"x": 2.2661442943,
				"y": -0.8400902468,
				"z": 1.5196466983,
				"element": "N" 
			},
			{
				"x": 1.1113580047,
				"y": -0.1050385124,
				"z": 1.5451534643,
				"element": "C" 
			},
			{
				"x": 0.5199652583,
				"y": 0.3604707168,
				"z": 2.8259331562,
				"element": "C" 
			},
			{
				"x": 1.4621372291,
				"y": 0.550858307,
				"z": 3.7734271669,
				"element": "O" 
			},
			{
				"x": -0.6641885261,
				"y": 0.5295835474,
				"z": 3.0187726207,
				"element": "O" 
			},
			{
				"x": 0.5748941824,
				"y": 0.0103856693,
				"z": 0.2684375231,
				"element": "C" 
			},
			{
				"x": -0.6072600404,
				"y": 0.7656783736,
				"z": -0.1899384343,
				"element": "C" 
			},
			{
				"x": -1.1486771052,
				"y": 0.2464812008,
				"z": -1.3260511661,
				"element": "O" 
			},
			{
				"x": -1.0597119972,
				"y": 1.7414836228,
				"z": 0.3613192317,
				"element": "O" 
			},
			{
				"x": 1.2445918557,
				"y": 0.1275207428,
				"z": -2.4881973668,
				"element": "H" 
			},
			{
				"x": 2.2884945659,
				"y": -1.3088634292,
				"z": -2.3551717433,
				"element": "H" 
			},
			{
				"x": 0.512977427,
				"y": -1.4756052748,
				"z": -2.2784682111,
				"element": "H" 
			},
			{
				"x": 0.9775776039,
				"y": 0.8149010949,
				"z": 4.5734434216,
				"element": "H" 
			},
			{
				"x": -1.9045494472,
				"y": 0.8195159091,
				"z": -1.5396130039,
				"element": "H" 
			}
		],
		 "valence_orbital": [ 
			{
				"type": "occ",
				"energy": -0.30726,
				"method": "rhf"
			},
			{
				"type": "occ",
				"energy": -0.30233,
				"method": "rhf"
			},
			{
				"type": "occ",
				"energy": -0.29083,
				"method": "rhf"
			},
			{
				"type": "occ",
				"energy": -0.27439,
				"method": "rhf"
			},
			{
				"type": "occ",
				"energy": -0.24989,
				"method": "rhf"
			},
			{
				"type": "unocc",
				"energy": -0.06367,
				"method": "rhf"
			},
			{
				"type": "unocc",
				"energy": -0.00989,
				"method": "rhf"
			},
			{
				"type": "unocc",
				"energy": -0.00106,
				"method": "rhf"
			},
			{
				"type": "unocc",
				"energy": 0.03139,
				"method": "rhf"
			},
			{
				"type": "unocc",
				"energy": 0.064,
				"method": "rhf"
			}
		],
		"cosmo_sigma_profile": { 
			"-0.025": 0.0,
			"-0.024": 0.0,
			"-0.023": 0.0,
			"-0.022": 0.0,
			"-0.021": 0.0,
			"-0.02": 0.0,
			"-0.019": 0.772694376261,
			"-0.018": 2.35572191143,
			"-0.017": 1.10218014723,
			"-0.016": 1.76696480692,
			"-0.015": 1.96959743844,
			"-0.014": 1.77266001081,
			"-0.013": 0.823445893421,
			"-0.012": 1.03912159311,
			"-0.011": 2.1106361026,
			"-0.01": 1.09392739691,
			"-0.009": 1.6575130332,
			"-0.008": 3.42589951939,
			"-0.007": 7.04628760767,
			"-0.006": 9.27374124622,
			"-0.005": 14.4675431315,
			"-0.004": 15.7682500654,
			"-0.003": 14.6541157709,
			"-0.002": 13.9769628551,
			"-0.001": 13.9677249702,
			"0.0": 10.1727629427,
			"0.001": 11.7839726037,
			"0.002": 13.6417380739,
			"0.003": 9.73572192789,
			"0.004": 5.95551603934,
			"0.005": 5.59277217322,
			"0.006": 3.64903727189,
			"0.007": 5.60027871151,
			"0.008": 4.4783433472,
			"0.009": 5.10881857592,
			"0.01": 5.52481500009,
			"0.011": 11.7501342628,
			"0.012": 6.13843377017,
			"0.013": 2.81617612044,
			"0.014": 1.25543790062,
			"0.015": 0.610223814872,
			"0.016": 0.0,
			"0.017": 0.0,
			"0.018": 0.0,
			"0.019": 0.0,
			"0.02": 0.0,
			"0.021": 0.0,
			"0.022": 0.0,
			"0.023": 0.0,
			"0.024": 0.0,
			"0.025": 0.0
		}
	}
}
