{
	 "smiles": "COC=O", 
	 "Tm": 173.65, 
	 "num_atms": 8, 
	 "gaussian": { 
		 "optdone": 1, 
		 "sigma_profile": "yes", 
		 "theory": "DFT", 
		 "functional": "B3LYP", 
		 "basiset": "6-31G**", 
		 "properties": { 
			 "R2extent": 1056.1065, 
			 "electric_dipole_moment_norm": 1.82529395167, 
			 "electric_quadrupole_moment_norm": 1.69300159775, 
			 "total_energy": -229.064144589, 
			 "HOMO_LUMO_gap": 0.28794, 
			 "cosmo_polarized_energy": -5.95, 
			 "cosmo_cavitation_energy": 11.94, 
			 "cosmo_dispersion_energy": -8.85, 
			 "cosmo_repulsion_energy": 0.82, 
			 "cosmo_total_nonelectrostatic_energy": 3.91, 
			 "SMD_solvation_energy": 5.0 
		},
		"coords": [
			{
				"x": 0.4793186106,
				"y": 2.6415368181,
				"z": -0.268653884,
				"element": "C" 
			},
			{
				"x": 0.353760202,
				"y": 2.9865636174,
				"z": -1.6608278453,
				"element": "O" 
			},
			{
				"x": -0.0240215921,
				"y": 1.9820011186,
				"z": -2.4677009764,
				"element": "C" 
			},
			{
				"x": -0.258062104,
				"y": 0.8496400079,
				"z": -2.1232713706,
				"element": "O" 
			},
			{
				"x": 0.78825704,
				"y": 3.5565689826,
				"z": 0.2354920906,
				"element": "H" 
			},
			{
				"x": -0.4765392618,
				"y": 2.2887419887,
				"z": 0.1264807191,
				"element": "H" 
			},
			{
				"x": 1.2280201928,
				"y": 1.8569077224,
				"z": -0.1342598265,
				"element": "H" 
			},
			{
				"x": -0.0867330874,
				"y": 2.3583397443,
				"z": -3.5006589068,
				"element": "H" 
			}
		],
		 "valence_orbital": [ 
			{
				"type": "occ",
				"energy": -0.42531,
				"method": "rhf"
			},
			{
				"type": "occ",
				"energy": -0.39751,
				"method": "rhf"
			},
			{
				"type": "occ",
				"energy": -0.36405,
				"method": "rhf"
			},
			{
				"type": "occ",
				"energy": -0.30919,
				"method": "rhf"
			},
			{
				"type": "occ",
				"energy": -0.28303,
				"method": "rhf"
			},
			{
				"type": "unocc",
				"energy": 0.00491,
				"method": "rhf"
			},
			{
				"type": "unocc",
				"energy": 0.10621,
				"method": "rhf"
			},
			{
				"type": "unocc",
				"energy": 0.11704,
				"method": "rhf"
			},
			{
				"type": "unocc",
				"energy": 0.1428,
				"method": "rhf"
			},
			{
				"type": "unocc",
				"energy": 0.16197,
				"method": "rhf"
			}
		],
		"cosmo_sigma_profile": { 
			"-0.025": 0.0,
			"-0.024": 0.0,
			"-0.023": 0.0,
			"-0.022": 0.0,
			"-0.021": 0.0,
			"-0.02": 0.0,
			"-0.019": 0.0,
			"-0.018": 0.0,
			"-0.017": 0.0,
			"-0.016": 0.0,
			"-0.015": 0.0,
			"-0.014": 0.0,
			"-0.013": 0.0,
			"-0.012": 0.0,
			"-0.011": 0.0,
			"-0.01": 0.0690699217504,
			"-0.009": 2.49756446547,
			"-0.008": 2.43065856604,
			"-0.007": 3.03086872948,
			"-0.006": 6.95528975783,
			"-0.005": 9.24581208997,
			"-0.004": 10.8717337473,
			"-0.003": 10.2429598745,
			"-0.002": 5.54936421114,
			"-0.001": 4.77335138351,
			"0.0": 3.96334434969,
			"0.001": 2.76765139287,
			"0.002": 2.8915574291,
			"0.003": 2.5994183753,
			"0.004": 3.1327242972,
			"0.005": 1.99205612358,
			"0.006": 2.50123352532,
			"0.007": 2.59818096382,
			"0.008": 3.13437324774,
			"0.009": 2.3734590763,
			"0.01": 2.66066533745,
			"0.011": 5.00744485815,
			"0.012": 3.03455936128,
			"0.013": 0.375582277246,
			"0.014": 0.0,
			"0.015": 0.0,
			"0.016": 0.0,
			"0.017": 0.0,
			"0.018": 0.0,
			"0.019": 0.0,
			"0.02": 0.0,
			"0.021": 0.0,
			"0.022": 0.0,
			"0.023": 0.0,
			"0.024": 0.0,
			"0.025": 0.0
		}
	}
}
