{
	 "smiles": "OC(C1=CC=C(F)C=C1)(C1=CN=CN=C1)C1=C(Cl)C=CC=C1", 
	 "Tm": 399.15, 
	 "num_atms": 34, 
	 "gaussian": { 
		 "optdone": 1, 
		 "sigma_profile": "yes", 
		 "theory": "DFT", 
		 "functional": "B3LYP", 
		 "basiset": "6-31G**", 
		 "properties": { 
			 "R2extent": 7228.3737, 
			 "electric_dipole_moment_norm": 3.56943167745, 
			 "electric_quadrupole_moment_norm": 16.7073799559, 
			 "total_energy": -1399.76982334, 
			 "HOMO_LUMO_gap": 0.20116, 
			 "cosmo_polarized_energy": -11.68, 
			 "cosmo_cavitation_energy": 39.46, 
			 "cosmo_dispersion_energy": -27.15, 
			 "cosmo_repulsion_energy": 2.02, 
			 "cosmo_total_nonelectrostatic_energy": 14.34, 
			 "SMD_solvation_energy": 3.94 
		},
		"coords": [
			{
				"x": 1.1857307118,
				"y": 0.1948735723,
				"z": 2.5281956391,
				"element": "O" 
			},
			{
				"x": 0.9099234998,
				"y": 0.142523497,
				"z": 1.1249530716,
				"element": "C" 
			},
			{
				"x": -0.0778513693,
				"y": 1.257399299,
				"z": 0.7277861126,
				"element": "C" 
			},
			{
				"x": -0.0842691091,
				"y": 1.8378042843,
				"z": -0.5464586655,
				"element": "C" 
			},
			{
				"x": -1.0263915332,
				"y": 2.8098564702,
				"z": -0.8877063892,
				"element": "C" 
			},
			{
				"x": -1.9629050082,
				"y": 3.1956751033,
				"z": 0.0627286762,
				"element": "C" 
			},
			{
				"x": -2.872211723,
				"y": 4.1387727907,
				"z": -0.2569512699,
				"element": "F" 
			},
			{
				"x": -1.9870987516,
				"y": 2.6366910584,
				"z": 1.3361159798,
				"element": "C" 
			},
			{
				"x": -1.0431089944,
				"y": 1.6646039182,
				"z": 1.6593768153,
				"element": "C" 
			},
			{
				"x": 0.2480931324,
				"y": -1.2316420636,
				"z": 0.9398572725,
				"element": "C" 
			},
			{
				"x": -0.7119956042,
				"y": -1.5082478753,
				"z": -0.036234683,
				"element": "C" 
			},
			{
				"x": -1.2719609268,
				"y": -2.7161293917,
				"z": -0.1854510161,
				"element": "N" 
			},
			{
				"x": -0.8659075474,
				"y": -3.6578793443,
				"z": 0.6702348064,
				"element": "C" 
			},
			{
				"x": 0.0338974702,
				"y": -3.5195370332,
				"z": 1.649873842,
				"element": "N" 
			},
			{
				"x": 0.5838565862,
				"y": -2.3063401883,
				"z": 1.7737447482,
				"element": "C" 
			},
			{
				"x": 2.2368822206,
				"y": 0.2455856308,
				"z": 0.3246395615,
				"element": "C" 
			},
			{
				"x": 3.1390127491,
				"y": 1.3153132074,
				"z": 0.480960858,
				"element": "C" 
			},
			{
				"x": 2.8165145847,
				"y": 2.6553731049,
				"z": 1.597206758,
				"element": "Cl" 
			},
			{
				"x": 4.3362632606,
				"y": 1.3961257243,
				"z": -0.2275433868,
				"element": "C" 
			},
			{
				"x": 4.6709568398,
				"y": 0.3951625789,
				"z": -1.1376993879,
				"element": "C" 
			},
			{
				"x": 3.8006720057,
				"y": -0.6745971547,
				"z": -1.3259150788,
				"element": "C" 
			},
			{
				"x": 2.6093990653,
				"y": -0.7395995736,
				"z": -0.6029949596,
				"element": "C" 
			},
			{
				"x": 1.5748837585,
				"y": 1.0607398846,
				"z": 2.7204583937,
				"element": "H" 
			},
			{
				"x": 0.65492168,
				"y": 1.5403785882,
				"z": -1.2832415401,
				"element": "H" 
			},
			{
				"x": -1.0368016751,
				"y": 3.2700659889,
				"z": -1.8697451205,
				"element": "H" 
			},
			{
				"x": -2.7348398296,
				"y": 2.9630906169,
				"z": 2.050916623,
				"element": "H" 
			},
			{
				"x": -1.0443393133,
				"y": 1.2157558257,
				"z": 2.6466797659,
				"element": "H" 
			},
			{
				"x": -1.0505127554,
				"y": -0.7343427842,
				"z": -0.721233784,
				"element": "H" 
			},
			{
				"x": -1.3160887224,
				"y": -4.6426361511,
				"z": 0.5590732426,
				"element": "H" 
			},
			{
				"x": 1.3111064896,
				"y": -2.1731962474,
				"z": 2.5688692759,
				"element": "H" 
			},
			{
				"x": 4.9953422835,
				"y": 2.2410221911,
				"z": -0.0617459283,
				"element": "H" 
			},
			{
				"x": 5.6037084709,
				"y": 0.45817207,
				"z": -1.6894758842,
				"element": "H" 
			},
			{
				"x": 4.0426175737,
				"y": -1.4638188451,
				"z": -2.0308649003,
				"element": "H" 
			},
			{
				"x": 1.9495004804,
				"y": -1.5833187527,
				"z": -0.7624094482,
				"element": "H" 
			}
		],
		 "valence_orbital": [ 
			{
				"type": "occ",
				"energy": -0.27309,
				"method": "rhf"
			},
			{
				"type": "occ",
				"energy": -0.2671,
				"method": "rhf"
			},
			{
				"type": "occ",
				"energy": -0.2616,
				"method": "rhf"
			},
			{
				"type": "occ",
				"energy": -0.24936,
				"method": "rhf"
			},
			{
				"type": "occ",
				"energy": -0.24595,
				"method": "rhf"
			},
			{
				"type": "unocc",
				"energy": -0.04479,
				"method": "rhf"
			},
			{
				"type": "unocc",
				"energy": -0.03279,
				"method": "rhf"
			},
			{
				"type": "unocc",
				"energy": -0.03098,
				"method": "rhf"
			},
			{
				"type": "unocc",
				"energy": -0.02572,
				"method": "rhf"
			},
			{
				"type": "unocc",
				"energy": -0.015,
				"method": "rhf"
			}
		],
		"cosmo_sigma_profile": { 
			"-0.025": 0.0,
			"-0.024": 0.0,
			"-0.023": 0.0,
			"-0.022": 0.0,
			"-0.021": 0.0,
			"-0.02": 0.0,
			"-0.019": 0.0,
			"-0.018": 0.0,
			"-0.017": 0.0,
			"-0.016": 0.0,
			"-0.015": 0.0,
			"-0.014": 0.0,
			"-0.013": 0.0,
			"-0.012": 0.0,
			"-0.011": 0.223283439978,
			"-0.01": 0.531185170776,
			"-0.009": 0.752993510869,
			"-0.008": 2.25668409397,
			"-0.007": 11.7556167231,
			"-0.006": 19.8501725967,
			"-0.005": 23.3507908727,
			"-0.004": 21.6300251322,
			"-0.003": 19.4049720547,
			"-0.002": 21.8145323226,
			"-0.001": 22.9890310135,
			"0.0": 28.5647012089,
			"0.001": 29.8091186505,
			"0.002": 28.3484777472,
			"0.003": 29.0937080081,
			"0.004": 25.1892492666,
			"0.005": 8.98779760818,
			"0.006": 3.67836065708,
			"0.007": 4.05403061678,
			"0.008": 3.75582334842,
			"0.009": 2.30081085752,
			"0.01": 2.48595686044,
			"0.011": 1.45588801244,
			"0.012": 2.02149132865,
			"0.013": 2.27761032834,
			"0.014": 1.4631995446,
			"0.015": 1.3275447156,
			"0.016": 0.379180020587,
			"0.017": 0.0,
			"0.018": 0.0,
			"0.019": 0.0,
			"0.02": 0.0,
			"0.021": 0.0,
			"0.022": 0.0,
			"0.023": 0.0,
			"0.024": 0.0,
			"0.025": 0.0
		}
	}
}
