{
	 "smiles": "CC1=C(C=CC(N)=C1)N1CCSCC1", 
	 "Tm": 341.15, 
	 "num_atms": 30, 
	 "gaussian": { 
		 "optdone": 1, 
		 "sigma_profile": "yes", 
		 "theory": "DFT", 
		 "functional": "B3LYP", 
		 "basiset": "6-31G**", 
		 "properties": { 
			 "R2extent": 4156.4935, 
			 "electric_dipole_moment_norm": 2.68156636875, 
			 "electric_quadrupole_moment_norm": 10.7670804288, 
			 "total_energy": -936.497313206, 
			 "HOMO_LUMO_gap": 0.185, 
			 "cosmo_polarized_energy": -11.16, 
			 "cosmo_cavitation_energy": 32.2, 
			 "cosmo_dispersion_energy": -23.91, 
			 "cosmo_repulsion_energy": 1.82, 
			 "cosmo_total_nonelectrostatic_energy": 10.12, 
			 "SMD_solvation_energy": 3.89 
		},
		"coords": [
			{
				"x": -0.2648334758,
				"y": 3.352319334,
				"z": -0.2401724445,
				"element": "C" 
			},
			{
				"x": -0.7724503125,
				"y": 2.3191898513,
				"z": 0.737599768,
				"element": "C" 
			},
			{
				"x": -0.7259188394,
				"y": 0.9378973581,
				"z": 0.4301347845,
				"element": "C" 
			},
			{
				"x": -1.2905152666,
				"y": 0.034464973,
				"z": 1.3429454748,
				"element": "C" 
			},
			{
				"x": -1.8706818278,
				"y": 0.4616524519,
				"z": 2.5346808585,
				"element": "C" 
			},
			{
				"x": -1.8904971479,
				"y": 1.8232670225,
				"z": 2.8637578041,
				"element": "C" 
			},
			{
				"x": -2.5138676378,
				"y": 2.2774516007,
				"z": 4.0348091131,
				"element": "N" 
			},
			{
				"x": -1.3354446622,
				"y": 2.7300040163,
				"z": 1.9477013888,
				"element": "C" 
			},
			{
				"x": -0.1500357217,
				"y": 0.5094056218,
				"z": -0.8005563713,
				"element": "N" 
			},
			{
				"x": -0.703109986,
				"y": -0.7003867714,
				"z": -1.4044304774,
				"element": "C" 
			},
			{
				"x": -0.1763234131,
				"y": -0.9031526669,
				"z": -2.8236593803,
				"element": "C" 
			},
			{
				"x": 1.617408174,
				"y": -1.3485702639,
				"z": -2.8311682498,
				"element": "S" 
			},
			{
				"x": 2.0845373296,
				"y": -0.5711521215,
				"z": -1.2284856494,
				"element": "C" 
			},
			{
				"x": 1.3027314307,
				"y": 0.7193956032,
				"z": -0.966632458,
				"element": "C" 
			},
			{
				"x": 0.8255091801,
				"y": 3.4675054655,
				"z": -0.2039017996,
				"element": "H" 
			},
			{
				"x": -0.5196173547,
				"y": 3.0631292444,
				"z": -1.2645509853,
				"element": "H" 
			},
			{
				"x": -0.7019644087,
				"y": 4.3328551527,
				"z": -0.0319488434,
				"element": "H" 
			},
			{
				"x": -1.2729158524,
				"y": -1.0290598893,
				"z": 1.1282071062,
				"element": "H" 
			},
			{
				"x": -2.3058089775,
				"y": -0.2664287887,
				"z": 3.2153138424,
				"element": "H" 
			},
			{
				"x": -2.1687110999,
				"y": 3.1653884519,
				"z": 4.3742929145,
				"element": "H" 
			},
			{
				"x": -2.5509986759,
				"y": 1.5937719812,
				"z": 4.7792813678,
				"element": "H" 
			},
			{
				"x": -1.3745313512,
				"y": 3.7944906597,
				"z": 2.1717457503,
				"element": "H" 
			},
			{
				"x": -1.7927822075,
				"y": -0.5853369112,
				"z": -1.4359729177,
				"element": "H" 
			},
			{
				"x": -0.4969561571,
				"y": -1.6202948653,
				"z": -0.8284592269,
				"element": "H" 
			},
			{
				"x": -0.7037843343,
				"y": -1.7309221445,
				"z": -3.3043161247,
				"element": "H" 
			},
			{
				"x": -0.3343671347,
				"y": 0.0018455781,
				"z": -3.4170096521,
				"element": "H" 
			},
			{
				"x": 3.1528411074,
				"y": -0.3490613665,
				"z": -1.299941591,
				"element": "H" 
			},
			{
				"x": 1.9425784827,
				"y": -1.2846960377,
				"z": -0.4113647828,
				"element": "H" 
			},
			{
				"x": 1.6892049159,
				"y": 1.1756577526,
				"z": -0.0493332829,
				"element": "H" 
			},
			{
				"x": 1.5048052244,
				"y": 1.420269708,
				"z": -1.7883659359,
				"element": "H" 
			}
		],
		 "valence_orbital": [ 
			{
				"type": "occ",
				"energy": -0.29596,
				"method": "rhf"
			},
			{
				"type": "occ",
				"energy": -0.23446,
				"method": "rhf"
			},
			{
				"type": "occ",
				"energy": -0.22829,
				"method": "rhf"
			},
			{
				"type": "occ",
				"energy": -0.21522,
				"method": "rhf"
			},
			{
				"type": "occ",
				"energy": -0.17734,
				"method": "rhf"
			},
			{
				"type": "unocc",
				"energy": 0.00766,
				"method": "rhf"
			},
			{
				"type": "unocc",
				"energy": 0.02397,
				"method": "rhf"
			},
			{
				"type": "unocc",
				"energy": 0.04261,
				"method": "rhf"
			},
			{
				"type": "unocc",
				"energy": 0.06446,
				"method": "rhf"
			},
			{
				"type": "unocc",
				"energy": 0.08427,
				"method": "rhf"
			}
		],
		"cosmo_sigma_profile": { 
			"-0.025": 0.0,
			"-0.024": 0.0,
			"-0.023": 0.0,
			"-0.022": 0.0,
			"-0.021": 0.0,
			"-0.02": 0.0,
			"-0.019": 0.0,
			"-0.018": 0.0,
			"-0.017": 0.0,
			"-0.016": 0.0,
			"-0.015": 0.0,
			"-0.014": 0.0,
			"-0.013": 0.0,
			"-0.012": 0.928859894846,
			"-0.011": 2.66087694693,
			"-0.01": 2.5312723635,
			"-0.009": 3.41791496222,
			"-0.008": 3.21167575851,
			"-0.007": 2.58196818009,
			"-0.006": 5.47346725884,
			"-0.005": 13.5202206233,
			"-0.004": 24.7091739122,
			"-0.003": 29.0394359267,
			"-0.002": 28.8508082226,
			"-0.001": 21.0241875975,
			"0.0": 18.6038078608,
			"0.001": 14.4462669346,
			"0.002": 10.0380614802,
			"0.003": 9.35567214735,
			"0.004": 9.63522419964,
			"0.005": 10.2035038369,
			"0.006": 11.2394388078,
			"0.007": 12.4324619967,
			"0.008": 7.37337114293,
			"0.009": 3.33104094981,
			"0.01": 3.36420096587,
			"0.011": 2.09804675323,
			"0.012": 0.95588668113,
			"0.013": 1.08559274564,
			"0.014": 0.823025734201,
			"0.015": 0.527436885261,
			"0.016": 0.275003919813,
			"0.017": 0.0,
			"0.018": 0.0,
			"0.019": 0.0,
			"0.02": 0.0,
			"0.021": 0.0,
			"0.022": 0.0,
			"0.023": 0.0,
			"0.024": 0.0,
			"0.025": 0.0
		}
	}
}
