{
	 "smiles": "CC1=CC(O)=C(C(O)=O)C(O)=C1", 
	 "Tm": 449.15, 
	 "num_atms": 20, 
	 "gaussian": { 
		 "optdone": 1, 
		 "sigma_profile": "yes", 
		 "theory": "DFT", 
		 "functional": "B3LYP", 
		 "basiset": "6-31G**", 
		 "properties": { 
			 "R2extent": 2348.0137, 
			 "electric_dipole_moment_norm": 6.38385278966, 
			 "electric_quadrupole_moment_norm": 11.1655712747, 
			 "total_energy": -610.598299016, 
			 "HOMO_LUMO_gap": 0.18155, 
			 "cosmo_polarized_energy": -15.54, 
			 "cosmo_cavitation_energy": 23.67, 
			 "cosmo_dispersion_energy": -18.31, 
			 "cosmo_repulsion_energy": 1.44, 
			 "cosmo_total_nonelectrostatic_energy": 6.79, 
			 "SMD_solvation_energy": 5.84 
		},
		"coords": [
			{
				"x": -1.016069071,
				"y": 2.1309544172,
				"z": 2.1115119007,
				"element": "C" 
			},
			{
				"x": -0.3392136562,
				"y": 1.0259735798,
				"z": 1.3383151948,
				"element": "C" 
			},
			{
				"x": 0.8445639061,
				"y": 1.2561959132,
				"z": 0.6509764536,
				"element": "C" 
			},
			{
				"x": 1.4759708579,
				"y": 0.227550296,
				"z": -0.0696993185,
				"element": "C" 
			},
			{
				"x": 2.6104057841,
				"y": 0.5208735337,
				"z": -0.7060756938,
				"element": "O" 
			},
			{
				"x": 0.9091104991,
				"y": -1.0796474197,
				"z": -0.1086405907,
				"element": "C" 
			},
			{
				"x": 1.6158801132,
				"y": -2.1247563137,
				"z": -0.8829781586,
				"element": "C" 
			},
			{
				"x": 1.1151063426,
				"y": -3.3627763928,
				"z": -0.9432868351,
				"element": "O" 
			},
			{
				"x": 2.6664736784,
				"y": -1.8869441414,
				"z": -1.4827098388,
				"element": "O" 
			},
			{
				"x": -0.2975423063,
				"y": -1.2779323042,
				"z": 0.603307974,
				"element": "C" 
			},
			{
				"x": -0.8482590419,
				"y": -2.5406885259,
				"z": 0.5679410182,
				"element": "O" 
			},
			{
				"x": -0.9136238881,
				"y": -0.2591979168,
				"z": 1.3111381709,
				"element": "C" 
			},
			{
				"x": -1.1079753813,
				"y": 1.8696612242,
				"z": 3.1719521635,
				"element": "H" 
			},
			{
				"x": -0.4582795053,
				"y": 3.0674463008,
				"z": 2.0410374861,
				"element": "H" 
			},
			{
				"x": -2.0296675652,
				"y": 2.310405575,
				"z": 1.7351630706,
				"element": "H" 
			},
			{
				"x": 1.314250834,
				"y": 2.2337527731,
				"z": 0.650763012,
				"element": "H" 
			},
			{
				"x": 2.9053193463,
				"y": -0.3219550406,
				"z": -1.1542363215,
				"element": "H" 
			},
			{
				"x": 0.2875222997,
				"y": -3.4145768948,
				"z": -0.4291877724,
				"element": "H" 
			},
			{
				"x": -1.6649624535,
				"y": -2.5660341238,
				"z": 1.0820493929,
				"element": "H" 
			},
			{
				"x": -1.8411107925,
				"y": -0.4552045393,
				"z": 1.8449586921,
				"element": "H" 
			}
		],
		 "valence_orbital": [ 
			{
				"type": "occ",
				"energy": -0.3192,
				"method": "rhf"
			},
			{
				"type": "occ",
				"energy": -0.31366,
				"method": "rhf"
			},
			{
				"type": "occ",
				"energy": -0.27874,
				"method": "rhf"
			},
			{
				"type": "occ",
				"energy": -0.25311,
				"method": "rhf"
			},
			{
				"type": "occ",
				"energy": -0.22711,
				"method": "rhf"
			},
			{
				"type": "unocc",
				"energy": -0.04556,
				"method": "rhf"
			},
			{
				"type": "unocc",
				"energy": 0.00374,
				"method": "rhf"
			},
			{
				"type": "unocc",
				"energy": 0.03776,
				"method": "rhf"
			},
			{
				"type": "unocc",
				"energy": 0.04987,
				"method": "rhf"
			},
			{
				"type": "unocc",
				"energy": 0.08906,
				"method": "rhf"
			}
		],
		"cosmo_sigma_profile": { 
			"-0.025": 0.0,
			"-0.024": 0.0,
			"-0.023": 0.0,
			"-0.022": 0.0,
			"-0.021": 0.0,
			"-0.02": 0.297132857068,
			"-0.019": 1.02460621097,
			"-0.018": 1.3028035312,
			"-0.017": 0.820742833936,
			"-0.016": 0.983550202515,
			"-0.015": 1.10179253275,
			"-0.014": 0.442530405211,
			"-0.013": 0.890959142381,
			"-0.012": 1.1160150682,
			"-0.011": 1.45107520265,
			"-0.01": 0.985650557976,
			"-0.009": 1.9980721907,
			"-0.008": 1.70596637372,
			"-0.007": 2.52906574706,
			"-0.006": 4.16557290181,
			"-0.005": 11.3228208172,
			"-0.004": 13.9516861902,
			"-0.003": 14.7000607554,
			"-0.002": 14.4939929417,
			"-0.001": 16.3648092897,
			"0.0": 14.8531115812,
			"0.001": 12.517866553,
			"0.002": 12.070499657,
			"0.003": 12.850119861,
			"0.004": 9.41152557735,
			"0.005": 3.87413682342,
			"0.006": 4.25712113447,
			"0.007": 3.02820861245,
			"0.008": 4.2407272718,
			"0.009": 4.1258281015,
			"0.01": 5.52778862685,
			"0.011": 5.80263555127,
			"0.012": 2.89217017185,
			"0.013": 1.39338581396,
			"0.014": 0.0486821134602,
			"0.015": 0.0,
			"0.016": 0.0,
			"0.017": 0.0,
			"0.018": 0.0,
			"0.019": 0.0,
			"0.02": 0.0,
			"0.021": 0.0,
			"0.022": 0.0,
			"0.023": 0.0,
			"0.024": 0.0,
			"0.025": 0.0
		}
	}
}
