{
	 "smiles": "CC1C2C(CC3=CC=CC=C3)NC(=O)C22OC(=O)CCC(O)CCCC(C)CC=CC2C(O)C1=C", 
	 "Tm": 477.15, 
	 "num_atms": 74, 
	 "gaussian": { 
		 "optdone": 1, 
		 "sigma_profile": "yes", 
		 "theory": "DFT", 
		 "functional": "B3LYP", 
		 "basiset": "6-31G**", 
		 "properties": { 
			 "R2extent": 18367.0306, 
			 "electric_dipole_moment_norm": 5.83618102015, 
			 "electric_quadrupole_moment_norm": 13.4269573914, 
			 "total_energy": -1559.45356338, 
			 "HOMO_LUMO_gap": 0.22341, 
			 "cosmo_polarized_energy": -25.08, 
			 "cosmo_cavitation_energy": 66.64, 
			 "cosmo_dispersion_energy": -42.68, 
			 "cosmo_repulsion_energy": 3.13, 
			 "cosmo_total_nonelectrostatic_energy": 27.09, 
			 "SMD_solvation_energy": 10.67 
		},
		"coords": [
			{
				"x": -0.300034361,
				"y": -3.7784906974,
				"z": -0.8360260903,
				"element": "C" 
			},
			{
				"x": 0.0290792012,
				"y": -2.2891510035,
				"z": -0.9773693676,
				"element": "C" 
			},
			{
				"x": -0.1291007845,
				"y": -1.4873462916,
				"z": 0.3409198754,
				"element": "C" 
			},
			{
				"x": -1.5165493748,
				"y": -1.5772016489,
				"z": 1.0482705126,
				"element": "C" 
			},
			{
				"x": -1.5965493452,
				"y": -2.6838486451,
				"z": 2.1277137274,
				"element": "C" 
			},
			{
				"x": -2.9144340322,
				"y": -2.6882957529,
				"z": 2.8743245387,
				"element": "C" 
			},
			{
				"x": -3.0312941992,
				"y": -2.0769280171,
				"z": 4.1312381129,
				"element": "C" 
			},
			{
				"x": -4.2559026496,
				"y": -2.0470156303,
				"z": 4.8032296429,
				"element": "C" 
			},
			{
				"x": -5.3847570304,
				"y": -2.6310503561,
				"z": 4.2280490925,
				"element": "C" 
			},
			{
				"x": -5.2814494828,
				"y": -3.247078034,
				"z": 2.9783594718,
				"element": "C" 
			},
			{
				"x": -4.0578232874,
				"y": -3.2739426159,
				"z": 2.3098887861,
				"element": "C" 
			},
			{
				"x": -1.6608883084,
				"y": -0.259643267,
				"z": 1.6589267392,
				"element": "N" 
			},
			{
				"x": -0.6746692574,
				"y": 0.6364156395,
				"z": 1.3961034322,
				"element": "C" 
			},
			{
				"x": -0.5170715137,
				"y": 1.7283884269,
				"z": 1.9156266012,
				"element": "O" 
			},
			{
				"x": 0.1456995278,
				"y": 0.0433650274,
				"z": 0.2197852174,
				"element": "C" 
			},
			{
				"x": 1.5326235503,
				"y": 0.4101643534,
				"z": 0.3206954969,
				"element": "O" 
			},
			{
				"x": 2.1852628428,
				"y": 0.219399287,
				"z": 1.4998118452,
				"element": "C" 
			},
			{
				"x": 1.7242419384,
				"y": -0.4134464925,
				"z": 2.4272015899,
				"element": "O" 
			},
			{
				"x": 3.5345468395,
				"y": 0.9113015259,
				"z": 1.5215485796,
				"element": "C" 
			},
			{
				"x": 4.6044253228,
				"y": 0.4062338137,
				"z": 0.5304391703,
				"element": "C" 
			},
			{
				"x": 4.3326385293,
				"y": 0.6104479295,
				"z": -0.9646969531,
				"element": "C" 
			},
			{
				"x": 5.5092726375,
				"y": 0.1080397476,
				"z": -1.6159693288,
				"element": "O" 
			},
			{
				"x": 4.0468481147,
				"y": 2.0657457406,
				"z": -1.3513383109,
				"element": "C" 
			},
			{
				"x": 3.6483274163,
				"y": 2.2370752687,
				"z": -2.8270512675,
				"element": "C" 
			},
			{
				"x": 3.0502155926,
				"y": 3.6286143951,
				"z": -3.1349583762,
				"element": "C" 
			},
			{
				"x": 1.8488011366,
				"y": 3.6323139354,
				"z": -4.1052324144,
				"element": "C" 
			},
			{
				"x": 1.4019856809,
				"y": 5.0745029701,
				"z": -4.3939556818,
				"element": "C" 
			},
			{
				"x": 0.6619539581,
				"y": 2.7490931819,
				"z": -3.6116305662,
				"element": "C" 
			},
			{
				"x": 0.2800841828,
				"y": 2.9946773248,
				"z": -2.1726236264,
				"element": "C" 
			},
			{
				"x": -0.0893264341,
				"y": 2.1733690703,
				"z": -1.1783632273,
				"element": "C" 
			},
			{
				"x": -0.4023614973,
				"y": 0.6871762295,
				"z": -1.1028991709,
				"element": "C" 
			},
			{
				"x": -0.1659866571,
				"y": -0.1834449012,
				"z": -2.3483991498,
				"element": "C" 
			},
			{
				"x": 1.2345044265,
				"y": -0.2309183438,
				"z": -2.6551587324,
				"element": "O" 
			},
			{
				"x": -0.6824662081,
				"y": -1.5892899722,
				"z": -2.1147505378,
				"element": "C" 
			},
			{
				"x": -1.6505510589,
				"y": -2.1077434413,
				"z": -2.87627477,
				"element": "C" 
			},
			{
				"x": 0.2770411443,
				"y": -4.2268842224,
				"z": -0.0213932669,
				"element": "H" 
			},
			{
				"x": -1.3612121048,
				"y": -3.9559815398,
				"z": -0.6344175678,
				"element": "H" 
			},
			{
				"x": -0.0482507585,
				"y": -4.3139983038,
				"z": -1.7567568924,
				"element": "H" 
			},
			{
				"x": 1.0987843741,
				"y": -2.2154648497,
				"z": -1.2144077944,
				"element": "H" 
			},
			{
				"x": 0.6065894467,
				"y": -1.8689033178,
				"z": 1.0512900126,
				"element": "H" 
			},
			{
				"x": -2.3158879668,
				"y": -1.7385518285,
				"z": 0.3100323856,
				"element": "H" 
			},
			{
				"x": -0.7679588269,
				"y": -2.5276929929,
				"z": 2.8268940403,
				"element": "H" 
			},
			{
				"x": -1.4409881254,
				"y": -3.654537303,
				"z": 1.6478222538,
				"element": "H" 
			},
			{
				"x": -2.1521297762,
				"y": -1.6323387671,
				"z": 4.591517848,
				"element": "H" 
			},
			{
				"x": -4.3240314728,
				"y": -1.5718867944,
				"z": 5.7777529866,
				"element": "H" 
			},
			{
				"x": -6.336778326,
				"y": -2.6117979254,
				"z": 4.7504296896,
				"element": "H" 
			},
			{
				"x": -6.1539790896,
				"y": -3.7104997074,
				"z": 2.5263688343,
				"element": "H" 
			},
			{
				"x": -3.9859125402,
				"y": -3.76146267,
				"z": 1.3401410501,
				"element": "H" 
			},
			{
				"x": -2.339593095,
				"y": -0.0765867296,
				"z": 2.3857557198,
				"element": "H" 
			},
			{
				"x": 3.9080875801,
				"y": 0.7865030207,
				"z": 2.5404070522,
				"element": "H" 
			},
			{
				"x": 3.351939442,
				"y": 1.9803366908,
				"z": 1.3675800971,
				"element": "H" 
			},
			{
				"x": 5.5434160086,
				"y": 0.9199529515,
				"z": 0.7700606602,
				"element": "H" 
			},
			{
				"x": 4.7898727469,
				"y": -0.6610268113,
				"z": 0.6980971528,
				"element": "H" 
			},
			{
				"x": 3.461178692,
				"y": 0.0091563847,
				"z": -1.2571109772,
				"element": "H" 
			},
			{
				"x": 5.3539940882,
				"y": 0.1552620557,
				"z": -2.5673326593,
				"element": "H" 
			},
			{
				"x": 3.2050439462,
				"y": 2.4214007655,
				"z": -0.748620713,
				"element": "H" 
			},
			{
				"x": 4.9186839687,
				"y": 2.6869945171,
				"z": -1.103135233,
				"element": "H" 
			},
			{
				"x": 2.9094166216,
				"y": 1.4629333823,
				"z": -3.0532319325,
				"element": "H" 
			},
			{
				"x": 4.5108783093,
				"y": 2.0541064512,
				"z": -3.4831271849,
				"element": "H" 
			},
			{
				"x": 3.8263454708,
				"y": 4.2922813283,
				"z": -3.5369828903,
				"element": "H" 
			},
			{
				"x": 2.7254069725,
				"y": 4.0919991009,
				"z": -2.1947371001,
				"element": "H" 
			},
			{
				"x": 2.1793121507,
				"y": 3.1961226805,
				"z": -5.0597714458,
				"element": "H" 
			},
			{
				"x": 0.586959126,
				"y": 5.1005966178,
				"z": -5.1257016965,
				"element": "H" 
			},
			{
				"x": 2.2298761729,
				"y": 5.6704878415,
				"z": -4.7935201328,
				"element": "H" 
			},
			{
				"x": 1.0486720073,
				"y": 5.5779525273,
				"z": -3.4864223456,
				"element": "H" 
			},
			{
				"x": -0.2005746158,
				"y": 2.9687645075,
				"z": -4.2599198033,
				"element": "H" 
			},
			{
				"x": 0.9084359195,
				"y": 1.6989156078,
				"z": -3.7633107059,
				"element": "H" 
			},
			{
				"x": 0.3167141802,
				"y": 4.0458179075,
				"z": -1.8829135535,
				"element": "H" 
			},
			{
				"x": -0.2821340571,
				"y": 2.6542141954,
				"z": -0.2222164819,
				"element": "H" 
			},
			{
				"x": -1.4964906226,
				"y": 0.6366384663,
				"z": -0.9793260892,
				"element": "H" 
			},
			{
				"x": -0.7174011903,
				"y": 0.2749848659,
				"z": -3.1813037522,
				"element": "H" 
			},
			{
				"x": 1.340389799,
				"y": -0.8251386892,
				"z": -3.4110184622,
				"element": "H" 
			},
			{
				"x": -2.1009951274,
				"y": -1.5309968322,
				"z": -3.6803000553,
				"element": "H" 
			},
			{
				"x": -2.0320158883,
				"y": -3.1134613383,
				"z": -2.7330059079,
				"element": "H" 
			}
		],
		 "valence_orbital": [ 
			{
				"type": "occ",
				"energy": -0.25688,
				"method": "rhf"
			},
			{
				"type": "occ",
				"energy": -0.248,
				"method": "rhf"
			},
			{
				"type": "occ",
				"energy": -0.24541,
				"method": "rhf"
			},
			{
				"type": "occ",
				"energy": -0.24039,
				"method": "rhf"
			},
			{
				"type": "occ",
				"energy": -0.23434,
				"method": "rhf"
			},
			{
				"type": "unocc",
				"energy": -0.01093,
				"method": "rhf"
			},
			{
				"type": "unocc",
				"energy": -0.00927,
				"method": "rhf"
			},
			{
				"type": "unocc",
				"energy": -0.00201,
				"method": "rhf"
			},
			{
				"type": "unocc",
				"energy": 0.00747,
				"method": "rhf"
			},
			{
				"type": "unocc",
				"energy": 0.0247,
				"method": "rhf"
			}
		],
		"cosmo_sigma_profile": { 
			"-0.025": 0.0,
			"-0.024": 0.0,
			"-0.023": 0.0,
			"-0.022": 0.0,
			"-0.021": 0.0,
			"-0.02": 0.0,
			"-0.019": 0.0,
			"-0.018": 0.0,
			"-0.017": 0.0,
			"-0.016": 0.362143507605,
			"-0.015": 0.749847192909,
			"-0.014": 1.14838853664,
			"-0.013": 1.46999901832,
			"-0.012": 1.90457015729,
			"-0.011": 2.17760685075,
			"-0.01": 1.82868966418,
			"-0.009": 2.46848890813,
			"-0.008": 3.78104900817,
			"-0.007": 2.46524807765,
			"-0.006": 8.95611525598,
			"-0.005": 30.1925493959,
			"-0.004": 45.0420502879,
			"-0.003": 58.09916815,
			"-0.002": 57.5974067863,
			"-0.001": 55.3277630399,
			"0.0": 51.6532768585,
			"0.001": 47.8235328432,
			"0.002": 30.3839860583,
			"0.003": 18.7034767025,
			"0.004": 17.2566087782,
			"0.005": 15.7053005442,
			"0.006": 12.9006758032,
			"0.007": 6.27360823391,
			"0.008": 6.27639143596,
			"0.009": 5.70730782919,
			"0.01": 6.61754168282,
			"0.011": 6.25260714913,
			"0.012": 6.02049877989,
			"0.013": 7.58723592597,
			"0.014": 4.22161738971,
			"0.015": 1.03478169261,
			"0.016": 0.0,
			"0.017": 0.0,
			"0.018": 0.0,
			"0.019": 0.0,
			"0.02": 0.0,
			"0.021": 0.0,
			"0.022": 0.0,
			"0.023": 0.0,
			"0.024": 0.0,
			"0.025": 0.0
		}
	}
}
