{
	 "smiles": "CCN1C(CCl)=NC2=C1C=CC(=C2)S(=O)(=O)N1CCCCC1", 
	 "Tm": 508.15, 
	 "num_atms": 42, 
	 "gaussian": { 
		 "optdone": 1, 
		 "sigma_profile": "yes", 
		 "theory": "DFT", 
		 "functional": "B3LYP", 
		 "basiset": "6-31G**", 
		 "properties": { 
			 "R2extent": 9998.3777, 
			 "electric_dipole_moment_norm": 6.60291531219, 
			 "electric_quadrupole_moment_norm": 35.2631763151, 
			 "total_energy": -1756.69417071, 
			 "HOMO_LUMO_gap": 0.17904, 
			 "cosmo_polarized_energy": -20.79, 
			 "cosmo_cavitation_energy": 45.22, 
			 "cosmo_dispersion_energy": -31.82, 
			 "cosmo_repulsion_energy": 2.4, 
			 "cosmo_total_nonelectrostatic_energy": 15.8, 
			 "SMD_solvation_energy": 2.73 
		},
		"coords": [
			{
				"x": -1.7185426524,
				"y": 2.7326916649,
				"z": 2.5487179722,
				"element": "C" 
			},
			{
				"x": -2.361681329,
				"y": 3.1240365953,
				"z": 1.2158167522,
				"element": "C" 
			},
			{
				"x": -1.541579441,
				"y": 2.7732521071,
				"z": 0.055826657,
				"element": "N" 
			},
			{
				"x": -0.7497404907,
				"y": 3.6023474889,
				"z": -0.7252654622,
				"element": "C" 
			},
			{
				"x": -0.6638172656,
				"y": 5.0761461398,
				"z": -0.5500822866,
				"element": "C" 
			},
			{
				"x": 0.2476499063,
				"y": 5.5727064529,
				"z": 0.9603947699,
				"element": "Cl" 
			},
			{
				"x": -0.1016079713,
				"y": 2.9682289753,
				"z": -1.6762890812,
				"element": "N" 
			},
			{
				"x": -0.469162693,
				"y": 1.6436355712,
				"z": -1.5354708891,
				"element": "C" 
			},
			{
				"x": -1.3699120989,
				"y": 1.498383012,
				"z": -0.4506603854,
				"element": "C" 
			},
			{
				"x": -1.9231888182,
				"y": 0.2620285653,
				"z": -0.0984787868,
				"element": "C" 
			},
			{
				"x": -1.5409772529,
				"y": -0.8394805575,
				"z": -0.8550918468,
				"element": "C" 
			},
			{
				"x": -0.632756562,
				"y": -0.7008704689,
				"z": -1.9273545453,
				"element": "C" 
			},
			{
				"x": -0.0944864956,
				"y": 0.5288547331,
				"z": -2.2941516716,
				"element": "C" 
			},
			{
				"x": -0.1426910962,
				"y": -2.1751671814,
				"z": -2.840411784,
				"element": "S" 
			},
			{
				"x": -1.2251154518,
				"y": -3.1496217804,
				"z": -2.6697631058,
				"element": "O" 
			},
			{
				"x": 0.301587373,
				"y": -1.7215795381,
				"z": -4.1610978253,
				"element": "O" 
			},
			{
				"x": 1.2020699435,
				"y": -2.8436522122,
				"z": -2.1026929702,
				"element": "N" 
			},
			{
				"x": 2.5347758066,
				"y": -2.2584689138,
				"z": -2.3152535015,
				"element": "C" 
			},
			{
				"x": 3.0368607394,
				"y": -1.4889134439,
				"z": -1.0848019776,
				"element": "C" 
			},
			{
				"x": 2.9535482862,
				"y": -2.3591314052,
				"z": 0.1792773197,
				"element": "C" 
			},
			{
				"x": 1.5329131421,
				"y": -2.9132762286,
				"z": 0.3716909067,
				"element": "C" 
			},
			{
				"x": 1.0591889679,
				"y": -3.6566069354,
				"z": -0.8859888486,
				"element": "C" 
			},
			{
				"x": -0.7703139689,
				"y": 3.2573060611,
				"z": 2.6867317578,
				"element": "H" 
			},
			{
				"x": -1.5306500161,
				"y": 1.6564933625,
				"z": 2.5969019353,
				"element": "H" 
			},
			{
				"x": -2.3863948506,
				"y": 2.9998084103,
				"z": 3.3735173248,
				"element": "H" 
			},
			{
				"x": -3.3338705066,
				"y": 2.6336566763,
				"z": 1.0942824015,
				"element": "H" 
			},
			{
				"x": -2.5416219438,
				"y": 4.2008303885,
				"z": 1.1851323257,
				"element": "H" 
			},
			{
				"x": -1.6415654122,
				"y": 5.553770042,
				"z": -0.4723983922,
				"element": "H" 
			},
			{
				"x": -0.1147447419,
				"y": 5.4855790202,
				"z": -1.3949047676,
				"element": "H" 
			},
			{
				"x": -2.6320558009,
				"y": 0.1559586112,
				"z": 0.7162392695,
				"element": "H" 
			},
			{
				"x": -1.9618470096,
				"y": -1.817000772,
				"z": -0.6493937255,
				"element": "H" 
			},
			{
				"x": 0.5665652142,
				"y": 0.6242661275,
				"z": -3.1475922454,
				"element": "H" 
			},
			{
				"x": 2.4990400724,
				"y": -1.6337349756,
				"z": -3.2086422929,
				"element": "H" 
			},
			{
				"x": 3.218482469,
				"y": -3.091315908,
				"z": -2.5346765571,
				"element": "H" 
			},
			{
				"x": 4.0688701205,
				"y": -1.162940273,
				"z": -1.2613405599,
				"element": "H" 
			},
			{
				"x": 2.4325535627,
				"y": -0.5832550481,
				"z": -0.9514058724,
				"element": "H" 
			},
			{
				"x": 3.6589750663,
				"y": -3.1978752122,
				"z": 0.088421192,
				"element": "H" 
			},
			{
				"x": 3.262814689,
				"y": -1.7848994689,
				"z": 1.0597691351,
				"element": "H" 
			},
			{
				"x": 1.4981845207,
				"y": -3.597480661,
				"z": 1.2281980128,
				"element": "H" 
			},
			{
				"x": 0.8408554769,
				"y": -2.0899042579,
				"z": 0.5885063876,
				"element": "H" 
			},
			{
				"x": 1.6687360412,
				"y": -4.5602970674,
				"z": -1.0313798912,
				"element": "H" 
			},
			{
				"x": 0.0212524715,
				"y": -3.9831076956,
				"z": -0.8093348478,
				"element": "H" 
			}
		],
		 "valence_orbital": [ 
			{
				"type": "occ",
				"energy": -0.29128,
				"method": "rhf"
			},
			{
				"type": "occ",
				"energy": -0.2889,
				"method": "rhf"
			},
			{
				"type": "occ",
				"energy": -0.2594,
				"method": "rhf"
			},
			{
				"type": "occ",
				"energy": -0.24446,
				"method": "rhf"
			},
			{
				"type": "occ",
				"energy": -0.23158,
				"method": "rhf"
			},
			{
				"type": "unocc",
				"energy": -0.05254,
				"method": "rhf"
			},
			{
				"type": "unocc",
				"energy": -0.01971,
				"method": "rhf"
			},
			{
				"type": "unocc",
				"energy": 0.00254,
				"method": "rhf"
			},
			{
				"type": "unocc",
				"energy": 0.04774,
				"method": "rhf"
			},
			{
				"type": "unocc",
				"energy": 0.05842,
				"method": "rhf"
			}
		],
		"cosmo_sigma_profile": { 
			"-0.025": 0.0,
			"-0.024": 0.0,
			"-0.023": 0.0,
			"-0.022": 0.0,
			"-0.021": 0.0,
			"-0.02": 0.0,
			"-0.019": 0.0,
			"-0.018": 0.0,
			"-0.017": 0.0,
			"-0.016": 0.0,
			"-0.015": 0.0,
			"-0.014": 0.0,
			"-0.013": 0.0,
			"-0.012": 0.0,
			"-0.011": 0.0917234603311,
			"-0.01": 2.18070423871,
			"-0.009": 3.25937187394,
			"-0.008": 5.727354546,
			"-0.007": 9.69550660942,
			"-0.006": 13.2921174401,
			"-0.005": 17.6452370347,
			"-0.004": 31.6644341761,
			"-0.003": 34.7494152249,
			"-0.002": 35.2674073221,
			"-0.001": 41.3249512258,
			"0.0": 35.4761659401,
			"0.001": 21.6306659015,
			"0.002": 19.5330114605,
			"0.003": 14.7801123551,
			"0.004": 9.57713639761,
			"0.005": 11.1301737143,
			"0.006": 11.9640448476,
			"0.007": 4.46022635513,
			"0.008": 5.56349582401,
			"0.009": 4.13897884083,
			"0.01": 6.6755476177,
			"0.011": 8.35206641564,
			"0.012": 7.09437804068,
			"0.013": 0.835073411247,
			"0.014": 1.22818800018,
			"0.015": 0.866689032149,
			"0.016": 0.52643369682,
			"0.017": 0.0,
			"0.018": 0.0,
			"0.019": 0.0,
			"0.02": 0.0,
			"0.021": 0.0,
			"0.022": 0.0,
			"0.023": 0.0,
			"0.024": 0.0,
			"0.025": 0.0
		}
	}
}
