{
	 "smiles": "COC1=NC(C)=NC(NC(=O)NS(=O)(=O)C2=CC=CC=C2OCCCl)=N1", 
	 "Tm": 462.15, 
	 "num_atms": 42, 
	 "gaussian": { 
		 "optdone": 1, 
		 "sigma_profile": "yes", 
		 "theory": "DFT", 
		 "functional": "B3LYP", 
		 "basiset": "6-31G**", 
		 "properties": { 
			 "R2extent": 12615.9147, 
			 "electric_dipole_moment_norm": 3.2097952645, 
			 "electric_quadrupole_moment_norm": 23.5099290203, 
			 "total_energy": -2051.3534619, 
			 "HOMO_LUMO_gap": 0.20755, 
			 "cosmo_polarized_energy": -21.93, 
			 "cosmo_cavitation_energy": 49.7, 
			 "cosmo_dispersion_energy": -33.63, 
			 "cosmo_repulsion_energy": 2.5, 
			 "cosmo_total_nonelectrostatic_energy": 18.56, 
			 "SMD_solvation_energy": 5.94 
		},
		"coords": [
			{
				"x": 0.6111310678,
				"y": 4.2364672364,
				"z": 0.0901612139,
				"element": "C" 
			},
			{
				"x": 0.6140894718,
				"y": 4.1182469659,
				"z": 1.5235077775,
				"element": "O" 
			},
			{
				"x": 0.1661877581,
				"y": 2.9973821305,
				"z": 2.0723955695,
				"element": "C" 
			},
			{
				"x": 0.2235808851,
				"y": 2.9684805999,
				"z": 3.4095515552,
				"element": "N" 
			},
			{
				"x": -0.238050772,
				"y": 1.8445295278,
				"z": 3.9640433224,
				"element": "C" 
			},
			{
				"x": -0.200233192,
				"y": 1.7342371485,
				"z": 5.4600810671,
				"element": "C" 
			},
			{
				"x": -0.7438930259,
				"y": 0.7976077663,
				"z": 3.2889928083,
				"element": "N" 
			},
			{
				"x": -0.7505608122,
				"y": 0.9445306802,
				"z": 1.9613148765,
				"element": "C" 
			},
			{
				"x": -1.281990894,
				"y": -0.1182394044,
				"z": 1.2597938236,
				"element": "N" 
			},
			{
				"x": -1.5594736726,
				"y": -0.3080176132,
				"z": -0.104671832,
				"element": "C" 
			},
			{
				"x": -2.1962597647,
				"y": -1.2794617645,
				"z": -0.465213701,
				"element": "O" 
			},
			{
				"x": -1.015316928,
				"y": 0.6457392402,
				"z": -0.9475151171,
				"element": "N" 
			},
			{
				"x": -1.580933192,
				"y": 0.9175175468,
				"z": -2.5450352466,
				"element": "S" 
			},
			{
				"x": -3.0393460416,
				"y": 0.9149171526,
				"z": -2.5524386262,
				"element": "O" 
			},
			{
				"x": -0.8300637477,
				"y": 2.1155231846,
				"z": -2.9251291466,
				"element": "O" 
			},
			{
				"x": -1.0354491216,
				"y": -0.5243854528,
				"z": -3.4682745273,
				"element": "C" 
			},
			{
				"x": -1.9455688166,
				"y": -1.5872799221,
				"z": -3.5352466335,
				"element": "C" 
			},
			{
				"x": -1.6431349482,
				"y": -2.7243669647,
				"z": -4.2784470534,
				"element": "C" 
			},
			{
				"x": -0.4336052189,
				"y": -2.7975754821,
				"z": -4.9710785379,
				"element": "C" 
			},
			{
				"x": 0.4720169096,
				"y": -1.7413959748,
				"z": -4.9116430414,
				"element": "C" 
			},
			{
				"x": 0.1916811357,
				"y": -0.5947108913,
				"z": -4.1615264354,
				"element": "C" 
			},
			{
				"x": 1.0981902719,
				"y": 0.4290638609,
				"z": -4.2169782249,
				"element": "O" 
			},
			{
				"x": 1.938484414,
				"y": 0.6319740877,
				"z": -3.0742852707,
				"element": "C" 
			},
			{
				"x": 2.4961089521,
				"y": 2.0368000641,
				"z": -3.2303696712,
				"element": "C" 
			},
			{
				"x": 3.6233950831,
				"y": 2.407431018,
				"z": -1.8600188291,
				"element": "Cl" 
			},
			{
				"x": -0.2965600615,
				"y": 2.0149860453,
				"z": 1.2880692613,
				"element": "N" 
			},
			{
				"x": -0.394251065,
				"y": 4.1000147398,
				"z": -0.3155920311,
				"element": "H" 
			},
			{
				"x": 1.2952625541,
				"y": 3.5110776574,
				"z": -0.3570376161,
				"element": "H" 
			},
			{
				"x": 0.9622504845,
				"y": 5.2484468494,
				"z": -0.1086188396,
				"element": "H" 
			},
			{
				"x": -1.2172461427,
				"y": 1.619634277,
				"z": 5.8491476949,
				"element": "H" 
			},
			{
				"x": 0.2617766995,
				"y": 2.6201881294,
				"z": 5.8949103813,
				"element": "H" 
			},
			{
				"x": 0.3562571727,
				"y": 0.8389710237,
				"z": 5.7541326521,
				"element": "H" 
			},
			{
				"x": -1.6397598167,
				"y": -0.8649843578,
				"z": 1.8425255295,
				"element": "H" 
			},
			{
				"x": -0.6076145595,
				"y": 1.4762544123,
				"z": -0.4983100315,
				"element": "H" 
			},
			{
				"x": -2.8805477862,
				"y": -1.5082785365,
				"z": -2.9958020857,
				"element": "H" 
			},
			{
				"x": -2.3538802502,
				"y": -3.5429900256,
				"z": -4.3210865584,
				"element": "H" 
			},
			{
				"x": -0.1936926706,
				"y": -3.6770839812,
				"z": -5.5612782808,
				"element": "H" 
			},
			{
				"x": 1.4111098114,
				"y": -1.769857368,
				"z": -5.4543932671,
				"element": "H" 
			},
			{
				"x": 2.7429869718,
				"y": -0.1147445132,
				"z": -3.0610753618,
				"element": "H" 
			},
			{
				"x": 1.3693194705,
				"y": 0.5486114898,
				"z": -2.1437508463,
				"element": "H" 
			},
			{
				"x": 1.6876956881,
				"y": 2.7661858824,
				"z": -3.2093572323,
				"element": "H" 
			},
			{
				"x": 3.0655076986,
				"y": 2.1367535351,
				"z": -4.1546534882,
				"element": "H" 
			}
		],
		 "valence_orbital": [ 
			{
				"type": "occ",
				"energy": -0.28923,
				"method": "rhf"
			},
			{
				"type": "occ",
				"energy": -0.28327,
				"method": "rhf"
			},
			{
				"type": "occ",
				"energy": -0.27789,
				"method": "rhf"
			},
			{
				"type": "occ",
				"energy": -0.2721,
				"method": "rhf"
			},
			{
				"type": "occ",
				"energy": -0.25981,
				"method": "rhf"
			},
			{
				"type": "unocc",
				"energy": -0.05226,
				"method": "rhf"
			},
			{
				"type": "unocc",
				"energy": -0.04675,
				"method": "rhf"
			},
			{
				"type": "unocc",
				"energy": -0.0386,
				"method": "rhf"
			},
			{
				"type": "unocc",
				"energy": -0.01934,
				"method": "rhf"
			},
			{
				"type": "unocc",
				"energy": 0.01323,
				"method": "rhf"
			}
		],
		"cosmo_sigma_profile": { 
			"-0.025": 0.0,
			"-0.024": 0.0,
			"-0.023": 0.0,
			"-0.022": 0.0,
			"-0.021": 0.0,
			"-0.02": 0.0,
			"-0.019": 0.0,
			"-0.018": 0.0,
			"-0.017": 0.0,
			"-0.016": 0.305807767795,
			"-0.015": 0.773076407886,
			"-0.014": 0.547828970859,
			"-0.013": 0.882891309244,
			"-0.012": 0.592328959396,
			"-0.011": 0.802846937103,
			"-0.01": 0.566427319719,
			"-0.009": 0.846986558563,
			"-0.008": 2.21346490371,
			"-0.007": 12.6385566101,
			"-0.006": 25.4784636238,
			"-0.005": 32.900689369,
			"-0.004": 40.5951288088,
			"-0.003": 37.3412645979,
			"-0.002": 30.7514843558,
			"-0.001": 28.4361152476,
			"0.0": 24.0153566367,
			"0.001": 22.1633299574,
			"0.002": 22.2692833375,
			"0.003": 17.5500473871,
			"0.004": 14.1495328972,
			"0.005": 14.492578519,
			"0.006": 12.7983733353,
			"0.007": 8.68507879668,
			"0.008": 10.099205152,
			"0.009": 12.2526394599,
			"0.01": 12.4454141236,
			"0.011": 7.19223181563,
			"0.012": 3.26617456129,
			"0.013": 1.34397479707,
			"0.014": 0.948653494557,
			"0.015": 0.191244755794,
			"0.016": 0.0,
			"0.017": 0.0,
			"0.018": 0.0,
			"0.019": 0.0,
			"0.02": 0.0,
			"0.021": 0.0,
			"0.022": 0.0,
			"0.023": 0.0,
			"0.024": 0.0,
			"0.025": 0.0
		}
	}
}
