{
	 "smiles": "CCOC(=O)C1=NC2=C(C=CC=C2)C(Cl)=N1", 
	 "Tm": 373.15, 
	 "num_atms": 25, 
	 "gaussian": { 
		 "optdone": 1, 
		 "sigma_profile": "yes", 
		 "theory": "DFT", 
		 "functional": "B3LYP", 
		 "basiset": "6-31G**", 
		 "properties": { 
			 "R2extent": 5264.418, 
			 "electric_dipole_moment_norm": 4.55142117256, 
			 "electric_quadrupole_moment_norm": 20.3970811821, 
			 "total_energy": -1144.7514031, 
			 "HOMO_LUMO_gap": 0.17278, 
			 "cosmo_polarized_energy": -13.72, 
			 "cosmo_cavitation_energy": 32.01, 
			 "cosmo_dispersion_energy": -23.63, 
			 "cosmo_repulsion_energy": 1.86, 
			 "cosmo_total_nonelectrostatic_energy": 10.24, 
			 "SMD_solvation_energy": 3.77 
		},
		"coords": [
			{
				"x": 1.9918792903,
				"y": 4.2423596119,
				"z": -2.3007895752,
				"element": "C" 
			},
			{
				"x": 1.0117467569,
				"y": 4.186613482,
				"z": -1.138487029,
				"element": "C" 
			},
			{
				"x": 0.6738118837,
				"y": 2.8197087506,
				"z": -0.7999014922,
				"element": "O" 
			},
			{
				"x": -0.3168255818,
				"y": 2.2632051038,
				"z": -1.5150727763,
				"element": "C" 
			},
			{
				"x": -0.9356494286,
				"y": 2.8153021756,
				"z": -2.3974394761,
				"element": "O" 
			},
			{
				"x": -0.5849638786,
				"y": 0.8345707949,
				"z": -1.0808798924,
				"element": "C" 
			},
			{
				"x": 0.1623323352,
				"y": 0.3004965624,
				"z": -0.1431044023,
				"element": "N" 
			},
			{
				"x": -0.1168424677,
				"y": -0.9869708553,
				"z": 0.2074142036,
				"element": "C" 
			},
			{
				"x": -1.1735282575,
				"y": -1.7260385947,
				"z": -0.4123613342,
				"element": "C" 
			},
			{
				"x": -1.4258042912,
				"y": -3.0598931519,
				"z": -0.0144309251,
				"element": "C" 
			},
			{
				"x": -0.6507299621,
				"y": -3.637872864,
				"z": 0.9683386436,
				"element": "C" 
			},
			{
				"x": 0.3965990601,
				"y": -2.9103595983,
				"z": 1.5848700746,
				"element": "C" 
			},
			{
				"x": 0.6620818724,
				"y": -1.6105109651,
				"z": 1.2150736101,
				"element": "C" 
			},
			{
				"x": -1.8841438197,
				"y": -0.9939787891,
				"z": -1.4093288423,
				"element": "C" 
			},
			{
				"x": -3.2151750007,
				"y": -1.7717229219,
				"z": -2.2610515964,
				"element": "Cl" 
			},
			{
				"x": -1.6146413466,
				"y": 0.2310263686,
				"z": -1.7417176474,
				"element": "N" 
			},
			{
				"x": 2.8901930927,
				"y": 3.6584328111,
				"z": -2.0803379217,
				"element": "H" 
			},
			{
				"x": 2.2912759423,
				"y": 5.2799634871,
				"z": -2.4825570172,
				"element": "H" 
			},
			{
				"x": 1.5305051206,
				"y": 3.8546449471,
				"z": -3.2121880692,
				"element": "H" 
			},
			{
				"x": 0.0929600856,
				"y": 4.7306687292,
				"z": -1.3708521388,
				"element": "H" 
			},
			{
				"x": 1.4520861214,
				"y": 4.5877997802,
				"z": -0.2228333661,
				"element": "H" 
			},
			{
				"x": -2.2281968025,
				"y": -3.6131045024,
				"z": -0.4887208564,
				"element": "H" 
			},
			{
				"x": -0.8433175904,
				"y": -4.6614253464,
				"z": 1.274694361,
				"element": "H" 
			},
			{
				"x": 0.9936996901,
				"y": -3.3866933155,
				"z": 2.3567783857,
				"element": "H" 
			},
			{
				"x": 1.457247176,
				"y": -1.0302216996,
				"z": 1.6702850796,
				"element": "H" 
			}
		],
		 "valence_orbital": [ 
			{
				"type": "occ",
				"energy": -0.29733,
				"method": "rhf"
			},
			{
				"type": "occ",
				"energy": -0.2864,
				"method": "rhf"
			},
			{
				"type": "occ",
				"energy": -0.28193,
				"method": "rhf"
			},
			{
				"type": "occ",
				"energy": -0.26055,
				"method": "rhf"
			},
			{
				"type": "occ",
				"energy": -0.25899,
				"method": "rhf"
			},
			{
				"type": "unocc",
				"energy": -0.08621,
				"method": "rhf"
			},
			{
				"type": "unocc",
				"energy": -0.06216,
				"method": "rhf"
			},
			{
				"type": "unocc",
				"energy": -0.00505,
				"method": "rhf"
			},
			{
				"type": "unocc",
				"energy": 0.02336,
				"method": "rhf"
			},
			{
				"type": "unocc",
				"energy": 0.02381,
				"method": "rhf"
			}
		],
		"cosmo_sigma_profile": { 
			"-0.025": 0.0,
			"-0.024": 0.0,
			"-0.023": 0.0,
			"-0.022": 0.0,
			"-0.021": 0.0,
			"-0.02": 0.0,
			"-0.019": 0.0,
			"-0.018": 0.0,
			"-0.017": 0.0,
			"-0.016": 0.0,
			"-0.015": 0.0,
			"-0.014": 0.0,
			"-0.013": 0.0,
			"-0.012": 0.0,
			"-0.011": 0.0,
			"-0.01": 0.0,
			"-0.009": 0.0,
			"-0.008": 2.03155877947,
			"-0.007": 9.22327531951,
			"-0.006": 11.7810590707,
			"-0.005": 16.6730520452,
			"-0.004": 23.6971808719,
			"-0.003": 26.2713226842,
			"-0.002": 25.2077683774,
			"-0.001": 23.6619715876,
			"0.0": 26.0149269925,
			"0.001": 21.3298154805,
			"0.002": 16.8519684039,
			"0.003": 11.1244475057,
			"0.004": 6.8497696119,
			"0.005": 4.79902306847,
			"0.006": 4.29880138118,
			"0.007": 3.53418828817,
			"0.008": 2.83933917823,
			"0.009": 2.95203434614,
			"0.01": 3.81675068979,
			"0.011": 5.28444482699,
			"0.012": 3.84185026592,
			"0.013": 2.49367503601,
			"0.014": 1.76655099409,
			"0.015": 2.35764492298,
			"0.016": 0.630573403501,
			"0.017": 0.0,
			"0.018": 0.0,
			"0.019": 0.0,
			"0.02": 0.0,
			"0.021": 0.0,
			"0.022": 0.0,
			"0.023": 0.0,
			"0.024": 0.0,
			"0.025": 0.0
		}
	}
}
