{
	 "smiles": "CC(=O)CCC1=CC=C(CCC(C)=O)C(=C1)[N+]([O-])=O", 
	 "Tm": 331.15, 
	 "num_atms": 36, 
	 "gaussian": { 
		 "optdone": 1, 
		 "sigma_profile": "yes", 
		 "theory": "DFT", 
		 "functional": "B3LYP", 
		 "basiset": "6-31G**", 
		 "properties": { 
			 "R2extent": 6200.6067, 
			 "electric_dipole_moment_norm": 5.64519781939, 
			 "electric_quadrupole_moment_norm": 24.2246199275, 
			 "total_energy": -899.293418478, 
			 "HOMO_LUMO_gap": 0.15385, 
			 "cosmo_polarized_energy": -18.86, 
			 "cosmo_cavitation_energy": 39.57, 
			 "cosmo_dispersion_energy": -26.36, 
			 "cosmo_repulsion_energy": 2.07, 
			 "cosmo_total_nonelectrostatic_energy": 15.27, 
			 "SMD_solvation_energy": 9.23 
		},
		"coords": [
			{
				"x": 1.6888532109,
				"y": -2.4277123815,
				"z": -4.2537500316,
				"element": "C" 
			},
			{
				"x": 0.4684085026,
				"y": -2.8681029583,
				"z": -3.4695573726,
				"element": "C" 
			},
			{
				"x": -0.6615108992,
				"y": -2.6341031783,
				"z": -3.8572374533,
				"element": "O" 
			},
			{
				"x": 0.7317775609,
				"y": -3.6367412558,
				"z": -2.1756655044,
				"element": "C" 
			},
			{
				"x": -0.4912213206,
				"y": -3.7331171196,
				"z": -1.2450111341,
				"element": "C" 
			},
			{
				"x": -0.7582784263,
				"y": -2.455957775,
				"z": -0.4757116794,
				"element": "C" 
			},
			{
				"x": -0.2053246103,
				"y": -2.2523360948,
				"z": 0.7964540667,
				"element": "C" 
			},
			{
				"x": -0.41630952,
				"y": -1.0658154491,
				"z": 1.4903615789,
				"element": "C" 
			},
			{
				"x": -1.167067534,
				"y": -0.006816005,
				"z": 0.9592293876,
				"element": "C" 
			},
			{
				"x": -1.322103646,
				"y": 1.2456579622,
				"z": 1.7984913451,
				"element": "C" 
			},
			{
				"x": -0.0956961274,
				"y": 2.1984111515,
				"z": 1.7260426908,
				"element": "C" 
			},
			{
				"x": 0.2324658878,
				"y": 2.6905351448,
				"z": 0.3144573716,
				"element": "C" 
			},
			{
				"x": -0.2239076192,
				"y": 4.0853499974,
				"z": -0.0604735723,
				"element": "C" 
			},
			{
				"x": 0.8647212336,
				"y": 1.984491205,
				"z": -0.4493212305,
				"element": "O" 
			},
			{
				"x": -1.7271523749,
				"y": -0.2388847094,
				"z": -0.3100732524,
				"element": "C" 
			},
			{
				"x": -1.5412961733,
				"y": -1.4334976997,
				"z": -1.0113462415,
				"element": "C" 
			},
			{
				"x": -2.5705821692,
				"y": 0.7641104931,
				"z": -0.983433196,
				"element": "N" 
			},
			{
				"x": -3.3721460961,
				"y": 0.3635719644,
				"z": -1.8241154346,
				"element": "O" 
			},
			{
				"x": -2.4329640088,
				"y": 1.9538971345,
				"z": -0.680326834,
				"element": "O" 
			},
			{
				"x": 1.3928087047,
				"y": -2.1031055197,
				"z": -5.2521743012,
				"element": "H" 
			},
			{
				"x": 2.4336383094,
				"y": -3.2282471146,
				"z": -4.3199237198,
				"element": "H" 
			},
			{
				"x": 2.165097885,
				"y": -1.5879544091,
				"z": -3.73249192,
				"element": "H" 
			},
			{
				"x": 1.5937866392,
				"y": -3.1971394512,
				"z": -1.6585083152,
				"element": "H" 
			},
			{
				"x": 1.0514437305,
				"y": -4.645095139,
				"z": -2.4789815518,
				"element": "H" 
			},
			{
				"x": -1.3629449878,
				"y": -3.9934453113,
				"z": -1.8520003661,
				"element": "H" 
			},
			{
				"x": -0.3280908223,
				"y": -4.5510429691,
				"z": -0.5351212546,
				"element": "H" 
			},
			{
				"x": 0.392007901,
				"y": -3.0375565876,
				"z": 1.2537855209,
				"element": "H" 
			},
			{
				"x": 0.0131055556,
				"y": -0.9463003516,
				"z": 2.4817221951,
				"element": "H" 
			},
			{
				"x": -1.4228865973,
				"y": 0.9339803596,
				"z": 2.8444754803,
				"element": "H" 
			},
			{
				"x": -2.2257260956,
				"y": 1.7910201772,
				"z": 1.531465457,
				"element": "H" 
			},
			{
				"x": -0.2810852542,
				"y": 3.044047584,
				"z": 2.3978324701,
				"element": "H" 
			},
			{
				"x": 0.7881094695,
				"y": 1.6623081056,
				"z": 2.0874910698,
				"element": "H" 
			},
			{
				"x": 0.314661342,
				"y": 4.8238859257,
				"z": 0.5470478364,
				"element": "H" 
			},
			{
				"x": -0.0253274371,
				"y": 4.2703026081,
				"z": -1.1168119341,
				"element": "H" 
			},
			{
				"x": -1.2918036784,
				"y": 4.209116257,
				"z": 0.1433570723,
				"element": "H" 
			},
			{
				"x": -1.9994605349,
				"y": -1.5462145907,
				"z": -1.9856772431,
				"element": "H" 
			}
		],
		 "valence_orbital": [ 
			{
				"type": "occ",
				"energy": -0.28814,
				"method": "rhf"
			},
			{
				"type": "occ",
				"energy": -0.26636,
				"method": "rhf"
			},
			{
				"type": "occ",
				"energy": -0.25918,
				"method": "rhf"
			},
			{
				"type": "occ",
				"energy": -0.25001,
				"method": "rhf"
			},
			{
				"type": "occ",
				"energy": -0.23356,
				"method": "rhf"
			},
			{
				"type": "unocc",
				"energy": -0.07971,
				"method": "rhf"
			},
			{
				"type": "unocc",
				"energy": -0.02145,
				"method": "rhf"
			},
			{
				"type": "unocc",
				"energy": -0.01813,
				"method": "rhf"
			},
			{
				"type": "unocc",
				"energy": -0.00533,
				"method": "rhf"
			},
			{
				"type": "unocc",
				"energy": 0.00329,
				"method": "rhf"
			}
		],
		"cosmo_sigma_profile": { 
			"-0.025": 0.0,
			"-0.024": 0.0,
			"-0.023": 0.0,
			"-0.022": 0.0,
			"-0.021": 0.0,
			"-0.02": 0.0,
			"-0.019": 0.0,
			"-0.018": 0.0,
			"-0.017": 0.0,
			"-0.016": 0.0,
			"-0.015": 0.0,
			"-0.014": 0.0,
			"-0.013": 0.0,
			"-0.012": 0.0,
			"-0.011": 0.0,
			"-0.01": 0.0,
			"-0.009": 0.0,
			"-0.008": 0.0140169957263,
			"-0.007": 4.65713760847,
			"-0.006": 21.5730381183,
			"-0.005": 30.7240162533,
			"-0.004": 34.7170465708,
			"-0.003": 34.1942486225,
			"-0.002": 31.0781304409,
			"-0.001": 27.1959091933,
			"0.0": 17.561162578,
			"0.001": 13.6205694891,
			"0.002": 15.2331077848,
			"0.003": 11.9521552128,
			"0.004": 6.89749251649,
			"0.005": 7.62994359241,
			"0.006": 6.48357670346,
			"0.007": 8.58407146733,
			"0.008": 9.39150729758,
			"0.009": 7.38047091588,
			"0.01": 6.11867726858,
			"0.011": 5.99756079081,
			"0.012": 5.52802785204,
			"0.013": 4.43596049011,
			"0.014": 0.605204654451,
			"0.015": 0.0,
			"0.016": 0.0,
			"0.017": 0.0,
			"0.018": 0.0,
			"0.019": 0.0,
			"0.02": 0.0,
			"0.021": 0.0,
			"0.022": 0.0,
			"0.023": 0.0,
			"0.024": 0.0,
			"0.025": 0.0
		}
	}
}
