{
	 "smiles": "CC(CO)NC(=O)C1=CC=C(N)C=C1", 
	 "Tm": 448.15, 
	 "num_atms": 28, 
	 "gaussian": { 
		 "optdone": 1, 
		 "sigma_profile": "yes", 
		 "theory": "DFT", 
		 "functional": "B3LYP", 
		 "basiset": "6-31G**", 
		 "properties": { 
			 "R2extent": 3936.2659, 
			 "electric_dipole_moment_norm": 4.17546675954, 
			 "electric_quadrupole_moment_norm": 19.9646409402, 
			 "total_energy": -649.470063073, 
			 "HOMO_LUMO_gap": 0.18649, 
			 "cosmo_polarized_energy": -18.68, 
			 "cosmo_cavitation_energy": 30.84, 
			 "cosmo_dispersion_energy": -22.05, 
			 "cosmo_repulsion_energy": 1.76, 
			 "cosmo_total_nonelectrostatic_energy": 10.54, 
			 "SMD_solvation_energy": 5.92 
		},
		"coords": [
			{
				"x": -0.1360261704,
				"y": -0.4776701366,
				"z": -4.5995010968,
				"element": "C" 
			},
			{
				"x": -0.6608878462,
				"y": -0.6223521426,
				"z": -3.1671629634,
				"element": "C" 
			},
			{
				"x": -1.7556830149,
				"y": -1.6975594783,
				"z": -3.0652419948,
				"element": "C" 
			},
			{
				"x": -2.3049659604,
				"y": -1.7755107411,
				"z": -1.762791043,
				"element": "O" 
			},
			{
				"x": -1.2034585181,
				"y": 0.6481070008,
				"z": -2.6539190337,
				"element": "N" 
			},
			{
				"x": -0.5297158959,
				"y": 1.5791065753,
				"z": -1.8599893715,
				"element": "C" 
			},
			{
				"x": -0.7358031756,
				"y": 2.7767704668,
				"z": -2.0364747376,
				"element": "O" 
			},
			{
				"x": 0.3788134484,
				"y": 1.0988985595,
				"z": -0.7777641935,
				"element": "C" 
			},
			{
				"x": 1.3820271844,
				"y": 1.9839892499,
				"z": -0.3480210336,
				"element": "C" 
			},
			{
				"x": 2.2435274917,
				"y": 1.6504032519,
				"z": 0.6851783393,
				"element": "C" 
			},
			{
				"x": 2.113897807,
				"y": 0.4163422072,
				"z": 1.3528134976,
				"element": "C" 
			},
			{
				"x": 2.9358369317,
				"y": 0.1006142201,
				"z": 2.4248110521,
				"element": "N" 
			},
			{
				"x": 1.0917106191,
				"y": -0.4608640754,
				"z": 0.9456809579,
				"element": "C" 
			},
			{
				"x": 0.2416093567,
				"y": -0.1260673899,
				"z": -0.1018776491,
				"element": "C" 
			},
			{
				"x": -0.9329774936,
				"y": -0.1572750254,
				"z": -5.2812470553,
				"element": "H" 
			},
			{
				"x": 0.2543724421,
				"y": -1.4320947693,
				"z": -4.9690853213,
				"element": "H" 
			},
			{
				"x": 0.6681970309,
				"y": 0.2618063875,
				"z": -4.6471100542,
				"element": "H" 
			},
			{
				"x": 0.1635505283,
				"y": -0.9087948782,
				"z": -2.51177067,
				"element": "H" 
			},
			{
				"x": -2.5386896306,
				"y": -1.4902733499,
				"z": -3.8159457983,
				"element": "H" 
			},
			{
				"x": -1.335411368,
				"y": -2.6818960918,
				"z": -3.2955129283,
				"element": "H" 
			},
			{
				"x": -2.547486281,
				"y": -0.8644608717,
				"z": -1.5331240868,
				"element": "H" 
			},
			{
				"x": -1.7627254714,
				"y": 1.1562500425,
				"z": -3.3340532184,
				"element": "H" 
			},
			{
				"x": 1.466325696,
				"y": 2.944921299,
				"z": -0.8445650272,
				"element": "H" 
			},
			{
				"x": 3.0181764257,
				"y": 2.3475694211,
				"z": 0.9951510575,
				"element": "H" 
			},
			{
				"x": 3.8149171378,
				"y": 0.5943335462,
				"z": 2.4771584612,
				"element": "H" 
			},
			{
				"x": 3.0154319371,
				"y": -0.8786222052,
				"z": 2.6572566705,
				"element": "H" 
			},
			{
				"x": 0.9586340348,
				"y": -1.4057076617,
				"z": 1.4667762661,
				"element": "H" 
			},
			{
				"x": -0.5451972459,
				"y": -0.8214634108,
				"z": -0.3768690255,
				"element": "H" 
			}
		],
		 "valence_orbital": [ 
			{
				"type": "occ",
				"energy": -0.27358,
				"method": "rhf"
			},
			{
				"type": "occ",
				"energy": -0.25952,
				"method": "rhf"
			},
			{
				"type": "occ",
				"energy": -0.25178,
				"method": "rhf"
			},
			{
				"type": "occ",
				"energy": -0.23817,
				"method": "rhf"
			},
			{
				"type": "occ",
				"energy": -0.20793,
				"method": "rhf"
			},
			{
				"type": "unocc",
				"energy": -0.02144,
				"method": "rhf"
			},
			{
				"type": "unocc",
				"energy": -0.00133,
				"method": "rhf"
			},
			{
				"type": "unocc",
				"energy": 0.06108,
				"method": "rhf"
			},
			{
				"type": "unocc",
				"energy": 0.07775,
				"method": "rhf"
			},
			{
				"type": "unocc",
				"energy": 0.08106,
				"method": "rhf"
			}
		],
		"cosmo_sigma_profile": { 
			"-0.025": 0.0,
			"-0.024": 0.0,
			"-0.023": 0.0,
			"-0.022": 0.0,
			"-0.021": 0.0,
			"-0.02": 0.0,
			"-0.019": 0.0,
			"-0.018": 0.0,
			"-0.017": 0.0,
			"-0.016": 0.0,
			"-0.015": 0.0,
			"-0.014": 0.00446893422113,
			"-0.013": 1.62174439516,
			"-0.012": 3.52633542597,
			"-0.011": 4.64715869296,
			"-0.01": 5.39945620094,
			"-0.009": 5.09311206243,
			"-0.008": 4.52840454972,
			"-0.007": 5.99850481552,
			"-0.006": 7.69560077351,
			"-0.005": 12.8945784858,
			"-0.004": 20.7194003877,
			"-0.003": 20.0348945765,
			"-0.002": 19.5148122878,
			"-0.001": 18.2201193855,
			"0.0": 16.4165240414,
			"0.001": 10.7930226187,
			"0.002": 9.24538854017,
			"0.003": 9.04965662369,
			"0.004": 10.052464576,
			"0.005": 15.4603017042,
			"0.006": 7.36094975774,
			"0.007": 3.6117501451,
			"0.008": 2.73029979473,
			"0.009": 3.75782100212,
			"0.01": 3.28959375342,
			"0.011": 3.10419369148,
			"0.012": 4.18866002342,
			"0.013": 5.2534896589,
			"0.014": 7.12893625948,
			"0.015": 1.00560207461,
			"0.016": 0.0,
			"0.017": 0.0,
			"0.018": 0.0,
			"0.019": 0.0,
			"0.02": 0.0,
			"0.021": 0.0,
			"0.022": 0.0,
			"0.023": 0.0,
			"0.024": 0.0,
			"0.025": 0.0
		}
	}
}
