{
	 "smiles": "OC(=O)C1=C(C=CC=C1)S(=O)(=O)C(F)(F)F", 
	 "Tm": 381.15, 
	 "num_atms": 21, 
	 "gaussian": { 
		 "optdone": 1, 
		 "sigma_profile": "yes", 
		 "theory": "DFT", 
		 "functional": "B3LYP", 
		 "basiset": "6-31G**", 
		 "properties": { 
			 "R2extent": 4331.468, 
			 "electric_dipole_moment_norm": 5.89236061863, 
			 "electric_quadrupole_moment_norm": 17.3406111798, 
			 "total_energy": -1306.38697168, 
			 "HOMO_LUMO_gap": 0.207, 
			 "cosmo_polarized_energy": -15.73, 
			 "cosmo_cavitation_energy": 28.24, 
			 "cosmo_dispersion_energy": -20.74, 
			 "cosmo_repulsion_energy": 1.51, 
			 "cosmo_total_nonelectrostatic_energy": 9.0, 
			 "SMD_solvation_energy": 6.33 
		},
		"coords": [
			{
				"x": 0.252879537,
				"y": -2.4543466105,
				"z": 2.2402093591,
				"element": "O" 
			},
			{
				"x": 0.7886121218,
				"y": -1.3227907313,
				"z": 1.7313119898,
				"element": "C" 
			},
			{
				"x": 1.5685138375,
				"y": -0.6318821555,
				"z": 2.3494504128,
				"element": "O" 
			},
			{
				"x": 0.2735307068,
				"y": -1.0106014848,
				"z": 0.3655147782,
				"element": "C" 
			},
			{
				"x": 0.9835446007,
				"y": -0.1956426218,
				"z": -0.5398412523,
				"element": "C" 
			},
			{
				"x": 0.4264152304,
				"y": 0.149523744,
				"z": -1.7702043982,
				"element": "C" 
			},
			{
				"x": -0.8513499148,
				"y": -0.3004395503,
				"z": -2.1110669215,
				"element": "C" 
			},
			{
				"x": -1.5594642317,
				"y": -1.1135006225,
				"z": -1.2302609395,
				"element": "C" 
			},
			{
				"x": -0.9964813633,
				"y": -1.4691872536,
				"z": -0.0042170621,
				"element": "C" 
			},
			{
				"x": 2.7281781834,
				"y": 0.2927534857,
				"z": -0.338431925,
				"element": "S" 
			},
			{
				"x": 3.4997607542,
				"y": -0.8250063389,
				"z": 0.2035209588,
				"element": "O" 
			},
			{
				"x": 3.1200812791,
				"y": 0.9445156808,
				"z": -1.5939075721,
				"element": "O" 
			},
			{
				"x": 2.7159066671,
				"y": 1.7121959522,
				"z": 0.9412123141,
				"element": "C" 
			},
			{
				"x": 1.4616196826,
				"y": 2.0007089835,
				"z": 1.2988452543,
				"element": "F" 
			},
			{
				"x": 3.4381965524,
				"y": 1.3789803791,
				"z": 1.9982845421,
				"element": "F" 
			},
			{
				"x": 3.2549528718,
				"y": 2.7834651134,
				"z": 0.3588892152,
				"element": "F" 
			},
			{
				"x": 0.6225989841,
				"y": -2.5475931743,
				"z": 3.1342487105,
				"element": "H" 
			},
			{
				"x": 1.0071069977,
				"y": 0.7517095471,
				"z": -2.4589755989,
				"element": "H" 
			},
			{
				"x": -1.2801661184,
				"y": -0.0216472401,
				"z": -3.0684749714,
				"element": "H" 
			},
			{
				"x": -2.5489593785,
				"y": -1.4747614921,
				"z": -1.4925794649,
				"element": "H" 
			},
			{
				"x": -1.5427769999,
				"y": -2.0995536097,
				"z": 0.687472571,
				"element": "H" 
			}
		],
		 "valence_orbital": [ 
			{
				"type": "occ",
				"energy": -0.31504,
				"method": "rhf"
			},
			{
				"type": "occ",
				"energy": -0.30649,
				"method": "rhf"
			},
			{
				"type": "occ",
				"energy": -0.30137,
				"method": "rhf"
			},
			{
				"type": "occ",
				"energy": -0.29101,
				"method": "rhf"
			},
			{
				"type": "occ",
				"energy": -0.28766,
				"method": "rhf"
			},
			{
				"type": "unocc",
				"energy": -0.08066,
				"method": "rhf"
			},
			{
				"type": "unocc",
				"energy": -0.04816,
				"method": "rhf"
			},
			{
				"type": "unocc",
				"energy": 0.02517,
				"method": "rhf"
			},
			{
				"type": "unocc",
				"energy": 0.02597,
				"method": "rhf"
			},
			{
				"type": "unocc",
				"energy": 0.05108,
				"method": "rhf"
			}
		],
		"cosmo_sigma_profile": { 
			"-0.025": 0.0,
			"-0.024": 0.0,
			"-0.023": 0.0,
			"-0.022": 0.0,
			"-0.021": 0.0,
			"-0.02": 0.0114469574542,
			"-0.019": 0.774160332397,
			"-0.018": 1.1421325932,
			"-0.017": 0.60089794141,
			"-0.016": 1.03362558699,
			"-0.015": 0.521338652517,
			"-0.014": 0.321401513128,
			"-0.013": 0.988227406285,
			"-0.012": 0.808007548518,
			"-0.011": 0.748632266177,
			"-0.01": 0.37279620383,
			"-0.009": 1.25467024049,
			"-0.008": 7.67926361548,
			"-0.007": 11.5593649636,
			"-0.006": 9.00703885302,
			"-0.005": 8.15461503366,
			"-0.004": 11.5359437074,
			"-0.003": 10.4615298897,
			"-0.002": 14.154772583,
			"-0.001": 18.4136156899,
			"0.0": 25.6736046272,
			"0.001": 32.8881416857,
			"0.002": 8.61855076202,
			"0.003": 6.89629609898,
			"0.004": 6.10785824423,
			"0.005": 4.81611299464,
			"0.006": 6.42128920841,
			"0.007": 6.45684707243,
			"0.008": 6.28647174353,
			"0.009": 11.0147464442,
			"0.01": 10.4865067099,
			"0.011": 2.28420606757,
			"0.012": 0.000184881952098,
			"0.013": 0.0,
			"0.014": 0.0,
			"0.015": 0.0,
			"0.016": 0.0,
			"0.017": 0.0,
			"0.018": 0.0,
			"0.019": 0.0,
			"0.02": 0.0,
			"0.021": 0.0,
			"0.022": 0.0,
			"0.023": 0.0,
			"0.024": 0.0,
			"0.025": 0.0
		}
	}
}
