{
	 "smiles": "NS(=O)(=O)C1=CC=C(NC(=O)C(O)=O)C=C1", 
	 "Tm": 533.15, 
	 "num_atms": 24, 
	 "gaussian": { 
		 "optdone": 1, 
		 "sigma_profile": "yes", 
		 "theory": "DFT", 
		 "functional": "B3LYP", 
		 "basiset": "6-31G**", 
		 "properties": { 
			 "R2extent": 7033.9988, 
			 "electric_dipole_moment_norm": 7.04297410545, 
			 "electric_quadrupole_moment_norm": 19.9880809544, 
			 "total_energy": -1193.42361644, 
			 "HOMO_LUMO_gap": 0.17727, 
			 "cosmo_polarized_energy": -29.16, 
			 "cosmo_cavitation_energy": 31.22, 
			 "cosmo_dispersion_energy": -23.24, 
			 "cosmo_repulsion_energy": 1.77, 
			 "cosmo_total_nonelectrostatic_energy": 9.75, 
			 "SMD_solvation_energy": 7.06 
		},
		"coords": [
			{
				"x": -1.3919147976,
				"y": 2.5441637384,
				"z": -2.227230362,
				"element": "N" 
			},
			{
				"x": -0.0289548084,
				"y": 1.7225598558,
				"z": -2.7656877291,
				"element": "S" 
			},
			{
				"x": 1.1077041773,
				"y": 2.4054046416,
				"z": -2.1528966391,
				"element": "O" 
			},
			{
				"x": -0.2003941516,
				"y": 1.5820948121,
				"z": -4.2101173098,
				"element": "O" 
			},
			{
				"x": -0.1036311694,
				"y": 0.0688705141,
				"z": -2.0600307748,
				"element": "C" 
			},
			{
				"x": -0.7200516943,
				"y": -0.9568103862,
				"z": -2.777851335,
				"element": "C" 
			},
			{
				"x": -0.7918120251,
				"y": -2.2295824887,
				"z": -2.2186796673,
				"element": "C" 
			},
			{
				"x": -0.2513574881,
				"y": -2.4764758527,
				"z": -0.9497198435,
				"element": "C" 
			},
			{
				"x": -0.4361517319,
				"y": -3.7799729887,
				"z": -0.4089042226,
				"element": "N" 
			},
			{
				"x": 0.3401904672,
				"y": -4.6217669836,
				"z": 0.3246814923,
				"element": "C" 
			},
			{
				"x": -0.1017138655,
				"y": -5.6891346776,
				"z": 0.7539832112,
				"element": "O" 
			},
			{
				"x": 1.8400115582,
				"y": -4.3264371418,
				"z": 0.5861747543,
				"element": "C" 
			},
			{
				"x": 2.3720876816,
				"y": -5.3119644116,
				"z": 1.3071029554,
				"element": "O" 
			},
			{
				"x": 2.4517479039,
				"y": -3.3682217062,
				"z": 0.1838382049,
				"element": "O" 
			},
			{
				"x": 0.3583421141,
				"y": -1.4393840313,
				"z": -0.2335877223,
				"element": "C" 
			},
			{
				"x": 0.4454868097,
				"y": -0.1705732169,
				"z": -0.7977487322,
				"element": "C" 
			},
			{
				"x": -2.2606995701,
				"y": 2.1557324546,
				"z": -2.5792475128,
				"element": "H" 
			},
			{
				"x": -1.3947923497,
				"y": 2.7034612859,
				"z": -1.2251062342,
				"element": "H" 
			},
			{
				"x": -1.1095808771,
				"y": -0.7640174682,
				"z": -3.7714854832,
				"element": "H" 
			},
			{
				"x": -1.2503952544,
				"y": -3.0423304629,
				"z": -2.7746399139,
				"element": "H" 
			},
			{
				"x": -1.336973233,
				"y": -4.2049599224,
				"z": -0.6022445865,
				"element": "H" 
			},
			{
				"x": 1.6432453656,
				"y": -5.9549662728,
				"z": 1.4541630256,
				"element": "H" 
			},
			{
				"x": 0.777686143,
				"y": -1.6251748474,
				"z": 0.745922355,
				"element": "H" 
			},
			{
				"x": 0.9471207956,
				"y": 0.6308855566,
				"z": -0.2661879304,
				"element": "H" 
			}
		],
		 "valence_orbital": [ 
			{
				"type": "occ",
				"energy": -0.31023,
				"method": "rhf"
			},
			{
				"type": "occ",
				"energy": -0.30976,
				"method": "rhf"
			},
			{
				"type": "occ",
				"energy": -0.29014,
				"method": "rhf"
			},
			{
				"type": "occ",
				"energy": -0.28198,
				"method": "rhf"
			},
			{
				"type": "occ",
				"energy": -0.26118,
				"method": "rhf"
			},
			{
				"type": "unocc",
				"energy": -0.08391,
				"method": "rhf"
			},
			{
				"type": "unocc",
				"energy": -0.04393,
				"method": "rhf"
			},
			{
				"type": "unocc",
				"energy": -0.03759,
				"method": "rhf"
			},
			{
				"type": "unocc",
				"energy": 0.0424,
				"method": "rhf"
			},
			{
				"type": "unocc",
				"energy": 0.05478,
				"method": "rhf"
			}
		],
		"cosmo_sigma_profile": { 
			"-0.025": 0.0,
			"-0.024": 0.0,
			"-0.023": 0.0,
			"-0.022": 0.0,
			"-0.021": 0.0,
			"-0.02": 0.0,
			"-0.019": 0.0,
			"-0.018": 0.0,
			"-0.017": 0.0843418124656,
			"-0.016": 1.39422242223,
			"-0.015": 3.72704030254,
			"-0.014": 4.0126043138,
			"-0.013": 3.91402858747,
			"-0.012": 5.50738901671,
			"-0.011": 4.56794580714,
			"-0.01": 4.57441485491,
			"-0.009": 4.98225405582,
			"-0.008": 10.2605207519,
			"-0.007": 13.5180204403,
			"-0.006": 12.688902356,
			"-0.005": 9.37213963608,
			"-0.004": 8.76878900166,
			"-0.003": 10.1377564153,
			"-0.002": 10.6581405918,
			"-0.001": 10.4697367854,
			"0.0": 10.6477131153,
			"0.001": 13.484668279,
			"0.002": 13.8591740871,
			"0.003": 6.16039889035,
			"0.004": 6.41207955153,
			"0.005": 7.90071856761,
			"0.006": 7.92471123393,
			"0.007": 8.27027063362,
			"0.008": 10.6501627042,
			"0.009": 11.3338213108,
			"0.01": 14.3861605621,
			"0.011": 15.037766136,
			"0.012": 4.93577402246,
			"0.013": 0.0612274565079,
			"0.014": 0.0,
			"0.015": 0.0,
			"0.016": 0.0,
			"0.017": 0.0,
			"0.018": 0.0,
			"0.019": 0.0,
			"0.02": 0.0,
			"0.021": 0.0,
			"0.022": 0.0,
			"0.023": 0.0,
			"0.024": 0.0,
			"0.025": 0.0
		}
	}
}
