{
	 "smiles": "OC(=O)CC1=CC=CC=C1[N+]([O-])=O", 
	 "Tm": 414.15, 
	 "num_atms": 20, 
	 "gaussian": { 
		 "optdone": 1, 
		 "sigma_profile": "yes", 
		 "theory": "DFT", 
		 "functional": "B3LYP", 
		 "basiset": "6-31G**", 
		 "properties": { 
			 "R2extent": 2474.7328, 
			 "electric_dipole_moment_norm": 4.37807118832, 
			 "electric_quadrupole_moment_norm": 17.0658616516, 
			 "total_energy": -664.62963738, 
			 "HOMO_LUMO_gap": 0.1836, 
			 "cosmo_polarized_energy": -14.51, 
			 "cosmo_cavitation_energy": 25.13, 
			 "cosmo_dispersion_energy": -18.18, 
			 "cosmo_repulsion_energy": 1.44, 
			 "cosmo_total_nonelectrostatic_energy": 8.4, 
			 "SMD_solvation_energy": 7.38 
		},
		"coords": [
			{
				"x": -1.0975062276,
				"y": -2.4099023241,
				"z": -0.2023839293,
				"element": "O" 
			},
			{
				"x": -0.2794211369,
				"y": -1.3376358999,
				"z": -0.2926794187,
				"element": "C" 
			},
			{
				"x": 0.9162389861,
				"y": -1.4283985893,
				"z": -0.4473018237,
				"element": "O" 
			},
			{
				"x": -1.0824001729,
				"y": -0.047557977,
				"z": -0.2156210804,
				"element": "C" 
			},
			{
				"x": -0.2262550326,
				"y": 1.1953582031,
				"z": -0.1727938091,
				"element": "C" 
			},
			{
				"x": -0.3134171968,
				"y": 2.1009280276,
				"z": -1.2381207905,
				"element": "C" 
			},
			{
				"x": 0.4442618865,
				"y": 3.2702480797,
				"z": -1.2855093713,
				"element": "C" 
			},
			{
				"x": 1.3350496126,
				"y": 3.5658958415,
				"z": -0.2540303412,
				"element": "C" 
			},
			{
				"x": 1.4554727098,
				"y": 2.6860973841,
				"z": 0.8158014472,
				"element": "C" 
			},
			{
				"x": 0.6805362656,
				"y": 1.5254123465,
				"z": 0.8534415236,
				"element": "C" 
			},
			{
				"x": 0.8565203066,
				"y": 0.6732215649,
				"z": 2.0450379932,
				"element": "N" 
			},
			{
				"x": 1.8247213043,
				"y": 0.8960004546,
				"z": 2.7681757951,
				"element": "O" 
			},
			{
				"x": 0.0160340517,
				"y": -0.1996145693,
				"z": 2.2715417371,
				"element": "O" 
			},
			{
				"x": -0.5252387644,
				"y": -3.1931742774,
				"z": -0.2632552446,
				"element": "H" 
			},
			{
				"x": -1.7237156189,
				"y": -0.0135590558,
				"z": -1.103840926,
				"element": "H" 
			},
			{
				"x": -1.7411545784,
				"y": -0.1202567125,
				"z": 0.6517145786,
				"element": "H" 
			},
			{
				"x": -0.9946126257,
				"y": 1.8742535751,
				"z": -2.0531765086,
				"element": "H" 
			},
			{
				"x": 0.3400965994,
				"y": 3.9447259256,
				"z": -2.1300359306,
				"element": "H" 
			},
			{
				"x": 1.9324923668,
				"y": 4.4714004654,
				"z": -0.2798189929,
				"element": "H" 
			},
			{
				"x": 2.140497265,
				"y": 2.875357537,
				"z": 1.6320550921,
				"element": "H" 
			}
		],
		 "valence_orbital": [ 
			{
				"type": "occ",
				"energy": -0.30664,
				"method": "rhf"
			},
			{
				"type": "occ",
				"energy": -0.29315,
				"method": "rhf"
			},
			{
				"type": "occ",
				"energy": -0.28246,
				"method": "rhf"
			},
			{
				"type": "occ",
				"energy": -0.27847,
				"method": "rhf"
			},
			{
				"type": "occ",
				"energy": -0.27232,
				"method": "rhf"
			},
			{
				"type": "unocc",
				"energy": -0.08872,
				"method": "rhf"
			},
			{
				"type": "unocc",
				"energy": -0.0276,
				"method": "rhf"
			},
			{
				"type": "unocc",
				"energy": -0.00633,
				"method": "rhf"
			},
			{
				"type": "unocc",
				"energy": 0.01282,
				"method": "rhf"
			},
			{
				"type": "unocc",
				"energy": 0.07316,
				"method": "rhf"
			}
		],
		"cosmo_sigma_profile": { 
			"-0.025": 0.0,
			"-0.024": 0.0,
			"-0.023": 0.0,
			"-0.022": 0.0,
			"-0.021": 0.0,
			"-0.02": 0.0,
			"-0.019": 0.177233516987,
			"-0.018": 0.604735669218,
			"-0.017": 1.18378505093,
			"-0.016": 1.18589710246,
			"-0.015": 0.184037979411,
			"-0.014": 0.532452856915,
			"-0.013": 0.857611675789,
			"-0.012": 0.645295131778,
			"-0.011": 1.187370824,
			"-0.01": 0.809502627187,
			"-0.009": 0.844326153008,
			"-0.008": 5.30558865256,
			"-0.007": 11.9129930652,
			"-0.006": 13.9264466307,
			"-0.005": 12.334255667,
			"-0.004": 10.738956778,
			"-0.003": 11.3602403313,
			"-0.002": 9.87106546844,
			"-0.001": 10.8201562025,
			"0.0": 12.386331542,
			"0.001": 13.7613051846,
			"0.002": 16.1834789951,
			"0.003": 8.84665026796,
			"0.004": 5.78581604242,
			"0.005": 6.82631504373,
			"0.006": 6.49930434782,
			"0.007": 8.20941245027,
			"0.008": 9.03354666747,
			"0.009": 7.50029712376,
			"0.01": 4.56672251438,
			"0.011": 4.26795758753,
			"0.012": 2.33724630549,
			"0.013": 0.00629150214038,
			"0.014": 0.0,
			"0.015": 0.0,
			"0.016": 0.0,
			"0.017": 0.0,
			"0.018": 0.0,
			"0.019": 0.0,
			"0.02": 0.0,
			"0.021": 0.0,
			"0.022": 0.0,
			"0.023": 0.0,
			"0.024": 0.0,
			"0.025": 0.0
		}
	}
}
