{
	 "smiles": "NNC1=NC(=NO1)C1=CN=CC=C1", 
	 "Tm": 443.15, 
	 "num_atms": 20, 
	 "gaussian": { 
		 "optdone": 1, 
		 "sigma_profile": "yes", 
		 "theory": "DFT", 
		 "functional": "B3LYP", 
		 "basiset": "6-31G**", 
		 "properties": { 
			 "R2extent": 3167.423, 
			 "electric_dipole_moment_norm": 4.03131165255, 
			 "electric_quadrupole_moment_norm": 12.3552039307, 
			 "total_energy": -619.868549605, 
			 "HOMO_LUMO_gap": 0.19225, 
			 "cosmo_polarized_energy": -14.69, 
			 "cosmo_cavitation_energy": 25.56, 
			 "cosmo_dispersion_energy": -19.17, 
			 "cosmo_repulsion_energy": 1.52, 
			 "cosmo_total_nonelectrostatic_energy": 7.91, 
			 "SMD_solvation_energy": 2.29 
		},
		"coords": [
			{
				"x": -1.7045209912,
				"y": 2.7366811458,
				"z": -1.8907594023,
				"element": "N" 
			},
			{
				"x": -2.5706885487,
				"y": 2.0286227037,
				"z": -1.0364718318,
				"element": "N" 
			},
			{
				"x": -2.1169486413,
				"y": 0.9872640954,
				"z": -0.2977879149,
				"element": "C" 
			},
			{
				"x": -0.8713182202,
				"y": 0.6423591972,
				"z": -0.0917670531,
				"element": "N" 
			},
			{
				"x": -1.0250019296,
				"y": -0.4477994714,
				"z": 0.740968305,
				"element": "C" 
			},
			{
				"x": -2.2658635601,
				"y": -0.7656548909,
				"z": 1.0328367705,
				"element": "N" 
			},
			{
				"x": -3.0207262722,
				"y": 0.2125954233,
				"z": 0.3232611211,
				"element": "O" 
			},
			{
				"x": 0.1205603486,
				"y": -1.2036161393,
				"z": 1.2641054091,
				"element": "C" 
			},
			{
				"x": -0.0580263134,
				"y": -2.3208928012,
				"z": 2.0969874456,
				"element": "C" 
			},
			{
				"x": 0.9499466985,
				"y": -3.0388329836,
				"z": 2.5966210442,
				"element": "N" 
			},
			{
				"x": 2.196080808,
				"y": -2.6608364587,
				"z": 2.2770518447,
				"element": "C" 
			},
			{
				"x": 2.4857777745,
				"y": -1.5682985592,
				"z": 1.4586406105,
				"element": "C" 
			},
			{
				"x": 1.4284763501,
				"y": -0.8248274655,
				"z": 0.9418635944,
				"element": "C" 
			},
			{
				"x": -1.123352828,
				"y": 3.3406256584,
				"z": -1.3130877646,
				"element": "H" 
			},
			{
				"x": -1.0764126051,
				"y": 2.07412047,
				"z": -2.3458506699,
				"element": "H" 
			},
			{
				"x": -3.5422413805,
				"y": 2.0258222426,
				"z": -1.3115306977,
				"element": "H" 
			},
			{
				"x": -1.0633525539,
				"y": -2.6382707267,
				"z": 2.3637360319,
				"element": "H" 
			},
			{
				"x": 3.0003060133,
				"y": -3.2623685316,
				"z": 2.6970571816,
				"element": "H" 
			},
			{
				"x": 3.5153837825,
				"y": -1.3085446428,
				"z": 1.2337052732,
				"element": "H" 
			},
			{
				"x": 1.5940220687,
				"y": 0.0344517344,
				"z": 0.3008207024,
				"element": "H" 
			}
		],
		 "valence_orbital": [ 
			{
				"type": "occ",
				"energy": -0.28959,
				"method": "rhf"
			},
			{
				"type": "occ",
				"energy": -0.28749,
				"method": "rhf"
			},
			{
				"type": "occ",
				"energy": -0.26796,
				"method": "rhf"
			},
			{
				"type": "occ",
				"energy": -0.25648,
				"method": "rhf"
			},
			{
				"type": "occ",
				"energy": -0.24158,
				"method": "rhf"
			},
			{
				"type": "unocc",
				"energy": -0.04933,
				"method": "rhf"
			},
			{
				"type": "unocc",
				"energy": -0.02544,
				"method": "rhf"
			},
			{
				"type": "unocc",
				"energy": 0.01586,
				"method": "rhf"
			},
			{
				"type": "unocc",
				"energy": 0.0593,
				"method": "rhf"
			},
			{
				"type": "unocc",
				"energy": 0.06845,
				"method": "rhf"
			}
		],
		"cosmo_sigma_profile": { 
			"-0.025": 0.0,
			"-0.024": 0.0,
			"-0.023": 0.0,
			"-0.022": 0.0,
			"-0.021": 0.0,
			"-0.02": 0.0,
			"-0.019": 0.0,
			"-0.018": 0.0,
			"-0.017": 0.00523265967365,
			"-0.016": 0.839750696529,
			"-0.015": 1.16909647042,
			"-0.014": 1.22501591323,
			"-0.013": 0.957515297172,
			"-0.012": 2.07566712374,
			"-0.011": 3.51988110593,
			"-0.01": 4.40768739952,
			"-0.009": 3.36426700672,
			"-0.008": 3.47308898266,
			"-0.007": 7.49362684139,
			"-0.006": 9.84405865623,
			"-0.005": 10.8200346394,
			"-0.004": 9.60881634393,
			"-0.003": 9.03567068666,
			"-0.002": 9.36565338462,
			"-0.001": 15.125318371,
			"0.0": 19.1353984677,
			"0.001": 20.7809902615,
			"0.002": 13.4035648755,
			"0.003": 7.43581085767,
			"0.004": 6.523759797,
			"0.005": 5.6697989239,
			"0.006": 7.04511803729,
			"0.007": 8.3224781096,
			"0.008": 4.82876872723,
			"0.009": 4.51014661313,
			"0.01": 3.11223011181,
			"0.011": 2.97706952805,
			"0.012": 3.06852132994,
			"0.013": 2.30890780698,
			"0.014": 1.40558171059,
			"0.015": 1.36836073861,
			"0.016": 0.843166208626,
			"0.017": 0.0666865660624,
			"0.018": 0.0,
			"0.019": 0.0,
			"0.02": 0.0,
			"0.021": 0.0,
			"0.022": 0.0,
			"0.023": 0.0,
			"0.024": 0.0,
			"0.025": 0.0
		}
	}
}
