{
	 "smiles": "CC(=O)OCC12CCCC(C)(C)C1CC(OC(C)=O)C13C(OC(C)=O)C(CC(OC(C)=O)C21)C(=C)C3=O", 
	 "Tm": 499.15, 
	 "num_atms": 75, 
	 "gaussian": { 
		 "optdone": 1, 
		 "sigma_profile": "yes", 
		 "theory": "DFT", 
		 "functional": "B3LYP", 
		 "basiset": "6-31G**", 
		 "properties": { 
			 "R2extent": 16605.7401, 
			 "electric_dipole_moment_norm": 2.37389954926, 
			 "electric_quadrupole_moment_norm": 11.0758421585, 
			 "total_energy": -1766.93639219, 
			 "HOMO_LUMO_gap": 0.18472, 
			 "cosmo_polarized_energy": -24.43, 
			 "cosmo_cavitation_energy": 67.11, 
			 "cosmo_dispersion_energy": -40.92, 
			 "cosmo_repulsion_energy": 2.99, 
			 "cosmo_total_nonelectrostatic_energy": 29.18, 
			 "SMD_solvation_energy": 15.11 
		},
		"coords": [
			{
				"x": 0.2145983175,
				"y": -5.2795894489,
				"z": -3.1507831079,
				"element": "C" 
			},
			{
				"x": -0.0758580766,
				"y": -4.7872079207,
				"z": -1.7549928478,
				"element": "C" 
			},
			{
				"x": 0.0126514783,
				"y": -5.4484248746,
				"z": -0.7426344205,
				"element": "O" 
			},
			{
				"x": -0.4821700807,
				"y": -3.4894889579,
				"z": -1.7835820927,
				"element": "O" 
			},
			{
				"x": -0.8822591682,
				"y": -2.8720263646,
				"z": -0.5378776278,
				"element": "C" 
			},
			{
				"x": -0.0358286473,
				"y": -1.6223990963,
				"z": -0.1679381414,
				"element": "C" 
			},
			{
				"x": 1.4752949545,
				"y": -1.9764491259,
				"z": -0.145600611,
				"element": "C" 
			},
			{
				"x": 1.8729133844,
				"y": -2.9496727562,
				"z": 0.9769538593,
				"element": "C" 
			},
			{
				"x": 1.4731497659,
				"y": -2.4416723575,
				"z": 2.3642135382,
				"element": "C" 
			},
			{
				"x": -0.0362958355,
				"y": -2.127278069,
				"z": 2.4836647839,
				"element": "C" 
			},
			{
				"x": -0.8492930306,
				"y": -3.4496968362,
				"z": 2.5538911284,
				"element": "C" 
			},
			{
				"x": -0.2849662897,
				"y": -1.436519102,
				"z": 3.8485375343,
				"element": "C" 
			},
			{
				"x": -0.4784734157,
				"y": -1.1703105236,
				"z": 1.2892910935,
				"element": "C" 
			},
			{
				"x": 0.0168606383,
				"y": 0.2645147401,
				"z": 1.5570800214,
				"element": "C" 
			},
			{
				"x": -0.5480098462,
				"y": 1.2941971543,
				"z": 0.5976144943,
				"element": "C" 
			},
			{
				"x": -0.0011319532,
				"y": 2.576285076,
				"z": 0.9997205875,
				"element": "O" 
			},
			{
				"x": -0.8352833131,
				"y": 3.5038082473,
				"z": 1.5137684623,
				"element": "C" 
			},
			{
				"x": -0.0669930591,
				"y": 4.7549927267,
				"z": 1.868281228,
				"element": "C" 
			},
			{
				"x": -2.0314751198,
				"y": 3.3550944932,
				"z": 1.6595570585,
				"element": "O" 
			},
			{
				"x": -0.1988310248,
				"y": 1.0300530133,
				"z": -0.8681052873,
				"element": "C" 
			},
			{
				"x": -1.0949641881,
				"y": 1.8240179883,
				"z": -1.8576708551,
				"element": "C" 
			},
			{
				"x": -1.238113567,
				"y": 3.189769604,
				"z": -1.4190110139,
				"element": "O" 
			},
			{
				"x": -2.3237407525,
				"y": 3.8531696779,
				"z": -1.9062216204,
				"element": "C" 
			},
			{
				"x": -2.4390949751,
				"y": 5.2236453796,
				"z": -1.2906803591,
				"element": "C" 
			},
			{
				"x": -3.091015889,
				"y": 3.372383384,
				"z": -2.7109510836,
				"element": "O" 
			},
			{
				"x": -0.3042584799,
				"y": 1.7419896552,
				"z": -3.1719040818,
				"element": "C" 
			},
			{
				"x": -0.5068139558,
				"y": 0.3030562199,
				"z": -3.6951423309,
				"element": "C" 
			},
			{
				"x": -0.0216625589,
				"y": -0.7704217871,
				"z": -2.7053309779,
				"element": "C" 
			},
			{
				"x": 1.4314707518,
				"y": -0.8119089852,
				"z": -2.7752594568,
				"element": "O" 
			},
			{
				"x": 1.9953615128,
				"y": -1.5451570017,
				"z": -3.7615131278,
				"element": "C" 
			},
			{
				"x": 3.4993226844,
				"y": -1.4339517624,
				"z": -3.7096753494,
				"element": "C" 
			},
			{
				"x": 1.3638566841,
				"y": -2.1983266665,
				"z": -4.5671915561,
				"element": "O" 
			},
			{
				"x": -0.4412444975,
				"y": -0.4969837091,
				"z": -1.2294612216,
				"element": "C" 
			},
			{
				"x": 1.1096456557,
				"y": 2.0163773943,
				"z": -2.6983228769,
				"element": "C" 
			},
			{
				"x": 2.106176548,
				"y": 2.6575595754,
				"z": -3.3117173784,
				"element": "C" 
			},
			{
				"x": 1.2207514392,
				"y": 1.4950668442,
				"z": -1.2892477745,
				"element": "C" 
			},
			{
				"x": 2.2284089535,
				"y": 1.4584671804,
				"z": -0.6126472753,
				"element": "O" 
			},
			{
				"x": 0.7154958544,
				"y": -4.5102731371,
				"z": -3.7428681694,
				"element": "H" 
			},
			{
				"x": -0.7334652282,
				"y": -5.5118252885,
				"z": -3.6484980245,
				"element": "H" 
			},
			{
				"x": 0.813462885,
				"y": -6.1887158965,
				"z": -3.0957052148,
				"element": "H" 
			},
			{
				"x": -0.8264875622,
				"y": -3.6346817112,
				"z": 0.2249809348,
				"element": "H" 
			},
			{
				"x": -1.9324904656,
				"y": -2.5867814834,
				"z": -0.6657343559,
				"element": "H" 
			},
			{
				"x": 1.7553594584,
				"y": -2.4172852414,
				"z": -1.1021457979,
				"element": "H" 
			},
			{
				"x": 2.0575747038,
				"y": -1.0543067439,
				"z": -0.056443078,
				"element": "H" 
			},
			{
				"x": 2.9598439022,
				"y": -3.0925737502,
				"z": 0.9413062648,
				"element": "H" 
			},
			{
				"x": 1.4364737877,
				"y": -3.9368028297,
				"z": 0.7896660189,
				"element": "H" 
			},
			{
				"x": 2.0487239117,
				"y": -1.5347027694,
				"z": 2.591537468,
				"element": "H" 
			},
			{
				"x": 1.7477080351,
				"y": -3.1764137261,
				"z": 3.1321894702,
				"element": "H" 
			},
			{
				"x": -0.5058101569,
				"y": -4.22537084,
				"z": 1.8677457572,
				"element": "H" 
			},
			{
				"x": -1.9165394794,
				"y": -3.2784263752,
				"z": 2.3727095525,
				"element": "H" 
			},
			{
				"x": -0.7590944843,
				"y": -3.8771313619,
				"z": 3.557769033,
				"element": "H" 
			},
			{
				"x": 0.3667544059,
				"y": -0.5771920949,
				"z": 4.0203744878,
				"element": "H" 
			},
			{
				"x": -0.0867620062,
				"y": -2.1488043435,
				"z": 4.6556161818,
				"element": "H" 
			},
			{
				"x": -1.3252677273,
				"y": -1.1048125805,
				"z": 3.9522875103,
				"element": "H" 
			},
			{
				"x": -1.580450717,
				"y": -1.140571388,
				"z": 1.3056747104,
				"element": "H" 
			},
			{
				"x": 1.1081182121,
				"y": 0.3241440645,
				"z": 1.5210648857,
				"element": "H" 
			},
			{
				"x": -0.2920109225,
				"y": 0.586695336,
				"z": 2.5512250358,
				"element": "H" 
			},
			{
				"x": -1.636520959,
				"y": 1.348723877,
				"z": 0.7023435187,
				"element": "H" 
			},
			{
				"x": -0.7208370383,
				"y": 5.4502992785,
				"z": 2.3941657858,
				"element": "H" 
			},
			{
				"x": 0.8003093271,
				"y": 4.5071362819,
				"z": 2.4856499928,
				"element": "H" 
			},
			{
				"x": 0.3098754952,
				"y": 5.2203106039,
				"z": 0.9521231701,
				"element": "H" 
			},
			{
				"x": -2.0961264678,
				"y": 1.3981875116,
				"z": -1.9516006653,
				"element": "H" 
			},
			{
				"x": -1.4845775635,
				"y": 5.7537561797,
				"z": -1.3491619365,
				"element": "H" 
			},
			{
				"x": -2.6972108311,
				"y": 5.1128848249,
				"z": -0.2326531582,
				"element": "H" 
			},
			{
				"x": -3.2165451104,
				"y": 5.7874314423,
				"z": -1.8052907887,
				"element": "H" 
			},
			{
				"x": -0.6613254797,
				"y": 2.4634136372,
				"z": -3.910550175,
				"element": "H" 
			},
			{
				"x": 0.0098862713,
				"y": 0.1478865831,
				"z": -4.6457640003,
				"element": "H" 
			},
			{
				"x": -1.5757852271,
				"y": 0.1524080903,
				"z": -3.8893523503,
				"element": "H" 
			},
			{
				"x": -0.3913419299,
				"y": -1.7406292319,
				"z": -3.0243874849,
				"element": "H" 
			},
			{
				"x": 3.8713321479,
				"y": -1.8360533949,
				"z": -2.7623532027,
				"element": "H" 
			},
			{
				"x": 3.9350272624,
				"y": -1.9835672519,
				"z": -4.5434731331,
				"element": "H" 
			},
			{
				"x": 3.7949607318,
				"y": -0.3817271971,
				"z": -3.7509570342,
				"element": "H" 
			},
			{
				"x": -1.5382880897,
				"y": -0.5704815867,
				"z": -1.2603812065,
				"element": "H" 
			},
			{
				"x": 2.0088627952,
				"y": 3.0621988714,
				"z": -4.3151021407,
				"element": "H" 
			},
			{
				"x": 3.0533832147,
				"y": 2.7950906331,
				"z": -2.7973191755,
				"element": "H" 
			}
		],
		 "valence_orbital": [ 
			{
				"type": "occ",
				"energy": -0.27589,
				"method": "rhf"
			},
			{
				"type": "occ",
				"energy": -0.27305,
				"method": "rhf"
			},
			{
				"type": "occ",
				"energy": -0.27146,
				"method": "rhf"
			},
			{
				"type": "occ",
				"energy": -0.26724,
				"method": "rhf"
			},
			{
				"type": "occ",
				"energy": -0.24527,
				"method": "rhf"
			},
			{
				"type": "unocc",
				"energy": -0.06055,
				"method": "rhf"
			},
			{
				"type": "unocc",
				"energy": 0.00143,
				"method": "rhf"
			},
			{
				"type": "unocc",
				"energy": 0.00743,
				"method": "rhf"
			},
			{
				"type": "unocc",
				"energy": 0.00953,
				"method": "rhf"
			},
			{
				"type": "unocc",
				"energy": 0.01208,
				"method": "rhf"
			}
		],
		"cosmo_sigma_profile": { 
			"-0.025": 0.0,
			"-0.024": 0.0,
			"-0.023": 0.0,
			"-0.022": 0.0,
			"-0.021": 0.0,
			"-0.02": 0.0,
			"-0.019": 0.0,
			"-0.018": 0.0,
			"-0.017": 0.0,
			"-0.016": 0.0,
			"-0.015": 0.0,
			"-0.014": 0.0,
			"-0.013": 0.0,
			"-0.012": 0.0,
			"-0.011": 0.0,
			"-0.01": 0.000558474516878,
			"-0.009": 0.695410782287,
			"-0.008": 3.12630149256,
			"-0.007": 10.7826245875,
			"-0.006": 21.6524883317,
			"-0.005": 34.0742836807,
			"-0.004": 42.1701184275,
			"-0.003": 60.5431116492,
			"-0.002": 73.991588363,
			"-0.001": 56.964937474,
			"0.0": 42.9602073169,
			"0.001": 35.7578961081,
			"0.002": 22.6655192254,
			"0.003": 15.0688787809,
			"0.004": 14.5840998455,
			"0.005": 13.2489198747,
			"0.006": 10.1288988235,
			"0.007": 8.27567813969,
			"0.008": 7.5900912877,
			"0.009": 8.01392245734,
			"0.01": 9.38308613578,
			"0.011": 14.1679152207,
			"0.012": 14.22443986,
			"0.013": 3.07950947062,
			"0.014": 0.0,
			"0.015": 0.0,
			"0.016": 0.0,
			"0.017": 0.0,
			"0.018": 0.0,
			"0.019": 0.0,
			"0.02": 0.0,
			"0.021": 0.0,
			"0.022": 0.0,
			"0.023": 0.0,
			"0.024": 0.0,
			"0.025": 0.0
		}
	}
}
