{
	 "smiles": "COC1=CC=C(Cl)C(OC)=C1C(N)=O", 
	 "Tm": 430.15, 
	 "num_atms": 24, 
	 "gaussian": { 
		 "optdone": 1, 
		 "sigma_profile": "yes", 
		 "theory": "DFT", 
		 "functional": "B3LYP", 
		 "basiset": "6-31G**", 
		 "properties": { 
			 "R2extent": 3340.2899, 
			 "electric_dipole_moment_norm": 1.51516452242, 
			 "electric_quadrupole_moment_norm": 16.8693329269, 
			 "total_energy": -1089.57976059, 
			 "HOMO_LUMO_gap": 0.20156, 
			 "cosmo_polarized_energy": -12.91, 
			 "cosmo_cavitation_energy": 29.41, 
			 "cosmo_dispersion_energy": -21.17, 
			 "cosmo_repulsion_energy": 1.69, 
			 "cosmo_total_nonelectrostatic_energy": 9.93, 
			 "SMD_solvation_energy": 6.78 
		},
		"coords": [
			{
				"x": 3.5008122671,
				"y": 0.3736797656,
				"z": -1.438849244,
				"element": "C" 
			},
			{
				"x": 3.0440048882,
				"y": 0.5443589662,
				"z": -0.0902257093,
				"element": "O" 
			},
			{
				"x": 1.68822122,
				"y": 0.5086530763,
				"z": 0.087535234,
				"element": "C" 
			},
			{
				"x": 0.9534762141,
				"y": 1.6849229639,
				"z": -0.0859950144,
				"element": "C" 
			},
			{
				"x": -0.4114254687,
				"y": 1.7143769014,
				"z": 0.1811375002,
				"element": "C" 
			},
			{
				"x": -1.0477011713,
				"y": 0.5622298435,
				"z": 0.6368495979,
				"element": "C" 
			},
			{
				"x": -2.7624589885,
				"y": 0.6062095422,
				"z": 1.0011383928,
				"element": "Cl" 
			},
			{
				"x": -0.3247833876,
				"y": -0.6231882776,
				"z": 0.8292980201,
				"element": "C" 
			},
			{
				"x": -0.9563145712,
				"y": -1.7291776722,
				"z": 1.3529712798,
				"element": "O" 
			},
			{
				"x": -1.5356907184,
				"y": -2.6133308393,
				"z": 0.3810660405,
				"element": "C" 
			},
			{
				"x": 1.0522510681,
				"y": -0.6672662373,
				"z": 0.5355100672,
				"element": "C" 
			},
			{
				"x": 1.8546809837,
				"y": -1.9461586373,
				"z": 0.6577045353,
				"element": "C" 
			},
			{
				"x": 1.6717961163,
				"y": -2.6515073442,
				"z": 1.8122798395,
				"element": "N" 
			},
			{
				"x": 2.6406376986,
				"y": -2.3019452998,
				"z": -0.2121231707,
				"element": "O" 
			},
			{
				"x": 3.0568595021,
				"y": 1.1265812398,
				"z": -2.1033178834,
				"element": "H" 
			},
			{
				"x": 3.2654335689,
				"y": -0.6341396166,
				"z": -1.7892792351,
				"element": "H" 
			},
			{
				"x": 4.5829590361,
				"y": 0.5130305277,
				"z": -1.4097266728,
				"element": "H" 
			},
			{
				"x": 1.4741066455,
				"y": 2.5811009841,
				"z": -0.4067068436,
				"element": "H" 
			},
			{
				"x": -0.983312568,
				"y": 2.6268060248,
				"z": 0.0534981607,
				"element": "H" 
			},
			{
				"x": -0.7664684739,
				"y": -3.0264024993,
				"z": -0.2817476772,
				"element": "H" 
			},
			{
				"x": -2.0061289922,
				"y": -3.4202815173,
				"z": 0.9451687941,
				"element": "H" 
			},
			{
				"x": -2.2944407012,
				"y": -2.0942225611,
				"z": -0.2131391874,
				"element": "H" 
			},
			{
				"x": 0.8391600533,
				"y": -2.4960158305,
				"z": 2.3616794041,
				"element": "H" 
			},
			{
				"x": 2.114725779,
				"y": -3.5584135031,
				"z": 1.8531737719,
				"element": "H" 
			}
		],
		 "valence_orbital": [ 
			{
				"type": "occ",
				"energy": -0.27291,
				"method": "rhf"
			},
			{
				"type": "occ",
				"energy": -0.26913,
				"method": "rhf"
			},
			{
				"type": "occ",
				"energy": -0.26552,
				"method": "rhf"
			},
			{
				"type": "occ",
				"energy": -0.25026,
				"method": "rhf"
			},
			{
				"type": "occ",
				"energy": -0.23799,
				"method": "rhf"
			},
			{
				"type": "unocc",
				"energy": -0.03643,
				"method": "rhf"
			},
			{
				"type": "unocc",
				"energy": -0.01471,
				"method": "rhf"
			},
			{
				"type": "unocc",
				"energy": 0.02175,
				"method": "rhf"
			},
			{
				"type": "unocc",
				"energy": 0.04267,
				"method": "rhf"
			},
			{
				"type": "unocc",
				"energy": 0.0844,
				"method": "rhf"
			}
		],
		"cosmo_sigma_profile": { 
			"-0.025": 0.0,
			"-0.024": 0.0,
			"-0.023": 0.0,
			"-0.022": 0.0,
			"-0.021": 0.0,
			"-0.02": 0.0,
			"-0.019": 0.0,
			"-0.018": 0.0,
			"-0.017": 0.0,
			"-0.016": 0.0,
			"-0.015": 0.00282728861138,
			"-0.014": 0.741892765847,
			"-0.013": 1.02060858106,
			"-0.012": 1.20222743257,
			"-0.011": 2.21618637674,
			"-0.01": 2.06266241954,
			"-0.009": 1.56228181067,
			"-0.008": 3.10857750209,
			"-0.007": 6.19110374575,
			"-0.006": 8.81565475477,
			"-0.005": 15.7395159044,
			"-0.004": 19.0181866616,
			"-0.003": 22.5159173199,
			"-0.002": 19.180990934,
			"-0.001": 15.0824416603,
			"0.0": 14.5821579532,
			"0.001": 19.0093821724,
			"0.002": 18.4699177648,
			"0.003": 12.3295882814,
			"0.004": 11.8227675086,
			"0.005": 8.01615681449,
			"0.006": 5.01903724351,
			"0.007": 4.31526030763,
			"0.008": 4.64427701966,
			"0.009": 3.6524618053,
			"0.01": 3.92779746376,
			"0.011": 4.41517770572,
			"0.012": 2.7336370683,
			"0.013": 2.76139555604,
			"0.014": 1.7427260671,
			"0.015": 0.0380067774331,
			"0.016": 0.0,
			"0.017": 0.0,
			"0.018": 0.0,
			"0.019": 0.0,
			"0.02": 0.0,
			"0.021": 0.0,
			"0.022": 0.0,
			"0.023": 0.0,
			"0.024": 0.0,
			"0.025": 0.0
		}
	}
}
