{
	 "smiles": "OC(=O)C#CC1=C(F)C=C(F)C=C1", 
	 "Tm": 444.15, 
	 "num_atms": 17, 
	 "gaussian": { 
		 "optdone": 1, 
		 "sigma_profile": "yes", 
		 "theory": "DFT", 
		 "functional": "B3LYP", 
		 "basiset": "6-31G**", 
		 "properties": { 
			 "R2extent": 3885.6341, 
			 "electric_dipole_moment_norm": 4.78570043045, 
			 "electric_quadrupole_moment_norm": 19.8270665102, 
			 "total_energy": -695.421190582, 
			 "HOMO_LUMO_gap": 0.18082, 
			 "cosmo_polarized_energy": -13.06, 
			 "cosmo_cavitation_energy": 25.35, 
			 "cosmo_dispersion_energy": -17.74, 
			 "cosmo_repulsion_energy": 1.39, 
			 "cosmo_total_nonelectrostatic_energy": 9.01, 
			 "SMD_solvation_energy": 7.09 
		},
		"coords": [
			{
				"x": 1.6071200069,
				"y": -1.5126466466,
				"z": -4.7006499226,
				"element": "O" 
			},
			{
				"x": 1.0979174436,
				"y": -2.0614873299,
				"z": -3.5675841088,
				"element": "C" 
			},
			{
				"x": 0.8039987835,
				"y": -3.2310960512,
				"z": -3.5142434292,
				"element": "O" 
			},
			{
				"x": 0.9474965497,
				"y": -1.1333123035,
				"z": -2.4646995388,
				"element": "C" 
			},
			{
				"x": 0.8105038621,
				"y": -0.3776968063,
				"z": -1.5234942933,
				"element": "C" 
			},
			{
				"x": 0.6424865937,
				"y": 0.4883130268,
				"z": -0.411380084,
				"element": "C" 
			},
			{
				"x": 0.9923596309,
				"y": 1.8482027642,
				"z": -0.4980001803,
				"element": "C" 
			},
			{
				"x": 1.4892429505,
				"y": 2.3146966245,
				"z": -1.6534626149,
				"element": "F" 
			},
			{
				"x": 0.8436601026,
				"y": 2.7258145991,
				"z": 0.5647603859,
				"element": "C" 
			},
			{
				"x": 0.3261950423,
				"y": 2.2174178257,
				"z": 1.7520644925,
				"element": "C" 
			},
			{
				"x": 0.1747963457,
				"y": 3.0515422202,
				"z": 2.7921144097,
				"element": "F" 
			},
			{
				"x": -0.038359655,
				"y": 0.8803821766,
				"z": 1.8985819373,
				"element": "C" 
			},
			{
				"x": 0.1225103654,
				"y": 0.0252958784,
				"z": 0.8154076702,
				"element": "C" 
			},
			{
				"x": 1.7806966957,
				"y": -0.5704732633,
				"z": -4.5549115984,
				"element": "H" 
			},
			{
				"x": 1.1209967907,
				"y": 3.7684769927,
				"z": 0.4712935104,
				"element": "H" 
			},
			{
				"x": -0.4370095157,
				"y": 0.5332308304,
				"z": 2.8445504011,
				"element": "H" 
			},
			{
				"x": -0.1523119926,
				"y": -1.0202605378,
				"z": 0.8993529634,
				"element": "H" 
			}
		],
		 "valence_orbital": [ 
			{
				"type": "occ",
				"energy": -0.31937,
				"method": "rhf"
			},
			{
				"type": "occ",
				"energy": -0.31212,
				"method": "rhf"
			},
			{
				"type": "occ",
				"energy": -0.28514,
				"method": "rhf"
			},
			{
				"type": "occ",
				"energy": -0.27935,
				"method": "rhf"
			},
			{
				"type": "occ",
				"energy": -0.25641,
				"method": "rhf"
			},
			{
				"type": "unocc",
				"energy": -0.07559,
				"method": "rhf"
			},
			{
				"type": "unocc",
				"energy": -0.03487,
				"method": "rhf"
			},
			{
				"type": "unocc",
				"energy": 0.00217,
				"method": "rhf"
			},
			{
				"type": "unocc",
				"energy": 0.01166,
				"method": "rhf"
			},
			{
				"type": "unocc",
				"energy": 0.06251,
				"method": "rhf"
			}
		],
		"cosmo_sigma_profile": { 
			"-0.025": 0.0,
			"-0.024": 0.0,
			"-0.023": 0.0,
			"-0.022": 0.0,
			"-0.021": 0.0,
			"-0.02": 0.104687261558,
			"-0.019": 0.868778967281,
			"-0.018": 0.936531735915,
			"-0.017": 0.565761724101,
			"-0.016": 0.791219105688,
			"-0.015": 0.791855509306,
			"-0.014": 0.552293151673,
			"-0.013": 1.24980767846,
			"-0.012": 1.33585051491,
			"-0.011": 0.418215613573,
			"-0.01": 1.37509201564,
			"-0.009": 3.39984532015,
			"-0.008": 6.10149720569,
			"-0.007": 6.29578745687,
			"-0.006": 6.55409601777,
			"-0.005": 5.63162550723,
			"-0.004": 8.13445473381,
			"-0.003": 6.83869639305,
			"-0.002": 14.5275267601,
			"-0.001": 24.996593166,
			"0.0": 20.3926291372,
			"0.001": 16.7238490265,
			"0.002": 16.3838549036,
			"0.003": 24.1045894342,
			"0.004": 5.91840764212,
			"0.005": 2.62475428394,
			"0.006": 2.69872476793,
			"0.007": 3.15182441808,
			"0.008": 2.6692978586,
			"0.009": 5.02652404,
			"0.01": 5.35483828949,
			"0.011": 6.48084248649,
			"0.012": 2.82924229287,
			"0.013": 0.122634423182,
			"0.014": 0.0,
			"0.015": 0.0,
			"0.016": 0.0,
			"0.017": 0.0,
			"0.018": 0.0,
			"0.019": 0.0,
			"0.02": 0.0,
			"0.021": 0.0,
			"0.022": 0.0,
			"0.023": 0.0,
			"0.024": 0.0,
			"0.025": 0.0
		}
	}
}
