{
	 "smiles": "OCCCNC1=CC=NC=C1", 
	 "Tm": 372.15, 
	 "num_atms": 23, 
	 "gaussian": { 
		 "optdone": 1, 
		 "sigma_profile": "yes", 
		 "theory": "DFT", 
		 "functional": "B3LYP", 
		 "basiset": "6-31G**", 
		 "properties": { 
			 "R2extent": 3073.6491, 
			 "electric_dipole_moment_norm": 4.20062337993, 
			 "electric_quadrupole_moment_norm": 16.451093178, 
			 "total_energy": -496.797276124, 
			 "HOMO_LUMO_gap": 0.21608, 
			 "cosmo_polarized_energy": -15.51, 
			 "cosmo_cavitation_energy": 26.31, 
			 "cosmo_dispersion_energy": -19.32, 
			 "cosmo_repulsion_energy": 1.58, 
			 "cosmo_total_nonelectrostatic_energy": 8.57, 
			 "SMD_solvation_energy": 2.35 
		},
		"coords": [
			{
				"x": 2.0083307572,
				"y": -2.5587433676,
				"z": -1.6804411534,
				"element": "O" 
			},
			{
				"x": 1.346212508,
				"y": -1.3736835852,
				"z": -1.264518196,
				"element": "C" 
			},
			{
				"x": 1.5703198793,
				"y": -1.0676116402,
				"z": 0.2205476381,
				"element": "C" 
			},
			{
				"x": 0.8000581715,
				"y": 0.1557826282,
				"z": 0.7239452446,
				"element": "C" 
			},
			{
				"x": -0.6364333039,
				"y": -0.0720476436,
				"z": 0.6591884681,
				"element": "N" 
			},
			{
				"x": -1.5653506209,
				"y": 0.8820913772,
				"z": 1.0215205404,
				"element": "C" 
			},
			{
				"x": -2.9206755502,
				"y": 0.5291220004,
				"z": 1.1873056424,
				"element": "C" 
			},
			{
				"x": -3.8428287303,
				"y": 1.5116879601,
				"z": 1.5176540647,
				"element": "C" 
			},
			{
				"x": -3.5437023276,
				"y": 2.8086826318,
				"z": 1.6976705565,
				"element": "N" 
			},
			{
				"x": -2.2550063958,
				"y": 3.1333824229,
				"z": 1.5406548733,
				"element": "C" 
			},
			{
				"x": -1.238855137,
				"y": 2.237584832,
				"z": 1.2146384602,
				"element": "C" 
			},
			{
				"x": 2.9596736232,
				"y": -2.4122097936,
				"z": -1.5996320742,
				"element": "H" 
			},
			{
				"x": 0.2833011024,
				"y": -1.5402440506,
				"z": -1.4607321719,
				"element": "H" 
			},
			{
				"x": 1.6490152974,
				"y": -0.504311365,
				"z": -1.8712881564,
				"element": "H" 
			},
			{
				"x": 1.2993203087,
				"y": -1.9538686784,
				"z": 0.8098279205,
				"element": "H" 
			},
			{
				"x": 2.640004986,
				"y": -0.8955148198,
				"z": 0.3990532547,
				"element": "H" 
			},
			{
				"x": 1.0462201414,
				"y": 1.0219616053,
				"z": 0.0963507329,
				"element": "H" 
			},
			{
				"x": 1.1253592476,
				"y": 0.4048513374,
				"z": 1.7471572304,
				"element": "H" 
			},
			{
				"x": -0.9243046023,
				"y": -1.0274177638,
				"z": 0.8229398255,
				"element": "H" 
			},
			{
				"x": -3.2412901328,
				"y": -0.5008921915,
				"z": 1.0527526852,
				"element": "H" 
			},
			{
				"x": -4.8898169914,
				"y": 1.2405063764,
				"z": 1.6467229645,
				"element": "H" 
			},
			{
				"x": -2.0062072918,
				"y": 4.1836432566,
				"z": 1.6896210931,
				"element": "H" 
			},
			{
				"x": -0.2199449389,
				"y": 2.594148471,
				"z": 1.1181605568,
				"element": "H" 
			}
		],
		 "valence_orbital": [ 
			{
				"type": "occ",
				"energy": -0.31634,
				"method": "rhf"
			},
			{
				"type": "occ",
				"energy": -0.27487,
				"method": "rhf"
			},
			{
				"type": "occ",
				"energy": -0.25201,
				"method": "rhf"
			},
			{
				"type": "occ",
				"energy": -0.24136,
				"method": "rhf"
			},
			{
				"type": "occ",
				"energy": -0.21639,
				"method": "rhf"
			},
			{
				"type": "unocc",
				"energy": -0.00031,
				"method": "rhf"
			},
			{
				"type": "unocc",
				"energy": 0.0047,
				"method": "rhf"
			},
			{
				"type": "unocc",
				"energy": 0.06652,
				"method": "rhf"
			},
			{
				"type": "unocc",
				"energy": 0.07508,
				"method": "rhf"
			},
			{
				"type": "unocc",
				"energy": 0.08849,
				"method": "rhf"
			}
		],
		"cosmo_sigma_profile": { 
			"-0.025": 0.0,
			"-0.024": 0.0,
			"-0.023": 0.0,
			"-0.022": 0.0,
			"-0.021": 0.0,
			"-0.02": 0.0,
			"-0.019": 0.0,
			"-0.018": 0.0,
			"-0.017": 0.0,
			"-0.016": 0.104584184154,
			"-0.015": 0.800123488277,
			"-0.014": 1.26150591821,
			"-0.013": 1.25196300367,
			"-0.012": 2.22499207512,
			"-0.011": 2.43139516209,
			"-0.01": 2.44672437956,
			"-0.009": 2.89558025148,
			"-0.008": 2.74228589714,
			"-0.007": 3.24090407352,
			"-0.006": 7.83848497571,
			"-0.005": 12.6142210811,
			"-0.004": 19.7734763455,
			"-0.003": 24.7257301734,
			"-0.002": 16.0759225688,
			"-0.001": 12.3668434481,
			"0.0": 12.2685634757,
			"0.001": 6.83756285085,
			"0.002": 7.20760880585,
			"0.003": 9.80173539402,
			"0.004": 16.8541323215,
			"0.005": 9.01825049186,
			"0.006": 4.68301001294,
			"0.007": 3.64613445591,
			"0.008": 2.85903749474,
			"0.009": 2.84232755007,
			"0.01": 2.34641746816,
			"0.011": 2.39810701788,
			"0.012": 2.25998885165,
			"0.013": 2.49953672147,
			"0.014": 3.63065237567,
			"0.015": 1.87554218119,
			"0.016": 0.962774956516,
			"0.017": 0.900815923613,
			"0.018": 0.852633333775,
			"0.019": 0.0883285709445,
			"0.02": 0.0,
			"0.021": 0.0,
			"0.022": 0.0,
			"0.023": 0.0,
			"0.024": 0.0,
			"0.025": 0.0
		}
	}
}
