{
	 "smiles": "CC(C)(C)S(=O)(=O)CC(N)=S", 
	 "Tm": 458.15, 
	 "num_atms": 24, 
	 "gaussian": { 
		 "optdone": 1, 
		 "sigma_profile": "yes", 
		 "theory": "DFT", 
		 "functional": "B3LYP", 
		 "basiset": "6-31G**", 
		 "properties": { 
			 "R2extent": 2920.6132, 
			 "electric_dipole_moment_norm": 7.25088082649, 
			 "electric_quadrupole_moment_norm": 19.5529848059, 
			 "total_energy": -1237.99573617, 
			 "HOMO_LUMO_gap": 0.15938, 
			 "cosmo_polarized_energy": -29.12, 
			 "cosmo_cavitation_energy": 28.57, 
			 "cosmo_dispersion_energy": -20.61, 
			 "cosmo_repulsion_energy": 1.55, 
			 "cosmo_total_nonelectrostatic_energy": 9.51, 
			 "SMD_solvation_energy": 3.52 
		},
		"coords": [
			{
				"x": -0.6494784103,
				"y": 1.3891759024,
				"z": 1.216179974,
				"element": "C" 
			},
			{
				"x": -0.9760124164,
				"y": 0.2300871391,
				"z": 0.267756558,
				"element": "C" 
			},
			{
				"x": -2.4980564088,
				"y": 0.0215218328,
				"z": 0.1634085191,
				"element": "C" 
			},
			{
				"x": -0.2778999515,
				"y": -1.0749916072,
				"z": 0.6662441484,
				"element": "C" 
			},
			{
				"x": -0.475895994,
				"y": 0.6883530299,
				"z": -1.4791025544,
				"element": "S" 
			},
			{
				"x": -0.9793467207,
				"y": 2.0410878312,
				"z": -1.7506150936,
				"element": "O" 
			},
			{
				"x": -0.8528709553,
				"y": -0.4402249493,
				"z": -2.3518941786,
				"element": "O" 
			},
			{
				"x": 1.3853958377,
				"y": 0.691295064,
				"z": -1.6224881241,
				"element": "C" 
			},
			{
				"x": 2.1867930764,
				"y": 1.6874515572,
				"z": -0.8194536748,
				"element": "C" 
			},
			{
				"x": 2.8214330478,
				"y": 1.1539140117,
				"z": 0.2550805462,
				"element": "N" 
			},
			{
				"x": 2.2844862167,
				"y": 3.2930683318,
				"z": -1.2073153725,
				"element": "S" 
			},
			{
				"x": 0.4261812577,
				"y": 1.5397754854,
				"z": 1.3300810402,
				"element": "H" 
			},
			{
				"x": -1.0627302315,
				"y": 1.1581646311,
				"z": 2.2043847576,
				"element": "H" 
			},
			{
				"x": -1.0963068051,
				"y": 2.3206836172,
				"z": 0.8632261204,
				"element": "H" 
			},
			{
				"x": -2.8805911244,
				"y": -0.241571583,
				"z": 1.1550657319,
				"element": "H" 
			},
			{
				"x": -2.7426949889,
				"y": -0.7833608811,
				"z": -0.5329461443,
				"element": "H" 
			},
			{
				"x": -2.9973883971,
				"y": 0.9354785913,
				"z": -0.1675569793,
				"element": "H" 
			},
			{
				"x": -0.6866713114,
				"y": -1.4183111557,
				"z": 1.6224513161,
				"element": "H" 
			},
			{
				"x": -0.444660944,
				"y": -1.8584309365,
				"z": -0.077344979,
				"element": "H" 
			},
			{
				"x": 0.7988898839,
				"y": -0.9400366486,
				"z": 0.8075967263,
				"element": "H" 
			},
			{
				"x": 1.6806900373,
				"y": -0.3465387019,
				"z": -1.4464723206,
				"element": "H" 
			},
			{
				"x": 1.4873876143,
				"y": 0.9087288624,
				"z": -2.6869511863,
				"element": "H" 
			},
			{
				"x": 3.4293734284,
				"y": 1.7527154161,
				"z": 0.7958680498,
				"element": "H" 
			},
			{
				"x": 2.8846742591,
				"y": 0.1565651595,
				"z": 0.3977971196,
				"element": "H" 
			}
		],
		 "valence_orbital": [ 
			{
				"type": "occ",
				"energy": -0.31192,
				"method": "rhf"
			},
			{
				"type": "occ",
				"energy": -0.29555,
				"method": "rhf"
			},
			{
				"type": "occ",
				"energy": -0.28128,
				"method": "rhf"
			},
			{
				"type": "occ",
				"energy": -0.2462,
				"method": "rhf"
			},
			{
				"type": "occ",
				"energy": -0.22009,
				"method": "rhf"
			},
			{
				"type": "unocc",
				"energy": -0.06071,
				"method": "rhf"
			},
			{
				"type": "unocc",
				"energy": 0.02489,
				"method": "rhf"
			},
			{
				"type": "unocc",
				"energy": 0.04592,
				"method": "rhf"
			},
			{
				"type": "unocc",
				"energy": 0.06766,
				"method": "rhf"
			},
			{
				"type": "unocc",
				"energy": 0.07464,
				"method": "rhf"
			}
		],
		"cosmo_sigma_profile": { 
			"-0.025": 0.0,
			"-0.024": 0.0,
			"-0.023": 0.0,
			"-0.022": 0.0,
			"-0.021": 0.0,
			"-0.02": 0.0,
			"-0.019": 0.0,
			"-0.018": 0.00196512088279,
			"-0.017": 0.0883773629137,
			"-0.016": 1.92590094139,
			"-0.015": 3.38329466138,
			"-0.014": 3.3738745819,
			"-0.013": 3.67385310213,
			"-0.012": 2.46542323424,
			"-0.011": 2.04039386742,
			"-0.01": 3.14495229312,
			"-0.009": 4.43191799127,
			"-0.008": 4.3137114237,
			"-0.007": 4.10671827171,
			"-0.006": 8.24862397598,
			"-0.005": 12.974343366,
			"-0.004": 12.2651644893,
			"-0.003": 17.2380714092,
			"-0.002": 19.1711396543,
			"-0.001": 23.6238523551,
			"0.0": 13.0424031925,
			"0.001": 4.85038079886,
			"0.002": 5.12889654532,
			"0.003": 5.27921460034,
			"0.004": 5.61809367986,
			"0.005": 5.68656856195,
			"0.006": 6.70243621994,
			"0.007": 7.7726711009,
			"0.008": 8.15230773708,
			"0.009": 6.33489737683,
			"0.01": 7.29376849564,
			"0.011": 11.2878818662,
			"0.012": 8.90690923897,
			"0.013": 3.08362952024,
			"0.014": 0.346399781433,
			"0.015": 0.0,
			"0.016": 0.0,
			"0.017": 0.0,
			"0.018": 0.0,
			"0.019": 0.0,
			"0.02": 0.0,
			"0.021": 0.0,
			"0.022": 0.0,
			"0.023": 0.0,
			"0.024": 0.0,
			"0.025": 0.0
		}
	}
}
