{
	 "smiles": "COC1=CC=C(C=C2SC(=S)N(CN3CCCCC3)C2=O)C=C1", 
	 "Tm": 495.15, 
	 "num_atms": 43, 
	 "gaussian": { 
		 "optdone": 1, 
		 "sigma_profile": "yes", 
		 "theory": "DFT", 
		 "functional": "B3LYP", 
		 "basiset": "6-31G**", 
		 "properties": { 
			 "R2extent": 13896.981, 
			 "electric_dipole_moment_norm": 3.95401969899, 
			 "electric_quadrupole_moment_norm": 33.6843045699, 
			 "total_energy": -1716.18262578, 
			 "HOMO_LUMO_gap": 0.12114, 
			 "cosmo_polarized_energy": -13.24, 
			 "cosmo_cavitation_energy": 47.93, 
			 "cosmo_dispersion_energy": -34.65, 
			 "cosmo_repulsion_energy": 2.53, 
			 "cosmo_total_nonelectrostatic_energy": 15.81, 
			 "SMD_solvation_energy": 6.27 
		},
		"coords": [
			{
				"x": 6.379757904,
				"y": 2.1972743435,
				"z": -4.7078608164,
				"element": "C" 
			},
			{
				"x": 6.0561306024,
				"y": 2.7181032302,
				"z": -3.4244375893,
				"element": "O" 
			},
			{
				"x": 5.0459516031,
				"y": 2.1430711277,
				"z": -2.7247039769,
				"element": "C" 
			},
			{
				"x": 4.2809655596,
				"y": 1.0558150544,
				"z": -3.1735942858,
				"element": "C" 
			},
			{
				"x": 3.265816057,
				"y": 0.5436756667,
				"z": -2.3714703955,
				"element": "C" 
			},
			{
				"x": 2.9775611595,
				"y": 1.0900070055,
				"z": -1.1053231044,
				"element": "C" 
			},
			{
				"x": 1.939247626,
				"y": 0.6147006058,
				"z": -0.2134003344,
				"element": "C" 
			},
			{
				"x": 1.0369425501,
				"y": -0.390702947,
				"z": -0.3284615276,
				"element": "C" 
			},
			{
				"x": 0.7662393862,
				"y": -1.5438391376,
				"z": -1.639013314,
				"element": "S" 
			},
			{
				"x": -0.5612002421,
				"y": -2.3458329197,
				"z": -0.7638872293,
				"element": "C" 
			},
			{
				"x": -1.3645474429,
				"y": -3.6439547514,
				"z": -1.389193176,
				"element": "S" 
			},
			{
				"x": -0.7613781945,
				"y": -1.7361631278,
				"z": 0.4461007326,
				"element": "N" 
			},
			{
				"x": -1.8286856816,
				"y": -2.1657917589,
				"z": 1.3901945307,
				"element": "C" 
			},
			{
				"x": -3.1122692553,
				"y": -1.6225211982,
				"z": 1.0577422356,
				"element": "N" 
			},
			{
				"x": -4.2448267661,
				"y": -2.5485546398,
				"z": 1.0354251869,
				"element": "C" 
			},
			{
				"x": -5.3376166845,
				"y": -2.0113138772,
				"z": 0.0854746112,
				"element": "C" 
			},
			{
				"x": -5.3559928643,
				"y": -0.4657434594,
				"z": 0.0706720907,
				"element": "C" 
			},
			{
				"x": -4.8766763048,
				"y": 0.083748638,
				"z": 1.4188927577,
				"element": "C" 
			},
			{
				"x": -3.4147753784,
				"y": -0.3284796534,
				"z": 1.6845351094,
				"element": "C" 
			},
			{
				"x": 0.0752690351,
				"y": -0.6483133212,
				"z": 0.7694417593,
				"element": "C" 
			},
			{
				"x": -0.0107379187,
				"y": -0.0292976713,
				"z": 1.8172322264,
				"element": "O" 
			},
			{
				"x": 3.7654309679,
				"y": 2.1860218972,
				"z": -0.6785507341,
				"element": "C" 
			},
			{
				"x": 4.7771984479,
				"y": 2.7050989192,
				"z": -1.4646989173,
				"element": "C" 
			},
			{
				"x": 6.6979836177,
				"y": 1.1493258677,
				"z": -4.6478660856,
				"element": "H" 
			},
			{
				"x": 5.5331762343,
				"y": 2.2799021118,
				"z": -5.4003441545,
				"element": "H" 
			},
			{
				"x": 7.2072476263,
				"y": 2.8044065659,
				"z": -5.0765598863,
				"element": "H" 
			},
			{
				"x": 4.4681743661,
				"y": 0.6047266601,
				"z": -4.1404487086,
				"element": "H" 
			},
			{
				"x": 2.6960980758,
				"y": -0.2968406413,
				"z": -2.750855994,
				"element": "H" 
			},
			{
				"x": 1.8504257661,
				"y": 1.1512050936,
				"z": 0.7305995227,
				"element": "H" 
			},
			{
				"x": -1.463708142,
				"y": -1.846917305,
				"z": 2.3746628378,
				"element": "H" 
			},
			{
				"x": -1.8549642415,
				"y": -3.2548111302,
				"z": 1.3409444317,
				"element": "H" 
			},
			{
				"x": -3.8888729541,
				"y": -3.5197736272,
				"z": 0.6830090533,
				"element": "H" 
			},
			{
				"x": -4.6647758665,
				"y": -2.7053071736,
				"z": 2.0465943056,
				"element": "H" 
			},
			{
				"x": -5.1611535552,
				"y": -2.386758676,
				"z": -0.9276231856,
				"element": "H" 
			},
			{
				"x": -6.3097361437,
				"y": -2.4032052436,
				"z": 0.4087685001,
				"element": "H" 
			},
			{
				"x": -6.3606948763,
				"y": -0.096806035,
				"z": -0.1629507335,
				"element": "H" 
			},
			{
				"x": -4.6922927159,
				"y": -0.0972569169,
				"z": -0.7197165694,
				"element": "H" 
			},
			{
				"x": -4.9558377221,
				"y": 1.1754614084,
				"z": 1.4559121256,
				"element": "H" 
			},
			{
				"x": -5.5261473198,
				"y": -0.2997918282,
				"z": 2.2160018997,
				"element": "H" 
			},
			{
				"x": -2.7319537797,
				"y": 0.4221366327,
				"z": 1.2703504879,
				"element": "H" 
			},
			{
				"x": -3.2234414735,
				"y": -0.3543281799,
				"z": 2.7733602301,
				"element": "H" 
			},
			{
				"x": 3.5671589681,
				"y": 2.6290163007,
				"z": 0.2935960729,
				"element": "H" 
			},
			{
				"x": 5.3780099707,
				"y": 3.5451080906,
				"z": -1.1328499895,
				"element": "H" 
			}
		],
		 "valence_orbital": [ 
			{
				"type": "occ",
				"energy": -0.26615,
				"method": "rhf"
			},
			{
				"type": "occ",
				"energy": -0.24922,
				"method": "rhf"
			},
			{
				"type": "occ",
				"energy": -0.22573,
				"method": "rhf"
			},
			{
				"type": "occ",
				"energy": -0.21312,
				"method": "rhf"
			},
			{
				"type": "occ",
				"energy": -0.20692,
				"method": "rhf"
			},
			{
				"type": "unocc",
				"energy": -0.08578,
				"method": "rhf"
			},
			{
				"type": "unocc",
				"energy": -0.03186,
				"method": "rhf"
			},
			{
				"type": "unocc",
				"energy": -0.01761,
				"method": "rhf"
			},
			{
				"type": "unocc",
				"energy": 0.00685,
				"method": "rhf"
			},
			{
				"type": "unocc",
				"energy": 0.02164,
				"method": "rhf"
			}
		],
		"cosmo_sigma_profile": { 
			"-0.025": 0.0,
			"-0.024": 0.0,
			"-0.023": 0.0,
			"-0.022": 0.0,
			"-0.021": 0.0,
			"-0.02": 0.0,
			"-0.019": 0.0,
			"-0.018": 0.0,
			"-0.017": 0.0,
			"-0.016": 0.0,
			"-0.015": 0.0,
			"-0.014": 0.0,
			"-0.013": 0.0,
			"-0.012": 0.0,
			"-0.011": 0.0,
			"-0.01": 0.0,
			"-0.009": 0.342828510226,
			"-0.008": 2.32521534353,
			"-0.007": 7.54294010018,
			"-0.006": 17.4493677638,
			"-0.005": 22.1553689189,
			"-0.004": 24.915627996,
			"-0.003": 30.2228044208,
			"-0.002": 41.0982311237,
			"-0.001": 42.8850346167,
			"0.0": 40.6682471215,
			"0.001": 33.8577902188,
			"0.002": 27.7004326722,
			"0.003": 26.3884008139,
			"0.004": 14.8157582351,
			"0.005": 11.3069079777,
			"0.006": 11.1770242426,
			"0.007": 8.42714851754,
			"0.008": 6.04794590543,
			"0.009": 5.62699868429,
			"0.01": 3.9913881006,
			"0.011": 3.6364080885,
			"0.012": 1.2860268293,
			"0.013": 0.0,
			"0.014": 0.0,
			"0.015": 0.0,
			"0.016": 0.0,
			"0.017": 0.0,
			"0.018": 0.0,
			"0.019": 0.0,
			"0.02": 0.0,
			"0.021": 0.0,
			"0.022": 0.0,
			"0.023": 0.0,
			"0.024": 0.0,
			"0.025": 0.0
		}
	}
}
