{
	 "smiles": "CCC1=CC=C(C=C1)C(=O)CCC(O)=O", 
	 "Tm": 366.15, 
	 "num_atms": 29, 
	 "gaussian": { 
		 "optdone": 1, 
		 "sigma_profile": "yes", 
		 "theory": "DFT", 
		 "functional": "B3LYP", 
		 "basiset": "6-31G**", 
		 "properties": { 
			 "R2extent": 5531.6012, 
			 "electric_dipole_moment_norm": 5.03613191845, 
			 "electric_quadrupole_moment_norm": 22.6660202318, 
			 "total_energy": -691.418407809, 
			 "HOMO_LUMO_gap": 0.19565, 
			 "cosmo_polarized_energy": -15.37, 
			 "cosmo_cavitation_energy": 33.15, 
			 "cosmo_dispersion_energy": -23.44, 
			 "cosmo_repulsion_energy": 1.87, 
			 "cosmo_total_nonelectrostatic_energy": 11.58, 
			 "SMD_solvation_energy": 6.97 
		},
		"coords": [
			{
				"x": -2.2650654527,
				"y": -3.1403138982,
				"z": 2.3827995271,
				"element": "C" 
			},
			{
				"x": -1.1127673957,
				"y": -3.457355134,
				"z": 1.4113182701,
				"element": "C" 
			},
			{
				"x": -0.7584358837,
				"y": -2.284120471,
				"z": 0.5243955093,
				"element": "C" 
			},
			{
				"x": -1.4221586961,
				"y": -2.0771839635,
				"z": -0.6956234056,
				"element": "C" 
			},
			{
				"x": -1.1265644509,
				"y": -0.9796291524,
				"z": -1.4946790578,
				"element": "C" 
			},
			{
				"x": -0.1516953679,
				"y": -0.0494183934,
				"z": -1.0992780374,
				"element": "C" 
			},
			{
				"x": 0.5163768473,
				"y": -0.2515049362,
				"z": 0.11797424,
				"element": "C" 
			},
			{
				"x": 0.2144874505,
				"y": -1.3537043091,
				"z": 0.9149074792,
				"element": "C" 
			},
			{
				"x": 0.1267347159,
				"y": 1.1096760504,
				"z": -2.0011733869,
				"element": "C" 
			},
			{
				"x": -0.4846305549,
				"y": 1.2501695764,
				"z": -3.0514673343,
				"element": "O" 
			},
			{
				"x": 1.1926736664,
				"y": 2.1243018175,
				"z": -1.5949457544,
				"element": "C" 
			},
			{
				"x": 1.3814516676,
				"y": 3.2210730099,
				"z": -2.6435921527,
				"element": "C" 
			},
			{
				"x": 0.1751885411,
				"y": 4.104732484,
				"z": -2.8921195549,
				"element": "C" 
			},
			{
				"x": -0.6167351556,
				"y": 4.2241197373,
				"z": -1.7950271313,
				"element": "O" 
			},
			{
				"x": -0.0482179913,
				"y": 4.7010961687,
				"z": -3.9201971827,
				"element": "O" 
			},
			{
				"x": -3.1721654662,
				"y": -2.8601766934,
				"z": 1.8378431064,
				"element": "H" 
			},
			{
				"x": -2.4979670514,
				"y": -4.0089522829,
				"z": 3.0071314997,
				"element": "H" 
			},
			{
				"x": -2.0038651395,
				"y": -2.3069614935,
				"z": 3.042874845,
				"element": "H" 
			},
			{
				"x": -0.229748501,
				"y": -3.7620440928,
				"z": 1.9851860342,
				"element": "H" 
			},
			{
				"x": -1.3925955669,
				"y": -4.31448528,
				"z": 0.7875517339,
				"element": "H" 
			},
			{
				"x": -2.1759533489,
				"y": -2.7908733629,
				"z": -1.0195775294,
				"element": "H" 
			},
			{
				"x": -1.6353152525,
				"y": -0.8179250179,
				"z": -2.4392099498,
				"element": "H" 
			},
			{
				"x": 1.2767818044,
				"y": 0.4473690257,
				"z": 0.4515185871,
				"element": "H" 
			},
			{
				"x": 0.7442602305,
				"y": -1.497734125,
				"z": 1.8533931359,
				"element": "H" 
			},
			{
				"x": 2.1421129609,
				"y": 1.597763213,
				"z": -1.4354012956,
				"element": "H" 
			},
			{
				"x": 0.9157700939,
				"y": 2.5593086504,
				"z": -0.6280591829,
				"element": "H" 
			},
			{
				"x": 2.1977220746,
				"y": 3.8842635574,
				"z": -2.3301145991,
				"element": "H" 
			},
			{
				"x": 1.6606118591,
				"y": 2.8015136789,
				"z": -3.6117634166,
				"element": "H" 
			},
			{
				"x": -1.3436906371,
				"y": 4.8127956365,
				"z": -2.0581649962,
				"element": "H" 
			}
		],
		 "valence_orbital": [ 
			{
				"type": "occ",
				"energy": -0.3082,
				"method": "rhf"
			},
			{
				"type": "occ",
				"energy": -0.2642,
				"method": "rhf"
			},
			{
				"type": "occ",
				"energy": -0.26084,
				"method": "rhf"
			},
			{
				"type": "occ",
				"energy": -0.25204,
				"method": "rhf"
			},
			{
				"type": "occ",
				"energy": -0.25184,
				"method": "rhf"
			},
			{
				"type": "unocc",
				"energy": -0.05619,
				"method": "rhf"
			},
			{
				"type": "unocc",
				"energy": -0.01095,
				"method": "rhf"
			},
			{
				"type": "unocc",
				"energy": 0.02159,
				"method": "rhf"
			},
			{
				"type": "unocc",
				"energy": 0.03715,
				"method": "rhf"
			},
			{
				"type": "unocc",
				"energy": 0.07834,
				"method": "rhf"
			}
		],
		"cosmo_sigma_profile": { 
			"-0.025": 0.0,
			"-0.024": 0.0,
			"-0.023": 0.0,
			"-0.022": 0.0,
			"-0.021": 0.0,
			"-0.02": 0.0,
			"-0.019": 0.0,
			"-0.018": 0.458171579983,
			"-0.017": 1.02740488834,
			"-0.016": 0.56887375944,
			"-0.015": 0.728111373419,
			"-0.014": 1.18531968149,
			"-0.013": 0.407202416095,
			"-0.012": 0.697736695389,
			"-0.011": 0.73519861747,
			"-0.01": 0.839075059348,
			"-0.009": 0.543907496126,
			"-0.008": 0.45054099526,
			"-0.007": 5.15765232161,
			"-0.006": 13.8334416097,
			"-0.005": 19.4547130589,
			"-0.004": 22.6879879742,
			"-0.003": 23.3151134011,
			"-0.002": 22.2370105735,
			"-0.001": 21.2183814771,
			"0.0": 20.3965508989,
			"0.001": 17.9556460266,
			"0.002": 13.4164728293,
			"0.003": 12.8848390486,
			"0.004": 14.9625124415,
			"0.005": 7.64081019808,
			"0.006": 5.69426422771,
			"0.007": 4.4260470804,
			"0.008": 4.56227328929,
			"0.009": 3.89916130853,
			"0.01": 4.43018187238,
			"0.011": 5.57868732294,
			"0.012": 7.93962679191,
			"0.013": 1.80772981465,
			"0.014": 0.0327810568113,
			"0.015": 0.0,
			"0.016": 0.0,
			"0.017": 0.0,
			"0.018": 0.0,
			"0.019": 0.0,
			"0.02": 0.0,
			"0.021": 0.0,
			"0.022": 0.0,
			"0.023": 0.0,
			"0.024": 0.0,
			"0.025": 0.0
		}
	}
}
