{
	 "smiles": "FC(F)(F)C1=NC2=C(CCCC2)N1", 
	 "Tm": 503.15, 
	 "num_atms": 22, 
	 "gaussian": { 
		 "optdone": 1, 
		 "sigma_profile": "yes", 
		 "theory": "DFT", 
		 "functional": "B3LYP", 
		 "basiset": "6-31G**", 
		 "properties": { 
			 "R2extent": 4795.3289, 
			 "electric_dipole_moment_norm": 4.51763065002, 
			 "electric_quadrupole_moment_norm": 16.5184370335, 
			 "total_energy": -719.316466942, 
			 "HOMO_LUMO_gap": 0.22694, 
			 "cosmo_polarized_energy": -10.24, 
			 "cosmo_cavitation_energy": 26.1, 
			 "cosmo_dispersion_energy": -19.29, 
			 "cosmo_repulsion_energy": 1.49, 
			 "cosmo_total_nonelectrostatic_energy": 8.3, 
			 "SMD_solvation_energy": 2.79 
		},
		"coords": [
			{
				"x": -1.2877280306,
				"y": -0.1652519817,
				"z": -5.4797135594,
				"element": "F" 
			},
			{
				"x": -0.0969865323,
				"y": -0.3325191489,
				"z": -4.8763380425,
				"element": "C" 
			},
			{
				"x": 0.4469684863,
				"y": -1.4581900242,
				"z": -5.3728230458,
				"element": "F" 
			},
			{
				"x": 0.7001719656,
				"y": 0.7068030042,
				"z": -5.248324659,
				"element": "F" 
			},
			{
				"x": -0.211209415,
				"y": -0.3630013167,
				"z": -3.3867839631,
				"element": "C" 
			},
			{
				"x": -0.8989541985,
				"y": -1.2348326965,
				"z": -2.6826577273,
				"element": "N" 
			},
			{
				"x": -0.7040414263,
				"y": -0.8618183562,
				"z": -1.3732338252,
				"element": "C" 
			},
			{
				"x": 0.1085080939,
				"y": 0.2492016634,
				"z": -1.2947906771,
				"element": "C" 
			},
			{
				"x": 0.5522650832,
				"y": 0.9447698931,
				"z": -0.0477735439,
				"element": "C" 
			},
			{
				"x": -0.3294855666,
				"y": 0.4541323773,
				"z": 1.1228909222,
				"element": "C" 
			},
			{
				"x": -0.534555948,
				"y": -1.0728384615,
				"z": 1.0972041194,
				"element": "C" 
			},
			{
				"x": -1.2819379211,
				"y": -1.5423736622,
				"z": -0.1690007196,
				"element": "C" 
			},
			{
				"x": 0.4223949309,
				"y": 0.5611529046,
				"z": -2.5987618547,
				"element": "N" 
			},
			{
				"x": 0.4785340362,
				"y": 2.0355569739,
				"z": -0.1468747135,
				"element": "H" 
			},
			{
				"x": 1.60921414,
				"y": 0.7234481506,
				"z": 0.1615569481,
				"element": "H" 
			},
			{
				"x": -1.3074288744,
				"y": 0.9489010027,
				"z": 1.0634744475,
				"element": "H" 
			},
			{
				"x": 0.1227676216,
				"y": 0.7594937203,
				"z": 2.0725026621,
				"element": "H" 
			},
			{
				"x": 0.4461386297,
				"y": -1.5652799368,
				"z": 1.1402717934,
				"element": "H" 
			},
			{
				"x": -1.0829269311,
				"y": -1.3876805224,
				"z": 1.9916312408,
				"element": "H" 
			},
			{
				"x": -2.3526890132,
				"y": -1.3094360745,
				"z": -0.0827392076,
				"element": "H" 
			},
			{
				"x": -1.214177137,
				"y": -2.6305191475,
				"z": -0.278045789,
				"element": "H" 
			},
			{
				"x": 1.0013580068,
				"y": 1.317181639,
				"z": -2.9323708058,
				"element": "H" 
			}
		],
		 "valence_orbital": [ 
			{
				"type": "occ",
				"energy": -0.33739,
				"method": "rhf"
			},
			{
				"type": "occ",
				"energy": -0.33553,
				"method": "rhf"
			},
			{
				"type": "occ",
				"energy": -0.28468,
				"method": "rhf"
			},
			{
				"type": "occ",
				"energy": -0.27519,
				"method": "rhf"
			},
			{
				"type": "occ",
				"energy": -0.22464,
				"method": "rhf"
			},
			{
				"type": "unocc",
				"energy": 0.0023,
				"method": "rhf"
			},
			{
				"type": "unocc",
				"energy": 0.05371,
				"method": "rhf"
			},
			{
				"type": "unocc",
				"energy": 0.07701,
				"method": "rhf"
			},
			{
				"type": "unocc",
				"energy": 0.08645,
				"method": "rhf"
			},
			{
				"type": "unocc",
				"energy": 0.12197,
				"method": "rhf"
			}
		],
		"cosmo_sigma_profile": { 
			"-0.025": 0.0,
			"-0.024": 0.0,
			"-0.023": 0.0,
			"-0.022": 0.0,
			"-0.021": 0.0,
			"-0.02": 0.0,
			"-0.019": 0.0,
			"-0.018": 0.0,
			"-0.017": 0.347593959425,
			"-0.016": 1.11715018787,
			"-0.015": 0.587692720498,
			"-0.014": 0.906272696859,
			"-0.013": 1.17954135139,
			"-0.012": 1.37661018779,
			"-0.011": 0.620758045442,
			"-0.01": 1.12974460268,
			"-0.009": 1.46440504857,
			"-0.008": 1.27212632029,
			"-0.007": 1.51073273452,
			"-0.006": 2.21679836193,
			"-0.005": 4.0000732652,
			"-0.004": 8.81340550369,
			"-0.003": 18.6162439111,
			"-0.002": 25.7471703352,
			"-0.001": 26.1451398618,
			"0.0": 19.5193195906,
			"0.001": 14.6926575604,
			"0.002": 25.7157067568,
			"0.003": 26.1389471275,
			"0.004": 5.36497203665,
			"0.005": 3.08712660232,
			"0.006": 2.29785845663,
			"0.007": 1.87479427557,
			"0.008": 1.71300885362,
			"0.009": 0.880109278717,
			"0.01": 1.69249002978,
			"0.011": 1.17792226484,
			"0.012": 0.883854384091,
			"0.013": 1.08868152702,
			"0.014": 0.897395340833,
			"0.015": 0.718417590241,
			"0.016": 1.02412554146,
			"0.017": 0.257778618621,
			"0.018": 0.0,
			"0.019": 0.0,
			"0.02": 0.0,
			"0.021": 0.0,
			"0.022": 0.0,
			"0.023": 0.0,
			"0.024": 0.0,
			"0.025": 0.0
		}
	}
}
