{
	 "smiles": "COC1=CC(C(=O)CBr)=C(OC)C=C1", 
	 "Tm": 358.65, 
	 "num_atms": 25, 
	 "gaussian": { 
		 "optdone": 1, 
		 "sigma_profile": "yes", 
		 "theory": "DFT", 
		 "functional": "B3LYP", 
		 "basiset": "6-31G**", 
		 "properties": { 
			 "R2extent": 6531.2887, 
			 "electric_dipole_moment_norm": 5.1528154246, 
			 "electric_quadrupole_moment_norm": 26.9699076506, 
			 "total_energy": -3184.7388628, 
			 "HOMO_LUMO_gap": 0.15789, 
			 "cosmo_polarized_energy": -13.04, 
			 "cosmo_cavitation_energy": 31.1, 
			 "cosmo_dispersion_energy": -22.97, 
			 "cosmo_repulsion_energy": 1.82, 
			 "cosmo_total_nonelectrostatic_energy": 9.94, 
			 "SMD_solvation_energy": 6.18 
		},
		"coords": [
			{
				"x": 1.6640563554,
				"y": 3.5331987766,
				"z": -0.6231116275,
				"element": "C" 
			},
			{
				"x": 2.1138221149,
				"y": 2.187237993,
				"z": -0.5627533227,
				"element": "O" 
			},
			{
				"x": 1.1780626946,
				"y": 1.2098883615,
				"z": -0.3833432659,
				"element": "C" 
			},
			{
				"x": -0.1895040542,
				"y": 1.4272013654,
				"z": -0.2535586741,
				"element": "C" 
			},
			{
				"x": -1.091249399,
				"y": 0.3614437323,
				"z": -0.0709057025,
				"element": "C" 
			},
			{
				"x": -2.5359307145,
				"y": 0.7704560688,
				"z": 0.0513754777,
				"element": "C" 
			},
			{
				"x": -2.8412476089,
				"y": 1.9483941812,
				"z": -0.0086335333,
				"element": "O" 
			},
			{
				"x": -3.5936153431,
				"y": -0.3129939651,
				"z": 0.2492746777,
				"element": "C" 
			},
			{
				"x": -5.4094653571,
				"y": 0.4054165722,
				"z": 0.382803417,
				"element": "Br" 
			},
			{
				"x": -0.5872681756,
				"y": -0.956680062,
				"z": -0.019019365,
				"element": "C" 
			},
			{
				"x": -1.4781434945,
				"y": -1.9785022663,
				"z": 0.159211053,
				"element": "O" 
			},
			{
				"x": -0.9951251815,
				"y": -3.3142455867,
				"z": 0.2148397747,
				"element": "C" 
			},
			{
				"x": 0.7939465549,
				"y": -1.1707728208,
				"z": -0.1503958474,
				"element": "C" 
			},
			{
				"x": 1.6639655643,
				"y": -0.1041513076,
				"z": -0.3299292113,
				"element": "C" 
			},
			{
				"x": 1.1668392064,
				"y": 3.8354559775,
				"z": 0.3072995541,
				"element": "H" 
			},
			{
				"x": 2.557295995,
				"y": 4.1423654998,
				"z": -0.7686685725,
				"element": "H" 
			},
			{
				"x": 0.9759839481,
				"y": 3.6922673569,
				"z": -1.4630513845,
				"element": "H" 
			},
			{
				"x": -0.621664509,
				"y": 2.4190232195,
				"z": -0.2867456344,
				"element": "H" 
			},
			{
				"x": -3.4031858363,
				"y": -0.8782901886,
				"z": 1.1608288255,
				"element": "H" 
			},
			{
				"x": -3.5863383374,
				"y": -1.0177381376,
				"z": -0.5813962978,
				"element": "H" 
			},
			{
				"x": -0.495862206,
				"y": -3.6012241995,
				"z": -0.7185583241,
				"element": "H" 
			},
			{
				"x": -1.8748749859,
				"y": -3.9425913365,
				"z": 0.3600898392,
				"element": "H" 
			},
			{
				"x": -0.3050813611,
				"y": -3.4583568292,
				"z": 1.0550296158,
				"element": "H" 
			},
			{
				"x": 1.1993836384,
				"y": -2.1741155873,
				"z": -0.1131791021,
				"element": "H" 
			},
			{
				"x": 2.731400492,
				"y": -0.2713868177,
				"z": -0.4314023699,
				"element": "H" 
			}
		],
		 "valence_orbital": [ 
			{
				"type": "occ",
				"energy": -0.26676,
				"method": "rhf"
			},
			{
				"type": "occ",
				"energy": -0.26243,
				"method": "rhf"
			},
			{
				"type": "occ",
				"energy": -0.26129,
				"method": "rhf"
			},
			{
				"type": "occ",
				"energy": -0.25722,
				"method": "rhf"
			},
			{
				"type": "occ",
				"energy": -0.21625,
				"method": "rhf"
			},
			{
				"type": "unocc",
				"energy": -0.05836,
				"method": "rhf"
			},
			{
				"type": "unocc",
				"energy": 0.00622,
				"method": "rhf"
			},
			{
				"type": "unocc",
				"energy": 0.01564,
				"method": "rhf"
			},
			{
				"type": "unocc",
				"energy": 0.03601,
				"method": "rhf"
			},
			{
				"type": "unocc",
				"energy": 0.0804,
				"method": "rhf"
			}
		],
		"cosmo_sigma_profile": { 
			"-0.025": 0.0,
			"-0.024": 0.0,
			"-0.023": 0.0,
			"-0.022": 0.0,
			"-0.021": 0.0,
			"-0.02": 0.0,
			"-0.019": 0.0,
			"-0.018": 0.0,
			"-0.017": 0.0,
			"-0.016": 0.0,
			"-0.015": 0.0,
			"-0.014": 0.0,
			"-0.013": 0.0,
			"-0.012": 0.0,
			"-0.011": 0.0,
			"-0.01": 0.0,
			"-0.009": 0.0658334052496,
			"-0.008": 2.92886984013,
			"-0.007": 7.75238676607,
			"-0.006": 17.9328683133,
			"-0.005": 24.8195725273,
			"-0.004": 22.5445499263,
			"-0.003": 22.4397615768,
			"-0.002": 14.334890528,
			"-0.001": 14.4353929999,
			"0.0": 12.5885647018,
			"0.001": 14.7255848749,
			"0.002": 18.1362971312,
			"0.003": 21.3546635228,
			"0.004": 10.9350217633,
			"0.005": 9.2825366123,
			"0.006": 12.1792589084,
			"0.007": 4.5345787259,
			"0.008": 2.69543997797,
			"0.009": 5.16969137809,
			"0.01": 3.46841018645,
			"0.011": 3.92006027252,
			"0.012": 2.81012167574,
			"0.013": 1.51849594496,
			"0.014": 0.0872495566187,
			"0.015": 0.0,
			"0.016": 0.0,
			"0.017": 0.0,
			"0.018": 0.0,
			"0.019": 0.0,
			"0.02": 0.0,
			"0.021": 0.0,
			"0.022": 0.0,
			"0.023": 0.0,
			"0.024": 0.0,
			"0.025": 0.0
		}
	}
}
