{
	 "smiles": "BrC1=CC(Br)=C(OC2=CC=C(Br)C(Br)=C2)C(Br)=C1", 
	 "Tm": 359.65, 
	 "num_atms": 23, 
	 "gaussian": { 
		 "optdone": 1, 
		 "sigma_profile": "yes", 
		 "theory": "DFT", 
		 "functional": "B3LYP", 
		 "basiset": "6-31G**", 
		 "properties": { 
			 "R2extent": 18345.8926, 
			 "electric_dipole_moment_norm": 2.65883611003, 
			 "electric_quadrupole_moment_norm": 7.66697270831, 
			 "total_energy": -13392.5090267, 
			 "HOMO_LUMO_gap": 0.18767, 
			 "cosmo_polarized_energy": -7.12, 
			 "cosmo_cavitation_energy": 40.06, 
			 "cosmo_dispersion_energy": -29.64, 
			 "cosmo_repulsion_energy": 2.33, 
			 "cosmo_total_nonelectrostatic_energy": 12.74, 
			 "SMD_solvation_energy": 1.44 
		},
		"coords": [
			{
				"x": 1.5053282653,
				"y": 6.3505267524,
				"z": -1.9938725553,
				"element": "Br" 
			},
			{
				"x": 1.0217356016,
				"y": 4.5919721283,
				"z": -1.4449564756,
				"element": "C" 
			},
			{
				"x": 1.830793016,
				"y": 3.915379713,
				"z": -0.5353149195,
				"element": "C" 
			},
			{
				"x": 1.4686605323,
				"y": 2.6290339442,
				"z": -0.1396717257,
				"element": "C" 
			},
			{
				"x": 2.5594984515,
				"y": 1.706639545,
				"z": 1.110685803,
				"element": "Br" 
			},
			{
				"x": 0.3129938418,
				"y": 2.0119159836,
				"z": -0.6405672942,
				"element": "C" 
			},
			{
				"x": -0.0845318682,
				"y": 0.7869612043,
				"z": -0.1745548404,
				"element": "O" 
			},
			{
				"x": 0.3247486357,
				"y": -0.3677181415,
				"z": -0.8163509589,
				"element": "C" 
			},
			{
				"x": 1.1430143881,
				"y": -0.3871502561,
				"z": -1.9447797599,
				"element": "C" 
			},
			{
				"x": 1.489590221,
				"y": -1.6147420059,
				"z": -2.5050162948,
				"element": "C" 
			},
			{
				"x": 1.0329766549,
				"y": -2.8137530306,
				"z": -1.9569753453,
				"element": "C" 
			},
			{
				"x": 1.5546524381,
				"y": -4.4435561425,
				"z": -2.7847963569,
				"element": "Br" 
			},
			{
				"x": 0.2111744335,
				"y": -2.7764123771,
				"z": -0.8226259021,
				"element": "C" 
			},
			{
				"x": -0.457289496,
				"y": -4.3585007597,
				"z": -0.0086743704,
				"element": "Br" 
			},
			{
				"x": -0.1419314246,
				"y": -1.5550955168,
				"z": -0.2538213433,
				"element": "C" 
			},
			{
				"x": -0.4812719118,
				"y": 2.7247599411,
				"z": -1.5506660495,
				"element": "C" 
			},
			{
				"x": -2.0652919444,
				"y": 1.933648515,
				"z": -2.235613389,
				"element": "Br" 
			},
			{
				"x": -0.1358102189,
				"y": 4.0119609417,
				"z": -1.9582748552,
				"element": "C" 
			},
			{
				"x": 2.7251701798,
				"y": 4.3761950766,
				"z": -0.137016908,
				"element": "H" 
			},
			{
				"x": 1.5081549859,
				"y": 0.5328053914,
				"z": -2.3855741951,
				"element": "H" 
			},
			{
				"x": 2.1251727901,
				"y": -1.6451930781,
				"z": -3.3824713699,
				"element": "H" 
			},
			{
				"x": -0.7764364368,
				"y": -1.5154196953,
				"z": 0.6227162164,
				"element": "H" 
			},
			{
				"x": -0.7617011349,
				"y": 4.5474418671,
				"z": -2.6600071105,
				"element": "H" 
			}
		],
		 "valence_orbital": [ 
			{
				"type": "occ",
				"energy": -0.27895,
				"method": "rhf"
			},
			{
				"type": "occ",
				"energy": -0.26724,
				"method": "rhf"
			},
			{
				"type": "occ",
				"energy": -0.26178,
				"method": "rhf"
			},
			{
				"type": "occ",
				"energy": -0.25979,
				"method": "rhf"
			},
			{
				"type": "occ",
				"energy": -0.23802,
				"method": "rhf"
			},
			{
				"type": "unocc",
				"energy": -0.05035,
				"method": "rhf"
			},
			{
				"type": "unocc",
				"energy": -0.04769,
				"method": "rhf"
			},
			{
				"type": "unocc",
				"energy": -0.04626,
				"method": "rhf"
			},
			{
				"type": "unocc",
				"energy": -0.02979,
				"method": "rhf"
			},
			{
				"type": "unocc",
				"energy": -0.02206,
				"method": "rhf"
			}
		],
		"cosmo_sigma_profile": { 
			"-0.025": 0.0,
			"-0.024": 0.0,
			"-0.023": 0.0,
			"-0.022": 0.0,
			"-0.021": 0.0,
			"-0.02": 0.0,
			"-0.019": 0.0,
			"-0.018": 0.0,
			"-0.017": 0.0,
			"-0.016": 0.0,
			"-0.015": 0.0,
			"-0.014": 0.0,
			"-0.013": 0.0,
			"-0.012": 0.0,
			"-0.011": 0.0,
			"-0.01": 0.0,
			"-0.009": 1.85434416816,
			"-0.008": 6.27657214784,
			"-0.007": 8.22771668982,
			"-0.006": 11.1904873074,
			"-0.005": 15.3044287994,
			"-0.004": 14.6974778837,
			"-0.003": 17.7173309034,
			"-0.002": 21.3261648092,
			"-0.001": 31.1085227517,
			"0.0": 38.8552571655,
			"0.001": 41.503417707,
			"0.002": 41.6243412807,
			"0.003": 46.9911106608,
			"0.004": 31.9754964233,
			"0.005": 8.01940414728,
			"0.006": 2.41323146997,
			"0.007": 0.587247081872,
			"0.008": 0.0,
			"0.009": 0.0,
			"0.01": 0.0,
			"0.011": 0.0,
			"0.012": 0.0,
			"0.013": 0.0,
			"0.014": 0.0,
			"0.015": 0.0,
			"0.016": 0.0,
			"0.017": 0.0,
			"0.018": 0.0,
			"0.019": 0.0,
			"0.02": 0.0,
			"0.021": 0.0,
			"0.022": 0.0,
			"0.023": 0.0,
			"0.024": 0.0,
			"0.025": 0.0
		}
	}
}
