{
	 "smiles": "CC1(NC(=O)N(N)C1=O)C1=CC=CC=C1", 
	 "Tm": 443.15, 
	 "num_atms": 26, 
	 "gaussian": { 
		 "optdone": 1, 
		 "sigma_profile": "yes", 
		 "theory": "DFT", 
		 "functional": "B3LYP", 
		 "basiset": "6-31G**", 
		 "properties": { 
			 "R2extent": 3989.2521, 
			 "electric_dipole_moment_norm": 2.61354600687, 
			 "electric_quadrupole_moment_norm": 7.58151745035, 
			 "total_energy": -702.401848899, 
			 "HOMO_LUMO_gap": 0.2282, 
			 "cosmo_polarized_energy": -18.82, 
			 "cosmo_cavitation_energy": 29.9, 
			 "cosmo_dispersion_energy": -21.19, 
			 "cosmo_repulsion_energy": 1.67, 
			 "cosmo_total_nonelectrostatic_energy": 10.38, 
			 "SMD_solvation_energy": 7.3 
		},
		"coords": [
			{
				"x": 0.205509693,
				"y": 2.6094103782,
				"z": -0.6143311241,
				"element": "C" 
			},
			{
				"x": -0.8894578479,
				"y": 1.5251172001,
				"z": -0.5472037212,
				"element": "C" 
			},
			{
				"x": -2.2000484533,
				"y": 2.0770103817,
				"z": -0.898975747,
				"element": "N" 
			},
			{
				"x": -3.0703660325,
				"y": 2.1207916113,
				"z": 0.1560866039,
				"element": "C" 
			},
			{
				"x": -4.1744956031,
				"y": 2.6243074818,
				"z": 0.2261098523,
				"element": "O" 
			},
			{
				"x": -2.4217789482,
				"y": 1.4632648934,
				"z": 1.227248216,
				"element": "N" 
			},
			{
				"x": -3.0024611828,
				"y": 1.3278443976,
				"z": 2.492656743,
				"element": "N" 
			},
			{
				"x": -1.1113569611,
				"y": 1.1254219036,
				"z": 0.9391687249,
				"element": "C" 
			},
			{
				"x": -0.2938911715,
				"y": 0.6282436409,
				"z": 1.6796785381,
				"element": "O" 
			},
			{
				"x": -0.5143667673,
				"y": 0.2985011337,
				"z": -1.3884389397,
				"element": "C" 
			},
			{
				"x": -1.2931110491,
				"y": -0.10248408,
				"z": -2.4793129107,
				"element": "C" 
			},
			{
				"x": -0.9161166892,
				"y": -1.2007331308,
				"z": -3.25568045,
				"element": "C" 
			},
			{
				"x": 0.2392307931,
				"y": -1.9169738575,
				"z": -2.94569111,
				"element": "C" 
			},
			{
				"x": 1.013436258,
				"y": -1.5311792071,
				"z": -1.8491785485,
				"element": "C" 
			},
			{
				"x": 0.6429973466,
				"y": -0.4313620991,
				"z": -1.07676609,
				"element": "C" 
			},
			{
				"x": 1.149371538,
				"y": 2.2178839156,
				"z": -0.2308136464,
				"element": "H" 
			},
			{
				"x": -0.0779963425,
				"y": 3.4804226132,
				"z": -0.0155416035,
				"element": "H" 
			},
			{
				"x": 0.3573233157,
				"y": 2.9244221234,
				"z": -1.6513837416,
				"element": "H" 
			},
			{
				"x": -2.3407344939,
				"y": 2.704685475,
				"z": -1.6768229451,
				"element": "H" 
			},
			{
				"x": -3.5323560491,
				"y": 2.1814090958,
				"z": 2.6624050623,
				"element": "H" 
			},
			{
				"x": -3.678191209,
				"y": 0.5661907173,
				"z": 2.4504921572,
				"element": "H" 
			},
			{
				"x": -2.2038393474,
				"y": 0.4363789752,
				"z": -2.7171410663,
				"element": "H" 
			},
			{
				"x": -1.5319031432,
				"y": -1.4962222545,
				"z": -4.1004452955,
				"element": "H" 
			},
			{
				"x": 0.5316211317,
				"y": -2.7720462987,
				"z": -3.548257311,
				"element": "H" 
			},
			{
				"x": 1.9080883145,
				"y": -2.0900503249,
				"z": -1.5899936038,
				"element": "H" 
			},
			{
				"x": 1.2327929007,
				"y": -0.1573546853,
				"z": -0.2090680433,
				"element": "H" 
			}
		],
		 "valence_orbital": [ 
			{
				"type": "occ",
				"energy": -0.28098,
				"method": "rhf"
			},
			{
				"type": "occ",
				"energy": -0.26722,
				"method": "rhf"
			},
			{
				"type": "occ",
				"energy": -0.26457,
				"method": "rhf"
			},
			{
				"type": "occ",
				"energy": -0.25391,
				"method": "rhf"
			},
			{
				"type": "occ",
				"energy": -0.24751,
				"method": "rhf"
			},
			{
				"type": "unocc",
				"energy": -0.01931,
				"method": "rhf"
			},
			{
				"type": "unocc",
				"energy": -0.00602,
				"method": "rhf"
			},
			{
				"type": "unocc",
				"energy": 0.00254,
				"method": "rhf"
			},
			{
				"type": "unocc",
				"energy": 0.05276,
				"method": "rhf"
			},
			{
				"type": "unocc",
				"energy": 0.07287,
				"method": "rhf"
			}
		],
		"cosmo_sigma_profile": { 
			"-0.025": 0.0,
			"-0.024": 0.0,
			"-0.023": 0.0,
			"-0.022": 0.0,
			"-0.021": 0.0,
			"-0.02": 0.0,
			"-0.019": 0.0,
			"-0.018": 0.0,
			"-0.017": 0.0,
			"-0.016": 0.172908460871,
			"-0.015": 1.03373125745,
			"-0.014": 1.24604356138,
			"-0.013": 2.65911900435,
			"-0.012": 4.39924859537,
			"-0.011": 3.39930500045,
			"-0.01": 3.57377139682,
			"-0.009": 3.92149961738,
			"-0.008": 3.11304250632,
			"-0.007": 4.95202376867,
			"-0.006": 10.8179513629,
			"-0.005": 17.6745295446,
			"-0.004": 19.5789903992,
			"-0.003": 19.3736306886,
			"-0.002": 14.4501005377,
			"-0.001": 15.3686730948,
			"0.0": 11.5849511624,
			"0.001": 11.1608339654,
			"0.002": 10.0231286797,
			"0.003": 9.93723502456,
			"0.004": 11.8615297163,
			"0.005": 12.8079665138,
			"0.006": 7.37850614586,
			"0.007": 2.31685892084,
			"0.008": 2.91766438253,
			"0.009": 3.71519429575,
			"0.01": 3.51308371443,
			"0.011": 6.45824475114,
			"0.012": 8.4352702754,
			"0.013": 4.96532371663,
			"0.014": 2.00986865352,
			"0.015": 1.20609806135,
			"0.016": 0.928178463,
			"0.017": 0.188943165605,
			"0.018": 0.0,
			"0.019": 0.0,
			"0.02": 0.0,
			"0.021": 0.0,
			"0.022": 0.0,
			"0.023": 0.0,
			"0.024": 0.0,
			"0.025": 0.0
		}
	}
}
