{
	 "smiles": "CCCCCCCCCCC(=O)OC", 
	 "Tm": 263.15, 
	 "num_atms": 38, 
	 "gaussian": { 
		 "optdone": 1, 
		 "sigma_profile": "yes", 
		 "theory": "DFT", 
		 "functional": "B3LYP", 
		 "basiset": "6-31G**", 
		 "properties": { 
			 "R2extent": 6927.3897, 
			 "electric_dipole_moment_norm": 1.77438312943, 
			 "electric_quadrupole_moment_norm": 11.820255625, 
			 "total_energy": -622.227208924, 
			 "HOMO_LUMO_gap": 0.27854, 
			 "cosmo_polarized_energy": -6.59, 
			 "cosmo_cavitation_energy": 39.01, 
			 "cosmo_dispersion_energy": -26.8, 
			 "cosmo_repulsion_energy": 2.2, 
			 "cosmo_total_nonelectrostatic_energy": 14.42, 
			 "SMD_solvation_energy": 7.17 
		},
		"coords": [
			{
				"x": 3.7103662608,
				"y": 3.0459226398,
				"z": -3.8076722948,
				"element": "C" 
			},
			{
				"x": 2.3544105311,
				"y": 3.7614290999,
				"z": -3.7722521955,
				"element": "C" 
			},
			{
				"x": 1.3072811724,
				"y": 3.0973734011,
				"z": -2.8621479731,
				"element": "C" 
			},
			{
				"x": 0.8544005741,
				"y": 1.7051712591,
				"z": -3.3272091837,
				"element": "C" 
			},
			{
				"x": -0.3095565138,
				"y": 1.1115738247,
				"z": -2.513100285,
				"element": "C" 
			},
			{
				"x": -0.0286419754,
				"y": 0.8425501672,
				"z": -1.0230525918,
				"element": "C" 
			},
			{
				"x": 1.0604378595,
				"y": -0.208603231,
				"z": -0.7633908271,
				"element": "C" 
			},
			{
				"x": 1.3457738283,
				"y": -0.4756359237,
				"z": 0.7256932165,
				"element": "C" 
			},
			{
				"x": 0.1847519495,
				"y": -1.0624512263,
				"z": 1.5465330418,
				"element": "C" 
			},
			{
				"x": -0.2659794948,
				"y": -2.4590694218,
				"z": 1.069962268,
				"element": "C" 
			},
			{
				"x": -1.3710103433,
				"y": -3.0244320491,
				"z": 1.9364915487,
				"element": "C" 
			},
			{
				"x": -2.5359452026,
				"y": -3.1304584098,
				"z": 1.6181071595,
				"element": "O" 
			},
			{
				"x": -0.8994735073,
				"y": -3.3862111759,
				"z": 3.1548805284,
				"element": "O" 
			},
			{
				"x": -1.8837877752,
				"y": -3.9015162724,
				"z": 4.0646088413,
				"element": "C" 
			},
			{
				"x": 4.1382147687,
				"y": 2.9624115095,
				"z": -2.8015056404,
				"element": "H" 
			},
			{
				"x": 4.4283530496,
				"y": 3.5923770895,
				"z": -4.4281838794,
				"element": "H" 
			},
			{
				"x": 3.6283066907,
				"y": 2.033820682,
				"z": -4.2169753001,
				"element": "H" 
			},
			{
				"x": 1.9522191346,
				"y": 3.8317347612,
				"z": -4.7924131229,
				"element": "H" 
			},
			{
				"x": 2.5071560451,
				"y": 4.7948930987,
				"z": -3.4355503075,
				"element": "H" 
			},
			{
				"x": 0.4259820516,
				"y": 3.7512282846,
				"z": -2.8022194654,
				"element": "H" 
			},
			{
				"x": 1.7108391152,
				"y": 3.0394221438,
				"z": -1.8419215916,
				"element": "H" 
			},
			{
				"x": 0.538151796,
				"y": 1.7726504167,
				"z": -4.3775101432,
				"element": "H" 
			},
			{
				"x": 1.7043998076,
				"y": 1.0119533925,
				"z": -3.3173011945,
				"element": "H" 
			},
			{
				"x": -1.1705232819,
				"y": 1.7898003642,
				"z": -2.5880333346,
				"element": "H" 
			},
			{
				"x": -0.6252746658,
				"y": 0.1711140398,
				"z": -2.9852886624,
				"element": "H" 
			},
			{
				"x": 0.2465533279,
				"y": 1.7787049146,
				"z": -0.5183917861,
				"element": "H" 
			},
			{
				"x": -0.9679935521,
				"y": 0.51854657,
				"z": -0.5576992065,
				"element": "H" 
			},
			{
				"x": 0.7868694216,
				"y": -1.1453498159,
				"z": -1.2685359752,
				"element": "H" 
			},
			{
				"x": 1.9990242506,
				"y": 0.1146975569,
				"z": -1.2302779389,
				"element": "H" 
			},
			{
				"x": 2.2070317393,
				"y": -1.1530446955,
				"z": 0.8048671848,
				"element": "H" 
			},
			{
				"x": 1.6574442381,
				"y": 0.4654989518,
				"z": 1.1986266932,
				"element": "H" 
			},
			{
				"x": -0.6759320521,
				"y": -0.3831806728,
				"z": 1.5269037525,
				"element": "H" 
			},
			{
				"x": 0.4952719104,
				"y": -1.1377320366,
				"z": 2.5944623297,
				"element": "H" 
			},
			{
				"x": 0.5893745937,
				"y": -3.1445481938,
				"z": 1.0953640198,
				"element": "H" 
			},
			{
				"x": -0.650636442,
				"y": -2.422786696,
				"z": 0.048554495,
				"element": "H" 
			},
			{
				"x": -2.3547451379,
				"y": -4.7992049599,
				"z": 3.6557908651,
				"element": "H" 
			},
			{
				"x": -2.6602238584,
				"y": -3.1565629405,
				"z": 4.2571001096,
				"element": "H" 
			},
			{
				"x": -1.3442903135,
				"y": -4.1372864465,
				"z": 4.9820868455,
				"element": "H" 
			}
		],
		 "valence_orbital": [ 
			{
				"type": "occ",
				"energy": -0.30705,
				"method": "rhf"
			},
			{
				"type": "occ",
				"energy": -0.30349,
				"method": "rhf"
			},
			{
				"type": "occ",
				"energy": -0.30233,
				"method": "rhf"
			},
			{
				"type": "occ",
				"energy": -0.29619,
				"method": "rhf"
			},
			{
				"type": "occ",
				"energy": -0.26322,
				"method": "rhf"
			},
			{
				"type": "unocc",
				"energy": 0.01532,
				"method": "rhf"
			},
			{
				"type": "unocc",
				"energy": 0.07424,
				"method": "rhf"
			},
			{
				"type": "unocc",
				"energy": 0.09577,
				"method": "rhf"
			},
			{
				"type": "unocc",
				"energy": 0.10415,
				"method": "rhf"
			},
			{
				"type": "unocc",
				"energy": 0.11079,
				"method": "rhf"
			}
		],
		"cosmo_sigma_profile": { 
			"-0.025": 0.0,
			"-0.024": 0.0,
			"-0.023": 0.0,
			"-0.022": 0.0,
			"-0.021": 0.0,
			"-0.02": 0.0,
			"-0.019": 0.0,
			"-0.018": 0.0,
			"-0.017": 0.0,
			"-0.016": 0.0,
			"-0.015": 0.0,
			"-0.014": 0.0,
			"-0.013": 0.0,
			"-0.012": 0.0,
			"-0.011": 0.0,
			"-0.01": 0.0,
			"-0.009": 0.0,
			"-0.008": 0.0,
			"-0.007": 0.285426447779,
			"-0.006": 3.39148742148,
			"-0.005": 8.13756781698,
			"-0.004": 12.5300068558,
			"-0.003": 24.2951781671,
			"-0.002": 42.7405862041,
			"-0.001": 57.7448772474,
			"0.0": 55.777358261,
			"0.001": 46.2825683667,
			"0.002": 18.0664297873,
			"0.003": 3.79516367949,
			"0.004": 3.24141528939,
			"0.005": 2.12968772633,
			"0.006": 3.36406884923,
			"0.007": 2.31423795087,
			"0.008": 2.31282564237,
			"0.009": 2.2070204452,
			"0.01": 1.75867084106,
			"0.011": 2.49677418838,
			"0.012": 5.06129357565,
			"0.013": 2.18571258933,
			"0.014": 0.244851483079,
			"0.015": 0.0,
			"0.016": 0.0,
			"0.017": 0.0,
			"0.018": 0.0,
			"0.019": 0.0,
			"0.02": 0.0,
			"0.021": 0.0,
			"0.022": 0.0,
			"0.023": 0.0,
			"0.024": 0.0,
			"0.025": 0.0
		}
	}
}
