{
	 "smiles": "C1CCCCCCCC1", 
	 "Tm": 284.15, 
	 "num_atms": 27, 
	 "gaussian": { 
		 "optdone": 1, 
		 "sigma_profile": "yes", 
		 "theory": "DFT", 
		 "functional": "B3LYP", 
		 "basiset": "6-31G**", 
		 "properties": { 
			 "R2extent": 1524.9675, 
			 "electric_dipole_moment_norm": 0.100297258188, 
			 "electric_quadrupole_moment_norm": 0.183362891557, 
			 "total_energy": -353.817125408, 
			 "HOMO_LUMO_gap": 0.36617, 
			 "cosmo_polarized_energy": -0.52, 
			 "cosmo_cavitation_energy": 24.47, 
			 "cosmo_dispersion_energy": -18.84, 
			 "cosmo_repulsion_energy": 1.54, 
			 "cosmo_total_nonelectrostatic_energy": 7.16, 
			 "SMD_solvation_energy": 2.83 
		},
		"coords": [
			{
				"x": -0.0510615889,
				"y": -0.8235276554,
				"z": 1.1457027891,
				"element": "C" 
			},
			{
				"x": 0.9691324963,
				"y": -1.9165033384,
				"z": 0.7832488343,
				"element": "C" 
			},
			{
				"x": 1.6310598439,
				"y": -1.8989593244,
				"z": -0.610491574,
				"element": "C" 
			},
			{
				"x": 0.6882283065,
				"y": -1.856877844,
				"z": -1.8378944919,
				"element": "C" 
			},
			{
				"x": 0.4571725837,
				"y": -0.497776967,
				"z": -2.5408341281,
				"element": "C" 
			},
			{
				"x": -0.5386593751,
				"y": 0.5005936702,
				"z": -1.9015097937,
				"element": "C" 
			},
			{
				"x": 0.0605360242,
				"y": 1.6569884659,
				"z": -1.0738672599,
				"element": "C" 
			},
			{
				"x": 1.0415994159,
				"y": 1.336789846,
				"z": 0.067191944,
				"element": "C" 
			},
			{
				"x": 0.4773931922,
				"y": 0.6139060751,
				"z": 1.3040059513,
				"element": "C" 
			},
			{
				"x": -0.4941210115,
				"y": -1.1091262437,
				"z": 2.1095138531,
				"element": "H" 
			},
			{
				"x": -0.8814450756,
				"y": -0.8465683908,
				"z": 0.4335048764,
				"element": "H" 
			},
			{
				"x": 0.4582588386,
				"y": -2.8835449933,
				"z": 0.8922064431,
				"element": "H" 
			},
			{
				"x": 1.7671798951,
				"y": -1.9180351855,
				"z": 1.5393534832,
				"element": "H" 
			},
			{
				"x": 2.3599385644,
				"y": -1.0848078297,
				"z": -0.6832215163,
				"element": "H" 
			},
			{
				"x": 2.2285895247,
				"y": -2.8175583637,
				"z": -0.6735820409,
				"element": "H" 
			},
			{
				"x": 1.1107604374,
				"y": -2.526366659,
				"z": -2.5974065552,
				"element": "H" 
			},
			{
				"x": -0.2848117642,
				"y": -2.296061023,
				"z": -1.5757169685,
				"element": "H" 
			},
			{
				"x": 0.0848355163,
				"y": -0.7322469232,
				"z": -3.5458157946,
				"element": "H" 
			},
			{
				"x": 1.4273338269,
				"y": -0.0060448989,
				"z": -2.7002641202,
				"element": "H" 
			},
			{
				"x": -1.2817341246,
				"y": -0.051056588,
				"z": -1.3159793629,
				"element": "H" 
			},
			{
				"x": -1.1119180795,
				"y": 0.9722797126,
				"z": -2.7100458681,
				"element": "H" 
			},
			{
				"x": -0.7702143578,
				"y": 2.2514756137,
				"z": -0.6676551192,
				"element": "H" 
			},
			{
				"x": 0.585422918,
				"y": 2.3233486996,
				"z": -1.7727785927,
				"element": "H" 
			},
			{
				"x": 1.448005057,
				"y": 2.2960792665,
				"z": 0.4156214176,
				"element": "H" 
			},
			{
				"x": 1.9026463673,
				"y": 0.791892358,
				"z": -0.3316486923,
				"element": "H" 
			},
			{
				"x": -0.3363359143,
				"y": 1.2283162913,
				"z": 1.7153520806,
				"element": "H" 
			},
			{
				"x": 1.2605084832,
				"y": 0.605592229,
				"z": 2.0757102059,
				"element": "H" 
			}
		],
		 "valence_orbital": [ 
			{
				"type": "occ",
				"energy": -0.30405,
				"method": "rhf"
			},
			{
				"type": "occ",
				"energy": -0.30309,
				"method": "rhf"
			},
			{
				"type": "occ",
				"energy": -0.29901,
				"method": "rhf"
			},
			{
				"type": "occ",
				"energy": -0.29176,
				"method": "rhf"
			},
			{
				"type": "occ",
				"energy": -0.28861,
				"method": "rhf"
			},
			{
				"type": "unocc",
				"energy": 0.07756,
				"method": "rhf"
			},
			{
				"type": "unocc",
				"energy": 0.10002,
				"method": "rhf"
			},
			{
				"type": "unocc",
				"energy": 0.11053,
				"method": "rhf"
			},
			{
				"type": "unocc",
				"energy": 0.11243,
				"method": "rhf"
			},
			{
				"type": "unocc",
				"energy": 0.12282,
				"method": "rhf"
			}
		],
		"cosmo_sigma_profile": { 
			"-0.025": 0.0,
			"-0.024": 0.0,
			"-0.023": 0.0,
			"-0.022": 0.0,
			"-0.021": 0.0,
			"-0.02": 0.0,
			"-0.019": 0.0,
			"-0.018": 0.0,
			"-0.017": 0.0,
			"-0.016": 0.0,
			"-0.015": 0.0,
			"-0.014": 0.0,
			"-0.013": 0.0,
			"-0.012": 0.0,
			"-0.011": 0.0,
			"-0.01": 0.0,
			"-0.009": 0.0,
			"-0.008": 0.0,
			"-0.007": 0.0,
			"-0.006": 0.0,
			"-0.005": 0.0,
			"-0.004": 0.0,
			"-0.003": 2.00935538551,
			"-0.002": 19.6002930615,
			"-0.001": 44.0263756216,
			"0.0": 52.8804826055,
			"0.001": 46.5843803966,
			"0.002": 21.1966672072,
			"0.003": 0.0777925321695,
			"0.004": 0.0,
			"0.005": 0.0,
			"0.006": 0.0,
			"0.007": 0.0,
			"0.008": 0.0,
			"0.009": 0.0,
			"0.01": 0.0,
			"0.011": 0.0,
			"0.012": 0.0,
			"0.013": 0.0,
			"0.014": 0.0,
			"0.015": 0.0,
			"0.016": 0.0,
			"0.017": 0.0,
			"0.018": 0.0,
			"0.019": 0.0,
			"0.02": 0.0,
			"0.021": 0.0,
			"0.022": 0.0,
			"0.023": 0.0,
			"0.024": 0.0,
			"0.025": 0.0
		}
	}
}
