{
	 "smiles": "NC1=CC=C(C=C1)N1C=CNC1=O", 
	 "Tm": 491.15, 
	 "num_atms": 22, 
	 "gaussian": { 
		 "optdone": 1, 
		 "sigma_profile": "yes", 
		 "theory": "DFT", 
		 "functional": "B3LYP", 
		 "basiset": "6-31G**", 
		 "properties": { 
			 "R2extent": 2962.8913, 
			 "electric_dipole_moment_norm": 2.78916118932, 
			 "electric_quadrupole_moment_norm": 23.3213000622, 
			 "total_energy": -587.868721851, 
			 "HOMO_LUMO_gap": 0.18246, 
			 "cosmo_polarized_energy": -18.41, 
			 "cosmo_cavitation_energy": 26.12, 
			 "cosmo_dispersion_energy": -19.63, 
			 "cosmo_repulsion_energy": 1.54, 
			 "cosmo_total_nonelectrostatic_energy": 8.03, 
			 "SMD_solvation_energy": 5.8 
		},
		"coords": [
			{
				"x": -2.1096952685,
				"y": -0.5879210738,
				"z": -2.9730520993,
				"element": "N" 
			},
			{
				"x": -1.4055698808,
				"y": -0.4442899657,
				"z": -1.7730497262,
				"element": "C" 
			},
			{
				"x": -0.3484274465,
				"y": 0.4726596225,
				"z": -1.6611264151,
				"element": "C" 
			},
			{
				"x": 0.3173940471,
				"y": 0.6488202444,
				"z": -0.4516343491,
				"element": "C" 
			},
			{
				"x": -0.067503942,
				"y": -0.0693970387,
				"z": 0.6864134487,
				"element": "C" 
			},
			{
				"x": -1.1198041872,
				"y": -0.9891516997,
				"z": 0.5849726021,
				"element": "C" 
			},
			{
				"x": -1.7706790252,
				"y": -1.1746110143,
				"z": -0.629499918,
				"element": "C" 
			},
			{
				"x": 0.5978026875,
				"y": 0.144510133,
				"z": 1.9239842841,
				"element": "N" 
			},
			{
				"x": 1.2099639598,
				"y": 1.3411369172,
				"z": 2.3227032133,
				"element": "C" 
			},
			{
				"x": 1.7964563665,
				"y": 1.1368996524,
				"z": 3.5215303135,
				"element": "C" 
			},
			{
				"x": 1.5558583344,
				"y": -0.1887771533,
				"z": 3.8734740553,
				"element": "N" 
			},
			{
				"x": 0.8061110689,
				"y": -0.8414425836,
				"z": 2.9047550429,
				"element": "C" 
			},
			{
				"x": 0.4223901605,
				"y": -2.0042179936,
				"z": 2.9167102531,
				"element": "O" 
			},
			{
				"x": -1.5883233717,
				"y": -0.3393979333,
				"z": -3.802998211,
				"element": "H" 
			},
			{
				"x": -2.5776624467,
				"y": -1.4773072876,
				"z": -3.0842121153,
				"element": "H" 
			},
			{
				"x": -0.0377152271,
				"y": 1.0449977947,
				"z": -2.5316864981,
				"element": "H" 
			},
			{
				"x": 1.1551513665,
				"y": 1.3373484585,
				"z": -0.4034839547,
				"element": "H" 
			},
			{
				"x": -1.4033898747,
				"y": -1.5700654727,
				"z": 1.452830393,
				"element": "H" 
			},
			{
				"x": -2.5844539714,
				"y": -1.8930195101,
				"z": -0.6914319452,
				"element": "H" 
			},
			{
				"x": 1.1334028126,
				"y": 2.239280295,
				"z": 1.7332691191,
				"element": "H" 
			},
			{
				"x": 2.3410960464,
				"y": 1.8167046151,
				"z": 4.156179479,
				"element": "H" 
			},
			{
				"x": 1.8510977916,
				"y": -0.6610590066,
				"z": 4.7116530278,
				"element": "H" 
			}
		],
		 "valence_orbital": [ 
			{
				"type": "occ",
				"energy": -0.28505,
				"method": "rhf"
			},
			{
				"type": "occ",
				"energy": -0.25389,
				"method": "rhf"
			},
			{
				"type": "occ",
				"energy": -0.24412,
				"method": "rhf"
			},
			{
				"type": "occ",
				"energy": -0.21101,
				"method": "rhf"
			},
			{
				"type": "occ",
				"energy": -0.1804,
				"method": "rhf"
			},
			{
				"type": "unocc",
				"energy": 0.00206,
				"method": "rhf"
			},
			{
				"type": "unocc",
				"energy": 0.01023,
				"method": "rhf"
			},
			{
				"type": "unocc",
				"energy": 0.04522,
				"method": "rhf"
			},
			{
				"type": "unocc",
				"energy": 0.07843,
				"method": "rhf"
			},
			{
				"type": "unocc",
				"energy": 0.08321,
				"method": "rhf"
			}
		],
		"cosmo_sigma_profile": { 
			"-0.025": 0.0,
			"-0.024": 0.0,
			"-0.023": 0.0,
			"-0.022": 0.0,
			"-0.021": 0.0,
			"-0.02": 0.0,
			"-0.019": 0.0,
			"-0.018": 0.0,
			"-0.017": 0.0,
			"-0.016": 0.877798540097,
			"-0.015": 1.33488394122,
			"-0.014": 1.04774728539,
			"-0.013": 1.63306948267,
			"-0.012": 2.74590976557,
			"-0.011": 3.81788071697,
			"-0.01": 4.27078086521,
			"-0.009": 6.28552898376,
			"-0.008": 8.79841724753,
			"-0.007": 8.65667540289,
			"-0.006": 9.00170557411,
			"-0.005": 9.23998819564,
			"-0.004": 11.4817209287,
			"-0.003": 9.24913470671,
			"-0.002": 7.72063078481,
			"-0.001": 8.65836169281,
			"0.0": 9.76655956363,
			"0.001": 13.8666582496,
			"0.002": 13.359184799,
			"0.003": 13.5065016789,
			"0.004": 11.3306551976,
			"0.005": 12.838264206,
			"0.006": 12.4095813252,
			"0.007": 3.19102439908,
			"0.008": 2.46128259928,
			"0.009": 2.37510687926,
			"0.01": 2.39716075311,
			"0.011": 2.23465545638,
			"0.012": 2.14402767358,
			"0.013": 2.81930386572,
			"0.014": 5.84469862417,
			"0.015": 3.19973829985,
			"0.016": 0.0229056295247,
			"0.017": 0.0,
			"0.018": 0.0,
			"0.019": 0.0,
			"0.02": 0.0,
			"0.021": 0.0,
			"0.022": 0.0,
			"0.023": 0.0,
			"0.024": 0.0,
			"0.025": 0.0
		}
	}
}
