{
	 "smiles": "COC(=O)C1=CN=C(SCC(=O)C2=CC=C(Cl)C=C2)N1C", 
	 "Tm": 399.15, 
	 "num_atms": 34, 
	 "gaussian": { 
		 "optdone": 1, 
		 "sigma_profile": "yes", 
		 "theory": "DFT", 
		 "functional": "B3LYP", 
		 "basiset": "6-31G**", 
		 "properties": { 
			 "R2extent": 12395.8806, 
			 "electric_dipole_moment_norm": 1.48306082478, 
			 "electric_quadrupole_moment_norm": 12.6054474776, 
			 "total_energy": -1734.88103385, 
			 "HOMO_LUMO_gap": 0.14596, 
			 "cosmo_polarized_energy": -15.68, 
			 "cosmo_cavitation_energy": 42.88, 
			 "cosmo_dispersion_energy": -30.79, 
			 "cosmo_repulsion_energy": 2.33, 
			 "cosmo_total_nonelectrostatic_energy": 14.41, 
			 "SMD_solvation_energy": 7.71 
		},
		"coords": [
			{
				"x": 3.0899644584,
				"y": 4.1695472236,
				"z": -4.8292874961,
				"element": "C" 
			},
			{
				"x": 2.312443543,
				"y": 3.8407641189,
				"z": -3.6682851426,
				"element": "O" 
			},
			{
				"x": 2.5721310795,
				"y": 2.6280603172,
				"z": -3.1258555226,
				"element": "C" 
			},
			{
				"x": 3.4101939725,
				"y": 1.8622526659,
				"z": -3.5762383764,
				"element": "O" 
			},
			{
				"x": 1.7201690438,
				"y": 2.3928941205,
				"z": -1.9637232197,
				"element": "C" 
			},
			{
				"x": 0.7395001292,
				"y": 3.1898987187,
				"z": -1.4008413877,
				"element": "C" 
			},
			{
				"x": 0.1879508492,
				"y": 2.59136482,
				"z": -0.3108486729,
				"element": "N" 
			},
			{
				"x": 0.8119440632,
				"y": 1.426171718,
				"z": -0.2084010578,
				"element": "C" 
			},
			{
				"x": 0.5437192628,
				"y": 0.2221964545,
				"z": 1.0613530602,
				"element": "S" 
			},
			{
				"x": -1.1983480387,
				"y": 0.6417092586,
				"z": 1.5146280186,
				"element": "C" 
			},
			{
				"x": -2.1850813645,
				"y": -0.3211978725,
				"z": 0.8585658885,
				"element": "C" 
			},
			{
				"x": -2.8226053695,
				"y": 0.0407855263,
				"z": -0.1170977102,
				"element": "O" 
			},
			{
				"x": -2.3535809511,
				"y": -1.6992842354,
				"z": 1.4203640172,
				"element": "C" 
			},
			{
				"x": -1.6616152101,
				"y": -2.165847794,
				"z": 2.548053477,
				"element": "C" 
			},
			{
				"x": -1.8668015927,
				"y": -3.4581167144,
				"z": 3.0280176278,
				"element": "C" 
			},
			{
				"x": -2.7754922669,
				"y": -4.2883203775,
				"z": 2.3718571937,
				"element": "C" 
			},
			{
				"x": -3.0408861437,
				"y": -5.9144923886,
				"z": 2.9707082345,
				"element": "Cl" 
			},
			{
				"x": -3.4783054341,
				"y": -3.8485305921,
				"z": 1.2468503213,
				"element": "C" 
			},
			{
				"x": -3.2615446693,
				"y": -2.5580334693,
				"z": 0.7796486299,
				"element": "C" 
			},
			{
				"x": 1.7489761425,
				"y": 1.2372343106,
				"z": -1.178987632,
				"element": "N" 
			},
			{
				"x": 2.6077765455,
				"y": 0.0637713708,
				"z": -1.3306851951,
				"element": "C" 
			},
			{
				"x": 2.756114953,
				"y": 5.1618441331,
				"z": -5.1320203487,
				"element": "H" 
			},
			{
				"x": 2.9155366571,
				"y": 3.4459034527,
				"z": -5.6296190819,
				"element": "H" 
			},
			{
				"x": 4.1565244054,
				"y": 4.1802952728,
				"z": -4.5906843403,
				"element": "H" 
			},
			{
				"x": 0.4192143412,
				"y": 4.1641450651,
				"z": -1.74075855,
				"element": "H" 
			},
			{
				"x": -1.3804017779,
				"y": 1.6516475262,
				"z": 1.1447843879,
				"element": "H" 
			},
			{
				"x": -1.2517405153,
				"y": 0.6281835533,
				"z": 2.6049041024,
				"element": "H" 
			},
			{
				"x": -0.9515137426,
				"y": -1.5308458997,
				"z": 3.0675535174,
				"element": "H" 
			},
			{
				"x": -1.3311337898,
				"y": -3.8188359785,
				"z": 3.8987698741,
				"element": "H" 
			},
			{
				"x": -4.1799874131,
				"y": -4.510828078,
				"z": 0.7521437938,
				"element": "H" 
			},
			{
				"x": -3.7907184271,
				"y": -2.186248651,
				"z": -0.0911909712,
				"element": "H" 
			},
			{
				"x": 2.0097770096,
				"y": -0.8375551761,
				"z": -1.1774134521,
				"element": "H" 
			},
			{
				"x": 3.0348869136,
				"y": 0.077268031,
				"z": -2.330227669,
				"element": "H" 
			},
			{
				"x": 3.4193333369,
				"y": 0.084499569,
				"z": -0.5963363182,
				"element": "H" 
			}
		],
		 "valence_orbital": [ 
			{
				"type": "occ",
				"energy": -0.27824,
				"method": "rhf"
			},
			{
				"type": "occ",
				"energy": -0.27445,
				"method": "rhf"
			},
			{
				"type": "occ",
				"energy": -0.26207,
				"method": "rhf"
			},
			{
				"type": "occ",
				"energy": -0.26077,
				"method": "rhf"
			},
			{
				"type": "occ",
				"energy": -0.21954,
				"method": "rhf"
			},
			{
				"type": "unocc",
				"energy": -0.07358,
				"method": "rhf"
			},
			{
				"type": "unocc",
				"energy": -0.03546,
				"method": "rhf"
			},
			{
				"type": "unocc",
				"energy": -0.02805,
				"method": "rhf"
			},
			{
				"type": "unocc",
				"energy": -0.00235,
				"method": "rhf"
			},
			{
				"type": "unocc",
				"energy": 0.01817,
				"method": "rhf"
			}
		],
		"cosmo_sigma_profile": { 
			"-0.025": 0.0,
			"-0.024": 0.0,
			"-0.023": 0.0,
			"-0.022": 0.0,
			"-0.021": 0.0,
			"-0.02": 0.0,
			"-0.019": 0.0,
			"-0.018": 0.0,
			"-0.017": 0.0,
			"-0.016": 0.0,
			"-0.015": 0.0,
			"-0.014": 0.0,
			"-0.013": 0.0,
			"-0.012": 0.000132177719674,
			"-0.011": 0.629646573588,
			"-0.01": 1.55848442138,
			"-0.009": 2.51769881177,
			"-0.008": 6.44983875451,
			"-0.007": 11.658765911,
			"-0.006": 19.7078647752,
			"-0.005": 21.4824935162,
			"-0.004": 26.0771617151,
			"-0.003": 27.6103896982,
			"-0.002": 23.7342835876,
			"-0.001": 22.9555682544,
			"0.0": 26.4785498532,
			"0.001": 31.7349334354,
			"0.002": 34.1674566223,
			"0.003": 19.7633603632,
			"0.004": 20.791108392,
			"0.005": 8.74854717406,
			"0.006": 7.49523611359,
			"0.007": 6.12113607413,
			"0.008": 5.65575279586,
			"0.009": 3.7444976601,
			"0.01": 5.56456032585,
			"0.011": 7.38171334424,
			"0.012": 4.61263523032,
			"0.013": 1.08667286022,
			"0.014": 0.0559208968888,
			"0.015": 0.0,
			"0.016": 0.0,
			"0.017": 0.0,
			"0.018": 0.0,
			"0.019": 0.0,
			"0.02": 0.0,
			"0.021": 0.0,
			"0.022": 0.0,
			"0.023": 0.0,
			"0.024": 0.0,
			"0.025": 0.0
		}
	}
}
