{
	 "smiles": "S(SC1=CC=CC=N1)C1=CC=CC=N1", 
	 "Tm": 331.15, 
	 "num_atms": 22, 
	 "gaussian": { 
		 "optdone": 1, 
		 "sigma_profile": "yes", 
		 "theory": "DFT", 
		 "functional": "B3LYP", 
		 "basiset": "6-31G**", 
		 "properties": { 
			 "R2extent": 4170.892, 
			 "electric_dipole_moment_norm": 2.34219999787, 
			 "electric_quadrupole_moment_norm": 19.9105516368, 
			 "total_energy": -1291.74890529, 
			 "HOMO_LUMO_gap": 0.19278, 
			 "cosmo_polarized_energy": -12.38, 
			 "cosmo_cavitation_energy": 30.16, 
			 "cosmo_dispersion_energy": -22.59, 
			 "cosmo_repulsion_energy": 1.71, 
			 "cosmo_total_nonelectrostatic_energy": 9.27, 
			 "SMD_solvation_energy": 2.57 
		},
		"coords": [
			{
				"x": 1.8893517877,
				"y": 1.5050364257,
				"z": -1.3414355753,
				"element": "S" 
			},
			{
				"x": 1.6177944213,
				"y": -0.4480901194,
				"z": -1.9295358485,
				"element": "S" 
			},
			{
				"x": 0.9534552686,
				"y": -1.2850616779,
				"z": -0.473092989,
				"element": "C" 
			},
			{
				"x": 0.8559534265,
				"y": -2.6836380653,
				"z": -0.5508462119,
				"element": "C" 
			},
			{
				"x": 0.3260424955,
				"y": -3.3581095906,
				"z": 0.5429459587,
				"element": "C" 
			},
			{
				"x": -0.0772988108,
				"y": -2.6270900033,
				"z": 1.6641374678,
				"element": "C" 
			},
			{
				"x": 0.0717667703,
				"y": -1.2431605812,
				"z": 1.630760887,
				"element": "C" 
			},
			{
				"x": 0.5738487488,
				"y": -0.5769287483,
				"z": 0.5812614973,
				"element": "N" 
			},
			{
				"x": 0.2698054737,
				"y": 2.280419249,
				"z": -1.5386383754,
				"element": "C" 
			},
			{
				"x": 0.2258814572,
				"y": 3.6752861356,
				"z": -1.3837067146,
				"element": "C" 
			},
			{
				"x": -1.0088507294,
				"y": 4.3021594513,
				"z": -1.5043295573,
				"element": "C" 
			},
			{
				"x": -2.1413525356,
				"y": 3.5296103399,
				"z": -1.7777604023,
				"element": "C" 
			},
			{
				"x": -1.9766193078,
				"y": 2.1540678198,
				"z": -1.9167621825,
				"element": "C" 
			},
			{
				"x": -0.7944997716,
				"y": 1.5332456715,
				"z": -1.7959917071,
				"element": "N" 
			},
			{
				"x": 1.1874757465,
				"y": -3.2179048366,
				"z": -1.4358133017,
				"element": "H" 
			},
			{
				"x": 0.2334815569,
				"y": -4.4402802387,
				"z": 0.523542611,
				"element": "H" 
			},
			{
				"x": -0.4936048551,
				"y": -3.1158190486,
				"z": 2.5386950333,
				"element": "H" 
			},
			{
				"x": -0.2260533345,
				"y": -0.6319885147,
				"z": 2.4806886418,
				"element": "H" 
			},
			{
				"x": 1.1285633927,
				"y": 4.2429160123,
				"z": -1.1800360955,
				"element": "H" 
			},
			{
				"x": -1.0864021165,
				"y": 5.3798088431,
				"z": -1.3916661074,
				"element": "H" 
			},
			{
				"x": -3.1225967405,
				"y": 3.9806227146,
				"z": -1.881523687,
				"element": "H" 
			},
			{
				"x": -2.828542344,
				"y": 1.5117987615,
				"z": -2.1319933414,
				"element": "H" 
			}
		],
		 "valence_orbital": [ 
			{
				"type": "occ",
				"energy": -0.28431,
				"method": "rhf"
			},
			{
				"type": "occ",
				"energy": -0.26007,
				"method": "rhf"
			},
			{
				"type": "occ",
				"energy": -0.25717,
				"method": "rhf"
			},
			{
				"type": "occ",
				"energy": -0.22946,
				"method": "rhf"
			},
			{
				"type": "occ",
				"energy": -0.22386,
				"method": "rhf"
			},
			{
				"type": "unocc",
				"energy": -0.03108,
				"method": "rhf"
			},
			{
				"type": "unocc",
				"energy": -0.02608,
				"method": "rhf"
			},
			{
				"type": "unocc",
				"energy": -0.01986,
				"method": "rhf"
			},
			{
				"type": "unocc",
				"energy": -0.01393,
				"method": "rhf"
			},
			{
				"type": "unocc",
				"energy": -0.00962,
				"method": "rhf"
			}
		],
		"cosmo_sigma_profile": { 
			"-0.025": 0.0,
			"-0.024": 0.0,
			"-0.023": 0.0,
			"-0.022": 0.0,
			"-0.021": 0.0,
			"-0.02": 0.0,
			"-0.019": 0.0,
			"-0.018": 0.0,
			"-0.017": 0.0,
			"-0.016": 0.0,
			"-0.015": 0.0,
			"-0.014": 0.0,
			"-0.013": 0.0,
			"-0.012": 0.0,
			"-0.011": 0.0,
			"-0.01": 0.0,
			"-0.009": 0.0,
			"-0.008": 4.99281684813,
			"-0.007": 15.4721842679,
			"-0.006": 20.3475395715,
			"-0.005": 16.8394592321,
			"-0.004": 13.6564348547,
			"-0.003": 10.6777332897,
			"-0.002": 10.976547283,
			"-0.001": 12.6589003766,
			"0.0": 16.661342331,
			"0.001": 26.6048795199,
			"0.002": 34.8857466474,
			"0.003": 20.0478495541,
			"0.004": 8.50569113561,
			"0.005": 7.27742905469,
			"0.006": 4.93353241508,
			"0.007": 4.55482069345,
			"0.008": 3.16682509272,
			"0.009": 3.05231010024,
			"0.01": 3.64113079416,
			"0.011": 3.10025890293,
			"0.012": 2.22428262898,
			"0.013": 2.06864852159,
			"0.014": 0.878843479089,
			"0.015": 0.00323425133981,
			"0.016": 0.0,
			"0.017": 0.0,
			"0.018": 0.0,
			"0.019": 0.0,
			"0.02": 0.0,
			"0.021": 0.0,
			"0.022": 0.0,
			"0.023": 0.0,
			"0.024": 0.0,
			"0.025": 0.0
		}
	}
}
