{
	 "smiles": "FC1=CC=C(NC(=NC2CC2)C2=CC=CC=C2)C=C1", 
	 "Tm": 366.15, 
	 "num_atms": 34, 
	 "gaussian": { 
		 "optdone": 1, 
		 "sigma_profile": "yes", 
		 "theory": "DFT", 
		 "functional": "B3LYP", 
		 "basiset": "6-31G**", 
		 "properties": { 
			 "R2extent": 6836.609, 
			 "electric_dipole_moment_norm": 4.27454950843, 
			 "electric_quadrupole_moment_norm": 6.91746196737, 
			 "total_energy": -828.045095696, 
			 "HOMO_LUMO_gap": 0.1644, 
			 "cosmo_polarized_energy": -10.1, 
			 "cosmo_cavitation_energy": 38.49, 
			 "cosmo_dispersion_energy": -26.73, 
			 "cosmo_repulsion_energy": 2.05, 
			 "cosmo_total_nonelectrostatic_energy": 13.81, 
			 "SMD_solvation_energy": 5.35 
		},
		"coords": [
			{
				"x": 0.0202969702,
				"y": -0.5016941988,
				"z": 6.1437747211,
				"element": "F" 
			},
			{
				"x": 0.0549992785,
				"y": -0.4497992981,
				"z": 4.7920028767,
				"element": "C" 
			},
			{
				"x": -0.3472898185,
				"y": -1.561564587,
				"z": 4.0604209576,
				"element": "C" 
			},
			{
				"x": -0.3087683257,
				"y": -1.5005160857,
				"z": 2.6713656159,
				"element": "C" 
			},
			{
				"x": 0.128487437,
				"y": -0.3398184526,
				"z": 2.0054634557,
				"element": "C" 
			},
			{
				"x": 0.1200931056,
				"y": -0.369523099,
				"z": 0.6010491193,
				"element": "N" 
			},
			{
				"x": 0.5127853187,
				"y": 0.578305283,
				"z": -0.3385394731,
				"element": "C" 
			},
			{
				"x": 1.0130665593,
				"y": 1.7059770159,
				"z": 0.013822692,
				"element": "N" 
			},
			{
				"x": 1.3280637389,
				"y": 2.7193141627,
				"z": -0.9346559489,
				"element": "C" 
			},
			{
				"x": 2.6067777017,
				"y": 3.5017835434,
				"z": -0.7049766682,
				"element": "C" 
			},
			{
				"x": 1.2737862231,
				"y": 4.1501602227,
				"z": -0.44236106,
				"element": "C" 
			},
			{
				"x": 0.2693759523,
				"y": 0.0981994201,
				"z": -1.7443002101,
				"element": "C" 
			},
			{
				"x": 1.3268429526,
				"y": 0.0168821147,
				"z": -2.6623614987,
				"element": "C" 
			},
			{
				"x": 1.1022334375,
				"y": -0.4462234321,
				"z": -3.9586974157,
				"element": "C" 
			},
			{
				"x": -0.1808912544,
				"y": -0.8300395684,
				"z": -4.3552208587,
				"element": "C" 
			},
			{
				"x": -1.2396552082,
				"y": -0.7511246374,
				"z": -3.4489119773,
				"element": "C" 
			},
			{
				"x": -1.0155993685,
				"y": -0.2935894628,
				"z": -2.1495895604,
				"element": "C" 
			},
			{
				"x": 0.5337183891,
				"y": 0.7685640106,
				"z": 2.7690884967,
				"element": "C" 
			},
			{
				"x": 0.4924241777,
				"y": 0.7071896863,
				"z": 4.1626136462,
				"element": "C" 
			},
			{
				"x": -0.6835662399,
				"y": -2.4545253911,
				"z": 4.5761091742,
				"element": "H" 
			},
			{
				"x": -0.6243228939,
				"y": -2.3659461091,
				"z": 2.092746344,
				"element": "H" 
			},
			{
				"x": -0.1459823101,
				"y": -1.2567999239,
				"z": 0.2021632298,
				"element": "H" 
			},
			{
				"x": 1.0416620218,
				"y": 2.5607329392,
				"z": -1.9738728428,
				"element": "H" 
			},
			{
				"x": 3.1783456248,
				"y": 3.8119867563,
				"z": -1.5749793424,
				"element": "H" 
			},
			{
				"x": 3.2026417375,
				"y": 3.2097570871,
				"z": 0.1534652729,
				"element": "H" 
			},
			{
				"x": 0.9184112227,
				"y": 4.9107644198,
				"z": -1.1312618566,
				"element": "H" 
			},
			{
				"x": 0.9775291323,
				"y": 4.2949903574,
				"z": 0.5913047288,
				"element": "H" 
			},
			{
				"x": 2.3254128086,
				"y": 0.309245678,
				"z": -2.3520835038,
				"element": "H" 
			},
			{
				"x": 1.9304748713,
				"y": -0.5112363933,
				"z": -4.6583911468,
				"element": "H" 
			},
			{
				"x": -0.3542040298,
				"y": -1.1886159042,
				"z": -5.3656921214,
				"element": "H" 
			},
			{
				"x": -2.2407472654,
				"y": -1.0429833382,
				"z": -3.753060703,
				"element": "H" 
			},
			{
				"x": -1.842035893,
				"y": -0.2237703921,
				"z": -1.4476470577,
				"element": "H" 
			},
			{
				"x": 0.8801108382,
				"y": 1.6554043094,
				"z": 2.2594949851,
				"element": "H" 
			},
			{
				"x": 0.8027231081,
				"y": 1.5559132671,
				"z": 4.7631179298,
				"element": "H" 
			}
		],
		 "valence_orbital": [ 
			{
				"type": "occ",
				"energy": -0.2639,
				"method": "rhf"
			},
			{
				"type": "occ",
				"energy": -0.25222,
				"method": "rhf"
			},
			{
				"type": "occ",
				"energy": -0.24384,
				"method": "rhf"
			},
			{
				"type": "occ",
				"energy": -0.23951,
				"method": "rhf"
			},
			{
				"type": "occ",
				"energy": -0.19296,
				"method": "rhf"
			},
			{
				"type": "unocc",
				"energy": -0.02856,
				"method": "rhf"
			},
			{
				"type": "unocc",
				"energy": -0.01601,
				"method": "rhf"
			},
			{
				"type": "unocc",
				"energy": -0.00211,
				"method": "rhf"
			},
			{
				"type": "unocc",
				"energy": 0.00962,
				"method": "rhf"
			},
			{
				"type": "unocc",
				"energy": 0.05787,
				"method": "rhf"
			}
		],
		"cosmo_sigma_profile": { 
			"-0.025": 0.0,
			"-0.024": 0.0,
			"-0.023": 0.0,
			"-0.022": 0.0,
			"-0.021": 0.0,
			"-0.02": 0.0,
			"-0.019": 0.0,
			"-0.018": 0.0,
			"-0.017": 0.0,
			"-0.016": 0.0,
			"-0.015": 0.0,
			"-0.014": 0.454224063689,
			"-0.013": 1.0895681962,
			"-0.012": 1.188216538,
			"-0.011": 0.768254393253,
			"-0.01": 1.64450866517,
			"-0.009": 1.22927272586,
			"-0.008": 1.53344751304,
			"-0.007": 4.82989089632,
			"-0.006": 12.8680215716,
			"-0.005": 19.3087110453,
			"-0.004": 24.9354762829,
			"-0.003": 21.0720493946,
			"-0.002": 21.7692194987,
			"-0.001": 21.3698739687,
			"0.0": 23.2380705623,
			"0.001": 23.3464791261,
			"0.002": 26.2071646521,
			"0.003": 26.5223559871,
			"0.004": 32.8847540803,
			"0.005": 30.3368272117,
			"0.006": 4.38854011328,
			"0.007": 2.95300410814,
			"0.008": 2.09788468124,
			"0.009": 1.29330510537,
			"0.01": 0.384903770124,
			"0.011": 0.0297487317477,
			"0.012": 0.0,
			"0.013": 0.0,
			"0.014": 0.0,
			"0.015": 0.0,
			"0.016": 0.0,
			"0.017": 0.0,
			"0.018": 0.0,
			"0.019": 0.0,
			"0.02": 0.0,
			"0.021": 0.0,
			"0.022": 0.0,
			"0.023": 0.0,
			"0.024": 0.0,
			"0.025": 0.0
		}
	}
}
