{
	 "smiles": "COC1=C(C=C(C=C1)S(=O)(=O)N1CCCCCC1)C(O)=O", 
	 "Tm": 388.15, 
	 "num_atms": 40, 
	 "gaussian": { 
		 "optdone": 1, 
		 "sigma_profile": "yes", 
		 "theory": "DFT", 
		 "functional": "B3LYP", 
		 "basiset": "6-31G**", 
		 "properties": { 
			 "R2extent": 7928.1711, 
			 "electric_dipole_moment_norm": 5.24834238022, 
			 "electric_quadrupole_moment_norm": 15.4907013369, 
			 "total_energy": -1373.9263122, 
			 "HOMO_LUMO_gap": 0.18301, 
			 "cosmo_polarized_energy": -18.96, 
			 "cosmo_cavitation_energy": 42.37, 
			 "cosmo_dispersion_energy": -30.03, 
			 "cosmo_repulsion_energy": 2.27, 
			 "cosmo_total_nonelectrostatic_energy": 14.61, 
			 "SMD_solvation_energy": 7.37 
		},
		"coords": [
			{
				"x": 3.9635666587,
				"y": 0.0371111474,
				"z": -3.0274614939,
				"element": "C" 
			},
			{
				"x": 2.7256069941,
				"y": -0.5009419137,
				"z": -3.5116806751,
				"element": "O" 
			},
			{
				"x": 1.6696029618,
				"y": -0.4569836292,
				"z": -2.6506321899,
				"element": "C" 
			},
			{
				"x": 0.7866332193,
				"y": 0.6463893281,
				"z": -2.5860297581,
				"element": "C" 
			},
			{
				"x": -0.3371374164,
				"y": 0.5692045524,
				"z": -1.7481013397,
				"element": "C" 
			},
			{
				"x": -0.5624023419,
				"y": -0.5635383547,
				"z": -0.9706704557,
				"element": "C" 
			},
			{
				"x": 0.3029298947,
				"y": -1.6603295033,
				"z": -1.0413113076,
				"element": "C" 
			},
			{
				"x": 1.4076212449,
				"y": -1.5994942552,
				"z": -1.8823922827,
				"element": "C" 
			},
			{
				"x": -1.9735576322,
				"y": -0.6111907295,
				"z": 0.1460667589,
				"element": "S" 
			},
			{
				"x": -2.2793724143,
				"y": -2.0245356017,
				"z": 0.3833405781,
				"element": "O" 
			},
			{
				"x": -2.9688862767,
				"y": 0.3236956172,
				"z": -0.3827104375,
				"element": "O" 
			},
			{
				"x": -1.4570203009,
				"y": 0.0274643305,
				"z": 1.6101106757,
				"element": "N" 
			},
			{
				"x": -0.6410861156,
				"y": -0.8169950657,
				"z": 2.4964737893,
				"element": "C" 
			},
			{
				"x": -1.1554127315,
				"y": -0.8133036835,
				"z": 3.9723085448,
				"element": "C" 
			},
			{
				"x": -2.367047797,
				"y": 0.0983566668,
				"z": 4.2156454786,
				"element": "C" 
			},
			{
				"x": -2.0575973647,
				"y": 1.60928024,
				"z": 4.1187056469,
				"element": "C" 
			},
			{
				"x": -0.9879577005,
				"y": 1.9839217712,
				"z": 3.0799386655,
				"element": "C" 
			},
			{
				"x": -1.2452848993,
				"y": 1.488295241,
				"z": 1.6532591408,
				"element": "C" 
			},
			{
				"x": 1.0100853972,
				"y": 1.8741053947,
				"z": -3.4009090707,
				"element": "C" 
			},
			{
				"x": -0.1167333227,
				"y": 2.6215036663,
				"z": -3.5134527086,
				"element": "O" 
			},
			{
				"x": 2.0570429629,
				"y": 2.2193553852,
				"z": -3.9102496847,
				"element": "O" 
			},
			{
				"x": 3.8739840063,
				"y": 1.110673721,
				"z": -2.8463409696,
				"element": "H" 
			},
			{
				"x": 4.2823452832,
				"y": -0.4825946952,
				"z": -2.1148382915,
				"element": "H" 
			},
			{
				"x": 4.6944882069,
				"y": -0.1380371988,
				"z": -3.8181540653,
				"element": "H" 
			},
			{
				"x": -1.045546853,
				"y": 1.3878776314,
				"z": -1.7254179253,
				"element": "H" 
			},
			{
				"x": 0.0880223743,
				"y": -2.5552564765,
				"z": -0.4676051043,
				"element": "H" 
			},
			{
				"x": 2.0799585011,
				"y": -2.4450268477,
				"z": -1.9839957636,
				"element": "H" 
			},
			{
				"x": -0.6926582447,
				"y": -1.8323898801,
				"z": 2.104591541,
				"element": "H" 
			},
			{
				"x": 0.4100455715,
				"y": -0.5000488286,
				"z": 2.4500643506,
				"element": "H" 
			},
			{
				"x": -1.43260684,
				"y": -1.8370792329,
				"z": 4.2452000328,
				"element": "H" 
			},
			{
				"x": -0.3327978859,
				"y": -0.5302189648,
				"z": 4.6406530783,
				"element": "H" 
			},
			{
				"x": -2.7757272954,
				"y": -0.1180064779,
				"z": 5.209702805,
				"element": "H" 
			},
			{
				"x": -3.1465858378,
				"y": -0.1662316511,
				"z": 3.4956692032,
				"element": "H" 
			},
			{
				"x": -2.9861620927,
				"y": 2.1529377134,
				"z": 3.9055831369,
				"element": "H" 
			},
			{
				"x": -1.7074946712,
				"y": 1.9741376021,
				"z": 5.092765084,
				"element": "H" 
			},
			{
				"x": -0.0096195504,
				"y": 1.6216035254,
				"z": 3.4179232001,
				"element": "H" 
			},
			{
				"x": -0.8940188408,
				"y": 3.0753705825,
				"z": 3.027806948,
				"element": "H" 
			},
			{
				"x": -2.1403465808,
				"y": 1.9589222518,
				"z": 1.2412976003,
				"element": "H" 
			},
			{
				"x": -0.3895943667,
				"y": 1.7782362572,
				"z": 1.0207797977,
				"element": "H" 
			},
			{
				"x": 0.1357220961,
				"y": 3.4014603645,
				"z": -4.0345325325,
				"element": "H" 
			}
		],
		 "valence_orbital": [ 
			{
				"type": "occ",
				"energy": -0.28874,
				"method": "rhf"
			},
			{
				"type": "occ",
				"energy": -0.28239,
				"method": "rhf"
			},
			{
				"type": "occ",
				"energy": -0.27622,
				"method": "rhf"
			},
			{
				"type": "occ",
				"energy": -0.27228,
				"method": "rhf"
			},
			{
				"type": "occ",
				"energy": -0.24634,
				"method": "rhf"
			},
			{
				"type": "unocc",
				"energy": -0.06333,
				"method": "rhf"
			},
			{
				"type": "unocc",
				"energy": -0.03712,
				"method": "rhf"
			},
			{
				"type": "unocc",
				"energy": 0.03019,
				"method": "rhf"
			},
			{
				"type": "unocc",
				"energy": 0.05451,
				"method": "rhf"
			},
			{
				"type": "unocc",
				"energy": 0.07207,
				"method": "rhf"
			}
		],
		"cosmo_sigma_profile": { 
			"-0.025": 0.0,
			"-0.024": 0.0,
			"-0.023": 0.0,
			"-0.022": 0.0,
			"-0.021": 0.0,
			"-0.02": 0.0,
			"-0.019": 0.10763452472,
			"-0.018": 0.695061652622,
			"-0.017": 1.07700351289,
			"-0.016": 0.900518945232,
			"-0.015": 0.613119073782,
			"-0.014": 0.614770070775,
			"-0.013": 1.01451796966,
			"-0.012": 0.530258461315,
			"-0.011": 0.709486856481,
			"-0.01": 1.18346881086,
			"-0.009": 0.138428321234,
			"-0.008": 1.79485356562,
			"-0.007": 5.07944414894,
			"-0.006": 7.07498784489,
			"-0.005": 13.847509977,
			"-0.004": 28.8047978856,
			"-0.003": 43.4563647914,
			"-0.002": 42.7721785911,
			"-0.001": 35.4755503834,
			"0.0": 36.4283246686,
			"0.001": 23.6792612759,
			"0.002": 10.7339161375,
			"0.003": 7.54821261894,
			"0.004": 7.11183104785,
			"0.005": 7.75652039165,
			"0.006": 6.32370568425,
			"0.007": 5.57184557975,
			"0.008": 6.78006577428,
			"0.009": 6.57866748029,
			"0.01": 10.6604103815,
			"0.011": 12.8365378954,
			"0.012": 5.1538791807,
			"0.013": 0.0,
			"0.014": 0.0,
			"0.015": 0.0,
			"0.016": 0.0,
			"0.017": 0.0,
			"0.018": 0.0,
			"0.019": 0.0,
			"0.02": 0.0,
			"0.021": 0.0,
			"0.022": 0.0,
			"0.023": 0.0,
			"0.024": 0.0,
			"0.0": 0.0
		}
	}
}
