{
	 "smiles": "CC(C)(C)OC(=O)NCC(=O)NN", 
	 "Tm": 353.15, 
	 "num_atms": 28, 
	 "gaussian": { 
		 "optdone": 1, 
		 "sigma_profile": "yes", 
		 "theory": "DFT", 
		 "functional": "B3LYP", 
		 "basiset": "6-31G**", 
		 "properties": { 
			 "R2extent": 3513.4839, 
			 "electric_dipole_moment_norm": 6.43963977952, 
			 "electric_quadrupole_moment_norm": 25.6792718396, 
			 "total_energy": -665.723962517, 
			 "HOMO_LUMO_gap": 0.26606, 
			 "cosmo_polarized_energy": -21.12, 
			 "cosmo_cavitation_energy": 31.17, 
			 "cosmo_dispersion_energy": -21.22, 
			 "cosmo_repulsion_energy": 1.75, 
			 "cosmo_total_nonelectrostatic_energy": 11.7, 
			 "SMD_solvation_energy": 6.9 
		},
		"coords": [
			{
				"x": -0.6139522835,
				"y": -2.1613897523,
				"z": 0.852758738,
				"element": "C" 
			},
			{
				"x": 0.0985349943,
				"y": -1.3049432164,
				"z": -0.1997455386,
				"element": "C" 
			},
			{
				"x": 1.416703727,
				"y": -0.754047376,
				"z": 0.3514065725,
				"element": "C" 
			},
			{
				"x": 0.3318331661,
				"y": -2.0624152187,
				"z": -1.5111777832,
				"element": "C" 
			},
			{
				"x": -0.676443175,
				"y": -0.0823189998,
				"z": -0.4546396349,
				"element": "O" 
			},
			{
				"x": -1.9510215296,
				"y": -0.1543182362,
				"z": -0.9032097631,
				"element": "C" 
			},
			{
				"x": -2.5444475998,
				"y": -1.1638631974,
				"z": -1.2396302373,
				"element": "O" 
			},
			{
				"x": -2.5016735682,
				"y": 1.1068294232,
				"z": -0.9986286432,
				"element": "N" 
			},
			{
				"x": -1.9813292734,
				"y": 2.2493285036,
				"z": -0.2818590707,
				"element": "C" 
			},
			{
				"x": -2.1984030803,
				"y": 2.1403947234,
				"z": 1.2368306596,
				"element": "C" 
			},
			{
				"x": -2.7467019663,
				"y": 1.1864660684,
				"z": 1.7661388256,
				"element": "O" 
			},
			{
				"x": -1.7401076398,
				"y": 3.1942076864,
				"z": 1.9864340276,
				"element": "N" 
			},
			{
				"x": -1.0896062936,
				"y": 4.294715026,
				"z": 1.4171332914,
				"element": "N" 
			},
			{
				"x": -1.5432589573,
				"y": -2.5719014312,
				"z": 0.4576792749,
				"element": "H" 
			},
			{
				"x": 0.0379235648,
				"y": -2.9861674145,
				"z": 1.1592929657,
				"element": "H" 
			},
			{
				"x": -0.8470402204,
				"y": -1.5558297892,
				"z": 1.7338047272,
				"element": "H" 
			},
			{
				"x": 1.8946686122,
				"y": -0.0937036971,
				"z": -0.378553608,
				"element": "H" 
			},
			{
				"x": 2.1032894701,
				"y": -1.5756989626,
				"z": 0.5762607037,
				"element": "H" 
			},
			{
				"x": 1.2428801214,
				"y": -0.1867477469,
				"z": 1.2706435752,
				"element": "H" 
			},
			{
				"x": -0.6109773088,
				"y": -2.4250621803,
				"z": -1.9206864803,
				"element": "H" 
			},
			{
				"x": 0.8112961935,
				"y": -1.4095173904,
				"z": -2.2477205555,
				"element": "H" 
			},
			{
				"x": 0.9940043022,
				"y": -2.9158772082,
				"z": -1.3309421936,
				"element": "H" 
			},
			{
				"x": -3.5052778041,
				"y": 1.053390103,
				"z": -1.1024339791,
				"element": "H" 
			},
			{
				"x": -2.4611948436,
				"y": 3.1583969625,
				"z": -0.6556062539,
				"element": "H" 
			},
			{
				"x": -0.9157034373,
				"y": 2.3603753459,
				"z": -0.487192683,
				"element": "H" 
			},
			{
				"x": -1.866468727,
				"y": 3.1095734223,
				"z": 2.9904822359,
				"element": "H" 
			},
			{
				"x": -1.5854019746,
				"y": 5.1533755944,
				"z": 1.6428093195,
				"element": "H" 
			},
			{
				"x": -0.1367244691,
				"y": 4.3648489581,
				"z": 1.7661515075,
				"element": "H" 
			}
		],
		 "valence_orbital": [ 
			{
				"type": "occ",
				"energy": -0.2782,
				"method": "rhf"
			},
			{
				"type": "occ",
				"energy": -0.26419,
				"method": "rhf"
			},
			{
				"type": "occ",
				"energy": -0.26283,
				"method": "rhf"
			},
			{
				"type": "occ",
				"energy": -0.25061,
				"method": "rhf"
			},
			{
				"type": "occ",
				"energy": -0.23824,
				"method": "rhf"
			},
			{
				"type": "unocc",
				"energy": 0.02782,
				"method": "rhf"
			},
			{
				"type": "unocc",
				"energy": 0.05428,
				"method": "rhf"
			},
			{
				"type": "unocc",
				"energy": 0.06293,
				"method": "rhf"
			},
			{
				"type": "unocc",
				"energy": 0.09008,
				"method": "rhf"
			},
			{
				"type": "unocc",
				"energy": 0.09747,
				"method": "rhf"
			}
		],
		"cosmo_sigma_profile": { 
			"-0.025": 0.0,
			"-0.024": 0.0,
			"-0.023": 0.0,
			"-0.022": 0.0,
			"-0.021": 0.0,
			"-0.02": 0.0,
			"-0.019": 0.0,
			"-0.018": 0.0,
			"-0.017": 0.0,
			"-0.016": 0.0,
			"-0.015": 0.0,
			"-0.014": 0.903091663567,
			"-0.013": 2.3310812481,
			"-0.012": 5.06111931129,
			"-0.011": 5.81625804747,
			"-0.01": 5.85137980772,
			"-0.009": 5.02825249255,
			"-0.008": 4.68615677556,
			"-0.007": 6.1677352462,
			"-0.006": 4.05481846363,
			"-0.005": 4.6718715428,
			"-0.004": 13.934810986,
			"-0.003": 18.8124705506,
			"-0.002": 19.3063497645,
			"-0.001": 19.1298277366,
			"0.0": 26.6994149579,
			"0.001": 22.407105792,
			"0.002": 9.86612687874,
			"0.003": 8.04863980537,
			"0.004": 7.50424446668,
			"0.005": 7.47270540006,
			"0.006": 6.17546944298,
			"0.007": 6.29048206972,
			"0.008": 4.13231963828,
			"0.009": 4.08177666986,
			"0.01": 3.96657098417,
			"0.011": 3.45684088289,
			"0.012": 3.98635820261,
			"0.013": 6.99826073024,
			"0.014": 4.84302155711,
			"0.015": 0.233185173886,
			"0.016": 0.0,
			"0.017": 0.0,
			"0.018": 0.0,
			"0.019": 0.0,
			"0.02": 0.0,
			"0.021": 0.0,
			"0.022": 0.0,
			"0.023": 0.0,
			"0.024": 0.0,
			"0.025": 0.0
		}
	}
}
