{
	 "smiles": "ClC(=O)C1=C(COC2=CC=CC=C2)C=CC=C1", 
	 "Tm": 323.15, 
	 "num_atms": 28, 
	 "gaussian": { 
		 "optdone": 1, 
		 "sigma_profile": "yes", 
		 "theory": "DFT", 
		 "functional": "B3LYP", 
		 "basiset": "6-31G**", 
		 "properties": { 
			 "R2extent": 5044.9231, 
			 "electric_dipole_moment_norm": 4.64557203582, 
			 "electric_quadrupole_moment_norm": 9.88538818408, 
			 "total_energy": -1150.75073044, 
			 "HOMO_LUMO_gap": 0.1433, 
			 "cosmo_polarized_energy": -10.94, 
			 "cosmo_cavitation_energy": 33.97, 
			 "cosmo_dispersion_energy": -23.89, 
			 "cosmo_repulsion_energy": 1.86, 
			 "cosmo_total_nonelectrostatic_energy": 11.94, 
			 "SMD_solvation_energy": 6.28 
		},
		"coords": [
			{
				"x": -1.9253731374,
				"y": 3.0690867719,
				"z": -2.0901290366,
				"element": "Cl" 
			},
			{
				"x": -1.774469265,
				"y": 1.8636749422,
				"z": -0.7107386529,
				"element": "C" 
			},
			{
				"x": -2.6104296987,
				"y": 1.0219316314,
				"z": -0.5986998451,
				"element": "O" 
			},
			{
				"x": -0.5978200682,
				"y": 2.0855871785,
				"z": 0.1741217007,
				"element": "C" 
			},
			{
				"x": -0.0311097352,
				"y": 0.994835912,
				"z": 0.8793481549,
				"element": "C" 
			},
			{
				"x": -0.4700798258,
				"y": -0.4442274507,
				"z": 0.6595047655,
				"element": "C" 
			},
			{
				"x": -0.4133169441,
				"y": -0.8538934827,
				"z": -0.7040715087,
				"element": "O" 
			},
			{
				"x": 0.7807135178,
				"y": -1.2205727031,
				"z": -1.2704613038,
				"element": "C" 
			},
			{
				"x": 2.019665373,
				"y": -1.223906716,
				"z": -0.6208015355,
				"element": "C" 
			},
			{
				"x": 3.1589868093,
				"y": -1.6445708872,
				"z": -1.3154444734,
				"element": "C" 
			},
			{
				"x": 3.0786994752,
				"y": -2.0557699509,
				"z": -2.6434853829,
				"element": "C" 
			},
			{
				"x": 1.8359655238,
				"y": -2.043992955,
				"z": -3.2863890616,
				"element": "C" 
			},
			{
				"x": 0.6941911659,
				"y": -1.6310007148,
				"z": -2.6091625823,
				"element": "C" 
			},
			{
				"x": 0.9831329587,
				"y": 1.2639002159,
				"z": 1.8009507012,
				"element": "C" 
			},
			{
				"x": 1.4370880062,
				"y": 2.5633818082,
				"z": 2.034907087,
				"element": "C" 
			},
			{
				"x": 0.8888053855,
				"y": 3.6269876383,
				"z": 1.3219853116,
				"element": "C" 
			},
			{
				"x": -0.1190090859,
				"y": 3.3850157664,
				"z": 0.3910941341,
				"element": "C" 
			},
			{
				"x": -1.5201150336,
				"y": -0.5615727055,
				"z": 0.9325960813,
				"element": "H" 
			},
			{
				"x": 0.1273816703,
				"y": -1.1112416142,
				"z": 1.2921538367,
				"element": "H" 
			},
			{
				"x": 2.1159059831,
				"y": -0.8955850955,
				"z": 0.4060527086,
				"element": "H" 
			},
			{
				"x": 4.1172444985,
				"y": -1.6428870419,
				"z": -0.803229129,
				"element": "H" 
			},
			{
				"x": 3.9692362073,
				"y": -2.3783072267,
				"z": -3.1738472784,
				"element": "H" 
			},
			{
				"x": 1.7551971263,
				"y": -2.3600139153,
				"z": -4.3226295329,
				"element": "H" 
			},
			{
				"x": -0.2783422598,
				"y": -1.6178883054,
				"z": -3.0901706952,
				"element": "H" 
			},
			{
				"x": 1.4295163792,
				"y": 0.43651342,
				"z": 2.3465089817,
				"element": "H" 
			},
			{
				"x": 2.2244730015,
				"y": 2.7381582525,
				"z": 2.7620915701,
				"element": "H" 
			},
			{
				"x": 1.2398899138,
				"y": 4.6407466926,
				"z": 1.4863392708,
				"element": "H" 
			},
			{
				"x": -0.5547279414,
				"y": 4.208310535,
				"z": -0.1617942861,
				"element": "H" 
			}
		],
		 "valence_orbital": [ 
			{
				"type": "occ",
				"energy": -0.29232,
				"method": "rhf"
			},
			{
				"type": "occ",
				"energy": -0.27791,
				"method": "rhf"
			},
			{
				"type": "occ",
				"energy": -0.27457,
				"method": "rhf"
			},
			{
				"type": "occ",
				"energy": -0.24838,
				"method": "rhf"
			},
			{
				"type": "occ",
				"energy": -0.21892,
				"method": "rhf"
			},
			{
				"type": "unocc",
				"energy": -0.07562,
				"method": "rhf"
			},
			{
				"type": "unocc",
				"energy": -0.03001,
				"method": "rhf"
			},
			{
				"type": "unocc",
				"energy": 0.00053,
				"method": "rhf"
			},
			{
				"type": "unocc",
				"energy": 0.00827,
				"method": "rhf"
			},
			{
				"type": "unocc",
				"energy": 0.0138,
				"method": "rhf"
			}
		],
		"cosmo_sigma_profile": { 
			"-0.025": 0.0,
			"-0.024": 0.0,
			"-0.023": 0.0,
			"-0.022": 0.0,
			"-0.021": 0.0,
			"-0.02": 0.0,
			"-0.019": 0.0,
			"-0.018": 0.0,
			"-0.017": 0.0,
			"-0.016": 0.0,
			"-0.015": 0.0,
			"-0.014": 0.0,
			"-0.013": 0.0,
			"-0.012": 0.0,
			"-0.011": 0.0263395750249,
			"-0.01": 0.618338462188,
			"-0.009": 0.997885741624,
			"-0.008": 2.8846249158,
			"-0.007": 9.38023976127,
			"-0.006": 15.7388664932,
			"-0.005": 21.8079904239,
			"-0.004": 21.4764527681,
			"-0.003": 17.2046088764,
			"-0.002": 15.6502013239,
			"-0.001": 17.4065502185,
			"0.0": 19.0380972844,
			"0.001": 21.3386466639,
			"0.002": 27.6184114825,
			"0.003": 21.4614270214,
			"0.004": 18.7032542607,
			"0.005": 17.045577579,
			"0.006": 12.100406523,
			"0.007": 4.30645184698,
			"0.008": 5.23863963907,
			"0.009": 3.68410696323,
			"0.01": 1.29310791354,
			"0.011": 0.112663770439,
			"0.012": 0.0,
			"0.013": 0.0,
			"0.014": 0.0,
			"0.015": 0.0,
			"0.016": 0.0,
			"0.017": 0.0,
			"0.018": 0.0,
			"0.019": 0.0,
			"0.02": 0.0,
			"0.021": 0.0,
			"0.022": 0.0,
			"0.023": 0.0,
			"0.024": 0.0,
			"0.025": 0.0
		}
	}
}
