{
	 "smiles": "ON=CC1=C(O)C=CC=C1", 
	 "Tm": 330.65, 
	 "num_atms": 17, 
	 "gaussian": { 
		 "optdone": 1, 
		 "sigma_profile": "yes", 
		 "theory": "DFT", 
		 "functional": "B3LYP", 
		 "basiset": "6-31G**", 
		 "properties": { 
			 "R2extent": 1786.3233, 
			 "electric_dipole_moment_norm": 1.05317798116, 
			 "electric_quadrupole_moment_norm": 10.520943779, 
			 "total_energy": -476.108849433, 
			 "HOMO_LUMO_gap": 0.17058, 
			 "cosmo_polarized_energy": -8.87, 
			 "cosmo_cavitation_energy": 21.28, 
			 "cosmo_dispersion_energy": -16.2, 
			 "cosmo_repulsion_energy": 1.32, 
			 "cosmo_total_nonelectrostatic_energy": 6.4, 
			 "SMD_solvation_energy": 4.77 
		},
		"coords": [
			{
				"x": 4.0957690397,
				"y": 0.9338914123,
				"z": 0.0058189107,
				"element": "O" 
			},
			{
				"x": 2.8866240261,
				"y": 0.2551088442,
				"z": -0.1755765362,
				"element": "N" 
			},
			{
				"x": 2.0502007354,
				"y": 0.4994290618,
				"z": 0.7723125139,
				"element": "C" 
			},
			{
				"x": 0.72342783,
				"y": -0.0982360324,
				"z": 0.7944349228,
				"element": "C" 
			},
			{
				"x": 0.2784780556,
				"y": -0.9815407864,
				"z": -0.2249629655,
				"element": "C" 
			},
			{
				"x": 1.0527524588,
				"y": -1.3220168229,
				"z": -1.2741277662,
				"element": "O" 
			},
			{
				"x": -1.0102503994,
				"y": -1.5275581129,
				"z": -0.1517782692,
				"element": "C" 
			},
			{
				"x": -1.8492411998,
				"y": -1.2085731965,
				"z": 0.9099562511,
				"element": "C" 
			},
			{
				"x": -1.4243760573,
				"y": -0.3386972516,
				"z": 1.923105617,
				"element": "C" 
			},
			{
				"x": -0.1490669147,
				"y": 0.2055559485,
				"z": 1.8565858295,
				"element": "C" 
			},
			{
				"x": 4.615692947,
				"y": 0.6627837753,
				"z": -0.7627610148,
				"element": "H" 
			},
			{
				"x": 2.3359706344,
				"y": 1.1716311006,
				"z": 1.5846556221,
				"element": "H" 
			},
			{
				"x": 1.9182739249,
				"y": -0.8620193472,
				"z": -1.1831056518,
				"element": "H" 
			},
			{
				"x": -1.3259810564,
				"y": -2.1994587182,
				"z": -0.942984512,
				"element": "H" 
			},
			{
				"x": -2.8448645411,
				"y": -1.641386215,
				"z": 0.9499725761,
				"element": "H" 
			},
			{
				"x": -2.082639623,
				"y": -0.0926049139,
				"z": 2.7498264782,
				"element": "H" 
			},
			{
				"x": 0.1963301397,
				"y": 0.8822912544,
				"z": 2.6344279944,
				"element": "H" 
			}
		],
		 "valence_orbital": [ 
			{
				"type": "occ",
				"energy": -0.33648,
				"method": "rhf"
			},
			{
				"type": "occ",
				"energy": -0.29961,
				"method": "rhf"
			},
			{
				"type": "occ",
				"energy": -0.29232,
				"method": "rhf"
			},
			{
				"type": "occ",
				"energy": -0.24054,
				"method": "rhf"
			},
			{
				"type": "occ",
				"energy": -0.2158,
				"method": "rhf"
			},
			{
				"type": "unocc",
				"energy": -0.04522,
				"method": "rhf"
			},
			{
				"type": "unocc",
				"energy": 0.00746,
				"method": "rhf"
			},
			{
				"type": "unocc",
				"energy": 0.04599,
				"method": "rhf"
			},
			{
				"type": "unocc",
				"energy": 0.06178,
				"method": "rhf"
			},
			{
				"type": "unocc",
				"energy": 0.09632,
				"method": "rhf"
			}
		],
		"cosmo_sigma_profile": { 
			"-0.025": 0.0,
			"-0.024": 0.0,
			"-0.023": 0.0,
			"-0.022": 0.0,
			"-0.021": 0.0,
			"-0.02": 0.0,
			"-0.019": 0.0,
			"-0.018": 0.515206424342,
			"-0.017": 1.32500917191,
			"-0.016": 0.874150219312,
			"-0.015": 0.764283439108,
			"-0.014": 0.609203642463,
			"-0.013": 0.97506442574,
			"-0.012": 0.684075403157,
			"-0.011": 0.492640713547,
			"-0.01": 1.09697058194,
			"-0.009": 0.958322686183,
			"-0.008": 3.06801454267,
			"-0.007": 4.20351904138,
			"-0.006": 8.96011834842,
			"-0.005": 9.94418121604,
			"-0.004": 11.1486065136,
			"-0.003": 9.89284434146,
			"-0.002": 8.2914090542,
			"-0.001": 10.102311625,
			"0.0": 11.3680709051,
			"0.001": 11.65442339,
			"0.002": 11.821951705,
			"0.003": 14.4124218785,
			"0.004": 15.5177323473,
			"0.005": 11.4206101782,
			"0.006": 3.20269456979,
			"0.007": 3.36994044703,
			"0.008": 3.5641009516,
			"0.009": 3.21757002561,
			"0.01": 3.53531750768,
			"0.011": 2.24802780017,
			"0.012": 0.791679978665,
			"0.013": 0.0,
			"0.014": 0.0,
			"0.015": 0.0,
			"0.016": 0.0,
			"0.017": 0.0,
			"0.018": 0.0,
			"0.019": 0.0,
			"0.02": 0.0,
			"0.021": 0.0,
			"0.022": 0.0,
			"0.023": 0.0,
			"0.024": 0.0,
			"0.025": 0.0
		}
	}
}
