{
	 "smiles": "CC1=CC(=NO1)C(=O)N1CCN(CC1)C1=CC=CC=C1", 
	 "Tm": 375.15, 
	 "num_atms": 37, 
	 "gaussian": { 
		 "optdone": 1, 
		 "sigma_profile": "yes", 
		 "theory": "DFT", 
		 "functional": "B3LYP", 
		 "basiset": "6-31G**", 
		 "properties": { 
			 "R2extent": 9531.7649, 
			 "electric_dipole_moment_norm": 2.26309592594, 
			 "electric_quadrupole_moment_norm": 16.9737884357, 
			 "total_energy": -896.497121893, 
			 "HOMO_LUMO_gap": 0.14728, 
			 "cosmo_polarized_energy": -13.7, 
			 "cosmo_cavitation_energy": 39.43, 
			 "cosmo_dispersion_energy": -29.02, 
			 "cosmo_repulsion_energy": 2.2, 
			 "cosmo_total_nonelectrostatic_energy": 12.6, 
			 "SMD_solvation_energy": 5.77 
		},
		"coords": [
			{
				"x": 4.6513046928,
				"y": -5.4095224092,
				"z": 1.6211438395,
				"element": "C" 
			},
			{
				"x": 3.7147335056,
				"y": -4.3303607475,
				"z": 1.2027589742,
				"element": "C" 
			},
			{
				"x": 2.3862233648,
				"y": -4.2878162364,
				"z": 0.9136457735,
				"element": "C" 
			},
			{
				"x": 2.1455029958,
				"y": -2.9224228347,
				"z": 0.5840794384,
				"element": "C" 
			},
			{
				"x": 3.2448549865,
				"y": -2.199002682,
				"z": 0.6747000617,
				"element": "N" 
			},
			{
				"x": 4.2418874528,
				"y": -3.0871661147,
				"z": 1.0636836164,
				"element": "O" 
			},
			{
				"x": 0.7751882375,
				"y": -2.4140177115,
				"z": 0.2360252605,
				"element": "C" 
			},
			{
				"x": -0.1708115296,
				"y": -3.1896539144,
				"z": 0.3888116599,
				"element": "O" 
			},
			{
				"x": 0.5924008929,
				"y": -1.1396516596,
				"z": -0.2198766615,
				"element": "N" 
			},
			{
				"x": 1.6334686943,
				"y": -0.1495706917,
				"z": -0.5193414818,
				"element": "C" 
			},
			{
				"x": 1.1792626983,
				"y": 0.7841291378,
				"z": -1.6426725036,
				"element": "C" 
			},
			{
				"x": -0.0570224473,
				"y": 1.4692761028,
				"z": -1.2919178598,
				"element": "N" 
			},
			{
				"x": -0.9379033482,
				"y": 0.7957829736,
				"z": -0.3477967851,
				"element": "C" 
			},
			{
				"x": -0.7963018098,
				"y": -0.721018442,
				"z": -0.4522323207,
				"element": "C" 
			},
			{
				"x": -0.3567965432,
				"y": 2.7301601867,
				"z": -1.7955890311,
				"element": "C" 
			},
			{
				"x": -1.3596076773,
				"y": 3.5337768952,
				"z": -1.2086290336,
				"element": "C" 
			},
			{
				"x": -1.657189983,
				"y": 4.7925445052,
				"z": -1.72582068,
				"element": "C" 
			},
			{
				"x": -0.9696839467,
				"y": 5.3005103962,
				"z": -2.8289237056,
				"element": "C" 
			},
			{
				"x": 0.0260542392,
				"y": 4.5158716976,
				"z": -3.4126197814,
				"element": "C" 
			},
			{
				"x": 0.3301838459,
				"y": 3.250970426,
				"z": -2.9150248759,
				"element": "C" 
			},
			{
				"x": 5.1023070168,
				"y": -5.1807927025,
				"z": 2.5923740413,
				"element": "H" 
			},
			{
				"x": 4.1176231851,
				"y": -6.3584213004,
				"z": 1.6995832971,
				"element": "H" 
			},
			{
				"x": 5.4646962489,
				"y": -5.5246048099,
				"z": 0.8971229547,
				"element": "H" 
			},
			{
				"x": 1.6571829094,
				"y": -5.0810258126,
				"z": 0.9286560134,
				"element": "H" 
			},
			{
				"x": 2.5492607589,
				"y": -0.6575312983,
				"z": -0.8176403026,
				"element": "H" 
			},
			{
				"x": 1.8730069102,
				"y": 0.4406236848,
				"z": 0.3749060292,
				"element": "H" 
			},
			{
				"x": 1.9729368972,
				"y": 1.5233005395,
				"z": -1.7946001181,
				"element": "H" 
			},
			{
				"x": 1.0854381755,
				"y": 0.212305162,
				"z": -2.5807546264,
				"element": "H" 
			},
			{
				"x": -0.7562665174,
				"y": 1.1150690933,
				"z": 0.6921603728,
				"element": "H" 
			},
			{
				"x": -1.9775377093,
				"y": 1.0466383933,
				"z": -0.5822841699,
				"element": "H" 
			},
			{
				"x": -1.1318685218,
				"y": -1.0596566888,
				"z": -1.4415843714,
				"element": "H" 
			},
			{
				"x": -1.4303243812,
				"y": -1.2151185725,
				"z": 0.2864287425,
				"element": "H" 
			},
			{
				"x": -1.8912309154,
				"y": 3.1883266084,
				"z": -0.3293469708,
				"element": "H" 
			},
			{
				"x": -2.4315385823,
				"y": 5.3863540995,
				"z": -1.2471647025,
				"element": "H" 
			},
			{
				"x": -1.2041467659,
				"y": 6.283777376,
				"z": -3.2241194151,
				"element": "H" 
			},
			{
				"x": 0.5710672643,
				"y": 4.8840328272,
				"z": -4.2779275422,
				"element": "H" 
			},
			{
				"x": 1.0852457059,
				"y": 2.6564045233,
				"z": -3.416713136,
				"element": "H" 
			}
		],
		 "valence_orbital": [ 
			{
				"type": "occ",
				"energy": -0.26375,
				"method": "rhf"
			},
			{
				"type": "occ",
				"energy": -0.25924,
				"method": "rhf"
			},
			{
				"type": "occ",
				"energy": -0.24346,
				"method": "rhf"
			},
			{
				"type": "occ",
				"energy": -0.24125,
				"method": "rhf"
			},
			{
				"type": "occ",
				"energy": -0.18802,
				"method": "rhf"
			},
			{
				"type": "unocc",
				"energy": -0.04074,
				"method": "rhf"
			},
			{
				"type": "unocc",
				"energy": 0.00689,
				"method": "rhf"
			},
			{
				"type": "unocc",
				"energy": 0.01447,
				"method": "rhf"
			},
			{
				"type": "unocc",
				"energy": 0.02262,
				"method": "rhf"
			},
			{
				"type": "unocc",
				"energy": 0.07739,
				"method": "rhf"
			}
		],
		"cosmo_sigma_profile": { 
			"-0.025": 0.0,
			"-0.024": 0.0,
			"-0.023": 0.0,
			"-0.022": 0.0,
			"-0.021": 0.0,
			"-0.02": 0.0,
			"-0.019": 0.0,
			"-0.018": 0.0,
			"-0.017": 0.0,
			"-0.016": 0.0,
			"-0.015": 0.0,
			"-0.014": 0.0,
			"-0.013": 0.0,
			"-0.012": 0.0,
			"-0.011": 0.0,
			"-0.01": 0.0,
			"-0.009": 0.0139362435479,
			"-0.008": 0.651970383552,
			"-0.007": 2.72475318849,
			"-0.006": 11.8368329111,
			"-0.005": 33.2064585191,
			"-0.004": 42.4718363052,
			"-0.003": 35.9034028186,
			"-0.002": 28.5156128574,
			"-0.001": 20.7050353646,
			"0.0": 19.7043098152,
			"0.001": 15.170619957,
			"0.002": 14.913860858,
			"0.003": 11.6396616811,
			"0.004": 11.9350227744,
			"0.005": 11.8060056373,
			"0.006": 12.7178832405,
			"0.007": 14.1337707617,
			"0.008": 8.68646342507,
			"0.009": 2.31655610076,
			"0.01": 2.47934817805,
			"0.011": 2.83385346698,
			"0.012": 2.01632959293,
			"0.013": 4.66806097952,
			"0.014": 1.61085928884,
			"0.015": 0.0,
			"0.016": 0.0,
			"0.017": 0.0,
			"0.018": 0.0,
			"0.019": 0.0,
			"0.02": 0.0,
			"0.021": 0.0,
			"0.022": 0.0,
			"0.023": 0.0,
			"0.024": 0.0,
			"0.025": 0.0
		}
	}
}
