{
	 "smiles": "CNC(C1=CN=CC=C1)C1=C(Cl)C=C(Cl)C=C1", 
	 "Tm": 385.15, 
	 "num_atms": 29, 
	 "gaussian": { 
		 "optdone": 1, 
		 "sigma_profile": "yes", 
		 "theory": "DFT", 
		 "functional": "B3LYP", 
		 "basiset": "6-31G**", 
		 "properties": { 
			 "R2extent": 6047.6615, 
			 "electric_dipole_moment_norm": 2.72562075682, 
			 "electric_quadrupole_moment_norm": 14.2066762059, 
			 "total_energy": -1532.48807269, 
			 "HOMO_LUMO_gap": 0.19483, 
			 "cosmo_polarized_energy": -10.41, 
			 "cosmo_cavitation_energy": 35.74, 
			 "cosmo_dispersion_energy": -24.94, 
			 "cosmo_repulsion_energy": 1.94, 
			 "cosmo_total_nonelectrostatic_energy": 12.75, 
			 "SMD_solvation_energy": 3.25 
		},
		"coords": [
			{
				"x": -1.5013342,
				"y": -3.2703000288,
				"z": 0.246212878,
				"element": "C" 
			},
			{
				"x": -0.5895267308,
				"y": -2.2175918395,
				"z": 0.6795349406,
				"element": "N" 
			},
			{
				"x": -0.1696102712,
				"y": -1.2889661858,
				"z": -0.3676618896,
				"element": "C" 
			},
			{
				"x": 0.9819726959,
				"y": -0.4012867115,
				"z": 0.1137208562,
				"element": "C" 
			},
			{
				"x": 1.8066016395,
				"y": -0.8061352979,
				"z": 1.1732814392,
				"element": "C" 
			},
			{
				"x": 2.8643766157,
				"y": -0.1115885053,
				"z": 1.612038844,
				"element": "N" 
			},
			{
				"x": 3.1508893128,
				"y": 1.0374432958,
				"z": 0.9895103268,
				"element": "C" 
			},
			{
				"x": 2.4074720211,
				"y": 1.532327565,
				"z": -0.0819060887,
				"element": "C" 
			},
			{
				"x": 1.3081671368,
				"y": 0.8001186838,
				"z": -0.5240584586,
				"element": "C" 
			},
			{
				"x": -1.3091457087,
				"y": -0.4993739534,
				"z": -1.0331449223,
				"element": "C" 
			},
			{
				"x": -2.1541971488,
				"y": 0.4008386168,
				"z": -0.3637397635,
				"element": "C" 
			},
			{
				"x": -1.9433757253,
				"y": 0.7441717038,
				"z": 1.3532619736,
				"element": "Cl" 
			},
			{
				"x": -3.1948234309,
				"y": 1.0700119178,
				"z": -1.0071193296,
				"element": "C" 
			},
			{
				"x": -3.405830821,
				"y": 0.839639912,
				"z": -2.3651200158,
				"element": "C" 
			},
			{
				"x": -4.7123935313,
				"y": 1.6775732436,
				"z": -3.1818555496,
				"element": "Cl" 
			},
			{
				"x": -2.5967700853,
				"y": -0.0439086352,
				"z": -3.0742930679,
				"element": "C" 
			},
			{
				"x": -1.568423538,
				"y": -0.6970454674,
				"z": -2.3970723506,
				"element": "C" 
			},
			{
				"x": -1.0040155011,
				"y": -3.8971298847,
				"z": -0.5031293989,
				"element": "H" 
			},
			{
				"x": -2.448940217,
				"y": -2.9144033321,
				"z": -0.1905136181,
				"element": "H" 
			},
			{
				"x": -1.7392705009,
				"y": -3.906782668,
				"z": 1.1031044651,
				"element": "H" 
			},
			{
				"x": -0.9808984868,
				"y": -1.7044506134,
				"z": 1.4635929267,
				"element": "H" 
			},
			{
				"x": 0.2417057734,
				"y": -1.922455682,
				"z": -1.1677235143,
				"element": "H" 
			},
			{
				"x": 1.5919951709,
				"y": -1.739924019,
				"z": 1.6845793905,
				"element": "H" 
			},
			{
				"x": 4.0140802224,
				"y": 1.5859270133,
				"z": 1.3633131152,
				"element": "H" 
			},
			{
				"x": 2.6811223399,
				"y": 2.4700344351,
				"z": -0.5558442918,
				"element": "H" 
			},
			{
				"x": 0.7082270991,
				"y": 1.1629964549,
				"z": -1.3535977929,
				"element": "H" 
			},
			{
				"x": -3.8256428893,
				"y": 1.7575023952,
				"z": -0.4571709558,
				"element": "H" 
			},
			{
				"x": -2.7686804051,
				"y": -0.2191714545,
				"z": -4.1301020073,
				"element": "H" 
			},
			{
				"x": -0.9371308359,
				"y": -1.3895709586,
				"z": -2.9478981406,
				"element": "H" 
			}
		],
		 "valence_orbital": [ 
			{
				"type": "occ",
				"energy": -0.27184,
				"method": "rhf"
			},
			{
				"type": "occ",
				"energy": -0.26132,
				"method": "rhf"
			},
			{
				"type": "occ",
				"energy": -0.25217,
				"method": "rhf"
			},
			{
				"type": "occ",
				"energy": -0.24723,
				"method": "rhf"
			},
			{
				"type": "occ",
				"energy": -0.22992,
				"method": "rhf"
			},
			{
				"type": "unocc",
				"energy": -0.03509,
				"method": "rhf"
			},
			{
				"type": "unocc",
				"energy": -0.03271,
				"method": "rhf"
			},
			{
				"type": "unocc",
				"energy": -0.02041,
				"method": "rhf"
			},
			{
				"type": "unocc",
				"energy": -0.00874,
				"method": "rhf"
			},
			{
				"type": "unocc",
				"energy": 0.00173,
				"method": "rhf"
			}
		],
		"cosmo_sigma_profile": { 
			"-0.025": 0.0,
			"-0.024": 0.0,
			"-0.023": 0.0,
			"-0.022": 0.0,
			"-0.021": 0.0,
			"-0.02": 0.0,
			"-0.019": 0.0,
			"-0.018": 0.0,
			"-0.017": 0.0,
			"-0.016": 0.0,
			"-0.015": 0.0,
			"-0.014": 0.0,
			"-0.013": 0.0,
			"-0.012": 0.0,
			"-0.011": 0.0,
			"-0.01": 0.0,
			"-0.009": 0.0718322228906,
			"-0.008": 4.1647606419,
			"-0.007": 9.1472243173,
			"-0.006": 13.9144015336,
			"-0.005": 15.2937128871,
			"-0.004": 19.0977468059,
			"-0.003": 19.6177288284,
			"-0.002": 22.5126436335,
			"-0.001": 27.6811563188,
			"0.0": 28.7059834465,
			"0.001": 29.9743975647,
			"0.002": 27.0827127726,
			"0.003": 25.8473826231,
			"0.004": 21.6571459672,
			"0.005": 6.78297965318,
			"0.006": 2.95203728799,
			"0.007": 1.65147005117,
			"0.008": 2.70557833883,
			"0.009": 1.58373275314,
			"0.01": 1.56253824038,
			"0.011": 1.59385968399,
			"0.012": 1.46752248048,
			"0.013": 1.41654059789,
			"0.014": 0.815716256917,
			"0.015": 0.661593553658,
			"0.016": 1.10165798424,
			"0.017": 0.560257771356,
			"0.018": 0.0333882672012,
			"0.019": 0.0,
			"0.02": 0.0,
			"0.021": 0.0,
			"0.022": 0.0,
			"0.023": 0.0,
			"0.024": 0.0,
			"0.025": 0.0
		}
	}
}
