{
	 "smiles": "BrCC1=C(CBr)N=C2C=CC=CC2=N1", 
	 "Tm": 425.15, 
	 "num_atms": 22, 
	 "gaussian": { 
		 "optdone": 1, 
		 "sigma_profile": "yes", 
		 "theory": "DFT", 
		 "functional": "B3LYP", 
		 "basiset": "6-31G**", 
		 "properties": { 
			 "R2extent": 7091.0803, 
			 "electric_dipole_moment_norm": 3.79391614167, 
			 "electric_quadrupole_moment_norm": 15.1492735981, 
			 "total_energy": -5638.20325488, 
			 "HOMO_LUMO_gap": 0.16651, 
			 "cosmo_polarized_energy": -11.64, 
			 "cosmo_cavitation_energy": 30.62, 
			 "cosmo_dispersion_energy": -22.87, 
			 "cosmo_repulsion_energy": 1.8, 
			 "cosmo_total_nonelectrostatic_energy": 9.55, 
			 "SMD_solvation_energy": -0.18 
		},
		"coords": [
			{
				"x": -2.9976633227,
				"y": -2.2292470721,
				"z": -2.534093745,
				"element": "Br" 
			},
			{
				"x": -2.3383442525,
				"y": -2.2267341654,
				"z": -0.6568539208,
				"element": "C" 
			},
			{
				"x": -1.1551349189,
				"y": -1.3238073445,
				"z": -0.4628897234,
				"element": "C" 
			},
			{
				"x": 0.1810944704,
				"y": -1.6681868682,
				"z": -0.8763196994,
				"element": "C" 
			},
			{
				"x": 0.5047749279,
				"y": -2.9301404801,
				"z": -1.6238821232,
				"element": "C" 
			},
			{
				"x": 0.8599446892,
				"y": -2.5655657351,
				"z": -3.5470582879,
				"element": "Br" 
			},
			{
				"x": 1.2062780822,
				"y": -0.8885499575,
				"z": -0.59338502,
				"element": "N" 
			},
			{
				"x": 0.9643210853,
				"y": 0.2770769968,
				"z": 0.0609642265,
				"element": "C" 
			},
			{
				"x": 2.0392837958,
				"y": 1.1490535329,
				"z": 0.3718340934,
				"element": "C" 
			},
			{
				"x": 1.7887423388,
				"y": 2.3349921798,
				"z": 1.0250502556,
				"element": "C" 
			},
			{
				"x": 0.4660357423,
				"y": 2.6948716629,
				"z": 1.3948868835,
				"element": "C" 
			},
			{
				"x": -0.5949479689,
				"y": 1.8641349509,
				"z": 1.1113494932,
				"element": "C" 
			},
			{
				"x": -0.3655949096,
				"y": 0.6365042471,
				"z": 0.4391902123,
				"element": "C" 
			},
			{
				"x": -1.4072617319,
				"y": -0.1966701514,
				"z": 0.1758695192,
				"element": "N" 
			},
			{
				"x": -2.1309926298,
				"y": -3.2712582043,
				"z": -0.4290378681,
				"element": "H" 
			},
			{
				"x": -3.1669660346,
				"y": -1.8610442219,
				"z": -0.0561931762,
				"element": "H" 
			},
			{
				"x": -0.2955966021,
				"y": -3.6647592197,
				"z": -1.6216882243,
				"element": "H" 
			},
			{
				"x": 1.4317639374,
				"y": -3.3607697984,
				"z": -1.2515123719,
				"element": "H" 
			},
			{
				"x": 3.0397825693,
				"y": 0.8528253297,
				"z": 0.0744043202,
				"element": "H" 
			},
			{
				"x": 2.608044662,
				"y": 3.0075055602,
				"z": 1.2609639634,
				"element": "H" 
			},
			{
				"x": 0.2951988382,
				"y": 3.6365453031,
				"z": 1.9079637948,
				"element": "H" 
			},
			{
				"x": -1.6143627679,
				"y": 2.1147234554,
				"z": 1.3858373982,
				"element": "H" 
			}
		],
		 "valence_orbital": [ 
			{
				"type": "occ",
				"energy": -0.27454,
				"method": "rhf"
			},
			{
				"type": "occ",
				"energy": -0.26742,
				"method": "rhf"
			},
			{
				"type": "occ",
				"energy": -0.26234,
				"method": "rhf"
			},
			{
				"type": "occ",
				"energy": -0.25731,
				"method": "rhf"
			},
			{
				"type": "occ",
				"energy": -0.25327,
				"method": "rhf"
			},
			{
				"type": "unocc",
				"energy": -0.08676,
				"method": "rhf"
			},
			{
				"type": "unocc",
				"energy": -0.05792,
				"method": "rhf"
			},
			{
				"type": "unocc",
				"energy": -0.00515,
				"method": "rhf"
			},
			{
				"type": "unocc",
				"energy": 0.0054,
				"method": "rhf"
			},
			{
				"type": "unocc",
				"energy": 0.00868,
				"method": "rhf"
			}
		],
		"cosmo_sigma_profile": { 
			"-0.025": 0.0,
			"-0.024": 0.0,
			"-0.023": 0.0,
			"-0.022": 0.0,
			"-0.021": 0.0,
			"-0.02": 0.0,
			"-0.019": 0.0,
			"-0.018": 0.0,
			"-0.017": 0.0,
			"-0.016": 0.0,
			"-0.015": 0.0,
			"-0.014": 0.0,
			"-0.013": 0.0,
			"-0.012": 0.113018726082,
			"-0.011": 1.32255873323,
			"-0.01": 2.20209215284,
			"-0.009": 2.86312376618,
			"-0.008": 5.55526692326,
			"-0.007": 11.4216103037,
			"-0.006": 14.5664733132,
			"-0.005": 17.4680667893,
			"-0.004": 12.7673560128,
			"-0.003": 13.4806347471,
			"-0.002": 13.4082725474,
			"-0.001": 15.1228353332,
			"0.0": 17.0017895457,
			"0.001": 19.5871971169,
			"0.002": 22.6053072964,
			"0.003": 19.1100323838,
			"0.004": 13.4494244571,
			"0.005": 18.9729777141,
			"0.006": 16.7625501986,
			"0.007": 5.55865002357,
			"0.008": 2.2336263539,
			"0.009": 2.12635817848,
			"0.01": 1.54966030989,
			"0.011": 1.16309957578,
			"0.012": 1.30624742613,
			"0.013": 0.471812842307,
			"0.014": 0.00411737586839,
			"0.015": 0.0,
			"0.016": 0.0,
			"0.017": 0.0,
			"0.018": 0.0,
			"0.019": 0.0,
			"0.02": 0.0,
			"0.021": 0.0,
			"0.022": 0.0,
			"0.023": 0.0,
			"0.024": 0.0,
			"0.025": 0.0
		}
	}
}
