{
	 "smiles": "OC(=O)C(N1CCS(=O)(=O)CC1)C1=CC=CC=C1", 
	 "Tm": 439.15, 
	 "num_atms": 33, 
	 "gaussian": { 
		 "optdone": 1, 
		 "sigma_profile": "yes", 
		 "theory": "DFT", 
		 "functional": "B3LYP", 
		 "basiset": "6-31G**", 
		 "properties": { 
			 "R2extent": 5680.3449, 
			 "electric_dipole_moment_norm": 4.08977412701, 
			 "electric_quadrupole_moment_norm": 37.7560098713, 
			 "total_energy": -1220.0777435, 
			 "HOMO_LUMO_gap": 0.20127, 
			 "cosmo_polarized_energy": -23.23, 
			 "cosmo_cavitation_energy": 36.05, 
			 "cosmo_dispersion_energy": -25.7, 
			 "cosmo_repulsion_energy": 1.95, 
			 "cosmo_total_nonelectrostatic_energy": 12.3, 
			 "SMD_solvation_energy": 4.33 
		},
		"coords": [
			{
				"x": -0.3146795677,
				"y": 2.8202271529,
				"z": 0.0721745321,
				"element": "O" 
			},
			{
				"x": -1.2480216519,
				"y": 1.9330272096,
				"z": -0.3559570293,
				"element": "C" 
			},
			{
				"x": -2.420036704,
				"y": 2.2211580377,
				"z": -0.4329412796,
				"element": "O" 
			},
			{
				"x": -0.6882819391,
				"y": 0.5506359654,
				"z": -0.7109647281,
				"element": "C" 
			},
			{
				"x": 0.4856698338,
				"y": 0.6462758126,
				"z": -1.6010666908,
				"element": "N" 
			},
			{
				"x": 1.7757473591,
				"y": 0.9168483013,
				"z": -0.9468257111,
				"element": "C" 
			},
			{
				"x": 2.9306810549,
				"y": 0.877948815,
				"z": -1.94565484,
				"element": "C" 
			},
			{
				"x": 3.2421451815,
				"y": -0.8346801516,
				"z": -2.5048512801,
				"element": "S" 
			},
			{
				"x": 3.6604749206,
				"y": -0.7933429215,
				"z": -3.916137837,
				"element": "O" 
			},
			{
				"x": 4.0682365662,
				"y": -1.515094368,
				"z": -1.4940451651,
				"element": "O" 
			},
			{
				"x": 1.5447750022,
				"y": -1.5060305033,
				"z": -2.4261500166,
				"element": "C" 
			},
			{
				"x": 0.5448369267,
				"y": -0.3653051553,
				"z": -2.6691984648,
				"element": "C" 
			},
			{
				"x": -0.5476686579,
				"y": -0.3413331512,
				"z": 0.5295270916,
				"element": "C" 
			},
			{
				"x": -0.9641678759,
				"y": -1.6786166345,
				"z": 0.4488352262,
				"element": "C" 
			},
			{
				"x": -0.8187491517,
				"y": -2.542274251,
				"z": 1.5344280926,
				"element": "C" 
			},
			{
				"x": -0.2581116413,
				"y": -2.0776059979,
				"z": 2.7256302804,
				"element": "C" 
			},
			{
				"x": 0.1493502268,
				"y": -0.7467670736,
				"z": 2.8226760668,
				"element": "C" 
			},
			{
				"x": 0.0051060573,
				"y": 0.1162829066,
				"z": 1.7345472496,
				"element": "C" 
			},
			{
				"x": -0.7971099278,
				"y": 3.6446776439,
				"z": 0.2577610052,
				"element": "H" 
			},
			{
				"x": -1.4923227212,
				"y": 0.1262574443,
				"z": -1.3147096294,
				"element": "H" 
			},
			{
				"x": 1.9940008417,
				"y": 0.2068715118,
				"z": -0.133080044,
				"element": "H" 
			},
			{
				"x": 1.7379199357,
				"y": 1.9111819931,
				"z": -0.4963903905,
				"element": "H" 
			},
			{
				"x": 3.8661407187,
				"y": 1.1964356365,
				"z": -1.4795907972,
				"element": "H" 
			},
			{
				"x": 2.7386209725,
				"y": 1.4859328847,
				"z": -2.8321598599,
				"element": "H" 
			},
			{
				"x": 1.500033016,
				"y": -2.2626478789,
				"z": -3.2141161663,
				"element": "H" 
			},
			{
				"x": 1.4175483837,
				"y": -1.9773375163,
				"z": -1.4495971028,
				"element": "H" 
			},
			{
				"x": 0.8029000038,
				"y": 0.1183856855,
				"z": -3.6210838714,
				"element": "H" 
			},
			{
				"x": -0.4516215633,
				"y": -0.7907631248,
				"z": -2.8117640659,
				"element": "H" 
			},
			{
				"x": -1.4186978768,
				"y": -2.0444048411,
				"z": -0.4689138739,
				"element": "H" 
			},
			{
				"x": -1.1513187498,
				"y": -3.5730258432,
				"z": 1.4529606632,
				"element": "H" 
			},
			{
				"x": -0.1458170573,
				"y": -2.7466172232,
				"z": 3.5735991251,
				"element": "H" 
			},
			{
				"x": 0.5798045275,
				"y": -0.3756745696,
				"z": 3.7482884101,
				"element": "H" 
			},
			{
				"x": 0.316113557,
				"y": 1.151974204,
				"z": 1.8265711007,
				"element": "H" 
			}
		],
		 "valence_orbital": [ 
			{
				"type": "occ",
				"energy": -0.291,
				"method": "rhf"
			},
			{
				"type": "occ",
				"energy": -0.27749,
				"method": "rhf"
			},
			{
				"type": "occ",
				"energy": -0.26608,
				"method": "rhf"
			},
			{
				"type": "occ",
				"energy": -0.26236,
				"method": "rhf"
			},
			{
				"type": "occ",
				"energy": -0.23006,
				"method": "rhf"
			},
			{
				"type": "unocc",
				"energy": -0.02879,
				"method": "rhf"
			},
			{
				"type": "unocc",
				"energy": -0.01919,
				"method": "rhf"
			},
			{
				"type": "unocc",
				"energy": 0.00437,
				"method": "rhf"
			},
			{
				"type": "unocc",
				"energy": 0.04727,
				"method": "rhf"
			},
			{
				"type": "unocc",
				"energy": 0.06237,
				"method": "rhf"
			}
		],
		"cosmo_sigma_profile": { 
			"-0.025": 0.0,
			"-0.024": 0.0,
			"-0.023": 0.0,
			"-0.022": 0.0,
			"-0.021": 0.0,
			"-0.02": 0.0,
			"-0.019": 0.0649121020289,
			"-0.018": 1.01826230544,
			"-0.017": 0.815786543337,
			"-0.016": 0.719906151729,
			"-0.015": 0.971611282315,
			"-0.014": 0.905424820155,
			"-0.013": 0.222471701585,
			"-0.012": 0.824758032575,
			"-0.011": 1.06809667974,
			"-0.01": 0.869259235577,
			"-0.009": 3.29204520833,
			"-0.008": 9.4821733984,
			"-0.007": 12.5153652708,
			"-0.006": 18.8652196566,
			"-0.005": 22.8622355359,
			"-0.004": 27.4295332542,
			"-0.003": 19.8343368897,
			"-0.002": 18.0503486274,
			"-0.001": 15.1764043974,
			"0.0": 12.6236910691,
			"0.001": 12.4407148976,
			"0.002": 12.8005255762,
			"0.003": 11.8943578184,
			"0.004": 12.6592650891,
			"0.005": 10.8445533582,
			"0.006": 6.03128828158,
			"0.007": 4.15411602239,
			"0.008": 3.95325273072,
			"0.009": 4.62190048792,
			"0.01": 6.65397529819,
			"0.011": 12.7919895245,
			"0.012": 15.140339647,
			"0.013": 2.98467259298,
			"0.014": 0.0,
			"0.015": 0.0,
			"0.016": 0.0,
			"0.017": 0.0,
			"0.018": 0.0,
			"0.019": 0.0,
			"0.02": 0.0,
			"0.021": 0.0,
			"0.022": 0.0,
			"0.023": 0.0,
			"0.024": 0.0,
			"0.025": 0.0
		}
	}
}
