{
	 "smiles": "C[C@H]1[C@@H](O[C@@H]([C@@H](C)C1=O)C1=CC=C(C)C=C1)C1=CC=C(C)C=C1", 
	 "Tm": 413.5, 
	 "num_atms": 47, 
	 "gaussian": { 
		 "optdone": 1, 
		 "sigma_profile": "yes", 
		 "theory": "DFT", 
		 "functional": "B3LYP", 
		 "basiset": "6-31G**", 
		 "properties": { 
			 "R2extent": 8373.5264, 
			 "electric_dipole_moment_norm": 2.1607033068, 
			 "electric_quadrupole_moment_norm": 13.6581759536, 
			 "total_energy": -965.15629886, 
			 "HOMO_LUMO_gap": 0.20704, 
			 "cosmo_polarized_energy": -11.31, 
			 "cosmo_cavitation_energy": 47.05, 
			 "cosmo_dispersion_energy": -31.68, 
			 "cosmo_repulsion_energy": 2.42, 
			 "cosmo_total_nonelectrostatic_energy": 17.79, 
			 "SMD_solvation_energy": 8.2 
		},
		"coords": [
			{
				"x": -2.0248712593,
				"y": 3.6843991717,
				"z": -0.8527636903,
				"element": "C" 
			},
			{
				"x": -1.2634303242,
				"y": 2.5142024069,
				"z": -1.5122226398,
				"element": "C" 
			},
			{
				"x": -0.1382194761,
				"y": 1.9834151019,
				"z": -0.614378374,
				"element": "C" 
			},
			{
				"x": -0.6569681197,
				"y": 1.3534059899,
				"z": 0.5719749467,
				"element": "O" 
			},
			{
				"x": -1.8877983733,
				"y": 0.6135819255,
				"z": 0.4912496577,
				"element": "C" 
			},
			{
				"x": -2.244265717,
				"y": 0.1777683615,
				"z": -0.95336378,
				"element": "C" 
			},
			{
				"x": -3.559809324,
				"y": -0.5989092613,
				"z": -1.0479464728,
				"element": "C" 
			},
			{
				"x": -2.2444428561,
				"y": 1.3984856704,
				"z": -1.8756639894,
				"element": "C" 
			},
			{
				"x": -2.9865364512,
				"y": 1.4990565649,
				"z": -2.8348899093,
				"element": "O" 
			},
			{
				"x": -1.7960766764,
				"y": -0.5528538938,
				"z": 1.4571812931,
				"element": "C" 
			},
			{
				"x": -0.7340130172,
				"y": -1.4654759228,
				"z": 1.3912864843,
				"element": "C" 
			},
			{
				"x": -0.6754039757,
				"y": -2.5490707775,
				"z": 2.2630687284,
				"element": "C" 
			},
			{
				"x": -1.668828382,
				"y": -2.7593271927,
				"z": 3.2322031539,
				"element": "C" 
			},
			{
				"x": -1.580937397,
				"y": -3.9238634271,
				"z": 4.1904762278,
				"element": "C" 
			},
			{
				"x": -2.7243388547,
				"y": -1.8440653568,
				"z": 3.2953903075,
				"element": "C" 
			},
			{
				"x": -2.7844361568,
				"y": -0.7544643439,
				"z": 2.423785047,
				"element": "C" 
			},
			{
				"x": 0.8919349434,
				"y": 1.080636517,
				"z": -1.3010822548,
				"element": "C" 
			},
			{
				"x": 1.8791776516,
				"y": 0.4838457043,
				"z": -0.4986469441,
				"element": "C" 
			},
			{
				"x": 2.871308206,
				"y": -0.3171219999,
				"z": -1.0540831368,
				"element": "C" 
			},
			{
				"x": 2.9212162556,
				"y": -0.5569291291,
				"z": -2.436811548,
				"element": "C" 
			},
			{
				"x": 3.9952838496,
				"y": -1.436516712,
				"z": -3.0317382689,
				"element": "C" 
			},
			{
				"x": 1.9411296634,
				"y": 0.0391105752,
				"z": -3.2337376894,
				"element": "C" 
			},
			{
				"x": 0.9428140083,
				"y": 0.8470043395,
				"z": -2.6788249411,
				"element": "C" 
			},
			{
				"x": -2.8550578106,
				"y": 3.998396655,
				"z": -1.4904586556,
				"element": "H" 
			},
			{
				"x": -1.3528007647,
				"y": 4.5373331858,
				"z": -0.7138494141,
				"element": "H" 
			},
			{
				"x": -2.4205939586,
				"y": 3.4119032396,
				"z": 0.1292768571,
				"element": "H" 
			},
			{
				"x": -0.8442967221,
				"y": 2.8912484072,
				"z": -2.4503631491,
				"element": "H" 
			},
			{
				"x": 0.4110687222,
				"y": 2.8495508782,
				"z": -0.2214942368,
				"element": "H" 
			},
			{
				"x": -2.7038202592,
				"y": 1.2674228395,
				"z": 0.8396179319,
				"element": "H" 
			},
			{
				"x": -1.4235503363,
				"y": -0.4621040415,
				"z": -1.3104758997,
				"element": "H" 
			},
			{
				"x": -4.3856616411,
				"y": -0.025913547,
				"z": -0.6119199205,
				"element": "H" 
			},
			{
				"x": -3.8061287625,
				"y": -0.7812982975,
				"z": -2.0955008415,
				"element": "H" 
			},
			{
				"x": -3.4914669383,
				"y": -1.5532197523,
				"z": -0.5219473632,
				"element": "H" 
			},
			{
				"x": 0.0545086684,
				"y": -1.3179805208,
				"z": 0.6596394837,
				"element": "H" 
			},
			{
				"x": 0.1571756517,
				"y": -3.2456765201,
				"z": 2.1937656495,
				"element": "H" 
			},
			{
				"x": -0.838351728,
				"y": -3.7370996409,
				"z": 4.9762625659,
				"element": "H" 
			},
			{
				"x": -1.2804809106,
				"y": -4.8432963575,
				"z": 3.6769903539,
				"element": "H" 
			},
			{
				"x": -2.5395082498,
				"y": -4.1102591808,
				"z": 4.6830820818,
				"element": "H" 
			},
			{
				"x": -3.50710826,
				"y": -1.9796168721,
				"z": 4.0378090639,
				"element": "H" 
			},
			{
				"x": -3.6125344624,
				"y": -0.0536037646,
				"z": 2.4989181159,
				"element": "H" 
			},
			{
				"x": 1.8541700333,
				"y": 0.6501830566,
				"z": 0.5741530156,
				"element": "H" 
			},
			{
				"x": 3.6236951152,
				"y": -0.762167096,
				"z": -0.4066550647,
				"element": "H" 
			},
			{
				"x": 4.9946782195,
				"y": -1.113506736,
				"z": -2.7194731804,
				"element": "H" 
			},
			{
				"x": 3.8804505994,
				"y": -2.478668564,
				"z": -2.7101151419,
				"element": "H" 
			},
			{
				"x": 3.9641270657,
				"y": -1.4220765132,
				"z": -4.1246614294,
				"element": "H" 
			},
			{
				"x": 1.9517325916,
				"y": -0.1267898743,
				"z": -4.3082159204,
				"element": "H" 
			},
			{
				"x": 0.2048659204,
				"y": 1.2830247045,
				"z": -3.3446471095,
				"element": "H" 
			}
		],
		 "valence_orbital": [ 
			{
				"type": "occ",
				"energy": -0.25042,
				"method": "rhf"
			},
			{
				"type": "occ",
				"energy": -0.2461,
				"method": "rhf"
			},
			{
				"type": "occ",
				"energy": -0.24097,
				"method": "rhf"
			},
			{
				"type": "occ",
				"energy": -0.23661,
				"method": "rhf"
			},
			{
				"type": "occ",
				"energy": -0.22988,
				"method": "rhf"
			},
			{
				"type": "unocc",
				"energy": -0.02284,
				"method": "rhf"
			},
			{
				"type": "unocc",
				"energy": -0.00853,
				"method": "rhf"
			},
			{
				"type": "unocc",
				"energy": -0.00262,
				"method": "rhf"
			},
			{
				"type": "unocc",
				"energy": 0.00084,
				"method": "rhf"
			},
			{
				"type": "unocc",
				"energy": 0.0049,
				"method": "rhf"
			}
		],
		"cosmo_sigma_profile": { 
			"-0.025": 0.0,
			"-0.024": 0.0,
			"-0.023": 0.0,
			"-0.022": 0.0,
			"-0.021": 0.0,
			"-0.02": 0.0,
			"-0.019": 0.0,
			"-0.018": 0.0,
			"-0.017": 0.0,
			"-0.016": 0.0,
			"-0.015": 0.0,
			"-0.014": 0.0,
			"-0.013": 0.0,
			"-0.012": 0.0,
			"-0.011": 0.0,
			"-0.01": 0.0,
			"-0.009": 0.0,
			"-0.008": 0.0,
			"-0.007": 1.08527016764,
			"-0.006": 6.08819667824,
			"-0.005": 24.8311746417,
			"-0.004": 39.5684971969,
			"-0.003": 41.6204748094,
			"-0.002": 42.4274049453,
			"-0.001": 39.6172080329,
			"0.0": 43.3496632384,
			"0.001": 28.1571996251,
			"0.002": 16.5113869824,
			"0.003": 17.4316715318,
			"0.004": 15.7563196313,
			"0.005": 15.9119796847,
			"0.006": 14.7537625423,
			"0.007": 3.81716294903,
			"0.008": 2.5167948972,
			"0.009": 2.47370773229,
			"0.01": 3.5641876382,
			"0.011": 3.81767555176,
			"0.012": 4.93344848626,
			"0.013": 1.5908403565,
			"0.014": 0.0564665627599,
			"0.015": 0.0,
			"0.016": 0.0,
			"0.017": 0.0,
			"0.018": 0.0,
			"0.019": 0.0,
			"0.02": 0.0,
			"0.021": 0.0,
			"0.022": 0.0,
			"0.023": 0.0,
			"0.024": 0.0,
			"0.025": 0.0
		}
	}
}
