{
	 "smiles": "CC(CSC(C)=O)C(O)=O", 
	 "Tm": 278.15, 
	 "num_atms": 20, 
	 "gaussian": { 
		 "optdone": 1, 
		 "sigma_profile": "yes", 
		 "theory": "DFT", 
		 "functional": "B3LYP", 
		 "basiset": "6-31G**", 
		 "properties": { 
			 "R2extent": 2402.2939, 
			 "electric_dipole_moment_norm": 2.02757371013, 
			 "electric_quadrupole_moment_norm": 10.2565669008, 
			 "total_energy": -858.554047256, 
			 "HOMO_LUMO_gap": 0.23434, 
			 "cosmo_polarized_energy": -11.46, 
			 "cosmo_cavitation_energy": 25.63, 
			 "cosmo_dispersion_energy": -18.47, 
			 "cosmo_repulsion_energy": 1.49, 
			 "cosmo_total_nonelectrostatic_energy": 8.65, 
			 "SMD_solvation_energy": 6.23 
		},
		"coords": [
			{
				"x": -1.7366564624,
				"y": -0.3987267653,
				"z": 1.4975204961,
				"element": "C" 
			},
			{
				"x": -0.4259648734,
				"y": 0.4120901151,
				"z": 1.5043331196,
				"element": "C" 
			},
			{
				"x": 0.8276733055,
				"y": -0.4451835925,
				"z": 1.278566651,
				"element": "C" 
			},
			{
				"x": 0.9047851806,
				"y": -1.2357926433,
				"z": -0.373268323,
				"element": "S" 
			},
			{
				"x": 1.5485689621,
				"y": 0.1564310802,
				"z": -1.3349534147,
				"element": "C" 
			},
			{
				"x": 1.767990342,
				"y": -0.1723204605,
				"z": -2.797452432,
				"element": "C" 
			},
			{
				"x": 1.7778696106,
				"y": 1.2377198154,
				"z": -0.8405415531,
				"element": "O" 
			},
			{
				"x": -0.2879041023,
				"y": 1.1478337811,
				"z": 2.828651405,
				"element": "C" 
			},
			{
				"x": -1.1966853612,
				"y": 2.1463194473,
				"z": 2.94284542,
				"element": "O" 
			},
			{
				"x": 0.5086864308,
				"y": 0.8900482103,
				"z": 3.7052340082,
				"element": "O" 
			},
			{
				"x": -1.7362239965,
				"y": -1.1463349494,
				"z": 2.2984027475,
				"element": "H" 
			},
			{
				"x": -2.598416021,
				"y": 0.2574286933,
				"z": 1.6399240744,
				"element": "H" 
			},
			{
				"x": -1.8511861062,
				"y": -0.9203553722,
				"z": 0.543859944,
				"element": "H" 
			},
			{
				"x": -0.477979005,
				"y": 1.1755684134,
				"z": 0.720625893,
				"element": "H" 
			},
			{
				"x": 1.7270198117,
				"y": 0.1638749385,
				"z": 1.3790096803,
				"element": "H" 
			},
			{
				"x": 0.8831945802,
				"y": -1.2581885417,
				"z": 2.0061125991,
				"element": "H" 
			},
			{
				"x": 0.8259673879,
				"y": -0.4760635953,
				"z": -3.2647751603,
				"element": "H" 
			},
			{
				"x": 2.1619950113,
				"y": 0.7111253696,
				"z": -3.3021099551,
				"element": "H" 
			},
			{
				"x": 2.4723523184,
				"y": -1.0035589093,
				"z": -2.9007073811,
				"element": "H" 
			},
			{
				"x": -1.051987013,
				"y": 2.5442849651,
				"z": 3.8179221809,
				"element": "H" 
			}
		],
		 "valence_orbital": [ 
			{
				"type": "occ",
				"energy": -0.33853,
				"method": "rhf"
			},
			{
				"type": "occ",
				"energy": -0.32006,
				"method": "rhf"
			},
			{
				"type": "occ",
				"energy": -0.27623,
				"method": "rhf"
			},
			{
				"type": "occ",
				"energy": -0.26301,
				"method": "rhf"
			},
			{
				"type": "occ",
				"energy": -0.25498,
				"method": "rhf"
			},
			{
				"type": "unocc",
				"energy": -0.02064,
				"method": "rhf"
			},
			{
				"type": "unocc",
				"energy": 0.00627,
				"method": "rhf"
			},
			{
				"type": "unocc",
				"energy": 0.02614,
				"method": "rhf"
			},
			{
				"type": "unocc",
				"energy": 0.07106,
				"method": "rhf"
			},
			{
				"type": "unocc",
				"energy": 0.07733,
				"method": "rhf"
			}
		],
		"cosmo_sigma_profile": { 
			"-0.025": 0.0,
			"-0.024": 0.0,
			"-0.023": 0.0,
			"-0.022": 0.0,
			"-0.021": 0.0,
			"-0.02": 0.0,
			"-0.019": 0.0,
			"-0.018": 0.710220861924,
			"-0.017": 0.863905050495,
			"-0.016": 1.16035507732,
			"-0.015": 0.543979821744,
			"-0.014": 0.822033059036,
			"-0.013": 0.501355633154,
			"-0.012": 0.592251201955,
			"-0.011": 0.854255973879,
			"-0.01": 1.10702504291,
			"-0.009": 0.430634919685,
			"-0.008": 0.289223026663,
			"-0.007": 3.51618532623,
			"-0.006": 9.0490480299,
			"-0.005": 12.2518754702,
			"-0.004": 16.5014239287,
			"-0.003": 22.0569788966,
			"-0.002": 22.2606371943,
			"-0.001": 19.5575175006,
			"0.0": 14.5460085587,
			"0.001": 9.21338660936,
			"0.002": 7.76174260107,
			"0.003": 6.54458255985,
			"0.004": 8.15559098401,
			"0.005": 7.84507094867,
			"0.006": 5.73845379191,
			"0.007": 5.31362380188,
			"0.008": 4.09584678836,
			"0.009": 4.02546650989,
			"0.01": 5.47903616607,
			"0.011": 6.99160535241,
			"0.012": 4.13281269127,
			"0.013": 0.132017821217,
			"0.014": 0.0,
			"0.015": 0.0,
			"0.016": 0.0,
			"0.017": 0.0,
			"0.018": 0.0,
			"0.019": 0.0,
			"0.02": 0.0,
			"0.021": 0.0,
			"0.022": 0.0,
			"0.023": 0.0,
			"0.024": 0.0,
			"0.025": 0.0
		}
	}
}
