{
	 "smiles": "[O-][N+](=O)C1=CC=C(NN=CC2=CC=CC=N2)C=C1", 
	 "Tm": 530.65, 
	 "num_atms": 28, 
	 "gaussian": { 
		 "optdone": 1, 
		 "sigma_profile": "yes", 
		 "theory": "DFT", 
		 "functional": "B3LYP", 
		 "basiset": "6-31G**", 
		 "properties": { 
			 "R2extent": 8448.9506, 
			 "electric_dipole_moment_norm": 9.1744818088, 
			 "electric_quadrupole_moment_norm": 24.0505801575, 
			 "total_energy": -832.620969932, 
			 "HOMO_LUMO_gap": 0.13527, 
			 "cosmo_polarized_energy": -21.78, 
			 "cosmo_cavitation_energy": 34.79, 
			 "cosmo_dispersion_energy": -25.39, 
			 "cosmo_repulsion_energy": 1.94, 
			 "cosmo_total_nonelectrostatic_energy": 11.34, 
			 "SMD_solvation_energy": 6.65 
		},
		"coords": [
			{
				"x": 4.5575108347,
				"y": -1.1380148527,
				"z": 4.7665065652,
				"element": "O" 
			},
			{
				"x": 3.3916844106,
				"y": -1.4897470607,
				"z": 4.5656570762,
				"element": "N" 
			},
			{
				"x": 2.7474449092,
				"y": -2.2253095266,
				"z": 5.31757917,
				"element": "O" 
			},
			{
				"x": 2.7326829515,
				"y": -1.0034134214,
				"z": 3.3593822368,
				"element": "C" 
			},
			{
				"x": 1.4124567531,
				"y": -1.3799023533,
				"z": 3.0964928784,
				"element": "C" 
			},
			{
				"x": 0.7806670609,
				"y": -0.920962676,
				"z": 1.951678284,
				"element": "C" 
			},
			{
				"x": 1.4762638396,
				"y": -0.0780054532,
				"z": 1.0624548115,
				"element": "C" 
			},
			{
				"x": 0.8783626931,
				"y": 0.4005869442,
				"z": -0.0912525335,
				"element": "N" 
			},
			{
				"x": -0.3858785105,
				"y": 0.0816740127,
				"z": -0.4100361856,
				"element": "N" 
			},
			{
				"x": -0.8762812204,
				"y": 0.5634828423,
				"z": -1.4976054106,
				"element": "C" 
			},
			{
				"x": -2.2469764584,
				"y": 0.273928811,
				"z": -1.9327604837,
				"element": "C" 
			},
			{
				"x": -2.710583072,
				"y": 0.8384147707,
				"z": -3.1331719225,
				"element": "C" 
			},
			{
				"x": -4.0109898897,
				"y": 0.5663169209,
				"z": -3.550200345,
				"element": "C" 
			},
			{
				"x": -4.8079726273,
				"y": -0.2585836344,
				"z": -2.7594420895,
				"element": "C" 
			},
			{
				"x": -4.2563540528,
				"y": -0.773380279,
				"z": -1.5805518479,
				"element": "C" 
			},
			{
				"x": -3.0152022203,
				"y": -0.5244562694,
				"z": -1.1653415453,
				"element": "N" 
			},
			{
				"x": 2.8065749998,
				"y": 0.2926394077,
				"z": 1.3411754093,
				"element": "C" 
			},
			{
				"x": 3.4343420129,
				"y": -0.1687251512,
				"z": 2.4872266251,
				"element": "C" 
			},
			{
				"x": 0.9004805352,
				"y": -2.0286512322,
				"z": 3.7962972331,
				"element": "H" 
			},
			{
				"x": -0.2410607602,
				"y": -1.1970193609,
				"z": 1.7237936637,
				"element": "H" 
			},
			{
				"x": 1.4193792414,
				"y": 1.0075622443,
				"z": -0.703944443,
				"element": "H" 
			},
			{
				"x": -0.2817812968,
				"y": 1.2176125718,
				"z": -2.1500200525,
				"element": "H" 
			},
			{
				"x": -2.0594188548,
				"y": 1.4771215546,
				"z": -3.723196748,
				"element": "H" 
			},
			{
				"x": -4.3928187086,
				"y": 0.9906153299,
				"z": -4.4742284798,
				"element": "H" 
			},
			{
				"x": -5.8276778998,
				"y": -0.5006837091,
				"z": -3.04078187,
				"element": "H" 
			},
			{
				"x": -4.8510094916,
				"y": -1.4216618514,
				"z": -0.9384419219,
				"element": "H" 
			},
			{
				"x": 3.3432054465,
				"y": 0.9428775748,
				"z": 0.655272216,
				"element": "H" 
			},
			{
				"x": 4.4558493743,
				"y": 0.1035838468,
				"z": 2.7208597095,
				"element": "H" 
			}
		],
		 "valence_orbital": [ 
			{
				"type": "occ",
				"energy": -0.27494,
				"method": "rhf"
			},
			{
				"type": "occ",
				"energy": -0.2737,
				"method": "rhf"
			},
			{
				"type": "occ",
				"energy": -0.27079,
				"method": "rhf"
			},
			{
				"type": "occ",
				"energy": -0.26193,
				"method": "rhf"
			},
			{
				"type": "occ",
				"energy": -0.21538,
				"method": "rhf"
			},
			{
				"type": "unocc",
				"energy": -0.08011,
				"method": "rhf"
			},
			{
				"type": "unocc",
				"energy": -0.05578,
				"method": "rhf"
			},
			{
				"type": "unocc",
				"energy": -0.02786,
				"method": "rhf"
			},
			{
				"type": "unocc",
				"energy": -0.01959,
				"method": "rhf"
			},
			{
				"type": "unocc",
				"energy": 0.01887,
				"method": "rhf"
			}
		],
		"cosmo_sigma_profile": { 
			"-0.025": 0.0,
			"-0.024": 0.0,
			"-0.023": 0.0,
			"-0.022": 0.0,
			"-0.021": 0.0,
			"-0.02": 0.0,
			"-0.019": 0.0,
			"-0.018": 0.0,
			"-0.017": 0.0,
			"-0.016": 0.71705133839,
			"-0.015": 1.82886935192,
			"-0.014": 2.39031769677,
			"-0.013": 1.27852968237,
			"-0.012": 1.80249498208,
			"-0.011": 2.00090011237,
			"-0.01": 0.884045887596,
			"-0.009": 2.1364168767,
			"-0.008": 6.30269651551,
			"-0.007": 13.7982561097,
			"-0.006": 16.7421414179,
			"-0.005": 16.2186717905,
			"-0.004": 13.5730415136,
			"-0.003": 14.5450111179,
			"-0.002": 13.3052322172,
			"-0.001": 16.3124771862,
			"0.0": 20.8693848606,
			"0.001": 28.8609938027,
			"0.002": 32.0869041175,
			"0.003": 16.457643491,
			"0.004": 5.6225391743,
			"0.005": 5.55544056137,
			"0.006": 5.35602327411,
			"0.007": 5.34668634179,
			"0.008": 10.6393276149,
			"0.009": 9.09185787401,
			"0.01": 5.45498135341,
			"0.011": 3.98957398403,
			"0.012": 1.57476731662,
			"0.013": 0.749374386628,
			"0.014": 0.826370908866,
			"0.015": 1.18548511986,
			"0.016": 0.97649989956,
			"0.017": 1.38372737242,
			"0.018": 0.213937285694,
			"0.019": 0.0,
			"0.02": 0.0,
			"0.021": 0.0,
			"0.022": 0.0,
			"0.023": 0.0,
			"0.024": 0.0,
			"0.025": 0.0
		}
	}
}
