{
	 "smiles": "OC(=O)CC1CCC(CC1)C1=CC=CC=C1", 
	 "Tm": 357.15, 
	 "num_atms": 34, 
	 "gaussian": { 
		 "optdone": 1, 
		 "sigma_profile": "yes", 
		 "theory": "DFT", 
		 "functional": "B3LYP", 
		 "basiset": "6-31G**", 
		 "properties": { 
			 "R2extent": 5789.4525, 
			 "electric_dipole_moment_norm": 1.68652102863, 
			 "electric_quadrupole_moment_norm": 9.43547583856, 
			 "total_energy": -694.814061441, 
			 "HOMO_LUMO_gap": 0.23733, 
			 "cosmo_polarized_energy": -10.48, 
			 "cosmo_cavitation_energy": 35.06, 
			 "cosmo_dispersion_energy": -24.8, 
			 "cosmo_repulsion_energy": 1.95, 
			 "cosmo_total_nonelectrostatic_energy": 12.21, 
			 "SMD_solvation_energy": 6.14 
		},
		"coords": [
			{
				"x": 2.9475551207,
				"y": -3.1738106251,
				"z": -2.0930713388,
				"element": "O" 
			},
			{
				"x": 1.8109015943,
				"y": -3.3547784039,
				"z": -1.3723182215,
				"element": "C" 
			},
			{
				"x": 1.6787559359,
				"y": -4.2785276441,
				"z": -0.5976177407,
				"element": "O" 
			},
			{
				"x": 0.8006756792,
				"y": -2.2634117439,
				"z": -1.6346688783,
				"element": "C" 
			},
			{
				"x": 1.1602705311,
				"y": -0.9458078403,
				"z": -0.8940152529,
				"element": "C" 
			},
			{
				"x": 1.1467322811,
				"y": -1.107501271,
				"z": 0.6585638996,
				"element": "C" 
			},
			{
				"x": -0.0461022244,
				"y": -0.4083809784,
				"z": 1.3425265686,
				"element": "C" 
			},
			{
				"x": -1.3558605408,
				"y": -0.6315254338,
				"z": 0.5562677496,
				"element": "C" 
			},
			{
				"x": -1.2386579608,
				"y": -0.0012894093,
				"z": -0.865821242,
				"element": "C" 
			},
			{
				"x": 0.2218902507,
				"y": 0.1970046803,
				"z": -1.3232104501,
				"element": "C" 
			},
			{
				"x": -2.5836760119,
				"y": -0.1520826251,
				"z": 1.3132438311,
				"element": "C" 
			},
			{
				"x": -2.7568985591,
				"y": 1.2017696794,
				"z": 1.6421248271,
				"element": "C" 
			},
			{
				"x": -3.8781901925,
				"y": 1.632238648,
				"z": 2.350851371,
				"element": "C" 
			},
			{
				"x": -4.8554709744,
				"y": 0.7153697208,
				"z": 2.7453119777,
				"element": "C" 
			},
			{
				"x": -4.6982502999,
				"y": -0.6331970791,
				"z": 2.4255409494,
				"element": "C" 
			},
			{
				"x": -3.5718864996,
				"y": -1.0587847483,
				"z": 1.7179628323,
				"element": "C" 
			},
			{
				"x": 3.5461427088,
				"y": -3.8945612799,
				"z": -1.8338740749,
				"element": "H" 
			},
			{
				"x": 0.7656364216,
				"y": -2.0701153898,
				"z": -2.7123580563,
				"element": "H" 
			},
			{
				"x": -0.1728524457,
				"y": -2.6411139499,
				"z": -1.3142084366,
				"element": "H" 
			},
			{
				"x": 2.1752571663,
				"y": -0.6823071042,
				"z": -1.2128330923,
				"element": "H" 
			},
			{
				"x": 1.1280411892,
				"y": -2.1729615167,
				"z": 0.9141837235,
				"element": "H" 
			},
			{
				"x": 2.0788414289,
				"y": -0.7124657544,
				"z": 1.0781820401,
				"element": "H" 
			},
			{
				"x": 0.1438380949,
				"y": 0.6686076565,
				"z": 1.4350634695,
				"element": "H" 
			},
			{
				"x": -0.1562842556,
				"y": -0.7862925965,
				"z": 2.3646350974,
				"element": "H" 
			},
			{
				"x": -1.4631792049,
				"y": -1.7178249214,
				"z": 0.4374925597,
				"element": "H" 
			},
			{
				"x": -1.7447846375,
				"y": 0.9697835025,
				"z": -0.8826771179,
				"element": "H" 
			},
			{
				"x": -1.7817242383,
				"y": -0.6308777123,
				"z": -1.5801400491,
				"element": "H" 
			},
			{
				"x": 0.6118425495,
				"y": 1.1284832366,
				"z": -0.8947066935,
				"element": "H" 
			},
			{
				"x": 0.2577067432,
				"y": 0.3285973121,
				"z": -2.4114550378,
				"element": "H" 
			},
			{
				"x": -2.0067808208,
				"y": 1.9294439673,
				"z": 1.3422157523,
				"element": "H" 
			},
			{
				"x": -3.9897066848,
				"y": 2.6851330441,
				"z": 2.5954846514,
				"element": "H" 
			},
			{
				"x": -5.7300391408,
				"y": 1.0502752919,
				"z": 3.2956973946,
				"element": "H" 
			},
			{
				"x": -5.4515999019,
				"y": -1.3564932329,
				"z": 2.7255374391,
				"element": "H" 
			},
			{
				"x": -3.4572431016,
				"y": -2.1125954792,
				"z": 1.4746895486,
				"element": "H" 
			}
		],
		 "valence_orbital": [ 
			{
				"type": "occ",
				"energy": -0.30384,
				"method": "rhf"
			},
			{
				"type": "occ",
				"energy": -0.29698,
				"method": "rhf"
			},
			{
				"type": "occ",
				"energy": -0.2684,
				"method": "rhf"
			},
			{
				"type": "occ",
				"energy": -0.24511,
				"method": "rhf"
			},
			{
				"type": "occ",
				"energy": -0.23591,
				"method": "rhf"
			},
			{
				"type": "unocc",
				"energy": 0.00142,
				"method": "rhf"
			},
			{
				"type": "unocc",
				"energy": 0.00511,
				"method": "rhf"
			},
			{
				"type": "unocc",
				"energy": 0.00807,
				"method": "rhf"
			},
			{
				"type": "unocc",
				"energy": 0.06841,
				"method": "rhf"
			},
			{
				"type": "unocc",
				"energy": 0.08573,
				"method": "rhf"
			}
		],
		"cosmo_sigma_profile": { 
			"-0.025": 0.0,
			"-0.024": 0.0,
			"-0.023": 0.0,
			"-0.022": 0.0,
			"-0.021": 0.0,
			"-0.02": 0.0,
			"-0.019": 0.0,
			"-0.018": 0.257461395536,
			"-0.017": 1.14500672333,
			"-0.016": 0.650833559844,
			"-0.015": 1.08150750445,
			"-0.014": 0.663608592476,
			"-0.013": 0.68028178625,
			"-0.012": 0.911155850198,
			"-0.011": 0.467607052155,
			"-0.01": 0.62294918256,
			"-0.009": 0.739676645019,
			"-0.008": 0.6486841147,
			"-0.007": 0.34443112828,
			"-0.006": 2.18366829171,
			"-0.005": 12.330243314,
			"-0.004": 20.540438611,
			"-0.003": 32.7350243586,
			"-0.002": 38.7883428387,
			"-0.001": 33.547136333,
			"0.0": 24.5889544069,
			"0.001": 21.4418230856,
			"0.002": 11.5492252546,
			"0.003": 11.1895905999,
			"0.004": 11.0464160872,
			"0.005": 10.4706790201,
			"0.006": 10.7783977924,
			"0.007": 7.12961240929,
			"0.008": 2.43879663922,
			"0.009": 2.47391006023,
			"0.01": 2.96743459562,
			"0.011": 2.75301240221,
			"0.012": 4.95839492934,
			"0.013": 1.47558161777,
			"0.014": 0.0903633785382,
			"0.015": 0.0,
			"0.016": 0.0,
			"0.017": 0.0,
			"0.018": 0.0,
			"0.019": 0.0,
			"0.02": 0.0,
			"0.021": 0.0,
			"0.022": 0.0,
			"0.023": 0.0,
			"0.024": 0.0,
			"0.025": 0.0
		}
	}
}
