{
	 "smiles": "CCOC(=O)C1=NN(CC)C(=O)C1", 
	 "Tm": 409.15, 
	 "num_atms": 25, 
	 "gaussian": { 
		 "optdone": 1, 
		 "sigma_profile": "yes", 
		 "theory": "DFT", 
		 "functional": "B3LYP", 
		 "basiset": "6-31G**", 
		 "properties": { 
			 "R2extent": 3512.581, 
			 "electric_dipole_moment_norm": 2.67872747774, 
			 "electric_quadrupole_moment_norm": 5.4086185519, 
			 "total_energy": -647.256582973, 
			 "HOMO_LUMO_gap": 0.17457, 
			 "cosmo_polarized_energy": -12.35, 
			 "cosmo_cavitation_energy": 29.57, 
			 "cosmo_dispersion_energy": -21.11, 
			 "cosmo_repulsion_energy": 1.74, 
			 "cosmo_total_nonelectrostatic_energy": 10.2, 
			 "SMD_solvation_energy": 6.21 
		},
		"coords": [
			{
				"x": -1.6460846674,
				"y": 2.9782370777,
				"z": 3.5272919764,
				"element": "C" 
			},
			{
				"x": -2.0356188804,
				"y": 3.2057577915,
				"z": 2.0745223663,
				"element": "C" 
			},
			{
				"x": -1.3533422321,
				"y": 2.2781422636,
				"z": 1.19504369,
				"element": "O" 
			},
			{
				"x": -1.9325605307,
				"y": 1.07691306,
				"z": 1.0321116282,
				"element": "C" 
			},
			{
				"x": -2.9744801989,
				"y": 0.7233017406,
				"z": 1.5561063218,
				"element": "O" 
			},
			{
				"x": -1.1800377396,
				"y": 0.1843043475,
				"z": 0.125806235,
				"element": "C" 
			},
			{
				"x": -0.0655263033,
				"y": 0.5159660723,
				"z": -0.4478307718,
				"element": "N" 
			},
			{
				"x": 0.355790449,
				"y": -0.54349039,
				"z": -1.2057928772,
				"element": "N" 
			},
			{
				"x": 1.579117689,
				"y": -0.4493381618,
				"z": -1.9897118296,
				"element": "C" 
			},
			{
				"x": 1.4579984669,
				"y": 0.5271793705,
				"z": -3.1601736376,
				"element": "C" 
			},
			{
				"x": -0.5029702759,
				"y": -1.6446811664,
				"z": -1.1622035901,
				"element": "C" 
			},
			{
				"x": -0.3393311063,
				"y": -2.6913746398,
				"z": -1.7570323018,
				"element": "O" 
			},
			{
				"x": -1.6241501771,
				"y": -1.204831913,
				"z": -0.2235948199,
				"element": "C" 
			},
			{
				"x": -0.5614108834,
				"y": 3.0410855919,
				"z": 3.6537225476,
				"element": "H" 
			},
			{
				"x": -1.9875312495,
				"y": 1.9979326908,
				"z": 3.8685987443,
				"element": "H" 
			},
			{
				"x": -2.1113521154,
				"y": 3.742191574,
				"z": 4.1590594367,
				"element": "H" 
			},
			{
				"x": -3.1137331093,
				"y": 3.0986754086,
				"z": 1.9329919144,
				"element": "H" 
			},
			{
				"x": -1.7177061765,
				"y": 4.1899147556,
				"z": 1.7231011855,
				"element": "H" 
			},
			{
				"x": 1.7747267845,
				"y": -1.4660183721,
				"z": -2.3397194156,
				"element": "H" 
			},
			{
				"x": 2.3927818365,
				"y": -0.1529768251,
				"z": -1.3195216322,
				"element": "H" 
			},
			{
				"x": 0.6792950184,
				"y": 0.2054496126,
				"z": -3.858027162,
				"element": "H" 
			},
			{
				"x": 1.2112475635,
				"y": 1.5302373001,
				"z": -2.8012722454,
				"element": "H" 
			},
			{
				"x": 2.4063745801,
				"y": 0.5793204475,
				"z": -3.7039444582,
				"element": "H" 
			},
			{
				"x": -2.5973319669,
				"y": -1.2356475658,
				"z": -0.7244980833,
				"element": "H" 
			},
			{
				"x": -1.6952647754,
				"y": -1.8671500707,
				"z": 0.6455667784,
				"element": "H" 
			}
		],
		 "valence_orbital": [ 
			{
				"type": "occ",
				"energy": -0.32739,
				"method": "rhf"
			},
			{
				"type": "occ",
				"energy": -0.30326,
				"method": "rhf"
			},
			{
				"type": "occ",
				"energy": -0.28344,
				"method": "rhf"
			},
			{
				"type": "occ",
				"energy": -0.26276,
				"method": "rhf"
			},
			{
				"type": "occ",
				"energy": -0.24235,
				"method": "rhf"
			},
			{
				"type": "unocc",
				"energy": -0.06778,
				"method": "rhf"
			},
			{
				"type": "unocc",
				"energy": 0.01117,
				"method": "rhf"
			},
			{
				"type": "unocc",
				"energy": 0.07694,
				"method": "rhf"
			},
			{
				"type": "unocc",
				"energy": 0.10228,
				"method": "rhf"
			},
			{
				"type": "unocc",
				"energy": 0.10692,
				"method": "rhf"
			}
		],
		"cosmo_sigma_profile": { 
			"-0.025": 0.0,
			"-0.024": 0.0,
			"-0.023": 0.0,
			"-0.022": 0.0,
			"-0.021": 0.0,
			"-0.02": 0.0,
			"-0.019": 0.0,
			"-0.018": 0.0,
			"-0.017": 0.0,
			"-0.016": 0.0,
			"-0.015": 0.0,
			"-0.014": 0.0,
			"-0.013": 0.0,
			"-0.012": 0.0,
			"-0.011": 0.0,
			"-0.01": 0.00307571342911,
			"-0.009": 2.97245947934,
			"-0.008": 5.0831142945,
			"-0.007": 4.93230119489,
			"-0.006": 8.87569539256,
			"-0.005": 14.5888313323,
			"-0.004": 27.7731367096,
			"-0.003": 27.911830246,
			"-0.002": 25.9451894455,
			"-0.001": 21.1636878277,
			"0.0": 20.1385436889,
			"0.001": 9.91471502816,
			"0.002": 6.17225768041,
			"0.003": 5.81721494617,
			"0.004": 5.20366989787,
			"0.005": 4.44225403421,
			"0.006": 5.54772086715,
			"0.007": 2.91735745692,
			"0.008": 3.22475299997,
			"0.009": 5.65416921917,
			"0.01": 5.22354082227,
			"0.011": 7.77817970693,
			"0.012": 9.14640780597,
			"0.013": 2.76317611956,
			"0.014": 0.112603044615,
			"0.015": 0.0,
			"0.016": 0.0,
			"0.017": 0.0,
			"0.018": 0.0,
			"0.019": 0.0,
			"0.02": 0.0,
			"0.021": 0.0,
			"0.022": 0.0,
			"0.023": 0.0,
			"0.024": 0.0,
			"0.025": 0.0
		}
	}
}
