{
	 "smiles": "N#CCCNC1CCCCC1", 
	 "Tm": 396.15, 
	 "num_atms": 27, 
	 "gaussian": { 
		 "optdone": 1, 
		 "sigma_profile": "yes", 
		 "theory": "DFT", 
		 "functional": "B3LYP", 
		 "basiset": "6-31G**", 
		 "properties": { 
			 "R2extent": 2834.4086, 
			 "electric_dipole_moment_norm": 4.82833986998, 
			 "electric_quadrupole_moment_norm": 23.1789294302, 
			 "total_energy": -462.098520592, 
			 "HOMO_LUMO_gap": 0.26505, 
			 "cosmo_polarized_energy": -11.87, 
			 "cosmo_cavitation_energy": 28.54, 
			 "cosmo_dispersion_energy": -20.03, 
			 "cosmo_repulsion_energy": 1.65, 
			 "cosmo_total_nonelectrostatic_energy": 10.16, 
			 "SMD_solvation_energy": 4.18 
		},
		"coords": [
			{
				"x": 3.0104903392,
				"y": 3.5044302863,
				"z": -2.8585508459,
				"element": "N" 
			},
			{
				"x": 2.8534138603,
				"y": 3.0886742272,
				"z": -1.7864436226,
				"element": "C" 
			},
			{
				"x": 2.6617296554,
				"y": 2.5922429294,
				"z": -0.4214270172,
				"element": "C" 
			},
			{
				"x": 1.1829302779,
				"y": 2.6362932715,
				"z": 0.0294268446,
				"element": "C" 
			},
			{
				"x": 0.3504974434,
				"y": 1.7594111246,
				"z": -0.7806392101,
				"element": "N" 
			},
			{
				"x": 0.230266886,
				"y": 0.3645383746,
				"z": -0.3408691038,
				"element": "C" 
			},
			{
				"x": -0.6500069176,
				"y": 0.1652086258,
				"z": 0.9120654296,
				"element": "C" 
			},
			{
				"x": -0.7627478515,
				"y": -1.3162948988,
				"z": 1.3077614486,
				"element": "C" 
			},
			{
				"x": -1.2785708745,
				"y": -2.1698688733,
				"z": 0.1396726526,
				"element": "C" 
			},
			{
				"x": -0.4128135848,
				"y": -1.9785611168,
				"z": -1.1148594371,
				"element": "C" 
			},
			{
				"x": -0.2905585215,
				"y": -0.4967236145,
				"z": -1.5025320174,
				"element": "C" 
			},
			{
				"x": 3.2781672391,
				"y": 3.1926927098,
				"z": 0.2587219542,
				"element": "H" 
			},
			{
				"x": 3.0392723818,
				"y": 1.5647445715,
				"z": -0.3692771008,
				"element": "H" 
			},
			{
				"x": 1.1622309035,
				"y": 2.4006685817,
				"z": 1.1065064514,
				"element": "H" 
			},
			{
				"x": 0.8190319939,
				"y": 3.6629149026,
				"z": -0.0750608999,
				"element": "H" 
			},
			{
				"x": -0.5718806714,
				"y": 2.1617658146,
				"z": -0.9125019385,
				"element": "H" 
			},
			{
				"x": 1.2470074412,
				"y": 0.0180451381,
				"z": -0.1000942467,
				"element": "H" 
			},
			{
				"x": -0.259374653,
				"y": 0.7521134629,
				"z": 1.7525067307,
				"element": "H" 
			},
			{
				"x": -1.6535902662,
				"y": 0.5604964163,
				"z": 0.6929946659,
				"element": "H" 
			},
			{
				"x": 0.2265417492,
				"y": -1.6842247618,
				"z": 1.6158943308,
				"element": "H" 
			},
			{
				"x": -1.4177004169,
				"y": -1.4247144666,
				"z": 2.1804601754,
				"element": "H" 
			},
			{
				"x": -2.3145182483,
				"y": -1.8805930109,
				"z": -0.0878108338,
				"element": "H" 
			},
			{
				"x": -1.3063897743,
				"y": -3.228139886,
				"z": 0.4253643598,
				"element": "H" 
			},
			{
				"x": -0.8242260015,
				"y": -2.5520308138,
				"z": -1.9537308554,
				"element": "H" 
			},
			{
				"x": 0.5909165934,
				"y": -2.3854653501,
				"z": -0.9255164767,
				"element": "H" 
			},
			{
				"x": 0.3692504746,
				"y": -0.3667973104,
				"z": -2.3665408307,
				"element": "H" 
			},
			{
				"x": -1.2783694576,
				"y": -0.1160263338,
				"z": -1.803720607,
				"element": "H" 
			}
		],
		 "valence_orbital": [ 
			{
				"type": "occ",
				"energy": -0.31536,
				"method": "rhf"
			},
			{
				"type": "occ",
				"energy": -0.31211,
				"method": "rhf"
			},
			{
				"type": "occ",
				"energy": -0.31181,
				"method": "rhf"
			},
			{
				"type": "occ",
				"energy": -0.30637,
				"method": "rhf"
			},
			{
				"type": "occ",
				"energy": -0.22602,
				"method": "rhf"
			},
			{
				"type": "unocc",
				"energy": 0.03903,
				"method": "rhf"
			},
			{
				"type": "unocc",
				"energy": 0.04908,
				"method": "rhf"
			},
			{
				"type": "unocc",
				"energy": 0.07807,
				"method": "rhf"
			},
			{
				"type": "unocc",
				"energy": 0.08148,
				"method": "rhf"
			},
			{
				"type": "unocc",
				"energy": 0.0913,
				"method": "rhf"
			}
		],
		"cosmo_sigma_profile": { 
			"-0.025": 0.0,
			"-0.024": 0.0,
			"-0.023": 0.0,
			"-0.022": 0.0,
			"-0.021": 0.0,
			"-0.02": 0.0,
			"-0.019": 0.0,
			"-0.018": 0.0,
			"-0.017": 0.0,
			"-0.016": 0.0,
			"-0.015": 0.0,
			"-0.014": 0.0,
			"-0.013": 0.0,
			"-0.012": 0.0,
			"-0.011": 0.0,
			"-0.01": 0.645835807361,
			"-0.009": 1.30270708852,
			"-0.008": 2.49699244159,
			"-0.007": 7.63434978145,
			"-0.006": 9.02131783113,
			"-0.005": 11.7805411522,
			"-0.004": 14.577957954,
			"-0.003": 12.3764475266,
			"-0.002": 26.7684377984,
			"-0.001": 31.9810309311,
			"0.0": 29.6893887838,
			"0.001": 24.8149989505,
			"0.002": 8.14658003819,
			"0.003": 2.7448543159,
			"0.004": 2.09377543529,
			"0.005": 2.72433440388,
			"0.006": 3.05619657214,
			"0.007": 3.28663278257,
			"0.008": 4.07493028622,
			"0.009": 4.90418967679,
			"0.01": 5.34143557676,
			"0.011": 3.54720130978,
			"0.012": 3.42510975254,
			"0.013": 3.13911728389,
			"0.014": 1.56215738767,
			"0.015": 0.0745180237494,
			"0.016": 0.0,
			"0.017": 0.0,
			"0.018": 0.0,
			"0.019": 0.0,
			"0.02": 0.0,
			"0.021": 0.0,
			"0.022": 0.0,
			"0.023": 0.0,
			"0.024": 0.0,
			"0.025": 0.0
		}
	}
}
