{
	 "smiles": "NC1=C(C#N)C(C2=C(O1)N(N=C2C(F)(F)F)C1=CC=CC=C1)C1=C(Cl)C=C(Cl)C=C1Cl", 
	 "Tm": 480.15, 
	 "num_atms": 41, 
	 "gaussian": { 
		 "optdone": 1, 
		 "sigma_profile": "yes", 
		 "theory": "DFT", 
		 "functional": "B3LYP", 
		 "basiset": "6-31G**", 
		 "properties": { 
			 "R2extent": 15349.8478, 
			 "electric_dipole_moment_norm": 6.39426290201, 
			 "electric_quadrupole_moment_norm": 24.2374977048, 
			 "total_energy": -2742.42330247, 
			 "HOMO_LUMO_gap": 0.18193, 
			 "cosmo_polarized_energy": -18.95, 
			 "cosmo_cavitation_energy": 52.87, 
			 "cosmo_dispersion_energy": -34.56, 
			 "cosmo_repulsion_energy": 2.55, 
			 "cosmo_total_nonelectrostatic_energy": 20.86, 
			 "SMD_solvation_energy": 9.66 
		},
		"coords": [
			{
				"x": -0.39484076,
				"y": 3.2552627771,
				"z": -2.0390856897,
				"element": "N" 
			},
			{
				"x": -0.0993659804,
				"y": 2.3210561509,
				"z": -1.0903392021,
				"element": "C" 
			},
			{
				"x": 0.187266792,
				"y": 2.5630470689,
				"z": 0.2244648917,
				"element": "C" 
			},
			{
				"x": 0.1090350366,
				"y": 3.9137366381,
				"z": 0.6505745694,
				"element": "C" 
			},
			{
				"x": 0.0277582206,
				"y": 5.0360875975,
				"z": 0.9605048307,
				"element": "N" 
			},
			{
				"x": 0.5900055359,
				"y": 1.4841858259,
				"z": 1.2379438061,
				"element": "C" 
			},
			{
				"x": 0.6041316411,
				"y": 0.1672438604,
				"z": 0.5112499029,
				"element": "C" 
			},
			{
				"x": 0.3050761182,
				"y": 0.0703068608,
				"z": -0.822197482,
				"element": "C" 
			},
			{
				"x": -0.0746372675,
				"y": 1.0706515385,
				"z": -1.6599797405,
				"element": "O" 
			},
			{
				"x": 0.4120123694,
				"y": -1.2267463508,
				"z": -1.2225466282,
				"element": "N" 
			},
			{
				"x": 0.773138696,
				"y": -2.0067581849,
				"z": -0.1668100968,
				"element": "N" 
			},
			{
				"x": 0.8919711558,
				"y": -1.1740648517,
				"z": 0.8609755025,
				"element": "C" 
			},
			{
				"x": 1.2450699522,
				"y": -1.6995132232,
				"z": 2.2180188299,
				"element": "C" 
			},
			{
				"x": 1.7937415217,
				"y": -2.9203604543,
				"z": 2.1644419488,
				"element": "F" 
			},
			{
				"x": 2.121173621,
				"y": -0.8667960016,
				"z": 2.8293519722,
				"element": "F" 
			},
			{
				"x": 0.1544577917,
				"y": -1.7711071757,
				"z": 3.015988967,
				"element": "F" 
			},
			{
				"x": 0.1780456613,
				"y": -1.8155522767,
				"z": -2.500432907,
				"element": "C" 
			},
			{
				"x": -0.2873292086,
				"y": -3.133129502,
				"z": -2.5530522534,
				"element": "C" 
			},
			{
				"x": -0.508929704,
				"y": -3.7280733892,
				"z": -3.7929021426,
				"element": "C" 
			},
			{
				"x": -0.2800792158,
				"y": -3.0156203848,
				"z": -4.9724467254,
				"element": "C" 
			},
			{
				"x": 0.1863070211,
				"y": -1.702215646,
				"z": -4.906593117,
				"element": "C" 
			},
			{
				"x": 0.4269433303,
				"y": -1.0961617849,
				"z": -3.6732852194,
				"element": "C" 
			},
			{
				"x": -0.2805116004,
				"y": 1.5069469861,
				"z": 2.5018387309,
				"element": "C" 
			},
			{
				"x": 0.265073364,
				"y": 1.8620666068,
				"z": 3.7517055211,
				"element": "C" 
			},
			{
				"x": 1.9583812367,
				"y": 2.3104992941,
				"z": 3.9136954345,
				"element": "Cl" 
			},
			{
				"x": -0.481276701,
				"y": 1.8935559353,
				"z": 4.9290258997,
				"element": "C" 
			},
			{
				"x": -1.8304649965,
				"y": 1.5661433667,
				"z": 4.8722156757,
				"element": "C" 
			},
			{
				"x": -2.7883841543,
				"y": 1.5952429697,
				"z": 6.3362527482,
				"element": "Cl" 
			},
			{
				"x": -2.4328228504,
				"y": 1.2210242433,
				"z": 3.6672865183,
				"element": "C" 
			},
			{
				"x": -1.6546223755,
				"y": 1.2012920125,
				"z": 2.5120053425,
				"element": "C" 
			},
			{
				"x": -2.5078836199,
				"y": 0.7735105174,
				"z": 1.0338445807,
				"element": "Cl" 
			},
			{
				"x": -0.9203173912,
				"y": 2.9290916668,
				"z": -2.8373245375,
				"element": "H" 
			},
			{
				"x": -0.6243737894,
				"y": 4.1805440702,
				"z": -1.7039089564,
				"element": "H" 
			},
			{
				"x": 1.6068242908,
				"y": 1.7002732301,
				"z": 1.5751834785,
				"element": "H" 
			},
			{
				"x": -0.4586675344,
				"y": -3.6711322581,
				"z": -1.6286216591,
				"element": "H" 
			},
			{
				"x": -0.868213248,
				"y": -4.7517810224,
				"z": -3.8349007882,
				"element": "H" 
			},
			{
				"x": -0.4595473548,
				"y": -3.4828001549,
				"z": -5.9358468191,
				"element": "H" 
			},
			{
				"x": 0.3796349322,
				"y": -1.1453776673,
				"z": -5.8184982682,
				"element": "H" 
			},
			{
				"x": 0.8117858525,
				"y": -0.0849163954,
				"z": -3.6255397179,
				"element": "H" 
			},
			{
				"x": -0.0142492089,
				"y": 2.1709686621,
				"z": 5.8651057696,
				"element": "H" 
			},
			{
				"x": -3.48551718,
				"y": 0.9734688447,
				"z": 3.6210370296,
				"element": "H" 
			}
		],
		 "valence_orbital": [ 
			{
				"type": "occ",
				"energy": -0.26506,
				"method": "rhf"
			},
			{
				"type": "occ",
				"energy": -0.2629,
				"method": "rhf"
			},
			{
				"type": "occ",
				"energy": -0.25803,
				"method": "rhf"
			},
			{
				"type": "occ",
				"energy": -0.24824,
				"method": "rhf"
			},
			{
				"type": "occ",
				"energy": -0.23062,
				"method": "rhf"
			},
			{
				"type": "unocc",
				"energy": -0.04869,
				"method": "rhf"
			},
			{
				"type": "unocc",
				"energy": -0.03957,
				"method": "rhf"
			},
			{
				"type": "unocc",
				"energy": -0.03596,
				"method": "rhf"
			},
			{
				"type": "unocc",
				"energy": -0.02224,
				"method": "rhf"
			},
			{
				"type": "unocc",
				"energy": -0.01994,
				"method": "rhf"
			}
		],
		"cosmo_sigma_profile": { 
			"-0.025": 0.0,
			"-0.024": 0.0,
			"-0.023": 0.0,
			"-0.022": 0.0,
			"-0.021": 0.0,
			"-0.02": 0.0,
			"-0.019": 0.0,
			"-0.018": 0.0,
			"-0.017": 0.0,
			"-0.016": 0.44693933664,
			"-0.015": 1.52495170446,
			"-0.014": 2.14932813439,
			"-0.013": 2.5866870906,
			"-0.012": 1.99593580242,
			"-0.011": 1.68114339196,
			"-0.01": 1.88364950376,
			"-0.009": 3.91616477715,
			"-0.008": 5.20570815353,
			"-0.007": 6.48841773775,
			"-0.006": 17.9789187433,
			"-0.005": 18.4540345418,
			"-0.004": 21.4841573768,
			"-0.003": 21.913352855,
			"-0.002": 30.5904938588,
			"-0.001": 35.6191288685,
			"0.0": 50.3169628784,
			"0.001": 43.4823897994,
			"0.002": 48.4870167863,
			"0.003": 52.2486987799,
			"0.004": 27.7263446117,
			"0.005": 6.51972609289,
			"0.006": 4.05023933657,
			"0.007": 4.56414873606,
			"0.008": 3.87811133393,
			"0.009": 3.86337492849,
			"0.01": 4.05112055595,
			"0.011": 3.87511174671,
			"0.012": 2.91819977486,
			"0.013": 2.70657031379,
			"0.014": 0.830272891106,
			"0.015": 0.0,
			"0.016": 0.0,
			"0.017": 0.0,
			"0.018": 0.0,
			"0.019": 0.0,
			"0.02": 0.0,
			"0.021": 0.0,
			"0.022": 0.0,
			"0.023": 0.0,
			"0.024": 0.0,
			"0.025": 0.0
		}
	}
}
