{
	 "smiles": "CC(C)OC1=CC=C(C=C1)C(=O)NCC(O)=O", 
	 "Tm": 428.15, 
	 "num_atms": 32, 
	 "gaussian": { 
		 "optdone": 1, 
		 "sigma_profile": "yes", 
		 "theory": "DFT", 
		 "functional": "B3LYP", 
		 "basiset": "6-31G**", 
		 "properties": { 
			 "R2extent": 5539.3354, 
			 "electric_dipole_moment_norm": 6.57146472942, 
			 "electric_quadrupole_moment_norm": 20.5668787119, 
			 "total_energy": -821.973589287, 
			 "HOMO_LUMO_gap": 0.20578, 
			 "cosmo_polarized_energy": -26.11, 
			 "cosmo_cavitation_energy": 35.89, 
			 "cosmo_dispersion_energy": -24.86, 
			 "cosmo_repulsion_energy": 1.98, 
			 "cosmo_total_nonelectrostatic_energy": 13.01, 
			 "SMD_solvation_energy": 7.74 
		},
		"coords": [
			{
				"x": 2.9476437611,
				"y": -2.7934184537,
				"z": 1.1403356522,
				"element": "C" 
			},
			{
				"x": 3.5441024216,
				"y": -1.3882696692,
				"z": 1.2139581018,
				"element": "C" 
			},
			{
				"x": 3.2403635379,
				"y": -0.6879180064,
				"z": 2.5379796096,
				"element": "C" 
			},
			{
				"x": 3.1764872202,
				"y": -0.5765773308,
				"z": 0.0674104622,
				"element": "O" 
			},
			{
				"x": 1.8546811805,
				"y": -0.2641425525,
				"z": -0.1456111151,
				"element": "C" 
			},
			{
				"x": 1.0707460921,
				"y": -1.0689977418,
				"z": -0.9850074456,
				"element": "C" 
			},
			{
				"x": -0.2387600738,
				"y": -0.7034543399,
				"z": -1.2775041678,
				"element": "C" 
			},
			{
				"x": -0.798347155,
				"y": 0.4553835169,
				"z": -0.7198871465,
				"element": "C" 
			},
			{
				"x": -0.0019240432,
				"y": 1.2741177777,
				"z": 0.0952169237,
				"element": "C" 
			},
			{
				"x": 1.316967595,
				"y": 0.9191300692,
				"z": 0.3758066777,
				"element": "C" 
			},
			{
				"x": -2.1894820096,
				"y": 0.8293042727,
				"z": -1.1327285956,
				"element": "C" 
			},
			{
				"x": -2.5942065264,
				"y": 0.6421066355,
				"z": -2.273598135,
				"element": "O" 
			},
			{
				"x": -3.0155710719,
				"y": 1.4240846877,
				"z": -0.1947276806,
				"element": "N" 
			},
			{
				"x": -2.9566033449,
				"y": 1.3109243486,
				"z": 1.2385228527,
				"element": "C" 
			},
			{
				"x": -2.6790261867,
				"y": 2.6380209217,
				"z": 1.9628977565,
				"element": "C" 
			},
			{
				"x": -2.8901445762,
				"y": 2.6000361568,
				"z": 3.3044904114,
				"element": "O" 
			},
			{
				"x": -2.2775663181,
				"y": 3.6391554668,
				"z": 1.4315779184,
				"element": "O" 
			},
			{
				"x": 3.1976067903,
				"y": -3.2711410841,
				"z": 0.1887901565,
				"element": "H" 
			},
			{
				"x": 1.8581346871,
				"y": -2.7727605456,
				"z": 1.2427824338,
				"element": "H" 
			},
			{
				"x": 3.3501630107,
				"y": -3.4117383398,
				"z": 1.9493418068,
				"element": "H" 
			},
			{
				"x": 4.6304206116,
				"y": -1.4619968823,
				"z": 1.0981885468,
				"element": "H" 
			},
			{
				"x": 3.6918683489,
				"y": 0.3079036647,
				"z": 2.5620103931,
				"element": "H" 
			},
			{
				"x": 3.6509315691,
				"y": -1.2697582365,
				"z": 3.3697098826,
				"element": "H" 
			},
			{
				"x": 2.1627339329,
				"y": -0.5849471275,
				"z": 2.6992026369,
				"element": "H" 
			},
			{
				"x": 1.5105585887,
				"y": -1.9596671796,
				"z": -1.42080089,
				"element": "H" 
			},
			{
				"x": -0.8426542266,
				"y": -1.3018160004,
				"z": -1.9519160028,
				"element": "H" 
			},
			{
				"x": -0.3977074512,
				"y": 2.2127595899,
				"z": 0.471139869,
				"element": "H" 
			},
			{
				"x": 1.9484692565,
				"y": 1.5671538385,
				"z": 0.9739333039,
				"element": "H" 
			},
			{
				"x": -3.8982292587,
				"y": 1.7106582587,
				"z": -0.5979433158,
				"element": "H" 
			},
			{
				"x": -3.8955437737,
				"y": 0.8867863031,
				"z": 1.6253061124,
				"element": "H" 
			},
			{
				"x": -2.1610484112,
				"y": 0.6117235198,
				"z": 1.5172784473,
				"element": "H" 
			},
			{
				"x": -3.229364177,
				"y": 1.734254462,
				"z": 3.5754445393,
				"element": "H" 
			}
		],
		 "valence_orbital": [ 
			{
				"type": "occ",
				"energy": -0.27271,
				"method": "rhf"
			},
			{
				"type": "occ",
				"energy": -0.26592,
				"method": "rhf"
			},
			{
				"type": "occ",
				"energy": -0.25999,
				"method": "rhf"
			},
			{
				"type": "occ",
				"energy": -0.25475,
				"method": "rhf"
			},
			{
				"type": "occ",
				"energy": -0.23847,
				"method": "rhf"
			},
			{
				"type": "unocc",
				"energy": -0.03269,
				"method": "rhf"
			},
			{
				"type": "unocc",
				"energy": -0.01145,
				"method": "rhf"
			},
			{
				"type": "unocc",
				"energy": -0.00532,
				"method": "rhf"
			},
			{
				"type": "unocc",
				"energy": 0.03478,
				"method": "rhf"
			},
			{
				"type": "unocc",
				"energy": 0.05366,
				"method": "rhf"
			}
		],
		"cosmo_sigma_profile": { 
			"-0.025": 0.0,
			"-0.024": 0.0,
			"-0.023": 0.0,
			"-0.022": 0.0,
			"-0.021": 0.0,
			"-0.02": 0.277590490578,
			"-0.019": 1.38848810722,
			"-0.018": 1.01806341758,
			"-0.017": 1.61092326547,
			"-0.016": 1.02288872709,
			"-0.015": 2.00421359142,
			"-0.014": 1.91258076583,
			"-0.013": 2.1939687101,
			"-0.012": 2.33629380675,
			"-0.011": 3.13852018037,
			"-0.01": 3.47845713697,
			"-0.009": 3.96393733793,
			"-0.008": 3.92157859793,
			"-0.007": 4.10822577365,
			"-0.006": 8.41964679644,
			"-0.005": 10.7239720996,
			"-0.004": 21.1279798037,
			"-0.003": 25.2394207754,
			"-0.002": 24.4802261764,
			"-0.001": 23.2889408619,
			"0.0": 22.808506805,
			"0.001": 16.6364124421,
			"0.002": 11.6992092477,
			"0.003": 14.113245415,
			"0.004": 11.4005797126,
			"0.005": 5.16524804877,
			"0.006": 5.38650153698,
			"0.007": 5.13425255777,
			"0.008": 6.44059545526,
			"0.009": 5.38542743754,
			"0.01": 8.01399219993,
			"0.011": 8.56017547691,
			"0.012": 7.44253301024,
			"0.013": 5.58507891595,
			"0.014": 3.31690260279,
			"0.015": 0.129886622165,
			"0.016": 0.0,
			"0.017": 0.0,
			"0.018": 0.0,
			"0.019": 0.0,
			"0.02": 0.0,
			"0.021": 0.0,
			"0.022": 0.0,
			"0.023": 0.0,
			"0.024": 0.0,
			"0.0": 0.0
		}
	}
}
