{
	 "smiles": "CNC(=O)C1=CC=CC=C1", 
	 "Tm": 353.65, 
	 "num_atms": 19, 
	 "gaussian": { 
		 "optdone": 1, 
		 "sigma_profile": "yes", 
		 "theory": "DFT", 
		 "functional": "B3LYP", 
		 "basiset": "6-31G**", 
		 "properties": { 
			 "R2extent": 1601.238, 
			 "electric_dipole_moment_norm": 3.62758028581, 
			 "electric_quadrupole_moment_norm": 15.7599794581, 
			 "total_energy": -440.260798684, 
			 "HOMO_LUMO_gap": 0.20774, 
			 "cosmo_polarized_energy": -11.4, 
			 "cosmo_cavitation_energy": 22.64, 
			 "cosmo_dispersion_energy": -16.7, 
			 "cosmo_repulsion_energy": 1.37, 
			 "cosmo_total_nonelectrostatic_energy": 7.31, 
			 "SMD_solvation_energy": 4.26 
		},
		"coords": [
			{
				"x": -0.2547659554,
				"y": -2.5143459178,
				"z": -0.4341438772,
				"element": "C" 
			},
			{
				"x": -0.4886375086,
				"y": -2.1611372527,
				"z": 0.9589720892,
				"element": "N" 
			},
			{
				"x": -0.2147924972,
				"y": -0.9795453808,
				"z": 1.6067573551,
				"element": "C" 
			},
			{
				"x": -0.09408687,
				"y": -0.9517427679,
				"z": 2.8287593313,
				"element": "O" 
			},
			{
				"x": -0.1004690114,
				"y": 0.2808782887,
				"z": 0.7947178633,
				"element": "C" 
			},
			{
				"x": 0.8036952691,
				"y": 1.2549183567,
				"z": 1.2413537153,
				"element": "C" 
			},
			{
				"x": 0.9197132977,
				"y": 2.4698905523,
				"z": 0.5705063115,
				"element": "C" 
			},
			{
				"x": 0.1118684653,
				"y": 2.7375720233,
				"z": -0.5383191418,
				"element": "C" 
			},
			{
				"x": -0.8129016903,
				"y": 1.785791561,
				"z": -0.9707039285,
				"element": "C" 
			},
			{
				"x": -0.9163612788,
				"y": 0.5601844011,
				"z": -0.3106175304,
				"element": "C" 
			},
			{
				"x": 0.3414128174,
				"y": -3.4312656936,
				"z": -0.4909656137,
				"element": "H" 
			},
			{
				"x": -1.1900735027,
				"y": -2.6824343544,
				"z": -0.9830999196,
				"element": "H" 
			},
			{
				"x": 0.299775254,
				"y": -1.7218257702,
				"z": -0.9374331978,
				"element": "H" 
			},
			{
				"x": -0.5676939399,
				"y": -2.9261995142,
				"z": 1.6167010864,
				"element": "H" 
			},
			{
				"x": 1.399625024,
				"y": 1.0421894749,
				"z": 2.1226327182,
				"element": "H" 
			},
			{
				"x": 1.6322065412,
				"y": 3.2130849434,
				"z": 0.9166679313,
				"element": "H" 
			},
			{
				"x": 0.1963119798,
				"y": 3.6884093638,
				"z": -1.0568461296,
				"element": "H" 
			},
			{
				"x": -1.4583455397,
				"y": 1.9984081702,
				"z": -1.8181259269,
				"element": "H" 
			},
			{
				"x": -1.6533808545,
				"y": -0.1659304838,
				"z": -0.6391131363,
				"element": "H" 
			}
		],
		 "valence_orbital": [ 
			{
				"type": "occ",
				"energy": -0.34486,
				"method": "rhf"
			},
			{
				"type": "occ",
				"energy": -0.2606,
				"method": "rhf"
			},
			{
				"type": "occ",
				"energy": -0.25627,
				"method": "rhf"
			},
			{
				"type": "occ",
				"energy": -0.2503,
				"method": "rhf"
			},
			{
				"type": "occ",
				"energy": -0.23677,
				"method": "rhf"
			},
			{
				"type": "unocc",
				"energy": -0.02903,
				"method": "rhf"
			},
			{
				"type": "unocc",
				"energy": -0.0063,
				"method": "rhf"
			},
			{
				"type": "unocc",
				"energy": 0.05837,
				"method": "rhf"
			},
			{
				"type": "unocc",
				"energy": 0.0808,
				"method": "rhf"
			},
			{
				"type": "unocc",
				"energy": 0.10142,
				"method": "rhf"
			}
		],
		"cosmo_sigma_profile": { 
			"-0.025": 0.0,
			"-0.024": 0.0,
			"-0.023": 0.0,
			"-0.022": 0.0,
			"-0.021": 0.0,
			"-0.02": 0.0,
			"-0.019": 0.0,
			"-0.018": 0.0,
			"-0.017": 0.0,
			"-0.016": 0.0,
			"-0.015": 0.0,
			"-0.014": 0.0675501265687,
			"-0.013": 0.78241613229,
			"-0.012": 1.32455651032,
			"-0.011": 0.996854147985,
			"-0.01": 0.95644462656,
			"-0.009": 1.04713162831,
			"-0.008": 1.06737176929,
			"-0.007": 1.32172137455,
			"-0.006": 9.78665034365,
			"-0.005": 16.2257458363,
			"-0.004": 19.9319786784,
			"-0.003": 16.2055206554,
			"-0.002": 18.891711821,
			"-0.001": 11.2188670244,
			"0.0": 9.01001124874,
			"0.001": 9.51837118375,
			"0.002": 9.38884344763,
			"0.003": 10.2982639435,
			"0.004": 11.8436587563,
			"0.005": 8.93701634063,
			"0.006": 1.90737201984,
			"0.007": 1.38590430651,
			"0.008": 1.32481064992,
			"0.009": 1.71054791158,
			"0.01": 1.5403238848,
			"0.011": 1.31696682738,
			"0.012": 1.85392213855,
			"0.013": 3.06979373065,
			"0.014": 5.67755107391,
			"0.015": 1.41648909823,
			"0.016": 0.0,
			"0.017": 0.0,
			"0.018": 0.0,
			"0.019": 0.0,
			"0.02": 0.0,
			"0.021": 0.0,
			"0.022": 0.0,
			"0.023": 0.0,
			"0.024": 0.0,
			"0.025": 0.0
		}
	}
}
