{
	 "smiles": "ClC1=NNC(=O)C=C1", 
	 "Tm": 412.15, 
	 "num_atms": 11, 
	 "gaussian": { 
		 "optdone": 1, 
		 "sigma_profile": "yes", 
		 "theory": "DFT", 
		 "functional": "B3LYP", 
		 "basiset": "6-31G**", 
		 "properties": { 
			 "R2extent": 1835.263, 
			 "electric_dipole_moment_norm": 1.72440166435, 
			 "electric_quadrupole_moment_norm": 11.4213526379, 
			 "total_energy": -799.120347842, 
			 "HOMO_LUMO_gap": 0.16948, 
			 "cosmo_polarized_energy": -11.0, 
			 "cosmo_cavitation_energy": 17.76, 
			 "cosmo_dispersion_energy": -13.67, 
			 "cosmo_repulsion_energy": 1.15, 
			 "cosmo_total_nonelectrostatic_energy": 5.24, 
			 "SMD_solvation_energy": 3.05 
		},
		"coords": [
			{
				"x": 3.7403224574,
				"y": -0.1553616217,
				"z": 1.652503723,
				"element": "Cl" 
			},
			{
				"x": 2.364243781,
				"y": 0.0587849115,
				"z": 0.5932039064,
				"element": "C" 
			},
			{
				"x": 1.2737427074,
				"y": -0.5647385169,
				"z": 0.9085461509,
				"element": "N" 
			},
			{
				"x": 0.230698163,
				"y": -0.38583786,
				"z": 0.0817362332,
				"element": "N" 
			},
			{
				"x": 0.162642534,
				"y": 0.391103373,
				"z": -1.0862446564,
				"element": "C" 
			},
			{
				"x": -0.8699300572,
				"y": 0.4543637964,
				"z": -1.7383262648,
				"element": "O" 
			},
			{
				"x": 1.4276995068,
				"y": 1.0619072296,
				"z": -1.3750956496,
				"element": "C" 
			},
			{
				"x": 2.5005176446,
				"y": 0.901893492,
				"z": -0.5595829815,
				"element": "C" 
			},
			{
				"x": -0.6130413874,
				"y": -0.8817815464,
				"z": 0.3455941792,
				"element": "H" 
			},
			{
				"x": 1.4600843056,
				"y": 1.6838388468,
				"z": -2.2624431513,
				"element": "H" 
			},
			{
				"x": 3.4497203448,
				"y": 1.3895278958,
				"z": -0.7535914892,
				"element": "H" 
			}
		],
		 "valence_orbital": [ 
			{
				"type": "occ",
				"energy": -0.33853,
				"method": "rhf"
			},
			{
				"type": "occ",
				"energy": -0.33426,
				"method": "rhf"
			},
			{
				"type": "occ",
				"energy": -0.32127,
				"method": "rhf"
			},
			{
				"type": "occ",
				"energy": -0.26664,
				"method": "rhf"
			},
			{
				"type": "occ",
				"energy": -0.25006,
				"method": "rhf"
			},
			{
				"type": "unocc",
				"energy": -0.08058,
				"method": "rhf"
			},
			{
				"type": "unocc",
				"energy": -0.01556,
				"method": "rhf"
			},
			{
				"type": "unocc",
				"energy": 0.01181,
				"method": "rhf"
			},
			{
				"type": "unocc",
				"energy": 0.08543,
				"method": "rhf"
			},
			{
				"type": "unocc",
				"energy": 0.10229,
				"method": "rhf"
			}
		],
		"cosmo_sigma_profile": { 
			"-0.025": 0.0,
			"-0.024": 0.0,
			"-0.023": 0.0,
			"-0.022": 0.0,
			"-0.021": 0.0,
			"-0.02": 0.0,
			"-0.019": 0.0,
			"-0.018": 0.0,
			"-0.017": 0.481651011927,
			"-0.016": 1.28362648797,
			"-0.015": 1.21122802464,
			"-0.014": 0.845913456105,
			"-0.013": 0.350032296516,
			"-0.012": 0.7318413275,
			"-0.011": 1.25325938646,
			"-0.01": 1.59071184082,
			"-0.009": 4.43150843932,
			"-0.008": 4.5325580215,
			"-0.007": 4.75213568325,
			"-0.006": 4.46398414677,
			"-0.005": 5.20331352373,
			"-0.004": 7.32874488094,
			"-0.003": 11.7921305705,
			"-0.002": 13.9989573915,
			"-0.001": 11.149061432,
			"0.0": 8.28471190342,
			"0.001": 6.90396370859,
			"0.002": 8.23588594099,
			"0.003": 10.4717228505,
			"0.004": 7.90558642012,
			"0.005": 3.35862675141,
			"0.006": 2.37559534092,
			"0.007": 2.40504961352,
			"0.008": 2.47334948174,
			"0.009": 1.67681250141,
			"0.01": 1.82885639349,
			"0.011": 2.78719182264,
			"0.012": 3.00915397388,
			"0.013": 5.98199742057,
			"0.014": 2.28829857413,
			"0.015": 0.0344747541833,
			"0.016": 0.0,
			"0.017": 0.0,
			"0.018": 0.0,
			"0.019": 0.0,
			"0.02": 0.0,
			"0.021": 0.0,
			"0.022": 0.0,
			"0.023": 0.0,
			"0.024": 0.0,
			"0.025": 0.0
		}
	}
}
