{
	 "smiles": "OC1=CC=C(C=O)C=C1", 
	 "Tm": 391.15, 
	 "num_atms": 15, 
	 "gaussian": { 
		 "optdone": 1, 
		 "sigma_profile": "yes", 
		 "theory": "DFT", 
		 "functional": "B3LYP", 
		 "basiset": "6-31G**", 
		 "properties": { 
			 "R2extent": 1865.9858, 
			 "electric_dipole_moment_norm": 3.39259870601, 
			 "electric_quadrupole_moment_norm": 14.4125779484, 
			 "total_energy": -420.797325167, 
			 "HOMO_LUMO_gap": 0.18496, 
			 "cosmo_polarized_energy": -12.22, 
			 "cosmo_cavitation_energy": 19.74, 
			 "cosmo_dispersion_energy": -14.6, 
			 "cosmo_repulsion_energy": 1.19, 
			 "cosmo_total_nonelectrostatic_energy": 6.33, 
			 "SMD_solvation_energy": 4.92 
		},
		"coords": [
			{
				"x": 2.2542060859,
				"y": -0.9514722954,
				"z": 0.8298845157,
				"element": "O" 
			},
			{
				"x": 1.296379877,
				"y": -0.892607456,
				"z": -0.1326649128,
				"element": "C" 
			},
			{
				"x": 1.7195735442,
				"y": -0.9918627219,
				"z": -1.4655930856,
				"element": "C" 
			},
			{
				"x": 0.7776608263,
				"y": -0.9369522462,
				"z": -2.4840959097,
				"element": "C" 
			},
			{
				"x": -0.5876589025,
				"y": -0.7838574888,
				"z": -2.1963749985,
				"element": "C" 
			},
			{
				"x": -1.5782284051,
				"y": -0.7268115863,
				"z": -3.2857407567,
				"element": "C" 
			},
			{
				"x": -2.77936645,
				"y": -0.5967282547,
				"z": -3.1289989007,
				"element": "O" 
			},
			{
				"x": -0.9979214136,
				"y": -0.6856755497,
				"z": -0.857219401,
				"element": "C" 
			},
			{
				"x": -0.0669757115,
				"y": -0.7391179369,
				"z": 0.1697107898,
				"element": "C" 
			},
			{
				"x": 1.8420118246,
				"y": -0.8725860051,
				"z": 1.7005624188,
				"element": "H" 
			},
			{
				"x": 2.7779949281,
				"y": -1.1098014579,
				"z": -1.6712764954,
				"element": "H" 
			},
			{
				"x": 1.0996457593,
				"y": -1.0133722194,
				"z": -3.5202634606,
				"element": "H" 
			},
			{
				"x": -1.144103768,
				"y": -0.8149409369,
				"z": -4.3077491979,
				"element": "H" 
			},
			{
				"x": -2.0566973613,
				"y": -0.5675313855,
				"z": -0.6487223039,
				"element": "H" 
			},
			{
				"x": -0.3855208332,
				"y": -0.6629824593,
				"z": 1.2073416985,
				"element": "H" 
			}
		],
		 "valence_orbital": [ 
			{
				"type": "occ",
				"energy": -0.35222,
				"method": "rhf"
			},
			{
				"type": "occ",
				"energy": -0.33883,
				"method": "rhf"
			},
			{
				"type": "occ",
				"energy": -0.26975,
				"method": "rhf"
			},
			{
				"type": "occ",
				"energy": -0.24902,
				"method": "rhf"
			},
			{
				"type": "occ",
				"energy": -0.23842,
				"method": "rhf"
			},
			{
				"type": "unocc",
				"energy": -0.05346,
				"method": "rhf"
			},
			{
				"type": "unocc",
				"energy": -0.0168,
				"method": "rhf"
			},
			{
				"type": "unocc",
				"energy": 0.04926,
				"method": "rhf"
			},
			{
				"type": "unocc",
				"energy": 0.05631,
				"method": "rhf"
			},
			{
				"type": "unocc",
				"energy": 0.09362,
				"method": "rhf"
			}
		],
		"cosmo_sigma_profile": { 
			"-0.025": 0.0,
			"-0.024": 0.0,
			"-0.023": 0.0,
			"-0.022": 0.0,
			"-0.021": 0.0,
			"-0.02": 0.0,
			"-0.019": 0.274271963992,
			"-0.018": 0.919649887414,
			"-0.017": 1.23211827905,
			"-0.016": 1.38241990908,
			"-0.015": 0.72650481019,
			"-0.014": 1.03774332357,
			"-0.013": 0.80782709963,
			"-0.012": 0.738011637239,
			"-0.011": 1.53941715184,
			"-0.01": 1.04993832711,
			"-0.009": 1.09945493596,
			"-0.008": 1.5325652984,
			"-0.007": 6.18506086221,
			"-0.006": 10.7094501377,
			"-0.005": 9.93350671242,
			"-0.004": 8.41025160779,
			"-0.003": 7.77549076416,
			"-0.002": 7.44979611207,
			"-0.001": 7.58058551715,
			"0.0": 8.61795493034,
			"0.001": 10.7008228165,
			"0.002": 12.501199071,
			"0.003": 17.5881628657,
			"0.004": 8.6799141654,
			"0.005": 3.27041981639,
			"0.006": 2.35013252675,
			"0.007": 2.69569687677,
			"0.008": 3.13392079278,
			"0.009": 3.99796773345,
			"0.01": 3.52610978605,
			"0.011": 3.87543605058,
			"0.012": 4.64841053435,
			"0.013": 1.71509764906,
			"0.014": 0.27609158284,
			"0.015": 0.0,
			"0.016": 0.0,
			"0.017": 0.0,
			"0.018": 0.0,
			"0.019": 0.0,
			"0.02": 0.0,
			"0.021": 0.0,
			"0.022": 0.0,
			"0.023": 0.0,
			"0.024": 0.0,
			"0.025": 0.0
		}
	}
}
