{
	 "smiles": "CSCCC(NC(=O)C1=CC=CN=C1SC)C(O)=O", 
	 "Tm": 432.15, 
	 "num_atms": 35, 
	 "gaussian": { 
		 "optdone": 1, 
		 "sigma_profile": "yes", 
		 "theory": "DFT", 
		 "functional": "B3LYP", 
		 "basiset": "6-31G**", 
		 "properties": { 
			 "R2extent": 6326.2872, 
			 "electric_dipole_moment_norm": 2.87397689796, 
			 "electric_quadrupole_moment_norm": 19.2152119413, 
			 "total_energy": -1598.4914166, 
			 "HOMO_LUMO_gap": 0.17993, 
			 "cosmo_polarized_energy": -19.99, 
			 "cosmo_cavitation_energy": 40.84, 
			 "cosmo_dispersion_energy": -28.04, 
			 "cosmo_repulsion_energy": 2.12, 
			 "cosmo_total_nonelectrostatic_energy": 14.93, 
			 "SMD_solvation_energy": 7.66 
		},
		"coords": [
			{
				"x": 0.9650361709,
				"y": -1.3083717873,
				"z": -4.0908607673,
				"element": "C" 
			},
			{
				"x": 1.8068570157,
				"y": 0.2547789072,
				"z": -3.6475920618,
				"element": "S" 
			},
			{
				"x": 0.3852950619,
				"y": 1.3850062398,
				"z": -3.3522647099,
				"element": "C" 
			},
			{
				"x": -0.5730918795,
				"y": 1.0739392841,
				"z": -2.1943487897,
				"element": "C" 
			},
			{
				"x": 0.0446728976,
				"y": 0.9160512236,
				"z": -0.7786546219,
				"element": "C" 
			},
			{
				"x": 0.7307363267,
				"y": -0.3513206803,
				"z": -0.5783334973,
				"element": "N" 
			},
			{
				"x": 0.1225141907,
				"y": -1.5365550119,
				"z": -0.247360364,
				"element": "C" 
			},
			{
				"x": 0.5629717675,
				"y": -2.6131281223,
				"z": -0.6424935768,
				"element": "O" 
			},
			{
				"x": -1.113399419,
				"y": -1.5084114928,
				"z": 0.6173697246,
				"element": "C" 
			},
			{
				"x": -2.1794802755,
				"y": -2.3111740091,
				"z": 0.2035057882,
				"element": "C" 
			},
			{
				"x": -3.3385498971,
				"y": -2.3938261761,
				"z": 0.971044467,
				"element": "C" 
			},
			{
				"x": -3.3735207552,
				"y": -1.6785164444,
				"z": 2.1645628864,
				"element": "C" 
			},
			{
				"x": -2.3514248946,
				"y": -0.9402390398,
				"z": 2.6113577,
				"element": "N" 
			},
			{
				"x": -1.2437221899,
				"y": -0.8536668983,
				"z": 1.8685489798,
				"element": "C" 
			},
			{
				"x": 0.1151356336,
				"y": 0.0888769264,
				"z": 2.5455468705,
				"element": "S" 
			},
			{
				"x": -0.5801472745,
				"y": 0.5873634107,
				"z": 4.155835343,
				"element": "C" 
			},
			{
				"x": 0.9137774278,
				"y": 2.1280205373,
				"z": -0.445664566,
				"element": "C" 
			},
			{
				"x": 2.1313640511,
				"y": 1.8169134635,
				"z": 0.0330235632,
				"element": "O" 
			},
			{
				"x": 0.5370290611,
				"y": 3.2681472139,
				"z": -0.6170284395,
				"element": "O" 
			},
			{
				"x": 0.1871565508,
				"y": -1.1283772804,
				"z": -4.8379093699,
				"element": "H" 
			},
			{
				"x": 1.728857581,
				"y": -1.9520120073,
				"z": -4.532481103,
				"element": "H" 
			},
			{
				"x": 0.5517337426,
				"y": -1.8141407904,
				"z": -3.2152755262,
				"element": "H" 
			},
			{
				"x": 0.8536245095,
				"y": 2.3609469735,
				"z": -3.1922073547,
				"element": "H" 
			},
			{
				"x": -0.189686174,
				"y": 1.4582159688,
				"z": -4.281502865,
				"element": "H" 
			},
			{
				"x": -1.2916180496,
				"y": 1.9001514213,
				"z": -2.1495855933,
				"element": "H" 
			},
			{
				"x": -1.1457203088,
				"y": 0.1637385067,
				"z": -2.4027131174,
				"element": "H" 
			},
			{
				"x": -0.7827625565,
				"y": 0.9640219452,
				"z": -0.0657336629,
				"element": "H" 
			},
			{
				"x": 1.5488177649,
				"y": -0.4857162539,
				"z": -1.1672627666,
				"element": "H" 
			},
			{
				"x": -2.0761900235,
				"y": -2.8706976673,
				"z": -0.7208955789,
				"element": "H" 
			},
			{
				"x": -4.1823931801,
				"y": -3.0000839121,
				"z": 0.6600511398,
				"element": "H" 
			},
			{
				"x": -4.2549349483,
				"y": -1.7019426435,
				"z": 2.802933967,
				"element": "H" 
			},
			{
				"x": 0.2067685912,
				"y": 1.1706096205,
				"z": 4.6394955901,
				"element": "H" 
			},
			{
				"x": -1.4735508926,
				"y": 1.1973024939,
				"z": 4.0233001047,
				"element": "H" 
			},
			{
				"x": -0.8240238085,
				"y": -0.2871849631,
				"z": 4.7589541753,
				"element": "H" 
			},
			{
				"x": 2.5780681825,
				"y": 2.6634810439,
				"z": 0.2050380325,
				"element": "H" 
			}
		],
		 "valence_orbital": [ 
			{
				"type": "occ",
				"energy": -0.27359,
				"method": "rhf"
			},
			{
				"type": "occ",
				"energy": -0.26243,
				"method": "rhf"
			},
			{
				"type": "occ",
				"energy": -0.24682,
				"method": "rhf"
			},
			{
				"type": "occ",
				"energy": -0.22773,
				"method": "rhf"
			},
			{
				"type": "occ",
				"energy": -0.22444,
				"method": "rhf"
			},
			{
				"type": "unocc",
				"energy": -0.04451,
				"method": "rhf"
			},
			{
				"type": "unocc",
				"energy": -0.02844,
				"method": "rhf"
			},
			{
				"type": "unocc",
				"energy": -0.00095,
				"method": "rhf"
			},
			{
				"type": "unocc",
				"energy": 0.02373,
				"method": "rhf"
			},
			{
				"type": "unocc",
				"energy": 0.03821,
				"method": "rhf"
			}
		],
		"cosmo_sigma_profile": { 
			"-0.025": 0.0,
			"-0.024": 0.0,
			"-0.023": 0.0,
			"-0.022": 0.0,
			"-0.021": 0.0,
			"-0.02": 0.0,
			"-0.019": 0.309571050221,
			"-0.018": 1.20754240705,
			"-0.017": 0.751104888649,
			"-0.016": 0.901136622495,
			"-0.015": 0.671098131447,
			"-0.014": 0.428554948918,
			"-0.013": 0.87598937324,
			"-0.012": 0.684965227384,
			"-0.011": 0.856404174228,
			"-0.01": 0.357524643194,
			"-0.009": 0.55535213042,
			"-0.008": 1.94272222608,
			"-0.007": 9.66449969573,
			"-0.006": 19.4436320389,
			"-0.005": 30.3280573676,
			"-0.004": 26.7860564637,
			"-0.003": 24.9427635599,
			"-0.002": 25.9888455116,
			"-0.001": 24.4480359886,
			"0.0": 20.1060181056,
			"0.001": 21.0363209278,
			"0.002": 19.3893237946,
			"0.003": 14.6891002003,
			"0.004": 10.9016484253,
			"0.005": 11.3059769115,
			"0.006": 10.5589519846,
			"0.007": 9.11485880051,
			"0.008": 7.36948113334,
			"0.009": 5.89178855121,
			"0.01": 7.10940385258,
			"0.011": 6.48401089893,
			"0.012": 6.0909960976,
			"0.013": 4.09590654242,
			"0.014": 0.848113960199,
			"0.015": 0.0,
			"0.016": 0.0,
			"0.017": 0.0,
			"0.018": 0.0,
			"0.019": 0.0,
			"0.02": 0.0,
			"0.021": 0.0,
			"0.022": 0.0,
			"0.023": 0.0,
			"0.024": 0.0,
			"0.025": 0.0
		}
	}
}
