{
	 "smiles": "O=CC1=CC(=CS1)C1=CC=CC=C1", 
	 "Tm": 337.15, 
	 "num_atms": 21, 
	 "gaussian": { 
		 "optdone": 1, 
		 "sigma_profile": "yes", 
		 "theory": "DFT", 
		 "functional": "B3LYP", 
		 "basiset": "6-31G**", 
		 "properties": { 
			 "R2extent": 4129.2986, 
			 "electric_dipole_moment_norm": 4.18887153539, 
			 "electric_quadrupole_moment_norm": 15.511338116, 
			 "total_energy": -897.38686773, 
			 "HOMO_LUMO_gap": 0.16023, 
			 "cosmo_polarized_energy": -9.98, 
			 "cosmo_cavitation_energy": 27.51, 
			 "cosmo_dispersion_energy": -20.5, 
			 "cosmo_repulsion_energy": 1.55, 
			 "cosmo_total_nonelectrostatic_energy": 8.56, 
			 "SMD_solvation_energy": 5.49 
		},
		"coords": [
			{
				"x": 3.6944176202,
				"y": 2.7785693813,
				"z": 2.9262862811,
				"element": "O" 
			},
			{
				"x": 3.2246157132,
				"y": 2.6032794038,
				"z": 1.8153581258,
				"element": "C" 
			},
			{
				"x": 1.8897474355,
				"y": 2.0795500258,
				"z": 1.5500608795,
				"element": "C" 
			},
			{
				"x": 1.3067484867,
				"y": 1.8501600357,
				"z": 0.3234608428,
				"element": "C" 
			},
			{
				"x": -0.0124875428,
				"y": 1.309441156,
				"z": 0.4067981824,
				"element": "C" 
			},
			{
				"x": -0.3905617719,
				"y": 1.1489889027,
				"z": 1.7271743301,
				"element": "C" 
			},
			{
				"x": 0.8182478648,
				"y": 1.637432703,
				"z": 2.8539466968,
				"element": "S" 
			},
			{
				"x": -0.8573020242,
				"y": 0.9695270104,
				"z": -0.7582049963,
				"element": "C" 
			},
			{
				"x": -1.7692259048,
				"y": -0.0981070103,
				"z": -0.7034430184,
				"element": "C" 
			},
			{
				"x": -2.5714453893,
				"y": -0.4087673668,
				"z": -1.7998519467,
				"element": "C" 
			},
			{
				"x": -2.4730417542,
				"y": 0.3356301451,
				"z": -2.9772468755,
				"element": "C" 
			},
			{
				"x": -1.5667064862,
				"y": 1.3951407273,
				"z": -3.0472777767,
				"element": "C" 
			},
			{
				"x": -0.7683339879,
				"y": 1.7103575885,
				"z": -1.9487598671,
				"element": "C" 
			},
			{
				"x": 3.8038929915,
				"y": 2.8413894903,
				"z": 0.8967431624,
				"element": "H" 
			},
			{
				"x": 1.8230537358,
				"y": 2.038609192,
				"z": -0.611754567,
				"element": "H" 
			},
			{
				"x": -1.3449092083,
				"y": 0.7911463237,
				"z": 2.0896678845,
				"element": "H" 
			},
			{
				"x": -1.8309605203,
				"y": -0.7028539468,
				"z": 0.1966840649,
				"element": "H" 
			},
			{
				"x": -3.2667450109,
				"y": -1.2410408159,
				"z": -1.7380966493,
				"element": "H" 
			},
			{
				"x": -3.0952269063,
				"y": 0.0905655162,
				"z": -3.8329122653,
				"element": "H" 
			},
			{
				"x": -1.4856077426,
				"y": 1.983613342,
				"z": -3.9566980854,
				"element": "H" 
			},
			{
				"x": -0.0858695982,
				"y": 2.5533681958,
				"z": -2.0065344028,
				"element": "H" 
			}
		],
		 "valence_orbital": [ 
			{
				"type": "occ",
				"energy": -0.28736,
				"method": "rhf"
			},
			{
				"type": "occ",
				"energy": -0.26245,
				"method": "rhf"
			},
			{
				"type": "occ",
				"energy": -0.26001,
				"method": "rhf"
			},
			{
				"type": "occ",
				"energy": -0.25922,
				"method": "rhf"
			},
			{
				"type": "occ",
				"energy": -0.23155,
				"method": "rhf"
			},
			{
				"type": "unocc",
				"energy": -0.07132,
				"method": "rhf"
			},
			{
				"type": "unocc",
				"energy": -0.02948,
				"method": "rhf"
			},
			{
				"type": "unocc",
				"energy": -0.0115,
				"method": "rhf"
			},
			{
				"type": "unocc",
				"energy": 0.0231,
				"method": "rhf"
			},
			{
				"type": "unocc",
				"energy": 0.04038,
				"method": "rhf"
			}
		],
		"cosmo_sigma_profile": { 
			"-0.025": 0.0,
			"-0.024": 0.0,
			"-0.023": 0.0,
			"-0.022": 0.0,
			"-0.021": 0.0,
			"-0.02": 0.0,
			"-0.019": 0.0,
			"-0.018": 0.0,
			"-0.017": 0.0,
			"-0.016": 0.0,
			"-0.015": 0.0,
			"-0.014": 0.0,
			"-0.013": 0.0,
			"-0.012": 0.0,
			"-0.011": 0.0,
			"-0.01": 0.237189577418,
			"-0.009": 2.28980732714,
			"-0.008": 5.96356053082,
			"-0.007": 7.89518959268,
			"-0.006": 14.0295642506,
			"-0.005": 15.4454521797,
			"-0.004": 15.5704520288,
			"-0.003": 14.2699396805,
			"-0.002": 12.3668273606,
			"-0.001": 12.6460871521,
			"0.0": 12.9996649851,
			"0.001": 21.1383951481,
			"0.002": 28.0483883456,
			"0.003": 16.3812790476,
			"0.004": 11.2690899498,
			"0.005": 12.2517421172,
			"0.006": 4.22546982293,
			"0.007": 2.06159426153,
			"0.008": 1.70870210044,
			"0.009": 1.91524080051,
			"0.01": 2.7616373308,
			"0.011": 3.85706792153,
			"0.012": 3.43491570306,
			"0.013": 0.978531359757,
			"0.014": 0.0221958457235,
			"0.015": 0.0,
			"0.016": 0.0,
			"0.017": 0.0,
			"0.018": 0.0,
			"0.019": 0.0,
			"0.02": 0.0,
			"0.021": 0.0,
			"0.022": 0.0,
			"0.023": 0.0,
			"0.024": 0.0,
			"0.025": 0.0
		}
	}
}
