{
	 "smiles": "CC(C)N1CCC(CC1)N1CCNCC1", 
	 "Tm": 320.15, 
	 "num_atms": 40, 
	 "gaussian": { 
		 "optdone": 1, 
		 "sigma_profile": "yes", 
		 "theory": "DFT", 
		 "functional": "B3LYP", 
		 "basiset": "6-31G**", 
		 "properties": { 
			 "R2extent": 5155.6531, 
			 "electric_dipole_moment_norm": 1.02330423629, 
			 "electric_quadrupole_moment_norm": 8.47778698423, 
			 "total_energy": -636.559960614, 
			 "HOMO_LUMO_gap": 0.24687, 
			 "cosmo_polarized_energy": -8.01, 
			 "cosmo_cavitation_energy": 36.16, 
			 "cosmo_dispersion_energy": -26.4, 
			 "cosmo_repulsion_energy": 2.04, 
			 "cosmo_total_nonelectrostatic_energy": 11.79, 
			 "SMD_solvation_energy": -1.55 
		},
		"coords": [
			{
				"x": 3.7677431407,
				"y": -0.2038902298,
				"z": 2.0070631341,
				"element": "C" 
			},
			{
				"x": 3.1466116441,
				"y": 0.4441845228,
				"z": 0.7608634717,
				"element": "C" 
			},
			{
				"x": 4.2846851779,
				"y": 0.9231762643,
				"z": -0.1551399427,
				"element": "C" 
			},
			{
				"x": 2.2627452409,
				"y": -0.4913437708,
				"z": 0.039690894,
				"element": "N" 
			},
			{
				"x": 1.4931952019,
				"y": 0.1353366242,
				"z": -1.0603112199,
				"element": "C" 
			},
			{
				"x": 0.010220094,
				"y": 0.3427910094,
				"z": -0.7262493522,
				"element": "C" 
			},
			{
				"x": -0.7133950783,
				"y": -1.0086962266,
				"z": -0.4741852146,
				"element": "C" 
			},
			{
				"x": 0.3296036174,
				"y": -2.0140227937,
				"z": 0.0638231847,
				"element": "C" 
			},
			{
				"x": 1.3977311078,
				"y": -1.3076323394,
				"z": 0.9024780161,
				"element": "C" 
			},
			{
				"x": -1.3579222934,
				"y": -1.4946793887,
				"z": -1.7096892855,
				"element": "N" 
			},
			{
				"x": -1.7497233286,
				"y": -2.9062444205,
				"z": -1.7360349778,
				"element": "C" 
			},
			{
				"x": -2.9462146266,
				"y": -3.2379255025,
				"z": -0.8077940072,
				"element": "C" 
			},
			{
				"x": -3.9308636431,
				"y": -2.1431640275,
				"z": -0.7441502919,
				"element": "N" 
			},
			{
				"x": -3.8757067371,
				"y": -1.3188407457,
				"z": -1.9502394765,
				"element": "C" 
			},
			{
				"x": -2.488374714,
				"y": -0.6590637708,
				"z": -2.175200284,
				"element": "C" 
			},
			{
				"x": 4.3094199984,
				"y": -1.1167321574,
				"z": 1.7348218364,
				"element": "H" 
			},
			{
				"x": 3.0268556838,
				"y": -0.4558791028,
				"z": 2.7696201204,
				"element": "H" 
			},
			{
				"x": 4.4818507269,
				"y": 0.489657871,
				"z": 2.4613194659,
				"element": "H" 
			},
			{
				"x": 2.5761519981,
				"y": 1.3341965771,
				"z": 1.1014168236,
				"element": "H" 
			},
			{
				"x": 4.896476432,
				"y": 0.0693480055,
				"z": -0.4646521486,
				"element": "H" 
			},
			{
				"x": 4.923668034,
				"y": 1.6362981933,
				"z": 0.3763929004,
				"element": "H" 
			},
			{
				"x": 3.9238625004,
				"y": 1.4198227887,
				"z": -1.0593986948,
				"element": "H" 
			},
			{
				"x": 1.5656683296,
				"y": -0.4832833933,
				"z": -1.964772272,
				"element": "H" 
			},
			{
				"x": 1.9411548322,
				"y": 1.0995576911,
				"z": -1.3106446132,
				"element": "H" 
			},
			{
				"x": -0.4681202133,
				"y": 0.8929081111,
				"z": -1.5411323715,
				"element": "H" 
			},
			{
				"x": -0.0750921634,
				"y": 0.9731103788,
				"z": 0.1673277199,
				"element": "H" 
			},
			{
				"x": -1.4581738949,
				"y": -0.8429824961,
				"z": 0.3294681076,
				"element": "H" 
			},
			{
				"x": 0.8338799353,
				"y": -2.5056880936,
				"z": -0.7754172271,
				"element": "H" 
			},
			{
				"x": -0.1487653473,
				"y": -2.7960068261,
				"z": 0.6624083941,
				"element": "H" 
			},
			{
				"x": 0.8971992142,
				"y": -0.7144161912,
				"z": 1.6948825103,
				"element": "H" 
			},
			{
				"x": 2.005838079,
				"y": -2.057981922,
				"z": 1.4167165299,
				"element": "H" 
			},
			{
				"x": -0.8961623833,
				"y": -3.544901442,
				"z": -1.4991006224,
				"element": "H" 
			},
			{
				"x": -2.0174264404,
				"y": -3.1423178226,
				"z": -2.7739126814,
				"element": "H" 
			},
			{
				"x": -3.4366122629,
				"y": -4.1559346087,
				"z": -1.1656357558,
				"element": "H" 
			},
			{
				"x": -2.599961735,
				"y": -3.4477837107,
				"z": 0.2103285706,
				"element": "H" 
			},
			{
				"x": -3.731757715,
				"y": -1.5583869064,
				"z": 0.0627965238,
				"element": "H" 
			},
			{
				"x": -4.6506055557,
				"y": -0.5459215749,
				"z": -1.8977220515,
				"element": "H" 
			},
			{
				"x": -4.1390490826,
				"y": -1.9576027116,
				"z": -2.802580242,
				"element": "H" 
			},
			{
				"x": -2.4664400701,
				"y": 0.2933493656,
				"z": -1.636532252,
				"element": "H" 
			},
			{
				"x": -2.3643937035,
				"y": -0.4164152275,
				"z": -3.242323219,
				"element": "H" 
			}
		],
		 "valence_orbital": [ 
			{
				"type": "occ",
				"energy": -0.31088,
				"method": "rhf"
			},
			{
				"type": "occ",
				"energy": -0.30481,
				"method": "rhf"
			},
			{
				"type": "occ",
				"energy": -0.23376,
				"method": "rhf"
			},
			{
				"type": "occ",
				"energy": -0.19409,
				"method": "rhf"
			},
			{
				"type": "occ",
				"energy": -0.18532,
				"method": "rhf"
			},
			{
				"type": "unocc",
				"energy": 0.06155,
				"method": "rhf"
			},
			{
				"type": "unocc",
				"energy": 0.0862,
				"method": "rhf"
			},
			{
				"type": "unocc",
				"energy": 0.10251,
				"method": "rhf"
			},
			{
				"type": "unocc",
				"energy": 0.1073,
				"method": "rhf"
			},
			{
				"type": "unocc",
				"energy": 0.11441,
				"method": "rhf"
			}
		],
		"cosmo_sigma_profile": { 
			"-0.025": 0.0,
			"-0.024": 0.0,
			"-0.023": 0.0,
			"-0.022": 0.0,
			"-0.021": 0.0,
			"-0.02": 0.0,
			"-0.019": 0.0,
			"-0.018": 0.0,
			"-0.017": 0.0,
			"-0.016": 0.0,
			"-0.015": 0.0,
			"-0.014": 0.0,
			"-0.013": 0.0,
			"-0.012": 0.0,
			"-0.011": 0.0,
			"-0.01": 0.0,
			"-0.009": 0.527912180484,
			"-0.008": 1.25334539204,
			"-0.007": 1.37755644134,
			"-0.006": 2.48263351666,
			"-0.005": 2.56866267636,
			"-0.004": 9.4036735731,
			"-0.003": 33.7634266007,
			"-0.002": 47.4895330802,
			"-0.001": 59.2651369924,
			"0.0": 43.5478503551,
			"0.001": 26.3423741537,
			"0.002": 13.6645482251,
			"0.003": 4.62784610634,
			"0.004": 4.11926878151,
			"0.005": 3.06552458148,
			"0.006": 2.55892112374,
			"0.007": 3.02307916319,
			"0.008": 2.52149059666,
			"0.009": 1.85321611408,
			"0.01": 2.51390693106,
			"0.011": 1.91246011645,
			"0.012": 1.28763647666,
			"0.013": 1.27411775106,
			"0.014": 1.91127542715,
			"0.015": 0.94806154843,
			"0.016": 1.35613108428,
			"0.017": 0.729073114339,
			"0.018": 0.606909174748,
			"0.019": 0.345322201257,
			"0.02": 0.00533660439927,
			"0.021": 0.0,
			"0.022": 0.0,
			"0.023": 0.0,
			"0.024": 0.0,
			"0.025": 0.0
		}
	}
}
