{
	 "smiles": "CC(C)(C)N(NC(=O)C1=CC=CC=C1)C(=O)C1=CC=CC(I)=C1", 
	 "Tm": 529.15, 
	 "num_atms": 42, 
	 "gaussian": { 
		 "optdone": 1, 
		 "sigma_profile": "no", 
		 "theory": "DFT", 
		 "functional": "B3LYP", 
		 "basiset": "6-31G**", 
		 "properties": { 
			 "R2extent": 8974.9304, 
			 "electric_dipole_moment_norm": 5.12355946682, 
			 "electric_quadrupole_moment_norm": 14.044234773, 
			 "total_energy": -968.707055049, 
			 "HOMO_LUMO_gap": 0.18789, 
			 "cosmo_polarized_energy": -101325.45, 
			 "cosmo_cavitation_energy": 47.69, 
			 "cosmo_dispersion_energy": -32.9, 
			 "cosmo_repulsion_energy": 2.5, 
			 "cosmo_total_nonelectrostatic_energy": 17.28, 
			 "SMD_solvation_energy": 8.37 
		},
		"coords": [
			{
				"x": 2.5359432839,
				"y": 0.3123430373,
				"z": 1.2364839551,
				"element": "C" 
			},
			{
				"x": 2.1957346381,
				"y": 1.0513314591,
				"z": -0.0676965329,
				"element": "C" 
			},
			{
				"x": 2.7421960912,
				"y": 2.4907630995,
				"z": -0.0068319898,
				"element": "C" 
			},
			{
				"x": 2.8113434775,
				"y": 0.2642745813,
				"z": -1.2392638884,
				"element": "C" 
			},
			{
				"x": 0.6896659936,
				"y": 1.0780542222,
				"z": -0.2422620755,
				"element": "N" 
			},
			{
				"x": -0.0965690912,
				"y": 1.1172205904,
				"z": 0.9038306827,
				"element": "N" 
			},
			{
				"x": -0.5599639836,
				"y": -0.0236861159,
				"z": 1.5293855889,
				"element": "C" 
			},
			{
				"x": -0.3561400624,
				"y": -1.1486052845,
				"z": 1.0930019263,
				"element": "O" 
			},
			{
				"x": -1.3397280552,
				"y": 0.2253802987,
				"z": 2.7869747767,
				"element": "C" 
			},
			{
				"x": -1.3706318482,
				"y": -0.8060357963,
				"z": 3.7358415043,
				"element": "C" 
			},
			{
				"x": -2.0762469329,
				"y": -0.6447819823,
				"z": 4.9255230134,
				"element": "C" 
			},
			{
				"x": -2.772347848,
				"y": 0.5418959595,
				"z": 5.1715531071,
				"element": "C" 
			},
			{
				"x": -2.7662056463,
				"y": 1.5639465919,
				"z": 4.2205756395,
				"element": "C" 
			},
			{
				"x": -2.0526718385,
				"y": 1.4088247312,
				"z": 3.031822305,
				"element": "C" 
			},
			{
				"x": 0.1110819176,
				"y": 1.6013020108,
				"z": -1.3992466294,
				"element": "C" 
			},
			{
				"x": 0.7791001296,
				"y": 2.0973516171,
				"z": -2.2981701363,
				"element": "O" 
			},
			{
				"x": -1.3863133679,
				"y": 1.5123949625,
				"z": -1.5428266198,
				"element": "C" 
			},
			{
				"x": -2.1088825,
				"y": 0.3437197282,
				"z": -1.2713367128,
				"element": "C" 
			},
			{
				"x": -3.4758462006,
				"y": 0.2982839801,
				"z": -1.5426166301,
				"element": "C" 
			},
			{
				"x": -4.1375084584,
				"y": 1.4087500481,
				"z": -2.0714612018,
				"element": "C" 
			},
			{
				"x": -3.4034785304,
				"y": 2.5644639353,
				"z": -2.3473433589,
				"element": "C" 
			},
			{
				"x": -4.3889713612,
				"y": 4.2594385708,
				"z": -3.1628896841,
				"element": "I" 
			},
			{
				"x": -2.0329745266,
				"y": 2.6211659243,
				"z": -2.1065570468,
				"element": "C" 
			},
			{
				"x": 2.181779937,
				"y": 0.8456921647,
				"z": 2.1232722571,
				"element": "H" 
			},
			{
				"x": 2.1167798428,
				"y": -0.6956308595,
				"z": 1.241172691,
				"element": "H" 
			},
			{
				"x": 3.6243106165,
				"y": 0.2380780262,
				"z": 1.3132217873,
				"element": "H" 
			},
			{
				"x": 2.3032778508,
				"y": 3.0414020772,
				"z": 0.8342425521,
				"element": "H" 
			},
			{
				"x": 3.8261615236,
				"y": 2.4714223933,
				"z": 0.1458445572,
				"element": "H" 
			},
			{
				"x": 2.5285113123,
				"y": 3.0284233986,
				"z": -0.9312138056,
				"element": "H" 
			},
			{
				"x": 2.3805746071,
				"y": -0.7404907903,
				"z": -1.2824321283,
				"element": "H" 
			},
			{
				"x": 2.6462087169,
				"y": 0.7629511633,
				"z": -2.1929388722,
				"element": "H" 
			},
			{
				"x": 3.8896178458,
				"y": 0.1678986322,
				"z": -1.0769634116,
				"element": "H" 
			},
			{
				"x": -0.1295065584,
				"y": 1.9975667269,
				"z": 1.4023365009,
				"element": "H" 
			},
			{
				"x": -0.8367261197,
				"y": -1.7247824695,
				"z": 3.5177327265,
				"element": "H" 
			},
			{
				"x": -2.0878306053,
				"y": -1.4447624333,
				"z": 5.6598474823,
				"element": "H" 
			},
			{
				"x": -3.3264904717,
				"y": 0.6656266389,
				"z": 6.0974586922,
				"element": "H" 
			},
			{
				"x": -3.3251681165,
				"y": 2.4778296436,
				"z": 4.3981947954,
				"element": "H" 
			},
			{
				"x": -2.0915984485,
				"y": 2.1944882015,
				"z": 2.2827782254,
				"element": "H" 
			},
			{
				"x": -1.6021728019,
				"y": -0.5245624618,
				"z": -0.8643415398,
				"element": "H" 
			},
			{
				"x": -4.0360914153,
				"y": -0.6103501514,
				"z": -1.3425879666,
				"element": "H" 
			},
			{
				"x": -5.202270995,
				"y": 1.3695654908,
				"z": -2.2721728674,
				"element": "H" 
			},
			{
				"x": -1.4525520008,
				"y": 3.5014384394,
				"z": -2.3563416681,
				"element": "H" 
			}
		],
		 "valence_orbital": [ 
			{
				"type": "occ",
				"energy": -0.26755,
				"method": "rhf"
			},
			{
				"type": "occ",
				"energy": -0.26274,
				"method": "rhf"
			},
			{
				"type": "occ",
				"energy": -0.26149,
				"method": "rhf"
			},
			{
				"type": "occ",
				"energy": -0.24786,
				"method": "rhf"
			},
			{
				"type": "occ",
				"energy": -0.23997,
				"method": "rhf"
			},
			{
				"type": "unocc",
				"energy": -0.05208,
				"method": "rhf"
			},
			{
				"type": "unocc",
				"energy": -0.04033,
				"method": "rhf"
			},
			{
				"type": "unocc",
				"energy": -0.03741,
				"method": "rhf"
			},
			{
				"type": "unocc",
				"energy": -0.02047,
				"method": "rhf"
			},
			{
				"type": "unocc",
				"energy": -0.01742,
				"method": "rhf"
			}
		],
		"cosmo_sigma_profile": { 
			"0.0": 0.0,
			"0.0": 0.0,
			"0.0": 0.0,
			"0.0": 0.0,
			"0.0": 0.0,
			"0.0": 0.0,
			"0.0": 0.0,
			"0.0": 0.0,
			"0.0": 0.0,
			"0.0": 0.0,
			"0.0": 0.0,
			"0.0": 0.0,
			"0.0": 0.0,
			"0.0": 0.0,
			"0.0": 0.0,
			"0.0": 0.0,
			"0.0": 0.0,
			"0.0": 0.0,
			"0.0": 0.0,
			"0.0": 0.0,
			"0.0": 0.0,
			"0.0": 0.0,
			"0.0": 0.0,
			"0.0": 0.0,
			"0.0": 0.0,
			"0.0": 0.0,
			"0.0": 0.0,
			"0.0": 0.0,
			"0.0": 0.0,
			"0.0": 0.0,
			"0.0": 0.0,
			"0.0": 0.0,
			"0.0": 0.0,
			"0.0": 0.0,
			"0.0": 0.0,
			"0.0": 0.0,
			"0.0": 0.0,
			"0.0": 0.0,
			"0.0": 0.0,
			"0.0": 0.0,
			"0.0": 0.0,
			"0.0": 0.0,
			"0.0": 0.0,
			"0.0": 0.0,
			"0.0": 0.0,
			"0.0": 0.0,
			"0.0": 0.0,
			"0.0": 0.0,
			"0.0": 0.0,
			"0.0": 0.0,
			"0.0": 0.0
		}
	}
}
