{
	 "smiles": "CCOC(=O)C1=CN=C(C=C1)N1CCNCC1", 
	 "Tm": 323.15, 
	 "num_atms": 34, 
	 "gaussian": { 
		 "optdone": 1, 
		 "sigma_profile": "yes", 
		 "theory": "DFT", 
		 "functional": "B3LYP", 
		 "basiset": "6-31G**", 
		 "properties": { 
			 "R2extent": 6862.1811, 
			 "electric_dipole_moment_norm": 1.83338473049, 
			 "electric_quadrupole_moment_norm": 12.5906479531, 
			 "total_energy": -782.231239386, 
			 "HOMO_LUMO_gap": 0.17506, 
			 "cosmo_polarized_energy": -13.33, 
			 "cosmo_cavitation_energy": 36.05, 
			 "cosmo_dispersion_energy": -26.64, 
			 "cosmo_repulsion_energy": 2.08, 
			 "cosmo_total_nonelectrostatic_energy": 11.49, 
			 "SMD_solvation_energy": 2.74 
		},
		"coords": [
			{
				"x": -2.861438385,
				"y": -5.0692368074,
				"z": 3.202780411,
				"element": "C" 
			},
			{
				"x": -1.7006021035,
				"y": -5.1667727605,
				"z": 2.2235453014,
				"element": "C" 
			},
			{
				"x": -1.2378277418,
				"y": -3.8583652554,
				"z": 1.8215868075,
				"element": "O" 
			},
			{
				"x": -1.8958953911,
				"y": -3.2766248191,
				"z": 0.78676172,
				"element": "C" 
			},
			{
				"x": -2.8254986102,
				"y": -3.805039619,
				"z": 0.2010968969,
				"element": "O" 
			},
			{
				"x": -1.3536795675,
				"y": -1.944099483,
				"z": 0.4542110012,
				"element": "C" 
			},
			{
				"x": -0.2885145947,
				"y": -1.3442336066,
				"z": 1.1333514456,
				"element": "C" 
			},
			{
				"x": 0.2017647249,
				"y": -0.1406492244,
				"z": 0.8426186657,
				"element": "N" 
			},
			{
				"x": -0.3453632046,
				"y": 0.558064415,
				"z": -0.1779629444,
				"element": "C" 
			},
			{
				"x": -1.4360690844,
				"y": 0.0354841423,
				"z": -0.9271561538,
				"element": "C" 
			},
			{
				"x": -1.9262527943,
				"y": -1.211034037,
				"z": -0.6009123383,
				"element": "C" 
			},
			{
				"x": 0.2347692217,
				"y": 1.7756002756,
				"z": -0.4343947289,
				"element": "N" 
			},
			{
				"x": -0.2961713468,
				"y": 2.7641083743,
				"z": -1.3634731092,
				"element": "C" 
			},
			{
				"x": 0.8242637768,
				"y": 3.3043335829,
				"z": -2.2871355872,
				"element": "C" 
			},
			{
				"x": 2.1285977321,
				"y": 3.4176455116,
				"z": -1.6168858945,
				"element": "N" 
			},
			{
				"x": 1.9734597105,
				"y": 3.5064372539,
				"z": -0.1663401368,
				"element": "C" 
			},
			{
				"x": 1.3182141908,
				"y": 2.2510639783,
				"z": 0.4409404658,
				"element": "C" 
			},
			{
				"x": -3.7313632367,
				"y": -4.6177202681,
				"z": 2.719899119,
				"element": "H" 
			},
			{
				"x": -2.5868277164,
				"y": -4.4672845581,
				"z": 4.0741596402,
				"element": "H" 
			},
			{
				"x": -3.1412124291,
				"y": -6.0696731604,
				"z": 3.5499767169,
				"element": "H" 
			},
			{
				"x": -1.9862790977,
				"y": -5.7300045482,
				"z": 1.3319574391,
				"element": "H" 
			},
			{
				"x": -0.8271901138,
				"y": -5.6348139717,
				"z": 2.6847410802,
				"element": "H" 
			},
			{
				"x": 0.1876110917,
				"y": -1.866042448,
				"z": 1.9596869492,
				"element": "H" 
			},
			{
				"x": -1.8857905493,
				"y": 0.5881064102,
				"z": -1.7420615483,
				"element": "H" 
			},
			{
				"x": -2.7563015933,
				"y": -1.6462067284,
				"z": -1.1482634011,
				"element": "H" 
			},
			{
				"x": -0.7516572579,
				"y": 3.5925436172,
				"z": -0.8004508222,
				"element": "H" 
			},
			{
				"x": -1.0905437306,
				"y": 2.3325412292,
				"z": -1.9697269195,
				"element": "H" 
			},
			{
				"x": 0.5107619398,
				"y": 4.2880398113,
				"z": -2.6644133329,
				"element": "H" 
			},
			{
				"x": 0.9377675205,
				"y": 2.6502961771,
				"z": -3.1576224787,
				"element": "H" 
			},
			{
				"x": 2.6830032373,
				"y": 2.5931020139,
				"z": -1.8305458366,
				"element": "H" 
			},
			{
				"x": 2.9533995245,
				"y": 3.6558218979,
				"z": 0.2982179849,
				"element": "H" 
			},
			{
				"x": 1.3857788286,
				"y": 4.4044727967,
				"z": 0.0595502821,
				"element": "H" 
			},
			{
				"x": 0.943407036,
				"y": 2.4488726026,
				"z": 1.4562733358,
				"element": "H" 
			},
			{
				"x": 2.0545800134,
				"y": 1.4483672051,
				"z": 0.5373899701,
				"element": "H" 
			}
		],
		 "valence_orbital": [ 
			{
				"type": "occ",
				"energy": -0.27962,
				"method": "rhf"
			},
			{
				"type": "occ",
				"energy": -0.26883,
				"method": "rhf"
			},
			{
				"type": "occ",
				"energy": -0.25059,
				"method": "rhf"
			},
			{
				"type": "occ",
				"energy": -0.22843,
				"method": "rhf"
			},
			{
				"type": "occ",
				"energy": -0.2048,
				"method": "rhf"
			},
			{
				"type": "unocc",
				"energy": -0.02974,
				"method": "rhf"
			},
			{
				"type": "unocc",
				"energy": -0.01473,
				"method": "rhf"
			},
			{
				"type": "unocc",
				"energy": 0.06454,
				"method": "rhf"
			},
			{
				"type": "unocc",
				"energy": 0.06927,
				"method": "rhf"
			},
			{
				"type": "unocc",
				"energy": 0.09788,
				"method": "rhf"
			}
		],
		"cosmo_sigma_profile": { 
			"-0.025": 0.0,
			"-0.024": 0.0,
			"-0.023": 0.0,
			"-0.022": 0.0,
			"-0.021": 0.0,
			"-0.02": 0.0,
			"-0.019": 0.0,
			"-0.018": 0.0,
			"-0.017": 0.0,
			"-0.016": 0.0,
			"-0.015": 0.0,
			"-0.014": 0.0,
			"-0.013": 0.0,
			"-0.012": 0.0,
			"-0.011": 0.0245156698242,
			"-0.01": 1.21941174693,
			"-0.009": 2.44441396508,
			"-0.008": 2.98574388754,
			"-0.007": 3.73595397308,
			"-0.006": 6.8550329483,
			"-0.005": 17.1603591217,
			"-0.004": 31.6263590775,
			"-0.003": 34.8399091828,
			"-0.002": 28.9692728832,
			"-0.001": 23.9810703377,
			"0.0": 22.6336288565,
			"0.001": 21.0985917063,
			"0.002": 19.3224591252,
			"0.003": 15.6415914127,
			"0.004": 8.7328424634,
			"0.005": 6.23431223638,
			"0.006": 6.33957078526,
			"0.007": 3.98432418512,
			"0.008": 3.7678124281,
			"0.009": 4.06105851195,
			"0.01": 2.75808532088,
			"0.011": 3.65387808707,
			"0.012": 5.64856681833,
			"0.013": 2.99808386386,
			"0.014": 0.577869013796,
			"0.015": 0.229804900442,
			"0.016": 0.896744733531,
			"0.017": 0.640758409813,
			"0.018": 0.364903252945,
			"0.019": 0.117058579712,
			"0.02": 0.0,
			"0.021": 0.0,
			"0.022": 0.0,
			"0.023": 0.0,
			"0.024": 0.0,
			"0.025": 0.0
		}
	}
}
