{
	 "smiles": "CC(C)OC1=C(F)C=C(N)C=C1F", 
	 "Tm": 334.15, 
	 "num_atms": 24, 
	 "gaussian": { 
		 "optdone": 1, 
		 "sigma_profile": "yes", 
		 "theory": "DFT", 
		 "functional": "B3LYP", 
		 "basiset": "6-31G**", 
		 "properties": { 
			 "R2extent": 2735.1113, 
			 "electric_dipole_moment_norm": 3.45021247317, 
			 "electric_quadrupole_moment_norm": 15.3874607632, 
			 "total_energy": -679.226138178, 
			 "HOMO_LUMO_gap": 0.20776, 
			 "cosmo_polarized_energy": -10.5, 
			 "cosmo_cavitation_energy": 28.24, 
			 "cosmo_dispersion_energy": -19.89, 
			 "cosmo_repulsion_energy": 1.55, 
			 "cosmo_total_nonelectrostatic_energy": 9.9, 
			 "SMD_solvation_energy": 5.96 
		},
		"coords": [
			{
				"x": 2.2244723089,
				"y": -0.4014026739,
				"z": 1.2480463347,
				"element": "C" 
			},
			{
				"x": 0.8581724607,
				"y": -0.4646857624,
				"z": 1.9256751961,
				"element": "C" 
			},
			{
				"x": 0.9367306678,
				"y": -0.3554998822,
				"z": 3.4417087758,
				"element": "C" 
			},
			{
				"x": 0.0274014604,
				"y": 0.6474084217,
				"z": 1.4981856812,
				"element": "O" 
			},
			{
				"x": -0.47380337,
				"y": 0.5805285137,
				"z": 0.2283756253,
				"element": "C" 
			},
			{
				"x": -1.5337777461,
				"y": -0.2631734475,
				"z": -0.1232307805,
				"element": "C" 
			},
			{
				"x": -2.0125012999,
				"y": -1.1010223348,
				"z": 0.8208334067,
				"element": "F" 
			},
			{
				"x": -2.1021701598,
				"y": -0.2863207057,
				"z": -1.3878600938,
				"element": "C" 
			},
			{
				"x": -1.6127951494,
				"y": 0.5810955814,
				"z": -2.3798741727,
				"element": "C" 
			},
			{
				"x": -2.2115201435,
				"y": 0.6258081323,
				"z": -3.6383480492,
				"element": "N" 
			},
			{
				"x": -0.5479792083,
				"y": 1.4417210594,
				"z": -2.0650192207,
				"element": "C" 
			},
			{
				"x": -0.0044225265,
				"y": 1.4192802697,
				"z": -0.7879654038,
				"element": "C" 
			},
			{
				"x": 1.0272190583,
				"y": 2.2375646229,
				"z": -0.5078498023,
				"element": "F" 
			},
			{
				"x": 2.7305214107,
				"y": 0.5354404816,
				"z": 1.5002068514,
				"element": "H" 
			},
			{
				"x": 2.8516985509,
				"y": -1.2380171475,
				"z": 1.5737630746,
				"element": "H" 
			},
			{
				"x": 2.1284481071,
				"y": -0.456713169,
				"z": 0.1596912464,
				"element": "H" 
			},
			{
				"x": 0.3484875439,
				"y": -1.3976158225,
				"z": 1.6519545214,
				"element": "H" 
			},
			{
				"x": 1.530767154,
				"y": -1.1768383904,
				"z": 3.8542396983,
				"element": "H" 
			},
			{
				"x": -0.0643718041,
				"y": -0.3924990752,
				"z": 3.8791867888,
				"element": "H" 
			},
			{
				"x": 1.4051988303,
				"y": 0.5907061681,
				"z": 3.7308134748,
				"element": "H" 
			},
			{
				"x": -2.9257195534,
				"y": -0.9649966464,
				"z": -1.5830345807,
				"element": "H" 
			},
			{
				"x": -2.7023781617,
				"y": -0.2134712452,
				"z": -3.9130372828,
				"element": "H" 
			},
			{
				"x": -1.6279669566,
				"y": 0.9840825387,
				"z": -4.381292332,
				"element": "H" 
			},
			{
				"x": -0.1381114738,
				"y": 2.1279205133,
				"z": -2.7985689569,
				"element": "H" 
			}
		],
		 "valence_orbital": [ 
			{
				"type": "occ",
				"energy": -0.32969,
				"method": "rhf"
			},
			{
				"type": "occ",
				"energy": -0.29198,
				"method": "rhf"
			},
			{
				"type": "occ",
				"energy": -0.26977,
				"method": "rhf"
			},
			{
				"type": "occ",
				"energy": -0.24213,
				"method": "rhf"
			},
			{
				"type": "occ",
				"energy": -0.20327,
				"method": "rhf"
			},
			{
				"type": "unocc",
				"energy": 0.00449,
				"method": "rhf"
			},
			{
				"type": "unocc",
				"energy": 0.01339,
				"method": "rhf"
			},
			{
				"type": "unocc",
				"energy": 0.06731,
				"method": "rhf"
			},
			{
				"type": "unocc",
				"energy": 0.07993,
				"method": "rhf"
			},
			{
				"type": "unocc",
				"energy": 0.10991,
				"method": "rhf"
			}
		],
		"cosmo_sigma_profile": { 
			"-0.025": 0.0,
			"-0.024": 0.0,
			"-0.023": 0.0,
			"-0.022": 0.0,
			"-0.021": 0.0,
			"-0.02": 0.0,
			"-0.019": 0.0,
			"-0.018": 0.0,
			"-0.017": 0.0,
			"-0.016": 0.0,
			"-0.015": 0.0,
			"-0.014": 0.00671644044566,
			"-0.013": 1.56746964859,
			"-0.012": 3.00654951768,
			"-0.011": 3.20070325875,
			"-0.01": 2.32904349649,
			"-0.009": 3.5628843203,
			"-0.008": 4.14095428253,
			"-0.007": 5.47042658974,
			"-0.006": 3.25791842553,
			"-0.005": 3.32716019007,
			"-0.004": 12.3371306848,
			"-0.003": 18.5853825739,
			"-0.002": 17.5671379346,
			"-0.001": 17.1996992225,
			"0.0": 20.6782661543,
			"0.001": 20.7923440187,
			"0.002": 16.9035157301,
			"0.003": 16.2277815803,
			"0.004": 24.0447733078,
			"0.005": 9.96284696505,
			"0.006": 3.51083876348,
			"0.007": 3.60484023302,
			"0.008": 2.96651512109,
			"0.009": 2.61961252049,
			"0.01": 1.4456273058,
			"0.011": 2.09218707939,
			"0.012": 1.43890034224,
			"0.013": 0.646126210506,
			"0.014": 0.322280796755,
			"0.015": 0.0,
			"0.016": 0.0,
			"0.017": 0.0,
			"0.018": 0.0,
			"0.019": 0.0,
			"0.02": 0.0,
			"0.021": 0.0,
			"0.022": 0.0,
			"0.023": 0.0,
			"0.024": 0.0,
			"0.025": 0.0
		}
	}
}
