{
	 "smiles": "OC(=O)[C@@H]1CCC[C@H]1C(O)=O", 
	 "Tm": 433.15, 
	 "num_atms": 21, 
	 "gaussian": { 
		 "optdone": 1, 
		 "sigma_profile": "yes", 
		 "theory": "DFT", 
		 "functional": "B3LYP", 
		 "basiset": "6-31G**", 
		 "properties": { 
			 "R2extent": 2601.4809, 
			 "electric_dipole_moment_norm": 3.41564204506, 
			 "electric_quadrupole_moment_norm": 26.5441637819, 
			 "total_energy": -573.700545652, 
			 "HOMO_LUMO_gap": 0.24698, 
			 "cosmo_polarized_energy": -16.48, 
			 "cosmo_cavitation_energy": 23.53, 
			 "cosmo_dispersion_energy": -17.5, 
			 "cosmo_repulsion_energy": 1.42, 
			 "cosmo_total_nonelectrostatic_energy": 7.44, 
			 "SMD_solvation_energy": 5.79 
		},
		"coords": [
			{
				"x": -0.2360106457,
				"y": -3.8092561614,
				"z": -1.671590002,
				"element": "O" 
			},
			{
				"x": -0.565381216,
				"y": -3.4192708008,
				"z": -0.4191702318,
				"element": "C" 
			},
			{
				"x": -1.4058720997,
				"y": -4.0153211727,
				"z": 0.2104398459,
				"element": "O" 
			},
			{
				"x": 0.1943298956,
				"y": -2.2023854227,
				"z": 0.1126497333,
				"element": "C" 
			},
			{
				"x": -0.2038815921,
				"y": -1.798047912,
				"z": 1.5426698013,
				"element": "C" 
			},
			{
				"x": 0.1191327106,
				"y": -0.2999938688,
				"z": 1.6126523444,
				"element": "C" 
			},
			{
				"x": -0.3527779368,
				"y": 0.2310628268,
				"z": 0.2481777588,
				"element": "C" 
			},
			{
				"x": -0.0274350839,
				"y": -0.897972567,
				"z": -0.7585868756,
				"element": "C" 
			},
			{
				"x": 1.1886421561,
				"y": -0.5972262026,
				"z": -1.6104108667,
				"element": "C" 
			},
			{
				"x": 1.4548694721,
				"y": -1.6393840363,
				"z": -2.4630119385,
				"element": "O" 
			},
			{
				"x": 1.8793771068,
				"y": 0.3920706585,
				"z": -1.5949523063,
				"element": "O" 
			},
			{
				"x": 0.4402080741,
				"y": -3.2191136675,
				"z": -2.0503792772,
				"element": "H" 
			},
			{
				"x": 1.2614348767,
				"y": -2.4608510217,
				"z": 0.0913174599,
				"element": "H" 
			},
			{
				"x": 0.3166099358,
				"y": -2.3972815884,
				"z": 2.2948139147,
				"element": "H" 
			},
			{
				"x": -1.2759746205,
				"y": -1.9755174706,
				"z": 1.6744276224,
				"element": "H" 
			},
			{
				"x": 1.2004949651,
				"y": -0.1470655433,
				"z": 1.7192282472,
				"element": "H" 
			},
			{
				"x": -0.3665415734,
				"y": 0.2038285294,
				"z": 2.4534420173,
				"element": "H" 
			},
			{
				"x": 0.1238293099,
				"y": 1.1700354413,
				"z": -0.040838142,
				"element": "H" 
			},
			{
				"x": -1.4354449961,
				"y": 0.3925159679,
				"z": 0.2657847161,
				"element": "H" 
			},
			{
				"x": -0.8563746022,
				"y": -1.0574062609,
				"z": -1.4583501537,
				"element": "H" 
			},
			{
				"x": 2.2483658638,
				"y": -1.4027197271,
				"z": -2.9719136675,
				"element": "H" 
			}
		],
		 "valence_orbital": [ 
			{
				"type": "occ",
				"energy": -0.3429,
				"method": "rhf"
			},
			{
				"type": "occ",
				"energy": -0.33739,
				"method": "rhf"
			},
			{
				"type": "occ",
				"energy": -0.30845,
				"method": "rhf"
			},
			{
				"type": "occ",
				"energy": -0.30092,
				"method": "rhf"
			},
			{
				"type": "occ",
				"energy": -0.26539,
				"method": "rhf"
			},
			{
				"type": "unocc",
				"energy": -0.01841,
				"method": "rhf"
			},
			{
				"type": "unocc",
				"energy": 0.0115,
				"method": "rhf"
			},
			{
				"type": "unocc",
				"energy": 0.04531,
				"method": "rhf"
			},
			{
				"type": "unocc",
				"energy": 0.07794,
				"method": "rhf"
			},
			{
				"type": "unocc",
				"energy": 0.08384,
				"method": "rhf"
			}
		],
		"cosmo_sigma_profile": { 
			"-0.025": 0.0,
			"-0.024": 0.0,
			"-0.023": 0.0,
			"-0.022": 0.0,
			"-0.021": 0.0,
			"-0.02": 0.0,
			"-0.019": 0.667814348063,
			"-0.018": 0.952323759049,
			"-0.017": 0.711490316171,
			"-0.016": 1.02921858291,
			"-0.015": 0.909214521253,
			"-0.014": 1.15135001888,
			"-0.013": 0.343100545675,
			"-0.012": 0.340171148535,
			"-0.011": 0.938204039046,
			"-0.01": 0.477155007998,
			"-0.009": 1.31501382776,
			"-0.008": 5.17406237274,
			"-0.007": 10.2802066646,
			"-0.006": 8.01617228544,
			"-0.005": 7.70887953037,
			"-0.004": 13.7339525276,
			"-0.003": 18.3614777367,
			"-0.002": 16.4384378683,
			"-0.001": 14.6579159409,
			"0.0": 15.7365409664,
			"0.001": 7.24351291685,
			"0.002": 3.9290996764,
			"0.003": 4.11940721837,
			"0.004": 3.8584833139,
			"0.005": 3.114783195,
			"0.006": 3.28084276781,
			"0.007": 4.28885512389,
			"0.008": 3.61160086965,
			"0.009": 5.75604755335,
			"0.01": 6.51889456913,
			"0.011": 10.5729304704,
			"0.012": 6.37541655739,
			"0.013": 2.25439210026,
			"0.014": 0.246928933174,
			"0.015": 0.0,
			"0.016": 0.0,
			"0.017": 0.0,
			"0.018": 0.0,
			"0.019": 0.0,
			"0.02": 0.0,
			"0.021": 0.0,
			"0.022": 0.0,
			"0.023": 0.0,
			"0.024": 0.0,
			"0.025": 0.0
		}
	}
}
