{
	 "smiles": "NNC(=O)C1=CSC(=N1)N1CCOCC1", 
	 "Tm": 442.15, 
	 "num_atms": 27, 
	 "gaussian": { 
		 "optdone": 1, 
		 "sigma_profile": "yes", 
		 "theory": "DFT", 
		 "functional": "B3LYP", 
		 "basiset": "6-31G**", 
		 "properties": { 
			 "R2extent": 4670.3454, 
			 "electric_dipole_moment_norm": 4.66431463561, 
			 "electric_quadrupole_moment_norm": 19.7947046149, 
			 "total_energy": -1079.66933059, 
			 "HOMO_LUMO_gap": 0.18085, 
			 "cosmo_polarized_energy": -16.9, 
			 "cosmo_cavitation_energy": 31.43, 
			 "cosmo_dispersion_energy": -23.65, 
			 "cosmo_repulsion_energy": 1.82, 
			 "cosmo_total_nonelectrostatic_energy": 9.6, 
			 "SMD_solvation_energy": 5.06 
		},
		"coords": [
			{
				"x": 2.488383642,
				"y": -2.4142736359,
				"z": 1.8302740669,
				"element": "N" 
			},
			{
				"x": 3.349523456,
				"y": -1.4092511022,
				"z": 2.3190406431,
				"element": "N" 
			},
			{
				"x": 3.3209648786,
				"y": -0.0541490037,
				"z": 2.1171113949,
				"element": "C" 
			},
			{
				"x": 4.2581571126,
				"y": 0.648540014,
				"z": 2.4911510596,
				"element": "O" 
			},
			{
				"x": 2.1205150266,
				"y": 0.5682006785,
				"z": 1.4706758801,
				"element": "C" 
			},
			{
				"x": 2.1596943646,
				"y": 1.885648944,
				"z": 1.1186849627,
				"element": "C" 
			},
			{
				"x": 0.6348844237,
				"y": 2.3759741371,
				"z": 0.4447317753,
				"element": "S" 
			},
			{
				"x": 0.0377306547,
				"y": 0.7196681794,
				"z": 0.7177740098,
				"element": "C" 
			},
			{
				"x": 0.9212760346,
				"y": -0.0906585656,
				"z": 1.2444615279,
				"element": "N" 
			},
			{
				"x": -1.2319297614,
				"y": 0.3689813424,
				"z": 0.3793550022,
				"element": "N" 
			},
			{
				"x": -2.193413488,
				"y": 1.3367555642,
				"z": -0.143458332,
				"element": "C" 
			},
			{
				"x": -3.6054501184,
				"y": 0.7804006848,
				"z": 0.0282877671,
				"element": "C" 
			},
			{
				"x": -3.7964697828,
				"y": -0.4623599116,
				"z": -0.6317623953,
				"element": "O" 
			},
			{
				"x": -2.6683134227,
				"y": -1.3377359452,
				"z": -0.610274024,
				"element": "C" 
			},
			{
				"x": -1.6717284572,
				"y": -1.0221238615,
				"z": 0.5019992796,
				"element": "C" 
			},
			{
				"x": 2.5522025426,
				"y": -2.431954977,
				"z": 0.8123015869,
				"element": "H" 
			},
			{
				"x": 1.5356121057,
				"y": -2.1264806008,
				"z": 2.0381885817,
				"element": "H" 
			},
			{
				"x": 4.1803571677,
				"y": -1.7419337843,
				"z": 2.7899907267,
				"element": "H" 
			},
			{
				"x": 2.9844665418,
				"y": 2.5694714302,
				"z": 1.2460482023,
				"element": "H" 
			},
			{
				"x": -1.9990039164,
				"y": 1.5567401306,
				"z": -1.2040413691,
				"element": "H" 
			},
			{
				"x": -2.1125418686,
				"y": 2.2798849841,
				"z": 0.4123029455,
				"element": "H" 
			},
			{
				"x": -4.3299187173,
				"y": 1.4783480106,
				"z": -0.4014720802,
				"element": "H" 
			},
			{
				"x": -3.8265663147,
				"y": 0.6879002152,
				"z": 1.1030108275,
				"element": "H" 
			},
			{
				"x": -3.0486779231,
				"y": -2.3574452271,
				"z": -0.4844869237,
				"element": "H" 
			},
			{
				"x": -2.1507726138,
				"y": -1.2884863342,
				"z": -1.5798223315,
				"element": "H" 
			},
			{
				"x": -2.1173536139,
				"y": -1.2068756961,
				"z": 1.4894987117,
				"element": "H" 
			},
			{
				"x": -0.7982279529,
				"y": -1.6714856699,
				"z": 0.4119285044,
				"element": "H" 
			}
		],
		 "valence_orbital": [ 
			{
				"type": "occ",
				"energy": -0.27177,
				"method": "rhf"
			},
			{
				"type": "occ",
				"energy": -0.26745,
				"method": "rhf"
			},
			{
				"type": "occ",
				"energy": -0.24822,
				"method": "rhf"
			},
			{
				"type": "occ",
				"energy": -0.23335,
				"method": "rhf"
			},
			{
				"type": "occ",
				"energy": -0.21023,
				"method": "rhf"
			},
			{
				"type": "unocc",
				"energy": -0.02938,
				"method": "rhf"
			},
			{
				"type": "unocc",
				"energy": 0.00761,
				"method": "rhf"
			},
			{
				"type": "unocc",
				"energy": 0.01621,
				"method": "rhf"
			},
			{
				"type": "unocc",
				"energy": 0.06202,
				"method": "rhf"
			},
			{
				"type": "unocc",
				"energy": 0.07629,
				"method": "rhf"
			}
		],
		"cosmo_sigma_profile": { 
			"-0.025": 0.0,
			"-0.024": 0.0,
			"-0.023": 0.0,
			"-0.022": 0.0,
			"-0.021": 0.0,
			"-0.02": 0.0,
			"-0.019": 0.0,
			"-0.018": 0.0,
			"-0.017": 0.0,
			"-0.016": 0.0,
			"-0.015": 0.0,
			"-0.014": 0.108582021257,
			"-0.013": 1.05982751493,
			"-0.012": 0.589938655105,
			"-0.011": 2.1741431364,
			"-0.01": 1.52960613331,
			"-0.009": 2.66292629583,
			"-0.008": 2.85689603946,
			"-0.007": 4.47000831111,
			"-0.006": 15.4611920716,
			"-0.005": 28.4486379189,
			"-0.004": 26.8248464054,
			"-0.003": 18.984394275,
			"-0.002": 15.5362040167,
			"-0.001": 11.5950354009,
			"0.0": 14.9247590469,
			"0.001": 17.9210074898,
			"0.002": 14.9466960887,
			"0.003": 13.9227204874,
			"0.004": 10.4749697494,
			"0.005": 6.00214261879,
			"0.006": 4.32539808118,
			"0.007": 2.94550784942,
			"0.008": 4.33404101064,
			"0.009": 3.2495078867,
			"0.01": 3.36887806275,
			"0.011": 3.70092816228,
			"0.012": 3.49309582362,
			"0.013": 5.54745819638,
			"0.014": 6.43504175561,
			"0.015": 1.10298723877,
			"0.016": 0.536565827688,
			"0.017": 0.236538413914,
			"0.018": 0.0,
			"0.019": 0.0,
			"0.02": 0.0,
			"0.021": 0.0,
			"0.022": 0.0,
			"0.023": 0.0,
			"0.024": 0.0,
			"0.025": 0.0
		}
	}
}
