{
	 "smiles": "NNC(=O)C1=C(Cl)C=C(Cl)C=C1", 
	 "Tm": 442.15, 
	 "num_atms": 18, 
	 "gaussian": { 
		 "optdone": 1, 
		 "sigma_profile": "yes", 
		 "theory": "DFT", 
		 "functional": "B3LYP", 
		 "basiset": "6-31G**", 
		 "properties": { 
			 "R2extent": 3612.8096, 
			 "electric_dipole_moment_norm": 2.67261011934, 
			 "electric_quadrupole_moment_norm": 9.9652667014, 
			 "total_energy": -1375.44369653, 
			 "HOMO_LUMO_gap": 0.20247, 
			 "cosmo_polarized_energy": -12.88, 
			 "cosmo_cavitation_energy": 26.15, 
			 "cosmo_dispersion_energy": -19.21, 
			 "cosmo_repulsion_energy": 1.56, 
			 "cosmo_total_nonelectrostatic_energy": 8.5, 
			 "SMD_solvation_energy": 5.06 
		},
		"coords": [
			{
				"x": 1.6156049239,
				"y": -3.032893718,
				"z": -1.7450426852,
				"element": "N" 
			},
			{
				"x": 1.5804161576,
				"y": -1.931726026,
				"z": -2.6145660212,
				"element": "N" 
			},
			{
				"x": 1.2164311034,
				"y": -0.6449565802,
				"z": -2.3240318094,
				"element": "C" 
			},
			{
				"x": 0.9813074105,
				"y": 0.171140291,
				"z": -3.2053538799,
				"element": "O" 
			},
			{
				"x": 1.044086801,
				"y": -0.271522972,
				"z": -0.8674088144,
				"element": "C" 
			},
			{
				"x": 2.047521562,
				"y": -0.2966622202,
				"z": 0.1102468669,
				"element": "C" 
			},
			{
				"x": 3.6753654464,
				"y": -0.8484979975,
				"z": -0.2715756156,
				"element": "Cl" 
			},
			{
				"x": 1.8177295274,
				"y": 0.150438358,
				"z": 1.4119065324,
				"element": "C" 
			},
			{
				"x": 0.5536042962,
				"y": 0.6340340158,
				"z": 1.7412953949,
				"element": "C" 
			},
			{
				"x": 0.2522898988,
				"y": 1.1841319128,
				"z": 3.3772409365,
				"element": "Cl" 
			},
			{
				"x": -0.4655131376,
				"y": 0.6981837439,
				"z": 0.7909028744,
				"element": "C" 
			},
			{
				"x": -0.2022391328,
				"y": 0.2601998274,
				"z": -0.5026365076,
				"element": "C" 
			},
			{
				"x": 0.779346676,
				"y": -3.0539489379,
				"z": -1.1675086889,
				"element": "H" 
			},
			{
				"x": 2.4319664214,
				"y": -2.9677574417,
				"z": -1.1424596481,
				"element": "H" 
			},
			{
				"x": 1.6057222817,
				"y": -2.1563598648,
				"z": -3.6012101568,
				"element": "H" 
			},
			{
				"x": 2.6123544024,
				"y": 0.129127793,
				"z": 2.1473440393,
				"element": "H" 
			},
			{
				"x": -1.4385555191,
				"y": 1.0938319092,
				"z": 1.0578995031,
				"element": "H" 
			},
			{
				"x": -0.9710391191,
				"y": 0.3323379072,
				"z": -1.2650423206,
				"element": "H" 
			}
		],
		 "valence_orbital": [ 
			{
				"type": "occ",
				"energy": -0.29641,
				"method": "rhf"
			},
			{
				"type": "occ",
				"energy": -0.28003,
				"method": "rhf"
			},
			{
				"type": "occ",
				"energy": -0.27189,
				"method": "rhf"
			},
			{
				"type": "occ",
				"energy": -0.26334,
				"method": "rhf"
			},
			{
				"type": "occ",
				"energy": -0.25103,
				"method": "rhf"
			},
			{
				"type": "unocc",
				"energy": -0.04856,
				"method": "rhf"
			},
			{
				"type": "unocc",
				"energy": -0.03771,
				"method": "rhf"
			},
			{
				"type": "unocc",
				"energy": -0.00662,
				"method": "rhf"
			},
			{
				"type": "unocc",
				"energy": 0.02036,
				"method": "rhf"
			},
			{
				"type": "unocc",
				"energy": 0.03695,
				"method": "rhf"
			}
		],
		"cosmo_sigma_profile": { 
			"-0.025": 0.0,
			"-0.024": 0.0,
			"-0.023": 0.0,
			"-0.022": 0.0,
			"-0.021": 0.0,
			"-0.02": 0.0,
			"-0.019": 0.0,
			"-0.018": 0.0,
			"-0.017": 0.0,
			"-0.016": 0.0,
			"-0.015": 0.0325576850921,
			"-0.014": 0.675990483961,
			"-0.013": 0.908112699731,
			"-0.012": 2.19691934813,
			"-0.011": 2.06042647875,
			"-0.01": 2.74626223037,
			"-0.009": 4.09456462633,
			"-0.008": 7.20095570274,
			"-0.007": 9.44783439735,
			"-0.006": 8.53757745992,
			"-0.005": 8.3225141806,
			"-0.004": 8.30381665253,
			"-0.003": 9.16439513403,
			"-0.002": 13.0508590418,
			"-0.001": 16.4219971947,
			"0.0": 21.3211524064,
			"0.001": 23.2040168488,
			"0.002": 16.1373013777,
			"0.003": 17.4720888663,
			"0.004": 14.4189505112,
			"0.005": 2.69478380906,
			"0.006": 1.46547778354,
			"0.007": 2.45561245627,
			"0.008": 1.93708147157,
			"0.009": 2.02040283092,
			"0.01": 1.93640515696,
			"0.011": 2.0014312582,
			"0.012": 3.86080495643,
			"0.013": 6.37159064344,
			"0.014": 2.15701946388,
			"0.015": 0.520163440284,
			"0.016": 0.233286670976,
			"0.017": 0.0,
			"0.018": 0.0,
			"0.019": 0.0,
			"0.02": 0.0,
			"0.021": 0.0,
			"0.022": 0.0,
			"0.023": 0.0,
			"0.024": 0.0,
			"0.025": 0.0
		}
	}
}
