{
	 "smiles": "CC1=C(C=CC(=C1)[N+]([O-])=O)S(Cl)(=O)=O", 
	 "Tm": 343.15, 
	 "num_atms": 20, 
	 "gaussian": { 
		 "optdone": 1, 
		 "sigma_profile": "yes", 
		 "theory": "DFT", 
		 "functional": "B3LYP", 
		 "basiset": "6-31G**", 
		 "properties": { 
			 "R2extent": 4834.6999, 
			 "electric_dipole_moment_norm": 1.0444728096, 
			 "electric_quadrupole_moment_norm": 22.6079497591, 
			 "total_energy": -1484.21802547, 
			 "HOMO_LUMO_gap": 0.1765, 
			 "cosmo_polarized_energy": -10.97, 
			 "cosmo_cavitation_energy": 28.19, 
			 "cosmo_dispersion_energy": -21.14, 
			 "cosmo_repulsion_energy": 1.6, 
			 "cosmo_total_nonelectrostatic_energy": 8.64, 
			 "SMD_solvation_energy": 5.98 
		},
		"coords": [
			{
				"x": -1.094579432,
				"y": -1.8039788456,
				"z": -0.8011657789,
				"element": "C" 
			},
			{
				"x": -0.9493985634,
				"y": -0.4766836367,
				"z": -0.0988852197,
				"element": "C" 
			},
			{
				"x": -1.8947157361,
				"y": 0.5679842976,
				"z": -0.1607050244,
				"element": "C" 
			},
			{
				"x": -1.7292126786,
				"y": 1.7899900784,
				"z": 0.4975258963,
				"element": "C" 
			},
			{
				"x": -0.5885773591,
				"y": 2.0086299744,
				"z": 1.2629700019,
				"element": "C" 
			},
			{
				"x": 0.3505672063,
				"y": 0.9862173873,
				"z": 1.3337189982,
				"element": "C" 
			},
			{
				"x": 0.1902091363,
				"y": -0.2285824965,
				"z": 0.6756405464,
				"element": "C" 
			},
			{
				"x": 1.5727071744,
				"y": 1.197739344,
				"z": 2.1398250804,
				"element": "N" 
			},
			{
				"x": 1.6905249194,
				"y": 2.279396802,
				"z": 2.7097035897,
				"element": "O" 
			},
			{
				"x": 2.3870994081,
				"y": 0.2791646728,
				"z": 2.1855898349,
				"element": "O" 
			},
			{
				"x": -3.436008121,
				"y": 0.396769538,
				"z": -1.0788887449,
				"element": "S" 
			},
			{
				"x": -2.7401010163,
				"y": 0.5765109039,
				"z": -3.0861479946,
				"element": "Cl" 
			},
			{
				"x": -4.2658788099,
				"y": 1.5676361848,
				"z": -0.8298972426,
				"element": "O" 
			},
			{
				"x": -3.9582906849,
				"y": -0.9562113219,
				"z": -0.940438103,
				"element": "O" 
			},
			{
				"x": -1.2732911088,
				"y": -1.6750360234,
				"z": -1.87256004,
				"element": "H" 
			},
			{
				"x": -1.9419647738,
				"y": -2.3684491756,
				"z": -0.4041317328,
				"element": "H" 
			},
			{
				"x": -0.1855396678,
				"y": -2.3946534927,
				"z": -0.6732845051,
				"element": "H" 
			},
			{
				"x": -2.492099346,
				"y": 2.5540417735,
				"z": 0.409409843,
				"element": "H" 
			},
			{
				"x": -0.4223930854,
				"y": 2.9384722849,
				"z": 1.7911552306,
				"element": "H" 
			},
			{
				"x": 0.9625425384,
				"y": -0.981858249,
				"z": 0.7713653644,
				"element": "H" 
			}
		],
		 "valence_orbital": [ 
			{
				"type": "occ",
				"energy": -0.32889,
				"method": "rhf"
			},
			{
				"type": "occ",
				"energy": -0.32855,
				"method": "rhf"
			},
			{
				"type": "occ",
				"energy": -0.31413,
				"method": "rhf"
			},
			{
				"type": "occ",
				"energy": -0.31384,
				"method": "rhf"
			},
			{
				"type": "occ",
				"energy": -0.29977,
				"method": "rhf"
			},
			{
				"type": "unocc",
				"energy": -0.12327,
				"method": "rhf"
			},
			{
				"type": "unocc",
				"energy": -0.09255,
				"method": "rhf"
			},
			{
				"type": "unocc",
				"energy": -0.05592,
				"method": "rhf"
			},
			{
				"type": "unocc",
				"energy": -0.04039,
				"method": "rhf"
			},
			{
				"type": "unocc",
				"energy": 0.03863,
				"method": "rhf"
			}
		],
		"cosmo_sigma_profile": { 
			"-0.025": 0.0,
			"-0.024": 0.0,
			"-0.023": 0.0,
			"-0.022": 0.0,
			"-0.021": 0.0,
			"-0.02": 0.0,
			"-0.019": 0.0,
			"-0.018": 0.0,
			"-0.017": 0.0,
			"-0.016": 0.0,
			"-0.015": 0.0,
			"-0.014": 0.0,
			"-0.013": 0.0,
			"-0.012": 0.0,
			"-0.011": 0.0,
			"-0.01": 0.0980125365026,
			"-0.009": 3.6349108895,
			"-0.008": 7.57632545704,
			"-0.007": 6.12213921845,
			"-0.006": 7.9544497753,
			"-0.005": 12.7918451811,
			"-0.004": 14.6425068593,
			"-0.003": 23.2515718277,
			"-0.002": 27.857899529,
			"-0.001": 20.5432445097,
			"0.0": 10.9304960613,
			"0.001": 11.6943306076,
			"0.002": 10.6690887943,
			"0.003": 14.3696373607,
			"0.004": 7.57714119334,
			"0.005": 6.5695346026,
			"0.006": 10.2805310013,
			"0.007": 14.8550705597,
			"0.008": 12.4854645872,
			"0.009": 4.87263054243,
			"0.01": 0.332729228023,
			"0.011": 0.0,
			"0.012": 0.0,
			"0.013": 0.0,
			"0.014": 0.0,
			"0.015": 0.0,
			"0.016": 0.0,
			"0.017": 0.0,
			"0.018": 0.0,
			"0.019": 0.0,
			"0.02": 0.0,
			"0.021": 0.0,
			"0.022": 0.0,
			"0.023": 0.0,
			"0.024": 0.0,
			"0.025": 0.0
		}
	}
}
