{
	 "smiles": "CCN(CC)S(=O)(=O)C1=CC(=C(Cl)C=C1)S(Cl)(=O)=O", 
	 "Tm": 373.15, 
	 "num_atms": 32, 
	 "gaussian": { 
		 "optdone": 1, 
		 "sigma_profile": "yes", 
		 "theory": "DFT", 
		 "functional": "B3LYP", 
		 "basiset": "6-31G**", 
		 "properties": { 
			 "R2extent": 8440.7332, 
			 "electric_dipole_moment_norm": 3.76303412289, 
			 "electric_quadrupole_moment_norm": 27.0161917742, 
			 "total_energy": -2461.15460057, 
			 "HOMO_LUMO_gap": 0.16314, 
			 "cosmo_polarized_energy": -15.89, 
			 "cosmo_cavitation_energy": 41.77, 
			 "cosmo_dispersion_energy": -28.58, 
			 "cosmo_repulsion_energy": 2.13, 
			 "cosmo_total_nonelectrostatic_energy": 15.33, 
			 "SMD_solvation_energy": 4.93 
		},
		"coords": [
			{
				"x": 2.6478244464,
				"y": 0.6583559468,
				"z": -1.9889987873,
				"element": "C" 
			},
			{
				"x": 2.0381035158,
				"y": -0.7307516592,
				"z": -2.1544011737,
				"element": "C" 
			},
			{
				"x": 1.0418868967,
				"y": -1.0464924225,
				"z": -1.093557715,
				"element": "N" 
			},
			{
				"x": 1.3216247257,
				"y": -2.2216057172,
				"z": -0.2403101776,
				"element": "C" 
			},
			{
				"x": 2.4875975969,
				"y": -1.9638680045,
				"z": 0.7125120777,
				"element": "C" 
			},
			{
				"x": -0.5719940191,
				"y": -0.8363482001,
				"z": -1.5208101162,
				"element": "S" 
			},
			{
				"x": -0.5986495043,
				"y": 0.1983719571,
				"z": -2.5577657023,
				"element": "O" 
			},
			{
				"x": -1.2652236544,
				"y": -2.1150700249,
				"z": -1.7287327074,
				"element": "O" 
			},
			{
				"x": -1.2632101795,
				"y": -0.1435166218,
				"z": -0.0040274331,
				"element": "C" 
			},
			{
				"x": -0.6582512917,
				"y": 0.9576379607,
				"z": 0.5968771667,
				"element": "C" 
			},
			{
				"x": -1.2410729658,
				"y": 1.5192617323,
				"z": 1.7332782201,
				"element": "C" 
			},
			{
				"x": -2.4381715811,
				"y": 0.9968833716,
				"z": 2.2571413273,
				"element": "C" 
			},
			{
				"x": -3.2283872986,
				"y": 1.6703349774,
				"z": 3.6502322932,
				"element": "Cl" 
			},
			{
				"x": -3.0320219542,
				"y": -0.1017244801,
				"z": 1.6324902994,
				"element": "C" 
			},
			{
				"x": -2.4467304987,
				"y": -0.6751197705,
				"z": 0.5052246976,
				"element": "C" 
			},
			{
				"x": -0.3212764855,
				"y": 2.8784946238,
				"z": 2.4818744282,
				"element": "S" 
			},
			{
				"x": -1.5830828337,
				"y": 4.5250545766,
				"z": 2.0672153147,
				"element": "Cl" 
			},
			{
				"x": -0.271374846,
				"y": 2.721436917,
				"z": 3.9270709441,
				"element": "O" 
			},
			{
				"x": 0.8873862074,
				"y": 3.0810683993,
				"z": 1.693161829,
				"element": "O" 
			},
			{
				"x": 3.1189237539,
				"y": 0.7709873561,
				"z": -1.0079108475,
				"element": "H" 
			},
			{
				"x": 1.8791253718,
				"y": 1.4275338468,
				"z": -2.0988926198,
				"element": "H" 
			},
			{
				"x": 3.408920792,
				"y": 0.8296415759,
				"z": -2.7579198129,
				"element": "H" 
			},
			{
				"x": 1.5791496917,
				"y": -0.8228196811,
				"z": -3.1423520464,
				"element": "H" 
			},
			{
				"x": 2.8111428222,
				"y": -1.5028795201,
				"z": -2.0907531923,
				"element": "H" 
			},
			{
				"x": 1.5124909084,
				"y": -3.1058191365,
				"z": -0.8639536559,
				"element": "H" 
			},
			{
				"x": 0.4206595855,
				"y": -2.4402378697,
				"z": 0.3392032275,
				"element": "H" 
			},
			{
				"x": 3.4175396774,
				"y": -1.7581550782,
				"z": 0.1740269683,
				"element": "H" 
			},
			{
				"x": 2.2769720601,
				"y": -1.1116075733,
				"z": 1.3648415532,
				"element": "H" 
			},
			{
				"x": 2.6562668354,
				"y": -2.8465545772,
				"z": 1.3374973545,
				"element": "H" 
			},
			{
				"x": 0.2636571479,
				"y": 1.3711842036,
				"z": 0.2059907754,
				"element": "H" 
			},
			{
				"x": -3.9538220844,
				"y": -0.5021233961,
				"z": 2.038964687,
				"element": "H" 
			},
			{
				"x": -2.898802838,
				"y": -1.5328537119,
				"z": 0.0193828233,
				"element": "H" 
			}
		],
		 "valence_orbital": [ 
			{
				"type": "occ",
				"energy": -0.32271,
				"method": "rhf"
			},
			{
				"type": "occ",
				"energy": -0.31355,
				"method": "rhf"
			},
			{
				"type": "occ",
				"energy": -0.31039,
				"method": "rhf"
			},
			{
				"type": "occ",
				"energy": -0.29133,
				"method": "rhf"
			},
			{
				"type": "occ",
				"energy": -0.26332,
				"method": "rhf"
			},
			{
				"type": "unocc",
				"energy": -0.10018,
				"method": "rhf"
			},
			{
				"type": "unocc",
				"energy": -0.07349,
				"method": "rhf"
			},
			{
				"type": "unocc",
				"energy": -0.06392,
				"method": "rhf"
			},
			{
				"type": "unocc",
				"energy": -0.00464,
				"method": "rhf"
			},
			{
				"type": "unocc",
				"energy": 0.03772,
				"method": "rhf"
			}
		],
		"cosmo_sigma_profile": { 
			"-0.025": 0.0,
			"-0.024": 0.0,
			"-0.023": 0.0,
			"-0.022": 0.0,
			"-0.021": 0.0,
			"-0.02": 0.0,
			"-0.019": 0.0,
			"-0.018": 0.0,
			"-0.017": 0.0,
			"-0.016": 0.0,
			"-0.015": 0.0,
			"-0.014": 0.0,
			"-0.013": 0.0,
			"-0.012": 0.0,
			"-0.011": 0.0,
			"-0.01": 1.03522034308,
			"-0.009": 3.8156939914,
			"-0.008": 3.78134863221,
			"-0.007": 4.14517663744,
			"-0.006": 8.80938235243,
			"-0.005": 19.3140499316,
			"-0.004": 29.2345585163,
			"-0.003": 45.4686763017,
			"-0.002": 36.9020711359,
			"-0.001": 31.0481539288,
			"0.0": 26.206294746,
			"0.001": 22.4208557866,
			"0.002": 24.5900675008,
			"0.003": 15.8868277931,
			"0.004": 5.85814401156,
			"0.005": 6.09240834652,
			"0.006": 7.33857205567,
			"0.007": 11.5149299129,
			"0.008": 12.3137380381,
			"0.009": 4.69222235779,
			"0.01": 8.10896044476,
			"0.011": 7.02180861327,
			"0.012": 1.03256503421,
			"0.013": 0.0,
			"0.014": 0.0,
			"0.015": 0.0,
			"0.016": 0.0,
			"0.017": 0.0,
			"0.018": 0.0,
			"0.019": 0.0,
			"0.02": 0.0,
			"0.021": 0.0,
			"0.022": 0.0,
			"0.023": 0.0,
			"0.024": 0.0,
			"0.025": 0.0
		}
	}
}
