{
	 "smiles": "CC1OC(OC2CCC3(C)C4CCC5(C)C(CCC5(O)C4CCC3=C2)C2=COC(=O)C=C2)C(O)C(O)C1O", 
	 "Tm": 494.15, 
	 "num_atms": 80, 
	 "gaussian": { 
		 "optdone": 1, 
		 "sigma_profile": "yes", 
		 "theory": "DFT", 
		 "functional": "B3LYP", 
		 "basiset": "6-31G**", 
		 "properties": { 
			 "R2extent": 18033.9234, 
			 "electric_dipole_moment_norm": 8.18252175799, 
			 "electric_quadrupole_moment_norm": 31.984339872, 
			 "total_energy": -1770.23931707, 
			 "HOMO_LUMO_gap": 0.15223, 
			 "cosmo_polarized_energy": -26.34, 
			 "cosmo_cavitation_energy": 67.97, 
			 "cosmo_dispersion_energy": -42.7, 
			 "cosmo_repulsion_energy": 2.98, 
			 "cosmo_total_nonelectrostatic_energy": 28.25, 
			 "SMD_solvation_energy": 9.81 
		},
		"coords": [
			{
				"x": -0.1089962277,
				"y": -2.5639672155,
				"z": -3.6148534146,
				"element": "C" 
			},
			{
				"x": 1.3728819033,
				"y": -2.4339835294,
				"z": -3.2953155681,
				"element": "C" 
			},
			{
				"x": 1.7441217794,
				"y": -1.0456873026,
				"z": -3.500531482,
				"element": "O" 
			},
			{
				"x": 2.6679414583,
				"y": -0.4600406423,
				"z": -2.5879569679,
				"element": "C" 
			},
			{
				"x": 2.0870263096,
				"y": -0.0370436955,
				"z": -1.3837638859,
				"element": "O" 
			},
			{
				"x": 1.3919743341,
				"y": 1.2194554288,
				"z": -1.4059180925,
				"element": "C" 
			},
			{
				"x": -0.0770922805,
				"y": 1.073116614,
				"z": -1.8111638824,
				"element": "C" 
			},
			{
				"x": -0.8298139866,
				"y": 2.3665549698,
				"z": -1.481820766,
				"element": "C" 
			},
			{
				"x": -0.8401026004,
				"y": 2.7347619417,
				"z": 0.0241212333,
				"element": "C" 
			},
			{
				"x": -1.1466394933,
				"y": 4.2534159868,
				"z": 0.1025334122,
				"element": "C" 
			},
			{
				"x": -1.9384413694,
				"y": 1.972225082,
				"z": 0.9170910907,
				"element": "C" 
			},
			{
				"x": -2.8370520093,
				"y": 0.9093699838,
				"z": 0.2144061357,
				"element": "C" 
			},
			{
				"x": -2.7414046443,
				"y": -0.4811451805,
				"z": 0.8579185002,
				"element": "C" 
			},
			{
				"x": -3.1132508562,
				"y": -0.4787658394,
				"z": 2.3565365032,
				"element": "C" 
			},
			{
				"x": -4.6489854551,
				"y": -0.3587321285,
				"z": 2.4861362974,
				"element": "C" 
			},
			{
				"x": -2.6846039477,
				"y": -1.7918231945,
				"z": 3.1442290328,
				"element": "C" 
			},
			{
				"x": -2.452975708,
				"y": -1.2691614021,
				"z": 4.5758814485,
				"element": "C" 
			},
			{
				"x": -1.7459325941,
				"y": 0.0782649691,
				"z": 4.3861006873,
				"element": "C" 
			},
			{
				"x": -2.3748834815,
				"y": 0.7149440803,
				"z": 3.1129332189,
				"element": "C" 
			},
			{
				"x": -3.3807401998,
				"y": 1.6702735898,
				"z": 3.4865291772,
				"element": "O" 
			},
			{
				"x": -1.3091338989,
				"y": 1.3871551708,
				"z": 2.2111480373,
				"element": "C" 
			},
			{
				"x": -0.4973279814,
				"y": 2.4847799979,
				"z": 2.9245171769,
				"element": "C" 
			},
			{
				"x": 0.7234065816,
				"y": 2.9082074203,
				"z": 2.0575098607,
				"element": "C" 
			},
			{
				"x": 0.5396278063,
				"y": 2.4633549632,
				"z": 0.6229426428,
				"element": "C" 
			},
			{
				"x": 1.5067617278,
				"y": 1.795576267,
				"z": -0.020031438,
				"element": "C" 
			},
			{
				"x": -1.5163251379,
				"y": -2.576404544,
				"z": 2.5627089412,
				"element": "C" 
			},
			{
				"x": -0.26735909,
				"y": -2.6076449712,
				"z": 3.0941886313,
				"element": "C" 
			},
			{
				"x": 0.761679014,
				"y": -3.3075836399,
				"z": 2.560091191,
				"element": "O" 
			},
			{
				"x": 0.6405597558,
				"y": -4.0346047113,
				"z": 1.3921548434,
				"element": "C" 
			},
			{
				"x": 1.6541569742,
				"y": -4.5700091946,
				"z": 0.954857947,
				"element": "O" 
			},
			{
				"x": -0.6812827521,
				"y": -4.0844420925,
				"z": 0.8217732264,
				"element": "C" 
			},
			{
				"x": -1.7039468826,
				"y": -3.3892197162,
				"z": 1.3885522714,
				"element": "C" 
			},
			{
				"x": 3.7891669674,
				"y": -1.4531784069,
				"z": -2.2736360762,
				"element": "C" 
			},
			{
				"x": 4.4853564094,
				"y": -1.7400361489,
				"z": -3.4831305352,
				"element": "O" 
			},
			{
				"x": 3.2389345523,
				"y": -2.7353463952,
				"z": -1.6023060473,
				"element": "C" 
			},
			{
				"x": 3.5172068306,
				"y": -2.6388056979,
				"z": -0.2141442143,
				"element": "O" 
			},
			{
				"x": 1.734717551,
				"y": -2.9335203585,
				"z": -1.8904206497,
				"element": "C" 
			},
			{
				"x": 1.3500327603,
				"y": -4.3037474351,
				"z": -1.8422775536,
				"element": "O" 
			},
			{
				"x": -0.7065299086,
				"y": -1.9981047991,
				"z": -2.8926197348,
				"element": "H" 
			},
			{
				"x": -0.4063092758,
				"y": -3.6140324437,
				"z": -3.5740982711,
				"element": "H" 
			},
			{
				"x": -0.3155223208,
				"y": -2.1711819714,
				"z": -4.6147351089,
				"element": "H" 
			},
			{
				"x": 1.9423042714,
				"y": -3.0465060702,
				"z": -4.0122266016,
				"element": "H" 
			},
			{
				"x": 3.0719694502,
				"y": 0.4028602241,
				"z": -3.1358479257,
				"element": "H" 
			},
			{
				"x": 1.9050632122,
				"y": 1.8797849288,
				"z": -2.1279017273,
				"element": "H" 
			},
			{
				"x": -0.4873302004,
				"y": 0.2220593709,
				"z": -1.2566011022,
				"element": "H" 
			},
			{
				"x": -0.1518173108,
				"y": 0.831121024,
				"z": -2.8750355404,
				"element": "H" 
			},
			{
				"x": -0.3367849264,
				"y": 3.1894282284,
				"z": -2.0171528631,
				"element": "H" 
			},
			{
				"x": -1.8516646221,
				"y": 2.3401324559,
				"z": -1.874073804,
				"element": "H" 
			},
			{
				"x": -1.2263042979,
				"y": 4.6119739681,
				"z": 1.1326876787,
				"element": "H" 
			},
			{
				"x": -0.3691580762,
				"y": 4.8398888156,
				"z": -0.3987814237,
				"element": "H" 
			},
			{
				"x": -2.1016603095,
				"y": 4.4667176214,
				"z": -0.3916471899,
				"element": "H" 
			},
			{
				"x": -2.6206249697,
				"y": 2.7526723107,
				"z": 1.268933867,
				"element": "H" 
			},
			{
				"x": -3.8773076785,
				"y": 1.2501028455,
				"z": 0.2434483002,
				"element": "H" 
			},
			{
				"x": -2.5970258075,
				"y": 0.8049263004,
				"z": -0.8439613188,
				"element": "H" 
			},
			{
				"x": -3.4007140638,
				"y": -1.1724678759,
				"z": 0.3178728962,
				"element": "H" 
			},
			{
				"x": -1.7241692203,
				"y": -0.8577994349,
				"z": 0.7149895759,
				"element": "H" 
			},
			{
				"x": -5.1233623689,
				"y": -1.196985351,
				"z": 1.9635712895,
				"element": "H" 
			},
			{
				"x": -5.0191343259,
				"y": 0.5712951131,
				"z": 2.05400739,
				"element": "H" 
			},
			{
				"x": -4.9763509502,
				"y": -0.3742999791,
				"z": 3.5281192224,
				"element": "H" 
			},
			{
				"x": -3.5357844563,
				"y": -2.4833660976,
				"z": 3.1301815802,
				"element": "H" 
			},
			{
				"x": -1.9013985012,
				"y": -1.9714058597,
				"z": 5.2089473361,
				"element": "H" 
			},
			{
				"x": -3.4233640492,
				"y": -1.1093943808,
				"z": 5.0551823629,
				"element": "H" 
			},
			{
				"x": -1.8631374279,
				"y": 0.7377125305,
				"z": 5.2516313542,
				"element": "H" 
			},
			{
				"x": -0.6699589377,
				"y": -0.066973543,
				"z": 4.2417143247,
				"element": "H" 
			},
			{
				"x": -2.9336825308,
				"y": 2.4017203069,
				"z": 3.9315974234,
				"element": "H" 
			},
			{
				"x": -0.5966353972,
				"y": 0.5990820584,
				"z": 1.9327925203,
				"element": "H" 
			},
			{
				"x": -1.1447021568,
				"y": 3.3529715723,
				"z": 3.1085254592,
				"element": "H" 
			},
			{
				"x": -0.1463942103,
				"y": 2.1465378999,
				"z": 3.9049824246,
				"element": "H" 
			},
			{
				"x": 1.6409655068,
				"y": 2.4624135173,
				"z": 2.4540187941,
				"element": "H" 
			},
			{
				"x": 0.8577260037,
				"y": 3.9956805366,
				"z": 2.1156871725,
				"element": "H" 
			},
			{
				"x": 2.4583615202,
				"y": 1.6078904845,
				"z": 0.4744893165,
				"element": "H" 
			},
			{
				"x": 0.0488687379,
				"y": -2.093308689,
				"z": 3.9916290873,
				"element": "H" 
			},
			{
				"x": -0.7954218069,
				"y": -4.6638594575,
				"z": -0.0860537768,
				"element": "H" 
			},
			{
				"x": -2.6936776004,
				"y": -3.4385357055,
				"z": 0.9430989557,
				"element": "H" 
			},
			{
				"x": 4.5061150973,
				"y": -0.9997223071,
				"z": -1.584898561,
				"element": "H" 
			},
			{
				"x": 3.8268640468,
				"y": -1.7638033191,
				"z": -4.191529746,
				"element": "H" 
			},
			{
				"x": 3.7746585156,
				"y": -3.5799601755,
				"z": -2.0633004668,
				"element": "H" 
			},
			{
				"x": 3.1241104414,
				"y": -3.3971623459,
				"z": 0.2461072495,
				"element": "H" 
			},
			{
				"x": 1.1777123204,
				"y": -2.3366519609,
				"z": -1.1544313081,
				"element": "H" 
			},
			{
				"x": 1.5401464657,
				"y": -4.6298133693,
				"z": -0.9452100439,
				"element": "H" 
			}
		],
		 "valence_orbital": [ 
			{
				"type": "occ",
				"energy": -0.25971,
				"method": "rhf"
			},
			{
				"type": "occ",
				"energy": -0.25128,
				"method": "rhf"
			},
			{
				"type": "occ",
				"energy": -0.24453,
				"method": "rhf"
			},
			{
				"type": "occ",
				"energy": -0.23322,
				"method": "rhf"
			},
			{
				"type": "occ",
				"energy": -0.23019,
				"method": "rhf"
			},
			{
				"type": "unocc",
				"energy": -0.07796,
				"method": "rhf"
			},
			{
				"type": "unocc",
				"energy": -0.0155,
				"method": "rhf"
			},
			{
				"type": "unocc",
				"energy": 0.01677,
				"method": "rhf"
			},
			{
				"type": "unocc",
				"energy": 0.05293,
				"method": "rhf"
			},
			{
				"type": "unocc",
				"energy": 0.06269,
				"method": "rhf"
			}
		],
		"cosmo_sigma_profile": { 
			"-0.025": 0.0,
			"-0.024": 0.0,
			"-0.023": 0.0,
			"-0.022": 0.0,
			"-0.021": 0.0,
			"-0.02": 0.0,
			"-0.019": 0.0,
			"-0.018": 0.0,
			"-0.017": 0.0,
			"-0.016": 0.0,
			"-0.015": 0.0,
			"-0.014": 0.216486023634,
			"-0.013": 0.976476912483,
			"-0.012": 1.80659159101,
			"-0.011": 1.29089138391,
			"-0.01": 2.46592485057,
			"-0.009": 2.99383691739,
			"-0.008": 6.66153296079,
			"-0.007": 9.34556852441,
			"-0.006": 13.1160206785,
			"-0.005": 17.17389461,
			"-0.004": 27.8832303118,
			"-0.003": 56.1140600048,
			"-0.002": 75.8066125262,
			"-0.001": 69.2130971083,
			"0.0": 65.4518999589,
			"0.001": 45.3578768939,
			"0.002": 24.2808103911,
			"0.003": 14.1167210059,
			"0.004": 11.5700221624,
			"0.005": 11.6240882775,
			"0.006": 11.201725892,
			"0.007": 9.48696611713,
			"0.008": 8.29006560881,
			"0.009": 6.26734445145,
			"0.01": 7.37852459672,
			"0.011": 7.96234503024,
			"0.012": 6.22627207919,
			"0.013": 5.33323916669,
			"0.014": 4.61813013406,
			"0.015": 0.94173899072,
			"0.016": 0.0397302994917,
			"0.017": 0.0,
			"0.018": 0.0,
			"0.019": 0.0,
			"0.02": 0.0,
			"0.021": 0.0,
			"0.022": 0.0,
			"0.023": 0.0,
			"0.024": 0.0,
			"0.025": 0.0
		}
	}
}
