{
	 "smiles": "ClCC1=NC2=C(SC(=C2)C2=CC=C(Cl)C=C2)C(=O)N1", 
	 "Tm": 491.15, 
	 "num_atms": 27, 
	 "gaussian": { 
		 "optdone": 1, 
		 "sigma_profile": "yes", 
		 "theory": "DFT", 
		 "functional": "B3LYP", 
		 "basiset": "6-31G**", 
		 "properties": { 
			 "R2extent": 10835.6486, 
			 "electric_dipole_moment_norm": 3.04409983082, 
			 "electric_quadrupole_moment_norm": 12.3764802759, 
			 "total_energy": -2003.53196164, 
			 "HOMO_LUMO_gap": 0.15752, 
			 "cosmo_polarized_energy": -15.01, 
			 "cosmo_cavitation_energy": 37.53, 
			 "cosmo_dispersion_energy": -28.35, 
			 "cosmo_repulsion_energy": 2.13, 
			 "cosmo_total_nonelectrostatic_energy": 11.31, 
			 "SMD_solvation_energy": 4.15 
		},
		"coords": [
			{
				"x": -2.5948596514,
				"y": 5.3903228488,
				"z": 0.9223601951,
				"element": "Cl" 
			},
			{
				"x": -2.7297863595,
				"y": 4.0212663832,
				"z": -0.2620702383,
				"element": "C" 
			},
			{
				"x": -2.0818929544,
				"y": 2.7497999748,
				"z": 0.2229232124,
				"element": "C" 
			},
			{
				"x": -1.3977247548,
				"y": 2.0557831329,
				"z": -0.6368673232,
				"element": "N" 
			},
			{
				"x": -0.8977162279,
				"y": 0.8552596276,
				"z": -0.1743800766,
				"element": "C" 
			},
			{
				"x": -1.0962936467,
				"y": 0.3993361953,
				"z": 1.1286494683,
				"element": "C" 
			},
			{
				"x": -0.3386802156,
				"y": -1.1310545435,
				"z": 1.4101040728,
				"element": "S" 
			},
			{
				"x": 0.243472563,
				"y": -1.1805751308,
				"z": -0.2511918853,
				"element": "C" 
			},
			{
				"x": -0.1302628747,
				"y": -0.0592709736,
				"z": -0.954275535,
				"element": "C" 
			},
			{
				"x": 1.0340627287,
				"y": -2.3206824821,
				"z": -0.7326688587,
				"element": "C" 
			},
			{
				"x": 0.8862912676,
				"y": -3.6050404136,
				"z": -0.1803683443,
				"element": "C" 
			},
			{
				"x": 1.635418955,
				"y": -4.6813715599,
				"z": -0.6478077447,
				"element": "C" 
			},
			{
				"x": 2.543935416,
				"y": -4.4802501614,
				"z": -1.6866022861,
				"element": "C" 
			},
			{
				"x": 3.489085899,
				"y": -5.8319378065,
				"z": -2.2848311912,
				"element": "Cl" 
			},
			{
				"x": 2.7135837013,
				"y": -3.2170332566,
				"z": -2.2546677091,
				"element": "C" 
			},
			{
				"x": 1.9648423668,
				"y": -2.1475766631,
				"z": -1.7732179649,
				"element": "C" 
			},
			{
				"x": -1.8376904688,
				"y": 1.162295378,
				"z": 2.1021009082,
				"element": "C" 
			},
			{
				"x": -2.0708172004,
				"y": 0.8922678012,
				"z": 3.2705363071,
				"element": "O" 
			},
			{
				"x": -2.3116944535,
				"y": 2.3626186362,
				"z": 1.5157800809,
				"element": "N" 
			},
			{
				"x": -2.2477113097,
				"y": 4.3230325636,
				"z": -1.1891981695,
				"element": "H" 
			},
			{
				"x": -3.7990107787,
				"y": 3.8737170548,
				"z": -0.431860105,
				"element": "H" 
			},
			{
				"x": 0.0976293076,
				"y": 0.1089172173,
				"z": -1.9993937689,
				"element": "H" 
			},
			{
				"x": 0.1622946727,
				"y": -3.7731279119,
				"z": 0.6113052139,
				"element": "H" 
			},
			{
				"x": 1.5100878898,
				"y": -5.6687259652,
				"z": -0.2177906425,
				"element": "H" 
			},
			{
				"x": 3.4313976573,
				"y": -3.0724531269,
				"z": -3.0543575137,
				"element": "H" 
			},
			{
				"x": 2.1205901884,
				"y": -1.1603235407,
				"z": -2.1958118492,
				"element": "H" 
			},
			{
				"x": -2.8028517171,
				"y": 2.9867067218,
				"z": 2.1472017476,
				"element": "H" 
			}
		],
		 "valence_orbital": [ 
			{
				"type": "occ",
				"energy": -0.28026,
				"method": "rhf"
			},
			{
				"type": "occ",
				"energy": -0.27715,
				"method": "rhf"
			},
			{
				"type": "occ",
				"energy": -0.27318,
				"method": "rhf"
			},
			{
				"type": "occ",
				"energy": -0.24884,
				"method": "rhf"
			},
			{
				"type": "occ",
				"energy": -0.23062,
				"method": "rhf"
			},
			{
				"type": "unocc",
				"energy": -0.0731,
				"method": "rhf"
			},
			{
				"type": "unocc",
				"energy": -0.04571,
				"method": "rhf"
			},
			{
				"type": "unocc",
				"energy": -0.02835,
				"method": "rhf"
			},
			{
				"type": "unocc",
				"energy": -0.00813,
				"method": "rhf"
			},
			{
				"type": "unocc",
				"energy": 0.01275,
				"method": "rhf"
			}
		],
		"cosmo_sigma_profile": { 
			"-0.025": 0.0,
			"-0.024": 0.0,
			"-0.023": 0.0,
			"-0.022": 0.0,
			"-0.021": 0.0,
			"-0.02": 0.0,
			"-0.019": 0.0,
			"-0.018": 0.0,
			"-0.017": 0.0,
			"-0.016": 0.0,
			"-0.015": 0.2044756434,
			"-0.014": 0.683359865542,
			"-0.013": 1.1108447631,
			"-0.012": 0.98352329986,
			"-0.011": 1.36307269113,
			"-0.01": 2.99227611845,
			"-0.009": 4.87271188254,
			"-0.008": 9.25922431546,
			"-0.007": 14.1880891623,
			"-0.006": 12.4578149349,
			"-0.005": 13.2940717699,
			"-0.004": 12.9123525676,
			"-0.003": 15.1353354295,
			"-0.002": 17.9064416063,
			"-0.001": 18.8599917095,
			"0.0": 26.9143523763,
			"0.001": 36.6992397073,
			"0.002": 36.7375702822,
			"0.003": 25.0079246877,
			"0.004": 18.3279671104,
			"0.005": 13.1334813033,
			"0.006": 3.74423057507,
			"0.007": 2.75070497029,
			"0.008": 1.53240125026,
			"0.009": 1.76445464759,
			"0.01": 2.78237913558,
			"0.011": 2.44077684685,
			"0.012": 5.49206387209,
			"0.013": 5.26230367951,
			"0.014": 0.352661092015,
			"0.015": 0.0,
			"0.016": 0.0,
			"0.017": 0.0,
			"0.018": 0.0,
			"0.019": 0.0,
			"0.02": 0.0,
			"0.021": 0.0,
			"0.022": 0.0,
			"0.023": 0.0,
			"0.024": 0.0,
			"0.025": 0.0
		}
	}
}
