{
	 "smiles": "CC(C)(C)OC(=O)CC(=O)OC(C)(C)C", 
	 "Tm": 267.15, 
	 "num_atms": 35, 
	 "gaussian": { 
		 "optdone": 1, 
		 "sigma_profile": "yes", 
		 "theory": "DFT", 
		 "functional": "B3LYP", 
		 "basiset": "6-31G**", 
		 "properties": { 
			 "R2extent": 4824.9069, 
			 "electric_dipole_moment_norm": 2.72285559294, 
			 "electric_quadrupole_moment_norm": 10.5438871561, 
			 "total_energy": -732.173691645, 
			 "HOMO_LUMO_gap": 0.26998, 
			 "cosmo_polarized_energy": -10.39, 
			 "cosmo_cavitation_energy": 36.92, 
			 "cosmo_dispersion_energy": -24.82, 
			 "cosmo_repulsion_energy": 2.0, 
			 "cosmo_total_nonelectrostatic_energy": 14.09, 
			 "SMD_solvation_energy": 8.29 
		},
		"coords": [
			{
				"x": -2.343144692,
				"y": -2.9105692068,
				"z": -0.3404676495,
				"element": "C" 
			},
			{
				"x": -2.4669185157,
				"y": -1.4584645798,
				"z": -0.8073934041,
				"element": "C" 
			},
			{
				"x": -3.9320626322,
				"y": -1.0115713504,
				"z": -0.8270245913,
				"element": "C" 
			},
			{
				"x": -1.7727018127,
				"y": -1.2577786501,
				"z": -2.1582904321,
				"element": "C" 
			},
			{
				"x": -1.7320437725,
				"y": -0.7216334391,
				"z": 0.2410534668,
				"element": "O" 
			},
			{
				"x": -1.541863625,
				"y": 0.6046322148,
				"z": 0.1653215991,
				"element": "C" 
			},
			{
				"x": -2.0240305252,
				"y": 1.3567279752,
				"z": -0.6543707006,
				"element": "O" 
			},
			{
				"x": -0.614621349,
				"y": 1.0580052351,
				"z": 1.2806779872,
				"element": "C" 
			},
			{
				"x": 0.8355062258,
				"y": 0.6830431752,
				"z": 0.9860424675,
				"element": "C" 
			},
			{
				"x": 1.2180344701,
				"y": 0.1933033534,
				"z": -0.0555017938,
				"element": "O" 
			},
			{
				"x": 1.6006821202,
				"y": 0.9965670134,
				"z": 2.0445098297,
				"element": "O" 
			},
			{
				"x": 3.0644638366,
				"y": 0.7808537009,
				"z": 2.0373245568,
				"element": "C" 
			},
			{
				"x": 3.3678672816,
				"y": -0.7130848056,
				"z": 1.8867315247,
				"element": "C" 
			},
			{
				"x": 3.480198792,
				"y": 1.2865967201,
				"z": 3.420404813,
				"element": "C" 
			},
			{
				"x": 3.708425669,
				"y": 1.6216537218,
				"z": 0.93063913,
				"element": "C" 
			},
			{
				"x": -2.8638159646,
				"y": -3.574546881,
				"z": -1.0369674608,
				"element": "H" 
			},
			{
				"x": -2.7840969778,
				"y": -3.0361733581,
				"z": 0.6528660962,
				"element": "H" 
			},
			{
				"x": -1.292759969,
				"y": -3.2114316152,
				"z": -0.2925403125,
				"element": "H" 
			},
			{
				"x": -4.3808270886,
				"y": -1.1291674926,
				"z": 0.1645340808,
				"element": "H" 
			},
			{
				"x": -4.0193976617,
				"y": 0.0308781758,
				"z": -1.1343052353,
				"element": "H" 
			},
			{
				"x": -4.4950975874,
				"y": -1.6345823165,
				"z": -1.5297642375,
				"element": "H" 
			},
			{
				"x": -1.8892316386,
				"y": -0.2338717359,
				"z": -2.5144483433,
				"element": "H" 
			},
			{
				"x": -0.7048495661,
				"y": -1.4762312419,
				"z": -2.0672960252,
				"element": "H" 
			},
			{
				"x": -2.2067149795,
				"y": -1.9396322348,
				"z": -2.8968571262,
				"element": "H" 
			},
			{
				"x": -0.6850132544,
				"y": 2.144457863,
				"z": 1.3772429332,
				"element": "H" 
			},
			{
				"x": -0.905888275,
				"y": 0.6095813143,
				"z": 2.2349157016,
				"element": "H" 
			},
			{
				"x": 2.8489059493,
				"y": -1.2871740511,
				"z": 2.6607077465,
				"element": "H" 
			},
			{
				"x": 4.4434231433,
				"y": -0.8801358245,
				"z": 2.0047122431,
				"element": "H" 
			},
			{
				"x": 3.0614856392,
				"y": -1.0811732432,
				"z": 0.9072791057,
				"element": "H" 
			},
			{
				"x": 2.9805032089,
				"y": 0.7147501963,
				"z": 4.207626928,
				"element": "H" 
			},
			{
				"x": 3.2178790995,
				"y": 2.3415450815,
				"z": 3.5413151098,
				"element": "H" 
			},
			{
				"x": 4.5615940911,
				"y": 1.1813107462,
				"z": 3.548594215,
				"element": "H" 
			},
			{
				"x": 4.7982735431,
				"y": 1.5512342014,
				"z": 1.0072265814,
				"element": "H" 
			},
			{
				"x": 3.4286927391,
				"y": 2.6741529277,
				"z": 1.0397223875,
				"element": "H" 
			},
			{
				"x": 3.4039440782,
				"y": 1.2747284105,
				"z": -0.0571211915,
				"element": "H" 
			}
		],
		 "valence_orbital": [ 
			{
				"type": "occ",
				"energy": -0.32551,
				"method": "rhf"
			},
			{
				"type": "occ",
				"energy": -0.30007,
				"method": "rhf"
			},
			{
				"type": "occ",
				"energy": -0.2899,
				"method": "rhf"
			},
			{
				"type": "occ",
				"energy": -0.26966,
				"method": "rhf"
			},
			{
				"type": "occ",
				"energy": -0.26073,
				"method": "rhf"
			},
			{
				"type": "unocc",
				"energy": 0.00925,
				"method": "rhf"
			},
			{
				"type": "unocc",
				"energy": 0.01282,
				"method": "rhf"
			},
			{
				"type": "unocc",
				"energy": 0.08173,
				"method": "rhf"
			},
			{
				"type": "unocc",
				"energy": 0.09139,
				"method": "rhf"
			},
			{
				"type": "unocc",
				"energy": 0.09723,
				"method": "rhf"
			}
		],
		"cosmo_sigma_profile": { 
			"-0.025": 0.0,
			"-0.024": 0.0,
			"-0.023": 0.0,
			"-0.022": 0.0,
			"-0.021": 0.0,
			"-0.02": 0.0,
			"-0.019": 0.0,
			"-0.018": 0.0,
			"-0.017": 0.0,
			"-0.016": 0.0,
			"-0.015": 0.0,
			"-0.014": 0.0,
			"-0.013": 0.0,
			"-0.012": 0.0,
			"-0.011": 0.0,
			"-0.01": 0.0,
			"-0.009": 0.00120019677152,
			"-0.008": 2.19539995937,
			"-0.007": 3.7196272132,
			"-0.006": 3.65957830287,
			"-0.005": 7.64374603796,
			"-0.004": 29.0269376663,
			"-0.003": 31.9669854223,
			"-0.002": 33.6690752159,
			"-0.001": 34.8338382032,
			"0.0": 49.4111505041,
			"0.001": 26.7286883818,
			"0.002": 7.54404681608,
			"0.003": 6.3648720576,
			"0.004": 8.70587701472,
			"0.005": 6.80501183674,
			"0.006": 7.27130821694,
			"0.007": 7.17478096081,
			"0.008": 5.2019291998,
			"0.009": 2.88444737203,
			"0.01": 3.83036626164,
			"0.011": 4.33026859935,
			"0.012": 2.90708964352,
			"0.013": 0.76441610594,
			"0.014": 0.0,
			"0.015": 0.0,
			"0.016": 0.0,
			"0.017": 0.0,
			"0.018": 0.0,
			"0.019": 0.0,
			"0.02": 0.0,
			"0.021": 0.0,
			"0.022": 0.0,
			"0.023": 0.0,
			"0.024": 0.0,
			"0.025": 0.0
		}
	}
}
