{
	 "smiles": "CC(=O)C1=CC=C(C=C1)S(=O)(=O)NCC1=CC=CO1", 
	 "Tm": 381.15, 
	 "num_atms": 32, 
	 "gaussian": { 
		 "optdone": 1, 
		 "sigma_profile": "yes", 
		 "theory": "DFT", 
		 "functional": "B3LYP", 
		 "basiset": "6-31G**", 
		 "properties": { 
			 "R2extent": 6291.6732, 
			 "electric_dipole_moment_norm": 5.29772672191, 
			 "electric_quadrupole_moment_norm": 25.9818656846, 
			 "total_energy": -1256.95310585, 
			 "HOMO_LUMO_gap": 0.16121, 
			 "cosmo_polarized_energy": -20.4, 
			 "cosmo_cavitation_energy": 38.31, 
			 "cosmo_dispersion_energy": -26.35, 
			 "cosmo_repulsion_energy": 1.98, 
			 "cosmo_total_nonelectrostatic_energy": 13.95, 
			 "SMD_solvation_energy": 6.81 
		},
		"coords": [
			{
				"x": -2.5492951191,
				"y": 0.3754804797,
				"z": 3.6667207889,
				"element": "C" 
			},
			{
				"x": -2.7451980462,
				"y": 1.1224831915,
				"z": 2.3595150566,
				"element": "C" 
			},
			{
				"x": -3.7678087439,
				"y": 1.7551735978,
				"z": 2.1486421468,
				"element": "O" 
			},
			{
				"x": -1.656849444,
				"y": 1.0730457345,
				"z": 1.3230662538,
				"element": "C" 
			},
			{
				"x": -0.4760690896,
				"y": 0.3369788925,
				"z": 1.4977653389,
				"element": "C" 
			},
			{
				"x": 0.5025611317,
				"y": 0.3205986401,
				"z": 0.5049470754,
				"element": "C" 
			},
			{
				"x": 0.2948465069,
				"y": 1.0515793817,
				"z": -0.6644606685,
				"element": "C" 
			},
			{
				"x": -0.8687675703,
				"y": 1.8051161325,
				"z": -0.8526783733,
				"element": "C" 
			},
			{
				"x": -1.8412508251,
				"y": 1.8068256748,
				"z": 0.1399319739,
				"element": "C" 
			},
			{
				"x": 1.5551025271,
				"y": 1.0391769726,
				"z": -1.9526260026,
				"element": "S" 
			},
			{
				"x": 2.7861621646,
				"y": 0.5345696588,
				"z": -1.3404975503,
				"element": "O" 
			},
			{
				"x": 1.469553854,
				"y": 2.3332002638,
				"z": -2.6294616423,
				"element": "O" 
			},
			{
				"x": 1.1217546019,
				"y": -0.0835309321,
				"z": -3.1085627532,
				"element": "N" 
			},
			{
				"x": 1.3487977029,
				"y": -1.5284581965,
				"z": -2.9653738514,
				"element": "C" 
			},
			{
				"x": 0.1312766888,
				"y": -2.3351372267,
				"z": -2.660121979,
				"element": "C" 
			},
			{
				"x": -0.6278029946,
				"y": -3.186830649,
				"z": -3.4097885015,
				"element": "C" 
			},
			{
				"x": -1.6879700538,
				"y": -3.6475378313,
				"z": -2.561258151,
				"element": "C" 
			},
			{
				"x": -1.4965637969,
				"y": -3.0393746539,
				"z": -1.3592699164,
				"element": "C" 
			},
			{
				"x": -0.3932140489,
				"y": -2.2389436236,
				"z": -1.3988794423,
				"element": "O" 
			},
			{
				"x": -2.408941391,
				"y": -0.6968995356,
				"z": 3.4910791003,
				"element": "H" 
			},
			{
				"x": -1.6616411357,
				"y": 0.7379212805,
				"z": 4.1968476258,
				"element": "H" 
			},
			{
				"x": -3.4306539026,
				"y": 0.5270030798,
				"z": 4.2901744614,
				"element": "H" 
			},
			{
				"x": -0.3080712029,
				"y": -0.2252974451,
				"z": 2.4102598691,
				"element": "H" 
			},
			{
				"x": 1.4244689993,
				"y": -0.233940211,
				"z": 0.6357019708,
				"element": "H" 
			},
			{
				"x": -0.990576024,
				"y": 2.3975907971,
				"z": -1.7531965286,
				"element": "H" 
			},
			{
				"x": -2.7552229262,
				"y": 2.3803267605,
				"z": 0.0294280083,
				"element": "H" 
			},
			{
				"x": 0.3496192015,
				"y": 0.2160310561,
				"z": -3.6929099101,
				"element": "H" 
			},
			{
				"x": 1.7778198479,
				"y": -1.8994122099,
				"z": -3.9022784237,
				"element": "H" 
			},
			{
				"x": 2.1160333808,
				"y": -1.6494083301,
				"z": -2.1953543322,
				"element": "H" 
			},
			{
				"x": -0.4515859335,
				"y": -3.4569664266,
				"z": -4.4415590067,
				"element": "H" 
			},
			{
				"x": -2.4805347705,
				"y": -4.3361777764,
				"z": -2.8157333863,
				"element": "H" 
			},
			{
				"x": -2.0246795887,
				"y": -3.0656865464,
				"z": -0.4188692505,
				"element": "H" 
			}
		],
		 "valence_orbital": [ 
			{
				"type": "occ",
				"energy": -0.29029,
				"method": "rhf"
			},
			{
				"type": "occ",
				"energy": -0.27605,
				"method": "rhf"
			},
			{
				"type": "occ",
				"energy": -0.26639,
				"method": "rhf"
			},
			{
				"type": "occ",
				"energy": -0.26003,
				"method": "rhf"
			},
			{
				"type": "occ",
				"energy": -0.23717,
				"method": "rhf"
			},
			{
				"type": "unocc",
				"energy": -0.07596,
				"method": "rhf"
			},
			{
				"type": "unocc",
				"energy": -0.02598,
				"method": "rhf"
			},
			{
				"type": "unocc",
				"energy": -0.00639,
				"method": "rhf"
			},
			{
				"type": "unocc",
				"energy": 0.01104,
				"method": "rhf"
			},
			{
				"type": "unocc",
				"energy": 0.05372,
				"method": "rhf"
			}
		],
		"cosmo_sigma_profile": { 
			"-0.025": 0.0,
			"-0.024": 0.0,
			"-0.023": 0.0,
			"-0.022": 0.0,
			"-0.021": 0.0,
			"-0.02": 0.0,
			"-0.019": 0.0,
			"-0.018": 0.0,
			"-0.017": 0.0,
			"-0.016": 0.0838601973722,
			"-0.015": 0.909697582843,
			"-0.014": 1.3208562794,
			"-0.013": 0.529558035223,
			"-0.012": 1.16812208297,
			"-0.011": 1.23368775272,
			"-0.01": 1.20026388146,
			"-0.009": 2.12485621494,
			"-0.008": 4.96662092349,
			"-0.007": 17.2642195613,
			"-0.006": 24.2324191208,
			"-0.005": 20.5994856733,
			"-0.004": 21.2823227019,
			"-0.003": 17.6516597459,
			"-0.002": 19.462426292,
			"-0.001": 19.6733741797,
			"0.0": 17.7203192415,
			"0.001": 20.4107169679,
			"0.002": 20.075412877,
			"0.003": 15.5075184025,
			"0.004": 14.1551503664,
			"0.005": 12.0943014176,
			"0.006": 8.87095992833,
			"0.007": 5.3583569233,
			"0.008": 5.27446046236,
			"0.009": 5.48137409923,
			"0.01": 8.84747874081,
			"0.011": 12.2842050583,
			"0.012": 5.73403116369,
			"0.013": 0.79768711269,
			"0.014": 0.0,
			"0.015": 0.0,
			"0.016": 0.0,
			"0.017": 0.0,
			"0.018": 0.0,
			"0.019": 0.0,
			"0.02": 0.0,
			"0.021": 0.0,
			"0.022": 0.0,
			"0.023": 0.0,
			"0.024": 0.0,
			"0.025": 0.0
		}
	}
}
