{
	 "smiles": "NC1=CC(=C(C=C1)N1CCOCC1)S(=O)(=O)NC1=C(Cl)C=CC(Cl)=C1", 
	 "Tm": 340.15, 
	 "num_atms": 42, 
	 "gaussian": { 
		 "optdone": 1, 
		 "sigma_profile": "yes", 
		 "theory": "DFT", 
		 "functional": "B3LYP", 
		 "basiset": "6-31G**", 
		 "properties": { 
			 "R2extent": 9618.7582, 
			 "electric_dipole_moment_norm": 6.1943483604, 
			 "electric_quadrupole_moment_norm": 20.4715153359, 
			 "total_energy": -2328.3402267, 
			 "HOMO_LUMO_gap": 0.16028, 
			 "cosmo_polarized_energy": -20.45, 
			 "cosmo_cavitation_energy": 47.63, 
			 "cosmo_dispersion_energy": -32.43, 
			 "cosmo_repulsion_energy": 2.41, 
			 "cosmo_total_nonelectrostatic_energy": 17.6, 
			 "SMD_solvation_energy": 6.37 
		},
		"coords": [
			{
				"x": -2.233208263,
				"y": -4.5013430355,
				"z": 2.6834317971,
				"element": "N" 
			},
			{
				"x": -1.4490683298,
				"y": -3.3944819627,
				"z": 2.3736120713,
				"element": "C" 
			},
			{
				"x": -1.8877851434,
				"y": -2.4408260252,
				"z": 1.4434517911,
				"element": "C" 
			},
			{
				"x": -1.1212935971,
				"y": -1.3056250156,
				"z": 1.1747637198,
				"element": "C" 
			},
			{
				"x": 0.1005613816,
				"y": -1.0468256688,
				"z": 1.8317448985,
				"element": "C" 
			},
			{
				"x": 0.5209944992,
				"y": -2.022022906,
				"z": 2.7519129071,
				"element": "C" 
			},
			{
				"x": -0.2214706538,
				"y": -3.1668805689,
				"z": 3.0167747312,
				"element": "C" 
			},
			{
				"x": 0.8438200951,
				"y": 0.136041919,
				"z": 1.5611180456,
				"element": "N" 
			},
			{
				"x": 2.3056212689,
				"y": -0.0208934888,
				"z": 1.4626120069,
				"element": "C" 
			},
			{
				"x": 2.9756514704,
				"y": 1.3453317845,
				"z": 1.5583145226,
				"element": "C" 
			},
			{
				"x": 2.7672156496,
				"y": 1.9520868508,
				"z": 2.8300958755,
				"element": "O" 
			},
			{
				"x": 1.4717006778,
				"y": 1.7118287164,
				"z": 3.3840905461,
				"element": "C" 
			},
			{
				"x": 0.4411981701,
				"y": 1.3499449508,
				"z": 2.3183676573,
				"element": "C" 
			},
			{
				"x": -1.7994640625,
				"y": -0.2093823166,
				"z": -0.0924128858,
				"element": "S" 
			},
			{
				"x": -1.8604368411,
				"y": 1.1701175889,
				"z": 0.3887500514,
				"element": "O" 
			},
			{
				"x": -2.9934030992,
				"y": -0.8754283536,
				"z": -0.6138321998,
				"element": "O" 
			},
			{
				"x": -0.7163969218,
				"y": -0.2539585594,
				"z": -1.3972441439,
				"element": "N" 
			},
			{
				"x": 0.3666425912,
				"y": 0.5908867661,
				"z": -1.6789159944,
				"element": "C" 
			},
			{
				"x": 1.5367112272,
				"y": 0.0657994115,
				"z": -2.2610429243,
				"element": "C" 
			},
			{
				"x": 1.6751779461,
				"y": -1.6687234574,
				"z": -2.5419537755,
				"element": "Cl" 
			},
			{
				"x": 2.5910974563,
				"y": 0.891251106,
				"z": -2.6440832953,
				"element": "C" 
			},
			{
				"x": 2.516016069,
				"y": 2.2661837067,
				"z": -2.4383733553,
				"element": "C" 
			},
			{
				"x": 1.3571785474,
				"y": 2.7893723378,
				"z": -1.8626547099,
				"element": "C" 
			},
			{
				"x": 1.2332144154,
				"y": 4.5236265111,
				"z": -1.6167318033,
				"element": "Cl" 
			},
			{
				"x": 0.2852758459,
				"y": 1.9824362349,
				"z": -1.4998156521,
				"element": "C" 
			},
			{
				"x": -1.7405458565,
				"y": -5.2986886026,
				"z": 3.0598474823,
				"element": "H" 
			},
			{
				"x": -2.9189977578,
				"y": -4.7626564295,
				"z": 1.9892421319,
				"element": "H" 
			},
			{
				"x": -2.8235202166,
				"y": -2.5778550553,
				"z": 0.9131801281,
				"element": "H" 
			},
			{
				"x": 1.4535188761,
				"y": -1.8771798496,
				"z": 3.2863727711,
				"element": "H" 
			},
			{
				"x": 0.144185967,
				"y": -3.886032682,
				"z": 3.7455997509,
				"element": "H" 
			},
			{
				"x": 2.7260653233,
				"y": -0.6485304127,
				"z": 2.2631018686,
				"element": "H" 
			},
			{
				"x": 2.556869753,
				"y": -0.4989830243,
				"z": 0.5083173836,
				"element": "H" 
			},
			{
				"x": 4.0581233921,
				"y": 1.2351823284,
				"z": 1.4400173068,
				"element": "H" 
			},
			{
				"x": 2.6146475359,
				"y": 1.9962055213,
				"z": 0.7491733527,
				"element": "H" 
			},
			{
				"x": 1.1670764498,
				"y": 2.6259899116,
				"z": 3.907271972,
				"element": "H" 
			},
			{
				"x": 1.5332015174,
				"y": 0.9061168495,
				"z": 4.133373048,
				"element": "H" 
			},
			{
				"x": -0.5320540926,
				"y": 1.1765602677,
				"z": 2.7805906894,
				"element": "H" 
			},
			{
				"x": 0.314335514,
				"y": 2.1878145643,
				"z": 1.6253649764,
				"element": "H" 
			},
			{
				"x": -0.6748434907,
				"y": -1.1798947121,
				"z": -1.808938102,
				"element": "H" 
			},
			{
				"x": 3.4722121639,
				"y": 0.4516956395,
				"z": -3.0981301765,
				"element": "H" 
			},
			{
				"x": 3.3333032548,
				"y": 2.9164069356,
				"z": -2.7265352503,
				"element": "H" 
			},
			{
				"x": -0.6155287325,
				"y": 2.4087322244,
				"z": -1.0808292147,
				"element": "H" 
			}
		],
		 "valence_orbital": [ 
			{
				"type": "occ",
				"energy": -0.25627,
				"method": "rhf"
			},
			{
				"type": "occ",
				"energy": -0.24644,
				"method": "rhf"
			},
			{
				"type": "occ",
				"energy": -0.23933,
				"method": "rhf"
			},
			{
				"type": "occ",
				"energy": -0.23609,
				"method": "rhf"
			},
			{
				"type": "occ",
				"energy": -0.20423,
				"method": "rhf"
			},
			{
				"type": "unocc",
				"energy": -0.04395,
				"method": "rhf"
			},
			{
				"type": "unocc",
				"energy": -0.02691,
				"method": "rhf"
			},
			{
				"type": "unocc",
				"energy": -0.01828,
				"method": "rhf"
			},
			{
				"type": "unocc",
				"energy": -0.00829,
				"method": "rhf"
			},
			{
				"type": "unocc",
				"energy": 0.0081,
				"method": "rhf"
			}
		],
		"cosmo_sigma_profile": { 
			"-0.025": 0.0,
			"-0.024": 0.0,
			"-0.023": 0.0,
			"-0.022": 0.0,
			"-0.021": 0.0,
			"-0.02": 0.0,
			"-0.019": 0.0,
			"-0.018": 0.0,
			"-0.017": 0.0,
			"-0.016": 0.0,
			"-0.015": 0.0,
			"-0.014": 0.339130227677,
			"-0.013": 2.5436727266,
			"-0.012": 3.97599206018,
			"-0.011": 3.00077115373,
			"-0.01": 4.86249132899,
			"-0.009": 4.67349812373,
			"-0.008": 6.55842484119,
			"-0.007": 9.93184311374,
			"-0.006": 11.9770116782,
			"-0.005": 16.8584436147,
			"-0.004": 22.7431941255,
			"-0.003": 25.9299410508,
			"-0.002": 30.3517111338,
			"-0.001": 36.0174157042,
			"0.0": 37.6057003631,
			"0.001": 30.0067127923,
			"0.002": 27.2132574521,
			"0.003": 27.1172803534,
			"0.004": 26.2173464947,
			"0.005": 10.9894863008,
			"0.006": 4.47870571083,
			"0.007": 5.66548462648,
			"0.008": 5.32463112254,
			"0.009": 5.7116173192,
			"0.01": 8.06423973061,
			"0.011": 7.85084498316,
			"0.012": 3.14471832924,
			"0.013": 2.20571356294,
			"0.014": 1.42866026048,
			"0.015": 0.0,
			"0.016": 0.0,
			"0.017": 0.0,
			"0.018": 0.0,
			"0.019": 0.0,
			"0.02": 0.0,
			"0.021": 0.0,
			"0.022": 0.0,
			"0.023": 0.0,
			"0.024": 0.0,
			"0.025": 0.0
		}
	}
}
