{
	 "smiles": "NC(=S)C1=C(O)C=CC=C1", 
	 "Tm": 392.15, 
	 "num_atms": 17, 
	 "gaussian": { 
		 "optdone": 1, 
		 "sigma_profile": "yes", 
		 "theory": "DFT", 
		 "functional": "B3LYP", 
		 "basiset": "6-31G**", 
		 "properties": { 
			 "R2extent": 2334.8243, 
			 "electric_dipole_moment_norm": 4.60605415187, 
			 "electric_quadrupole_moment_norm": 12.5212770714, 
			 "total_energy": -799.140259117, 
			 "HOMO_LUMO_gap": 0.15613, 
			 "cosmo_polarized_energy": -13.62, 
			 "cosmo_cavitation_energy": 22.1, 
			 "cosmo_dispersion_energy": -17.42, 
			 "cosmo_repulsion_energy": 1.35, 
			 "cosmo_total_nonelectrostatic_energy": 6.03, 
			 "SMD_solvation_energy": 3.31 
		},
		"coords": [
			{
				"x": -0.4118185879,
				"y": -1.578650911,
				"z": -1.4538397749,
				"element": "N" 
			},
			{
				"x": -1.2964638049,
				"y": -1.3747902086,
				"z": -0.4533161694,
				"element": "C" 
			},
			{
				"x": -2.5423484401,
				"y": -2.4998787889,
				"z": -0.2417143892,
				"element": "S" 
			},
			{
				"x": -1.0801972607,
				"y": -0.1834632745,
				"z": 0.3854352011,
				"element": "C" 
			},
			{
				"x": -2.1125628645,
				"y": 0.39525469,
				"z": 1.1824601079,
				"element": "C" 
			},
			{
				"x": -3.3456412439,
				"y": -0.1054501006,
				"z": 1.3125316047,
				"element": "O" 
			},
			{
				"x": -1.8571097448,
				"y": 1.5904487594,
				"z": 1.88335563,
				"element": "C" 
			},
			{
				"x": -0.6085790763,
				"y": 2.1853516643,
				"z": 1.8540592596,
				"element": "C" 
			},
			{
				"x": 0.4365460281,
				"y": 1.6008196051,
				"z": 1.1218401025,
				"element": "C" 
			},
			{
				"x": 0.1908723747,
				"y": 0.4435182958,
				"z": 0.4048441264,
				"element": "C" 
			},
			{
				"x": -0.5604392774,
				"y": -2.3725241858,
				"z": -2.0593153362,
				"element": "H" 
			},
			{
				"x": 0.2132425136,
				"y": -0.8506397828,
				"z": -1.7630332489,
				"element": "H" 
			},
			{
				"x": -3.3770994402,
				"y": -0.9986897423,
				"z": 0.8816982112,
				"element": "H" 
			},
			{
				"x": -2.6745908783,
				"y": 2.0114168463,
				"z": 2.4586672163,
				"element": "H" 
			},
			{
				"x": -0.4357347281,
				"y": 3.098440333,
				"z": 2.4164896206,
				"element": "H" 
			},
			{
				"x": 1.4280754335,
				"y": 2.0413053273,
				"z": 1.124982487,
				"element": "H" 
			},
			{
				"x": 1.0183489972,
				"y": -0.0245685267,
				"z": -0.1195446489,
				"element": "H" 
			}
		],
		 "valence_orbital": [ 
			{
				"type": "occ",
				"energy": -0.33956,
				"method": "rhf"
			},
			{
				"type": "occ",
				"energy": -0.26906,
				"method": "rhf"
			},
			{
				"type": "occ",
				"energy": -0.24396,
				"method": "rhf"
			},
			{
				"type": "occ",
				"energy": -0.23065,
				"method": "rhf"
			},
			{
				"type": "occ",
				"energy": -0.2252,
				"method": "rhf"
			},
			{
				"type": "unocc",
				"energy": -0.06907,
				"method": "rhf"
			},
			{
				"type": "unocc",
				"energy": -0.00202,
				"method": "rhf"
			},
			{
				"type": "unocc",
				"energy": 0.0223,
				"method": "rhf"
			},
			{
				"type": "unocc",
				"energy": 0.06454,
				"method": "rhf"
			},
			{
				"type": "unocc",
				"energy": 0.07198,
				"method": "rhf"
			}
		],
		"cosmo_sigma_profile": { 
			"-0.025": 0.0,
			"-0.024": 0.0,
			"-0.023": 0.0,
			"-0.022": 0.0,
			"-0.021": 0.0,
			"-0.02": 0.0,
			"-0.019": 0.0,
			"-0.018": 0.0,
			"-0.017": 0.0,
			"-0.016": 0.736171672288,
			"-0.015": 1.83586269998,
			"-0.014": 2.95969799942,
			"-0.013": 2.53155385851,
			"-0.012": 2.40945029557,
			"-0.011": 2.06102820877,
			"-0.01": 2.38970682502,
			"-0.009": 1.56155570077,
			"-0.008": 1.88811232364,
			"-0.007": 3.61985173481,
			"-0.006": 8.42616086065,
			"-0.005": 10.3437619138,
			"-0.004": 8.70422380514,
			"-0.003": 7.74660905941,
			"-0.002": 7.76001022133,
			"-0.001": 8.86799528607,
			"0.0": 9.7728998043,
			"0.001": 13.6362244846,
			"0.002": 15.1966082451,
			"0.003": 17.2212524944,
			"0.004": 14.2671265089,
			"0.005": 6.79657480996,
			"0.006": 5.07608696868,
			"0.007": 4.63790336876,
			"0.008": 6.70205069828,
			"0.009": 6.64774639583,
			"0.01": 3.74069295332,
			"0.011": 2.00500550237,
			"0.012": 0.0848766992498,
			"0.013": 0.0,
			"0.014": 0.0,
			"0.015": 0.0,
			"0.016": 0.0,
			"0.017": 0.0,
			"0.018": 0.0,
			"0.019": 0.0,
			"0.02": 0.0,
			"0.021": 0.0,
			"0.022": 0.0,
			"0.023": 0.0,
			"0.024": 0.0,
			"0.025": 0.0
		}
	}
}
