{
	 "smiles": "CC(C)N1CSC2=NN=C(N2C1)C1=CC=C(C=C1)[N+]([O-])=O", 
	 "Tm": 533.15, 
	 "num_atms": 36, 
	 "gaussian": { 
		 "optdone": 1, 
		 "sigma_profile": "yes", 
		 "theory": "DFT", 
		 "functional": "B3LYP", 
		 "basiset": "6-31G**", 
		 "properties": { 
			 "R2extent": 8972.0642, 
			 "electric_dipole_moment_norm": 8.4009621943, 
			 "electric_quadrupole_moment_norm": 26.8700472763, 
			 "total_energy": -1326.68106012, 
			 "HOMO_LUMO_gap": 0.1285, 
			 "cosmo_polarized_energy": -24.67, 
			 "cosmo_cavitation_energy": 40.77, 
			 "cosmo_dispersion_energy": -29.14, 
			 "cosmo_repulsion_energy": 2.16, 
			 "cosmo_total_nonelectrostatic_energy": 13.79, 
			 "SMD_solvation_energy": 4.44 
		},
		"coords": [
			{
				"x": -1.2636010053,
				"y": 3.9298399234,
				"z": -1.5955302485,
				"element": "C" 
			},
			{
				"x": 0.2151180435,
				"y": 3.5076383087,
				"z": -1.6742002881,
				"element": "C" 
			},
			{
				"x": 0.439533508,
				"y": 2.408838174,
				"z": -2.7194527307,
				"element": "C" 
			},
			{
				"x": 0.8084115792,
				"y": 3.1299128619,
				"z": -0.3698798806,
				"element": "N" 
			},
			{
				"x": 1.0715838083,
				"y": 4.2186650935,
				"z": 0.5409696168,
				"element": "C" 
			},
			{
				"x": 2.5506404952,
				"y": 3.8546000366,
				"z": 1.6020164691,
				"element": "S" 
			},
			{
				"x": 2.190610609,
				"y": 2.1581933007,
				"z": 1.8824336153,
				"element": "C" 
			},
			{
				"x": 2.9165187249,
				"y": 1.3676671683,
				"z": 2.6456754476,
				"element": "N" 
			},
			{
				"x": 2.3586112509,
				"y": 0.1197829214,
				"z": 2.5743468705,
				"element": "N" 
			},
			{
				"x": 1.3065216363,
				"y": 0.1757149746,
				"z": 1.779227132,
				"element": "C" 
			},
			{
				"x": 1.154905564,
				"y": 1.4696535419,
				"z": 1.3024964987,
				"element": "N" 
			},
			{
				"x": 0.2121112015,
				"y": 2.0039124002,
				"z": 0.308814096,
				"element": "C" 
			},
			{
				"x": 0.4641174546,
				"y": -0.9825960025,
				"z": 1.474681837,
				"element": "C" 
			},
			{
				"x": -0.9012334869,
				"y": -0.8818845796,
				"z": 1.1485805457,
				"element": "C" 
			},
			{
				"x": -1.6549074864,
				"y": -2.0204478837,
				"z": 0.8814372028,
				"element": "C" 
			},
			{
				"x": -1.0389687977,
				"y": -3.266965981,
				"z": 0.9536746579,
				"element": "C" 
			},
			{
				"x": 0.3069551007,
				"y": -3.402931249,
				"z": 1.2979964414,
				"element": "C" 
			},
			{
				"x": 1.0523950552,
				"y": -2.2613083997,
				"z": 1.5548806572,
				"element": "C" 
			},
			{
				"x": -1.8312496231,
				"y": -4.4698418315,
				"z": 0.6661126552,
				"element": "N" 
			},
			{
				"x": -3.0141597156,
				"y": -4.3147843451,
				"z": 0.3598159413,
				"element": "O" 
			},
			{
				"x": -1.26461167,
				"y": -5.5592781248,
				"z": 0.7472746279,
				"element": "O" 
			},
			{
				"x": -1.90822845,
				"y": 3.0883549209,
				"z": -1.3175514751,
				"element": "H" 
			},
			{
				"x": -1.4177750099,
				"y": 4.7318308724,
				"z": -0.8662049787,
				"element": "H" 
			},
			{
				"x": -1.6072615171,
				"y": 4.2955005153,
				"z": -2.5682443276,
				"element": "H" 
			},
			{
				"x": 0.7998213169,
				"y": 4.3784962885,
				"z": -1.9941594043,
				"element": "H" 
			},
			{
				"x": 0.1757477597,
				"y": 2.7850948895,
				"z": -3.7123959068,
				"element": "H" 
			},
			{
				"x": 1.4871828454,
				"y": 2.0977682457,
				"z": -2.7317178049,
				"element": "H" 
			},
			{
				"x": -0.1837293845,
				"y": 1.5262481363,
				"z": -2.5384342618,
				"element": "H" 
			},
			{
				"x": 1.3377483876,
				"y": 5.1195431236,
				"z": -0.0145055747,
				"element": "H" 
			},
			{
				"x": 0.2261318021,
				"y": 4.4530254582,
				"z": 1.2062141311,
				"element": "H" 
			},
			{
				"x": -0.726322719,
				"y": 2.264100012,
				"z": 0.8322017185,
				"element": "H" 
			},
			{
				"x": -0.0036916095,
				"y": 1.2112479195,
				"z": -0.4081452897,
				"element": "H" 
			},
			{
				"x": -1.3958660061,
				"y": 0.0825849971,
				"z": 1.1382465009,
				"element": "H" 
			},
			{
				"x": -2.7071359396,
				"y": -1.9609877573,
				"z": 0.6333989176,
				"element": "H" 
			},
			{
				"x": 0.7455690081,
				"y": -4.3915063075,
				"z": 1.3502634666,
				"element": "H" 
			},
			{
				"x": 2.0997072694,
				"y": -2.3336816227,
				"z": 1.8241631246,
				"element": "H" 
			}
		],
		 "valence_orbital": [ 
			{
				"type": "occ",
				"energy": -0.28501,
				"method": "rhf"
			},
			{
				"type": "occ",
				"energy": -0.28093,
				"method": "rhf"
			},
			{
				"type": "occ",
				"energy": -0.26041,
				"method": "rhf"
			},
			{
				"type": "occ",
				"energy": -0.25536,
				"method": "rhf"
			},
			{
				"type": "occ",
				"energy": -0.22447,
				"method": "rhf"
			},
			{
				"type": "unocc",
				"energy": -0.09597,
				"method": "rhf"
			},
			{
				"type": "unocc",
				"energy": -0.03374,
				"method": "rhf"
			},
			{
				"type": "unocc",
				"energy": -0.0266,
				"method": "rhf"
			},
			{
				"type": "unocc",
				"energy": -0.00137,
				"method": "rhf"
			},
			{
				"type": "unocc",
				"energy": 0.02148,
				"method": "rhf"
			}
		],
		"cosmo_sigma_profile": { 
			"-0.025": 0.0,
			"-0.024": 0.0,
			"-0.023": 0.0,
			"-0.022": 0.0,
			"-0.021": 0.0,
			"-0.02": 0.0,
			"-0.019": 0.0,
			"-0.018": 0.0,
			"-0.017": 0.0,
			"-0.016": 0.0,
			"-0.015": 0.0,
			"-0.014": 0.0,
			"-0.013": 0.0,
			"-0.012": 0.0,
			"-0.011": 0.0141226583818,
			"-0.01": 0.785290400079,
			"-0.009": 3.95620474886,
			"-0.008": 11.7189040799,
			"-0.007": 17.9429814502,
			"-0.006": 18.2922420091,
			"-0.005": 19.2637562328,
			"-0.004": 21.5107420081,
			"-0.003": 24.341006546,
			"-0.002": 24.3897127934,
			"-0.001": 27.8833219779,
			"0.0": 30.2543776623,
			"0.001": 25.9997294619,
			"0.002": 12.5019260295,
			"0.003": 8.4769885796,
			"0.004": 10.3818745773,
			"0.005": 9.39828935315,
			"0.006": 8.82105941241,
			"0.007": 12.5211187454,
			"0.008": 11.3820834792,
			"0.009": 6.55357269293,
			"0.01": 5.1001918143,
			"0.011": 2.10858236218,
			"0.012": 3.11282789822,
			"0.013": 3.62270888911,
			"0.014": 2.53745049702,
			"0.015": 2.17131108392,
			"0.016": 1.03183457117,
			"0.017": 0.181886050715,
			"0.018": 0.0,
			"0.019": 0.0,
			"0.02": 0.0,
			"0.021": 0.0,
			"0.022": 0.0,
			"0.023": 0.0,
			"0.024": 0.0,
			"0.025": 0.0
		}
	}
}
