{
	 "smiles": "FC(F)(F)COC(=O)NC1=CC=NC=C1", 
	 "Tm": 467.15, 
	 "num_atms": 22, 
	 "gaussian": { 
		 "optdone": 1, 
		 "sigma_profile": "yes", 
		 "theory": "DFT", 
		 "functional": "B3LYP", 
		 "basiset": "6-31G**", 
		 "properties": { 
			 "R2extent": 5266.2593, 
			 "electric_dipole_moment_norm": 3.26001695394, 
			 "electric_quadrupole_moment_norm": 10.8848370842, 
			 "total_energy": -868.56275169, 
			 "HOMO_LUMO_gap": 0.22377, 
			 "cosmo_polarized_energy": -13.26, 
			 "cosmo_cavitation_energy": 28.85, 
			 "cosmo_dispersion_energy": -20.66, 
			 "cosmo_repulsion_energy": 1.56, 
			 "cosmo_total_nonelectrostatic_energy": 9.76, 
			 "SMD_solvation_energy": 5.72 
		},
		"coords": [
			{
				"x": -2.676415342,
				"y": -3.5566713139,
				"z": -0.7714754166,
				"element": "F" 
			},
			{
				"x": -3.1125418469,
				"y": -2.2895762824,
				"z": -0.9038115413,
				"element": "C" 
			},
			{
				"x": -4.4522405664,
				"y": -2.2912396013,
				"z": -0.7477472711,
				"element": "F" 
			},
			{
				"x": -2.8306802191,
				"y": -1.8874999238,
				"z": -2.1564109578,
				"element": "F" 
			},
			{
				"x": -2.4861059374,
				"y": -1.3673879952,
				"z": 0.1290680753,
				"element": "C" 
			},
			{
				"x": -1.0742263942,
				"y": -1.3472762014,
				"z": -0.0459028133,
				"element": "O" 
			},
			{
				"x": -0.5597976695,
				"y": -0.2266918477,
				"z": -0.6513076559,
				"element": "C" 
			},
			{
				"x": -1.2027504303,
				"y": 0.7614844998,
				"z": -0.9321340158,
				"element": "O" 
			},
			{
				"x": 0.7797105623,
				"y": -0.4344491967,
				"z": -0.8461744791,
				"element": "N" 
			},
			{
				"x": 1.7153527416,
				"y": 0.4514327329,
				"z": -1.4011879703,
				"element": "C" 
			},
			{
				"x": 3.0471750437,
				"y": 0.0234792372,
				"z": -1.4993296989,
				"element": "C" 
			},
			{
				"x": 3.9898683614,
				"y": 0.8877822819,
				"z": -2.0462682338,
				"element": "C" 
			},
			{
				"x": 3.7101865725,
				"y": 2.1191436177,
				"z": -2.4923438046,
				"element": "N" 
			},
			{
				"x": 2.4332470117,
				"y": 2.5090175867,
				"z": -2.3905822415,
				"element": "C" 
			},
			{
				"x": 1.3997741633,
				"y": 1.7359933398,
				"z": -1.8626840552,
				"element": "C" 
			},
			{
				"x": -2.695350819,
				"y": -1.7587632814,
				"z": 1.12644047,
				"element": "H" 
			},
			{
				"x": -2.90251352,
				"y": -0.3652411557,
				"z": 0.013998959,
				"element": "H" 
			},
			{
				"x": 1.1215334813,
				"y": -1.3389506906,
				"z": -0.5522906296,
				"element": "H" 
			},
			{
				"x": 3.3430696698,
				"y": -0.9644021059,
				"z": -1.1560583279,
				"element": "H" 
			},
			{
				"x": 5.0274548235,
				"y": 0.5687932295,
				"z": -2.1286789707,
				"element": "H" 
			},
			{
				"x": 2.2100772933,
				"y": 3.5102710583,
				"z": -2.7550452897,
				"element": "H" 
			},
			{
				"x": 0.3879730204,
				"y": 2.1118520126,
				"z": -1.8111741313,
				"element": "H" 
			}
		],
		 "valence_orbital": [ 
			{
				"type": "occ",
				"energy": -0.32622,
				"method": "rhf"
			},
			{
				"type": "occ",
				"energy": -0.30743,
				"method": "rhf"
			},
			{
				"type": "occ",
				"energy": -0.26711,
				"method": "rhf"
			},
			{
				"type": "occ",
				"energy": -0.25618,
				"method": "rhf"
			},
			{
				"type": "occ",
				"energy": -0.25374,
				"method": "rhf"
			},
			{
				"type": "unocc",
				"energy": -0.02997,
				"method": "rhf"
			},
			{
				"type": "unocc",
				"energy": -0.01509,
				"method": "rhf"
			},
			{
				"type": "unocc",
				"energy": 0.03893,
				"method": "rhf"
			},
			{
				"type": "unocc",
				"energy": 0.0663,
				"method": "rhf"
			},
			{
				"type": "unocc",
				"energy": 0.07819,
				"method": "rhf"
			}
		],
		"cosmo_sigma_profile": { 
			"-0.025": 0.0,
			"-0.024": 0.0,
			"-0.023": 0.0,
			"-0.022": 0.0,
			"-0.021": 0.0,
			"-0.02": 0.0,
			"-0.019": 0.0,
			"-0.018": 0.0,
			"-0.017": 0.194925580336,
			"-0.016": 0.92562278316,
			"-0.015": 1.16515310218,
			"-0.014": 1.06282995461,
			"-0.013": 1.55671847681,
			"-0.012": 0.696802907998,
			"-0.011": 1.07900083304,
			"-0.01": 2.35640668203,
			"-0.009": 4.08965471437,
			"-0.008": 5.69550235874,
			"-0.007": 7.21938444397,
			"-0.006": 10.4113467897,
			"-0.005": 11.5794967898,
			"-0.004": 9.08841080281,
			"-0.003": 10.5027091174,
			"-0.002": 11.9194452031,
			"-0.001": 12.8592042421,
			"0.0": 14.3923972403,
			"0.001": 20.1058261898,
			"0.002": 40.7379365892,
			"0.003": 29.3962696838,
			"0.004": 5.77061019058,
			"0.005": 5.28017937634,
			"0.006": 3.18575095705,
			"0.007": 2.26362349871,
			"0.008": 3.835348547,
			"0.009": 2.9866530546,
			"0.01": 3.34572816968,
			"0.011": 2.68002225056,
			"0.012": 0.660333767063,
			"0.013": 1.22033785844,
			"0.014": 0.915373666394,
			"0.015": 0.851537239345,
			"0.016": 0.81057178833,
			"0.017": 0.745340293528,
			"0.018": 0.0,
			"0.019": 0.0,
			"0.02": 0.0,
			"0.021": 0.0,
			"0.022": 0.0,
			"0.023": 0.0,
			"0.024": 0.0,
			"0.025": 0.0
		}
	}
}
