{
	 "smiles": "[O-][N+](=O)C1=C(Br)N=CC=C1", 
	 "Tm": 396.65, 
	 "num_atms": 13, 
	 "gaussian": { 
		 "optdone": 1, 
		 "sigma_profile": "yes", 
		 "theory": "DFT", 
		 "functional": "B3LYP", 
		 "basiset": "6-31G**", 
		 "properties": { 
			 "R2extent": 2048.8419, 
			 "electric_dipole_moment_norm": 4.37064169659, 
			 "electric_quadrupole_moment_norm": 11.9121131186, 
			 "total_energy": -3023.56907792, 
			 "HOMO_LUMO_gap": 0.17607, 
			 "cosmo_polarized_energy": -10.25, 
			 "cosmo_cavitation_energy": 20.75, 
			 "cosmo_dispersion_energy": -15.88, 
			 "cosmo_repulsion_energy": 1.29, 
			 "cosmo_total_nonelectrostatic_energy": 6.16, 
			 "SMD_solvation_energy": 3.55 
		},
		"coords": [
			{
				"x": 1.2259326222,
				"y": -0.035109034,
				"z": -2.1165737474,
				"element": "O" 
			},
			{
				"x": 1.0533347868,
				"y": 0.5721717436,
				"z": -1.0594598921,
				"element": "N" 
			},
			{
				"x": 1.0529152159,
				"y": 1.7900164758,
				"z": -0.9303735697,
				"element": "O" 
			},
			{
				"x": 0.8739384543,
				"y": -0.2549136301,
				"z": 0.1465888928,
				"element": "C" 
			},
			{
				"x": 0.0802558921,
				"y": 0.1044166529,
				"z": 1.2502104209,
				"element": "C" 
			},
			{
				"x": -1.0000206099,
				"y": 1.6723570251,
				"z": 1.2893035373,
				"element": "Br" 
			},
			{
				"x": -0.0160556101,
				"y": -0.6687170969,
				"z": 2.3195858098,
				"element": "N" 
			},
			{
				"x": 0.6649098898,
				"y": -1.8193535291,
				"z": 2.3577604714,
				"element": "C" 
			},
			{
				"x": 1.4574668867,
				"y": -2.2733388481,
				"z": 1.3043925116,
				"element": "C" 
			},
			{
				"x": 1.5520295349,
				"y": -1.4724701405,
				"z": 0.1725951854,
				"element": "C" 
			},
			{
				"x": 0.5612876094,
				"y": -2.4002572434,
				"z": 3.2711239129,
				"element": "H" 
			},
			{
				"x": 1.9810380861,
				"y": -3.2206706008,
				"z": 1.3676895295,
				"element": "H" 
			},
			{
				"x": 2.1379672418,
				"y": -1.7597317744,
				"z": -0.6925430623,
				"element": "H" 
			}
		],
		 "valence_orbital": [ 
			{
				"type": "occ",
				"energy": -0.32226,
				"method": "rhf"
			},
			{
				"type": "occ",
				"energy": -0.30633,
				"method": "rhf"
			},
			{
				"type": "occ",
				"energy": -0.29535,
				"method": "rhf"
			},
			{
				"type": "occ",
				"energy": -0.28296,
				"method": "rhf"
			},
			{
				"type": "occ",
				"energy": -0.27755,
				"method": "rhf"
			},
			{
				"type": "unocc",
				"energy": -0.10148,
				"method": "rhf"
			},
			{
				"type": "unocc",
				"energy": -0.06055,
				"method": "rhf"
			},
			{
				"type": "unocc",
				"energy": -0.03231,
				"method": "rhf"
			},
			{
				"type": "unocc",
				"energy": -0.00828,
				"method": "rhf"
			},
			{
				"type": "unocc",
				"energy": 0.07987,
				"method": "rhf"
			}
		],
		"cosmo_sigma_profile": { 
			"-0.025": 0.0,
			"-0.024": 0.0,
			"-0.023": 0.0,
			"-0.022": 0.0,
			"-0.021": 0.0,
			"-0.02": 0.0,
			"-0.019": 0.0,
			"-0.018": 0.0,
			"-0.017": 0.0,
			"-0.016": 0.0,
			"-0.015": 0.0,
			"-0.014": 0.0,
			"-0.013": 0.0,
			"-0.012": 0.0,
			"-0.011": 0.0,
			"-0.01": 0.486454765644,
			"-0.009": 5.90049185815,
			"-0.008": 9.37490950746,
			"-0.007": 8.01401830435,
			"-0.006": 7.13741053094,
			"-0.005": 7.57884372697,
			"-0.004": 9.7287074224,
			"-0.003": 12.4908246194,
			"-0.002": 12.4109086133,
			"-0.001": 13.7939398527,
			"0.0": 8.38672807684,
			"0.001": 7.57305719564,
			"0.002": 8.87454481848,
			"0.003": 10.0417781276,
			"0.004": 8.25187699049,
			"0.005": 6.3111549298,
			"0.006": 8.0151197062,
			"0.007": 12.1675235768,
			"0.008": 7.28270568298,
			"0.009": 3.94975107147,
			"0.01": 1.17387069593,
			"0.011": 0.94934533674,
			"0.012": 0.768389187603,
			"0.013": 0.422855132415,
			"0.014": 0.0166461667098,
			"0.015": 0.0,
			"0.016": 0.0,
			"0.017": 0.0,
			"0.018": 0.0,
			"0.019": 0.0,
			"0.02": 0.0,
			"0.021": 0.0,
			"0.022": 0.0,
			"0.023": 0.0,
			"0.024": 0.0,
			"0.025": 0.0
		}
	}
}
