{
	 "smiles": "NS(=O)(=O)C1=CC=CC=C1[N+]([O-])=O", 
	 "Tm": 464.15, 
	 "num_atms": 19, 
	 "gaussian": { 
		 "optdone": 1, 
		 "sigma_profile": "yes", 
		 "theory": "DFT", 
		 "functional": "B3LYP", 
		 "basiset": "6-31G**", 
		 "properties": { 
			 "R2extent": 2624.7576, 
			 "electric_dipole_moment_norm": 7.15229435915, 
			 "electric_quadrupole_moment_norm": 17.9276858066, 
			 "total_energy": -1040.65036212, 
			 "HOMO_LUMO_gap": 0.18822, 
			 "cosmo_polarized_energy": -21.08, 
			 "cosmo_cavitation_energy": 25.25, 
			 "cosmo_dispersion_energy": -19.21, 
			 "cosmo_repulsion_energy": 1.47, 
			 "cosmo_total_nonelectrostatic_energy": 7.51, 
			 "SMD_solvation_energy": 6.22 
		},
		"coords": [
			{
				"x": 0.0508226273,
				"y": 2.3375409966,
				"z": 2.3392999694,
				"element": "N" 
			},
			{
				"x": 1.2019670933,
				"y": 1.5548845292,
				"z": 1.3700491854,
				"element": "S" 
			},
			{
				"x": 1.4661544784,
				"y": 2.4262430999,
				"z": 0.2257500634,
				"element": "O" 
			},
			{
				"x": 2.2339544957,
				"y": 1.0836295395,
				"z": 2.2903083316,
				"element": "O" 
			},
			{
				"x": 0.2385927804,
				"y": 0.1335407206,
				"z": 0.7589467983,
				"element": "C" 
			},
			{
				"x": -0.9620237402,
				"y": -0.1901343913,
				"z": 1.3950528362,
				"element": "C" 
			},
			{
				"x": -1.7525990299,
				"y": -1.247587256,
				"z": 0.9396698432,
				"element": "C" 
			},
			{
				"x": -1.3651402825,
				"y": -1.9846309032,
				"z": -0.1766602754,
				"element": "C" 
			},
			{
				"x": -0.1765903487,
				"y": -1.6684510163,
				"z": -0.830575424,
				"element": "C" 
			},
			{
				"x": 0.6219966216,
				"y": -0.6312758264,
				"z": -0.3561545211,
				"element": "C" 
			},
			{
				"x": 1.9010306712,
				"y": -0.4236682316,
				"z": -1.0642372651,
				"element": "N" 
			},
			{
				"x": 2.8341040287,
				"y": 0.0357577429,
				"z": -0.4161772897,
				"element": "O" 
			},
			{
				"x": 1.9503579487,
				"y": -0.764844114,
				"z": -2.2441820744,
				"element": "O" 
			},
			{
				"x": 0.4611203485,
				"y": 2.4921651761,
				"z": 3.2564498184,
				"element": "H" 
			},
			{
				"x": -0.2201075,
				"y": 3.2124343293,
				"z": 1.8980150795,
				"element": "H" 
			},
			{
				"x": -1.2799833383,
				"y": 0.4105379923,
				"z": 2.2373402548,
				"element": "H" 
			},
			{
				"x": -2.6771573014,
				"y": -1.4817785563,
				"z": 1.4579138773,
				"element": "H" 
			},
			{
				"x": -1.9797424159,
				"y": -2.8014083426,
				"z": -0.5408136174,
				"element": "H" 
			},
			{
				"x": 0.156742863,
				"y": -2.2138554887,
				"z": -1.7046955902,
				"element": "H" 
			}
		],
		 "valence_orbital": [ 
			{
				"type": "occ",
				"energy": -0.31145,
				"method": "rhf"
			},
			{
				"type": "occ",
				"energy": -0.30862,
				"method": "rhf"
			},
			{
				"type": "occ",
				"energy": -0.29677,
				"method": "rhf"
			},
			{
				"type": "occ",
				"energy": -0.28711,
				"method": "rhf"
			},
			{
				"type": "occ",
				"energy": -0.28513,
				"method": "rhf"
			},
			{
				"type": "unocc",
				"energy": -0.09691,
				"method": "rhf"
			},
			{
				"type": "unocc",
				"energy": -0.05058,
				"method": "rhf"
			},
			{
				"type": "unocc",
				"energy": -0.02116,
				"method": "rhf"
			},
			{
				"type": "unocc",
				"energy": 0.02954,
				"method": "rhf"
			},
			{
				"type": "unocc",
				"energy": 0.05918,
				"method": "rhf"
			}
		],
		"cosmo_sigma_profile": { 
			"-0.025": 0.0,
			"-0.024": 0.0,
			"-0.023": 0.0,
			"-0.022": 0.0,
			"-0.021": 0.0,
			"-0.02": 0.0,
			"-0.019": 0.0,
			"-0.018": 0.0,
			"-0.017": 0.0,
			"-0.016": 0.0180454999897,
			"-0.015": 1.7806136312,
			"-0.014": 2.45477664404,
			"-0.013": 2.76430919411,
			"-0.012": 2.64143813138,
			"-0.011": 1.44976106875,
			"-0.01": 1.66887039144,
			"-0.009": 3.65284101227,
			"-0.008": 9.58998979429,
			"-0.007": 11.536951432,
			"-0.006": 9.83973794391,
			"-0.005": 8.50837243171,
			"-0.004": 9.69049751504,
			"-0.003": 9.35170758859,
			"-0.002": 11.7818819671,
			"-0.001": 14.7800078779,
			"0.0": 15.961897108,
			"0.001": 11.3142805369,
			"0.002": 4.45851656207,
			"0.003": 4.27247675169,
			"0.004": 4.54619608791,
			"0.005": 5.06060908053,
			"0.006": 5.36125023318,
			"0.007": 11.1604052955,
			"0.008": 9.60693188674,
			"0.009": 7.90119498885,
			"0.01": 11.8528201938,
			"0.011": 8.17653560393,
			"0.012": 1.27634611312,
			"0.013": 0.0,
			"0.014": 0.0,
			"0.015": 0.0,
			"0.016": 0.0,
			"0.017": 0.0,
			"0.018": 0.0,
			"0.019": 0.0,
			"0.02": 0.0,
			"0.021": 0.0,
			"0.022": 0.0,
			"0.023": 0.0,
			"0.024": 0.0,
			"0.025": 0.0
		}
	}
}
