{
	 "smiles": "O=C1CCC(C2CCN(CC3=CC=CC=C3)CC2)(C(=O)N1)C1=CC=CC=C1", 
	 "Tm": 429.15, 
	 "num_atms": 53, 
	 "gaussian": { 
		 "optdone": 1, 
		 "sigma_profile": "yes", 
		 "theory": "DFT", 
		 "functional": "B3LYP", 
		 "basiset": "6-31G**", 
		 "properties": { 
			 "R2extent": 12369.5641, 
			 "electric_dipole_moment_norm": 2.64017105885, 
			 "electric_quadrupole_moment_norm": 16.7604713042, 
			 "total_energy": -1152.08509195, 
			 "HOMO_LUMO_gap": 0.17046, 
			 "cosmo_polarized_energy": -17.05, 
			 "cosmo_cavitation_energy": 51.24, 
			 "cosmo_dispersion_energy": -35.4, 
			 "cosmo_repulsion_energy": 2.65, 
			 "cosmo_total_nonelectrostatic_energy": 18.5, 
			 "SMD_solvation_energy": 6.77 
		},
		"coords": [
			{
				"x": -3.3024129185,
				"y": 1.5843315187,
				"z": 3.8471700812,
				"element": "O" 
			},
			{
				"x": -2.4187946212,
				"y": 1.7048023092,
				"z": 3.0207064296,
				"element": "C" 
			},
			{
				"x": -0.9414751396,
				"y": 1.7192058662,
				"z": 3.3417217254,
				"element": "C" 
			},
			{
				"x": -0.0988482783,
				"y": 2.4010443162,
				"z": 2.2593800462,
				"element": "C" 
			},
			{
				"x": -0.3945577527,
				"y": 2.0107714241,
				"z": 0.7742549094,
				"element": "C" 
			},
			{
				"x": 0.227366382,
				"y": 0.6097560483,
				"z": 0.3653413342,
				"element": "C" 
			},
			{
				"x": 0.3570397408,
				"y": 0.4365505928,
				"z": -1.1718047718,
				"element": "C" 
			},
			{
				"x": 0.5177240053,
				"y": -1.0480751154,
				"z": -1.5714046552,
				"element": "C" 
			},
			{
				"x": 1.1930810183,
				"y": -1.7749253999,
				"z": -0.4985792969,
				"element": "N" 
			},
			{
				"x": 1.8780532989,
				"y": -3.0112723387,
				"z": -0.8847932319,
				"element": "C" 
			},
			{
				"x": 1.0030221338,
				"y": -4.1690657509,
				"z": -1.3525977355,
				"element": "C" 
			},
			{
				"x": 0.575283707,
				"y": -5.1570589941,
				"z": -0.4544584857,
				"element": "C" 
			},
			{
				"x": -0.2546070478,
				"y": -6.1995511401,
				"z": -0.8717720671,
				"element": "C" 
			},
			{
				"x": -0.6691108885,
				"y": -6.2726625124,
				"z": -2.2024004191,
				"element": "C" 
			},
			{
				"x": -0.2436300695,
				"y": -5.3015794774,
				"z": -3.111458002,
				"element": "C" 
			},
			{
				"x": 0.5855267523,
				"y": -4.2621887321,
				"z": -2.6883191252,
				"element": "C" 
			},
			{
				"x": 0.3473154992,
				"y": -1.9035247268,
				"z": 0.6882630294,
				"element": "C" 
			},
			{
				"x": -0.5065283885,
				"y": -0.6351877451,
				"z": 0.9027745813,
				"element": "C" 
			},
			{
				"x": -1.9081908172,
				"y": 1.9139410226,
				"z": 0.5415037652,
				"element": "C" 
			},
			{
				"x": -2.4281060561,
				"y": 1.8760201323,
				"z": -0.5624312992,
				"element": "O" 
			},
			{
				"x": -2.7320800848,
				"y": 1.81321715,
				"z": 1.6643384867,
				"element": "N" 
			},
			{
				"x": 0.2430865061,
				"y": 3.138531587,
				"z": -0.0726693334,
				"element": "C" 
			},
			{
				"x": 1.6415086406,
				"y": 3.2810666465,
				"z": -0.0468905255,
				"element": "C" 
			},
			{
				"x": 2.2785362576,
				"y": 4.3208490925,
				"z": -0.7220278945,
				"element": "C" 
			},
			{
				"x": 1.5290752836,
				"y": 5.2558617807,
				"z": -1.4376772199,
				"element": "C" 
			},
			{
				"x": 0.1418041877,
				"y": 5.1309965769,
				"z": -1.4683103301,
				"element": "C" 
			},
			{
				"x": -0.4956317858,
				"y": 4.0852623733,
				"z": -0.7948853235,
				"element": "C" 
			},
			{
				"x": -0.6353265114,
				"y": 0.681893742,
				"z": 3.5140993698,
				"element": "H" 
			},
			{
				"x": -0.8277503932,
				"y": 2.2296377157,
				"z": 4.3022359979,
				"element": "H" 
			},
			{
				"x": 0.9630203071,
				"y": 2.2350962944,
				"z": 2.4615580215,
				"element": "H" 
			},
			{
				"x": -0.2565393172,
				"y": 3.4817028606,
				"z": 2.3444434562,
				"element": "H" 
			},
			{
				"x": 1.2366587722,
				"y": 0.5987436852,
				"z": 0.7940330918,
				"element": "H" 
			},
			{
				"x": -0.5276191124,
				"y": 0.8520463964,
				"z": -1.6627168627,
				"element": "H" 
			},
			{
				"x": 1.2198393356,
				"y": 1.0062818786,
				"z": -1.5246627665,
				"element": "H" 
			},
			{
				"x": 1.1316746977,
				"y": -1.1164265889,
				"z": -2.4757532925,
				"element": "H" 
			},
			{
				"x": -0.4608170181,
				"y": -1.4908710195,
				"z": -1.8307568488,
				"element": "H" 
			},
			{
				"x": 2.590269804,
				"y": -2.7529315604,
				"z": -1.677888039,
				"element": "H" 
			},
			{
				"x": 2.4683482541,
				"y": -3.3385388948,
				"z": -0.0188707608,
				"element": "H" 
			},
			{
				"x": 0.9071145024,
				"y": -5.115681692,
				"z": 0.5805532674,
				"element": "H" 
			},
			{
				"x": -0.5719556776,
				"y": -6.9564961616,
				"z": -0.1597636123,
				"element": "H" 
			},
			{
				"x": -1.3121218906,
				"y": -7.0842050348,
				"z": -2.5309129131,
				"element": "H" 
			},
			{
				"x": -0.552065502,
				"y": -5.3576936756,
				"z": -4.1517996636,
				"element": "H" 
			},
			{
				"x": 0.9225490353,
				"y": -3.5188438927,
				"z": -3.406683775,
				"element": "H" 
			},
			{
				"x": -0.3300640824,
				"y": -2.773764846,
				"z": 0.6350066917,
				"element": "H" 
			},
			{
				"x": 1.005203543,
				"y": -2.0656988965,
				"z": 1.554611911,
				"element": "H" 
			},
			{
				"x": -0.7499631309,
				"y": -0.5670741801,
				"z": 1.9646987098,
				"element": "H" 
			},
			{
				"x": -1.4610177895,
				"y": -0.739785888,
				"z": 0.3735565129,
				"element": "H" 
			},
			{
				"x": -3.7214194274,
				"y": 1.7392590562,
				"z": 1.4459871319,
				"element": "H" 
			},
			{
				"x": 2.2493001223,
				"y": 2.5688928144,
				"z": 0.5034793361,
				"element": "H" 
			},
			{
				"x": 3.3616075518,
				"y": 4.398610778,
				"z": -0.6866215182,
				"element": "H" 
			},
			{
				"x": 2.0212050167,
				"y": 6.0681562402,
				"z": -1.9645657982,
				"element": "H" 
			},
			{
				"x": -0.4578311609,
				"y": 5.8478016787,
				"z": -2.0223708508,
				"element": "H" 
			},
			{
				"x": -1.5729494934,
				"y": 4.0033726858,
				"z": -0.8579714685,
				"element": "H" 
			}
		],
		 "valence_orbital": [ 
			{
				"type": "occ",
				"energy": -0.24989,
				"method": "rhf"
			},
			{
				"type": "occ",
				"energy": -0.24874,
				"method": "rhf"
			},
			{
				"type": "occ",
				"energy": -0.24484,
				"method": "rhf"
			},
			{
				"type": "occ",
				"energy": -0.24428,
				"method": "rhf"
			},
			{
				"type": "occ",
				"energy": -0.20314,
				"method": "rhf"
			},
			{
				"type": "unocc",
				"energy": -0.03268,
				"method": "rhf"
			},
			{
				"type": "unocc",
				"energy": -0.00632,
				"method": "rhf"
			},
			{
				"type": "unocc",
				"energy": -0.00268,
				"method": "rhf"
			},
			{
				"type": "unocc",
				"energy": -0.00145,
				"method": "rhf"
			},
			{
				"type": "unocc",
				"energy": -0.00044,
				"method": "rhf"
			}
		],
		"cosmo_sigma_profile": { 
			"-0.025": 0.0,
			"-0.024": 0.0,
			"-0.023": 0.0,
			"-0.022": 0.0,
			"-0.021": 0.0,
			"-0.02": 0.0,
			"-0.019": 0.0,
			"-0.018": 0.0,
			"-0.017": 0.0,
			"-0.016": 0.0109699559737,
			"-0.015": 0.548518091971,
			"-0.014": 1.00858569608,
			"-0.013": 0.438623382936,
			"-0.012": 0.391866160624,
			"-0.011": 1.09074817875,
			"-0.01": 1.25828123688,
			"-0.009": 0.372550155433,
			"-0.008": 1.7408871296,
			"-0.007": 4.21202061824,
			"-0.006": 13.9116381786,
			"-0.005": 31.4742060197,
			"-0.004": 41.4287170634,
			"-0.003": 44.1328003958,
			"-0.002": 39.9254783834,
			"-0.001": 37.9551582538,
			"0.0": 31.3134530764,
			"0.001": 20.7467116715,
			"0.002": 19.7441812123,
			"0.003": 19.6994603334,
			"0.004": 17.8943388033,
			"0.005": 18.5244736622,
			"0.006": 18.0644515848,
			"0.007": 7.50914027866,
			"0.008": 3.33026442218,
			"0.009": 4.39275711789,
			"0.01": 3.82602656514,
			"0.011": 5.87185671619,
			"0.012": 8.71922459742,
			"0.013": 2.70188759372,
			"0.014": 0.491124517055,
			"0.015": 0.0199172148649,
			"0.016": 0.0,
			"0.017": 0.0,
			"0.018": 0.0,
			"0.019": 0.0,
			"0.02": 0.0,
			"0.021": 0.0,
			"0.022": 0.0,
			"0.023": 0.0,
			"0.024": 0.0,
			"0.025": 0.0
		}
	}
}
