{
	 "smiles": "NC1=NC(N2CCOCC2)=C(C=O)C(Cl)=N1", 
	 "Tm": 447.15, 
	 "num_atms": 27, 
	 "gaussian": { 
		 "optdone": 1, 
		 "sigma_profile": "yes", 
		 "theory": "DFT", 
		 "functional": "B3LYP", 
		 "basiset": "6-31G**", 
		 "properties": { 
			 "R2extent": 4422.0938, 
			 "electric_dipole_moment_norm": 6.28308448057, 
			 "electric_quadrupole_moment_norm": 18.0644447767, 
			 "total_energy": -1179.21153421, 
			 "HOMO_LUMO_gap": 0.1777, 
			 "cosmo_polarized_energy": -19.03, 
			 "cosmo_cavitation_energy": 31.47, 
			 "cosmo_dispersion_energy": -23.38, 
			 "cosmo_repulsion_energy": 1.84, 
			 "cosmo_total_nonelectrostatic_energy": 9.92, 
			 "SMD_solvation_energy": 2.97 
		},
		"coords": [
			{
				"x": -2.135400079,
				"y": 0.5821643323,
				"z": -3.8386923492,
				"element": "N" 
			},
			{
				"x": -1.6506055943,
				"y": 0.7116153325,
				"z": -2.5796652895,
				"element": "C" 
			},
			{
				"x": -1.4329785672,
				"y": -0.4092335293,
				"z": -1.8838755987,
				"element": "N" 
			},
			{
				"x": -1.0223182309,
				"y": -0.2648290997,
				"z": -0.6152627661,
				"element": "C" 
			},
			{
				"x": -0.7121793018,
				"y": -1.4194523513,
				"z": 0.0631046144,
				"element": "N" 
			},
			{
				"x": 0.4028653821,
				"y": -1.4887528025,
				"z": 1.0260258527,
				"element": "C" 
			},
			{
				"x": 1.3496120332,
				"y": -2.649545952,
				"z": 0.6414490271,
				"element": "C" 
			},
			{
				"x": 1.458772167,
				"y": -2.7529561092,
				"z": -0.7634358102,
				"element": "O" 
			},
			{
				"x": 0.2398205521,
				"y": -3.1958160243,
				"z": -1.3612642274,
				"element": "C" 
			},
			{
				"x": -0.9882860542,
				"y": -2.712782642,
				"z": -0.5660762264,
				"element": "C" 
			},
			{
				"x": -0.9247343028,
				"y": 1.0269272247,
				"z": 0.005684782,
				"element": "C" 
			},
			{
				"x": -0.9183645908,
				"y": 1.1593039064,
				"z": 1.4726589666,
				"element": "C" 
			},
			{
				"x": -0.6747743554,
				"y": 2.1587453784,
				"z": 2.1245310164,
				"element": "O" 
			},
			{
				"x": -1.0756507287,
				"y": 2.1015709365,
				"z": -0.898362082,
				"element": "C" 
			},
			{
				"x": -0.8433530453,
				"y": 3.7518501498,
				"z": -0.3714180219,
				"element": "Cl" 
			},
			{
				"x": -1.4166280749,
				"y": 1.9769818363,
				"z": -2.1636431675,
				"element": "N" 
			},
			{
				"x": -2.1665104623,
				"y": 1.4011162533,
				"z": -4.423539717,
				"element": "H" 
			},
			{
				"x": -2.1809542821,
				"y": -0.3350932162,
				"z": -4.2498954212,
				"element": "H" 
			},
			{
				"x": 0.9490468036,
				"y": -0.5437686383,
				"z": 0.9872614023,
				"element": "H" 
			},
			{
				"x": 0.0435412469,
				"y": -1.6310615417,
				"z": 2.0538100904,
				"element": "H" 
			},
			{
				"x": 1.0084570988,
				"y": -3.598055443,
				"z": 1.0858189991,
				"element": "H" 
			},
			{
				"x": 2.3513644545,
				"y": -2.4478996777,
				"z": 1.0303233027,
				"element": "H" 
			},
			{
				"x": 0.2243944256,
				"y": -4.2951858686,
				"z": -1.4369508623,
				"element": "H" 
			},
			{
				"x": 0.2276263536,
				"y": -2.7736280987,
				"z": -2.3690743241,
				"element": "H" 
			},
			{
				"x": -1.8533465103,
				"y": -2.620768327,
				"z": -1.2202744922,
				"element": "H" 
			},
			{
				"x": -1.2376543608,
				"y": -3.4178586209,
				"z": 0.2350466352,
				"element": "H" 
			},
			{
				"x": -1.2318619767,
				"y": 0.2268125921,
				"z": 1.9867156669,
				"element": "H" 
			}
		],
		 "valence_orbital": [ 
			{
				"type": "occ",
				"energy": -0.27131,
				"method": "rhf"
			},
			{
				"type": "occ",
				"energy": -0.26606,
				"method": "rhf"
			},
			{
				"type": "occ",
				"energy": -0.25069,
				"method": "rhf"
			},
			{
				"type": "occ",
				"energy": -0.23849,
				"method": "rhf"
			},
			{
				"type": "occ",
				"energy": -0.22962,
				"method": "rhf"
			},
			{
				"type": "unocc",
				"energy": -0.05192,
				"method": "rhf"
			},
			{
				"type": "unocc",
				"energy": -0.02543,
				"method": "rhf"
			},
			{
				"type": "unocc",
				"energy": 0.03023,
				"method": "rhf"
			},
			{
				"type": "unocc",
				"energy": 0.04525,
				"method": "rhf"
			},
			{
				"type": "unocc",
				"energy": 0.07122,
				"method": "rhf"
			}
		],
		"cosmo_sigma_profile": { 
			"-0.025": 0.0,
			"-0.024": 0.0,
			"-0.023": 0.0,
			"-0.022": 0.0,
			"-0.021": 0.0,
			"-0.02": 0.0,
			"-0.019": 0.0,
			"-0.018": 0.0,
			"-0.017": 0.0,
			"-0.016": 0.0,
			"-0.015": 0.657838575153,
			"-0.014": 2.33539752632,
			"-0.013": 1.73117229746,
			"-0.012": 2.37890560159,
			"-0.011": 2.20912882385,
			"-0.01": 1.6544666964,
			"-0.009": 1.19620023071,
			"-0.008": 1.94151621244,
			"-0.007": 3.91557602845,
			"-0.006": 16.2253824342,
			"-0.005": 22.8288854063,
			"-0.004": 21.4005632407,
			"-0.003": 19.9389990245,
			"-0.002": 18.5325395219,
			"-0.001": 14.9784445986,
			"0.0": 13.97852954,
			"0.001": 12.803843741,
			"0.002": 10.8362491639,
			"0.003": 14.191290624,
			"0.004": 13.9864353662,
			"0.005": 9.43509415764,
			"0.006": 7.32018376491,
			"0.007": 4.80212706997,
			"0.008": 5.04197457669,
			"0.009": 4.08386507148,
			"0.01": 5.18221722558,
			"0.011": 4.76876651817,
			"0.012": 7.65957170222,
			"0.013": 4.98703367686,
			"0.014": 0.323302478856,
			"0.015": 0.0,
			"0.016": 0.0,
			"0.017": 0.0,
			"0.018": 0.0,
			"0.019": 0.0,
			"0.02": 0.0,
			"0.021": 0.0,
			"0.022": 0.0,
			"0.023": 0.0,
			"0.024": 0.0,
			"0.025": 0.0
		}
	}
}
