{
	 "smiles": "CCC(C1CCCCC1)C1CCCCC1", 
	 "Tm": 249.65, 
	 "num_atms": 43, 
	 "gaussian": { 
		 "optdone": 1, 
		 "sigma_profile": "yes", 
		 "theory": "DFT", 
		 "functional": "B3LYP", 
		 "basiset": "6-31G**", 
		 "properties": { 
			 "R2extent": 4231.266, 
			 "electric_dipole_moment_norm": 0.0180704178148, 
			 "electric_quadrupole_moment_norm": 0.47381934321, 
			 "total_energy": -588.493518072, 
			 "HOMO_LUMO_gap": 0.33937, 
			 "cosmo_polarized_energy": -0.84, 
			 "cosmo_cavitation_energy": 37.51, 
			 "cosmo_dispersion_energy": -26.81, 
			 "cosmo_repulsion_energy": 2.09, 
			 "cosmo_total_nonelectrostatic_energy": 12.79, 
			 "SMD_solvation_energy": 4.48 
		},
		"coords": [
			{
				"x": -0.7465828203,
				"y": -3.0163520348,
				"z": 0.256137924,
				"element": "C" 
			},
			{
				"x": -0.6977697536,
				"y": -2.0337465027,
				"z": -0.9237025565,
				"element": "C" 
			},
			{
				"x": -0.21893206,
				"y": -0.5806280599,
				"z": -0.6525140853,
				"element": "C" 
			},
			{
				"x": 1.2934521622,
				"y": -0.4603162334,
				"z": -0.283451564,
				"element": "C" 
			},
			{
				"x": 1.6413460122,
				"y": -0.7252560679,
				"z": 1.2107640915,
				"element": "C" 
			},
			{
				"x": 3.1094149757,
				"y": -1.1646900105,
				"z": 1.4138178859,
				"element": "C" 
			},
			{
				"x": 4.0403129628,
				"y": -0.4654655072,
				"z": 0.4156546759,
				"element": "C" 
			},
			{
				"x": 3.6931453769,
				"y": -0.8679832514,
				"z": -1.0397360869,
				"element": "C" 
			},
			{
				"x": 2.2145438849,
				"y": -1.2924107627,
				"z": -1.1968340368,
				"element": "C" 
			},
			{
				"x": -1.1559075976,
				"y": 0.1890183747,
				"z": 0.3271204686,
				"element": "C" 
			},
			{
				"x": -0.8092475699,
				"y": 1.7055126555,
				"z": 0.4526231876,
				"element": "C" 
			},
			{
				"x": -1.6738503938,
				"y": 2.5809695608,
				"z": -0.4661298345,
				"element": "C" 
			},
			{
				"x": -3.161564826,
				"y": 2.5172256876,
				"z": -0.05242443,
				"element": "C" 
			},
			{
				"x": -3.5219100575,
				"y": 1.1390393376,
				"z": 0.5496247552,
				"element": "C" 
			},
			{
				"x": -2.6529948951,
				"y": 0.0278940406,
				"z": -0.0555705643,
				"element": "C" 
			},
			{
				"x": 0.2504865873,
				"y": -3.2645638778,
				"z": 0.6312959699,
				"element": "H" 
			},
			{
				"x": -1.2163570488,
				"y": -3.9556075419,
				"z": -0.0562382101,
				"element": "H" 
			},
			{
				"x": -1.3290914426,
				"y": -2.6260954208,
				"z": 1.0975411121,
				"element": "H" 
			},
			{
				"x": -0.0656683089,
				"y": -2.4648801084,
				"z": -1.7079763235,
				"element": "H" 
			},
			{
				"x": -1.6981932536,
				"y": -1.9797916845,
				"z": -1.3661590265,
				"element": "H" 
			},
			{
				"x": -0.3148158783,
				"y": -0.0756646802,
				"z": -1.6282803207,
				"element": "H" 
			},
			{
				"x": 1.5667284145,
				"y": 0.5844789746,
				"z": -0.4835835601,
				"element": "H" 
			},
			{
				"x": 1.4578631808,
				"y": 0.1921748837,
				"z": 1.7834961773,
				"element": "H" 
			},
			{
				"x": 0.9792968197,
				"y": -1.4826556078,
				"z": 1.639610149,
				"element": "H" 
			},
			{
				"x": 3.4202836497,
				"y": -0.9600764721,
				"z": 2.4448776336,
				"element": "H" 
			},
			{
				"x": 3.1968189991,
				"y": -2.2514169639,
				"z": 1.281219166,
				"element": "H" 
			},
			{
				"x": 5.0890616465,
				"y": -0.6964907184,
				"z": 0.6339248082,
				"element": "H" 
			},
			{
				"x": 3.9364147734,
				"y": 0.6206382702,
				"z": 0.5389000267,
				"element": "H" 
			},
			{
				"x": 4.3385725134,
				"y": -1.6930657908,
				"z": -1.3643189327,
				"element": "H" 
			},
			{
				"x": 3.9098839665,
				"y": -0.0286384305,
				"z": -1.7117284013,
				"element": "H" 
			},
			{
				"x": 2.1110311724,
				"y": -2.3579161104,
				"z": -0.9572112616,
				"element": "H" 
			},
			{
				"x": 1.9100757588,
				"y": -1.1864539498,
				"z": -2.2453679402,
				"element": "H" 
			},
			{
				"x": -1.0322895345,
				"y": -0.2527676422,
				"z": 1.324113701,
				"element": "H" 
			},
			{
				"x": -0.968441095,
				"y": 2.0277891937,
				"z": 1.4899012986,
				"element": "H" 
			},
			{
				"x": 0.2500067744,
				"y": 1.8833683725,
				"z": 0.2484608065,
				"element": "H" 
			},
			{
				"x": -1.5586503078,
				"y": 2.2373946363,
				"z": -1.502271825,
				"element": "H" 
			},
			{
				"x": -1.3188055587,
				"y": 3.6177551622,
				"z": -0.4518382034,
				"element": "H" 
			},
			{
				"x": -3.7938848762,
				"y": 2.7220969807,
				"z": -0.9248099288,
				"element": "H" 
			},
			{
				"x": -3.3816024402,
				"y": 3.3054822954,
				"z": 0.6776937888,
				"element": "H" 
			},
			{
				"x": -4.5847140529,
				"y": 0.9221644042,
				"z": 0.3930735949,
				"element": "H" 
			},
			{
				"x": -3.3726440853,
				"y": 1.1537351513,
				"z": 1.6373439669,
				"element": "H" 
			},
			{
				"x": -2.7627958711,
				"y": 0.0530457179,
				"z": -1.1492061479,
				"element": "H" 
			},
			{
				"x": -3.0205259034,
				"y": -0.9530502692,
				"z": 0.2634580519,
				"element": "H" 
			}
		],
		 "valence_orbital": [ 
			{
				"type": "occ",
				"energy": -0.29285,
				"method": "rhf"
			},
			{
				"type": "occ",
				"energy": -0.29079,
				"method": "rhf"
			},
			{
				"type": "occ",
				"energy": -0.28191,
				"method": "rhf"
			},
			{
				"type": "occ",
				"energy": -0.27556,
				"method": "rhf"
			},
			{
				"type": "occ",
				"energy": -0.27122,
				"method": "rhf"
			},
			{
				"type": "unocc",
				"energy": 0.06815,
				"method": "rhf"
			},
			{
				"type": "unocc",
				"energy": 0.0856,
				"method": "rhf"
			},
			{
				"type": "unocc",
				"energy": 0.09025,
				"method": "rhf"
			},
			{
				"type": "unocc",
				"energy": 0.09937,
				"method": "rhf"
			},
			{
				"type": "unocc",
				"energy": 0.11731,
				"method": "rhf"
			}
		],
		"cosmo_sigma_profile": { 
			"-0.025": 0.0,
			"-0.024": 0.0,
			"-0.023": 0.0,
			"-0.022": 0.0,
			"-0.021": 0.0,
			"-0.02": 0.0,
			"-0.019": 0.0,
			"-0.018": 0.0,
			"-0.017": 0.0,
			"-0.016": 0.0,
			"-0.015": 0.0,
			"-0.014": 0.0,
			"-0.013": 0.0,
			"-0.012": 0.0,
			"-0.011": 0.0,
			"-0.01": 0.0,
			"-0.009": 0.0,
			"-0.008": 0.0,
			"-0.007": 0.0,
			"-0.006": 0.0,
			"-0.005": 0.0,
			"-0.004": 0.0,
			"-0.003": 1.15546324759,
			"-0.002": 28.2826984602,
			"-0.001": 73.8347244917,
			"0.0": 83.4600679854,
			"0.001": 60.2307346723,
			"0.002": 37.0475489554,
			"0.003": 1.14005469533,
			"0.004": 0.0,
			"0.005": 0.0,
			"0.006": 0.0,
			"0.007": 0.0,
			"0.008": 0.0,
			"0.009": 0.0,
			"0.01": 0.0,
			"0.011": 0.0,
			"0.012": 0.0,
			"0.013": 0.0,
			"0.014": 0.0,
			"0.015": 0.0,
			"0.016": 0.0,
			"0.017": 0.0,
			"0.018": 0.0,
			"0.019": 0.0,
			"0.02": 0.0,
			"0.021": 0.0,
			"0.022": 0.0,
			"0.023": 0.0,
			"0.024": 0.0,
			"0.025": 0.0
		}
	}
}
