{
	 "smiles": "BrC1=CN=C(I)N=C1", 
	 "Tm": 374.15, 
	 "num_atms": 10, 
	 "gaussian": { 
		 "optdone": 1, 
		 "sigma_profile": "no", 
		 "theory": "DFT", 
		 "functional": "B3LYP", 
		 "basiset": "6-31G**", 
		 "properties": { 
			 "R2extent": 2985.3299, 
			 "electric_dipole_moment_norm": 2.18082058868, 
			 "electric_quadrupole_moment_norm": 3.91768468741, 
			 "total_energy": -2845.90253696, 
			 "HOMO_LUMO_gap": 0.18913, 
			 "cosmo_polarized_energy": -107193.68, 
			 "cosmo_cavitation_energy": 20.57, 
			 "cosmo_dispersion_energy": -17.43, 
			 "cosmo_repulsion_energy": 1.41, 
			 "cosmo_total_nonelectrostatic_energy": 4.55, 
			 "SMD_solvation_energy": -1.38 
		},
		"coords": [
			{
				"x": -2.8322905689,
				"y": 2.1613575967,
				"z": 2.0654893785,
				"element": "Br" 
			},
			{
				"x": -1.3744102012,
				"y": 1.5734946509,
				"z": 1.0069712056,
				"element": "C" 
			},
			{
				"x": -1.4774134177,
				"y": 0.4452830978,
				"z": 0.1943552504,
				"element": "C" 
			},
			{
				"x": -0.4497681263,
				"y": 0.0285273015,
				"z": -0.5531716477,
				"element": "N" 
			},
			{
				"x": 0.6635615689,
				"y": 0.751038391,
				"z": -0.4724167746,
				"element": "C" 
			},
			{
				"x": 2.2967183372,
				"y": 0.0918115678,
				"z": -1.6575865412,
				"element": "I" 
			},
			{
				"x": 0.8735885011,
				"y": 1.8381517584,
				"z": 0.2638570806,
				"element": "N" 
			},
			{
				"x": -0.1563373219,
				"y": 2.2517975973,
				"z": 1.009991534,
				"element": "C" 
			},
			{
				"x": -2.3964090926,
				"y": -0.1324071082,
				"z": 0.1419740614,
				"element": "H" 
			},
			{
				"x": -0.0040396785,
				"y": 3.1389451468,
				"z": 1.6189364529,
				"element": "H" 
			}
		],
		 "valence_orbital": [ 
			{
				"type": "occ",
				"energy": -0.32171,
				"method": "rhf"
			},
			{
				"type": "occ",
				"energy": -0.29823,
				"method": "rhf"
			},
			{
				"type": "occ",
				"energy": -0.28934,
				"method": "rhf"
			},
			{
				"type": "occ",
				"energy": -0.2636,
				"method": "rhf"
			},
			{
				"type": "occ",
				"energy": -0.26099,
				"method": "rhf"
			},
			{
				"type": "unocc",
				"energy": -0.07186,
				"method": "rhf"
			},
			{
				"type": "unocc",
				"energy": -0.05879,
				"method": "rhf"
			},
			{
				"type": "unocc",
				"energy": -0.04612,
				"method": "rhf"
			},
			{
				"type": "unocc",
				"energy": -0.01765,
				"method": "rhf"
			},
			{
				"type": "unocc",
				"energy": 0.04994,
				"method": "rhf"
			}
		],
		"cosmo_sigma_profile": { 
			"0.0": 0.0,
			"0.0": 0.0,
			"0.0": 0.0,
			"0.0": 0.0,
			"0.0": 0.0,
			"0.0": 0.0,
			"0.0": 0.0,
			"0.0": 0.0,
			"0.0": 0.0,
			"0.0": 0.0,
			"0.0": 0.0,
			"0.0": 0.0,
			"0.0": 0.0,
			"0.0": 0.0,
			"0.0": 0.0,
			"0.0": 0.0,
			"0.0": 0.0,
			"0.0": 0.0,
			"0.0": 0.0,
			"0.0": 0.0,
			"0.0": 0.0,
			"0.0": 0.0,
			"0.0": 0.0,
			"0.0": 0.0,
			"0.0": 0.0,
			"0.0": 0.0,
			"0.0": 0.0,
			"0.0": 0.0,
			"0.0": 0.0,
			"0.0": 0.0,
			"0.0": 0.0,
			"0.0": 0.0,
			"0.0": 0.0,
			"0.0": 0.0,
			"0.0": 0.0,
			"0.0": 0.0,
			"0.0": 0.0,
			"0.0": 0.0,
			"0.0": 0.0,
			"0.0": 0.0,
			"0.0": 0.0,
			"0.0": 0.0,
			"0.0": 0.0,
			"0.0": 0.0,
			"0.0": 0.0,
			"0.0": 0.0,
			"0.0": 0.0,
			"0.0": 0.0,
			"0.0": 0.0,
			"0.0": 0.0,
			"0.0": 0.0
		}
	}
}
