{
	 "smiles": "CON1C(C)=C(C(C)=O)C2=C1C=CC1=NON=C21", 
	 "Tm": 475.15, 
	 "num_atms": 29, 
	 "gaussian": { 
		 "optdone": 1, 
		 "sigma_profile": "yes", 
		 "theory": "DFT", 
		 "functional": "B3LYP", 
		 "basiset": "6-31G**", 
		 "properties": { 
			 "R2extent": 5304.1031, 
			 "electric_dipole_moment_norm": 6.39171148129, 
			 "electric_quadrupole_moment_norm": 25.1032815335, 
			 "total_energy": -853.688840326, 
			 "HOMO_LUMO_gap": 0.14543, 
			 "cosmo_polarized_energy": -13.9, 
			 "cosmo_cavitation_energy": 33.01, 
			 "cosmo_dispersion_energy": -23.77, 
			 "cosmo_repulsion_energy": 1.78, 
			 "cosmo_total_nonelectrostatic_energy": 11.02, 
			 "SMD_solvation_energy": 6.93 
		},
		"coords": [
			{
				"x": 1.1266465566,
				"y": 0.3453051478,
				"z": 4.023312444,
				"element": "C" 
			},
			{
				"x": 1.9545561973,
				"y": 0.199795897,
				"z": 2.8500383817,
				"element": "O" 
			},
			{
				"x": 1.2103159866,
				"y": -0.221327948,
				"z": 1.7684792493,
				"element": "N" 
			},
			{
				"x": 0.6041418435,
				"y": 0.6106005239,
				"z": 0.8663655987,
				"element": "C" 
			},
			{
				"x": 0.6665379494,
				"y": 2.0932161779,
				"z": 1.015135619,
				"element": "C" 
			},
			{
				"x": 0.0126532487,
				"y": -0.2029219219,
				"z": -0.1122404562,
				"element": "C" 
			},
			{
				"x": -0.7357196387,
				"y": 0.3834202692,
				"z": -1.2474783251,
				"element": "C" 
			},
			{
				"x": -1.2574364415,
				"y": -0.5137031308,
				"z": -2.3471272789,
				"element": "C" 
			},
			{
				"x": -0.9228533466,
				"y": 1.5967842583,
				"z": -1.2948246334,
				"element": "O" 
			},
			{
				"x": 0.3102167261,
				"y": -1.5689514326,
				"z": 0.2418041638,
				"element": "C" 
			},
			{
				"x": 1.0711554554,
				"y": -1.5475414286,
				"z": 1.4241611398,
				"element": "C" 
			},
			{
				"x": 1.6057550402,
				"y": -2.6747302237,
				"z": 2.1160028902,
				"element": "C" 
			},
			{
				"x": 1.3628521268,
				"y": -3.9304114252,
				"z": 1.6372492715,
				"element": "C" 
			},
			{
				"x": 0.5728945051,
				"y": -4.0393679022,
				"z": 0.4480018989,
				"element": "C" 
			},
			{
				"x": 0.2013370671,
				"y": -5.1332185913,
				"z": -0.1889720615,
				"element": "N" 
			},
			{
				"x": -0.5316924171,
				"y": -4.6920495045,
				"z": -1.2534471608,
				"element": "O" 
			},
			{
				"x": -0.6318103298,
				"y": -3.323967831,
				"z": -1.3030657842,
				"element": "N" 
			},
			{
				"x": 0.0462837625,
				"y": -2.8902946239,
				"z": -0.2570295873,
				"element": "C" 
			},
			{
				"x": 0.6485114173,
				"y": -0.6042705553,
				"z": 4.2824081497,
				"element": "H" 
			},
			{
				"x": 0.3677632204,
				"y": 1.1189760324,
				"z": 3.8727498409,
				"element": "H" 
			},
			{
				"x": 1.8166377928,
				"y": 0.6468630978,
				"z": 4.8128399918,
				"element": "H" 
			},
			{
				"x": 0.9165773169,
				"y": 2.5550979708,
				"z": 0.0589094695,
				"element": "H" 
			},
			{
				"x": -0.3088023785,
				"y": 2.5019861238,
				"z": 1.2991083958,
				"element": "H" 
			},
			{
				"x": 1.4091922778,
				"y": 2.3670972089,
				"z": 1.767698231,
				"element": "H" 
			},
			{
				"x": -0.4505195023,
				"y": -1.0968436551,
				"z": -2.8013752078,
				"element": "H" 
			},
			{
				"x": -1.9725451523,
				"y": -1.2441283767,
				"z": -1.9577931737,
				"element": "H" 
			},
			{
				"x": -1.7370940049,
				"y": 0.1114080933,
				"z": -3.1012932822,
				"element": "H" 
			},
			{
				"x": 2.209276288,
				"y": -2.5137468149,
				"z": 3.0025833858,
				"element": "H" 
			},
			{
				"x": 1.747868433,
				"y": -4.8205754351,
				"z": 2.11939883,
				"element": "H" 
			}
		],
		 "valence_orbital": [ 
			{
				"type": "occ",
				"energy": -0.31269,
				"method": "rhf"
			},
			{
				"type": "occ",
				"energy": -0.28862,
				"method": "rhf"
			},
			{
				"type": "occ",
				"energy": -0.25354,
				"method": "rhf"
			},
			{
				"type": "occ",
				"energy": -0.24111,
				"method": "rhf"
			},
			{
				"type": "occ",
				"energy": -0.22314,
				"method": "rhf"
			},
			{
				"type": "unocc",
				"energy": -0.07771,
				"method": "rhf"
			},
			{
				"type": "unocc",
				"energy": -0.03651,
				"method": "rhf"
			},
			{
				"type": "unocc",
				"energy": -0.00012,
				"method": "rhf"
			},
			{
				"type": "unocc",
				"energy": 0.02393,
				"method": "rhf"
			},
			{
				"type": "unocc",
				"energy": 0.04538,
				"method": "rhf"
			}
		],
		"cosmo_sigma_profile": { 
			"-0.025": 0.0,
			"-0.024": 0.0,
			"-0.023": 0.0,
			"-0.022": 0.0,
			"-0.021": 0.0,
			"-0.02": 0.0,
			"-0.019": 0.0,
			"-0.018": 0.0,
			"-0.017": 0.0,
			"-0.016": 0.0,
			"-0.015": 0.0,
			"-0.014": 0.0,
			"-0.013": 0.0,
			"-0.012": 0.0,
			"-0.011": 0.0,
			"-0.01": 0.0,
			"-0.009": 0.0462557427128,
			"-0.008": 3.31220484323,
			"-0.007": 7.00972411452,
			"-0.006": 13.4288278363,
			"-0.005": 20.0441547198,
			"-0.004": 25.9552872859,
			"-0.003": 21.0429271092,
			"-0.002": 22.8325752369,
			"-0.001": 26.1830782772,
			"0.0": 26.7941033157,
			"0.001": 18.9637947906,
			"0.002": 13.2590406348,
			"0.003": 8.02820821054,
			"0.004": 6.84024686718,
			"0.005": 9.6112852015,
			"0.006": 11.2588166917,
			"0.007": 6.7896109019,
			"0.008": 5.55548094567,
			"0.009": 4.41246204313,
			"0.01": 2.72452836872,
			"0.011": 2.85024230838,
			"0.012": 3.50809649778,
			"0.013": 2.50008241559,
			"0.014": 1.18107958832,
			"0.015": 0.0462630937409,
			"0.016": 0.0,
			"0.017": 0.0,
			"0.018": 0.0,
			"0.019": 0.0,
			"0.02": 0.0,
			"0.021": 0.0,
			"0.022": 0.0,
			"0.023": 0.0,
			"0.024": 0.0,
			"0.025": 0.0
		}
	}
}
