{
	 "smiles": "OCCC1=NC2=C(S1)C=CC=C2", 
	 "Tm": 315.15, 
	 "num_atms": 21, 
	 "gaussian": { 
		 "optdone": 1, 
		 "sigma_profile": "yes", 
		 "theory": "DFT", 
		 "functional": "B3LYP", 
		 "basiset": "6-31G**", 
		 "properties": { 
			 "R2extent": 2811.144, 
			 "electric_dipole_moment_norm": 2.78425316737, 
			 "electric_quadrupole_moment_norm": 10.4872721682, 
			 "total_energy": -876.551445448, 
			 "HOMO_LUMO_gap": 0.20072, 
			 "cosmo_polarized_energy": -8.15, 
			 "cosmo_cavitation_energy": 25.88, 
			 "cosmo_dispersion_energy": -20.01, 
			 "cosmo_repulsion_energy": 1.55, 
			 "cosmo_total_nonelectrostatic_energy": 7.43, 
			 "SMD_solvation_energy": 2.71 
		},
		"coords": [
			{
				"x": -2.1325489908,
				"y": -2.9896375112,
				"z": -0.5808268432,
				"element": "O" 
			},
			{
				"x": -3.1129551552,
				"y": -2.0260151853,
				"z": -0.8921097951,
				"element": "C" 
			},
			{
				"x": -2.6075635103,
				"y": -0.9609549003,
				"z": -1.8836208256,
				"element": "C" 
			},
			{
				"x": -1.4954436744,
				"y": -0.1286588979,
				"z": -1.3080449164,
				"element": "C" 
			},
			{
				"x": -0.6608587302,
				"y": -0.5593314162,
				"z": -0.4130146253,
				"element": "N" 
			},
			{
				"x": 0.2770806581,
				"y": 0.4049621616,
				"z": -0.0701723596,
				"element": "C" 
			},
			{
				"x": 0.1431878773,
				"y": 1.6380240545,
				"z": -0.7519991693,
				"element": "C" 
			},
			{
				"x": -1.2229536302,
				"y": 1.5435747052,
				"z": -1.8466551034,
				"element": "S" 
			},
			{
				"x": 1.0161606325,
				"y": 2.7014091985,
				"z": -0.5098400341,
				"element": "C" 
			},
			{
				"x": 2.0307624122,
				"y": 2.5161114438,
				"z": 0.4260221557,
				"element": "C" 
			},
			{
				"x": 2.1735161443,
				"y": 1.2955693485,
				"z": 1.1085068456,
				"element": "C" 
			},
			{
				"x": 1.3047485785,
				"y": 0.2377129108,
				"z": 0.8684255874,
				"element": "C" 
			},
			{
				"x": -1.3816110965,
				"y": -2.4888243418,
				"z": -0.2185446455,
				"element": "H" 
			},
			{
				"x": -3.9526964766,
				"y": -2.5598552483,
				"z": -1.3497831388,
				"element": "H" 
			},
			{
				"x": -3.496331555,
				"y": -1.5203146966,
				"z": 0.0094276622,
				"element": "H" 
			},
			{
				"x": -2.238312061,
				"y": -1.4675590668,
				"z": -2.785316998,
				"element": "H" 
			},
			{
				"x": -3.4342063294,
				"y": -0.3120897519,
				"z": -2.1956329775,
				"element": "H" 
			},
			{
				"x": 0.9098128545,
				"y": 3.6456842218,
				"z": -1.0339356428,
				"element": "H" 
			},
			{
				"x": 2.7212634097,
				"y": 3.3289110998,
				"z": 0.629924431,
				"element": "H" 
			},
			{
				"x": 2.9740208392,
				"y": 1.1787930484,
				"z": 1.832581556,
				"element": "H" 
			},
			{
				"x": 1.4036278033,
				"y": -0.7100111768,
				"z": 1.3874088368,
				"element": "H" 
			}
		],
		 "valence_orbital": [ 
			{
				"type": "occ",
				"energy": -0.30979,
				"method": "rhf"
			},
			{
				"type": "occ",
				"energy": -0.28137,
				"method": "rhf"
			},
			{
				"type": "occ",
				"energy": -0.25569,
				"method": "rhf"
			},
			{
				"type": "occ",
				"energy": -0.24355,
				"method": "rhf"
			},
			{
				"type": "occ",
				"energy": -0.2416,
				"method": "rhf"
			},
			{
				"type": "unocc",
				"energy": -0.04088,
				"method": "rhf"
			},
			{
				"type": "unocc",
				"energy": -0.01227,
				"method": "rhf"
			},
			{
				"type": "unocc",
				"energy": 0.00199,
				"method": "rhf"
			},
			{
				"type": "unocc",
				"energy": 0.0254,
				"method": "rhf"
			},
			{
				"type": "unocc",
				"energy": 0.08587,
				"method": "rhf"
			}
		],
		"cosmo_sigma_profile": { 
			"-0.025": 0.0,
			"-0.024": 0.0,
			"-0.023": 0.0,
			"-0.022": 0.0,
			"-0.021": 0.0,
			"-0.02": 0.0,
			"-0.019": 0.0,
			"-0.018": 0.0,
			"-0.017": 0.0,
			"-0.016": 0.0,
			"-0.015": 0.0,
			"-0.014": 0.0,
			"-0.013": 0.0,
			"-0.012": 0.0,
			"-0.011": 0.0,
			"-0.01": 0.0,
			"-0.009": 0.0,
			"-0.008": 0.262618489614,
			"-0.007": 4.15344792382,
			"-0.006": 14.2283858032,
			"-0.005": 15.3604731563,
			"-0.004": 22.4612373608,
			"-0.003": 18.142329021,
			"-0.002": 13.5417356207,
			"-0.001": 13.2853817911,
			"0.0": 14.6132997087,
			"0.001": 16.1120081735,
			"0.002": 18.8027610371,
			"0.003": 18.8109755828,
			"0.004": 15.5160540194,
			"0.005": 8.76695180886,
			"0.006": 1.65035917087,
			"0.007": 0.703318975364,
			"0.008": 1.30314570675,
			"0.009": 1.56296019152,
			"0.01": 1.25978926483,
			"0.011": 0.673502067388,
			"0.012": 1.55134098802,
			"0.013": 1.77962211106,
			"0.014": 2.00699642492,
			"0.015": 2.00447677811,
			"0.016": 0.0345054994728,
			"0.017": 0.0,
			"0.018": 0.0,
			"0.019": 0.0,
			"0.02": 0.0,
			"0.021": 0.0,
			"0.022": 0.0,
			"0.023": 0.0,
			"0.024": 0.0,
			"0.025": 0.0
		}
	}
}
