{
	 "smiles": "FC(F)(F)CNC1=NC=CC=C1", 
	 "Tm": 344.15, 
	 "num_atms": 19, 
	 "gaussian": { 
		 "optdone": 1, 
		 "sigma_profile": "yes", 
		 "theory": "DFT", 
		 "functional": "B3LYP", 
		 "basiset": "6-31G**", 
		 "properties": { 
			 "R2extent": 2687.8672, 
			 "electric_dipole_moment_norm": 1.83812968531, 
			 "electric_quadrupole_moment_norm": 7.95988628876, 
			 "total_energy": -679.995841757, 
			 "HOMO_LUMO_gap": 0.19768, 
			 "cosmo_polarized_energy": -8.55, 
			 "cosmo_cavitation_energy": 24.31, 
			 "cosmo_dispersion_energy": -17.59, 
			 "cosmo_repulsion_energy": 1.35, 
			 "cosmo_total_nonelectrostatic_energy": 8.08, 
			 "SMD_solvation_energy": 3.5 
		},
		"coords": [
			{
				"x": -0.645495039,
				"y": -2.2301408111,
				"z": -3.2262828083,
				"element": "F" 
			},
			{
				"x": -0.0942888917,
				"y": -1.0748748955,
				"z": -2.7900593713,
				"element": "C" 
			},
			{
				"x": 1.1306728607,
				"y": -1.3662298486,
				"z": -2.3019424622,
				"element": "F" 
			},
			{
				"x": 0.0720167547,
				"y": -0.2688191783,
				"z": -3.8547701886,
				"element": "F" 
			},
			{
				"x": -0.9936782559,
				"y": -0.4380425751,
				"z": -1.7355297508,
				"element": "C" 
			},
			{
				"x": -0.5000670247,
				"y": 0.8182929882,
				"z": -1.2415464945,
				"element": "N" 
			},
			{
				"x": 0.1846795616,
				"y": 0.988571668,
				"z": -0.0491495041,
				"element": "C" 
			},
			{
				"x": 0.1558754417,
				"y": 2.2428454489,
				"z": 0.4320868925,
				"element": "N" 
			},
			{
				"x": 0.7941473483,
				"y": 2.487335648,
				"z": 1.5806437159,
				"element": "C" 
			},
			{
				"x": 1.4724274449,
				"y": 1.5188151594,
				"z": 2.3178926226,
				"element": "C" 
			},
			{
				"x": 1.5043796263,
				"y": 0.2212409012,
				"z": 1.8009424132,
				"element": "C" 
			},
			{
				"x": 0.8680967661,
				"y": -0.0602566613,
				"z": 0.5982697973,
				"element": "C" 
			},
			{
				"x": -1.1207796967,
				"y": -1.1677356258,
				"z": -0.9276245272,
				"element": "H" 
			},
			{
				"x": -1.9717361891,
				"y": -0.2974048153,
				"z": -2.2054794047,
				"element": "H" 
			},
			{
				"x": -0.9640559589,
				"y": 1.6610164401,
				"z": -1.5473829379,
				"element": "H" 
			},
			{
				"x": 0.7526111261,
				"y": 3.5176283206,
				"z": 1.9310727553,
				"element": "H" 
			},
			{
				"x": 1.9637279463,
				"y": 1.7734438233,
				"z": 3.2504786977,
				"element": "H" 
			},
			{
				"x": 2.0370926801,
				"y": -0.5681424448,
				"z": 2.324057956,
				"element": "H" 
			},
			{
				"x": 0.9301734993,
				"y": -1.045543542,
				"z": 0.1535225991,
				"element": "H" 
			}
		],
		 "valence_orbital": [ 
			{
				"type": "occ",
				"energy": -0.37089,
				"method": "rhf"
			},
			{
				"type": "occ",
				"energy": -0.31046,
				"method": "rhf"
			},
			{
				"type": "occ",
				"energy": -0.27912,
				"method": "rhf"
			},
			{
				"type": "occ",
				"energy": -0.25947,
				"method": "rhf"
			},
			{
				"type": "occ",
				"energy": -0.21573,
				"method": "rhf"
			},
			{
				"type": "unocc",
				"energy": -0.01805,
				"method": "rhf"
			},
			{
				"type": "unocc",
				"energy": 0.00715,
				"method": "rhf"
			},
			{
				"type": "unocc",
				"energy": 0.07567,
				"method": "rhf"
			},
			{
				"type": "unocc",
				"energy": 0.09973,
				"method": "rhf"
			},
			{
				"type": "unocc",
				"energy": 0.11124,
				"method": "rhf"
			}
		],
		"cosmo_sigma_profile": { 
			"-0.025": 0.0,
			"-0.024": 0.0,
			"-0.023": 0.0,
			"-0.022": 0.0,
			"-0.021": 0.0,
			"-0.02": 0.0,
			"-0.019": 0.0,
			"-0.018": 0.0,
			"-0.017": 0.0,
			"-0.016": 0.0,
			"-0.015": 0.0,
			"-0.014": 0.187698193284,
			"-0.013": 1.05227633899,
			"-0.012": 1.18903889662,
			"-0.011": 1.06566379039,
			"-0.01": 1.19386707329,
			"-0.009": 3.15794590694,
			"-0.008": 5.01179986132,
			"-0.007": 5.540530179,
			"-0.006": 10.007730482,
			"-0.005": 12.7964484394,
			"-0.004": 11.4202556644,
			"-0.003": 9.80412910741,
			"-0.002": 7.30011590381,
			"-0.001": 8.65304193602,
			"0.0": 8.90860103769,
			"0.001": 10.6785948427,
			"0.002": 20.3950704444,
			"0.003": 42.18944337,
			"0.004": 16.5004054622,
			"0.005": 5.69612973972,
			"0.006": 2.55780696386,
			"0.007": 0.947585176787,
			"0.008": 1.38340903952,
			"0.009": 1.37633731325,
			"0.01": 1.22886309564,
			"0.011": 0.728665300501,
			"0.012": 0.523423144994,
			"0.013": 1.28823433238,
			"0.014": 0.552670979646,
			"0.015": 0.815466893609,
			"0.016": 0.0941673971654,
			"0.017": 0.0,
			"0.018": 0.0,
			"0.019": 0.0,
			"0.02": 0.0,
			"0.021": 0.0,
			"0.022": 0.0,
			"0.023": 0.0,
			"0.024": 0.0,
			"0.025": 0.0
		}
	}
}
