{
	 "smiles": "CC(C)NC(=O)N1CC(=O)N(C1=O)C1=CC(Cl)=CC(Cl)=C1", 
	 "Tm": 409.15, 
	 "num_atms": 34, 
	 "gaussian": { 
		 "optdone": 1, 
		 "sigma_profile": "yes", 
		 "theory": "DFT", 
		 "functional": "B3LYP", 
		 "basiset": "6-31G**", 
		 "properties": { 
			 "R2extent": 14223.1266, 
			 "electric_dipole_moment_norm": 5.97558321338, 
			 "electric_quadrupole_moment_norm": 14.8113656366, 
			 "total_energy": -1813.5862947, 
			 "HOMO_LUMO_gap": 0.21007, 
			 "cosmo_polarized_energy": -23.77, 
			 "cosmo_cavitation_energy": 42.53, 
			 "cosmo_dispersion_energy": -30.2, 
			 "cosmo_repulsion_energy": 2.34, 
			 "cosmo_total_nonelectrostatic_energy": 14.66, 
			 "SMD_solvation_energy": 8.08 
		},
		"coords": [
			{
				"x": -4.7608391368,
				"y": -0.1433355408,
				"z": -0.4604699556,
				"element": "C" 
			},
			{
				"x": -3.3673074566,
				"y": -0.5706694789,
				"z": -0.9259847597,
				"element": "C" 
			},
			{
				"x": -3.2511063683,
				"y": -0.6401377122,
				"z": -2.4541905868,
				"element": "C" 
			},
			{
				"x": -2.3691013482,
				"y": 0.3415229787,
				"z": -0.3456057798,
				"element": "N" 
			},
			{
				"x": -1.0677591606,
				"y": -0.0681668587,
				"z": -0.1981565671,
				"element": "C" 
			},
			{
				"x": -0.6705480933,
				"y": -1.1927063839,
				"z": -0.4245648505,
				"element": "O" 
			},
			{
				"x": -0.2236162289,
				"y": 0.9643610979,
				"z": 0.3151391197,
				"element": "N" 
			},
			{
				"x": -0.6986566224,
				"y": 2.1084348457,
				"z": 1.0805853601,
				"element": "C" 
			},
			{
				"x": 0.5753238627,
				"y": 2.7205866127,
				"z": 1.6474307823,
				"element": "C" 
			},
			{
				"x": 0.6372578221,
				"y": 3.7097361554,
				"z": 2.3438744944,
				"element": "O" 
			},
			{
				"x": 1.6265404682,
				"y": 1.9318234409,
				"z": 1.191170893,
				"element": "N" 
			},
			{
				"x": 1.1683354238,
				"y": 0.8535165604,
				"z": 0.3649069552,
				"element": "C" 
			},
			{
				"x": 1.8782650365,
				"y": 0.0477533411,
				"z": -0.1785607228,
				"element": "O" 
			},
			{
				"x": 3.0050555018,
				"y": 2.1629308086,
				"z": 1.4798729647,
				"element": "C" 
			},
			{
				"x": 3.4716745394,
				"y": 3.478174126,
				"z": 1.5871140343,
				"element": "C" 
			},
			{
				"x": 4.8163699135,
				"y": 3.6839074964,
				"z": 1.8831167373,
				"element": "C" 
			},
			{
				"x": 5.4122920865,
				"y": 5.327778049,
				"z": 2.024776126,
				"element": "Cl" 
			},
			{
				"x": 5.7060485555,
				"y": 2.6269567883,
				"z": 2.0641915595,
				"element": "C" 
			},
			{
				"x": 5.2060407592,
				"y": 1.3312715148,
				"z": 1.9461095086,
				"element": "C" 
			},
			{
				"x": 6.2990240891,
				"y": -0.0211392379,
				"z": 2.172549295,
				"element": "Cl" 
			},
			{
				"x": 3.8671606626,
				"y": 1.0755893954,
				"z": 1.6626649602,
				"element": "C" 
			},
			{
				"x": -4.8259337884,
				"y": -0.128021544,
				"z": 0.6312928341,
				"element": "H" 
			},
			{
				"x": -5.5167965968,
				"y": -0.8358558395,
				"z": -0.841401086,
				"element": "H" 
			},
			{
				"x": -5.0151048992,
				"y": 0.8564906692,
				"z": -0.8348686961,
				"element": "H" 
			},
			{
				"x": -3.1312906995,
				"y": -1.5562501641,
				"z": -0.5152309532,
				"element": "H" 
			},
			{
				"x": -3.4552032296,
				"y": 0.3366341913,
				"z": -2.9089312077,
				"element": "H" 
			},
			{
				"x": -3.9708064896,
				"y": -1.3576366122,
				"z": -2.8615756899,
				"element": "H" 
			},
			{
				"x": -2.2474195454,
				"y": -0.9602979269,
				"z": -2.7441665222,
				"element": "H" 
			},
			{
				"x": -2.5543795888,
				"y": 1.3300859337,
				"z": -0.4478344903,
				"element": "H" 
			},
			{
				"x": -1.2015104404,
				"y": 2.8640019183,
				"z": 0.4637659815,
				"element": "H" 
			},
			{
				"x": -1.3738865931,
				"y": 1.817417129,
				"z": 1.8917588354,
				"element": "H" 
			},
			{
				"x": 2.8024153766,
				"y": 4.3174435898,
				"z": 1.465385248,
				"element": "H" 
			},
			{
				"x": 6.7496115514,
				"y": 2.8057851998,
				"z": 2.2897969061,
				"element": "H" 
			},
			{
				"x": 3.5101506375,
				"y": 0.0606154567,
				"z": 1.5655392722,
				"element": "H" 
			}
		],
		 "valence_orbital": [ 
			{
				"type": "occ",
				"energy": -0.28926,
				"method": "rhf"
			},
			{
				"type": "occ",
				"energy": -0.2765,
				"method": "rhf"
			},
			{
				"type": "occ",
				"energy": -0.26655,
				"method": "rhf"
			},
			{
				"type": "occ",
				"energy": -0.25661,
				"method": "rhf"
			},
			{
				"type": "occ",
				"energy": -0.25521,
				"method": "rhf"
			},
			{
				"type": "unocc",
				"energy": -0.04514,
				"method": "rhf"
			},
			{
				"type": "unocc",
				"energy": -0.03185,
				"method": "rhf"
			},
			{
				"type": "unocc",
				"energy": -0.02691,
				"method": "rhf"
			},
			{
				"type": "unocc",
				"energy": 0.00287,
				"method": "rhf"
			},
			{
				"type": "unocc",
				"energy": 0.01204,
				"method": "rhf"
			}
		],
		"cosmo_sigma_profile": { 
			"-0.025": 0.0,
			"-0.024": 0.0,
			"-0.023": 0.0,
			"-0.022": 0.0,
			"-0.021": 0.0,
			"-0.02": 0.0,
			"-0.019": 0.0,
			"-0.018": 0.0,
			"-0.017": 0.0,
			"-0.016": 0.327650242914,
			"-0.015": 1.35769069696,
			"-0.014": 1.06443509384,
			"-0.013": 1.75982173839,
			"-0.012": 1.21852301605,
			"-0.011": 1.40067693277,
			"-0.01": 4.73966361201,
			"-0.009": 8.93654971669,
			"-0.008": 8.19578366095,
			"-0.007": 9.78057541531,
			"-0.006": 11.2588318558,
			"-0.005": 10.0540247407,
			"-0.004": 18.1689099012,
			"-0.003": 25.0230225088,
			"-0.002": 25.3280456777,
			"-0.001": 29.1375720045,
			"0.0": 42.2369020729,
			"0.001": 34.2692563264,
			"0.002": 18.1845957868,
			"0.003": 18.3199999598,
			"0.004": 22.6355201475,
			"0.005": 4.86201200949,
			"0.006": 4.61011201375,
			"0.007": 4.53951698507,
			"0.008": 2.91737594243,
			"0.009": 5.45517613055,
			"0.01": 6.24478828197,
			"0.011": 7.44018699558,
			"0.012": 4.79620180614,
			"0.013": 4.56481410631,
			"0.014": 2.07599240814,
			"0.015": 1.33955304356,
			"0.016": 1.02777833487,
			"0.017": 0.0161335831579,
			"0.018": 0.0,
			"0.019": 0.0,
			"0.02": 0.0,
			"0.021": 0.0,
			"0.022": 0.0,
			"0.023": 0.0,
			"0.024": 0.0,
			"0.025": 0.0
		}
	}
}
