{
	 "smiles": "CC(=O)OC1(CCC2C3CCC4=CC(=O)CCC4(C)C3(F)C(O)CC12C)C(C)=O", 
	 "Tm": 541.15, 
	 "num_atms": 60, 
	 "gaussian": { 
		 "optdone": 1, 
		 "sigma_profile": "yes", 
		 "theory": "DFT", 
		 "functional": "B3LYP", 
		 "basiset": "6-31G**", 
		 "properties": { 
			 "R2extent": 11659.8132, 
			 "electric_dipole_moment_norm": 8.14397491032, 
			 "electric_quadrupole_moment_norm": 23.5089877849, 
			 "total_energy": -1371.0944027, 
			 "HOMO_LUMO_gap": 0.18601, 
			 "cosmo_polarized_energy": -22.82, 
			 "cosmo_cavitation_energy": 52.66, 
			 "cosmo_dispersion_energy": -35.06, 
			 "cosmo_repulsion_energy": 2.53, 
			 "cosmo_total_nonelectrostatic_energy": 20.13, 
			 "SMD_solvation_energy": 10.15 
		},
		"coords": [
			{
				"x": 5.1241650044,
				"y": -0.9911082241,
				"z": 4.6305970729,
				"element": "C" 
			},
			{
				"x": 3.788233053,
				"y": -0.4276211843,
				"z": 4.2095840209,
				"element": "C" 
			},
			{
				"x": 2.8888535896,
				"y": -0.1175561855,
				"z": 4.9603228731,
				"element": "O" 
			},
			{
				"x": 3.718208382,
				"y": -0.3190530394,
				"z": 2.8596145012,
				"element": "O" 
			},
			{
				"x": 2.5531452609,
				"y": 0.3201063969,
				"z": 2.2665978848,
				"element": "C" 
			},
			{
				"x": 2.3471177556,
				"y": 1.775756445,
				"z": 2.7459442504,
				"element": "C" 
			},
			{
				"x": 1.759569876,
				"y": 2.5510665154,
				"z": 1.5438415304,
				"element": "C" 
			},
			{
				"x": 1.9387990651,
				"y": 1.6596655398,
				"z": 0.2749780618,
				"element": "C" 
			},
			{
				"x": 0.5676763702,
				"y": 1.2974898542,
				"z": -0.3629375848,
				"element": "C" 
			},
			{
				"x": 0.0207604737,
				"y": 2.5632184051,
				"z": -1.0855183264,
				"element": "C" 
			},
			{
				"x": -0.8925244435,
				"y": 2.2439455426,
				"z": -2.289740387,
				"element": "C" 
			},
			{
				"x": -1.6736609282,
				"y": 0.9998235052,
				"z": -1.99434192,
				"element": "C" 
			},
			{
				"x": -3.0117364901,
				"y": 1.0208071865,
				"z": -1.8250569595,
				"element": "C" 
			},
			{
				"x": -3.814899664,
				"y": -0.1606597737,
				"z": -1.4730077079,
				"element": "C" 
			},
			{
				"x": -5.0306682759,
				"y": -0.1004936254,
				"z": -1.3411039095,
				"element": "O" 
			},
			{
				"x": -3.0523391055,
				"y": -1.4670962377,
				"z": -1.3036758683,
				"element": "C" 
			},
			{
				"x": -1.5787011535,
				"y": -1.2634410451,
				"z": -0.9274578963,
				"element": "C" 
			},
			{
				"x": -0.8400720993,
				"y": -0.2770318352,
				"z": -1.8730891237,
				"element": "C" 
			},
			{
				"x": -0.7065342183,
				"y": -0.8894609677,
				"z": -3.2950792851,
				"element": "C" 
			},
			{
				"x": 0.6008096884,
				"y": 0.0769551377,
				"z": -1.3063589314,
				"element": "C" 
			},
			{
				"x": 1.4333741282,
				"y": 0.43928868,
				"z": -2.3963300757,
				"element": "F" 
			},
			{
				"x": 1.2885519792,
				"y": -1.1086824823,
				"z": -0.6038244099,
				"element": "C" 
			},
			{
				"x": 1.3267151575,
				"y": -2.223563826,
				"z": -1.495018226,
				"element": "O" 
			},
			{
				"x": 2.7120504539,
				"y": -0.7571433449,
				"z": -0.1667839241,
				"element": "C" 
			},
			{
				"x": 2.8682020686,
				"y": 0.491131922,
				"z": 0.723059367,
				"element": "C" 
			},
			{
				"x": 4.338294172,
				"y": 0.9625274783,
				"z": 0.5820985643,
				"element": "C" 
			},
			{
				"x": 1.2974606215,
				"y": -0.5327561567,
				"z": 2.5536111743,
				"element": "C" 
			},
			{
				"x": 1.4456057604,
				"y": -2.012555808,
				"z": 2.8592739654,
				"element": "C" 
			},
			{
				"x": 0.1968787289,
				"y": -0.011546748,
				"z": 2.5202989293,
				"element": "O" 
			},
			{
				"x": 5.9249129239,
				"y": -0.3032814639,
				"z": 4.3423487334,
				"element": "H" 
			},
			{
				"x": 5.3128511829,
				"y": -1.940862713,
				"z": 4.1220442362,
				"element": "H" 
			},
			{
				"x": 5.1323430866,
				"y": -1.1353089272,
				"z": 5.7103776283,
				"element": "H" 
			},
			{
				"x": 3.322555906,
				"y": 2.1752447311,
				"z": 3.0370220201,
				"element": "H" 
			},
			{
				"x": 1.7039429171,
				"y": 1.8134332475,
				"z": 3.6238214502,
				"element": "H" 
			},
			{
				"x": 2.254275339,
				"y": 3.5198274549,
				"z": 1.4278612533,
				"element": "H" 
			},
			{
				"x": 0.7002164535,
				"y": 2.7543052363,
				"z": 1.7157624838,
				"element": "H" 
			},
			{
				"x": 2.4878191521,
				"y": 2.208620176,
				"z": -0.4966869651,
				"element": "H" 
			},
			{
				"x": -0.1263806554,
				"y": 1.0345116476,
				"z": 0.4417571444,
				"element": "H" 
			},
			{
				"x": 0.8552146523,
				"y": 3.1818152882,
				"z": -1.4318385632,
				"element": "H" 
			},
			{
				"x": -0.5369944728,
				"y": 3.1652167884,
				"z": -0.3611281203,
				"element": "H" 
			},
			{
				"x": -1.5555833211,
				"y": 3.0864715422,
				"z": -2.5060213924,
				"element": "H" 
			},
			{
				"x": -0.2644025796,
				"y": 2.0769322598,
				"z": -3.171525025,
				"element": "H" 
			},
			{
				"x": -3.5698335394,
				"y": 1.9467994248,
				"z": -1.9452713462,
				"element": "H" 
			},
			{
				"x": -3.1383196889,
				"y": -2.0179939979,
				"z": -2.2497730693,
				"element": "H" 
			},
			{
				"x": -3.5738630356,
				"y": -2.0683255328,
				"z": -0.5528433868,
				"element": "H" 
			},
			{
				"x": -1.5376751938,
				"y": -0.8769941104,
				"z": 0.0988850437,
				"element": "H" 
			},
			{
				"x": -1.062526408,
				"y": -2.2267538797,
				"z": -0.9364978565,
				"element": "H" 
			},
			{
				"x": -0.2238393694,
				"y": -0.1908784267,
				"z": -3.9800115246,
				"element": "H" 
			},
			{
				"x": -0.1059019695,
				"y": -1.798642779,
				"z": -3.2602940538,
				"element": "H" 
			},
			{
				"x": -1.6950079228,
				"y": -1.1237418396,
				"z": -3.6973870858,
				"element": "H" 
			},
			{
				"x": 0.671436516,
				"y": -1.3542755392,
				"z": 0.2667912624,
				"element": "H" 
			},
			{
				"x": 1.7952734196,
				"y": -2.9407379699,
				"z": -1.0490743762,
				"element": "H" 
			},
			{
				"x": 3.27760959,
				"y": -0.5949133092,
				"z": -1.0893192964,
				"element": "H" 
			},
			{
				"x": 3.1677532265,
				"y": -1.6272565257,
				"z": 0.3258364528,
				"element": "H" 
			},
			{
				"x": 4.5514389052,
				"y": 1.85103232,
				"z": 1.1822010317,
				"element": "H" 
			},
			{
				"x": 5.0385487764,
				"y": 0.1798778334,
				"z": 0.8811024729,
				"element": "H" 
			},
			{
				"x": 4.5300024547,
				"y": 1.2137598986,
				"z": -0.4653247783,
				"element": "H" 
			},
			{
				"x": 0.5124420966,
				"y": -2.5190226304,
				"z": 2.6070481947,
				"element": "H" 
			},
			{
				"x": 1.6118940806,
				"y": -2.1233883376,
				"z": 3.9358203978,
				"element": "H" 
			},
			{
				"x": 2.291162266,
				"y": -2.4724819913,
				"z": 2.342819374,
				"element": "H" 
			}
		],
		 "valence_orbital": [ 
			{
				"type": "occ",
				"energy": -0.28595,
				"method": "rhf"
			},
			{
				"type": "occ",
				"energy": -0.28072,
				"method": "rhf"
			},
			{
				"type": "occ",
				"energy": -0.25804,
				"method": "rhf"
			},
			{
				"type": "occ",
				"energy": -0.24759,
				"method": "rhf"
			},
			{
				"type": "occ",
				"energy": -0.22339,
				"method": "rhf"
			},
			{
				"type": "unocc",
				"energy": -0.03738,
				"method": "rhf"
			},
			{
				"type": "unocc",
				"energy": -0.03552,
				"method": "rhf"
			},
			{
				"type": "unocc",
				"energy": -0.00875,
				"method": "rhf"
			},
			{
				"type": "unocc",
				"energy": 0.04516,
				"method": "rhf"
			},
			{
				"type": "unocc",
				"energy": 0.065,
				"method": "rhf"
			}
		],
		"cosmo_sigma_profile": { 
			"-0.025": 0.0,
			"-0.024": 0.0,
			"-0.023": 0.0,
			"-0.022": 0.0,
			"-0.021": 0.0,
			"-0.02": 0.0,
			"-0.019": 0.0,
			"-0.018": 0.0,
			"-0.017": 0.0,
			"-0.016": 0.263924602061,
			"-0.015": 1.04542604874,
			"-0.014": 0.806216368514,
			"-0.013": 1.52596326568,
			"-0.012": 0.629595186118,
			"-0.011": 0.850143271229,
			"-0.01": 1.01756918866,
			"-0.009": 1.09747578502,
			"-0.008": 2.02456492555,
			"-0.007": 3.1656299155,
			"-0.006": 10.7582459353,
			"-0.005": 21.2377694366,
			"-0.004": 36.1603630428,
			"-0.003": 51.8367489938,
			"-0.002": 53.8478260658,
			"-0.001": 49.9732451301,
			"0.0": 37.6648382941,
			"0.001": 24.7142617392,
			"0.002": 15.7398551723,
			"0.003": 13.2002685738,
			"0.004": 10.6011249731,
			"0.005": 9.64009743685,
			"0.006": 9.0793487239,
			"0.007": 8.8867932162,
			"0.008": 6.47018256172,
			"0.009": 4.37729556307,
			"0.01": 6.2646522144,
			"0.011": 8.08179923965,
			"0.012": 7.05040638062,
			"0.013": 5.99827499816,
			"0.014": 3.06158974829,
			"0.015": 0.628984989297,
			"0.016": 0.0,
			"0.017": 0.0,
			"0.018": 0.0,
			"0.019": 0.0,
			"0.02": 0.0,
			"0.021": 0.0,
			"0.022": 0.0,
			"0.023": 0.0,
			"0.024": 0.0,
			"0.025": 0.0
		}
	}
}
