{
	 "smiles": "ClC1=CC=C(CC(=O)CCCC2=CC=CC=C2)C=C1", 
	 "Tm": 305.15, 
	 "num_atms": 36, 
	 "gaussian": { 
		 "optdone": 1, 
		 "sigma_profile": "yes", 
		 "theory": "DFT", 
		 "functional": "B3LYP", 
		 "basiset": "6-31G**", 
		 "properties": { 
			 "R2extent": 11073.763, 
			 "electric_dipole_moment_norm": 2.70972443802, 
			 "electric_quadrupole_moment_norm": 14.6606026639, 
			 "total_energy": -1193.48628845, 
			 "HOMO_LUMO_gap": 0.20483, 
			 "cosmo_polarized_energy": -11.71, 
			 "cosmo_cavitation_energy": 42.3, 
			 "cosmo_dispersion_energy": -29.38, 
			 "cosmo_repulsion_energy": 2.3, 
			 "cosmo_total_nonelectrostatic_energy": 15.22, 
			 "SMD_solvation_energy": 6.6 
		},
		"coords": [
			{
				"x": -2.029020961,
				"y": 6.0608355019,
				"z": 2.0138598867,
				"element": "Cl" 
			},
			{
				"x": -0.6551439926,
				"y": 4.9631744972,
				"z": 2.003979129,
				"element": "C" 
			},
			{
				"x": -0.5331225575,
				"y": 4.0061331004,
				"z": 3.0122143084,
				"element": "C" 
			},
			{
				"x": 0.5589993026,
				"y": 3.1411279713,
				"z": 2.9998461098,
				"element": "C" 
			},
			{
				"x": 1.5334530879,
				"y": 3.2214829838,
				"z": 1.9941031239,
				"element": "C" 
			},
			{
				"x": 2.7131991212,
				"y": 2.2634808102,
				"z": 1.9956180987,
				"element": "C" 
			},
			{
				"x": 2.233249823,
				"y": 0.8142743181,
				"z": 1.8361769857,
				"element": "C" 
			},
			{
				"x": 1.9538834946,
				"y": 0.1432755648,
				"z": 2.8116907004,
				"element": "O" 
			},
			{
				"x": 2.0945669089,
				"y": 0.2930368838,
				"z": 0.4149789036,
				"element": "C" 
			},
			{
				"x": 1.4303400247,
				"y": -1.0801447517,
				"z": 0.3149038484,
				"element": "C" 
			},
			{
				"x": 1.3398787103,
				"y": -1.590160061,
				"z": -1.1365644507,
				"element": "C" 
			},
			{
				"x": 0.6784601591,
				"y": -2.9480960085,
				"z": -1.2425584587,
				"element": "C" 
			},
			{
				"x": 1.4340486896,
				"y": -4.1246271369,
				"z": -1.146725431,
				"element": "C" 
			},
			{
				"x": 0.822577954,
				"y": -5.3775757059,
				"z": -1.2071637951,
				"element": "C" 
			},
			{
				"x": -0.561091124,
				"y": -5.4748342484,
				"z": -1.3656412536,
				"element": "C" 
			},
			{
				"x": -1.325941915,
				"y": -4.3110786625,
				"z": -1.4639565009,
				"element": "C" 
			},
			{
				"x": -0.709279743,
				"y": -3.060645983,
				"z": -1.4029680998,
				"element": "C" 
			},
			{
				"x": 1.3830747867,
				"y": 4.1875732608,
				"z": 0.9927566369,
				"element": "C" 
			},
			{
				"x": 0.295374055,
				"y": 5.0627305288,
				"z": 0.9905592162,
				"element": "C" 
			},
			{
				"x": -1.282549076,
				"y": 3.9408696843,
				"z": 3.7932962163,
				"element": "H" 
			},
			{
				"x": 0.6553966098,
				"y": 2.3860338515,
				"z": 3.7745238702,
				"element": "H" 
			},
			{
				"x": 3.4067785475,
				"y": 2.5283168733,
				"z": 1.1910152942,
				"element": "H" 
			},
			{
				"x": 3.2481857089,
				"y": 2.3222241979,
				"z": 2.9486916544,
				"element": "H" 
			},
			{
				"x": 1.5460663308,
				"y": 1.0472979248,
				"z": -0.1680772313,
				"element": "H" 
			},
			{
				"x": 3.1038009689,
				"y": 0.2732268367,
				"z": -0.0254709556,
				"element": "H" 
			},
			{
				"x": 0.4266247694,
				"y": -1.0316831826,
				"z": 0.7517994723,
				"element": "H" 
			},
			{
				"x": 1.9860934615,
				"y": -1.7980291386,
				"z": 0.9273422088,
				"element": "H" 
			},
			{
				"x": 2.3497753961,
				"y": -1.6393622422,
				"z": -1.5644016763,
				"element": "H" 
			},
			{
				"x": 0.7826531552,
				"y": -0.8624877221,
				"z": -1.7407255135,
				"element": "H" 
			},
			{
				"x": 2.5131640179,
				"y": -4.0572134709,
				"z": -1.0274917532,
				"element": "H" 
			},
			{
				"x": 1.4271022886,
				"y": -6.2775037014,
				"z": -1.1344519774,
				"element": "H" 
			},
			{
				"x": -1.0386910389,
				"y": -6.4491341025,
				"z": -1.4160481085,
				"element": "H" 
			},
			{
				"x": -2.4029196661,
				"y": -4.3762585372,
				"z": -1.5922492533,
				"element": "H" 
			},
			{
				"x": -1.3115352144,
				"y": -2.1585384847,
				"z": -1.4848133323,
				"element": "H" 
			},
			{
				"x": 2.1277432867,
				"y": 4.2685635966,
				"z": 0.2051217365,
				"element": "H" 
			},
			{
				"x": 0.1880046294,
				"y": 5.8121147537,
				"z": 0.2141303907,
				"element": "H" 
			}
		],
		 "valence_orbital": [ 
			{
				"type": "occ",
				"energy": -0.26726,
				"method": "rhf"
			},
			{
				"type": "occ",
				"energy": -0.2607,
				"method": "rhf"
			},
			{
				"type": "occ",
				"energy": -0.24624,
				"method": "rhf"
			},
			{
				"type": "occ",
				"energy": -0.24028,
				"method": "rhf"
			},
			{
				"type": "occ",
				"energy": -0.23601,
				"method": "rhf"
			},
			{
				"type": "unocc",
				"energy": -0.03118,
				"method": "rhf"
			},
			{
				"type": "unocc",
				"energy": -0.01964,
				"method": "rhf"
			},
			{
				"type": "unocc",
				"energy": -0.00334,
				"method": "rhf"
			},
			{
				"type": "unocc",
				"energy": 0.00206,
				"method": "rhf"
			},
			{
				"type": "unocc",
				"energy": 0.00236,
				"method": "rhf"
			}
		],
		"cosmo_sigma_profile": { 
			"-0.025": 0.0,
			"-0.024": 0.0,
			"-0.023": 0.0,
			"-0.022": 0.0,
			"-0.021": 0.0,
			"-0.02": 0.0,
			"-0.019": 0.0,
			"-0.018": 0.0,
			"-0.017": 0.0,
			"-0.016": 0.0,
			"-0.015": 0.0,
			"-0.014": 0.0,
			"-0.013": 0.0,
			"-0.012": 0.0,
			"-0.011": 0.0,
			"-0.01": 0.0,
			"-0.009": 0.0,
			"-0.008": 0.129806048368,
			"-0.007": 5.4065175771,
			"-0.006": 15.060278777,
			"-0.005": 24.8080489553,
			"-0.004": 31.2798311521,
			"-0.003": 37.8252726291,
			"-0.002": 31.7395463903,
			"-0.001": 25.355237145,
			"0.0": 20.2822863378,
			"0.001": 23.4012784498,
			"0.002": 23.7844231252,
			"0.003": 26.0900297338,
			"0.004": 26.1069498523,
			"0.005": 17.718405045,
			"0.006": 10.0201936059,
			"0.007": 5.56789352525,
			"0.008": 1.85544796433,
			"0.009": 1.48060044387,
			"0.01": 2.03427295151,
			"0.011": 2.66731058163,
			"0.012": 3.98983210559,
			"0.013": 0.970936768966,
			"0.014": 0.0,
			"0.015": 0.0,
			"0.016": 0.0,
			"0.017": 0.0,
			"0.018": 0.0,
			"0.019": 0.0,
			"0.02": 0.0,
			"0.021": 0.0,
			"0.022": 0.0,
			"0.023": 0.0,
			"0.024": 0.0,
			"0.025": 0.0
		}
	}
}
