{
	 "smiles": "O=C1NC2(CCCC2)C(=O)N1CCC#N", 
	 "Tm": 378.15, 
	 "num_atms": 28, 
	 "gaussian": { 
		 "optdone": 1, 
		 "sigma_profile": "yes", 
		 "theory": "DFT", 
		 "functional": "B3LYP", 
		 "basiset": "6-31G**", 
		 "properties": { 
			 "R2extent": 3395.1872, 
			 "electric_dipole_moment_norm": 4.29711550811, 
			 "electric_quadrupole_moment_norm": 21.4196411438, 
			 "total_energy": -703.635587333, 
			 "HOMO_LUMO_gap": 0.24884, 
			 "cosmo_polarized_energy": -19.59, 
			 "cosmo_cavitation_energy": 31.58, 
			 "cosmo_dispersion_energy": -21.37, 
			 "cosmo_repulsion_energy": 1.7, 
			 "cosmo_total_nonelectrostatic_energy": 11.91, 
			 "SMD_solvation_energy": 7.29 
		},
		"coords": [
			{
				"x": 2.304261448,
				"y": -1.2947196981,
				"z": -2.2640736528,
				"element": "O" 
			},
			{
				"x": 1.495535245,
				"y": -0.9172722937,
				"z": -1.4410551394,
				"element": "C" 
			},
			{
				"x": 0.1373637314,
				"y": -0.8268593303,
				"z": -1.5417276506,
				"element": "N" 
			},
			{
				"x": -0.5249157701,
				"y": -0.3361845608,
				"z": -0.3396770297,
				"element": "C" 
			},
			{
				"x": -1.5499013098,
				"y": -1.3431564387,
				"z": 0.2711730952,
				"element": "C" 
			},
			{
				"x": -2.6719258462,
				"y": -0.4691889328,
				"z": 0.8476630567,
				"element": "C" 
			},
			{
				"x": -2.7907413368,
				"y": 0.6632151517,
				"z": -0.1840924676,
				"element": "C" 
			},
			{
				"x": -1.3244242767,
				"y": 1.0015422342,
				"z": -0.5141509693,
				"element": "C" 
			},
			{
				"x": 0.6835995152,
				"y": -0.1385200872,
				"z": 0.5884777148,
				"element": "C" 
			},
			{
				"x": 0.6561865686,
				"y": 0.2545462693,
				"z": 1.7422461495,
				"element": "O" 
			},
			{
				"x": 1.809762623,
				"y": -0.4849429575,
				"z": -0.1226475388,
				"element": "N" 
			},
			{
				"x": 3.168459151,
				"y": -0.434789109,
				"z": 0.3839013748,
				"element": "C" 
			},
			{
				"x": 3.6061231778,
				"y": 0.9918806858,
				"z": 0.7770661285,
				"element": "C" 
			},
			{
				"x": 3.5530579967,
				"y": 1.9401224967,
				"z": -0.3379081229,
				"element": "C" 
			},
			{
				"x": 3.4961041493,
				"y": 2.6911805259,
				"z": -1.2207893787,
				"element": "N" 
			},
			{
				"x": -0.3288062116,
				"y": -1.0633296154,
				"z": -2.4033441765,
				"element": "H" 
			},
			{
				"x": -1.936387414,
				"y": -1.9667751409,
				"z": -0.5440167341,
				"element": "H" 
			},
			{
				"x": -1.0889672119,
				"y": -2.0110266258,
				"z": 1.0039164633,
				"element": "H" 
			},
			{
				"x": -3.6035245121,
				"y": -1.0233990007,
				"z": 0.996932026,
				"element": "H" 
			},
			{
				"x": -2.3617235512,
				"y": -0.0621731756,
				"z": 1.8165650663,
				"element": "H" 
			},
			{
				"x": -3.3460284528,
				"y": 1.5302896001,
				"z": 0.1849358036,
				"element": "H" 
			},
			{
				"x": -3.311695804,
				"y": 0.2988054523,
				"z": -1.0788642333,
				"element": "H" 
			},
			{
				"x": -1.1768620329,
				"y": 1.4127860311,
				"z": -1.5160279338,
				"element": "H" 
			},
			{
				"x": -0.9443980834,
				"y": 1.7344073464,
				"z": 0.2041066927,
				"element": "H" 
			},
			{
				"x": 3.8031793546,
				"y": -0.841114352,
				"z": -0.4061966301,
				"element": "H" 
			},
			{
				"x": 3.2501529405,
				"y": -1.0715306284,
				"z": 1.2704394847,
				"element": "H" 
			},
			{
				"x": 4.6302473793,
				"y": 0.9556915115,
				"z": 1.1651534133,
				"element": "H" 
			},
			{
				"x": 2.9587685332,
				"y": 1.3563146419,
				"z": 1.5809951881,
				"element": "H" 
			}
		],
		 "valence_orbital": [ 
			{
				"type": "occ",
				"energy": -0.32474,
				"method": "rhf"
			},
			{
				"type": "occ",
				"energy": -0.29166,
				"method": "rhf"
			},
			{
				"type": "occ",
				"energy": -0.28327,
				"method": "rhf"
			},
			{
				"type": "occ",
				"energy": -0.26997,
				"method": "rhf"
			},
			{
				"type": "occ",
				"energy": -0.26547,
				"method": "rhf"
			},
			{
				"type": "unocc",
				"energy": -0.01663,
				"method": "rhf"
			},
			{
				"type": "unocc",
				"energy": 0.02965,
				"method": "rhf"
			},
			{
				"type": "unocc",
				"energy": 0.03935,
				"method": "rhf"
			},
			{
				"type": "unocc",
				"energy": 0.05405,
				"method": "rhf"
			},
			{
				"type": "unocc",
				"energy": 0.06931,
				"method": "rhf"
			}
		],
		"cosmo_sigma_profile": { 
			"-0.025": 0.0,
			"-0.024": 0.0,
			"-0.023": 0.0,
			"-0.022": 0.0,
			"-0.021": 0.0,
			"-0.02": 0.0,
			"-0.019": 0.0,
			"-0.018": 0.0,
			"-0.017": 0.0,
			"-0.016": 0.0630019097475,
			"-0.015": 1.17718088637,
			"-0.014": 1.36334756267,
			"-0.013": 0.813930749989,
			"-0.012": 1.13309422523,
			"-0.011": 1.54283976659,
			"-0.01": 1.166442345,
			"-0.009": 4.05956497318,
			"-0.008": 6.75172103653,
			"-0.007": 10.8677137492,
			"-0.006": 9.62247310637,
			"-0.005": 14.0105101028,
			"-0.004": 20.3730149832,
			"-0.003": 22.0885878909,
			"-0.002": 25.3612058924,
			"-0.001": 22.6820106902,
			"0.0": 20.4314998189,
			"0.001": 11.7475381351,
			"0.002": 5.11413382551,
			"0.003": 5.26958603667,
			"0.004": 5.79980108054,
			"0.005": 5.04161839547,
			"0.006": 6.21940777793,
			"0.007": 3.54046758723,
			"0.008": 5.03288491038,
			"0.009": 7.46639214143,
			"0.01": 5.96953110349,
			"0.011": 7.51125293982,
			"0.012": 10.2144589754,
			"0.013": 6.053809344,
			"0.014": 0.520929186684,
			"0.015": 0.0,
			"0.016": 0.0,
			"0.017": 0.0,
			"0.018": 0.0,
			"0.019": 0.0,
			"0.02": 0.0,
			"0.021": 0.0,
			"0.022": 0.0,
			"0.023": 0.0,
			"0.024": 0.0,
			"0.025": 0.0
		}
	}
}
