{
	 "smiles": "CC1=CC=C(C=C1N)[N+]([O-])=O", 
	 "Tm": 379.15, 
	 "num_atms": 19, 
	 "gaussian": { 
		 "optdone": 1, 
		 "sigma_profile": "yes", 
		 "theory": "DFT", 
		 "functional": "B3LYP", 
		 "basiset": "6-31G**", 
		 "properties": { 
			 "R2extent": 2497.3842, 
			 "electric_dipole_moment_norm": 6.04137026261, 
			 "electric_quadrupole_moment_norm": 14.4037519098, 
			 "total_energy": -531.429122192, 
			 "HOMO_LUMO_gap": 0.14384, 
			 "cosmo_polarized_energy": -12.5, 
			 "cosmo_cavitation_energy": 23.32, 
			 "cosmo_dispersion_energy": -17.33, 
			 "cosmo_repulsion_energy": 1.39, 
			 "cosmo_total_nonelectrostatic_energy": 7.38, 
			 "SMD_solvation_energy": 6.26 
		},
		"coords": [
			{
				"x": 1.7199634339,
				"y": 0.0116998748,
				"z": 2.3332769091,
				"element": "C" 
			},
			{
				"x": 0.9744218162,
				"y": -0.7198857438,
				"z": 1.2474845032,
				"element": "C" 
			},
			{
				"x": 0.4751677395,
				"y": -2.0087712651,
				"z": 1.4547554919,
				"element": "C" 
			},
			{
				"x": -0.2316558601,
				"y": -2.6993066797,
				"z": 0.4724193909,
				"element": "C" 
			},
			{
				"x": -0.4299034133,
				"y": -2.0577117638,
				"z": -0.7461128122,
				"element": "C" 
			},
			{
				"x": 0.0514050286,
				"y": -0.7785917718,
				"z": -1.0046473875,
				"element": "C" 
			},
			{
				"x": 0.7592453061,
				"y": -0.0955293893,
				"z": -0.0077081428,
				"element": "C" 
			},
			{
				"x": 1.1952204108,
				"y": 1.2089319716,
				"z": -0.2265208825,
				"element": "N" 
			},
			{
				"x": -1.1688808577,
				"y": -2.7553354904,
				"z": -1.8089617738,
				"element": "N" 
			},
			{
				"x": -1.3247707681,
				"y": -2.1688922108,
				"z": -2.8812040083,
				"element": "O" 
			},
			{
				"x": -1.5891089364,
				"y": -3.8868050697,
				"z": -1.5666549779,
				"element": "O" 
			},
			{
				"x": 1.2469818745,
				"y": 0.9751950671,
				"z": 2.5598717243,
				"element": "H" 
			},
			{
				"x": 2.7594623258,
				"y": 0.2232618268,
				"z": 2.0448713032,
				"element": "H" 
			},
			{
				"x": 1.7526955196,
				"y": -0.5750287005,
				"z": 3.2540009789,
				"element": "H" 
			},
			{
				"x": 0.6436353762,
				"y": -2.4828416692,
				"z": 2.4177783917,
				"element": "H" 
			},
			{
				"x": -0.6208348243,
				"y": -3.6958783131,
				"z": 0.631644687,
				"element": "H" 
			},
			{
				"x": -0.1321827617,
				"y": -0.330440389,
				"z": -1.9739637582,
				"element": "H" 
			},
			{
				"x": 1.2289270599,
				"y": 1.4971951222,
				"z": -1.1942204119,
				"element": "H" 
			},
			{
				"x": 2.0134115306,
				"y": 1.4990345934,
				"z": 0.2891907748,
				"element": "H" 
			}
		],
		 "valence_orbital": [ 
			{
				"type": "occ",
				"energy": -0.30009,
				"method": "rhf"
			},
			{
				"type": "occ",
				"energy": -0.29804,
				"method": "rhf"
			},
			{
				"type": "occ",
				"energy": -0.28103,
				"method": "rhf"
			},
			{
				"type": "occ",
				"energy": -0.26582,
				"method": "rhf"
			},
			{
				"type": "occ",
				"energy": -0.22246,
				"method": "rhf"
			},
			{
				"type": "unocc",
				"energy": -0.07862,
				"method": "rhf"
			},
			{
				"type": "unocc",
				"energy": -0.00715,
				"method": "rhf"
			},
			{
				"type": "unocc",
				"energy": 0.01622,
				"method": "rhf"
			},
			{
				"type": "unocc",
				"energy": 0.06131,
				"method": "rhf"
			},
			{
				"type": "unocc",
				"energy": 0.09146,
				"method": "rhf"
			}
		],
		"cosmo_sigma_profile": { 
			"-0.025": 0.0,
			"-0.024": 0.0,
			"-0.023": 0.0,
			"-0.022": 0.0,
			"-0.021": 0.0,
			"-0.02": 0.0,
			"-0.019": 0.0,
			"-0.018": 0.0,
			"-0.017": 0.0,
			"-0.016": 0.0,
			"-0.015": 0.0,
			"-0.014": 0.0401904050418,
			"-0.013": 1.30082106765,
			"-0.012": 2.71846230313,
			"-0.011": 2.92885661408,
			"-0.01": 3.4651433221,
			"-0.009": 3.31238594083,
			"-0.008": 2.61002157717,
			"-0.007": 3.60409626501,
			"-0.006": 7.61249524422,
			"-0.005": 11.3078255828,
			"-0.004": 12.9037909056,
			"-0.003": 10.0056373679,
			"-0.002": 11.4368479186,
			"-0.001": 13.2476869438,
			"0.0": 14.7007412327,
			"0.001": 12.2981385847,
			"0.002": 11.7124935437,
			"0.003": 14.7413312683,
			"0.004": 7.22144550763,
			"0.005": 4.08332879291,
			"0.006": 4.48902713016,
			"0.007": 6.03803385627,
			"0.008": 11.009765955,
			"0.009": 5.53939245427,
			"0.01": 4.45141478459,
			"0.011": 1.09107384197,
			"0.012": 0.847681915131,
			"0.013": 0.504324402253,
			"0.014": 0.0355044004382,
			"0.015": 0.0,
			"0.016": 0.0,
			"0.017": 0.0,
			"0.018": 0.0,
			"0.019": 0.0,
			"0.02": 0.0,
			"0.021": 0.0,
			"0.022": 0.0,
			"0.023": 0.0,
			"0.024": 0.0,
			"0.025": 0.0
		}
	}
}
