{
	 "smiles": "COC(=O)C1=CC(CS(Cl)(=O)=O)=CC=C1", 
	 "Tm": 376.15, 
	 "num_atms": 24, 
	 "gaussian": { 
		 "optdone": 1, 
		 "sigma_profile": "yes", 
		 "theory": "DFT", 
		 "functional": "B3LYP", 
		 "basiset": "6-31G**", 
		 "properties": { 
			 "R2extent": 5501.3317, 
			 "electric_dipole_moment_norm": 5.68043665311, 
			 "electric_quadrupole_moment_norm": 18.5091731104, 
			 "total_energy": -1507.60620212, 
			 "HOMO_LUMO_gap": 0.18757, 
			 "cosmo_polarized_energy": -15.71, 
			 "cosmo_cavitation_energy": 32.43, 
			 "cosmo_dispersion_energy": -23.48, 
			 "cosmo_repulsion_energy": 1.81, 
			 "cosmo_total_nonelectrostatic_energy": 10.76, 
			 "SMD_solvation_energy": 5.65 
		},
		"coords": [
			{
				"x": 0.8033717364,
				"y": -4.3752544675,
				"z": -1.7711170748,
				"element": "C" 
			},
			{
				"x": 0.0031509225,
				"y": -3.1948842898,
				"z": -1.5914983819,
				"element": "O" 
			},
			{
				"x": 0.5729714841,
				"y": -2.2214265428,
				"z": -0.8489651047,
				"element": "C" 
			},
			{
				"x": 1.6821249227,
				"y": -2.3139285009,
				"z": -0.361970851,
				"element": "O" 
			},
			{
				"x": -0.3121909333,
				"y": -1.0279353533,
				"z": -0.7012780973,
				"element": "C" 
			},
			{
				"x": 0.1516698094,
				"y": 0.0261189187,
				"z": 0.0912294398,
				"element": "C" 
			},
			{
				"x": -0.6221447724,
				"y": 1.1783888585,
				"z": 0.2602017155,
				"element": "C" 
			},
			{
				"x": -0.1190271299,
				"y": 2.3089264276,
				"z": 1.1023241168,
				"element": "C" 
			},
			{
				"x": -0.3421605703,
				"y": 2.0836644439,
				"z": 2.9209581631,
				"element": "S" 
			},
			{
				"x": -2.4734727139,
				"y": 2.1722719597,
				"z": 3.0747923012,
				"element": "Cl" 
			},
			{
				"x": 0.0610663037,
				"y": 0.7406172599,
				"z": 3.3155317756,
				"element": "O" 
			},
			{
				"x": 0.1795045453,
				"y": 3.271685294,
				"z": 3.5864234288,
				"element": "O" 
			},
			{
				"x": -1.8715857175,
				"y": 1.2634667661,
				"z": -0.3716059126,
				"element": "C" 
			},
			{
				"x": -2.3362450185,
				"y": 0.2128563225,
				"z": -1.1619650581,
				"element": "C" 
			},
			{
				"x": -1.562047064,
				"y": -0.9342044192,
				"z": -1.3282260997,
				"element": "C" 
			},
			{
				"x": 1.0334227085,
				"y": -4.832453476,
				"z": -0.80577223,
				"element": "H" 
			},
			{
				"x": 0.2011884825,
				"y": -5.0480293905,
				"z": -2.3812408728,
				"element": "H" 
			},
			{
				"x": 1.7402134485,
				"y": -4.1303183762,
				"z": -2.2775215133,
				"element": "H" 
			},
			{
				"x": 1.1199958409,
				"y": -0.0759572065,
				"z": 0.5700652757,
				"element": "H" 
			},
			{
				"x": 0.9667142937,
				"y": 2.434592776,
				"z": 1.0384743222,
				"element": "H" 
			},
			{
				"x": -0.599089491,
				"y": 3.2657317188,
				"z": 0.8890638783,
				"element": "H" 
			},
			{
				"x": -2.4795008886,
				"y": 2.1543162103,
				"z": -0.2431583929,
				"element": "H" 
			},
			{
				"x": -3.3032626027,
				"y": 0.2902778077,
				"z": -1.648876779,
				"element": "H" 
			},
			{
				"x": -1.9147675961,
				"y": -1.7549227411,
				"z": -1.9417680488,
				"element": "H" 
			}
		],
		 "valence_orbital": [ 
			{
				"type": "occ",
				"energy": -0.31536,
				"method": "rhf"
			},
			{
				"type": "occ",
				"energy": -0.31169,
				"method": "rhf"
			},
			{
				"type": "occ",
				"energy": -0.28463,
				"method": "rhf"
			},
			{
				"type": "occ",
				"energy": -0.27674,
				"method": "rhf"
			},
			{
				"type": "occ",
				"energy": -0.27501,
				"method": "rhf"
			},
			{
				"type": "unocc",
				"energy": -0.08744,
				"method": "rhf"
			},
			{
				"type": "unocc",
				"energy": -0.06054,
				"method": "rhf"
			},
			{
				"type": "unocc",
				"energy": -0.0357,
				"method": "rhf"
			},
			{
				"type": "unocc",
				"energy": 0.03304,
				"method": "rhf"
			},
			{
				"type": "unocc",
				"energy": 0.04804,
				"method": "rhf"
			}
		],
		"cosmo_sigma_profile": { 
			"-0.025": 0.0,
			"-0.024": 0.0,
			"-0.023": 0.0,
			"-0.022": 0.0,
			"-0.021": 0.0,
			"-0.02": 0.0,
			"-0.019": 0.0,
			"-0.018": 0.0,
			"-0.017": 0.0,
			"-0.016": 0.0,
			"-0.015": 0.0,
			"-0.014": 0.0,
			"-0.013": 0.382791013824,
			"-0.012": 1.37355415616,
			"-0.011": 2.76806279744,
			"-0.01": 4.84106528267,
			"-0.009": 5.34871216361,
			"-0.008": 4.34791176511,
			"-0.007": 9.47658117276,
			"-0.006": 14.4129797154,
			"-0.005": 14.5347203181,
			"-0.004": 16.4416346071,
			"-0.003": 16.3228803105,
			"-0.002": 12.9489439016,
			"-0.001": 14.0882848524,
			"0.0": 17.9189778449,
			"0.001": 21.0336673002,
			"0.002": 24.2305408267,
			"0.003": 19.7873925476,
			"0.004": 13.5620476163,
			"0.005": 6.9050951656,
			"0.006": 5.42929821159,
			"0.007": 5.86286047263,
			"0.008": 12.6388334173,
			"0.009": 7.96217886599,
			"0.01": 2.21876890834,
			"0.011": 3.46692143616,
			"0.012": 3.20837422586,
			"0.013": 0.0498089062899,
			"0.014": 0.0,
			"0.015": 0.0,
			"0.016": 0.0,
			"0.017": 0.0,
			"0.018": 0.0,
			"0.019": 0.0,
			"0.02": 0.0,
			"0.021": 0.0,
			"0.022": 0.0,
			"0.023": 0.0,
			"0.024": 0.0,
			"0.025": 0.0
		}
	}
}
