{
	 "smiles": "NNC(=O)C(=O)NC1CC1", 
	 "Tm": 455.15, 
	 "num_atms": 19, 
	 "gaussian": { 
		 "optdone": 1, 
		 "sigma_profile": "yes", 
		 "theory": "DFT", 
		 "functional": "B3LYP", 
		 "basiset": "6-31G**", 
		 "properties": { 
			 "R2extent": 1992.4039, 
			 "electric_dipole_moment_norm": 1.84341968634, 
			 "electric_quadrupole_moment_norm": 8.57289985069, 
			 "total_energy": -510.61492209, 
			 "HOMO_LUMO_gap": 0.19414, 
			 "cosmo_polarized_energy": -13.17, 
			 "cosmo_cavitation_energy": 23.34, 
			 "cosmo_dispersion_energy": -17.11, 
			 "cosmo_repulsion_energy": 1.43, 
			 "cosmo_total_nonelectrostatic_energy": 7.66, 
			 "SMD_solvation_energy": 5.11 
		},
		"coords": [
			{
				"x": -1.9567691873,
				"y": 1.7896368924,
				"z": -3.1070695391,
				"element": "N" 
			},
			{
				"x": -2.4496718983,
				"y": 0.8364113631,
				"z": -2.1831506094,
				"element": "N" 
			},
			{
				"x": -1.873063824,
				"y": 0.3468552747,
				"z": -1.0590592559,
				"element": "C" 
			},
			{
				"x": -2.4484325221,
				"y": -0.4570145451,
				"z": -0.3237456865,
				"element": "O" 
			},
			{
				"x": -0.4631553375,
				"y": 0.8602160787,
				"z": -0.6803923967,
				"element": "C" 
			},
			{
				"x": 0.1034384751,
				"y": 1.8083458466,
				"z": -1.2227219791,
				"element": "O" 
			},
			{
				"x": 0.0398174969,
				"y": 0.1378896704,
				"z": 0.344999069,
				"element": "N" 
			},
			{
				"x": 1.2820298392,
				"y": 0.4612451228,
				"z": 0.983953674,
				"element": "C" 
			},
			{
				"x": 2.0692169355,
				"y": -0.6631717406,
				"z": 1.5999001828,
				"element": "C" 
			},
			{
				"x": 2.574980852,
				"y": 0.0145882595,
				"z": 0.3495294963,
				"element": "C" 
			},
			{
				"x": -1.3364547107,
				"y": 2.4060250804,
				"z": -2.5841668455,
				"element": "H" 
			},
			{
				"x": -1.3526983739,
				"y": 1.2990004032,
				"z": -3.7675053313,
				"element": "H" 
			},
			{
				"x": -3.411364075,
				"y": 0.5539709358,
				"z": -2.3267777239,
				"element": "H" 
			},
			{
				"x": -0.6082642248,
				"y": -0.5250713173,
				"z": 0.7574071397,
				"element": "H" 
			},
			{
				"x": 1.2896127819,
				"y": 1.4250674985,
				"z": 1.4891298166,
				"element": "H" 
			},
			{
				"x": 2.5716312935,
				"y": -0.4727028441,
				"z": 2.5427452215,
				"element": "H" 
			},
			{
				"x": 1.6694523103,
				"y": -1.6681694007,
				"z": 1.4993800668,
				"element": "H" 
			},
			{
				"x": 2.50298679,
				"y": -0.5321153126,
				"z": -0.5845533888,
				"element": "H" 
			},
			{
				"x": 3.4274073792,
				"y": 0.6819927343,
				"z": 0.4221980893,
				"element": "H" 
			}
		],
		 "valence_orbital": [ 
			{
				"type": "occ",
				"energy": -0.31173,
				"method": "rhf"
			},
			{
				"type": "occ",
				"energy": -0.30438,
				"method": "rhf"
			},
			{
				"type": "occ",
				"energy": -0.26067,
				"method": "rhf"
			},
			{
				"type": "occ",
				"energy": -0.25599,
				"method": "rhf"
			},
			{
				"type": "occ",
				"energy": -0.23457,
				"method": "rhf"
			},
			{
				"type": "unocc",
				"energy": -0.04043,
				"method": "rhf"
			},
			{
				"type": "unocc",
				"energy": 0.08202,
				"method": "rhf"
			},
			{
				"type": "unocc",
				"energy": 0.09024,
				"method": "rhf"
			},
			{
				"type": "unocc",
				"energy": 0.09632,
				"method": "rhf"
			},
			{
				"type": "unocc",
				"energy": 0.10345,
				"method": "rhf"
			}
		],
		"cosmo_sigma_profile": { 
			"-0.025": 0.0,
			"-0.024": 0.0,
			"-0.023": 0.0,
			"-0.022": 0.0,
			"-0.021": 0.0,
			"-0.02": 0.0,
			"-0.019": 0.0,
			"-0.018": 0.0,
			"-0.017": 0.0,
			"-0.016": 0.0,
			"-0.015": 0.277341722236,
			"-0.014": 1.15938674623,
			"-0.013": 0.808956381783,
			"-0.012": 1.77398119246,
			"-0.011": 2.94543217962,
			"-0.01": 2.94933028501,
			"-0.009": 2.72245272296,
			"-0.008": 2.92851265805,
			"-0.007": 4.11140314837,
			"-0.006": 8.9152380228,
			"-0.005": 15.104715437,
			"-0.004": 15.9356088016,
			"-0.003": 13.233270362,
			"-0.002": 13.8122713575,
			"-0.001": 16.6017420459,
			"0.0": 12.0857365331,
			"0.001": 9.06007464389,
			"0.002": 7.67539829401,
			"0.003": 4.9202487575,
			"0.004": 5.13477503155,
			"0.005": 4.656479333,
			"0.006": 3.7027632903,
			"0.007": 3.39049969128,
			"0.008": 2.43419424958,
			"0.009": 3.72851998777,
			"0.01": 4.48401703338,
			"0.011": 5.1093665465,
			"0.012": 6.02481971918,
			"0.013": 5.35148000632,
			"0.014": 1.45422322432,
			"0.015": 0.80872341808,
			"0.016": 0.500130702271,
			"0.017": 0.0823194414933,
			"0.018": 0.0,
			"0.019": 0.0,
			"0.02": 0.0,
			"0.021": 0.0,
			"0.022": 0.0,
			"0.023": 0.0,
			"0.024": 0.0,
			"0.025": 0.0
		}
	}
}
