{
	 "smiles": "ClP(=O)(N1CCOC1=O)N1CCOC1=O", 
	 "Tm": 464.15, 
	 "num_atms": 23, 
	 "gaussian": { 
		 "optdone": 1, 
		 "sigma_profile": "yes", 
		 "theory": "DFT", 
		 "functional": "B3LYP", 
		 "basiset": "6-31G**", 
		 "properties": { 
			 "R2extent": 3599.1807, 
			 "electric_dipole_moment_norm": 1.13468940684, 
			 "electric_quadrupole_moment_norm": 31.3058187986, 
			 "total_energy": -1520.70600137, 
			 "HOMO_LUMO_gap": 0.26589, 
			 "cosmo_polarized_energy": -20.07, 
			 "cosmo_cavitation_energy": 29.81, 
			 "cosmo_dispersion_energy": -21.69, 
			 "cosmo_repulsion_energy": 1.67, 
			 "cosmo_total_nonelectrostatic_energy": 9.78, 
			 "SMD_solvation_energy": 7.66 
		},
		"coords": [
			{
				"x": -2.8531383349,
				"y": -0.8224357942,
				"z": -0.007346541,
				"element": "Cl" 
			},
			{
				"x": -1.1179440209,
				"y": -0.8308262536,
				"z": 1.0899228857,
				"element": "P" 
			},
			{
				"x": -1.3492548389,
				"y": -0.8518399097,
				"z": 2.5491331784,
				"element": "O" 
			},
			{
				"x": -0.2697507904,
				"y": -2.1860516392,
				"z": 0.5688003125,
				"element": "N" 
			},
			{
				"x": 0.4037429719,
				"y": -3.0937884272,
				"z": 1.5137179987,
				"element": "C" 
			},
			{
				"x": 0.9156078619,
				"y": -4.1614421949,
				"z": 0.5344259334,
				"element": "C" 
			},
			{
				"x": 0.9904454459,
				"y": -3.493903913,
				"z": -0.7417208189,
				"element": "O" 
			},
			{
				"x": 0.2265750879,
				"y": -2.3755054153,
				"z": -0.7329748914,
				"element": "C" 
			},
			{
				"x": 0.0233640387,
				"y": -1.6790907567,
				"z": -1.6944485539,
				"element": "O" 
			},
			{
				"x": -0.3020178703,
				"y": 0.4956828605,
				"z": 0.4203077724,
				"element": "N" 
			},
			{
				"x": -0.8599940143,
				"y": 1.7107066335,
				"z": -0.1846691489,
				"element": "C" 
			},
			{
				"x": 0.4150212785,
				"y": 2.3288545888,
				"z": -0.7852782779,
				"element": "C" 
			},
			{
				"x": 1.501221104,
				"y": 1.7454935659,
				"z": -0.0399653122,
				"element": "O" 
			},
			{
				"x": 1.0916407956,
				"y": 0.6036071991,
				"z": 0.5592825938,
				"element": "C" 
			},
			{
				"x": 1.8243258055,
				"y": -0.1740112222,
				"z": 1.1189373086,
				"element": "O" 
			},
			{
				"x": -0.293129412,
				"y": -3.4912213724,
				"z": 2.2520513453,
				"element": "H" 
			},
			{
				"x": 1.2162068235,
				"y": -2.5643418499,
				"z": 2.0183131766,
				"element": "H" 
			},
			{
				"x": 0.2230525087,
				"y": -5.0044611375,
				"z": 0.4414697746,
				"element": "H" 
			},
			{
				"x": 1.9110516804,
				"y": -4.5306288309,
				"z": 0.7842148991,
				"element": "H" 
			},
			{
				"x": -1.3169918375,
				"y": 2.3523774965,
				"z": 0.5764552473,
				"element": "H" 
			},
			{
				"x": -1.6000663519,
				"y": 1.4727766279,
				"z": -0.9490261292,
				"element": "H" 
			},
			{
				"x": 0.4648704756,
				"y": 3.4123502872,
				"z": -0.6706385621,
				"element": "H" 
			},
			{
				"x": 0.5379615928,
				"y": 2.0602994573,
				"z": -1.8387641909,
				"element": "H" 
			}
		],
		 "valence_orbital": [ 
			{
				"type": "occ",
				"energy": -0.31249,
				"method": "rhf"
			},
			{
				"type": "occ",
				"energy": -0.30383,
				"method": "rhf"
			},
			{
				"type": "occ",
				"energy": -0.30182,
				"method": "rhf"
			},
			{
				"type": "occ",
				"energy": -0.29154,
				"method": "rhf"
			},
			{
				"type": "occ",
				"energy": -0.28451,
				"method": "rhf"
			},
			{
				"type": "unocc",
				"energy": -0.01862,
				"method": "rhf"
			},
			{
				"type": "unocc",
				"energy": 0.00909,
				"method": "rhf"
			},
			{
				"type": "unocc",
				"energy": 0.01745,
				"method": "rhf"
			},
			{
				"type": "unocc",
				"energy": 0.04705,
				"method": "rhf"
			},
			{
				"type": "unocc",
				"energy": 0.06165,
				"method": "rhf"
			}
		],
		"cosmo_sigma_profile": { 
			"-0.025": 0.0,
			"-0.024": 0.0,
			"-0.023": 0.0,
			"-0.022": 0.0,
			"-0.021": 0.0,
			"-0.02": 0.0,
			"-0.019": 0.0,
			"-0.018": 0.0,
			"-0.017": 0.0,
			"-0.016": 0.0,
			"-0.015": 0.0,
			"-0.014": 0.0,
			"-0.013": 0.0,
			"-0.012": 0.0,
			"-0.011": 0.0,
			"-0.01": 0.0186933694377,
			"-0.009": 2.14016874791,
			"-0.008": 20.1237777941,
			"-0.007": 27.8581214458,
			"-0.006": 18.0392152573,
			"-0.005": 13.6023132299,
			"-0.004": 9.14024962476,
			"-0.003": 9.99990402642,
			"-0.002": 8.99211024371,
			"-0.001": 10.7838365607,
			"0.0": 11.8923406402,
			"0.001": 11.0237260911,
			"0.002": 12.6778631958,
			"0.003": 11.4183678668,
			"0.004": 7.05461934024,
			"0.005": 6.58592841767,
			"0.006": 5.74321056349,
			"0.007": 8.12486559674,
			"0.008": 9.23654691484,
			"0.009": 7.16357235025,
			"0.01": 6.03345792431,
			"0.011": 9.05934112482,
			"0.012": 9.19964950412,
			"0.013": 1.29542225469,
			"0.014": 0.0,
			"0.015": 0.0,
			"0.016": 0.0,
			"0.017": 0.0,
			"0.018": 0.0,
			"0.019": 0.0,
			"0.02": 0.0,
			"0.021": 0.0,
			"0.022": 0.0,
			"0.023": 0.0,
			"0.024": 0.0,
			"0.025": 0.0
		}
	}
}
