{
	 "smiles": "CC(=O)C1=C(C)N(CCS(C)(=O)=O)N=C1C", 
	 "Tm": 413.15, 
	 "num_atms": 32, 
	 "gaussian": { 
		 "optdone": 1, 
		 "sigma_profile": "yes", 
		 "theory": "DFT", 
		 "functional": "B3LYP", 
		 "basiset": "6-31G**", 
		 "properties": { 
			 "R2extent": 4675.3256, 
			 "electric_dipole_moment_norm": 4.31070180017, 
			 "electric_quadrupole_moment_norm": 21.2637378405, 
			 "total_energy": -1124.01388387, 
			 "HOMO_LUMO_gap": 0.20839, 
			 "cosmo_polarized_energy": -20.62, 
			 "cosmo_cavitation_energy": 35.0, 
			 "cosmo_dispersion_energy": -24.8, 
			 "cosmo_repulsion_energy": 1.88, 
			 "cosmo_total_nonelectrostatic_energy": 12.08, 
			 "SMD_solvation_energy": 5.74 
		},
		"coords": [
			{
				"x": -2.6228627768,
				"y": 1.3459755649,
				"z": -2.7610519599,
				"element": "C" 
			},
			{
				"x": -1.8489848537,
				"y": 0.0758791255,
				"z": -2.443576706,
				"element": "C" 
			},
			{
				"x": -1.709651156,
				"y": -0.7731001064,
				"z": -3.3192512762,
				"element": "O" 
			},
			{
				"x": -1.2870249743,
				"y": -0.1015777449,
				"z": -1.0896259862,
				"element": "C" 
			},
			{
				"x": -0.5694031904,
				"y": -1.2316450144,
				"z": -0.6594509705,
				"element": "C" 
			},
			{
				"x": -0.1825683074,
				"y": -2.4886039927,
				"z": -1.3725658057,
				"element": "C" 
			},
			{
				"x": -0.2398056365,
				"y": -0.9890613243,
				"z": 0.6337761656,
				"element": "N" 
			},
			{
				"x": 0.4809372884,
				"y": -1.8416386048,
				"z": 1.5680925844,
				"element": "C" 
			},
			{
				"x": 1.7126770549,
				"y": -1.1609337987,
				"z": 2.1595924159,
				"element": "C" 
			},
			{
				"x": 3.092426761,
				"y": -0.9486201942,
				"z": 0.97929262,
				"element": "S" 
			},
			{
				"x": 2.7208802695,
				"y": 0.5683078897,
				"z": 0.072376949,
				"element": "C" 
			},
			{
				"x": 4.3007187565,
				"y": -0.7039449354,
				"z": 1.7808546785,
				"element": "O" 
			},
			{
				"x": 3.0395420803,
				"y": -2.0740013024,
				"z": 0.0262726765,
				"element": "O" 
			},
			{
				"x": -0.6933980299,
				"y": 0.2154805286,
				"z": 1.0852182589,
				"element": "N" 
			},
			{
				"x": -1.3278226518,
				"y": 0.7629594373,
				"z": 0.0554011712,
				"element": "C" 
			},
			{
				"x": -1.9465766805,
				"y": 2.1157708369,
				"z": 0.2520042672,
				"element": "C" 
			},
			{
				"x": -1.9979794504,
				"y": 2.235741848,
				"z": -2.6310074428,
				"element": "H" 
			},
			{
				"x": -3.4902042874,
				"y": 1.4581896113,
				"z": -2.1022420915,
				"element": "H" 
			},
			{
				"x": -2.9597638334,
				"y": 1.2895688783,
				"z": -3.7966967764,
				"element": "H" 
			},
			{
				"x": -0.677986037,
				"y": -3.3607953339,
				"z": -0.9288285956,
				"element": "H" 
			},
			{
				"x": 0.8991299764,
				"y": -2.6507048154,
				"z": -1.3180937764,
				"element": "H" 
			},
			{
				"x": -0.4917323335,
				"y": -2.4087373353,
				"z": -2.4127249231,
				"element": "H" 
			},
			{
				"x": -0.193372214,
				"y": -2.1094044375,
				"z": 2.3889418483,
				"element": "H" 
			},
			{
				"x": 0.7733473375,
				"y": -2.7528357991,
				"z": 1.0462006643,
				"element": "H" 
			},
			{
				"x": 1.4706054212,
				"y": -0.1822882028,
				"z": 2.5797032876,
				"element": "H" 
			},
			{
				"x": 2.1524320218,
				"y": -1.783906138,
				"z": 2.9437589663,
				"element": "H" 
			},
			{
				"x": 2.6733944645,
				"y": 1.4014646976,
				"z": 0.7745435263,
				"element": "H" 
			},
			{
				"x": 3.5536403112,
				"y": 0.7044021358,
				"z": -0.6204096566,
				"element": "H" 
			},
			{
				"x": 1.7838980283,
				"y": 0.4554805129,
				"z": -0.4728961331,
				"element": "H" 
			},
			{
				"x": -1.5350306284,
				"y": 2.8620237647,
				"z": -0.4351765323,
				"element": "H" 
			},
			{
				"x": -1.7508678942,
				"y": 2.4449998878,
				"z": 1.2745736063,
				"element": "H" 
			},
			{
				"x": -3.0304948358,
				"y": 2.096254361,
				"z": 0.1002949461,
				"element": "H" 
			}
		],
		 "valence_orbital": [ 
			{
				"type": "occ",
				"energy": -0.30058,
				"method": "rhf"
			},
			{
				"type": "occ",
				"energy": -0.29319,
				"method": "rhf"
			},
			{
				"type": "occ",
				"energy": -0.26023,
				"method": "rhf"
			},
			{
				"type": "occ",
				"energy": -0.25241,
				"method": "rhf"
			},
			{
				"type": "occ",
				"energy": -0.24481,
				"method": "rhf"
			},
			{
				"type": "unocc",
				"energy": -0.03642,
				"method": "rhf"
			},
			{
				"type": "unocc",
				"energy": 0.00519,
				"method": "rhf"
			},
			{
				"type": "unocc",
				"energy": 0.05377,
				"method": "rhf"
			},
			{
				"type": "unocc",
				"energy": 0.06529,
				"method": "rhf"
			},
			{
				"type": "unocc",
				"energy": 0.06675,
				"method": "rhf"
			}
		],
		"cosmo_sigma_profile": { 
			"-0.025": 0.0,
			"-0.024": 0.0,
			"-0.023": 0.0,
			"-0.022": 0.0,
			"-0.021": 0.0,
			"-0.02": 0.0,
			"-0.019": 0.0,
			"-0.018": 0.0,
			"-0.017": 0.0,
			"-0.016": 0.0,
			"-0.015": 0.0,
			"-0.014": 0.0,
			"-0.013": 0.0,
			"-0.012": 0.0542799530892,
			"-0.011": 0.550096738903,
			"-0.01": 1.1592966878,
			"-0.009": 5.80043103414,
			"-0.008": 9.34521314815,
			"-0.007": 11.9973786638,
			"-0.006": 19.2487452312,
			"-0.005": 22.4035427023,
			"-0.004": 20.9025615738,
			"-0.003": 21.0257498679,
			"-0.002": 19.7380216655,
			"-0.001": 25.90207867,
			"0.0": 21.2364965049,
			"0.001": 11.1068599695,
			"0.002": 9.42605995388,
			"0.003": 7.54881549306,
			"0.004": 6.96499365778,
			"0.005": 5.42370343722,
			"0.006": 5.2187422839,
			"0.007": 5.1493630495,
			"0.008": 5.30501910302,
			"0.009": 6.0835246459,
			"0.01": 5.86831640124,
			"0.011": 10.4985916155,
			"0.012": 12.4875938922,
			"0.013": 4.09882694627,
			"0.014": 1.55578678353,
			"0.015": 0.0,
			"0.016": 0.0,
			"0.017": 0.0,
			"0.018": 0.0,
			"0.019": 0.0,
			"0.02": 0.0,
			"0.021": 0.0,
			"0.022": 0.0,
			"0.023": 0.0,
			"0.024": 0.0,
			"0.025": 0.0
		}
	}
}
