{
	 "smiles": "COC1=CC=C(C=C2C(=O)OC(C)(C)OC2=O)C=C1OC", 
	 "Tm": 437.15, 
	 "num_atms": 37, 
	 "gaussian": { 
		 "optdone": 1, 
		 "sigma_profile": "yes", 
		 "theory": "DFT", 
		 "functional": "B3LYP", 
		 "basiset": "6-31G**", 
		 "properties": { 
			 "R2extent": 8580.9438, 
			 "electric_dipole_moment_norm": 4.44303411758, 
			 "electric_quadrupole_moment_norm": 13.2599609517, 
			 "total_energy": -1032.56665415, 
			 "HOMO_LUMO_gap": 0.13156, 
			 "cosmo_polarized_energy": -14.73, 
			 "cosmo_cavitation_energy": 40.67, 
			 "cosmo_dispersion_energy": -28.74, 
			 "cosmo_repulsion_energy": 2.18, 
			 "cosmo_total_nonelectrostatic_energy": 14.11, 
			 "SMD_solvation_energy": 10.46 
		},
		"coords": [
			{
				"x": 3.4315592707,
				"y": -0.9001947181,
				"z": 4.5245054939,
				"element": "C" 
			},
			{
				"x": 3.7794976466,
				"y": -0.6981113927,
				"z": 3.1488190022,
				"element": "O" 
			},
			{
				"x": 2.842192314,
				"y": -0.6647387286,
				"z": 2.1721566337,
				"element": "C" 
			},
			{
				"x": 3.1564223437,
				"y": 0.130326071,
				"z": 1.0622372738,
				"element": "C" 
			},
			{
				"x": 2.2972071384,
				"y": 0.2227266632,
				"z": -0.0192114957,
				"element": "C" 
			},
			{
				"x": 1.0662140744,
				"y": -0.4728370591,
				"z": -0.0295978433,
				"element": "C" 
			},
			{
				"x": 0.2401069854,
				"y": -0.2714169422,
				"z": -1.1974341098,
				"element": "C" 
			},
			{
				"x": -1.0221328507,
				"y": -0.6171754784,
				"z": -1.6163690008,
				"element": "C" 
			},
			{
				"x": -1.3816121207,
				"y": -0.0955836926,
				"z": -2.9700037901,
				"element": "C" 
			},
			{
				"x": -0.5972559891,
				"y": 0.3858905855,
				"z": -3.756839476,
				"element": "O" 
			},
			{
				"x": -2.6900709247,
				"y": -0.2174343214,
				"z": -3.3422530433,
				"element": "O" 
			},
			{
				"x": -3.6820616257,
				"y": -0.4340795562,
				"z": -2.3357516182,
				"element": "C" 
			},
			{
				"x": -3.951137258,
				"y": 0.8607211723,
				"z": -1.5686592529,
				"element": "C" 
			},
			{
				"x": -4.9068064325,
				"y": -0.9706245074,
				"z": -3.0565713527,
				"element": "C" 
			},
			{
				"x": -3.271907541,
				"y": -1.4670685837,
				"z": -1.4297307018,
				"element": "O" 
			},
			{
				"x": -2.0041914086,
				"y": -1.4734578807,
				"z": -0.9210340606,
				"element": "C" 
			},
			{
				"x": -1.7879611811,
				"y": -2.2179185236,
				"z": 0.0149750458,
				"element": "O" 
			},
			{
				"x": 0.7602101715,
				"y": -1.2919097349,
				"z": 1.0828124903,
				"element": "C" 
			},
			{
				"x": 1.6280105309,
				"y": -1.4049716956,
				"z": 2.1612189111,
				"element": "C" 
			},
			{
				"x": 1.3983379837,
				"y": -2.2249413577,
				"z": 3.2293907103,
				"element": "O" 
			},
			{
				"x": 0.1984668683,
				"y": -2.992198199,
				"z": 3.2372690096,
				"element": "C" 
			},
			{
				"x": 3.2442589483,
				"y": -1.9525353554,
				"z": 4.7414911936,
				"element": "H" 
			},
			{
				"x": 4.2967808382,
				"y": -0.5482566592,
				"z": 5.0898643485,
				"element": "H" 
			},
			{
				"x": 2.5512981472,
				"y": -0.3118852448,
				"z": 4.8007036161,
				"element": "H" 
			},
			{
				"x": 4.0954763006,
				"y": 0.6726104486,
				"z": 1.0864605615,
				"element": "H" 
			},
			{
				"x": 2.5640346858,
				"y": 0.8522809846,
				"z": -0.862681062,
				"element": "H" 
			},
			{
				"x": 0.734501018,
				"y": 0.344264524,
				"z": -1.947833108,
				"element": "H" 
			},
			{
				"x": -4.7279681493,
				"y": 0.6928288289,
				"z": -0.8186920543,
				"element": "H" 
			},
			{
				"x": -4.2839839686,
				"y": 1.638089605,
				"z": -2.2606781291,
				"element": "H" 
			},
			{
				"x": -3.0478805701,
				"y": 1.2107810725,
				"z": -1.0617912665,
				"element": "H" 
			},
			{
				"x": -4.6457172252,
				"y": -1.891856173,
				"z": -3.58129924,
				"element": "H" 
			},
			{
				"x": -5.7004136612,
				"y": -1.1819482546,
				"z": -2.336365885,
				"element": "H" 
			},
			{
				"x": -5.2631509981,
				"y": -0.2354435243,
				"z": -3.7815965028,
				"element": "H" 
			},
			{
				"x": -0.1571715142,
				"y": -1.8599194229,
				"z": 1.0551417153,
				"element": "H" 
			},
			{
				"x": -0.6902746513,
				"y": -2.3506452572,
				"z": 3.2220777028,
				"element": "H" 
			},
			{
				"x": 0.2197852664,
				"y": -3.5653074974,
				"z": 4.1651838121,
				"element": "H" 
			},
			{
				"x": 0.1552375383,
				"y": -3.6776601948,
				"z": 2.3831854725,
				"element": "H" 
			}
		],
		 "valence_orbital": [ 
			{
				"type": "occ",
				"energy": -0.28747,
				"method": "rhf"
			},
			{
				"type": "occ",
				"energy": -0.28095,
				"method": "rhf"
			},
			{
				"type": "occ",
				"energy": -0.26635,
				"method": "rhf"
			},
			{
				"type": "occ",
				"energy": -0.24651,
				"method": "rhf"
			},
			{
				"type": "occ",
				"energy": -0.21733,
				"method": "rhf"
			},
			{
				"type": "unocc",
				"energy": -0.08577,
				"method": "rhf"
			},
			{
				"type": "unocc",
				"energy": -0.00141,
				"method": "rhf"
			},
			{
				"type": "unocc",
				"energy": 0.00252,
				"method": "rhf"
			},
			{
				"type": "unocc",
				"energy": 0.01985,
				"method": "rhf"
			},
			{
				"type": "unocc",
				"energy": 0.08037,
				"method": "rhf"
			}
		],
		"cosmo_sigma_profile": { 
			"-0.025": 0.0,
			"-0.024": 0.0,
			"-0.023": 0.0,
			"-0.022": 0.0,
			"-0.021": 0.0,
			"-0.02": 0.0,
			"-0.019": 0.0,
			"-0.018": 0.0,
			"-0.017": 0.0,
			"-0.016": 0.0,
			"-0.015": 0.0,
			"-0.014": 0.0,
			"-0.013": 0.0,
			"-0.012": 0.0,
			"-0.011": 0.0,
			"-0.01": 0.0,
			"-0.009": 0.390493958436,
			"-0.008": 1.72904288612,
			"-0.007": 4.16569523705,
			"-0.006": 16.8479380121,
			"-0.005": 31.6028940886,
			"-0.004": 30.5154277764,
			"-0.003": 35.4290110135,
			"-0.002": 31.0769479228,
			"-0.001": 25.7457350399,
			"0.0": 19.4513491693,
			"0.001": 20.9469726044,
			"0.002": 23.3805152557,
			"0.003": 19.0315144304,
			"0.004": 9.6362346438,
			"0.005": 7.9749113284,
			"0.006": 6.12409000023,
			"0.007": 5.67526862158,
			"0.008": 5.38301976545,
			"0.009": 7.41579405911,
			"0.01": 6.63558290022,
			"0.011": 6.71621521287,
			"0.012": 5.63025120316,
			"0.013": 1.86963962957,
			"0.014": 0.0,
			"0.015": 0.0,
			"0.016": 0.0,
			"0.017": 0.0,
			"0.018": 0.0,
			"0.019": 0.0,
			"0.02": 0.0,
			"0.021": 0.0,
			"0.022": 0.0,
			"0.023": 0.0,
			"0.024": 0.0,
			"0.025": 0.0
		}
	}
}
