{
	 "smiles": "O=C1C=C(OC2=C1C=CC1=CC=CC=C21)C1=CC=CC=C1", 
	 "Tm": 429.15, 
	 "num_atms": 33, 
	 "gaussian": { 
		 "optdone": 1, 
		 "sigma_profile": "yes", 
		 "theory": "DFT", 
		 "functional": "B3LYP", 
		 "basiset": "6-31G**", 
		 "properties": { 
			 "R2extent": 8366.3104, 
			 "electric_dipole_moment_norm": 4.58982303907, 
			 "electric_quadrupole_moment_norm": 24.2807004613, 
			 "total_energy": -881.717403939, 
			 "HOMO_LUMO_gap": 0.15741, 
			 "cosmo_polarized_energy": -12.47, 
			 "cosmo_cavitation_energy": 37.42, 
			 "cosmo_dispersion_energy": -27.22, 
			 "cosmo_repulsion_energy": 1.99, 
			 "cosmo_total_nonelectrostatic_energy": 12.19, 
			 "SMD_solvation_energy": 6.64 
		},
		"coords": [
			{
				"x": -4.3234910707,
				"y": 1.6062815469,
				"z": -1.6109693271,
				"element": "O" 
			},
			{
				"x": -3.2008698539,
				"y": 1.1068201263,
				"z": -1.5244689065,
				"element": "C" 
			},
			{
				"x": -2.1734813355,
				"y": 1.5938878914,
				"z": -0.6111495569,
				"element": "C" 
			},
			{
				"x": -0.946747406,
				"y": 1.0194473307,
				"z": -0.5282630055,
				"element": "C" 
			},
			{
				"x": -0.5990788017,
				"y": -0.0428098182,
				"z": -1.3129452627,
				"element": "O" 
			},
			{
				"x": -1.4944964915,
				"y": -0.5603680674,
				"z": -2.2103899999,
				"element": "C" 
			},
			{
				"x": -2.7704888992,
				"y": -0.040736738,
				"z": -2.3528808293,
				"element": "C" 
			},
			{
				"x": -3.6521708403,
				"y": -0.6207890301,
				"z": -3.3060873777,
				"element": "C" 
			},
			{
				"x": -3.2519548217,
				"y": -1.6799316974,
				"z": -4.0744451122,
				"element": "C" 
			},
			{
				"x": -1.9422194193,
				"y": -2.2324218169,
				"z": -3.9350699423,
				"element": "C" 
			},
			{
				"x": -1.5046258379,
				"y": -3.3328799054,
				"z": -4.7153921967,
				"element": "C" 
			},
			{
				"x": -0.2377780373,
				"y": -3.8541295946,
				"z": -4.5601229326,
				"element": "C" 
			},
			{
				"x": 0.650904994,
				"y": -3.2976398532,
				"z": -3.6120905249,
				"element": "C" 
			},
			{
				"x": 0.2612502104,
				"y": -2.2263221288,
				"z": -2.8363569484,
				"element": "C" 
			},
			{
				"x": -1.0348155297,
				"y": -1.671174365,
				"z": -2.9817451878,
				"element": "C" 
			},
			{
				"x": 0.1531014303,
				"y": 1.4425682443,
				"z": 0.358807921,
				"element": "C" 
			},
			{
				"x": 1.4885331524,
				"y": 1.1615259259,
				"z": 0.0242877507,
				"element": "C" 
			},
			{
				"x": 2.5268201112,
				"y": 1.5799998702,
				"z": 0.8539220152,
				"element": "C" 
			},
			{
				"x": 2.2498499249,
				"y": 2.2790936346,
				"z": 2.0301689197,
				"element": "C" 
			},
			{
				"x": 0.9246223838,
				"y": 2.5553833356,
				"z": 2.3748693345,
				"element": "C" 
			},
			{
				"x": -0.116403427,
				"y": 2.1389647036,
				"z": 1.5491808924,
				"element": "C" 
			},
			{
				"x": -2.4117643778,
				"y": 2.4585016561,
				"z": -0.0047031199,
				"element": "H" 
			},
			{
				"x": -4.6417044253,
				"y": -0.1843962387,
				"z": -3.3899960471,
				"element": "H" 
			},
			{
				"x": -3.9266380521,
				"y": -2.120360387,
				"z": -4.8032959255,
				"element": "H" 
			},
			{
				"x": -2.1906566983,
				"y": -3.7610765068,
				"z": -5.4412417429,
				"element": "H" 
			},
			{
				"x": 0.0808035976,
				"y": -4.6975446068,
				"z": -5.1657007978,
				"element": "H" 
			},
			{
				"x": 1.6450035232,
				"y": -3.7184577271,
				"z": -3.4940742345,
				"element": "H" 
			},
			{
				"x": 0.9371286984,
				"y": -1.8021477261,
				"z": -2.1025194973,
				"element": "H" 
			},
			{
				"x": 1.7072327961,
				"y": 0.6287187121,
				"z": -0.8941289618,
				"element": "H" 
			},
			{
				"x": 3.5546149035,
				"y": 1.362202285,
				"z": 0.5788419356,
				"element": "H" 
			},
			{
				"x": 3.0602294821,
				"y": 2.6026595289,
				"z": 2.6766679557,
				"element": "H" 
			},
			{
				"x": 0.6999946333,
				"y": 3.0875580325,
				"z": 3.2943949477,
				"element": "H" 
			},
			{
				"x": -1.143504516,
				"y": 2.3335733834,
				"z": 1.839895765,
				"element": "H" 
			}
		],
		 "valence_orbital": [ 
			{
				"type": "occ",
				"energy": -0.2654,
				"method": "rhf"
			},
			{
				"type": "occ",
				"energy": -0.25311,
				"method": "rhf"
			},
			{
				"type": "occ",
				"energy": -0.23922,
				"method": "rhf"
			},
			{
				"type": "occ",
				"energy": -0.23543,
				"method": "rhf"
			},
			{
				"type": "occ",
				"energy": -0.22077,
				"method": "rhf"
			},
			{
				"type": "unocc",
				"energy": -0.06336,
				"method": "rhf"
			},
			{
				"type": "unocc",
				"energy": -0.05082,
				"method": "rhf"
			},
			{
				"type": "unocc",
				"energy": -0.02512,
				"method": "rhf"
			},
			{
				"type": "unocc",
				"energy": -0.01525,
				"method": "rhf"
			},
			{
				"type": "unocc",
				"energy": 0.0188,
				"method": "rhf"
			}
		],
		"cosmo_sigma_profile": { 
			"-0.025": 0.0,
			"-0.024": 0.0,
			"-0.023": 0.0,
			"-0.022": 0.0,
			"-0.021": 0.0,
			"-0.02": 0.0,
			"-0.019": 0.0,
			"-0.018": 0.0,
			"-0.017": 0.0,
			"-0.016": 0.0,
			"-0.015": 0.0,
			"-0.014": 0.0,
			"-0.013": 0.0,
			"-0.012": 0.0,
			"-0.011": 0.0,
			"-0.01": 0.0,
			"-0.009": 0.0356989850112,
			"-0.008": 1.74209022776,
			"-0.007": 6.83173219552,
			"-0.006": 21.5704868462,
			"-0.005": 23.0766566951,
			"-0.004": 24.6128409688,
			"-0.003": 19.0418182516,
			"-0.002": 22.3259745206,
			"-0.001": 20.2380167673,
			"0.0": 25.6606428621,
			"0.001": 28.1383644373,
			"0.002": 29.4505439108,
			"0.003": 29.4555258212,
			"0.004": 25.3223611457,
			"0.005": 4.76771990341,
			"0.006": 1.36288695317,
			"0.007": 1.68928901652,
			"0.008": 1.10886408516,
			"0.009": 1.47682794797,
			"0.01": 1.75293947352,
			"0.011": 1.74186090017,
			"0.012": 1.9207791611,
			"0.013": 4.76340690108,
			"0.014": 3.54434213283,
			"0.015": 0.758965498993,
			"0.016": 0.0,
			"0.017": 0.0,
			"0.018": 0.0,
			"0.019": 0.0,
			"0.02": 0.0,
			"0.021": 0.0,
			"0.022": 0.0,
			"0.023": 0.0,
			"0.024": 0.0,
			"0.025": 0.0
		}
	}
}
