{
	 "smiles": "ClC1=NNC2=C1C=CC=C2", 
	 "Tm": 422.15, 
	 "num_atms": 15, 
	 "gaussian": { 
		 "optdone": 1, 
		 "sigma_profile": "yes", 
		 "theory": "DFT", 
		 "functional": "B3LYP", 
		 "basiset": "6-31G**", 
		 "properties": { 
			 "R2extent": 1843.8499, 
			 "electric_dipole_moment_norm": 3.41950003363, 
			 "electric_quadrupole_moment_norm": 10.5500779021, 
			 "total_energy": -839.435173681, 
			 "HOMO_LUMO_gap": 0.18713, 
			 "cosmo_polarized_energy": -9.21, 
			 "cosmo_cavitation_energy": 21.1, 
			 "cosmo_dispersion_energy": -16.21, 
			 "cosmo_repulsion_energy": 1.31, 
			 "cosmo_total_nonelectrostatic_energy": 6.2, 
			 "SMD_solvation_energy": 2.22 
		},
		"coords": [
			{
				"x": -1.2605802105,
				"y": 1.6899595067,
				"z": -3.0737560252,
				"element": "Cl" 
			},
			{
				"x": -0.2209234537,
				"y": 0.8091941195,
				"z": -2.0048216307,
				"element": "C" 
			},
			{
				"x": 0.8500397951,
				"y": 0.1954400185,
				"z": -2.4569733627,
				"element": "N" 
			},
			{
				"x": 1.4158547892,
				"y": -0.3808973931,
				"z": -1.3616812033,
				"element": "N" 
			},
			{
				"x": 0.7138601995,
				"y": -0.1398826104,
				"z": -0.2116367386,
				"element": "C" 
			},
			{
				"x": -0.3946180186,
				"y": 0.6562082428,
				"z": -0.5950770965,
				"element": "C" 
			},
			{
				"x": -1.3251334276,
				"y": 1.0817064266,
				"z": 0.3680021626,
				"element": "C" 
			},
			{
				"x": -1.1218512624,
				"y": 0.7003898178,
				"z": 1.6839905855,
				"element": "C" 
			},
			{
				"x": -0.0100361863,
				"y": -0.0950855946,
				"z": 2.0527966477,
				"element": "C" 
			},
			{
				"x": 0.9217560426,
				"y": -0.5275646695,
				"z": 1.1221102887,
				"element": "C" 
			},
			{
				"x": 2.2633356861,
				"y": -0.9113665148,
				"z": -1.4822498126,
				"element": "H" 
			},
			{
				"x": -2.1758645314,
				"y": 1.6913597716,
				"z": 0.08065445,
				"element": "H" 
			},
			{
				"x": -1.8235024023,
				"y": 1.013584151,
				"z": 2.450725799,
				"element": "H" 
			},
			{
				"x": 0.1151318749,
				"y": -0.3736739769,
				"z": 3.0950021194,
				"element": "H" 
			},
			{
				"x": 1.7717311054,
				"y": -1.1372712954,
				"z": 1.4123138165,
				"element": "H" 
			}
		],
		 "valence_orbital": [ 
			{
				"type": "occ",
				"energy": -0.319,
				"method": "rhf"
			},
			{
				"type": "occ",
				"energy": -0.30728,
				"method": "rhf"
			},
			{
				"type": "occ",
				"energy": -0.28442,
				"method": "rhf"
			},
			{
				"type": "occ",
				"energy": -0.25183,
				"method": "rhf"
			},
			{
				"type": "occ",
				"energy": -0.22541,
				"method": "rhf"
			},
			{
				"type": "unocc",
				"energy": -0.03828,
				"method": "rhf"
			},
			{
				"type": "unocc",
				"energy": 0.00902,
				"method": "rhf"
			},
			{
				"type": "unocc",
				"energy": 0.03907,
				"method": "rhf"
			},
			{
				"type": "unocc",
				"energy": 0.04904,
				"method": "rhf"
			},
			{
				"type": "unocc",
				"energy": 0.08581,
				"method": "rhf"
			}
		],
		"cosmo_sigma_profile": { 
			"-0.025": 0.0,
			"-0.024": 0.0,
			"-0.023": 0.0,
			"-0.022": 0.0,
			"-0.021": 0.0,
			"-0.02": 0.0,
			"-0.019": 0.0,
			"-0.018": 0.00468836063727,
			"-0.017": 0.938388590958,
			"-0.016": 1.86741434453,
			"-0.015": 1.13872284306,
			"-0.014": 1.0166545335,
			"-0.013": 0.6520172634,
			"-0.012": 1.18825189344,
			"-0.011": 1.33566893041,
			"-0.01": 1.37515862424,
			"-0.009": 0.814389711554,
			"-0.008": 1.3470443058,
			"-0.007": 3.92654928723,
			"-0.006": 7.33513790044,
			"-0.005": 8.36847205638,
			"-0.004": 9.85146962974,
			"-0.003": 8.16850750264,
			"-0.002": 8.32197984984,
			"-0.001": 8.8561335287,
			"0.0": 10.5660714137,
			"0.001": 17.1315923081,
			"0.002": 17.8915316727,
			"0.003": 17.5753666252,
			"0.004": 21.464725064,
			"0.005": 9.51357136553,
			"0.006": 2.19800502536,
			"0.007": 2.19357687526,
			"0.008": 1.53348531688,
			"0.009": 0.361382164756,
			"0.01": 1.26937253868,
			"0.011": 1.33302652981,
			"0.012": 1.11774746559,
			"0.013": 0.976581228435,
			"0.014": 0.708157903347,
			"0.015": 0.0314711461414,
			"0.016": 0.0,
			"0.017": 0.0,
			"0.018": 0.0,
			"0.019": 0.0,
			"0.02": 0.0,
			"0.021": 0.0,
			"0.022": 0.0,
			"0.023": 0.0,
			"0.024": 0.0,
			"0.025": 0.0
		}
	}
}
