{
	 "smiles": "FC1=CC2=C(OCOC2)C(CC#N)=C1", 
	 "Tm": 349.15, 
	 "num_atms": 22, 
	 "gaussian": { 
		 "optdone": 1, 
		 "sigma_profile": "yes", 
		 "theory": "DFT", 
		 "functional": "B3LYP", 
		 "basiset": "6-31G**", 
		 "properties": { 
			 "R2extent": 3117.6431, 
			 "electric_dipole_moment_norm": 3.1551613683, 
			 "electric_quadrupole_moment_norm": 19.7595509739, 
			 "total_energy": -690.880266874, 
			 "HOMO_LUMO_gap": 0.20066, 
			 "cosmo_polarized_energy": -13.1, 
			 "cosmo_cavitation_energy": 27.25, 
			 "cosmo_dispersion_energy": -19.29, 
			 "cosmo_repulsion_energy": 1.5, 
			 "cosmo_total_nonelectrostatic_energy": 9.46, 
			 "SMD_solvation_energy": 6.83 
		},
		"coords": [
			{
				"x": -1.0085616637,
				"y": -2.9223767853,
				"z": 1.1954371285,
				"element": "F" 
			},
			{
				"x": -0.9010677205,
				"y": -1.6819379913,
				"z": 0.6738953313,
				"element": "C" 
			},
			{
				"x": -1.3810936933,
				"y": -0.6002625339,
				"z": 1.3967799668,
				"element": "C" 
			},
			{
				"x": -1.2647259326,
				"y": 0.6854727254,
				"z": 0.860784168,
				"element": "C" 
			},
			{
				"x": -0.6772946579,
				"y": 0.8495656431,
				"z": -0.4004328082,
				"element": "C" 
			},
			{
				"x": -0.5446074565,
				"y": 2.0874762724,
				"z": -0.973986438,
				"element": "O" 
			},
			{
				"x": -1.3626157027,
				"y": 3.0869061868,
				"z": -0.3661844359,
				"element": "C" 
			},
			{
				"x": -1.2225832747,
				"y": 3.1064633687,
				"z": 1.0208176481,
				"element": "O" 
			},
			{
				"x": -1.7386867347,
				"y": 1.913134842,
				"z": 1.6086778949,
				"element": "C" 
			},
			{
				"x": -0.1853650012,
				"y": -0.2503210846,
				"z": -1.1215472878,
				"element": "C" 
			},
			{
				"x": 0.4554434681,
				"y": -0.0271782932,
				"z": -2.4804305586,
				"element": "C" 
			},
			{
				"x": -0.5294328522,
				"y": 0.2592050619,
				"z": -3.5333757795,
				"element": "C" 
			},
			{
				"x": -1.3104099814,
				"y": 0.4764937979,
				"z": -4.3636986616,
				"element": "N" 
			},
			{
				"x": -0.3011504013,
				"y": -1.5263315803,
				"z": -0.572098864,
				"element": "C" 
			},
			{
				"x": -1.8279752334,
				"y": -0.765013991,
				"z": 2.3725314493,
				"element": "H" 
			},
			{
				"x": -1.0123928322,
				"y": 4.043341747,
				"z": -0.7536735714,
				"element": "H" 
			},
			{
				"x": -2.4090268151,
				"y": 2.9036174264,
				"z": -0.6595584375,
				"element": "H" 
			},
			{
				"x": -1.377539652,
				"y": 1.9046416512,
				"z": 2.6411194799,
				"element": "H" 
			},
			{
				"x": -2.8400348089,
				"y": 1.9509059566,
				"z": 1.6388173152,
				"element": "H" 
			},
			{
				"x": 1.1536195308,
				"y": 0.8160910169,
				"z": -2.4366209659,
				"element": "H" 
			},
			{
				"x": 1.0269889631,
				"y": -0.9127703122,
				"z": -2.7764444555,
				"element": "H" 
			},
			{
				"x": 0.0629124522,
				"y": -2.4006231248,
				"z": -1.1015081179,
				"element": "H" 
			}
		],
		 "valence_orbital": [ 
			{
				"type": "occ",
				"energy": -0.32177,
				"method": "rhf"
			},
			{
				"type": "occ",
				"energy": -0.31931,
				"method": "rhf"
			},
			{
				"type": "occ",
				"energy": -0.29324,
				"method": "rhf"
			},
			{
				"type": "occ",
				"energy": -0.26822,
				"method": "rhf"
			},
			{
				"type": "occ",
				"energy": -0.23298,
				"method": "rhf"
			},
			{
				"type": "unocc",
				"energy": -0.03232,
				"method": "rhf"
			},
			{
				"type": "unocc",
				"energy": -0.00548,
				"method": "rhf"
			},
			{
				"type": "unocc",
				"energy": 0.03849,
				"method": "rhf"
			},
			{
				"type": "unocc",
				"energy": 0.04375,
				"method": "rhf"
			},
			{
				"type": "unocc",
				"energy": 0.08542,
				"method": "rhf"
			}
		],
		"cosmo_sigma_profile": { 
			"-0.025": 0.0,
			"-0.024": 0.0,
			"-0.023": 0.0,
			"-0.022": 0.0,
			"-0.021": 0.0,
			"-0.02": 0.0,
			"-0.019": 0.0,
			"-0.018": 0.0,
			"-0.017": 0.0,
			"-0.016": 0.0,
			"-0.015": 0.0,
			"-0.014": 0.0,
			"-0.013": 0.0,
			"-0.012": 0.0,
			"-0.011": 0.0,
			"-0.01": 0.436925426559,
			"-0.009": 3.89883179259,
			"-0.008": 9.12170122795,
			"-0.007": 14.8390059932,
			"-0.006": 19.4295519965,
			"-0.005": 17.0496747896,
			"-0.004": 10.7438598214,
			"-0.003": 9.26400110313,
			"-0.002": 7.53786177122,
			"-0.001": 8.84845242311,
			"0.0": 11.1978904764,
			"0.001": 16.7964750599,
			"0.002": 18.0661246079,
			"0.003": 11.7070254125,
			"0.004": 14.2886928926,
			"0.005": 9.82883605664,
			"0.006": 6.89478249438,
			"0.007": 4.41481938883,
			"0.008": 5.08571212372,
			"0.009": 4.44500989607,
			"0.01": 5.02751710336,
			"0.011": 4.78045891257,
			"0.012": 2.56093950626,
			"0.013": 1.97110025325,
			"0.014": 0.268336147309,
			"0.015": 0.0,
			"0.016": 0.0,
			"0.017": 0.0,
			"0.018": 0.0,
			"0.019": 0.0,
			"0.02": 0.0,
			"0.021": 0.0,
			"0.022": 0.0,
			"0.023": 0.0,
			"0.024": 0.0,
			"0.025": 0.0
		}
	}
}
