{
	 "smiles": "OC1=C(C2=CC=CC=C2)C2=CC=CC=C2NC1=O", 
	 "Tm": 541.15, 
	 "num_atms": 29, 
	 "gaussian": { 
		 "optdone": 1, 
		 "sigma_profile": "yes", 
		 "theory": "DFT", 
		 "functional": "B3LYP", 
		 "basiset": "6-31G**", 
		 "properties": { 
			 "R2extent": 4562.8708, 
			 "electric_dipole_moment_norm": 4.73719480178, 
			 "electric_quadrupole_moment_norm": 20.2563234752, 
			 "total_energy": -783.446517948, 
			 "HOMO_LUMO_gap": 0.16506, 
			 "cosmo_polarized_energy": -17.6, 
			 "cosmo_cavitation_energy": 33.35, 
			 "cosmo_dispersion_energy": -23.81, 
			 "cosmo_repulsion_energy": 1.82, 
			 "cosmo_total_nonelectrostatic_energy": 11.37, 
			 "SMD_solvation_energy": 6.36 
		},
		"coords": [
			{
				"x": -2.748515685,
				"y": 0.8860826375,
				"z": -0.7547752762,
				"element": "O" 
			},
			{
				"x": -1.419333936,
				"y": 0.9784226314,
				"z": -0.524693463,
				"element": "C" 
			},
			{
				"x": -0.7190424775,
				"y": 0.1648609232,
				"z": 0.3226130127,
				"element": "C" 
			},
			{
				"x": -1.4493775365,
				"y": -0.9134790594,
				"z": 1.0614255287,
				"element": "C" 
			},
			{
				"x": -2.0182479363,
				"y": -0.6596336571,
				"z": 2.32072316,
				"element": "C" 
			},
			{
				"x": -2.711352749,
				"y": -1.6612614166,
				"z": 3.0025490297,
				"element": "C" 
			},
			{
				"x": -2.8475791611,
				"y": -2.9298063141,
				"z": 2.4353640509,
				"element": "C" 
			},
			{
				"x": -2.2899277446,
				"y": -3.1934726706,
				"z": 1.1827721539,
				"element": "C" 
			},
			{
				"x": -1.5965326434,
				"y": -2.1928428648,
				"z": 0.4997824652,
				"element": "C" 
			},
			{
				"x": 0.710609923,
				"y": 0.3485989225,
				"z": 0.4989301929,
				"element": "C" 
			},
			{
				"x": 1.497637118,
				"y": -0.4493374389,
				"z": 1.3531978496,
				"element": "C" 
			},
			{
				"x": 2.8621529646,
				"y": -0.2311795396,
				"z": 1.4854676652,
				"element": "C" 
			},
			{
				"x": 3.4815430959,
				"y": 0.7980924067,
				"z": 0.7621209498,
				"element": "C" 
			},
			{
				"x": 2.7335509209,
				"y": 1.6018176748,
				"z": -0.0879233586,
				"element": "C" 
			},
			{
				"x": 1.3544207557,
				"y": 1.3834938886,
				"z": -0.2234738886,
				"element": "C" 
			},
			{
				"x": 0.5887352207,
				"y": 2.1725179131,
				"z": -1.0653066768,
				"element": "N" 
			},
			{
				"x": -0.7766268785,
				"y": 2.0660416414,
				"z": -1.2920014268,
				"element": "C" 
			},
			{
				"x": -1.3610106084,
				"y": 2.8181943383,
				"z": -2.0600197704,
				"element": "O" 
			},
			{
				"x": -3.0990225745,
				"y": 0.1562161366,
				"z": -0.2214081921,
				"element": "H" 
			},
			{
				"x": -1.9109774401,
				"y": 0.327127428,
				"z": 2.7621207509,
				"element": "H" 
			},
			{
				"x": -3.1450022008,
				"y": -1.4496164284,
				"z": 3.9756332746,
				"element": "H" 
			},
			{
				"x": -3.3874648453,
				"y": -3.708599937,
				"z": 2.9660468658,
				"element": "H" 
			},
			{
				"x": -2.3946432739,
				"y": -4.17773033,
				"z": 0.7355446669,
				"element": "H" 
			},
			{
				"x": -1.1613896358,
				"y": -2.3978780232,
				"z": -0.4742026627,
				"element": "H" 
			},
			{
				"x": 1.0173723356,
				"y": -1.2453799561,
				"z": 1.912412346,
				"element": "H" 
			},
			{
				"x": 3.4481962887,
				"y": -0.8586772918,
				"z": 2.1496534543,
				"element": "H" 
			},
			{
				"x": 4.5486102384,
				"y": 0.9715069417,
				"z": 0.8632007748,
				"element": "H" 
			},
			{
				"x": 3.2053574568,
				"y": 2.4019625705,
				"z": -0.652498602,
				"element": "H" 
			},
			{
				"x": 1.0334610087,
				"y": 2.9165588733,
				"z": -1.5887548748,
				"element": "H" 
			}
		],
		 "valence_orbital": [ 
			{
				"type": "occ",
				"energy": -0.26677,
				"method": "rhf"
			},
			{
				"type": "occ",
				"energy": -0.26677,
				"method": "rhf"
			},
			{
				"type": "occ",
				"energy": -0.25024,
				"method": "rhf"
			},
			{
				"type": "occ",
				"energy": -0.23178,
				"method": "rhf"
			},
			{
				"type": "occ",
				"energy": -0.20664,
				"method": "rhf"
			},
			{
				"type": "unocc",
				"energy": -0.04158,
				"method": "rhf"
			},
			{
				"type": "unocc",
				"energy": -0.02201,
				"method": "rhf"
			},
			{
				"type": "unocc",
				"energy": -0.01952,
				"method": "rhf"
			},
			{
				"type": "unocc",
				"energy": 0.00078,
				"method": "rhf"
			},
			{
				"type": "unocc",
				"energy": 0.01517,
				"method": "rhf"
			}
		],
		"cosmo_sigma_profile": { 
			"-0.025": 0.0,
			"-0.024": 0.0,
			"-0.023": 0.0,
			"-0.022": 0.0,
			"-0.021": 0.0,
			"-0.02": 0.0,
			"-0.019": 0.0,
			"-0.018": 0.0,
			"-0.017": 0.0,
			"-0.016": 0.046847664114,
			"-0.015": 1.33606980364,
			"-0.014": 1.65340327821,
			"-0.013": 1.89913726595,
			"-0.012": 1.70118316606,
			"-0.011": 2.0495621436,
			"-0.01": 1.57950438906,
			"-0.009": 2.17576073125,
			"-0.008": 2.11808151329,
			"-0.007": 3.74180911047,
			"-0.006": 15.3481035704,
			"-0.005": 20.3836359114,
			"-0.004": 22.1195389868,
			"-0.003": 18.3202734351,
			"-0.002": 18.2700733131,
			"-0.001": 18.4545562219,
			"0.0": 22.2954088476,
			"0.001": 19.199370669,
			"0.002": 17.2461616853,
			"0.003": 17.1393027489,
			"0.004": 18.1735172408,
			"0.005": 13.0129926896,
			"0.006": 2.28573135281,
			"0.007": 1.65527634064,
			"0.008": 1.55728329311,
			"0.009": 2.20491028108,
			"0.01": 2.74481961555,
			"0.011": 1.90301330642,
			"0.012": 3.10763863234,
			"0.013": 5.2124857198,
			"0.014": 5.66402786784,
			"0.015": 2.25843088417,
			"0.016": 0.78675889053,
			"0.017": 0.0,
			"0.018": 0.0,
			"0.019": 0.0,
			"0.02": 0.0,
			"0.021": 0.0,
			"0.022": 0.0,
			"0.023": 0.0,
			"0.024": 0.0,
			"0.025": 0.0
		}
	}
}
