{
	 "smiles": "CC(C)CNC(N)=O", 
	 "Tm": 409.15, 
	 "num_atms": 20, 
	 "gaussian": { 
		 "optdone": 1, 
		 "sigma_profile": "yes", 
		 "theory": "DFT", 
		 "functional": "B3LYP", 
		 "basiset": "6-31G**", 
		 "properties": { 
			 "R2extent": 1372.1712, 
			 "electric_dipole_moment_norm": 3.52187260701, 
			 "electric_quadrupole_moment_norm": 9.04993829813, 
			 "total_energy": -382.529269001, 
			 "HOMO_LUMO_gap": 0.29843, 
			 "cosmo_polarized_energy": -14.06, 
			 "cosmo_cavitation_energy": 22.64, 
			 "cosmo_dispersion_energy": -16.12, 
			 "cosmo_repulsion_energy": 1.38, 
			 "cosmo_total_nonelectrostatic_energy": 7.9, 
			 "SMD_solvation_energy": 4.67 
		},
		"coords": [
			{
				"x": 0.6586590069,
				"y": -2.219620814,
				"z": -1.3751041738,
				"element": "C" 
			},
			{
				"x": 1.6547386204,
				"y": -1.2148071274,
				"z": -0.7785489428,
				"element": "C" 
			},
			{
				"x": 2.1582091031,
				"y": -0.2266920151,
				"z": -1.838793548,
				"element": "C" 
			},
			{
				"x": 1.0684174138,
				"y": -0.4845102069,
				"z": 0.4465715803,
				"element": "C" 
			},
			{
				"x": -0.1003158401,
				"y": 0.3355265778,
				"z": 0.1453847853,
				"element": "N" 
			},
			{
				"x": -0.0714936205,
				"y": 1.7049200838,
				"z": 0.3153491772,
				"element": "C" 
			},
			{
				"x": -1.3121876746,
				"y": 2.3187435819,
				"z": 0.1440458676,
				"element": "N" 
			},
			{
				"x": 0.9351312616,
				"y": 2.3346070066,
				"z": 0.6129117865,
				"element": "O" 
			},
			{
				"x": -0.2277838791,
				"y": -1.7064072436,
				"z": -1.7667460274,
				"element": "H" 
			},
			{
				"x": 1.1067615026,
				"y": -2.7751940111,
				"z": -2.2054911448,
				"element": "H" 
			},
			{
				"x": 0.3248558963,
				"y": -2.9494311297,
				"z": -0.6279062488,
				"element": "H" 
			},
			{
				"x": 2.5182141303,
				"y": -1.7810238799,
				"z": -0.3991831913,
				"element": "H" 
			},
			{
				"x": 2.8878887177,
				"y": 0.4722707034,
				"z": -1.4180683167,
				"element": "H" 
			},
			{
				"x": 1.3294835762,
				"y": 0.3644923423,
				"z": -2.2426716887,
				"element": "H" 
			},
			{
				"x": 2.6316907391,
				"y": -0.754492545,
				"z": -2.6736465853,
				"element": "H" 
			},
			{
				"x": 1.8143534027,
				"y": 0.1912701722,
				"z": 0.8719098056,
				"element": "H" 
			},
			{
				"x": 0.8030427816,
				"y": -1.2192069346,
				"z": 1.2187111923,
				"element": "H" 
			},
			{
				"x": -1.0037097363,
				"y": -0.1133146398,
				"z": 0.165892476,
				"element": "H" 
			},
			{
				"x": -1.22744662,
				"y": 3.3227499664,
				"z": 0.0683096304,
				"element": "H" 
			},
			{
				"x": -1.9414087816,
				"y": 1.9120201128,
				"z": -0.5352264336,
				"element": "H" 
			}
		],
		 "valence_orbital": [ 
			{
				"type": "occ",
				"energy": -0.32754,
				"method": "rhf"
			},
			{
				"type": "occ",
				"energy": -0.32613,
				"method": "rhf"
			},
			{
				"type": "occ",
				"energy": -0.2702,
				"method": "rhf"
			},
			{
				"type": "occ",
				"energy": -0.24867,
				"method": "rhf"
			},
			{
				"type": "occ",
				"energy": -0.24378,
				"method": "rhf"
			},
			{
				"type": "unocc",
				"energy": 0.05465,
				"method": "rhf"
			},
			{
				"type": "unocc",
				"energy": 0.06826,
				"method": "rhf"
			},
			{
				"type": "unocc",
				"energy": 0.09301,
				"method": "rhf"
			},
			{
				"type": "unocc",
				"energy": 0.11764,
				"method": "rhf"
			},
			{
				"type": "unocc",
				"energy": 0.13703,
				"method": "rhf"
			}
		],
		"cosmo_sigma_profile": { 
			"-0.025": 0.0,
			"-0.024": 0.0,
			"-0.023": 0.0,
			"-0.022": 0.0,
			"-0.021": 0.0,
			"-0.02": 0.0,
			"-0.019": 0.0,
			"-0.018": 0.0,
			"-0.017": 0.0,
			"-0.016": 0.0,
			"-0.015": 0.0,
			"-0.014": 1.03271544935,
			"-0.013": 3.75476656542,
			"-0.012": 3.06755578208,
			"-0.011": 3.62890942712,
			"-0.01": 2.94062804386,
			"-0.009": 2.72521948443,
			"-0.008": 2.60949472869,
			"-0.007": 3.45962477228,
			"-0.006": 2.06916250263,
			"-0.005": 2.71238161671,
			"-0.004": 5.74513564464,
			"-0.003": 9.95528088624,
			"-0.002": 21.5656080189,
			"-0.001": 20.3379430448,
			"0.0": 19.5607024425,
			"0.001": 18.6855011441,
			"0.002": 13.5826226052,
			"0.003": 4.81065908483,
			"0.004": 2.59624742483,
			"0.005": 3.38982177645,
			"0.006": 2.61712135074,
			"0.007": 2.89226601128,
			"0.008": 2.18672839161,
			"0.009": 2.05108188352,
			"0.01": 2.10784043489,
			"0.011": 1.68697809701,
			"0.012": 2.12382730564,
			"0.013": 2.21609789842,
			"0.014": 4.26237676591,
			"0.015": 4.33393475714,
			"0.016": 0.167243477774,
			"0.017": 0.0,
			"0.018": 0.0,
			"0.019": 0.0,
			"0.02": 0.0,
			"0.021": 0.0,
			"0.022": 0.0,
			"0.023": 0.0,
			"0.024": 0.0,
			"0.025": 0.0
		}
	}
}
