{
	 "smiles": "CCC(=O)C1=C(O)C=CC(C)=C1", 
	 "Tm": 275.15, 
	 "num_atms": 24, 
	 "gaussian": { 
		 "optdone": 1, 
		 "sigma_profile": "yes", 
		 "theory": "DFT", 
		 "functional": "B3LYP", 
		 "basiset": "6-31G**", 
		 "properties": { 
			 "R2extent": 2381.2944, 
			 "electric_dipole_moment_norm": 3.4788103297, 
			 "electric_quadrupole_moment_norm": 5.01372773892, 
			 "total_energy": -538.768188036, 
			 "HOMO_LUMO_gap": 0.15809, 
			 "cosmo_polarized_energy": -7.46, 
			 "cosmo_cavitation_energy": 26.85, 
			 "cosmo_dispersion_energy": -19.68, 
			 "cosmo_repulsion_energy": 1.58, 
			 "cosmo_total_nonelectrostatic_energy": 8.75, 
			 "SMD_solvation_energy": 5.42 
		},
		"coords": [
			{
				"x": -0.0171077562,
				"y": 2.8641887998,
				"z": 1.5256870335,
				"element": "C" 
			},
			{
				"x": -1.0267511277,
				"y": 1.747231808,
				"z": 1.1961632981,
				"element": "C" 
			},
			{
				"x": -0.6757661268,
				"y": 1.0394907137,
				"z": -0.1026992855,
				"element": "C" 
			},
			{
				"x": -1.2244657371,
				"y": 1.4335508958,
				"z": -1.1477999113,
				"element": "O" 
			},
			{
				"x": 0.3117859651,
				"y": -0.0488478296,
				"z": -0.1363923944,
				"element": "C" 
			},
			{
				"x": 0.6397177728,
				"y": -0.6424050836,
				"z": -1.3879761177,
				"element": "C" 
			},
			{
				"x": 0.0798596727,
				"y": -0.2507465054,
				"z": -2.537897247,
				"element": "O" 
			},
			{
				"x": 1.5870847657,
				"y": -1.6813389961,
				"z": -1.4286842752,
				"element": "C" 
			},
			{
				"x": 2.1942585753,
				"y": -2.1188308955,
				"z": -0.2648865967,
				"element": "C" 
			},
			{
				"x": 1.8935529863,
				"y": -1.5516628946,
				"z": 0.9924917507,
				"element": "C" 
			},
			{
				"x": 2.5734534137,
				"y": -2.0520056196,
				"z": 2.2452567305,
				"element": "C" 
			},
			{
				"x": 0.9568268568,
				"y": -0.5287095611,
				"z": 1.0270460078,
				"element": "C" 
			},
			{
				"x": 0.9887200239,
				"y": 2.4647894593,
				"z": 1.6859856553,
				"element": "H" 
			},
			{
				"x": -0.3207722746,
				"y": 3.3958814298,
				"z": 2.4322561928,
				"element": "H" 
			},
			{
				"x": 0.0328705826,
				"y": 3.5886606692,
				"z": 0.7076010821,
				"element": "H" 
			},
			{
				"x": -2.0197535594,
				"y": 2.180340114,
				"z": 1.049589128,
				"element": "H" 
			},
			{
				"x": -1.0898229276,
				"y": 1.0367268003,
				"z": 2.0261513741,
				"element": "H" 
			},
			{
				"x": -0.5516046125,
				"y": 0.4809062774,
				"z": -2.297938228,
				"element": "H" 
			},
			{
				"x": 1.821596378,
				"y": -2.1214492102,
				"z": -2.3921875122,
				"element": "H" 
			},
			{
				"x": 2.9233919078,
				"y": -2.924168029,
				"z": -0.3211039493,
				"element": "H" 
			},
			{
				"x": 3.6616485992,
				"y": -1.9304513559,
				"z": 2.1885155663,
				"element": "H" 
			},
			{
				"x": 2.225874424,
				"y": -1.5111370058,
				"z": 3.1299738979,
				"element": "H" 
			},
			{
				"x": 2.3783391839,
				"y": -3.1181561969,
				"z": 2.4105671988,
				"element": "H" 
			},
			{
				"x": 0.7129630141,
				"y": -0.0811577839,
				"z": 1.9854806015,
				"element": "H" 
			}
		],
		 "valence_orbital": [ 
			{
				"type": "occ",
				"energy": -0.34351,
				"method": "rhf"
			},
			{
				"type": "occ",
				"energy": -0.32675,
				"method": "rhf"
			},
			{
				"type": "occ",
				"energy": -0.26205,
				"method": "rhf"
			},
			{
				"type": "occ",
				"energy": -0.25768,
				"method": "rhf"
			},
			{
				"type": "occ",
				"energy": -0.21905,
				"method": "rhf"
			},
			{
				"type": "unocc",
				"energy": -0.06096,
				"method": "rhf"
			},
			{
				"type": "unocc",
				"energy": 0.00606,
				"method": "rhf"
			},
			{
				"type": "unocc",
				"energy": 0.03312,
				"method": "rhf"
			},
			{
				"type": "unocc",
				"energy": 0.0847,
				"method": "rhf"
			},
			{
				"type": "unocc",
				"energy": 0.10905,
				"method": "rhf"
			}
		],
		"cosmo_sigma_profile": { 
			"-0.025": 0.0,
			"-0.024": 0.0,
			"-0.023": 0.0,
			"-0.022": 0.0,
			"-0.021": 0.0,
			"-0.02": 0.0,
			"-0.019": 0.0,
			"-0.018": 0.0,
			"-0.017": 0.0,
			"-0.016": 0.0,
			"-0.015": 0.0,
			"-0.014": 0.0,
			"-0.013": 0.0,
			"-0.012": 0.0,
			"-0.011": 0.0,
			"-0.01": 0.0,
			"-0.009": 0.0,
			"-0.008": 0.0992568971105,
			"-0.007": 1.89175921852,
			"-0.006": 6.72765826422,
			"-0.005": 9.78411862587,
			"-0.004": 19.7228150808,
			"-0.003": 23.134269981,
			"-0.002": 28.3345923344,
			"-0.001": 25.6631820439,
			"0.0": 23.2453082949,
			"0.001": 12.6664072478,
			"0.002": 11.6205787835,
			"0.003": 12.573364333,
			"0.004": 11.854766663,
			"0.005": 4.60009699072,
			"0.006": 2.73364221523,
			"0.007": 2.4186354444,
			"0.008": 3.31909337512,
			"0.009": 2.96443177199,
			"0.01": 2.42816512951,
			"0.011": 3.5980374375,
			"0.012": 2.3265803423,
			"0.013": 0.672234976164,
			"0.014": 0.0,
			"0.015": 0.0,
			"0.016": 0.0,
			"0.017": 0.0,
			"0.018": 0.0,
			"0.019": 0.0,
			"0.02": 0.0,
			"0.021": 0.0,
			"0.022": 0.0,
			"0.023": 0.0,
			"0.024": 0.0,
			"0.025": 0.0
		}
	}
}
