{
	 "smiles": "CC1OC2=C(NC1=O)C=C(Br)C=C2", 
	 "Tm": 463.15, 
	 "num_atms": 21, 
	 "gaussian": { 
		 "optdone": 1, 
		 "sigma_profile": "yes", 
		 "theory": "DFT", 
		 "functional": "B3LYP", 
		 "basiset": "6-31G**", 
		 "properties": { 
			 "R2extent": 5609.0984, 
			 "electric_dipole_moment_norm": 1.30266408947, 
			 "electric_quadrupole_moment_norm": 11.440426253, 
			 "total_energy": -3124.39517063, 
			 "HOMO_LUMO_gap": 0.19304, 
			 "cosmo_polarized_energy": -11.44, 
			 "cosmo_cavitation_energy": 27.32, 
			 "cosmo_dispersion_energy": -20.55, 
			 "cosmo_repulsion_energy": 1.63, 
			 "cosmo_total_nonelectrostatic_energy": 8.4, 
			 "SMD_solvation_energy": 4.19 
		},
		"coords": [
			{
				"x": -2.0330575331,
				"y": 0.5254011847,
				"z": 0.5107531055,
				"element": "C" 
			},
			{
				"x": -0.9389360487,
				"y": 1.2300785224,
				"z": -0.2956175428,
				"element": "C" 
			},
			{
				"x": -0.6207992735,
				"y": 0.5008870238,
				"z": -1.4971094942,
				"element": "O" 
			},
			{
				"x": 0.2362296839,
				"y": -0.5559830333,
				"z": -1.3630278425,
				"element": "C" 
			},
			{
				"x": 1.2277037917,
				"y": -0.5454440812,
				"z": -0.3673893885,
				"element": "C" 
			},
			{
				"x": 1.2816747384,
				"y": 0.5638032039,
				"z": 0.4891214936,
				"element": "N" 
			},
			{
				"x": 0.2871664393,
				"y": 1.5064508584,
				"z": 0.5793187471,
				"element": "C" 
			},
			{
				"x": 0.3441917605,
				"y": 2.463105869,
				"z": 1.3332907073,
				"element": "O" 
			},
			{
				"x": 2.132958089,
				"y": -1.6032794733,
				"z": -0.2707664539,
				"element": "C" 
			},
			{
				"x": 2.0492936902,
				"y": -2.6540616964,
				"z": -1.1830662096,
				"element": "C" 
			},
			{
				"x": 3.2971696032,
				"y": -4.0952622065,
				"z": -1.0523365438,
				"element": "Br" 
			},
			{
				"x": 1.0776203336,
				"y": -2.6720127766,
				"z": -2.1809345194,
				"element": "C" 
			},
			{
				"x": 0.1656080816,
				"y": -1.6175869891,
				"z": -2.2604177989,
				"element": "C" 
			},
			{
				"x": -2.9182950094,
				"y": 0.3837306401,
				"z": -0.1146495595,
				"element": "H" 
			},
			{
				"x": -2.3030363633,
				"y": 1.1333954009,
				"z": 1.3782443653,
				"element": "H" 
			},
			{
				"x": -1.6947124929,
				"y": -0.4541970885,
				"z": 0.8624058362,
				"element": "H" 
			},
			{
				"x": -1.2962518068,
				"y": 2.2013651872,
				"z": -0.6435195749,
				"element": "H" 
			},
			{
				"x": 2.0740817872,
				"y": 0.6909273651,
				"z": 1.1059783225,
				"element": "H" 
			},
			{
				"x": 2.8959878852,
				"y": -1.6014232948,
				"z": 0.5001399979,
				"element": "H" 
			},
			{
				"x": 1.0257926911,
				"y": -3.4968206597,
				"z": -2.8812960611,
				"element": "H" 
			},
			{
				"x": -0.6031900472,
				"y": -1.600673956,
				"z": -3.0255215864,
				"element": "H" 
			}
		],
		 "valence_orbital": [ 
			{
				"type": "occ",
				"energy": -0.29464,
				"method": "rhf"
			},
			{
				"type": "occ",
				"energy": -0.29174,
				"method": "rhf"
			},
			{
				"type": "occ",
				"energy": -0.26637,
				"method": "rhf"
			},
			{
				"type": "occ",
				"energy": -0.25094,
				"method": "rhf"
			},
			{
				"type": "occ",
				"energy": -0.22116,
				"method": "rhf"
			},
			{
				"type": "unocc",
				"energy": -0.02812,
				"method": "rhf"
			},
			{
				"type": "unocc",
				"energy": -0.01686,
				"method": "rhf"
			},
			{
				"type": "unocc",
				"energy": 0.00172,
				"method": "rhf"
			},
			{
				"type": "unocc",
				"energy": 0.02113,
				"method": "rhf"
			},
			{
				"type": "unocc",
				"energy": 0.07073,
				"method": "rhf"
			}
		],
		"cosmo_sigma_profile": { 
			"-0.025": 0.0,
			"-0.024": 0.0,
			"-0.023": 0.0,
			"-0.022": 0.0,
			"-0.021": 0.0,
			"-0.02": 0.0,
			"-0.019": 0.0,
			"-0.018": 0.0,
			"-0.017": 0.0,
			"-0.016": 0.633626349323,
			"-0.015": 1.53287701321,
			"-0.014": 1.4732244926,
			"-0.013": 1.26471786725,
			"-0.012": 0.914002958394,
			"-0.011": 0.685753901946,
			"-0.01": 2.17151224825,
			"-0.009": 1.33236422501,
			"-0.008": 2.30402421799,
			"-0.007": 7.12968072939,
			"-0.006": 6.65254202333,
			"-0.005": 12.6669852365,
			"-0.004": 16.3802011676,
			"-0.003": 15.8983875687,
			"-0.002": 15.0502572914,
			"-0.001": 18.1435635268,
			"0.0": 15.1328914831,
			"0.001": 15.3308805961,
			"0.002": 19.1935951824,
			"0.003": 19.8583398636,
			"0.004": 15.6679389933,
			"0.005": 8.74663767456,
			"0.006": 2.41658262827,
			"0.007": 1.88723608759,
			"0.008": 2.42459173959,
			"0.009": 2.94562744409,
			"0.01": 1.95695957603,
			"0.011": 2.15158039575,
			"0.012": 4.68846101328,
			"0.013": 4.06459682797,
			"0.014": 0.418416400761,
			"0.015": 0.0,
			"0.016": 0.0,
			"0.017": 0.0,
			"0.018": 0.0,
			"0.019": 0.0,
			"0.02": 0.0,
			"0.021": 0.0,
			"0.022": 0.0,
			"0.023": 0.0,
			"0.024": 0.0,
			"0.025": 0.0
		}
	}
}
