{
	 "smiles": "OC(=O)CCCCC(O)=O", 
	 "Tm": 426.15, 
	 "num_atms": 20, 
	 "gaussian": { 
		 "optdone": 1, 
		 "sigma_profile": "yes", 
		 "theory": "DFT", 
		 "functional": "B3LYP", 
		 "basiset": "6-31G**", 
		 "properties": { 
			 "R2extent": 2559.6619, 
			 "electric_dipole_moment_norm": 5.18428156932, 
			 "electric_quadrupole_moment_norm": 17.6577111937, 
			 "total_energy": -535.592599387, 
			 "HOMO_LUMO_gap": 0.25912, 
			 "cosmo_polarized_energy": -18.7, 
			 "cosmo_cavitation_energy": 24.36, 
			 "cosmo_dispersion_energy": -17.39, 
			 "cosmo_repulsion_energy": 1.47, 
			 "cosmo_total_nonelectrostatic_energy": 8.44, 
			 "SMD_solvation_energy": 6.25 
		},
		"coords": [
			{
				"x": 0.695309381,
				"y": 0.004243945,
				"z": -3.3106848113,
				"element": "O" 
			},
			{
				"x": 1.1153240789,
				"y": -0.0826847632,
				"z": -2.0274581775,
				"element": "C" 
			},
			{
				"x": 1.4409519918,
				"y": -1.1352353361,
				"z": -1.5192837878,
				"element": "O" 
			},
			{
				"x": 1.1294438655,
				"y": 1.2752770329,
				"z": -1.355683207,
				"element": "C" 
			},
			{
				"x": 1.5397239163,
				"y": 1.2227331798,
				"z": 0.1188476378,
				"element": "C" 
			},
			{
				"x": 0.4960512574,
				"y": 0.5547112919,
				"z": 1.0235451547,
				"element": "C" 
			},
			{
				"x": 0.9531414517,
				"y": 0.4922334608,
				"z": 2.4930190615,
				"element": "C" 
			},
			{
				"x": -0.0669826099,
				"y": -0.1530934183,
				"z": 3.4217730913,
				"element": "C" 
			},
			{
				"x": -0.4025308862,
				"y": -1.440076547,
				"z": 3.1244777263,
				"element": "O" 
			},
			{
				"x": -0.5749119872,
				"y": 0.3972279805,
				"z": 4.3659987412,
				"element": "O" 
			},
			{
				"x": 0.7241056362,
				"y": -0.8987517758,
				"z": -3.6697327857,
				"element": "H" 
			},
			{
				"x": 0.1373971823,
				"y": 1.7260769233,
				"z": -1.4838577894,
				"element": "H" 
			},
			{
				"x": 1.8149745521,
				"y": 1.9099569918,
				"z": -1.9307616069,
				"element": "H" 
			},
			{
				"x": 1.7220807403,
				"y": 2.2463127398,
				"z": 0.4673582466,
				"element": "H" 
			},
			{
				"x": 2.4907154837,
				"y": 0.6840561395,
				"z": 0.2030233568,
				"element": "H" 
			},
			{
				"x": -0.4523906225,
				"y": 1.1041387564,
				"z": 0.9644484942,
				"element": "H" 
			},
			{
				"x": 0.3018282166,
				"y": -0.453511454,
				"z": 0.6405648642,
				"element": "H" 
			},
			{
				"x": 1.8941543066,
				"y": -0.071823641,
				"z": 2.5598010152,
				"element": "H" 
			},
			{
				"x": 1.1435351051,
				"y": 1.495009772,
				"z": 2.882390421,
				"element": "H" 
			},
			{
				"x": 0.0916789404,
				"y": -1.7471012784,
				"z": 2.3510143548,
				"element": "H" 
			}
		],
		 "valence_orbital": [ 
			{
				"type": "occ",
				"energy": -0.35269,
				"method": "rhf"
			},
			{
				"type": "occ",
				"energy": -0.33047,
				"method": "rhf"
			},
			{
				"type": "occ",
				"energy": -0.3096,
				"method": "rhf"
			},
			{
				"type": "occ",
				"energy": -0.28871,
				"method": "rhf"
			},
			{
				"type": "occ",
				"energy": -0.26325,
				"method": "rhf"
			},
			{
				"type": "unocc",
				"energy": -0.00413,
				"method": "rhf"
			},
			{
				"type": "unocc",
				"energy": 0.01304,
				"method": "rhf"
			},
			{
				"type": "unocc",
				"energy": 0.05332,
				"method": "rhf"
			},
			{
				"type": "unocc",
				"energy": 0.06842,
				"method": "rhf"
			},
			{
				"type": "unocc",
				"energy": 0.08462,
				"method": "rhf"
			}
		],
		"cosmo_sigma_profile": { 
			"-0.025": 0.0,
			"-0.024": 0.0,
			"-0.023": 0.0,
			"-0.022": 0.0,
			"-0.021": 0.0,
			"-0.02": 0.0,
			"-0.019": 0.0,
			"-0.018": 1.13696784985,
			"-0.017": 1.60236290854,
			"-0.016": 2.32445692334,
			"-0.015": 1.42623948105,
			"-0.014": 2.29356067167,
			"-0.013": 1.55188865887,
			"-0.012": 1.55912114893,
			"-0.011": 1.75858656947,
			"-0.01": 1.42502844997,
			"-0.009": 2.02940633277,
			"-0.008": 1.66265524385,
			"-0.007": 2.98474302441,
			"-0.006": 7.87210219892,
			"-0.005": 12.671030727,
			"-0.004": 18.6642881598,
			"-0.003": 21.0807966332,
			"-0.002": 19.6472401206,
			"-0.001": 9.60995883848,
			"0.0": 6.63642417067,
			"0.001": 4.89242504089,
			"0.002": 4.56947551929,
			"0.003": 3.81904346921,
			"0.004": 4.04013966451,
			"0.005": 4.92062784316,
			"0.006": 4.07069890921,
			"0.007": 5.42524363197,
			"0.008": 5.38835646192,
			"0.009": 5.85486607834,
			"0.01": 7.28214964262,
			"0.011": 8.24636060148,
			"0.012": 10.0611714724,
			"0.013": 3.39194645229,
			"0.014": 0.286495061381,
			"0.015": 0.0,
			"0.016": 0.0,
			"0.017": 0.0,
			"0.018": 0.0,
			"0.019": 0.0,
			"0.02": 0.0,
			"0.021": 0.0,
			"0.022": 0.0,
			"0.023": 0.0,
			"0.024": 0.0,
			"0.025": 0.0
		}
	}
}
