{
	 "smiles": "ClC(Cl)(Cl)C(=O)C1=CNC(=C1)C#N", 
	 "Tm": 403.15, 
	 "num_atms": 16, 
	 "gaussian": { 
		 "optdone": 1, 
		 "sigma_profile": "yes", 
		 "theory": "DFT", 
		 "functional": "B3LYP", 
		 "basiset": "6-31G**", 
		 "properties": { 
			 "R2extent": 5706.4097, 
			 "electric_dipole_moment_norm": 3.00092709841, 
			 "electric_quadrupole_moment_norm": 17.870733518, 
			 "total_energy": -1833.80245986, 
			 "HOMO_LUMO_gap": 0.17819, 
			 "cosmo_polarized_energy": -15.73, 
			 "cosmo_cavitation_energy": 27.73, 
			 "cosmo_dispersion_energy": -19.69, 
			 "cosmo_repulsion_energy": 1.57, 
			 "cosmo_total_nonelectrostatic_energy": 9.61, 
			 "SMD_solvation_energy": 6.04 
		},
		"coords": [
			{
				"x": -1.8756287514,
				"y": 3.4154250662,
				"z": -1.756299119,
				"element": "Cl" 
			},
			{
				"x": -2.5598587624,
				"y": 2.8365633564,
				"z": -0.1879526284,
				"element": "C" 
			},
			{
				"x": -3.2235340863,
				"y": 4.2195592326,
				"z": 0.7093605073,
				"element": "Cl" 
			},
			{
				"x": -3.8756076723,
				"y": 1.6378129428,
				"z": -0.4958146351,
				"element": "Cl" 
			},
			{
				"x": -1.4156683216,
				"y": 2.1375120854,
				"z": 0.641878049,
				"element": "C" 
			},
			{
				"x": -1.1286735253,
				"y": 2.5867361424,
				"z": 1.7310354739,
				"element": "O" 
			},
			{
				"x": -0.7334042532,
				"y": 0.9667898408,
				"z": 0.0734254383,
				"element": "C" 
			},
			{
				"x": 0.2821768557,
				"y": 0.332726058,
				"z": 0.7912106225,
				"element": "C" 
			},
			{
				"x": 0.7392930841,
				"y": -0.7031098038,
				"z": 0.0557874391,
				"element": "N" 
			},
			{
				"x": 0.0414240454,
				"y": -0.770027777,
				"z": -1.1464577769,
				"element": "C" 
			},
			{
				"x": -0.8797918106,
				"y": 0.2596949349,
				"z": -1.1563390964,
				"element": "C" 
			},
			{
				"x": 0.320135917,
				"y": -1.7678380294,
				"z": -2.1116117913,
				"element": "C" 
			},
			{
				"x": 0.5583965214,
				"y": -2.5932119484,
				"z": -2.8977773717,
				"element": "N" 
			},
			{
				"x": 0.6791151691,
				"y": 0.5761071439,
				"z": 1.764668621,
				"element": "H" 
			},
			{
				"x": 1.4748789953,
				"y": -1.3393942011,
				"z": 0.3260165401,
				"element": "H" 
			},
			{
				"x": -1.5689534047,
				"y": 0.4659549564,
				"z": -1.9592302723,
				"element": "H" 
			}
		],
		 "valence_orbital": [ 
			{
				"type": "occ",
				"energy": -0.32644,
				"method": "rhf"
			},
			{
				"type": "occ",
				"energy": -0.31688,
				"method": "rhf"
			},
			{
				"type": "occ",
				"energy": -0.29642,
				"method": "rhf"
			},
			{
				"type": "occ",
				"energy": -0.28978,
				"method": "rhf"
			},
			{
				"type": "occ",
				"energy": -0.26122,
				"method": "rhf"
			},
			{
				"type": "unocc",
				"energy": -0.08303,
				"method": "rhf"
			},
			{
				"type": "unocc",
				"energy": -0.05037,
				"method": "rhf"
			},
			{
				"type": "unocc",
				"energy": -0.0478,
				"method": "rhf"
			},
			{
				"type": "unocc",
				"energy": -0.00349,
				"method": "rhf"
			},
			{
				"type": "unocc",
				"energy": -0.00306,
				"method": "rhf"
			}
		],
		"cosmo_sigma_profile": { 
			"-0.025": 0.0,
			"-0.024": 0.0,
			"-0.023": 0.0,
			"-0.022": 0.0,
			"-0.021": 0.0,
			"-0.02": 0.0,
			"-0.019": 0.274355229594,
			"-0.018": 2.20387721176,
			"-0.017": 1.60906447038,
			"-0.016": 1.35716394225,
			"-0.015": 1.11116327766,
			"-0.014": 1.62398686584,
			"-0.013": 1.09003049902,
			"-0.012": 1.19260976316,
			"-0.011": 2.76774485126,
			"-0.01": 2.61139990843,
			"-0.009": 2.44413974917,
			"-0.008": 3.05716998116,
			"-0.007": 3.29286414582,
			"-0.006": 3.66376018215,
			"-0.005": 6.41530312768,
			"-0.004": 10.6712313917,
			"-0.003": 12.0356990336,
			"-0.002": 17.0560659459,
			"-0.001": 20.8840534974,
			"0.0": 22.4813630751,
			"0.001": 23.0631013478,
			"0.002": 29.4617533552,
			"0.003": 17.9682347854,
			"0.004": 3.8078753441,
			"0.005": 4.55414139465,
			"0.006": 4.14578539266,
			"0.007": 5.17443105506,
			"0.008": 5.64695021917,
			"0.009": 6.92731655527,
			"0.01": 6.34937349335,
			"0.011": 3.14865296591,
			"0.012": 2.2143720171,
			"0.013": 0.577122078131,
			"0.014": 0.0,
			"0.015": 0.0,
			"0.016": 0.0,
			"0.017": 0.0,
			"0.018": 0.0,
			"0.019": 0.0,
			"0.02": 0.0,
			"0.021": 0.0,
			"0.022": 0.0,
			"0.023": 0.0,
			"0.024": 0.0,
			"0.025": 0.0
		}
	}
}
