{
	 "smiles": "NC(=S)C1=CC2=C(OC1=O)C=CC=C2", 
	 "Tm": 515.15, 
	 "num_atms": 21, 
	 "gaussian": { 
		 "optdone": 1, 
		 "sigma_profile": "yes", 
		 "theory": "DFT", 
		 "functional": "B3LYP", 
		 "basiset": "6-31G**", 
		 "properties": { 
			 "R2extent": 3888.4572, 
			 "electric_dipole_moment_norm": 4.53524020422, 
			 "electric_quadrupole_moment_norm": 11.8163229183, 
			 "total_energy": -988.690367655, 
			 "HOMO_LUMO_gap": 0.11312, 
			 "cosmo_polarized_energy": -14.52, 
			 "cosmo_cavitation_energy": 27.19, 
			 "cosmo_dispersion_energy": -21.07, 
			 "cosmo_repulsion_energy": 1.58, 
			 "cosmo_total_nonelectrostatic_energy": 7.7, 
			 "SMD_solvation_energy": 4.64 
		},
		"coords": [
			{
				"x": 1.4532054628,
				"y": -4.0508155244,
				"z": 1.1981596451,
				"element": "N" 
			},
			{
				"x": 0.8468126905,
				"y": -2.8895633282,
				"z": 1.4778043337,
				"element": "C" 
			},
			{
				"x": 0.2467893147,
				"y": -2.5536596028,
				"z": 3.0102580647,
				"element": "S" 
			},
			{
				"x": 0.7414465781,
				"y": -1.9190399179,
				"z": 0.3399129607,
				"element": "C" 
			},
			{
				"x": 0.1395279687,
				"y": -0.7072889776,
				"z": 0.5261508079,
				"element": "C" 
			},
			{
				"x": 0.0119585901,
				"y": 0.2550272692,
				"z": -0.5225819655,
				"element": "C" 
			},
			{
				"x": 0.5345905115,
				"y": -0.0837567428,
				"z": -1.7837855714,
				"element": "C" 
			},
			{
				"x": 1.137237295,
				"y": -1.2896494121,
				"z": -1.9809098177,
				"element": "O" 
			},
			{
				"x": 1.2788388993,
				"y": -2.2458451928,
				"z": -0.9916049926,
				"element": "C" 
			},
			{
				"x": 1.8407616015,
				"y": -3.2744611258,
				"z": -1.3256032224,
				"element": "O" 
			},
			{
				"x": 0.4572081482,
				"y": 0.7908064561,
				"z": -2.8682868266,
				"element": "C" 
			},
			{
				"x": -0.155019768,
				"y": 2.0259659459,
				"z": -2.6838828962,
				"element": "C" 
			},
			{
				"x": -0.6862345652,
				"y": 2.3913082248,
				"z": -1.4345549187,
				"element": "C" 
			},
			{
				"x": -0.6036821087,
				"y": 1.5148010658,
				"z": -0.3644220001,
				"element": "C" 
			},
			{
				"x": 1.8067151151,
				"y": -4.2269624064,
				"z": 0.2603400877,
				"element": "H" 
			},
			{
				"x": 1.5415104068,
				"y": -4.7278927155,
				"z": 1.94103543,
				"element": "H" 
			},
			{
				"x": -0.2503963474,
				"y": -0.4861254596,
				"z": 1.5167376315,
				"element": "H" 
			},
			{
				"x": 0.8726797705,
				"y": 0.4910111987,
				"z": -3.8238782109,
				"element": "H" 
			},
			{
				"x": -0.2219684436,
				"y": 2.7159014635,
				"z": -3.5195299239,
				"element": "H" 
			},
			{
				"x": -1.1600946961,
				"y": 3.3594832226,
				"z": -1.3106203081,
				"element": "H" 
			},
			{
				"x": -1.0089864239,
				"y": 1.7816555593,
				"z": 0.607161693,
				"element": "H" 
			}
		],
		 "valence_orbital": [ 
			{
				"type": "occ",
				"energy": -0.29733,
				"method": "rhf"
			},
			{
				"type": "occ",
				"energy": -0.27198,
				"method": "rhf"
			},
			{
				"type": "occ",
				"energy": -0.25854,
				"method": "rhf"
			},
			{
				"type": "occ",
				"energy": -0.22164,
				"method": "rhf"
			},
			{
				"type": "occ",
				"energy": -0.21033,
				"method": "rhf"
			},
			{
				"type": "unocc",
				"energy": -0.09721,
				"method": "rhf"
			},
			{
				"type": "unocc",
				"energy": -0.03573,
				"method": "rhf"
			},
			{
				"type": "unocc",
				"energy": -0.01765,
				"method": "rhf"
			},
			{
				"type": "unocc",
				"energy": -0.00896,
				"method": "rhf"
			},
			{
				"type": "unocc",
				"energy": 0.07347,
				"method": "rhf"
			}
		],
		"cosmo_sigma_profile": { 
			"-0.025": 0.0,
			"-0.024": 0.0,
			"-0.023": 0.0,
			"-0.022": 0.0,
			"-0.021": 0.0,
			"-0.02": 0.0,
			"-0.019": 0.0,
			"-0.018": 0.0,
			"-0.017": 0.0,
			"-0.016": 0.0,
			"-0.015": 0.449571100942,
			"-0.014": 1.20112795709,
			"-0.013": 0.9086446494,
			"-0.012": 1.17539281093,
			"-0.011": 1.86461487038,
			"-0.01": 1.90563303647,
			"-0.009": 2.1740194503,
			"-0.008": 5.59864374662,
			"-0.007": 11.2664473977,
			"-0.006": 13.6711007586,
			"-0.005": 13.814674718,
			"-0.004": 11.9753909125,
			"-0.003": 12.4656235223,
			"-0.002": 15.3917786963,
			"-0.001": 16.6191120591,
			"0.0": 16.7827884133,
			"0.001": 14.2550689322,
			"0.002": 15.8462361661,
			"0.003": 8.98828050105,
			"0.004": 6.03543615264,
			"0.005": 5.60905033856,
			"0.006": 5.44462687183,
			"0.007": 5.58385367175,
			"0.008": 7.91302678716,
			"0.009": 9.42429872326,
			"0.01": 8.8641165739,
			"0.011": 4.42733980998,
			"0.012": 2.56644337822,
			"0.013": 0.0063444214213,
			"0.014": 0.0,
			"0.015": 0.0,
			"0.016": 0.0,
			"0.017": 0.0,
			"0.018": 0.0,
			"0.019": 0.0,
			"0.02": 0.0,
			"0.021": 0.0,
			"0.022": 0.0,
			"0.023": 0.0,
			"0.024": 0.0,
			"0.025": 0.0
		}
	}
}
