{
	 "smiles": "CN1C=C(C=N1)N1CCNCC1", 
	 "Tm": 342.15, 
	 "num_atms": 26, 
	 "gaussian": { 
		 "optdone": 1, 
		 "sigma_profile": "yes", 
		 "theory": "DFT", 
		 "functional": "B3LYP", 
		 "basiset": "6-31G**", 
		 "properties": { 
			 "R2extent": 2432.7152, 
			 "electric_dipole_moment_norm": 2.25047183053, 
			 "electric_quadrupole_moment_norm": 12.5150723526, 
			 "total_energy": -532.246934111, 
			 "HOMO_LUMO_gap": 0.19953, 
			 "cosmo_polarized_energy": -12.62, 
			 "cosmo_cavitation_energy": 27.19, 
			 "cosmo_dispersion_energy": -20.22, 
			 "cosmo_repulsion_energy": 1.6, 
			 "cosmo_total_nonelectrostatic_energy": 8.56, 
			 "SMD_solvation_energy": -0.56 
		},
		"coords": [
			{
				"x": 1.0858569333,
				"y": 2.0450329287,
				"z": 2.7000207671,
				"element": "C" 
			},
			{
				"x": 1.1608557672,
				"y": 1.0151047234,
				"z": 1.6840072086,
				"element": "N" 
			},
			{
				"x": 0.1281998641,
				"y": 0.4610763084,
				"z": 0.9760194657,
				"element": "C" 
			},
			{
				"x": 0.6865298111,
				"y": -0.489914374,
				"z": 0.127653806,
				"element": "C" 
			},
			{
				"x": 2.0781750572,
				"y": -0.4102144887,
				"z": 0.4057322777,
				"element": "C" 
			},
			{
				"x": 2.3505224527,
				"y": 0.5009496386,
				"z": 1.3424481377,
				"element": "N" 
			},
			{
				"x": 0.0390025407,
				"y": -1.3900488599,
				"z": -0.7372600403,
				"element": "N" 
			},
			{
				"x": 0.717219853,
				"y": -1.7013024559,
				"z": -2.002889992,
				"element": "C" 
			},
			{
				"x": 0.4383447144,
				"y": -0.6349259819,
				"z": -3.0775944483,
				"element": "C" 
			},
			{
				"x": -0.9947093938,
				"y": -0.3848984114,
				"z": -3.2847090208,
				"element": "N" 
			},
			{
				"x": -1.6851337636,
				"y": -0.1209235984,
				"z": -2.0148122714,
				"element": "C" 
			},
			{
				"x": -1.3973157393,
				"y": -1.1928784091,
				"z": -0.9471253564,
				"element": "C" 
			},
			{
				"x": 0.0426335689,
				"y": 2.3373311125,
				"z": 2.831904395,
				"element": "H" 
			},
			{
				"x": 1.4767538305,
				"y": 1.6716728293,
				"z": 3.6509942301,
				"element": "H" 
			},
			{
				"x": 1.6684980463,
				"y": 2.9203108928,
				"z": 2.3989677782,
				"element": "H" 
			},
			{
				"x": -0.8906371168,
				"y": 0.7793505986,
				"z": 1.1320170945,
				"element": "H" 
			},
			{
				"x": 2.8866822506,
				"y": -0.9805797289,
				"z": -0.0299693254,
				"element": "H" 
			},
			{
				"x": 1.789978403,
				"y": -1.8152020757,
				"z": -1.8264252129,
				"element": "H" 
			},
			{
				"x": 0.3436483775,
				"y": -2.6759510925,
				"z": -2.3488258075,
				"element": "H" 
			},
			{
				"x": 0.8871480698,
				"y": -0.925354717,
				"z": -4.0348895189,
				"element": "H" 
			},
			{
				"x": 0.905265705,
				"y": 0.3103981963,
				"z": -2.7718824988,
				"element": "H" 
			},
			{
				"x": -1.411356948,
				"y": -1.2079069823,
				"z": -3.7189856163,
				"element": "H" 
			},
			{
				"x": -2.7620500667,
				"y": -0.0461965827,
				"z": -2.2071577847,
				"element": "H" 
			},
			{
				"x": -1.3503998491,
				"y": 0.8580225984,
				"z": -1.6490158275,
				"element": "H" 
			},
			{
				"x": -1.8172957682,
				"y": -2.1526379675,
				"z": -1.2821408927,
				"element": "H" 
			},
			{
				"x": -1.8732165996,
				"y": -0.9569141013,
				"z": 0.0104184533,
				"element": "H" 
			}
		],
		 "valence_orbital": [ 
			{
				"type": "occ",
				"energy": -0.29195,
				"method": "rhf"
			},
			{
				"type": "occ",
				"energy": -0.27499,
				"method": "rhf"
			},
			{
				"type": "occ",
				"energy": -0.23683,
				"method": "rhf"
			},
			{
				"type": "occ",
				"energy": -0.22635,
				"method": "rhf"
			},
			{
				"type": "occ",
				"energy": -0.17182,
				"method": "rhf"
			},
			{
				"type": "unocc",
				"energy": 0.02771,
				"method": "rhf"
			},
			{
				"type": "unocc",
				"energy": 0.08053,
				"method": "rhf"
			},
			{
				"type": "unocc",
				"energy": 0.09343,
				"method": "rhf"
			},
			{
				"type": "unocc",
				"energy": 0.0959,
				"method": "rhf"
			},
			{
				"type": "unocc",
				"energy": 0.1131,
				"method": "rhf"
			}
		],
		"cosmo_sigma_profile": { 
			"-0.025": 0.0,
			"-0.024": 0.0,
			"-0.023": 0.0,
			"-0.022": 0.0,
			"-0.021": 0.0,
			"-0.02": 0.0,
			"-0.019": 0.0,
			"-0.018": 0.0,
			"-0.017": 0.0,
			"-0.016": 0.0,
			"-0.015": 0.0,
			"-0.014": 0.0,
			"-0.013": 0.0,
			"-0.012": 0.0,
			"-0.011": 0.0,
			"-0.01": 0.299618401457,
			"-0.009": 1.42845644389,
			"-0.008": 4.37391577917,
			"-0.007": 7.00303108614,
			"-0.006": 10.5794388451,
			"-0.005": 14.0235280457,
			"-0.004": 21.8144277085,
			"-0.003": 26.9116667459,
			"-0.002": 24.5371552878,
			"-0.001": 18.8418236152,
			"0.0": 11.6966736239,
			"0.001": 8.50663836394,
			"0.002": 6.25154929,
			"0.003": 6.25086632998,
			"0.004": 5.58552104956,
			"0.005": 7.13432791938,
			"0.006": 7.83253959062,
			"0.007": 5.14306223991,
			"0.008": 3.07768188557,
			"0.009": 4.39917913305,
			"0.01": 3.16870886296,
			"0.011": 2.1376523276,
			"0.012": 2.46607219942,
			"0.013": 2.64763410241,
			"0.014": 1.19499704481,
			"0.015": 1.84427354509,
			"0.016": 1.75855828784,
			"0.017": 0.905035222122,
			"0.018": 0.52580015468,
			"0.019": 0.288185863272,
			"0.02": 0.0,
			"0.021": 0.0,
			"0.022": 0.0,
			"0.023": 0.0,
			"0.024": 0.0,
			"0.025": 0.0
		}
	}
}
