{
	 "smiles": "CC1C2C(CC3=CC=CC=C3)NC(=O)C22OC(=O)C=CC(=O)CCCC(C)CC=CC2C(O)C1=C", 
	 "Tm": 467.15, 
	 "num_atms": 70, 
	 "gaussian": { 
		 "optdone": 1, 
		 "sigma_profile": "yes", 
		 "theory": "DFT", 
		 "functional": "B3LYP", 
		 "basiset": "6-31G**", 
		 "properties": { 
			 "R2extent": 15859.0305, 
			 "electric_dipole_moment_norm": 8.14142091898, 
			 "electric_quadrupole_moment_norm": 30.0251540794, 
			 "total_energy": -1556.98614072, 
			 "HOMO_LUMO_gap": 0.16742, 
			 "cosmo_polarized_energy": -23.32, 
			 "cosmo_cavitation_energy": 63.93, 
			 "cosmo_dispersion_energy": -39.82, 
			 "cosmo_repulsion_energy": 2.92, 
			 "cosmo_total_nonelectrostatic_energy": 27.03, 
			 "SMD_solvation_energy": 11.2 
		},
		"coords": [
			{
				"x": 3.4630563886,
				"y": 1.4652059222,
				"z": -1.4911728721,
				"element": "C" 
			},
			{
				"x": 2.3588945109,
				"y": 1.7128551644,
				"z": -0.4588581066,
				"element": "C" 
			},
			{
				"x": 0.9162472392,
				"y": 1.4099427414,
				"z": -0.9929036595,
				"element": "C" 
			},
			{
				"x": 0.5831502844,
				"y": 2.0450970429,
				"z": -2.3725180629,
				"element": "C" 
			},
			{
				"x": -0.3088617805,
				"y": 1.1707240617,
				"z": -3.2926500443,
				"element": "C" 
			},
			{
				"x": 0.3468231778,
				"y": -0.1249894195,
				"z": -3.7178784851,
				"element": "C" 
			},
			{
				"x": 1.3568071602,
				"y": -0.1378757839,
				"z": -4.6912314413,
				"element": "C" 
			},
			{
				"x": 1.9770028186,
				"y": -1.3310164903,
				"z": -5.0638025687,
				"element": "C" 
			},
			{
				"x": 1.5926775875,
				"y": -2.5353455428,
				"z": -4.4697196753,
				"element": "C" 
			},
			{
				"x": 0.5848594562,
				"y": -2.5370687989,
				"z": -3.5042509396,
				"element": "C" 
			},
			{
				"x": -0.0318557762,
				"y": -1.3410322406,
				"z": -3.1311221423,
				"element": "C" 
			},
			{
				"x": -0.0947206334,
				"y": 3.2792099283,
				"z": -1.9881971076,
				"element": "N" 
			},
			{
				"x": -0.5363102993,
				"y": 3.342741116,
				"z": -0.7103624632,
				"element": "C" 
			},
			{
				"x": -1.1434764005,
				"y": 4.2791442499,
				"z": -0.2044275826,
				"element": "O" 
			},
			{
				"x": -0.1635299906,
				"y": 1.9818287228,
				"z": -0.0362478283,
				"element": "C" 
			},
			{
				"x": -1.3207002288,
				"y": 1.1160913135,
				"z": -0.2301734415,
				"element": "O" 
			},
			{
				"x": -2.5774103153,
				"y": 1.1938666832,
				"z": 0.3185431101,
				"element": "C" 
			},
			{
				"x": -3.3576163063,
				"y": 0.3305128564,
				"z": -0.0224244328,
				"element": "O" 
			},
			{
				"x": -2.9221442446,
				"y": 2.2894852045,
				"z": 1.2622933203,
				"element": "C" 
			},
			{
				"x": -3.7573151033,
				"y": 2.1589302823,
				"z": 2.3079488161,
				"element": "C" 
			},
			{
				"x": -4.4877021953,
				"y": 0.9591698351,
				"z": 2.8584167218,
				"element": "C" 
			},
			{
				"x": -5.6145675836,
				"y": 1.1548390074,
				"z": 3.2845752771,
				"element": "O" 
			},
			{
				"x": -3.8085737886,
				"y": -0.3958928181,
				"z": 2.9647098824,
				"element": "C" 
			},
			{
				"x": -2.4702737333,
				"y": -0.3206252252,
				"z": 3.7280178961,
				"element": "C" 
			},
			{
				"x": -1.6815583481,
				"y": -1.6347450968,
				"z": 3.8738885467,
				"element": "C" 
			},
			{
				"x": -1.0882122334,
				"y": -2.2974964716,
				"z": 2.5997332173,
				"element": "C" 
			},
			{
				"x": -2.0745529264,
				"y": -3.2265098312,
				"z": 1.8711593561,
				"element": "C" 
			},
			{
				"x": -0.4644450962,
				"y": -1.2927673939,
				"z": 1.5986899314,
				"element": "C" 
			},
			{
				"x": 0.6022211646,
				"y": -0.4226146097,
				"z": 2.2065487144,
				"element": "C" 
			},
			{
				"x": 0.9084947107,
				"y": 0.8828877658,
				"z": 2.1218854404,
				"element": "C" 
			},
			{
				"x": 0.3311198025,
				"y": 2.1153407499,
				"z": 1.4200404227,
				"element": "C" 
			},
			{
				"x": 1.4046693887,
				"y": 3.2558445629,
				"z": 1.3766125596,
				"element": "C" 
			},
			{
				"x": 2.0637798187,
				"y": 3.3129015264,
				"z": 2.6429666403,
				"element": "O" 
			},
			{
				"x": 2.3990573113,
				"y": 3.0672117391,
				"z": 0.2233249629,
				"element": "C" 
			},
			{
				"x": 3.2282829277,
				"y": 4.0654071666,
				"z": -0.1010888572,
				"element": "C" 
			},
			{
				"x": 4.4423079922,
				"y": 1.4675483603,
				"z": -1.0029338631,
				"element": "H" 
			},
			{
				"x": 3.4904188373,
				"y": 2.225707769,
				"z": -2.2775894431,
				"element": "H" 
			},
			{
				"x": 3.3288724037,
				"y": 0.4925562425,
				"z": -1.9742582375,
				"element": "H" 
			},
			{
				"x": 2.5057031437,
				"y": 0.9729267963,
				"z": 0.3374660553,
				"element": "H" 
			},
			{
				"x": 0.8052117846,
				"y": 0.3258570441,
				"z": -1.0489117093,
				"element": "H" 
			},
			{
				"x": 1.498803053,
				"y": 2.2936163902,
				"z": -2.916184221,
				"element": "H" 
			},
			{
				"x": -1.2459655719,
				"y": 0.9632409109,
				"z": -2.7699349701,
				"element": "H" 
			},
			{
				"x": -0.5569197604,
				"y": 1.7691038245,
				"z": -4.1792669143,
				"element": "H" 
			},
			{
				"x": 1.6526912762,
				"y": 0.7930299287,
				"z": -5.1704224138,
				"element": "H" 
			},
			{
				"x": 2.7541888545,
				"y": -1.3219033791,
				"z": -5.8229427519,
				"element": "H" 
			},
			{
				"x": 2.0711009652,
				"y": -3.4654224466,
				"z": -4.7626380955,
				"element": "H" 
			},
			{
				"x": 0.273445303,
				"y": -3.4702053563,
				"z": -3.0433239481,
				"element": "H" 
			},
			{
				"x": -0.8205246479,
				"y": -1.3456340326,
				"z": -2.3827934055,
				"element": "H" 
			},
			{
				"x": -0.3249108939,
				"y": 4.019294942,
				"z": -2.6372956357,
				"element": "H" 
			},
			{
				"x": -2.5029770191,
				"y": 3.265716394,
				"z": 1.0366861212,
				"element": "H" 
			},
			{
				"x": -4.0091896657,
				"y": 3.065556977,
				"z": 2.8553151653,
				"element": "H" 
			},
			{
				"x": -4.5147950107,
				"y": -1.0592790184,
				"z": 3.4732657259,
				"element": "H" 
			},
			{
				"x": -3.6576505744,
				"y": -0.775355457,
				"z": 1.9524036275,
				"element": "H" 
			},
			{
				"x": -2.6727216317,
				"y": 0.0563778295,
				"z": 4.739292942,
				"element": "H" 
			},
			{
				"x": -1.821792642,
				"y": 0.4262476429,
				"z": 3.2611675153,
				"element": "H" 
			},
			{
				"x": -2.2993215103,
				"y": -2.378078862,
				"z": 4.3955289326,
				"element": "H" 
			},
			{
				"x": -0.8484185845,
				"y": -1.4129592137,
				"z": 4.5524644266,
				"element": "H" 
			},
			{
				"x": -0.2694563921,
				"y": -2.9381375595,
				"z": 2.9610830569,
				"element": "H" 
			},
			{
				"x": -2.517789363,
				"y": -3.9502945514,
				"z": 2.5634858941,
				"element": "H" 
			},
			{
				"x": -2.8912496489,
				"y": -2.6760343395,
				"z": 1.3950408156,
				"element": "H" 
			},
			{
				"x": -1.5628554405,
				"y": -3.7912700473,
				"z": 1.0834020426,
				"element": "H" 
			},
			{
				"x": -1.247323007,
				"y": -0.7112037808,
				"z": 1.1191870763,
				"element": "H" 
			},
			{
				"x": -0.007399662,
				"y": -1.8857204493,
				"z": 0.790784109,
				"element": "H" 
			},
			{
				"x": 1.2762504727,
				"y": -0.9865744367,
				"z": 2.8564941592,
				"element": "H" 
			},
			{
				"x": 1.7530009056,
				"y": 1.184310554,
				"z": 2.7353777816,
				"element": "H" 
			},
			{
				"x": -0.4933690447,
				"y": 2.502802469,
				"z": 2.0299250044,
				"element": "H" 
			},
			{
				"x": 0.8670263184,
				"y": 4.1980006671,
				"z": 1.2204531519,
				"element": "H" 
			},
			{
				"x": 2.9165814626,
				"y": 3.7423737388,
				"z": 2.4999660553,
				"element": "H" 
			},
			{
				"x": 3.9842661837,
				"y": 3.9722330719,
				"z": -0.8733573121,
				"element": "H" 
			},
			{
				"x": 3.1766443504,
				"y": 5.0284134576,
				"z": 0.4031381577,
				"element": "H" 
			}
		],
		 "valence_orbital": [ 
			{
				"type": "occ",
				"energy": -0.25841,
				"method": "rhf"
			},
			{
				"type": "occ",
				"energy": -0.25627,
				"method": "rhf"
			},
			{
				"type": "occ",
				"energy": -0.24778,
				"method": "rhf"
			},
			{
				"type": "occ",
				"energy": -0.24165,
				"method": "rhf"
			},
			{
				"type": "occ",
				"energy": -0.23978,
				"method": "rhf"
			},
			{
				"type": "unocc",
				"energy": -0.07236,
				"method": "rhf"
			},
			{
				"type": "unocc",
				"energy": -0.01939,
				"method": "rhf"
			},
			{
				"type": "unocc",
				"energy": -0.01166,
				"method": "rhf"
			},
			{
				"type": "unocc",
				"energy": -0.00865,
				"method": "rhf"
			},
			{
				"type": "unocc",
				"energy": 0.00555,
				"method": "rhf"
			}
		],
		"cosmo_sigma_profile": { 
			"-0.025": 0.0,
			"-0.024": 0.0,
			"-0.023": 0.0,
			"-0.022": 0.0,
			"-0.021": 0.0,
			"-0.02": 0.0,
			"-0.019": 0.0,
			"-0.018": 0.0,
			"-0.017": 0.0,
			"-0.016": 0.0534690377271,
			"-0.015": 1.07687064554,
			"-0.014": 1.84956976867,
			"-0.013": 1.98309346078,
			"-0.012": 2.02595931763,
			"-0.011": 1.57906372572,
			"-0.01": 1.99274845101,
			"-0.009": 3.41483533963,
			"-0.008": 4.58070728141,
			"-0.007": 5.0690726563,
			"-0.006": 11.4849623507,
			"-0.005": 22.4894586946,
			"-0.004": 32.5512388573,
			"-0.003": 44.9465085384,
			"-0.002": 65.1033227517,
			"-0.001": 62.2387034866,
			"0.0": 49.8623966056,
			"0.001": 43.8723500448,
			"0.002": 28.569753511,
			"0.003": 21.9672415764,
			"0.004": 17.1210001989,
			"0.005": 15.5407743244,
			"0.006": 13.5609966259,
			"0.007": 6.56932445378,
			"0.008": 4.59315944838,
			"0.009": 6.40491360046,
			"0.01": 7.84132707348,
			"0.011": 9.30165669031,
			"0.012": 8.28412598161,
			"0.013": 3.88033655058,
			"0.014": 0.899559832634,
			"0.015": 0.0,
			"0.016": 0.0,
			"0.017": 0.0,
			"0.018": 0.0,
			"0.019": 0.0,
			"0.02": 0.0,
			"0.021": 0.0,
			"0.022": 0.0,
			"0.023": 0.0,
			"0.024": 0.0,
			"0.025": 0.0
		}
	}
}
