{
	 "smiles": "O[C@@H]1CN2CCC[C@H](O)[C@H]2[C@@H]1O", 
	 "Tm": 416.65, 
	 "num_atms": 27, 
	 "gaussian": { 
		 "optdone": 1, 
		 "sigma_profile": "yes", 
		 "theory": "DFT", 
		 "functional": "B3LYP", 
		 "basiset": "6-31G**", 
		 "properties": { 
			 "R2extent": 2569.289, 
			 "electric_dipole_moment_norm": 4.28728343593, 
			 "electric_quadrupole_moment_norm": 10.6658551059, 
			 "total_energy": -594.283577654, 
			 "HOMO_LUMO_gap": 0.25459, 
			 "cosmo_polarized_energy": -12.91, 
			 "cosmo_cavitation_energy": 26.44, 
			 "cosmo_dispersion_energy": -20.18, 
			 "cosmo_repulsion_energy": 1.61, 
			 "cosmo_total_nonelectrostatic_energy": 7.87, 
			 "SMD_solvation_energy": 1.22 
		},
		"coords": [
			{
				"x": -3.5630006563,
				"y": 1.1810502228,
				"z": 0.411666885,
				"element": "O" 
			},
			{
				"x": -2.573769457,
				"y": 1.3313001784,
				"z": 1.4138501741,
				"element": "C" 
			},
			{
				"x": -1.3154524975,
				"y": 1.9703484701,
				"z": 0.8182980493,
				"element": "C" 
			},
			{
				"x": -0.564074115,
				"y": 0.8662178134,
				"z": 0.1981109201,
				"element": "N" 
			},
			{
				"x": 0.8837944762,
				"y": 0.9978275322,
				"z": 0.2130114177,
				"element": "C" 
			},
			{
				"x": 1.5443314045,
				"y": -0.1854820129,
				"z": -0.5140911024,
				"element": "C" 
			},
			{
				"x": 1.0083861039,
				"y": -1.5671911444,
				"z": -0.0340592733,
				"element": "C" 
			},
			{
				"x": -0.0214336065,
				"y": -1.4098029641,
				"z": 1.0872611398,
				"element": "C" 
			},
			{
				"x": -0.7248572952,
				"y": -2.6261439945,
				"z": 1.3768837284,
				"element": "O" 
			},
			{
				"x": -1.1037437097,
				"y": -0.413123055,
				"z": 0.6896432686,
				"element": "C" 
			},
			{
				"x": -2.0509917045,
				"y": -0.0461301436,
				"z": 1.8447591131,
				"element": "C" 
			},
			{
				"x": -3.1242255177,
				"y": -0.9544559751,
				"z": 2.0176932187,
				"element": "O" 
			},
			{
				"x": -4.0528179553,
				"y": 0.378969905,
				"z": 0.6545645769,
				"element": "H" 
			},
			{
				"x": -2.9607552695,
				"y": 1.9146379662,
				"z": 2.2631759899,
				"element": "H" 
			},
			{
				"x": -0.7358168823,
				"y": 2.4550045845,
				"z": 1.6243803423,
				"element": "H" 
			},
			{
				"x": -1.5799475786,
				"y": 2.7414563279,
				"z": 0.0856372682,
				"element": "H" 
			},
			{
				"x": 1.2950895368,
				"y": 1.0897126751,
				"z": 1.2404242218,
				"element": "H" 
			},
			{
				"x": 1.1516504711,
				"y": 1.9286292949,
				"z": -0.3011593583,
				"element": "H" 
			},
			{
				"x": 1.3552205511,
				"y": -0.0786514091,
				"z": -1.5863577794,
				"element": "H" 
			},
			{
				"x": 2.6283902488,
				"y": -0.1214034865,
				"z": -0.373831131,
				"element": "H" 
			},
			{
				"x": 1.8297743252,
				"y": -2.2111722284,
				"z": 0.3043863457,
				"element": "H" 
			},
			{
				"x": 0.5144055885,
				"y": -2.0927259711,
				"z": -0.8584242092,
				"element": "H" 
			},
			{
				"x": 0.4799661052,
				"y": -1.0530010239,
				"z": 2.0011550234,
				"element": "H" 
			},
			{
				"x": -0.097578557,
				"y": -3.2684888354,
				"z": 1.7321911519,
				"element": "H" 
			},
			{
				"x": -1.712380213,
				"y": -0.8927064992,
				"z": -0.0938657216,
				"element": "H" 
			},
			{
				"x": -1.4743539607,
				"y": 0.0621902385,
				"z": 2.778710491,
				"element": "H" 
			},
			{
				"x": -2.7394098354,
				"y": -1.8412664659,
				"z": 1.9396852492,
				"element": "H" 
			}
		],
		 "valence_orbital": [ 
			{
				"type": "occ",
				"energy": -0.29889,
				"method": "rhf"
			},
			{
				"type": "occ",
				"energy": -0.2805,
				"method": "rhf"
			},
			{
				"type": "occ",
				"energy": -0.27356,
				"method": "rhf"
			},
			{
				"type": "occ",
				"energy": -0.25366,
				"method": "rhf"
			},
			{
				"type": "occ",
				"energy": -0.1982,
				"method": "rhf"
			},
			{
				"type": "unocc",
				"energy": 0.05639,
				"method": "rhf"
			},
			{
				"type": "unocc",
				"energy": 0.07438,
				"method": "rhf"
			},
			{
				"type": "unocc",
				"energy": 0.09332,
				"method": "rhf"
			},
			{
				"type": "unocc",
				"energy": 0.10256,
				"method": "rhf"
			},
			{
				"type": "unocc",
				"energy": 0.11963,
				"method": "rhf"
			}
		],
		"cosmo_sigma_profile": { 
			"-0.025": 0.0,
			"-0.024": 0.0,
			"-0.023": 0.0,
			"-0.022": 0.0,
			"-0.021": 0.0,
			"-0.02": 0.0,
			"-0.019": 0.0,
			"-0.018": 0.0,
			"-0.017": 0.0,
			"-0.016": 0.437371519215,
			"-0.015": 1.25468235052,
			"-0.014": 0.870419063316,
			"-0.013": 1.07217659676,
			"-0.012": 0.750095440445,
			"-0.011": 1.01196929304,
			"-0.01": 2.12334880781,
			"-0.009": 1.31040004355,
			"-0.008": 1.99111776085,
			"-0.007": 2.54704510387,
			"-0.006": 2.50647775302,
			"-0.005": 3.97117264283,
			"-0.004": 16.8417304369,
			"-0.003": 26.0863146629,
			"-0.002": 28.3867789837,
			"-0.001": 29.4459331753,
			"0.0": 18.7851839185,
			"0.001": 11.6044452566,
			"0.002": 5.9665608898,
			"0.003": 4.75389201795,
			"0.004": 4.85581332927,
			"0.005": 4.10674894174,
			"0.006": 3.51991993733,
			"0.007": 3.82160033357,
			"0.008": 3.76268512908,
			"0.009": 2.30949529257,
			"0.01": 3.31793238004,
			"0.011": 3.04173568143,
			"0.012": 4.07556864645,
			"0.013": 3.64810944457,
			"0.014": 2.80523469161,
			"0.015": 1.51088729974,
			"0.016": 0.202752969736,
			"0.017": 0.0,
			"0.018": 0.0,
			"0.019": 0.0,
			"0.02": 0.0,
			"0.021": 0.0,
			"0.022": 0.0,
			"0.023": 0.0,
			"0.024": 0.0,
			"0.025": 0.0
		}
	}
}
