{
	 "smiles": "ClC1=NC(OCC2=CC=CC=C2)=CN=C1", 
	 "Tm": 321.15, 
	 "num_atms": 24, 
	 "gaussian": { 
		 "optdone": 1, 
		 "sigma_profile": "yes", 
		 "theory": "DFT", 
		 "functional": "B3LYP", 
		 "basiset": "6-31G**", 
		 "properties": { 
			 "R2extent": 4279.623, 
			 "electric_dipole_moment_norm": 2.03690577838, 
			 "electric_quadrupole_moment_norm": 4.75062761327, 
			 "total_energy": -1069.49906446, 
			 "HOMO_LUMO_gap": 0.19121, 
			 "cosmo_polarized_energy": -7.24, 
			 "cosmo_cavitation_energy": 30.83, 
			 "cosmo_dispersion_energy": -21.98, 
			 "cosmo_repulsion_energy": 1.73, 
			 "cosmo_total_nonelectrostatic_energy": 10.59, 
			 "SMD_solvation_energy": 3.38 
		},
		"coords": [
			{
				"x": -2.624185764,
				"y": 2.1041226789,
				"z": 2.1348857758,
				"element": "Cl" 
			},
			{
				"x": -1.633000841,
				"y": 0.6571034376,
				"z": 2.2583957708,
				"element": "C" 
			},
			{
				"x": -1.6349362111,
				"y": -0.1660196831,
				"z": 1.2195408943,
				"element": "N" 
			},
			{
				"x": -0.8801563433,
				"y": -1.256740927,
				"z": 1.326754321,
				"element": "C" 
			},
			{
				"x": -0.8303226913,
				"y": -2.1623668061,
				"z": 0.3389224501,
				"element": "O" 
			},
			{
				"x": -1.5410774978,
				"y": -1.883445968,
				"z": -0.8994909001,
				"element": "C" 
			},
			{
				"x": -0.7330249767,
				"y": -1.0212804185,
				"z": -1.8383502061,
				"element": "C" 
			},
			{
				"x": -1.0781290782,
				"y": 0.3165638969,
				"z": -2.0632296091,
				"element": "C" 
			},
			{
				"x": -0.3258607582,
				"y": 1.1028162171,
				"z": -2.9379739397,
				"element": "C" 
			},
			{
				"x": 0.782659196,
				"y": 0.5602267018,
				"z": -3.5894505241,
				"element": "C" 
			},
			{
				"x": 1.1372626979,
				"y": -0.7728974777,
				"z": -3.3662413537,
				"element": "C" 
			},
			{
				"x": 0.381317665,
				"y": -1.5584738777,
				"z": -2.497586316,
				"element": "C" 
			},
			{
				"x": -0.120263849,
				"y": -1.5142952614,
				"z": 2.4894553613,
				"element": "C" 
			},
			{
				"x": -0.1359222984,
				"y": -0.6747479086,
				"z": 3.5155674464,
				"element": "N" 
			},
			{
				"x": -0.894128445,
				"y": 0.4279716269,
				"z": 3.4157174796,
				"element": "C" 
			},
			{
				"x": -2.5043441281,
				"y": -1.4255000532,
				"z": -0.6678232233,
				"element": "H" 
			},
			{
				"x": -1.7036792179,
				"y": -2.8779033025,
				"z": -1.3210077524,
				"element": "H" 
			},
			{
				"x": -1.9304040343,
				"y": 0.7413475566,
				"z": -1.5416813535,
				"element": "H" 
			},
			{
				"x": -0.6040504788,
				"y": 2.1390877146,
				"z": -3.1069654031,
				"element": "H" 
			},
			{
				"x": 1.368385239,
				"y": 1.1721634188,
				"z": -4.2695258085,
				"element": "H" 
			},
			{
				"x": 1.9978712079,
				"y": -1.2000050229,
				"z": -3.873069189,
				"element": "H" 
			},
			{
				"x": 0.6552188508,
				"y": -2.5967496842,
				"z": -2.3270564316,
				"element": "H" 
			},
			{
				"x": 0.4890362712,
				"y": -2.4109001761,
				"z": 2.5569612466,
				"element": "H" 
			},
			{
				"x": -0.9094645148,
				"y": 1.1212233179,
				"z": 4.2498512641,
				"element": "H" 
			}
		],
		 "valence_orbital": [ 
			{
				"type": "occ",
				"energy": -0.30654,
				"method": "rhf"
			},
			{
				"type": "occ",
				"energy": -0.27062,
				"method": "rhf"
			},
			{
				"type": "occ",
				"energy": -0.2555,
				"method": "rhf"
			},
			{
				"type": "occ",
				"energy": -0.25289,
				"method": "rhf"
			},
			{
				"type": "occ",
				"energy": -0.24539,
				"method": "rhf"
			},
			{
				"type": "unocc",
				"energy": -0.05418,
				"method": "rhf"
			},
			{
				"type": "unocc",
				"energy": -0.02202,
				"method": "rhf"
			},
			{
				"type": "unocc",
				"energy": -0.01564,
				"method": "rhf"
			},
			{
				"type": "unocc",
				"energy": -0.00525,
				"method": "rhf"
			},
			{
				"type": "unocc",
				"energy": 0.02913,
				"method": "rhf"
			}
		],
		"cosmo_sigma_profile": { 
			"-0.025": 0.0,
			"-0.024": 0.0,
			"-0.023": 0.0,
			"-0.022": 0.0,
			"-0.021": 0.0,
			"-0.02": 0.0,
			"-0.019": 0.0,
			"-0.018": 0.0,
			"-0.017": 0.0,
			"-0.016": 0.0,
			"-0.015": 0.0,
			"-0.014": 0.0,
			"-0.013": 0.0,
			"-0.012": 0.0,
			"-0.011": 0.0,
			"-0.01": 0.0,
			"-0.009": 0.261598839105,
			"-0.008": 3.06959835263,
			"-0.007": 4.64054593717,
			"-0.006": 11.85465766,
			"-0.005": 17.5538759836,
			"-0.004": 20.5268855444,
			"-0.003": 20.4703566298,
			"-0.002": 21.6046488975,
			"-0.001": 21.6244487566,
			"0.0": 17.7180482887,
			"0.001": 16.5819964004,
			"0.002": 15.6232358939,
			"0.003": 23.0291138621,
			"0.004": 22.9301981153,
			"0.005": 15.295081943,
			"0.006": 7.0105426716,
			"0.007": 3.05658764701,
			"0.008": 1.56819624151,
			"0.009": 1.65538613914,
			"0.01": 0.824389053232,
			"0.011": 0.657503836732,
			"0.012": 1.11327667,
			"0.013": 0.863421744534,
			"0.014": 0.59994603416,
			"0.015": 0.10061228972,
			"0.016": 0.0,
			"0.017": 0.0,
			"0.018": 0.0,
			"0.019": 0.0,
			"0.02": 0.0,
			"0.021": 0.0,
			"0.022": 0.0,
			"0.023": 0.0,
			"0.024": 0.0,
			"0.025": 0.0
		}
	}
}
