{
	 "smiles": "CN(C(=O)C1=CC(=CC=C1)C(O)=O)C1=CC=CC=C1", 
	 "Tm": 444.15, 
	 "num_atms": 32, 
	 "gaussian": { 
		 "optdone": 1, 
		 "sigma_profile": "yes", 
		 "theory": "DFT", 
		 "functional": "B3LYP", 
		 "basiset": "6-31G**", 
		 "properties": { 
			 "R2extent": 5176.0154, 
			 "electric_dipole_moment_norm": 4.87137250167, 
			 "electric_quadrupole_moment_norm": 27.8879860074, 
			 "total_energy": -859.872534326, 
			 "HOMO_LUMO_gap": 0.18725, 
			 "cosmo_polarized_energy": -18.51, 
			 "cosmo_cavitation_energy": 36.49, 
			 "cosmo_dispersion_energy": -24.56, 
			 "cosmo_repulsion_energy": 1.88, 
			 "cosmo_total_nonelectrostatic_energy": 13.81, 
			 "SMD_solvation_energy": 7.82 
		},
		"coords": [
			{
				"x": -1.07450369,
				"y": -0.6934448479,
				"z": -2.8915331411,
				"element": "C" 
			},
			{
				"x": -0.2435518138,
				"y": -0.4444631628,
				"z": -1.7056703631,
				"element": "N" 
			},
			{
				"x": 0.8657897008,
				"y": 0.3659674325,
				"z": -1.898889745,
				"element": "C" 
			},
			{
				"x": 1.1509245811,
				"y": 0.7835098422,
				"z": -3.017501643,
				"element": "O" 
			},
			{
				"x": 1.6871037979,
				"y": 0.7872485357,
				"z": -0.7076732504,
				"element": "C" 
			},
			{
				"x": 1.1674026313,
				"y": 0.949206199,
				"z": 0.5820182233,
				"element": "C" 
			},
			{
				"x": 1.9766368442,
				"y": 1.4083423393,
				"z": 1.6268559286,
				"element": "C" 
			},
			{
				"x": 3.3144234418,
				"y": 1.7400307629,
				"z": 1.3725671158,
				"element": "C" 
			},
			{
				"x": 3.8351751275,
				"y": 1.5924758744,
				"z": 0.0893334558,
				"element": "C" 
			},
			{
				"x": 3.0260256582,
				"y": 1.1252454082,
				"z": -0.9465695251,
				"element": "C" 
			},
			{
				"x": 1.4598177338,
				"y": 1.5860732603,
				"z": 3.0237587081,
				"element": "C" 
			},
			{
				"x": 0.3491918588,
				"y": 0.875785446,
				"z": 3.3595808409,
				"element": "O" 
			},
			{
				"x": 1.9821320028,
				"y": 2.3117379636,
				"z": 3.8370044955,
				"element": "O" 
			},
			{
				"x": -0.3972610251,
				"y": -1.3444722651,
				"z": -0.6031262703,
				"element": "C" 
			},
			{
				"x": -1.5872535216,
				"y": -1.3349842453,
				"z": 0.1386356324,
				"element": "C" 
			},
			{
				"x": -1.7472544993,
				"y": -2.2029991846,
				"z": 1.2190444377,
				"element": "C" 
			},
			{
				"x": -0.7212816433,
				"y": -3.0853175993,
				"z": 1.5708075914,
				"element": "C" 
			},
			{
				"x": 0.4586798147,
				"y": -3.1050028491,
				"z": 0.8247064403,
				"element": "C" 
			},
			{
				"x": 0.6179724935,
				"y": -2.2478431324,
				"z": -0.2651916034,
				"element": "C" 
			},
			{
				"x": -0.6400034645,
				"y": -1.4756339321,
				"z": -3.5257493397,
				"element": "H" 
			},
			{
				"x": -2.0677772711,
				"y": -1.0100375142,
				"z": -2.5699766654,
				"element": "H" 
			},
			{
				"x": -1.1438166925,
				"y": 0.2221505065,
				"z": -3.4778746366,
				"element": "H" 
			},
			{
				"x": 0.1156006477,
				"y": 0.7531191629,
				"z": 0.7561579938,
				"element": "H" 
			},
			{
				"x": 3.9205196181,
				"y": 2.1119151908,
				"z": 2.1917128813,
				"element": "H" 
			},
			{
				"x": 4.8715560937,
				"y": 1.8489415167,
				"z": -0.1081207012,
				"element": "H" 
			},
			{
				"x": 3.4086356811,
				"y": 1.0304131327,
				"z": -1.9570832869,
				"element": "H" 
			},
			{
				"x": 0.150833764,
				"y": 0.2121768073,
				"z": 2.6832542774,
				"element": "H" 
			},
			{
				"x": -2.3735248637,
				"y": -0.6334127735,
				"z": -0.1246172662,
				"element": "H" 
			},
			{
				"x": -2.6703361922,
				"y": -2.1844246618,
				"z": 1.7909145868,
				"element": "H" 
			},
			{
				"x": -0.844413321,
				"y": -3.7555265061,
				"z": 2.4159730396,
				"element": "H" 
			},
			{
				"x": 1.2559316585,
				"y": -3.7950873666,
				"z": 1.0844684041,
				"element": "H" 
			},
			{
				"x": 1.5310248486,
				"y": -2.2679893403,
				"z": -0.8516166154,
				"element": "H" 
			}
		],
		 "valence_orbital": [ 
			{
				"type": "occ",
				"energy": -0.27794,
				"method": "rhf"
			},
			{
				"type": "occ",
				"energy": -0.27197,
				"method": "rhf"
			},
			{
				"type": "occ",
				"energy": -0.26974,
				"method": "rhf"
			},
			{
				"type": "occ",
				"energy": -0.25396,
				"method": "rhf"
			},
			{
				"type": "occ",
				"energy": -0.24465,
				"method": "rhf"
			},
			{
				"type": "unocc",
				"energy": -0.0574,
				"method": "rhf"
			},
			{
				"type": "unocc",
				"energy": -0.04519,
				"method": "rhf"
			},
			{
				"type": "unocc",
				"energy": -0.02694,
				"method": "rhf"
			},
			{
				"type": "unocc",
				"energy": -0.02665,
				"method": "rhf"
			},
			{
				"type": "unocc",
				"energy": 0.02687,
				"method": "rhf"
			}
		],
		"cosmo_sigma_profile": { 
			"-0.025": 0.0,
			"-0.024": 0.0,
			"-0.023": 0.0,
			"-0.022": 0.0,
			"-0.021": 0.0,
			"-0.02": 0.0,
			"-0.019": 0.0,
			"-0.018": 0.0,
			"-0.017": 0.0,
			"-0.016": 0.0,
			"-0.015": 0.0,
			"-0.014": 0.0,
			"-0.013": 0.0,
			"-0.012": 0.0166184502391,
			"-0.011": 0.649188505072,
			"-0.01": 1.71792196035,
			"-0.009": 2.24514464756,
			"-0.008": 3.190992768,
			"-0.007": 8.71464955544,
			"-0.006": 20.478636901,
			"-0.005": 24.8863230315,
			"-0.004": 26.798405914,
			"-0.003": 23.5448380525,
			"-0.002": 25.743399997,
			"-0.001": 19.9224921003,
			"0.0": 18.6511763081,
			"0.001": 19.4594768111,
			"0.002": 21.8886489755,
			"0.003": 13.4382051256,
			"0.004": 8.964538397,
			"0.005": 7.48137160282,
			"0.006": 3.43010896063,
			"0.007": 4.36806079692,
			"0.008": 4.21575132981,
			"0.009": 5.03370418006,
			"0.01": 6.05382612061,
			"0.011": 7.20382205588,
			"0.012": 6.92881376256,
			"0.013": 5.88388144582,
			"0.014": 1.0023843099,
			"0.015": 0.0,
			"0.016": 0.0,
			"0.017": 0.0,
			"0.018": 0.0,
			"0.019": 0.0,
			"0.02": 0.0,
			"0.021": 0.0,
			"0.022": 0.0,
			"0.023": 0.0,
			"0.024": 0.0,
			"0.025": 0.0
		}
	}
}
