{
	 "smiles": "CC1=CC2=C(SC(CO)=C2)C=C1", 
	 "Tm": 366.65, 
	 "num_atms": 22, 
	 "gaussian": { 
		 "optdone": 1, 
		 "sigma_profile": "yes", 
		 "theory": "DFT", 
		 "functional": "B3LYP", 
		 "basiset": "6-31G**", 
		 "properties": { 
			 "R2extent": 2934.1081, 
			 "electric_dipole_moment_norm": 2.33757093154, 
			 "electric_quadrupole_moment_norm": 10.0783314105, 
			 "total_energy": -860.501242307, 
			 "HOMO_LUMO_gap": 0.18803, 
			 "cosmo_polarized_energy": -8.72, 
			 "cosmo_cavitation_energy": 27.04, 
			 "cosmo_dispersion_energy": -20.46, 
			 "cosmo_repulsion_energy": 1.58, 
			 "cosmo_total_nonelectrostatic_energy": 8.16, 
			 "SMD_solvation_energy": 4.09 
		},
		"coords": [
			{
				"x": -0.3708403514,
				"y": 3.6936856929,
				"z": 1.3445523666,
				"element": "C" 
			},
			{
				"x": -0.4527583631,
				"y": 2.2293264648,
				"z": 0.9801207018,
				"element": "C" 
			},
			{
				"x": 0.6948754636,
				"y": 1.4518976163,
				"z": 0.8613279638,
				"element": "C" 
			},
			{
				"x": 0.6048658553,
				"y": 0.0878639143,
				"z": 0.5250717617,
				"element": "C" 
			},
			{
				"x": -0.6715402513,
				"y": -0.483444106,
				"z": 0.3088299313,
				"element": "C" 
			},
			{
				"x": -0.5497758385,
				"y": -2.1863529632,
				"z": -0.1062538822,
				"element": "S" 
			},
			{
				"x": 1.2098738293,
				"y": -2.1214967645,
				"z": 0.0198117818,
				"element": "C" 
			},
			{
				"x": 2.0164980293,
				"y": -3.3680470185,
				"z": -0.2055144419,
				"element": "C" 
			},
			{
				"x": 1.6095229714,
				"y": -4.1058903819,
				"z": -1.3499054096,
				"element": "O" 
			},
			{
				"x": 1.6578926045,
				"y": -0.8775742142,
				"z": 0.3441964728,
				"element": "C" 
			},
			{
				"x": -1.8344309213,
				"y": 0.2863001126,
				"z": 0.418621517,
				"element": "C" 
			},
			{
				"x": -1.7122751506,
				"y": 1.628419517,
				"z": 0.7543546935,
				"element": "C" 
			},
			{
				"x": -0.8224570698,
				"y": 4.3243501386,
				"z": 0.5699017033,
				"element": "H" 
			},
			{
				"x": 0.6661090702,
				"y": 4.0156101986,
				"z": 1.4738440295,
				"element": "H" 
			},
			{
				"x": -0.9041651287,
				"y": 3.9031977233,
				"z": 2.2792618049,
				"element": "H" 
			},
			{
				"x": 1.6720089261,
				"y": 1.8983595526,
				"z": 1.0297235224,
				"element": "H" 
			},
			{
				"x": 1.8977235029,
				"y": -4.0602976399,
				"z": 0.6360524035,
				"element": "H" 
			},
			{
				"x": 3.080941685,
				"y": -3.0880278048,
				"z": -0.2485049593,
				"element": "H" 
			},
			{
				"x": 1.629788645,
				"y": -3.5049953337,
				"z": -2.107076673,
				"element": "H" 
			},
			{
				"x": 2.7113506076,
				"y": -0.6420845707,
				"z": 0.4582228157,
				"element": "H" 
			},
			{
				"x": -2.8128673171,
				"y": -0.1531672478,
				"z": 0.2495290239,
				"element": "H" 
			},
			{
				"x": -2.6100407983,
				"y": 2.2346671144,
				"z": 0.8466328724,
				"element": "H" 
			}
		],
		 "valence_orbital": [ 
			{
				"type": "occ",
				"energy": -0.31714,
				"method": "rhf"
			},
			{
				"type": "occ",
				"energy": -0.28071,
				"method": "rhf"
			},
			{
				"type": "occ",
				"energy": -0.27882,
				"method": "rhf"
			},
			{
				"type": "occ",
				"energy": -0.22503,
				"method": "rhf"
			},
			{
				"type": "occ",
				"energy": -0.21588,
				"method": "rhf"
			},
			{
				"type": "unocc",
				"energy": -0.02785,
				"method": "rhf"
			},
			{
				"type": "unocc",
				"energy": 0.00244,
				"method": "rhf"
			},
			{
				"type": "unocc",
				"energy": 0.02646,
				"method": "rhf"
			},
			{
				"type": "unocc",
				"energy": 0.04338,
				"method": "rhf"
			},
			{
				"type": "unocc",
				"energy": 0.07974,
				"method": "rhf"
			}
		],
		"cosmo_sigma_profile": { 
			"-0.025": 0.0,
			"-0.024": 0.0,
			"-0.023": 0.0,
			"-0.022": 0.0,
			"-0.021": 0.0,
			"-0.02": 0.0,
			"-0.019": 0.0,
			"-0.018": 0.0,
			"-0.017": 0.0,
			"-0.016": 0.377239189595,
			"-0.015": 0.799870408811,
			"-0.014": 0.888017084445,
			"-0.013": 1.06212064735,
			"-0.012": 0.798325631137,
			"-0.011": 0.529263753222,
			"-0.01": 0.526201204293,
			"-0.009": 0.675475911455,
			"-0.008": 0.966649556869,
			"-0.007": 3.07039875706,
			"-0.006": 9.18681472869,
			"-0.005": 15.8145312893,
			"-0.004": 19.5785889021,
			"-0.003": 17.8969031878,
			"-0.002": 16.9713026053,
			"-0.001": 14.4946682785,
			"0.0": 15.9561146273,
			"0.001": 14.0351846296,
			"0.002": 11.134744975,
			"0.003": 17.0366945247,
			"0.004": 19.7568315679,
			"0.005": 16.8405981725,
			"0.006": 7.62672372597,
			"0.007": 1.15798705521,
			"0.008": 1.59354329396,
			"0.009": 0.78837707114,
			"0.01": 0.946282498116,
			"0.011": 1.71116854371,
			"0.012": 1.19020347375,
			"0.013": 2.02834277002,
			"0.014": 1.31174403926,
			"0.015": 0.0,
			"0.016": 0.0,
			"0.017": 0.0,
			"0.018": 0.0,
			"0.019": 0.0,
			"0.02": 0.0,
			"0.021": 0.0,
			"0.022": 0.0,
			"0.023": 0.0,
			"0.024": 0.0,
			"0.025": 0.0
		}
	}
}
