{
	 "smiles": "NC(CNS(=O)(=O)C1=CC=C(F)C=C1)=NO", 
	 "Tm": 422.15, 
	 "num_atms": 26, 
	 "gaussian": { 
		 "optdone": 1, 
		 "sigma_profile": "yes", 
		 "theory": "DFT", 
		 "functional": "B3LYP", 
		 "basiset": "6-31G**", 
		 "properties": { 
			 "R2extent": 5493.0409, 
			 "electric_dipole_moment_norm": 3.5922139218, 
			 "electric_quadrupole_moment_norm": 9.75956478999, 
			 "total_energy": -1198.6948102, 
			 "HOMO_LUMO_gap": 0.16092, 
			 "cosmo_polarized_energy": -20.21, 
			 "cosmo_cavitation_energy": 32.26, 
			 "cosmo_dispersion_energy": -23.31, 
			 "cosmo_repulsion_energy": 1.78, 
			 "cosmo_total_nonelectrostatic_energy": 10.73, 
			 "SMD_solvation_energy": 4.78 
		},
		"coords": [
			{
				"x": 3.8907689577,
				"y": 0.2622968636,
				"z": -0.303897742,
				"element": "N" 
			},
			{
				"x": 3.4299002766,
				"y": -0.0367014099,
				"z": -1.5699873145,
				"element": "C" 
			},
			{
				"x": 2.3422497709,
				"y": -1.0879594979,
				"z": -1.720922967,
				"element": "C" 
			},
			{
				"x": 1.8016845478,
				"y": -1.6021289663,
				"z": -0.4609255464,
				"element": "N" 
			},
			{
				"x": 0.5186348295,
				"y": -0.8613830734,
				"z": 0.3183712158,
				"element": "S" 
			},
			{
				"x": 0.9296989176,
				"y": 0.5311792866,
				"z": 0.5343676783,
				"element": "O" 
			},
			{
				"x": 0.1742111129,
				"y": -1.7615332928,
				"z": 1.4194839952,
				"element": "O" 
			},
			{
				"x": -0.8656490707,
				"y": -0.8208256776,
				"z": -0.8201719291,
				"element": "C" 
			},
			{
				"x": -1.0468136777,
				"y": 0.2885745174,
				"z": -1.6522807583,
				"element": "C" 
			},
			{
				"x": -2.1104787333,
				"y": 0.3033802664,
				"z": -2.5529902839,
				"element": "C" 
			},
			{
				"x": -2.9678308848,
				"y": -0.7919174536,
				"z": -2.5926649033,
				"element": "C" 
			},
			{
				"x": -3.9954736392,
				"y": -0.7793959837,
				"z": -3.458246901,
				"element": "F" 
			},
			{
				"x": -2.8065041453,
				"y": -1.8979582524,
				"z": -1.761039376,
				"element": "C" 
			},
			{
				"x": -1.741461069,
				"y": -1.9109275617,
				"z": -0.8648227811,
				"element": "C" 
			},
			{
				"x": 3.9812553579,
				"y": 0.5232081129,
				"z": -2.5912001964,
				"element": "N" 
			},
			{
				"x": 3.4579191369,
				"y": -0.0441031858,
				"z": -3.7969368453,
				"element": "O" 
			},
			{
				"x": 4.5212173998,
				"y": 1.0550251911,
				"z": -0.301056757,
				"element": "H" 
			},
			{
				"x": 3.1607530348,
				"y": 0.3307218959,
				"z": 0.3967735059,
				"element": "H" 
			},
			{
				"x": 2.7677876244,
				"y": -1.9340001986,
				"z": -2.2683733535,
				"element": "H" 
			},
			{
				"x": 1.5597362559,
				"y": -0.686680313,
				"z": -2.3761429491,
				"element": "H" 
			},
			{
				"x": 1.7559490193,
				"y": -2.6092527573,
				"z": -0.363799216,
				"element": "H" 
			},
			{
				"x": -0.3759685729,
				"y": 1.1366940333,
				"z": -1.5741039446,
				"element": "H" 
			},
			{
				"x": -2.2863131154,
				"y": 1.1469447834,
				"z": -3.2110282056,
				"element": "H" 
			},
			{
				"x": -3.5122490699,
				"y": -2.7190953631,
				"z": -1.8188403724,
				"element": "H" 
			},
			{
				"x": -1.6006455987,
				"y": -2.7451886761,
				"z": -0.186196058,
				"element": "H" 
			},
			{
				"x": 3.935021335,
				"y": 0.4611267127,
				"z": -4.4659679946,
				"element": "H" 
			}
		],
		 "valence_orbital": [ 
			{
				"type": "occ",
				"energy": -0.3055,
				"method": "rhf"
			},
			{
				"type": "occ",
				"energy": -0.28864,
				"method": "rhf"
			},
			{
				"type": "occ",
				"energy": -0.27359,
				"method": "rhf"
			},
			{
				"type": "occ",
				"energy": -0.25799,
				"method": "rhf"
			},
			{
				"type": "occ",
				"energy": -0.20678,
				"method": "rhf"
			},
			{
				"type": "unocc",
				"energy": -0.04586,
				"method": "rhf"
			},
			{
				"type": "unocc",
				"energy": -0.03922,
				"method": "rhf"
			},
			{
				"type": "unocc",
				"energy": 0.02974,
				"method": "rhf"
			},
			{
				"type": "unocc",
				"energy": 0.04694,
				"method": "rhf"
			},
			{
				"type": "unocc",
				"energy": 0.06803,
				"method": "rhf"
			}
		],
		"cosmo_sigma_profile": { 
			"-0.025": 0.0,
			"-0.024": 0.0,
			"-0.023": 0.0,
			"-0.022": 0.0,
			"-0.021": 0.0,
			"-0.02": 0.0,
			"-0.019": 0.0,
			"-0.018": 0.0,
			"-0.017": 0.339611068315,
			"-0.016": 1.56015172324,
			"-0.015": 2.39758160497,
			"-0.014": 2.11972103771,
			"-0.013": 1.99057769944,
			"-0.012": 2.8152238914,
			"-0.011": 2.17421223346,
			"-0.01": 3.53086813261,
			"-0.009": 4.54201324939,
			"-0.008": 10.3817599092,
			"-0.007": 13.1215736378,
			"-0.006": 11.98603604,
			"-0.005": 9.66239023102,
			"-0.004": 12.8576767252,
			"-0.003": 11.0512850727,
			"-0.002": 11.3400070958,
			"-0.001": 16.1695158411,
			"0.0": 18.336068178,
			"0.001": 19.2381753896,
			"0.002": 13.3059732271,
			"0.003": 13.7282787933,
			"0.004": 11.8234255851,
			"0.005": 6.73627978944,
			"0.006": 6.97447199947,
			"0.007": 7.56625504494,
			"0.008": 7.76850404422,
			"0.009": 9.4516567214,
			"0.01": 9.80751636895,
			"0.011": 7.98140603961,
			"0.012": 2.79944924495,
			"0.013": 1.89767178677,
			"0.014": 0.980188982137,
			"0.015": 0.325347177707,
			"0.016": 0.0,
			"0.017": 0.0,
			"0.018": 0.0,
			"0.019": 0.0,
			"0.02": 0.0,
			"0.021": 0.0,
			"0.022": 0.0,
			"0.023": 0.0,
			"0.024": 0.0,
			"0.025": 0.0
		}
	}
}
