{
	 "smiles": "NN=C1C(=O)NC2=C(Cl)C=C(Cl)C=C12", 
	 "Tm": 535.15, 
	 "num_atms": 19, 
	 "gaussian": { 
		 "optdone": 1, 
		 "sigma_profile": "yes", 
		 "theory": "DFT", 
		 "functional": "B3LYP", 
		 "basiset": "6-31G**", 
		 "properties": { 
			 "R2extent": 4287.1629, 
			 "electric_dipole_moment_norm": 3.13067927933, 
			 "electric_quadrupole_moment_norm": 22.777597014, 
			 "total_energy": -1467.70327947, 
			 "HOMO_LUMO_gap": 0.14523, 
			 "cosmo_polarized_energy": -18.11, 
			 "cosmo_cavitation_energy": 27.8, 
			 "cosmo_dispersion_energy": -20.96, 
			 "cosmo_repulsion_energy": 1.66, 
			 "cosmo_total_nonelectrostatic_energy": 8.5, 
			 "SMD_solvation_energy": 4.18 
		},
		"coords": [
			{
				"x": -2.0293677612,
				"y": 0.49996859,
				"z": -1.7936529544,
				"element": "N" 
			},
			{
				"x": -2.5693888021,
				"y": 0.3994753007,
				"z": -0.5741181509,
				"element": "N" 
			},
			{
				"x": -1.8174567762,
				"y": 0.1610940815,
				"z": 0.451375047,
				"element": "C" 
			},
			{
				"x": -2.453289436,
				"y": 0.110852932,
				"z": 1.8186281877,
				"element": "C" 
			},
			{
				"x": -3.6185153215,
				"y": 0.2052037389,
				"z": 2.1399584035,
				"element": "O" 
			},
			{
				"x": -1.3773517499,
				"y": -0.0493972658,
				"z": 2.7015021006,
				"element": "N" 
			},
			{
				"x": -0.1713858579,
				"y": -0.1577112775,
				"z": 2.0312670193,
				"element": "C" 
			},
			{
				"x": 1.1019023017,
				"y": -0.3670242036,
				"z": 2.5440738232,
				"element": "C" 
			},
			{
				"x": 1.3328925245,
				"y": -0.5023327852,
				"z": 4.2763008986,
				"element": "Cl" 
			},
			{
				"x": 2.1919894742,
				"y": -0.4783919167,
				"z": 1.6751813721,
				"element": "C" 
			},
			{
				"x": 1.979295561,
				"y": -0.3915516837,
				"z": 0.3007940682,
				"element": "C" 
			},
			{
				"x": 3.3499875833,
				"y": -0.5582226659,
				"z": -0.7853161943,
				"element": "Cl" 
			},
			{
				"x": 0.7058477337,
				"y": -0.1817934325,
				"z": -0.2406474156,
				"element": "C" 
			},
			{
				"x": -0.3747266118,
				"y": -0.0431947897,
				"z": 0.6313230186,
				"element": "C" 
			},
			{
				"x": -1.065645248,
				"y": 0.8087205122,
				"z": -1.8834428154,
				"element": "H" 
			},
			{
				"x": -2.6676222533,
				"y": 0.9096404841,
				"z": -2.4613362311,
				"element": "H" 
			},
			{
				"x": -1.4930789827,
				"y": -0.1280019237,
				"z": 3.7007123411,
				"element": "H" 
			},
			{
				"x": 3.1869669395,
				"y": -0.6401743914,
				"z": 2.0710814285,
				"element": "H" 
			},
			{
				"x": 0.5906466826,
				"y": -0.1728593037,
				"z": -1.3168839467,
				"element": "H" 
			}
		],
		 "valence_orbital": [ 
			{
				"type": "occ",
				"energy": -0.30532,
				"method": "rhf"
			},
			{
				"type": "occ",
				"energy": -0.2911,
				"method": "rhf"
			},
			{
				"type": "occ",
				"energy": -0.26521,
				"method": "rhf"
			},
			{
				"type": "occ",
				"energy": -0.25051,
				"method": "rhf"
			},
			{
				"type": "occ",
				"energy": -0.22594,
				"method": "rhf"
			},
			{
				"type": "unocc",
				"energy": -0.08071,
				"method": "rhf"
			},
			{
				"type": "unocc",
				"energy": -0.03112,
				"method": "rhf"
			},
			{
				"type": "unocc",
				"energy": -0.00428,
				"method": "rhf"
			},
			{
				"type": "unocc",
				"energy": 0.00104,
				"method": "rhf"
			},
			{
				"type": "unocc",
				"energy": 0.03606,
				"method": "rhf"
			}
		],
		"cosmo_sigma_profile": { 
			"-0.025": 0.0,
			"-0.024": 0.0,
			"-0.023": 0.0,
			"-0.022": 0.0,
			"-0.021": 0.0,
			"-0.02": 0.0,
			"-0.019": 0.0,
			"-0.018": 0.0,
			"-0.017": 0.0,
			"-0.016": 0.440835988259,
			"-0.015": 2.9446254391,
			"-0.014": 4.02605018834,
			"-0.013": 4.66536513055,
			"-0.012": 2.46035305923,
			"-0.011": 2.46801503888,
			"-0.01": 3.55866935273,
			"-0.009": 4.13946589364,
			"-0.008": 5.04674299078,
			"-0.007": 4.61917094158,
			"-0.006": 5.4979209897,
			"-0.005": 4.30515052025,
			"-0.004": 5.98518716132,
			"-0.003": 10.2301516173,
			"-0.002": 13.1591917665,
			"-0.001": 19.2326303235,
			"0.0": 24.5857473168,
			"0.001": 24.5712779196,
			"0.002": 16.8983762438,
			"0.003": 15.946152945,
			"0.004": 18.0500534262,
			"0.005": 6.21285662236,
			"0.006": 3.15705769769,
			"0.007": 2.53617959632,
			"0.008": 2.54576119501,
			"0.009": 1.71309745874,
			"0.01": 1.8996983848,
			"0.011": 3.61570660658,
			"0.012": 6.25098943507,
			"0.013": 4.67018515626,
			"0.014": 2.48351026457,
			"0.015": 0.536790455543,
			"0.016": 0.0,
			"0.017": 0.0,
			"0.018": 0.0,
			"0.019": 0.0,
			"0.02": 0.0,
			"0.021": 0.0,
			"0.022": 0.0,
			"0.023": 0.0,
			"0.024": 0.0,
			"0.025": 0.0
		}
	}
}
