{
	 "smiles": "CCCCCC(O)CC", 
	 "Tm": 257.15, 
	 "num_atms": 27, 
	 "gaussian": { 
		 "optdone": 1, 
		 "sigma_profile": "yes", 
		 "theory": "DFT", 
		 "functional": "B3LYP", 
		 "basiset": "6-31G**", 
		 "properties": { 
			 "R2extent": 1957.2622, 
			 "electric_dipole_moment_norm": 1.59992608267, 
			 "electric_quadrupole_moment_norm": 5.24799438738, 
			 "total_energy": -390.93811239, 
			 "HOMO_LUMO_gap": 0.31799, 
			 "cosmo_polarized_energy": -5.43, 
			 "cosmo_cavitation_energy": 26.94, 
			 "cosmo_dispersion_energy": -19.21, 
			 "cosmo_repulsion_energy": 1.59, 
			 "cosmo_total_nonelectrostatic_energy": 9.33, 
			 "SMD_solvation_energy": 4.02 
		},
		"coords": [
			{
				"x": -0.1172432676,
				"y": 3.5931688845,
				"z": -0.2616060918,
				"element": "C" 
			},
			{
				"x": 0.7227185503,
				"y": 2.3482579951,
				"z": -0.5664795238,
				"element": "C" 
			},
			{
				"x": 0.578016092,
				"y": 1.255306525,
				"z": 0.5014278019,
				"element": "C" 
			},
			{
				"x": 1.5170648703,
				"y": 0.0449868432,
				"z": 0.3320051614,
				"element": "C" 
			},
			{
				"x": 1.4980756792,
				"y": -0.6939470787,
				"z": -1.0212017343,
				"element": "C" 
			},
			{
				"x": 0.1854373477,
				"y": -1.3708353081,
				"z": -1.4627957666,
				"element": "C" 
			},
			{
				"x": -0.7903734049,
				"y": -0.4186001848,
				"z": -1.9047361462,
				"element": "O" 
			},
			{
				"x": -0.4291766622,
				"y": -2.3369042812,
				"z": -0.4380891755,
				"element": "C" 
			},
			{
				"x": 0.4629333348,
				"y": -3.5278953664,
				"z": -0.0704282423,
				"element": "C" 
			},
			{
				"x": -1.1838593903,
				"y": 3.347087418,
				"z": -0.1977493058,
				"element": "H" 
			},
			{
				"x": 0.1727542931,
				"y": 4.0467666476,
				"z": 0.6932828263,
				"element": "H" 
			},
			{
				"x": -0.0014793716,
				"y": 4.3538569452,
				"z": -1.0404562333,
				"element": "H" 
			},
			{
				"x": 0.4322296157,
				"y": 1.9412508374,
				"z": -1.5413113652,
				"element": "H" 
			},
			{
				"x": 1.781124871,
				"y": 2.6319538416,
				"z": -0.6486535286,
				"element": "H" 
			},
			{
				"x": -0.4713656547,
				"y": 0.9255688418,
				"z": 0.5432192932,
				"element": "H" 
			},
			{
				"x": 0.7710526206,
				"y": 1.6947860556,
				"z": 1.4899660172,
				"element": "H" 
			},
			{
				"x": 1.3170754123,
				"y": -0.6681235202,
				"z": 1.1423818016,
				"element": "H" 
			},
			{
				"x": 2.5460426889,
				"y": 0.3924973905,
				"z": 0.4963624782,
				"element": "H" 
			},
			{
				"x": 1.7888970367,
				"y": -0.0074097304,
				"z": -1.8244015995,
				"element": "H" 
			},
			{
				"x": 2.2798131215,
				"y": -1.4643844626,
				"z": -0.9893556044,
				"element": "H" 
			},
			{
				"x": 0.4158078815,
				"y": -1.9471009578,
				"z": -2.3688711409,
				"element": "H" 
			},
			{
				"x": -1.1615484175,
				"y": 0.0082828087,
				"z": -1.1224112625,
				"element": "H" 
			},
			{
				"x": -1.3724567217,
				"y": -2.6984793191,
				"z": -0.8639426472,
				"element": "H" 
			},
			{
				"x": -0.6956698369,
				"y": -1.782470748,
				"z": 0.4731486454,
				"element": "H" 
			},
			{
				"x": -0.0623949891,
				"y": -4.2172655951,
				"z": 0.5980099825,
				"element": "H" 
			},
			{
				"x": 0.7557263913,
				"y": -4.0922983596,
				"z": -0.9631852938,
				"element": "H" 
			},
			{
				"x": 1.3798979095,
				"y": -3.2121561219,
				"z": 0.4374706538,
				"element": "H" 
			}
		],
		 "valence_orbital": [ 
			{
				"type": "occ",
				"energy": -0.32645,
				"method": "rhf"
			},
			{
				"type": "occ",
				"energy": -0.3207,
				"method": "rhf"
			},
			{
				"type": "occ",
				"energy": -0.31257,
				"method": "rhf"
			},
			{
				"type": "occ",
				"energy": -0.29519,
				"method": "rhf"
			},
			{
				"type": "occ",
				"energy": -0.2565,
				"method": "rhf"
			},
			{
				"type": "unocc",
				"energy": 0.06149,
				"method": "rhf"
			},
			{
				"type": "unocc",
				"energy": 0.08372,
				"method": "rhf"
			},
			{
				"type": "unocc",
				"energy": 0.10724,
				"method": "rhf"
			},
			{
				"type": "unocc",
				"energy": 0.1205,
				"method": "rhf"
			},
			{
				"type": "unocc",
				"energy": 0.12455,
				"method": "rhf"
			}
		],
		"cosmo_sigma_profile": { 
			"-0.025": 0.0,
			"-0.024": 0.0,
			"-0.023": 0.0,
			"-0.022": 0.0,
			"-0.021": 0.0,
			"-0.02": 0.0,
			"-0.019": 0.0,
			"-0.018": 0.0,
			"-0.017": 0.0,
			"-0.016": 0.0,
			"-0.015": 0.0,
			"-0.014": 0.0,
			"-0.013": 0.0582214202259,
			"-0.012": 0.577727275917,
			"-0.011": 1.03286178386,
			"-0.01": 1.04630827998,
			"-0.009": 1.19059659354,
			"-0.008": 0.928597758461,
			"-0.007": 1.62663700891,
			"-0.006": 1.30825306661,
			"-0.005": 1.43421998759,
			"-0.004": 1.29131168167,
			"-0.003": 12.109051207,
			"-0.002": 35.4108699601,
			"-0.001": 37.1218144578,
			"0.0": 42.8008814436,
			"0.001": 36.9464939463,
			"0.002": 13.152267861,
			"0.003": 1.82706009347,
			"0.004": 1.64646284252,
			"0.005": 1.52678040824,
			"0.006": 1.35174972845,
			"0.007": 1.33567580149,
			"0.008": 1.34279352412,
			"0.009": 1.18896137806,
			"0.01": 0.782860042523,
			"0.011": 1.13706811922,
			"0.012": 1.11315029311,
			"0.013": 1.73583461966,
			"0.014": 1.21328049612,
			"0.015": 1.8840365653,
			"0.016": 0.0414904641073,
			"0.017": 0.0,
			"0.018": 0.0,
			"0.019": 0.0,
			"0.02": 0.0,
			"0.021": 0.0,
			"0.022": 0.0,
			"0.023": 0.0,
			"0.024": 0.0,
			"0.025": 0.0
		}
	}
}
