{
	 "smiles": "CSC1=C2C(CC(C)(C)CC2=O)=C(S1)C#N", 
	 "Tm": 443.15, 
	 "num_atms": 29, 
	 "gaussian": { 
		 "optdone": 1, 
		 "sigma_profile": "yes", 
		 "theory": "DFT", 
		 "functional": "B3LYP", 
		 "basiset": "6-31G**", 
		 "properties": { 
			 "R2extent": 4679.8948, 
			 "electric_dipole_moment_norm": 3.33691303303, 
			 "electric_quadrupole_moment_norm": 25.0065909262, 
			 "total_energy": -1391.45057646, 
			 "HOMO_LUMO_gap": 0.15315, 
			 "cosmo_polarized_energy": -11.81, 
			 "cosmo_cavitation_energy": 34.8, 
			 "cosmo_dispersion_energy": -24.74, 
			 "cosmo_repulsion_energy": 1.84, 
			 "cosmo_total_nonelectrostatic_energy": 11.89, 
			 "SMD_solvation_energy": 7.16 
		},
		"coords": [
			{
				"x": 0.7122055748,
				"y": 2.6148608248,
				"z": 2.7907162265,
				"element": "C" 
			},
			{
				"x": 1.9488402214,
				"y": 1.2753390192,
				"z": 2.616910602,
				"element": "S" 
			},
			{
				"x": 1.1848358678,
				"y": 0.1481139969,
				"z": 1.501387331,
				"element": "C" 
			},
			{
				"x": 0.7049904093,
				"y": 0.2802871224,
				"z": 0.1974204781,
				"element": "C" 
			},
			{
				"x": 0.2652049188,
				"y": -0.9649079743,
				"z": -0.364231445,
				"element": "C" 
			},
			{
				"x": -0.278617962,
				"y": -1.0648268975,
				"z": -1.7628136102,
				"element": "C" 
			},
			{
				"x": 0.3600455518,
				"y": -0.0222283098,
				"z": -2.7136247299,
				"element": "C" 
			},
			{
				"x": -0.3840774771,
				"y": -0.0424812618,
				"z": -4.0594026505,
				"element": "C" 
			},
			{
				"x": 1.8488296151,
				"y": -0.3434732122,
				"z": -2.9519411184,
				"element": "C" 
			},
			{
				"x": 0.2068736461,
				"y": 1.3702160457,
				"z": -2.0615155648,
				"element": "C" 
			},
			{
				"x": 0.7319326631,
				"y": 1.5071179194,
				"z": -0.6340039068,
				"element": "C" 
			},
			{
				"x": 1.1266733999,
				"y": 2.5895069713,
				"z": -0.2209104563,
				"element": "O" 
			},
			{
				"x": 0.4251601454,
				"y": -2.0229741016,
				"z": 0.5059052179,
				"element": "C" 
			},
			{
				"x": 1.075488239,
				"y": -1.4990730004,
				"z": 2.0444752254,
				"element": "S" 
			},
			{
				"x": 0.1333727767,
				"y": -3.3845873526,
				"z": 0.2539568706,
				"element": "C" 
			},
			{
				"x": -0.1099915578,
				"y": -4.5040933158,
				"z": 0.0394764849,
				"element": "N" 
			},
			{
				"x": -0.2358943547,
				"y": 2.2118541686,
				"z": 3.1504192586,
				"element": "H" 
			},
			{
				"x": 1.1290638814,
				"y": 3.2883523902,
				"z": 3.5432325162,
				"element": "H" 
			},
			{
				"x": 0.5973383207,
				"y": 3.1319409209,
				"z": 1.839393806,
				"element": "H" 
			},
			{
				"x": -0.1382882751,
				"y": -2.0799121439,
				"z": -2.1495905078,
				"element": "H" 
			},
			{
				"x": -1.3647633264,
				"y": -0.8940469021,
				"z": -1.7320373095,
				"element": "H" 
			},
			{
				"x": -0.3012014496,
				"y": -1.0249037056,
				"z": -4.5370137075,
				"element": "H" 
			},
			{
				"x": 0.0342339552,
				"y": 0.699373742,
				"z": -4.7480351603,
				"element": "H" 
			},
			{
				"x": -1.4492331966,
				"y": 0.1807730487,
				"z": -3.9315832767,
				"element": "H" 
			},
			{
				"x": 2.2992827854,
				"y": 0.3966655199,
				"z": -3.62165683,
				"element": "H" 
			},
			{
				"x": 2.4267174936,
				"y": -0.3449920877,
				"z": -2.0224984428,
				"element": "H" 
			},
			{
				"x": 1.9629958951,
				"y": -1.3288917412,
				"z": -3.4162101935,
				"element": "H" 
			},
			{
				"x": -0.8624738516,
				"y": 1.6291856864,
				"z": -2.0172555937,
				"element": "H" 
			},
			{
				"x": 0.6894560903,
				"y": 2.1512046303,
				"z": -2.6572695137,
				"element": "H" 
			}
		],
		 "valence_orbital": [ 
			{
				"type": "occ",
				"energy": -0.33432,
				"method": "rhf"
			},
			{
				"type": "occ",
				"energy": -0.27807,
				"method": "rhf"
			},
			{
				"type": "occ",
				"energy": -0.27492,
				"method": "rhf"
			},
			{
				"type": "occ",
				"energy": -0.25797,
				"method": "rhf"
			},
			{
				"type": "occ",
				"energy": -0.23545,
				"method": "rhf"
			},
			{
				"type": "unocc",
				"energy": -0.0823,
				"method": "rhf"
			},
			{
				"type": "unocc",
				"energy": -0.04675,
				"method": "rhf"
			},
			{
				"type": "unocc",
				"energy": -0.00884,
				"method": "rhf"
			},
			{
				"type": "unocc",
				"energy": 0.00615,
				"method": "rhf"
			},
			{
				"type": "unocc",
				"energy": 0.02848,
				"method": "rhf"
			}
		],
		"cosmo_sigma_profile": { 
			"-0.025": 0.0,
			"-0.024": 0.0,
			"-0.023": 0.0,
			"-0.022": 0.0,
			"-0.021": 0.0,
			"-0.02": 0.0,
			"-0.019": 0.0,
			"-0.018": 0.0,
			"-0.017": 0.0,
			"-0.016": 0.0,
			"-0.015": 0.0,
			"-0.014": 0.0,
			"-0.013": 0.0,
			"-0.012": 0.0,
			"-0.011": 0.0,
			"-0.01": 0.0,
			"-0.009": 0.0,
			"-0.008": 0.385692659881,
			"-0.007": 4.31295258529,
			"-0.006": 10.4317916148,
			"-0.005": 13.9735317741,
			"-0.004": 24.8060149355,
			"-0.003": 34.0724508745,
			"-0.002": 36.4644939716,
			"-0.001": 38.8890463333,
			"0.0": 27.5691140438,
			"0.001": 21.0550261119,
			"0.002": 8.72517341381,
			"0.003": 6.52473433069,
			"0.004": 6.75177156446,
			"0.005": 6.65943456103,
			"0.006": 5.8303836712,
			"0.007": 5.73834299198,
			"0.008": 5.03968700018,
			"0.009": 5.47240204224,
			"0.01": 5.40092748151,
			"0.011": 5.64722108541,
			"0.012": 4.47676622171,
			"0.013": 1.72945914969,
			"0.014": 0.0267437305162,
			"0.015": 0.0,
			"0.016": 0.0,
			"0.017": 0.0,
			"0.018": 0.0,
			"0.019": 0.0,
			"0.02": 0.0,
			"0.021": 0.0,
			"0.022": 0.0,
			"0.023": 0.0,
			"0.024": 0.0,
			"0.025": 0.0
		}
	}
}
