{
	 "smiles": "OC1=C(C=C(Cl)C=C1)C(F)(F)F", 
	 "Tm": 341.15, 
	 "num_atms": 16, 
	 "gaussian": { 
		 "optdone": 1, 
		 "sigma_profile": "yes", 
		 "theory": "DFT", 
		 "functional": "B3LYP", 
		 "basiset": "6-31G**", 
		 "properties": { 
			 "R2extent": 2661.8185, 
			 "electric_dipole_moment_norm": 3.65340894234, 
			 "electric_quadrupole_moment_norm": 16.1598564124, 
			 "total_energy": -1104.09213566, 
			 "HOMO_LUMO_gap": 0.20103, 
			 "cosmo_polarized_energy": -9.84, 
			 "cosmo_cavitation_energy": 23.73, 
			 "cosmo_dispersion_energy": -17.3, 
			 "cosmo_repulsion_energy": 1.33, 
			 "cosmo_total_nonelectrostatic_energy": 7.75, 
			 "SMD_solvation_energy": 5.34 
		},
		"coords": [
			{
				"x": 0.6094735313,
				"y": -2.9090256356,
				"z": -1.6431997863,
				"element": "O" 
			},
			{
				"x": 0.5860959571,
				"y": -1.5598220568,
				"z": -1.4866277799,
				"element": "C" 
			},
			{
				"x": 0.3184516566,
				"y": -1.0498796364,
				"z": -0.202894846,
				"element": "C" 
			},
			{
				"x": 0.2851798453,
				"y": 0.3291260952,
				"z": 0.0020944865,
				"element": "C" 
			},
			{
				"x": 0.5163049362,
				"y": 1.1983528597,
				"z": -1.0615791431,
				"element": "C" 
			},
			{
				"x": 0.4716055586,
				"y": 2.9324354437,
				"z": -0.7904804056,
				"element": "Cl" 
			},
			{
				"x": 0.7820697645,
				"y": 0.7037635477,
				"z": -2.3364283353,
				"element": "C" 
			},
			{
				"x": 0.8158160702,
				"y": -0.6735113764,
				"z": -2.5434444516,
				"element": "C" 
			},
			{
				"x": 0.0685532407,
				"y": -1.9926782218,
				"z": 0.947360168,
				"element": "C" 
			},
			{
				"x": 1.1259531986,
				"y": -2.799522674,
				"z": 1.1729721777,
				"element": "F" 
			},
			{
				"x": -0.1704441609,
				"y": -1.3174997823,
				"z": 2.0952765376,
				"element": "F" 
			},
			{
				"x": -0.9992635791,
				"y": -2.7858646622,
				"z": 0.7224524263,
				"element": "F" 
			},
			{
				"x": 0.8027264185,
				"y": -3.1252040111,
				"z": -2.5646708621,
				"element": "H" 
			},
			{
				"x": 0.0789166468,
				"y": 0.7174047378,
				"z": 0.9913525934,
				"element": "H" 
			},
			{
				"x": 0.9610344809,
				"y": 1.3858621718,
				"z": -3.160108034,
				"element": "H" 
			},
			{
				"x": 1.0229264347,
				"y": -1.0640367995,
				"z": -3.5369747456,
				"element": "H" 
			}
		],
		 "valence_orbital": [ 
			{
				"type": "occ",
				"energy": -0.36238,
				"method": "rhf"
			},
			{
				"type": "occ",
				"energy": -0.32478,
				"method": "rhf"
			},
			{
				"type": "occ",
				"energy": -0.32008,
				"method": "rhf"
			},
			{
				"type": "occ",
				"energy": -0.28362,
				"method": "rhf"
			},
			{
				"type": "occ",
				"energy": -0.23936,
				"method": "rhf"
			},
			{
				"type": "unocc",
				"energy": -0.03833,
				"method": "rhf"
			},
			{
				"type": "unocc",
				"energy": -0.01679,
				"method": "rhf"
			},
			{
				"type": "unocc",
				"energy": 0.02074,
				"method": "rhf"
			},
			{
				"type": "unocc",
				"energy": 0.05219,
				"method": "rhf"
			},
			{
				"type": "unocc",
				"energy": 0.09723,
				"method": "rhf"
			}
		],
		"cosmo_sigma_profile": { 
			"-0.025": 0.0,
			"-0.024": 0.0,
			"-0.023": 0.0,
			"-0.022": 0.0,
			"-0.021": 0.0,
			"-0.02": 0.0315918072548,
			"-0.019": 0.798893616479,
			"-0.018": 1.33859948255,
			"-0.017": 1.07838294833,
			"-0.016": 1.15657213348,
			"-0.015": 1.0028926941,
			"-0.014": 0.690837669482,
			"-0.013": 0.954752486178,
			"-0.012": 0.948714741674,
			"-0.011": 1.17139688965,
			"-0.01": 1.36879702567,
			"-0.009": 1.65065005693,
			"-0.008": 3.32278142809,
			"-0.007": 5.04608657905,
			"-0.006": 5.14485879225,
			"-0.005": 5.00116378764,
			"-0.004": 4.85748148805,
			"-0.003": 7.32037790238,
			"-0.002": 8.31828991152,
			"-0.001": 9.74020823217,
			"0.0": 14.3836918787,
			"0.001": 22.2234581329,
			"0.002": 31.2944439953,
			"0.003": 32.0134417209,
			"0.004": 14.6265786501,
			"0.005": 7.72066324499,
			"0.006": 2.2661523401,
			"0.007": 2.71194409539,
			"0.008": 2.95627167111,
			"0.009": 1.79380727461,
			"0.01": 0.0,
			"0.011": 0.0,
			"0.012": 0.0,
			"0.013": 0.0,
			"0.014": 0.0,
			"0.015": 0.0,
			"0.016": 0.0,
			"0.017": 0.0,
			"0.018": 0.0,
			"0.019": 0.0,
			"0.02": 0.0,
			"0.021": 0.0,
			"0.022": 0.0,
			"0.023": 0.0,
			"0.024": 0.0,
			"0.025": 0.0
		}
	}
}
