{
	 "smiles": "CC(C)C(CCC(C)C(O)=O)C(O)=O", 
	 "Tm": 377.15, 
	 "num_atms": 32, 
	 "gaussian": { 
		 "optdone": 1, 
		 "sigma_profile": "yes", 
		 "theory": "DFT", 
		 "functional": "B3LYP", 
		 "basiset": "6-31G**", 
		 "properties": { 
			 "R2extent": 4487.588, 
			 "electric_dipole_moment_norm": 5.17486582338, 
			 "electric_quadrupole_moment_norm": 19.9527298571, 
			 "total_energy": -692.849479337, 
			 "HOMO_LUMO_gap": 0.26231, 
			 "cosmo_polarized_energy": -19.87, 
			 "cosmo_cavitation_energy": 33.64, 
			 "cosmo_dispersion_energy": -22.87, 
			 "cosmo_repulsion_energy": 1.83, 
			 "cosmo_total_nonelectrostatic_energy": 12.61, 
			 "SMD_solvation_energy": 7.73 
		},
		"coords": [
			{
				"x": 3.619176086,
				"y": 1.6275647678,
				"z": -0.0490367868,
				"element": "C" 
			},
			{
				"x": 2.6882295968,
				"y": 2.4617049935,
				"z": -0.9426778779,
				"element": "C" 
			},
			{
				"x": 2.7073020925,
				"y": 1.9661755803,
				"z": -2.3986613543,
				"element": "C" 
			},
			{
				"x": 1.2451374314,
				"y": 2.6056169123,
				"z": -0.3732825798,
				"element": "C" 
			},
			{
				"x": 0.6173943604,
				"y": 1.3404066796,
				"z": 0.2776256192,
				"element": "C" 
			},
			{
				"x": 0.2971789569,
				"y": 0.1898336292,
				"z": -0.6864904836,
				"element": "C" 
			},
			{
				"x": -0.4076082511,
				"y": -0.9935039225,
				"z": -0.0058821253,
				"element": "C" 
			},
			{
				"x": -0.9368100127,
				"y": -2.0186620843,
				"z": -1.0325582107,
				"element": "C" 
			},
			{
				"x": 0.5323527625,
				"y": -1.7072163376,
				"z": 0.9549675142,
				"element": "C" 
			},
			{
				"x": -0.1462182081,
				"y": -2.4507516828,
				"z": 1.861355085,
				"element": "O" 
			},
			{
				"x": 1.7446501289,
				"y": -1.6715356246,
				"z": 0.9253629106,
				"element": "O" 
			},
			{
				"x": 1.1941663707,
				"y": 3.7414150924,
				"z": 0.6591133895,
				"element": "C" 
			},
			{
				"x": -0.0513675967,
				"y": 4.2273477161,
				"z": 0.93521233,
				"element": "O" 
			},
			{
				"x": 2.146688834,
				"y": 4.2033924256,
				"z": 1.2368394364,
				"element": "O" 
			},
			{
				"x": 3.3159636729,
				"y": 0.5764573423,
				"z": 0.0032490912,
				"element": "H" 
			},
			{
				"x": 4.6394483632,
				"y": 1.6568352804,
				"z": -0.4463038832,
				"element": "H" 
			},
			{
				"x": 3.6463770441,
				"y": 2.0335305826,
				"z": 0.9654054216,
				"element": "H" 
			},
			{
				"x": 3.0932700993,
				"y": 3.480336926,
				"z": -0.9524160385,
				"element": "H" 
			},
			{
				"x": 2.3874273224,
				"y": 0.9244466296,
				"z": -2.4942820862,
				"element": "H" 
			},
			{
				"x": 3.723781086,
				"y": 2.0296590515,
				"z": -2.8014381817,
				"element": "H" 
			},
			{
				"x": 2.0601919758,
				"y": 2.5754900602,
				"z": -3.0404721779,
				"element": "H" 
			},
			{
				"x": 0.587693322,
				"y": 2.9120460463,
				"z": -1.2032729464,
				"element": "H" 
			},
			{
				"x": 1.2838978076,
				"y": 0.9828237776,
				"z": 1.0679785069,
				"element": "H" 
			},
			{
				"x": -0.3150415538,
				"y": 1.6337494396,
				"z": 0.7800113079,
				"element": "H" 
			},
			{
				"x": 1.21356301,
				"y": -0.1849581691,
				"z": -1.1490510366,
				"element": "H" 
			},
			{
				"x": -0.3457805104,
				"y": 0.5570938427,
				"z": -1.4970434342,
				"element": "H" 
			},
			{
				"x": -1.2598428254,
				"y": -0.6353218082,
				"z": 0.5858051232,
				"element": "H" 
			},
			{
				"x": -0.117623612,
				"y": -2.4177233811,
				"z": -1.6397146901,
				"element": "H" 
			},
			{
				"x": -1.4357344332,
				"y": -2.8542241602,
				"z": -0.5350482383,
				"element": "H" 
			},
			{
				"x": -1.6551993409,
				"y": -1.5402933606,
				"z": -1.7049343508,
				"element": "H" 
			},
			{
				"x": 0.5253012016,
				"y": -2.8983736974,
				"z": 2.4037850377,
				"element": "H" 
			},
			{
				"x": -0.7086651811,
				"y": 3.7973374527,
				"z": 0.3705557091,
				"element": "H" 
			}
		],
		 "valence_orbital": [ 
			{
				"type": "occ",
				"energy": -0.32234,
				"method": "rhf"
			},
			{
				"type": "occ",
				"energy": -0.3104,
				"method": "rhf"
			},
			{
				"type": "occ",
				"energy": -0.30873,
				"method": "rhf"
			},
			{
				"type": "occ",
				"energy": -0.2819,
				"method": "rhf"
			},
			{
				"type": "occ",
				"energy": -0.26362,
				"method": "rhf"
			},
			{
				"type": "unocc",
				"energy": -0.00131,
				"method": "rhf"
			},
			{
				"type": "unocc",
				"energy": 0.01235,
				"method": "rhf"
			},
			{
				"type": "unocc",
				"energy": 0.04879,
				"method": "rhf"
			},
			{
				"type": "unocc",
				"energy": 0.06951,
				"method": "rhf"
			},
			{
				"type": "unocc",
				"energy": 0.08623,
				"method": "rhf"
			}
		],
		"cosmo_sigma_profile": { 
			"-0.025": 0.0,
			"-0.024": 0.0,
			"-0.023": 0.0,
			"-0.022": 0.0,
			"-0.021": 0.0,
			"-0.02": 0.0,
			"-0.019": 0.144338534036,
			"-0.018": 1.31046445623,
			"-0.017": 2.40251796556,
			"-0.016": 1.60235120103,
			"-0.015": 1.56062438877,
			"-0.014": 1.71343711273,
			"-0.013": 1.4356959618,
			"-0.012": 2.06721970924,
			"-0.011": 2.11968036362,
			"-0.01": 2.25837734816,
			"-0.009": 1.24645076901,
			"-0.008": 1.28710942641,
			"-0.007": 2.60604128451,
			"-0.006": 3.49348836637,
			"-0.005": 7.25737949964,
			"-0.004": 17.2724191223,
			"-0.003": 28.7673790694,
			"-0.002": 30.4346549154,
			"-0.001": 26.8120152491,
			"0.0": 25.3380968198,
			"0.001": 20.1903085937,
			"0.002": 13.4351132169,
			"0.003": 6.49153541144,
			"0.004": 5.42905949511,
			"0.005": 5.70649636094,
			"0.006": 6.89438992761,
			"0.007": 5.44845213141,
			"0.008": 5.25246680108,
			"0.009": 5.56133530877,
			"0.01": 7.07600419849,
			"0.011": 7.98722969371,
			"0.012": 7.49100742878,
			"0.013": 2.1979729751,
			"0.014": 0.118529652988,
			"0.015": 0.0,
			"0.016": 0.0,
			"0.017": 0.0,
			"0.018": 0.0,
			"0.019": 0.0,
			"0.02": 0.0,
			"0.021": 0.0,
			"0.022": 0.0,
			"0.023": 0.0,
			"0.024": 0.0,
			"0.025": 0.0
		}
	}
}
