{
	 "smiles": "ONC(=O)C1CCCC1", 
	 "Tm": 381.15, 
	 "num_atms": 20, 
	 "gaussian": { 
		 "optdone": 1, 
		 "sigma_profile": "yes", 
		 "theory": "DFT", 
		 "functional": "B3LYP", 
		 "basiset": "6-31G**", 
		 "properties": { 
			 "R2extent": 1792.0458, 
			 "electric_dipole_moment_norm": 3.1477039092, 
			 "electric_quadrupole_moment_norm": 8.69664201632, 
			 "total_energy": -440.426667827, 
			 "HOMO_LUMO_gap": 0.24489, 
			 "cosmo_polarized_energy": -10.76, 
			 "cosmo_cavitation_energy": 22.15, 
			 "cosmo_dispersion_energy": -16.71, 
			 "cosmo_repulsion_energy": 1.41, 
			 "cosmo_total_nonelectrostatic_energy": 6.85, 
			 "SMD_solvation_energy": 4.74 
		},
		"coords": [
			{
				"x": 0.8345535896,
				"y": 3.7268829851,
				"z": -1.2280706506,
				"element": "O" 
			},
			{
				"x": 0.7369471498,
				"y": 2.3347199086,
				"z": -1.0878256713,
				"element": "N" 
			},
			{
				"x": -0.3290271202,
				"y": 1.889245686,
				"z": -0.3579465523,
				"element": "C" 
			},
			{
				"x": -0.9936470989,
				"y": 2.6978939674,
				"z": 0.2950938846,
				"element": "O" 
			},
			{
				"x": -0.5627286526,
				"y": 0.3944784431,
				"z": -0.3552236147,
				"element": "C" 
			},
			{
				"x": -0.4457670373,
				"y": -0.2220148054,
				"z": 1.0560976437,
				"element": "C" 
			},
			{
				"x": -1.1389920932,
				"y": -1.5854781813,
				"z": 0.9047251571,
				"element": "C" 
			},
			{
				"x": -2.3150125356,
				"y": -1.3325226562,
				"z": -0.0767274091,
				"element": "C" 
			},
			{
				"x": -2.0061751182,
				"y": 0.0201427944,
				"z": -0.7797634173,
				"element": "C" 
			},
			{
				"x": 0.106127998,
				"y": 4.0129036508,
				"z": -0.6322301727,
				"element": "H" 
			},
			{
				"x": 1.0196496828,
				"y": 1.8658661083,
				"z": -1.938485192,
				"element": "H" 
			},
			{
				"x": 0.1640235967,
				"y": -0.0942569372,
				"z": -1.0189058765,
				"element": "H" 
			},
			{
				"x": 0.5897742364,
				"y": -0.2943434106,
				"z": 1.4028300349,
				"element": "H" 
			},
			{
				"x": -0.9909019558,
				"y": 0.4199150422,
				"z": 1.7570553842,
				"element": "H" 
			},
			{
				"x": -0.4367513421,
				"y": -2.3087979369,
				"z": 0.4731617439,
				"element": "H" 
			},
			{
				"x": -1.4686487221,
				"y": -1.9959165793,
				"z": 1.8639230446,
				"element": "H" 
			},
			{
				"x": -2.4114635223,
				"y": -2.15056592,
				"z": -0.7970208737,
				"element": "H" 
			},
			{
				"x": -3.26803895,
				"y": -1.2722104143,
				"z": 0.4576107685,
				"element": "H" 
			},
			{
				"x": -2.6801203642,
				"y": 0.8035487112,
				"z": -0.4211242007,
				"element": "H" 
			},
			{
				"x": -2.113701741,
				"y": -0.0310904558,
				"z": -1.8675740306,
				"element": "H" 
			}
		],
		 "valence_orbital": [ 
			{
				"type": "occ",
				"energy": -0.33579,
				"method": "rhf"
			},
			{
				"type": "occ",
				"energy": -0.32535,
				"method": "rhf"
			},
			{
				"type": "occ",
				"energy": -0.31925,
				"method": "rhf"
			},
			{
				"type": "occ",
				"energy": -0.2722,
				"method": "rhf"
			},
			{
				"type": "occ",
				"energy": -0.2354,
				"method": "rhf"
			},
			{
				"type": "unocc",
				"energy": 0.00949,
				"method": "rhf"
			},
			{
				"type": "unocc",
				"energy": 0.06497,
				"method": "rhf"
			},
			{
				"type": "unocc",
				"energy": 0.08641,
				"method": "rhf"
			},
			{
				"type": "unocc",
				"energy": 0.09597,
				"method": "rhf"
			},
			{
				"type": "unocc",
				"energy": 0.10073,
				"method": "rhf"
			}
		],
		"cosmo_sigma_profile": { 
			"-0.025": 0.0,
			"-0.024": 0.0,
			"-0.023": 0.0,
			"-0.022": 0.0,
			"-0.021": 0.0,
			"-0.02": 0.0,
			"-0.019": 0.0,
			"-0.018": 0.0,
			"-0.017": 0.0,
			"-0.016": 1.2353544749,
			"-0.015": 0.980112053166,
			"-0.014": 1.38714293842,
			"-0.013": 1.59081971026,
			"-0.012": 1.4937695935,
			"-0.011": 1.39155561176,
			"-0.01": 1.58975707918,
			"-0.009": 1.95099551543,
			"-0.008": 1.58196152532,
			"-0.007": 1.74618078399,
			"-0.006": 2.15554697162,
			"-0.005": 3.03111394434,
			"-0.004": 5.10043405061,
			"-0.003": 16.6502909834,
			"-0.002": 25.7357984064,
			"-0.001": 25.6640094435,
			"0.0": 18.6871662464,
			"0.001": 16.6222755763,
			"0.002": 5.46977061865,
			"0.003": 2.78217206705,
			"0.004": 2.89730153524,
			"0.005": 3.27578402774,
			"0.006": 4.36830330752,
			"0.007": 2.96860229547,
			"0.008": 2.87818310973,
			"0.009": 3.12984190598,
			"0.01": 3.98951286801,
			"0.011": 4.5273975168,
			"0.012": 3.72930383643,
			"0.013": 2.43138206319,
			"0.014": 0.850827654607,
			"0.015": 0.0,
			"0.016": 0.0,
			"0.017": 0.0,
			"0.018": 0.0,
			"0.019": 0.0,
			"0.02": 0.0,
			"0.021": 0.0,
			"0.022": 0.0,
			"0.023": 0.0,
			"0.024": 0.0,
			"0.025": 0.0
		}
	}
}
