{
	 "smiles": "NC(=O)C(Cl)(Cl)Cl", 
	 "Tm": 415.15, 
	 "num_atms": 9, 
	 "gaussian": { 
		 "optdone": 1, 
		 "sigma_profile": "yes", 
		 "theory": "DFT", 
		 "functional": "B3LYP", 
		 "basiset": "6-31G**", 
		 "properties": { 
			 "R2extent": 1261.3766, 
			 "electric_dipole_moment_norm": 3.43805604666, 
			 "electric_quadrupole_moment_norm": 6.50058312846, 
			 "total_energy": -1587.95929707, 
			 "HOMO_LUMO_gap": 0.23415, 
			 "cosmo_polarized_energy": -10.67, 
			 "cosmo_cavitation_energy": 18.68, 
			 "cosmo_dispersion_energy": -14.17, 
			 "cosmo_repulsion_energy": 1.21, 
			 "cosmo_total_nonelectrostatic_energy": 5.72, 
			 "SMD_solvation_energy": 3.28 
		},
		"coords": [
			{
				"x": -1.4064505871,
				"y": -1.0147604943,
				"z": -0.2622060931,
				"element": "N" 
			},
			{
				"x": -0.7404429946,
				"y": 0.1637930284,
				"z": -0.2434342393,
				"element": "C" 
			},
			{
				"x": -1.1095288755,
				"y": 1.181641096,
				"z": -0.7861846577,
				"element": "O" 
			},
			{
				"x": 0.6320187143,
				"y": 0.1122390222,
				"z": 0.5330453323,
				"element": "C" 
			},
			{
				"x": 0.3932765286,
				"y": -0.6199501405,
				"z": 2.1745829512,
				"element": "Cl" 
			},
			{
				"x": 1.7728271753,
				"y": -0.9266708614,
				"z": -0.4110247834,
				"element": "Cl" 
			},
			{
				"x": 1.3009479075,
				"y": 1.7429938659,
				"z": 0.7036138418,
				"element": "Cl" 
			},
			{
				"x": -2.279932847,
				"y": -1.0467460786,
				"z": -0.7650103079,
				"element": "H" 
			},
			{
				"x": -1.0894150216,
				"y": -1.8322394377,
				"z": 0.2332179562,
				"element": "H" 
			}
		],
		 "valence_orbital": [ 
			{
				"type": "occ",
				"energy": -0.33094,
				"method": "rhf"
			},
			{
				"type": "occ",
				"energy": -0.32597,
				"method": "rhf"
			},
			{
				"type": "occ",
				"energy": -0.31548,
				"method": "rhf"
			},
			{
				"type": "occ",
				"energy": -0.29732,
				"method": "rhf"
			},
			{
				"type": "occ",
				"energy": -0.28488,
				"method": "rhf"
			},
			{
				"type": "unocc",
				"energy": -0.05073,
				"method": "rhf"
			},
			{
				"type": "unocc",
				"energy": -0.045,
				"method": "rhf"
			},
			{
				"type": "unocc",
				"energy": -0.00128,
				"method": "rhf"
			},
			{
				"type": "unocc",
				"energy": 0.04978,
				"method": "rhf"
			},
			{
				"type": "unocc",
				"energy": 0.06576,
				"method": "rhf"
			}
		],
		"cosmo_sigma_profile": { 
			"-0.025": 0.0,
			"-0.024": 0.0,
			"-0.023": 0.0,
			"-0.022": 0.0,
			"-0.021": 0.0,
			"-0.02": 0.0,
			"-0.019": 0.0,
			"-0.018": 0.0,
			"-0.017": 0.0,
			"-0.016": 0.909834511578,
			"-0.015": 2.30769734867,
			"-0.014": 1.80746383756,
			"-0.013": 1.76710395744,
			"-0.012": 3.31231639476,
			"-0.011": 1.45702729689,
			"-0.01": 1.98334305508,
			"-0.009": 1.78440415111,
			"-0.008": 1.63453274798,
			"-0.007": 1.7152487652,
			"-0.006": 1.43525535604,
			"-0.005": 3.52229282937,
			"-0.004": 5.86970480133,
			"-0.003": 7.81613317892,
			"-0.002": 10.0036066808,
			"-0.001": 10.1602976687,
			"0.0": 14.8213234255,
			"0.001": 17.1408335045,
			"0.002": 26.6053297282,
			"0.003": 17.4652435552,
			"0.004": 2.2575192877,
			"0.005": 1.95829713846,
			"0.006": 1.38535880488,
			"0.007": 1.30744268408,
			"0.008": 1.79105218314,
			"0.009": 1.98819246535,
			"0.01": 2.41612623626,
			"0.011": 5.63774848264,
			"0.012": 3.11501635776,
			"0.013": 0.113822468061,
			"0.014": 0.0,
			"0.015": 0.0,
			"0.016": 0.0,
			"0.017": 0.0,
			"0.018": 0.0,
			"0.019": 0.0,
			"0.02": 0.0,
			"0.021": 0.0,
			"0.022": 0.0,
			"0.023": 0.0,
			"0.024": 0.0,
			"0.025": 0.0
		}
	}
}
