{
	 "smiles": "CC(CC(O)=O)C1CCNCC1", 
	 "Tm": 529.15, 
	 "num_atms": 29, 
	 "gaussian": { 
		 "optdone": 1, 
		 "sigma_profile": "yes", 
		 "theory": "DFT", 
		 "functional": "B3LYP", 
		 "basiset": "6-31G**", 
		 "properties": { 
			 "R2extent": 2464.7027, 
			 "electric_dipole_moment_norm": 1.70036230845, 
			 "electric_quadrupole_moment_norm": 9.077491122, 
			 "total_energy": -558.426387883, 
			 "HOMO_LUMO_gap": 0.22084, 
			 "cosmo_polarized_energy": -11.23, 
			 "cosmo_cavitation_energy": 29.09, 
			 "cosmo_dispersion_energy": -20.87, 
			 "cosmo_repulsion_energy": 1.68, 
			 "cosmo_total_nonelectrostatic_energy": 9.9, 
			 "SMD_solvation_energy": 2.68 
		},
		"coords": [
			{
				"x": 0.3054235621,
				"y": -2.4612668859,
				"z": 1.4272772389,
				"element": "C" 
			},
			{
				"x": -0.1123382903,
				"y": -1.5277656893,
				"z": 0.2787586387,
				"element": "C" 
			},
			{
				"x": -1.6477199681,
				"y": -1.356588412,
				"z": 0.261556686,
				"element": "C" 
			},
			{
				"x": -2.2190421901,
				"y": -1.0841663202,
				"z": -1.114129332,
				"element": "C" 
			},
			{
				"x": -3.3024446718,
				"y": -0.2685382451,
				"z": -1.0636064944,
				"element": "O" 
			},
			{
				"x": -1.8113931557,
				"y": -1.5511550612,
				"z": -2.1559182285,
				"element": "O" 
			},
			{
				"x": 0.6766168996,
				"y": -0.1892559713,
				"z": 0.3051446747,
				"element": "C" 
			},
			{
				"x": 0.3858769487,
				"y": 0.7229460058,
				"z": -0.9033764003,
				"element": "C" 
			},
			{
				"x": 1.267346464,
				"y": 1.9849855862,
				"z": -0.8679677289,
				"element": "C" 
			},
			{
				"x": 1.1696859726,
				"y": 2.7493673081,
				"z": 0.3785744069,
				"element": "N" 
			},
			{
				"x": 1.3969362391,
				"y": 1.9037662101,
				"z": 1.552281917,
				"element": "C" 
			},
			{
				"x": 0.5291700334,
				"y": 0.6301776003,
				"z": 1.6039328128,
				"element": "C" 
			},
			{
				"x": -0.0412593443,
				"y": -2.0989701014,
				"z": 2.4011647999,
				"element": "H" 
			},
			{
				"x": -0.1124234655,
				"y": -3.4633335518,
				"z": 1.282721786,
				"element": "H" 
			},
			{
				"x": 1.3951656757,
				"y": -2.5594102926,
				"z": 1.4784413515,
				"element": "H" 
			},
			{
				"x": 0.1481545944,
				"y": -2.0254383185,
				"z": -0.6637080078,
				"element": "H" 
			},
			{
				"x": -1.9931151851,
				"y": -0.589152796,
				"z": 0.959337983,
				"element": "H" 
			},
			{
				"x": -2.1157816401,
				"y": -2.2961641178,
				"z": 0.5858987956,
				"element": "H" 
			},
			{
				"x": -3.6210451205,
				"y": -0.1909900707,
				"z": -1.9791678976,
				"element": "H" 
			},
			{
				"x": 1.738444442,
				"y": -0.4772924895,
				"z": 0.2349600505,
				"element": "H" 
			},
			{
				"x": -0.6675286708,
				"y": 1.0383283791,
				"z": -0.8884111604,
				"element": "H" 
			},
			{
				"x": 0.5377365304,
				"y": 0.1765856976,
				"z": -1.8420658648,
				"element": "H" 
			},
			{
				"x": 1.0205468505,
				"y": 2.6494532822,
				"z": -1.7036523771,
				"element": "H" 
			},
			{
				"x": 2.3199187541,
				"y": 1.6945624912,
				"z": -0.9974975874,
				"element": "H" 
			},
			{
				"x": 0.2398901458,
				"y": 3.1607741171,
				"z": 0.4416963848,
				"element": "H" 
			},
			{
				"x": 1.2410356317,
				"y": 2.5088762799,
				"z": 2.4526032302,
				"element": "H" 
			},
			{
				"x": 2.4573650061,
				"y": 1.61274589,
				"z": 1.5495469271,
				"element": "H" 
			},
			{
				"x": -0.5206426315,
				"y": 0.9238029147,
				"z": 1.7484791914,
				"element": "H" 
			},
			{
				"x": 0.8135205832,
				"y": 0.033816561,
				"z": 2.4791242041,
				"element": "H" 
			}
		],
		 "valence_orbital": [ 
			{
				"type": "occ",
				"energy": -0.31631,
				"method": "rhf"
			},
			{
				"type": "occ",
				"energy": -0.31072,
				"method": "rhf"
			},
			{
				"type": "occ",
				"energy": -0.30008,
				"method": "rhf"
			},
			{
				"type": "occ",
				"energy": -0.27457,
				"method": "rhf"
			},
			{
				"type": "occ",
				"energy": -0.21162,
				"method": "rhf"
			},
			{
				"type": "unocc",
				"energy": 0.00922,
				"method": "rhf"
			},
			{
				"type": "unocc",
				"energy": 0.07313,
				"method": "rhf"
			},
			{
				"type": "unocc",
				"energy": 0.08544,
				"method": "rhf"
			},
			{
				"type": "unocc",
				"energy": 0.09163,
				"method": "rhf"
			},
			{
				"type": "unocc",
				"energy": 0.10092,
				"method": "rhf"
			}
		],
		"cosmo_sigma_profile": { 
			"-0.025": 0.0,
			"-0.024": 0.0,
			"-0.023": 0.0,
			"-0.022": 0.0,
			"-0.021": 0.0,
			"-0.02": 0.0,
			"-0.019": 0.0,
			"-0.018": 0.269034256907,
			"-0.017": 1.22548103642,
			"-0.016": 0.922124345525,
			"-0.015": 0.333237380061,
			"-0.014": 0.891367243453,
			"-0.013": 0.818643229546,
			"-0.012": 0.840324991209,
			"-0.011": 0.350002557903,
			"-0.01": 0.785445657932,
			"-0.009": 1.72900476593,
			"-0.008": 2.38824295124,
			"-0.007": 2.03682226856,
			"-0.006": 4.6431362717,
			"-0.005": 5.87313301061,
			"-0.004": 8.61496971035,
			"-0.003": 21.7701330585,
			"-0.002": 35.871901619,
			"-0.001": 38.2232256427,
			"0.0": 27.1817068987,
			"0.001": 16.7989710954,
			"0.002": 7.07432945572,
			"0.003": 5.40000551852,
			"0.004": 3.3179622146,
			"0.005": 3.89200930738,
			"0.006": 4.30283259558,
			"0.007": 3.18617444384,
			"0.008": 4.09968423048,
			"0.009": 3.66166610674,
			"0.01": 2.88778192794,
			"0.011": 3.28114382093,
			"0.012": 5.84955632711,
			"0.013": 1.77294724332,
			"0.014": 0.437388769488,
			"0.015": 0.821767702415,
			"0.016": 0.483814538841,
			"0.017": 0.388857955562,
			"0.018": 0.865638364033,
			"0.019": 0.29048722887,
			"0.02": 0.0,
			"0.021": 0.0,
			"0.022": 0.0,
			"0.023": 0.0,
			"0.024": 0.0,
			"0.025": 0.0
		}
	}
}
