{
	 "smiles": "CC1=CC=C(C=C1)S(=O)(=O)C1=C(SCC2=CC=C(Cl)C=C2)SC=N1", 
	 "Tm": 425.15, 
	 "num_atms": 38, 
	 "gaussian": { 
		 "optdone": 1, 
		 "sigma_profile": "yes", 
		 "theory": "DFT", 
		 "functional": "B3LYP", 
		 "basiset": "6-31G**", 
		 "properties": { 
			 "R2extent": 11360.4734, 
			 "electric_dipole_moment_norm": 5.43839637025, 
			 "electric_quadrupole_moment_norm": 37.0505989714, 
			 "total_energy": -2516.11432008, 
			 "HOMO_LUMO_gap": 0.17276, 
			 "cosmo_polarized_energy": -20.14, 
			 "cosmo_cavitation_energy": 48.86, 
			 "cosmo_dispersion_energy": -32.48, 
			 "cosmo_repulsion_energy": 2.35, 
			 "cosmo_total_nonelectrostatic_energy": 18.72, 
			 "SMD_solvation_energy": 5.63 
		},
		"coords": [
			{
				"x": 1.5884170661,
				"y": 4.326181393,
				"z": -0.1077413829,
				"element": "C" 
			},
			{
				"x": 0.9155977363,
				"y": 3.1832633667,
				"z": -0.8289711289,
				"element": "C" 
			},
			{
				"x": 1.448029455,
				"y": 1.8870251465,
				"z": -0.7701553877,
				"element": "C" 
			},
			{
				"x": 0.8519978816,
				"y": 0.8328055459,
				"z": -1.4590737433,
				"element": "C" 
			},
			{
				"x": -0.2978721761,
				"y": 1.0806529133,
				"z": -2.2103424486,
				"element": "C" 
			},
			{
				"x": -0.8521718426,
				"y": 2.3590931818,
				"z": -2.2874848837,
				"element": "C" 
			},
			{
				"x": -0.2392178947,
				"y": 3.4008169263,
				"z": -1.5956930638,
				"element": "C" 
			},
			{
				"x": -1.0514203417,
				"y": -0.2660009306,
				"z": -3.1230296315,
				"element": "S" 
			},
			{
				"x": -1.8583924838,
				"y": 0.3062425377,
				"z": -4.2093671669,
				"element": "O" 
			},
			{
				"x": -0.0143584565,
				"y": -1.2692104336,
				"z": -3.3975432778,
				"element": "O" 
			},
			{
				"x": -2.2238098664,
				"y": -0.9616639594,
				"z": -1.9220739338,
				"element": "C" 
			},
			{
				"x": -2.4772330487,
				"y": -2.2912542818,
				"z": -1.6615361024,
				"element": "C" 
			},
			{
				"x": -1.8283317626,
				"y": -3.7487548722,
				"z": -2.4045853604,
				"element": "S" 
			},
			{
				"x": -0.9566939961,
				"y": -4.5605405983,
				"z": -0.9772366804,
				"element": "C" 
			},
			{
				"x": 0.1775825561,
				"y": -3.7748339863,
				"z": -0.3720208776,
				"element": "C" 
			},
			{
				"x": 0.1364319984,
				"y": -3.4086781653,
				"z": 0.9782041268,
				"element": "C" 
			},
			{
				"x": 1.1904441147,
				"y": -2.7113237064,
				"z": 1.5719652385,
				"element": "C" 
			},
			{
				"x": 2.2978853097,
				"y": -2.3779338362,
				"z": 0.7970465239,
				"element": "C" 
			},
			{
				"x": 3.6344557479,
				"y": -1.4982238569,
				"z": 1.5286725059,
				"element": "Cl" 
			},
			{
				"x": 2.3633230734,
				"y": -2.7247365308,
				"z": -0.5544307078,
				"element": "C" 
			},
			{
				"x": 1.3008093483,
				"y": -3.4158720103,
				"z": -1.1313236234,
				"element": "C" 
			},
			{
				"x": -3.7805346208,
				"y": -2.3626930766,
				"z": -0.4803464545,
				"element": "S" 
			},
			{
				"x": -3.8214428646,
				"y": -0.6246899498,
				"z": -0.4507089295,
				"element": "C" 
			},
			{
				"x": -2.9821859991,
				"y": -0.0382713693,
				"z": -1.2516558103,
				"element": "N" 
			},
			{
				"x": 0.8667366058,
				"y": 5.0922880278,
				"z": 0.1903691176,
				"element": "H" 
			},
			{
				"x": 2.3313176583,
				"y": 4.8117509309,
				"z": -0.7528091364,
				"element": "H" 
			},
			{
				"x": 2.1120525485,
				"y": 3.9813081041,
				"z": 0.788508365,
				"element": "H" 
			},
			{
				"x": 2.3414107184,
				"y": 1.6994476857,
				"z": -0.1804518592,
				"element": "H" 
			},
			{
				"x": 1.2721925333,
				"y": -0.1661893996,
				"z": -1.4221975651,
				"element": "H" 
			},
			{
				"x": -1.7412010785,
				"y": 2.5253414931,
				"z": -2.8849321656,
				"element": "H" 
			},
			{
				"x": -0.6634752722,
				"y": 4.399902882,
				"z": -1.6511921249,
				"element": "H" 
			},
			{
				"x": -0.5983277631,
				"y": -5.489381716,
				"z": -1.4342466202,
				"element": "H" 
			},
			{
				"x": -1.6941179239,
				"y": -4.8333543843,
				"z": -0.2183651114,
				"element": "H" 
			},
			{
				"x": -0.7268902246,
				"y": -3.6751173847,
				"z": 1.5822865774,
				"element": "H" 
			},
			{
				"x": 1.1517811977,
				"y": -2.4321491151,
				"z": 2.6189741465,
				"element": "H" 
			},
			{
				"x": 3.2321749093,
				"y": -2.4550045191,
				"z": -1.1446539549,
				"element": "H" 
			},
			{
				"x": 1.3361510196,
				"y": -3.6567485011,
				"z": -2.1889767733,
				"element": "H" 
			},
			{
				"x": -4.5039138625,
				"y": -0.0918935513,
				"z": 0.2017193046,
				"element": "H" 
			}
		],
		 "valence_orbital": [ 
			{
				"type": "occ",
				"energy": -0.26959,
				"method": "rhf"
			},
			{
				"type": "occ",
				"energy": -0.26133,
				"method": "rhf"
			},
			{
				"type": "occ",
				"energy": -0.25725,
				"method": "rhf"
			},
			{
				"type": "occ",
				"energy": -0.25168,
				"method": "rhf"
			},
			{
				"type": "occ",
				"energy": -0.23717,
				"method": "rhf"
			},
			{
				"type": "unocc",
				"energy": -0.06441,
				"method": "rhf"
			},
			{
				"type": "unocc",
				"energy": -0.0328,
				"method": "rhf"
			},
			{
				"type": "unocc",
				"energy": -0.02811,
				"method": "rhf"
			},
			{
				"type": "unocc",
				"energy": -0.02098,
				"method": "rhf"
			},
			{
				"type": "unocc",
				"energy": -0.0129,
				"method": "rhf"
			}
		],
		"cosmo_sigma_profile": { 
			"-0.025": 0.0,
			"-0.024": 0.0,
			"-0.023": 0.0,
			"-0.022": 0.0,
			"-0.021": 0.0,
			"-0.02": 0.0,
			"-0.019": 0.0,
			"-0.018": 0.0,
			"-0.017": 0.0,
			"-0.016": 0.0,
			"-0.015": 0.0,
			"-0.014": 0.0,
			"-0.013": 0.0,
			"-0.012": 0.107413472085,
			"-0.011": 2.16971976884,
			"-0.01": 2.54541390562,
			"-0.009": 2.14341695314,
			"-0.008": 5.00658380422,
			"-0.007": 12.983621621,
			"-0.006": 20.3038418483,
			"-0.005": 24.7102248386,
			"-0.004": 25.9604010868,
			"-0.003": 25.6409824603,
			"-0.002": 32.9009239715,
			"-0.001": 37.2092507993,
			"0.0": 34.5935810776,
			"0.001": 31.8067656316,
			"0.002": 29.1061426842,
			"0.003": 33.568169163,
			"0.004": 22.5036543155,
			"0.005": 11.5556840805,
			"0.006": 7.29181189067,
			"0.007": 5.36295757662,
			"0.008": 5.8446375932,
			"0.009": 6.16814832168,
			"0.01": 6.16852330401,
			"0.011": 8.02947743653,
			"0.012": 4.18206833971,
			"0.013": 0.404375383408,
			"0.014": 0.0,
			"0.015": 0.0,
			"0.016": 0.0,
			"0.017": 0.0,
			"0.018": 0.0,
			"0.019": 0.0,
			"0.02": 0.0,
			"0.021": 0.0,
			"0.022": 0.0,
			"0.023": 0.0,
			"0.024": 0.0,
			"0.025": 0.0
		}
	}
}
