{
	 "smiles": "CC1=CC(NN=C(C#N)C2=NC3=C(C=CC=C3)C(=O)N2)=C(C)C=C1", 
	 "Tm": 478.15, 
	 "num_atms": 39, 
	 "gaussian": { 
		 "optdone": 1, 
		 "sigma_profile": "yes", 
		 "theory": "DFT", 
		 "functional": "B3LYP", 
		 "basiset": "6-31G**", 
		 "properties": { 
			 "R2extent": 10641.4713, 
			 "electric_dipole_moment_norm": 4.79831274616, 
			 "electric_quadrupole_moment_norm": 36.2807015409, 
			 "total_energy": -1043.92057152, 
			 "HOMO_LUMO_gap": 0.13174, 
			 "cosmo_polarized_energy": -23.0, 
			 "cosmo_cavitation_energy": 45.37, 
			 "cosmo_dispersion_energy": -30.99, 
			 "cosmo_repulsion_energy": 2.34, 
			 "cosmo_total_nonelectrostatic_energy": 16.73, 
			 "SMD_solvation_energy": 7.85 
		},
		"coords": [
			{
				"x": 2.5435880982,
				"y": -0.0314611699,
				"z": -5.1657251718,
				"element": "C" 
			},
			{
				"x": 2.2759659437,
				"y": -0.81619871,
				"z": -3.9030309006,
				"element": "C" 
			},
			{
				"x": 1.5782395257,
				"y": -0.2351937702,
				"z": -2.8417709797,
				"element": "C" 
			},
			{
				"x": 1.3056169201,
				"y": -0.9685198477,
				"z": -1.6825757317,
				"element": "C" 
			},
			{
				"x": 0.5925990348,
				"y": -0.3814917842,
				"z": -0.6123760495,
				"element": "N" 
			},
			{
				"x": 0.2479007541,
				"y": 0.8941636493,
				"z": -0.6403701813,
				"element": "N" 
			},
			{
				"x": -0.3624066783,
				"y": 1.4725370681,
				"z": 0.3596050948,
				"element": "C" 
			},
			{
				"x": -0.5975550716,
				"y": 2.8799972735,
				"z": 0.2147899007,
				"element": "C" 
			},
			{
				"x": -0.8024502881,
				"y": 4.0189998752,
				"z": 0.0973912867,
				"element": "N" 
			},
			{
				"x": -0.8203145216,
				"y": 0.8457625618,
				"z": 1.6295974833,
				"element": "C" 
			},
			{
				"x": -0.6923804648,
				"y": 1.4905696611,
				"z": 2.743283096,
				"element": "N" 
			},
			{
				"x": -1.130061031,
				"y": 0.869276756,
				"z": 3.9052024568,
				"element": "C" 
			},
			{
				"x": -1.6893531292,
				"y": -0.43350402,
				"z": 3.9144688487,
				"element": "C" 
			},
			{
				"x": -2.1074724581,
				"y": -1.0201866162,
				"z": 5.1179086364,
				"element": "C" 
			},
			{
				"x": -1.9713250193,
				"y": -0.3228939783,
				"z": 6.309492898,
				"element": "C" 
			},
			{
				"x": -1.418494355,
				"y": 0.9703689432,
				"z": 6.3075342272,
				"element": "C" 
			},
			{
				"x": -1.0023972045,
				"y": 1.5624353213,
				"z": 5.1243088481,
				"element": "C" 
			},
			{
				"x": -1.8548001418,
				"y": -1.1521603969,
				"z": 2.6474032094,
				"element": "C" 
			},
			{
				"x": -2.3505877532,
				"y": -2.2569861872,
				"z": 2.4862591898,
				"element": "O" 
			},
			{
				"x": -1.3739580557,
				"y": -0.4221776361,
				"z": 1.542659559,
				"element": "N" 
			},
			{
				"x": 1.7187572689,
				"y": -2.3088335927,
				"z": -1.5465234981,
				"element": "C" 
			},
			{
				"x": 1.4307892123,
				"y": -3.1122309662,
				"z": -0.2990317061,
				"element": "C" 
			},
			{
				"x": 2.4177831554,
				"y": -2.8702048081,
				"z": -2.6190773479,
				"element": "C" 
			},
			{
				"x": 2.6968941535,
				"y": -2.1465878045,
				"z": -3.7764897859,
				"element": "C" 
			},
			{
				"x": 2.5871296654,
				"y": 1.0432772496,
				"z": -4.9681963744,
				"element": "H" 
			},
			{
				"x": 1.7517356916,
				"y": -0.1957703441,
				"z": -5.9071028032,
				"element": "H" 
			},
			{
				"x": 3.4885904296,
				"y": -0.3315204301,
				"z": -5.6284359263,
				"element": "H" 
			},
			{
				"x": 1.2411950243,
				"y": 0.7933393834,
				"z": -2.9002683702,
				"element": "H" 
			},
			{
				"x": 0.5132327932,
				"y": -0.9175276547,
				"z": 0.2465199747,
				"element": "H" 
			},
			{
				"x": -2.535423242,
				"y": -2.0166310574,
				"z": 5.0844317616,
				"element": "H" 
			},
			{
				"x": -2.2926043656,
				"y": -0.7730215914,
				"z": 7.2436218077,
				"element": "H" 
			},
			{
				"x": -1.3163474039,
				"y": 1.5122431205,
				"z": 7.2432646415,
				"element": "H" 
			},
			{
				"x": -0.5738142674,
				"y": 2.5586394865,
				"z": 5.1031191757,
				"element": "H" 
			},
			{
				"x": -1.6030619871,
				"y": -0.8226020862,
				"z": 0.6394203103,
				"element": "H" 
			},
			{
				"x": 1.9058080161,
				"y": -2.6821721925,
				"z": 0.5934293339,
				"element": "H" 
			},
			{
				"x": 0.3559104823,
				"y": -3.1957939533,
				"z": -0.0909496854,
				"element": "H" 
			},
			{
				"x": 1.8149001339,
				"y": -4.1295433222,
				"z": -0.4026398002,
				"element": "H" 
			},
			{
				"x": 2.7526850454,
				"y": -3.9010711995,
				"z": -2.5377737966,
				"element": "H" 
			},
			{
				"x": 3.2451860901,
				"y": -2.61872523,
				"z": -4.5870736313,
				"element": "H" 
			}
		],
		 "valence_orbital": [ 
			{
				"type": "occ",
				"energy": -0.27924,
				"method": "rhf"
			},
			{
				"type": "occ",
				"energy": -0.27339,
				"method": "rhf"
			},
			{
				"type": "occ",
				"energy": -0.25149,
				"method": "rhf"
			},
			{
				"type": "occ",
				"energy": -0.24765,
				"method": "rhf"
			},
			{
				"type": "occ",
				"energy": -0.22002,
				"method": "rhf"
			},
			{
				"type": "unocc",
				"energy": -0.08828,
				"method": "rhf"
			},
			{
				"type": "unocc",
				"energy": -0.05593,
				"method": "rhf"
			},
			{
				"type": "unocc",
				"energy": -0.03492,
				"method": "rhf"
			},
			{
				"type": "unocc",
				"energy": -0.0098,
				"method": "rhf"
			},
			{
				"type": "unocc",
				"energy": 0.00565,
				"method": "rhf"
			}
		],
		"cosmo_sigma_profile": { 
			"-0.025": 0.0,
			"-0.024": 0.0,
			"-0.023": 0.0,
			"-0.022": 0.0,
			"-0.021": 0.0,
			"-0.02": 0.0,
			"-0.019": 0.0,
			"-0.018": 0.0,
			"-0.017": 0.195683162082,
			"-0.016": 0.832892052841,
			"-0.015": 1.15836659905,
			"-0.014": 2.8886804919,
			"-0.013": 2.66706978041,
			"-0.012": 2.53107411002,
			"-0.011": 2.28376352875,
			"-0.01": 2.47018811952,
			"-0.009": 2.8377916018,
			"-0.008": 2.96782510656,
			"-0.007": 7.47574639413,
			"-0.006": 13.8875173581,
			"-0.005": 24.0451907912,
			"-0.004": 28.8685364964,
			"-0.003": 24.048295011,
			"-0.002": 27.1986049311,
			"-0.001": 28.4081288425,
			"0.0": 30.4331084888,
			"0.001": 25.8837343077,
			"0.002": 26.9495626715,
			"0.003": 25.2706258254,
			"0.004": 16.0239420341,
			"0.005": 14.7420726348,
			"0.006": 9.3842011773,
			"0.007": 6.26109032006,
			"0.008": 5.26822624819,
			"0.009": 6.20181320148,
			"0.01": 5.16315221815,
			"0.011": 6.64971587375,
			"0.012": 7.88884083866,
			"0.013": 3.88930165071,
			"0.014": 0.0125981030477,
			"0.015": 0.0,
			"0.016": 0.0,
			"0.017": 0.0,
			"0.018": 0.0,
			"0.019": 0.0,
			"0.02": 0.0,
			"0.021": 0.0,
			"0.022": 0.0,
			"0.023": 0.0,
			"0.024": 0.0,
			"0.025": 0.0
		}
	}
}
