{
	 "smiles": "OC(=O)C1=NC(=CC=C1)C(=O)N1CCS(=O)(=O)CC1", 
	 "Tm": 491.15, 
	 "num_atms": 31, 
	 "gaussian": { 
		 "optdone": 1, 
		 "sigma_profile": "yes", 
		 "theory": "DFT", 
		 "functional": "B3LYP", 
		 "basiset": "6-31G**", 
		 "properties": { 
			 "R2extent": 6909.6497, 
			 "electric_dipole_moment_norm": 5.5873712719, 
			 "electric_quadrupole_moment_norm": 22.3358449542, 
			 "total_energy": -1310.17414198, 
			 "HOMO_LUMO_gap": 0.19001, 
			 "cosmo_polarized_energy": -28.15, 
			 "cosmo_cavitation_energy": 36.24, 
			 "cosmo_dispersion_energy": -26.08, 
			 "cosmo_repulsion_energy": 1.92, 
			 "cosmo_total_nonelectrostatic_energy": 12.08, 
			 "SMD_solvation_energy": 6.13 
		},
		"coords": [
			{
				"x": 1.4933639657,
				"y": -4.1765507353,
				"z": 0.0436871701,
				"element": "O" 
			},
			{
				"x": 2.7559707944,
				"y": -3.9568547743,
				"z": -0.3576451431,
				"element": "C" 
			},
			{
				"x": 3.5864787285,
				"y": -4.8314131347,
				"z": -0.4409843296,
				"element": "O" 
			},
			{
				"x": 3.0479043805,
				"y": -2.5147976684,
				"z": -0.6965780342,
				"element": "C" 
			},
			{
				"x": 2.0459860527,
				"y": -1.6432225163,
				"z": -0.4945216276,
				"element": "N" 
			},
			{
				"x": 2.2530664544,
				"y": -0.3545600056,
				"z": -0.8000588874,
				"element": "C" 
			},
			{
				"x": 3.4694995366,
				"y": 0.0998297403,
				"z": -1.328261315,
				"element": "C" 
			},
			{
				"x": 4.5091755834,
				"y": -0.8084291966,
				"z": -1.5096668471,
				"element": "C" 
			},
			{
				"x": 4.299345483,
				"y": -2.1487308319,
				"z": -1.1894088565,
				"element": "C" 
			},
			{
				"x": 1.1253679159,
				"y": 0.6533020418,
				"z": -0.702245912,
				"element": "C" 
			},
			{
				"x": 1.0594753376,
				"y": 1.5155332362,
				"z": -1.5754773109,
				"element": "O" 
			},
			{
				"x": 0.2150148058,
				"y": 0.5782294412,
				"z": 0.3246986897,
				"element": "N" 
			},
			{
				"x": 0.3382031982,
				"y": -0.2243049669,
				"z": 1.5433785343,
				"element": "C" 
			},
			{
				"x": -0.8504438623,
				"y": -1.180190986,
				"z": 1.7105503983,
				"element": "C" 
			},
			{
				"x": -2.4081642085,
				"y": -0.2448863933,
				"z": 1.8135562618,
				"element": "S" 
			},
			{
				"x": -3.5407389343,
				"y": -1.1660061661,
				"z": 1.654577964,
				"element": "O" 
			},
			{
				"x": -2.3048966396,
				"y": 0.6423576666,
				"z": 2.9860198155,
				"element": "O" 
			},
			{
				"x": -2.2548728818,
				"y": 0.7944561017,
				"z": 0.3300572695,
				"element": "C" 
			},
			{
				"x": -0.9059183953,
				"y": 1.5242908835,
				"z": 0.3160234041,
				"element": "C" 
			},
			{
				"x": 1.0398465514,
				"y": -3.3112664407,
				"z": 0.005836452,
				"element": "H" 
			},
			{
				"x": 3.5670051687,
				"y": 1.1453460309,
				"z": -1.594384342,
				"element": "H" 
			},
			{
				"x": 5.4647562649,
				"y": -0.4775219862,
				"z": -1.9045325067,
				"element": "H" 
			},
			{
				"x": 5.0600744591,
				"y": -2.9104136693,
				"z": -1.3139310921,
				"element": "H" 
			},
			{
				"x": 0.3738267173,
				"y": 0.4494412858,
				"z": 2.4084848435,
				"element": "H" 
			},
			{
				"x": 1.2608582103,
				"y": -0.7983743207,
				"z": 1.5194029072,
				"element": "H" 
			},
			{
				"x": -0.9424693291,
				"y": -1.8724477403,
				"z": 0.8698302858,
				"element": "H" 
			},
			{
				"x": -0.7873438042,
				"y": -1.7444819815,
				"z": 2.6451483505,
				"element": "H" 
			},
			{
				"x": -2.3814998859,
				"y": 0.1439919387,
				"z": -0.539285965,
				"element": "H" 
			},
			{
				"x": -3.0905185766,
				"y": 1.4982256149,
				"z": 0.3799559328,
				"element": "H" 
			},
			{
				"x": -0.8387017574,
				"y": 2.1807159122,
				"z": 1.1915703403,
				"element": "H" 
			},
			{
				"x": -0.8162513333,
				"y": 2.1323336203,
				"z": -0.5839964505,
				"element": "H" 
			}
		],
		 "valence_orbital": [ 
			{
				"type": "occ",
				"energy": -0.30284,
				"method": "rhf"
			},
			{
				"type": "occ",
				"energy": -0.29454,
				"method": "rhf"
			},
			{
				"type": "occ",
				"energy": -0.28403,
				"method": "rhf"
			},
			{
				"type": "occ",
				"energy": -0.27942,
				"method": "rhf"
			},
			{
				"type": "occ",
				"energy": -0.27381,
				"method": "rhf"
			},
			{
				"type": "unocc",
				"energy": -0.0838,
				"method": "rhf"
			},
			{
				"type": "unocc",
				"energy": -0.07829,
				"method": "rhf"
			},
			{
				"type": "unocc",
				"energy": 0.00252,
				"method": "rhf"
			},
			{
				"type": "unocc",
				"energy": 0.04071,
				"method": "rhf"
			},
			{
				"type": "unocc",
				"energy": 0.04281,
				"method": "rhf"
			}
		],
		"cosmo_sigma_profile": { 
			"-0.025": 0.0,
			"-0.024": 0.0,
			"-0.023": 0.0,
			"-0.022": 0.0,
			"-0.021": 0.0,
			"-0.02": 0.0,
			"-0.019": 0.0,
			"-0.018": 0.0,
			"-0.017": 0.0,
			"-0.016": 0.0,
			"-0.015": 0.0,
			"-0.014": 0.0,
			"-0.013": 0.0,
			"-0.012": 0.0678833420604,
			"-0.011": 1.00891071943,
			"-0.01": 3.64459795382,
			"-0.009": 9.91540371513,
			"-0.008": 14.9111971502,
			"-0.007": 20.8966133864,
			"-0.006": 25.2932656067,
			"-0.005": 24.5944694503,
			"-0.004": 18.4627365197,
			"-0.003": 13.4103646862,
			"-0.002": 17.0084367523,
			"-0.001": 18.0581001739,
			"0.0": 15.0775948088,
			"0.001": 8.07645841623,
			"0.002": 6.61876652427,
			"0.003": 5.91248098916,
			"0.004": 4.81702317315,
			"0.005": 5.2154761921,
			"0.006": 5.6778460316,
			"0.007": 6.59833727356,
			"0.008": 7.692016417,
			"0.009": 8.17996543144,
			"0.01": 10.5075078161,
			"0.011": 17.9814719244,
			"0.012": 15.2395936974,
			"0.013": 3.92314924715,
			"0.014": 0.00848830752224,
			"0.015": 0.0,
			"0.016": 0.0,
			"0.017": 0.0,
			"0.018": 0.0,
			"0.019": 0.0,
			"0.02": 0.0,
			"0.021": 0.0,
			"0.022": 0.0,
			"0.023": 0.0,
			"0.024": 0.0,
			"0.025": 0.0
		}
	}
}
