{
	 "smiles": "COC(=O)C1=CC2=C(NC=C2C2CCNCC2)C=C1", 
	 "Tm": 443.15, 
	 "num_atms": 37, 
	 "gaussian": { 
		 "optdone": 1, 
		 "sigma_profile": "yes", 
		 "theory": "DFT", 
		 "functional": "B3LYP", 
		 "basiset": "6-31G**", 
		 "properties": { 
			 "R2extent": 5781.3189, 
			 "electric_dipole_moment_norm": 3.77185618628, 
			 "electric_quadrupole_moment_norm": 12.1812873158, 
			 "total_energy": -842.408694336, 
			 "HOMO_LUMO_gap": 0.17686, 
			 "cosmo_polarized_energy": -15.4, 
			 "cosmo_cavitation_energy": 37.83, 
			 "cosmo_dispersion_energy": -27.32, 
			 "cosmo_repulsion_energy": 2.1, 
			 "cosmo_total_nonelectrostatic_energy": 12.61, 
			 "SMD_solvation_energy": 4.98 
		},
		"coords": [
			{
				"x": 3.0305978566,
				"y": 2.3968565345,
				"z": -3.8907606115,
				"element": "C" 
			},
			{
				"x": 2.7710667467,
				"y": 1.237373304,
				"z": -3.0891668105,
				"element": "O" 
			},
			{
				"x": 1.8611988066,
				"y": 1.4151276794,
				"z": -2.0973875914,
				"element": "C" 
			},
			{
				"x": 1.3067420232,
				"y": 2.4823036887,
				"z": -1.904344667,
				"element": "O" 
			},
			{
				"x": 1.6348772308,
				"y": 0.1816094112,
				"z": -1.302457388,
				"element": "C" 
			},
			{
				"x": 0.7149251494,
				"y": 0.2611322373,
				"z": -0.255024959,
				"element": "C" 
			},
			{
				"x": 0.4486772843,
				"y": -0.8627450312,
				"z": 0.5410241077,
				"element": "C" 
			},
			{
				"x": 1.1558350388,
				"y": -2.0652216677,
				"z": 0.2256156569,
				"element": "C" 
			},
			{
				"x": 0.7515613899,
				"y": -3.0276666414,
				"z": 1.1148072557,
				"element": "N" 
			},
			{
				"x": -0.1804508542,
				"y": -2.4800395479,
				"z": 1.9764371339,
				"element": "C" 
			},
			{
				"x": -0.4109798815,
				"y": -1.1585941545,
				"z": 1.6800844051,
				"element": "C" 
			},
			{
				"x": -1.4026296465,
				"y": -0.3471566856,
				"z": 2.4983304178,
				"element": "C" 
			},
			{
				"x": -0.8015481353,
				"y": 0.8269528434,
				"z": 3.3183087136,
				"element": "C" 
			},
			{
				"x": -0.6898273702,
				"y": 2.1400163123,
				"z": 2.5380940456,
				"element": "C" 
			},
			{
				"x": -1.9946089929,
				"y": 2.4871131741,
				"z": 1.9671120862,
				"element": "N" 
			},
			{
				"x": -2.4802099221,
				"y": 1.4808364786,
				"z": 1.0181421947,
				"element": "C" 
			},
			{
				"x": -2.6653636855,
				"y": 0.1417217213,
				"z": 1.7375774605,
				"element": "C" 
			},
			{
				"x": 2.0808108463,
				"y": -2.1582654615,
				"z": -0.8223766348,
				"element": "C" 
			},
			{
				"x": 2.3155172942,
				"y": -1.0265636522,
				"z": -1.584082466,
				"element": "C" 
			},
			{
				"x": 2.1177596373,
				"y": 2.7380197135,
				"z": -4.3861911943,
				"element": "H" 
			},
			{
				"x": 3.7718318674,
				"y": 2.0866583437,
				"z": -4.6278827856,
				"element": "H" 
			},
			{
				"x": 3.4198725806,
				"y": 3.2134144738,
				"z": -3.2769017433,
				"element": "H" 
			},
			{
				"x": 0.2277895823,
				"y": 1.2121792205,
				"z": -0.0908880465,
				"element": "H" 
			},
			{
				"x": 1.0807043243,
				"y": -3.9788869109,
				"z": 1.1364069141,
				"element": "H" 
			},
			{
				"x": -0.6229502581,
				"y": -3.0839953889,
				"z": 2.7567880594,
				"element": "H" 
			},
			{
				"x": -1.7678750605,
				"y": -1.0678464864,
				"z": 3.2414264733,
				"element": "H" 
			},
			{
				"x": -1.4669781912,
				"y": 1.0075877934,
				"z": 4.1715937573,
				"element": "H" 
			},
			{
				"x": 0.1772830606,
				"y": 0.542445197,
				"z": 3.7196480159,
				"element": "H" 
			},
			{
				"x": 0.1094812572,
				"y": 2.0590233059,
				"z": 1.7823072257,
				"element": "H" 
			},
			{
				"x": -0.3910256732,
				"y": 2.9422666664,
				"z": 3.2229189084,
				"element": "H" 
			},
			{
				"x": -1.9362654729,
				"y": 3.390918722,
				"z": 1.5065055002,
				"element": "H" 
			},
			{
				"x": -1.8180836266,
				"y": 1.3481686725,
				"z": 0.1459056373,
				"element": "H" 
			},
			{
				"x": -3.4475112054,
				"y": 1.8172104443,
				"z": 0.6269415938,
				"element": "H" 
			},
			{
				"x": -2.9968214774,
				"y": -0.6247445474,
				"z": 1.0285023814,
				"element": "H" 
			},
			{
				"x": -3.4650336196,
				"y": 0.2738810396,
				"z": 2.4768947257,
				"element": "H" 
			},
			{
				"x": 2.5979831081,
				"y": -3.0907828642,
				"z": -1.0302539342,
				"element": "H" 
			},
			{
				"x": 3.0234479885,
				"y": -1.0566079376,
				"z": -2.4034538378,
				"element": "H" 
			}
		],
		 "valence_orbital": [ 
			{
				"type": "occ",
				"energy": -0.27286,
				"method": "rhf"
			},
			{
				"type": "occ",
				"energy": -0.26142,
				"method": "rhf"
			},
			{
				"type": "occ",
				"energy": -0.22632,
				"method": "rhf"
			},
			{
				"type": "occ",
				"energy": -0.20833,
				"method": "rhf"
			},
			{
				"type": "occ",
				"energy": -0.20361,
				"method": "rhf"
			},
			{
				"type": "unocc",
				"energy": -0.02675,
				"method": "rhf"
			},
			{
				"type": "unocc",
				"energy": -0.00612,
				"method": "rhf"
			},
			{
				"type": "unocc",
				"energy": 0.06145,
				"method": "rhf"
			},
			{
				"type": "unocc",
				"energy": 0.07484,
				"method": "rhf"
			},
			{
				"type": "unocc",
				"energy": 0.08432,
				"method": "rhf"
			}
		],
		"cosmo_sigma_profile": { 
			"-0.025": 0.0,
			"-0.024": 0.0,
			"-0.023": 0.0,
			"-0.022": 0.0,
			"-0.021": 0.0,
			"-0.02": 0.0,
			"-0.019": 0.0,
			"-0.018": 0.0,
			"-0.017": 0.0,
			"-0.016": 0.958726610589,
			"-0.015": 1.49435914376,
			"-0.014": 1.7612647628,
			"-0.013": 0.878735876114,
			"-0.012": 1.24126314147,
			"-0.011": 1.35126929003,
			"-0.01": 1.78786887713,
			"-0.009": 2.71085411921,
			"-0.008": 4.28889359345,
			"-0.007": 5.93210251755,
			"-0.006": 9.14541499535,
			"-0.005": 11.9282581917,
			"-0.004": 16.0511121603,
			"-0.003": 25.3576243373,
			"-0.002": 28.0981063846,
			"-0.001": 32.4827613052,
			"0.0": 30.1433281832,
			"0.001": 21.0439760055,
			"0.002": 16.5514218607,
			"0.003": 17.7283449854,
			"0.004": 20.0654527767,
			"0.005": 18.6791541493,
			"0.006": 5.31462607503,
			"0.007": 2.73802459918,
			"0.008": 2.94214336477,
			"0.009": 2.10196279861,
			"0.01": 2.10474443849,
			"0.011": 2.6083350415,
			"0.012": 4.61267844167,
			"0.013": 3.55121640302,
			"0.014": 0.327797522117,
			"0.015": 0.297582397179,
			"0.016": 0.738414303137,
			"0.017": 0.303187513257,
			"0.018": 0.381807099055,
			"0.019": 0.281580763603,
			"0.02": 0.0,
			"0.021": 0.0,
			"0.022": 0.0,
			"0.023": 0.0,
			"0.024": 0.0,
			"0.025": 0.0
		}
	}
}
