{
	 "smiles": "CC(C)C1=NN(C=C1C(O)=O)C1CCS(=O)(=O)C1", 
	 "Tm": 476.15, 
	 "num_atms": 34, 
	 "gaussian": { 
		 "optdone": 1, 
		 "sigma_profile": "yes", 
		 "theory": "DFT", 
		 "functional": "B3LYP", 
		 "basiset": "6-31G**", 
		 "properties": { 
			 "R2extent": 6485.929, 
			 "electric_dipole_moment_norm": 4.55265292989, 
			 "electric_quadrupole_moment_norm": 19.7784588123, 
			 "total_energy": -1237.34507594, 
			 "HOMO_LUMO_gap": 0.22861, 
			 "cosmo_polarized_energy": -24.32, 
			 "cosmo_cavitation_energy": 37.34, 
			 "cosmo_dispersion_energy": -26.77, 
			 "cosmo_repulsion_energy": 2.05, 
			 "cosmo_total_nonelectrostatic_energy": 12.63, 
			 "SMD_solvation_energy": 5.84 
		},
		"coords": [
			{
				"x": 3.5457528214,
				"y": -0.5828650309,
				"z": -2.4313402207,
				"element": "C" 
			},
			{
				"x": 2.2913076037,
				"y": -1.2562444316,
				"z": -1.8432310719,
				"element": "C" 
			},
			{
				"x": 2.4498274673,
				"y": -2.7849309856,
				"z": -1.7368275747,
				"element": "C" 
			},
			{
				"x": 1.8579474271,
				"y": -0.6299502653,
				"z": -0.5367189902,
				"element": "C" 
			},
			{
				"x": 0.6661986571,
				"y": -0.0374719608,
				"z": -0.5033653976,
				"element": "N" 
			},
			{
				"x": 0.4999299486,
				"y": 0.4263135572,
				"z": 0.7669581642,
				"element": "N" 
			},
			{
				"x": 1.5733344145,
				"y": 0.1601347915,
				"z": 1.5369485702,
				"element": "C" 
			},
			{
				"x": 2.4845048845,
				"y": -0.5319011554,
				"z": 0.7497570093,
				"element": "C" 
			},
			{
				"x": 3.7559876446,
				"y": -0.980974151,
				"z": 1.3253169236,
				"element": "C" 
			},
			{
				"x": 4.5613119818,
				"y": -1.6514067683,
				"z": 0.4620993333,
				"element": "O" 
			},
			{
				"x": 4.0884765826,
				"y": -0.780606827,
				"z": 2.4801096453,
				"element": "O" 
			},
			{
				"x": -0.6935235316,
				"y": 1.2368002099,
				"z": 1.0588006562,
				"element": "C" 
			},
			{
				"x": -0.9237029901,
				"y": 1.4037668225,
				"z": 2.5779803311,
				"element": "C" 
			},
			{
				"x": -1.4986545766,
				"y": 0.0912858267,
				"z": 3.1120802536,
				"element": "C" 
			},
			{
				"x": -2.7413468832,
				"y": -0.3805749856,
				"z": 1.8500776166,
				"element": "S" 
			},
			{
				"x": -4.0095941963,
				"y": 0.2877162055,
				"z": 2.1861339437,
				"element": "O" 
			},
			{
				"x": -2.6955469278,
				"y": -1.8255592326,
				"z": 1.5909897961,
				"element": "O" 
			},
			{
				"x": -1.9504075793,
				"y": 0.5660991159,
				"z": 0.4775525314,
				"element": "C" 
			},
			{
				"x": 4.4179309824,
				"y": -0.7401140387,
				"z": -1.7928438424,
				"element": "H" 
			},
			{
				"x": 3.3937689645,
				"y": 0.4946951471,
				"z": -2.5510027293,
				"element": "H" 
			},
			{
				"x": 3.7660070003,
				"y": -1.0032811882,
				"z": -3.4184096692,
				"element": "H" 
			},
			{
				"x": 1.4566392718,
				"y": -1.0564144917,
				"z": -2.5254805394,
				"element": "H" 
			},
			{
				"x": 2.6700708026,
				"y": -3.2061711271,
				"z": -2.7235743014,
				"element": "H" 
			},
			{
				"x": 1.5295947349,
				"y": -3.2500286617,
				"z": -1.3696537599,
				"element": "H" 
			},
			{
				"x": 3.2661199419,
				"y": -3.0536992206,
				"z": -1.0625947848,
				"element": "H" 
			},
			{
				"x": 1.6649199464,
				"y": 0.44474906,
				"z": 2.5729643412,
				"element": "H" 
			},
			{
				"x": 5.3537843973,
				"y": -1.884200144,
				"z": 0.9744100052,
				"element": "H" 
			},
			{
				"x": -0.5487016044,
				"y": 2.2138500632,
				"z": 0.5864190911,
				"element": "H" 
			},
			{
				"x": -0.0171675739,
				"y": 1.7079092383,
				"z": 3.1060165199,
				"element": "H" 
			},
			{
				"x": -1.6555209289,
				"y": 2.2063101893,
				"z": 2.7131788848,
				"element": "H" 
			},
			{
				"x": -0.7592550097,
				"y": -0.710597955,
				"z": 3.1634258571,
				"element": "H" 
			},
			{
				"x": -2.0215776553,
				"y": 0.1849795229,
				"z": 4.0646551405,
				"element": "H" 
			},
			{
				"x": -1.7140210863,
				"y": -0.1143793566,
				"z": -0.3394967396,
				"element": "H" 
			},
			{
				"x": -2.6881949321,
				"y": 1.3049622276,
				"z": 0.1609650066,
				"element": "H" 
			}
		],
		 "valence_orbital": [ 
			{
				"type": "occ",
				"energy": -0.29916,
				"method": "rhf"
			},
			{
				"type": "occ",
				"energy": -0.28818,
				"method": "rhf"
			},
			{
				"type": "occ",
				"energy": -0.27747,
				"method": "rhf"
			},
			{
				"type": "occ",
				"energy": -0.26962,
				"method": "rhf"
			},
			{
				"type": "occ",
				"energy": -0.26342,
				"method": "rhf"
			},
			{
				"type": "unocc",
				"energy": -0.03481,
				"method": "rhf"
			},
			{
				"type": "unocc",
				"energy": -0.00027,
				"method": "rhf"
			},
			{
				"type": "unocc",
				"energy": 0.0415,
				"method": "rhf"
			},
			{
				"type": "unocc",
				"energy": 0.05328,
				"method": "rhf"
			},
			{
				"type": "unocc",
				"energy": 0.06467,
				"method": "rhf"
			}
		],
		"cosmo_sigma_profile": { 
			"-0.025": 0.0,
			"-0.024": 0.0,
			"-0.023": 0.0,
			"-0.022": 0.0,
			"-0.021": 0.0,
			"-0.02": 0.0,
			"-0.019": 0.0,
			"-0.018": 0.474701269552,
			"-0.017": 1.22847586066,
			"-0.016": 0.598177539507,
			"-0.015": 0.939285975178,
			"-0.014": 0.605757867746,
			"-0.013": 0.362869201139,
			"-0.012": 0.867642614879,
			"-0.011": 2.29939275763,
			"-0.01": 3.44676649868,
			"-0.009": 6.78634250655,
			"-0.008": 14.0402898938,
			"-0.007": 15.1342858203,
			"-0.006": 16.7054066582,
			"-0.005": 12.5107680373,
			"-0.004": 12.107604479,
			"-0.003": 14.6032639505,
			"-0.002": 17.3342231496,
			"-0.001": 22.6113725146,
			"0.0": 23.1126262799,
			"0.001": 32.7422398331,
			"0.002": 17.4035993161,
			"0.003": 8.97905590166,
			"0.004": 5.77155869681,
			"0.005": 5.83916208804,
			"0.006": 5.15953251093,
			"0.007": 3.7160336162,
			"0.008": 4.67937972113,
			"0.009": 5.96261349431,
			"0.01": 5.76089556348,
			"0.011": 13.9307263778,
			"0.012": 15.978543291,
			"0.013": 2.3530824537,
			"0.014": 0.0,
			"0.015": 0.0,
			"0.016": 0.0,
			"0.017": 0.0,
			"0.018": 0.0,
			"0.019": 0.0,
			"0.02": 0.0,
			"0.021": 0.0,
			"0.022": 0.0,
			"0.023": 0.0,
			"0.024": 0.0,
			"0.025": 0.0
		}
	}
}
