{
	 "smiles": "O=C1NC2=C(C=CC=N2)C(=O)O1", 
	 "Tm": 481.15, 
	 "num_atms": 16, 
	 "gaussian": { 
		 "optdone": 1, 
		 "sigma_profile": "yes", 
		 "theory": "DFT", 
		 "functional": "B3LYP", 
		 "basiset": "6-31G**", 
		 "properties": { 
			 "R2extent": 2585.113, 
			 "electric_dipole_moment_norm": 5.63897579176, 
			 "electric_quadrupole_moment_norm": 18.955162553, 
			 "total_energy": -604.362022353, 
			 "HOMO_LUMO_gap": 0.18145, 
			 "cosmo_polarized_energy": -15.01, 
			 "cosmo_cavitation_energy": 21.55, 
			 "cosmo_dispersion_energy": -16.47, 
			 "cosmo_repulsion_energy": 1.29, 
			 "cosmo_total_nonelectrostatic_energy": 6.37, 
			 "SMD_solvation_energy": 4.49 
		},
		"coords": [
			{
				"x": -0.1992131413,
				"y": -3.3723079997,
				"z": -2.2762709321,
				"element": "O" 
			},
			{
				"x": 0.1050841762,
				"y": -2.7647733422,
				"z": -1.284438375,
				"element": "C" 
			},
			{
				"x": -0.0522057256,
				"y": -1.4017026445,
				"z": -1.1341875196,
				"element": "N" 
			},
			{
				"x": 0.2899156788,
				"y": -0.683144325,
				"z": -0.0047489899,
				"element": "C" 
			},
			{
				"x": 0.8415683949,
				"y": -1.3744423469,
				"z": 1.0850317066,
				"element": "C" 
			},
			{
				"x": 1.1844536056,
				"y": -0.6401405474,
				"z": 2.2227374628,
				"element": "C" 
			},
			{
				"x": 0.9643127843,
				"y": 0.7325725698,
				"z": 2.2215241452,
				"element": "C" 
			},
			{
				"x": 0.4075087209,
				"y": 1.3131198252,
				"z": 1.0751474345,
				"element": "C" 
			},
			{
				"x": 0.070518366,
				"y": 0.6336162059,
				"z": -0.0262437234,
				"element": "N" 
			},
			{
				"x": 1.0405066751,
				"y": -2.8258425743,
				"z": 1.0029023749,
				"element": "C" 
			},
			{
				"x": 1.5014332298,
				"y": -3.5280654678,
				"z": 1.8640693839,
				"element": "O" 
			},
			{
				"x": 0.6492049953,
				"y": -3.4202210791,
				"z": -0.1989248627,
				"element": "O" 
			},
			{
				"x": -0.4496422895,
				"y": -0.9002329788,
				"z": -1.9180283493,
				"element": "H" 
			},
			{
				"x": 1.6119666814,
				"y": -1.160571685,
				"z": 3.0734931294,
				"element": "H" 
			},
			{
				"x": 1.2134257458,
				"y": 1.3461802014,
				"z": 3.0797368305,
				"element": "H" 
			},
			{
				"x": 0.2218621025,
				"y": 2.3845561884,
				"z": 1.040000284,
				"element": "H" 
			}
		],
		 "valence_orbital": [ 
			{
				"type": "occ",
				"energy": -0.32341,
				"method": "rhf"
			},
			{
				"type": "occ",
				"energy": -0.31739,
				"method": "rhf"
			},
			{
				"type": "occ",
				"energy": -0.30886,
				"method": "rhf"
			},
			{
				"type": "occ",
				"energy": -0.28681,
				"method": "rhf"
			},
			{
				"type": "occ",
				"energy": -0.265,
				"method": "rhf"
			},
			{
				"type": "unocc",
				"energy": -0.08355,
				"method": "rhf"
			},
			{
				"type": "unocc",
				"energy": -0.0473,
				"method": "rhf"
			},
			{
				"type": "unocc",
				"energy": 0.0029,
				"method": "rhf"
			},
			{
				"type": "unocc",
				"energy": 0.04294,
				"method": "rhf"
			},
			{
				"type": "unocc",
				"energy": 0.07607,
				"method": "rhf"
			}
		],
		"cosmo_sigma_profile": { 
			"-0.025": 0.0,
			"-0.024": 0.0,
			"-0.023": 0.0,
			"-0.022": 0.0,
			"-0.021": 0.0,
			"-0.02": 0.0,
			"-0.019": 0.0,
			"-0.018": 0.0,
			"-0.017": 0.845908095677,
			"-0.016": 1.03242809865,
			"-0.015": 0.383922123179,
			"-0.014": 1.11244770628,
			"-0.013": 0.943770667592,
			"-0.012": 0.673087227278,
			"-0.011": 0.86373431588,
			"-0.01": 1.59472922958,
			"-0.009": 2.86471115155,
			"-0.008": 8.46443946361,
			"-0.007": 10.2662444165,
			"-0.006": 8.94214025672,
			"-0.005": 9.14954133647,
			"-0.004": 9.69954872966,
			"-0.003": 12.5359598017,
			"-0.002": 13.45130818,
			"-0.001": 11.1971781178,
			"0.0": 11.3150455362,
			"0.001": 7.22867467796,
			"0.002": 5.03713003971,
			"0.003": 3.53736550945,
			"0.004": 4.29938112183,
			"0.005": 4.41858820175,
			"0.006": 4.4573627963,
			"0.007": 6.26018979398,
			"0.008": 5.54296046887,
			"0.009": 6.72317066104,
			"0.01": 10.0969810394,
			"0.011": 8.95771823344,
			"0.012": 1.95247824294,
			"0.013": 0.701073930949,
			"0.014": 0.0362720490965,
			"0.015": 0.0,
			"0.016": 0.0,
			"0.017": 0.0,
			"0.018": 0.0,
			"0.019": 0.0,
			"0.02": 0.0,
			"0.021": 0.0,
			"0.022": 0.0,
			"0.023": 0.0,
			"0.024": 0.0,
			"0.025": 0.0
		}
	}
}
