{
	 "smiles": "OC(=O)CCC1=NC(=NO1)C1=NN=CN1", 
	 "Tm": 520.15, 
	 "num_atms": 22, 
	 "gaussian": { 
		 "optdone": 1, 
		 "sigma_profile": "yes", 
		 "theory": "DFT", 
		 "functional": "B3LYP", 
		 "basiset": "6-31G**", 
		 "properties": { 
			 "R2extent": 3973.0159, 
			 "electric_dipole_moment_norm": 8.4250716175, 
			 "electric_quadrupole_moment_norm": 18.4406409392, 
			 "total_energy": -770.344350747, 
			 "HOMO_LUMO_gap": 0.20566, 
			 "cosmo_polarized_energy": -28.31, 
			 "cosmo_cavitation_energy": 28.73, 
			 "cosmo_dispersion_energy": -20.66, 
			 "cosmo_repulsion_energy": 1.65, 
			 "cosmo_total_nonelectrostatic_energy": 9.72, 
			 "SMD_solvation_energy": 3.0 
		},
		"coords": [
			{
				"x": 4.1586217701,
				"y": 0.7942300362,
				"z": -0.4275312196,
				"element": "O" 
			},
			{
				"x": 3.1271457244,
				"y": 0.1493979519,
				"z": -1.0163479764,
				"element": "C" 
			},
			{
				"x": 3.0603462154,
				"y": -1.0568868083,
				"z": -1.0969444319,
				"element": "O" 
			},
			{
				"x": 2.1066454081,
				"y": 1.1239984724,
				"z": -1.5692118328,
				"element": "C" 
			},
			{
				"x": 0.8420650653,
				"y": 0.4151795123,
				"z": -2.0536787976,
				"element": "C" 
			},
			{
				"x": 0.0299828164,
				"y": -0.1380486225,
				"z": -0.9283856957,
				"element": "C" 
			},
			{
				"x": 0.0846793869,
				"y": 0.1562109556,
				"z": 0.3386083184,
				"element": "N" 
			},
			{
				"x": -0.9180034768,
				"y": -0.6378274827,
				"z": 0.8648089842,
				"element": "C" 
			},
			{
				"x": -1.5590053924,
				"y": -1.3750935264,
				"z": -0.0107610694,
				"element": "N" 
			},
			{
				"x": -0.9200455653,
				"y": -1.0389261396,
				"z": -1.2173235549,
				"element": "O" 
			},
			{
				"x": -1.197094558,
				"y": -0.615731408,
				"z": 2.2918573164,
				"element": "C" 
			},
			{
				"x": -2.1164022777,
				"y": -1.273904952,
				"z": 2.9681108618,
				"element": "N" 
			},
			{
				"x": -1.9831006604,
				"y": -0.9183533311,
				"z": 4.2896183602,
				"element": "N" 
			},
			{
				"x": -0.9903852592,
				"y": -0.0588022691,
				"z": 4.3705659463,
				"element": "C" 
			},
			{
				"x": -0.4576663686,
				"y": 0.1695572485,
				"z": 3.1380328138,
				"element": "N" 
			},
			{
				"x": 4.7745042995,
				"y": 0.1059009043,
				"z": -0.1238293976,
				"element": "H" 
			},
			{
				"x": 2.5768821551,
				"y": 1.6644622052,
				"z": -2.3987075967,
				"element": "H" 
			},
			{
				"x": 1.8790293484,
				"y": 1.8675295949,
				"z": -0.8003282647,
				"element": "H" 
			},
			{
				"x": 0.2153168911,
				"y": 1.1147668902,
				"z": -2.6197896753,
				"element": "H" 
			},
			{
				"x": 1.0979040221,
				"y": -0.4064629012,
				"z": -2.7284023691,
				"element": "H" 
			},
			{
				"x": -0.6334388532,
				"y": 0.4103891487,
				"z": 5.2756515115,
				"element": "H" 
			},
			{
				"x": 0.3080193087,
				"y": 0.7691145209,
				"z": 2.8652877693,
				"element": "H" 
			}
		],
		 "valence_orbital": [ 
			{
				"type": "occ",
				"energy": -0.31304,
				"method": "rhf"
			},
			{
				"type": "occ",
				"energy": -0.31016,
				"method": "rhf"
			},
			{
				"type": "occ",
				"energy": -0.2952,
				"method": "rhf"
			},
			{
				"type": "occ",
				"energy": -0.25989,
				"method": "rhf"
			},
			{
				"type": "occ",
				"energy": -0.25783,
				"method": "rhf"
			},
			{
				"type": "unocc",
				"energy": -0.05217,
				"method": "rhf"
			},
			{
				"type": "unocc",
				"energy": -0.01101,
				"method": "rhf"
			},
			{
				"type": "unocc",
				"energy": -0.00784,
				"method": "rhf"
			},
			{
				"type": "unocc",
				"energy": 0.02697,
				"method": "rhf"
			},
			{
				"type": "unocc",
				"energy": 0.06211,
				"method": "rhf"
			}
		],
		"cosmo_sigma_profile": { 
			"-0.025": 0.0,
			"-0.024": 0.0,
			"-0.023": 0.0,
			"-0.022": 0.0,
			"-0.021": 0.0,
			"-0.02": 0.0,
			"-0.019": 0.0221314940804,
			"-0.018": 1.71624871146,
			"-0.017": 1.79673470366,
			"-0.016": 2.28960871591,
			"-0.015": 1.11104400702,
			"-0.014": 2.20490492375,
			"-0.013": 1.6954029404,
			"-0.012": 1.98222692949,
			"-0.011": 4.39964140388,
			"-0.01": 3.13381335378,
			"-0.009": 3.35318809894,
			"-0.008": 7.81097992612,
			"-0.007": 12.0866020609,
			"-0.006": 12.5487208195,
			"-0.005": 14.1535296114,
			"-0.004": 13.2258238502,
			"-0.003": 13.185852436,
			"-0.002": 12.9006170382,
			"-0.001": 9.71325082671,
			"0.0": 7.64194019716,
			"0.001": 8.08726670418,
			"0.002": 8.50575918988,
			"0.003": 8.31136890139,
			"0.004": 8.55167647039,
			"0.005": 9.08577923259,
			"0.006": 10.2017033177,
			"0.007": 5.88393476773,
			"0.008": 5.71649703786,
			"0.009": 7.72106970569,
			"0.01": 7.02303917115,
			"0.011": 7.85599006767,
			"0.012": 6.30823672095,
			"0.013": 3.12004648586,
			"0.014": 3.31441990294,
			"0.015": 1.94633862065,
			"0.016": 1.53458527429,
			"0.017": 0.025274364472,
			"0.018": 0.0,
			"0.019": 0.0,
			"0.02": 0.0,
			"0.021": 0.0,
			"0.022": 0.0,
			"0.023": 0.0,
			"0.024": 0.0,
			"0.025": 0.0
		}
	}
}
