{
	 "smiles": "CC(=O)C1=CC=C(I)C=C1", 
	 "Tm": 357.65, 
	 "num_atms": 17, 
	 "gaussian": { 
		 "optdone": 1, 
		 "sigma_profile": "no", 
		 "theory": "DFT", 
		 "functional": "B3LYP", 
		 "basiset": "6-31G**", 
		 "properties": { 
			 "R2extent": 2011.8817, 
			 "electric_dipole_moment_norm": 2.26109381937, 
			 "electric_quadrupole_moment_norm": 10.2992792966, 
			 "total_energy": -395.682539111, 
			 "HOMO_LUMO_gap": 0.18247, 
			 "cosmo_polarized_energy": -102895.25, 
			 "cosmo_cavitation_energy": 24.45, 
			 "cosmo_dispersion_energy": -19.35, 
			 "cosmo_repulsion_energy": 1.52, 
			 "cosmo_total_nonelectrostatic_energy": 6.63, 
			 "SMD_solvation_energy": 4.03 
		},
		"coords": [
			{
				"x": 0.8684805546,
				"y": -1.7971003624,
				"z": -3.2624596007,
				"element": "C" 
			},
			{
				"x": -0.2262583775,
				"y": -1.2186608137,
				"z": -2.3828658787,
				"element": "C" 
			},
			{
				"x": -1.3817296737,
				"y": -1.5985110495,
				"z": -2.4939222813,
				"element": "O" 
			},
			{
				"x": 0.1336315074,
				"y": -0.1676974855,
				"z": -1.3736824825,
				"element": "C" 
			},
			{
				"x": -0.8908814128,
				"y": 0.3561494419,
				"z": -0.5708067991,
				"element": "C" 
			},
			{
				"x": -0.6246542637,
				"y": 1.3326197391,
				"z": 0.3836641801,
				"element": "C" 
			},
			{
				"x": 0.6870508912,
				"y": 1.7930179035,
				"z": 0.5381555527,
				"element": "C" 
			},
			{
				"x": 1.1076733252,
				"y": 3.2797637614,
				"z": 1.9872412878,
				"element": "I" 
			},
			{
				"x": 1.7244105747,
				"y": 1.2879127981,
				"z": -0.2482558648,
				"element": "C" 
			},
			{
				"x": 1.4405802109,
				"y": 0.3090828824,
				"z": -1.2008259068,
				"element": "C" 
			},
			{
				"x": 1.3490325093,
				"y": -1.0137400238,
				"z": -3.8590875163,
				"element": "H" 
			},
			{
				"x": 0.4253589035,
				"y": -2.5379714421,
				"z": -3.9281853079,
				"element": "H" 
			},
			{
				"x": 1.6489719171,
				"y": -2.2724525129,
				"z": -2.6579628818,
				"element": "H" 
			},
			{
				"x": -1.8983201898,
				"y": -0.0207124736,
				"z": -0.7137882464,
				"element": "H" 
			},
			{
				"x": -1.424311407,
				"y": 1.7301463831,
				"z": 0.9984346104,
				"element": "H" 
			},
			{
				"x": 2.7386070189,
				"y": 1.64957452,
				"z": -0.1228488428,
				"element": "H" 
			},
			{
				"x": 2.2530579117,
				"y": -0.077621266,
				"z": -1.8075040219,
				"element": "H" 
			}
		],
		 "valence_orbital": [ 
			{
				"type": "occ",
				"energy": -0.30295,
				"method": "rhf"
			},
			{
				"type": "occ",
				"energy": -0.27578,
				"method": "rhf"
			},
			{
				"type": "occ",
				"energy": -0.27466,
				"method": "rhf"
			},
			{
				"type": "occ",
				"energy": -0.25571,
				"method": "rhf"
			},
			{
				"type": "occ",
				"energy": -0.24917,
				"method": "rhf"
			},
			{
				"type": "unocc",
				"energy": -0.0667,
				"method": "rhf"
			},
			{
				"type": "unocc",
				"energy": -0.04559,
				"method": "rhf"
			},
			{
				"type": "unocc",
				"energy": -0.02409,
				"method": "rhf"
			},
			{
				"type": "unocc",
				"energy": 0.02276,
				"method": "rhf"
			},
			{
				"type": "unocc",
				"energy": 0.03904,
				"method": "rhf"
			}
		],
		"cosmo_sigma_profile": { 
			"0.0": 0.0,
			"0.0": 0.0,
			"0.0": 0.0,
			"0.0": 0.0,
			"0.0": 0.0,
			"0.0": 0.0,
			"0.0": 0.0,
			"0.0": 0.0,
			"0.0": 0.0,
			"0.0": 0.0,
			"0.0": 0.0,
			"0.0": 0.0,
			"0.0": 0.0,
			"0.0": 0.0,
			"0.0": 0.0,
			"0.0": 0.0,
			"0.0": 0.0,
			"0.0": 0.0,
			"0.0": 0.0,
			"0.0": 0.0,
			"0.0": 0.0,
			"0.0": 0.0,
			"0.0": 0.0,
			"0.0": 0.0,
			"0.0": 0.0,
			"0.0": 0.0,
			"0.0": 0.0,
			"0.0": 0.0,
			"0.0": 0.0,
			"0.0": 0.0,
			"0.0": 0.0,
			"0.0": 0.0,
			"0.0": 0.0,
			"0.0": 0.0,
			"0.0": 0.0,
			"0.0": 0.0,
			"0.0": 0.0,
			"0.0": 0.0,
			"0.0": 0.0,
			"0.0": 0.0,
			"0.0": 0.0,
			"0.0": 0.0,
			"0.0": 0.0,
			"0.0": 0.0,
			"0.0": 0.0,
			"0.0": 0.0,
			"0.0": 0.0,
			"0.0": 0.0,
			"0.0": 0.0,
			"0.0": 0.0,
			"0.0": 0.0
		}
	}
}
