{
	 "smiles": "ClCCN(CCCl)C1=CC=C2C=CC=CC2=C1", 
	 "Tm": 328.15, 
	 "num_atms": 32, 
	 "gaussian": { 
		 "optdone": 1, 
		 "sigma_profile": "yes", 
		 "theory": "DFT", 
		 "functional": "B3LYP", 
		 "basiset": "6-31G**", 
		 "properties": { 
			 "R2extent": 7516.6315, 
			 "electric_dipole_moment_norm": 1.04226352234, 
			 "electric_quadrupole_moment_norm": 5.78130838911, 
			 "total_energy": -1517.68242288, 
			 "HOMO_LUMO_gap": 0.15808, 
			 "cosmo_polarized_energy": -11.56, 
			 "cosmo_cavitation_energy": 37.93, 
			 "cosmo_dispersion_energy": -27.06, 
			 "cosmo_repulsion_energy": 2.11, 
			 "cosmo_total_nonelectrostatic_energy": 12.99, 
			 "SMD_solvation_energy": 4.88 
		},
		"coords": [
			{
				"x": -4.3518104762,
				"y": -3.0052316793,
				"z": -1.1729359636,
				"element": "Cl" 
			},
			{
				"x": -2.9068414307,
				"y": -2.6983657666,
				"z": -0.1182097042,
				"element": "C" 
			},
			{
				"x": -2.7763885156,
				"y": -1.2031511177,
				"z": 0.1963402792,
				"element": "C" 
			},
			{
				"x": -1.6123498335,
				"y": -0.9273532178,
				"z": 1.0237374767,
				"element": "N" 
			},
			{
				"x": -1.8249009417,
				"y": -0.8736520594,
				"z": 2.4622531332,
				"element": "C" 
			},
			{
				"x": -2.0815492866,
				"y": 0.5591300967,
				"z": 2.944720659,
				"element": "C" 
			},
			{
				"x": -2.3442855018,
				"y": 0.5911665196,
				"z": 4.7406016395,
				"element": "Cl" 
			},
			{
				"x": -0.3489052522,
				"y": -0.729502735,
				"z": 0.4510107309,
				"element": "C" 
			},
			{
				"x": 0.7665280347,
				"y": -0.3621948813,
				"z": 1.2706669381,
				"element": "C" 
			},
			{
				"x": 2.0121517594,
				"y": -0.1590560155,
				"z": 0.7288561492,
				"element": "C" 
			},
			{
				"x": 2.2543615553,
				"y": -0.2973763029,
				"z": -0.6617654008,
				"element": "C" 
			},
			{
				"x": 3.5310093674,
				"y": -0.0896567438,
				"z": -1.245711044,
				"element": "C" 
			},
			{
				"x": 3.7171246289,
				"y": -0.2367487629,
				"z": -2.6022821562,
				"element": "C" 
			},
			{
				"x": 2.6257713738,
				"y": -0.5995157823,
				"z": -3.4302411324,
				"element": "C" 
			},
			{
				"x": 1.3754796321,
				"y": -0.807118176,
				"z": -2.8921583754,
				"element": "C" 
			},
			{
				"x": 1.1491703886,
				"y": -0.661988532,
				"z": -1.4946421847,
				"element": "C" 
			},
			{
				"x": -0.1277296948,
				"y": -0.8739590773,
				"z": -0.9164603854,
				"element": "C" 
			},
			{
				"x": -2.0340100571,
				"y": -3.073369437,
				"z": -0.652662122,
				"element": "H" 
			},
			{
				"x": -3.048319439,
				"y": -3.2849790941,
				"z": 0.7909243139,
				"element": "H" 
			},
			{
				"x": -3.6750713613,
				"y": -0.8687360014,
				"z": 0.7231549466,
				"element": "H" 
			},
			{
				"x": -2.7301623243,
				"y": -0.6280814064,
				"z": -0.7328144577,
				"element": "H" 
			},
			{
				"x": -0.974125258,
				"y": -1.3021522466,
				"z": 2.9985646732,
				"element": "H" 
			},
			{
				"x": -2.68919711,
				"y": -1.4949091151,
				"z": 2.7152949216,
				"element": "H" 
			},
			{
				"x": -2.9779114109,
				"y": 0.9785814199,
				"z": 2.4850799396,
				"element": "H" 
			},
			{
				"x": -1.2344642594,
				"y": 1.2122248512,
				"z": 2.7332520477,
				"element": "H" 
			},
			{
				"x": 0.6412374619,
				"y": -0.2296805096,
				"z": 2.3383477782,
				"element": "H" 
			},
			{
				"x": 2.8360341182,
				"y": 0.1213879492,
				"z": 1.3803765994,
				"element": "H" 
			},
			{
				"x": 4.3616679333,
				"y": 0.1880891557,
				"z": -0.601380931,
				"element": "H" 
			},
			{
				"x": 4.6971930594,
				"y": -0.0763661266,
				"z": -3.0415373525,
				"element": "H" 
			},
			{
				"x": 2.7799685287,
				"y": -0.7139667753,
				"z": -4.4995597189,
				"element": "H" 
			},
			{
				"x": 0.5417917792,
				"y": -1.0847592099,
				"z": -3.5323757124,
				"element": "H" 
			},
			{
				"x": -0.9307674678,
				"y": -1.1629092204,
				"z": -1.5847455849,
				"element": "H" 
			}
		],
		 "valence_orbital": [ 
			{
				"type": "occ",
				"energy": -0.30308,
				"method": "rhf"
			},
			{
				"type": "occ",
				"energy": -0.29082,
				"method": "rhf"
			},
			{
				"type": "occ",
				"energy": -0.27094,
				"method": "rhf"
			},
			{
				"type": "occ",
				"energy": -0.22862,
				"method": "rhf"
			},
			{
				"type": "occ",
				"energy": -0.19675,
				"method": "rhf"
			},
			{
				"type": "unocc",
				"energy": -0.03867,
				"method": "rhf"
			},
			{
				"type": "unocc",
				"energy": -0.00511,
				"method": "rhf"
			},
			{
				"type": "unocc",
				"energy": 0.00953,
				"method": "rhf"
			},
			{
				"type": "unocc",
				"energy": 0.02559,
				"method": "rhf"
			},
			{
				"type": "unocc",
				"energy": 0.03354,
				"method": "rhf"
			}
		],
		"cosmo_sigma_profile": { 
			"-0.025": 0.0,
			"-0.024": 0.0,
			"-0.023": 0.0,
			"-0.022": 0.0,
			"-0.021": 0.0,
			"-0.02": 0.0,
			"-0.019": 0.0,
			"-0.018": 0.0,
			"-0.017": 0.0,
			"-0.016": 0.0,
			"-0.015": 0.0,
			"-0.014": 0.0,
			"-0.013": 0.0,
			"-0.012": 0.0,
			"-0.011": 0.0,
			"-0.01": 0.0,
			"-0.009": 5.32652736204e-06,
			"-0.008": 3.39747136381,
			"-0.007": 14.6293150184,
			"-0.006": 19.4522127774,
			"-0.005": 27.3961534267,
			"-0.004": 23.2914853268,
			"-0.003": 25.0501674779,
			"-0.002": 17.5595900945,
			"-0.001": 15.623471684,
			"0.0": 17.0902683555,
			"0.001": 15.0226943303,
			"0.002": 15.2524750161,
			"0.003": 17.0898920926,
			"0.004": 22.0672721505,
			"0.005": 33.8357898557,
			"0.006": 29.3630121912,
			"0.007": 9.49064517812,
			"0.008": 0.0,
			"0.009": 0.0,
			"0.01": 0.0,
			"0.011": 0.0,
			"0.012": 0.0,
			"0.013": 0.0,
			"0.014": 0.0,
			"0.015": 0.0,
			"0.016": 0.0,
			"0.017": 0.0,
			"0.018": 0.0,
			"0.019": 0.0,
			"0.02": 0.0,
			"0.021": 0.0,
			"0.022": 0.0,
			"0.023": 0.0,
			"0.024": 0.0,
			"0.025": 0.0
		}
	}
}
