{
	 "smiles": "CC(Cl)C(=O)N1CCSC2=C1C=CC=C2", 
	 "Tm": 355.15, 
	 "num_atms": 27, 
	 "gaussian": { 
		 "optdone": 1, 
		 "sigma_profile": "yes", 
		 "theory": "DFT", 
		 "functional": "B3LYP", 
		 "basiset": "6-31G**", 
		 "properties": { 
			 "R2extent": 4237.5173, 
			 "electric_dipole_moment_norm": 2.41354568426, 
			 "electric_quadrupole_moment_norm": 11.9321732723, 
			 "total_energy": -1414.77039458, 
			 "HOMO_LUMO_gap": 0.1777, 
			 "cosmo_polarized_energy": -13.09, 
			 "cosmo_cavitation_energy": 32.24, 
			 "cosmo_dispersion_energy": -23.82, 
			 "cosmo_repulsion_energy": 1.81, 
			 "cosmo_total_nonelectrostatic_energy": 10.24, 
			 "SMD_solvation_energy": 4.82 
		},
		"coords": [
			{
				"x": -0.1014958114,
				"y": 3.6225331089,
				"z": -2.1036716332,
				"element": "C" 
			},
			{
				"x": 0.4935695785,
				"y": 2.9178887051,
				"z": -0.8976634128,
				"element": "C" 
			},
			{
				"x": 0.3889441495,
				"y": 4.0133522708,
				"z": 0.5779605213,
				"element": "Cl" 
			},
			{
				"x": -0.2526057851,
				"y": 1.601489888,
				"z": -0.590501069,
				"element": "C" 
			},
			{
				"x": -1.3521341841,
				"y": 1.4111866124,
				"z": -1.0875065319,
				"element": "O" 
			},
			{
				"x": 0.3722137322,
				"y": 0.6795208741,
				"z": 0.2289939903,
				"element": "N" 
			},
			{
				"x": 1.7144222304,
				"y": 0.8446602656,
				"z": 0.7963425575,
				"element": "C" 
			},
			{
				"x": 2.7409069986,
				"y": 0.0116095385,
				"z": 0.035742519,
				"element": "C" 
			},
			{
				"x": 2.310118955,
				"y": -1.7762569664,
				"z": 0.0685643886,
				"element": "S" 
			},
			{
				"x": 0.5741531701,
				"y": -1.7476347366,
				"z": 0.4849576499,
				"element": "C" 
			},
			{
				"x": -0.2303703231,
				"y": -0.5923630734,
				"z": 0.4914725493,
				"element": "C" 
			},
			{
				"x": -1.5896429573,
				"y": -0.6984978912,
				"z": 0.8180576099,
				"element": "C" 
			},
			{
				"x": -2.1520828909,
				"y": -1.9360350539,
				"z": 1.111293077,
				"element": "C" 
			},
			{
				"x": -1.3560139156,
				"y": -3.0842113077,
				"z": 1.1049400327,
				"element": "C" 
			},
			{
				"x": -0.0023071501,
				"y": -2.9866090294,
				"z": 0.8042851508,
				"element": "C" 
			},
			{
				"x": 0.0206939133,
				"y": 2.9880631429,
				"z": -2.9873522922,
				"element": "H" 
			},
			{
				"x": -1.1682552347,
				"y": 3.7943387268,
				"z": -1.959311216,
				"element": "H" 
			},
			{
				"x": 0.4090478749,
				"y": 4.5724671111,
				"z": -2.2757572681,
				"element": "H" 
			},
			{
				"x": 1.5625298711,
				"y": 2.7528477857,
				"z": -1.0423190494,
				"element": "H" 
			},
			{
				"x": 1.9981079554,
				"y": 1.8956133935,
				"z": 0.7925879417,
				"element": "H" 
			},
			{
				"x": 1.6775702111,
				"y": 0.5325437147,
				"z": 1.8449458976,
				"element": "H" 
			},
			{
				"x": 3.7288250917,
				"y": 0.1049394998,
				"z": 0.4958936789,
				"element": "H" 
			},
			{
				"x": 2.8084797863,
				"y": 0.3452204123,
				"z": -1.0036664358,
				"element": "H" 
			},
			{
				"x": -2.198030194,
				"y": 0.1959365593,
				"z": 0.8208818586,
				"element": "H" 
			},
			{
				"x": -3.2081930386,
				"y": -2.0006995278,
				"z": 1.3534825579,
				"element": "H" 
			},
			{
				"x": -1.7856132388,
				"y": -4.0530837688,
				"z": 1.3411477369,
				"element": "H" 
			},
			{
				"x": 0.6227612056,
				"y": -3.8751202543,
				"z": 0.8098991907,
				"element": "H" 
			}
		],
		 "valence_orbital": [ 
			{
				"type": "occ",
				"energy": -0.29325,
				"method": "rhf"
			},
			{
				"type": "occ",
				"energy": -0.28727,
				"method": "rhf"
			},
			{
				"type": "occ",
				"energy": -0.26312,
				"method": "rhf"
			},
			{
				"type": "occ",
				"energy": -0.23563,
				"method": "rhf"
			},
			{
				"type": "occ",
				"energy": -0.21282,
				"method": "rhf"
			},
			{
				"type": "unocc",
				"energy": -0.03512,
				"method": "rhf"
			},
			{
				"type": "unocc",
				"energy": -0.00576,
				"method": "rhf"
			},
			{
				"type": "unocc",
				"energy": 0.00118,
				"method": "rhf"
			},
			{
				"type": "unocc",
				"energy": 0.02344,
				"method": "rhf"
			},
			{
				"type": "unocc",
				"energy": 0.04289,
				"method": "rhf"
			}
		],
		"cosmo_sigma_profile": { 
			"-0.025": 0.0,
			"-0.024": 0.0,
			"-0.023": 0.0,
			"-0.022": 0.0,
			"-0.021": 0.0,
			"-0.02": 0.0,
			"-0.019": 0.0,
			"-0.018": 0.0,
			"-0.017": 0.0,
			"-0.016": 0.0,
			"-0.015": 0.0,
			"-0.014": 0.0,
			"-0.013": 0.0,
			"-0.012": 0.0,
			"-0.011": 0.1084976134,
			"-0.01": 1.830378273,
			"-0.009": 3.30573564182,
			"-0.008": 3.67850998135,
			"-0.007": 8.25779262539,
			"-0.006": 17.7663339222,
			"-0.005": 21.2463791543,
			"-0.004": 20.5974052192,
			"-0.003": 18.1476842639,
			"-0.002": 15.751589099,
			"-0.001": 16.2834670327,
			"0.0": 15.6097029383,
			"0.001": 15.8011141079,
			"0.002": 15.0903830834,
			"0.003": 15.0463050964,
			"0.004": 20.4351304946,
			"0.005": 20.5629441231,
			"0.006": 10.0544848015,
			"0.007": 4.19178149437,
			"0.008": 4.5090260772,
			"0.009": 2.26985746024,
			"0.01": 1.79040712656,
			"0.011": 2.32293115811,
			"0.012": 3.81949850583,
			"0.013": 1.6242502633,
			"0.014": 0.0,
			"0.015": 0.0,
			"0.016": 0.0,
			"0.017": 0.0,
			"0.018": 0.0,
			"0.019": 0.0,
			"0.02": 0.0,
			"0.021": 0.0,
			"0.022": 0.0,
			"0.023": 0.0,
			"0.024": 0.0,
			"0.025": 0.0
		}
	}
}
