{
	 "smiles": "OC(=O)CC1=CSC(NC(=O)C2=C(F)C=CC=C2)=N1", 
	 "Tm": 478.15, 
	 "num_atms": 28, 
	 "gaussian": { 
		 "optdone": 1, 
		 "sigma_profile": "yes", 
		 "theory": "DFT", 
		 "functional": "B3LYP", 
		 "basiset": "6-31G**", 
		 "properties": { 
			 "R2extent": 7743.8451, 
			 "electric_dipole_moment_norm": 7.56503587632, 
			 "electric_quadrupole_moment_norm": 29.6280422003, 
			 "total_energy": -1295.93081488, 
			 "HOMO_LUMO_gap": 0.15648, 
			 "cosmo_polarized_energy": -17.94, 
			 "cosmo_cavitation_energy": 35.39, 
			 "cosmo_dispersion_energy": -26.51, 
			 "cosmo_repulsion_energy": 1.96, 
			 "cosmo_total_nonelectrostatic_energy": 10.84, 
			 "SMD_solvation_energy": 7.22 
		},
		"coords": [
			{
				"x": -3.2560483879,
				"y": -2.5707242414,
				"z": 1.7409299591,
				"element": "O" 
			},
			{
				"x": -3.904548178,
				"y": -3.4409002342,
				"z": 0.9491188429,
				"element": "C" 
			},
			{
				"x": -4.9974495813,
				"y": -3.8705542388,
				"z": 1.2308956571,
				"element": "O" 
			},
			{
				"x": -3.1402407264,
				"y": -3.9229553463,
				"z": -0.2982711907,
				"element": "C" 
			},
			{
				"x": -2.2922001677,
				"y": -2.8949403774,
				"z": -0.995932644,
				"element": "C" 
			},
			{
				"x": -2.247980821,
				"y": -2.6356869776,
				"z": -2.3325888741,
				"element": "C" 
			},
			{
				"x": -1.0891495392,
				"y": -1.3804554085,
				"z": -2.6865713669,
				"element": "S" 
			},
			{
				"x": -0.7527748375,
				"y": -1.2897755354,
				"z": -0.9736920161,
				"element": "C" 
			},
			{
				"x": 0.1562468732,
				"y": -0.4166981186,
				"z": -0.4082016746,
				"element": "N" 
			},
			{
				"x": 0.9145930396,
				"y": 0.4904731758,
				"z": -1.118006494,
				"element": "C" 
			},
			{
				"x": 0.8200090018,
				"y": 0.5706506593,
				"z": -2.3387895851,
				"element": "O" 
			},
			{
				"x": 1.8505444379,
				"y": 1.3663094398,
				"z": -0.342989448,
				"element": "C" 
			},
			{
				"x": 2.0465715919,
				"y": 1.3595326115,
				"z": 1.0434664983,
				"element": "C" 
			},
			{
				"x": 1.3493883267,
				"y": 0.4927224959,
				"z": 1.8307681604,
				"element": "F" 
			},
			{
				"x": 2.9372428328,
				"y": 2.2098821861,
				"z": 1.682610928,
				"element": "C" 
			},
			{
				"x": 3.6724321615,
				"y": 3.1129269107,
				"z": 0.9160268117,
				"element": "C" 
			},
			{
				"x": 3.5068170682,
				"y": 3.1516473738,
				"z": -0.4715489461,
				"element": "C" 
			},
			{
				"x": 2.6073637343,
				"y": 2.2882425448,
				"z": -1.0867021722,
				"element": "C" 
			},
			{
				"x": -1.4346180222,
				"y": -2.1232312507,
				"z": -0.2287825567,
				"element": "N" 
			},
			{
				"x": -2.415667286,
				"y": -2.2936424813,
				"z": 1.3078386141,
				"element": "H" 
			},
			{
				"x": -3.8742591475,
				"y": -4.3532688601,
				"z": -0.9800572149,
				"element": "H" 
			},
			{
				"x": -2.4963050443,
				"y": -4.7463197329,
				"z": 0.0441141733,
				"element": "H" 
			},
			{
				"x": -2.8177903676,
				"y": -3.1009558972,
				"z": -3.1240903343,
				"element": "H" 
			},
			{
				"x": 0.2514527379,
				"y": -0.4725989765,
				"z": 0.5979874533,
				"element": "H" 
			},
			{
				"x": 3.0388481256,
				"y": 2.1510867649,
				"z": 2.7605309857,
				"element": "H" 
			},
			{
				"x": 4.3722868334,
				"y": 3.7836093392,
				"z": 1.4047306038,
				"element": "H" 
			},
			{
				"x": 4.0779326505,
				"y": 3.8537412688,
				"z": -1.0699947028,
				"element": "H" 
			},
			{
				"x": 2.4589026911,
				"y": 2.2969829062,
				"z": -2.1607994672,
				"element": "H" 
			}
		],
		 "valence_orbital": [ 
			{
				"type": "occ",
				"energy": -0.28987,
				"method": "rhf"
			},
			{
				"type": "occ",
				"energy": -0.28711,
				"method": "rhf"
			},
			{
				"type": "occ",
				"energy": -0.27852,
				"method": "rhf"
			},
			{
				"type": "occ",
				"energy": -0.25736,
				"method": "rhf"
			},
			{
				"type": "occ",
				"energy": -0.23312,
				"method": "rhf"
			},
			{
				"type": "unocc",
				"energy": -0.07664,
				"method": "rhf"
			},
			{
				"type": "unocc",
				"energy": -0.02998,
				"method": "rhf"
			},
			{
				"type": "unocc",
				"energy": -0.02474,
				"method": "rhf"
			},
			{
				"type": "unocc",
				"energy": 0.01521,
				"method": "rhf"
			},
			{
				"type": "unocc",
				"energy": 0.02141,
				"method": "rhf"
			}
		],
		"cosmo_sigma_profile": { 
			"-0.025": 0.0,
			"-0.024": 0.0,
			"-0.023": 0.0,
			"-0.022": 0.0,
			"-0.021": 0.0,
			"-0.02": 0.0,
			"-0.019": 0.0,
			"-0.018": 0.0,
			"-0.017": 0.0,
			"-0.016": 0.0,
			"-0.015": 0.0,
			"-0.014": 0.0,
			"-0.013": 0.0,
			"-0.012": 0.0,
			"-0.011": 0.368768578183,
			"-0.01": 1.46629390456,
			"-0.009": 3.26298680071,
			"-0.008": 9.10753241786,
			"-0.007": 16.1949784363,
			"-0.006": 16.8642499789,
			"-0.005": 17.8778445422,
			"-0.004": 16.7643920036,
			"-0.003": 18.0987392123,
			"-0.002": 20.934623847,
			"-0.001": 23.0307443693,
			"0.0": 22.3370434023,
			"0.001": 22.8108786966,
			"0.002": 24.6350895006,
			"0.003": 18.1593599106,
			"0.004": 5.58897130597,
			"0.005": 5.94366869265,
			"0.006": 5.22621308017,
			"0.007": 2.78202532958,
			"0.008": 5.15304370778,
			"0.009": 4.90592047507,
			"0.01": 5.97417023612,
			"0.011": 8.44180081216,
			"0.012": 6.9008443087,
			"0.013": 3.9197146934,
			"0.014": 0.497800754397,
			"0.015": 0.0,
			"0.016": 0.0,
			"0.017": 0.0,
			"0.018": 0.0,
			"0.019": 0.0,
			"0.02": 0.0,
			"0.021": 0.0,
			"0.022": 0.0,
			"0.023": 0.0,
			"0.024": 0.0,
			"0.025": 0.0
		}
	}
}
