{
	 "smiles": "CCCCCCN(C)C(=O)COC(=O)C1=CC=CC=C1", 
	 "Tm": 373.15, 
	 "num_atms": 43, 
	 "gaussian": { 
		 "optdone": 1, 
		 "sigma_profile": "yes", 
		 "theory": "DFT", 
		 "functional": "B3LYP", 
		 "basiset": "6-31G**", 
		 "properties": { 
			 "R2extent": 8292.5643, 
			 "electric_dipole_moment_norm": 2.58742210124, 
			 "electric_quadrupole_moment_norm": 19.8366894352, 
			 "total_energy": -904.022147372, 
			 "HOMO_LUMO_gap": 0.19356, 
			 "cosmo_polarized_energy": -15.62, 
			 "cosmo_cavitation_energy": 45.21, 
			 "cosmo_dispersion_energy": -30.15, 
			 "cosmo_repulsion_energy": 2.34, 
			 "cosmo_total_nonelectrostatic_energy": 17.4, 
			 "SMD_solvation_energy": 8.0 
		},
		"coords": [
			{
				"x": 3.5036949413,
				"y": 0.6287746784,
				"z": 0.396289211,
				"element": "C" 
			},
			{
				"x": 3.9342764548,
				"y": -0.7892593722,
				"z": 0.7901470834,
				"element": "C" 
			},
			{
				"x": 2.9065770264,
				"y": -1.6011999441,
				"z": 1.6000753442,
				"element": "C" 
			},
			{
				"x": 2.503195545,
				"y": -0.9795413975,
				"z": 2.958105554,
				"element": "C" 
			},
			{
				"x": 1.2294926865,
				"y": -0.113196884,
				"z": 2.9258452459,
				"element": "C" 
			},
			{
				"x": -0.0593202014,
				"y": -0.9554824043,
				"z": 2.8920875424,
				"element": "C" 
			},
			{
				"x": -1.280133351,
				"y": -0.1600001372,
				"z": 2.7518261443,
				"element": "N" 
			},
			{
				"x": -1.803573091,
				"y": 0.4706577127,
				"z": 3.959468658,
				"element": "C" 
			},
			{
				"x": -1.81009637,
				"y": 0.2181784509,
				"z": 1.544728093,
				"element": "C" 
			},
			{
				"x": -2.7266861964,
				"y": 1.0206174572,
				"z": 1.432091108,
				"element": "O" 
			},
			{
				"x": -1.2333165867,
				"y": -0.4765270066,
				"z": 0.2937803491,
				"element": "C" 
			},
			{
				"x": -1.6917711765,
				"y": 0.1786069357,
				"z": -0.8837592503,
				"element": "O" 
			},
			{
				"x": -1.0437441275,
				"y": 1.3325122439,
				"z": -1.1842127225,
				"element": "C" 
			},
			{
				"x": -0.0732654243,
				"y": 1.7261636057,
				"z": -0.5635535987,
				"element": "O" 
			},
			{
				"x": -1.6301187694,
				"y": 2.024524494,
				"z": -2.3623758199,
				"element": "C" 
			},
			{
				"x": -2.7970279726,
				"y": 1.5698659655,
				"z": -2.9924226202,
				"element": "C" 
			},
			{
				"x": -3.3036374566,
				"y": 2.2592937261,
				"z": -4.0927260742,
				"element": "C" 
			},
			{
				"x": -2.6511517058,
				"y": 3.4000419043,
				"z": -4.5670465663,
				"element": "C" 
			},
			{
				"x": -1.489329447,
				"y": 3.8562773558,
				"z": -3.9381044986,
				"element": "C" 
			},
			{
				"x": -0.9802262913,
				"y": 3.1719943496,
				"z": -2.8375175498,
				"element": "C" 
			},
			{
				"x": 2.5620395028,
				"y": 0.634148906,
				"z": -0.1635190591,
				"element": "H" 
			},
			{
				"x": 4.2655182703,
				"y": 1.1017072663,
				"z": -0.2325880348,
				"element": "H" 
			},
			{
				"x": 3.3660788312,
				"y": 1.2705891143,
				"z": 1.2727041105,
				"element": "H" 
			},
			{
				"x": 4.867541418,
				"y": -0.7339096092,
				"z": 1.3678698182,
				"element": "H" 
			},
			{
				"x": 4.177432676,
				"y": -1.3552224124,
				"z": -0.1186148839,
				"element": "H" 
			},
			{
				"x": 2.0116204336,
				"y": -1.764441027,
				"z": 0.9825672066,
				"element": "H" 
			},
			{
				"x": 3.329388434,
				"y": -2.5986410959,
				"z": 1.772424444,
				"element": "H" 
			},
			{
				"x": 3.3387926189,
				"y": -0.376974424,
				"z": 3.3356845642,
				"element": "H" 
			},
			{
				"x": 2.3603121842,
				"y": -1.7774571537,
				"z": 3.6996672725,
				"element": "H" 
			},
			{
				"x": 1.2378530917,
				"y": 0.5547798569,
				"z": 2.0578609403,
				"element": "H" 
			},
			{
				"x": 1.2008009434,
				"y": 0.531813548,
				"z": 3.8122712445,
				"element": "H" 
			},
			{
				"x": -0.0119991246,
				"y": -1.6960270702,
				"z": 2.0893442276,
				"element": "H" 
			},
			{
				"x": -0.1470985141,
				"y": -1.5318798341,
				"z": 3.8213939054,
				"element": "H" 
			},
			{
				"x": -1.9647924007,
				"y": -0.2874959032,
				"z": 4.7336744093,
				"element": "H" 
			},
			{
				"x": -1.1158355275,
				"y": 1.2300948807,
				"z": 4.3512191994,
				"element": "H" 
			},
			{
				"x": -2.7477343631,
				"y": 0.9526397556,
				"z": 3.7109506734,
				"element": "H" 
			},
			{
				"x": -0.1427872589,
				"y": -0.4931153922,
				"z": 0.3003129995,
				"element": "H" 
			},
			{
				"x": -1.6144487313,
				"y": -1.4998879964,
				"z": 0.228946146,
				"element": "H" 
			},
			{
				"x": -3.2999738237,
				"y": 0.6885372777,
				"z": -2.6121398142,
				"element": "H" 
			},
			{
				"x": -4.2092838044,
				"y": 1.9089087343,
				"z": -4.579009222,
				"element": "H" 
			},
			{
				"x": -3.0493420836,
				"y": 3.9348691547,
				"z": -5.4248138694,
				"element": "H" 
			},
			{
				"x": -0.9839755355,
				"y": 4.7446095747,
				"z": -4.3054020761,
				"element": "H" 
			},
			{
				"x": -0.0826457234,
				"y": 3.5078521153,
				"z": -2.3294298348,
				"element": "H" 
			}
		],
		 "valence_orbital": [ 
			{
				"type": "occ",
				"energy": -0.27387,
				"method": "rhf"
			},
			{
				"type": "occ",
				"energy": -0.25618,
				"method": "rhf"
			},
			{
				"type": "occ",
				"energy": -0.25412,
				"method": "rhf"
			},
			{
				"type": "occ",
				"energy": -0.2473,
				"method": "rhf"
			},
			{
				"type": "occ",
				"energy": -0.23587,
				"method": "rhf"
			},
			{
				"type": "unocc",
				"energy": -0.04231,
				"method": "rhf"
			},
			{
				"type": "unocc",
				"energy": -0.00331,
				"method": "rhf"
			},
			{
				"type": "unocc",
				"energy": 0.02674,
				"method": "rhf"
			},
			{
				"type": "unocc",
				"energy": 0.06109,
				"method": "rhf"
			},
			{
				"type": "unocc",
				"energy": 0.07035,
				"method": "rhf"
			}
		],
		"cosmo_sigma_profile": { 
			"-0.025": 0.0,
			"-0.024": 0.0,
			"-0.023": 0.0,
			"-0.022": 0.0,
			"-0.021": 0.0,
			"-0.02": 0.0,
			"-0.019": 0.0,
			"-0.018": 0.0,
			"-0.017": 0.0,
			"-0.016": 0.0,
			"-0.015": 0.0,
			"-0.014": 0.0,
			"-0.013": 0.0,
			"-0.012": 0.0,
			"-0.011": 0.0,
			"-0.01": 0.0,
			"-0.009": 0.383927351266,
			"-0.008": 3.67783254083,
			"-0.007": 5.97779522009,
			"-0.006": 12.9968749981,
			"-0.005": 21.2033474279,
			"-0.004": 25.6118590143,
			"-0.003": 26.8417504564,
			"-0.002": 38.8307914347,
			"-0.001": 41.2531555024,
			"0.0": 40.0529866526,
			"0.001": 36.9274060985,
			"0.002": 24.438705691,
			"0.003": 20.5601529807,
			"0.004": 16.0246398887,
			"0.005": 7.07535796227,
			"0.006": 4.75737797401,
			"0.007": 5.15493035679,
			"0.008": 3.38449847064,
			"0.009": 2.91693826341,
			"0.01": 3.08079826567,
			"0.011": 3.85667245245,
			"0.012": 2.55478353378,
			"0.013": 4.19233512738,
			"0.014": 2.81439670753,
			"0.015": 0.09319437554,
			"0.016": 0.0,
			"0.017": 0.0,
			"0.018": 0.0,
			"0.019": 0.0,
			"0.02": 0.0,
			"0.021": 0.0,
			"0.022": 0.0,
			"0.023": 0.0,
			"0.024": 0.0,
			"0.025": 0.0
		}
	}
}
