{
	 "smiles": "COC1=CC(NC2=NN=C(SCC(O)=O)S2)=CC=C1", 
	 "Tm": 409.15, 
	 "num_atms": 30, 
	 "gaussian": { 
		 "optdone": 1, 
		 "sigma_profile": "yes", 
		 "theory": "DFT", 
		 "functional": "B3LYP", 
		 "basiset": "6-31G**", 
		 "properties": { 
			 "R2extent": 10532.3801, 
			 "electric_dipole_moment_norm": 3.50844514137, 
			 "electric_quadrupole_moment_norm": 13.0794060159, 
			 "total_energy": -1612.06164316, 
			 "HOMO_LUMO_gap": 0.17496, 
			 "cosmo_polarized_energy": -23.43, 
			 "cosmo_cavitation_energy": 38.85, 
			 "cosmo_dispersion_energy": -29.18, 
			 "cosmo_repulsion_energy": 2.18, 
			 "cosmo_total_nonelectrostatic_energy": 11.86, 
			 "SMD_solvation_energy": 6.56 
		},
		"coords": [
			{
				"x": -3.2311991176,
				"y": 3.0614765595,
				"z": -0.1531145119,
				"element": "C" 
			},
			{
				"x": -2.1266194971,
				"y": 2.1955021666,
				"z": 0.0490645191,
				"element": "O" 
			},
			{
				"x": -2.3643446699,
				"y": 0.8570780439,
				"z": 0.1581816654,
				"element": "C" 
			},
			{
				"x": -1.2173093567,
				"y": 0.0730042114,
				"z": 0.3548617301,
				"element": "C" 
			},
			{
				"x": -1.3479266059,
				"y": -1.3097310238,
				"z": 0.4796782491,
				"element": "C" 
			},
			{
				"x": -0.2518520342,
				"y": -2.1745710799,
				"z": 0.6793276656,
				"element": "N" 
			},
			{
				"x": 1.0779550187,
				"y": -1.8786958993,
				"z": 0.7876428998,
				"element": "C" 
			},
			{
				"x": 1.6219706648,
				"y": -0.694693594,
				"z": 0.7248969707,
				"element": "N" 
			},
			{
				"x": 2.9864240436,
				"y": -0.7256086274,
				"z": 0.8734555423,
				"element": "N" 
			},
			{
				"x": 3.4685686146,
				"y": -1.9160005882,
				"z": 1.0430413652,
				"element": "C" 
			},
			{
				"x": 5.1753580018,
				"y": -2.2941558462,
				"z": 1.2619871999,
				"element": "S" 
			},
			{
				"x": 5.8608271939,
				"y": -0.6107615748,
				"z": 1.0756631504,
				"element": "C" 
			},
			{
				"x": 5.5549732202,
				"y": 0.4205888344,
				"z": 2.153367396,
				"element": "C" 
			},
			{
				"x": 5.1770649702,
				"y": -0.1081165554,
				"z": 3.3314553035,
				"element": "O" 
			},
			{
				"x": 5.7017290405,
				"y": 1.6056987774,
				"z": 1.9651908703,
				"element": "O" 
			},
			{
				"x": 2.2494092177,
				"y": -3.1970982915,
				"z": 1.0429367911,
				"element": "S" 
			},
			{
				"x": -2.620032704,
				"y": -1.9110015825,
				"z": 0.408510098,
				"element": "C" 
			},
			{
				"x": -3.740082096,
				"y": -1.1161832163,
				"z": 0.213433833,
				"element": "C" 
			},
			{
				"x": -3.633596635,
				"y": 0.2724178687,
				"z": 0.0856458073,
				"element": "C" 
			},
			{
				"x": -3.9435098691,
				"y": 3.0125898864,
				"z": 0.6807677827,
				"element": "H" 
			},
			{
				"x": -3.7592285918,
				"y": 2.8344992745,
				"z": -1.0884003772,
				"element": "H" 
			},
			{
				"x": -2.8165343785,
				"y": 4.068986322,
				"z": -0.2113484067,
				"element": "H" 
			},
			{
				"x": -0.2483300772,
				"y": 0.5491240983,
				"z": 0.4068486371,
				"element": "H" 
			},
			{
				"x": -0.4924252682,
				"y": -3.1509957616,
				"z": 0.7514027067,
				"element": "H" 
			},
			{
				"x": 5.5453287013,
				"y": -0.1855637027,
				"z": 0.1226955537,
				"element": "H" 
			},
			{
				"x": 6.9454570084,
				"y": -0.7579826159,
				"z": 1.044813589,
				"element": "H" 
			},
			{
				"x": 5.017381164,
				"y": 0.6457506527,
				"z": 3.9238515893,
				"element": "H" 
			},
			{
				"x": -2.7213621633,
				"y": -2.9890269326,
				"z": 0.5057891229,
				"element": "H" 
			},
			{
				"x": -4.7201650277,
				"y": -1.5811268089,
				"z": 0.1587046112,
				"element": "H" 
			},
			{
				"x": -4.5236287675,
				"y": 0.8698970055,
				"z": -0.0659513535,
				"element": "H" 
			}
		],
		 "valence_orbital": [ 
			{
				"type": "occ",
				"energy": -0.27677,
				"method": "rhf"
			},
			{
				"type": "occ",
				"energy": -0.26513,
				"method": "rhf"
			},
			{
				"type": "occ",
				"energy": -0.24278,
				"method": "rhf"
			},
			{
				"type": "occ",
				"energy": -0.22323,
				"method": "rhf"
			},
			{
				"type": "occ",
				"energy": -0.20429,
				"method": "rhf"
			},
			{
				"type": "unocc",
				"energy": -0.02933,
				"method": "rhf"
			},
			{
				"type": "unocc",
				"energy": -0.02306,
				"method": "rhf"
			},
			{
				"type": "unocc",
				"energy": 0.00211,
				"method": "rhf"
			},
			{
				"type": "unocc",
				"energy": 0.00521,
				"method": "rhf"
			},
			{
				"type": "unocc",
				"energy": 0.01234,
				"method": "rhf"
			}
		],
		"cosmo_sigma_profile": { 
			"-0.025": 0.0,
			"-0.024": 0.0,
			"-0.023": 0.0,
			"-0.022": 0.0,
			"-0.021": 0.0,
			"-0.02": 0.0,
			"-0.019": 0.249740017866,
			"-0.018": 1.02257405391,
			"-0.017": 1.78813371123,
			"-0.016": 2.22575702507,
			"-0.015": 2.34882185478,
			"-0.014": 1.57965577049,
			"-0.013": 1.62823480248,
			"-0.012": 2.56299883026,
			"-0.011": 2.51552647473,
			"-0.01": 5.37903724016,
			"-0.009": 3.69582303452,
			"-0.008": 5.012943291,
			"-0.007": 5.71904003916,
			"-0.006": 12.4977641307,
			"-0.005": 21.5154776364,
			"-0.004": 19.1509590158,
			"-0.003": 19.4620536338,
			"-0.002": 17.8190087751,
			"-0.001": 19.3188719655,
			"0.0": 18.2335660406,
			"0.001": 18.5068837242,
			"0.002": 20.3150839427,
			"0.003": 17.4761265408,
			"0.004": 20.0128291496,
			"0.005": 18.9529500921,
			"0.006": 13.3853051356,
			"0.007": 8.08034295068,
			"0.008": 7.50650131718,
			"0.009": 7.53043741304,
			"0.01": 7.83568427771,
			"0.011": 8.36914910114,
			"0.012": 3.0714107742,
			"0.013": 0.0772979364696,
			"0.014": 0.0,
			"0.015": 0.0,
			"0.016": 0.0,
			"0.017": 0.0,
			"0.018": 0.0,
			"0.019": 0.0,
			"0.02": 0.0,
			"0.021": 0.0,
			"0.022": 0.0,
			"0.023": 0.0,
			"0.024": 0.0,
			"0.025": 0.0
		}
	}
}
