{
	 "smiles": "NNC1=NC=NC2=C1C(=CS2)C1=CC=CC=C1", 
	 "Tm": 424.15, 
	 "num_atms": 27, 
	 "gaussian": { 
		 "optdone": 1, 
		 "sigma_profile": "yes", 
		 "theory": "DFT", 
		 "functional": "B3LYP", 
		 "basiset": "6-31G**", 
		 "properties": { 
			 "R2extent": 4553.4565, 
			 "electric_dipole_moment_norm": 3.59665298854, 
			 "electric_quadrupole_moment_norm": 6.45230732994, 
			 "total_energy": -1080.46547102, 
			 "HOMO_LUMO_gap": 0.17244, 
			 "cosmo_polarized_energy": -11.74, 
			 "cosmo_cavitation_energy": 32.08, 
			 "cosmo_dispersion_energy": -23.72, 
			 "cosmo_repulsion_energy": 1.76, 
			 "cosmo_total_nonelectrostatic_energy": 10.12, 
			 "SMD_solvation_energy": 2.25 
		},
		"coords": [
			{
				"x": -0.6014163398,
				"y": -0.1070522357,
				"z": -3.1324832494,
				"element": "N" 
			},
			{
				"x": -1.2364059647,
				"y": 1.0996392841,
				"z": -2.7497434159,
				"element": "N" 
			},
			{
				"x": -0.6477462065,
				"y": 2.0065387914,
				"z": -1.8899085923,
				"element": "C" 
			},
			{
				"x": -0.791862422,
				"y": 3.2895308597,
				"z": -2.2608565382,
				"element": "N" 
			},
			{
				"x": -0.1673092296,
				"y": 4.2332611731,
				"z": -1.5524307871,
				"element": "C" 
			},
			{
				"x": 0.6568522698,
				"y": 4.0520039301,
				"z": -0.5208892887,
				"element": "N" 
			},
			{
				"x": 0.7367298606,
				"y": 2.7802649891,
				"z": -0.124656212,
				"element": "C" 
			},
			{
				"x": 0.0610372343,
				"y": 1.6743640394,
				"z": -0.6977523903,
				"element": "C" 
			},
			{
				"x": 0.2756480842,
				"y": 0.4517617812,
				"z": 0.0647342602,
				"element": "C" 
			},
			{
				"x": 1.1511094124,
				"y": 0.6618456718,
				"z": 1.0950258628,
				"element": "C" 
			},
			{
				"x": 1.7191640875,
				"y": 2.3011676618,
				"z": 1.2473128038,
				"element": "S" 
			},
			{
				"x": -0.4224312658,
				"y": -0.8486302649,
				"z": -0.0817631116,
				"element": "C" 
			},
			{
				"x": -1.8227437842,
				"y": -0.9042319318,
				"z": -0.2103845022,
				"element": "C" 
			},
			{
				"x": -2.4800373746,
				"y": -2.1322750446,
				"z": -0.2815335452,
				"element": "C" 
			},
			{
				"x": -1.7563415176,
				"y": -3.3256980519,
				"z": -0.216058616,
				"element": "C" 
			},
			{
				"x": -0.367530908,
				"y": -3.2826245175,
				"z": -0.0820172589,
				"element": "C" 
			},
			{
				"x": 0.293923731,
				"y": -2.0558984899,
				"z": -0.0175678166,
				"element": "C" 
			},
			{
				"x": -0.8762429622,
				"y": -0.8427535752,
				"z": -2.4902593411,
				"element": "H" 
			},
			{
				"x": 0.4111375131,
				"y": -0.0038202841,
				"z": -3.0803328502,
				"element": "H" 
			},
			{
				"x": -1.6265128036,
				"y": 1.5838386758,
				"z": -3.5511588379,
				"element": "H" 
			},
			{
				"x": -0.3239779436,
				"y": 5.2601839057,
				"z": -1.8760535676,
				"element": "H" 
			},
			{
				"x": 1.438677483,
				"y": -0.0681729079,
				"z": 1.8393895707,
				"element": "H" 
			},
			{
				"x": -2.3918970312,
				"y": 0.0187299333,
				"z": -0.2546844071,
				"element": "H" 
			},
			{
				"x": -3.5613245634,
				"y": -2.1560117789,
				"z": -0.3814220411,
				"element": "H" 
			},
			{
				"x": -2.2709937236,
				"y": -4.2802635203,
				"z": -0.2718446019,
				"element": "H" 
			},
			{
				"x": 0.2045952424,
				"y": -4.2048516885,
				"z": -0.036288986,
				"element": "H" 
			},
			{
				"x": 1.3763991224,
				"y": -2.0259464055,
				"z": 0.0677274598,
				"element": "H" 
			}
		],
		 "valence_orbital": [ 
			{
				"type": "occ",
				"energy": -0.26731,
				"method": "rhf"
			},
			{
				"type": "occ",
				"energy": -0.2645,
				"method": "rhf"
			},
			{
				"type": "occ",
				"energy": -0.25675,
				"method": "rhf"
			},
			{
				"type": "occ",
				"energy": -0.25171,
				"method": "rhf"
			},
			{
				"type": "occ",
				"energy": -0.21604,
				"method": "rhf"
			},
			{
				"type": "unocc",
				"energy": -0.0436,
				"method": "rhf"
			},
			{
				"type": "unocc",
				"energy": -0.0261,
				"method": "rhf"
			},
			{
				"type": "unocc",
				"energy": -0.02066,
				"method": "rhf"
			},
			{
				"type": "unocc",
				"energy": -0.01608,
				"method": "rhf"
			},
			{
				"type": "unocc",
				"energy": 0.02017,
				"method": "rhf"
			}
		],
		"cosmo_sigma_profile": { 
			"-0.025": 0.0,
			"-0.024": 0.0,
			"-0.023": 0.0,
			"-0.022": 0.0,
			"-0.021": 0.0,
			"-0.02": 0.0,
			"-0.019": 0.0,
			"-0.018": 0.0,
			"-0.017": 0.0,
			"-0.016": 0.0,
			"-0.015": 0.0,
			"-0.014": 0.0,
			"-0.013": 0.081284334592,
			"-0.012": 1.0850167371,
			"-0.011": 1.92660811435,
			"-0.01": 1.69712962043,
			"-0.009": 3.26919359302,
			"-0.008": 4.72599247196,
			"-0.007": 5.96739750644,
			"-0.006": 12.6401918745,
			"-0.005": 17.3308298468,
			"-0.004": 19.1277078432,
			"-0.003": 16.2549178981,
			"-0.002": 16.572129991,
			"-0.001": 17.6419758102,
			"0.0": 23.1088576289,
			"0.001": 22.6410245532,
			"0.002": 24.1302330556,
			"0.003": 21.48594249,
			"0.004": 14.9714890765,
			"0.005": 8.98455325904,
			"0.006": 4.42225860022,
			"0.007": 3.90221357782,
			"0.008": 2.53877483063,
			"0.009": 1.78977737802,
			"0.01": 2.68594380105,
			"0.011": 3.27837484658,
			"0.012": 1.84242612265,
			"0.013": 2.52075931387,
			"0.014": 1.42651812637,
			"0.015": 1.23508948545,
			"0.016": 0.457114036804,
			"0.017": 0.0521139807204,
			"0.018": 0.0,
			"0.019": 0.0,
			"0.02": 0.0,
			"0.021": 0.0,
			"0.022": 0.0,
			"0.023": 0.0,
			"0.024": 0.0,
			"0.025": 0.0
		}
	}
}
