{
	 "smiles": "NC(CSCC1=C2N=CC=CC2=CC=C1)C(O)=O", 
	 "Tm": 445.15, 
	 "num_atms": 32, 
	 "gaussian": { 
		 "optdone": 1, 
		 "sigma_profile": "yes", 
		 "theory": "DFT", 
		 "functional": "B3LYP", 
		 "basiset": "6-31G**", 
		 "properties": { 
			 "R2extent": 6577.4293, 
			 "electric_dipole_moment_norm": 1.67101108614, 
			 "electric_quadrupole_moment_norm": 17.173588268, 
			 "total_energy": -1161.97620274, 
			 "HOMO_LUMO_gap": 0.15761, 
			 "cosmo_polarized_energy": -16.98, 
			 "cosmo_cavitation_energy": 36.94, 
			 "cosmo_dispersion_energy": -26.32, 
			 "cosmo_repulsion_energy": 1.99, 
			 "cosmo_total_nonelectrostatic_energy": 12.62, 
			 "SMD_solvation_energy": 5.34 
		},
		"coords": [
			{
				"x": 2.384762556,
				"y": 1.7893505502,
				"z": 1.8063909061,
				"element": "N" 
			},
			{
				"x": 1.0960102769,
				"y": 2.4093677197,
				"z": 1.4903228226,
				"element": "C" 
			},
			{
				"x": 0.4737255147,
				"y": 1.787910682,
				"z": 0.2341474897,
				"element": "C" 
			},
			{
				"x": 1.530053796,
				"y": 1.9571959318,
				"z": -1.2615611701,
				"element": "S" 
			},
			{
				"x": 2.4523067982,
				"y": 0.3380221605,
				"z": -1.2690781432,
				"element": "C" 
			},
			{
				"x": 1.9201593751,
				"y": -0.6655020798,
				"z": -2.2568124536,
				"element": "C" 
			},
			{
				"x": 0.8589747631,
				"y": -1.559003977,
				"z": -1.8984298779,
				"element": "C" 
			},
			{
				"x": 0.3380340463,
				"y": -1.4884980047,
				"z": -0.6390557463,
				"element": "N" 
			},
			{
				"x": -0.6349363128,
				"y": -2.3163271449,
				"z": -0.3124607275,
				"element": "C" 
			},
			{
				"x": -1.1797496133,
				"y": -3.283805273,
				"z": -1.1907614248,
				"element": "C" 
			},
			{
				"x": -0.6684708095,
				"y": -3.3740483831,
				"z": -2.4635369833,
				"element": "C" 
			},
			{
				"x": 0.3791441171,
				"y": -2.5051079025,
				"z": -2.8619130021,
				"element": "C" 
			},
			{
				"x": 0.9537902645,
				"y": -2.5421775765,
				"z": -4.1590876578,
				"element": "C" 
			},
			{
				"x": 1.9729663042,
				"y": -1.6779833281,
				"z": -4.4835322763,
				"element": "C" 
			},
			{
				"x": 2.4520952634,
				"y": -0.7489768403,
				"z": -3.5302744813,
				"element": "C" 
			},
			{
				"x": 0.1365278108,
				"y": 2.2545946496,
				"z": 2.6668132067,
				"element": "C" 
			},
			{
				"x": 0.7505146147,
				"y": 2.5053052517,
				"z": 3.8504411864,
				"element": "O" 
			},
			{
				"x": -1.0427448981,
				"y": 1.9920948121,
				"z": 2.59237497,
				"element": "O" 
			},
			{
				"x": 3.046132036,
				"y": 2.0574160957,
				"z": 1.0813428329,
				"element": "H" 
			},
			{
				"x": 2.7347924318,
				"y": 2.1569589796,
				"z": 2.6865278521,
				"element": "H" 
			},
			{
				"x": 1.1709689955,
				"y": 3.5033581402,
				"z": 1.3325092771,
				"element": "H" 
			},
			{
				"x": -0.4730682475,
				"y": 2.2830502435,
				"z": 0.0106192271,
				"element": "H" 
			},
			{
				"x": 0.2766180454,
				"y": 0.7241203465,
				"z": 0.3799835062,
				"element": "H" 
			},
			{
				"x": 2.4283151927,
				"y": -0.0438554164,
				"z": -0.2483597052,
				"element": "H" 
			},
			{
				"x": 3.484492185,
				"y": 0.5921347471,
				"z": -1.5233411068,
				"element": "H" 
			},
			{
				"x": -1.0238917637,
				"y": -2.2280666448,
				"z": 0.7011658141,
				"element": "H" 
			},
			{
				"x": -1.9816481332,
				"y": -3.9324386971,
				"z": -0.8530288893,
				"element": "H" 
			},
			{
				"x": -1.0538572252,
				"y": -4.1015277637,
				"z": -3.1737283185,
				"element": "H" 
			},
			{
				"x": 0.5781499164,
				"y": -3.2605563069,
				"z": -4.8830761207,
				"element": "H" 
			},
			{
				"x": 2.4191587683,
				"y": -1.7044865872,
				"z": -5.4733196035,
				"element": "H" 
			},
			{
				"x": 3.2617647363,
				"y": -0.0792070579,
				"z": -3.8090952516,
				"element": "H" 
			},
			{
				"x": 0.0685091949,
				"y": 2.4041886735,
				"z": 4.5356138487,
				"element": "H" 
			}
		],
		 "valence_orbital": [ 
			{
				"type": "occ",
				"energy": -0.25667,
				"method": "rhf"
			},
			{
				"type": "occ",
				"energy": -0.25232,
				"method": "rhf"
			},
			{
				"type": "occ",
				"energy": -0.24098,
				"method": "rhf"
			},
			{
				"type": "occ",
				"energy": -0.22975,
				"method": "rhf"
			},
			{
				"type": "occ",
				"energy": -0.21277,
				"method": "rhf"
			},
			{
				"type": "unocc",
				"energy": -0.05516,
				"method": "rhf"
			},
			{
				"type": "unocc",
				"energy": -0.01749,
				"method": "rhf"
			},
			{
				"type": "unocc",
				"energy": 0.00461,
				"method": "rhf"
			},
			{
				"type": "unocc",
				"energy": 0.01169,
				"method": "rhf"
			},
			{
				"type": "unocc",
				"energy": 0.05249,
				"method": "rhf"
			}
		],
		"cosmo_sigma_profile": { 
			"-0.025": 0.0,
			"-0.024": 0.0,
			"-0.023": 0.0,
			"-0.022": 0.0,
			"-0.021": 0.0,
			"-0.02": 0.0,
			"-0.019": 0.157363423877,
			"-0.018": 0.817375369616,
			"-0.017": 1.04673914567,
			"-0.016": 0.899162329144,
			"-0.015": 0.895492298929,
			"-0.014": 0.198369946076,
			"-0.013": 0.358189066834,
			"-0.012": 0.901216218479,
			"-0.011": 0.956715462023,
			"-0.01": 1.09290705202,
			"-0.009": 2.05441963949,
			"-0.008": 3.17887309285,
			"-0.007": 10.2664246688,
			"-0.006": 23.0279888781,
			"-0.005": 23.026580075,
			"-0.004": 21.0599898528,
			"-0.003": 17.0949962919,
			"-0.002": 15.4958250973,
			"-0.001": 16.2292202667,
			"0.0": 14.7856117538,
			"0.001": 19.746028725,
			"0.002": 28.5782278618,
			"0.003": 19.8297593037,
			"0.004": 16.5711143423,
			"0.005": 12.3923914565,
			"0.006": 9.78737955277,
			"0.007": 8.13741913681,
			"0.008": 5.79189427811,
			"0.009": 4.92741382056,
			"0.01": 4.44452820922,
			"0.011": 6.17126944373,
			"0.012": 3.28424992922,
			"0.013": 0.618649741853,
			"0.014": 0.18452298501,
			"0.015": 0.231708034397,
			"0.016": 0.818203549209,
			"0.017": 0.136102305309,
			"0.018": 0.0,
			"0.019": 0.0,
			"0.02": 0.0,
			"0.021": 0.0,
			"0.022": 0.0,
			"0.023": 0.0,
			"0.024": 0.0,
			"0.025": 0.0
		}
	}
}
