{
	 "smiles": "NC(=O)C1=CNCCC1C(F)(F)F", 
	 "Tm": 459.15, 
	 "num_atms": 22, 
	 "gaussian": { 
		 "optdone": 1, 
		 "sigma_profile": "yes", 
		 "theory": "DFT", 
		 "functional": "B3LYP", 
		 "basiset": "6-31G**", 
		 "properties": { 
			 "R2extent": 4002.9561, 
			 "electric_dipole_moment_norm": 5.21526269425, 
			 "electric_quadrupole_moment_norm": 17.6415370498, 
			 "total_energy": -756.430978251, 
			 "HOMO_LUMO_gap": 0.20611, 
			 "cosmo_polarized_energy": -17.06, 
			 "cosmo_cavitation_energy": 25.98, 
			 "cosmo_dispersion_energy": -18.59, 
			 "cosmo_repulsion_energy": 1.44, 
			 "cosmo_total_nonelectrostatic_energy": 8.83, 
			 "SMD_solvation_energy": 5.12 
		},
		"coords": [
			{
				"x": -1.8285231682,
				"y": 3.0400923901,
				"z": 2.9806447887,
				"element": "N" 
			},
			{
				"x": -1.425661744,
				"y": 1.7552226914,
				"z": 2.6535616273,
				"element": "C" 
			},
			{
				"x": -1.0566269927,
				"y": 0.9584775842,
				"z": 3.5081049203,
				"element": "O" 
			},
			{
				"x": -1.3818647893,
				"y": 1.4339484038,
				"z": 1.2005574893,
				"element": "C" 
			},
			{
				"x": -0.9523581333,
				"y": 2.3692173062,
				"z": 0.3186062562,
				"element": "C" 
			},
			{
				"x": -0.6380016027,
				"y": 2.1088175338,
				"z": -0.9971882933,
				"element": "N" 
			},
			{
				"x": -0.2965229714,
				"y": 0.7210872365,
				"z": -1.3112419517,
				"element": "C" 
			},
			{
				"x": -1.3762289204,
				"y": -0.1999368774,
				"z": -0.749524735,
				"element": "C" 
			},
			{
				"x": -1.5833504406,
				"y": -0.0089269413,
				"z": 0.7753951319,
				"element": "C" 
			},
			{
				"x": -2.9880957067,
				"y": -0.5126038268,
				"z": 1.116172709,
				"element": "C" 
			},
			{
				"x": -3.948101997,
				"y": 0.2058470189,
				"z": 0.4819629014,
				"element": "F" 
			},
			{
				"x": -3.1342746783,
				"y": -1.80197988,
				"z": 0.7212898129,
				"element": "F" 
			},
			{
				"x": -3.2690645696,
				"y": -0.4666092159,
				"z": 2.4296290772,
				"element": "F" 
			},
			{
				"x": -1.9337395573,
				"y": 3.1971918559,
				"z": 3.9740151152,
				"element": "H" 
			},
			{
				"x": -2.5172212524,
				"y": 3.4845568903,
				"z": 2.3911083873,
				"element": "H" 
			},
			{
				"x": -0.7967536825,
				"y": 3.3941546988,
				"z": 0.6428245287,
				"element": "H" 
			},
			{
				"x": -0.0581307791,
				"y": 2.8067310969,
				"z": -1.4415542117,
				"element": "H" 
			},
			{
				"x": 0.6851574861,
				"y": 0.4557823829,
				"z": -0.8860543053,
				"element": "H" 
			},
			{
				"x": -0.2337843617,
				"y": 0.6093657935,
				"z": -2.3976366677,
				"element": "H" 
			},
			{
				"x": -2.3140765674,
				"y": 0.0255348576,
				"z": -1.265621703,
				"element": "H" 
			},
			{
				"x": -1.1271953621,
				"y": -1.2423468514,
				"z": -0.9642975267,
				"element": "H" 
			},
			{
				"x": -0.9021802092,
				"y": -0.647724148,
				"z": 1.3497466489,
				"element": "H" 
			}
		],
		 "valence_orbital": [ 
			{
				"type": "occ",
				"energy": -0.34525,
				"method": "rhf"
			},
			{
				"type": "occ",
				"energy": -0.32294,
				"method": "rhf"
			},
			{
				"type": "occ",
				"energy": -0.26547,
				"method": "rhf"
			},
			{
				"type": "occ",
				"energy": -0.24022,
				"method": "rhf"
			},
			{
				"type": "occ",
				"energy": -0.21354,
				"method": "rhf"
			},
			{
				"type": "unocc",
				"energy": -0.00743,
				"method": "rhf"
			},
			{
				"type": "unocc",
				"energy": 0.05875,
				"method": "rhf"
			},
			{
				"type": "unocc",
				"energy": 0.06566,
				"method": "rhf"
			},
			{
				"type": "unocc",
				"energy": 0.09335,
				"method": "rhf"
			},
			{
				"type": "unocc",
				"energy": 0.1112,
				"method": "rhf"
			}
		],
		"cosmo_sigma_profile": { 
			"-0.025": 0.0,
			"-0.024": 0.0,
			"-0.023": 0.0,
			"-0.022": 0.0,
			"-0.021": 0.0,
			"-0.02": 0.0,
			"-0.019": 0.0,
			"-0.018": 0.0,
			"-0.017": 0.0,
			"-0.016": 0.0,
			"-0.015": 0.0,
			"-0.014": 0.588640246936,
			"-0.013": 3.35642185048,
			"-0.012": 4.18884020216,
			"-0.011": 2.68208323036,
			"-0.01": 4.07802988148,
			"-0.009": 4.59118393415,
			"-0.008": 4.38078262852,
			"-0.007": 4.60672535779,
			"-0.006": 5.18163168774,
			"-0.005": 10.3256711815,
			"-0.004": 16.6045041267,
			"-0.003": 15.1326998944,
			"-0.002": 11.8847789778,
			"-0.001": 8.68214818241,
			"0.0": 8.17362910139,
			"0.001": 7.82608717528,
			"0.002": 12.6389623266,
			"0.003": 29.5643701305,
			"0.004": 16.064656726,
			"0.005": 5.08148551835,
			"0.006": 2.9939678939,
			"0.007": 3.7631469194,
			"0.008": 2.85825705304,
			"0.009": 2.88223726182,
			"0.01": 2.52041035255,
			"0.011": 1.68446199305,
			"0.012": 1.49384839378,
			"0.013": 2.62425340687,
			"0.014": 5.18076876018,
			"0.015": 2.35306708713,
			"0.016": 0.0164897997717,
			"0.017": 0.0,
			"0.018": 0.0,
			"0.019": 0.0,
			"0.02": 0.0,
			"0.021": 0.0,
			"0.022": 0.0,
			"0.023": 0.0,
			"0.024": 0.0,
			"0.025": 0.0
		}
	}
}
