{
	 "smiles": "CCC(C)(C(N)=O)C1=CC=CC=C1", 
	 "Tm": 374.15, 
	 "num_atms": 28, 
	 "gaussian": { 
		 "optdone": 1, 
		 "sigma_profile": "yes", 
		 "theory": "DFT", 
		 "functional": "B3LYP", 
		 "basiset": "6-31G**", 
		 "properties": { 
			 "R2extent": 3177.8984, 
			 "electric_dipole_moment_norm": 3.25058113881, 
			 "electric_quadrupole_moment_norm": 11.0063333577, 
			 "total_energy": -558.2130148, 
			 "HOMO_LUMO_gap": 0.22653, 
			 "cosmo_polarized_energy": -11.6, 
			 "cosmo_cavitation_energy": 29.42, 
			 "cosmo_dispersion_energy": -20.72, 
			 "cosmo_repulsion_energy": 1.64, 
			 "cosmo_total_nonelectrostatic_energy": 10.35, 
			 "SMD_solvation_energy": 5.7 
		},
		"coords": [
			{
				"x": -0.3672902286,
				"y": -1.0080858622,
				"z": -2.4405416262,
				"element": "C" 
			},
			{
				"x": 0.3109416173,
				"y": -0.7084636663,
				"z": -1.098043963,
				"element": "C" 
			},
			{
				"x": -0.5738821252,
				"y": -0.9318971733,
				"z": 0.1643347167,
				"element": "C" 
			},
			{
				"x": -1.7800942924,
				"y": 0.0301790231,
				"z": 0.1424215272,
				"element": "C" 
			},
			{
				"x": -1.1035465579,
				"y": -2.3914031716,
				"z": 0.1094562249,
				"element": "C" 
			},
			{
				"x": -0.1593096553,
				"y": -3.3630555883,
				"z": 0.3223421503,
				"element": "N" 
			},
			{
				"x": -2.259124991,
				"y": -2.6678861484,
				"z": -0.1793721351,
				"element": "O" 
			},
			{
				"x": 0.213050044,
				"y": -0.719881944,
				"z": 1.4712287592,
				"element": "C" 
			},
			{
				"x": -0.3958296243,
				"y": -1.0622465105,
				"z": 2.6928904668,
				"element": "C" 
			},
			{
				"x": 0.2560129204,
				"y": -0.8687144538,
				"z": 3.9082881058,
				"element": "C" 
			},
			{
				"x": 1.5421162887,
				"y": -0.3226761224,
				"z": 3.9360714349,
				"element": "C" 
			},
			{
				"x": 2.1614027609,
				"y": 0.0207392279,
				"z": 2.7364962271,
				"element": "C" 
			},
			{
				"x": 1.5046531904,
				"y": -0.1773572035,
				"z": 1.517366644,
				"element": "C" 
			},
			{
				"x": -1.2261909006,
				"y": -0.3557328847,
				"z": -2.6205867296,
				"element": "H" 
			},
			{
				"x": 0.3430452001,
				"y": -0.8503351093,
				"z": -3.2584519114,
				"element": "H" 
			},
			{
				"x": -0.7186874697,
				"y": -2.0422876955,
				"z": -2.4976323647,
				"element": "H" 
			},
			{
				"x": 0.6457296308,
				"y": 0.3360940885,
				"z": -1.0958010274,
				"element": "H" 
			},
			{
				"x": 1.212780528,
				"y": -1.3260693852,
				"z": -1.0151557097,
				"element": "H" 
			},
			{
				"x": -2.4198734527,
				"y": -0.166780982,
				"z": -0.7186702538,
				"element": "H" 
			},
			{
				"x": -1.4275787483,
				"y": 1.0657988576,
				"z": 0.1054175492,
				"element": "H" 
			},
			{
				"x": -2.3962207066,
				"y": -0.0884312435,
				"z": 1.0363318588,
				"element": "H" 
			},
			{
				"x": 0.6978093291,
				"y": -3.1404008966,
				"z": 0.8049786595,
				"element": "H" 
			},
			{
				"x": -0.4978971978,
				"y": -4.3124982087,
				"z": 0.3802092596,
				"element": "H" 
			},
			{
				"x": -1.3950283975,
				"y": -1.4908166801,
				"z": 2.6883963621,
				"element": "H" 
			},
			{
				"x": -0.2400632387,
				"y": -1.1445860721,
				"z": 4.8346954042,
				"element": "H" 
			},
			{
				"x": 2.0529961847,
				"y": -0.1690962948,
				"z": 4.8821698224,
				"element": "H" 
			},
			{
				"x": 3.1610842123,
				"y": 0.4464283645,
				"z": 2.7413046664,
				"element": "H" 
			},
			{
				"x": 2.0140956798,
				"y": 0.1027637352,
				"z": 0.6024558819,
				"element": "H" 
			}
		],
		 "valence_orbital": [ 
			{
				"type": "occ",
				"energy": -0.31909,
				"method": "rhf"
			},
			{
				"type": "occ",
				"energy": -0.26867,
				"method": "rhf"
			},
			{
				"type": "occ",
				"energy": -0.25558,
				"method": "rhf"
			},
			{
				"type": "occ",
				"energy": -0.25182,
				"method": "rhf"
			},
			{
				"type": "occ",
				"energy": -0.23529,
				"method": "rhf"
			},
			{
				"type": "unocc",
				"energy": -0.00876,
				"method": "rhf"
			},
			{
				"type": "unocc",
				"energy": -0.00528,
				"method": "rhf"
			},
			{
				"type": "unocc",
				"energy": 0.02864,
				"method": "rhf"
			},
			{
				"type": "unocc",
				"energy": 0.08147,
				"method": "rhf"
			},
			{
				"type": "unocc",
				"energy": 0.09443,
				"method": "rhf"
			}
		],
		"cosmo_sigma_profile": { 
			"-0.025": 0.0,
			"-0.024": 0.0,
			"-0.023": 0.0,
			"-0.022": 0.0,
			"-0.021": 0.0,
			"-0.02": 0.0,
			"-0.019": 0.0,
			"-0.018": 0.0,
			"-0.017": 0.0,
			"-0.016": 0.0,
			"-0.015": 0.0,
			"-0.014": 0.29704188725,
			"-0.013": 1.16880437771,
			"-0.012": 2.05134641032,
			"-0.011": 2.13173733815,
			"-0.01": 1.73008145813,
			"-0.009": 1.8057377943,
			"-0.008": 2.12669121784,
			"-0.007": 2.34255444649,
			"-0.006": 4.51606338222,
			"-0.005": 11.8865129549,
			"-0.004": 15.9517471889,
			"-0.003": 27.4329459224,
			"-0.002": 21.1162589574,
			"-0.001": 22.9205131916,
			"0.0": 20.2053936842,
			"0.001": 22.4351799448,
			"0.002": 13.5734883721,
			"0.003": 10.479040932,
			"0.004": 9.5510998247,
			"0.005": 9.82784416205,
			"0.006": 8.11992165963,
			"0.007": 1.96445572022,
			"0.008": 1.88674289241,
			"0.009": 1.25220467374,
			"0.01": 1.75245213323,
			"0.011": 1.25308619645,
			"0.012": 1.77976644995,
			"0.013": 3.28255677287,
			"0.014": 4.82928429074,
			"0.015": 0.766623844416,
			"0.016": 0.0,
			"0.017": 0.0,
			"0.018": 0.0,
			"0.019": 0.0,
			"0.02": 0.0,
			"0.021": 0.0,
			"0.022": 0.0,
			"0.023": 0.0,
			"0.024": 0.0,
			"0.025": 0.0
		}
	}
}
