{
	 "smiles": "[O-][N+](=O)C1=C(C=CC(Br)=C1)S(Cl)(=O)=O", 
	 "Tm": 369.15, 
	 "num_atms": 17, 
	 "gaussian": { 
		 "optdone": 1, 
		 "sigma_profile": "yes", 
		 "theory": "DFT", 
		 "functional": "B3LYP", 
		 "basiset": "6-31G**", 
		 "properties": { 
			 "R2extent": 6311.3603, 
			 "electric_dipole_moment_norm": 5.73436905509, 
			 "electric_quadrupole_moment_norm": 12.6866088361, 
			 "total_energy": -4015.68043123, 
			 "HOMO_LUMO_gap": 0.17261, 
			 "cosmo_polarized_energy": -12.71, 
			 "cosmo_cavitation_energy": 28.24, 
			 "cosmo_dispersion_energy": -21.54, 
			 "cosmo_repulsion_energy": 1.64, 
			 "cosmo_total_nonelectrostatic_energy": 8.34, 
			 "SMD_solvation_energy": 4.58 
		},
		"coords": [
			{
				"x": 2.2455887462,
				"y": 3.0177552378,
				"z": -1.2217562719,
				"element": "O" 
			},
			{
				"x": 2.1737418026,
				"y": 2.8918295035,
				"z": -0.0063250645,
				"element": "N" 
			},
			{
				"x": 2.6238475085,
				"y": 3.6682954486,
				"z": 0.8302004306,
				"element": "O" 
			},
			{
				"x": 1.4241535008,
				"y": 1.7238070709,
				"z": 0.5043505602,
				"element": "C" 
			},
			{
				"x": 1.3955036038,
				"y": 0.4792945304,
				"z": -0.1438960601,
				"element": "C" 
			},
			{
				"x": 0.6040163855,
				"y": -0.5403438873,
				"z": 0.3887637701,
				"element": "C" 
			},
			{
				"x": -0.161771068,
				"y": -0.3253778611,
				"z": 1.5335161037,
				"element": "C" 
			},
			{
				"x": -0.1098050891,
				"y": 0.9139399101,
				"z": 2.1680001773,
				"element": "C" 
			},
			{
				"x": -1.1317065829,
				"y": 1.2172362001,
				"z": 3.736310912,
				"element": "Br" 
			},
			{
				"x": 0.6898064806,
				"y": 1.9393396724,
				"z": 1.6651047078,
				"element": "C" 
			},
			{
				"x": 2.4507039228,
				"y": -0.0170000753,
				"z": -1.5318165119,
				"element": "S" 
			},
			{
				"x": 1.4085450733,
				"y": 0.7188948891,
				"z": -3.205207924,
				"element": "Cl" 
			},
			{
				"x": 2.3554126083,
				"y": -1.4688357286,
				"z": -1.6280497841,
				"element": "O" 
			},
			{
				"x": 3.7362724548,
				"y": 0.65461043,
				"z": -1.4384366299,
				"element": "O" 
			},
			{
				"x": 0.6054597229,
				"y": -1.51109272,
				"z": -0.092441874,
				"element": "H" 
			},
			{
				"x": -0.7800554867,
				"y": -1.1206975666,
				"z": 1.9324965643,
				"element": "H" 
			},
			{
				"x": 0.7508864163,
				"y": 2.903444946,
				"z": 2.1528868943,
				"element": "H" 
			}
		],
		 "valence_orbital": [ 
			{
				"type": "occ",
				"energy": -0.32917,
				"method": "rhf"
			},
			{
				"type": "occ",
				"energy": -0.32478,
				"method": "rhf"
			},
			{
				"type": "occ",
				"energy": -0.32239,
				"method": "rhf"
			},
			{
				"type": "occ",
				"energy": -0.3086,
				"method": "rhf"
			},
			{
				"type": "occ",
				"energy": -0.29431,
				"method": "rhf"
			},
			{
				"type": "unocc",
				"energy": -0.1217,
				"method": "rhf"
			},
			{
				"type": "unocc",
				"energy": -0.09522,
				"method": "rhf"
			},
			{
				"type": "unocc",
				"energy": -0.07282,
				"method": "rhf"
			},
			{
				"type": "unocc",
				"energy": -0.05007,
				"method": "rhf"
			},
			{
				"type": "unocc",
				"energy": -0.03061,
				"method": "rhf"
			}
		],
		"cosmo_sigma_profile": { 
			"-0.025": 0.0,
			"-0.024": 0.0,
			"-0.023": 0.0,
			"-0.022": 0.0,
			"-0.021": 0.0,
			"-0.02": 0.0,
			"-0.019": 0.0,
			"-0.018": 0.0,
			"-0.017": 0.0,
			"-0.016": 0.0,
			"-0.015": 0.0,
			"-0.014": 0.0,
			"-0.013": 0.0,
			"-0.012": 0.0,
			"-0.011": 0.0719704447854,
			"-0.01": 3.87077549673,
			"-0.009": 6.19329193046,
			"-0.008": 5.74214498348,
			"-0.007": 7.24912619571,
			"-0.006": 9.81484258063,
			"-0.005": 10.5621396782,
			"-0.004": 13.916532428,
			"-0.003": 20.2947557335,
			"-0.002": 21.1634720927,
			"-0.001": 12.6091441648,
			"0.0": 11.7530559206,
			"0.001": 15.0741291189,
			"0.002": 20.8522910732,
			"0.003": 18.3754859367,
			"0.004": 7.7598307563,
			"0.005": 7.77368813049,
			"0.006": 13.047037167,
			"0.007": 14.1126883538,
			"0.008": 11.7945980616,
			"0.009": 2.09067422528,
			"0.01": 0.0,
			"0.011": 0.0,
			"0.012": 0.0,
			"0.013": 0.0,
			"0.014": 0.0,
			"0.015": 0.0,
			"0.016": 0.0,
			"0.017": 0.0,
			"0.018": 0.0,
			"0.019": 0.0,
			"0.02": 0.0,
			"0.021": 0.0,
			"0.022": 0.0,
			"0.023": 0.0,
			"0.024": 0.0,
			"0.025": 0.0
		}
	}
}
