{
	 "smiles": "COC1=C(C)C=C(C=C1C)C(O)=O", 
	 "Tm": 465.15, 
	 "num_atms": 25, 
	 "gaussian": { 
		 "optdone": 1, 
		 "sigma_profile": "yes", 
		 "theory": "DFT", 
		 "functional": "B3LYP", 
		 "basiset": "6-31G**", 
		 "properties": { 
			 "R2extent": 3362.4318, 
			 "electric_dipole_moment_norm": 2.63619428154, 
			 "electric_quadrupole_moment_norm": 11.8666292008, 
			 "total_energy": -613.986114655, 
			 "HOMO_LUMO_gap": 0.20003, 
			 "cosmo_polarized_energy": -10.39, 
			 "cosmo_cavitation_energy": 28.58, 
			 "cosmo_dispersion_energy": -20.48, 
			 "cosmo_repulsion_energy": 1.62, 
			 "cosmo_total_nonelectrostatic_energy": 9.72, 
			 "SMD_solvation_energy": 6.91 
		},
		"coords": [
			{
				"x": -0.174224254,
				"y": 1.894065385,
				"z": 3.5620704316,
				"element": "C" 
			},
			{
				"x": -0.7357561937,
				"y": 0.594030234,
				"z": 3.3809955826,
				"element": "O" 
			},
			{
				"x": -0.3124032728,
				"y": -0.0750551816,
				"z": 2.2477254409,
				"element": "C" 
			},
			{
				"x": 0.8444400801,
				"y": -0.8735072793,
				"z": 2.3118964499,
				"element": "C" 
			},
			{
				"x": 1.6408554898,
				"y": -0.9793165522,
				"z": 3.5898318237,
				"element": "C" 
			},
			{
				"x": 1.2166867753,
				"y": -1.5774417998,
				"z": 1.1663992213,
				"element": "C" 
			},
			{
				"x": 0.4619661318,
				"y": -1.4961087408,
				"z": -0.0091038161,
				"element": "C" 
			},
			{
				"x": -0.6969221078,
				"y": -0.7102942371,
				"z": -0.0393399441,
				"element": "C" 
			},
			{
				"x": -1.1017680675,
				"y": 0.0091007768,
				"z": 1.0861371888,
				"element": "C" 
			},
			{
				"x": -2.3620413088,
				"y": 0.8397785189,
				"z": 1.0769162237,
				"element": "C" 
			},
			{
				"x": 0.921434141,
				"y": -2.2749201589,
				"z": -1.1856022223,
				"element": "C" 
			},
			{
				"x": 0.1150494689,
				"y": -2.1329205549,
				"z": -2.2703102185,
				"element": "O" 
			},
			{
				"x": 1.9134203193,
				"y": -2.9782967743,
				"z": -1.2151252229,
				"element": "O" 
			},
			{
				"x": 0.9160149818,
				"y": 1.8525341394,
				"z": 3.6751185953,
				"element": "H" 
			},
			{
				"x": -0.6138914134,
				"y": 2.297345409,
				"z": 4.4766072695,
				"element": "H" 
			},
			{
				"x": -0.416077541,
				"y": 2.557646347,
				"z": 2.7224395199,
				"element": "H" 
			},
			{
				"x": 0.9812485262,
				"y": -0.989876547,
				"z": 4.461403516,
				"element": "H" 
			},
			{
				"x": 2.3272343343,
				"y": -0.1322651006,
				"z": 3.712715247,
				"element": "H" 
			},
			{
				"x": 2.2456818846,
				"y": -1.8897491085,
				"z": 3.5942307917,
				"element": "H" 
			},
			{
				"x": 2.0991374869,
				"y": -2.209516533,
				"z": 1.1715193985,
				"element": "H" 
			},
			{
				"x": -1.2888560647,
				"y": -0.6655259383,
				"z": -0.9471457968,
				"element": "H" 
			},
			{
				"x": -2.1420465024,
				"y": 1.9141160098,
				"z": 1.0748542389,
				"element": "H" 
			},
			{
				"x": -2.960797669,
				"y": 0.6252691283,
				"z": 0.1880560913,
				"element": "H" 
			},
			{
				"x": -2.9686522452,
				"y": 0.6421301834,
				"z": 1.9651506694,
				"element": "H" 
			},
			{
				"x": 0.5147670207,
				"y": -2.6830216252,
				"z": -2.9635404792,
				"element": "H" 
			}
		],
		 "valence_orbital": [ 
			{
				"type": "occ",
				"energy": -0.31161,
				"method": "rhf"
			},
			{
				"type": "occ",
				"energy": -0.27753,
				"method": "rhf"
			},
			{
				"type": "occ",
				"energy": -0.26983,
				"method": "rhf"
			},
			{
				"type": "occ",
				"energy": -0.24489,
				"method": "rhf"
			},
			{
				"type": "occ",
				"energy": -0.24088,
				"method": "rhf"
			},
			{
				"type": "unocc",
				"energy": -0.04085,
				"method": "rhf"
			},
			{
				"type": "unocc",
				"energy": -0.00247,
				"method": "rhf"
			},
			{
				"type": "unocc",
				"energy": 0.0573,
				"method": "rhf"
			},
			{
				"type": "unocc",
				"energy": 0.07972,
				"method": "rhf"
			},
			{
				"type": "unocc",
				"energy": 0.08349,
				"method": "rhf"
			}
		],
		"cosmo_sigma_profile": { 
			"-0.025": 0.0,
			"-0.024": 0.0,
			"-0.023": 0.0,
			"-0.022": 0.0,
			"-0.021": 0.0,
			"-0.02": 0.0,
			"-0.019": 0.0,
			"-0.018": 0.567430244881,
			"-0.017": 0.825111045995,
			"-0.016": 1.13791596697,
			"-0.015": 0.515861068624,
			"-0.014": 0.380574951836,
			"-0.013": 0.684341433861,
			"-0.012": 0.908767066113,
			"-0.011": 1.04881819413,
			"-0.01": 0.871792329592,
			"-0.009": 0.304009526429,
			"-0.008": 0.291257057536,
			"-0.007": 0.682992832147,
			"-0.006": 3.97288047961,
			"-0.005": 15.4458016407,
			"-0.004": 19.4740569979,
			"-0.003": 21.8139381761,
			"-0.002": 21.3879654834,
			"-0.001": 21.1950228785,
			"0.0": 24.7208949141,
			"0.001": 14.3591312137,
			"0.002": 15.6785868023,
			"0.003": 16.392959153,
			"0.004": 11.5118487655,
			"0.005": 3.92987644323,
			"0.006": 4.2620153121,
			"0.007": 4.23263764267,
			"0.008": 4.10305333719,
			"0.009": 2.10585960352,
			"0.01": 2.89060645853,
			"0.011": 4.01812100852,
			"0.012": 5.42822222507,
			"0.013": 0.483287647359,
			"0.014": 0.0,
			"0.015": 0.0,
			"0.016": 0.0,
			"0.017": 0.0,
			"0.018": 0.0,
			"0.019": 0.0,
			"0.02": 0.0,
			"0.021": 0.0,
			"0.022": 0.0,
			"0.023": 0.0,
			"0.024": 0.0,
			"0.025": 0.0
		}
	}
}
