{
	 "smiles": "COC(=O)C1CC2=C(C=CC=C2)N1C(=O)OC(C)(C)C", 
	 "Tm": 347.15, 
	 "num_atms": 39, 
	 "gaussian": { 
		 "optdone": 1, 
		 "sigma_profile": "yes", 
		 "theory": "DFT", 
		 "functional": "B3LYP", 
		 "basiset": "6-31G**", 
		 "properties": { 
			 "R2extent": 5809.8108, 
			 "electric_dipole_moment_norm": 1.1944659518, 
			 "electric_quadrupole_moment_norm": 14.7732569997, 
			 "total_energy": -938.742180242, 
			 "HOMO_LUMO_gap": 0.20567, 
			 "cosmo_polarized_energy": -12.45, 
			 "cosmo_cavitation_energy": 41.27, 
			 "cosmo_dispersion_energy": -27.29, 
			 "cosmo_repulsion_energy": 2.11, 
			 "cosmo_total_nonelectrostatic_energy": 16.09, 
			 "SMD_solvation_energy": 8.93 
		},
		"coords": [
			{
				"x": 1.6541694145,
				"y": -1.4614224554,
				"z": 2.3668500733,
				"element": "C" 
			},
			{
				"x": 0.553154174,
				"y": -1.0977765342,
				"z": 1.5163273193,
				"element": "O" 
			},
			{
				"x": -0.108203594,
				"y": 0.0149163164,
				"z": 1.8777391876,
				"element": "C" 
			},
			{
				"x": 0.1610955148,
				"y": 0.6856981444,
				"z": 2.8502905921,
				"element": "O" 
			},
			{
				"x": -1.3010015893,
				"y": 0.3193942688,
				"z": 0.9691836985,
				"element": "C" 
			},
			{
				"x": -2.6101611214,
				"y": -0.3099621763,
				"z": 1.5407674398,
				"element": "C" 
			},
			{
				"x": -2.9231586613,
				"y": -1.4222118002,
				"z": 0.5670466302,
				"element": "C" 
			},
			{
				"x": -2.0821481824,
				"y": -1.3337405742,
				"z": -0.5503091938,
				"element": "C" 
			},
			{
				"x": -2.1958398655,
				"y": -2.2231608199,
				"z": -1.6189503258,
				"element": "C" 
			},
			{
				"x": -3.176683617,
				"y": -3.2175699499,
				"z": -1.5334430566,
				"element": "C" 
			},
			{
				"x": -4.0165274609,
				"y": -3.3216877894,
				"z": -0.4227009907,
				"element": "C" 
			},
			{
				"x": -3.8913186715,
				"y": -2.4150166099,
				"z": 0.6371118187,
				"element": "C" 
			},
			{
				"x": -1.1854678797,
				"y": -0.253301249,
				"z": -0.3816778556,
				"element": "N" 
			},
			{
				"x": -0.2208271156,
				"y": 0.1347467283,
				"z": -1.2832306099,
				"element": "C" 
			},
			{
				"x": -0.0586070252,
				"y": -0.3680463208,
				"z": -2.3829063098,
				"element": "O" 
			},
			{
				"x": 0.4955279669,
				"y": 1.1569952941,
				"z": -0.7578102664,
				"element": "O" 
			},
			{
				"x": 1.6162259051,
				"y": 1.7632149432,
				"z": -1.4992828847,
				"element": "C" 
			},
			{
				"x": 2.7024786372,
				"y": 0.7119954911,
				"z": -1.7485382073,
				"element": "C" 
			},
			{
				"x": 2.1092490226,
				"y": 2.8391965925,
				"z": -0.5286173126,
				"element": "C" 
			},
			{
				"x": 1.1047088144,
				"y": 2.3930262726,
				"z": -2.7988077858,
				"element": "C" 
			},
			{
				"x": 2.0638279878,
				"y": -2.3768615534,
				"z": 1.9411531625,
				"element": "H" 
			},
			{
				"x": 2.4074995568,
				"y": -0.6698116435,
				"z": 2.3766561957,
				"element": "H" 
			},
			{
				"x": 1.3088681234,
				"y": -1.6317004452,
				"z": 3.3895123295,
				"element": "H" 
			},
			{
				"x": -1.3640726125,
				"y": 1.4066593464,
				"z": 0.9209088583,
				"element": "H" 
			},
			{
				"x": -2.4736987642,
				"y": -0.6570272763,
				"z": 2.5693372575,
				"element": "H" 
			},
			{
				"x": -3.4099211821,
				"y": 0.4393098828,
				"z": 1.5621725399,
				"element": "H" 
			},
			{
				"x": -1.5413851047,
				"y": -2.137252895,
				"z": -2.4749401903,
				"element": "H" 
			},
			{
				"x": -3.2800351249,
				"y": -3.9231946195,
				"z": -2.3529243915,
				"element": "H" 
			},
			{
				"x": -4.7678357649,
				"y": -4.1043775186,
				"z": -0.3799709861,
				"element": "H" 
			},
			{
				"x": -4.5440351222,
				"y": -2.486267873,
				"z": 1.5032685734,
				"element": "H" 
			},
			{
				"x": 3.5808994602,
				"y": 1.1911305447,
				"z": -2.1927283757,
				"element": "H" 
			},
			{
				"x": 2.3468180102,
				"y": -0.0670723841,
				"z": -2.4231821139,
				"element": "H" 
			},
			{
				"x": 3.0074132328,
				"y": 0.2510203963,
				"z": -0.803767524,
				"element": "H" 
			},
			{
				"x": 2.9668828862,
				"y": 3.3658243291,
				"z": -0.9575116081,
				"element": "H" 
			},
			{
				"x": 1.3201788351,
				"y": 3.569295847,
				"z": -0.3267848673,
				"element": "H" 
			},
			{
				"x": 2.4142116737,
				"y": 2.3929432659,
				"z": 0.4222372857,
				"element": "H" 
			},
			{
				"x": 0.7353037318,
				"y": 1.6312917769,
				"z": -3.4855428477,
				"element": "H" 
			},
			{
				"x": 1.9186151064,
				"y": 2.9422132318,
				"z": -3.283217199,
				"element": "H" 
			},
			{
				"x": 0.2979004055,
				"y": 3.1013898155,
				"z": -2.5858180594,
				"element": "H" 
			}
		],
		 "valence_orbital": [ 
			{
				"type": "occ",
				"energy": -0.29273,
				"method": "rhf"
			},
			{
				"type": "occ",
				"energy": -0.27392,
				"method": "rhf"
			},
			{
				"type": "occ",
				"energy": -0.26737,
				"method": "rhf"
			},
			{
				"type": "occ",
				"energy": -0.24402,
				"method": "rhf"
			},
			{
				"type": "occ",
				"energy": -0.20836,
				"method": "rhf"
			},
			{
				"type": "unocc",
				"energy": -0.00269,
				"method": "rhf"
			},
			{
				"type": "unocc",
				"energy": 0.00148,
				"method": "rhf"
			},
			{
				"type": "unocc",
				"energy": 0.00766,
				"method": "rhf"
			},
			{
				"type": "unocc",
				"energy": 0.06073,
				"method": "rhf"
			},
			{
				"type": "unocc",
				"energy": 0.07194,
				"method": "rhf"
			}
		],
		"cosmo_sigma_profile": { 
			"-0.025": 0.0,
			"-0.024": 0.0,
			"-0.023": 0.0,
			"-0.022": 0.0,
			"-0.021": 0.0,
			"-0.02": 0.0,
			"-0.019": 0.0,
			"-0.018": 0.0,
			"-0.017": 0.0,
			"-0.016": 0.0,
			"-0.015": 0.0,
			"-0.014": 0.0,
			"-0.013": 0.0,
			"-0.012": 0.0,
			"-0.011": 0.0,
			"-0.01": 0.0,
			"-0.009": 0.0,
			"-0.008": 0.179589816678,
			"-0.007": 3.83155792167,
			"-0.006": 15.010674012,
			"-0.005": 21.7921487448,
			"-0.004": 32.7252310037,
			"-0.003": 36.6829435637,
			"-0.002": 28.9537496854,
			"-0.001": 28.3573346125,
			"0.0": 32.6099218688,
			"0.001": 26.1013432118,
			"0.002": 15.6602515,
			"0.003": 16.7484750269,
			"0.004": 15.5544223497,
			"0.005": 15.2753414214,
			"0.006": 10.59612707,
			"0.007": 4.18227208526,
			"0.008": 3.28981869904,
			"0.009": 2.39008612231,
			"0.01": 3.42078887845,
			"0.011": 5.61519846609,
			"0.012": 5.53751736212,
			"0.013": 0.546805974675,
			"0.014": 0.0,
			"0.015": 0.0,
			"0.016": 0.0,
			"0.017": 0.0,
			"0.018": 0.0,
			"0.019": 0.0,
			"0.02": 0.0,
			"0.021": 0.0,
			"0.022": 0.0,
			"0.023": 0.0,
			"0.024": 0.0,
			"0.025": 0.0
		}
	}
}
