{
	 "smiles": "COC1=C(OC)C=C2C(=O)NC=NC2=C1", 
	 "Tm": 523.15, 
	 "num_atms": 25, 
	 "gaussian": { 
		 "optdone": 1, 
		 "sigma_profile": "yes", 
		 "theory": "DFT", 
		 "functional": "B3LYP", 
		 "basiset": "6-31G**", 
		 "properties": { 
			 "R2extent": 3393.5758, 
			 "electric_dipole_moment_norm": 1.2069880074, 
			 "electric_quadrupole_moment_norm": 21.8650895018, 
			 "total_energy": -722.260786386, 
			 "HOMO_LUMO_gap": 0.17746, 
			 "cosmo_polarized_energy": -16.11, 
			 "cosmo_cavitation_energy": 29.23, 
			 "cosmo_dispersion_energy": -21.57, 
			 "cosmo_repulsion_energy": 1.68, 
			 "cosmo_total_nonelectrostatic_energy": 9.34, 
			 "SMD_solvation_energy": 6.03 
		},
		"coords": [
			{
				"x": -2.3452672076,
				"y": -2.1259614306,
				"z": -2.6752549428,
				"element": "C" 
			},
			{
				"x": -2.5920240409,
				"y": -1.6332951516,
				"z": -1.3535089726,
				"element": "O" 
			},
			{
				"x": -1.5599398712,
				"y": -0.981605033,
				"z": -0.7371277938,
				"element": "C" 
			},
			{
				"x": -0.3643147956,
				"y": -1.6674269755,
				"z": -0.3646248033,
				"element": "C" 
			},
			{
				"x": -0.3085610724,
				"y": -2.9872592281,
				"z": -0.6976606648,
				"element": "O" 
			},
			{
				"x": 0.8432708146,
				"y": -3.7232600086,
				"z": -0.3061976613,
				"element": "C" 
			},
			{
				"x": 0.6327862116,
				"y": -0.9776634842,
				"z": 0.3091709616,
				"element": "C" 
			},
			{
				"x": 0.4599147279,
				"y": 0.3779215884,
				"z": 0.6361856143,
				"element": "C" 
			},
			{
				"x": 1.5207860048,
				"y": 1.0881686224,
				"z": 1.3538029448,
				"element": "C" 
			},
			{
				"x": 2.5959044373,
				"y": 0.627981902,
				"z": 1.7182547519,
				"element": "O" 
			},
			{
				"x": 1.1863804511,
				"y": 2.4267660196,
				"z": 1.6078601114,
				"element": "N" 
			},
			{
				"x": 0.0007990436,
				"y": 3.0080861467,
				"z": 1.2270859726,
				"element": "C" 
			},
			{
				"x": -0.9448896096,
				"y": 2.4005501205,
				"z": 0.5953688712,
				"element": "N" 
			},
			{
				"x": -0.727178648,
				"y": 1.0605168469,
				"z": 0.2886003993,
				"element": "C" 
			},
			{
				"x": -1.7254686279,
				"y": 0.3527780548,
				"z": -0.408165481,
				"element": "C" 
			},
			{
				"x": -1.5628618288,
				"y": -2.8889261571,
				"z": -2.6818850762,
				"element": "H" 
			},
			{
				"x": -3.2873273607,
				"y": -2.5627933196,
				"z": -3.0115943943,
				"element": "H" 
			},
			{
				"x": -2.0675688953,
				"y": -1.305124829,
				"z": -3.3485561754,
				"element": "H" 
			},
			{
				"x": 0.9687304048,
				"y": -3.7183603845,
				"z": 0.7833005897,
				"element": "H" 
			},
			{
				"x": 1.7529796896,
				"y": -3.3270165118,
				"z": -0.7741227314,
				"element": "H" 
			},
			{
				"x": 0.6755535869,
				"y": -4.7455589888,
				"z": -0.6474137034,
				"element": "H" 
			},
			{
				"x": 1.5578660791,
				"y": -1.4512835205,
				"z": 0.6132730895,
				"element": "H" 
			},
			{
				"x": 1.886643539,
				"y": 2.9647037855,
				"z": 2.1035841981,
				"element": "H" 
			},
			{
				"x": -0.1122028461,
				"y": 4.056706995,
				"z": 1.4949956501,
				"element": "H" 
			},
			{
				"x": -2.643210186,
				"y": 0.858154941,
				"z": -0.6861707544,
				"element": "H" 
			}
		],
		 "valence_orbital": [ 
			{
				"type": "occ",
				"energy": -0.27607,
				"method": "rhf"
			},
			{
				"type": "occ",
				"energy": -0.27364,
				"method": "rhf"
			},
			{
				"type": "occ",
				"energy": -0.26098,
				"method": "rhf"
			},
			{
				"type": "occ",
				"energy": -0.24416,
				"method": "rhf"
			},
			{
				"type": "occ",
				"energy": -0.21426,
				"method": "rhf"
			},
			{
				"type": "unocc",
				"energy": -0.0368,
				"method": "rhf"
			},
			{
				"type": "unocc",
				"energy": -0.02849,
				"method": "rhf"
			},
			{
				"type": "unocc",
				"energy": 0.03139,
				"method": "rhf"
			},
			{
				"type": "unocc",
				"energy": 0.07391,
				"method": "rhf"
			},
			{
				"type": "unocc",
				"energy": 0.08046,
				"method": "rhf"
			}
		],
		"cosmo_sigma_profile": { 
			"-0.025": 0.0,
			"-0.024": 0.0,
			"-0.023": 0.0,
			"-0.022": 0.0,
			"-0.021": 0.0,
			"-0.02": 0.0,
			"-0.019": 0.0,
			"-0.018": 0.0,
			"-0.017": 0.377808389179,
			"-0.016": 1.58963955087,
			"-0.015": 1.5361855367,
			"-0.014": 1.51411005403,
			"-0.013": 0.872248239777,
			"-0.012": 0.979225898005,
			"-0.011": 1.34753807609,
			"-0.01": 2.60220542013,
			"-0.009": 2.80477328411,
			"-0.008": 1.93636949739,
			"-0.007": 3.45079998769,
			"-0.006": 12.2405779743,
			"-0.005": 15.7956576388,
			"-0.004": 18.4970057192,
			"-0.003": 23.2237826435,
			"-0.002": 18.5444153751,
			"-0.001": 14.4117286481,
			"0.0": 11.9171895946,
			"0.001": 13.7404696575,
			"0.002": 20.584061176,
			"0.003": 12.8364055191,
			"0.004": 6.56237430205,
			"0.005": 4.72334368293,
			"0.006": 4.45629087711,
			"0.007": 5.87302278252,
			"0.008": 4.59839092144,
			"0.009": 4.2811303677,
			"0.01": 4.24709946982,
			"0.011": 4.57735469288,
			"0.012": 3.86085764728,
			"0.013": 6.82825830123,
			"0.014": 1.61610728155,
			"0.015": 0.720102178257,
			"0.016": 0.279254421166,
			"0.017": 0.0,
			"0.018": 0.0,
			"0.019": 0.0,
			"0.02": 0.0,
			"0.021": 0.0,
			"0.022": 0.0,
			"0.023": 0.0,
			"0.024": 0.0,
			"0.025": 0.0
		}
	}
}
