{
	 "smiles": "ClCCS(=O)C1=CC=CC=C1", 
	 "Tm": 308.15, 
	 "num_atms": 20, 
	 "gaussian": { 
		 "optdone": 1, 
		 "sigma_profile": "yes", 
		 "theory": "DFT", 
		 "functional": "B3LYP", 
		 "basiset": "6-31G**", 
		 "properties": { 
			 "R2extent": 3007.7651, 
			 "electric_dipole_moment_norm": 3.89131325005, 
			 "electric_quadrupole_moment_norm": 11.2009553767, 
			 "total_energy": -1243.83146764, 
			 "HOMO_LUMO_gap": 0.20101, 
			 "cosmo_polarized_energy": -11.98, 
			 "cosmo_cavitation_energy": 26.7, 
			 "cosmo_dispersion_energy": -19.82, 
			 "cosmo_repulsion_energy": 1.57, 
			 "cosmo_total_nonelectrostatic_energy": 8.45, 
			 "SMD_solvation_energy": 3.51 
		},
		"coords": [
			{
				"x": -0.6123010358,
				"y": -3.4880483448,
				"z": 2.90972699,
				"element": "Cl" 
			},
			{
				"x": -0.2908882524,
				"y": -2.470960943,
				"z": 1.4384972945,
				"element": "C" 
			},
			{
				"x": 1.0614738662,
				"y": -1.7943500868,
				"z": 1.5425256308,
				"element": "C" 
			},
			{
				"x": 1.5280450945,
				"y": -0.9637777429,
				"z": -0.0592684832,
				"element": "S" 
			},
			{
				"x": 1.131875316,
				"y": -1.912262946,
				"z": -1.172183035,
				"element": "O" 
			},
			{
				"x": 0.2743666789,
				"y": 0.3637881135,
				"z": -0.0196995583,
				"element": "C" 
			},
			{
				"x": 0.4061745676,
				"y": 1.4393267826,
				"z": 0.8619727289,
				"element": "C" 
			},
			{
				"x": -0.5385582115,
				"y": 2.465492283,
				"z": 0.8254470403,
				"element": "C" 
			},
			{
				"x": -1.58960308,
				"y": 2.4182497277,
				"z": -0.0952620599,
				"element": "C" 
			},
			{
				"x": -1.6970470252,
				"y": 1.3467275751,
				"z": -0.9841858989,
				"element": "C" 
			},
			{
				"x": -0.7587558635,
				"y": 0.3124706542,
				"z": -0.9531248581,
				"element": "C" 
			},
			{
				"x": -0.3217063593,
				"y": -3.131982814,
				"z": 0.5727000961,
				"element": "H" 
			},
			{
				"x": -1.1038122752,
				"y": -1.7481640384,
				"z": 1.3747959194,
				"element": "H" 
			},
			{
				"x": 1.8520506157,
				"y": -2.5296480743,
				"z": 1.7156004773,
				"element": "H" 
			},
			{
				"x": 1.0998215922,
				"y": -1.0392767068,
				"z": 2.3322124281,
				"element": "H" 
			},
			{
				"x": 1.234180609,
				"y": 1.4836454376,
				"z": 1.565505316,
				"element": "H" 
			},
			{
				"x": -0.4505828341,
				"y": 3.3043426322,
				"z": 1.5095604155,
				"element": "H" 
			},
			{
				"x": -2.3189507716,
				"y": 3.2223441858,
				"z": -0.1239739028,
				"element": "H" 
			},
			{
				"x": -2.5093275993,
				"y": 1.3168360596,
				"z": -1.7045942494,
				"element": "H" 
			},
			{
				"x": -0.8031550323,
				"y": -0.5293517543,
				"z": -1.6379522912,
				"element": "H" 
			}
		],
		 "valence_orbital": [ 
			{
				"type": "occ",
				"energy": -0.30005,
				"method": "rhf"
			},
			{
				"type": "occ",
				"energy": -0.27676,
				"method": "rhf"
			},
			{
				"type": "occ",
				"energy": -0.27473,
				"method": "rhf"
			},
			{
				"type": "occ",
				"energy": -0.27057,
				"method": "rhf"
			},
			{
				"type": "occ",
				"energy": -0.23472,
				"method": "rhf"
			},
			{
				"type": "unocc",
				"energy": -0.03371,
				"method": "rhf"
			},
			{
				"type": "unocc",
				"energy": -0.02282,
				"method": "rhf"
			},
			{
				"type": "unocc",
				"energy": 0.0019,
				"method": "rhf"
			},
			{
				"type": "unocc",
				"energy": 0.03263,
				"method": "rhf"
			},
			{
				"type": "unocc",
				"energy": 0.05696,
				"method": "rhf"
			}
		],
		"cosmo_sigma_profile": { 
			"-0.025": 0.0,
			"-0.024": 0.0,
			"-0.023": 0.0,
			"-0.022": 0.0,
			"-0.021": 0.0,
			"-0.02": 0.0,
			"-0.019": 0.0,
			"-0.018": 0.0,
			"-0.017": 0.0,
			"-0.016": 0.0,
			"-0.015": 0.0,
			"-0.014": 0.0,
			"-0.013": 0.0,
			"-0.012": 0.0,
			"-0.011": 0.108570738217,
			"-0.01": 0.722758021287,
			"-0.009": 1.32262366489,
			"-0.008": 5.0300573832,
			"-0.007": 9.02211632327,
			"-0.006": 15.6186091127,
			"-0.005": 18.4382206949,
			"-0.004": 17.0317982474,
			"-0.003": 14.3603829009,
			"-0.002": 12.8816423536,
			"-0.001": 12.5301953703,
			"0.0": 13.3165329587,
			"0.001": 13.737434034,
			"0.002": 14.8842690046,
			"0.003": 14.0351716034,
			"0.004": 14.6808285699,
			"0.005": 9.94925581185,
			"0.006": 10.863324741,
			"0.007": 2.80628955674,
			"0.008": 1.33601016891,
			"0.009": 1.13132721091,
			"0.01": 1.38293434334,
			"0.011": 0.891833187773,
			"0.012": 1.82484266334,
			"0.013": 3.42206045585,
			"0.014": 2.59666712869,
			"0.015": 2.1138867771,
			"0.016": 0.0531114744532,
			"0.017": 0.0,
			"0.018": 0.0,
			"0.019": 0.0,
			"0.02": 0.0,
			"0.021": 0.0,
			"0.022": 0.0,
			"0.023": 0.0,
			"0.024": 0.0,
			"0.025": 0.0
		}
	}
}
