{
	 "smiles": "CCOC(=O)C=CC1=CC=C(O)C(OC)=C1", 
	 "Tm": 331.15, 
	 "num_atms": 30, 
	 "gaussian": { 
		 "optdone": 1, 
		 "sigma_profile": "yes", 
		 "theory": "DFT", 
		 "functional": "B3LYP", 
		 "basiset": "6-31G**", 
		 "properties": { 
			 "R2extent": 7042.4131, 
			 "electric_dipole_moment_norm": 2.11396163872, 
			 "electric_quadrupole_moment_norm": 25.7981528647, 
			 "total_energy": -766.602413187, 
			 "HOMO_LUMO_gap": 0.15153, 
			 "cosmo_polarized_energy": -12.61, 
			 "cosmo_cavitation_energy": 34.76, 
			 "cosmo_dispersion_energy": -25.27, 
			 "cosmo_repulsion_energy": 1.99, 
			 "cosmo_total_nonelectrostatic_energy": 11.47, 
			 "SMD_solvation_energy": 8.2 
		},
		"coords": [
			{
				"x": -3.8740680204,
				"y": 3.6117691079,
				"z": 0.6258707518,
				"element": "C" 
			},
			{
				"x": -2.6078923725,
				"y": 3.8533039143,
				"z": 1.43563654,
				"element": "C" 
			},
			{
				"x": -1.5034369943,
				"y": 3.070429957,
				"z": 0.9336459343,
				"element": "O" 
			},
			{
				"x": -1.40790256,
				"y": 1.7962170173,
				"z": 1.3966333642,
				"element": "C" 
			},
			{
				"x": -2.1895121835,
				"y": 1.3097660891,
				"z": 2.1963063136,
				"element": "O" 
			},
			{
				"x": -0.2435017612,
				"y": 1.1158082134,
				"z": 0.8027493324,
				"element": "C" 
			},
			{
				"x": 0.0310979548,
				"y": -0.1612154318,
				"z": 1.1345772163,
				"element": "C" 
			},
			{
				"x": 1.1262978404,
				"y": -1.0000404468,
				"z": 0.6613667756,
				"element": "C" 
			},
			{
				"x": 2.0965845899,
				"y": -0.5617391147,
				"z": -0.2562529385,
				"element": "C" 
			},
			{
				"x": 3.1213095461,
				"y": -1.4048539723,
				"z": -0.6749699108,
				"element": "C" 
			},
			{
				"x": 3.2010641676,
				"y": -2.707910075,
				"z": -0.1859446676,
				"element": "C" 
			},
			{
				"x": 4.1993520786,
				"y": -3.5313038892,
				"z": -0.592969989,
				"element": "O" 
			},
			{
				"x": 2.2355781568,
				"y": -3.1649208378,
				"z": 0.7361185023,
				"element": "C" 
			},
			{
				"x": 2.4315902913,
				"y": -4.4643878122,
				"z": 1.1356630391,
				"element": "O" 
			},
			{
				"x": 1.5175247851,
				"y": -5.0259819194,
				"z": 2.0671024462,
				"element": "C" 
			},
			{
				"x": 1.2148576375,
				"y": -2.322457129,
				"z": 1.1520561428,
				"element": "C" 
			},
			{
				"x": -3.7022374264,
				"y": 3.8146168739,
				"z": -0.4354706117,
				"element": "H" 
			},
			{
				"x": -4.2078761153,
				"y": 2.5776057473,
				"z": 0.7394962023,
				"element": "H" 
			},
			{
				"x": -4.6739225394,
				"y": 4.2723500878,
				"z": 0.9774395952,
				"element": "H" 
			},
			{
				"x": -2.76559811,
				"y": 3.6093989332,
				"z": 2.4892044612,
				"element": "H" 
			},
			{
				"x": -2.2710156624,
				"y": 4.8896019604,
				"z": 1.3492046823,
				"element": "H" 
			},
			{
				"x": 0.355277233,
				"y": 1.6924352883,
				"z": 0.1058107052,
				"element": "H" 
			},
			{
				"x": -0.6522479494,
				"y": -0.6226947316,
				"z": 1.8465351682,
				"element": "H" 
			},
			{
				"x": 2.0532014009,
				"y": 0.4485091678,
				"z": -0.6490444493,
				"element": "H" 
			},
			{
				"x": 3.8729208393,
				"y": -1.0718788216,
				"z": -1.3829383369,
				"element": "H" 
			},
			{
				"x": 4.0725650492,
				"y": -4.3794231627,
				"z": -0.1391031087,
				"element": "H" 
			},
			{
				"x": 1.8538242586,
				"y": -6.0482031019,
				"z": 2.2452449443,
				"element": "H" 
			},
			{
				"x": 0.4978885652,
				"y": -5.0436205577,
				"z": 1.6630773981,
				"element": "H" 
			},
			{
				"x": 1.5221473198,
				"y": -4.4712372134,
				"z": 3.0133751178,
				"element": "H" 
			},
			{
				"x": 0.4707299808,
				"y": -2.6693441406,
				"z": 1.8605793794,
				"element": "H" 
			}
		],
		 "valence_orbital": [ 
			{
				"type": "occ",
				"energy": -0.28619,
				"method": "rhf"
			},
			{
				"type": "occ",
				"energy": -0.27759,
				"method": "rhf"
			},
			{
				"type": "occ",
				"energy": -0.26101,
				"method": "rhf"
			},
			{
				"type": "occ",
				"energy": -0.24527,
				"method": "rhf"
			},
			{
				"type": "occ",
				"energy": -0.20623,
				"method": "rhf"
			},
			{
				"type": "unocc",
				"energy": -0.0547,
				"method": "rhf"
			},
			{
				"type": "unocc",
				"energy": -0.00013,
				"method": "rhf"
			},
			{
				"type": "unocc",
				"energy": 0.03486,
				"method": "rhf"
			},
			{
				"type": "unocc",
				"energy": 0.06967,
				"method": "rhf"
			},
			{
				"type": "unocc",
				"energy": 0.08861,
				"method": "rhf"
			}
		],
		"cosmo_sigma_profile": { 
			"-0.025": 0.0,
			"-0.024": 0.0,
			"-0.023": 0.0,
			"-0.022": 0.0,
			"-0.021": 0.0,
			"-0.02": 0.0,
			"-0.019": 0.0,
			"-0.018": 0.0,
			"-0.017": 0.0,
			"-0.016": 0.0,
			"-0.015": 0.302750554043,
			"-0.014": 0.541647342868,
			"-0.013": 0.36790464242,
			"-0.012": 0.525459488178,
			"-0.011": 0.571994557772,
			"-0.01": 1.01769859946,
			"-0.009": 0.42388025218,
			"-0.008": 2.08576867819,
			"-0.007": 7.41296994655,
			"-0.006": 14.8854628997,
			"-0.005": 19.8630319232,
			"-0.004": 23.4595395651,
			"-0.003": 24.3934067899,
			"-0.002": 19.8144588577,
			"-0.001": 18.7410153711,
			"0.0": 21.1624237726,
			"0.001": 21.7605141024,
			"0.002": 18.4759964235,
			"0.003": 23.3890862411,
			"0.004": 18.7483280229,
			"0.005": 7.24417867196,
			"0.006": 3.69351107273,
			"0.007": 5.39982468566,
			"0.008": 4.0462426368,
			"0.009": 3.5665254566,
			"0.01": 3.55429538792,
			"0.011": 3.99031694496,
			"0.012": 3.31739997947,
			"0.013": 2.9727871045,
			"0.014": 0.0016378435909,
			"0.015": 0.0,
			"0.016": 0.0,
			"0.017": 0.0,
			"0.018": 0.0,
			"0.019": 0.0,
			"0.02": 0.0,
			"0.021": 0.0,
			"0.022": 0.0,
			"0.023": 0.0,
			"0.024": 0.0,
			"0.025": 0.0
		}
	}
}
