{
	 "smiles": "NC1=NN=C(S1)C(F)F", 
	 "Tm": 448.15, 
	 "num_atms": 12, 
	 "gaussian": { 
		 "optdone": 1, 
		 "sigma_profile": "yes", 
		 "theory": "DFT", 
		 "functional": "B3LYP", 
		 "basiset": "6-31G**", 
		 "properties": { 
			 "R2extent": 1488.8721, 
			 "electric_dipole_moment_norm": 3.61574759351, 
			 "electric_quadrupole_moment_norm": 13.7844221203, 
			 "total_energy": -878.205942156, 
			 "HOMO_LUMO_gap": 0.20616, 
			 "cosmo_polarized_energy": -13.33, 
			 "cosmo_cavitation_energy": 19.53, 
			 "cosmo_dispersion_energy": -14.86, 
			 "cosmo_repulsion_energy": 1.16, 
			 "cosmo_total_nonelectrostatic_energy": 5.83, 
			 "SMD_solvation_energy": 2.17 
		},
		"coords": [
			{
				"x": 1.1187925743,
				"y": -1.2609920333,
				"z": -3.1966433509,
				"element": "N" 
			},
			{
				"x": 0.5331862245,
				"y": -0.6273271806,
				"z": -2.1364426125,
				"element": "C" 
			},
			{
				"x": -0.7190241821,
				"y": -0.2354199032,
				"z": -2.1412995372,
				"element": "N" 
			},
			{
				"x": -1.0533623879,
				"y": 0.4397501205,
				"z": -1.005442419,
				"element": "N" 
			},
			{
				"x": -0.0822527405,
				"y": 0.5475354024,
				"z": -0.1548041907,
				"element": "C" 
			},
			{
				"x": 1.4297107639,
				"y": -0.1856301064,
				"z": -0.6855491111,
				"element": "S" 
			},
			{
				"x": -0.2392363281,
				"y": 1.2249836513,
				"z": 1.1664709943,
				"element": "C" 
			},
			{
				"x": 0.011148426,
				"y": 0.3465243001,
				"z": 2.1841368428,
				"element": "F" 
			},
			{
				"x": 0.6644260724,
				"y": 2.2432713438,
				"z": 1.2899302957,
				"element": "F" 
			},
			{
				"x": 1.8851114795,
				"y": -1.8903299186,
				"z": -3.01143727,
				"element": "H" 
			},
			{
				"x": 0.4581953699,
				"y": -1.5829092645,
				"z": -3.8918671594,
				"element": "H" 
			},
			{
				"x": -1.2535952719,
				"y": 1.6223435884,
				"z": 1.2701475179,
				"element": "H" 
			}
		],
		 "valence_orbital": [ 
			{
				"type": "occ",
				"energy": -0.35897,
				"method": "rhf"
			},
			{
				"type": "occ",
				"energy": -0.31347,
				"method": "rhf"
			},
			{
				"type": "occ",
				"energy": -0.30179,
				"method": "rhf"
			},
			{
				"type": "occ",
				"energy": -0.27328,
				"method": "rhf"
			},
			{
				"type": "occ",
				"energy": -0.24764,
				"method": "rhf"
			},
			{
				"type": "unocc",
				"energy": -0.04148,
				"method": "rhf"
			},
			{
				"type": "unocc",
				"energy": -0.01263,
				"method": "rhf"
			},
			{
				"type": "unocc",
				"energy": 0.02841,
				"method": "rhf"
			},
			{
				"type": "unocc",
				"energy": 0.05056,
				"method": "rhf"
			},
			{
				"type": "unocc",
				"energy": 0.08496,
				"method": "rhf"
			}
		],
		"cosmo_sigma_profile": { 
			"-0.025": 0.0,
			"-0.024": 0.0,
			"-0.023": 0.0,
			"-0.022": 0.0,
			"-0.021": 0.0,
			"-0.02": 0.0,
			"-0.019": 0.0,
			"-0.018": 0.0,
			"-0.017": 0.0,
			"-0.016": 0.421189488041,
			"-0.015": 2.46497648455,
			"-0.014": 3.12515944615,
			"-0.013": 2.78295645782,
			"-0.012": 3.02439603557,
			"-0.011": 1.76581714058,
			"-0.01": 4.10146722952,
			"-0.009": 3.50958434889,
			"-0.008": 3.14837229127,
			"-0.007": 3.3381457562,
			"-0.006": 2.69937462947,
			"-0.005": 3.64520876007,
			"-0.004": 4.6647472511,
			"-0.003": 5.34395551948,
			"-0.002": 9.25886879451,
			"-0.001": 12.0744686626,
			"0.0": 12.8382961562,
			"0.001": 11.6697983582,
			"0.002": 10.6096257046,
			"0.003": 11.7435475908,
			"0.004": 19.7499135727,
			"0.005": 4.16280238242,
			"0.006": 2.27301100982,
			"0.007": 2.34523028621,
			"0.008": 2.42756194366,
			"0.009": 2.21952220599,
			"0.01": 3.15387923597,
			"0.011": 3.49847108042,
			"0.012": 2.48008364535,
			"0.013": 2.49665664965,
			"0.014": 1.17683969116,
			"0.015": 0.545565681066,
			"0.016": 0.0,
			"0.017": 0.0,
			"0.018": 0.0,
			"0.019": 0.0,
			"0.02": 0.0,
			"0.021": 0.0,
			"0.022": 0.0,
			"0.023": 0.0,
			"0.024": 0.0,
			"0.025": 0.0
		}
	}
}
