{
	 "smiles": "ClCC(=O)NC1=CC2=C(OCCCO2)C=C1", 
	 "Tm": 382.15, 
	 "num_atms": 28, 
	 "gaussian": { 
		 "optdone": 1, 
		 "sigma_profile": "yes", 
		 "theory": "DFT", 
		 "functional": "B3LYP", 
		 "basiset": "6-31G**", 
		 "properties": { 
			 "R2extent": 6401.6981, 
			 "electric_dipole_moment_norm": 1.86789049465, 
			 "electric_quadrupole_moment_norm": 12.2165582215, 
			 "total_energy": -1167.01406874, 
			 "HOMO_LUMO_gap": 0.19039, 
			 "cosmo_polarized_energy": -13.3, 
			 "cosmo_cavitation_energy": 32.66, 
			 "cosmo_dispersion_energy": -24.73, 
			 "cosmo_repulsion_energy": 1.94, 
			 "cosmo_total_nonelectrostatic_energy": 9.87, 
			 "SMD_solvation_energy": 5.82 
		},
		"coords": [
			{
				"x": -0.6334002074,
				"y": -0.650618054,
				"z": 5.5192029633,
				"element": "Cl" 
			},
			{
				"x": -1.3765766938,
				"y": 0.5323699135,
				"z": 4.3553077843,
				"element": "C" 
			},
			{
				"x": -1.1558076572,
				"y": 0.2819823557,
				"z": 2.8579114545,
				"element": "C" 
			},
			{
				"x": -1.6671799234,
				"y": 1.0895447032,
				"z": 2.0928201667,
				"element": "O" 
			},
			{
				"x": -0.4178150911,
				"y": -0.8054306498,
				"z": 2.5135412327,
				"element": "N" 
			},
			{
				"x": -0.0648003049,
				"y": -1.256047871,
				"z": 1.2197148352,
				"element": "C" 
			},
			{
				"x": -0.4649576122,
				"y": -0.6019516369,
				"z": 0.0502362841,
				"element": "C" 
			},
			{
				"x": -0.0852718545,
				"y": -1.1005629132,
				"z": -1.198359327,
				"element": "C" 
			},
			{
				"x": 0.7215825472,
				"y": -2.2535030481,
				"z": -1.2893566491,
				"element": "C" 
			},
			{
				"x": 1.1578692443,
				"y": -2.799750491,
				"z": -2.4757464503,
				"element": "O" 
			},
			{
				"x": 1.5322251667,
				"y": -1.8678191894,
				"z": -3.5000732898,
				"element": "C" 
			},
			{
				"x": 0.328899202,
				"y": -1.4386947819,
				"z": -4.3424733635,
				"element": "C" 
			},
			{
				"x": -0.8813570036,
				"y": -1.15871703,
				"z": -3.4497192316,
				"element": "C" 
			},
			{
				"x": -0.5243519891,
				"y": -0.3915720016,
				"z": -2.29135586,
				"element": "O" 
			},
			{
				"x": 1.0968082053,
				"y": -2.9046224632,
				"z": -0.1122783947,
				"element": "C" 
			},
			{
				"x": 0.706706289,
				"y": -2.4239337835,
				"z": 1.1317833343,
				"element": "C" 
			},
			{
				"x": -0.9731285241,
				"y": 1.5154418007,
				"z": 4.5986228485,
				"element": "H" 
			},
			{
				"x": -2.4500607348,
				"y": 0.5347490061,
				"z": 4.5449356501,
				"element": "H" 
			},
			{
				"x": -0.0744359333,
				"y": -1.3662274416,
				"z": 3.2825401134,
				"element": "H" 
			},
			{
				"x": -1.0804484011,
				"y": 0.2850803983,
				"z": 0.0947029545,
				"element": "H" 
			},
			{
				"x": 2.0108182418,
				"y": -0.995271059,
				"z": -3.040788714,
				"element": "H" 
			},
			{
				"x": 2.278349432,
				"y": -2.3817617162,
				"z": -4.1128145311,
				"element": "H" 
			},
			{
				"x": 0.6029444866,
				"y": -0.5459549765,
				"z": -4.916991728,
				"element": "H" 
			},
			{
				"x": 0.0587248919,
				"y": -2.2210413319,
				"z": -5.0617066864,
				"element": "H" 
			},
			{
				"x": -1.3514526069,
				"y": -2.0971318409,
				"z": -3.1345103191,
				"element": "H" 
			},
			{
				"x": -1.6310579803,
				"y": -0.5640561358,
				"z": -3.9790277418,
				"element": "H" 
			},
			{
				"x": 1.7148462017,
				"y": -3.7921892194,
				"z": -0.1983952159,
				"element": "H" 
			},
			{
				"x": 1.0164286093,
				"y": -2.9451105426,
				"z": 2.0337778808,
				"element": "H" 
			}
		],
		 "valence_orbital": [ 
			{
				"type": "occ",
				"energy": -0.29497,
				"method": "rhf"
			},
			{
				"type": "occ",
				"energy": -0.27879,
				"method": "rhf"
			},
			{
				"type": "occ",
				"energy": -0.26231,
				"method": "rhf"
			},
			{
				"type": "occ",
				"energy": -0.23424,
				"method": "rhf"
			},
			{
				"type": "occ",
				"energy": -0.20428,
				"method": "rhf"
			},
			{
				"type": "unocc",
				"energy": -0.01389,
				"method": "rhf"
			},
			{
				"type": "unocc",
				"energy": 0.00156,
				"method": "rhf"
			},
			{
				"type": "unocc",
				"energy": 0.00984,
				"method": "rhf"
			},
			{
				"type": "unocc",
				"energy": 0.04419,
				"method": "rhf"
			},
			{
				"type": "unocc",
				"energy": 0.07562,
				"method": "rhf"
			}
		],
		"cosmo_sigma_profile": { 
			"-0.025": 0.0,
			"-0.024": 0.0,
			"-0.023": 0.0,
			"-0.022": 0.0,
			"-0.021": 0.0,
			"-0.02": 0.0,
			"-0.019": 0.0,
			"-0.018": 0.0,
			"-0.017": 0.0,
			"-0.016": 0.0,
			"-0.015": 0.0,
			"-0.014": 0.0307603124889,
			"-0.013": 0.667428517526,
			"-0.012": 1.07537118748,
			"-0.011": 0.83927109131,
			"-0.01": 1.40340748556,
			"-0.009": 5.0522236445,
			"-0.008": 4.74566165075,
			"-0.007": 6.86624174196,
			"-0.006": 10.1991854735,
			"-0.005": 19.4889188203,
			"-0.004": 27.3389464325,
			"-0.003": 22.0111612224,
			"-0.002": 15.7273024618,
			"-0.001": 15.0985451581,
			"0.0": 13.2754737372,
			"0.001": 14.5432167177,
			"0.002": 15.8538230579,
			"0.003": 19.8261649355,
			"0.004": 19.0851607474,
			"0.005": 17.0738440846,
			"0.006": 5.88169604349,
			"0.007": 3.79749808457,
			"0.008": 4.1898428783,
			"0.009": 2.86394057976,
			"0.01": 4.14946509144,
			"0.011": 4.52175770688,
			"0.012": 3.70380567943,
			"0.013": 1.98361753871,
			"0.014": 0.179140083782,
			"0.015": 0.0,
			"0.016": 0.0,
			"0.017": 0.0,
			"0.018": 0.0,
			"0.019": 0.0,
			"0.02": 0.0,
			"0.021": 0.0,
			"0.022": 0.0,
			"0.023": 0.0,
			"0.024": 0.0,
			"0.025": 0.0
		}
	}
}
