{
	 "smiles": "OCC1OC(C(O)C1O)N1N=CC(=O)NC1=O", 
	 "Tm": 431.15, 
	 "num_atms": 28, 
	 "gaussian": { 
		 "optdone": 1, 
		 "sigma_profile": "yes", 
		 "theory": "DFT", 
		 "functional": "B3LYP", 
		 "basiset": "6-31G**", 
		 "properties": { 
			 "R2extent": 6035.7734, 
			 "electric_dipole_moment_norm": 2.69452984025, 
			 "electric_quadrupole_moment_norm": 13.2836297927, 
			 "total_energy": -927.035971039, 
			 "HOMO_LUMO_gap": 0.18633, 
			 "cosmo_polarized_energy": -23.57, 
			 "cosmo_cavitation_energy": 31.74, 
			 "cosmo_dispersion_energy": -23.26, 
			 "cosmo_repulsion_energy": 1.81, 
			 "cosmo_total_nonelectrostatic_energy": 10.28, 
			 "SMD_solvation_energy": 5.87 
		},
		"coords": [
			{
				"x": -1.2954259403,
				"y": 1.141891179,
				"z": -2.619844524,
				"element": "O" 
			},
			{
				"x": -1.8936922283,
				"y": 0.8550377502,
				"z": -1.3523211505,
				"element": "C" 
			},
			{
				"x": -0.8145117752,
				"y": 0.7815946802,
				"z": -0.2806086201,
				"element": "C" 
			},
			{
				"x": -1.3994077804,
				"y": 0.3662585829,
				"z": 0.9628789569,
				"element": "O" 
			},
			{
				"x": -0.3977428773,
				"y": -0.1997462999,
				"z": 1.7521938362,
				"element": "C" 
			},
			{
				"x": 0.8253442929,
				"y": -0.5326449813,
				"z": 0.8417927688,
				"element": "C" 
			},
			{
				"x": 1.2662037919,
				"y": -1.8567596484,
				"z": 0.9906212087,
				"element": "O" 
			},
			{
				"x": 0.2693788595,
				"y": -0.2720551436,
				"z": -0.5591003519,
				"element": "C" 
			},
			{
				"x": 1.2668287946,
				"y": 0.1693749461,
				"z": -1.4501389751,
				"element": "O" 
			},
			{
				"x": -0.0202339215,
				"y": 0.7333144077,
				"z": 2.8672273189,
				"element": "N" 
			},
			{
				"x": -0.4666107627,
				"y": 2.0006380106,
				"z": 2.8312095138,
				"element": "N" 
			},
			{
				"x": -0.1608532557,
				"y": 2.7996029646,
				"z": 3.8015250689,
				"element": "C" 
			},
			{
				"x": 0.6522727809,
				"y": 2.4170385646,
				"z": 4.9657643308,
				"element": "C" 
			},
			{
				"x": 0.9444323704,
				"y": 3.1389482133,
				"z": 5.9005373369,
				"element": "O" 
			},
			{
				"x": 1.0841637665,
				"y": 1.0857490592,
				"z": 4.881238037,
				"element": "N" 
			},
			{
				"x": 0.8132720663,
				"y": 0.2092396037,
				"z": 3.8479963696,
				"element": "C" 
			},
			{
				"x": 1.2637623967,
				"y": -0.9295217295,
				"z": 3.7904955372,
				"element": "O" 
			},
			{
				"x": -1.0843306015,
				"y": 2.0845596879,
				"z": -2.6435413017,
				"element": "H" 
			},
			{
				"x": -2.6646537392,
				"y": 1.590308024,
				"z": -1.0882532925,
				"element": "H" 
			},
			{
				"x": -2.3785598955,
				"y": -0.1209583259,
				"z": -1.449443723,
				"element": "H" 
			},
			{
				"x": -0.3329468754,
				"y": 1.7659086357,
				"z": -0.1639561107,
				"element": "H" 
			},
			{
				"x": -0.7720728272,
				"y": -1.1084050482,
				"z": 2.2313158772,
				"element": "H" 
			},
			{
				"x": 1.6312445455,
				"y": 0.194181609,
				"z": 1.0266904274,
				"element": "H" 
			},
			{
				"x": 1.5456720748,
				"y": -1.9431599175,
				"z": 1.9163385942,
				"element": "H" 
			},
			{
				"x": -0.210982494,
				"y": -1.2010243115,
				"z": -0.9062776205,
				"element": "H" 
			},
			{
				"x": 0.8041338037,
				"y": 0.3584637329,
				"z": -2.2808949299,
				"element": "H" 
			},
			{
				"x": -0.5313169282,
				"y": 3.817391054,
				"z": 3.7496560761,
				"element": "H" 
			},
			{
				"x": 1.6838323588,
				"y": 0.7357747003,
				"z": 5.6204993414,
				"element": "H" 
			}
		],
		 "valence_orbital": [ 
			{
				"type": "occ",
				"energy": -0.29272,
				"method": "rhf"
			},
			{
				"type": "occ",
				"energy": -0.28279,
				"method": "rhf"
			},
			{
				"type": "occ",
				"energy": -0.27722,
				"method": "rhf"
			},
			{
				"type": "occ",
				"energy": -0.26977,
				"method": "rhf"
			},
			{
				"type": "occ",
				"energy": -0.26362,
				"method": "rhf"
			},
			{
				"type": "unocc",
				"energy": -0.07729,
				"method": "rhf"
			},
			{
				"type": "unocc",
				"energy": -0.01482,
				"method": "rhf"
			},
			{
				"type": "unocc",
				"energy": 0.03835,
				"method": "rhf"
			},
			{
				"type": "unocc",
				"energy": 0.07038,
				"method": "rhf"
			},
			{
				"type": "unocc",
				"energy": 0.07573,
				"method": "rhf"
			}
		],
		"cosmo_sigma_profile": { 
			"-0.025": 0.0,
			"-0.024": 0.0,
			"-0.023": 0.0,
			"-0.022": 0.0,
			"-0.021": 0.0,
			"-0.02": 0.0,
			"-0.019": 0.0,
			"-0.018": 0.0429360305258,
			"-0.017": 1.2460262076,
			"-0.016": 2.2647159162,
			"-0.015": 2.19647867261,
			"-0.014": 1.94719213949,
			"-0.013": 1.4513604589,
			"-0.012": 2.1630307155,
			"-0.011": 1.48690981113,
			"-0.01": 3.16820461751,
			"-0.009": 5.74481500284,
			"-0.008": 8.83354659532,
			"-0.007": 10.6596171074,
			"-0.006": 16.0688532853,
			"-0.005": 18.8313764748,
			"-0.004": 18.025421584,
			"-0.003": 17.8540388941,
			"-0.002": 13.2154556803,
			"-0.001": 10.298788414,
			"0.0": 9.86778163999,
			"0.001": 9.49310859924,
			"0.002": 7.58633657519,
			"0.003": 6.51293894272,
			"0.004": 6.67666318755,
			"0.005": 7.41009830075,
			"0.006": 7.2320567603,
			"0.007": 6.75348128794,
			"0.008": 6.30850712731,
			"0.009": 8.26071827065,
			"0.01": 8.32496152448,
			"0.011": 11.5203350332,
			"0.012": 11.6539277281,
			"0.013": 5.47941833386,
			"0.014": 1.06802607939,
			"0.015": 0.0,
			"0.016": 0.0,
			"0.017": 0.0,
			"0.018": 0.0,
			"0.019": 0.0,
			"0.02": 0.0,
			"0.021": 0.0,
			"0.022": 0.0,
			"0.023": 0.0,
			"0.024": 0.0,
			"0.025": 0.0
		}
	}
}
