{
	 "smiles": "O=S1CCNC2=C1C=CC=C2", 
	 "Tm": 475.15, 
	 "num_atms": 20, 
	 "gaussian": { 
		 "optdone": 1, 
		 "sigma_profile": "yes", 
		 "theory": "DFT", 
		 "functional": "B3LYP", 
		 "basiset": "6-31G**", 
		 "properties": { 
			 "R2extent": 2483.4713, 
			 "electric_dipole_moment_norm": 4.22168292864, 
			 "electric_quadrupole_moment_norm": 21.8083365858, 
			 "total_energy": -838.386627279, 
			 "HOMO_LUMO_gap": 0.18487, 
			 "cosmo_polarized_energy": -15.63, 
			 "cosmo_cavitation_energy": 23.8, 
			 "cosmo_dispersion_energy": -18.73, 
			 "cosmo_repulsion_energy": 1.44, 
			 "cosmo_total_nonelectrostatic_energy": 6.5, 
			 "SMD_solvation_energy": 2.38 
		},
		"coords": [
			{
				"x": 0.7569909516,
				"y": -3.3187660466,
				"z": 2.1616192917,
				"element": "O" 
			},
			{
				"x": -0.3488356571,
				"y": -2.2817351384,
				"z": 2.1118855022,
				"element": "S" 
			},
			{
				"x": 0.1944000827,
				"y": -0.9478953622,
				"z": 3.2672954782,
				"element": "C" 
			},
			{
				"x": 1.5600789351,
				"y": -0.4426966631,
				"z": 2.8248971885,
				"element": "C" 
			},
			{
				"x": 1.4339968443,
				"y": 0.300012618,
				"z": 1.5801264242,
				"element": "N" 
			},
			{
				"x": 0.6962974271,
				"y": -0.172507222,
				"z": 0.5111674261,
				"element": "C" 
			},
			{
				"x": -0.1916666092,
				"y": -1.2684938649,
				"z": 0.6206098657,
				"element": "C" 
			},
			{
				"x": -0.9645383781,
				"y": -1.6653021367,
				"z": -0.4775681595,
				"element": "C" 
			},
			{
				"x": -0.8760252643,
				"y": -1.0054180719,
				"z": -1.6976868893,
				"element": "C" 
			},
			{
				"x": 0.0039668377,
				"y": 0.0779887417,
				"z": -1.8122994203,
				"element": "C" 
			},
			{
				"x": 0.7695996612,
				"y": 0.4928577714,
				"z": -0.7319206472,
				"element": "C" 
			},
			{
				"x": -0.5625308324,
				"y": -0.1572676519,
				"z": 3.2773042229,
				"element": "H" 
			},
			{
				"x": 0.2494692382,
				"y": -1.4225428128,
				"z": 4.2495186603,
				"element": "H" 
			},
			{
				"x": 2.2275201323,
				"y": -1.3138445111,
				"z": 2.7314564803,
				"element": "H" 
			},
			{
				"x": 1.9767076481,
				"y": 0.228974511,
				"z": 3.5822518039,
				"element": "H" 
			},
			{
				"x": 2.2149497982,
				"y": 0.8910209154,
				"z": 1.3365209133,
				"element": "H" 
			},
			{
				"x": -1.6385560285,
				"y": -2.5105146792,
				"z": -0.3607121385,
				"element": "H" 
			},
			{
				"x": -1.4758197366,
				"y": -1.3246835659,
				"z": -2.5433270605,
				"element": "H" 
			},
			{
				"x": 0.0905539291,
				"y": 0.6093144039,
				"z": -2.7560684028,
				"element": "H" 
			},
			{
				"x": 1.4370410209,
				"y": 1.3457987653,
				"z": -0.8320705389,
				"element": "H" 
			}
		],
		 "valence_orbital": [ 
			{
				"type": "occ",
				"energy": -0.30647,
				"method": "rhf"
			},
			{
				"type": "occ",
				"energy": -0.26402,
				"method": "rhf"
			},
			{
				"type": "occ",
				"energy": -0.24975,
				"method": "rhf"
			},
			{
				"type": "occ",
				"energy": -0.22176,
				"method": "rhf"
			},
			{
				"type": "occ",
				"energy": -0.20618,
				"method": "rhf"
			},
			{
				"type": "unocc",
				"energy": -0.02131,
				"method": "rhf"
			},
			{
				"type": "unocc",
				"energy": 0.0024,
				"method": "rhf"
			},
			{
				"type": "unocc",
				"energy": 0.04125,
				"method": "rhf"
			},
			{
				"type": "unocc",
				"energy": 0.06437,
				"method": "rhf"
			},
			{
				"type": "unocc",
				"energy": 0.07929,
				"method": "rhf"
			}
		],
		"cosmo_sigma_profile": { 
			"-0.025": 0.0,
			"-0.024": 0.0,
			"-0.023": 0.0,
			"-0.022": 0.0,
			"-0.021": 0.0,
			"-0.02": 0.0,
			"-0.019": 0.0,
			"-0.018": 0.0,
			"-0.017": 0.0,
			"-0.016": 0.0,
			"-0.015": 0.0,
			"-0.014": 0.439386185358,
			"-0.013": 1.41581846644,
			"-0.012": 1.96602327831,
			"-0.011": 0.923195708737,
			"-0.01": 1.4438679612,
			"-0.009": 1.92875217355,
			"-0.008": 1.86173508635,
			"-0.007": 8.04870513232,
			"-0.006": 14.966799076,
			"-0.005": 15.7966795932,
			"-0.004": 16.2041139818,
			"-0.003": 17.2513953954,
			"-0.002": 11.737851827,
			"-0.001": 8.23379520428,
			"0.0": 8.71893496497,
			"0.001": 7.69622727165,
			"0.002": 9.79046438783,
			"0.003": 11.1337120397,
			"0.004": 10.5508246478,
			"0.005": 12.1318704003,
			"0.006": 5.59505902046,
			"0.007": 2.07197013109,
			"0.008": 1.72622315002,
			"0.009": 1.48520619793,
			"0.01": 1.09077038478,
			"0.011": 1.1016856223,
			"0.012": 1.2632297575,
			"0.013": 1.29855353295,
			"0.014": 3.80039636662,
			"0.015": 4.85879313393,
			"0.016": 3.39238305036,
			"0.017": 0.117469416828,
			"0.018": 0.0,
			"0.019": 0.0,
			"0.02": 0.0,
			"0.021": 0.0,
			"0.022": 0.0,
			"0.023": 0.0,
			"0.024": 0.0,
			"0.025": 0.0
		}
	}
}
