{
	 "smiles": "CCN1C=NN=C1C1=CC(N)=CC=C1", 
	 "Tm": 453.15, 
	 "num_atms": 26, 
	 "gaussian": { 
		 "optdone": 1, 
		 "sigma_profile": "yes", 
		 "theory": "DFT", 
		 "functional": "B3LYP", 
		 "basiset": "6-31G**", 
		 "properties": { 
			 "R2extent": 3039.9048, 
			 "electric_dipole_moment_norm": 7.5198461693, 
			 "electric_quadrupole_moment_norm": 15.7021810711, 
			 "total_energy": -607.288566523, 
			 "HOMO_LUMO_gap": 0.1836, 
			 "cosmo_polarized_energy": -22.95, 
			 "cosmo_cavitation_energy": 29.48, 
			 "cosmo_dispersion_energy": -21.16, 
			 "cosmo_repulsion_energy": 1.66, 
			 "cosmo_total_nonelectrostatic_energy": 9.99, 
			 "SMD_solvation_energy": 3.37 
		},
		"coords": [
			{
				"x": 0.0270411661,
				"y": 1.1306789875,
				"z": 3.5062903517,
				"element": "C" 
			},
			{
				"x": -0.7406855867,
				"y": 0.0763704144,
				"z": 2.7058466859,
				"element": "C" 
			},
			{
				"x": -1.4602220034,
				"y": 0.6376425654,
				"z": 1.5611091433,
				"element": "N" 
			},
			{
				"x": -2.6561643531,
				"y": 1.3025155435,
				"z": 1.6275482557,
				"element": "C" 
			},
			{
				"x": -3.1097009276,
				"y": 1.5890809232,
				"z": 0.432577573,
				"element": "N" 
			},
			{
				"x": -2.1947618474,
				"y": 1.1010160573,
				"z": -0.4706486273,
				"element": "N" 
			},
			{
				"x": -1.2104619225,
				"y": 0.5334988524,
				"z": 0.2047534747,
				"element": "C" 
			},
			{
				"x": -0.0631889415,
				"y": -0.1322945708,
				"z": -0.4332730721,
				"element": "C" 
			},
			{
				"x": 1.2322732783,
				"y": -0.0789070258,
				"z": 0.1004590792,
				"element": "C" 
			},
			{
				"x": 2.3075229365,
				"y": -0.7104006606,
				"z": -0.5468530521,
				"element": "C" 
			},
			{
				"x": 3.6036996358,
				"y": -0.5968206071,
				"z": -0.0399103445,
				"element": "N" 
			},
			{
				"x": 2.0643006378,
				"y": -1.3955471281,
				"z": -1.7486048148,
				"element": "C" 
			},
			{
				"x": 0.7796274753,
				"y": -1.4314281648,
				"z": -2.2867263977,
				"element": "C" 
			},
			{
				"x": -0.2873742064,
				"y": -0.8100248836,
				"z": -1.6429659719,
				"element": "C" 
			},
			{
				"x": 0.7704655736,
				"y": 1.6399032175,
				"z": 2.8859800303,
				"element": "H" 
			},
			{
				"x": 0.5433880611,
				"y": 0.6590604802,
				"z": 4.3483864026,
				"element": "H" 
			},
			{
				"x": -0.6498649442,
				"y": 1.8912196896,
				"z": 3.9065258068,
				"element": "H" 
			},
			{
				"x": -1.4740531003,
				"y": -0.4239348415,
				"z": 3.3469898593,
				"element": "H" 
			},
			{
				"x": -0.0680704423,
				"y": -0.6939457248,
				"z": 2.3243533566,
				"element": "H" 
			},
			{
				"x": -3.1449582029,
				"y": 1.5388330163,
				"z": 2.562762465,
				"element": "H" 
			},
			{
				"x": 1.4322647563,
				"y": 0.4981396172,
				"z": 0.9982837441,
				"element": "H" 
			},
			{
				"x": 3.6689202634,
				"y": -0.4322225445,
				"z": 0.9548426037,
				"element": "H" 
			},
			{
				"x": 4.2498901997,
				"y": -1.3101943021,
				"z": -0.3475611015,
				"element": "H" 
			},
			{
				"x": 2.8877175172,
				"y": -1.8853004162,
				"z": -2.2625298718,
				"element": "H" 
			},
			{
				"x": 0.609359345,
				"y": -1.9599399455,
				"z": -3.2204250773,
				"element": "H" 
			},
			{
				"x": -1.2882643679,
				"y": -0.8327985487,
				"z": -2.0569105011,
				"element": "H" 
			}
		],
		 "valence_orbital": [ 
			{
				"type": "occ",
				"energy": -0.28097,
				"method": "rhf"
			},
			{
				"type": "occ",
				"energy": -0.27238,
				"method": "rhf"
			},
			{
				"type": "occ",
				"energy": -0.24021,
				"method": "rhf"
			},
			{
				"type": "occ",
				"energy": -0.23166,
				"method": "rhf"
			},
			{
				"type": "occ",
				"energy": -0.20684,
				"method": "rhf"
			},
			{
				"type": "unocc",
				"energy": -0.02324,
				"method": "rhf"
			},
			{
				"type": "unocc",
				"energy": 0.00747,
				"method": "rhf"
			},
			{
				"type": "unocc",
				"energy": 0.03423,
				"method": "rhf"
			},
			{
				"type": "unocc",
				"energy": 0.06274,
				"method": "rhf"
			},
			{
				"type": "unocc",
				"energy": 0.06919,
				"method": "rhf"
			}
		],
		"cosmo_sigma_profile": { 
			"-0.025": 0.0,
			"-0.024": 0.0,
			"-0.023": 0.0,
			"-0.022": 0.0,
			"-0.021": 0.0,
			"-0.02": 0.0,
			"-0.019": 0.0,
			"-0.018": 0.0,
			"-0.017": 0.0,
			"-0.016": 0.0,
			"-0.015": 0.0,
			"-0.014": 0.0,
			"-0.013": 0.551461898157,
			"-0.012": 2.59756541586,
			"-0.011": 3.05449679281,
			"-0.01": 4.22020933113,
			"-0.009": 6.38201496412,
			"-0.008": 5.32633715078,
			"-0.007": 8.37363571791,
			"-0.006": 11.5925355058,
			"-0.005": 17.8712276358,
			"-0.004": 21.8180418032,
			"-0.003": 16.8863465097,
			"-0.002": 13.8782282465,
			"-0.001": 15.4974176142,
			"0.0": 14.4314527375,
			"0.001": 9.01388788755,
			"0.002": 8.4050650429,
			"0.003": 9.31798001748,
			"0.004": 9.15208777038,
			"0.005": 12.9285371644,
			"0.006": 9.29398781926,
			"0.007": 3.39186766052,
			"0.008": 3.71051931523,
			"0.009": 2.6356328894,
			"0.01": 2.74675698536,
			"0.011": 2.84944362184,
			"0.012": 3.09669053894,
			"0.013": 3.65044220485,
			"0.014": 4.1535721826,
			"0.015": 3.25866051311,
			"0.016": 2.28703887871,
			"0.017": 1.85679780605,
			"0.018": 0.199157472072,
			"0.019": 0.0,
			"0.02": 0.0,
			"0.021": 0.0,
			"0.022": 0.0,
			"0.023": 0.0,
			"0.024": 0.0,
			"0.025": 0.0
		}
	}
}
