{
	 "smiles": "OC(=O)C=CC1=CC=C(C=C1)C(F)(F)F", 
	 "Tm": 505.15, 
	 "num_atms": 22, 
	 "gaussian": { 
		 "optdone": 1, 
		 "sigma_profile": "yes", 
		 "theory": "DFT", 
		 "functional": "B3LYP", 
		 "basiset": "6-31G**", 
		 "properties": { 
			 "R2extent": 6231.5729, 
			 "electric_dipole_moment_norm": 2.99884562123, 
			 "electric_quadrupole_moment_norm": 27.408544587, 
			 "total_energy": -835.252590534, 
			 "HOMO_LUMO_gap": 0.17006, 
			 "cosmo_polarized_energy": -16.52, 
			 "cosmo_cavitation_energy": 29.2, 
			 "cosmo_dispersion_energy": -20.64, 
			 "cosmo_repulsion_energy": 1.55, 
			 "cosmo_total_nonelectrostatic_energy": 10.1, 
			 "SMD_solvation_energy": 7.49 
		},
		"coords": [
			{
				"x": 2.9935324458,
				"y": 0.2599625718,
				"z": -4.3972745837,
				"element": "O" 
			},
			{
				"x": 3.2264286113,
				"y": 0.3662621407,
				"z": -3.0599434155,
				"element": "C" 
			},
			{
				"x": 4.2074171162,
				"y": 0.9542337787,
				"z": -2.6649439465,
				"element": "O" 
			},
			{
				"x": 2.2164916691,
				"y": -0.2735416134,
				"z": -2.1746942018,
				"element": "C" 
			},
			{
				"x": 2.373294902,
				"y": -0.2150765757,
				"z": -0.8403928826,
				"element": "C" 
			},
			{
				"x": 1.5038790215,
				"y": -0.7741393215,
				"z": 0.1954224158,
				"element": "C" 
			},
			{
				"x": 0.3200457073,
				"y": -1.483832212,
				"z": -0.0863955523,
				"element": "C" 
			},
			{
				"x": -0.4670838937,
				"y": -1.9912355723,
				"z": 0.9384162336,
				"element": "C" 
			},
			{
				"x": -0.0894315362,
				"y": -1.8002929547,
				"z": 2.2731769016,
				"element": "C" 
			},
			{
				"x": 1.0789894793,
				"y": -1.0985728753,
				"z": 2.5738837961,
				"element": "C" 
			},
			{
				"x": 1.8643957786,
				"y": -0.5917375798,
				"z": 1.5425456639,
				"element": "C" 
			},
			{
				"x": -0.9189228835,
				"y": -2.4026066892,
				"z": 3.3759388182,
				"element": "C" 
			},
			{
				"x": -0.7710371606,
				"y": -1.7347131019,
				"z": 4.5398324822,
				"element": "F" 
			},
			{
				"x": -2.2346083244,
				"y": -2.4021853648,
				"z": 3.0674948719,
				"element": "F" 
			},
			{
				"x": -0.5712524484,
				"y": -3.6889644311,
				"z": 3.6099456316,
				"element": "F" 
			},
			{
				"x": 2.1783610373,
				"y": -0.2335665688,
				"z": -4.5622210554,
				"element": "H" 
			},
			{
				"x": 1.3667917399,
				"y": -0.7787173462,
				"z": -2.6294044599,
				"element": "H" 
			},
			{
				"x": 3.2586045697,
				"y": 0.3143875674,
				"z": -0.4915235204,
				"element": "H" 
			},
			{
				"x": 0.0094851983,
				"y": -1.6383139367,
				"z": -1.1146405137,
				"element": "H" 
			},
			{
				"x": -1.3809863982,
				"y": -2.5289160468,
				"z": 0.7098468002,
				"element": "H" 
			},
			{
				"x": 1.366107028,
				"y": -0.944317378,
				"z": 3.6080587322,
				"element": "H" 
			},
			{
				"x": 2.7714983407,
				"y": -0.0428164904,
				"z": 1.7784717844,
				"element": "H" 
			}
		],
		 "valence_orbital": [ 
			{
				"type": "occ",
				"energy": -0.33327,
				"method": "rhf"
			},
			{
				"type": "occ",
				"energy": -0.31338,
				"method": "rhf"
			},
			{
				"type": "occ",
				"energy": -0.28268,
				"method": "rhf"
			},
			{
				"type": "occ",
				"energy": -0.27701,
				"method": "rhf"
			},
			{
				"type": "occ",
				"energy": -0.2571,
				"method": "rhf"
			},
			{
				"type": "unocc",
				"energy": -0.08704,
				"method": "rhf"
			},
			{
				"type": "unocc",
				"energy": -0.03119,
				"method": "rhf"
			},
			{
				"type": "unocc",
				"energy": -0.00384,
				"method": "rhf"
			},
			{
				"type": "unocc",
				"energy": 0.05016,
				"method": "rhf"
			},
			{
				"type": "unocc",
				"energy": 0.07711,
				"method": "rhf"
			}
		],
		"cosmo_sigma_profile": { 
			"-0.025": 0.0,
			"-0.024": 0.0,
			"-0.023": 0.0,
			"-0.022": 0.0,
			"-0.021": 0.0,
			"-0.02": 0.0136114583079,
			"-0.019": 0.71729474088,
			"-0.018": 1.61680404313,
			"-0.017": 0.900406784064,
			"-0.016": 1.02906265545,
			"-0.015": 1.45516434051,
			"-0.014": 1.15792357721,
			"-0.013": 0.448212535806,
			"-0.012": 0.705557262834,
			"-0.011": 1.90187075835,
			"-0.01": 1.96480131927,
			"-0.009": 2.72398151064,
			"-0.008": 4.1616487939,
			"-0.007": 10.6084592163,
			"-0.006": 10.7071081047,
			"-0.005": 9.39446990698,
			"-0.004": 8.09247567181,
			"-0.003": 8.50462899647,
			"-0.002": 11.0400306659,
			"-0.001": 14.0424602482,
			"0.0": 16.2685237576,
			"0.001": 24.3220696319,
			"0.002": 37.3986111388,
			"0.003": 32.1613030993,
			"0.004": 2.77680856449,
			"0.005": 2.16569860826,
			"0.006": 2.23273850319,
			"0.007": 2.50068488896,
			"0.008": 2.48420750374,
			"0.009": 3.08738417071,
			"0.01": 4.33666332398,
			"0.011": 5.00118900237,
			"0.012": 5.87061870317,
			"0.013": 2.41777158354,
			"0.014": 0.292468987189,
			"0.015": 0.0,
			"0.016": 0.0,
			"0.017": 0.0,
			"0.018": 0.0,
			"0.019": 0.0,
			"0.02": 0.0,
			"0.021": 0.0,
			"0.022": 0.0,
			"0.023": 0.0,
			"0.024": 0.0,
			"0.025": 0.0
		}
	}
}
