{
	 "smiles": "CC1=NC(CC(=O)NN)=CS1", 
	 "Tm": 388.15, 
	 "num_atms": 20, 
	 "gaussian": { 
		 "optdone": 1, 
		 "sigma_profile": "yes", 
		 "theory": "DFT", 
		 "functional": "B3LYP", 
		 "basiset": "6-31G**", 
		 "properties": { 
			 "R2extent": 2951.1448, 
			 "electric_dipole_moment_norm": 3.81369396386, 
			 "electric_quadrupole_moment_norm": 6.25969392702, 
			 "total_energy": -871.708399171, 
			 "HOMO_LUMO_gap": 0.19558, 
			 "cosmo_polarized_energy": -13.79, 
			 "cosmo_cavitation_energy": 25.6, 
			 "cosmo_dispersion_energy": -19.04, 
			 "cosmo_repulsion_energy": 1.51, 
			 "cosmo_total_nonelectrostatic_energy": 8.08, 
			 "SMD_solvation_energy": 4.74 
		},
		"coords": [
			{
				"x": 0.7360056239,
				"y": -4.6260716341,
				"z": 0.5204006909,
				"element": "C" 
			},
			{
				"x": 0.825366955,
				"y": -3.2517247043,
				"z": -0.0687995925,
				"element": "C" 
			},
			{
				"x": 0.9494318746,
				"y": -2.1581144453,
				"z": 0.6294556687,
				"element": "N" 
			},
			{
				"x": 1.0076828614,
				"y": -1.0281941002,
				"z": -0.1705118175,
				"element": "C" 
			},
			{
				"x": 1.1307008077,
				"y": 0.3267962378,
				"z": 0.4761923242,
				"element": "C" 
			},
			{
				"x": -0.1671721417,
				"y": 0.7596088238,
				"z": 1.1788457005,
				"element": "C" 
			},
			{
				"x": -1.0106440701,
				"y": 1.4378868338,
				"z": 0.6091507178,
				"element": "O" 
			},
			{
				"x": -0.3308324387,
				"y": 0.3518008456,
				"z": 2.4761304523,
				"element": "N" 
			},
			{
				"x": 0.4564542984,
				"y": -0.566883005,
				"z": 3.1954465541,
				"element": "N" 
			},
			{
				"x": 0.9238707726,
				"y": -1.2714289918,
				"z": -1.5110496409,
				"element": "C" 
			},
			{
				"x": 0.7708087747,
				"y": -2.9744495292,
				"z": -1.8036733451,
				"element": "S" 
			},
			{
				"x": 0.7894814445,
				"y": -4.5454018942,
				"z": 1.6076320717,
				"element": "H" 
			},
			{
				"x": -0.20510537,
				"y": -5.116561983,
				"z": 0.2508976164,
				"element": "H" 
			},
			{
				"x": 1.5550827359,
				"y": -5.2652416161,
				"z": 0.1744420731,
				"element": "H" 
			},
			{
				"x": 1.3226793398,
				"y": 1.0831712612,
				"z": -0.2861685981,
				"element": "H" 
			},
			{
				"x": 1.9698631663,
				"y": 0.3182421642,
				"z": 1.1802189005,
				"element": "H" 
			},
			{
				"x": -1.2300875669,
				"y": 0.570093978,
				"z": 2.8858787257,
				"element": "H" 
			},
			{
				"x": 1.323387808,
				"y": -0.1205316663,
				"z": 3.4868081543,
				"element": "H" 
			},
			{
				"x": 0.6736054503,
				"y": -1.3655941246,
				"z": 2.5972789448,
				"element": "H" 
			},
			{
				"x": 0.9355196743,
				"y": -0.5587024504,
				"z": -2.3228756009,
				"element": "H" 
			}
		],
		 "valence_orbital": [ 
			{
				"type": "occ",
				"energy": -0.29292,
				"method": "rhf"
			},
			{
				"type": "occ",
				"energy": -0.27295,
				"method": "rhf"
			},
			{
				"type": "occ",
				"energy": -0.25582,
				"method": "rhf"
			},
			{
				"type": "occ",
				"energy": -0.24402,
				"method": "rhf"
			},
			{
				"type": "occ",
				"energy": -0.22911,
				"method": "rhf"
			},
			{
				"type": "unocc",
				"energy": -0.03353,
				"method": "rhf"
			},
			{
				"type": "unocc",
				"energy": 0.00965,
				"method": "rhf"
			},
			{
				"type": "unocc",
				"energy": 0.02244,
				"method": "rhf"
			},
			{
				"type": "unocc",
				"energy": 0.04971,
				"method": "rhf"
			},
			{
				"type": "unocc",
				"energy": 0.08179,
				"method": "rhf"
			}
		],
		"cosmo_sigma_profile": { 
			"-0.025": 0.0,
			"-0.024": 0.0,
			"-0.023": 0.0,
			"-0.022": 0.0,
			"-0.021": 0.0,
			"-0.02": 0.0,
			"-0.019": 0.0,
			"-0.018": 0.0,
			"-0.017": 0.0,
			"-0.016": 0.0,
			"-0.015": 0.0,
			"-0.014": 0.0532615763711,
			"-0.013": 0.740244639511,
			"-0.012": 1.13062610041,
			"-0.011": 2.37645434433,
			"-0.01": 2.54167688015,
			"-0.009": 4.13178251182,
			"-0.008": 4.98714748501,
			"-0.007": 5.57664877327,
			"-0.006": 11.4207153091,
			"-0.005": 13.8402799636,
			"-0.004": 13.9031998069,
			"-0.003": 14.7255033631,
			"-0.002": 14.8337319397,
			"-0.001": 13.401640156,
			"0.0": 13.0438726806,
			"0.001": 16.690819603,
			"0.002": 16.7292539827,
			"0.003": 13.8836643565,
			"0.004": 7.46484938318,
			"0.005": 4.39031677659,
			"0.006": 2.53365038147,
			"0.007": 1.89059227706,
			"0.008": 2.26381928978,
			"0.009": 2.07539833182,
			"0.01": 2.66474598204,
			"0.011": 1.87740398912,
			"0.012": 2.41715678336,
			"0.013": 5.11686487849,
			"0.014": 5.48736910508,
			"0.015": 1.86479928706,
			"0.016": 0.668986253527,
			"0.017": 0.147217824285,
			"0.018": 0.0,
			"0.019": 0.0,
			"0.02": 0.0,
			"0.021": 0.0,
			"0.022": 0.0,
			"0.023": 0.0,
			"0.024": 0.0,
			"0.025": 0.0
		}
	}
}
