{
	 "smiles": "COC(=O)C1=C(CC(O)=O)NC(C(C)=O)=C1C", 
	 "Tm": 479.15, 
	 "num_atms": 30, 
	 "gaussian": { 
		 "optdone": 1, 
		 "sigma_profile": "yes", 
		 "theory": "DFT", 
		 "functional": "B3LYP", 
		 "basiset": "6-31G**", 
		 "properties": { 
			 "R2extent": 4578.0195, 
			 "electric_dipole_moment_norm": 3.45311399464, 
			 "electric_quadrupole_moment_norm": 28.3212385774, 
			 "total_energy": -857.91126315, 
			 "HOMO_LUMO_gap": 0.18406, 
			 "cosmo_polarized_energy": -23.84, 
			 "cosmo_cavitation_energy": 34.28, 
			 "cosmo_dispersion_energy": -23.82, 
			 "cosmo_repulsion_energy": 1.84, 
			 "cosmo_total_nonelectrostatic_energy": 12.31, 
			 "SMD_solvation_energy": 8.86 
		},
		"coords": [
			{
				"x": 1.3490015262,
				"y": 3.6036797318,
				"z": 1.1434701639,
				"element": "C" 
			},
			{
				"x": 0.8971523639,
				"y": 2.2395843975,
				"z": 1.0041872277,
				"element": "O" 
			},
			{
				"x": -0.2908617249,
				"y": 2.0847070748,
				"z": 0.3106369207,
				"element": "C" 
			},
			{
				"x": -0.8605502719,
				"y": 3.0392857522,
				"z": -0.1728883855,
				"element": "O" 
			},
			{
				"x": -0.7211127416,
				"y": 0.6897260633,
				"z": 0.2329428866,
				"element": "C" 
			},
			{
				"x": -0.2370241292,
				"y": -0.4058714202,
				"z": 0.9667453013,
				"element": "C" 
			},
			{
				"x": 0.8092199307,
				"y": -0.5395077104,
				"z": 2.0338279114,
				"element": "C" 
			},
			{
				"x": 2.2047293451,
				"y": -0.8442178308,
				"z": 1.4535350253,
				"element": "C" 
			},
			{
				"x": 2.7800740149,
				"y": 0.1681351064,
				"z": 0.7842194305,
				"element": "O" 
			},
			{
				"x": 2.7406363801,
				"y": -1.9179789518,
				"z": 1.5793877473,
				"element": "O" 
			},
			{
				"x": -0.9205973991,
				"y": -1.4940061831,
				"z": 0.542313903,
				"element": "N" 
			},
			{
				"x": -1.8454676933,
				"y": -1.1569132385,
				"z": -0.4456118328,
				"element": "C" 
			},
			{
				"x": -2.708597264,
				"y": -2.1662454164,
				"z": -1.0725686623,
				"element": "C" 
			},
			{
				"x": -2.5462461425,
				"y": -3.6127083538,
				"z": -0.6161226905,
				"element": "C" 
			},
			{
				"x": -3.5311627575,
				"y": -1.8761316665,
				"z": -1.9327670819,
				"element": "O" 
			},
			{
				"x": -1.7450345328,
				"y": 0.2166408318,
				"z": -0.6517455692,
				"element": "C" 
			},
			{
				"x": -2.5435073259,
				"y": 1.0414025368,
				"z": -1.6138795428,
				"element": "C" 
			},
			{
				"x": 2.2837826045,
				"y": 3.546033229,
				"z": 1.7008629116,
				"element": "H" 
			},
			{
				"x": 0.6091758814,
				"y": 4.1918601171,
				"z": 1.6897062562,
				"element": "H" 
			},
			{
				"x": 1.5096705113,
				"y": 4.0541448926,
				"z": 0.1622038468,
				"element": "H" 
			},
			{
				"x": 0.8517878992,
				"y": 0.3811295812,
				"z": 2.620881714,
				"element": "H" 
			},
			{
				"x": 0.560883914,
				"y": -1.3661725315,
				"z": 2.7031159322,
				"element": "H" 
			},
			{
				"x": 2.1875419731,
				"y": 0.9473250122,
				"z": 0.7811613022,
				"element": "H" 
			},
			{
				"x": -0.7603723859,
				"y": -2.4270200014,
				"z": 0.8918825242,
				"element": "H" 
			},
			{
				"x": -1.5301135294,
				"y": -3.9790368603,
				"z": -0.8064452232,
				"element": "H" 
			},
			{
				"x": -2.7491210536,
				"y": -3.7186081032,
				"z": 0.4566342419,
				"element": "H" 
			},
			{
				"x": -3.253513153,
				"y": -4.229614222,
				"z": -1.1706882153,
				"element": "H" 
			},
			{
				"x": -1.8832749616,
				"y": 1.6117294884,
				"z": -2.2747753168,
				"element": "H" 
			},
			{
				"x": -3.1966493242,
				"y": 0.4026914644,
				"z": -2.2056346323,
				"element": "H" 
			},
			{
				"x": -3.1451499537,
				"y": 1.7815572105,
				"z": -1.0768880942,
				"element": "H" 
			}
		],
		 "valence_orbital": [ 
			{
				"type": "occ",
				"energy": -0.29387,
				"method": "rhf"
			},
			{
				"type": "occ",
				"energy": -0.28113,
				"method": "rhf"
			},
			{
				"type": "occ",
				"energy": -0.26986,
				"method": "rhf"
			},
			{
				"type": "occ",
				"energy": -0.25357,
				"method": "rhf"
			},
			{
				"type": "occ",
				"energy": -0.23711,
				"method": "rhf"
			},
			{
				"type": "unocc",
				"energy": -0.05305,
				"method": "rhf"
			},
			{
				"type": "unocc",
				"energy": -0.042,
				"method": "rhf"
			},
			{
				"type": "unocc",
				"energy": 0.00855,
				"method": "rhf"
			},
			{
				"type": "unocc",
				"energy": 0.05245,
				"method": "rhf"
			},
			{
				"type": "unocc",
				"energy": 0.06764,
				"method": "rhf"
			}
		],
		"cosmo_sigma_profile": { 
			"-0.025": 0.0,
			"-0.024": 0.0,
			"-0.023": 0.0,
			"-0.022": 0.0,
			"-0.021": 0.0,
			"-0.02": 0.0,
			"-0.019": 0.0,
			"-0.018": 0.0,
			"-0.017": 0.124724125136,
			"-0.016": 1.00315065541,
			"-0.015": 1.42021425934,
			"-0.014": 1.36421926373,
			"-0.013": 1.6441950149,
			"-0.012": 2.16064005204,
			"-0.011": 1.23491179606,
			"-0.01": 1.70764293354,
			"-0.009": 3.00031654154,
			"-0.008": 7.08607482541,
			"-0.007": 11.9851646059,
			"-0.006": 15.3507952765,
			"-0.005": 17.8675980869,
			"-0.004": 22.9044353078,
			"-0.003": 22.2510561335,
			"-0.002": 17.1380724092,
			"-0.001": 19.7050984175,
			"0.0": 16.7490125834,
			"0.001": 13.7974421539,
			"0.002": 14.4911032609,
			"0.003": 8.3936474687,
			"0.004": 5.51343469354,
			"0.005": 6.4180358847,
			"0.006": 5.68194064201,
			"0.007": 5.55619552904,
			"0.008": 6.39510961804,
			"0.009": 5.84802253384,
			"0.01": 8.80927395545,
			"0.011": 11.6387561425,
			"0.012": 10.1937455701,
			"0.013": 3.96034086946,
			"0.014": 0.473467466809,
			"0.015": 0.0,
			"0.016": 0.0,
			"0.017": 0.0,
			"0.018": 0.0,
			"0.019": 0.0,
			"0.02": 0.0,
			"0.021": 0.0,
			"0.022": 0.0,
			"0.023": 0.0,
			"0.024": 0.0,
			"0.025": 0.0
		}
	}
}
