{
	 "smiles": "CC1=CC(=CC=C1)N=NC1=C2N=C(C)C=C(N2N=C1N)C(F)(F)F", 
	 "Tm": 482.15, 
	 "num_atms": 37, 
	 "gaussian": { 
		 "optdone": 1, 
		 "sigma_profile": "yes", 
		 "theory": "DFT", 
		 "functional": "B3LYP", 
		 "basiset": "6-31G**", 
		 "properties": { 
			 "R2extent": 12061.4447, 
			 "electric_dipole_moment_norm": 1.21425808212, 
			 "electric_quadrupole_moment_norm": 18.5480735703, 
			 "total_energy": -1207.41978303, 
			 "HOMO_LUMO_gap": 0.13011, 
			 "cosmo_polarized_energy": -14.39, 
			 "cosmo_cavitation_energy": 43.85, 
			 "cosmo_dispersion_energy": -31.11, 
			 "cosmo_repulsion_energy": 2.32, 
			 "cosmo_total_nonelectrostatic_energy": 15.05, 
			 "SMD_solvation_energy": 5.32 
		},
		"coords": [
			{
				"x": -1.5650422051,
				"y": 4.6800234851,
				"z": -1.7144567729,
				"element": "C" 
			},
			{
				"x": -1.1489271996,
				"y": 4.2359702053,
				"z": -0.3306539319,
				"element": "C" 
			},
			{
				"x": -0.7501989443,
				"y": 2.9228017869,
				"z": -0.0891954432,
				"element": "C" 
			},
			{
				"x": -0.3628796686,
				"y": 2.5130360715,
				"z": 1.1997204415,
				"element": "C" 
			},
			{
				"x": -0.377740394,
				"y": 3.4348246607,
				"z": 2.2537516506,
				"element": "C" 
			},
			{
				"x": -0.775649483,
				"y": 4.7505186012,
				"z": 2.0197459575,
				"element": "C" 
			},
			{
				"x": -1.1578734774,
				"y": 5.1487520018,
				"z": 0.7403014103,
				"element": "C" 
			},
			{
				"x": 0.054335052,
				"y": 1.2006189638,
				"z": 1.5275386778,
				"element": "N" 
			},
			{
				"x": 0.0564070777,
				"y": 0.3841201685,
				"z": 0.546749269,
				"element": "N" 
			},
			{
				"x": 0.4574672633,
				"y": -0.8889095244,
				"z": 0.8486200883,
				"element": "C" 
			},
			{
				"x": 0.5323099931,
				"y": -1.9432913007,
				"z": -0.0808466747,
				"element": "C" 
			},
			{
				"x": 0.2676234555,
				"y": -2.022288241,
				"z": -1.3911850117,
				"element": "N" 
			},
			{
				"x": 0.4435118603,
				"y": -3.1918662903,
				"z": -1.994424317,
				"element": "C" 
			},
			{
				"x": 0.1436626908,
				"y": -3.2713579066,
				"z": -3.4670480598,
				"element": "C" 
			},
			{
				"x": 0.8986242545,
				"y": -4.3413444216,
				"z": -1.2914008091,
				"element": "C" 
			},
			{
				"x": 1.1667839044,
				"y": -4.2460703664,
				"z": 0.0545359712,
				"element": "C" 
			},
			{
				"x": 0.9841303263,
				"y": -3.0482492736,
				"z": 0.6604431692,
				"element": "N" 
			},
			{
				"x": 1.1986453267,
				"y": -2.772464612,
				"z": 1.9777644213,
				"element": "N" 
			},
			{
				"x": 0.8820490714,
				"y": -1.4722488414,
				"z": 2.0932485488,
				"element": "C" 
			},
			{
				"x": 0.9657695253,
				"y": -0.8167976742,
				"z": 3.2657780153,
				"element": "N" 
			},
			{
				"x": 1.654579447,
				"y": -5.4106828094,
				"z": 0.8888069861,
				"element": "C" 
			},
			{
				"x": 1.7739647542,
				"y": -6.5101673312,
				"z": 0.1145075797,
				"element": "F" 
			},
			{
				"x": 0.7970082427,
				"y": -5.7000637668,
				"z": 1.8801051914,
				"element": "F" 
			},
			{
				"x": 2.8569522889,
				"y": -5.1594554045,
				"z": 1.4301459728,
				"element": "F" 
			},
			{
				"x": -0.9228747431,
				"y": 5.4884940591,
				"z": -2.0829603094,
				"element": "H" 
			},
			{
				"x": -2.5932326833,
				"y": 5.060151123,
				"z": -1.7182774753,
				"element": "H" 
			},
			{
				"x": -1.5098565913,
				"y": 3.8559261701,
				"z": -2.4304264499,
				"element": "H" 
			},
			{
				"x": -0.730796826,
				"y": 2.1914713269,
				"z": -0.8899549302,
				"element": "H" 
			},
			{
				"x": -0.0762557977,
				"y": 3.1040185187,
				"z": 3.242870717,
				"element": "H" 
			},
			{
				"x": -0.7875691784,
				"y": 5.4661367928,
				"z": 2.8369454848,
				"element": "H" 
			},
			{
				"x": -1.4672049154,
				"y": 6.176305716,
				"z": 0.5643755754,
				"element": "H" 
			},
			{
				"x": 1.0321777655,
				"y": -3.5745908684,
				"z": -4.0327262315,
				"element": "H" 
			},
			{
				"x": -0.1909110198,
				"y": -2.2978254492,
				"z": -3.8267441338,
				"element": "H" 
			},
			{
				"x": -0.6368739061,
				"y": -4.0138625751,
				"z": -3.6691510585,
				"element": "H" 
			},
			{
				"x": 1.0379019776,
				"y": -5.288631572,
				"z": -1.7943061432,
				"element": "H" 
			},
			{
				"x": 0.7036841599,
				"y": 0.1607204552,
				"z": 3.2551175994,
				"element": "H" 
			},
			{
				"x": 1.270198596,
				"y": -1.2994218778,
				"z": 4.0950850248,
				"element": "H" 
			}
		],
		 "valence_orbital": [ 
			{
				"type": "occ",
				"energy": -0.26111,
				"method": "rhf"
			},
			{
				"type": "occ",
				"energy": -0.24018,
				"method": "rhf"
			},
			{
				"type": "occ",
				"energy": -0.22877,
				"method": "rhf"
			},
			{
				"type": "occ",
				"energy": -0.22367,
				"method": "rhf"
			},
			{
				"type": "occ",
				"energy": -0.20209,
				"method": "rhf"
			},
			{
				"type": "unocc",
				"energy": -0.07198,
				"method": "rhf"
			},
			{
				"type": "unocc",
				"energy": -0.06251,
				"method": "rhf"
			},
			{
				"type": "unocc",
				"energy": -0.01005,
				"method": "rhf"
			},
			{
				"type": "unocc",
				"energy": 0.00691,
				"method": "rhf"
			},
			{
				"type": "unocc",
				"energy": 0.03257,
				"method": "rhf"
			}
		],
		"cosmo_sigma_profile": { 
			"-0.025": 0.0,
			"-0.024": 0.0,
			"-0.023": 0.0,
			"-0.022": 0.0,
			"-0.021": 0.0,
			"-0.02": 0.0,
			"-0.019": 0.0,
			"-0.018": 0.0,
			"-0.017": 0.0,
			"-0.016": 0.0,
			"-0.015": 0.3159632402,
			"-0.014": 1.40843265856,
			"-0.013": 0.501459246759,
			"-0.012": 1.17062357023,
			"-0.011": 1.14120645274,
			"-0.01": 1.00689857284,
			"-0.009": 2.39620941583,
			"-0.008": 3.5756189107,
			"-0.007": 3.4552932027,
			"-0.006": 11.1825505468,
			"-0.005": 21.2955370426,
			"-0.004": 28.3974987237,
			"-0.003": 30.7693282795,
			"-0.002": 28.5200801998,
			"-0.001": 28.3880865231,
			"0.0": 25.0221283934,
			"0.001": 30.1273560236,
			"0.002": 39.2976959642,
			"0.003": 26.2014698119,
			"0.004": 22.1346106367,
			"0.005": 17.1185183511,
			"0.006": 7.01294450007,
			"0.007": 3.99884502564,
			"0.008": 3.70271150933,
			"0.009": 2.96980874872,
			"0.01": 3.03798057716,
			"0.011": 3.08433598265,
			"0.012": 2.00325505162,
			"0.013": 1.01740755492,
			"0.014": 1.15987330466,
			"0.015": 0.113534288029,
			"0.016": 0.0,
			"0.017": 0.0,
			"0.018": 0.0,
			"0.019": 0.0,
			"0.02": 0.0,
			"0.021": 0.0,
			"0.022": 0.0,
			"0.023": 0.0,
			"0.024": 0.0,
			"0.025": 0.0
		}
	}
}
