{
	 "smiles": "NC(=O)C(=N/NC1=CC=CC(=C1)C(F)(F)F)C1=NC2=C(S1)C=CC=C2", 
	 "Tm": 463.15, 
	 "num_atms": 36, 
	 "gaussian": { 
		 "optdone": 1, 
		 "sigma_profile": "yes", 
		 "theory": "DFT", 
		 "functional": "B3LYP", 
		 "basiset": "6-31G**", 
		 "properties": { 
			 "R2extent": 14775.0746, 
			 "electric_dipole_moment_norm": 4.29972246779, 
			 "electric_quadrupole_moment_norm": 13.9613471341, 
			 "total_energy": -1608.29269405, 
			 "HOMO_LUMO_gap": 0.1294, 
			 "cosmo_polarized_energy": -11.28, 
			 "cosmo_cavitation_energy": 44.66, 
			 "cosmo_dispersion_energy": -32.38, 
			 "cosmo_repulsion_energy": 2.31, 
			 "cosmo_total_nonelectrostatic_energy": 14.59, 
			 "SMD_solvation_energy": 7.34 
		},
		"coords": [
			{
				"x": 1.6304561368,
				"y": 1.6514344434,
				"z": 2.814871393,
				"element": "N" 
			},
			{
				"x": 1.3477876622,
				"y": 1.6474723138,
				"z": 1.4981031066,
				"element": "C" 
			},
			{
				"x": 1.7384019191,
				"y": 2.5498291605,
				"z": 0.7329334761,
				"element": "O" 
			},
			{
				"x": 0.5333007933,
				"y": 0.5035024795,
				"z": 0.9674010078,
				"element": "C" 
			},
			{
				"x": 0.1983065996,
				"y": 0.3968156953,
				"z": -0.2998821588,
				"element": "N" 
			},
			{
				"x": 0.5624906008,
				"y": 1.2970679993,
				"z": -1.182341948,
				"element": "N" 
			},
			{
				"x": 0.20446861,
				"y": 1.1776209413,
				"z": -2.5294943099,
				"element": "C" 
			},
			{
				"x": -0.5543449967,
				"y": 0.1003031804,
				"z": -3.0103611876,
				"element": "C" 
			},
			{
				"x": -0.8821751424,
				"y": 0.0433849917,
				"z": -4.3618435544,
				"element": "C" 
			},
			{
				"x": -0.4660421005,
				"y": 1.0402537003,
				"z": -5.2457160937,
				"element": "C" 
			},
			{
				"x": 0.2906652552,
				"y": 2.1085714857,
				"z": -4.7571084702,
				"element": "C" 
			},
			{
				"x": 0.6280135222,
				"y": 2.1843678051,
				"z": -3.4072881854,
				"element": "C" 
			},
			{
				"x": 0.797506189,
				"y": 3.1594003182,
				"z": -5.7092766818,
				"element": "C" 
			},
			{
				"x": 1.96292777,
				"y": 2.7854536608,
				"z": -6.2867323819,
				"element": "F" 
			},
			{
				"x": -0.0786902454,
				"y": 3.3904783871,
				"z": -6.7116682323,
				"element": "F" 
			},
			{
				"x": 1.0266567687,
				"y": 4.3377174966,
				"z": -5.088749024,
				"element": "F" 
			},
			{
				"x": 0.0447011974,
				"y": -0.5857086792,
				"z": 1.8109452874,
				"element": "C" 
			},
			{
				"x": 0.2487753392,
				"y": -0.6985059114,
				"z": 3.095594443,
				"element": "N" 
			},
			{
				"x": -0.3398216604,
				"y": -1.8381921524,
				"z": 3.6149449033,
				"element": "C" 
			},
			{
				"x": -1.0295644109,
				"y": -2.6350246872,
				"z": 2.6700911713,
				"element": "C" 
			},
			{
				"x": -0.9154414686,
				"y": -1.8984624286,
				"z": 1.0828065616,
				"element": "S" 
			},
			{
				"x": -1.6723459204,
				"y": -3.8148759674,
				"z": 3.0505132549,
				"element": "C" 
			},
			{
				"x": -1.6182111578,
				"y": -4.19137688,
				"z": 4.3910172285,
				"element": "C" 
			},
			{
				"x": -0.9359022654,
				"y": -3.4068981631,
				"z": 5.3367928117,
				"element": "C" 
			},
			{
				"x": -0.295487402,
				"y": -2.2323370832,
				"z": 4.9602730416,
				"element": "C" 
			},
			{
				"x": 2.1780114991,
				"y": 2.4211427929,
				"z": 3.1685724654,
				"element": "H" 
			},
			{
				"x": 1.2928340476,
				"y": 0.8950022452,
				"z": 3.4075167071,
				"element": "H" 
			},
			{
				"x": 1.1226576129,
				"y": 2.0859966109,
				"z": -0.8228649008,
				"element": "H" 
			},
			{
				"x": -0.877465664,
				"y": -0.6708869999,
				"z": -2.3220606074,
				"element": "H" 
			},
			{
				"x": -1.4735981492,
				"y": -0.7892755568,
				"z": -4.7302553287,
				"element": "H" 
			},
			{
				"x": -0.7303151793,
				"y": 0.9969745181,
				"z": -6.2961227329,
				"element": "H" 
			},
			{
				"x": 1.2081070237,
				"y": 3.0233705149,
				"z": -3.0373059698,
				"element": "H" 
			},
			{
				"x": -2.2006290934,
				"y": -4.4243889645,
				"z": 2.3243514676,
				"element": "H" 
			},
			{
				"x": -2.1114999784,
				"y": -5.1053744957,
				"z": 4.7076281089,
				"element": "H" 
			},
			{
				"x": -0.9095489644,
				"y": -3.7238101459,
				"z": 6.3748911622,
				"element": "H" 
			},
			{
				"x": 0.2347152522,
				"y": -1.6176426258,
				"z": 5.6804241694,
				"element": "H" 
			}
		],
		 "valence_orbital": [ 
			{
				"type": "occ",
				"energy": -0.27232,
				"method": "rhf"
			},
			{
				"type": "occ",
				"energy": -0.26321,
				"method": "rhf"
			},
			{
				"type": "occ",
				"energy": -0.2548,
				"method": "rhf"
			},
			{
				"type": "occ",
				"energy": -0.24106,
				"method": "rhf"
			},
			{
				"type": "occ",
				"energy": -0.21204,
				"method": "rhf"
			},
			{
				"type": "unocc",
				"energy": -0.08264,
				"method": "rhf"
			},
			{
				"type": "unocc",
				"energy": -0.02851,
				"method": "rhf"
			},
			{
				"type": "unocc",
				"energy": -0.02335,
				"method": "rhf"
			},
			{
				"type": "unocc",
				"energy": -0.01131,
				"method": "rhf"
			},
			{
				"type": "unocc",
				"energy": 0.00099,
				"method": "rhf"
			}
		],
		"cosmo_sigma_profile": { 
			"-0.025": 0.0,
			"-0.024": 0.0,
			"-0.023": 0.0,
			"-0.022": 0.0,
			"-0.021": 0.0,
			"-0.02": 0.0,
			"-0.019": 0.0,
			"-0.018": 0.0,
			"-0.017": 0.0,
			"-0.016": 0.0,
			"-0.015": 0.172404473171,
			"-0.014": 1.04439939149,
			"-0.013": 1.19459951094,
			"-0.012": 1.04558352248,
			"-0.011": 2.06541256827,
			"-0.01": 2.09523690514,
			"-0.009": 2.58549981206,
			"-0.008": 2.77413288612,
			"-0.007": 9.23871769655,
			"-0.006": 16.3939848887,
			"-0.005": 18.5451461998,
			"-0.004": 17.1444604172,
			"-0.003": 17.864584556,
			"-0.002": 21.3743291138,
			"-0.001": 23.9842739296,
			"0.0": 34.6737197232,
			"0.001": 37.7117591342,
			"0.002": 50.8672604953,
			"0.003": 57.4820396236,
			"0.004": 23.3203427222,
			"0.005": 8.29877965026,
			"0.006": 1.45824906031,
			"0.007": 0.919506123872,
			"0.008": 1.25783604757,
			"0.009": 1.51004692686,
			"0.01": 1.28205293684,
			"0.011": 1.4753893074,
			"0.012": 2.17352051767,
			"0.013": 1.94857827354,
			"0.014": 0.48906385312,
			"0.015": 0.0,
			"0.016": 0.0,
			"0.017": 0.0,
			"0.018": 0.0,
			"0.019": 0.0,
			"0.02": 0.0,
			"0.021": 0.0,
			"0.022": 0.0,
			"0.023": 0.0,
			"0.024": 0.0,
			"0.025": 0.0
		}
	}
}
