{
	 "smiles": "OC1=CC=C(C=C1)C1=C(O)C(=O)C2=C(O)C=C(O)C=C2O1", 
	 "Tm": 550.15, 
	 "num_atms": 31, 
	 "gaussian": { 
		 "optdone": 1, 
		 "sigma_profile": "yes", 
		 "theory": "DFT", 
		 "functional": "B3LYP", 
		 "basiset": "6-31G**", 
		 "properties": { 
			 "R2extent": 8117.0986, 
			 "electric_dipole_moment_norm": 4.19296540768, 
			 "electric_quadrupole_moment_norm": 22.9574758769, 
			 "total_energy": -1028.97221837, 
			 "HOMO_LUMO_gap": 0.13777, 
			 "cosmo_polarized_energy": -18.19, 
			 "cosmo_cavitation_energy": 35.66, 
			 "cosmo_dispersion_energy": -27.14, 
			 "cosmo_repulsion_energy": 2.0, 
			 "cosmo_total_nonelectrostatic_energy": 10.53, 
			 "SMD_solvation_energy": 7.87 
		},
		"coords": [
			{
				"x": 3.1929423152,
				"y": -4.2229007852,
				"z": 0.3196745567,
				"element": "O" 
			},
			{
				"x": 2.2649576802,
				"y": -3.2483500095,
				"z": 0.1114140095,
				"element": "C" 
			},
			{
				"x": 0.8958228005,
				"y": -3.5137550594,
				"z": -0.003864871,
				"element": "C" 
			},
			{
				"x": -0.0071467241,
				"y": -2.4781033097,
				"z": -0.21630838,
				"element": "C" 
			},
			{
				"x": 0.4358184896,
				"y": -1.1440736036,
				"z": -0.3196802247,
				"element": "C" 
			},
			{
				"x": 1.8206393616,
				"y": -0.8972379218,
				"z": -0.2007101211,
				"element": "C" 
			},
			{
				"x": 2.7228053078,
				"y": -1.9286282617,
				"z": 0.0111991088,
				"element": "C" 
			},
			{
				"x": -0.4922804079,
				"y": -0.0343644535,
				"z": -0.5430581062,
				"element": "C" 
			},
			{
				"x": -1.8551761442,
				"y": -0.0745366113,
				"z": -0.6819362091,
				"element": "C" 
			},
			{
				"x": -2.589747299,
				"y": -1.2134345813,
				"z": -0.6301764803,
				"element": "O" 
			},
			{
				"x": -2.6321258081,
				"y": 1.1322665351,
				"z": -0.9001855778,
				"element": "C" 
			},
			{
				"x": -3.8842363753,
				"y": 1.0278738414,
				"z": -1.0197666259,
				"element": "O" 
			},
			{
				"x": -1.9092153925,
				"y": 2.3675105145,
				"z": -0.9638856798,
				"element": "C" 
			},
			{
				"x": -2.566228735,
				"y": 3.6166729097,
				"z": -1.1742835425,
				"element": "C" 
			},
			{
				"x": -3.8976851423,
				"y": 3.6574129399,
				"z": -1.3186266791,
				"element": "O" 
			},
			{
				"x": -1.8216373444,
				"y": 4.7880806836,
				"z": -1.2287221459,
				"element": "C" 
			},
			{
				"x": -0.4275137798,
				"y": 4.7276715244,
				"z": -1.0754375034,
				"element": "C" 
			},
			{
				"x": 0.2363161408,
				"y": 5.911161665,
				"z": -1.1397094716,
				"element": "O" 
			},
			{
				"x": 0.2465406636,
				"y": 3.5185350205,
				"z": -0.8676938112,
				"element": "C" 
			},
			{
				"x": -0.5118177568,
				"y": 2.3515765664,
				"z": -0.8152532583,
				"element": "C" 
			},
			{
				"x": 0.1501398088,
				"y": 1.1819122375,
				"z": -0.613267993,
				"element": "O" 
			},
			{
				"x": 2.7501923004,
				"y": -5.080373532,
				"z": 0.3697347381,
				"element": "H" 
			},
			{
				"x": 0.5321355076,
				"y": -4.5363315674,
				"z": 0.0727950117,
				"element": "H" 
			},
			{
				"x": -1.0610595722,
				"y": -2.7032543403,
				"z": -0.302715799,
				"element": "H" 
			},
			{
				"x": 2.1884262447,
				"y": 0.1184995556,
				"z": -0.276161652,
				"element": "H" 
			},
			{
				"x": 3.7861005975,
				"y": -1.7335818719,
				"z": 0.1019454697,
				"element": "H" 
			},
			{
				"x": -3.5091208865,
				"y": -0.897722079,
				"z": -0.7624827376,
				"element": "H" 
			},
			{
				"x": -4.2279840046,
				"y": 2.7262134798,
				"z": -1.2477568458,
				"element": "H" 
			},
			{
				"x": -2.3089850129,
				"y": 5.7419379672,
				"z": -1.3878784462,
				"element": "H" 
			},
			{
				"x": 1.1830222675,
				"y": 5.7572491841,
				"z": -1.0227913274,
				"element": "H" 
			},
			{
				"x": 1.3240008997,
				"y": 3.4726733632,
				"z": -0.7493094057,
				"element": "H" 
			}
		],
		 "valence_orbital": [ 
			{
				"type": "occ",
				"energy": -0.26522,
				"method": "rhf"
			},
			{
				"type": "occ",
				"energy": -0.2627,
				"method": "rhf"
			},
			{
				"type": "occ",
				"energy": -0.24378,
				"method": "rhf"
			},
			{
				"type": "occ",
				"energy": -0.23,
				"method": "rhf"
			},
			{
				"type": "occ",
				"energy": -0.20461,
				"method": "rhf"
			},
			{
				"type": "unocc",
				"energy": -0.06684,
				"method": "rhf"
			},
			{
				"type": "unocc",
				"energy": -0.02013,
				"method": "rhf"
			},
			{
				"type": "unocc",
				"energy": -0.00988,
				"method": "rhf"
			},
			{
				"type": "unocc",
				"energy": 0.00514,
				"method": "rhf"
			},
			{
				"type": "unocc",
				"energy": 0.03555,
				"method": "rhf"
			}
		],
		"cosmo_sigma_profile": { 
			"-0.025": 0.0,
			"-0.024": 0.0,
			"-0.023": 0.0,
			"-0.022": 0.0,
			"-0.021": 0.0,
			"-0.02": 0.0,
			"-0.019": 0.482498620838,
			"-0.018": 2.07045532324,
			"-0.017": 1.98425096862,
			"-0.016": 2.36174086586,
			"-0.015": 2.04427169096,
			"-0.014": 2.1436051779,
			"-0.013": 1.63564004141,
			"-0.012": 2.04457026331,
			"-0.011": 3.3144220043,
			"-0.01": 3.64327631147,
			"-0.009": 2.57472586466,
			"-0.008": 2.69491866494,
			"-0.007": 5.51746225505,
			"-0.006": 8.47642767077,
			"-0.005": 11.0124652281,
			"-0.004": 10.8695790568,
			"-0.003": 14.0941845058,
			"-0.002": 17.2583090346,
			"-0.001": 19.1138978597,
			"0.0": 20.5412102732,
			"0.001": 28.1928131762,
			"0.002": 28.8568700172,
			"0.003": 26.3560275754,
			"0.004": 20.6684745752,
			"0.005": 10.2384186453,
			"0.006": 7.18977810698,
			"0.007": 6.7311769854,
			"0.008": 6.44513764357,
			"0.009": 6.17464904818,
			"0.01": 7.52952719301,
			"0.011": 4.27566076293,
			"0.012": 0.18301577009,
			"0.013": 0.0,
			"0.014": 0.0,
			"0.015": 0.0,
			"0.016": 0.0,
			"0.017": 0.0,
			"0.018": 0.0,
			"0.019": 0.0,
			"0.02": 0.0,
			"0.021": 0.0,
			"0.022": 0.0,
			"0.023": 0.0,
			"0.024": 0.0,
			"0.025": 0.0
		}
	}
}
