{
	 "smiles": "CN(C(=O)C1=CC=C(C)C=C1)C1=CC=C(O)C=C1", 
	 "Tm": 389.15, 
	 "num_atms": 33, 
	 "gaussian": { 
		 "optdone": 1, 
		 "sigma_profile": "yes", 
		 "theory": "DFT", 
		 "functional": "B3LYP", 
		 "basiset": "6-31G**", 
		 "properties": { 
			 "R2extent": 5149.0828, 
			 "electric_dipole_moment_norm": 4.17586135546, 
			 "electric_quadrupole_moment_norm": 18.5635041622, 
			 "total_energy": -785.847868743, 
			 "HOMO_LUMO_gap": 0.18574, 
			 "cosmo_polarized_energy": -15.77, 
			 "cosmo_cavitation_energy": 36.67, 
			 "cosmo_dispersion_energy": -25.39, 
			 "cosmo_repulsion_energy": 1.99, 
			 "cosmo_total_nonelectrostatic_energy": 13.26, 
			 "SMD_solvation_energy": 7.19 
		},
		"coords": [
			{
				"x": -0.5525805137,
				"y": -1.642969387,
				"z": 3.5010181121,
				"element": "C" 
			},
			{
				"x": -0.127435893,
				"y": -1.0866275273,
				"z": 2.2102248632,
				"element": "N" 
			},
			{
				"x": 0.987077353,
				"y": -0.2593547714,
				"z": 2.2484259005,
				"element": "C" 
			},
			{
				"x": 1.5261370881,
				"y": 0.0113712293,
				"z": 3.3196015537,
				"element": "O" 
			},
			{
				"x": 1.5679863422,
				"y": 0.2554739446,
				"z": 0.9615706014,
				"element": "C" 
			},
			{
				"x": 1.5601738557,
				"y": -0.4542829906,
				"z": -0.2465558444,
				"element": "C" 
			},
			{
				"x": 2.2054944596,
				"y": 0.0591992359,
				"z": -1.3701982165,
				"element": "C" 
			},
			{
				"x": 2.8677528451,
				"y": 1.2929952253,
				"z": -1.3279683026,
				"element": "C" 
			},
			{
				"x": 3.5807319604,
				"y": 1.8366093165,
				"z": -2.543042211,
				"element": "C" 
			},
			{
				"x": 2.8764948923,
				"y": 1.9946659319,
				"z": -0.1136061563,
				"element": "C" 
			},
			{
				"x": 2.251284613,
				"y": 1.4788102521,
				"z": 1.0170290841,
				"element": "C" 
			},
			{
				"x": -1.1123555565,
				"y": -1.0518122814,
				"z": 1.1709414555,
				"element": "C" 
			},
			{
				"x": -1.685813296,
				"y": 0.1568013168,
				"z": 0.7514051029,
				"element": "C" 
			},
			{
				"x": -2.6601162448,
				"y": 0.1771605399,
				"z": -0.2412412505,
				"element": "C" 
			},
			{
				"x": -3.0990130819,
				"y": -1.021458851,
				"z": -0.8145835964,
				"element": "C" 
			},
			{
				"x": -4.0648335695,
				"y": -0.9434561451,
				"z": -1.7768647338,
				"element": "O" 
			},
			{
				"x": -2.5474427669,
				"y": -2.235426505,
				"z": -0.3897690099,
				"element": "C" 
			},
			{
				"x": -1.5578272299,
				"y": -2.2453000073,
				"z": 0.5916184304,
				"element": "C" 
			},
			{
				"x": -1.1256603068,
				"y": -0.9113695418,
				"z": 4.0844865317,
				"element": "H" 
			},
			{
				"x": -1.1781324785,
				"y": -2.519122161,
				"z": 3.3224583994,
				"element": "H" 
			},
			{
				"x": 0.3283419214,
				"y": -1.9224672606,
				"z": 4.0780559883,
				"element": "H" 
			},
			{
				"x": 1.0579614789,
				"y": -1.4126818235,
				"z": -0.3123045323,
				"element": "H" 
			},
			{
				"x": 2.1942337098,
				"y": -0.5090761029,
				"z": -2.2970870202,
				"element": "H" 
			},
			{
				"x": 3.5177771563,
				"y": 2.9282810338,
				"z": -2.5889437891,
				"element": "H" 
			},
			{
				"x": 3.1612048674,
				"y": 1.4324419251,
				"z": -3.4689520952,
				"element": "H" 
			},
			{
				"x": 4.6462662466,
				"y": 1.5747259069,
				"z": -2.5252610518,
				"element": "H" 
			},
			{
				"x": 3.3867751548,
				"y": 2.9530173073,
				"z": -0.0535905286,
				"element": "H" 
			},
			{
				"x": 2.2871574095,
				"y": 2.0091509327,
				"z": 1.9627940643,
				"element": "H" 
			},
			{
				"x": -1.3585831189,
				"y": 1.0873092716,
				"z": 1.2040688271,
				"element": "H" 
			},
			{
				"x": -3.1010055744,
				"y": 1.1104935261,
				"z": -0.5749349871,
				"element": "H" 
			},
			{
				"x": -4.2796432413,
				"y": -1.8331407464,
				"z": -2.0855002122,
				"element": "H" 
			},
			{
				"x": -2.8830234517,
				"y": -3.1713991751,
				"z": -0.8314926413,
				"element": "H" 
			},
			{
				"x": -1.1191850303,
				"y": -3.1876616183,
				"z": 0.9063972644,
				"element": "H" 
			}
		],
		 "valence_orbital": [ 
			{
				"type": "occ",
				"energy": -0.26262,
				"method": "rhf"
			},
			{
				"type": "occ",
				"energy": -0.24873,
				"method": "rhf"
			},
			{
				"type": "occ",
				"energy": -0.24569,
				"method": "rhf"
			},
			{
				"type": "occ",
				"energy": -0.23244,
				"method": "rhf"
			},
			{
				"type": "occ",
				"energy": -0.21378,
				"method": "rhf"
			},
			{
				"type": "unocc",
				"energy": -0.02804,
				"method": "rhf"
			},
			{
				"type": "unocc",
				"energy": -0.01263,
				"method": "rhf"
			},
			{
				"type": "unocc",
				"energy": -0.00152,
				"method": "rhf"
			},
			{
				"type": "unocc",
				"energy": 0.00754,
				"method": "rhf"
			},
			{
				"type": "unocc",
				"energy": 0.05755,
				"method": "rhf"
			}
		],
		"cosmo_sigma_profile": { 
			"-0.025": 0.0,
			"-0.024": 0.0,
			"-0.023": 0.0,
			"-0.022": 0.0,
			"-0.021": 0.0,
			"-0.02": 0.0,
			"-0.019": 0.0,
			"-0.018": 0.521401245519,
			"-0.017": 1.35519379095,
			"-0.016": 0.598423430283,
			"-0.015": 1.41866550577,
			"-0.014": 1.1458176675,
			"-0.013": 1.00727302635,
			"-0.012": 0.767906676569,
			"-0.011": 0.681006872578,
			"-0.01": 0.999408908278,
			"-0.009": 1.30893354389,
			"-0.008": 1.24333187447,
			"-0.007": 2.73442571829,
			"-0.006": 9.11007723216,
			"-0.005": 20.0960358011,
			"-0.004": 27.1299068739,
			"-0.003": 26.238437139,
			"-0.002": 26.9466911718,
			"-0.001": 24.5465160096,
			"0.0": 24.0274506587,
			"0.001": 16.7156697026,
			"0.002": 14.5362770969,
			"0.003": 18.9579451521,
			"0.004": 20.1889123207,
			"0.005": 18.0974163008,
			"0.006": 4.84339898457,
			"0.007": 3.35050922514,
			"0.008": 2.90597468475,
			"0.009": 2.49019597891,
			"0.01": 3.64833075052,
			"0.011": 3.60446750411,
			"0.012": 2.32475672585,
			"0.013": 3.8283408277,
			"0.014": 3.60635736411,
			"0.015": 0.206699935486,
			"0.016": 0.0,
			"0.017": 0.0,
			"0.018": 0.0,
			"0.019": 0.0,
			"0.02": 0.0,
			"0.021": 0.0,
			"0.022": 0.0,
			"0.023": 0.0,
			"0.024": 0.0,
			"0.025": 0.0
		}
	}
}
