{
	 "smiles": "CC1=CC2=NC=NN2C(Cl)=C1", 
	 "Tm": 367.15, 
	 "num_atms": 17, 
	 "gaussian": { 
		 "optdone": 1, 
		 "sigma_profile": "yes", 
		 "theory": "DFT", 
		 "functional": "B3LYP", 
		 "basiset": "6-31G**", 
		 "properties": { 
			 "R2extent": 1992.6922, 
			 "electric_dipole_moment_norm": 3.56695623466, 
			 "electric_quadrupole_moment_norm": 7.12747538333, 
			 "total_energy": -894.790274603, 
			 "HOMO_LUMO_gap": 0.18954, 
			 "cosmo_polarized_energy": -9.52, 
			 "cosmo_cavitation_energy": 23.08, 
			 "cosmo_dispersion_energy": -17.48, 
			 "cosmo_repulsion_energy": 1.38, 
			 "cosmo_total_nonelectrostatic_energy": 6.99, 
			 "SMD_solvation_energy": 1.37 
		},
		"coords": [
			{
				"x": 0.5287769742,
				"y": 1.114504582,
				"z": -3.3816607818,
				"element": "C" 
			},
			{
				"x": 0.442335608,
				"y": 0.7146466056,
				"z": -1.9299648324,
				"element": "C" 
			},
			{
				"x": 0.2448569503,
				"y": -0.5962918683,
				"z": -1.5498757341,
				"element": "C" 
			},
			{
				"x": 0.1708455287,
				"y": -0.9215418707,
				"z": -0.1789855451,
				"element": "C" 
			},
			{
				"x": -0.0093346217,
				"y": -2.0771978447,
				"z": 0.4663226375,
				"element": "N" 
			},
			{
				"x": 0.0193731427,
				"y": -1.7049501347,
				"z": 1.7646851657,
				"element": "C" 
			},
			{
				"x": 0.2020606209,
				"y": -0.4084315398,
				"z": 2.0208107478,
				"element": "N" 
			},
			{
				"x": 0.3005820357,
				"y": 0.1010217282,
				"z": 0.7651443332,
				"element": "N" 
			},
			{
				"x": 0.4966609875,
				"y": 1.4051755829,
				"z": 0.4047876163,
				"element": "C" 
			},
			{
				"x": 0.6409775605,
				"y": 2.5720172646,
				"z": 1.6700523001,
				"element": "Cl" 
			},
			{
				"x": 0.5686147261,
				"y": 1.7216623535,
				"z": -0.9260688167,
				"element": "C" 
			},
			{
				"x": -0.252086232,
				"y": 1.8397926773,
				"z": -3.6372220543,
				"element": "H" 
			},
			{
				"x": 0.416403071,
				"y": 0.2496408463,
				"z": -4.0393143803,
				"element": "H" 
			},
			{
				"x": 1.4925433387,
				"y": 1.5870378028,
				"z": -3.6029555732,
				"element": "H" 
			},
			{
				"x": 0.1430952013,
				"y": -1.396319577,
				"z": -2.273763369,
				"element": "H" 
			},
			{
				"x": -0.0985803427,
				"y": -2.4085704839,
				"z": 2.5782842843,
				"element": "H" 
			},
			{
				"x": 0.7241754508,
				"y": 2.7575038762,
				"z": -1.2030759981,
				"element": "H" 
			}
		],
		 "valence_orbital": [ 
			{
				"type": "occ",
				"energy": -0.32654,
				"method": "rhf"
			},
			{
				"type": "occ",
				"energy": -0.32332,
				"method": "rhf"
			},
			{
				"type": "occ",
				"energy": -0.27954,
				"method": "rhf"
			},
			{
				"type": "occ",
				"energy": -0.26641,
				"method": "rhf"
			},
			{
				"type": "occ",
				"energy": -0.23551,
				"method": "rhf"
			},
			{
				"type": "unocc",
				"energy": -0.04597,
				"method": "rhf"
			},
			{
				"type": "unocc",
				"energy": -0.021,
				"method": "rhf"
			},
			{
				"type": "unocc",
				"energy": 0.01434,
				"method": "rhf"
			},
			{
				"type": "unocc",
				"energy": 0.04974,
				"method": "rhf"
			},
			{
				"type": "unocc",
				"energy": 0.08987,
				"method": "rhf"
			}
		],
		"cosmo_sigma_profile": { 
			"-0.025": 0.0,
			"-0.024": 0.0,
			"-0.023": 0.0,
			"-0.022": 0.0,
			"-0.021": 0.0,
			"-0.02": 0.0,
			"-0.019": 0.0,
			"-0.018": 0.0,
			"-0.017": 0.0,
			"-0.016": 0.0,
			"-0.015": 0.0,
			"-0.014": 0.0,
			"-0.013": 0.0,
			"-0.012": 0.0,
			"-0.011": 0.0,
			"-0.01": 0.00890229428879,
			"-0.009": 1.92533242833,
			"-0.008": 4.56916309305,
			"-0.007": 5.33810690662,
			"-0.006": 7.53735659299,
			"-0.005": 11.7962437418,
			"-0.004": 13.3852644437,
			"-0.003": 16.6167550013,
			"-0.002": 16.6584272715,
			"-0.001": 20.625604232,
			"0.0": 18.1074604284,
			"0.001": 17.7632467287,
			"0.002": 13.3047578658,
			"0.003": 7.7783624804,
			"0.004": 4.39766143778,
			"0.005": 3.48716957415,
			"0.006": 3.61021541128,
			"0.007": 3.00478781374,
			"0.008": 1.96671929701,
			"0.009": 2.7520916494,
			"0.01": 2.85214182817,
			"0.011": 2.51160484009,
			"0.012": 2.04718709457,
			"0.013": 2.549804508,
			"0.014": 1.2559515691,
			"0.015": 1.20348782185,
			"0.016": 0.923133809453,
			"0.017": 0.0793557085605,
			"0.018": 0.0,
			"0.019": 0.0,
			"0.02": 0.0,
			"0.021": 0.0,
			"0.022": 0.0,
			"0.023": 0.0,
			"0.024": 0.0,
			"0.025": 0.0
		}
	}
}
