{
	 "smiles": "NCC(O)C(O)=O", 
	 "Tm": 508.15, 
	 "num_atms": 14, 
	 "gaussian": { 
		 "optdone": 1, 
		 "sigma_profile": "yes", 
		 "theory": "DFT", 
		 "functional": "B3LYP", 
		 "basiset": "6-31G**", 
		 "properties": { 
			 "R2extent": 1098.1084, 
			 "electric_dipole_moment_norm": 2.97487868156, 
			 "electric_quadrupole_moment_norm": 10.7047089549, 
			 "total_energy": -398.953916868, 
			 "HOMO_LUMO_gap": 0.23361, 
			 "cosmo_polarized_energy": -17.23, 
			 "cosmo_cavitation_energy": 17.65, 
			 "cosmo_dispersion_energy": -13.22, 
			 "cosmo_repulsion_energy": 1.15, 
			 "cosmo_total_nonelectrostatic_energy": 5.58, 
			 "SMD_solvation_energy": 2.88 
		},
		"coords": [
			{
				"x": 1.130998207,
				"y": -0.5447872501,
				"z": -1.0127213541,
				"element": "N" 
			},
			{
				"x": 0.2764414697,
				"y": 0.6175971392,
				"z": -0.8341840094,
				"element": "C" 
			},
			{
				"x": -0.513991987,
				"y": 0.6242331565,
				"z": 0.5045698653,
				"element": "C" 
			},
			{
				"x": -1.2158025487,
				"y": -0.5850701569,
				"z": 0.649890377,
				"element": "O" 
			},
			{
				"x": -1.5001679299,
				"y": 1.7898804105,
				"z": 0.5612112721,
				"element": "C" 
			},
			{
				"x": -0.9849419312,
				"y": 3.0365156804,
				"z": 0.5873408862,
				"element": "O" 
			},
			{
				"x": -2.6968340663,
				"y": 1.6109368408,
				"z": 0.5458782902,
				"element": "O" 
			},
			{
				"x": 0.5639946531,
				"y": -1.3786156442,
				"z": -0.8725057301,
				"element": "H" 
			},
			{
				"x": 1.8516922602,
				"y": -0.5664838139,
				"z": -0.2938017755,
				"element": "H" 
			},
			{
				"x": -0.4516373138,
				"y": 0.6413874978,
				"z": -1.6537974952,
				"element": "H" 
			},
			{
				"x": 0.8866014132,
				"y": 1.5268170224,
				"z": -0.921078308,
				"element": "H" 
			},
			{
				"x": 0.2028827693,
				"y": 0.7292459613,
				"z": 1.3376560194,
				"element": "H" 
			},
			{
				"x": -2.1586262488,
				"y": -0.3445954253,
				"z": 0.6029103424,
				"element": "H" 
			},
			{
				"x": -0.0176087467,
				"y": 3.0023385816,
				"z": 0.6176316198,
				"element": "H" 
			}
		],
		 "valence_orbital": [ 
			{
				"type": "occ",
				"energy": -0.35315,
				"method": "rhf"
			},
			{
				"type": "occ",
				"energy": -0.33751,
				"method": "rhf"
			},
			{
				"type": "occ",
				"energy": -0.30322,
				"method": "rhf"
			},
			{
				"type": "occ",
				"energy": -0.29089,
				"method": "rhf"
			},
			{
				"type": "occ",
				"energy": -0.24396,
				"method": "rhf"
			},
			{
				"type": "unocc",
				"energy": -0.01035,
				"method": "rhf"
			},
			{
				"type": "unocc",
				"energy": 0.03349,
				"method": "rhf"
			},
			{
				"type": "unocc",
				"energy": 0.07919,
				"method": "rhf"
			},
			{
				"type": "unocc",
				"energy": 0.11182,
				"method": "rhf"
			},
			{
				"type": "unocc",
				"energy": 0.12481,
				"method": "rhf"
			}
		],
		"cosmo_sigma_profile": { 
			"-0.025": 0.0,
			"-0.024": 0.0,
			"-0.023": 0.0,
			"-0.022": 0.0,
			"-0.021": 0.0,
			"-0.02": 0.340162422304,
			"-0.019": 0.897069087176,
			"-0.018": 1.28806682942,
			"-0.017": 1.37047015623,
			"-0.016": 1.30260578568,
			"-0.015": 0.952565573945,
			"-0.014": 0.744679877196,
			"-0.013": 0.909232936135,
			"-0.012": 1.26631385013,
			"-0.011": 1.7262579183,
			"-0.01": 2.55102178688,
			"-0.009": 4.63693003902,
			"-0.008": 6.06157714883,
			"-0.007": 6.54173440253,
			"-0.006": 6.92241295633,
			"-0.005": 7.3265011046,
			"-0.004": 6.95643481019,
			"-0.003": 7.17586572107,
			"-0.002": 6.59866886167,
			"-0.001": 6.41182225461,
			"0.0": 4.31107614506,
			"0.001": 3.75634334115,
			"0.002": 4.13870108247,
			"0.003": 4.34313093884,
			"0.004": 4.51724468118,
			"0.005": 2.81575865239,
			"0.006": 4.41793061356,
			"0.007": 5.19784495098,
			"0.008": 5.61100265569,
			"0.009": 5.68834240262,
			"0.01": 5.9137078497,
			"0.011": 4.95726475393,
			"0.012": 3.69758109312,
			"0.013": 1.8240963609,
			"0.014": 1.19265386697,
			"0.015": 0.658317194024,
			"0.016": 0.329749762452,
			"0.017": 0.779482359375,
			"0.018": 0.819372288628,
			"0.019": 0.408782859044,
			"0.02": 0.0388912096576,
			"0.021": 0.0,
			"0.022": 0.0,
			"0.023": 0.0,
			"0.024": 0.0,
			"0.025": 0.0
		}
	}
}
