{
	 "smiles": "CC1=C(I)C=NO1", 
	 "Tm": 300.65, 
	 "num_atms": 11, 
	 "gaussian": { 
		 "optdone": 1, 
		 "sigma_profile": "no", 
		 "theory": "DFT", 
		 "functional": "B3LYP", 
		 "basiset": "6-31G**", 
		 "properties": { 
			 "R2extent": 1809.8812, 
			 "electric_dipole_moment_norm": 2.27665953757, 
			 "electric_quadrupole_moment_norm": 7.32604834819, 
			 "total_energy": -296.140259574, 
			 "HOMO_LUMO_gap": 0.20272, 
			 "cosmo_polarized_energy": -90874.75, 
			 "cosmo_cavitation_energy": 18.61, 
			 "cosmo_dispersion_energy": -15.19, 
			 "cosmo_repulsion_energy": 1.24, 
			 "cosmo_total_nonelectrostatic_energy": 4.66, 
			 "SMD_solvation_energy": 2.7 
		},
		"coords": [
			{
				"x": -0.1905080534,
				"y": 0.5832857051,
				"z": 0.1747953309,
				"element": "C" 
			},
			{
				"x": -0.6369041258,
				"y": 1.275384575,
				"z": -1.0658067769,
				"element": "C" 
			},
			{
				"x": -1.5504136012,
				"y": 2.2585058385,
				"z": -1.3328776612,
				"element": "C" 
			},
			{
				"x": -2.7772984087,
				"y": 3.2528816475,
				"z": 0.0184393957,
				"element": "I" 
			},
			{
				"x": -1.4693937811,
				"y": 2.4444342227,
				"z": -2.7410013839,
				"element": "C" 
			},
			{
				"x": -0.5852784801,
				"y": 1.6462373298,
				"z": -3.2878783394,
				"element": "N" 
			},
			{
				"x": -0.0557705657,
				"y": 0.9035931348,
				"z": -2.2258021143,
				"element": "O" 
			},
			{
				"x": 0.2215865575,
				"y": 1.2986493552,
				"z": 0.8936726295,
				"element": "H" 
			},
			{
				"x": 0.5771617126,
				"y": -0.1537205634,
				"z": -0.0678056865,
				"element": "H" 
			},
			{
				"x": -1.028812345,
				"y": 0.0731525054,
				"z": 0.6599373527,
				"element": "H" 
			},
			{
				"x": -2.0276689091,
				"y": 3.1325962492,
				"z": -3.3619727467,
				"element": "H" 
			}
		],
		 "valence_orbital": [ 
			{
				"type": "occ",
				"energy": -0.33119,
				"method": "rhf"
			},
			{
				"type": "occ",
				"energy": -0.31773,
				"method": "rhf"
			},
			{
				"type": "occ",
				"energy": -0.2936,
				"method": "rhf"
			},
			{
				"type": "occ",
				"energy": -0.28132,
				"method": "rhf"
			},
			{
				"type": "occ",
				"energy": -0.24725,
				"method": "rhf"
			},
			{
				"type": "unocc",
				"energy": -0.04453,
				"method": "rhf"
			},
			{
				"type": "unocc",
				"energy": -0.02118,
				"method": "rhf"
			},
			{
				"type": "unocc",
				"energy": 0.03348,
				"method": "rhf"
			},
			{
				"type": "unocc",
				"energy": 0.03459,
				"method": "rhf"
			},
			{
				"type": "unocc",
				"energy": 0.04738,
				"method": "rhf"
			}
		],
		"cosmo_sigma_profile": { 
			"0.0": 0.0,
			"0.0": 0.0,
			"0.0": 0.0,
			"0.0": 0.0,
			"0.0": 0.0,
			"0.0": 0.0,
			"0.0": 0.0,
			"0.0": 0.0,
			"0.0": 0.0,
			"0.0": 0.0,
			"0.0": 0.0,
			"0.0": 0.0,
			"0.0": 0.0,
			"0.0": 0.0,
			"0.0": 0.0,
			"0.0": 0.0,
			"0.0": 0.0,
			"0.0": 0.0,
			"0.0": 0.0,
			"0.0": 0.0,
			"0.0": 0.0,
			"0.0": 0.0,
			"0.0": 0.0,
			"0.0": 0.0,
			"0.0": 0.0,
			"0.0": 0.0,
			"0.0": 0.0,
			"0.0": 0.0,
			"0.0": 0.0,
			"0.0": 0.0,
			"0.0": 0.0,
			"0.0": 0.0,
			"0.0": 0.0,
			"0.0": 0.0,
			"0.0": 0.0,
			"0.0": 0.0,
			"0.0": 0.0,
			"0.0": 0.0,
			"0.0": 0.0,
			"0.0": 0.0,
			"0.0": 0.0,
			"0.0": 0.0,
			"0.0": 0.0,
			"0.0": 0.0,
			"0.0": 0.0,
			"0.0": 0.0,
			"0.0": 0.0,
			"0.0": 0.0,
			"0.0": 0.0,
			"0.0": 0.0,
			"0.0": 0.0
		}
	}
}
