{
	 "smiles": "NC1=CC(=NO1)C1=CC=CS1", 
	 "Tm": 365.15, 
	 "num_atms": 17, 
	 "gaussian": { 
		 "optdone": 1, 
		 "sigma_profile": "yes", 
		 "theory": "DFT", 
		 "functional": "B3LYP", 
		 "basiset": "6-31G**", 
		 "properties": { 
			 "R2extent": 2681.8143, 
			 "electric_dipole_moment_norm": 3.05336917683, 
			 "electric_quadrupole_moment_norm": 19.9741785844, 
			 "total_energy": -853.209127185, 
			 "HOMO_LUMO_gap": 0.17806, 
			 "cosmo_polarized_energy": -13.91, 
			 "cosmo_cavitation_energy": 23.5, 
			 "cosmo_dispersion_energy": -18.23, 
			 "cosmo_repulsion_energy": 1.41, 
			 "cosmo_total_nonelectrostatic_energy": 6.69, 
			 "SMD_solvation_energy": 4.14 
		},
		"coords": [
			{
				"x": 1.754075586,
				"y": -0.7988880783,
				"z": 3.7901707206,
				"element": "N" 
			},
			{
				"x": 1.0216922189,
				"y": -1.1073406834,
				"z": 2.6702819023,
				"element": "C" 
			},
			{
				"x": 0.5127262489,
				"y": -0.3599614996,
				"z": 1.6418515894,
				"element": "C" 
			},
			{
				"x": -0.2064330067,
				"y": -1.3164370913,
				"z": 0.8657609517,
				"element": "C" 
			},
			{
				"x": -0.137438777,
				"y": -2.5350779835,
				"z": 1.3757983019,
				"element": "N" 
			},
			{
				"x": 0.6565534877,
				"y": -2.3940423493,
				"z": 2.5389972195,
				"element": "O" 
			},
			{
				"x": -0.9633450232,
				"y": -1.0941528992,
				"z": -0.3617607894,
				"element": "C" 
			},
			{
				"x": -1.6646499806,
				"y": -2.0165087206,
				"z": -1.1024868887,
				"element": "C" 
			},
			{
				"x": -2.2901546099,
				"y": -1.4538822107,
				"z": -2.2507875825,
				"element": "C" 
			},
			{
				"x": -2.061282338,
				"y": -0.1097202642,
				"z": -2.3764626242,
				"element": "C" 
			},
			{
				"x": -1.0744202721,
				"y": 0.4930762482,
				"z": -1.0869983786,
				"element": "S" 
			},
			{
				"x": 2.2360603768,
				"y": -1.5845604921,
				"z": 4.2061778769,
				"element": "H" 
			},
			{
				"x": 2.3248622812,
				"y": 0.0306008406,
				"z": 3.7169076495,
				"element": "H" 
			},
			{
				"x": 0.6227255871,
				"y": 0.6990270243,
				"z": 1.4700462498,
				"element": "H" 
			},
			{
				"x": -1.7208398532,
				"y": -3.0605169305,
				"z": -0.8192774248,
				"element": "H" 
			},
			{
				"x": -2.8856063632,
				"y": -2.0248761984,
				"z": -2.953933745,
				"element": "H" 
			},
			{
				"x": -2.4121255626,
				"y": 0.563661288,
				"z": -3.1459850285,
				"element": "H" 
			}
		],
		 "valence_orbital": [ 
			{
				"type": "occ",
				"energy": -0.30571,
				"method": "rhf"
			},
			{
				"type": "occ",
				"energy": -0.29595,
				"method": "rhf"
			},
			{
				"type": "occ",
				"energy": -0.25288,
				"method": "rhf"
			},
			{
				"type": "occ",
				"energy": -0.22675,
				"method": "rhf"
			},
			{
				"type": "occ",
				"energy": -0.21376,
				"method": "rhf"
			},
			{
				"type": "unocc",
				"energy": -0.0357,
				"method": "rhf"
			},
			{
				"type": "unocc",
				"energy": 0.0235,
				"method": "rhf"
			},
			{
				"type": "unocc",
				"energy": 0.02696,
				"method": "rhf"
			},
			{
				"type": "unocc",
				"energy": 0.05602,
				"method": "rhf"
			},
			{
				"type": "unocc",
				"energy": 0.06856,
				"method": "rhf"
			}
		],
		"cosmo_sigma_profile": { 
			"-0.025": 0.0,
			"-0.024": 0.0,
			"-0.023": 0.0,
			"-0.022": 0.0,
			"-0.021": 0.0,
			"-0.02": 0.0,
			"-0.019": 0.0,
			"-0.018": 0.0,
			"-0.017": 0.0,
			"-0.016": 0.0,
			"-0.015": 0.819956184469,
			"-0.014": 2.83746472021,
			"-0.013": 3.13855934243,
			"-0.012": 2.15414000074,
			"-0.011": 2.74676202148,
			"-0.01": 2.50287259322,
			"-0.009": 2.46446848343,
			"-0.008": 6.47359004213,
			"-0.007": 6.75660152267,
			"-0.006": 7.97984090116,
			"-0.005": 8.86146789623,
			"-0.004": 8.56040025966,
			"-0.003": 7.46344413879,
			"-0.002": 7.27329322136,
			"-0.001": 8.75430377437,
			"0.0": 8.90636152167,
			"0.001": 12.0405567471,
			"0.002": 15.6635039525,
			"0.003": 21.838453651,
			"0.004": 20.5169027187,
			"0.005": 8.01550333192,
			"0.006": 3.03806109326,
			"0.007": 3.61359656677,
			"0.008": 5.05553852543,
			"0.009": 3.84280328667,
			"0.01": 2.64797553122,
			"0.011": 2.34324138329,
			"0.012": 1.66962228947,
			"0.013": 1.27653030617,
			"0.014": 1.46875853737,
			"0.015": 0.214694714115,
			"0.016": 0.0,
			"0.017": 0.0,
			"0.018": 0.0,
			"0.019": 0.0,
			"0.02": 0.0,
			"0.021": 0.0,
			"0.022": 0.0,
			"0.023": 0.0,
			"0.024": 0.0,
			"0.025": 0.0
		}
	}
}
