{
	 "smiles": "O=S1(=O)OCCO1", 
	 "Tm": 372.15, 
	 "num_atms": 11, 
	 "gaussian": { 
		 "optdone": 1, 
		 "sigma_profile": "yes", 
		 "theory": "DFT", 
		 "functional": "B3LYP", 
		 "basiset": "6-31G**", 
		 "properties": { 
			 "R2extent": 1116.2349, 
			 "electric_dipole_moment_norm": 5.61568714673, 
			 "electric_quadrupole_moment_norm": 10.6456188223, 
			 "total_energy": -777.606870772, 
			 "HOMO_LUMO_gap": 0.31446, 
			 "cosmo_polarized_energy": -12.79, 
			 "cosmo_cavitation_energy": 15.99, 
			 "cosmo_dispersion_energy": -13.5, 
			 "cosmo_repulsion_energy": 1.09, 
			 "cosmo_total_nonelectrostatic_energy": 3.59, 
			 "SMD_solvation_energy": 1.54 
		},
		"coords": [
			{
				"x": -0.1705588654,
				"y": 1.6511322459,
				"z": -2.1179133235,
				"element": "O" 
			},
			{
				"x": 0.4294158882,
				"y": 0.6232155035,
				"z": -1.2932836921,
				"element": "S" 
			},
			{
				"x": 0.2233737743,
				"y": -0.7837670643,
				"z": -1.566329267,
				"element": "O" 
			},
			{
				"x": 2.0395844359,
				"y": 0.9679558809,
				"z": -1.1637563552,
				"element": "O" 
			},
			{
				"x": 2.4258481348,
				"y": 1.0026323473,
				"z": 0.2249024611,
				"element": "C" 
			},
			{
				"x": 1.1915563588,
				"y": 1.541009609,
				"z": 0.9453366354,
				"element": "C" 
			},
			{
				"x": 0.0863278252,
				"y": 0.8743603411,
				"z": 0.3027831172,
				"element": "O" 
			},
			{
				"x": 3.2926322164,
				"y": 1.6608176244,
				"z": 0.3001877156,
				"element": "H" 
			},
			{
				"x": 2.6845290753,
				"y": -0.0071402565,
				"z": 0.5605710177,
				"element": "H" 
			},
			{
				"x": 1.0895824579,
				"y": 2.6244756398,
				"z": 0.8231223297,
				"element": "H" 
			},
			{
				"x": 1.1563086986,
				"y": 1.273808129,
				"z": 2.0024793609,
				"element": "H" 
			}
		],
		 "valence_orbital": [ 
			{
				"type": "occ",
				"energy": -0.37055,
				"method": "rhf"
			},
			{
				"type": "occ",
				"energy": -0.36191,
				"method": "rhf"
			},
			{
				"type": "occ",
				"energy": -0.36184,
				"method": "rhf"
			},
			{
				"type": "occ",
				"energy": -0.31194,
				"method": "rhf"
			},
			{
				"type": "occ",
				"energy": -0.30963,
				"method": "rhf"
			},
			{
				"type": "unocc",
				"energy": 0.00483,
				"method": "rhf"
			},
			{
				"type": "unocc",
				"energy": 0.03205,
				"method": "rhf"
			},
			{
				"type": "unocc",
				"energy": 0.06772,
				"method": "rhf"
			},
			{
				"type": "unocc",
				"energy": 0.07366,
				"method": "rhf"
			},
			{
				"type": "unocc",
				"energy": 0.10077,
				"method": "rhf"
			}
		],
		"cosmo_sigma_profile": { 
			"-0.025": 0.0,
			"-0.024": 0.0,
			"-0.023": 0.0,
			"-0.022": 0.0,
			"-0.021": 0.0,
			"-0.02": 0.0,
			"-0.019": 0.0,
			"-0.018": 0.0,
			"-0.017": 0.0,
			"-0.016": 0.0,
			"-0.015": 0.0,
			"-0.014": 0.0,
			"-0.013": 0.0,
			"-0.012": 0.0,
			"-0.011": 0.0,
			"-0.01": 1.73287398457,
			"-0.009": 10.7556617617,
			"-0.008": 13.7164341797,
			"-0.007": 8.87057500191,
			"-0.006": 7.00244187027,
			"-0.005": 4.26360969258,
			"-0.004": 3.58100679422,
			"-0.003": 4.0965782587,
			"-0.002": 2.89249171739,
			"-0.001": 3.62647832578,
			"0.0": 3.06785180469,
			"0.001": 3.6555821696,
			"0.002": 4.25478207854,
			"0.003": 5.05734324332,
			"0.004": 5.93035092891,
			"0.005": 5.86780346693,
			"0.006": 7.38215891059,
			"0.007": 7.72338975274,
			"0.008": 14.0128029646,
			"0.009": 10.072859552,
			"0.01": 0.0720678202323,
			"0.011": 0.0,
			"0.012": 0.0,
			"0.013": 0.0,
			"0.014": 0.0,
			"0.015": 0.0,
			"0.016": 0.0,
			"0.017": 0.0,
			"0.018": 0.0,
			"0.019": 0.0,
			"0.02": 0.0,
			"0.021": 0.0,
			"0.022": 0.0,
			"0.023": 0.0,
			"0.024": 0.0,
			"0.025": 0.0
		}
	}
}
