{
	 "smiles": "CC1=CC(Br)=C(OCCC(O)=O)C=C1", 
	 "Tm": 393.15, 
	 "num_atms": 25, 
	 "gaussian": { 
		 "optdone": 1, 
		 "sigma_profile": "yes", 
		 "theory": "DFT", 
		 "functional": "B3LYP", 
		 "basiset": "6-31G**", 
		 "properties": { 
			 "R2extent": 4749.0403, 
			 "electric_dipole_moment_norm": 6.23766830955, 
			 "electric_quadrupole_moment_norm": 17.9235196828, 
			 "total_energy": -3184.77595163, 
			 "HOMO_LUMO_gap": 0.20973, 
			 "cosmo_polarized_energy": -15.44, 
			 "cosmo_cavitation_energy": 30.95, 
			 "cosmo_dispersion_energy": -22.47, 
			 "cosmo_repulsion_energy": 1.77, 
			 "cosmo_total_nonelectrostatic_energy": 10.25, 
			 "SMD_solvation_energy": 5.54 
		},
		"coords": [
			{
				"x": 0.7342009225,
				"y": 3.208892885,
				"z": 3.7065011653,
				"element": "C" 
			},
			{
				"x": 0.4725900049,
				"y": 2.1316590406,
				"z": 2.680650069,
				"element": "C" 
			},
			{
				"x": 0.9328715658,
				"y": 0.8230111549,
				"z": 2.8888654301,
				"element": "C" 
			},
			{
				"x": 0.690047228,
				"y": -0.1784237233,
				"z": 1.9580137278,
				"element": "C" 
			},
			{
				"x": 1.3518575248,
				"y": -1.938410541,
				"z": 2.2786382255,
				"element": "Br" 
			},
			{
				"x": -0.0290348858,
				"y": 0.087354391,
				"z": 0.7799837317,
				"element": "C" 
			},
			{
				"x": -0.2424238463,
				"y": -0.9727361008,
				"z": -0.0658643685,
				"element": "O" 
			},
			{
				"x": -0.845209755,
				"y": -0.7619991769,
				"z": -1.3534296767,
				"element": "C" 
			},
			{
				"x": 0.1748034379,
				"y": -0.2735020593,
				"z": -2.3842531477,
				"element": "C" 
			},
			{
				"x": 1.2899209776,
				"y": -1.2695365424,
				"z": -2.7204407964,
				"element": "C" 
			},
			{
				"x": 1.7600038479,
				"y": -2.0165324885,
				"z": -1.7000073705,
				"element": "O" 
			},
			{
				"x": 1.7476838645,
				"y": -1.3732994084,
				"z": -3.8323934441,
				"element": "O" 
			},
			{
				"x": -0.4821337681,
				"y": 1.3904309496,
				"z": 0.5623293573,
				"element": "C" 
			},
			{
				"x": -0.2323351285,
				"y": 2.3919144933,
				"z": 1.5042878242,
				"element": "C" 
			},
			{
				"x": 0.1820556953,
				"y": 3.0185980004,
				"z": 4.6343478257,
				"element": "H" 
			},
			{
				"x": 0.4299084271,
				"y": 4.1912262468,
				"z": 3.3355610889,
				"element": "H" 
			},
			{
				"x": 1.7963671628,
				"y": 3.2631512435,
				"z": 3.9682329012,
				"element": "H" 
			},
			{
				"x": 1.4919187472,
				"y": 0.5779002097,
				"z": 3.7861002046,
				"element": "H" 
			},
			{
				"x": -1.6927446389,
				"y": -0.0749864069,
				"z": -1.2725066605,
				"element": "H" 
			},
			{
				"x": -1.2405177373,
				"y": -1.7431112527,
				"z": -1.6286931088,
				"element": "H" 
			},
			{
				"x": -0.3290499005,
				"y": -0.035774543,
				"z": -3.3244208321,
				"element": "H" 
			},
			{
				"x": 0.6437362593,
				"y": 0.6525433534,
				"z": -2.0283840328,
				"element": "H" 
			},
			{
				"x": 1.2893795087,
				"y": -1.8139027081,
				"z": -0.8696955564,
				"element": "H" 
			},
			{
				"x": -1.029434779,
				"y": 1.6411332044,
				"z": -0.3384743034,
				"element": "H" 
			},
			{
				"x": -0.5962607351,
				"y": 3.3964997786,
				"z": 1.3076517465,
				"element": "H" 
			}
		],
		 "valence_orbital": [ 
			{
				"type": "occ",
				"energy": -0.30369,
				"method": "rhf"
			},
			{
				"type": "occ",
				"energy": -0.29347,
				"method": "rhf"
			},
			{
				"type": "occ",
				"energy": -0.26186,
				"method": "rhf"
			},
			{
				"type": "occ",
				"energy": -0.25994,
				"method": "rhf"
			},
			{
				"type": "occ",
				"energy": -0.23752,
				"method": "rhf"
			},
			{
				"type": "unocc",
				"energy": -0.02779,
				"method": "rhf"
			},
			{
				"type": "unocc",
				"energy": -0.01295,
				"method": "rhf"
			},
			{
				"type": "unocc",
				"energy": -0.00181,
				"method": "rhf"
			},
			{
				"type": "unocc",
				"energy": 0.01588,
				"method": "rhf"
			},
			{
				"type": "unocc",
				"energy": 0.07672,
				"method": "rhf"
			}
		],
		"cosmo_sigma_profile": { 
			"-0.025": 0.0,
			"-0.024": 0.0,
			"-0.023": 0.0,
			"-0.022": 0.0,
			"-0.021": 0.0,
			"-0.02": 0.0,
			"-0.019": 0.0,
			"-0.018": 0.0,
			"-0.017": 0.0,
			"-0.016": 0.0,
			"-0.015": 0.0,
			"-0.014": 0.0,
			"-0.013": 0.0,
			"-0.012": 0.0,
			"-0.011": 0.00560980545808,
			"-0.01": 0.579753841257,
			"-0.009": 2.49836722156,
			"-0.008": 7.17823074746,
			"-0.007": 12.9425174955,
			"-0.006": 17.0683514233,
			"-0.005": 17.0073727559,
			"-0.004": 18.654408674,
			"-0.003": 17.4362672208,
			"-0.002": 15.8500060323,
			"-0.001": 15.7541445769,
			"0.0": 17.07535124,
			"0.001": 15.3214189054,
			"0.002": 15.8025607018,
			"0.003": 17.6737978359,
			"0.004": 17.5679273903,
			"0.005": 9.13540362506,
			"0.006": 2.76514933065,
			"0.007": 2.79330184717,
			"0.008": 3.48146476102,
			"0.009": 3.08453197053,
			"0.01": 4.14118742262,
			"0.011": 5.33959786241,
			"0.012": 6.07755890144,
			"0.013": 3.53243056939,
			"0.014": 0.422787791866,
			"0.015": 0.0,
			"0.016": 0.0,
			"0.017": 0.0,
			"0.018": 0.0,
			"0.019": 0.0,
			"0.02": 0.0,
			"0.021": 0.0,
			"0.022": 0.0,
			"0.023": 0.0,
			"0.024": 0.0,
			"0.025": 0.0
		}
	}
}
