{
	 "smiles": "CCCCCOC(=O)C1=C(OC(=O)C(=O)OC2=C(Cl)C(Cl)=CC(Cl)=C2C(=O)OCCCCC)C(Cl)=C(Cl)C=C1Cl", 
	 "Tm": 351.15, 
	 "num_atms": 64, 
	 "gaussian": { 
		 "optdone": 1, 
		 "sigma_profile": "yes", 
		 "theory": "DFT", 
		 "functional": "B3LYP", 
		 "basiset": "6-31G**", 
		 "properties": { 
			 "R2extent": 30530.761, 
			 "electric_dipole_moment_norm": 2.10324437239, 
			 "electric_quadrupole_moment_norm": 12.6087692726, 
			 "total_energy": -4368.18050016, 
			 "HOMO_LUMO_gap": 0.17953, 
			 "cosmo_polarized_energy": -15.66, 
			 "cosmo_cavitation_energy": 80.11, 
			 "cosmo_dispersion_energy": -47.11, 
			 "cosmo_repulsion_energy": 3.62, 
			 "cosmo_total_nonelectrostatic_energy": 36.62, 
			 "SMD_solvation_energy": 13.56 
		},
		"coords": [
			{
				"x": -4.7330290065,
				"y": 2.9078636941,
				"z": 1.1240429094,
				"element": "C" 
			},
			{
				"x": -3.5830714014,
				"y": 2.5111679671,
				"z": 0.1931523887,
				"element": "C" 
			},
			{
				"x": -2.2388004366,
				"y": 3.1225786186,
				"z": 0.6063048571,
				"element": "C" 
			},
			{
				"x": -1.0968658353,
				"y": 2.748187982,
				"z": -0.3463405555,
				"element": "C" 
			},
			{
				"x": 0.267148181,
				"y": 3.2790058583,
				"z": 0.0787888846,
				"element": "C" 
			},
			{
				"x": 0.6665834341,
				"y": 2.7445246863,
				"z": 1.3757848064,
				"element": "O" 
			},
			{
				"x": 1.3023076028,
				"y": 1.5744495331,
				"z": 1.3802310977,
				"element": "C" 
			},
			{
				"x": 1.5715417602,
				"y": 0.9128768294,
				"z": 0.3970886738,
				"element": "O" 
			},
			{
				"x": 1.6480343304,
				"y": 1.1307136915,
				"z": 2.778428365,
				"element": "C" 
			},
			{
				"x": 1.325458815,
				"y": -0.1741568732,
				"z": 3.1852591096,
				"element": "C" 
			},
			{
				"x": 0.7281311236,
				"y": -1.0894243972,
				"z": 2.3287534267,
				"element": "O" 
			},
			{
				"x": -0.5082689338,
				"y": -0.8510295771,
				"z": 1.828747908,
				"element": "C" 
			},
			{
				"x": -1.1566541243,
				"y": 0.1488547534,
				"z": 1.9815061741,
				"element": "O" 
			},
			{
				"x": -1.0212385354,
				"y": -2.1048602783,
				"z": 1.1118875768,
				"element": "C" 
			},
			{
				"x": -0.9163953803,
				"y": -3.2171128245,
				"z": 1.5425080519,
				"element": "O" 
			},
			{
				"x": -1.6869658807,
				"y": -1.731235161,
				"z": -0.0164207562,
				"element": "O" 
			},
			{
				"x": -2.4473515299,
				"y": -2.6968208455,
				"z": -0.6700114318,
				"element": "C" 
			},
			{
				"x": -3.7452665268,
				"y": -2.9513406331,
				"z": -0.2065912607,
				"element": "C" 
			},
			{
				"x": -4.3302708364,
				"y": -2.1335469235,
				"z": 1.2062372,
				"element": "Cl" 
			},
			{
				"x": -4.5428361963,
				"y": -3.8574776315,
				"z": -0.9179820611,
				"element": "C" 
			},
			{
				"x": -6.1630604189,
				"y": -4.2265854517,
				"z": -0.4021326323,
				"element": "Cl" 
			},
			{
				"x": -4.0500354482,
				"y": -4.4821072625,
				"z": -2.0619927951,
				"element": "C" 
			},
			{
				"x": -2.7635905296,
				"y": -4.1969772522,
				"z": -2.5095218939,
				"element": "C" 
			},
			{
				"x": -2.1966700752,
				"y": -5.0297346088,
				"z": -3.9361368839,
				"element": "Cl" 
			},
			{
				"x": -1.9330508673,
				"y": -3.3018982018,
				"z": -1.8196046551,
				"element": "C" 
			},
			{
				"x": -0.5523737148,
				"y": -2.9619811315,
				"z": -2.3285621697,
				"element": "C" 
			},
			{
				"x": -0.3478210273,
				"y": -2.4856168245,
				"z": -3.4213116495,
				"element": "O" 
			},
			{
				"x": 0.3844028742,
				"y": -3.2896959925,
				"z": -1.428466176,
				"element": "O" 
			},
			{
				"x": 1.7732221955,
				"y": -3.1077570889,
				"z": -1.8341863178,
				"element": "C" 
			},
			{
				"x": 2.2606083705,
				"y": -1.6871289984,
				"z": -1.5875858966,
				"element": "C" 
			},
			{
				"x": 3.7476469162,
				"y": -1.5405374081,
				"z": -1.9465331942,
				"element": "C" 
			},
			{
				"x": 4.3299990454,
				"y": -0.1469483376,
				"z": -1.6565425175,
				"element": "C" 
			},
			{
				"x": 3.714559169,
				"y": 0.9812706858,
				"z": -2.491949239,
				"element": "C" 
			},
			{
				"x": 1.6361180943,
				"y": -0.6574881854,
				"z": 4.4640118016,
				"element": "C" 
			},
			{
				"x": 1.1708925576,
				"y": -2.2656557965,
				"z": 4.9086334609,
				"element": "Cl" 
			},
			{
				"x": 2.319832149,
				"y": 0.1844230267,
				"z": 5.3521066531,
				"element": "C" 
			},
			{
				"x": 2.7488433186,
				"y": -0.352092394,
				"z": 6.9494703381,
				"element": "Cl" 
			},
			{
				"x": 2.6747237105,
				"y": 1.4737584762,
				"z": 4.9654531296,
				"element": "C" 
			},
			{
				"x": 2.3383885969,
				"y": 1.9380238561,
				"z": 3.6967433881,
				"element": "C" 
			},
			{
				"x": 2.876998093,
				"y": 3.5481402405,
				"z": 3.2778506208,
				"element": "Cl" 
			},
			{
				"x": -4.8782449945,
				"y": 3.994375389,
				"z": 1.1367478223,
				"element": "H" 
			},
			{
				"x": -5.6770659357,
				"y": 2.4502989594,
				"z": 0.8106421212,
				"element": "H" 
			},
			{
				"x": -4.534380504,
				"y": 2.5891154842,
				"z": 2.1534886208,
				"element": "H" 
			},
			{
				"x": -3.822908641,
				"y": 2.8136074763,
				"z": -0.8358435902,
				"element": "H" 
			},
			{
				"x": -3.4840501484,
				"y": 1.4181604934,
				"z": 0.1788282744,
				"element": "H" 
			},
			{
				"x": -2.3302460511,
				"y": 4.2177188985,
				"z": 0.6529458192,
				"element": "H" 
			},
			{
				"x": -1.9867435811,
				"y": 2.7856461704,
				"z": 1.6181412162,
				"element": "H" 
			},
			{
				"x": -1.2980953009,
				"y": 3.1469939097,
				"z": -1.3503447302,
				"element": "H" 
			},
			{
				"x": -1.0348771997,
				"y": 1.6595994943,
				"z": -0.4520534461,
				"element": "H" 
			},
			{
				"x": 1.0400314604,
				"y": 3.028589702,
				"z": -0.6507204912,
				"element": "H" 
			},
			{
				"x": 0.2486482199,
				"y": 4.3597981958,
				"z": 0.2387635955,
				"element": "H" 
			},
			{
				"x": -4.6711296617,
				"y": -5.1860242618,
				"z": -2.6011976388,
				"element": "H" 
			},
			{
				"x": 2.3181573674,
				"y": -3.8324548134,
				"z": -1.2244934962,
				"element": "H" 
			},
			{
				"x": 1.8591679414,
				"y": -3.3813379071,
				"z": -2.8890650847,
				"element": "H" 
			},
			{
				"x": 1.6550146329,
				"y": -0.9999660739,
				"z": -2.1860905572,
				"element": "H" 
			},
			{
				"x": 2.1034625234,
				"y": -1.4210457728,
				"z": -0.5372123007,
				"element": "H" 
			},
			{
				"x": 4.3266212215,
				"y": -2.2875894016,
				"z": -1.3856962737,
				"element": "H" 
			},
			{
				"x": 3.8918850759,
				"y": -1.7780335645,
				"z": -3.0104023662,
				"element": "H" 
			},
			{
				"x": 4.1993817752,
				"y": 0.0817055164,
				"z": -0.5915379654,
				"element": "H" 
			},
			{
				"x": 5.4119503855,
				"y": -0.1811961589,
				"z": -1.8378570766,
				"element": "H" 
			},
			{
				"x": 4.2273797126,
				"y": 1.9304074204,
				"z": -2.3027671094,
				"element": "H" 
			},
			{
				"x": 2.6574262837,
				"y": 1.1255041317,
				"z": -2.2508010032,
				"element": "H" 
			},
			{
				"x": 3.7927603601,
				"y": 0.7704888071,
				"z": -3.565212697,
				"element": "H" 
			},
			{
				"x": 3.217631425,
				"y": 2.1115080853,
				"z": 5.6513196211,
				"element": "H" 
			}
		],
		 "valence_orbital": [ 
			{
				"type": "occ",
				"energy": -0.29394,
				"method": "rhf"
			},
			{
				"type": "occ",
				"energy": -0.28139,
				"method": "rhf"
			},
			{
				"type": "occ",
				"energy": -0.27608,
				"method": "rhf"
			},
			{
				"type": "occ",
				"energy": -0.26732,
				"method": "rhf"
			},
			{
				"type": "occ",
				"energy": -0.26307,
				"method": "rhf"
			},
			{
				"type": "unocc",
				"energy": -0.08354,
				"method": "rhf"
			},
			{
				"type": "unocc",
				"energy": -0.06714,
				"method": "rhf"
			},
			{
				"type": "unocc",
				"energy": -0.05918,
				"method": "rhf"
			},
			{
				"type": "unocc",
				"energy": -0.05053,
				"method": "rhf"
			},
			{
				"type": "unocc",
				"energy": -0.04764,
				"method": "rhf"
			}
		],
		"cosmo_sigma_profile": { 
			"-0.025": 0.0,
			"-0.024": 0.0,
			"-0.023": 0.0,
			"-0.022": 0.0,
			"-0.021": 0.0,
			"-0.02": 0.0,
			"-0.019": 0.0,
			"-0.018": 0.0,
			"-0.017": 0.0,
			"-0.016": 0.0,
			"-0.015": 0.0,
			"-0.014": 0.0,
			"-0.013": 0.0,
			"-0.012": 0.0,
			"-0.011": 0.0,
			"-0.01": 1.47424489097,
			"-0.009": 3.25171477653,
			"-0.008": 3.62110900819,
			"-0.007": 4.93834854968,
			"-0.006": 9.25841021437,
			"-0.005": 17.6987137493,
			"-0.004": 37.8228165414,
			"-0.003": 61.9307274341,
			"-0.002": 83.0519714553,
			"-0.001": 78.0281170602,
			"0.0": 74.7599425683,
			"0.001": 74.9991846678,
			"0.002": 64.5650517055,
			"0.003": 54.3527459224,
			"0.004": 22.2978369968,
			"0.005": 17.6937232384,
			"0.006": 12.2619187675,
			"0.007": 9.38698650577,
			"0.008": 7.4811654078,
			"0.009": 2.90137413695,
			"0.01": 3.43022997104,
			"0.011": 3.21037652742,
			"0.012": 0.27552555928,
			"0.013": 0.0,
			"0.014": 0.0,
			"0.015": 0.0,
			"0.016": 0.0,
			"0.017": 0.0,
			"0.018": 0.0,
			"0.019": 0.0,
			"0.02": 0.0,
			"0.021": 0.0,
			"0.022": 0.0,
			"0.023": 0.0,
			"0.024": 0.0,
			"0.025": 0.0
		}
	}
}
