{
	 "smiles": "CC1=C(C)C(C#N)=C(N)N1CC1=C(Cl)C=CC=C1Cl", 
	 "Tm": 468.15, 
	 "num_atms": 32, 
	 "gaussian": { 
		 "optdone": 1, 
		 "sigma_profile": "yes", 
		 "theory": "DFT", 
		 "functional": "B3LYP", 
		 "basiset": "6-31G**", 
		 "properties": { 
			 "R2extent": 6277.9737, 
			 "electric_dipole_moment_norm": 6.77550929894, 
			 "electric_quadrupole_moment_norm": 37.5373912172, 
			 "total_energy": -1625.95241812, 
			 "HOMO_LUMO_gap": 0.14454, 
			 "cosmo_polarized_energy": -16.7, 
			 "cosmo_cavitation_energy": 38.43, 
			 "cosmo_dispersion_energy": -26.54, 
			 "cosmo_repulsion_energy": 2.04, 
			 "cosmo_total_nonelectrostatic_energy": 13.93, 
			 "SMD_solvation_energy": 7.24 
		},
		"coords": [
			{
				"x": 2.6068416369,
				"y": 0.2614948225,
				"z": -0.8091215815,
				"element": "C" 
			},
			{
				"x": 1.8818176322,
				"y": -0.7606329642,
				"z": 0.0055919426,
				"element": "C" 
			},
			{
				"x": 2.2054423462,
				"y": -2.0672349858,
				"z": 0.2701090913,
				"element": "C" 
			},
			{
				"x": 3.3699329803,
				"y": -2.8616635133,
				"z": -0.2386252556,
				"element": "C" 
			},
			{
				"x": 1.2038494077,
				"y": -2.5739454039,
				"z": 1.1772704212,
				"element": "C" 
			},
			{
				"x": 1.1230039798,
				"y": -3.855070956,
				"z": 1.7663732786,
				"element": "C" 
			},
			{
				"x": 1.0293019107,
				"y": -4.9020160606,
				"z": 2.2746730278,
				"element": "N" 
			},
			{
				"x": 0.298873606,
				"y": -1.5466899739,
				"z": 1.4286097648,
				"element": "C" 
			},
			{
				"x": -0.8595872977,
				"y": -1.5687976766,
				"z": 2.1936208371,
				"element": "N" 
			},
			{
				"x": 0.6910186492,
				"y": -0.4523484722,
				"z": 0.7012892578,
				"element": "N" 
			},
			{
				"x": 0.0266434963,
				"y": 0.8505043195,
				"z": 0.6878506728,
				"element": "C" 
			},
			{
				"x": -1.460810409,
				"y": 0.8245852835,
				"z": 0.3686619034,
				"element": "C" 
			},
			{
				"x": -1.9438333062,
				"y": 0.4837334991,
				"z": -0.9076410734,
				"element": "C" 
			},
			{
				"x": -0.8215448443,
				"y": 0.0500631264,
				"z": -2.18706657,
				"element": "Cl" 
			},
			{
				"x": -3.3001285824,
				"y": 0.4868487935,
				"z": -1.2275148762,
				"element": "C" 
			},
			{
				"x": -4.229173303,
				"y": 0.8538522717,
				"z": -0.258219508,
				"element": "C" 
			},
			{
				"x": -3.8019052672,
				"y": 1.2170439504,
				"z": 1.0156472372,
				"element": "C" 
			},
			{
				"x": -2.439677876,
				"y": 1.1972009307,
				"z": 1.3064871489,
				"element": "C" 
			},
			{
				"x": -1.9805114304,
				"y": 1.6645812919,
				"z": 2.9499204278,
				"element": "Cl" 
			},
			{
				"x": 2.9338699957,
				"y": 1.122162312,
				"z": -0.2104997442,
				"element": "H" 
			},
			{
				"x": 2.0076433609,
				"y": 0.6459455125,
				"z": -1.6432093326,
				"element": "H" 
			},
			{
				"x": 3.5048114663,
				"y": -0.1876923288,
				"z": -1.2379517163,
				"element": "H" 
			},
			{
				"x": 3.9731512895,
				"y": -3.257680787,
				"z": 0.5865042335,
				"element": "H" 
			},
			{
				"x": 3.0359857441,
				"y": -3.722767928,
				"z": -0.8293674284,
				"element": "H" 
			},
			{
				"x": 4.0272985757,
				"y": -2.2612006236,
				"z": -0.8724286904,
				"element": "H" 
			},
			{
				"x": -0.9498013847,
				"y": -0.8097688299,
				"z": 2.861116461,
				"element": "H" 
			},
			{
				"x": -0.980066779,
				"y": -2.4633306782,
				"z": 2.6547317071,
				"element": "H" 
			},
			{
				"x": 0.177349302,
				"y": 1.3551601453,
				"z": 1.6450696424,
				"element": "H" 
			},
			{
				"x": 0.5319447681,
				"y": 1.4510031014,
				"z": -0.0699515963,
				"element": "H" 
			},
			{
				"x": -3.6137524746,
				"y": 0.2099913518,
				"z": -2.2272425733,
				"element": "H" 
			},
			{
				"x": -5.2878794123,
				"y": 0.8608191695,
				"z": -0.4968379437,
				"element": "H" 
			},
			{
				"x": -4.5103077807,
				"y": 1.5092513002,
				"z": 1.7817508347,
				"element": "H" 
			}
		],
		 "valence_orbital": [ 
			{
				"type": "occ",
				"energy": -0.30052,
				"method": "rhf"
			},
			{
				"type": "occ",
				"energy": -0.27478,
				"method": "rhf"
			},
			{
				"type": "occ",
				"energy": -0.26455,
				"method": "rhf"
			},
			{
				"type": "occ",
				"energy": -0.22993,
				"method": "rhf"
			},
			{
				"type": "occ",
				"energy": -0.18636,
				"method": "rhf"
			},
			{
				"type": "unocc",
				"energy": -0.04182,
				"method": "rhf"
			},
			{
				"type": "unocc",
				"energy": -0.03642,
				"method": "rhf"
			},
			{
				"type": "unocc",
				"energy": -0.01133,
				"method": "rhf"
			},
			{
				"type": "unocc",
				"energy": 0.01653,
				"method": "rhf"
			},
			{
				"type": "unocc",
				"energy": 0.03561,
				"method": "rhf"
			}
		],
		"cosmo_sigma_profile": { 
			"-0.025": 0.0,
			"-0.024": 0.0,
			"-0.023": 0.0,
			"-0.022": 0.0,
			"-0.021": 0.0,
			"-0.02": 0.0,
			"-0.019": 0.0,
			"-0.018": 0.0,
			"-0.017": 0.0,
			"-0.016": 0.0,
			"-0.015": 0.0,
			"-0.014": 0.0,
			"-0.013": 0.305294742236,
			"-0.012": 1.25577780608,
			"-0.011": 1.49304894257,
			"-0.01": 2.90667456407,
			"-0.009": 2.88369993036,
			"-0.008": 5.35296271124,
			"-0.007": 10.5790852813,
			"-0.006": 14.7354679747,
			"-0.005": 17.5385509822,
			"-0.004": 18.7517775131,
			"-0.003": 21.1765704963,
			"-0.002": 22.1058755569,
			"-0.001": 27.0385631609,
			"0.0": 30.4254075726,
			"0.001": 27.093449792,
			"0.002": 24.2672899231,
			"0.003": 22.5911279301,
			"0.004": 17.2754309874,
			"0.005": 9.53556249943,
			"0.006": 6.5179075385,
			"0.007": 3.13959210125,
			"0.008": 3.59046603385,
			"0.009": 3.31224657572,
			"0.01": 3.87832270025,
			"0.011": 4.17428707302,
			"0.012": 3.48880497823,
			"0.013": 3.10276202546,
			"0.014": 2.38442288098,
			"0.015": 0.613881063119,
			"0.016": 0.0,
			"0.017": 0.0,
			"0.018": 0.0,
			"0.019": 0.0,
			"0.02": 0.0,
			"0.021": 0.0,
			"0.022": 0.0,
			"0.023": 0.0,
			"0.024": 0.0,
			"0.025": 0.0
		}
	}
}
