{
	 "smiles": "[O-][N+](=O)C1=C(C=CC(F)=C1)N=C=O", 
	 "Tm": 325.65, 
	 "num_atms": 16, 
	 "gaussian": { 
		 "optdone": 1, 
		 "sigma_profile": "yes", 
		 "theory": "DFT", 
		 "functional": "B3LYP", 
		 "basiset": "6-31G**", 
		 "properties": { 
			 "R2extent": 2477.3062, 
			 "electric_dipole_moment_norm": 4.32026242027, 
			 "electric_quadrupole_moment_norm": 5.51347098659, 
			 "total_energy": -703.44909099, 
			 "HOMO_LUMO_gap": 0.14883, 
			 "cosmo_polarized_energy": -8.42, 
			 "cosmo_cavitation_energy": 23.19, 
			 "cosmo_dispersion_energy": -16.86, 
			 "cosmo_repulsion_energy": 1.3, 
			 "cosmo_total_nonelectrostatic_energy": 7.62, 
			 "SMD_solvation_energy": 8.39 
		},
		"coords": [
			{
				"x": 0.1029135619,
				"y": 2.067611241,
				"z": -2.3045844221,
				"element": "O" 
			},
			{
				"x": -0.3187554064,
				"y": 1.4993551458,
				"z": -1.3008622639,
				"element": "N" 
			},
			{
				"x": -1.4603110205,
				"y": 1.6539685326,
				"z": -0.8549593356,
				"element": "O" 
			},
			{
				"x": 0.589035952,
				"y": 0.5879718132,
				"z": -0.5970157767,
				"element": "C" 
			},
			{
				"x": 0.2207563409,
				"y": -0.1254918637,
				"z": 0.5710720929,
				"element": "C" 
			},
			{
				"x": 1.1990567675,
				"y": -0.9665393872,
				"z": 1.1403996913,
				"element": "C" 
			},
			{
				"x": 2.4664540521,
				"y": -1.1016248763,
				"z": 0.5968547401,
				"element": "C" 
			},
			{
				"x": 2.7849314579,
				"y": -0.3806158344,
				"z": -0.553088324,
				"element": "C" 
			},
			{
				"x": 4.011141378,
				"y": -0.5043870391,
				"z": -1.0883682134,
				"element": "F" 
			},
			{
				"x": 1.8669340255,
				"y": 0.4579763843,
				"z": -1.1535644356,
				"element": "C" 
			},
			{
				"x": -0.9895150387,
				"y": -0.1032908693,
				"z": 1.232669788,
				"element": "N" 
			},
			{
				"x": -2.0902875003,
				"y": 0.4170849185,
				"z": 1.1630615223,
				"element": "C" 
			},
			{
				"x": -3.1922415105,
				"y": 0.790944954,
				"z": 1.290618238,
				"element": "O" 
			},
			{
				"x": 0.9211061543,
				"y": -1.5137766625,
				"z": 2.0337258024,
				"element": "H" 
			},
			{
				"x": 3.2069960795,
				"y": -1.7530148182,
				"z": 1.0475426783,
				"element": "H" 
			},
			{
				"x": 2.1184847069,
				"y": 1.0154283612,
				"z": -2.0455017818,
				"element": "H" 
			}
		],
		 "valence_orbital": [ 
			{
				"type": "occ",
				"energy": -0.32613,
				"method": "rhf"
			},
			{
				"type": "occ",
				"energy": -0.31764,
				"method": "rhf"
			},
			{
				"type": "occ",
				"energy": -0.30529,
				"method": "rhf"
			},
			{
				"type": "occ",
				"energy": -0.30349,
				"method": "rhf"
			},
			{
				"type": "occ",
				"energy": -0.25732,
				"method": "rhf"
			},
			{
				"type": "unocc",
				"energy": -0.10849,
				"method": "rhf"
			},
			{
				"type": "unocc",
				"energy": -0.04371,
				"method": "rhf"
			},
			{
				"type": "unocc",
				"energy": -0.02145,
				"method": "rhf"
			},
			{
				"type": "unocc",
				"energy": 0.00778,
				"method": "rhf"
			},
			{
				"type": "unocc",
				"energy": 0.06248,
				"method": "rhf"
			}
		],
		"cosmo_sigma_profile": { 
			"-0.025": 0.0,
			"-0.024": 0.0,
			"-0.023": 0.0,
			"-0.022": 0.0,
			"-0.021": 0.0,
			"-0.02": 0.0,
			"-0.019": 0.0,
			"-0.018": 0.0,
			"-0.017": 0.0,
			"-0.016": 0.0,
			"-0.015": 0.0,
			"-0.014": 0.0,
			"-0.013": 0.0,
			"-0.012": 0.0,
			"-0.011": 0.0,
			"-0.01": 0.152759991845,
			"-0.009": 3.00348072808,
			"-0.008": 5.62944405604,
			"-0.007": 8.58929790381,
			"-0.006": 6.62058865623,
			"-0.005": 7.26596169235,
			"-0.004": 10.3660816468,
			"-0.003": 12.7668421045,
			"-0.002": 21.3137258503,
			"-0.001": 22.1014297611,
			"0.0": 13.384069996,
			"0.001": 10.0079675454,
			"0.002": 8.11137515422,
			"0.003": 12.7187473691,
			"0.004": 9.81661327303,
			"0.005": 6.00147267516,
			"0.006": 10.0530964963,
			"0.007": 12.5610645294,
			"0.008": 4.44116232279,
			"0.009": 3.3422268892,
			"0.01": 0.539439739396,
			"0.011": 0.0,
			"0.012": 0.0,
			"0.013": 0.0,
			"0.014": 0.0,
			"0.015": 0.0,
			"0.016": 0.0,
			"0.017": 0.0,
			"0.018": 0.0,
			"0.019": 0.0,
			"0.02": 0.0,
			"0.021": 0.0,
			"0.022": 0.0,
			"0.023": 0.0,
			"0.024": 0.0,
			"0.025": 0.0
		}
	}
}
