{
	 "smiles": "ON=C(C1=CC=CC=C1)C1=CC=C(Cl)C=C1", 
	 "Tm": 406.15, 
	 "num_atms": 26, 
	 "gaussian": { 
		 "optdone": 1, 
		 "sigma_profile": "yes", 
		 "theory": "DFT", 
		 "functional": "B3LYP", 
		 "basiset": "6-31G**", 
		 "properties": { 
			 "R2extent": 6090.1625, 
			 "electric_dipole_moment_norm": 2.17636786642, 
			 "electric_quadrupole_moment_norm": 15.6960649639, 
			 "total_energy": -1091.52244262, 
			 "HOMO_LUMO_gap": 0.17562, 
			 "cosmo_polarized_energy": -9.34, 
			 "cosmo_cavitation_energy": 32.45, 
			 "cosmo_dispersion_energy": -23.44, 
			 "cosmo_repulsion_energy": 1.85, 
			 "cosmo_total_nonelectrostatic_energy": 10.86, 
			 "SMD_solvation_energy": 5.26 
		},
		"coords": [
			{
				"x": 1.3772551266,
				"y": 1.7847791444,
				"z": -1.419455932,
				"element": "O" 
			},
			{
				"x": 1.5450334796,
				"y": 0.4008232024,
				"z": -1.3086127257,
				"element": "N" 
			},
			{
				"x": 0.4703010733,
				"y": -0.2203627565,
				"z": -0.9512593036,
				"element": "C" 
			},
			{
				"x": -0.8566763909,
				"y": 0.4202277131,
				"z": -0.7154094979,
				"element": "C" 
			},
			{
				"x": -1.4277339074,
				"y": 1.2845388154,
				"z": -1.662787784,
				"element": "C" 
			},
			{
				"x": -2.67373346,
				"y": 1.8636406703,
				"z": -1.4290452172,
				"element": "C" 
			},
			{
				"x": -3.3613851629,
				"y": 1.6009593122,
				"z": -0.2420198853,
				"element": "C" 
			},
			{
				"x": -2.7991486955,
				"y": 0.7482954353,
				"z": 0.7094066947,
				"element": "C" 
			},
			{
				"x": -1.5593726442,
				"y": 0.1556472554,
				"z": 0.4709723069,
				"element": "C" 
			},
			{
				"x": 0.6257385928,
				"y": -1.6902827212,
				"z": -0.7707953084,
				"element": "C" 
			},
			{
				"x": -0.468072815,
				"y": -2.5574980424,
				"z": -0.9198163591,
				"element": "C" 
			},
			{
				"x": -0.3176451586,
				"y": -3.9370997965,
				"z": -0.7837829854,
				"element": "C" 
			},
			{
				"x": 0.9409891173,
				"y": -4.4585309538,
				"z": -0.4930187257,
				"element": "C" 
			},
			{
				"x": 1.1391583138,
				"y": -6.1954087217,
				"z": -0.3104774073,
				"element": "Cl" 
			},
			{
				"x": 2.0470448171,
				"y": -3.6205583565,
				"z": -0.3385658642,
				"element": "C" 
			},
			{
				"x": 1.8834149885,
				"y": -2.246421669,
				"z": -0.4768891734,
				"element": "C" 
			},
			{
				"x": 2.2619318168,
				"y": 2.0707234023,
				"z": -1.6838999428,
				"element": "H" 
			},
			{
				"x": -0.8891988482,
				"y": 1.5020115839,
				"z": -2.5778994945,
				"element": "H" 
			},
			{
				"x": -3.1071751387,
				"y": 2.5245347452,
				"z": -2.174178765,
				"element": "H" 
			},
			{
				"x": -4.3298653637,
				"y": 2.0580570579,
				"z": -0.0602545474,
				"element": "H" 
			},
			{
				"x": -3.3259840515,
				"y": 0.5409550148,
				"z": 1.6363582883,
				"element": "H" 
			},
			{
				"x": -1.1277259287,
				"y": -0.512391325,
				"z": 1.2101900565,
				"element": "H" 
			},
			{
				"x": -1.4473308736,
				"y": -2.1542508856,
				"z": -1.1535795086,
				"element": "H" 
			},
			{
				"x": -1.1671106354,
				"y": -4.599874705,
				"z": -0.9059954651,
				"element": "H" 
			},
			{
				"x": 3.0188247617,
				"y": -4.0414016594,
				"z": -0.1049373461,
				"element": "H" 
			},
			{
				"x": 2.7335669866,
				"y": -1.5848117601,
				"z": -0.3562461074,
				"element": "H" 
			}
		],
		 "valence_orbital": [ 
			{
				"type": "occ",
				"energy": -0.27625,
				"method": "rhf"
			},
			{
				"type": "occ",
				"energy": -0.26353,
				"method": "rhf"
			},
			{
				"type": "occ",
				"energy": -0.25575,
				"method": "rhf"
			},
			{
				"type": "occ",
				"energy": -0.2532,
				"method": "rhf"
			},
			{
				"type": "occ",
				"energy": -0.22348,
				"method": "rhf"
			},
			{
				"type": "unocc",
				"energy": -0.04786,
				"method": "rhf"
			},
			{
				"type": "unocc",
				"energy": -0.01717,
				"method": "rhf"
			},
			{
				"type": "unocc",
				"energy": -0.01338,
				"method": "rhf"
			},
			{
				"type": "unocc",
				"energy": -0.00204,
				"method": "rhf"
			},
			{
				"type": "unocc",
				"energy": 0.03148,
				"method": "rhf"
			}
		],
		"cosmo_sigma_profile": { 
			"-0.025": 0.0,
			"-0.024": 0.0,
			"-0.023": 0.0,
			"-0.022": 0.0,
			"-0.021": 0.0,
			"-0.02": 0.0,
			"-0.019": 0.0,
			"-0.018": 0.120284184801,
			"-0.017": 1.1089381602,
			"-0.016": 0.946067938422,
			"-0.015": 0.827188268665,
			"-0.014": 0.840010376863,
			"-0.013": 0.783763667695,
			"-0.012": 0.570205672016,
			"-0.011": 0.509548680317,
			"-0.01": 0.485213473673,
			"-0.009": 0.827920938379,
			"-0.008": 1.36465580107,
			"-0.007": 4.29165610348,
			"-0.006": 13.1718816932,
			"-0.005": 17.4303814866,
			"-0.004": 19.2907514872,
			"-0.003": 15.6195947141,
			"-0.002": 15.8064270358,
			"-0.001": 15.407025843,
			"0.0": 19.1683464992,
			"0.001": 23.2859242136,
			"0.002": 22.5380150991,
			"0.003": 30.1434133813,
			"0.004": 23.7769147688,
			"0.005": 18.13009929,
			"0.006": 4.22352623544,
			"0.007": 2.59912821833,
			"0.008": 3.0202643122,
			"0.009": 2.5805657324,
			"0.01": 2.49931446767,
			"0.011": 1.15904945151,
			"0.012": 0.0111460138862,
			"0.013": 0.0,
			"0.014": 0.0,
			"0.015": 0.0,
			"0.016": 0.0,
			"0.017": 0.0,
			"0.018": 0.0,
			"0.019": 0.0,
			"0.02": 0.0,
			"0.021": 0.0,
			"0.022": 0.0,
			"0.023": 0.0,
			"0.024": 0.0,
			"0.025": 0.0
		}
	}
}
