{
	 "smiles": "ClC1=CC=C(NC(=O)COC2=CC=C(C=O)C=C2)C=C1", 
	 "Tm": 413.15, 
	 "num_atms": 32, 
	 "gaussian": { 
		 "optdone": 1, 
		 "sigma_profile": "yes", 
		 "theory": "DFT", 
		 "functional": "B3LYP", 
		 "basiset": "6-31G**", 
		 "properties": { 
			 "R2extent": 11615.055, 
			 "electric_dipole_moment_norm": 5.48170031103, 
			 "electric_quadrupole_moment_norm": 35.6912693865, 
			 "total_energy": -1319.43300995, 
			 "HOMO_LUMO_gap": 0.18079, 
			 "cosmo_polarized_energy": -20.85, 
			 "cosmo_cavitation_energy": 39.65, 
			 "cosmo_dispersion_energy": -28.4, 
			 "cosmo_repulsion_energy": 2.17, 
			 "cosmo_total_nonelectrostatic_energy": 13.42, 
			 "SMD_solvation_energy": 8.17 
		},
		"coords": [
			{
				"x": 0.0973838342,
				"y": -5.8148457849,
				"z": 1.7446567497,
				"element": "Cl" 
			},
			{
				"x": -0.2066651351,
				"y": -4.1001235041,
				"z": 1.9562675887,
				"element": "C" 
			},
			{
				"x": -0.3316556104,
				"y": -3.278387503,
				"z": 0.8374907225,
				"element": "C" 
			},
			{
				"x": -0.5863067759,
				"y": -1.9181519913,
				"z": 1.0078577726,
				"element": "C" 
			},
			{
				"x": -0.6805294984,
				"y": -1.3667128739,
				"z": 2.2926004113,
				"element": "C" 
			},
			{
				"x": -0.9508883641,
				"y": 0.0076186943,
				"z": 2.503883342,
				"element": "N" 
			},
			{
				"x": -0.3601618485,
				"y": 1.1388401597,
				"z": 1.9722425689,
				"element": "C" 
			},
			{
				"x": -0.6856927496,
				"y": 2.2481309745,
				"z": 2.3579787103,
				"element": "O" 
			},
			{
				"x": 0.7200931478,
				"y": 0.9422335705,
				"z": 0.8988415903,
				"element": "C" 
			},
			{
				"x": 1.5875508062,
				"y": 2.0537249961,
				"z": 0.832104518,
				"element": "O" 
			},
			{
				"x": 1.2657973905,
				"y": 3.1395380549,
				"z": 0.0705027378,
				"element": "C" 
			},
			{
				"x": 0.0205994334,
				"y": 3.3501961126,
				"z": -0.5430326255,
				"element": "C" 
			},
			{
				"x": -0.1685357281,
				"y": 4.4794133075,
				"z": -1.3293231427,
				"element": "C" 
			},
			{
				"x": 0.8613753311,
				"y": 5.4142783877,
				"z": -1.5093557779,
				"element": "C" 
			},
			{
				"x": 0.6505138431,
				"y": 6.6092556873,
				"z": -2.3448975215,
				"element": "C" 
			},
			{
				"x": -0.3810595649,
				"y": 6.8743586051,
				"z": -2.936795264,
				"element": "O" 
			},
			{
				"x": 2.095341915,
				"y": 5.1990468237,
				"z": -0.875624449,
				"element": "C" 
			},
			{
				"x": 2.3018385154,
				"y": 4.0720805283,
				"z": -0.0941780338,
				"element": "C" 
			},
			{
				"x": -0.5571478458,
				"y": -2.2112138125,
				"z": 3.4059116636,
				"element": "C" 
			},
			{
				"x": -0.3297542233,
				"y": -3.5748641098,
				"z": 3.2432076404,
				"element": "C" 
			},
			{
				"x": -0.2550471012,
				"y": -3.7000935981,
				"z": -0.1584208389,
				"element": "H" 
			},
			{
				"x": -0.7389391954,
				"y": -1.2944970974,
				"z": 0.1341545035,
				"element": "H" 
			},
			{
				"x": -1.5654326796,
				"y": 0.2408779801,
				"z": 3.2754078431,
				"element": "H" 
			},
			{
				"x": 1.3498932071,
				"y": 0.0827316747,
				"z": 1.143723235,
				"element": "H" 
			},
			{
				"x": 0.2539997664,
				"y": 0.7458555288,
				"z": -0.0753972463,
				"element": "H" 
			},
			{
				"x": -0.8036436911,
				"y": 2.6679438319,
				"z": -0.3781952296,
				"element": "H" 
			},
			{
				"x": -1.1235028492,
				"y": 4.6661724689,
				"z": -1.8105027521,
				"element": "H" 
			},
			{
				"x": 1.5318138078,
				"y": 7.2877368129,
				"z": -2.4077793119,
				"element": "H" 
			},
			{
				"x": 2.8983874211,
				"y": 5.9210716177,
				"z": -1.0053715532,
				"element": "H" 
			},
			{
				"x": 3.2508722878,
				"y": 3.8831160016,
				"z": 0.3958738422,
				"element": "H" 
			},
			{
				"x": -0.6303596928,
				"y": -1.7929534788,
				"z": 4.4056363473,
				"element": "H" 
			},
			{
				"x": -0.2353381535,
				"y": -4.223278065,
				"z": 4.1070319593,
				"element": "H" 
			}
		],
		 "valence_orbital": [ 
			{
				"type": "occ",
				"energy": -0.27947,
				"method": "rhf"
			},
			{
				"type": "occ",
				"energy": -0.26217,
				"method": "rhf"
			},
			{
				"type": "occ",
				"energy": -0.24745,
				"method": "rhf"
			},
			{
				"type": "occ",
				"energy": -0.24456,
				"method": "rhf"
			},
			{
				"type": "occ",
				"energy": -0.2305,
				"method": "rhf"
			},
			{
				"type": "unocc",
				"energy": -0.04971,
				"method": "rhf"
			},
			{
				"type": "unocc",
				"energy": -0.04173,
				"method": "rhf"
			},
			{
				"type": "unocc",
				"energy": -0.03807,
				"method": "rhf"
			},
			{
				"type": "unocc",
				"energy": -0.01038,
				"method": "rhf"
			},
			{
				"type": "unocc",
				"energy": 0.0075,
				"method": "rhf"
			}
		],
		"cosmo_sigma_profile": { 
			"-0.025": 0.0,
			"-0.024": 0.0,
			"-0.023": 0.0,
			"-0.022": 0.0,
			"-0.021": 0.0,
			"-0.02": 0.0,
			"-0.019": 0.0,
			"-0.018": 0.0,
			"-0.017": 0.0,
			"-0.016": 0.0,
			"-0.015": 0.68006326399,
			"-0.014": 0.960327949066,
			"-0.013": 0.886379684374,
			"-0.012": 1.42975327925,
			"-0.011": 2.14631610656,
			"-0.01": 3.9648745621,
			"-0.009": 4.0342786192,
			"-0.008": 8.18092188515,
			"-0.007": 16.3194385016,
			"-0.006": 21.0014846879,
			"-0.005": 19.9164673625,
			"-0.004": 15.5896042208,
			"-0.003": 15.7155776172,
			"-0.002": 17.4656456424,
			"-0.001": 17.0074034426,
			"0.0": 19.2145935416,
			"0.001": 24.1830675919,
			"0.002": 29.4141159031,
			"0.003": 32.54335711,
			"0.004": 17.2978338465,
			"0.005": 9.87274130778,
			"0.006": 4.50180502904,
			"0.007": 4.12895547212,
			"0.008": 5.29777901024,
			"0.009": 4.37910403401,
			"0.01": 4.33561179146,
			"0.011": 6.39041093215,
			"0.012": 8.5482682036,
			"0.013": 4.59780817754,
			"0.014": 0.16771470324,
			"0.015": 0.0,
			"0.016": 0.0,
			"0.017": 0.0,
			"0.018": 0.0,
			"0.019": 0.0,
			"0.02": 0.0,
			"0.021": 0.0,
			"0.022": 0.0,
			"0.023": 0.0,
			"0.024": 0.0,
			"0.025": 0.0
		}
	}
}
