{
	 "smiles": "CN(C)CCCNS(=O)(=O)C1=CC(=C(Cl)C=C1)[N+]([O-])=O", 
	 "Tm": 372.15, 
	 "num_atms": 36, 
	 "gaussian": { 
		 "optdone": 1, 
		 "sigma_profile": "yes", 
		 "theory": "DFT", 
		 "functional": "B3LYP", 
		 "basiset": "6-31G**", 
		 "properties": { 
			 "R2extent": 10598.5955, 
			 "electric_dipole_moment_norm": 4.18973011183, 
			 "electric_quadrupole_moment_norm": 24.4203749748, 
			 "total_energy": -1752.14342444, 
			 "HOMO_LUMO_gap": 0.10986, 
			 "cosmo_polarized_energy": -18.65, 
			 "cosmo_cavitation_energy": 43.29, 
			 "cosmo_dispersion_energy": -29.53, 
			 "cosmo_repulsion_energy": 2.29, 
			 "cosmo_total_nonelectrostatic_energy": 16.05, 
			 "SMD_solvation_energy": 5.92 
		},
		"coords": [
			{
				"x": -1.6108816813,
				"y": -2.5025249773,
				"z": 0.6956326557,
				"element": "C" 
			},
			{
				"x": -2.0838802325,
				"y": -1.60857856,
				"z": 1.7366315932,
				"element": "N" 
			},
			{
				"x": -1.1005638606,
				"y": -1.3683418894,
				"z": 2.7774552131,
				"element": "C" 
			},
			{
				"x": -2.8410484236,
				"y": -0.4577611883,
				"z": 1.2622168574,
				"element": "C" 
			},
			{
				"x": -2.1701209559,
				"y": 0.5489887764,
				"z": 0.2941327888,
				"element": "C" 
			},
			{
				"x": -1.1050093491,
				"y": 1.4481689344,
				"z": 0.9260866614,
				"element": "C" 
			},
			{
				"x": -0.6666281277,
				"y": 2.4537693373,
				"z": -0.0617569491,
				"element": "N" 
			},
			{
				"x": 0.543553183,
				"y": 3.5344165661,
				"z": 0.383241954,
				"element": "S" 
			},
			{
				"x": 0.3951592745,
				"y": 4.6731855346,
				"z": -0.5258974677,
				"element": "O" 
			},
			{
				"x": 0.596683683,
				"y": 3.7202178933,
				"z": 1.8379994545,
				"element": "O" 
			},
			{
				"x": 2.0299446098,
				"y": 2.6230191129,
				"z": -0.0622673782,
				"element": "C" 
			},
			{
				"x": 2.1949896417,
				"y": 2.1673755787,
				"z": -1.3659156639,
				"element": "C" 
			},
			{
				"x": 3.3789633929,
				"y": 1.5255712621,
				"z": -1.7204319555,
				"element": "C" 
			},
			{
				"x": 4.394880297,
				"y": 1.3156953651,
				"z": -0.7708326459,
				"element": "C" 
			},
			{
				"x": 5.8629212743,
				"y": 0.4505633474,
				"z": -1.1119806011,
				"element": "Cl" 
			},
			{
				"x": 4.2002751707,
				"y": 1.7712411846,
				"z": 0.5363921317,
				"element": "C" 
			},
			{
				"x": 3.0279678441,
				"y": 2.4332884775,
				"z": 0.8929831477,
				"element": "C" 
			},
			{
				"x": 3.4885014431,
				"y": 1.0989970961,
				"z": -3.1293891519,
				"element": "N" 
			},
			{
				"x": 4.5945447208,
				"y": 1.1280736784,
				"z": -3.6552699507,
				"element": "O" 
			},
			{
				"x": 2.4410549736,
				"y": 0.7707737719,
				"z": -3.6848805425,
				"element": "O" 
			},
			{
				"x": -1.2833465632,
				"y": -3.4463410864,
				"z": 1.1458632842,
				"element": "H" 
			},
			{
				"x": -2.4268005384,
				"y": -2.7283130326,
				"z": 0.000594239,
				"element": "H" 
			},
			{
				"x": -0.7620723551,
				"y": -2.1090818124,
				"z": 0.1045412837,
				"element": "H" 
			},
			{
				"x": -1.5209575745,
				"y": -0.7055893284,
				"z": 3.5405516393,
				"element": "H" 
			},
			{
				"x": -0.8467889521,
				"y": -2.3180280873,
				"z": 3.2634471268,
				"element": "H" 
			},
			{
				"x": -0.1504372566,
				"y": -0.9231553344,
				"z": 2.426579461,
				"element": "H" 
			},
			{
				"x": -3.7286043785,
				"y": -0.8480106724,
				"z": 0.7467320789,
				"element": "H" 
			},
			{
				"x": -3.2096896704,
				"y": 0.0847078414,
				"z": 2.1424628183,
				"element": "H" 
			},
			{
				"x": -1.7403366065,
				"y": 0.0254534816,
				"z": -0.567124453,
				"element": "H" 
			},
			{
				"x": -2.9708783862,
				"y": 1.1884018444,
				"z": -0.1055603845,
				"element": "H" 
			},
			{
				"x": -1.4873063202,
				"y": 1.9231030848,
				"z": 1.8392175007,
				"element": "H" 
			},
			{
				"x": -0.2243575507,
				"y": 0.8650671292,
				"z": 1.2075859713,
				"element": "H" 
			},
			{
				"x": -1.4251757029,
				"y": 3.0012093638,
				"z": -0.4647871893,
				"element": "H" 
			},
			{
				"x": 1.4208988199,
				"y": 2.2926413131,
				"z": -2.1128157201,
				"element": "H" 
			},
			{
				"x": 4.9775783114,
				"y": 1.5961602947,
				"z": 1.2712789792,
				"element": "H" 
			},
			{
				"x": 2.8769678461,
				"y": 2.795235699,
				"z": 1.9038832135,
				"element": "H" 
			}
		],
		 "valence_orbital": [ 
			{
				"type": "occ",
				"energy": -0.31036,
				"method": "rhf"
			},
			{
				"type": "occ",
				"energy": -0.29702,
				"method": "rhf"
			},
			{
				"type": "occ",
				"energy": -0.29404,
				"method": "rhf"
			},
			{
				"type": "occ",
				"energy": -0.27703,
				"method": "rhf"
			},
			{
				"type": "occ",
				"energy": -0.21235,
				"method": "rhf"
			},
			{
				"type": "unocc",
				"energy": -0.10249,
				"method": "rhf"
			},
			{
				"type": "unocc",
				"energy": -0.06728,
				"method": "rhf"
			},
			{
				"type": "unocc",
				"energy": -0.03371,
				"method": "rhf"
			},
			{
				"type": "unocc",
				"energy": -0.00116,
				"method": "rhf"
			},
			{
				"type": "unocc",
				"energy": 0.04764,
				"method": "rhf"
			}
		],
		"cosmo_sigma_profile": { 
			"-0.025": 0.0,
			"-0.024": 0.0,
			"-0.023": 0.0,
			"-0.022": 0.0,
			"-0.021": 0.0,
			"-0.02": 0.0,
			"-0.019": 0.0,
			"-0.018": 0.0,
			"-0.017": 0.0,
			"-0.016": 0.0,
			"-0.015": 0.138308831725,
			"-0.014": 1.22184481552,
			"-0.013": 0.784813908875,
			"-0.012": 0.908226668272,
			"-0.011": 1.53064287503,
			"-0.01": 1.70519501688,
			"-0.009": 5.85139074033,
			"-0.008": 7.79527944257,
			"-0.007": 5.95872804376,
			"-0.006": 7.39358157443,
			"-0.005": 12.3486323733,
			"-0.004": 25.0255409342,
			"-0.003": 41.7178278431,
			"-0.002": 43.669193965,
			"-0.001": 36.9565074367,
			"0.0": 29.7603535323,
			"0.001": 16.0011131126,
			"0.002": 13.7848985315,
			"0.003": 12.8317430335,
			"0.004": 7.96864874374,
			"0.005": 8.2975100604,
			"0.006": 9.76449428009,
			"0.007": 15.1111817152,
			"0.008": 9.24834337764,
			"0.009": 7.69962026077,
			"0.01": 9.29074357203,
			"0.011": 8.13973420212,
			"0.012": 1.64561077725,
			"0.013": 0.430395005441,
			"0.014": 0.455634671335,
			"0.015": 0.383161446497,
			"0.016": 0.194343861797,
			"0.017": 0.0,
			"0.018": 0.0,
			"0.019": 0.0,
			"0.02": 0.0,
			"0.021": 0.0,
			"0.022": 0.0,
			"0.023": 0.0,
			"0.024": 0.0,
			"0.025": 0.0
		}
	}
}
