{
	 "smiles": "CC(C)CNC1=NN=C(S)S1", 
	 "Tm": 429.15, 
	 "num_atms": 22, 
	 "gaussian": { 
		 "optdone": 1, 
		 "sigma_profile": "yes", 
		 "theory": "DFT", 
		 "functional": "B3LYP", 
		 "basiset": "6-31G**", 
		 "properties": { 
			 "R2extent": 3401.7886, 
			 "electric_dipole_moment_norm": 5.12324912336, 
			 "electric_quadrupole_moment_norm": 13.0889615348, 
			 "total_energy": -1195.86575389, 
			 "HOMO_LUMO_gap": 0.19119, 
			 "cosmo_polarized_energy": -14.06, 
			 "cosmo_cavitation_energy": 28.46, 
			 "cosmo_dispersion_energy": -21.34, 
			 "cosmo_repulsion_energy": 1.64, 
			 "cosmo_total_nonelectrostatic_energy": 8.76, 
			 "SMD_solvation_energy": 1.86 
		},
		"coords": [
			{
				"x": -2.0762237407,
				"y": -2.6957500384,
				"z": -1.0972752659,
				"element": "C" 
			},
			{
				"x": -0.616983961,
				"y": -2.2230809917,
				"z": -1.0185981531,
				"element": "C" 
			},
			{
				"x": -0.3005123287,
				"y": -1.1928288124,
				"z": -2.1104495415,
				"element": "C" 
			},
			{
				"x": -0.2642134186,
				"y": -1.7043317644,
				"z": 0.3932013864,
				"element": "C" 
			},
			{
				"x": -1.0313494891,
				"y": -0.5460441394,
				"z": 0.8278071575,
				"element": "N" 
			},
			{
				"x": -0.6071529106,
				"y": 0.7372861104,
				"z": 0.9205093675,
				"element": "C" 
			},
			{
				"x": -1.421592194,
				"y": 1.7171499515,
				"z": 1.2640806093,
				"element": "N" 
			},
			{
				"x": -0.7916049626,
				"y": 2.9193344297,
				"z": 1.3550463818,
				"element": "N" 
			},
			{
				"x": 0.4753779443,
				"y": 2.8832996654,
				"z": 1.0833897158,
				"element": "C" 
			},
			{
				"x": 1.5126056166,
				"y": 4.3150745146,
				"z": 1.0132480762,
				"element": "S" 
			},
			{
				"x": 1.0532554099,
				"y": 1.2555661959,
				"z": 0.6422453259,
				"element": "S" 
			},
			{
				"x": -2.7723473519,
				"y": -1.8585258541,
				"z": -0.9693877505,
				"element": "H" 
			},
			{
				"x": -2.2874904333,
				"y": -3.1442931816,
				"z": -2.0728819491,
				"element": "H" 
			},
			{
				"x": -2.3006948034,
				"y": -3.4460895473,
				"z": -0.3303999434,
				"element": "H" 
			},
			{
				"x": 0.0295137517,
				"y": -3.0993670166,
				"z": -1.1728103272,
				"element": "H" 
			},
			{
				"x": -0.904645234,
				"y": -0.2879348375,
				"z": -1.9857282966,
				"element": "H" 
			},
			{
				"x": -0.5168651241,
				"y": -1.6010575484,
				"z": -3.1029231999,
				"element": "H" 
			},
			{
				"x": 0.7539974952,
				"y": -0.8977142239,
				"z": -2.0929928541,
				"element": "H" 
			},
			{
				"x": 0.7975034916,
				"y": -1.4418072128,
				"z": 0.4383634594,
				"element": "H" 
			},
			{
				"x": -0.4179692238,
				"y": -2.5100682894,
				"z": 1.1226191381,
				"element": "H" 
			},
			{
				"x": -2.0090359162,
				"y": -0.6640986423,
				"z": 1.0559217704,
				"element": "H" 
			},
			{
				"x": 2.2544273825,
				"y": 4.0415812328,
				"z": 2.1094148928,
				"element": "H" 
			}
		],
		 "valence_orbital": [ 
			{
				"type": "occ",
				"energy": -0.301,
				"method": "rhf"
			},
			{
				"type": "occ",
				"energy": -0.29062,
				"method": "rhf"
			},
			{
				"type": "occ",
				"energy": -0.26618,
				"method": "rhf"
			},
			{
				"type": "occ",
				"energy": -0.2536,
				"method": "rhf"
			},
			{
				"type": "occ",
				"energy": -0.22014,
				"method": "rhf"
			},
			{
				"type": "unocc",
				"energy": -0.02895,
				"method": "rhf"
			},
			{
				"type": "unocc",
				"energy": -0.00411,
				"method": "rhf"
			},
			{
				"type": "unocc",
				"energy": 0.0271,
				"method": "rhf"
			},
			{
				"type": "unocc",
				"energy": 0.04517,
				"method": "rhf"
			},
			{
				"type": "unocc",
				"energy": 0.05503,
				"method": "rhf"
			}
		],
		"cosmo_sigma_profile": { 
			"-0.025": 0.0,
			"-0.024": 0.0,
			"-0.023": 0.0,
			"-0.022": 0.0,
			"-0.021": 0.0,
			"-0.02": 0.0,
			"-0.019": 0.0,
			"-0.018": 0.0,
			"-0.017": 0.0,
			"-0.016": 0.0,
			"-0.015": 0.0320524105636,
			"-0.014": 0.604145417298,
			"-0.013": 1.06074418485,
			"-0.012": 0.335962594412,
			"-0.011": 3.28249545308,
			"-0.01": 3.95385150753,
			"-0.009": 2.63095079625,
			"-0.008": 3.66671343366,
			"-0.007": 2.14164368218,
			"-0.006": 4.87234024639,
			"-0.005": 10.3085312674,
			"-0.004": 11.4114961207,
			"-0.003": 22.0365279811,
			"-0.002": 22.0789996973,
			"-0.001": 27.4278563329,
			"0.0": 25.5338223403,
			"0.001": 24.5976667639,
			"0.002": 14.3706949067,
			"0.003": 7.37104657081,
			"0.004": 5.07882000902,
			"0.005": 4.24163487782,
			"0.006": 4.6250730128,
			"0.007": 3.91951356873,
			"0.008": 3.48186468754,
			"0.009": 3.11569015765,
			"0.01": 2.74083823569,
			"0.011": 2.34281796325,
			"0.012": 3.93339986331,
			"0.013": 2.89468600112,
			"0.014": 2.77174732075,
			"0.015": 1.64875081156,
			"0.016": 0.0865423193785,
			"0.017": 0.0,
			"0.018": 0.0,
			"0.019": 0.0,
			"0.02": 0.0,
			"0.021": 0.0,
			"0.022": 0.0,
			"0.023": 0.0,
			"0.024": 0.0,
			"0.025": 0.0
		}
	}
}
