{
	 "smiles": "COC1=CC=CC=C1N1CCN(CCCNC2=CC(=O)N(C)C(=O)N2C)CC1", 
	 "Tm": 429.15, 
	 "num_atms": 57, 
	 "gaussian": { 
		 "optdone": 1, 
		 "sigma_profile": "yes", 
		 "theory": "DFT", 
		 "functional": "B3LYP", 
		 "basiset": "6-31G**", 
		 "properties": { 
			 "R2extent": 19076.2906, 
			 "electric_dipole_moment_norm": 6.59244062241, 
			 "electric_quadrupole_moment_norm": 39.2698474531, 
			 "total_energy": -1279.0338448, 
			 "HOMO_LUMO_gap": 0.17688, 
			 "cosmo_polarized_energy": -26.9, 
			 "cosmo_cavitation_energy": 56.85, 
			 "cosmo_dispersion_energy": -39.76, 
			 "cosmo_repulsion_energy": 2.99, 
			 "cosmo_total_nonelectrostatic_energy": 20.08, 
			 "SMD_solvation_energy": 7.86 
		},
		"coords": [
			{
				"x": 5.3039513412,
				"y": 0.0508411833,
				"z": -2.9342431391,
				"element": "C" 
			},
			{
				"x": 4.0261913663,
				"y": 0.6641496015,
				"z": -2.9193813266,
				"element": "O" 
			},
			{
				"x": 3.9546437825,
				"y": 2.0276884951,
				"z": -3.0709032718,
				"element": "C" 
			},
			{
				"x": 5.0685252673,
				"y": 2.8290955987,
				"z": -3.3130240737,
				"element": "C" 
			},
			{
				"x": 4.9465181974,
				"y": 4.221566535,
				"z": -3.3961345645,
				"element": "C" 
			},
			{
				"x": 3.6985852542,
				"y": 4.807909943,
				"z": -3.2373183846,
				"element": "C" 
			},
			{
				"x": 2.5728517708,
				"y": 4.0073625953,
				"z": -3.0213379419,
				"element": "C" 
			},
			{
				"x": 2.6580996114,
				"y": 2.6085142156,
				"z": -2.9448265563,
				"element": "C" 
			},
			{
				"x": 1.5373035286,
				"y": 1.8148280159,
				"z": -2.6630188108,
				"element": "N" 
			},
			{
				"x": 0.3396999192,
				"y": 2.4500125998,
				"z": -2.1282685494,
				"element": "C" 
			},
			{
				"x": -0.749507397,
				"y": 1.3913621853,
				"z": -1.8550858898,
				"element": "C" 
			},
			{
				"x": -0.1453662628,
				"y": 0.1403895808,
				"z": -1.41868089,
				"element": "N" 
			},
			{
				"x": -1.0901759505,
				"y": -0.7871354521,
				"z": -0.8173819149,
				"element": "C" 
			},
			{
				"x": -0.4029418574,
				"y": -1.9322498253,
				"z": -0.0644882761,
				"element": "C" 
			},
			{
				"x": -1.4007558591,
				"y": -2.8448270429,
				"z": 0.6637270854,
				"element": "C" 
			},
			{
				"x": -2.127859457,
				"y": -2.1834059817,
				"z": 1.746326617,
				"element": "N" 
			},
			{
				"x": -1.6360371621,
				"y": -2.0738037313,
				"z": 3.0211105721,
				"element": "C" 
			},
			{
				"x": -0.3742264269,
				"y": -2.4606808499,
				"z": 3.3903839751,
				"element": "C" 
			},
			{
				"x": 0.0979827104,
				"y": -2.3130899854,
				"z": 4.7375334254,
				"element": "C" 
			},
			{
				"x": 1.2099731756,
				"y": -2.6433799678,
				"z": 5.1365695365,
				"element": "O" 
			},
			{
				"x": -0.8452238551,
				"y": -1.7370719282,
				"z": 5.6419699844,
				"element": "N" 
			},
			{
				"x": -0.4541940505,
				"y": -1.5471067134,
				"z": 7.0403716522,
				"element": "C" 
			},
			{
				"x": -2.1179363785,
				"y": -1.333288604,
				"z": 5.3056951027,
				"element": "C" 
			},
			{
				"x": -2.8887485082,
				"y": -0.8413651749,
				"z": 6.1212053682,
				"element": "O" 
			},
			{
				"x": -2.4977051651,
				"y": -1.5136632989,
				"z": 3.9590254074,
				"element": "N" 
			},
			{
				"x": -3.8354891716,
				"y": -1.0546955987,
				"z": 3.5923929492,
				"element": "C" 
			},
			{
				"x": 0.6644177485,
				"y": -0.4633923584,
				"z": -2.4884314407,
				"element": "C" 
			},
			{
				"x": 1.2258882301,
				"y": 0.6143611586,
				"z": -3.4311461409,
				"element": "C" 
			},
			{
				"x": 5.1307840318,
				"y": -1.0103766021,
				"z": -2.7470675552,
				"element": "H" 
			},
			{
				"x": 5.9543450616,
				"y": 0.4546164406,
				"z": -2.1479690401,
				"element": "H" 
			},
			{
				"x": 5.8028286308,
				"y": 0.1677504954,
				"z": -3.9052911166,
				"element": "H" 
			},
			{
				"x": 6.0478897273,
				"y": 2.3767472592,
				"z": -3.4141118098,
				"element": "H" 
			},
			{
				"x": 5.8293026023,
				"y": 4.8280654247,
				"z": -3.5734859706,
				"element": "H" 
			},
			{
				"x": 3.5845809484,
				"y": 5.8867013197,
				"z": -3.2889190524,
				"element": "H" 
			},
			{
				"x": 1.6056217519,
				"y": 4.4841210646,
				"z": -2.9154265328,
				"element": "H" 
			},
			{
				"x": 0.6088550484,
				"y": 2.9670051508,
				"z": -1.1999613162,
				"element": "H" 
			},
			{
				"x": -0.0887609552,
				"y": 3.2034800807,
				"z": -2.8143677414,
				"element": "H" 
			},
			{
				"x": -1.3879568874,
				"y": 1.2628826679,
				"z": -2.7514019766,
				"element": "H" 
			},
			{
				"x": -1.4062124706,
				"y": 1.7649069442,
				"z": -1.0626344498,
				"element": "H" 
			},
			{
				"x": -1.7872957776,
				"y": -1.2174949455,
				"z": -1.5703946045,
				"element": "H" 
			},
			{
				"x": -1.7047308232,
				"y": -0.2253850912,
				"z": -0.1038692224,
				"element": "H" 
			},
			{
				"x": 0.1702666595,
				"y": -2.5577689801,
				"z": -0.7588778943,
				"element": "H" 
			},
			{
				"x": 0.3111952121,
				"y": -1.5084088975,
				"z": 0.6489876619,
				"element": "H" 
			},
			{
				"x": -2.152789803,
				"y": -3.2067056616,
				"z": -0.0459243286,
				"element": "H" 
			},
			{
				"x": -0.8871651044,
				"y": -3.7309466705,
				"z": 1.0554515651,
				"element": "H" 
			},
			{
				"x": -3.1230100347,
				"y": -2.0969116888,
				"z": 1.6304820481,
				"element": "H" 
			},
			{
				"x": 0.3178500311,
				"y": -2.8884017396,
				"z": 2.6821948824,
				"element": "H" 
			},
			{
				"x": 0.5648738246,
				"y": -1.9156199957,
				"z": 7.1352695181,
				"element": "H" 
			},
			{
				"x": -0.507781467,
				"y": -0.4888553842,
				"z": 7.3063492309,
				"element": "H" 
			},
			{
				"x": -1.127650136,
				"y": -2.1011720022,
				"z": 7.6983688013,
				"element": "H" 
			},
			{
				"x": -4.2618200053,
				"y": -0.5871980813,
				"z": 4.4772588578,
				"element": "H" 
			},
			{
				"x": -3.7851702644,
				"y": -0.322651767,
				"z": 2.7800144404,
				"element": "H" 
			},
			{
				"x": -4.4792019003,
				"y": -1.892308041,
				"z": 3.2965162868,
				"element": "H" 
			},
			{
				"x": 0.072572143,
				"y": -1.1816054628,
				"z": -3.0895709287,
				"element": "H" 
			},
			{
				"x": 1.4958814321,
				"y": -1.0145256319,
				"z": -2.0359063,
				"element": "H" 
			},
			{
				"x": 2.1227352646,
				"y": 0.2399330521,
				"z": -3.9173678801,
				"element": "H" 
			},
			{
				"x": 0.4955988579,
				"y": 0.8466015481,
				"z": -4.2254860768,
				"element": "H" 
			}
		],
		 "valence_orbital": [ 
			{
				"type": "occ",
				"energy": -0.23984,
				"method": "rhf"
			},
			{
				"type": "occ",
				"energy": -0.22409,
				"method": "rhf"
			},
			{
				"type": "occ",
				"energy": -0.21288,
				"method": "rhf"
			},
			{
				"type": "occ",
				"energy": -0.21162,
				"method": "rhf"
			},
			{
				"type": "occ",
				"energy": -0.17976,
				"method": "rhf"
			},
			{
				"type": "unocc",
				"energy": -0.00288,
				"method": "rhf"
			},
			{
				"type": "unocc",
				"energy": 0.01505,
				"method": "rhf"
			},
			{
				"type": "unocc",
				"energy": 0.02002,
				"method": "rhf"
			},
			{
				"type": "unocc",
				"energy": 0.02649,
				"method": "rhf"
			},
			{
				"type": "unocc",
				"energy": 0.051,
				"method": "rhf"
			}
		],
		"cosmo_sigma_profile": { 
			"-0.025": 0.0,
			"-0.024": 0.0,
			"-0.023": 0.0,
			"-0.022": 0.0,
			"-0.021": 0.0,
			"-0.02": 0.0,
			"-0.019": 0.0,
			"-0.018": 0.0,
			"-0.017": 0.0,
			"-0.016": 0.0,
			"-0.015": 0.277502642223,
			"-0.014": 1.06960722697,
			"-0.013": 1.11103008077,
			"-0.012": 1.90530903507,
			"-0.011": 1.25576528333,
			"-0.01": 1.32309315067,
			"-0.009": 2.12442262303,
			"-0.008": 2.39284366247,
			"-0.007": 3.59000457803,
			"-0.006": 10.0259021751,
			"-0.005": 28.6184423255,
			"-0.004": 40.5658226727,
			"-0.003": 59.2271590607,
			"-0.002": 67.6032146402,
			"-0.001": 48.895940566,
			"0.0": 30.3917688586,
			"0.001": 19.0705097422,
			"0.002": 15.4169762642,
			"0.003": 16.6456196245,
			"0.004": 14.3950806001,
			"0.005": 13.8878274248,
			"0.006": 11.7591394253,
			"0.007": 11.9033202481,
			"0.008": 5.61320653241,
			"0.009": 4.3381392676,
			"0.01": 4.34965163427,
			"0.011": 4.84264399347,
			"0.012": 6.40711360247,
			"0.013": 6.9444642187,
			"0.014": 6.31856123473,
			"0.015": 3.00493906889,
			"0.016": 0.625512970023,
			"0.017": 0.0192466029864,
			"0.018": 0.0,
			"0.019": 0.0,
			"0.02": 0.0,
			"0.021": 0.0,
			"0.022": 0.0,
			"0.023": 0.0,
			"0.024": 0.0,
			"0.025": 0.0
		}
	}
}
