{
	 "smiles": "CCCC1=C(C)N=C(NC(=O)NS(=O)(=O)C2=CC=CS2)N=C1Cl", 
	 "Tm": 445.15, 
	 "num_atms": 38, 
	 "gaussian": { 
		 "optdone": 1, 
		 "sigma_profile": "yes", 
		 "theory": "DFT", 
		 "functional": "B3LYP", 
		 "basiset": "6-31G**", 
		 "properties": { 
			 "R2extent": 13283.3062, 
			 "electric_dipole_moment_norm": 4.49727963107, 
			 "electric_quadrupole_moment_norm": 40.7446177898, 
			 "total_energy": -2205.62098844, 
			 "HOMO_LUMO_gap": 0.18202, 
			 "cosmo_polarized_energy": -21.8, 
			 "cosmo_cavitation_energy": 47.07, 
			 "cosmo_dispersion_energy": -33.4, 
			 "cosmo_repulsion_energy": 2.5, 
			 "cosmo_total_nonelectrostatic_energy": 16.17, 
			 "SMD_solvation_energy": 5.53 
		},
		"coords": [
			{
				"x": 3.5247000079,
				"y": -3.0141782041,
				"z": 3.1874539332,
				"element": "C" 
			},
			{
				"x": 2.4713349628,
				"y": -3.9383538477,
				"z": 2.5699544053,
				"element": "C" 
			},
			{
				"x": 1.0062459447,
				"y": -3.48786438,
				"z": 2.7886376097,
				"element": "C" 
			},
			{
				"x": 0.633562418,
				"y": -2.1873936412,
				"z": 2.1138538697,
				"element": "C" 
			},
			{
				"x": 0.2746403587,
				"y": -2.1262016666,
				"z": 0.7458824106,
				"element": "C" 
			},
			{
				"x": 0.1829442377,
				"y": -3.3631272576,
				"z": -0.1121839993,
				"element": "C" 
			},
			{
				"x": -0.024924809,
				"y": -0.9753462704,
				"z": 0.1324921836,
				"element": "N" 
			},
			{
				"x": 0.0150832643,
				"y": 0.1364968158,
				"z": 0.8767033645,
				"element": "C" 
			},
			{
				"x": -0.3037558575,
				"y": 1.2938609844,
				"z": 0.1676494204,
				"element": "N" 
			},
			{
				"x": -0.1142803629,
				"y": 2.599992165,
				"z": 0.5659539538,
				"element": "C" 
			},
			{
				"x": 0.4300787354,
				"y": 2.9949996118,
				"z": 1.57188832,
				"element": "O" 
			},
			{
				"x": -0.5913581604,
				"y": 3.5581512342,
				"z": -0.3780908588,
				"element": "N" 
			},
			{
				"x": -1.7615148696,
				"y": 3.4470057787,
				"z": -1.5953037264,
				"element": "S" 
			},
			{
				"x": -1.6304352657,
				"y": 4.6848100835,
				"z": -2.3541400444,
				"element": "O" 
			},
			{
				"x": -1.6021358441,
				"y": 2.1199817593,
				"z": -2.1979994312,
				"element": "O" 
			},
			{
				"x": -3.3348257268,
				"y": 3.4852752878,
				"z": -0.7948565052,
				"element": "C" 
			},
			{
				"x": -4.1007057788,
				"y": 4.610607273,
				"z": -0.6107139864,
				"element": "C" 
			},
			{
				"x": -5.3055501865,
				"y": 4.3263571681,
				"z": 0.0894865311,
				"element": "C" 
			},
			{
				"x": -5.4232223542,
				"y": 3.0004127164,
				"z": 0.4183395099,
				"element": "C" 
			},
			{
				"x": -4.0777387465,
				"y": 2.0607157159,
				"z": -0.1243251696,
				"element": "S" 
			},
			{
				"x": 0.282448224,
				"y": 0.2053327449,
				"z": 2.1783214829,
				"element": "N" 
			},
			{
				"x": 0.5835047052,
				"y": -0.9430982576,
				"z": 2.7579516787,
				"element": "C" 
			},
			{
				"x": 0.9006183222,
				"y": -0.8235194082,
				"z": 4.4900308387,
				"element": "Cl" 
			},
			{
				"x": 4.5323374566,
				"y": -3.3994967059,
				"z": 3.0008799892,
				"element": "H" 
			},
			{
				"x": 3.473441003,
				"y": -2.0049537824,
				"z": 2.7668211396,
				"element": "H" 
			},
			{
				"x": 3.3931766704,
				"y": -2.9272170981,
				"z": 4.2705930872,
				"element": "H" 
			},
			{
				"x": 2.5741047572,
				"y": -4.9443739917,
				"z": 2.9956074881,
				"element": "H" 
			},
			{
				"x": 2.6662757552,
				"y": -4.0429928808,
				"z": 1.4954764973,
				"element": "H" 
			},
			{
				"x": 0.8183341771,
				"y": -3.4029131965,
				"z": 3.8622843307,
				"element": "H" 
			},
			{
				"x": 0.3426694302,
				"y": -4.2784656732,
				"z": 2.4201549246,
				"element": "H" 
			},
			{
				"x": -0.5587829913,
				"y": -4.06463457,
				"z": 0.2864910021,
				"element": "H" 
			},
			{
				"x": 1.1371843353,
				"y": -3.8964342379,
				"z": -0.1584269451,
				"element": "H" 
			},
			{
				"x": -0.1111960323,
				"y": -3.0757530451,
				"z": -1.121848216,
				"element": "H" 
			},
			{
				"x": -0.5897371695,
				"y": 1.1293517687,
				"z": -0.7949080195,
				"element": "H" 
			},
			{
				"x": -0.4242192081,
				"y": 4.5088281258,
				"z": -0.0644049173,
				"element": "H" 
			},
			{
				"x": -3.8080442122,
				"y": 5.5866769979,
				"z": -0.9776431865,
				"element": "H" 
			},
			{
				"x": -6.0538144628,
				"y": 5.071452603,
				"z": 0.331945779,
				"element": "H" 
			},
			{
				"x": -6.2352427279,
				"y": 2.5127092808,
				"z": 0.9408912557,
				"element": "H" 
			}
		],
		 "valence_orbital": [ 
			{
				"type": "occ",
				"energy": -0.2832,
				"method": "rhf"
			},
			{
				"type": "occ",
				"energy": -0.2802,
				"method": "rhf"
			},
			{
				"type": "occ",
				"energy": -0.2662,
				"method": "rhf"
			},
			{
				"type": "occ",
				"energy": -0.25944,
				"method": "rhf"
			},
			{
				"type": "occ",
				"energy": -0.24573,
				"method": "rhf"
			},
			{
				"type": "unocc",
				"energy": -0.06371,
				"method": "rhf"
			},
			{
				"type": "unocc",
				"energy": -0.04168,
				"method": "rhf"
			},
			{
				"type": "unocc",
				"energy": -0.03356,
				"method": "rhf"
			},
			{
				"type": "unocc",
				"energy": 0.00115,
				"method": "rhf"
			},
			{
				"type": "unocc",
				"energy": 0.01968,
				"method": "rhf"
			}
		],
		"cosmo_sigma_profile": { 
			"-0.025": 0.0,
			"-0.024": 0.0,
			"-0.023": 0.0,
			"-0.022": 0.0,
			"-0.021": 0.0,
			"-0.02": 0.0,
			"-0.019": 0.0,
			"-0.018": 0.0,
			"-0.017": 0.527084913851,
			"-0.016": 0.587145078234,
			"-0.015": 1.11414643402,
			"-0.014": 0.737095076601,
			"-0.013": 0.866541204705,
			"-0.012": 1.22064973976,
			"-0.011": 0.604790762653,
			"-0.01": 2.86597930983,
			"-0.009": 3.93299671299,
			"-0.008": 6.16442521665,
			"-0.007": 7.19647868559,
			"-0.006": 13.8861787237,
			"-0.005": 17.3906179066,
			"-0.004": 18.5562838697,
			"-0.003": 33.0853720959,
			"-0.002": 42.2033818502,
			"-0.001": 44.6860770715,
			"0.0": 36.9632853935,
			"0.001": 34.1262826727,
			"0.002": 25.183003874,
			"0.003": 14.3012043391,
			"0.004": 12.775948751,
			"0.005": 7.09018814506,
			"0.006": 7.42396181218,
			"0.007": 5.85785541397,
			"0.008": 6.88141181099,
			"0.009": 10.5113204758,
			"0.01": 9.08212204766,
			"0.011": 5.1969831424,
			"0.012": 3.47816123749,
			"0.013": 1.71301960259,
			"0.014": 1.14146071826,
			"0.015": 1.37138470726,
			"0.016": 0.869516816896,
			"0.017": 0.186115027683,
			"0.018": 0.0,
			"0.019": 0.0,
			"0.02": 0.0,
			"0.021": 0.0,
			"0.022": 0.0,
			"0.023": 0.0,
			"0.024": 0.0,
			"0.025": 0.0
		}
	}
}
