{
	 "smiles": "COC1=CC=C(CCO)C=C1OC", 
	 "Tm": 319.15, 
	 "num_atms": 27, 
	 "gaussian": { 
		 "optdone": 1, 
		 "sigma_profile": "yes", 
		 "theory": "DFT", 
		 "functional": "B3LYP", 
		 "basiset": "6-31G**", 
		 "properties": { 
			 "R2extent": 3364.4799, 
			 "electric_dipole_moment_norm": 1.75104115885, 
			 "electric_quadrupole_moment_norm": 14.8978550238, 
			 "total_energy": -615.135072643, 
			 "HOMO_LUMO_gap": 0.22106, 
			 "cosmo_polarized_energy": -9.17, 
			 "cosmo_cavitation_energy": 29.7, 
			 "cosmo_dispersion_energy": -21.13, 
			 "cosmo_repulsion_energy": 1.71, 
			 "cosmo_total_nonelectrostatic_energy": 10.28, 
			 "SMD_solvation_energy": 6.31 
		},
		"coords": [
			{
				"x": -0.8470779497,
				"y": 1.1836647903,
				"z": -2.5764272303,
				"element": "C" 
			},
			{
				"x": -1.5877337319,
				"y": 0.1727622216,
				"z": -1.8823756484,
				"element": "O" 
			},
			{
				"x": -0.8205451573,
				"y": -0.6991048449,
				"z": -1.141016049,
				"element": "C" 
			},
			{
				"x": -0.7421574589,
				"y": -2.0362188279,
				"z": -1.532912954,
				"element": "C" 
			},
			{
				"x": 0.0002101255,
				"y": -2.9533619642,
				"z": -0.7893839603,
				"element": "C" 
			},
			{
				"x": 0.6893308319,
				"y": -2.5544013797,
				"z": 0.3638435773,
				"element": "C" 
			},
			{
				"x": 1.5540664322,
				"y": -3.5247319075,
				"z": 1.1375909807,
				"element": "C" 
			},
			{
				"x": 3.0354959827,
				"y": -3.4624363984,
				"z": 0.7154625728,
				"element": "C" 
			},
			{
				"x": 3.6301750078,
				"y": -2.200388306,
				"z": 0.9651565108,
				"element": "O" 
			},
			{
				"x": 0.5950772774,
				"y": -1.2111287493,
				"z": 0.7596420382,
				"element": "C" 
			},
			{
				"x": -0.1551812539,
				"y": -0.2877420875,
				"z": 0.0288623462,
				"element": "C" 
			},
			{
				"x": -0.1924582682,
				"y": 1.0212252794,
				"z": 0.4565760013,
				"element": "O" 
			},
			{
				"x": -1.4677041546,
				"y": 1.4593191448,
				"z": 0.9417567736,
				"element": "C" 
			},
			{
				"x": -1.5826069137,
				"y": 1.7915224176,
				"z": -3.1073409882,
				"element": "H" 
			},
			{
				"x": -0.1602134508,
				"y": 0.7312752797,
				"z": -3.3029772766,
				"element": "H" 
			},
			{
				"x": -0.2800765329,
				"y": 1.8111635768,
				"z": -1.8818079351,
				"element": "H" 
			},
			{
				"x": -1.2756413862,
				"y": -2.3385087577,
				"z": -2.4288512021,
				"element": "H" 
			},
			{
				"x": 0.0471521106,
				"y": -3.9902322305,
				"z": -1.1120452906,
				"element": "H" 
			},
			{
				"x": 1.1931804446,
				"y": -4.549815432,
				"z": 0.9897045735,
				"element": "H" 
			},
			{
				"x": 1.49626758,
				"y": -3.3098479927,
				"z": 2.2106442236,
				"element": "H" 
			},
			{
				"x": 3.1251092779,
				"y": -3.7461395022,
				"z": -0.3456954084,
				"element": "H" 
			},
			{
				"x": 3.6118145247,
				"y": -4.1876063026,
				"z": 1.299443426,
				"element": "H" 
			},
			{
				"x": 3.1558362124,
				"y": -1.5471175154,
				"z": 0.4325447028,
				"element": "H" 
			},
			{
				"x": 1.0918701367,
				"y": -0.8626615287,
				"z": 1.6606580874,
				"element": "H" 
			},
			{
				"x": -2.2371587071,
				"y": 1.382603654,
				"z": 0.167448814,
				"element": "H" 
			},
			{
				"x": -1.3404425164,
				"y": 2.5033150139,
				"z": 1.2351811929,
				"element": "H" 
			},
			{
				"x": -1.7710884628,
				"y": 0.8718923491,
				"z": 1.817418122,
				"element": "H" 
			}
		],
		 "valence_orbital": [ 
			{
				"type": "occ",
				"energy": -0.2965,
				"method": "rhf"
			},
			{
				"type": "occ",
				"energy": -0.26692,
				"method": "rhf"
			},
			{
				"type": "occ",
				"energy": -0.26308,
				"method": "rhf"
			},
			{
				"type": "occ",
				"energy": -0.24501,
				"method": "rhf"
			},
			{
				"type": "occ",
				"energy": -0.22644,
				"method": "rhf"
			},
			{
				"type": "unocc",
				"energy": -0.00538,
				"method": "rhf"
			},
			{
				"type": "unocc",
				"energy": -0.001,
				"method": "rhf"
			},
			{
				"type": "unocc",
				"energy": 0.08465,
				"method": "rhf"
			},
			{
				"type": "unocc",
				"energy": 0.09972,
				"method": "rhf"
			},
			{
				"type": "unocc",
				"energy": 0.11246,
				"method": "rhf"
			}
		],
		"cosmo_sigma_profile": { 
			"-0.025": 0.0,
			"-0.024": 0.0,
			"-0.023": 0.0,
			"-0.022": 0.0,
			"-0.021": 0.0,
			"-0.02": 0.0,
			"-0.019": 0.0,
			"-0.018": 0.0,
			"-0.017": 0.0,
			"-0.016": 0.0,
			"-0.015": 0.0,
			"-0.014": 0.0,
			"-0.013": 0.0,
			"-0.012": 0.848993201307,
			"-0.011": 0.752936854687,
			"-0.01": 0.340035766914,
			"-0.009": 0.651923499152,
			"-0.008": 1.0737606063,
			"-0.007": 1.12657597542,
			"-0.006": 4.64328551421,
			"-0.005": 14.5454473564,
			"-0.004": 24.9941211108,
			"-0.003": 33.2111263533,
			"-0.002": 30.5385571145,
			"-0.001": 21.5000724555,
			"0.0": 16.7050605853,
			"0.001": 12.8095163609,
			"0.002": 10.35099355,
			"0.003": 11.1538631519,
			"0.004": 11.2205530598,
			"0.005": 8.79849090028,
			"0.006": 5.03278938344,
			"0.007": 2.85437147186,
			"0.008": 3.55450194724,
			"0.009": 2.59161271927,
			"0.01": 2.78642005887,
			"0.011": 3.06720380371,
			"0.012": 3.63387464679,
			"0.013": 1.17994168028,
			"0.014": 2.5480656595,
			"0.015": 0.821517783452,
			"0.016": 0.0,
			"0.017": 0.0,
			"0.018": 0.0,
			"0.019": 0.0,
			"0.02": 0.0,
			"0.021": 0.0,
			"0.022": 0.0,
			"0.023": 0.0,
			"0.024": 0.0,
			"0.025": 0.0
		}
	}
}
