{
	 "smiles": "CCOC(=O)C1=C(C)NN=C(C)C1", 
	 "Tm": 373.15, 
	 "num_atms": 27, 
	 "gaussian": { 
		 "optdone": 1, 
		 "sigma_profile": "yes", 
		 "theory": "DFT", 
		 "functional": "B3LYP", 
		 "basiset": "6-31G**", 
		 "properties": { 
			 "R2extent": 3852.6492, 
			 "electric_dipole_moment_norm": 2.446692496, 
			 "electric_quadrupole_moment_norm": 6.45964411017, 
			 "total_energy": -611.33425299, 
			 "HOMO_LUMO_gap": 0.17432, 
			 "cosmo_polarized_energy": -11.38, 
			 "cosmo_cavitation_energy": 29.77, 
			 "cosmo_dispersion_energy": -21.52, 
			 "cosmo_repulsion_energy": 1.74, 
			 "cosmo_total_nonelectrostatic_energy": 10.0, 
			 "SMD_solvation_energy": 5.39 
		},
		"coords": [
			{
				"x": -0.3053407478,
				"y": -0.8667581293,
				"z": -2.6176397497,
				"element": "C" 
			},
			{
				"x": 0.4912296166,
				"y": 0.42750098,
				"z": -2.5339216392,
				"element": "C" 
			},
			{
				"x": 0.7563346779,
				"y": 0.7998659846,
				"z": -1.1639832016,
				"element": "O" 
			},
			{
				"x": -0.2297592288,
				"y": 1.4997114684,
				"z": -0.5302894677,
				"element": "C" 
			},
			{
				"x": -1.2831278741,
				"y": 1.786741341,
				"z": -1.0818403378,
				"element": "O" 
			},
			{
				"x": 0.0762967188,
				"y": 1.8642801131,
				"z": 0.8526613517,
				"element": "C" 
			},
			{
				"x": 1.2370717659,
				"y": 1.6076726695,
				"z": 1.524650196,
				"element": "C" 
			},
			{
				"x": 2.5042122022,
				"y": 0.9879995162,
				"z": 0.9948621879,
				"element": "C" 
			},
			{
				"x": 1.2890335473,
				"y": 1.9323255081,
				"z": 2.8669868571,
				"element": "N" 
			},
			{
				"x": 0.1592284033,
				"y": 2.0243575065,
				"z": 3.6684081103,
				"element": "N" 
			},
			{
				"x": -0.9383374231,
				"y": 2.3173670825,
				"z": 3.0689206959,
				"element": "C" 
			},
			{
				"x": -2.1906248587,
				"y": 2.3903491323,
				"z": 3.8915984888,
				"element": "C" 
			},
			{
				"x": -1.0113748682,
				"y": 2.6208190201,
				"z": 1.5890728291,
				"element": "C" 
			},
			{
				"x": 0.2064397246,
				"y": -1.675055184,
				"z": -2.0863042058,
				"element": "H" 
			},
			{
				"x": -0.4240386487,
				"y": -1.1653581401,
				"z": -3.664867655,
				"element": "H" 
			},
			{
				"x": -1.2986412904,
				"y": -0.7300547332,
				"z": -2.1841177779,
				"element": "H" 
			},
			{
				"x": 1.4817906396,
				"y": 0.3143392113,
				"z": -2.9829825692,
				"element": "H" 
			},
			{
				"x": -0.0398320783,
				"y": 1.2443640749,
				"z": -3.028212607,
				"element": "H" 
			},
			{
				"x": 2.3890211311,
				"y": -0.0938942584,
				"z": 0.8752876791,
				"element": "H" 
			},
			{
				"x": 2.7628436996,
				"y": 1.3917155895,
				"z": 0.0171968589,
				"element": "H" 
			},
			{
				"x": 3.3343082023,
				"y": 1.1720234512,
				"z": 1.6850590865,
				"element": "H" 
			},
			{
				"x": 2.0788786373,
				"y": 1.5898704783,
				"z": 3.3937146734,
				"element": "H" 
			},
			{
				"x": -1.9716370585,
				"y": 2.2022380203,
				"z": 4.9441878128,
				"element": "H" 
			},
			{
				"x": -2.659412238,
				"y": 3.3778453608,
				"z": 3.7918690476,
				"element": "H" 
			},
			{
				"x": -2.9257098536,
				"y": 1.6557850833,
				"z": 3.5403468342,
				"element": "H" 
			},
			{
				"x": -0.913731855,
				"y": 3.7106535497,
				"z": 1.4432962871,
				"element": "H" 
			},
			{
				"x": -1.9917209432,
				"y": 2.3564953033,
				"z": 1.1828402144,
				"element": "H" 
			}
		],
		 "valence_orbital": [ 
			{
				"type": "occ",
				"energy": -0.28541,
				"method": "rhf"
			},
			{
				"type": "occ",
				"energy": -0.27837,
				"method": "rhf"
			},
			{
				"type": "occ",
				"energy": -0.27111,
				"method": "rhf"
			},
			{
				"type": "occ",
				"energy": -0.25844,
				"method": "rhf"
			},
			{
				"type": "occ",
				"energy": -0.20179,
				"method": "rhf"
			},
			{
				"type": "unocc",
				"energy": -0.02747,
				"method": "rhf"
			},
			{
				"type": "unocc",
				"energy": 0.02591,
				"method": "rhf"
			},
			{
				"type": "unocc",
				"energy": 0.08027,
				"method": "rhf"
			},
			{
				"type": "unocc",
				"energy": 0.09078,
				"method": "rhf"
			},
			{
				"type": "unocc",
				"energy": 0.10884,
				"method": "rhf"
			}
		],
		"cosmo_sigma_profile": { 
			"-0.025": 0.0,
			"-0.024": 0.0,
			"-0.023": 0.0,
			"-0.022": 0.0,
			"-0.021": 0.0,
			"-0.02": 0.0,
			"-0.019": 0.0,
			"-0.018": 0.0,
			"-0.017": 0.0,
			"-0.016": 0.0,
			"-0.015": 0.361248384491,
			"-0.014": 1.16280027383,
			"-0.013": 1.34125520381,
			"-0.012": 0.885597388051,
			"-0.011": 1.02136606965,
			"-0.01": 0.720933816352,
			"-0.009": 1.73364862255,
			"-0.008": 1.54232758156,
			"-0.007": 1.29799257085,
			"-0.006": 1.66464725606,
			"-0.005": 10.4353358427,
			"-0.004": 23.1062118645,
			"-0.003": 28.4414892007,
			"-0.002": 25.6148559857,
			"-0.001": 25.6852059059,
			"0.0": 24.7059777866,
			"0.001": 17.6465989346,
			"0.002": 12.2789033398,
			"0.003": 11.090014599,
			"0.004": 7.24501019414,
			"0.005": 6.37225922717,
			"0.006": 4.1704345294,
			"0.007": 3.96748512271,
			"0.008": 3.49828667853,
			"0.009": 2.29878145114,
			"0.01": 2.76052946956,
			"0.011": 2.1245831464,
			"0.012": 3.69711679629,
			"0.013": 4.59461995929,
			"0.014": 1.90757819844,
			"0.015": 0.256457181295,
			"0.016": 0.0,
			"0.017": 0.0,
			"0.018": 0.0,
			"0.019": 0.0,
			"0.02": 0.0,
			"0.021": 0.0,
			"0.022": 0.0,
			"0.023": 0.0,
			"0.024": 0.0,
			"0.025": 0.0
		}
	}
}
