{
	 "smiles": "CC(C)C(Br)C(=O)NC1=NOC(C)=C1", 
	 "Tm": 370.15, 
	 "num_atms": 27, 
	 "gaussian": { 
		 "optdone": 1, 
		 "sigma_profile": "yes", 
		 "theory": "DFT", 
		 "functional": "B3LYP", 
		 "basiset": "6-31G**", 
		 "properties": { 
			 "R2extent": 6048.8692, 
			 "electric_dipole_moment_norm": 2.10791792535, 
			 "electric_quadrupole_moment_norm": 17.3021191442, 
			 "total_energy": -3182.13226268, 
			 "HOMO_LUMO_gap": 0.21551, 
			 "cosmo_polarized_energy": -10.69, 
			 "cosmo_cavitation_energy": 32.42, 
			 "cosmo_dispersion_energy": -23.35, 
			 "cosmo_repulsion_energy": 1.85, 
			 "cosmo_total_nonelectrostatic_energy": 10.92, 
			 "SMD_solvation_energy": 5.11 
		},
		"coords": [
			{
				"x": 2.7607461408,
				"y": -1.6251748341,
				"z": 1.9607930598,
				"element": "C" 
			},
			{
				"x": 3.3365384646,
				"y": -0.6912845074,
				"z": 0.8807605136,
				"element": "C" 
			},
			{
				"x": 3.1435298902,
				"y": -1.2708879706,
				"z": -0.5264622409,
				"element": "C" 
			},
			{
				"x": 2.763548,
				"y": 0.7400485166,
				"z": 1.0362444297,
				"element": "C" 
			},
			{
				"x": 3.907743658,
				"y": 2.0480173591,
				"z": 0.0332523444,
				"element": "Br" 
			},
			{
				"x": 1.2745056964,
				"y": 0.8482216593,
				"z": 0.6859423625,
				"element": "C" 
			},
			{
				"x": 0.4637434874,
				"y": 0.4128168539,
				"z": 1.4942137084,
				"element": "O" 
			},
			{
				"x": 0.9391577992,
				"y": 1.3705811679,
				"z": -0.5309858476,
				"element": "N" 
			},
			{
				"x": -0.3565720709,
				"y": 1.4988866834,
				"z": -1.0264265956,
				"element": "C" 
			},
			{
				"x": -0.5056579418,
				"y": 2.0542911748,
				"z": -2.2126958958,
				"element": "N" 
			},
			{
				"x": -1.8845007712,
				"y": 2.0423413445,
				"z": -2.4378139229,
				"element": "O" 
			},
			{
				"x": -2.5112403625,
				"y": 1.4807783373,
				"z": -1.3801509934,
				"element": "C" 
			},
			{
				"x": -3.9957346794,
				"y": 1.387741571,
				"z": -1.4521746643,
				"element": "C" 
			},
			{
				"x": -1.5959513157,
				"y": 1.1093358679,
				"z": -0.440683214,
				"element": "C" 
			},
			{
				"x": 1.6820166755,
				"y": -1.7534070201,
				"z": 1.8472467868,
				"element": "H" 
			},
			{
				"x": 3.2391196919,
				"y": -2.6070811023,
				"z": 1.8854061626,
				"element": "H" 
			},
			{
				"x": 2.9459584691,
				"y": -1.2360327654,
				"z": 2.9671603972,
				"element": "H" 
			},
			{
				"x": 4.4124548053,
				"y": -0.5912739679,
				"z": 1.0657763102,
				"element": "H" 
			},
			{
				"x": 3.6485324278,
				"y": -2.2384590797,
				"z": -0.6034250607,
				"element": "H" 
			},
			{
				"x": 3.5618151151,
				"y": -0.6130559207,
				"z": -1.2936284283,
				"element": "H" 
			},
			{
				"x": 2.0838874662,
				"y": -1.4333457565,
				"z": -0.7513565198,
				"element": "H" 
			},
			{
				"x": 2.8593276789,
				"y": 1.0676459619,
				"z": 2.0707868067,
				"element": "H" 
			},
			{
				"x": 1.6755721999,
				"y": 1.7605277812,
				"z": -1.1079999264,
				"element": "H" 
			},
			{
				"x": -4.444466247,
				"y": 2.3812271128,
				"z": -1.55541023,
				"element": "H" 
			},
			{
				"x": -4.3865045075,
				"y": 0.9207153645,
				"z": -0.5462651585,
				"element": "H" 
			},
			{
				"x": -4.3082986105,
				"y": 0.7920144788,
				"z": -2.3161815556,
				"element": "H" 
			},
			{
				"x": -1.7478711596,
				"y": 0.6411116899,
				"z": 0.5157773719,
				"element": "H" 
			}
		],
		 "valence_orbital": [ 
			{
				"type": "occ",
				"energy": -0.29949,
				"method": "rhf"
			},
			{
				"type": "occ",
				"energy": -0.2886,
				"method": "rhf"
			},
			{
				"type": "occ",
				"energy": -0.2689,
				"method": "rhf"
			},
			{
				"type": "occ",
				"energy": -0.26269,
				"method": "rhf"
			},
			{
				"type": "occ",
				"energy": -0.24728,
				"method": "rhf"
			},
			{
				"type": "unocc",
				"energy": -0.03177,
				"method": "rhf"
			},
			{
				"type": "unocc",
				"energy": -0.01337,
				"method": "rhf"
			},
			{
				"type": "unocc",
				"energy": 0.01227,
				"method": "rhf"
			},
			{
				"type": "unocc",
				"energy": 0.07662,
				"method": "rhf"
			},
			{
				"type": "unocc",
				"energy": 0.08869,
				"method": "rhf"
			}
		],
		"cosmo_sigma_profile": { 
			"-0.025": 0.0,
			"-0.024": 0.0,
			"-0.023": 0.0,
			"-0.022": 0.0,
			"-0.021": 0.0,
			"-0.02": 0.0,
			"-0.019": 0.0,
			"-0.018": 0.0,
			"-0.017": 0.0,
			"-0.016": 0.0,
			"-0.015": 0.0,
			"-0.014": 0.0,
			"-0.013": 0.0,
			"-0.012": 0.193474665244,
			"-0.011": 0.543817439162,
			"-0.01": 0.524497898011,
			"-0.009": 1.1975548275,
			"-0.008": 3.07660492753,
			"-0.007": 5.31861376533,
			"-0.006": 11.7264920822,
			"-0.005": 11.336667346,
			"-0.004": 19.3774793545,
			"-0.003": 27.4253938969,
			"-0.002": 28.8092844503,
			"-0.001": 25.2526467483,
			"0.0": 25.16955066,
			"0.001": 24.8051396508,
			"0.002": 12.7638354737,
			"0.003": 10.3026864144,
			"0.004": 10.717906155,
			"0.005": 8.3939196652,
			"0.006": 4.46599337191,
			"0.007": 4.56614082823,
			"0.008": 7.3282104789,
			"0.009": 3.92974668069,
			"0.01": 2.55658409135,
			"0.011": 3.32694231731,
			"0.012": 3.38395696057,
			"0.013": 1.44805585991,
			"0.014": 0.822665164091,
			"0.015": 0.108969410944,
			"0.016": 0.0,
			"0.017": 0.0,
			"0.018": 0.0,
			"0.019": 0.0,
			"0.02": 0.0,
			"0.021": 0.0,
			"0.022": 0.0,
			"0.023": 0.0,
			"0.024": 0.0,
			"0.025": 0.0
		}
	}
}
