{
	 "smiles": "CS(=O)(=O)C1=CC(OCC#C)=CC=C1", 
	 "Tm": 363.15, 
	 "num_atms": 24, 
	 "gaussian": { 
		 "optdone": 1, 
		 "sigma_profile": "yes", 
		 "theory": "DFT", 
		 "functional": "B3LYP", 
		 "basiset": "6-31G**", 
		 "properties": { 
			 "R2extent": 4810.1502, 
			 "electric_dipole_moment_norm": 4.64204436644, 
			 "electric_quadrupole_moment_norm": 26.7897892142, 
			 "total_energy": -1010.79368637, 
			 "HOMO_LUMO_gap": 0.20328, 
			 "cosmo_polarized_energy": -17.04, 
			 "cosmo_cavitation_energy": 30.72, 
			 "cosmo_dispersion_energy": -21.36, 
			 "cosmo_repulsion_energy": 1.64, 
			 "cosmo_total_nonelectrostatic_energy": 11.0, 
			 "SMD_solvation_energy": 6.72 
		},
		"coords": [
			{
				"x": 1.843463807,
				"y": 1.9390536247,
				"z": -0.7983061784,
				"element": "C" 
			},
			{
				"x": 0.4205137936,
				"y": 2.6703480515,
				"z": -1.6437442345,
				"element": "S" 
			},
			{
				"x": -0.440148926,
				"y": 3.2735210516,
				"z": -0.6131252487,
				"element": "O" 
			},
			{
				"x": 0.9355070733,
				"y": 3.4679244547,
				"z": -2.767414069,
				"element": "O" 
			},
			{
				"x": -0.442535155,
				"y": 1.2411435376,
				"z": -2.3221670532,
				"element": "C" 
			},
			{
				"x": -1.413860544,
				"y": 0.6207354755,
				"z": -1.5313840922,
				"element": "C" 
			},
			{
				"x": -2.0750048198,
				"y": -0.4975961856,
				"z": -2.0480511532,
				"element": "C" 
			},
			{
				"x": -3.0588600514,
				"y": -1.1898180717,
				"z": -1.4001919033,
				"element": "O" 
			},
			{
				"x": -3.5233014308,
				"y": -0.7116068663,
				"z": -0.1352511367,
				"element": "C" 
			},
			{
				"x": -2.5975186834,
				"y": -0.9704792291,
				"z": 0.9704576515,
				"element": "C" 
			},
			{
				"x": -1.8493661109,
				"y": -1.184350814,
				"z": 1.8933353245,
				"element": "C" 
			},
			{
				"x": -1.7489263854,
				"y": -0.9746440203,
				"z": -3.3276227944,
				"element": "C" 
			},
			{
				"x": -0.7826658278,
				"y": -0.3315685752,
				"z": -4.0930284645,
				"element": "C" 
			},
			{
				"x": -0.1151428198,
				"y": 0.7937246711,
				"z": -3.5989589793,
				"element": "C" 
			},
			{
				"x": 2.3986262129,
				"y": 2.7706971209,
				"z": -0.3594457138,
				"element": "H" 
			},
			{
				"x": 2.4604668353,
				"y": 1.4108967509,
				"z": -1.5263683835,
				"element": "H" 
			},
			{
				"x": 1.4881326992,
				"y": 1.2640669364,
				"z": -0.0185684138,
				"element": "H" 
			},
			{
				"x": -1.6311143259,
				"y": 1.022264801,
				"z": -0.5498105965,
				"element": "H" 
			},
			{
				"x": -4.4619086945,
				"y": -1.2477391202,
				"z": 0.0327381206,
				"element": "H" 
			},
			{
				"x": -3.7581046843,
				"y": 0.3597762178,
				"z": -0.1957859229,
				"element": "H" 
			},
			{
				"x": -1.1892899049,
				"y": -1.3757657438,
				"z": 2.7079715382,
				"element": "H" 
			},
			{
				"x": -2.2779922155,
				"y": -1.8447602289,
				"z": -3.7019333483,
				"element": "H" 
			},
			{
				"x": -0.552828664,
				"y": -0.7036105671,
				"z": -5.0868486229,
				"element": "H" 
			},
			{
				"x": 0.6226588221,
				"y": 1.3240867283,
				"z": -4.1900963257,
				"element": "H" 
			}
		],
		 "valence_orbital": [ 
			{
				"type": "occ",
				"energy": -0.29214,
				"method": "rhf"
			},
			{
				"type": "occ",
				"energy": -0.28753,
				"method": "rhf"
			},
			{
				"type": "occ",
				"energy": -0.28409,
				"method": "rhf"
			},
			{
				"type": "occ",
				"energy": -0.27304,
				"method": "rhf"
			},
			{
				"type": "occ",
				"energy": -0.24248,
				"method": "rhf"
			},
			{
				"type": "unocc",
				"energy": -0.0392,
				"method": "rhf"
			},
			{
				"type": "unocc",
				"energy": -0.01102,
				"method": "rhf"
			},
			{
				"type": "unocc",
				"energy": 0.01331,
				"method": "rhf"
			},
			{
				"type": "unocc",
				"energy": 0.03602,
				"method": "rhf"
			},
			{
				"type": "unocc",
				"energy": 0.06583,
				"method": "rhf"
			}
		],
		"cosmo_sigma_profile": { 
			"-0.025": 0.0,
			"-0.024": 0.0,
			"-0.023": 0.0,
			"-0.022": 0.0,
			"-0.021": 0.0,
			"-0.02": 0.0,
			"-0.019": 0.0,
			"-0.018": 0.0,
			"-0.017": 0.0,
			"-0.016": 0.0,
			"-0.015": 0.0,
			"-0.014": 0.0,
			"-0.013": 0.0734933969626,
			"-0.012": 1.1927404494,
			"-0.011": 1.18030630344,
			"-0.01": 0.877599167335,
			"-0.009": 4.3707830123,
			"-0.008": 12.6403557107,
			"-0.007": 16.3714901536,
			"-0.006": 17.7339356311,
			"-0.005": 16.7112909739,
			"-0.004": 15.4303178919,
			"-0.003": 13.2311337966,
			"-0.002": 10.1152727211,
			"-0.001": 8.76602119617,
			"0.0": 10.4895226476,
			"0.001": 15.2785896415,
			"0.002": 20.6546857302,
			"0.003": 16.7588986782,
			"0.004": 11.452578741,
			"0.005": 10.7141207851,
			"0.006": 7.89782513883,
			"0.007": 2.99417616677,
			"0.008": 4.65284663055,
			"0.009": 3.7908892788,
			"0.01": 4.4787828955,
			"0.011": 9.0702507463,
			"0.012": 8.61431498729,
			"0.013": 1.23996102163,
			"0.014": 0.0,
			"0.015": 0.0,
			"0.016": 0.0,
			"0.017": 0.0,
			"0.018": 0.0,
			"0.019": 0.0,
			"0.02": 0.0,
			"0.021": 0.0,
			"0.022": 0.0,
			"0.023": 0.0,
			"0.024": 0.0,
			"0.025": 0.0
		}
	}
}
