{
	 "smiles": "CCCCCOC(=O)NC1=NC(=O)N(C=C1F)C1OC(C)C(O)C1O", 
	 "Tm": 388.65, 
	 "num_atms": 47, 
	 "gaussian": { 
		 "optdone": 1, 
		 "sigma_profile": "yes", 
		 "theory": "DFT", 
		 "functional": "B3LYP", 
		 "basiset": "6-31G**", 
		 "properties": { 
			 "R2extent": 11109.44, 
			 "electric_dipole_moment_norm": 7.94030489213, 
			 "electric_quadrupole_moment_norm": 12.0730619496, 
			 "total_energy": -1300.29330072, 
			 "HOMO_LUMO_gap": 0.17059, 
			 "cosmo_polarized_energy": -27.94, 
			 "cosmo_cavitation_energy": 49.05, 
			 "cosmo_dispersion_energy": -32.4, 
			 "cosmo_repulsion_energy": 2.44, 
			 "cosmo_total_nonelectrostatic_energy": 19.1, 
			 "SMD_solvation_energy": 8.18 
		},
		"coords": [
			{
				"x": 2.1800745066,
				"y": 1.5788975411,
				"z": -0.5075043637,
				"element": "C" 
			},
			{
				"x": 1.4260561083,
				"y": 2.8888413545,
				"z": -0.7645736939,
				"element": "C" 
			},
			{
				"x": 2.1130357223,
				"y": 3.8148117795,
				"z": -1.7835591375,
				"element": "C" 
			},
			{
				"x": 2.2423942384,
				"y": 3.2875120094,
				"z": -3.2243993883,
				"element": "C" 
			},
			{
				"x": 0.9558698829,
				"y": 3.2242689484,
				"z": -4.0353085591,
				"element": "C" 
			},
			{
				"x": 0.1474434836,
				"y": 2.1108933116,
				"z": -3.5713221665,
				"element": "O" 
			},
			{
				"x": -0.937891259,
				"y": 1.8559329816,
				"z": -4.3184418577,
				"element": "C" 
			},
			{
				"x": -1.3205823662,
				"y": 2.5242603,
				"z": -5.2555864507,
				"element": "O" 
			},
			{
				"x": -1.6388847142,
				"y": 0.7306917834,
				"z": -3.8872855197,
				"element": "N" 
			},
			{
				"x": -1.4111860872,
				"y": -0.1465728518,
				"z": -2.8309438659,
				"element": "C" 
			},
			{
				"x": -2.4894271176,
				"y": -0.5619856749,
				"z": -2.2051829032,
				"element": "N" 
			},
			{
				"x": -2.4289024494,
				"y": -1.4853616942,
				"z": -1.1863438589,
				"element": "C" 
			},
			{
				"x": -3.4015299421,
				"y": -1.9301224546,
				"z": -0.5936708722,
				"element": "O" 
			},
			{
				"x": -1.1251206786,
				"y": -1.9174029448,
				"z": -0.7914258298,
				"element": "N" 
			},
			{
				"x": -0.0196118044,
				"y": -1.5468456651,
				"z": -1.4843152325,
				"element": "C" 
			},
			{
				"x": -0.1192740373,
				"y": -0.6640106293,
				"z": -2.514820559,
				"element": "C" 
			},
			{
				"x": 0.9784244717,
				"y": -0.3665506406,
				"z": -3.2409461141,
				"element": "F" 
			},
			{
				"x": -1.0564356123,
				"y": -2.9218377206,
				"z": 0.3120596096,
				"element": "C" 
			},
			{
				"x": 0.2544883446,
				"y": -3.4252136578,
				"z": 0.4079713909,
				"element": "O" 
			},
			{
				"x": 0.9217193131,
				"y": -2.9694460858,
				"z": 1.6140648404,
				"element": "C" 
			},
			{
				"x": 1.1729574435,
				"y": -4.1538075208,
				"z": 2.5370005185,
				"element": "C" 
			},
			{
				"x": -0.017161021,
				"y": -1.8737884937,
				"z": 2.1853194294,
				"element": "C" 
			},
			{
				"x": -0.0816610894,
				"y": -1.7919011077,
				"z": 3.5982805699,
				"element": "O" 
			},
			{
				"x": -1.4029404288,
				"y": -2.2984327408,
				"z": 1.6695505864,
				"element": "C" 
			},
			{
				"x": -1.9478356302,
				"y": -3.3208036971,
				"z": 2.4795554029,
				"element": "O" 
			},
			{
				"x": 1.6949429747,
				"y": 1.0001206528,
				"z": 0.287002469,
				"element": "H" 
			},
			{
				"x": 3.2128944862,
				"y": 1.7701715602,
				"z": -0.1921971063,
				"element": "H" 
			},
			{
				"x": 2.210823542,
				"y": 0.9492351027,
				"z": -1.4011894416,
				"element": "H" 
			},
			{
				"x": 1.33124392,
				"y": 3.4386462881,
				"z": 0.1806898338,
				"element": "H" 
			},
			{
				"x": 0.4062749372,
				"y": 2.6641348411,
				"z": -1.0947900422,
				"element": "H" 
			},
			{
				"x": 3.1223866336,
				"y": 4.0455166867,
				"z": -1.4164615564,
				"element": "H" 
			},
			{
				"x": 1.5777154231,
				"y": 4.7737669711,
				"z": -1.8123586375,
				"element": "H" 
			},
			{
				"x": 2.9125459675,
				"y": 3.9600582492,
				"z": -3.7753732517,
				"element": "H" 
			},
			{
				"x": 2.719991612,
				"y": 2.3012865244,
				"z": -3.2440003488,
				"element": "H" 
			},
			{
				"x": 0.3674531075,
				"y": 4.1433285366,
				"z": -3.9406990183,
				"element": "H" 
			},
			{
				"x": 1.1640093143,
				"y": 3.0718620022,
				"z": -5.0979602964,
				"element": "H" 
			},
			{
				"x": -2.6068321,
				"y": 0.7400245021,
				"z": -4.1865308352,
				"element": "H" 
			},
			{
				"x": 0.9165524759,
				"y": -2.0132499844,
				"z": -1.2071476314,
				"element": "H" 
			},
			{
				"x": -1.7610437793,
				"y": -3.7181126061,
				"z": 0.0634455431,
				"element": "H" 
			},
			{
				"x": 1.8793323462,
				"y": -2.5361132363,
				"z": 1.2968363399,
				"element": "H" 
			},
			{
				"x": 1.7707557411,
				"y": -4.9053260573,
				"z": 2.0140576873,
				"element": "H" 
			},
			{
				"x": 1.7227384553,
				"y": -3.8407490533,
				"z": 3.4303957064,
				"element": "H" 
			},
			{
				"x": 0.2262905409,
				"y": -4.6002320497,
				"z": 2.8447078125,
				"element": "H" 
			},
			{
				"x": 0.2460031332,
				"y": -0.899143496,
				"z": 1.7495836341,
				"element": "H" 
			},
			{
				"x": 0.7547925952,
				"y": -1.4550839424,
				"z": 3.9411765909,
				"element": "H" 
			},
			{
				"x": -2.0958829643,
				"y": -1.4572509075,
				"z": 1.5660803003,
				"element": "H" 
			},
			{
				"x": -1.80250764,
				"y": -3.0476170142,
				"z": 3.3976602735,
				"element": "H" 
			}
		],
		 "valence_orbital": [ 
			{
				"type": "occ",
				"energy": -0.28186,
				"method": "rhf"
			},
			{
				"type": "occ",
				"energy": -0.27712,
				"method": "rhf"
			},
			{
				"type": "occ",
				"energy": -0.2731,
				"method": "rhf"
			},
			{
				"type": "occ",
				"energy": -0.25881,
				"method": "rhf"
			},
			{
				"type": "occ",
				"energy": -0.23125,
				"method": "rhf"
			},
			{
				"type": "unocc",
				"energy": -0.06066,
				"method": "rhf"
			},
			{
				"type": "unocc",
				"energy": 0.00482,
				"method": "rhf"
			},
			{
				"type": "unocc",
				"energy": 0.02974,
				"method": "rhf"
			},
			{
				"type": "unocc",
				"energy": 0.04083,
				"method": "rhf"
			},
			{
				"type": "unocc",
				"energy": 0.05375,
				"method": "rhf"
			}
		],
		"cosmo_sigma_profile": { 
			"-0.025": 0.0,
			"-0.024": 0.0,
			"-0.023": 0.0,
			"-0.022": 0.0,
			"-0.021": 0.0,
			"-0.02": 0.0,
			"-0.019": 0.0,
			"-0.018": 0.0,
			"-0.017": 0.617143581141,
			"-0.016": 1.36600555651,
			"-0.015": 1.42970622778,
			"-0.014": 1.86746341297,
			"-0.013": 1.83184559838,
			"-0.012": 2.93973589708,
			"-0.011": 1.8237174356,
			"-0.01": 2.45904899856,
			"-0.009": 3.27459509075,
			"-0.008": 4.56033872085,
			"-0.007": 7.21276640871,
			"-0.006": 13.8198737865,
			"-0.005": 24.770655748,
			"-0.004": 26.1662529411,
			"-0.003": 32.3817436801,
			"-0.002": 37.5305553093,
			"-0.001": 37.7257740115,
			"0.0": 40.3789668387,
			"0.001": 29.7399417667,
			"0.002": 18.7283424207,
			"0.003": 12.9223511133,
			"0.004": 10.8386398316,
			"0.005": 7.27932616481,
			"0.006": 6.65571138768,
			"0.007": 6.8140818796,
			"0.008": 5.73522808413,
			"0.009": 5.84920618401,
			"0.01": 6.90717053667,
			"0.011": 7.54988539083,
			"0.012": 10.1207300194,
			"0.013": 6.2512104535,
			"0.014": 4.22751782857,
			"0.015": 2.24036255387,
			"0.016": 0.0987260528637,
			"0.017": 0.0,
			"0.018": 0.0,
			"0.019": 0.0,
			"0.02": 0.0,
			"0.021": 0.0,
			"0.022": 0.0,
			"0.023": 0.0,
			"0.024": 0.0,
			"0.025": 0.0
		}
	}
}
