{
	 "smiles": "NC1=CC(=NO1)C1=C(I)C=CC=C1", 
	 "Tm": 394.15, 
	 "num_atms": 20, 
	 "gaussian": { 
		 "optdone": 1, 
		 "sigma_profile": "yes", 
		 "theory": "DFT", 
		 "functional": "B3LYP", 
		 "basiset": "6-31G**", 
		 "properties": { 
			 "R2extent": 3857.3564, 
			 "electric_dipole_moment_norm": 3.4478337982, 
			 "electric_quadrupole_moment_norm": 28.0496639607, 
			 "total_energy": -543.234856148, 
			 "HOMO_LUMO_gap": 0.18026, 
			 "cosmo_polarized_energy": -14.19, 
			 "cosmo_cavitation_energy": 27.78, 
			 "cosmo_dispersion_energy": -21.72, 
			 "cosmo_repulsion_energy": 1.7, 
			 "cosmo_total_nonelectrostatic_energy": 7.76, 
			 "SMD_solvation_energy": 3.96 
		},
		"coords": [
			{
				"x": -5.2357226133,
				"y": -0.0143324143,
				"z": -1.3109047216,
				"element": "N" 
			},
			{
				"x": -3.9169227408,
				"y": -0.2687510311,
				"z": -1.0251205891,
				"element": "C" 
			},
			{
				"x": -3.2748889246,
				"y": -0.8209225602,
				"z": 0.0519714918,
				"element": "C" 
			},
			{
				"x": -1.9112133723,
				"y": -0.8490274093,
				"z": -0.3585330961,
				"element": "C" 
			},
			{
				"x": -1.7397305873,
				"y": -0.3527502454,
				"z": -1.5711001631,
				"element": "N" 
			},
			{
				"x": -3.0348834149,
				"y": 0.0181809641,
				"z": -1.9982681798,
				"element": "O" 
			},
			{
				"x": -0.7067411183,
				"y": -1.2573447082,
				"z": 0.4002460004,
				"element": "C" 
			},
			{
				"x": -0.5782548786,
				"y": -2.4426048584,
				"z": 1.1463429176,
				"element": "C" 
			},
			{
				"x": -2.0961226189,
				"y": -3.9357782128,
				"z": 1.2112518301,
				"element": "I" 
			},
			{
				"x": 0.5976876225,
				"y": -2.7316848532,
				"z": 1.8444403078,
				"element": "C" 
			},
			{
				"x": 1.6728561374,
				"y": -1.8450347167,
				"z": 1.8006046902,
				"element": "C" 
			},
			{
				"x": 1.5761906828,
				"y": -0.6726969612,
				"z": 1.0515546486,
				"element": "C" 
			},
			{
				"x": 0.4001979925,
				"y": -0.3877054956,
				"z": 0.3659247518,
				"element": "C" 
			},
			{
				"x": -5.8368251352,
				"y": 0.1000926599,
				"z": -0.5080428717,
				"element": "H" 
			},
			{
				"x": -5.3857784199,
				"y": 0.6782950308,
				"z": -2.0321727619,
				"element": "H" 
			},
			{
				"x": -3.7010525016,
				"y": -1.1489038441,
				"z": 0.9849768693,
				"element": "H" 
			},
			{
				"x": 0.6761555497,
				"y": -3.6524848915,
				"z": 2.4108904618,
				"element": "H" 
			},
			{
				"x": 2.5813103378,
				"y": -2.0791099539,
				"z": 2.3477014576,
				"element": "H" 
			},
			{
				"x": 2.4103630597,
				"y": 0.0206213245,
				"z": 1.0048796469,
				"element": "H" 
			},
			{
				"x": 0.3074749432,
				"y": 0.5229421767,
				"z": -0.2156426906,
				"element": "H" 
			}
		],
		 "valence_orbital": [ 
			{
				"type": "occ",
				"energy": -0.29438,
				"method": "rhf"
			},
			{
				"type": "occ",
				"energy": -0.26521,
				"method": "rhf"
			},
			{
				"type": "occ",
				"energy": -0.25243,
				"method": "rhf"
			},
			{
				"type": "occ",
				"energy": -0.23791,
				"method": "rhf"
			},
			{
				"type": "occ",
				"energy": -0.21847,
				"method": "rhf"
			},
			{
				"type": "unocc",
				"energy": -0.03821,
				"method": "rhf"
			},
			{
				"type": "unocc",
				"energy": -0.03217,
				"method": "rhf"
			},
			{
				"type": "unocc",
				"energy": -0.01569,
				"method": "rhf"
			},
			{
				"type": "unocc",
				"energy": 0.02022,
				"method": "rhf"
			},
			{
				"type": "unocc",
				"energy": 0.04205,
				"method": "rhf"
			}
		],
		"cosmo_sigma_profile": { 
			"-0.025": 0.0,
			"-0.024": 0.0,
			"-0.023": 0.0,
			"-0.022": 0.0,
			"-0.021": 0.0,
			"-0.02": 0.0,
			"-0.019": 0.0,
			"-0.018": 0.0,
			"-0.017": 0.0,
			"-0.016": 0.0,
			"-0.015": 0.583017631336,
			"-0.014": 3.00130013561,
			"-0.013": 2.82890115223,
			"-0.012": 2.72812750888,
			"-0.011": 2.35391466236,
			"-0.01": 2.84758357336,
			"-0.009": 2.19274055617,
			"-0.008": 1.47900038289,
			"-0.007": 7.879998647,
			"-0.006": 11.7855146823,
			"-0.005": 12.3380739098,
			"-0.004": 12.5744325922,
			"-0.003": 9.61326109471,
			"-0.002": 9.92115997013,
			"-0.001": 12.4349738719,
			"0.0": 11.6204416476,
			"0.001": 17.3504045915,
			"0.002": 22.1361643982,
			"0.003": 26.585728777,
			"0.004": 21.5705281368,
			"0.005": 8.55694168192,
			"0.006": 3.26787043957,
			"0.007": 3.78622994099,
			"0.008": 5.48667230125,
			"0.009": 3.76891697133,
			"0.01": 2.17224941317,
			"0.011": 2.35029014225,
			"0.012": 1.48952548955,
			"0.013": 1.1822097097,
			"0.014": 1.28817053007,
			"0.015": 0.581655362096,
			"0.016": 0.0112021293028,
			"0.017": 0.0,
			"0.018": 0.0,
			"0.019": 0.0,
			"0.02": 0.0,
			"0.021": 0.0,
			"0.022": 0.0,
			"0.023": 0.0,
			"0.024": 0.0,
			"0.025": 0.0
		}
	}
}
