{
	 "smiles": "CC(C)(C)C(=O)C(O)=O", 
	 "Tm": 363.65, 
	 "num_atms": 19, 
	 "gaussian": { 
		 "optdone": 1, 
		 "sigma_profile": "yes", 
		 "theory": "DFT", 
		 "functional": "B3LYP", 
		 "basiset": "6-31G**", 
		 "properties": { 
			 "R2extent": 1621.0087, 
			 "electric_dipole_moment_norm": 1.21602012319, 
			 "electric_quadrupole_moment_norm": 7.48203759079, 
			 "total_energy": -460.344826036, 
			 "HOMO_LUMO_gap": 0.17511, 
			 "cosmo_polarized_energy": -9.99, 
			 "cosmo_cavitation_energy": 22.08, 
			 "cosmo_dispersion_energy": -15.77, 
			 "cosmo_repulsion_energy": 1.3, 
			 "cosmo_total_nonelectrostatic_energy": 7.61, 
			 "SMD_solvation_energy": 6.07 
		},
		"coords": [
			{
				"x": -1.9611605826,
				"y": -0.6812644716,
				"z": 2.2654106712,
				"element": "C" 
			},
			{
				"x": -1.9005732564,
				"y": -0.6626237428,
				"z": 0.7181932297,
				"element": "C" 
			},
			{
				"x": -3.0625813203,
				"y": 0.1898219748,
				"z": 0.1516798026,
				"element": "C" 
			},
			{
				"x": -1.9974683425,
				"y": -2.0985942447,
				"z": 0.1769262646,
				"element": "C" 
			},
			{
				"x": -0.5619721631,
				"y": -0.0674696357,
				"z": 0.2658731951,
				"element": "C" 
			},
			{
				"x": 0.2482191989,
				"y": -0.6682417732,
				"z": -0.4056349231,
				"element": "O" 
			},
			{
				"x": -0.2182458269,
				"y": 1.3905441611,
				"z": 0.6897259459,
				"element": "C" 
			},
			{
				"x": 0.9830277449,
				"y": 1.7607875439,
				"z": 0.2204151956,
				"element": "O" 
			},
			{
				"x": -0.9277221463,
				"y": 2.1151746119,
				"z": 1.3560161041,
				"element": "O" 
			},
			{
				"x": -1.1381402997,
				"y": -1.269270727,
				"z": 2.6862480857,
				"element": "H" 
			},
			{
				"x": -1.9230208245,
				"y": 0.3260336553,
				"z": 2.6826494441,
				"element": "H" 
			},
			{
				"x": -2.8986662754,
				"y": -1.1513409381,
				"z": 2.5807588403,
				"element": "H" 
			},
			{
				"x": -3.0400726135,
				"y": 1.2097838036,
				"z": 0.5381428105,
				"element": "H" 
			},
			{
				"x": -4.014958736,
				"y": -0.2683252016,
				"z": 0.4387379622,
				"element": "H" 
			},
			{
				"x": -3.0292336592,
				"y": 0.2259990876,
				"z": -0.942758929,
				"element": "H" 
			},
			{
				"x": -1.1823068746,
				"y": -2.7223776093,
				"z": 0.5535376785,
				"element": "H" 
			},
			{
				"x": -2.9474008764,
				"y": -2.544401447,
				"z": 0.4882751849,
				"element": "H" 
			},
			{
				"x": -1.9475999579,
				"y": -2.1171672855,
				"z": -0.9151210155,
				"element": "H" 
			},
			{
				"x": 1.1225768115,
				"y": 2.6738322382,
				"z": 0.5248244526,
				"element": "H" 
			}
		],
		 "valence_orbital": [ 
			{
				"type": "occ",
				"energy": -0.34318,
				"method": "rhf"
			},
			{
				"type": "occ",
				"energy": -0.33698,
				"method": "rhf"
			},
			{
				"type": "occ",
				"energy": -0.33419,
				"method": "rhf"
			},
			{
				"type": "occ",
				"energy": -0.31446,
				"method": "rhf"
			},
			{
				"type": "occ",
				"energy": -0.25318,
				"method": "rhf"
			},
			{
				"type": "unocc",
				"energy": -0.07807,
				"method": "rhf"
			},
			{
				"type": "unocc",
				"energy": 0.05306,
				"method": "rhf"
			},
			{
				"type": "unocc",
				"energy": 0.06697,
				"method": "rhf"
			},
			{
				"type": "unocc",
				"energy": 0.08705,
				"method": "rhf"
			},
			{
				"type": "unocc",
				"energy": 0.12618,
				"method": "rhf"
			}
		],
		"cosmo_sigma_profile": { 
			"-0.025": 0.0,
			"-0.024": 0.0,
			"-0.023": 0.0,
			"-0.022": 0.0,
			"-0.021": 0.0,
			"-0.02": 0.0310267024844,
			"-0.019": 0.653711223469,
			"-0.018": 1.36513018416,
			"-0.017": 0.507549590405,
			"-0.016": 0.749228738118,
			"-0.015": 0.892310300815,
			"-0.014": 0.711954067848,
			"-0.013": 0.680683147355,
			"-0.012": 0.833820529537,
			"-0.011": 1.00308260672,
			"-0.01": 0.265618796329,
			"-0.009": 0.737407363484,
			"-0.008": 1.19094953793,
			"-0.007": 1.95118352734,
			"-0.006": 3.64225642985,
			"-0.005": 4.87473672587,
			"-0.004": 13.3192078923,
			"-0.003": 19.1289239158,
			"-0.002": 16.9126898109,
			"-0.001": 16.8752053912,
			"0.0": 23.0728703156,
			"0.001": 15.4385512779,
			"0.002": 4.5881646871,
			"0.003": 4.16875399642,
			"0.004": 3.82215473169,
			"0.005": 3.56059270658,
			"0.006": 3.54068574337,
			"0.007": 4.47926890169,
			"0.008": 4.30039600372,
			"0.009": 4.81013966782,
			"0.01": 7.99504320006,
			"0.011": 4.27722278488,
			"0.012": 1.61024373084,
			"0.013": 0.373390966483,
			"0.014": 0.0,
			"0.015": 0.0,
			"0.016": 0.0,
			"0.017": 0.0,
			"0.018": 0.0,
			"0.019": 0.0,
			"0.02": 0.0,
			"0.021": 0.0,
			"0.022": 0.0,
			"0.023": 0.0,
			"0.024": 0.0,
			"0.025": 0.0
		}
	}
}
