{
	 "smiles": "BrCCCCCCCCCCN1C(=O)C2=CC=CC=C2C1=O", 
	 "Tm": 332.15, 
	 "num_atms": 46, 
	 "gaussian": { 
		 "optdone": 1, 
		 "sigma_profile": "yes", 
		 "theory": "DFT", 
		 "functional": "B3LYP", 
		 "basiset": "6-31G**", 
		 "properties": { 
			 "R2extent": 11379.4429, 
			 "electric_dipole_moment_norm": 3.3270217207, 
			 "electric_quadrupole_moment_norm": 31.5073464046, 
			 "total_energy": -3477.04829082, 
			 "HOMO_LUMO_gap": 0.17054, 
			 "cosmo_polarized_energy": -11.36, 
			 "cosmo_cavitation_energy": 49.17, 
			 "cosmo_dispersion_energy": -32.71, 
			 "cosmo_repulsion_energy": 2.51, 
			 "cosmo_total_nonelectrostatic_energy": 18.97, 
			 "SMD_solvation_energy": 6.51 
		},
		"coords": [
			{
				"x": -0.3192148888,
				"y": 4.7394281905,
				"z": -1.8566469347,
				"element": "Br" 
			},
			{
				"x": -0.5461289255,
				"y": 2.8143739107,
				"z": -2.2988034996,
				"element": "C" 
			},
			{
				"x": -2.0000651519,
				"y": 2.3780295436,
				"z": -2.2039642568,
				"element": "C" 
			},
			{
				"x": -2.1540389889,
				"y": 0.9044801712,
				"z": -2.621332361,
				"element": "C" 
			},
			{
				"x": -3.5679305923,
				"y": 0.3289953472,
				"z": -2.4170835715,
				"element": "C" 
			},
			{
				"x": -4.0828618292,
				"y": 0.3307174798,
				"z": -0.9628036894,
				"element": "C" 
			},
			{
				"x": -3.1353499176,
				"y": -0.3053252592,
				"z": 0.0703833402,
				"element": "C" 
			},
			{
				"x": -2.9417311221,
				"y": -1.8235261448,
				"z": -0.0898117668,
				"element": "C" 
			},
			{
				"x": -1.7172379198,
				"y": -2.4226895021,
				"z": 0.6286895399,
				"element": "C" 
			},
			{
				"x": -1.6381123665,
				"y": -2.2115996142,
				"z": 2.1538874646,
				"element": "C" 
			},
			{
				"x": -0.9829160358,
				"y": -0.9002357676,
				"z": 2.6244013109,
				"element": "C" 
			},
			{
				"x": 0.4300411697,
				"y": -0.7902000678,
				"z": 2.2590155432,
				"element": "N" 
			},
			{
				"x": 1.4587758595,
				"y": -1.4284910782,
				"z": 2.977444339,
				"element": "C" 
			},
			{
				"x": 1.2917441689,
				"y": -2.1569087073,
				"z": 3.9353550545,
				"element": "O" 
			},
			{
				"x": 2.7332734694,
				"y": -1.0083622333,
				"z": 2.3234829731,
				"element": "C" 
			},
			{
				"x": 4.0466072336,
				"y": -1.3416673396,
				"z": 2.6197203873,
				"element": "C" 
			},
			{
				"x": 5.0503554087,
				"y": -0.7746323924,
				"z": 1.82247676,
				"element": "C" 
			},
			{
				"x": 4.7339487884,
				"y": 0.0948858195,
				"z": 0.7708656244,
				"element": "C" 
			},
			{
				"x": 3.4032053404,
				"y": 0.425549159,
				"z": 0.4804937806,
				"element": "C" 
			},
			{
				"x": 2.4176797815,
				"y": -0.1425648999,
				"z": 1.2743761549,
				"element": "C" 
			},
			{
				"x": 0.9331455066,
				"y": 0.009103643,
				"z": 1.2243566378,
				"element": "C" 
			},
			{
				"x": 0.2656882352,
				"y": 0.6817789295,
				"z": 0.4571727784,
				"element": "O" 
			},
			{
				"x": 0.0819376592,
				"y": 2.2823117854,
				"z": -1.5845679339,
				"element": "H" 
			},
			{
				"x": -0.1414976041,
				"y": 2.7095539488,
				"z": -3.3062488221,
				"element": "H" 
			},
			{
				"x": -2.625601936,
				"y": 3.0154457491,
				"z": -2.8398696713,
				"element": "H" 
			},
			{
				"x": -2.3412689413,
				"y": 2.5234773032,
				"z": -1.1742443492,
				"element": "H" 
			},
			{
				"x": -1.4267317464,
				"y": 0.2981021435,
				"z": -2.0675709171,
				"element": "H" 
			},
			{
				"x": -1.886148103,
				"y": 0.8043146232,
				"z": -3.6816366535,
				"element": "H" 
			},
			{
				"x": -3.5770060946,
				"y": -0.695454017,
				"z": -2.8100973169,
				"element": "H" 
			},
			{
				"x": -4.279845399,
				"y": 0.8902699465,
				"z": -3.0370498735,
				"element": "H" 
			},
			{
				"x": -5.0544176099,
				"y": -0.1816685594,
				"z": -0.9381335052,
				"element": "H" 
			},
			{
				"x": -4.2857669491,
				"y": 1.3639519721,
				"z": -0.6546577783,
				"element": "H" 
			},
			{
				"x": -2.1621853833,
				"y": 0.1944059814,
				"z": 0.0222315507,
				"element": "H" 
			},
			{
				"x": -3.5327060721,
				"y": -0.0962767185,
				"z": 1.0724339326,
				"element": "H" 
			},
			{
				"x": -3.8506657878,
				"y": -2.3392780735,
				"z": 0.2515976782,
				"element": "H" 
			},
			{
				"x": -2.8440182896,
				"y": -2.0693650768,
				"z": -1.1548853464,
				"element": "H" 
			},
			{
				"x": -1.7133561328,
				"y": -3.5022787517,
				"z": 0.4339122417,
				"element": "H" 
			},
			{
				"x": -0.8021028486,
				"y": -2.0360732679,
				"z": 0.1619825798,
				"element": "H" 
			},
			{
				"x": -2.6446877845,
				"y": -2.2533847507,
				"z": 2.5911855875,
				"element": "H" 
			},
			{
				"x": -1.0758141687,
				"y": -3.033566283,
				"z": 2.6102806792,
				"element": "H" 
			},
			{
				"x": -1.0334885607,
				"y": -0.8433248303,
				"z": 3.7158821056,
				"element": "H" 
			},
			{
				"x": -1.4787925941,
				"y": -0.0228476734,
				"z": 2.2084124385,
				"element": "H" 
			},
			{
				"x": 4.2800409278,
				"y": -2.0143260601,
				"z": 3.4386663099,
				"element": "H" 
			},
			{
				"x": 6.0912224678,
				"y": -1.01066297,
				"z": 2.0225364956,
				"element": "H" 
			},
			{
				"x": 5.5343258477,
				"y": 0.5200817823,
				"z": 0.1728182667,
				"element": "H" 
			},
			{
				"x": 3.1483978791,
				"y": 1.1011526094,
				"z": -0.3295533078,
				"element": "H" 
			}
		],
		 "valence_orbital": [ 
			{
				"type": "occ",
				"energy": -0.28155,
				"method": "rhf"
			},
			{
				"type": "occ",
				"energy": -0.27265,
				"method": "rhf"
			},
			{
				"type": "occ",
				"energy": -0.26906,
				"method": "rhf"
			},
			{
				"type": "occ",
				"energy": -0.25797,
				"method": "rhf"
			},
			{
				"type": "occ",
				"energy": -0.25722,
				"method": "rhf"
			},
			{
				"type": "unocc",
				"energy": -0.08668,
				"method": "rhf"
			},
			{
				"type": "unocc",
				"energy": -0.04454,
				"method": "rhf"
			},
			{
				"type": "unocc",
				"energy": 0.0156,
				"method": "rhf"
			},
			{
				"type": "unocc",
				"energy": 0.02374,
				"method": "rhf"
			},
			{
				"type": "unocc",
				"energy": 0.06624,
				"method": "rhf"
			}
		],
		"cosmo_sigma_profile": { 
			"-0.025": 0.0,
			"-0.024": 0.0,
			"-0.023": 0.0,
			"-0.022": 0.0,
			"-0.021": 0.0,
			"-0.02": 0.0,
			"-0.019": 0.0,
			"-0.018": 0.0,
			"-0.017": 0.0,
			"-0.016": 0.0,
			"-0.015": 0.0,
			"-0.014": 0.0,
			"-0.013": 0.0,
			"-0.012": 0.0,
			"-0.011": 0.0,
			"-0.01": 0.0,
			"-0.009": 0.0,
			"-0.008": 1.25322265648,
			"-0.007": 8.07998771495,
			"-0.006": 12.3383944826,
			"-0.005": 14.732445894,
			"-0.004": 17.4111354747,
			"-0.003": 34.3578995748,
			"-0.002": 48.1223918078,
			"-0.001": 54.4380833533,
			"0.0": 54.1197326506,
			"0.001": 39.2893454004,
			"0.002": 27.7823441249,
			"0.003": 16.703922242,
			"0.004": 11.9313594729,
			"0.005": 10.5740231204,
			"0.006": 12.7281115163,
			"0.007": 11.494659969,
			"0.008": 3.00232990019,
			"0.009": 1.61557964475,
			"0.01": 2.75983556575,
			"0.011": 4.56277549583,
			"0.012": 1.92488745733,
			"0.013": 0.0,
			"0.014": 0.0,
			"0.015": 0.0,
			"0.016": 0.0,
			"0.017": 0.0,
			"0.018": 0.0,
			"0.019": 0.0,
			"0.02": 0.0,
			"0.021": 0.0,
			"0.022": 0.0,
			"0.023": 0.0,
			"0.024": 0.0,
			"0.025": 0.0
		}
	}
}
