{
	 "smiles": "CC1=CC=C(CC(O)=O)C=C1F", 
	 "Tm": 378.65, 
	 "num_atms": 21, 
	 "gaussian": { 
		 "optdone": 1, 
		 "sigma_profile": "yes", 
		 "theory": "DFT", 
		 "functional": "B3LYP", 
		 "basiset": "6-31G**", 
		 "properties": { 
			 "R2extent": 2920.7576, 
			 "electric_dipole_moment_norm": 0.336547322081, 
			 "electric_quadrupole_moment_norm": 11.4396761174, 
			 "total_energy": -598.689623374, 
			 "HOMO_LUMO_gap": 0.22164, 
			 "cosmo_polarized_energy": -9.56, 
			 "cosmo_cavitation_energy": 25.98, 
			 "cosmo_dispersion_energy": -18.49, 
			 "cosmo_repulsion_energy": 1.47, 
			 "cosmo_total_nonelectrostatic_energy": 8.96, 
			 "SMD_solvation_energy": 6.07 
		},
		"coords": [
			{
				"x": -1.4617183986,
				"y": 1.5010862112,
				"z": -1.7940299221,
				"element": "C" 
			},
			{
				"x": -0.7428758169,
				"y": 0.7500317698,
				"z": -0.7034076843,
				"element": "C" 
			},
			{
				"x": -0.4988884118,
				"y": 1.2892643001,
				"z": 0.5656131338,
				"element": "C" 
			},
			{
				"x": 0.172524322,
				"y": 0.5685592391,
				"z": 1.5532312343,
				"element": "C" 
			},
			{
				"x": 0.6263432879,
				"y": -0.731294955,
				"z": 1.2973276159,
				"element": "C" 
			},
			{
				"x": 1.3669543972,
				"y": -1.5197558159,
				"z": 2.3674834665,
				"element": "C" 
			},
			{
				"x": 0.4915962812,
				"y": -1.7398075992,
				"z": 3.588408686,
				"element": "C" 
			},
			{
				"x": -0.1220403688,
				"y": -2.9453900905,
				"z": 3.5624706756,
				"element": "O" 
			},
			{
				"x": 0.3232817915,
				"y": -0.9366337875,
				"z": 4.4797661315,
				"element": "O" 
			},
			{
				"x": 0.3890916262,
				"y": -1.2935605731,
				"z": 0.0389117729,
				"element": "C" 
			},
			{
				"x": -0.2802355051,
				"y": -0.5481996402,
				"z": -0.9223852992,
				"element": "C" 
			},
			{
				"x": -0.497235814,
				"y": -1.1079824658,
				"z": -2.1365957682,
				"element": "F" 
			},
			{
				"x": -0.8302400299,
				"y": 1.6159262358,
				"z": -2.681755523,
				"element": "H" 
			},
			{
				"x": -2.364251973,
				"y": 0.9698372398,
				"z": -2.1151553663,
				"element": "H" 
			},
			{
				"x": -1.7549829306,
				"y": 2.4968537386,
				"z": -1.4526786347,
				"element": "H" 
			},
			{
				"x": -0.8439728486,
				"y": 2.2973779418,
				"z": 0.7800903077,
				"element": "H" 
			},
			{
				"x": 0.3373436134,
				"y": 1.008315408,
				"z": 2.5319067894,
				"element": "H" 
			},
			{
				"x": 2.2462659297,
				"y": -0.9623722786,
				"z": 2.7046592276,
				"element": "H" 
			},
			{
				"x": 1.6934091394,
				"y": -2.4833641204,
				"z": 1.9710623167,
				"element": "H" 
			},
			{
				"x": -0.6852323877,
				"y": -2.9798464683,
				"z": 4.3545436621,
				"element": "H" 
			},
			{
				"x": 0.7165640963,
				"y": -2.2986442896,
				"z": -0.2066668221,
				"element": "H" 
			}
		],
		 "valence_orbital": [ 
			{
				"type": "occ",
				"energy": -0.3419,
				"method": "rhf"
			},
			{
				"type": "occ",
				"energy": -0.32137,
				"method": "rhf"
			},
			{
				"type": "occ",
				"energy": -0.28,
				"method": "rhf"
			},
			{
				"type": "occ",
				"energy": -0.25186,
				"method": "rhf"
			},
			{
				"type": "occ",
				"energy": -0.23694,
				"method": "rhf"
			},
			{
				"type": "unocc",
				"energy": -0.0153,
				"method": "rhf"
			},
			{
				"type": "unocc",
				"energy": -0.00177,
				"method": "rhf"
			},
			{
				"type": "unocc",
				"energy": 0.01446,
				"method": "rhf"
			},
			{
				"type": "unocc",
				"energy": 0.07609,
				"method": "rhf"
			},
			{
				"type": "unocc",
				"energy": 0.09681,
				"method": "rhf"
			}
		],
		"cosmo_sigma_profile": { 
			"-0.025": 0.0,
			"-0.024": 0.0,
			"-0.023": 0.0,
			"-0.022": 0.0,
			"-0.021": 0.0,
			"-0.02": 0.0,
			"-0.019": 0.0447600676033,
			"-0.018": 0.660848174622,
			"-0.017": 1.04908837902,
			"-0.016": 1.07298288555,
			"-0.015": 0.555495164864,
			"-0.014": 0.228502469658,
			"-0.013": 0.685685600482,
			"-0.012": 0.903310790802,
			"-0.011": 1.08394418106,
			"-0.01": 1.04205911524,
			"-0.009": 0.274500008912,
			"-0.008": 0.809457385469,
			"-0.007": 5.10146188742,
			"-0.006": 8.26321568967,
			"-0.005": 12.394832586,
			"-0.004": 16.4758951421,
			"-0.003": 15.6589869999,
			"-0.002": 13.4606055743,
			"-0.001": 14.5486577675,
			"0.0": 17.6348392329,
			"0.001": 15.1419091509,
			"0.002": 14.0852350855,
			"0.003": 14.5796806894,
			"0.004": 18.7716832805,
			"0.005": 10.799500786,
			"0.006": 2.39575875471,
			"0.007": 2.85368340884,
			"0.008": 2.54093090769,
			"0.009": 3.0502180179,
			"0.01": 2.04798879164,
			"0.011": 3.82255880534,
			"0.012": 3.77615673449,
			"0.013": 0.240729935097,
			"0.014": 0.0,
			"0.015": 0.0,
			"0.016": 0.0,
			"0.017": 0.0,
			"0.018": 0.0,
			"0.019": 0.0,
			"0.02": 0.0,
			"0.021": 0.0,
			"0.022": 0.0,
			"0.023": 0.0,
			"0.024": 0.0,
			"0.025": 0.0
		}
	}
}
