{
	 "smiles": "CCN(CC)S(=O)(=O)C1=CC(N)=C(C=C1)N1CCCCC1", 
	 "Tm": 349.15, 
	 "num_atms": 46, 
	 "gaussian": { 
		 "optdone": 1, 
		 "sigma_profile": "yes", 
		 "theory": "DFT", 
		 "functional": "B3LYP", 
		 "basiset": "6-31G**", 
		 "properties": { 
			 "R2extent": 9416.7953, 
			 "electric_dipole_moment_norm": 5.77945718385, 
			 "electric_quadrupole_moment_norm": 23.2163125072, 
			 "total_energy": -1299.49989247, 
			 "HOMO_LUMO_gap": 0.18222, 
			 "cosmo_polarized_energy": -16.69, 
			 "cosmo_cavitation_energy": 46.53, 
			 "cosmo_dispersion_energy": -32.19, 
			 "cosmo_repulsion_energy": 2.46, 
			 "cosmo_total_nonelectrostatic_energy": 16.8, 
			 "SMD_solvation_energy": 5.67 
		},
		"coords": [
			{
				"x": 1.8672353604,
				"y": 0.5261627558,
				"z": 4.1620517494,
				"element": "C" 
			},
			{
				"x": 2.574494714,
				"y": 1.1684237143,
				"z": 2.9693628283,
				"element": "C" 
			},
			{
				"x": 1.8642723348,
				"y": 2.3765357772,
				"z": 2.5052553144,
				"element": "N" 
			},
			{
				"x": 1.9682722548,
				"y": 3.5739833293,
				"z": 3.3801247459,
				"element": "C" 
			},
			{
				"x": 0.6001126574,
				"y": 4.0992514976,
				"z": 3.8077764155,
				"element": "C" 
			},
			{
				"x": 2.0510379479,
				"y": 2.7048951909,
				"z": 0.847862729,
				"element": "S" 
			},
			{
				"x": 3.4386155421,
				"y": 2.4871238354,
				"z": 0.4084944801,
				"element": "O" 
			},
			{
				"x": 1.4169261748,
				"y": 4.0122101487,
				"z": 0.6327648028,
				"element": "O" 
			},
			{
				"x": 1.0443391554,
				"y": 1.4229713615,
				"z": 0.1038171048,
				"element": "C" 
			},
			{
				"x": -0.3338365764,
				"y": 1.4260517732,
				"z": 0.3306779362,
				"element": "C" 
			},
			{
				"x": -1.144487542,
				"y": 0.4725052711,
				"z": -0.2882416337,
				"element": "C" 
			},
			{
				"x": -2.5241006987,
				"y": 0.4424648297,
				"z": -0.0863425023,
				"element": "N" 
			},
			{
				"x": -0.5480451213,
				"y": -0.5078522785,
				"z": -1.1327880762,
				"element": "C" 
			},
			{
				"x": 0.8317264602,
				"y": -0.4678462399,
				"z": -1.3525185702,
				"element": "C" 
			},
			{
				"x": 1.6409939049,
				"y": 0.4966225954,
				"z": -0.7459918527,
				"element": "C" 
			},
			{
				"x": -1.4152804256,
				"y": -1.453532099,
				"z": -1.7481102731,
				"element": "N" 
			},
			{
				"x": -0.970757306,
				"y": -2.0152060106,
				"z": -3.0278949977,
				"element": "C" 
			},
			{
				"x": -2.1323153562,
				"y": -2.7312472846,
				"z": -3.7255858056,
				"element": "C" 
			},
			{
				"x": -2.7200849526,
				"y": -3.8285840142,
				"z": -2.8281218597,
				"element": "C" 
			},
			{
				"x": -3.09342115,
				"y": -3.2539527329,
				"z": -1.4551424544,
				"element": "C" 
			},
			{
				"x": -1.9143196924,
				"y": -2.5021553129,
				"z": -0.8310780742,
				"element": "C" 
			},
			{
				"x": 0.8433331357,
				"y": 0.2479574931,
				"z": 3.8966524061,
				"element": "H" 
			},
			{
				"x": 2.4048269829,
				"y": -0.3754965907,
				"z": 4.4736057896,
				"element": "H" 
			},
			{
				"x": 1.8249100748,
				"y": 1.1996159983,
				"z": 5.0238925415,
				"element": "H" 
			},
			{
				"x": 3.6208733742,
				"y": 1.4025410883,
				"z": 3.2130633611,
				"element": "H" 
			},
			{
				"x": 2.5973208144,
				"y": 0.4543224114,
				"z": 2.1417116369,
				"element": "H" 
			},
			{
				"x": 2.555151089,
				"y": 3.2774307296,
				"z": 4.2555505287,
				"element": "H" 
			},
			{
				"x": 2.531693518,
				"y": 4.3679311803,
				"z": 2.880070092,
				"element": "H" 
			},
			{
				"x": 0.0349747907,
				"y": 4.4297242925,
				"z": 2.9331441308,
				"element": "H" 
			},
			{
				"x": 0.0258413736,
				"y": 3.3237557316,
				"z": 4.3242361229,
				"element": "H" 
			},
			{
				"x": 0.7150413459,
				"y": 4.9532171384,
				"z": 4.4848775241,
				"element": "H" 
			},
			{
				"x": -0.7769427217,
				"y": 2.1846533317,
				"z": 0.9681755785,
				"element": "H" 
			},
			{
				"x": -3.0135789077,
				"y": 0.043427038,
				"z": -0.8808620197,
				"element": "H" 
			},
			{
				"x": -2.9220782106,
				"y": 1.3229839451,
				"z": 0.2128121623,
				"element": "H" 
			},
			{
				"x": 1.2891060034,
				"y": -1.20277064,
				"z": -2.0058716782,
				"element": "H" 
			},
			{
				"x": 2.7096461218,
				"y": 0.5318136396,
				"z": -0.9211698022,
				"element": "H" 
			},
			{
				"x": -0.5942169017,
				"y": -1.1974386357,
				"z": -3.6498108009,
				"element": "H" 
			},
			{
				"x": -0.140374963,
				"y": -2.7334606907,
				"z": -2.8900319717,
				"element": "H" 
			},
			{
				"x": -2.9075854922,
				"y": -1.9930177391,
				"z": -3.9660969614,
				"element": "H" 
			},
			{
				"x": -1.7789565577,
				"y": -3.1529855831,
				"z": -4.6737266763,
				"element": "H" 
			},
			{
				"x": -1.9741806185,
				"y": -4.625077321,
				"z": -2.6960130607,
				"element": "H" 
			},
			{
				"x": -3.59217265,
				"y": -4.2909724429,
				"z": -3.3041971232,
				"element": "H" 
			},
			{
				"x": -3.9397119249,
				"y": -2.5627113858,
				"z": -1.5623400269,
				"element": "H" 
			},
			{
				"x": -3.413878408,
				"y": -4.0507362007,
				"z": -0.7737640582,
				"element": "H" 
			},
			{
				"x": -1.1016298288,
				"y": -3.2135046495,
				"z": -0.5954607353,
				"element": "H" 
			},
			{
				"x": -2.2160891251,
				"y": -2.0273282465,
				"z": 0.1052810335,
				"element": "H" 
			}
		],
		 "valence_orbital": [ 
			{
				"type": "occ",
				"energy": -0.28299,
				"method": "rhf"
			},
			{
				"type": "occ",
				"energy": -0.27153,
				"method": "rhf"
			},
			{
				"type": "occ",
				"energy": -0.24022,
				"method": "rhf"
			},
			{
				"type": "occ",
				"energy": -0.22862,
				"method": "rhf"
			},
			{
				"type": "occ",
				"energy": -0.20488,
				"method": "rhf"
			},
			{
				"type": "unocc",
				"energy": -0.02266,
				"method": "rhf"
			},
			{
				"type": "unocc",
				"energy": 0.00353,
				"method": "rhf"
			},
			{
				"type": "unocc",
				"energy": 0.07013,
				"method": "rhf"
			},
			{
				"type": "unocc",
				"energy": 0.07352,
				"method": "rhf"
			},
			{
				"type": "unocc",
				"energy": 0.08513,
				"method": "rhf"
			}
		],
		"cosmo_sigma_profile": { 
			"-0.025": 0.0,
			"-0.024": 0.0,
			"-0.023": 0.0,
			"-0.022": 0.0,
			"-0.021": 0.0,
			"-0.02": 0.0,
			"-0.019": 0.0,
			"-0.018": 0.0,
			"-0.017": 0.0,
			"-0.016": 0.0,
			"-0.015": 0.0,
			"-0.014": 0.0,
			"-0.013": 0.503446476817,
			"-0.012": 1.7640851446,
			"-0.011": 1.17974893228,
			"-0.01": 2.14878968094,
			"-0.009": 2.97418483233,
			"-0.008": 2.34857761946,
			"-0.007": 2.59638705022,
			"-0.006": 5.34886158235,
			"-0.005": 11.7320645726,
			"-0.004": 22.9766785276,
			"-0.003": 38.401431044,
			"-0.002": 57.8940849039,
			"-0.001": 48.9245215827,
			"0.0": 41.7972833074,
			"0.001": 29.5563168696,
			"0.002": 14.784817421,
			"0.003": 15.3102804109,
			"0.004": 13.8210911635,
			"0.005": 8.22610474694,
			"0.006": 5.0807172194,
			"0.007": 4.18415451657,
			"0.008": 4.13998735649,
			"0.009": 3.61858451147,
			"0.01": 6.22001956594,
			"0.011": 7.7312511802,
			"0.012": 7.8999760859,
			"0.013": 1.40910586078,
			"0.014": 0.0,
			"0.015": 0.0,
			"0.016": 0.0,
			"0.017": 0.0,
			"0.018": 0.0,
			"0.019": 0.0,
			"0.02": 0.0,
			"0.021": 0.0,
			"0.022": 0.0,
			"0.023": 0.0,
			"0.024": 0.0,
			"0.025": 0.0
		}
	}
}
