{
	 "smiles": "NC1=C(C(=O)C2=CC(F)=CC=C2)C2=C(CCCC2)S1", 
	 "Tm": 385.15, 
	 "num_atms": 33, 
	 "gaussian": { 
		 "optdone": 1, 
		 "sigma_profile": "yes", 
		 "theory": "DFT", 
		 "functional": "B3LYP", 
		 "basiset": "6-31G**", 
		 "properties": { 
			 "R2extent": 6850.5131, 
			 "electric_dipole_moment_norm": 2.92555999938, 
			 "electric_quadrupole_moment_norm": 13.8419761747, 
			 "total_energy": -1208.04039834, 
			 "HOMO_LUMO_gap": 0.14315, 
			 "cosmo_polarized_energy": -10.4, 
			 "cosmo_cavitation_energy": 36.88, 
			 "cosmo_dispersion_energy": -26.93, 
			 "cosmo_repulsion_energy": 2.02, 
			 "cosmo_total_nonelectrostatic_energy": 11.96, 
			 "SMD_solvation_energy": 5.73 
		},
		"coords": [
			{
				"x": -2.9887770701,
				"y": -1.1689256779,
				"z": -3.5424135071,
				"element": "N" 
			},
			{
				"x": -2.565164544,
				"y": -0.2509174889,
				"z": -2.6465103404,
				"element": "C" 
			},
			{
				"x": -1.5998644163,
				"y": -0.4408279772,
				"z": -1.6418145685,
				"element": "C" 
			},
			{
				"x": -0.9824749962,
				"y": -1.7580039429,
				"z": -1.5236137227,
				"element": "C" 
			},
			{
				"x": -1.0192083573,
				"y": -2.5820333598,
				"z": -2.4571801785,
				"element": "O" 
			},
			{
				"x": -0.3444080672,
				"y": -2.228553692,
				"z": -0.2439625533,
				"element": "C" 
			},
			{
				"x": 0.833476532,
				"y": -2.9819831654,
				"z": -0.3249811476,
				"element": "C" 
			},
			{
				"x": 1.3732418515,
				"y": -3.5110116299,
				"z": 0.8382356195,
				"element": "C" 
			},
			{
				"x": 2.5230248382,
				"y": -4.2144074513,
				"z": 0.7640313828,
				"element": "F" 
			},
			{
				"x": 0.7648476963,
				"y": -3.3514420649,
				"z": 2.0799576819,
				"element": "C" 
			},
			{
				"x": -0.4267268262,
				"y": -2.6285197983,
				"z": 2.1475268882,
				"element": "C" 
			},
			{
				"x": -0.9774657819,
				"y": -2.0621644786,
				"z": 0.996263102,
				"element": "C" 
			},
			{
				"x": -1.3721604503,
				"y": 0.7903162618,
				"z": -0.8842351648,
				"element": "C" 
			},
			{
				"x": -2.1740456928,
				"y": 1.8193326168,
				"z": -1.2754941828,
				"element": "C" 
			},
			{
				"x": -2.1585174141,
				"y": 3.2335417671,
				"z": -0.7636193517,
				"element": "C" 
			},
			{
				"x": -0.8208407311,
				"y": 3.5207144572,
				"z": -0.061266066,
				"element": "C" 
			},
			{
				"x": -0.4453308024,
				"y": 2.3684046493,
				"z": 0.8767484598,
				"element": "C" 
			},
			{
				"x": -0.2639030522,
				"y": 1.0413144481,
				"z": 0.1200412097,
				"element": "C" 
			},
			{
				"x": -3.2558571739,
				"y": 1.3520259914,
				"z": -2.5939370723,
				"element": "S" 
			},
			{
				"x": -3.6131164802,
				"y": -0.9127740721,
				"z": -4.2889508059,
				"element": "H" 
			},
			{
				"x": -2.3943399842,
				"y": -1.9916982164,
				"z": -3.6115449759,
				"element": "H" 
			},
			{
				"x": 1.3116362084,
				"y": -3.1584112478,
				"z": -1.2815744394,
				"element": "H" 
			},
			{
				"x": 1.2190478275,
				"y": -3.7938663851,
				"z": 2.9599405898,
				"element": "H" 
			},
			{
				"x": -0.9279263423,
				"y": -2.5094387102,
				"z": 3.1034760749,
				"element": "H" 
			},
			{
				"x": -1.9089718521,
				"y": -1.5078329941,
				"z": 1.0517020066,
				"element": "H" 
			},
			{
				"x": -2.9890937566,
				"y": 3.3940765318,
				"z": -0.0598488468,
				"element": "H" 
			},
			{
				"x": -2.314514325,
				"y": 3.9442590356,
				"z": -1.5846410226,
				"element": "H" 
			},
			{
				"x": -0.035064388,
				"y": 3.6458661457,
				"z": -0.8173885167,
				"element": "H" 
			},
			{
				"x": -0.8867999795,
				"y": 4.464742857,
				"z": 0.4912610087,
				"element": "H" 
			},
			{
				"x": 0.4759890241,
				"y": 2.6025826342,
				"z": 1.4217880071,
				"element": "H" 
			},
			{
				"x": -1.2346850373,
				"y": 2.2497755666,
				"z": 1.6314469499,
				"element": "H" 
			},
			{
				"x": -0.187224469,
				"y": 0.2254482925,
				"z": 0.8402180156,
				"element": "H" 
			},
			{
				"x": 0.6951180121,
				"y": 1.049411098,
				"z": -0.4192605337,
				"element": "H" 
			}
		],
		 "valence_orbital": [ 
			{
				"type": "occ",
				"energy": -0.26437,
				"method": "rhf"
			},
			{
				"type": "occ",
				"energy": -0.2479,
				"method": "rhf"
			},
			{
				"type": "occ",
				"energy": -0.24464,
				"method": "rhf"
			},
			{
				"type": "occ",
				"energy": -0.24077,
				"method": "rhf"
			},
			{
				"type": "occ",
				"energy": -0.19182,
				"method": "rhf"
			},
			{
				"type": "unocc",
				"energy": -0.04867,
				"method": "rhf"
			},
			{
				"type": "unocc",
				"energy": -0.00692,
				"method": "rhf"
			},
			{
				"type": "unocc",
				"energy": 0.00109,
				"method": "rhf"
			},
			{
				"type": "unocc",
				"energy": 0.00976,
				"method": "rhf"
			},
			{
				"type": "unocc",
				"energy": 0.01935,
				"method": "rhf"
			}
		],
		"cosmo_sigma_profile": { 
			"-0.025": 0.0,
			"-0.024": 0.0,
			"-0.023": 0.0,
			"-0.022": 0.0,
			"-0.021": 0.0,
			"-0.02": 0.0,
			"-0.019": 0.0,
			"-0.018": 0.0,
			"-0.017": 0.0,
			"-0.016": 0.0107192037555,
			"-0.015": 0.798174979011,
			"-0.014": 1.5549757235,
			"-0.013": 1.11961700989,
			"-0.012": 1.26170988571,
			"-0.011": 1.11580878931,
			"-0.01": 1.93430307354,
			"-0.009": 1.6084250589,
			"-0.008": 2.39118013787,
			"-0.007": 4.5636170116,
			"-0.006": 9.17237602789,
			"-0.005": 7.9924232159,
			"-0.004": 13.2507143656,
			"-0.003": 20.220795339,
			"-0.002": 32.5440670055,
			"-0.001": 35.0943818137,
			"0.0": 30.3306743673,
			"0.001": 27.6160427785,
			"0.002": 23.3444615827,
			"0.003": 24.4885385033,
			"0.004": 25.5254618857,
			"0.005": 11.9129709785,
			"0.006": 3.39316339979,
			"0.007": 2.55065307139,
			"0.008": 2.16483829571,
			"0.009": 1.45145431106,
			"0.01": 1.55763036647,
			"0.011": 2.11481267924,
			"0.012": 1.74017080213,
			"0.013": 1.42444111349,
			"0.014": 0.683750376209,
			"0.015": 0.0,
			"0.016": 0.0,
			"0.017": 0.0,
			"0.018": 0.0,
			"0.019": 0.0,
			"0.02": 0.0,
			"0.021": 0.0,
			"0.022": 0.0,
			"0.023": 0.0,
			"0.024": 0.0,
			"0.025": 0.0
		}
	}
}
