{
	 "smiles": "CC1(C)C(=O)NC2=C1C=C(C=C2)C(=O)CCl", 
	 "Tm": 507.15, 
	 "num_atms": 28, 
	 "gaussian": { 
		 "optdone": 1, 
		 "sigma_profile": "yes", 
		 "theory": "DFT", 
		 "functional": "B3LYP", 
		 "basiset": "6-31G**", 
		 "properties": { 
			 "R2extent": 5256.7163, 
			 "electric_dipole_moment_norm": 2.82306122498, 
			 "electric_quadrupole_moment_norm": 14.9753414262, 
			 "total_energy": -1129.93337728, 
			 "HOMO_LUMO_gap": 0.1643, 
			 "cosmo_polarized_energy": -16.32, 
			 "cosmo_cavitation_energy": 33.51, 
			 "cosmo_dispersion_energy": -23.56, 
			 "cosmo_repulsion_energy": 1.85, 
			 "cosmo_total_nonelectrostatic_energy": 11.8, 
			 "SMD_solvation_energy": 6.46 
		},
		"coords": [
			{
				"x": 1.9194921922,
				"y": 1.8772865806,
				"z": 2.144476635,
				"element": "C" 
			},
			{
				"x": 1.0651079998,
				"y": 0.5944609735,
				"z": 2.2050965044,
				"element": "C" 
			},
			{
				"x": 0.352206409,
				"y": 0.483391186,
				"z": 3.5682776594,
				"element": "C" 
			},
			{
				"x": 1.9911554993,
				"y": -0.6330118089,
				"z": 2.0219902301,
				"element": "C" 
			},
			{
				"x": 2.9235061145,
				"y": -0.9650008724,
				"z": 2.7249366851,
				"element": "O" 
			},
			{
				"x": 1.5613196983,
				"y": -1.3089152953,
				"z": 0.8840300826,
				"element": "N" 
			},
			{
				"x": 0.4682902861,
				"y": -0.6923014904,
				"z": 0.2837181327,
				"element": "C" 
			},
			{
				"x": 0.1186787077,
				"y": 0.4555112429,
				"z": 1.0259253366,
				"element": "C" 
			},
			{
				"x": -0.9452757507,
				"y": 1.2306582542,
				"z": 0.6158132047,
				"element": "C" 
			},
			{
				"x": -1.6731822834,
				"y": 0.8711391457,
				"z": -0.5419216229,
				"element": "C" 
			},
			{
				"x": -1.3018068033,
				"y": -0.2758380359,
				"z": -1.262917787,
				"element": "C" 
			},
			{
				"x": -0.2287042757,
				"y": -1.0726502883,
				"z": -0.8600209986,
				"element": "C" 
			},
			{
				"x": -2.8235726991,
				"y": 1.7292042858,
				"z": -0.9194448972,
				"element": "C" 
			},
			{
				"x": -3.1628803135,
				"y": 2.6911048859,
				"z": -0.2451094129,
				"element": "O" 
			},
			{
				"x": -3.6558164662,
				"y": 1.3969841561,
				"z": -2.1636403552,
				"element": "C" 
			},
			{
				"x": -2.7399946398,
				"y": 1.7048331947,
				"z": -3.7027747393,
				"element": "Cl" 
			},
			{
				"x": 2.4199889565,
				"y": 1.9791876692,
				"z": 1.1770403455,
				"element": "H" 
			},
			{
				"x": 2.6828148999,
				"y": 1.8491622667,
				"z": 2.9272253537,
				"element": "H" 
			},
			{
				"x": 1.2903220497,
				"y": 2.7594982783,
				"z": 2.2969119591,
				"element": "H" 
			},
			{
				"x": 1.0947077852,
				"y": 0.4366378171,
				"z": 4.3699227836,
				"element": "H" 
			},
			{
				"x": -0.2897680051,
				"y": 1.3541721889,
				"z": 3.7327252251,
				"element": "H" 
			},
			{
				"x": -0.2709703292,
				"y": -0.4142403212,
				"z": 3.6219691693,
				"element": "H" 
			},
			{
				"x": 2.0172783789,
				"y": -2.1486161638,
				"z": 0.5565283917,
				"element": "H" 
			},
			{
				"x": -1.2525802348,
				"y": 2.1197595141,
				"z": 1.1572125344,
				"element": "H" 
			},
			{
				"x": -1.8407344442,
				"y": -0.5526037973,
				"z": -2.1621217857,
				"element": "H" 
			},
			{
				"x": 0.0507676366,
				"y": -1.9556453302,
				"z": -1.4259526622,
				"element": "H" 
			},
			{
				"x": -3.9723276121,
				"y": 0.3524739004,
				"z": -2.1857421469,
				"element": "H" 
			},
			{
				"x": -4.5220227567,
				"y": 2.0555578637,
				"z": -2.170153825,
				"element": "H" 
			}
		],
		 "valence_orbital": [ 
			{
				"type": "occ",
				"energy": -0.30579,
				"method": "rhf"
			},
			{
				"type": "occ",
				"energy": -0.26934,
				"method": "rhf"
			},
			{
				"type": "occ",
				"energy": -0.26714,
				"method": "rhf"
			},
			{
				"type": "occ",
				"energy": -0.25894,
				"method": "rhf"
			},
			{
				"type": "occ",
				"energy": -0.23463,
				"method": "rhf"
			},
			{
				"type": "unocc",
				"energy": -0.07033,
				"method": "rhf"
			},
			{
				"type": "unocc",
				"energy": -0.02424,
				"method": "rhf"
			},
			{
				"type": "unocc",
				"energy": -0.00587,
				"method": "rhf"
			},
			{
				"type": "unocc",
				"energy": 0.0182,
				"method": "rhf"
			},
			{
				"type": "unocc",
				"energy": 0.05713,
				"method": "rhf"
			}
		],
		"cosmo_sigma_profile": { 
			"-0.025": 0.0,
			"-0.024": 0.0,
			"-0.023": 0.0,
			"-0.022": 0.0,
			"-0.021": 0.0,
			"-0.02": 0.0,
			"-0.019": 0.0,
			"-0.018": 0.0,
			"-0.017": 0.0,
			"-0.016": 1.29472782556,
			"-0.015": 1.10412308092,
			"-0.014": 1.35427422701,
			"-0.013": 1.67283132631,
			"-0.012": 1.06681331662,
			"-0.011": 0.662127346906,
			"-0.01": 1.35134186341,
			"-0.009": 3.79603464215,
			"-0.008": 6.20406663567,
			"-0.007": 8.24941400327,
			"-0.006": 9.02912767081,
			"-0.005": 16.0788869749,
			"-0.004": 18.2162544748,
			"-0.003": 16.8759151123,
			"-0.002": 18.7192398945,
			"-0.001": 22.1548685499,
			"0.0": 26.6707747537,
			"0.001": 17.6994390511,
			"0.002": 17.2310665872,
			"0.003": 17.9532987054,
			"0.004": 11.9913694471,
			"0.005": 11.534460269,
			"0.006": 6.91832806695,
			"0.007": 2.43344552715,
			"0.008": 3.17789142184,
			"0.009": 2.48155432934,
			"0.01": 4.73075137594,
			"0.011": 5.83308446254,
			"0.012": 7.11378188486,
			"0.013": 3.89146499301,
			"0.014": 0.24907806595,
			"0.015": 0.0,
			"0.016": 0.0,
			"0.017": 0.0,
			"0.018": 0.0,
			"0.019": 0.0,
			"0.02": 0.0,
			"0.021": 0.0,
			"0.022": 0.0,
			"0.023": 0.0,
			"0.024": 0.0,
			"0.025": 0.0
		}
	}
}
