{
	 "smiles": "CCC1=CC=C(C=C1)C1=NN(C=C1C(O)=O)C1=C(C)C=CC=C1", 
	 "Tm": 451.15, 
	 "num_atms": 41, 
	 "gaussian": { 
		 "optdone": 1, 
		 "sigma_profile": "yes", 
		 "theory": "DFT", 
		 "functional": "B3LYP", 
		 "basiset": "6-31G**", 
		 "properties": { 
			 "R2extent": 10075.3624, 
			 "electric_dipole_moment_norm": 5.36192089927, 
			 "electric_quadrupole_moment_norm": 29.5187346292, 
			 "total_energy": -994.830903143, 
			 "HOMO_LUMO_gap": 0.17806, 
			 "cosmo_polarized_energy": -18.95, 
			 "cosmo_cavitation_energy": 44.94, 
			 "cosmo_dispersion_energy": -31.57, 
			 "cosmo_repulsion_energy": 2.4, 
			 "cosmo_total_nonelectrostatic_energy": 15.77, 
			 "SMD_solvation_energy": 7.92 
		},
		"coords": [
			{
				"x": 6.2089679873,
				"y": -0.7999171519,
				"z": -0.412318243,
				"element": "C" 
			},
			{
				"x": 5.6658741948,
				"y": 0.2523470518,
				"z": 0.5719566444,
				"element": "C" 
			},
			{
				"x": 4.1607918116,
				"y": 0.3960840737,
				"z": 0.5055104366,
				"element": "C" 
			},
			{
				"x": 3.3220981093,
				"y": -0.4128344688,
				"z": 1.2866273091,
				"element": "C" 
			},
			{
				"x": 1.9384862042,
				"y": -0.3073772835,
				"z": 1.2028065484,
				"element": "C" 
			},
			{
				"x": 1.3387432447,
				"y": 0.617967853,
				"z": 0.328550377,
				"element": "C" 
			},
			{
				"x": 2.1716336904,
				"y": 1.4276777402,
				"z": -0.4592447625,
				"element": "C" 
			},
			{
				"x": 3.5579786353,
				"y": 1.313266597,
				"z": -0.3632697487,
				"element": "C" 
			},
			{
				"x": -0.1356939285,
				"y": 0.6782997657,
				"z": 0.2585410271,
				"element": "C" 
			},
			{
				"x": -0.8315929642,
				"y": -0.4021560913,
				"z": 0.6246922689,
				"element": "N" 
			},
			{
				"x": -2.1436685391,
				"y": -0.0771015849,
				"z": 0.5004529,
				"element": "N" 
			},
			{
				"x": -2.303593627,
				"y": 1.2035688124,
				"z": 0.0925998235,
				"element": "C" 
			},
			{
				"x": -1.0378572234,
				"y": 1.7452614188,
				"z": -0.0883732996,
				"element": "C" 
			},
			{
				"x": -0.8100713913,
				"y": 3.133335888,
				"z": -0.5533463273,
				"element": "C" 
			},
			{
				"x": -1.7614150306,
				"y": 4.0290904894,
				"z": -0.1508208105,
				"element": "O" 
			},
			{
				"x": 0.0903463221,
				"y": 3.5140362839,
				"z": -1.2653275746,
				"element": "O" 
			},
			{
				"x": -3.1485993565,
				"y": -1.0281352074,
				"z": 0.8607954986,
				"element": "C" 
			},
			{
				"x": -4.2645653241,
				"y": -1.2625996739,
				"z": 0.0361182275,
				"element": "C" 
			},
			{
				"x": -4.4711752986,
				"y": -0.5829046525,
				"z": -1.298178596,
				"element": "C" 
			},
			{
				"x": -5.2018332482,
				"y": -2.2044850719,
				"z": 0.4856046429,
				"element": "C" 
			},
			{
				"x": -5.0370339142,
				"y": -2.8980946869,
				"z": 1.6823350906,
				"element": "C" 
			},
			{
				"x": -3.906553787,
				"y": -2.6669725411,
				"z": 2.4679122371,
				"element": "C" 
			},
			{
				"x": -2.9642238089,
				"y": -1.7303236743,
				"z": 2.0567558519,
				"element": "C" 
			},
			{
				"x": 7.2987444521,
				"y": -0.8804764501,
				"z": -0.3386942267,
				"element": "H" 
			},
			{
				"x": 5.7803772532,
				"y": -1.7863779272,
				"z": -0.2075054202,
				"element": "H" 
			},
			{
				"x": 5.9560542704,
				"y": -0.537355469,
				"z": -1.4445976221,
				"element": "H" 
			},
			{
				"x": 6.1353772706,
				"y": 1.2202667362,
				"z": 0.3597158515,
				"element": "H" 
			},
			{
				"x": 5.9627817728,
				"y": -0.0217575693,
				"z": 1.5916241732,
				"element": "H" 
			},
			{
				"x": 3.7616765493,
				"y": -1.1294435786,
				"z": 1.9769084898,
				"element": "H" 
			},
			{
				"x": 1.3052691289,
				"y": -0.9379816503,
				"z": 1.8172635424,
				"element": "H" 
			},
			{
				"x": 1.7326388391,
				"y": 2.1449494223,
				"z": -1.1412329646,
				"element": "H" 
			},
			{
				"x": 4.1836069483,
				"y": 1.9537667915,
				"z": -0.9807652459,
				"element": "H" 
			},
			{
				"x": -3.2820410563,
				"y": 1.6323093812,
				"z": -0.0628881092,
				"element": "H" 
			},
			{
				"x": -2.2830762312,
				"y": 3.644139209,
				"z": 0.5669671449,
				"element": "H" 
			},
			{
				"x": -5.1158986673,
				"y": -1.1948299212,
				"z": -1.9341902568,
				"element": "H" 
			},
			{
				"x": -3.5274681699,
				"y": -0.4228838394,
				"z": -1.8265573741,
				"element": "H" 
			},
			{
				"x": -4.9595443885,
				"y": 0.3942170803,
				"z": -1.1963862685,
				"element": "H" 
			},
			{
				"x": -6.0702233439,
				"y": -2.4064899035,
				"z": -0.135804565,
				"element": "H" 
			},
			{
				"x": -5.7816461466,
				"y": -3.624759172,
				"z": 1.9931129171,
				"element": "H" 
			},
			{
				"x": -3.7596776166,
				"y": -3.2087785897,
				"z": 3.3970503683,
				"element": "H" 
			},
			{
				"x": -2.0749936228,
				"y": -1.5311484358,
				"z": 2.6435000444,
				"element": "H" 
			}
		],
		 "valence_orbital": [ 
			{
				"type": "occ",
				"energy": -0.27117,
				"method": "rhf"
			},
			{
				"type": "occ",
				"energy": -0.26156,
				"method": "rhf"
			},
			{
				"type": "occ",
				"energy": -0.25282,
				"method": "rhf"
			},
			{
				"type": "occ",
				"energy": -0.23972,
				"method": "rhf"
			},
			{
				"type": "occ",
				"energy": -0.21704,
				"method": "rhf"
			},
			{
				"type": "unocc",
				"energy": -0.03898,
				"method": "rhf"
			},
			{
				"type": "unocc",
				"energy": -0.02866,
				"method": "rhf"
			},
			{
				"type": "unocc",
				"energy": -0.01787,
				"method": "rhf"
			},
			{
				"type": "unocc",
				"energy": -0.00224,
				"method": "rhf"
			},
			{
				"type": "unocc",
				"energy": 0.00955,
				"method": "rhf"
			}
		],
		"cosmo_sigma_profile": { 
			"-0.025": 0.0,
			"-0.024": 0.0,
			"-0.023": 0.0,
			"-0.022": 0.0,
			"-0.021": 0.0,
			"-0.02": 0.0,
			"-0.019": 0.108488894024,
			"-0.018": 1.01175102544,
			"-0.017": 0.81193899536,
			"-0.016": 1.17346069133,
			"-0.015": 0.666867491848,
			"-0.014": 1.21817649933,
			"-0.013": 1.33915868079,
			"-0.012": 1.73382664418,
			"-0.011": 1.74608340794,
			"-0.01": 2.45447017702,
			"-0.009": 2.2606939833,
			"-0.008": 2.40974701104,
			"-0.007": 2.95507513052,
			"-0.006": 9.74753060342,
			"-0.005": 18.9618034666,
			"-0.004": 25.7749095694,
			"-0.003": 32.2423240193,
			"-0.002": 31.297598705,
			"-0.001": 34.5810899915,
			"0.0": 31.3820848945,
			"0.001": 28.5224207386,
			"0.002": 23.3219554802,
			"0.003": 20.5204297077,
			"0.004": 22.8563085055,
			"0.005": 19.9275260591,
			"0.006": 10.5263325058,
			"0.007": 3.92635350887,
			"0.008": 4.11380903573,
			"0.009": 4.70430376651,
			"0.01": 4.82777916336,
			"0.011": 6.00946716812,
			"0.012": 3.31148750703,
			"0.013": 1.75445024275,
			"0.014": 0.0,
			"0.015": 0.0,
			"0.016": 0.0,
			"0.017": 0.0,
			"0.018": 0.0,
			"0.019": 0.0,
			"0.02": 0.0,
			"0.021": 0.0,
			"0.022": 0.0,
			"0.023": 0.0,
			"0.024": 0.0,
			"0.025": 0.0
		}
	}
}
