{
	 "smiles": "OC(=O)CCC1=COC=C1", 
	 "Tm": 337.15, 
	 "num_atms": 18, 
	 "gaussian": { 
		 "optdone": 1, 
		 "sigma_profile": "yes", 
		 "theory": "DFT", 
		 "functional": "B3LYP", 
		 "basiset": "6-31G**", 
		 "properties": { 
			 "R2extent": 2299.9632, 
			 "electric_dipole_moment_norm": 1.7480858932, 
			 "electric_quadrupole_moment_norm": 10.6904984444, 
			 "total_energy": -497.224400614, 
			 "HOMO_LUMO_gap": 0.23349, 
			 "cosmo_polarized_energy": -10.82, 
			 "cosmo_cavitation_energy": 22.59, 
			 "cosmo_dispersion_energy": -16.04, 
			 "cosmo_repulsion_energy": 1.33, 
			 "cosmo_total_nonelectrostatic_energy": 7.88, 
			 "SMD_solvation_energy": 6.29 
		},
		"coords": [
			{
				"x": 3.0111933914,
				"y": 1.0698359175,
				"z": 1.7182535197,
				"element": "O" 
			},
			{
				"x": 2.1062630345,
				"y": 0.0579556175,
				"z": 1.6567230948,
				"element": "C" 
			},
			{
				"x": 2.3400949999,
				"y": -0.9824420597,
				"z": 1.0846329305,
				"element": "O" 
			},
			{
				"x": 0.8325554016,
				"y": 0.3834325062,
				"z": 2.4089107191,
				"element": "C" 
			},
			{
				"x": 0.2896238705,
				"y": 1.8071115789,
				"z": 2.1601626268,
				"element": "C" 
			},
			{
				"x": -0.0906987446,
				"y": 2.0617584696,
				"z": 0.728481168,
				"element": "C" 
			},
			{
				"x": 0.6094120426,
				"y": 2.7851664161,
				"z": -0.1919525744,
				"element": "C" 
			},
			{
				"x": -0.0249552612,
				"y": 2.7863057492,
				"z": -1.3992868979,
				"element": "O" 
			},
			{
				"x": -1.1566527955,
				"y": 2.0421744528,
				"z": -1.2470920156,
				"element": "C" 
			},
			{
				"x": -1.2507505379,
				"y": 1.5737560217,
				"z": 0.0259756769,
				"element": "C" 
			},
			{
				"x": 3.7882249587,
				"y": 0.7588839841,
				"z": 1.2240358252,
				"element": "H" 
			},
			{
				"x": 0.1004789753,
				"y": -0.3787866936,
				"z": 2.1328332078,
				"element": "H" 
			},
			{
				"x": 1.048101582,
				"y": 0.2611517329,
				"z": 3.4786901222,
				"element": "H" 
			},
			{
				"x": 1.0429504902,
				"y": 2.5340504321,
				"z": 2.4765500424,
				"element": "H" 
			},
			{
				"x": -0.5831531849,
				"y": 1.9539678597,
				"z": 2.8074266233,
				"element": "H" 
			},
			{
				"x": 1.5362463755,
				"y": 3.3355997937,
				"z": -0.1422350006,
				"element": "H" 
			},
			{
				"x": -1.7787012115,
				"y": 1.9466316149,
				"z": -2.1235512045,
				"element": "H" 
			},
			{
				"x": -2.0455333866,
				"y": 0.9603466065,
				"z": 0.4275421362,
				"element": "H" 
			}
		],
		 "valence_orbital": [ 
			{
				"type": "occ",
				"energy": -0.34787,
				"method": "rhf"
			},
			{
				"type": "occ",
				"energy": -0.31732,
				"method": "rhf"
			},
			{
				"type": "occ",
				"energy": -0.2744,
				"method": "rhf"
			},
			{
				"type": "occ",
				"energy": -0.26527,
				"method": "rhf"
			},
			{
				"type": "occ",
				"energy": -0.22413,
				"method": "rhf"
			},
			{
				"type": "unocc",
				"energy": 0.00936,
				"method": "rhf"
			},
			{
				"type": "unocc",
				"energy": 0.01723,
				"method": "rhf"
			},
			{
				"type": "unocc",
				"energy": 0.0648,
				"method": "rhf"
			},
			{
				"type": "unocc",
				"energy": 0.07433,
				"method": "rhf"
			},
			{
				"type": "unocc",
				"energy": 0.11713,
				"method": "rhf"
			}
		],
		"cosmo_sigma_profile": { 
			"-0.025": 0.0,
			"-0.024": 0.0,
			"-0.023": 0.0,
			"-0.022": 0.0,
			"-0.021": 0.0,
			"-0.02": 0.0,
			"-0.019": 0.0,
			"-0.018": 0.535582618685,
			"-0.017": 0.835995047891,
			"-0.016": 0.928377013588,
			"-0.015": 0.569072426241,
			"-0.014": 1.1631019669,
			"-0.013": 0.755777100209,
			"-0.012": 0.176900420083,
			"-0.011": 0.64288899768,
			"-0.01": 0.941677047508,
			"-0.009": 1.07836929439,
			"-0.008": 3.52867852458,
			"-0.007": 6.16904920076,
			"-0.006": 8.15558896511,
			"-0.005": 11.2705913294,
			"-0.004": 15.4348952741,
			"-0.003": 15.3504545983,
			"-0.002": 12.05832547,
			"-0.001": 10.2985961734,
			"0.0": 8.38358883388,
			"0.001": 8.26099275108,
			"0.002": 11.0837907151,
			"0.003": 11.549129556,
			"0.004": 11.2811028623,
			"0.005": 9.14386919664,
			"0.006": 5.47960797838,
			"0.007": 4.23120840776,
			"0.008": 3.84541058649,
			"0.009": 4.14865466829,
			"0.01": 2.09958250791,
			"0.011": 3.29487327951,
			"0.012": 5.21294025219,
			"0.013": 1.14112246268,
			"0.014": 0.0,
			"0.015": 0.0,
			"0.016": 0.0,
			"0.017": 0.0,
			"0.018": 0.0,
			"0.019": 0.0,
			"0.02": 0.0,
			"0.021": 0.0,
			"0.022": 0.0,
			"0.023": 0.0,
			"0.024": 0.0,
			"0.025": 0.0
		}
	}
}
