{
	 "smiles": "CCOC(=O)C1=C(N)SC=C1C(C)(C)C", 
	 "Tm": 330.15, 
	 "num_atms": 32, 
	 "gaussian": { 
		 "optdone": 1, 
		 "sigma_profile": "yes", 
		 "theory": "DFT", 
		 "functional": "B3LYP", 
		 "basiset": "6-31G**", 
		 "properties": { 
			 "R2extent": 4337.6705, 
			 "electric_dipole_moment_norm": 0.588762099663, 
			 "electric_quadrupole_moment_norm": 7.2365434836, 
			 "total_energy": -1032.82163414, 
			 "HOMO_LUMO_gap": 0.17937, 
			 "cosmo_polarized_energy": -8.25, 
			 "cosmo_cavitation_energy": 34.25, 
			 "cosmo_dispersion_energy": -24.54, 
			 "cosmo_repulsion_energy": 1.86, 
			 "cosmo_total_nonelectrostatic_energy": 11.57, 
			 "SMD_solvation_energy": 6.7 
		},
		"coords": [
			{
				"x": -1.4080608489,
				"y": -3.1147525844,
				"z": -0.7347645243,
				"element": "C" 
			},
			{
				"x": -0.4867282116,
				"y": -2.3763521107,
				"z": -1.6879949188,
				"element": "C" 
			},
			{
				"x": 0.01972729,
				"y": -1.2114437842,
				"z": -0.9963481742,
				"element": "O" 
			},
			{
				"x": 0.8578270032,
				"y": -0.4224017089,
				"z": -1.7100795235,
				"element": "C" 
			},
			{
				"x": 1.1371860659,
				"y": -0.7270959745,
				"z": -2.8737083853,
				"element": "O" 
			},
			{
				"x": 1.3841675498,
				"y": 0.7605356778,
				"z": -1.0254399392,
				"element": "C" 
			},
			{
				"x": 2.2556558794,
				"y": 1.5671325494,
				"z": -1.7818923399,
				"element": "C" 
			},
			{
				"x": 2.6128993273,
				"y": 1.4205636168,
				"z": -3.0803392423,
				"element": "N" 
			},
			{
				"x": 2.8578621129,
				"y": 2.9223558693,
				"z": -0.8685940412,
				"element": "S" 
			},
			{
				"x": 1.9465456304,
				"y": 2.4141425416,
				"z": 0.533851893,
				"element": "C" 
			},
			{
				"x": 1.2111132039,
				"y": 1.2842207416,
				"z": 0.3444433603,
				"element": "C" 
			},
			{
				"x": 0.3496503259,
				"y": 0.7255695986,
				"z": 1.4935143801,
				"element": "C" 
			},
			{
				"x": 0.4577549511,
				"y": 1.6178949875,
				"z": 2.7513540763,
				"element": "C" 
			},
			{
				"x": 0.8434491573,
				"y": -0.6815924362,
				"z": 1.9078542388,
				"element": "C" 
			},
			{
				"x": -1.1446585399,
				"y": 0.7103459575,
				"z": 1.09085594,
				"element": "C" 
			},
			{
				"x": -1.809408769,
				"y": -4.0050294945,
				"z": -1.2293309572,
				"element": "H" 
			},
			{
				"x": -2.2485390362,
				"y": -2.4848402281,
				"z": -0.4296574533,
				"element": "H" 
			},
			{
				"x": -0.8736240074,
				"y": -3.4345753759,
				"z": 0.164332817,
				"element": "H" 
			},
			{
				"x": 0.3582318268,
				"y": -2.9959336101,
				"z": -2.0034399427,
				"element": "H" 
			},
			{
				"x": -1.0083574017,
				"y": -2.0515402072,
				"z": -2.5932382942,
				"element": "H" 
			},
			{
				"x": 2.3075595507,
				"y": 0.5499735613,
				"z": -3.5076332981,
				"element": "H" 
			},
			{
				"x": 3.4088433963,
				"y": 1.9207064976,
				"z": -3.4410569514,
				"element": "H" 
			},
			{
				"x": 2.0262943093,
				"y": 3.0167176111,
				"z": 1.4233349477,
				"element": "H" 
			},
			{
				"x": 1.4822081982,
				"y": 1.6665428805,
				"z": 3.1343457821,
				"element": "H" 
			},
			{
				"x": 0.1066950329,
				"y": 2.637555718,
				"z": 2.5629835341,
				"element": "H" 
			},
			{
				"x": -0.1685419329,
				"y": 1.1955598088,
				"z": 3.5435642521,
				"element": "H" 
			},
			{
				"x": 1.8757963738,
				"y": -0.6282189437,
				"z": 2.2703668178,
				"element": "H" 
			},
			{
				"x": 0.2213990701,
				"y": -1.0691026903,
				"z": 2.7232945433,
				"element": "H" 
			},
			{
				"x": 0.8041519371,
				"y": -1.3904023268,
				"z": 1.083180906,
				"element": "H" 
			},
			{
				"x": -1.7475885347,
				"y": 0.3083279875,
				"z": 1.9135830385,
				"element": "H" 
			},
			{
				"x": -1.491898876,
				"y": 1.7292520155,
				"z": 0.8878944735,
				"element": "H" 
			},
			{
				"x": -1.3262120338,
				"y": 0.1022838548,
				"z": 0.2068629852,
				"element": "H" 
			}
		],
		 "valence_orbital": [ 
			{
				"type": "occ",
				"energy": -0.30583,
				"method": "rhf"
			},
			{
				"type": "occ",
				"energy": -0.2921,
				"method": "rhf"
			},
			{
				"type": "occ",
				"energy": -0.26814,
				"method": "rhf"
			},
			{
				"type": "occ",
				"energy": -0.24375,
				"method": "rhf"
			},
			{
				"type": "occ",
				"energy": -0.1941,
				"method": "rhf"
			},
			{
				"type": "unocc",
				"energy": -0.01473,
				"method": "rhf"
			},
			{
				"type": "unocc",
				"energy": 0.01606,
				"method": "rhf"
			},
			{
				"type": "unocc",
				"energy": 0.02006,
				"method": "rhf"
			},
			{
				"type": "unocc",
				"energy": 0.0884,
				"method": "rhf"
			},
			{
				"type": "unocc",
				"energy": 0.09601,
				"method": "rhf"
			}
		],
		"cosmo_sigma_profile": { 
			"-0.025": 0.0,
			"-0.024": 0.0,
			"-0.023": 0.0,
			"-0.022": 0.0,
			"-0.021": 0.0,
			"-0.02": 0.0,
			"-0.019": 0.0,
			"-0.018": 0.0,
			"-0.017": 0.0,
			"-0.016": 0.0,
			"-0.015": 0.394074844391,
			"-0.014": 1.27452092974,
			"-0.013": 1.74265014508,
			"-0.012": 0.782852338685,
			"-0.011": 1.09337411875,
			"-0.01": 1.32862548866,
			"-0.009": 2.23410449805,
			"-0.008": 1.77243648006,
			"-0.007": 3.2946549609,
			"-0.006": 3.161669163,
			"-0.005": 7.05869655583,
			"-0.004": 13.6495580414,
			"-0.003": 20.4615950781,
			"-0.002": 31.0387020686,
			"-0.001": 27.426935554,
			"0.0": 31.8346316477,
			"0.001": 34.1918763779,
			"0.002": 29.0149931512,
			"0.003": 16.5694470914,
			"0.004": 14.9619329983,
			"0.005": 10.9639371846,
			"0.006": 4.52612694575,
			"0.007": 2.71518632529,
			"0.008": 1.51979878176,
			"0.009": 1.82133536092,
			"0.01": 1.62754609494,
			"0.011": 1.82720048805,
			"0.012": 1.6511972067,
			"0.013": 0.547898925238,
			"0.014": 0.0,
			"0.015": 0.0,
			"0.016": 0.0,
			"0.017": 0.0,
			"0.018": 0.0,
			"0.019": 0.0,
			"0.02": 0.0,
			"0.021": 0.0,
			"0.022": 0.0,
			"0.023": 0.0,
			"0.024": 0.0,
			"0.025": 0.0
		}
	}
}
