{
	 "smiles": "C1OC2=CC=C(C=C2O1)C1OCC2C1COC2C1=CC=C2OCOC2=C1", 
	 "Tm": 397.15, 
	 "num_atms": 44, 
	 "gaussian": { 
		 "optdone": 1, 
		 "sigma_profile": "yes", 
		 "theory": "DFT", 
		 "functional": "B3LYP", 
		 "basiset": "6-31G**", 
		 "properties": { 
			 "R2extent": 13667.602, 
			 "electric_dipole_moment_norm": 1.93486421746, 
			 "electric_quadrupole_moment_norm": 13.1683880441, 
			 "total_energy": -1224.24155558, 
			 "HOMO_LUMO_gap": 0.20007, 
			 "cosmo_polarized_energy": -15.64, 
			 "cosmo_cavitation_energy": 45.51, 
			 "cosmo_dispersion_energy": -33.47, 
			 "cosmo_repulsion_energy": 2.49, 
			 "cosmo_total_nonelectrostatic_energy": 14.53, 
			 "SMD_solvation_energy": 8.13 
		},
		"coords": [
			{
				"x": 6.3306928979,
				"y": 2.5892809999,
				"z": -1.032616801,
				"element": "C" 
			},
			{
				"x": 6.82579075,
				"y": 1.7621353276,
				"z": 0.0278188927,
				"element": "O" 
			},
			{
				"x": 5.8520227251,
				"y": 0.817675806,
				"z": 0.2483062459,
				"element": "C" 
			},
			{
				"x": 5.8039840949,
				"y": -0.1561653359,
				"z": 1.2249462262,
				"element": "C" 
			},
			{
				"x": 4.6948954541,
				"y": -1.0221354006,
				"z": 1.1997525854,
				"element": "C" 
			},
			{
				"x": 3.6835020893,
				"y": -0.9017416019,
				"z": 0.2428558471,
				"element": "C" 
			},
			{
				"x": 3.7546387786,
				"y": 0.1034254468,
				"z": -0.747847695,
				"element": "C" 
			},
			{
				"x": 4.8503340353,
				"y": 0.9393498364,
				"z": -0.7137972741,
				"element": "C" 
			},
			{
				"x": 5.1619216637,
				"y": 1.9670727911,
				"z": -1.5737923101,
				"element": "O" 
			},
			{
				"x": 2.4993973919,
				"y": -1.8380045395,
				"z": 0.2832720439,
				"element": "C" 
			},
			{
				"x": 2.1127478108,
				"y": -2.1884881351,
				"z": -1.0473574853,
				"element": "O" 
			},
			{
				"x": 0.802805273,
				"y": -2.7248190251,
				"z": -0.9515295366,
				"element": "C" 
			},
			{
				"x": 0.0578317313,
				"y": -1.799477143,
				"z": 0.0207921997,
				"element": "C" 
			},
			{
				"x": 1.1875256753,
				"y": -1.3199239793,
				"z": 0.9813638652,
				"element": "C" 
			},
			{
				"x": 0.9767209232,
				"y": 0.1942846407,
				"z": 1.0320687136,
				"element": "C" 
			},
			{
				"x": 0.4504283326,
				"y": 0.5470823304,
				"z": -0.2462047684,
				"element": "O" 
			},
			{
				"x": -0.4616418125,
				"y": -0.4808873146,
				"z": -0.6358426507,
				"element": "C" 
			},
			{
				"x": -1.9049154788,
				"y": -0.1373637212,
				"z": -0.2716317785,
				"element": "C" 
			},
			{
				"x": -2.233252986,
				"y": 1.1329331599,
				"z": 0.2052448462,
				"element": "C" 
			},
			{
				"x": -3.5589075829,
				"y": 1.4932988728,
				"z": 0.5148764278,
				"element": "C" 
			},
			{
				"x": -4.5310999933,
				"y": 0.5363702992,
				"z": 0.3115933977,
				"element": "C" 
			},
			{
				"x": -5.8845185963,
				"y": 0.6161650307,
				"z": 0.5491987962,
				"element": "O" 
			},
			{
				"x": -6.4393671977,
				"y": -0.5926564376,
				"z": 0.0211556548,
				"element": "C" 
			},
			{
				"x": -5.3595716799,
				"y": -1.488815825,
				"z": -0.2670029553,
				"element": "O" 
			},
			{
				"x": -4.2156108807,
				"y": -0.7299207256,
				"z": -0.1771347382,
				"element": "C" 
			},
			{
				"x": -2.9210559068,
				"y": -1.0992281283,
				"z": -0.4760692683,
				"element": "C" 
			},
			{
				"x": 7.0938052515,
				"y": 2.6758664434,
				"z": -1.8129392873,
				"element": "H" 
			},
			{
				"x": 6.0693413741,
				"y": 3.5797849275,
				"z": -0.6327572957,
				"element": "H" 
			},
			{
				"x": 6.5904207527,
				"y": -0.2549999283,
				"z": 1.9645265136,
				"element": "H" 
			},
			{
				"x": 4.6297356713,
				"y": -1.8103479545,
				"z": 1.9448472918,
				"element": "H" 
			},
			{
				"x": 2.9768581045,
				"y": 0.2039969282,
				"z": -1.4936926247,
				"element": "H" 
			},
			{
				"x": 2.8028177662,
				"y": -2.7543303582,
				"z": 0.8172117816,
				"element": "H" 
			},
			{
				"x": 0.8311665478,
				"y": -3.754216934,
				"z": -0.5550989241,
				"element": "H" 
			},
			{
				"x": 0.3761349452,
				"y": -2.7548512728,
				"z": -1.958350315,
				"element": "H" 
			},
			{
				"x": -0.7465397955,
				"y": -2.3216338633,
				"z": 0.5433509613,
				"element": "H" 
			},
			{
				"x": 1.107557538,
				"y": -1.7574995999,
				"z": 1.9802937479,
				"element": "H" 
			},
			{
				"x": 1.8916834952,
				"y": 0.7699728559,
				"z": 1.1840796716,
				"element": "H" 
			},
			{
				"x": 0.2618318004,
				"y": 0.4468439691,
				"z": 1.8302985118,
				"element": "H" 
			},
			{
				"x": -0.3847316835,
				"y": -0.5476678191,
				"z": -1.7288646955,
				"element": "H" 
			},
			{
				"x": -1.4373541052,
				"y": 1.8584601733,
				"z": 0.3258970174,
				"element": "H" 
			},
			{
				"x": -3.8071170441,
				"y": 2.4789180277,
				"z": 0.8926230706,
				"element": "H" 
			},
			{
				"x": -6.9893247799,
				"y": -0.3715137612,
				"z": -0.9054820513,
				"element": "H" 
			},
			{
				"x": -7.1004435309,
				"y": -1.0467456827,
				"z": 0.765753093,
				"element": "H" 
			},
			{
				"x": -2.7050398195,
				"y": -2.0917833798,
				"z": -0.858114948,
				"element": "H" 
			}
		],
		 "valence_orbital": [ 
			{
				"type": "occ",
				"energy": -0.24563,
				"method": "rhf"
			},
			{
				"type": "occ",
				"energy": -0.2433,
				"method": "rhf"
			},
			{
				"type": "occ",
				"energy": -0.23972,
				"method": "rhf"
			},
			{
				"type": "occ",
				"energy": -0.20405,
				"method": "rhf"
			},
			{
				"type": "occ",
				"energy": -0.2024,
				"method": "rhf"
			},
			{
				"type": "unocc",
				"energy": -0.00233,
				"method": "rhf"
			},
			{
				"type": "unocc",
				"energy": 0.00181,
				"method": "rhf"
			},
			{
				"type": "unocc",
				"energy": 0.01084,
				"method": "rhf"
			},
			{
				"type": "unocc",
				"energy": 0.0133,
				"method": "rhf"
			},
			{
				"type": "unocc",
				"energy": 0.07558,
				"method": "rhf"
			}
		],
		"cosmo_sigma_profile": { 
			"-0.025": 0.0,
			"-0.024": 0.0,
			"-0.023": 0.0,
			"-0.022": 0.0,
			"-0.021": 0.0,
			"-0.02": 0.0,
			"-0.019": 0.0,
			"-0.018": 0.0,
			"-0.017": 0.0,
			"-0.016": 0.0,
			"-0.015": 0.0,
			"-0.014": 0.0,
			"-0.013": 0.0,
			"-0.012": 0.0,
			"-0.011": 0.0,
			"-0.01": 0.0,
			"-0.009": 0.0,
			"-0.008": 3.75844222229,
			"-0.007": 15.6857693282,
			"-0.006": 24.6815175743,
			"-0.005": 28.3717282803,
			"-0.004": 34.0512069905,
			"-0.003": 32.4813477372,
			"-0.002": 24.3806592761,
			"-0.001": 20.4421239855,
			"0.0": 19.7525581103,
			"0.001": 18.5097433148,
			"0.002": 23.2600317478,
			"0.003": 26.3085119043,
			"0.004": 22.2675842221,
			"0.005": 19.3905036101,
			"0.006": 11.0820932826,
			"0.007": 7.54150498119,
			"0.008": 8.36515181835,
			"0.009": 8.71188848258,
			"0.01": 7.05720537055,
			"0.011": 1.59446608009,
			"0.012": 1.46916451726,
			"0.013": 2.00824510019,
			"0.014": 0.187976552486,
			"0.015": 0.0,
			"0.016": 0.0,
			"0.017": 0.0,
			"0.018": 0.0,
			"0.019": 0.0,
			"0.02": 0.0,
			"0.021": 0.0,
			"0.022": 0.0,
			"0.023": 0.0,
			"0.024": 0.0,
			"0.025": 0.0
		}
	}
}
