{
	 "smiles": "CC(S)C(O)=O", 
	 "Tm": 284.65, 
	 "num_atms": 12, 
	 "gaussian": { 
		 "optdone": 1, 
		 "sigma_profile": "yes", 
		 "theory": "DFT", 
		 "functional": "B3LYP", 
		 "basiset": "6-31G**", 
		 "properties": { 
			 "R2extent": 829.9769, 
			 "electric_dipole_moment_norm": 3.04579848316, 
			 "electric_quadrupole_moment_norm": 15.0733765703, 
			 "total_energy": -666.578569718, 
			 "HOMO_LUMO_gap": 0.25463, 
			 "cosmo_polarized_energy": -11.43, 
			 "cosmo_cavitation_energy": 17.21, 
			 "cosmo_dispersion_energy": -13.24, 
			 "cosmo_repulsion_energy": 1.11, 
			 "cosmo_total_nonelectrostatic_energy": 5.08, 
			 "SMD_solvation_energy": 4.02 
		},
		"coords": [
			{
				"x": -0.3010540885,
				"y": -1.5863438438,
				"z": -0.1431518558,
				"element": "C" 
			},
			{
				"x": 0.4872975392,
				"y": -0.3065533836,
				"z": -0.4648972585,
				"element": "C" 
			},
			{
				"x": 0.3971214171,
				"y": 0.8239963011,
				"z": 1.0022661774,
				"element": "S" 
			},
			{
				"x": -0.0420030096,
				"y": 0.3053539763,
				"z": -1.7756468929,
				"element": "C" 
			},
			{
				"x": -0.9060789269,
				"y": 1.3302288824,
				"z": -1.6759737323,
				"element": "O" 
			},
			{
				"x": 0.2758587466,
				"y": -0.1635349366,
				"z": -2.8416222689,
				"element": "O" 
			},
			{
				"x": -1.3517102983,
				"y": -1.3636634547,
				"z": 0.0687351819,
				"element": "H" 
			},
			{
				"x": -0.2593377942,
				"y": -2.2531119157,
				"z": -1.0080080608,
				"element": "H" 
			},
			{
				"x": 0.1284293057,
				"y": -2.0979396478,
				"z": 0.7212989491,
				"element": "H" 
			},
			{
				"x": 1.5336656586,
				"y": -0.5615182229,
				"z": -0.6410929581,
				"element": "H" 
			},
			{
				"x": 1.3698562183,
				"y": 1.6759106735,
				"z": 0.6187294678,
				"element": "H" 
			},
			{
				"x": -0.9904447682,
				"y": 1.5760755719,
				"z": -0.7343367488,
				"element": "H" 
			}
		],
		 "valence_orbital": [ 
			{
				"type": "occ",
				"energy": -0.37452,
				"method": "rhf"
			},
			{
				"type": "occ",
				"energy": -0.35902,
				"method": "rhf"
			},
			{
				"type": "occ",
				"energy": -0.31696,
				"method": "rhf"
			},
			{
				"type": "occ",
				"energy": -0.29251,
				"method": "rhf"
			},
			{
				"type": "occ",
				"energy": -0.26205,
				"method": "rhf"
			},
			{
				"type": "unocc",
				"energy": -0.00742,
				"method": "rhf"
			},
			{
				"type": "unocc",
				"energy": 0.00598,
				"method": "rhf"
			},
			{
				"type": "unocc",
				"energy": 0.04392,
				"method": "rhf"
			},
			{
				"type": "unocc",
				"energy": 0.08424,
				"method": "rhf"
			},
			{
				"type": "unocc",
				"energy": 0.12151,
				"method": "rhf"
			}
		],
		"cosmo_sigma_profile": { 
			"-0.025": 0.0,
			"-0.024": 0.0,
			"-0.023": 0.0,
			"-0.022": 0.0,
			"-0.021": 0.0,
			"-0.02": 0.0,
			"-0.019": 0.0,
			"-0.018": 0.0,
			"-0.017": 0.0,
			"-0.016": 0.0,
			"-0.015": 0.0,
			"-0.014": 0.0,
			"-0.013": 0.200601788362,
			"-0.012": 0.786648169758,
			"-0.011": 3.07611946355,
			"-0.01": 4.54409827011,
			"-0.009": 3.82432291066,
			"-0.008": 5.01190514363,
			"-0.007": 5.14947570524,
			"-0.006": 5.67024684735,
			"-0.005": 7.87687671681,
			"-0.004": 10.4834305318,
			"-0.003": 9.31418923458,
			"-0.002": 10.8378995782,
			"-0.001": 9.7067766982,
			"0.0": 5.99904558687,
			"0.001": 3.75690163063,
			"0.002": 3.84764753263,
			"0.003": 5.62928700608,
			"0.004": 6.08103607944,
			"0.005": 4.44105340004,
			"0.006": 3.41955417205,
			"0.007": 3.63726162759,
			"0.008": 4.43418054256,
			"0.009": 3.33854872998,
			"0.01": 5.23980350116,
			"0.011": 4.17506442936,
			"0.012": 5.52718698733,
			"0.013": 1.66234716898,
			"0.014": 0.0100983670031,
			"0.015": 0.0,
			"0.016": 0.0,
			"0.017": 0.0,
			"0.018": 0.0,
			"0.019": 0.0,
			"0.02": 0.0,
			"0.021": 0.0,
			"0.022": 0.0,
			"0.023": 0.0,
			"0.024": 0.0,
			"0.025": 0.0
		}
	}
}
