{
	 "smiles": "OC1=CC=C(C=C1)N1C=CN=C1", 
	 "Tm": 478.15, 
	 "num_atms": 20, 
	 "gaussian": { 
		 "optdone": 1, 
		 "sigma_profile": "yes", 
		 "theory": "DFT", 
		 "functional": "B3LYP", 
		 "basiset": "6-31G**", 
		 "properties": { 
			 "R2extent": 3204.0483, 
			 "electric_dipole_moment_norm": 4.46244699352, 
			 "electric_quadrupole_moment_norm": 18.569106684, 
			 "total_energy": -532.485948171, 
			 "HOMO_LUMO_gap": 0.19472, 
			 "cosmo_polarized_energy": -15.13, 
			 "cosmo_cavitation_energy": 24.17, 
			 "cosmo_dispersion_energy": -18.22, 
			 "cosmo_repulsion_energy": 1.4, 
			 "cosmo_total_nonelectrostatic_energy": 7.34, 
			 "SMD_solvation_energy": 3.67 
		},
		"coords": [
			{
				"x": 0.2761157532,
				"y": -1.1317201811,
				"z": 3.2963860882,
				"element": "O" 
			},
			{
				"x": 0.6435322176,
				"y": -0.417823501,
				"z": 2.1922114649,
				"element": "C" 
			},
			{
				"x": -0.3139207577,
				"y": -0.2361274865,
				"z": 1.1888339463,
				"element": "C" 
			},
			{
				"x": -0.0006244848,
				"y": 0.4813158597,
				"z": 0.0409084967,
				"element": "C" 
			},
			{
				"x": 1.276220384,
				"y": 1.0360453861,
				"z": -0.1355723264,
				"element": "C" 
			},
			{
				"x": 2.2290966804,
				"y": 0.8502953988,
				"z": 0.8722024371,
				"element": "C" 
			},
			{
				"x": 1.9170614684,
				"y": 0.1311319558,
				"z": 2.0243147688,
				"element": "C" 
			},
			{
				"x": 1.5954078968,
				"y": 1.7710260516,
				"z": -1.3126571095,
				"element": "N" 
			},
			{
				"x": 2.8076905392,
				"y": 2.3739320879,
				"z": -1.6242832855,
				"element": "C" 
			},
			{
				"x": 2.6351267613,
				"y": 2.9569227494,
				"z": -2.8507975858,
				"element": "C" 
			},
			{
				"x": 1.3580026607,
				"y": 2.7408784603,
				"z": -3.3190471913,
				"element": "N" 
			},
			{
				"x": 0.7672897839,
				"y": 2.034648921,
				"z": -2.3834074977,
				"element": "C" 
			},
			{
				"x": 1.0229938312,
				"y": -1.182555733,
				"z": 3.9066561639,
				"element": "H" 
			},
			{
				"x": -1.3020904823,
				"y": -0.663269958,
				"z": 1.3212867225,
				"element": "H" 
			},
			{
				"x": -0.7657594462,
				"y": 0.6029708327,
				"z": -0.7161380247,
				"element": "H" 
			},
			{
				"x": 3.2257257132,
				"y": 1.2627372385,
				"z": 0.7733246337,
				"element": "H" 
			},
			{
				"x": 2.6746475357,
				"y": 0.000187081,
				"z": 2.79381604,
				"element": "H" 
			},
			{
				"x": 3.6609863327,
				"y": 2.337935896,
				"z": -0.9687737228,
				"element": "H" 
			},
			{
				"x": 3.3601538279,
				"y": 3.5200962178,
				"z": -3.4220941509,
				"element": "H" 
			},
			{
				"x": -0.2533562152,
				"y": 1.687372723,
				"z": -2.4257698677,
				"element": "H" 
			}
		],
		 "valence_orbital": [ 
			{
				"type": "occ",
				"energy": -0.29098,
				"method": "rhf"
			},
			{
				"type": "occ",
				"energy": -0.26932,
				"method": "rhf"
			},
			{
				"type": "occ",
				"energy": -0.2637,
				"method": "rhf"
			},
			{
				"type": "occ",
				"energy": -0.23149,
				"method": "rhf"
			},
			{
				"type": "occ",
				"energy": -0.21405,
				"method": "rhf"
			},
			{
				"type": "unocc",
				"energy": -0.01933,
				"method": "rhf"
			},
			{
				"type": "unocc",
				"energy": -0.01791,
				"method": "rhf"
			},
			{
				"type": "unocc",
				"energy": 0.05236,
				"method": "rhf"
			},
			{
				"type": "unocc",
				"energy": 0.06016,
				"method": "rhf"
			},
			{
				"type": "unocc",
				"energy": 0.07365,
				"method": "rhf"
			}
		],
		"cosmo_sigma_profile": { 
			"-0.025": 0.0,
			"-0.024": 0.0,
			"-0.023": 0.0,
			"-0.022": 0.0,
			"-0.021": 0.0,
			"-0.02": 0.0,
			"-0.019": 0.0,
			"-0.018": 0.588945628313,
			"-0.017": 1.05562755195,
			"-0.016": 1.28018451692,
			"-0.015": 1.19026935909,
			"-0.014": 1.22701857736,
			"-0.013": 0.716890896216,
			"-0.012": 0.631856001273,
			"-0.011": 1.35928545876,
			"-0.01": 4.72778619558,
			"-0.009": 4.67760885191,
			"-0.008": 5.57449008098,
			"-0.007": 6.7511888221,
			"-0.006": 10.419592181,
			"-0.005": 10.6014762205,
			"-0.004": 8.47517842177,
			"-0.003": 10.1578079146,
			"-0.002": 7.51014765319,
			"-0.001": 8.66428841208,
			"0.0": 9.89552456328,
			"0.001": 12.9785959901,
			"0.002": 13.8629206581,
			"0.003": 15.9315793432,
			"0.004": 18.0320367397,
			"0.005": 9.53378574985,
			"0.006": 4.95789919584,
			"0.007": 3.3598439439,
			"0.008": 2.72577347611,
			"0.009": 3.93482391656,
			"0.01": 2.77172603403,
			"0.011": 3.0693268446,
			"0.012": 0.970630447113,
			"0.013": 1.80465532521,
			"0.014": 1.06083764737,
			"0.015": 1.1840094262,
			"0.016": 1.10009409825,
			"0.017": 1.08041129586,
			"0.018": 0.655536079124,
			"0.019": 0.0,
			"0.02": 0.0,
			"0.021": 0.0,
			"0.022": 0.0,
			"0.023": 0.0,
			"0.024": 0.0,
			"0.025": 0.0
		}
	}
}
