{
	 "smiles": "OC(=O)C1=CC=C(CN2N=NC3=C2C=CC=C3)C=C1", 
	 "Tm": 538.15, 
	 "num_atms": 30, 
	 "gaussian": { 
		 "optdone": 1, 
		 "sigma_profile": "yes", 
		 "theory": "DFT", 
		 "functional": "B3LYP", 
		 "basiset": "6-31G**", 
		 "properties": { 
			 "R2extent": 6406.7546, 
			 "electric_dipole_moment_norm": 2.31695867248, 
			 "electric_quadrupole_moment_norm": 21.1937432494, 
			 "total_energy": -854.810031548, 
			 "HOMO_LUMO_gap": 0.18064, 
			 "cosmo_polarized_energy": -17.52, 
			 "cosmo_cavitation_energy": 35.67, 
			 "cosmo_dispersion_energy": -25.16, 
			 "cosmo_repulsion_energy": 1.91, 
			 "cosmo_total_nonelectrostatic_energy": 12.42, 
			 "SMD_solvation_energy": 5.29 
		},
		"coords": [
			{
				"x": 4.3448355767,
				"y": -1.531795058,
				"z": -2.3340643632,
				"element": "O" 
			},
			{
				"x": 4.4903404501,
				"y": -1.0862859266,
				"z": -1.0615717992,
				"element": "C" 
			},
			{
				"x": 5.4504628699,
				"y": -1.3831656065,
				"z": -0.3782147288,
				"element": "O" 
			},
			{
				"x": 3.3682557053,
				"y": -0.2171744185,
				"z": -0.6169695925,
				"element": "C" 
			},
			{
				"x": 2.2813003874,
				"y": 0.0901166998,
				"z": -1.4487466345,
				"element": "C" 
			},
			{
				"x": 1.2568955861,
				"y": 0.9080520495,
				"z": -0.9822691457,
				"element": "C" 
			},
			{
				"x": 1.3001082,
				"y": 1.4280048027,
				"z": 0.3184644145,
				"element": "C" 
			},
			{
				"x": 0.1986451907,
				"y": 2.3483014413,
				"z": 0.8150688557,
				"element": "C" 
			},
			{
				"x": -1.141565003,
				"y": 1.8502336416,
				"z": 0.5532283595,
				"element": "N" 
			},
			{
				"x": -1.8992901871,
				"y": 2.4169630594,
				"z": -0.4368991377,
				"element": "N" 
			},
			{
				"x": -3.0340685191,
				"y": 1.8047650485,
				"z": -0.5117497197,
				"element": "N" 
			},
			{
				"x": -3.0532831399,
				"y": 0.8031411146,
				"z": 0.4373960118,
				"element": "C" 
			},
			{
				"x": -1.8263588084,
				"y": 0.8175735605,
				"z": 1.1324605592,
				"element": "C" 
			},
			{
				"x": -1.5389602066,
				"y": -0.0902808952,
				"z": 2.1633510191,
				"element": "C" 
			},
			{
				"x": -2.5349018812,
				"y": -1.0060355804,
				"z": 2.4702031379,
				"element": "C" 
			},
			{
				"x": -3.7734548697,
				"y": -1.0281905969,
				"z": 1.782351105,
				"element": "C" 
			},
			{
				"x": -4.0497767468,
				"y": -0.1317452614,
				"z": 0.7625647722,
				"element": "C" 
			},
			{
				"x": 2.3858598507,
				"y": 1.1163502447,
				"z": 1.1450146305,
				"element": "C" 
			},
			{
				"x": 3.4157643747,
				"y": 0.3017090047,
				"z": 0.6821055283,
				"element": "C" 
			},
			{
				"x": 5.1255799511,
				"y": -2.0810891817,
				"z": -2.5130251408,
				"element": "H" 
			},
			{
				"x": 2.2457664418,
				"y": -0.3114584554,
				"z": -2.4549431678,
				"element": "H" 
			},
			{
				"x": 0.4149506292,
				"y": 1.1461200128,
				"z": -1.6258847061,
				"element": "H" 
			},
			{
				"x": 0.2489021842,
				"y": 3.3183217474,
				"z": 0.3109661934,
				"element": "H" 
			},
			{
				"x": 0.3069645906,
				"y": 2.526688677,
				"z": 1.8900747557,
				"element": "H" 
			},
			{
				"x": -0.5890381467,
				"y": -0.0874873129,
				"z": 2.6869867641,
				"element": "H" 
			},
			{
				"x": -2.3603613328,
				"y": -1.7312000091,
				"z": 3.2595616166,
				"element": "H" 
			},
			{
				"x": -4.5163492061,
				"y": -1.7678611173,
				"z": 2.0643951002,
				"element": "H" 
			},
			{
				"x": -4.9934870928,
				"y": -0.140067876,
				"z": 0.2277306259,
				"element": "H" 
			},
			{
				"x": 2.426513706,
				"y": 1.5145083288,
				"z": 2.155882265,
				"element": "H" 
			},
			{
				"x": 4.2621494457,
				"y": 0.0509878626,
				"z": 1.312432421,
				"element": "H" 
			}
		],
		 "valence_orbital": [ 
			{
				"type": "occ",
				"energy": -0.27179,
				"method": "rhf"
			},
			{
				"type": "occ",
				"energy": -0.26978,
				"method": "rhf"
			},
			{
				"type": "occ",
				"energy": -0.26681,
				"method": "rhf"
			},
			{
				"type": "occ",
				"energy": -0.25377,
				"method": "rhf"
			},
			{
				"type": "occ",
				"energy": -0.23919,
				"method": "rhf"
			},
			{
				"type": "unocc",
				"energy": -0.05855,
				"method": "rhf"
			},
			{
				"type": "unocc",
				"energy": -0.04492,
				"method": "rhf"
			},
			{
				"type": "unocc",
				"energy": -0.02114,
				"method": "rhf"
			},
			{
				"type": "unocc",
				"energy": 0.0059,
				"method": "rhf"
			},
			{
				"type": "unocc",
				"energy": 0.03247,
				"method": "rhf"
			}
		],
		"cosmo_sigma_profile": { 
			"-0.025": 0.0,
			"-0.024": 0.0,
			"-0.023": 0.0,
			"-0.022": 0.0,
			"-0.021": 0.0,
			"-0.02": 0.0,
			"-0.019": 0.0573179197864,
			"-0.018": 0.800685279001,
			"-0.017": 1.01160070661,
			"-0.016": 0.947544033474,
			"-0.015": 0.396193202053,
			"-0.014": 0.845159340494,
			"-0.013": 0.67602482954,
			"-0.012": 0.528370687698,
			"-0.011": 1.03964442785,
			"-0.01": 0.706474132702,
			"-0.009": 0.276940496654,
			"-0.008": 6.06925907638,
			"-0.007": 13.0351910465,
			"-0.006": 19.0791170889,
			"-0.005": 20.2301387995,
			"-0.004": 17.9667372329,
			"-0.003": 16.1781920002,
			"-0.002": 16.9499164317,
			"-0.001": 17.7036018915,
			"0.0": 20.0284592864,
			"0.001": 22.3068515645,
			"0.002": 23.023485897,
			"0.003": 26.2625539653,
			"0.004": 13.9224344481,
			"0.005": 5.39767831659,
			"0.006": 5.26712956798,
			"0.007": 5.74979283503,
			"0.008": 3.55976918665,
			"0.009": 3.14726170824,
			"0.01": 6.66472075133,
			"0.011": 6.35946265828,
			"0.012": 6.0777506203,
			"0.013": 2.15089853558,
			"0.014": 0.825053397132,
			"0.015": 1.12195694948,
			"0.016": 0.214436059844,
			"0.017": 0.0,
			"0.018": 0.0,
			"0.019": 0.0,
			"0.02": 0.0,
			"0.021": 0.0,
			"0.022": 0.0,
			"0.023": 0.0,
			"0.024": 0.0,
			"0.025": 0.0
		}
	}
}
