{
	 "smiles": "BrCC(=O)CBr", 
	 "Tm": 299.15, 
	 "num_atms": 10, 
	 "gaussian": { 
		 "optdone": 1, 
		 "sigma_profile": "yes", 
		 "theory": "DFT", 
		 "functional": "B3LYP", 
		 "basiset": "6-31G**", 
		 "properties": { 
			 "R2extent": 4401.8173, 
			 "electric_dipole_moment_norm": 2.47920223257, 
			 "electric_quadrupole_moment_norm": 10.9220092369, 
			 "total_energy": -5334.74971717, 
			 "HOMO_LUMO_gap": 0.21162, 
			 "cosmo_polarized_energy": -9.87, 
			 "cosmo_cavitation_energy": 18.77, 
			 "cosmo_dispersion_energy": -14.66, 
			 "cosmo_repulsion_energy": 1.28, 
			 "cosmo_total_nonelectrostatic_energy": 5.39, 
			 "SMD_solvation_energy": 1.7 
		},
		"coords": [
			{
				"x": -1.2093100069,
				"y": -1.8099969945,
				"z": 0.0372695338,
				"element": "Br" 
			},
			{
				"x": -1.4652527748,
				"y": -0.0133537826,
				"z": 0.8176223426,
				"element": "C" 
			},
			{
				"x": -2.5035974827,
				"y": 0.8398430787,
				"z": 0.090629216,
				"element": "C" 
			},
			{
				"x": -3.2851843787,
				"y": 1.493024078,
				"z": 0.7412663908,
				"element": "O" 
			},
			{
				"x": -2.4408229064,
				"y": 0.837659826,
				"z": -1.4304869533,
				"element": "C" 
			},
			{
				"x": -3.4837533905,
				"y": 2.2729180868,
				"z": -2.2405012949,
				"element": "Br" 
			},
			{
				"x": -0.4858308614,
				"y": 0.4687092125,
				"z": 0.7745882452,
				"element": "H" 
			},
			{
				"x": -1.7753840209,
				"y": -0.1471306442,
				"z": 1.8514787646,
				"element": "H" 
			},
			{
				"x": -1.4100233676,
				"y": 0.9326478309,
				"z": -1.7772638292,
				"element": "H" 
			},
			{
				"x": -2.8345408102,
				"y": -0.1060206916,
				"z": -1.8115024154,
				"element": "H" 
			}
		],
		 "valence_orbital": [ 
			{
				"type": "occ",
				"energy": -0.31235,
				"method": "rhf"
			},
			{
				"type": "occ",
				"energy": -0.29957,
				"method": "rhf"
			},
			{
				"type": "occ",
				"energy": -0.28555,
				"method": "rhf"
			},
			{
				"type": "occ",
				"energy": -0.28276,
				"method": "rhf"
			},
			{
				"type": "occ",
				"energy": -0.27456,
				"method": "rhf"
			},
			{
				"type": "unocc",
				"energy": -0.06294,
				"method": "rhf"
			},
			{
				"type": "unocc",
				"energy": -0.01222,
				"method": "rhf"
			},
			{
				"type": "unocc",
				"energy": 0.00091,
				"method": "rhf"
			},
			{
				"type": "unocc",
				"energy": 0.08474,
				"method": "rhf"
			},
			{
				"type": "unocc",
				"energy": 0.11321,
				"method": "rhf"
			}
		],
		"cosmo_sigma_profile": { 
			"-0.025": 0.0,
			"-0.024": 0.0,
			"-0.023": 0.0,
			"-0.022": 0.0,
			"-0.021": 0.0,
			"-0.02": 0.0,
			"-0.019": 0.0,
			"-0.018": 0.0,
			"-0.017": 0.0,
			"-0.016": 0.0,
			"-0.015": 0.0,
			"-0.014": 0.0,
			"-0.013": 0.0,
			"-0.012": 0.750722943317,
			"-0.011": 2.02770581057,
			"-0.01": 4.09969029003,
			"-0.009": 6.47512703187,
			"-0.008": 6.98701436148,
			"-0.007": 6.22793887979,
			"-0.006": 6.70091603505,
			"-0.005": 6.64305935067,
			"-0.004": 7.50851071597,
			"-0.003": 7.63048498388,
			"-0.002": 8.05025749648,
			"-0.001": 6.1865640598,
			"0.0": 6.83996486048,
			"0.001": 7.94625063776,
			"0.002": 9.95722547841,
			"0.003": 10.4016300056,
			"0.004": 12.1947643111,
			"0.005": 16.4773021291,
			"0.006": 6.3499285541,
			"0.007": 3.25769563343,
			"0.008": 1.95322514064,
			"0.009": 3.5092973911,
			"0.01": 4.84100919288,
			"0.011": 2.4358635656,
			"0.012": 0.367762544893,
			"0.013": 0.0,
			"0.014": 0.0,
			"0.015": 0.0,
			"0.016": 0.0,
			"0.017": 0.0,
			"0.018": 0.0,
			"0.019": 0.0,
			"0.02": 0.0,
			"0.021": 0.0,
			"0.022": 0.0,
			"0.023": 0.0,
			"0.024": 0.0,
			"0.025": 0.0
		}
	}
}
