{
	 "smiles": "COC1=COC(CSP(=O)(OC)OC)=CC1=O", 
	 "Tm": 369.15, 
	 "num_atms": 30, 
	 "gaussian": { 
		 "optdone": 1, 
		 "sigma_profile": "yes", 
		 "theory": "DFT", 
		 "functional": "B3LYP", 
		 "basiset": "6-31G**", 
		 "properties": { 
			 "R2extent": 7417.7463, 
			 "electric_dipole_moment_norm": 1.83571010239, 
			 "electric_quadrupole_moment_norm": 28.8549377199, 
			 "total_energy": -1541.68223643, 
			 "HOMO_LUMO_gap": 0.18106, 
			 "cosmo_polarized_energy": -19.96, 
			 "cosmo_cavitation_energy": 38.18, 
			 "cosmo_dispersion_energy": -26.79, 
			 "cosmo_repulsion_energy": 2.03, 
			 "cosmo_total_nonelectrostatic_energy": 13.42, 
			 "SMD_solvation_energy": 10.98 
		},
		"coords": [
			{
				"x": -2.0250668235,
				"y": 4.8681619239,
				"z": 0.0718137619,
				"element": "C" 
			},
			{
				"x": -2.4140337531,
				"y": 3.7820363786,
				"z": -0.7891038221,
				"element": "O" 
			},
			{
				"x": -1.5722754815,
				"y": 2.7189298206,
				"z": -0.8657976062,
				"element": "C" 
			},
			{
				"x": -2.1195093935,
				"y": 1.4831010284,
				"z": -0.7663993608,
				"element": "C" 
			},
			{
				"x": -1.4220411691,
				"y": 0.3262804029,
				"z": -0.9309419968,
				"element": "O" 
			},
			{
				"x": -0.0855713344,
				"y": 0.392506214,
				"z": -1.1621279885,
				"element": "C" 
			},
			{
				"x": 0.5402811191,
				"y": -0.9574802186,
				"z": -1.2947394146,
				"element": "C" 
			},
			{
				"x": 0.6905345471,
				"y": -1.7867116505,
				"z": 0.3700963928,
				"element": "S" 
			},
			{
				"x": -0.0023358294,
				"y": -3.7304621558,
				"z": -0.0775255353,
				"element": "P" 
			},
			{
				"x": -0.0342484948,
				"y": -4.5409062723,
				"z": 1.1618296065,
				"element": "O" 
			},
			{
				"x": -1.3678744085,
				"y": -3.5543558119,
				"z": -0.913171192,
				"element": "O" 
			},
			{
				"x": -2.569696283,
				"y": -3.1943498158,
				"z": -0.1991293724,
				"element": "C" 
			},
			{
				"x": 0.8846294344,
				"y": -4.2735864324,
				"z": -1.3075345831,
				"element": "O" 
			},
			{
				"x": 2.1777215257,
				"y": -4.8408250494,
				"z": -1.0136092439,
				"element": "C" 
			},
			{
				"x": 0.5612071848,
				"y": 1.5770708288,
				"z": -1.2580857152,
				"element": "C" 
			},
			{
				"x": -0.1273905775,
				"y": 2.8628354639,
				"z": -1.1459689657,
				"element": "C" 
			},
			{
				"x": 0.4417115914,
				"y": 3.9475609199,
				"z": -1.2820589132,
				"element": "O" 
			},
			{
				"x": -1.0806808909,
				"y": 5.303743709,
				"z": -0.2541909853,
				"element": "H" 
			},
			{
				"x": -2.8331637483,
				"y": 5.5976034446,
				"z": -0.000469045,
				"element": "H" 
			},
			{
				"x": -1.9418752944,
				"y": 4.5227193993,
				"z": 1.1097990053,
				"element": "H" 
			},
			{
				"x": -3.1717692036,
				"y": 1.3100883276,
				"z": -0.5825244283,
				"element": "H" 
			},
			{
				"x": -0.0705916992,
				"y": -1.595029102,
				"z": -1.9374336278,
				"element": "H" 
			},
			{
				"x": 1.5375310644,
				"y": -0.863409836,
				"z": -1.724072482,
				"element": "H" 
			},
			{
				"x": -2.5403369506,
				"y": -2.1366429094,
				"z": 0.0777794693,
				"element": "H" 
			},
			{
				"x": -3.3946184803,
				"y": -3.3739700652,
				"z": -0.889176408,
				"element": "H" 
			},
			{
				"x": -2.685967975,
				"y": -3.8145080088,
				"z": 0.6929215581,
				"element": "H" 
			},
			{
				"x": 2.8680153655,
				"y": -4.0653156705,
				"z": -0.6656780331,
				"element": "H" 
			},
			{
				"x": 2.0896440946,
				"y": -5.6228343733,
				"z": -0.2560201242,
				"element": "H" 
			},
			{
				"x": 2.5416675021,
				"y": -5.26297422,
				"z": -1.9506266472,
				"element": "H" 
			},
			{
				"x": 1.6272043615,
				"y": 1.5980237305,
				"z": -1.4542543035,
				"element": "H" 
			}
		],
		 "valence_orbital": [ 
			{
				"type": "occ",
				"energy": -0.30085,
				"method": "rhf"
			},
			{
				"type": "occ",
				"energy": -0.27765,
				"method": "rhf"
			},
			{
				"type": "occ",
				"energy": -0.26622,
				"method": "rhf"
			},
			{
				"type": "occ",
				"energy": -0.24622,
				"method": "rhf"
			},
			{
				"type": "occ",
				"energy": -0.23589,
				"method": "rhf"
			},
			{
				"type": "unocc",
				"energy": -0.05483,
				"method": "rhf"
			},
			{
				"type": "unocc",
				"energy": -0.02402,
				"method": "rhf"
			},
			{
				"type": "unocc",
				"energy": -0.00128,
				"method": "rhf"
			},
			{
				"type": "unocc",
				"energy": 0.03807,
				"method": "rhf"
			},
			{
				"type": "unocc",
				"energy": 0.06638,
				"method": "rhf"
			}
		],
		"cosmo_sigma_profile": { 
			"-0.025": 0.0,
			"-0.024": 0.0,
			"-0.023": 0.0,
			"-0.022": 0.0,
			"-0.021": 0.0,
			"-0.02": 0.0,
			"-0.019": 0.0,
			"-0.018": 0.0,
			"-0.017": 0.0,
			"-0.016": 0.0,
			"-0.015": 0.0,
			"-0.014": 0.0,
			"-0.013": 0.0,
			"-0.012": 0.0,
			"-0.011": 0.0193991993956,
			"-0.01": 1.26042610078,
			"-0.009": 4.30058071726,
			"-0.008": 6.91424356215,
			"-0.007": 10.2089946048,
			"-0.006": 15.5884422775,
			"-0.005": 25.0150363406,
			"-0.004": 32.7044228879,
			"-0.003": 28.0522262438,
			"-0.002": 25.1796364518,
			"-0.001": 22.5459264242,
			"0.0": 18.9248130332,
			"0.001": 15.4914179752,
			"0.002": 13.694378736,
			"0.003": 11.9041132233,
			"0.004": 9.90653497767,
			"0.005": 8.1117650723,
			"0.006": 8.97961596656,
			"0.007": 5.62594732445,
			"0.008": 5.05398347139,
			"0.009": 6.72602160541,
			"0.01": 6.21534205637,
			"0.011": 3.44390664832,
			"0.012": 4.1881144901,
			"0.013": 9.63545398173,
			"0.014": 3.84263446265,
			"0.015": 0.358870915146,
			"0.016": 0.0,
			"0.017": 0.0,
			"0.018": 0.0,
			"0.019": 0.0,
			"0.02": 0.0,
			"0.021": 0.0,
			"0.022": 0.0,
			"0.023": 0.0,
			"0.024": 0.0,
			"0.025": 0.0
		}
	}
}
