{
	 "smiles": "CCN1CN(CC)CN(CC)C1", 
	 "Tm": 343.15, 
	 "num_atms": 33, 
	 "gaussian": { 
		 "optdone": 1, 
		 "sigma_profile": "yes", 
		 "theory": "DFT", 
		 "functional": "B3LYP", 
		 "basiset": "6-31G**", 
		 "properties": { 
			 "R2extent": 3000.7676, 
			 "electric_dipole_moment_norm": 1.11704576003, 
			 "electric_quadrupole_moment_norm": 4.57468913042, 
			 "total_energy": -519.846854328, 
			 "HOMO_LUMO_gap": 0.28388, 
			 "cosmo_polarized_energy": -6.37, 
			 "cosmo_cavitation_energy": 31.8, 
			 "cosmo_dispersion_energy": -22.56, 
			 "cosmo_repulsion_energy": 1.81, 
			 "cosmo_total_nonelectrostatic_energy": 11.06, 
			 "SMD_solvation_energy": -0.87 
		},
		"coords": [
			{
				"x": -1.6008099255,
				"y": 1.8169096828,
				"z": 1.7994148252,
				"element": "C" 
			},
			{
				"x": -1.589723341,
				"y": 0.4608710554,
				"z": 1.0665534518,
				"element": "C" 
			},
			{
				"x": -0.3459794936,
				"y": 0.045902267,
				"z": 0.4236004213,
				"element": "N" 
			},
			{
				"x": 0.093470955,
				"y": 0.8845858809,
				"z": -0.694617143,
				"element": "C" 
			},
			{
				"x": 1.1872680163,
				"y": 0.2663085072,
				"z": -1.4261877557,
				"element": "N" 
			},
			{
				"x": 0.7785170168,
				"y": -0.9253850168,
				"z": -2.1934345266,
				"element": "C" 
			},
			{
				"x": 1.7727603358,
				"y": -1.2644819253,
				"z": -3.3047210038,
				"element": "C" 
			},
			{
				"x": 2.2799879579,
				"y": 0.0148713103,
				"z": -0.50016632,
				"element": "C" 
			},
			{
				"x": 1.8703777363,
				"y": -0.8398330495,
				"z": 0.6273594383,
				"element": "N" 
			},
			{
				"x": 2.9723477229,
				"y": -1.1462394564,
				"z": 1.5395678996,
				"element": "C" 
			},
			{
				"x": 3.9815745388,
				"y": -2.1357772377,
				"z": 0.9531776647,
				"element": "C" 
			},
			{
				"x": 0.7584087768,
				"y": -0.204669273,
				"z": 1.3372646833,
				"element": "C" 
			},
			{
				"x": -1.3685281499,
				"y": 2.6469970541,
				"z": 1.1244730958,
				"element": "H" 
			},
			{
				"x": -2.5939382453,
				"y": 2.003574991,
				"z": 2.2222743996,
				"element": "H" 
			},
			{
				"x": -0.8809482854,
				"y": 1.8431153854,
				"z": 2.6235131257,
				"element": "H" 
			},
			{
				"x": -1.8728311198,
				"y": -0.330100582,
				"z": 1.7735137383,
				"element": "H" 
			},
			{
				"x": -2.3650203057,
				"y": 0.4710965256,
				"z": 0.2893947547,
				"element": "H" 
			},
			{
				"x": -0.7570205221,
				"y": 1.0449416896,
				"z": -1.366205986,
				"element": "H" 
			},
			{
				"x": 0.4493877888,
				"y": 1.8765919104,
				"z": -0.3561489803,
				"element": "H" 
			},
			{
				"x": -0.1913482728,
				"y": -0.6928686482,
				"z": -2.6474159401,
				"element": "H" 
			},
			{
				"x": 0.6233230757,
				"y": -1.7930298758,
				"z": -1.537674363,
				"element": "H" 
			},
			{
				"x": 2.7469344127,
				"y": -1.5702637848,
				"z": -2.9090711183,
				"element": "H" 
			},
			{
				"x": 1.3945345696,
				"y": -2.0972934576,
				"z": -3.9071803604,
				"element": "H" 
			},
			{
				"x": 1.9296937484,
				"y": -0.4028154584,
				"z": -3.9608078183,
				"element": "H" 
			},
			{
				"x": 3.1054432068,
				"y": -0.465729625,
				"z": -1.0280205788,
				"element": "H" 
			},
			{
				"x": 2.644654448,
				"y": 0.9967419056,
				"z": -0.1360090246,
				"element": "H" 
			},
			{
				"x": 3.4988845205,
				"y": -0.2286772543,
				"z": 1.8724282379,
				"element": "H" 
			},
			{
				"x": 2.5331328697,
				"y": -1.5894919223,
				"z": 2.4417655112,
				"element": "H" 
			},
			{
				"x": 3.4722982158,
				"y": -3.0445005685,
				"z": 0.6193686717,
				"element": "H" 
			},
			{
				"x": 4.7228372175,
				"y": -2.4100407942,
				"z": 1.7108356984,
				"element": "H" 
			},
			{
				"x": 4.5280120675,
				"y": -1.7195677925,
				"z": 0.10143869,
				"element": "H" 
			},
			{
				"x": 1.1082692263,
				"y": 0.7357429677,
				"z": 1.8333142144,
				"element": "H" 
			},
			{
				"x": 0.413429237,
				"y": -0.8810854107,
				"z": 2.1291023968,
				"element": "H" 
			}
		],
		 "valence_orbital": [ 
			{
				"type": "occ",
				"energy": -0.33164,
				"method": "rhf"
			},
			{
				"type": "occ",
				"energy": -0.32362,
				"method": "rhf"
			},
			{
				"type": "occ",
				"energy": -0.21767,
				"method": "rhf"
			},
			{
				"type": "occ",
				"energy": -0.21065,
				"method": "rhf"
			},
			{
				"type": "occ",
				"energy": -0.20445,
				"method": "rhf"
			},
			{
				"type": "unocc",
				"energy": 0.07943,
				"method": "rhf"
			},
			{
				"type": "unocc",
				"energy": 0.09291,
				"method": "rhf"
			},
			{
				"type": "unocc",
				"energy": 0.10715,
				"method": "rhf"
			},
			{
				"type": "unocc",
				"energy": 0.11082,
				"method": "rhf"
			},
			{
				"type": "unocc",
				"energy": 0.12335,
				"method": "rhf"
			}
		],
		"cosmo_sigma_profile": { 
			"-0.025": 0.0,
			"-0.024": 0.0,
			"-0.023": 0.0,
			"-0.022": 0.0,
			"-0.021": 0.0,
			"-0.02": 0.0,
			"-0.019": 0.0,
			"-0.018": 0.0,
			"-0.017": 0.0,
			"-0.016": 0.0,
			"-0.015": 0.0,
			"-0.014": 0.0,
			"-0.013": 0.0,
			"-0.012": 0.0,
			"-0.011": 0.0,
			"-0.01": 0.0,
			"-0.009": 0.0,
			"-0.008": 0.0,
			"-0.007": 0.0,
			"-0.006": 0.0,
			"-0.005": 2.37297889251,
			"-0.004": 15.2313819303,
			"-0.003": 28.2396654632,
			"-0.002": 41.8549811016,
			"-0.001": 49.4241974839,
			"0.0": 37.149439776,
			"0.001": 27.9518537177,
			"0.002": 12.7544042447,
			"0.003": 3.94270498972,
			"0.004": 2.75503543405,
			"0.005": 2.53334391024,
			"0.006": 2.26251604378,
			"0.007": 2.02371965761,
			"0.008": 2.19111038996,
			"0.009": 2.29945929314,
			"0.01": 2.3487190773,
			"0.011": 1.83200065788,
			"0.012": 1.62473728408,
			"0.013": 1.96989012147,
			"0.014": 2.22338290171,
			"0.015": 0.802980088708,
			"0.016": 0.211030113411,
			"0.017": 0.0,
			"0.018": 0.0,
			"0.019": 0.0,
			"0.02": 0.0,
			"0.021": 0.0,
			"0.022": 0.0,
			"0.023": 0.0,
			"0.024": 0.0,
			"0.025": 0.0
		}
	}
}
