{
	 "smiles": "CCCCCCCCCCCCCCCCN", 
	 "Tm": 319.95, 
	 "num_atms": 52, 
	 "gaussian": { 
		 "optdone": 1, 
		 "sigma_profile": "yes", 
		 "theory": "DFT", 
		 "functional": "B3LYP", 
		 "basiset": "6-31G**", 
		 "properties": { 
			 "R2extent": 10050.5112, 
			 "electric_dipole_moment_norm": 1.44997197559, 
			 "electric_quadrupole_moment_norm": 11.5214297429, 
			 "total_energy": -685.591387375, 
			 "HOMO_LUMO_gap": 0.30648, 
			 "cosmo_polarized_energy": -5.64, 
			 "cosmo_cavitation_energy": 50.3, 
			 "cosmo_dispersion_energy": -34.06, 
			 "cosmo_repulsion_energy": 2.83, 
			 "cosmo_total_nonelectrostatic_energy": 19.07, 
			 "SMD_solvation_energy": 5.12 
		},
		"coords": [
			{
				"x": 3.5369803175,
				"y": -4.9425519802,
				"z": 1.2252139996,
				"element": "C" 
			},
			{
				"x": 2.5601891561,
				"y": -3.9567739666,
				"z": 0.5745397539,
				"element": "C" 
			},
			{
				"x": 1.2203784417,
				"y": -4.60816249,
				"z": 0.2051278966,
				"element": "C" 
			},
			{
				"x": 0.1310673535,
				"y": -3.6682952194,
				"z": -0.3425117905,
				"element": "C" 
			},
			{
				"x": 0.4398507713,
				"y": -2.9802617656,
				"z": -1.6911145229,
				"element": "C" 
			},
			{
				"x": 1.1102375577,
				"y": -1.6007768043,
				"z": -1.5891029064,
				"element": "C" 
			},
			{
				"x": 1.3715039797,
				"y": -0.9623883428,
				"z": -2.960545437,
				"element": "C" 
			},
			{
				"x": 2.1032308286,
				"y": 0.3910057372,
				"z": -2.9118442466,
				"element": "C" 
			},
			{
				"x": 1.3603693403,
				"y": 1.535199848,
				"z": -2.1986289311,
				"element": "C" 
			},
			{
				"x": 0.0392822888,
				"y": 1.945272872,
				"z": -2.8671372657,
				"element": "C" 
			},
			{
				"x": -0.6212808591,
				"y": 3.1943234835,
				"z": -2.2598235941,
				"element": "C" 
			},
			{
				"x": -1.1210488582,
				"y": 3.0227511836,
				"z": -0.817847852,
				"element": "C" 
			},
			{
				"x": -1.8389152888,
				"y": 4.2707031103,
				"z": -0.2835706758,
				"element": "C" 
			},
			{
				"x": -2.2939080645,
				"y": 4.177303695,
				"z": 1.1824524414,
				"element": "C" 
			},
			{
				"x": -3.3965348095,
				"y": 3.1438419205,
				"z": 1.4511150159,
				"element": "C" 
			},
			{
				"x": -3.8879733003,
				"y": 3.1199554377,
				"z": 2.9111824166,
				"element": "C" 
			},
			{
				"x": -2.9132760783,
				"y": 2.7302503147,
				"z": 3.9346063045,
				"element": "N" 
			},
			{
				"x": 3.1214866758,
				"y": -5.359959994,
				"z": 2.1496746846,
				"element": "H" 
			},
			{
				"x": 3.7569302403,
				"y": -5.7821086478,
				"z": 0.5555990359,
				"element": "H" 
			},
			{
				"x": 4.4876112599,
				"y": -4.4602256507,
				"z": 1.4756711834,
				"element": "H" 
			},
			{
				"x": 3.0268231917,
				"y": -3.5293669913,
				"z": -0.3213503629,
				"element": "H" 
			},
			{
				"x": 2.3799778994,
				"y": -3.1148718633,
				"z": 1.2572084447,
				"element": "H" 
			},
			{
				"x": 1.4033396254,
				"y": -5.4056860874,
				"z": -0.5297649087,
				"element": "H" 
			},
			{
				"x": 0.8217437169,
				"y": -5.1109415906,
				"z": 1.0976257345,
				"element": "H" 
			},
			{
				"x": -0.7844053048,
				"y": -4.2627090871,
				"z": -0.4544860555,
				"element": "H" 
			},
			{
				"x": -0.1033912016,
				"y": -2.9026357226,
				"z": 0.4109471468,
				"element": "H" 
			},
			{
				"x": 1.0611386434,
				"y": -3.6465285434,
				"z": -2.3070093124,
				"element": "H" 
			},
			{
				"x": -0.4985129784,
				"y": -2.8550725829,
				"z": -2.2479213441,
				"element": "H" 
			},
			{
				"x": 2.0581479536,
				"y": -1.6764099248,
				"z": -1.0415521118,
				"element": "H" 
			},
			{
				"x": 0.4664094957,
				"y": -0.9449186229,
				"z": -0.9876627434,
				"element": "H" 
			},
			{
				"x": 1.9734710972,
				"y": -1.6565120304,
				"z": -3.5630000434,
				"element": "H" 
			},
			{
				"x": 0.4192910271,
				"y": -0.8543666816,
				"z": -3.4973639408,
				"element": "H" 
			},
			{
				"x": 3.0763328326,
				"y": 0.2461238145,
				"z": -2.4226786752,
				"element": "H" 
			},
			{
				"x": 2.3263731378,
				"y": 0.7057361756,
				"z": -3.9406537489,
				"element": "H" 
			},
			{
				"x": 2.024068673,
				"y": 2.4106659178,
				"z": -2.1689483002,
				"element": "H" 
			},
			{
				"x": 1.1815432519,
				"y": 1.2615070525,
				"z": -1.1516163404,
				"element": "H" 
			},
			{
				"x": -0.674835457,
				"y": 1.1114465471,
				"z": -2.8293623186,
				"element": "H" 
			},
			{
				"x": 0.22950269,
				"y": 2.1313920929,
				"z": -3.9333696652,
				"element": "H" 
			},
			{
				"x": -1.4707730787,
				"y": 3.4862190518,
				"z": -2.8924316853,
				"element": "H" 
			},
			{
				"x": 0.0872150639,
				"y": 4.0344259296,
				"z": -2.2997908069,
				"element": "H" 
			},
			{
				"x": -1.7940898369,
				"y": 2.1556719372,
				"z": -0.7767766208,
				"element": "H" 
			},
			{
				"x": -0.2779762866,
				"y": 2.7869065572,
				"z": -0.1544126289,
				"element": "H" 
			},
			{
				"x": -2.7092857906,
				"y": 4.4884032106,
				"z": -0.9192155661,
				"element": "H" 
			},
			{
				"x": -1.1664769687,
				"y": 5.1331656946,
				"z": -0.3881722051,
				"element": "H" 
			},
			{
				"x": -1.4205931677,
				"y": 3.9547696767,
				"z": 1.8120409488,
				"element": "H" 
			},
			{
				"x": -2.6555848912,
				"y": 5.1646550594,
				"z": 1.5026653729,
				"element": "H" 
			},
			{
				"x": -4.2541320186,
				"y": 3.3548483112,
				"z": 0.7957437388,
				"element": "H" 
			},
			{
				"x": -3.0463017799,
				"y": 2.13775383,
				"z": 1.1814849685,
				"element": "H" 
			},
			{
				"x": -4.2707763738,
				"y": 4.1132230238,
				"z": 3.1811061161,
				"element": "H" 
			},
			{
				"x": -4.740557024,
				"y": 2.4338600381,
				"z": 2.9885581794,
				"element": "H" 
			},
			{
				"x": -2.5196918591,
				"y": 1.8190421364,
				"z": 3.7076581191,
				"element": "H" 
			},
			{
				"x": -2.1328752344,
				"y": 3.3822009303,
				"z": 3.9436451049,
				"element": "H" 
			}
		],
		 "valence_orbital": [ 
			{
				"type": "occ",
				"energy": -0.30484,
				"method": "rhf"
			},
			{
				"type": "occ",
				"energy": -0.3016,
				"method": "rhf"
			},
			{
				"type": "occ",
				"energy": -0.29991,
				"method": "rhf"
			},
			{
				"type": "occ",
				"energy": -0.29545,
				"method": "rhf"
			},
			{
				"type": "occ",
				"energy": -0.22745,
				"method": "rhf"
			},
			{
				"type": "unocc",
				"energy": 0.07903,
				"method": "rhf"
			},
			{
				"type": "unocc",
				"energy": 0.08083,
				"method": "rhf"
			},
			{
				"type": "unocc",
				"energy": 0.09295,
				"method": "rhf"
			},
			{
				"type": "unocc",
				"energy": 0.09946,
				"method": "rhf"
			},
			{
				"type": "unocc",
				"energy": 0.10375,
				"method": "rhf"
			}
		],
		"cosmo_sigma_profile": { 
			"-0.025": 0.0,
			"-0.024": 0.0,
			"-0.023": 0.0,
			"-0.022": 0.0,
			"-0.021": 0.0,
			"-0.02": 0.0,
			"-0.019": 0.0,
			"-0.018": 0.0,
			"-0.017": 0.0,
			"-0.016": 0.0,
			"-0.015": 0.111462633559,
			"-0.014": 0.216147170993,
			"-0.013": 0.0965182337166,
			"-0.012": 0.223796226547,
			"-0.011": 0.388501400931,
			"-0.01": 0.135907273956,
			"-0.009": 1.12551704644,
			"-0.008": 2.50247079298,
			"-0.007": 2.56978544854,
			"-0.006": 2.66018144693,
			"-0.005": 3.94438323557,
			"-0.004": 2.76914185565,
			"-0.003": 5.65067384923,
			"-0.002": 40.5559821468,
			"-0.001": 92.8794881626,
			"0.0": 99.0721788072,
			"0.001": 79.4164520396,
			"0.002": 34.1580126718,
			"0.003": 1.67802238611,
			"0.004": 1.47873633979,
			"0.005": 0.770905798182,
			"0.006": 0.381528683327,
			"0.007": 0.836869622422,
			"0.008": 1.17710135693,
			"0.009": 0.684725371097,
			"0.01": 0.774198651148,
			"0.011": 0.73039073827,
			"0.012": 0.622654888636,
			"0.013": 0.570563503636,
			"0.014": 0.853812396299,
			"0.015": 0.567902082101,
			"0.016": 0.826650016983,
			"0.017": 0.626182736163,
			"0.018": 0.506523231507,
			"0.019": 0.940223712181,
			"0.02": 0.449994135322,
			"0.021": 0.0857252638437,
			"0.022": 0.0,
			"0.023": 0.0,
			"0.024": 0.0,
			"0.025": 0.0
		}
	}
}
