{
	 "smiles": "CCOCCOC1=C(C=CC(O)=O)C=C(Br)C=C1", 
	 "Tm": 383.15, 
	 "num_atms": 33, 
	 "gaussian": { 
		 "optdone": 1, 
		 "sigma_profile": "yes", 
		 "theory": "DFT", 
		 "functional": "B3LYP", 
		 "basiset": "6-31G**", 
		 "properties": { 
			 "R2extent": 11085.3606, 
			 "electric_dipole_moment_norm": 4.39642834355, 
			 "electric_quadrupole_moment_norm": 16.7240264028, 
			 "total_energy": -3376.69994154, 
			 "HOMO_LUMO_gap": 0.15578, 
			 "cosmo_polarized_energy": -13.94, 
			 "cosmo_cavitation_energy": 39.69, 
			 "cosmo_dispersion_energy": -27.41, 
			 "cosmo_repulsion_energy": 2.16, 
			 "cosmo_total_nonelectrostatic_energy": 14.45, 
			 "SMD_solvation_energy": 7.13 
		},
		"coords": [
			{
				"x": 0.4931457365,
				"y": -0.8306982964,
				"z": -3.1238925678,
				"element": "C" 
			},
			{
				"x": 1.2749431262,
				"y": -0.9962016259,
				"z": -1.8319724788,
				"element": "C" 
			},
			{
				"x": 1.0356648738,
				"y": 0.1395143238,
				"z": -1.011417662,
				"element": "O" 
			},
			{
				"x": 1.69696142,
				"y": 0.0775576242,
				"z": 0.2333799835,
				"element": "C" 
			},
			{
				"x": 1.338159406,
				"y": 1.3134055564,
				"z": 1.0422482741,
				"element": "C" 
			},
			{
				"x": -0.06199657,
				"y": 1.399499243,
				"z": 1.3232379675,
				"element": "O" 
			},
			{
				"x": -0.6100221904,
				"y": 0.5177838653,
				"z": 2.2209054092,
				"element": "C" 
			},
			{
				"x": -1.7875231966,
				"y": -0.1784450479,
				"z": 1.8347955246,
				"element": "C" 
			},
			{
				"x": -2.2315979408,
				"y": -0.0140981948,
				"z": 0.4487079521,
				"element": "C" 
			},
			{
				"x": -3.349485814,
				"y": -0.3391317126,
				"z": -0.2448943468,
				"element": "C" 
			},
			{
				"x": -4.6056893908,
				"y": -0.9739305756,
				"z": 0.1846661536,
				"element": "C" 
			},
			{
				"x": -5.4975472138,
				"y": -0.9808002248,
				"z": -0.8438452211,
				"element": "O" 
			},
			{
				"x": -4.9003747137,
				"y": -1.4534308737,
				"z": 1.2674463555,
				"element": "O" 
			},
			{
				"x": -2.4063760365,
				"y": -1.0088744535,
				"z": 2.791501624,
				"element": "C" 
			},
			{
				"x": -1.8557150866,
				"y": -1.1512703055,
				"z": 4.0576664465,
				"element": "C" 
			},
			{
				"x": -2.7044549134,
				"y": -2.3013510639,
				"z": 5.3294458875,
				"element": "Br" 
			},
			{
				"x": -0.6951001063,
				"y": -0.4727348661,
				"z": 4.4281153385,
				"element": "C" 
			},
			{
				"x": -0.0787826915,
				"y": 0.3665754178,
				"z": 3.504200732,
				"element": "C" 
			},
			{
				"x": -0.5793384866,
				"y": -0.7674348987,
				"z": -2.918590927,
				"element": "H" 
			},
			{
				"x": 0.7986673364,
				"y": 0.0817026951,
				"z": -3.6439825488,
				"element": "H" 
			},
			{
				"x": 0.6685664297,
				"y": -1.6838794531,
				"z": -3.7864168095,
				"element": "H" 
			},
			{
				"x": 0.966050916,
				"y": -1.9143123299,
				"z": -1.3056264333,
				"element": "H" 
			},
			{
				"x": 2.3542145554,
				"y": -1.0887627799,
				"z": -2.0400983263,
				"element": "H" 
			},
			{
				"x": 2.7931018885,
				"y": 0.0502852963,
				"z": 0.1021442877,
				"element": "H" 
			},
			{
				"x": 1.410931756,
				"y": -0.8323926868,
				"z": 0.7867707156,
				"element": "H" 
			},
			{
				"x": 1.9351679636,
				"y": 1.3337464039,
				"z": 1.9624796267,
				"element": "H" 
			},
			{
				"x": 1.5627656744,
				"y": 2.2133569739,
				"z": 0.4649379081,
				"element": "H" 
			},
			{
				"x": -1.4747833518,
				"y": 0.4827280637,
				"z": -0.1519766903,
				"element": "H" 
			},
			{
				"x": -3.3571216663,
				"y": -0.0672478116,
				"z": -1.2960815652,
				"element": "H" 
			},
			{
				"x": -6.2955895099,
				"y": -1.4100775626,
				"z": -0.4941704172,
				"element": "H" 
			},
			{
				"x": -3.3151001852,
				"y": -1.5298339509,
				"z": 2.5225951943,
				"element": "H" 
			},
			{
				"x": -0.2869601699,
				"y": -0.5859288142,
				"z": 5.4260870623,
				"element": "H" 
			},
			{
				"x": 0.8037181516,
				"y": 0.9266820654,
				"z": 3.7944335506,
				"element": "H" 
			}
		],
		 "valence_orbital": [ 
			{
				"type": "occ",
				"energy": -0.28031,
				"method": "rhf"
			},
			{
				"type": "occ",
				"energy": -0.26895,
				"method": "rhf"
			},
			{
				"type": "occ",
				"energy": -0.26727,
				"method": "rhf"
			},
			{
				"type": "occ",
				"energy": -0.24609,
				"method": "rhf"
			},
			{
				"type": "occ",
				"energy": -0.22434,
				"method": "rhf"
			},
			{
				"type": "unocc",
				"energy": -0.06856,
				"method": "rhf"
			},
			{
				"type": "unocc",
				"energy": -0.00945,
				"method": "rhf"
			},
			{
				"type": "unocc",
				"energy": 0.01048,
				"method": "rhf"
			},
			{
				"type": "unocc",
				"energy": 0.01378,
				"method": "rhf"
			},
			{
				"type": "unocc",
				"energy": 0.07641,
				"method": "rhf"
			}
		],
		"cosmo_sigma_profile": { 
			"-0.025": 0.0,
			"-0.024": 0.0,
			"-0.023": 0.0,
			"-0.022": 0.0,
			"-0.021": 0.0,
			"-0.02": 0.0,
			"-0.019": 0.0,
			"-0.018": 0.483290040488,
			"-0.017": 0.827495766418,
			"-0.016": 0.879749788501,
			"-0.015": 0.697683397352,
			"-0.014": 1.06772257542,
			"-0.013": 0.660974543379,
			"-0.012": 0.15195111158,
			"-0.011": 0.741557604385,
			"-0.01": 1.1142967044,
			"-0.009": 0.868781485517,
			"-0.008": 3.73552709279,
			"-0.007": 6.0621588511,
			"-0.006": 11.8522698581,
			"-0.005": 13.2962778624,
			"-0.004": 23.3362265751,
			"-0.003": 28.5371690951,
			"-0.002": 26.7045139455,
			"-0.001": 23.9191046435,
			"0.0": 25.3371971071,
			"0.001": 29.2779456787,
			"0.002": 35.9635408436,
			"0.003": 22.5455491991,
			"0.004": 15.9799656211,
			"0.005": 12.9901804043,
			"0.006": 5.55480427815,
			"0.007": 5.80414888574,
			"0.008": 4.70372398824,
			"0.009": 5.13106841325,
			"0.01": 4.67780198025,
			"0.011": 2.99747988147,
			"0.012": 2.16395625398,
			"0.013": 0.0623628230775,
			"0.014": 0.0,
			"0.015": 0.0,
			"0.016": 0.0,
			"0.017": 0.0,
			"0.018": 0.0,
			"0.019": 0.0,
			"0.02": 0.0,
			"0.021": 0.0,
			"0.022": 0.0,
			"0.023": 0.0,
			"0.024": 0.0,
			"0.025": 0.0
		}
	}
}
