{
	 "smiles": "OC1=CC=C(NC(=O)C2=CC=CO2)C=C1", 
	 "Tm": 492.15, 
	 "num_atms": 24, 
	 "gaussian": { 
		 "optdone": 1, 
		 "sigma_profile": "yes", 
		 "theory": "DFT", 
		 "functional": "B3LYP", 
		 "basiset": "6-31G**", 
		 "properties": { 
			 "R2extent": 3693.2561, 
			 "electric_dipole_moment_norm": 3.76385243335, 
			 "electric_quadrupole_moment_norm": 16.1688595764, 
			 "total_energy": -704.993080674, 
			 "HOMO_LUMO_gap": 0.17957, 
			 "cosmo_polarized_energy": -16.8, 
			 "cosmo_cavitation_energy": 29.47, 
			 "cosmo_dispersion_energy": -20.93, 
			 "cosmo_repulsion_energy": 1.65, 
			 "cosmo_total_nonelectrostatic_energy": 10.19, 
			 "SMD_solvation_energy": 6.98 
		},
		"coords": [
			{
				"x": 1.9397085981,
				"y": 2.2570237603,
				"z": -3.1703449092,
				"element": "O" 
			},
			{
				"x": 1.4998299426,
				"y": 2.0381246497,
				"z": -1.8953352272,
				"element": "C" 
			},
			{
				"x": 1.9171910398,
				"y": 0.9468539113,
				"z": -1.1257300496,
				"element": "C" 
			},
			{
				"x": 1.4439737809,
				"y": 0.7856767059,
				"z": 0.1748725825,
				"element": "C" 
			},
			{
				"x": 0.5231933024,
				"y": 1.6913707521,
				"z": 0.7117151425,
				"element": "C" 
			},
			{
				"x": 0.048798611,
				"y": 1.5731307294,
				"z": 2.0498244846,
				"element": "N" 
			},
			{
				"x": -0.3752383076,
				"y": 0.4657742985,
				"z": 2.7555664653,
				"element": "C" 
			},
			{
				"x": -0.3860900647,
				"y": 0.4721910327,
				"z": 3.9844394347,
				"element": "O" 
			},
			{
				"x": -0.8772245232,
				"y": -0.719923095,
				"z": 2.03439714,
				"element": "C" 
			},
			{
				"x": -1.181367714,
				"y": -1.954033071,
				"z": 2.5448703127,
				"element": "C" 
			},
			{
				"x": -1.6898937037,
				"y": -2.7277720364,
				"z": 1.4601687097,
				"element": "C" 
			},
			{
				"x": -1.6674125004,
				"y": -1.9066095478,
				"z": 0.3694950245,
				"element": "C" 
			},
			{
				"x": -1.1776069521,
				"y": -0.6843790618,
				"z": 0.6976871866,
				"element": "O" 
			},
			{
				"x": 0.1075901001,
				"y": 2.7789559352,
				"z": -0.0670311254,
				"element": "C" 
			},
			{
				"x": 0.5970610075,
				"y": 2.9613188862,
				"z": -1.3561946809,
				"element": "C" 
			},
			{
				"x": 2.555513985,
				"y": 1.5555570893,
				"z": -3.4185851345,
				"element": "H" 
			},
			{
				"x": 2.6281635129,
				"y": 0.2318419275,
				"z": -1.5344948905,
				"element": "H" 
			},
			{
				"x": 1.7935413417,
				"y": -0.0464515762,
				"z": 0.7774116738,
				"element": "H" 
			},
			{
				"x": 0.2582341736,
				"y": 2.3396807925,
				"z": 2.6788947911,
				"element": "H" 
			},
			{
				"x": -1.0552359262,
				"y": -2.2474158753,
				"z": 3.5759479895,
				"element": "H" 
			},
			{
				"x": -2.0312221452,
				"y": -3.7524510216,
				"z": 1.4860931207,
				"element": "H" 
			},
			{
				"x": -1.9559694909,
				"y": -2.0345622676,
				"z": -0.6626404587,
				"element": "H" 
			},
			{
				"x": -0.6101887923,
				"y": 3.4821120922,
				"z": 0.345063209,
				"element": "H" 
			},
			{
				"x": 0.2821507248,
				"y": 3.8038849897,
				"z": -1.962590791,
				"element": "H" 
			}
		],
		 "valence_orbital": [ 
			{
				"type": "occ",
				"energy": -0.27357,
				"method": "rhf"
			},
			{
				"type": "occ",
				"energy": -0.25951,
				"method": "rhf"
			},
			{
				"type": "occ",
				"energy": -0.25358,
				"method": "rhf"
			},
			{
				"type": "occ",
				"energy": -0.23417,
				"method": "rhf"
			},
			{
				"type": "occ",
				"energy": -0.21384,
				"method": "rhf"
			},
			{
				"type": "unocc",
				"energy": -0.03427,
				"method": "rhf"
			},
			{
				"type": "unocc",
				"energy": -0.00999,
				"method": "rhf"
			},
			{
				"type": "unocc",
				"energy": 0.00742,
				"method": "rhf"
			},
			{
				"type": "unocc",
				"energy": 0.04745,
				"method": "rhf"
			},
			{
				"type": "unocc",
				"energy": 0.06514,
				"method": "rhf"
			}
		],
		"cosmo_sigma_profile": { 
			"-0.025": 0.0,
			"-0.024": 0.0,
			"-0.023": 0.0,
			"-0.022": 0.0,
			"-0.021": 0.0,
			"-0.02": 0.0,
			"-0.019": 0.0,
			"-0.018": 0.29153663591,
			"-0.017": 1.19656714979,
			"-0.016": 1.48757900669,
			"-0.015": 0.449152220977,
			"-0.014": 1.98691107198,
			"-0.013": 2.12621144916,
			"-0.012": 1.78021029319,
			"-0.011": 1.58220028511,
			"-0.01": 2.8108781226,
			"-0.009": 4.02551543916,
			"-0.008": 4.87633176418,
			"-0.007": 8.55801609914,
			"-0.006": 13.7125754146,
			"-0.005": 13.7220861079,
			"-0.004": 13.8579477145,
			"-0.003": 11.7412935245,
			"-0.002": 10.1492301336,
			"-0.001": 10.6596562645,
			"0.0": 12.8208837458,
			"0.001": 16.2243029931,
			"0.002": 17.3608729145,
			"0.003": 19.5451891267,
			"0.004": 18.5604133827,
			"0.005": 10.7802944603,
			"0.006": 5.34586273041,
			"0.007": 5.59458660598,
			"0.008": 5.09475423226,
			"0.009": 1.56153758097,
			"0.01": 2.8041101085,
			"0.011": 4.14216305981,
			"0.012": 2.64872663081,
			"0.013": 4.86019146161,
			"0.014": 3.70107709184,
			"0.015": 0.0575062332155,
			"0.016": 0.0,
			"0.017": 0.0,
			"0.018": 0.0,
			"0.019": 0.0,
			"0.02": 0.0,
			"0.021": 0.0,
			"0.022": 0.0,
			"0.023": 0.0,
			"0.024": 0.0,
			"0.025": 0.0
		}
	}
}
