{
	 "smiles": "CCCC(C)(Cl)Cl", 
	 "Tm": 401.15, 
	 "num_atms": 17, 
	 "gaussian": { 
		 "optdone": 1, 
		 "sigma_profile": "yes", 
		 "theory": "DFT", 
		 "functional": "B3LYP", 
		 "basiset": "6-31G**", 
		 "properties": { 
			 "R2extent": 2199.6148, 
			 "electric_dipole_moment_norm": 2.43411161823, 
			 "electric_quadrupole_moment_norm": 7.77784335276, 
			 "total_energy": -1116.96446635, 
			 "HOMO_LUMO_gap": 0.28661, 
			 "cosmo_polarized_energy": -4.34, 
			 "cosmo_cavitation_energy": 22.32, 
			 "cosmo_dispersion_energy": -16.36, 
			 "cosmo_repulsion_energy": 1.38, 
			 "cosmo_total_nonelectrostatic_energy": 7.34, 
			 "SMD_solvation_energy": 3.22 
		},
		"coords": [
			{
				"x": -0.7646300491,
				"y": -1.2510263839,
				"z": -1.4802813416,
				"element": "C" 
			},
			{
				"x": 0.4683082813,
				"y": -1.3270682174,
				"z": -0.5729723198,
				"element": "C" 
			},
			{
				"x": 0.6687093333,
				"y": -0.0327128492,
				"z": 0.2212717577,
				"element": "C" 
			},
			{
				"x": 1.8661801965,
				"y": 0.0359045855,
				"z": 1.1742134032,
				"element": "C" 
			},
			{
				"x": 1.9627896472,
				"y": 1.3679027475,
				"z": 1.9073370662,
				"element": "C" 
			},
			{
				"x": 1.7404832078,
				"y": -1.2923564302,
				"z": 2.4272258244,
				"element": "Cl" 
			},
			{
				"x": 3.4201345746,
				"y": -0.2097684208,
				"z": 0.2387979577,
				"element": "Cl" 
			},
			{
				"x": -1.6793601245,
				"y": -1.0826321705,
				"z": -0.9005218034,
				"element": "H" 
			},
			{
				"x": -0.8947041644,
				"y": -2.1817444781,
				"z": -2.0408076273,
				"element": "H" 
			},
			{
				"x": -0.6777997674,
				"y": -0.4355575113,
				"z": -2.2073913029,
				"element": "H" 
			},
			{
				"x": 1.3607314494,
				"y": -1.5245970197,
				"z": -1.175878146,
				"element": "H" 
			},
			{
				"x": 0.3659489698,
				"y": -2.1670015614,
				"z": 0.1219933092,
				"element": "H" 
			},
			{
				"x": 0.7763358248,
				"y": 0.8125946684,
				"z": -0.470842497,
				"element": "H" 
			},
			{
				"x": -0.2221200255,
				"y": 0.1686988022,
				"z": 0.8303747551,
				"element": "H" 
			},
			{
				"x": 1.0546325194,
				"y": 1.5280074159,
				"z": 2.4954755039,
				"element": "H" 
			},
			{
				"x": 2.0642540842,
				"y": 2.1786968494,
				"z": 1.180285811,
				"element": "H" 
			},
			{
				"x": 2.8246060426,
				"y": 1.3822599736,
				"z": 2.5760196496,
				"element": "H" 
			}
		],
		 "valence_orbital": [ 
			{
				"type": "occ",
				"energy": -0.33963,
				"method": "rhf"
			},
			{
				"type": "occ",
				"energy": -0.32167,
				"method": "rhf"
			},
			{
				"type": "occ",
				"energy": -0.30831,
				"method": "rhf"
			},
			{
				"type": "occ",
				"energy": -0.30075,
				"method": "rhf"
			},
			{
				"type": "occ",
				"energy": -0.29502,
				"method": "rhf"
			},
			{
				"type": "unocc",
				"energy": -0.00841,
				"method": "rhf"
			},
			{
				"type": "unocc",
				"energy": 0.02006,
				"method": "rhf"
			},
			{
				"type": "unocc",
				"energy": 0.08537,
				"method": "rhf"
			},
			{
				"type": "unocc",
				"energy": 0.10548,
				"method": "rhf"
			},
			{
				"type": "unocc",
				"energy": 0.13358,
				"method": "rhf"
			}
		],
		"cosmo_sigma_profile": { 
			"-0.025": 0.0,
			"-0.024": 0.0,
			"-0.023": 0.0,
			"-0.022": 0.0,
			"-0.021": 0.0,
			"-0.02": 0.0,
			"-0.019": 0.0,
			"-0.018": 0.0,
			"-0.017": 0.0,
			"-0.016": 0.0,
			"-0.015": 0.0,
			"-0.014": 0.0,
			"-0.013": 0.0,
			"-0.012": 0.0,
			"-0.011": 0.0,
			"-0.01": 0.0,
			"-0.009": 0.0,
			"-0.008": 0.0,
			"-0.007": 0.339648161246,
			"-0.006": 5.25960532565,
			"-0.005": 10.4021002293,
			"-0.004": 9.51801765057,
			"-0.003": 17.2531395245,
			"-0.002": 20.769068231,
			"-0.001": 21.8136475115,
			"0.0": 18.7035201219,
			"0.001": 18.3560389359,
			"0.002": 11.588493747,
			"0.003": 9.79973356532,
			"0.004": 10.49251903,
			"0.005": 16.0045557038,
			"0.006": 7.6108443302,
			"0.007": 0.00531040822146,
			"0.008": 0.0,
			"0.009": 0.0,
			"0.01": 0.0,
			"0.011": 0.0,
			"0.012": 0.0,
			"0.013": 0.0,
			"0.014": 0.0,
			"0.015": 0.0,
			"0.016": 0.0,
			"0.017": 0.0,
			"0.018": 0.0,
			"0.019": 0.0,
			"0.02": 0.0,
			"0.021": 0.0,
			"0.022": 0.0,
			"0.023": 0.0,
			"0.024": 0.0,
			"0.025": 0.0
		}
	}
}
