{
	 "smiles": "CCCCCCCCOC(=O)CCCCC", 
	 "Tm": 245.15, 
	 "num_atms": 44, 
	 "gaussian": { 
		 "optdone": 1, 
		 "sigma_profile": "yes", 
		 "theory": "DFT", 
		 "functional": "B3LYP", 
		 "basiset": "6-31G**", 
		 "properties": { 
			 "R2extent": 5638.8869, 
			 "electric_dipole_moment_norm": 1.59742714388, 
			 "electric_quadrupole_moment_norm": 10.1542236508, 
			 "total_energy": -700.858274908, 
			 "HOMO_LUMO_gap": 0.28251, 
			 "cosmo_polarized_energy": -6.26, 
			 "cosmo_cavitation_energy": 43.78, 
			 "cosmo_dispersion_energy": -27.92, 
			 "cosmo_repulsion_energy": 2.23, 
			 "cosmo_total_nonelectrostatic_energy": 18.09, 
			 "SMD_solvation_energy": 6.95 
		},
		"coords": [
			{
				"x": 0.7950645938,
				"y": -3.8907410274,
				"z": -0.3604594611,
				"element": "C" 
			},
			{
				"x": 0.0089616688,
				"y": -3.8003829013,
				"z": 0.9545467608,
				"element": "C" 
			},
			{
				"x": -1.5015850297,
				"y": -4.1004462056,
				"z": 0.8434496105,
				"element": "C" 
			},
			{
				"x": -2.414936976,
				"y": -2.907479717,
				"z": 0.5049395006,
				"element": "C" 
			},
			{
				"x": -2.2180214716,
				"y": -2.2774505233,
				"z": -0.8821525461,
				"element": "C" 
			},
			{
				"x": -3.3383568838,
				"y": -1.3033233605,
				"z": -1.2907361753,
				"element": "C" 
			},
			{
				"x": -3.5475522333,
				"y": -0.0637468209,
				"z": -0.4014687297,
				"element": "C" 
			},
			{
				"x": -2.4348231522,
				"y": 0.9756429652,
				"z": -0.4218023004,
				"element": "C" 
			},
			{
				"x": -1.2938350819,
				"y": 0.4707937493,
				"z": 0.3141327688,
				"element": "O" 
			},
			{
				"x": -0.2838088192,
				"y": 1.3503878707,
				"z": 0.5116835027,
				"element": "C" 
			},
			{
				"x": -0.3013051162,
				"y": 2.4888870488,
				"z": 0.0933115556,
				"element": "O" 
			},
			{
				"x": 0.8293306104,
				"y": 0.725185624,
				"z": 1.3331848195,
				"element": "C" 
			},
			{
				"x": 2.0642260294,
				"y": 1.6278080928,
				"z": 1.4552541586,
				"element": "C" 
			},
			{
				"x": 2.8995039305,
				"y": 1.7876208575,
				"z": 0.165527525,
				"element": "C" 
			},
			{
				"x": 4.0471270452,
				"y": 0.7788855601,
				"z": -0.0179074884,
				"element": "C" 
			},
			{
				"x": 3.6322179745,
				"y": -0.6903094597,
				"z": -0.1635182697,
				"element": "C" 
			},
			{
				"x": 1.8609263029,
				"y": -3.6989997281,
				"z": -0.1949266058,
				"element": "H" 
			},
			{
				"x": 0.4422832489,
				"y": -3.1730230319,
				"z": -1.1060998257,
				"element": "H" 
			},
			{
				"x": 0.7042404629,
				"y": -4.8911268032,
				"z": -0.7994532055,
				"element": "H" 
			},
			{
				"x": 0.1471347636,
				"y": -2.8067125373,
				"z": 1.4029976518,
				"element": "H" 
			},
			{
				"x": 0.4539762756,
				"y": -4.5104701084,
				"z": 1.6632445573,
				"element": "H" 
			},
			{
				"x": -1.8438715125,
				"y": -4.5073764199,
				"z": 1.8036308859,
				"element": "H" 
			},
			{
				"x": -1.657831169,
				"y": -4.9027012789,
				"z": 0.1077479619,
				"element": "H" 
			},
			{
				"x": -3.4576353639,
				"y": -3.2471103671,
				"z": 0.5895026986,
				"element": "H" 
			},
			{
				"x": -2.2823457883,
				"y": -2.1361855518,
				"z": 1.2744939677,
				"element": "H" 
			},
			{
				"x": -1.2542270435,
				"y": -1.7605145848,
				"z": -0.921976623,
				"element": "H" 
			},
			{
				"x": -2.1766787596,
				"y": -3.0759343131,
				"z": -1.635816351,
				"element": "H" 
			},
			{
				"x": -4.2864578727,
				"y": -1.8574946084,
				"z": -1.3211939951,
				"element": "H" 
			},
			{
				"x": -3.1557448715,
				"y": -0.9637947053,
				"z": -2.3197663203,
				"element": "H" 
			},
			{
				"x": -3.7385160057,
				"y": -0.3557907024,
				"z": 0.6378435663,
				"element": "H" 
			},
			{
				"x": -4.4556423956,
				"y": 0.4504208712,
				"z": -0.7427554972,
				"element": "H" 
			},
			{
				"x": -2.7573737441,
				"y": 1.9117405409,
				"z": 0.0439582954,
				"element": "H" 
			},
			{
				"x": -2.1175162239,
				"y": 1.2117319645,
				"z": -1.4442558911,
				"element": "H" 
			},
			{
				"x": 0.408115733,
				"y": 0.5104115245,
				"z": 2.3243490595,
				"element": "H" 
			},
			{
				"x": 1.0651115128,
				"y": -0.2505541705,
				"z": 0.896950759,
				"element": "H" 
			},
			{
				"x": 2.7030451536,
				"y": 1.2418145139,
				"z": 2.2599767084,
				"element": "H" 
			},
			{
				"x": 1.7173140849,
				"y": 2.6140981616,
				"z": 1.7791954627,
				"element": "H" 
			},
			{
				"x": 2.2338679276,
				"y": 1.7600588169,
				"z": -0.7062340405,
				"element": "H" 
			},
			{
				"x": 3.339349255,
				"y": 2.7920785134,
				"z": 0.1637023809,
				"element": "H" 
			},
			{
				"x": 4.7411016414,
				"y": 0.8729938926,
				"z": 0.8290795785,
				"element": "H" 
			},
			{
				"x": 4.6194029897,
				"y": 1.0719669652,
				"z": -0.9077377259,
				"element": "H" 
			},
			{
				"x": 4.501237166,
				"y": -1.3220459138,
				"z": -0.37658005,
				"element": "H" 
			},
			{
				"x": 2.9177841031,
				"y": -0.824146125,
				"z": -0.9842754945,
				"element": "H" 
			},
			{
				"x": 3.1684430407,
				"y": -1.0777665674,
				"z": 0.7497128605,
				"element": "H" 
			}
		],
		 "valence_orbital": [ 
			{
				"type": "occ",
				"energy": -0.30962,
				"method": "rhf"
			},
			{
				"type": "occ",
				"energy": -0.30433,
				"method": "rhf"
			},
			{
				"type": "occ",
				"energy": -0.30073,
				"method": "rhf"
			},
			{
				"type": "occ",
				"energy": -0.2922,
				"method": "rhf"
			},
			{
				"type": "occ",
				"energy": -0.2664,
				"method": "rhf"
			},
			{
				"type": "unocc",
				"energy": 0.01611,
				"method": "rhf"
			},
			{
				"type": "unocc",
				"energy": 0.06708,
				"method": "rhf"
			},
			{
				"type": "unocc",
				"energy": 0.08821,
				"method": "rhf"
			},
			{
				"type": "unocc",
				"energy": 0.09423,
				"method": "rhf"
			},
			{
				"type": "unocc",
				"energy": 0.10676,
				"method": "rhf"
			}
		],
		"cosmo_sigma_profile": { 
			"-0.025": 0.0,
			"-0.024": 0.0,
			"-0.023": 0.0,
			"-0.022": 0.0,
			"-0.021": 0.0,
			"-0.02": 0.0,
			"-0.019": 0.0,
			"-0.018": 0.0,
			"-0.017": 0.0,
			"-0.016": 0.0,
			"-0.015": 0.0,
			"-0.014": 0.0,
			"-0.013": 0.0,
			"-0.012": 0.0,
			"-0.011": 0.0,
			"-0.01": 0.0,
			"-0.009": 0.0,
			"-0.008": 0.0,
			"-0.007": 0.0,
			"-0.006": 1.03706552438,
			"-0.005": 4.97157387244,
			"-0.004": 10.2544930411,
			"-0.003": 23.0604134081,
			"-0.002": 54.9413069796,
			"-0.001": 65.3892933734,
			"0.0": 68.8056462428,
			"0.001": 57.0309249131,
			"0.002": 21.5083884401,
			"0.003": 3.88807984182,
			"0.004": 3.45732550577,
			"0.005": 3.92329140393,
			"0.006": 2.99005952133,
			"0.007": 1.694971357,
			"0.008": 1.7281795887,
			"0.009": 1.73528217407,
			"0.01": 2.04181072122,
			"0.011": 2.18855410218,
			"0.012": 4.33471446878,
			"0.013": 1.43324752119,
			"0.014": 0.0,
			"0.015": 0.0,
			"0.016": 0.0,
			"0.017": 0.0,
			"0.018": 0.0,
			"0.019": 0.0,
			"0.02": 0.0,
			"0.021": 0.0,
			"0.022": 0.0,
			"0.023": 0.0,
			"0.024": 0.0,
			"0.025": 0.0
		}
	}
}
