{
	 "smiles": "CCN1C(C)=NC2=C1C=CC(=C2)C(=O)NN", 
	 "Tm": 457.15, 
	 "num_atms": 30, 
	 "gaussian": { 
		 "optdone": 1, 
		 "sigma_profile": "yes", 
		 "theory": "DFT", 
		 "functional": "B3LYP", 
		 "basiset": "6-31G**", 
		 "properties": { 
			 "R2extent": 4831.949, 
			 "electric_dipole_moment_norm": 6.35402358982, 
			 "electric_quadrupole_moment_norm": 30.0990147902, 
			 "total_energy": -721.839373437, 
			 "HOMO_LUMO_gap": 0.19763, 
			 "cosmo_polarized_energy": -23.1, 
			 "cosmo_cavitation_energy": 33.64, 
			 "cosmo_dispersion_energy": -24.11, 
			 "cosmo_repulsion_energy": 1.9, 
			 "cosmo_total_nonelectrostatic_energy": 11.42, 
			 "SMD_solvation_energy": 4.94 
		},
		"coords": [
			{
				"x": -0.5626350543,
				"y": 0.1350288956,
				"z": -3.2602880254,
				"element": "C" 
			},
			{
				"x": 0.2151686305,
				"y": 1.1393788202,
				"z": -2.4037463182,
				"element": "C" 
			},
			{
				"x": -0.2267893966,
				"y": 1.1736821081,
				"z": -1.0151909559,
				"element": "N" 
			},
			{
				"x": -1.1462642561,
				"y": 2.0425775931,
				"z": -0.4350725293,
				"element": "C" 
			},
			{
				"x": -1.7803550272,
				"y": 3.1644327705,
				"z": -1.1921225746,
				"element": "C" 
			},
			{
				"x": -1.3792818608,
				"y": 1.7795987822,
				"z": 0.8280673089,
				"element": "N" 
			},
			{
				"x": -0.5877192826,
				"y": 0.6772574364,
				"z": 1.1223446749,
				"element": "C" 
			},
			{
				"x": 0.1398025384,
				"y": 0.2789834398,
				"z": -0.0241985038,
				"element": "C" 
			},
			{
				"x": 1.0228244095,
				"y": -0.8043508168,
				"z": -0.0051370163,
				"element": "C" 
			},
			{
				"x": 1.1537831629,
				"y": -1.497001595,
				"z": 1.1936516755,
				"element": "C" 
			},
			{
				"x": 0.4339483249,
				"y": -1.1184747356,
				"z": 2.352652263,
				"element": "C" 
			},
			{
				"x": -0.4284341515,
				"y": -0.0159365549,
				"z": 2.3218093511,
				"element": "C" 
			},
			{
				"x": 0.59603568,
				"y": -1.7765073219,
				"z": 3.6867684046,
				"element": "C" 
			},
			{
				"x": 0.3528697244,
				"y": -1.1822774072,
				"z": 4.7335089595,
				"element": "O" 
			},
			{
				"x": 1.0738903021,
				"y": -3.0781145517,
				"z": 3.7801729435,
				"element": "N" 
			},
			{
				"x": 0.9258605631,
				"y": -4.0307795655,
				"z": 2.7557562738,
				"element": "N" 
			},
			{
				"x": -1.6262459593,
				"y": 0.3893755046,
				"z": -3.2941875923,
				"element": "H" 
			},
			{
				"x": -0.1772949164,
				"y": 0.1327973847,
				"z": -4.2849752546,
				"element": "H" 
			},
			{
				"x": -0.4699668861,
				"y": -0.8768177148,
				"z": -2.8558391903,
				"element": "H" 
			},
			{
				"x": 0.1184220495,
				"y": 2.148263961,
				"z": -2.8138582979,
				"element": "H" 
			},
			{
				"x": 1.2838845459,
				"y": 0.8990297251,
				"z": -2.4088728465,
				"element": "H" 
			},
			{
				"x": -2.3467609321,
				"y": 2.8083668865,
				"z": -2.0604111229,
				"element": "H" 
			},
			{
				"x": -1.037187702,
				"y": 3.8849512478,
				"z": -1.5539539768,
				"element": "H" 
			},
			{
				"x": -2.4640348643,
				"y": 3.6826945427,
				"z": -0.5193000708,
				"element": "H" 
			},
			{
				"x": 1.5903322005,
				"y": -1.1024807935,
				"z": -0.8816120217,
				"element": "H" 
			},
			{
				"x": 1.8196788462,
				"y": -2.3474091745,
				"z": 1.2412492991,
				"element": "H" 
			},
			{
				"x": -0.9491270036,
				"y": 0.2868702169,
				"z": 3.222762,
				"element": "H" 
			},
			{
				"x": 1.0438220892,
				"y": -3.3951017203,
				"z": 4.7464609899,
				"element": "H" 
			},
			{
				"x": 0.1183192318,
				"y": -4.6266248042,
				"z": 2.9312322754,
				"element": "H" 
			},
			{
				"x": 1.7566549942,
				"y": -4.6147125591,
				"z": 2.7253298782,
				"element": "H" 
			}
		],
		 "valence_orbital": [ 
			{
				"type": "occ",
				"energy": -0.26133,
				"method": "rhf"
			},
			{
				"type": "occ",
				"energy": -0.25283,
				"method": "rhf"
			},
			{
				"type": "occ",
				"energy": -0.23807,
				"method": "rhf"
			},
			{
				"type": "occ",
				"energy": -0.21724,
				"method": "rhf"
			},
			{
				"type": "occ",
				"energy": -0.21464,
				"method": "rhf"
			},
			{
				"type": "unocc",
				"energy": -0.01701,
				"method": "rhf"
			},
			{
				"type": "unocc",
				"energy": -0.0021,
				"method": "rhf"
			},
			{
				"type": "unocc",
				"energy": 0.05333,
				"method": "rhf"
			},
			{
				"type": "unocc",
				"energy": 0.06582,
				"method": "rhf"
			},
			{
				"type": "unocc",
				"energy": 0.07306,
				"method": "rhf"
			}
		],
		"cosmo_sigma_profile": { 
			"-0.025": 0.0,
			"-0.024": 0.0,
			"-0.023": 0.0,
			"-0.022": 0.0,
			"-0.021": 0.0,
			"-0.02": 0.0,
			"-0.019": 0.0,
			"-0.018": 0.0,
			"-0.017": 0.0,
			"-0.016": 0.0,
			"-0.015": 0.0,
			"-0.014": 0.0,
			"-0.013": 0.450391908447,
			"-0.012": 2.99043124912,
			"-0.011": 4.47860620881,
			"-0.01": 5.60841475105,
			"-0.009": 5.16701506943,
			"-0.008": 3.29342237585,
			"-0.007": 5.25257423588,
			"-0.006": 13.4933773733,
			"-0.005": 18.0266138871,
			"-0.004": 22.4459114345,
			"-0.003": 23.2423641499,
			"-0.002": 19.5575236138,
			"-0.001": 18.7486260001,
			"0.0": 17.8364049276,
			"0.001": 14.0511713532,
			"0.002": 9.85711219407,
			"0.003": 10.2630393622,
			"0.004": 14.5672592674,
			"0.005": 12.2834321411,
			"0.006": 6.0461570999,
			"0.007": 4.84002709096,
			"0.008": 4.7840169577,
			"0.009": 3.27501802356,
			"0.01": 4.00886448647,
			"0.011": 2.4927765952,
			"0.012": 3.69099155699,
			"0.013": 5.23157951785,
			"0.014": 6.03242467562,
			"0.015": 1.18126214747,
			"0.016": 1.02027596208,
			"0.017": 0.921428196623,
			"0.018": 0.478948734636,
			"0.019": 0.0,
			"0.02": 0.0,
			"0.021": 0.0,
			"0.022": 0.0,
			"0.023": 0.0,
			"0.024": 0.0,
			"0.025": 0.0
		}
	}
}
