{
	 "smiles": "CN1C(S)=NN=C1C1=C(C)OC=C1", 
	 "Tm": 392.15, 
	 "num_atms": 22, 
	 "gaussian": { 
		 "optdone": 1, 
		 "sigma_profile": "yes", 
		 "theory": "DFT", 
		 "functional": "B3LYP", 
		 "basiset": "6-31G**", 
		 "properties": { 
			 "R2extent": 3342.9313, 
			 "electric_dipole_moment_norm": 5.39576123823, 
			 "electric_quadrupole_moment_norm": 10.0049389683, 
			 "total_energy": -947.894777791, 
			 "HOMO_LUMO_gap": 0.19863, 
			 "cosmo_polarized_energy": -17.0, 
			 "cosmo_cavitation_energy": 27.65, 
			 "cosmo_dispersion_energy": -20.86, 
			 "cosmo_repulsion_energy": 1.6, 
			 "cosmo_total_nonelectrostatic_energy": 8.4, 
			 "SMD_solvation_energy": 3.69 
		},
		"coords": [
			{
				"x": -2.7540055892,
				"y": 0.7346960251,
				"z": -1.1752935735,
				"element": "C" 
			},
			{
				"x": -1.5066758795,
				"y": 0.9894795688,
				"z": -0.4696256651,
				"element": "N" 
			},
			{
				"x": -1.1375369019,
				"y": 2.1516012247,
				"z": 0.1836488716,
				"element": "C" 
			},
			{
				"x": -2.1379476509,
				"y": 3.6052240341,
				"z": 0.2895691939,
				"element": "S" 
			},
			{
				"x": 0.024980951,
				"y": 1.9957095729,
				"z": 0.7764948212,
				"element": "N" 
			},
			{
				"x": 0.4564068804,
				"y": 0.7254908151,
				"z": 0.5079853213,
				"element": "N" 
			},
			{
				"x": -0.4618911891,
				"y": 0.1250630497,
				"z": -0.2373935983,
				"element": "C" 
			},
			{
				"x": -0.3782341821,
				"y": -1.2500024194,
				"z": -0.7124456673,
				"element": "C" 
			},
			{
				"x": 0.3324114278,
				"y": -2.2567838937,
				"z": -0.0965835387,
				"element": "C" 
			},
			{
				"x": 1.1546325146,
				"y": -2.328504587,
				"z": 1.1397557134,
				"element": "C" 
			},
			{
				"x": 0.2129334172,
				"y": -3.4046816779,
				"z": -0.8222182385,
				"element": "O" 
			},
			{
				"x": -0.567521786,
				"y": -3.1359612089,
				"z": -1.9089043219,
				"element": "C" 
			},
			{
				"x": -0.9592184482,
				"y": -1.837546568,
				"z": -1.8981609758,
				"element": "C" 
			},
			{
				"x": -2.6283363566,
				"y": 0.8451646328,
				"z": -2.2571889711,
				"element": "H" 
			},
			{
				"x": -3.0984855933,
				"y": -0.2770876082,
				"z": -0.9554761673,
				"element": "H" 
			},
			{
				"x": -3.4977822371,
				"y": 1.4552270837,
				"z": -0.8338841097,
				"element": "H" 
			},
			{
				"x": -1.7859044199,
				"y": 4.1483695451,
				"z": -0.8973162995,
				"element": "H" 
			},
			{
				"x": 2.1962587074,
				"y": -2.5714038403,
				"z": 0.899831473,
				"element": "H" 
			},
			{
				"x": 1.140893928,
				"y": -1.3610881175,
				"z": 1.6419605141,
				"element": "H" 
			},
			{
				"x": 0.7805181531,
				"y": -3.1072754077,
				"z": 1.8139602333,
				"element": "H" 
			},
			{
				"x": -0.7402829254,
				"y": -3.9595273596,
				"z": -2.5836193412,
				"element": "H" 
			},
			{
				"x": -1.5590128203,
				"y": -1.3497628639,
				"z": -2.6512956738,
				"element": "H" 
			}
		],
		 "valence_orbital": [ 
			{
				"type": "occ",
				"energy": -0.29225,
				"method": "rhf"
			},
			{
				"type": "occ",
				"energy": -0.2711,
				"method": "rhf"
			},
			{
				"type": "occ",
				"energy": -0.25634,
				"method": "rhf"
			},
			{
				"type": "occ",
				"energy": -0.25086,
				"method": "rhf"
			},
			{
				"type": "occ",
				"energy": -0.21923,
				"method": "rhf"
			},
			{
				"type": "unocc",
				"energy": -0.0206,
				"method": "rhf"
			},
			{
				"type": "unocc",
				"energy": 0.00235,
				"method": "rhf"
			},
			{
				"type": "unocc",
				"energy": 0.0224,
				"method": "rhf"
			},
			{
				"type": "unocc",
				"energy": 0.04228,
				"method": "rhf"
			},
			{
				"type": "unocc",
				"energy": 0.06158,
				"method": "rhf"
			}
		],
		"cosmo_sigma_profile": { 
			"-0.025": 0.0,
			"-0.024": 0.0,
			"-0.023": 0.0,
			"-0.022": 0.0,
			"-0.021": 0.0,
			"-0.02": 0.0,
			"-0.019": 0.0,
			"-0.018": 0.0,
			"-0.017": 0.0,
			"-0.016": 0.0,
			"-0.015": 0.0,
			"-0.014": 0.0,
			"-0.013": 0.0,
			"-0.012": 0.386016977956,
			"-0.011": 2.56032451473,
			"-0.01": 2.58187776633,
			"-0.009": 3.38568377824,
			"-0.008": 5.9252077913,
			"-0.007": 8.76569336967,
			"-0.006": 11.8006710273,
			"-0.005": 16.0032537039,
			"-0.004": 17.9772030732,
			"-0.003": 17.4240763714,
			"-0.002": 13.7260639842,
			"-0.001": 16.8744599248,
			"0.0": 14.2088057473,
			"0.001": 12.0358013033,
			"0.002": 14.5038837548,
			"0.003": 12.9311572592,
			"0.004": 10.1930369361,
			"0.005": 7.27069031216,
			"0.006": 5.32723083549,
			"0.007": 4.72423628258,
			"0.008": 4.15586275087,
			"0.009": 3.12819286765,
			"0.01": 2.95622401192,
			"0.011": 2.01546834137,
			"0.012": 3.07704778204,
			"0.013": 3.07278730472,
			"0.014": 2.88185794254,
			"0.015": 2.37978126586,
			"0.016": 1.25967166224,
			"0.017": 0.432579825771,
			"0.018": 0.0,
			"0.019": 0.0,
			"0.02": 0.0,
			"0.021": 0.0,
			"0.022": 0.0,
			"0.023": 0.0,
			"0.024": 0.0,
			"0.025": 0.0
		}
	}
}
