{
	 "smiles": "OC(=O)C1=C2C=C(Br)C=CC2=NC(C=CC2=CC(Br)=CC=C2)=C1", 
	 "Tm": 581.15, 
	 "num_atms": 34, 
	 "gaussian": { 
		 "optdone": 1, 
		 "sigma_profile": "yes", 
		 "theory": "DFT", 
		 "functional": "B3LYP", 
		 "basiset": "6-31G**", 
		 "properties": { 
			 "R2extent": 16521.2639, 
			 "electric_dipole_moment_norm": 5.23063048685, 
			 "electric_quadrupole_moment_norm": 21.9775687705, 
			 "total_energy": -6040.5531035, 
			 "HOMO_LUMO_gap": 0.12979, 
			 "cosmo_polarized_energy": -17.23, 
			 "cosmo_cavitation_energy": 44.27, 
			 "cosmo_dispersion_energy": -31.78, 
			 "cosmo_repulsion_energy": 2.35, 
			 "cosmo_total_nonelectrostatic_energy": 14.85, 
			 "SMD_solvation_energy": 5.3 
		},
		"coords": [
			{
				"x": 3.0605034343,
				"y": -4.7774596323,
				"z": 0.6588023345,
				"element": "O" 
			},
			{
				"x": 2.1392919187,
				"y": -4.6950885689,
				"z": -0.3356354245,
				"element": "C" 
			},
			{
				"x": 1.9887931867,
				"y": -5.617239204,
				"z": -1.1002609714,
				"element": "O" 
			},
			{
				"x": 1.3781758958,
				"y": -3.397413467,
				"z": -0.4114839571,
				"element": "C" 
			},
			{
				"x": 0.0079596522,
				"y": -3.3548255911,
				"z": -0.825237007,
				"element": "C" 
			},
			{
				"x": -0.7618423779,
				"y": -4.4971518686,
				"z": -1.1635434695,
				"element": "C" 
			},
			{
				"x": -2.0829955073,
				"y": -4.3402285057,
				"z": -1.5159908667,
				"element": "C" 
			},
			{
				"x": -3.1246325839,
				"y": -5.8716163651,
				"z": -1.9714870212,
				"element": "Br" 
			},
			{
				"x": -2.7029166539,
				"y": -3.0693399851,
				"z": -1.5550065265,
				"element": "C" 
			},
			{
				"x": -1.9718593643,
				"y": -1.950624757,
				"z": -1.2354141882,
				"element": "C" 
			},
			{
				"x": -0.6029883212,
				"y": -2.057807946,
				"z": -0.8647510129,
				"element": "C" 
			},
			{
				"x": 0.0603776597,
				"y": -0.9093502629,
				"z": -0.5683332098,
				"element": "N" 
			},
			{
				"x": 1.3384070047,
				"y": -0.9582472632,
				"z": -0.2157732873,
				"element": "C" 
			},
			{
				"x": 2.1235432035,
				"y": 0.2394590166,
				"z": 0.0971609233,
				"element": "C" 
			},
			{
				"x": 1.879266939,
				"y": 1.5757778838,
				"z": 0.150971951,
				"element": "C" 
			},
			{
				"x": 0.7348994419,
				"y": 2.464198642,
				"z": -0.0679725234,
				"element": "C" 
			},
			{
				"x": -0.5571410536,
				"y": 2.0494583863,
				"z": -0.4468619496,
				"element": "C" 
			},
			{
				"x": -1.5583392879,
				"y": 2.995229336,
				"z": -0.6211430199,
				"element": "C" 
			},
			{
				"x": -3.3075742846,
				"y": 2.4014092419,
				"z": -1.1368459647,
				"element": "Br" 
			},
			{
				"x": -1.3354868985,
				"y": 4.3586982465,
				"z": -0.4347014168,
				"element": "C" 
			},
			{
				"x": -0.0564745732,
				"y": 4.7752450343,
				"z": -0.0596895121,
				"element": "C" 
			},
			{
				"x": 0.9617557952,
				"y": 3.8450733423,
				"z": 0.1208213191,
				"element": "C" 
			},
			{
				"x": 2.019511096,
				"y": -2.2136342905,
				"z": -0.1207204629,
				"element": "C" 
			},
			{
				"x": 2.9598130586,
				"y": -4.0312372141,
				"z": 1.2669697527,
				"element": "H" 
			},
			{
				"x": -0.3004069589,
				"y": -5.4748943381,
				"z": -1.1609400784,
				"element": "H" 
			},
			{
				"x": -3.7461588463,
				"y": -2.9895921163,
				"z": -1.8381137521,
				"element": "H" 
			},
			{
				"x": -2.419831388,
				"y": -0.9624559904,
				"z": -1.2584485853,
				"element": "H" 
			},
			{
				"x": 3.1525476297,
				"y": -0.0158337133,
				"z": 0.3442793973,
				"element": "H" 
			},
			{
				"x": 2.7648411726,
				"y": 2.1446968466,
				"z": 0.4333549117,
				"element": "H" 
			},
			{
				"x": -0.7444761142,
				"y": 0.9950103181,
				"z": -0.5968786126,
				"element": "H" 
			},
			{
				"x": -2.1372682757,
				"y": 5.0738040243,
				"z": -0.5786400741,
				"element": "H" 
			},
			{
				"x": 0.1401092632,
				"y": 5.8325162488,
				"z": 0.0907033696,
				"element": "H" 
			},
			{
				"x": 1.9515271835,
				"y": 4.1853175324,
				"z": 0.4126662855,
				"element": "H" 
			},
			{
				"x": 3.071368954,
				"y": -2.2135530202,
				"z": 0.1507426491,
				"element": "H" 
			}
		],
		 "valence_orbital": [ 
			{
				"type": "occ",
				"energy": -0.2713,
				"method": "rhf"
			},
			{
				"type": "occ",
				"energy": -0.27075,
				"method": "rhf"
			},
			{
				"type": "occ",
				"energy": -0.25537,
				"method": "rhf"
			},
			{
				"type": "occ",
				"energy": -0.24877,
				"method": "rhf"
			},
			{
				"type": "occ",
				"energy": -0.22738,
				"method": "rhf"
			},
			{
				"type": "unocc",
				"energy": -0.09759,
				"method": "rhf"
			},
			{
				"type": "unocc",
				"energy": -0.06551,
				"method": "rhf"
			},
			{
				"type": "unocc",
				"energy": -0.02565,
				"method": "rhf"
			},
			{
				"type": "unocc",
				"energy": -0.02083,
				"method": "rhf"
			},
			{
				"type": "unocc",
				"energy": -0.01574,
				"method": "rhf"
			}
		],
		"cosmo_sigma_profile": { 
			"-0.025": 0.0,
			"-0.024": 0.0,
			"-0.023": 0.0,
			"-0.022": 0.0,
			"-0.021": 0.0,
			"-0.02": 0.0,
			"-0.019": 0.524051049862,
			"-0.018": 0.834673237228,
			"-0.017": 1.08825417818,
			"-0.016": 1.47562719855,
			"-0.015": 0.540594844413,
			"-0.014": 0.978299228803,
			"-0.013": 1.35692108371,
			"-0.012": 1.2157765604,
			"-0.011": 1.4093434845,
			"-0.01": 1.76291132448,
			"-0.009": 2.70690960143,
			"-0.008": 4.24457703477,
			"-0.007": 12.4047277409,
			"-0.006": 14.7043766122,
			"-0.005": 15.8523840608,
			"-0.004": 16.498179838,
			"-0.003": 16.9388084949,
			"-0.002": 25.1164501383,
			"-0.001": 25.7610757628,
			"0.0": 31.7692559769,
			"0.001": 35.9973410157,
			"0.002": 39.161154332,
			"0.003": 44.0045447612,
			"0.004": 32.3006771758,
			"0.005": 12.0136117275,
			"0.006": 2.64171868681,
			"0.007": 2.70446637245,
			"0.008": 3.16188313469,
			"0.009": 4.71757528751,
			"0.01": 5.10943681008,
			"0.011": 3.63607529568,
			"0.012": 1.60116635063,
			"0.013": 0.085665934967,
			"0.014": 0.0,
			"0.015": 0.0,
			"0.016": 0.0,
			"0.017": 0.0,
			"0.018": 0.0,
			"0.019": 0.0,
			"0.02": 0.0,
			"0.021": 0.0,
			"0.022": 0.0,
			"0.023": 0.0,
			"0.024": 0.0,
			"0.025": 0.0
		}
	}
}
