{
	 "smiles": "O=C1C=CC(=O)C(=C1)C1=CC=CC=C1", 
	 "Tm": 387.15, 
	 "num_atms": 22, 
	 "gaussian": { 
		 "optdone": 1, 
		 "sigma_profile": "yes", 
		 "theory": "DFT", 
		 "functional": "B3LYP", 
		 "basiset": "6-31G**", 
		 "properties": { 
			 "R2extent": 3516.1911, 
			 "electric_dipole_moment_norm": 1.26879934978, 
			 "electric_quadrupole_moment_norm": 18.4782336098, 
			 "total_energy": -612.509574793, 
			 "HOMO_LUMO_gap": 0.12207, 
			 "cosmo_polarized_energy": -10.12, 
			 "cosmo_cavitation_energy": 27.05, 
			 "cosmo_dispersion_energy": -19.7, 
			 "cosmo_repulsion_energy": 1.53, 
			 "cosmo_total_nonelectrostatic_energy": 8.87, 
			 "SMD_solvation_energy": 5.75 
		},
		"coords": [
			{
				"x": 2.3942992089,
				"y": -3.0221820945,
				"z": 1.5804778721,
				"element": "O" 
			},
			{
				"x": 1.79865528,
				"y": -2.014682122,
				"z": 1.2106130227,
				"element": "C" 
			},
			{
				"x": 1.7241290376,
				"y": -0.8073227971,
				"z": 2.0708419792,
				"element": "C" 
			},
			{
				"x": 1.0662835605,
				"y": 0.285404432,
				"z": 1.6568607541,
				"element": "C" 
			},
			{
				"x": 0.397246768,
				"y": 0.3521366475,
				"z": 0.3312037351,
				"element": "C" 
			},
			{
				"x": -0.1713219367,
				"y": 1.3824479043,
				"z": -0.0085694544,
				"element": "O" 
			},
			{
				"x": 0.4596986916,
				"y": -0.8658918992,
				"z": -0.555796186,
				"element": "C" 
			},
			{
				"x": 1.121001186,
				"y": -1.9581578164,
				"z": -0.1001293856,
				"element": "C" 
			},
			{
				"x": -0.172037893,
				"y": -0.8338685928,
				"z": -1.8934106625,
				"element": "C" 
			},
			{
				"x": -1.4082488963,
				"y": -0.1996085278,
				"z": -2.1162532747,
				"element": "C" 
			},
			{
				"x": -2.0005539758,
				"y": -0.2317388198,
				"z": -3.3772274915,
				"element": "C" 
			},
			{
				"x": -1.3695532559,
				"y": -0.8812079956,
				"z": -4.4398362085,
				"element": "C" 
			},
			{
				"x": -0.1360829547,
				"y": -1.5030188432,
				"z": -4.2349916519,
				"element": "C" 
			},
			{
				"x": 0.4558295076,
				"y": -1.4796674956,
				"z": -2.9747047988,
				"element": "C" 
			},
			{
				"x": 2.2229207777,
				"y": -0.8684865044,
				"z": 3.0336262863,
				"element": "H" 
			},
			{
				"x": 0.9870457911,
				"y": 1.1883386781,
				"z": 2.2551784758,
				"element": "H" 
			},
			{
				"x": 1.1720084011,
				"y": -2.8734664984,
				"z": -0.6821032033,
				"element": "H" 
			},
			{
				"x": -1.9037511774,
				"y": 0.3116429268,
				"z": -1.3011265719,
				"element": "H" 
			},
			{
				"x": -2.9596932776,
				"y": 0.2544703856,
				"z": -3.5293999615,
				"element": "H" 
			},
			{
				"x": -1.8322647213,
				"y": -0.8972166344,
				"z": -5.4223489026,
				"element": "H" 
			},
			{
				"x": 0.369784944,
				"y": -1.9987457106,
				"z": -5.0583060081,
				"element": "H" 
			},
			{
				"x": 1.4273049346,
				"y": -1.9422786225,
				"z": -2.8284983635,
				"element": "H" 
			}
		],
		 "valence_orbital": [ 
			{
				"type": "occ",
				"energy": -0.30114,
				"method": "rhf"
			},
			{
				"type": "occ",
				"energy": -0.27579,
				"method": "rhf"
			},
			{
				"type": "occ",
				"energy": -0.26501,
				"method": "rhf"
			},
			{
				"type": "occ",
				"energy": -0.25819,
				"method": "rhf"
			},
			{
				"type": "occ",
				"energy": -0.24786,
				"method": "rhf"
			},
			{
				"type": "unocc",
				"energy": -0.12579,
				"method": "rhf"
			},
			{
				"type": "unocc",
				"energy": -0.04149,
				"method": "rhf"
			},
			{
				"type": "unocc",
				"energy": -0.00952,
				"method": "rhf"
			},
			{
				"type": "unocc",
				"energy": 0.00282,
				"method": "rhf"
			},
			{
				"type": "unocc",
				"energy": 0.02306,
				"method": "rhf"
			}
		],
		"cosmo_sigma_profile": { 
			"-0.025": 0.0,
			"-0.024": 0.0,
			"-0.023": 0.0,
			"-0.022": 0.0,
			"-0.021": 0.0,
			"-0.02": 0.0,
			"-0.019": 0.0,
			"-0.018": 0.0,
			"-0.017": 0.0,
			"-0.016": 0.0,
			"-0.015": 0.0,
			"-0.014": 0.0,
			"-0.013": 0.0,
			"-0.012": 0.0,
			"-0.011": 0.0,
			"-0.01": 0.0,
			"-0.009": 0.4589327864,
			"-0.008": 4.05728498301,
			"-0.007": 6.26635854073,
			"-0.006": 14.3914051503,
			"-0.005": 19.5601015727,
			"-0.004": 20.4064965829,
			"-0.003": 17.9235229109,
			"-0.002": 18.9769350644,
			"-0.001": 15.7165720869,
			"0.0": 14.5529178013,
			"0.001": 11.4247385989,
			"0.002": 9.41981492338,
			"0.003": 10.9231607993,
			"0.004": 12.6200862095,
			"0.005": 9.97112045749,
			"0.006": 3.55280825973,
			"0.007": 4.37962647169,
			"0.008": 3.65970017848,
			"0.009": 3.51208506411,
			"0.01": 6.76945478828,
			"0.011": 6.87988582028,
			"0.012": 2.70434185709,
			"0.013": 0.124014179301,
			"0.014": 0.0,
			"0.015": 0.0,
			"0.016": 0.0,
			"0.017": 0.0,
			"0.018": 0.0,
			"0.019": 0.0,
			"0.02": 0.0,
			"0.021": 0.0,
			"0.022": 0.0,
			"0.023": 0.0,
			"0.024": 0.0,
			"0.025": 0.0
		}
	}
}
