{
	 "smiles": "OC1=CC=CC2=C1C1=C(N2)C=CC=C1", 
	 "Tm": 444.15, 
	 "num_atms": 23, 
	 "gaussian": { 
		 "optdone": 1, 
		 "sigma_profile": "yes", 
		 "theory": "DFT", 
		 "functional": "B3LYP", 
		 "basiset": "6-31G**", 
		 "properties": { 
			 "R2extent": 2836.0351, 
			 "electric_dipole_moment_norm": 2.5013912149, 
			 "electric_quadrupole_moment_norm": 13.2658476126, 
			 "total_energy": -592.694076784, 
			 "HOMO_LUMO_gap": 0.17201, 
			 "cosmo_polarized_energy": -12.17, 
			 "cosmo_cavitation_energy": 26.34, 
			 "cosmo_dispersion_energy": -20.16, 
			 "cosmo_repulsion_energy": 1.54, 
			 "cosmo_total_nonelectrostatic_energy": 7.72, 
			 "SMD_solvation_energy": 3.97 
		},
		"coords": [
			{
				"x": -0.0728571945,
				"y": -1.3902198267,
				"z": 3.2660383171,
				"element": "O" 
			},
			{
				"x": -0.1987518591,
				"y": -0.1020691103,
				"z": 2.8268845362,
				"element": "C" 
			},
			{
				"x": -0.4901334199,
				"y": 0.8838347508,
				"z": 3.7695507451,
				"element": "C" 
			},
			{
				"x": -0.6439905536,
				"y": 2.2201784993,
				"z": 3.3749858011,
				"element": "C" 
			},
			{
				"x": -0.5260068602,
				"y": 2.6142222243,
				"z": 2.0433679553,
				"element": "C" 
			},
			{
				"x": -0.2286778431,
				"y": 1.6175583041,
				"z": 1.1112359123,
				"element": "C" 
			},
			{
				"x": -0.0446774871,
				"y": 0.2575280209,
				"z": 1.4763612086,
				"element": "C" 
			},
			{
				"x": 0.277048587,
				"y": -0.470079509,
				"z": 0.2614560756,
				"element": "C" 
			},
			{
				"x": 0.250963027,
				"y": 0.4833507758,
				"z": -0.7952610274,
				"element": "C" 
			},
			{
				"x": -0.0545285364,
				"y": 1.7232626048,
				"z": -0.260038935,
				"element": "N" 
			},
			{
				"x": 0.5115042875,
				"y": 0.1303109752,
				"z": -2.1203150139,
				"element": "C" 
			},
			{
				"x": 0.8111795524,
				"y": -1.203223158,
				"z": -2.3917155685,
				"element": "C" 
			},
			{
				"x": 0.8578841566,
				"y": -2.1597708036,
				"z": -1.3647371994,
				"element": "C" 
			},
			{
				"x": 0.5967240531,
				"y": -1.8010319106,
				"z": -0.0439601709,
				"element": "C" 
			},
			{
				"x": -0.0820895526,
				"y": -1.9861685161,
				"z": 2.5074910657,
				"element": "H" 
			},
			{
				"x": -0.6039888188,
				"y": 0.5904473439,
				"z": 4.8073889843,
				"element": "H" 
			},
			{
				"x": -0.872755861,
				"y": 2.9662460353,
				"z": 4.1304684782,
				"element": "H" 
			},
			{
				"x": -0.6578326785,
				"y": 3.6494857613,
				"z": 1.7456139753,
				"element": "H" 
			},
			{
				"x": -0.1185245182,
				"y": 2.5803047421,
				"z": -0.7842547954,
				"element": "H" 
			},
			{
				"x": 0.485562454,
				"y": 0.8713581229,
				"z": -2.9141422265,
				"element": "H" 
			},
			{
				"x": 1.0184491176,
				"y": -1.5047078575,
				"z": -3.4141758253,
				"element": "H" 
			},
			{
				"x": 1.1070164865,
				"y": -3.1894452917,
				"z": -1.6017815635,
				"element": "H" 
			},
			{
				"x": 0.6721834612,
				"y": -2.5603721771,
				"z": 0.730939271,
				"element": "H" 
			}
		],
		 "valence_orbital": [ 
			{
				"type": "occ",
				"energy": -0.3097,
				"method": "rhf"
			},
			{
				"type": "occ",
				"energy": -0.27805,
				"method": "rhf"
			},
			{
				"type": "occ",
				"energy": -0.24073,
				"method": "rhf"
			},
			{
				"type": "occ",
				"energy": -0.21192,
				"method": "rhf"
			},
			{
				"type": "occ",
				"energy": -0.19566,
				"method": "rhf"
			},
			{
				"type": "unocc",
				"energy": -0.02365,
				"method": "rhf"
			},
			{
				"type": "unocc",
				"energy": 0.00776,
				"method": "rhf"
			},
			{
				"type": "unocc",
				"energy": 0.03397,
				"method": "rhf"
			},
			{
				"type": "unocc",
				"energy": 0.04431,
				"method": "rhf"
			},
			{
				"type": "unocc",
				"energy": 0.06031,
				"method": "rhf"
			}
		],
		"cosmo_sigma_profile": { 
			"-0.025": 0.0,
			"-0.024": 0.0,
			"-0.023": 0.0,
			"-0.022": 0.0,
			"-0.021": 0.0,
			"-0.02": 0.0,
			"-0.019": 0.0,
			"-0.018": 0.0,
			"-0.017": 0.0,
			"-0.016": 0.440492257633,
			"-0.015": 2.08343358184,
			"-0.014": 2.73785987578,
			"-0.013": 2.612921526,
			"-0.012": 2.16723433647,
			"-0.011": 1.43281039629,
			"-0.01": 2.71165588034,
			"-0.009": 3.05898273808,
			"-0.008": 2.65678925182,
			"-0.007": 3.80327901855,
			"-0.006": 7.18777612748,
			"-0.005": 14.0013472237,
			"-0.004": 12.3456701902,
			"-0.003": 14.6780291325,
			"-0.002": 10.028307558,
			"-0.001": 9.71135609852,
			"0.0": 10.7513103613,
			"0.001": 8.3420735592,
			"0.002": 11.6255808588,
			"0.003": 17.0851865161,
			"0.004": 22.1442704414,
			"0.005": 19.6695019991,
			"0.006": 16.8312575895,
			"0.007": 5.88768262059,
			"0.008": 1.90267610822,
			"0.009": 1.16629477755,
			"0.01": 1.88896007473,
			"0.011": 1.89979996785,
			"0.012": 0.753192587404,
			"0.013": 0.0,
			"0.014": 0.0,
			"0.015": 0.0,
			"0.016": 0.0,
			"0.017": 0.0,
			"0.018": 0.0,
			"0.019": 0.0,
			"0.02": 0.0,
			"0.021": 0.0,
			"0.022": 0.0,
			"0.023": 0.0,
			"0.024": 0.0,
			"0.025": 0.0
		}
	}
}
