{
	 "smiles": "COCC1=C(C(NC(=O)N1)C1=CC(F)=C(F)C=C1)C(=O)OC", 
	 "Tm": 371.15, 
	 "num_atms": 36, 
	 "gaussian": { 
		 "optdone": 1, 
		 "sigma_profile": "yes", 
		 "theory": "DFT", 
		 "functional": "B3LYP", 
		 "basiset": "6-31G**", 
		 "properties": { 
			 "R2extent": 6864.8368, 
			 "electric_dipole_moment_norm": 3.67738444278, 
			 "electric_quadrupole_moment_norm": 12.8211525749, 
			 "total_energy": -1151.98998335, 
			 "HOMO_LUMO_gap": 0.17978, 
			 "cosmo_polarized_energy": -19.18, 
			 "cosmo_cavitation_energy": 40.85, 
			 "cosmo_dispersion_energy": -27.21, 
			 "cosmo_repulsion_energy": 2.05, 
			 "cosmo_total_nonelectrostatic_energy": 15.7, 
			 "SMD_solvation_energy": 9.9 
		},
		"coords": [
			{
				"x": -1.1737595239,
				"y": 0.0548819522,
				"z": 3.0389593727,
				"element": "C" 
			},
			{
				"x": -0.8437282417,
				"y": -1.2552335636,
				"z": 2.6093998268,
				"element": "O" 
			},
			{
				"x": 0.5058147832,
				"y": -1.408578458,
				"z": 2.2319605072,
				"element": "C" 
			},
			{
				"x": 0.887004862,
				"y": -0.6265896035,
				"z": 0.9786530195,
				"element": "C" 
			},
			{
				"x": 0.4198085851,
				"y": -0.821632553,
				"z": -0.2855282395,
				"element": "C" 
			},
			{
				"x": 0.7789485185,
				"y": 0.2028749544,
				"z": -1.3621162071,
				"element": "C" 
			},
			{
				"x": 2.1028096666,
				"y": 0.7485991451,
				"z": -1.0608087339,
				"element": "N" 
			},
			{
				"x": 2.5188779565,
				"y": 1.0561548626,
				"z": 0.2035416566,
				"element": "C" 
			},
			{
				"x": 3.4563960096,
				"y": 1.7876264457,
				"z": 0.4823907337,
				"element": "O" 
			},
			{
				"x": 1.7746602332,
				"y": 0.4112313834,
				"z": 1.2041662766,
				"element": "N" 
			},
			{
				"x": -0.3003270895,
				"y": 1.2869213871,
				"z": -1.5243353659,
				"element": "C" 
			},
			{
				"x": -0.1577841217,
				"y": 2.5548384531,
				"z": -0.944286304,
				"element": "C" 
			},
			{
				"x": -1.1621950668,
				"y": 3.5019485707,
				"z": -1.0938067533,
				"element": "C" 
			},
			{
				"x": -1.0295644839,
				"y": 4.720877983,
				"z": -0.5402747766,
				"element": "F" 
			},
			{
				"x": -2.3132584935,
				"y": 3.2108164831,
				"z": -1.8217761224,
				"element": "C" 
			},
			{
				"x": -3.2642981276,
				"y": 4.1522797464,
				"z": -1.9522134836,
				"element": "F" 
			},
			{
				"x": -2.4633571567,
				"y": 1.9620165543,
				"z": -2.4095106332,
				"element": "C" 
			},
			{
				"x": -1.4592439839,
				"y": 1.0047003173,
				"z": -2.2621985443,
				"element": "C" 
			},
			{
				"x": -0.3924801715,
				"y": -1.9548232999,
				"z": -0.753907832,
				"element": "C" 
			},
			{
				"x": -0.7866094693,
				"y": -2.0627337975,
				"z": -1.9074370974,
				"element": "O" 
			},
			{
				"x": -0.6450520339,
				"y": -2.8977656918,
				"z": 0.180100752,
				"element": "O" 
			},
			{
				"x": -1.4523154628,
				"y": -4.000187861,
				"z": -0.2611280975,
				"element": "C" 
			},
			{
				"x": -2.2160919299,
				"y": 0.0264034297,
				"z": 3.3629490584,
				"element": "H" 
			},
			{
				"x": -0.5469139691,
				"y": 0.3727828669,
				"z": 3.8875358491,
				"element": "H" 
			},
			{
				"x": -1.0746343747,
				"y": 0.7942320863,
				"z": 2.2323052256,
				"element": "H" 
			},
			{
				"x": 1.1746176706,
				"y": -1.0933382271,
				"z": 3.0519256948,
				"element": "H" 
			},
			{
				"x": 0.6549895384,
				"y": -2.4736136303,
				"z": 2.0580260133,
				"element": "H" 
			},
			{
				"x": 0.8508187807,
				"y": -0.3352597104,
				"z": -2.3104231974,
				"element": "H" 
			},
			{
				"x": 2.5794703516,
				"y": 1.2730245596,
				"z": -1.7816125893,
				"element": "H" 
			},
			{
				"x": 2.1337317149,
				"y": 0.5704012278,
				"z": 2.1351072179,
				"element": "H" 
			},
			{
				"x": 0.727998893,
				"y": 2.8415386581,
				"z": -0.3889965115,
				"element": "H" 
			},
			{
				"x": -3.3628833581,
				"y": 1.7564068142,
				"z": -2.980180081,
				"element": "H" 
			},
			{
				"x": -1.5758438982,
				"y": 0.0244982202,
				"z": -2.7105255766,
				"element": "H" 
			},
			{
				"x": -1.5843875168,
				"y": -4.6330319762,
				"z": 0.6162453398,
				"element": "H" 
			},
			{
				"x": -2.4188608564,
				"y": -3.6463705498,
				"z": -0.6273709056,
				"element": "H" 
			},
			{
				"x": -0.9517582341,
				"y": -4.550597179,
				"z": -1.0617294918,
				"element": "H" 
			}
		],
		 "valence_orbital": [ 
			{
				"type": "occ",
				"energy": -0.27237,
				"method": "rhf"
			},
			{
				"type": "occ",
				"energy": -0.2694,
				"method": "rhf"
			},
			{
				"type": "occ",
				"energy": -0.25916,
				"method": "rhf"
			},
			{
				"type": "occ",
				"energy": -0.24431,
				"method": "rhf"
			},
			{
				"type": "occ",
				"energy": -0.23459,
				"method": "rhf"
			},
			{
				"type": "unocc",
				"energy": -0.05481,
				"method": "rhf"
			},
			{
				"type": "unocc",
				"energy": -0.01341,
				"method": "rhf"
			},
			{
				"type": "unocc",
				"energy": -0.00551,
				"method": "rhf"
			},
			{
				"type": "unocc",
				"energy": 0.04596,
				"method": "rhf"
			},
			{
				"type": "unocc",
				"energy": 0.05804,
				"method": "rhf"
			}
		],
		"cosmo_sigma_profile": { 
			"-0.025": 0.0,
			"-0.024": 0.0,
			"-0.023": 0.0,
			"-0.022": 0.0,
			"-0.021": 0.0,
			"-0.02": 0.0,
			"-0.019": 0.0,
			"-0.018": 0.0,
			"-0.017": 0.0,
			"-0.016": 0.474777334005,
			"-0.015": 1.11283896641,
			"-0.014": 2.68637509409,
			"-0.013": 1.92081871781,
			"-0.012": 2.98984010349,
			"-0.011": 1.58088085063,
			"-0.01": 2.85782818396,
			"-0.009": 1.8981033387,
			"-0.008": 4.05506687859,
			"-0.007": 5.68418801449,
			"-0.006": 12.4869518025,
			"-0.005": 21.7821332425,
			"-0.004": 23.5211961776,
			"-0.003": 26.9169618454,
			"-0.002": 24.6973677934,
			"-0.001": 23.6097854634,
			"0.0": 25.7899806529,
			"0.001": 22.9065531983,
			"0.002": 21.6473596551,
			"0.003": 23.3396022696,
			"0.004": 26.0951194292,
			"0.005": 5.81367763726,
			"0.006": 3.88042195414,
			"0.007": 4.18819626087,
			"0.008": 3.78726252041,
			"0.009": 3.43173237816,
			"0.01": 4.08596757941,
			"0.011": 5.29527936859,
			"0.012": 6.10995221673,
			"0.013": 8.25243860543,
			"0.014": 1.94913148403,
			"0.015": 0.0,
			"0.016": 0.0,
			"0.017": 0.0,
			"0.018": 0.0,
			"0.019": 0.0,
			"0.02": 0.0,
			"0.021": 0.0,
			"0.022": 0.0,
			"0.023": 0.0,
			"0.024": 0.0,
			"0.025": 0.0
		}
	}
}
