{
	 "smiles": "BrC1=CC2=C(C=C1)C=C(Br)C=C2", 
	 "Tm": 438.15, 
	 "num_atms": 18, 
	 "gaussian": { 
		 "optdone": 1, 
		 "sigma_profile": "yes", 
		 "theory": "DFT", 
		 "functional": "B3LYP", 
		 "basiset": "6-31G**", 
		 "properties": { 
			 "R2extent": 6369.5628, 
			 "electric_dipole_moment_norm": 0.0, 
			 "electric_quadrupole_moment_norm": 12.3377118576, 
			 "total_energy": -5527.50038186, 
			 "HOMO_LUMO_gap": 0.16896, 
			 "cosmo_polarized_energy": -5.16, 
			 "cosmo_cavitation_energy": 26.89, 
			 "cosmo_dispersion_energy": -20.84, 
			 "cosmo_repulsion_energy": 1.63, 
			 "cosmo_total_nonelectrostatic_energy": 7.68, 
			 "SMD_solvation_energy": 1.97 
		},
		"coords": [
			{
				"x": 2.2737122843,
				"y": -1.3410638296,
				"z": -3.4778869299,
				"element": "Br" 
			},
			{
				"x": 0.9885270012,
				"y": -1.1936606095,
				"z": -2.071546991,
				"element": "C" 
			},
			{
				"x": 0.8701696491,
				"y": -0.0157369374,
				"z": -1.3737260587,
				"element": "C" 
			},
			{
				"x": -0.0854459066,
				"y": 0.093074692,
				"z": -0.3287522587,
				"element": "C" 
			},
			{
				"x": -0.914620761,
				"y": -1.0325414288,
				"z": -0.0175254788,
				"element": "C" 
			},
			{
				"x": -0.7539402994,
				"y": -2.228526546,
				"z": -0.7679971718,
				"element": "C" 
			},
			{
				"x": 0.177308063,
				"y": -2.3149979502,
				"z": -1.7767937843,
				"element": "C" 
			},
			{
				"x": -1.8702367168,
				"y": -0.9237296811,
				"z": 1.0274485502,
				"element": "C" 
			},
			{
				"x": -1.988593812,
				"y": 0.2541939644,
				"z": 1.725268973,
				"element": "C" 
			},
			{
				"x": -3.2737785652,
				"y": 0.4015976053,
				"z": 3.1316096273,
				"element": "Br" 
			},
			{
				"x": -1.1773746415,
				"y": 1.3755311792,
				"z": 1.4305160015,
				"element": "C" 
			},
			{
				"x": -0.2461263681,
				"y": 1.2890603176,
				"z": 0.4217196553,
				"element": "C" 
			},
			{
				"x": 1.5006505837,
				"y": 0.8336952538,
				"z": -1.6135187405,
				"element": "H" 
			},
			{
				"x": -1.3808460558,
				"y": -3.0848604045,
				"z": -0.5352594358,
				"element": "H" 
			},
			{
				"x": 0.2974158042,
				"y": -3.2286229662,
				"z": -2.3473761704,
				"element": "H" 
			},
			{
				"x": -2.5007171231,
				"y": -1.7731624092,
				"z": 1.2672405852,
				"element": "H" 
			},
			{
				"x": -1.2974827628,
				"y": 2.289156102,
				"z": 2.0010985958,
				"element": "H" 
			},
			{
				"x": 0.3807796267,
				"y": 2.1453936483,
				"z": 0.1889810316,
				"element": "H" 
			}
		],
		 "valence_orbital": [ 
			{
				"type": "occ",
				"energy": -0.2924,
				"method": "rhf"
			},
			{
				"type": "occ",
				"energy": -0.29161,
				"method": "rhf"
			},
			{
				"type": "occ",
				"energy": -0.27882,
				"method": "rhf"
			},
			{
				"type": "occ",
				"energy": -0.25103,
				"method": "rhf"
			},
			{
				"type": "occ",
				"energy": -0.22734,
				"method": "rhf"
			},
			{
				"type": "unocc",
				"energy": -0.05838,
				"method": "rhf"
			},
			{
				"type": "unocc",
				"energy": -0.02951,
				"method": "rhf"
			},
			{
				"type": "unocc",
				"energy": -0.00087,
				"method": "rhf"
			},
			{
				"type": "unocc",
				"energy": 0.00564,
				"method": "rhf"
			},
			{
				"type": "unocc",
				"energy": 0.01174,
				"method": "rhf"
			}
		],
		"cosmo_sigma_profile": { 
			"-0.025": 0.0,
			"-0.024": 0.0,
			"-0.023": 0.0,
			"-0.022": 0.0,
			"-0.021": 0.0,
			"-0.02": 0.0,
			"-0.019": 0.0,
			"-0.018": 0.0,
			"-0.017": 0.0,
			"-0.016": 0.0,
			"-0.015": 0.0,
			"-0.014": 0.0,
			"-0.013": 0.0,
			"-0.012": 0.0,
			"-0.011": 0.0,
			"-0.01": 0.0,
			"-0.009": 0.0,
			"-0.008": 3.14411483523,
			"-0.007": 11.9513472941,
			"-0.006": 11.0384808214,
			"-0.005": 10.0131489812,
			"-0.004": 11.057130255,
			"-0.003": 11.4128941442,
			"-0.002": 10.863406311,
			"-0.001": 13.0716491829,
			"0.0": 14.1770583476,
			"0.001": 22.1219510311,
			"0.002": 43.8217242914,
			"0.003": 27.6793797224,
			"0.004": 22.8360112817,
			"0.005": 10.2432400138,
			"0.006": 0.0,
			"0.007": 0.0,
			"0.008": 0.0,
			"0.009": 0.0,
			"0.01": 0.0,
			"0.011": 0.0,
			"0.012": 0.0,
			"0.013": 0.0,
			"0.014": 0.0,
			"0.015": 0.0,
			"0.016": 0.0,
			"0.017": 0.0,
			"0.018": 0.0,
			"0.019": 0.0,
			"0.02": 0.0,
			"0.021": 0.0,
			"0.022": 0.0,
			"0.023": 0.0,
			"0.024": 0.0,
			"0.025": 0.0
		}
	}
}
