{
	 "smiles": "[O-][N+](=O)C1=CN=C(OCC2=CC=CO2)C=C1", 
	 "Tm": 361.15, 
	 "num_atms": 24, 
	 "gaussian": { 
		 "optdone": 1, 
		 "sigma_profile": "yes", 
		 "theory": "DFT", 
		 "functional": "B3LYP", 
		 "basiset": "6-31G**", 
		 "properties": { 
			 "R2extent": 5884.9052, 
			 "electric_dipole_moment_norm": 5.36100627308, 
			 "electric_quadrupole_moment_norm": 10.1397981183, 
			 "total_energy": -796.146218752, 
			 "HOMO_LUMO_gap": 0.15024, 
			 "cosmo_polarized_energy": -11.26, 
			 "cosmo_cavitation_energy": 30.68, 
			 "cosmo_dispersion_energy": -22.48, 
			 "cosmo_repulsion_energy": 1.75, 
			 "cosmo_total_nonelectrostatic_energy": 9.95, 
			 "SMD_solvation_energy": 7.95 
		},
		"coords": [
			{
				"x": 3.4116821675,
				"y": -2.8859243204,
				"z": 1.8762617336,
				"element": "O" 
			},
			{
				"x": 2.9009551937,
				"y": -2.8656947922,
				"z": 0.7549837388,
				"element": "N" 
			},
			{
				"x": 3.273245642,
				"y": -3.5497596095,
				"z": -0.1996139825,
				"element": "O" 
			},
			{
				"x": 1.7734956277,
				"y": -1.9657130888,
				"z": 0.5453828653,
				"element": "C" 
			},
			{
				"x": 1.1579446363,
				"y": -1.9022964796,
				"z": -0.6998090629,
				"element": "C" 
			},
			{
				"x": 0.120373785,
				"y": -1.0946047284,
				"z": -0.9431726974,
				"element": "N" 
			},
			{
				"x": -0.3224276689,
				"y": -0.3308773583,
				"z": 0.0579371545,
				"element": "C" 
			},
			{
				"x": -1.3619271005,
				"y": 0.4891649711,
				"z": -0.1460523486,
				"element": "O" 
			},
			{
				"x": -1.940988359,
				"y": 0.5206239456,
				"z": -1.4798237848,
				"element": "C" 
			},
			{
				"x": -3.0550956052,
				"y": 1.4953624019,
				"z": -1.4880258469,
				"element": "C" 
			},
			{
				"x": -4.4130724642,
				"y": 1.3599925654,
				"z": -1.4610279175,
				"element": "C" 
			},
			{
				"x": -4.9565250655,
				"y": 2.6844183983,
				"z": -1.4962949276,
				"element": "C" 
			},
			{
				"x": -3.8868237387,
				"y": 3.5264754073,
				"z": -1.5407099002,
				"element": "C" 
			},
			{
				"x": -2.7224071669,
				"y": 2.8227837708,
				"z": -1.5395653664,
				"element": "O" 
			},
			{
				"x": 0.2401618734,
				"y": -0.3283336206,
				"z": 1.3547715442,
				"element": "C" 
			},
			{
				"x": 1.3090375991,
				"y": -1.1644076933,
				"z": 1.5981896772,
				"element": "C" 
			},
			{
				"x": 1.5160347004,
				"y": -2.5216479626,
				"z": -1.515640018,
				"element": "H" 
			},
			{
				"x": -2.3048610775,
				"y": -0.4762903404,
				"z": -1.7402747319,
				"element": "H" 
			},
			{
				"x": -1.1591949779,
				"y": 0.7937812395,
				"z": -2.1942150554,
				"element": "H" 
			},
			{
				"x": -4.95954962,
				"y": 0.4283980387,
				"z": -1.4200191286,
				"element": "H" 
			},
			{
				"x": -5.9992072182,
				"y": 2.9669036591,
				"z": -1.4912287971,
				"element": "H" 
			},
			{
				"x": -3.7873151048,
				"y": 4.6002654292,
				"z": -1.5790133352,
				"element": "H" 
			},
			{
				"x": -0.1740835096,
				"y": 0.3210419403,
				"z": 2.1166688298,
				"element": "H" 
			},
			{
				"x": 1.7931474519,
				"y": -1.218061773,
				"z": 2.5656913574,
				"element": "H" 
			}
		],
		 "valence_orbital": [ 
			{
				"type": "occ",
				"energy": -0.29189,
				"method": "rhf"
			},
			{
				"type": "occ",
				"energy": -0.28949,
				"method": "rhf"
			},
			{
				"type": "occ",
				"energy": -0.28717,
				"method": "rhf"
			},
			{
				"type": "occ",
				"energy": -0.2601,
				"method": "rhf"
			},
			{
				"type": "occ",
				"energy": -0.23809,
				"method": "rhf"
			},
			{
				"type": "unocc",
				"energy": -0.08785,
				"method": "rhf"
			},
			{
				"type": "unocc",
				"energy": -0.04626,
				"method": "rhf"
			},
			{
				"type": "unocc",
				"energy": -0.00713,
				"method": "rhf"
			},
			{
				"type": "unocc",
				"energy": 0.00339,
				"method": "rhf"
			},
			{
				"type": "unocc",
				"energy": 0.05651,
				"method": "rhf"
			}
		],
		"cosmo_sigma_profile": { 
			"-0.025": 0.0,
			"-0.024": 0.0,
			"-0.023": 0.0,
			"-0.022": 0.0,
			"-0.021": 0.0,
			"-0.02": 0.0,
			"-0.019": 0.0,
			"-0.018": 0.0,
			"-0.017": 0.0,
			"-0.016": 0.0,
			"-0.015": 0.0,
			"-0.014": 0.0,
			"-0.013": 0.0,
			"-0.012": 0.0,
			"-0.011": 0.0,
			"-0.01": 0.0522625344333,
			"-0.009": 2.52033114108,
			"-0.008": 6.31437412697,
			"-0.007": 13.4794756887,
			"-0.006": 15.3986902463,
			"-0.005": 13.7754975659,
			"-0.004": 15.2832943473,
			"-0.003": 19.1818510683,
			"-0.002": 22.0459867293,
			"-0.001": 18.0782163127,
			"0.0": 16.0785372067,
			"0.001": 12.9491390165,
			"0.002": 11.230338979,
			"0.003": 13.4107254654,
			"0.004": 12.0571829843,
			"0.005": 13.8858406774,
			"0.006": 8.47996709629,
			"0.007": 11.6074532714,
			"0.008": 11.4044697888,
			"0.009": 5.73743168492,
			"0.01": 3.74790422241,
			"0.011": 0.473886447915,
			"0.012": 0.0,
			"0.013": 0.0,
			"0.014": 0.0,
			"0.015": 0.0,
			"0.016": 0.0,
			"0.017": 0.0,
			"0.018": 0.0,
			"0.019": 0.0,
			"0.02": 0.0,
			"0.021": 0.0,
			"0.022": 0.0,
			"0.023": 0.0,
			"0.024": 0.0,
			"0.025": 0.0
		}
	}
}
