{
	 "smiles": "COC1=CC=C2OC=CC2=C1", 
	 "Tm": 305.15, 
	 "num_atms": 19, 
	 "gaussian": { 
		 "optdone": 1, 
		 "sigma_profile": "yes", 
		 "theory": "DFT", 
		 "functional": "B3LYP", 
		 "basiset": "6-31G**", 
		 "properties": { 
			 "R2extent": 2993.083, 
			 "electric_dipole_moment_norm": 0.731317010605, 
			 "electric_quadrupole_moment_norm": 11.5142180082, 
			 "total_energy": -498.196252785, 
			 "HOMO_LUMO_gap": 0.19097, 
			 "cosmo_polarized_energy": -6.63, 
			 "cosmo_cavitation_energy": 22.87, 
			 "cosmo_dispersion_energy": -17.37, 
			 "cosmo_repulsion_energy": 1.37, 
			 "cosmo_total_nonelectrostatic_energy": 6.86, 
			 "SMD_solvation_energy": 5.43 
		},
		"coords": [
			{
				"x": -1.9511527268,
				"y": 0.4117900093,
				"z": 3.2346612341,
				"element": "C" 
			},
			{
				"x": -0.6590324376,
				"y": 0.9791241318,
				"z": 3.1144759426,
				"element": "O" 
			},
			{
				"x": 0.2431678609,
				"y": 0.3809227504,
				"z": 2.2737529476,
				"element": "C" 
			},
			{
				"x": -0.0419216103,
				"y": -0.7750664915,
				"z": 1.5157359406,
				"element": "C" 
			},
			{
				"x": 0.9231699346,
				"y": -1.3363027071,
				"z": 0.6762371662,
				"element": "C" 
			},
			{
				"x": 2.1587076302,
				"y": -0.7115575795,
				"z": 0.62389078,
				"element": "C" 
			},
			{
				"x": 3.2386281099,
				"y": -1.0979593742,
				"z": -0.1315426743,
				"element": "O" 
			},
			{
				"x": 4.2280288462,
				"y": -0.1877846449,
				"z": 0.1385897522,
				"element": "C" 
			},
			{
				"x": 3.8362572873,
				"y": 0.759412915,
				"z": 1.0268970814,
				"element": "C" 
			},
			{
				"x": 2.4690623682,
				"y": 0.4428653062,
				"z": 1.3699887958,
				"element": "C" 
			},
			{
				"x": 1.4963609363,
				"y": 0.99729996,
				"z": 2.2075210334,
				"element": "C" 
			},
			{
				"x": -1.9128149038,
				"y": -0.6147502029,
				"z": 3.62308988,
				"element": "H" 
			},
			{
				"x": -2.4914647809,
				"y": 1.0407527373,
				"z": 3.9443079976,
				"element": "H" 
			},
			{
				"x": -2.4880981919,
				"y": 0.4102329152,
				"z": 2.2766312534,
				"element": "H" 
			},
			{
				"x": -1.0166709907,
				"y": -1.2427615555,
				"z": 1.5762707997,
				"element": "H" 
			},
			{
				"x": 0.7126409444,
				"y": -2.2243694331,
				"z": 0.0902446402,
				"element": "H" 
			},
			{
				"x": 5.1579800453,
				"y": -0.3533045505,
				"z": -0.3846510926,
				"element": "H" 
			},
			{
				"x": 4.4364548638,
				"y": 1.5792076663,
				"z": 1.3945108738,
				"element": "H" 
			},
			{
				"x": 1.680596815,
				"y": 1.8843481478,
				"z": 2.8039876484,
				"element": "H" 
			}
		],
		 "valence_orbital": [ 
			{
				"type": "occ",
				"energy": -0.32267,
				"method": "rhf"
			},
			{
				"type": "occ",
				"energy": -0.30565,
				"method": "rhf"
			},
			{
				"type": "occ",
				"energy": -0.28946,
				"method": "rhf"
			},
			{
				"type": "occ",
				"energy": -0.21866,
				"method": "rhf"
			},
			{
				"type": "occ",
				"energy": -0.20795,
				"method": "rhf"
			},
			{
				"type": "unocc",
				"energy": -0.01698,
				"method": "rhf"
			},
			{
				"type": "unocc",
				"energy": 0.02771,
				"method": "rhf"
			},
			{
				"type": "unocc",
				"energy": 0.06154,
				"method": "rhf"
			},
			{
				"type": "unocc",
				"energy": 0.0961,
				"method": "rhf"
			},
			{
				"type": "unocc",
				"energy": 0.11354,
				"method": "rhf"
			}
		],
		"cosmo_sigma_profile": { 
			"-0.025": 0.0,
			"-0.024": 0.0,
			"-0.023": 0.0,
			"-0.022": 0.0,
			"-0.021": 0.0,
			"-0.02": 0.0,
			"-0.019": 0.0,
			"-0.018": 0.0,
			"-0.017": 0.0,
			"-0.016": 0.0,
			"-0.015": 0.0,
			"-0.014": 0.0,
			"-0.013": 0.0,
			"-0.012": 0.0,
			"-0.011": 0.0,
			"-0.01": 0.156575126472,
			"-0.009": 1.77700508801,
			"-0.008": 1.77282726655,
			"-0.007": 5.21753249705,
			"-0.006": 9.94087660446,
			"-0.005": 16.5354352875,
			"-0.004": 17.8255995437,
			"-0.003": 15.242784637,
			"-0.002": 9.79243082865,
			"-0.001": 8.43072965567,
			"0.0": 9.33235959952,
			"0.001": 8.64942178059,
			"0.002": 13.071847942,
			"0.003": 16.0015092866,
			"0.004": 19.7155148186,
			"0.005": 14.7870627029,
			"0.006": 3.84058264684,
			"0.007": 3.417026109,
			"0.008": 2.73658114667,
			"0.009": 2.84433036847,
			"0.01": 1.38268743298,
			"0.011": 0.954621071794,
			"0.012": 0.0,
			"0.013": 0.0,
			"0.014": 0.0,
			"0.015": 0.0,
			"0.016": 0.0,
			"0.017": 0.0,
			"0.018": 0.0,
			"0.019": 0.0,
			"0.02": 0.0,
			"0.021": 0.0,
			"0.022": 0.0,
			"0.023": 0.0,
			"0.024": 0.0,
			"0.025": 0.0
		}
	}
}
