{
	 "smiles": "CC1=C(C(Cl)=O)C(=NO1)C1=CC=CC=C1Cl", 
	 "Tm": 315.15, 
	 "num_atms": 23, 
	 "gaussian": { 
		 "optdone": 1, 
		 "sigma_profile": "yes", 
		 "theory": "DFT", 
		 "functional": "B3LYP", 
		 "basiset": "6-31G**", 
		 "properties": { 
			 "R2extent": 4358.1439, 
			 "electric_dipole_moment_norm": 1.77727728281, 
			 "electric_quadrupole_moment_norm": 27.1466771329, 
			 "total_energy": -1548.93173147, 
			 "HOMO_LUMO_gap": 0.18404, 
			 "cosmo_polarized_energy": -10.43, 
			 "cosmo_cavitation_energy": 31.65, 
			 "cosmo_dispersion_energy": -22.49, 
			 "cosmo_repulsion_energy": 1.76, 
			 "cosmo_total_nonelectrostatic_energy": 10.92, 
			 "SMD_solvation_energy": 5.54 
		},
		"coords": [
			{
				"x": 4.1024632207,
				"y": 0.0914779509,
				"z": -0.3032181587,
				"element": "C" 
			},
			{
				"x": 2.6274721198,
				"y": 0.0700045983,
				"z": -0.5105553582,
				"element": "C" 
			},
			{
				"x": 1.5060560839,
				"y": 0.145977338,
				"z": 0.29344732,
				"element": "C" 
			},
			{
				"x": 1.3544679291,
				"y": 0.2141919979,
				"z": 1.7391117428,
				"element": "C" 
			},
			{
				"x": 2.9322903142,
				"y": 0.3992439932,
				"z": 2.6654476762,
				"element": "Cl" 
			},
			{
				"x": 0.3327684562,
				"y": 0.1536394213,
				"z": 2.3526801056,
				"element": "O" 
			},
			{
				"x": 0.4035026136,
				"y": 0.0537762949,
				"z": -0.6363803508,
				"element": "C" 
			},
			{
				"x": 0.8312193103,
				"y": -0.0732605307,
				"z": -1.8680708025,
				"element": "N" 
			},
			{
				"x": 2.235393228,
				"y": -0.0623113607,
				"z": -1.7818655178,
				"element": "O" 
			},
			{
				"x": -1.0570038764,
				"y": 0.032697162,
				"z": -0.3857106948,
				"element": "C" 
			},
			{
				"x": -1.7786630667,
				"y": -1.1286820133,
				"z": -0.6968255655,
				"element": "C" 
			},
			{
				"x": -3.1552626182,
				"y": -1.1956547936,
				"z": -0.4942104121,
				"element": "C" 
			},
			{
				"x": -3.8335213892,
				"y": -0.0901976503,
				"z": 0.0188068662,
				"element": "C" 
			},
			{
				"x": -3.1393334627,
				"y": 1.0820245772,
				"z": 0.3179171809,
				"element": "C" 
			},
			{
				"x": -1.7626624586,
				"y": 1.1391556021,
				"z": 0.1111877889,
				"element": "C" 
			},
			{
				"x": -0.9317671933,
				"y": 2.6483893841,
				"z": 0.4470944753,
				"element": "Cl" 
			},
			{
				"x": 4.415551481,
				"y": 1.0306038231,
				"z": 0.1599675348,
				"element": "H" 
			},
			{
				"x": 4.4156669868,
				"y": -0.7170491696,
				"z": 0.361925351,
				"element": "H" 
			},
			{
				"x": 4.5983984724,
				"y": -0.0199285908,
				"z": -1.2692317306,
				"element": "H" 
			},
			{
				"x": -1.2400299238,
				"y": -1.9811257818,
				"z": -1.0973037117,
				"element": "H" 
			},
			{
				"x": -3.6935895452,
				"y": -2.1062615141,
				"z": -0.7367945457,
				"element": "H" 
			},
			{
				"x": -4.9059557827,
				"y": -0.1318765754,
				"z": 0.1832026602,
				"element": "H" 
			},
			{
				"x": -3.6568608991,
				"y": 1.9532658374,
				"z": 0.7031781463,
				"element": "H" 
			}
		],
		 "valence_orbital": [ 
			{
				"type": "occ",
				"energy": -0.31538,
				"method": "rhf"
			},
			{
				"type": "occ",
				"energy": -0.29953,
				"method": "rhf"
			},
			{
				"type": "occ",
				"energy": -0.28538,
				"method": "rhf"
			},
			{
				"type": "occ",
				"energy": -0.26882,
				"method": "rhf"
			},
			{
				"type": "occ",
				"energy": -0.25372,
				"method": "rhf"
			},
			{
				"type": "unocc",
				"energy": -0.06968,
				"method": "rhf"
			},
			{
				"type": "unocc",
				"energy": -0.0413,
				"method": "rhf"
			},
			{
				"type": "unocc",
				"energy": -0.02127,
				"method": "rhf"
			},
			{
				"type": "unocc",
				"energy": -0.01201,
				"method": "rhf"
			},
			{
				"type": "unocc",
				"energy": 0.01021,
				"method": "rhf"
			}
		],
		"cosmo_sigma_profile": { 
			"-0.025": 0.0,
			"-0.024": 0.0,
			"-0.023": 0.0,
			"-0.022": 0.0,
			"-0.021": 0.0,
			"-0.02": 0.0,
			"-0.019": 0.0,
			"-0.018": 0.0,
			"-0.017": 0.0,
			"-0.016": 0.0,
			"-0.015": 0.0,
			"-0.014": 0.0,
			"-0.013": 0.0,
			"-0.012": 0.0,
			"-0.011": 0.0,
			"-0.01": 0.0,
			"-0.009": 0.0,
			"-0.008": 1.14151925679,
			"-0.007": 12.5838590012,
			"-0.006": 16.1928777684,
			"-0.005": 19.4706518606,
			"-0.004": 20.2336883289,
			"-0.003": 20.0775331167,
			"-0.002": 13.7036483685,
			"-0.001": 15.3757315648,
			"0.0": 17.254904265,
			"0.001": 20.6408138489,
			"0.002": 20.9431006452,
			"0.003": 24.4037323767,
			"0.004": 19.271362796,
			"0.005": 11.0638891106,
			"0.006": 8.23602625017,
			"0.007": 5.16552483265,
			"0.008": 5.48386233669,
			"0.009": 3.64994949578,
			"0.01": 1.40126896065,
			"0.011": 1.33716018741,
			"0.012": 1.10432545012,
			"0.013": 0.227991009106,
			"0.014": 0.0,
			"0.015": 0.0,
			"0.016": 0.0,
			"0.017": 0.0,
			"0.018": 0.0,
			"0.019": 0.0,
			"0.02": 0.0,
			"0.021": 0.0,
			"0.022": 0.0,
			"0.023": 0.0,
			"0.024": 0.0,
			"0.025": 0.0
		}
	}
}
