{
	 "smiles": "COC1=CC(C=CC2=C(O)C(OC)=CC(C)=C2)=CC=C1O", 
	 "Tm": 397.5, 
	 "num_atms": 39, 
	 "gaussian": { 
		 "optdone": 1, 
		 "sigma_profile": "yes", 
		 "theory": "DFT", 
		 "functional": "B3LYP", 
		 "basiset": "6-31G**", 
		 "properties": { 
			 "R2extent": 12530.802, 
			 "electric_dipole_moment_norm": 3.30398788436, 
			 "electric_quadrupole_moment_norm": 26.4142069103, 
			 "total_energy": -959.515868257, 
			 "HOMO_LUMO_gap": 0.14433, 
			 "cosmo_polarized_energy": -16.95, 
			 "cosmo_cavitation_energy": 42.98, 
			 "cosmo_dispersion_energy": -31.15, 
			 "cosmo_repulsion_energy": 2.38, 
			 "cosmo_total_nonelectrostatic_energy": 14.22, 
			 "SMD_solvation_energy": 9.32 
		},
		"coords": [
			{
				"x": 5.612608264,
				"y": 0.7444295611,
				"z": -5.62327529,
				"element": "C" 
			},
			{
				"x": 4.8700047356,
				"y": -0.3183392818,
				"z": -5.0214175471,
				"element": "O" 
			},
			{
				"x": 4.6986674224,
				"y": -0.2383423183,
				"z": -3.6605159436,
				"element": "C" 
			},
			{
				"x": 3.4069821382,
				"y": -0.1233351147,
				"z": -3.155602066,
				"element": "C" 
			},
			{
				"x": 3.1347921516,
				"y": -0.10034353,
				"z": -1.774412464,
				"element": "C" 
			},
			{
				"x": 1.7446868693,
				"y": 0.0217294865,
				"z": -1.3293929275,
				"element": "C" 
			},
			{
				"x": 1.3099585715,
				"y": 0.1486355494,
				"z": -0.0580188105,
				"element": "C" 
			},
			{
				"x": -0.0827909401,
				"y": 0.2561504988,
				"z": 0.3783647364,
				"element": "C" 
			},
			{
				"x": -0.3469252148,
				"y": 0.5288045194,
				"z": 1.7294826354,
				"element": "C" 
			},
			{
				"x": 0.6804015256,
				"y": 0.6939525916,
				"z": 2.6135204181,
				"element": "O" 
			},
			{
				"x": -1.6742902915,
				"y": 0.6392035314,
				"z": 2.1898941232,
				"element": "C" 
			},
			{
				"x": -1.7615434249,
				"y": 0.9097974634,
				"z": 3.5375328091,
				"element": "O" 
			},
			{
				"x": -3.0514001394,
				"y": 1.039736653,
				"z": 4.1130498814,
				"element": "C" 
			},
			{
				"x": -2.7440432774,
				"y": 0.481088287,
				"z": 1.3202336585,
				"element": "C" 
			},
			{
				"x": -2.5043536156,
				"y": 0.2021038188,
				"z": -0.0404805557,
				"element": "C" 
			},
			{
				"x": -3.669236191,
				"y": 0.0217260087,
				"z": -0.9865153399,
				"element": "C" 
			},
			{
				"x": -1.1921365259,
				"y": 0.0932826626,
				"z": -0.4826053886,
				"element": "C" 
			},
			{
				"x": 4.2322989254,
				"y": -0.1919080013,
				"z": -0.898907435,
				"element": "C" 
			},
			{
				"x": 5.5285861401,
				"y": -0.3059447288,
				"z": -1.3896087335,
				"element": "C" 
			},
			{
				"x": 5.7803789922,
				"y": -0.3387922855,
				"z": -2.7648978443,
				"element": "C" 
			},
			{
				"x": 7.0388117725,
				"y": -0.4792084469,
				"z": -3.2846448939,
				"element": "O" 
			},
			{
				"x": 5.1370947582,
				"y": 1.7145237514,
				"z": -5.4270705145,
				"element": "H" 
			},
			{
				"x": 6.6469740214,
				"y": 0.7671664008,
				"z": -5.2680341606,
				"element": "H" 
			},
			{
				"x": 5.6006379771,
				"y": 0.550834731,
				"z": -6.698033864,
				"element": "H" 
			},
			{
				"x": 2.5960922925,
				"y": -0.0572592935,
				"z": -3.8753358514,
				"element": "H" 
			},
			{
				"x": 1.0158329367,
				"y": 0.0155668147,
				"z": -2.1381267851,
				"element": "H" 
			},
			{
				"x": 2.036122856,
				"y": 0.1900240557,
				"z": 0.7482454171,
				"element": "H" 
			},
			{
				"x": 0.2780409848,
				"y": 0.8640738868,
				"z": 3.479060778,
				"element": "H" 
			},
			{
				"x": -3.6311248581,
				"y": 0.1141113174,
				"z": 4.0078348074,
				"element": "H" 
			},
			{
				"x": -2.8941686886,
				"y": 1.2489604278,
				"z": 5.1723072372,
				"element": "H" 
			},
			{
				"x": -3.6102357684,
				"y": 1.8674391698,
				"z": 3.658577292,
				"element": "H" 
			},
			{
				"x": -3.7643252459,
				"y": 0.5659543551,
				"z": 1.6786738666,
				"element": "H" 
			},
			{
				"x": -4.3233570034,
				"y": -0.7992352709,
				"z": -0.6690945933,
				"element": "H" 
			},
			{
				"x": -3.3251220917,
				"y": -0.2017773538,
				"z": -1.9999753799,
				"element": "H" 
			},
			{
				"x": -4.289711041,
				"y": 0.9246064062,
				"z": -1.038191672,
				"element": "H" 
			},
			{
				"x": -1.0132294501,
				"y": -0.1375801518,
				"z": -1.5280085949,
				"element": "H" 
			},
			{
				"x": 4.0781189188,
				"y": -0.1846214712,
				"z": 0.1748696526,
				"element": "H" 
			},
			{
				"x": 6.3644726067,
				"y": -0.3857431286,
				"z": -0.6964484487,
				"element": "H" 
			},
			{
				"x": 7.6690289074,
				"y": -0.5479715711,
				"z": -2.5558322091,
				"element": "H" 
			}
		],
		 "valence_orbital": [ 
			{
				"type": "occ",
				"energy": -0.2705,
				"method": "rhf"
			},
			{
				"type": "occ",
				"energy": -0.24088,
				"method": "rhf"
			},
			{
				"type": "occ",
				"energy": -0.22547,
				"method": "rhf"
			},
			{
				"type": "occ",
				"energy": -0.20346,
				"method": "rhf"
			},
			{
				"type": "occ",
				"energy": -0.18095,
				"method": "rhf"
			},
			{
				"type": "unocc",
				"energy": -0.03662,
				"method": "rhf"
			},
			{
				"type": "unocc",
				"energy": 0.00755,
				"method": "rhf"
			},
			{
				"type": "unocc",
				"energy": 0.02366,
				"method": "rhf"
			},
			{
				"type": "unocc",
				"energy": 0.02968,
				"method": "rhf"
			},
			{
				"type": "unocc",
				"energy": 0.06676,
				"method": "rhf"
			}
		],
		"cosmo_sigma_profile": { 
			"-0.025": 0.0,
			"-0.024": 0.0,
			"-0.023": 0.0,
			"-0.022": 0.0,
			"-0.021": 0.0,
			"-0.02": 0.0,
			"-0.019": 0.0,
			"-0.018": 0.712159969881,
			"-0.017": 1.03292703809,
			"-0.016": 1.16116949254,
			"-0.015": 1.14290553983,
			"-0.014": 1.47361272943,
			"-0.013": 1.23957822821,
			"-0.012": 0.855457206669,
			"-0.011": 1.61254344951,
			"-0.01": 2.47385162949,
			"-0.009": 1.4815905845,
			"-0.008": 1.37238231615,
			"-0.007": 3.40820662357,
			"-0.006": 14.7797656535,
			"-0.005": 23.651531401,
			"-0.004": 27.9797301621,
			"-0.003": 30.6511951396,
			"-0.002": 27.703734214,
			"-0.001": 20.4006812827,
			"0.0": 20.6312113506,
			"0.001": 19.1033698487,
			"0.002": 19.2984720978,
			"0.003": 24.0489859148,
			"0.004": 26.7844945245,
			"0.005": 30.2113734795,
			"0.006": 15.8988397493,
			"0.007": 4.2998448603,
			"0.008": 4.19168888025,
			"0.009": 5.08904807234,
			"0.01": 4.40321835403,
			"0.011": 2.74047360319,
			"0.012": 1.39657970694,
			"0.013": 0.00772370495136,
			"0.014": 0.0,
			"0.015": 0.0,
			"0.016": 0.0,
			"0.017": 0.0,
			"0.018": 0.0,
			"0.019": 0.0,
			"0.02": 0.0,
			"0.021": 0.0,
			"0.022": 0.0,
			"0.023": 0.0,
			"0.024": 0.0,
			"0.025": 0.0
		}
	}
}
