{
	 "smiles": "COC1=CC(Cl)=C(OC)C=C1NC(=O)C=C", 
	 "Tm": 398.15, 
	 "num_atms": 28, 
	 "gaussian": { 
		 "optdone": 1, 
		 "sigma_profile": "yes", 
		 "theory": "DFT", 
		 "functional": "B3LYP", 
		 "basiset": "6-31G**", 
		 "properties": { 
			 "R2extent": 4969.5958, 
			 "electric_dipole_moment_norm": 2.76687674283, 
			 "electric_quadrupole_moment_norm": 18.6339753099, 
			 "total_energy": -1166.96796634, 
			 "HOMO_LUMO_gap": 0.18979, 
			 "cosmo_polarized_energy": -14.11, 
			 "cosmo_cavitation_energy": 34.45, 
			 "cosmo_dispersion_energy": -23.69, 
			 "cosmo_repulsion_energy": 1.88, 
			 "cosmo_total_nonelectrostatic_energy": 12.64, 
			 "SMD_solvation_energy": 8.84 
		},
		"coords": [
			{
				"x": 3.7595467134,
				"y": -0.0971802883,
				"z": 0.7505093009,
				"element": "C" 
			},
			{
				"x": 2.5637784247,
				"y": 0.6706095821,
				"z": 0.933397486,
				"element": "O" 
			},
			{
				"x": 1.4731288823,
				"y": 0.2211970432,
				"z": 0.2291923992,
				"element": "C" 
			},
			{
				"x": 1.0965213632,
				"y": 0.9049716519,
				"z": -0.9277763157,
				"element": "C" 
			},
			{
				"x": -0.011856004,
				"y": 0.4927722634,
				"z": -1.6639612562,
				"element": "C" 
			},
			{
				"x": -0.4685875629,
				"y": 1.3779627044,
				"z": -3.1045070761,
				"element": "Cl" 
			},
			{
				"x": -0.768331753,
				"y": -0.6148030987,
				"z": -1.2504767232,
				"element": "C" 
			},
			{
				"x": -1.8931592723,
				"y": -1.0143162363,
				"z": -1.921712412,
				"element": "O" 
			},
			{
				"x": -1.6612458763,
				"y": -1.9068590937,
				"z": -3.0163536375,
				"element": "C" 
			},
			{
				"x": -0.4005535852,
				"y": -1.2737566722,
				"z": -0.0756829165,
				"element": "C" 
			},
			{
				"x": 0.7037831108,
				"y": -0.8700059905,
				"z": 0.6827503422,
				"element": "C" 
			},
			{
				"x": 1.0578878105,
				"y": -1.5964771626,
				"z": 1.8444990146,
				"element": "N" 
			},
			{
				"x": 1.2618898006,
				"y": -1.1631855652,
				"z": 3.1499693886,
				"element": "C" 
			},
			{
				"x": 1.6349966846,
				"y": -1.969712048,
				"z": 3.9936698706,
				"element": "O" 
			},
			{
				"x": 0.9593759147,
				"y": 0.2620278374,
				"z": 3.4601073937,
				"element": "C" 
			},
			{
				"x": 1.1584520466,
				"y": 0.7275893489,
				"z": 4.6948134627,
				"element": "C" 
			},
			{
				"x": 4.5236050868,
				"y": 0.3775883492,
				"z": 1.3681010058,
				"element": "H" 
			},
			{
				"x": 4.0756377659,
				"y": -0.0815105402,
				"z": -0.2999654945,
				"element": "H" 
			},
			{
				"x": 3.6236000993,
				"y": -1.134343839,
				"z": 1.0755209948,
				"element": "H" 
			},
			{
				"x": 1.6858326071,
				"y": 1.7568081551,
				"z": -1.2468255566,
				"element": "H" 
			},
			{
				"x": -2.6424063578,
				"y": -2.1382359951,
				"z": -3.4342965768,
				"element": "H" 
			},
			{
				"x": -1.0388850454,
				"y": -1.4408925319,
				"z": -3.7883885836,
				"element": "H" 
			},
			{
				"x": -1.1831050738,
				"y": -2.8334414156,
				"z": -2.6736290336,
				"element": "H" 
			},
			{
				"x": -1.0152743159,
				"y": -2.1018032944,
				"z": 0.2629330667,
				"element": "H" 
			},
			{
				"x": 1.1178644675,
				"y": -2.6043193386,
				"z": 1.7667126647,
				"element": "H" 
			},
			{
				"x": 0.5613868498,
				"y": 0.8953091079,
				"z": 2.67550232,
				"element": "H" 
			},
			{
				"x": 0.9305524331,
				"y": 1.7549374772,
				"z": 4.9596397103,
				"element": "H" 
			},
			{
				"x": 1.557764786,
				"y": 0.0744695894,
				"z": 5.4647571614,
				"element": "H" 
			}
		],
		 "valence_orbital": [ 
			{
				"type": "occ",
				"energy": -0.28123,
				"method": "rhf"
			},
			{
				"type": "occ",
				"energy": -0.26947,
				"method": "rhf"
			},
			{
				"type": "occ",
				"energy": -0.25728,
				"method": "rhf"
			},
			{
				"type": "occ",
				"energy": -0.25551,
				"method": "rhf"
			},
			{
				"type": "occ",
				"energy": -0.23195,
				"method": "rhf"
			},
			{
				"type": "unocc",
				"energy": -0.04216,
				"method": "rhf"
			},
			{
				"type": "unocc",
				"energy": -0.02133,
				"method": "rhf"
			},
			{
				"type": "unocc",
				"energy": -0.01547,
				"method": "rhf"
			},
			{
				"type": "unocc",
				"energy": 0.02241,
				"method": "rhf"
			},
			{
				"type": "unocc",
				"energy": 0.08771,
				"method": "rhf"
			}
		],
		"cosmo_sigma_profile": { 
			"-0.025": 0.0,
			"-0.024": 0.0,
			"-0.023": 0.0,
			"-0.022": 0.0,
			"-0.021": 0.0,
			"-0.02": 0.0,
			"-0.019": 0.0,
			"-0.018": 0.0,
			"-0.017": 0.0,
			"-0.016": 0.0,
			"-0.015": 0.235927644331,
			"-0.014": 0.873667900554,
			"-0.013": 0.930712504548,
			"-0.012": 1.12121618425,
			"-0.011": 1.0346228111,
			"-0.01": 0.953340429287,
			"-0.009": 1.00830661771,
			"-0.008": 3.41092418639,
			"-0.007": 4.70651865631,
			"-0.006": 10.3573196846,
			"-0.005": 17.2802808918,
			"-0.004": 25.3418985937,
			"-0.003": 32.1860922332,
			"-0.002": 24.9164638237,
			"-0.001": 20.1137872411,
			"0.0": 17.2324252132,
			"0.001": 23.3102527376,
			"0.002": 20.6089977031,
			"0.003": 12.92305798,
			"0.004": 13.194901302,
			"0.005": 9.63893875414,
			"0.006": 4.33567191234,
			"0.007": 4.75055281069,
			"0.008": 4.40584734548,
			"0.009": 2.74717123361,
			"0.01": 4.2048539853,
			"0.011": 4.12183246082,
			"0.012": 2.25093542858,
			"0.013": 5.19700645249,
			"0.014": 2.9182072594,
			"0.015": 0.0369631546681,
			"0.016": 0.0,
			"0.017": 0.0,
			"0.018": 0.0,
			"0.019": 0.0,
			"0.02": 0.0,
			"0.021": 0.0,
			"0.022": 0.0,
			"0.023": 0.0,
			"0.024": 0.0,
			"0.025": 0.0
		}
	}
}
