{
	 "smiles": "NC1=C(C=CC=C1I)C(O)=O", 
	 "Tm": 446.15, 
	 "num_atms": 17, 
	 "gaussian": { 
		 "optdone": 1, 
		 "sigma_profile": "yes", 
		 "theory": "DFT", 
		 "functional": "B3LYP", 
		 "basiset": "6-31G**", 
		 "properties": { 
			 "R2extent": 1878.9527, 
			 "electric_dipole_moment_norm": 4.82980617002, 
			 "electric_quadrupole_moment_norm": 13.3571722198, 
			 "total_energy": -486.960760733, 
			 "HOMO_LUMO_gap": 0.19579, 
			 "cosmo_polarized_energy": -14.74, 
			 "cosmo_cavitation_energy": 24.03, 
			 "cosmo_dispersion_energy": -19.54, 
			 "cosmo_repulsion_energy": 1.52, 
			 "cosmo_total_nonelectrostatic_energy": 6.01, 
			 "SMD_solvation_energy": 4.75 
		},
		"coords": [
			{
				"x": 1.2507313598,
				"y": 1.7752198199,
				"z": 0.9126404626,
				"element": "N" 
			},
			{
				"x": 0.4482033764,
				"y": 0.6015084779,
				"z": 1.0770918856,
				"element": "C" 
			},
			{
				"x": -0.4108107043,
				"y": 0.2129665652,
				"z": 0.0236511755,
				"element": "C" 
			},
			{
				"x": -1.2231401981,
				"y": -0.9165632897,
				"z": 0.1694325692,
				"element": "C" 
			},
			{
				"x": -1.1688892989,
				"y": -1.6935886315,
				"z": 1.3211000405,
				"element": "C" 
			},
			{
				"x": -0.298995068,
				"y": -1.3443214594,
				"z": 2.353660338,
				"element": "C" 
			},
			{
				"x": 0.489937881,
				"y": -0.2000063047,
				"z": 2.2308192002,
				"element": "C" 
			},
			{
				"x": 1.7625477174,
				"y": 0.3116683396,
				"z": 3.8596158198,
				"element": "I" 
			},
			{
				"x": -0.492484316,
				"y": 0.9163978949,
				"z": -1.3201226202,
				"element": "C" 
			},
			{
				"x": 0.4734815308,
				"y": 1.7959448442,
				"z": -1.6152982094,
				"element": "O" 
			},
			{
				"x": -1.3797214075,
				"y": 0.6616713547,
				"z": -2.1060099729,
				"element": "O" 
			},
			{
				"x": 0.7194264097,
				"y": 2.6209311312,
				"z": 1.1152074876,
				"element": "H" 
			},
			{
				"x": 2.060211471,
				"y": 1.7657615443,
				"z": 1.5272570323,
				"element": "H" 
			},
			{
				"x": -1.8793193124,
				"y": -1.1687673542,
				"z": -0.6558233834,
				"element": "H" 
			},
			{
				"x": -1.7935750898,
				"y": -2.575739913,
				"z": 1.4197395992,
				"element": "H" 
			},
			{
				"x": -0.24365845,
				"y": -1.9474334441,
				"z": 3.2527756687,
				"element": "H" 
			},
			{
				"x": 1.0866540987,
				"y": 1.8699504246,
				"z": -0.8412370933,
				"element": "H" 
			}
		],
		 "valence_orbital": [ 
			{
				"type": "occ",
				"energy": -0.29999,
				"method": "rhf"
			},
			{
				"type": "occ",
				"energy": -0.29092,
				"method": "rhf"
			},
			{
				"type": "occ",
				"energy": -0.26867,
				"method": "rhf"
			},
			{
				"type": "occ",
				"energy": -0.26504,
				"method": "rhf"
			},
			{
				"type": "occ",
				"energy": -0.25527,
				"method": "rhf"
			},
			{
				"type": "unocc",
				"energy": -0.05948,
				"method": "rhf"
			},
			{
				"type": "unocc",
				"energy": -0.05522,
				"method": "rhf"
			},
			{
				"type": "unocc",
				"energy": -0.03129,
				"method": "rhf"
			},
			{
				"type": "unocc",
				"energy": 0.01864,
				"method": "rhf"
			},
			{
				"type": "unocc",
				"energy": 0.03454,
				"method": "rhf"
			}
		],
		"cosmo_sigma_profile": { 
			"-0.025": 0.0,
			"-0.024": 0.0,
			"-0.023": 0.0,
			"-0.022": 0.0,
			"-0.021": 0.0,
			"-0.02": 0.0,
			"-0.019": 0.0,
			"-0.018": 0.0,
			"-0.017": 0.0,
			"-0.016": 0.0,
			"-0.015": 0.0202984975581,
			"-0.014": 1.47064956595,
			"-0.013": 1.61254360052,
			"-0.012": 1.70801888568,
			"-0.011": 3.14671907021,
			"-0.01": 2.41050508978,
			"-0.009": 2.84874003845,
			"-0.008": 3.44665975972,
			"-0.007": 7.42301032028,
			"-0.006": 9.95260397219,
			"-0.005": 11.6485490186,
			"-0.004": 10.836438342,
			"-0.003": 11.2589072644,
			"-0.002": 10.5182709124,
			"-0.001": 11.327854357,
			"0.0": 13.4920630713,
			"0.001": 17.6936109028,
			"0.002": 19.4496812917,
			"0.003": 16.9040227651,
			"0.004": 9.58942747092,
			"0.005": 2.28427950792,
			"0.006": 2.49662968178,
			"0.007": 1.61915617774,
			"0.008": 2.74719406064,
			"0.009": 2.85481374442,
			"0.01": 3.37861474814,
			"0.011": 5.27348254021,
			"0.012": 6.28870372487,
			"0.013": 3.14478269741,
			"0.014": 0.818298066372,
			"0.015": 0.0,
			"0.016": 0.0,
			"0.017": 0.0,
			"0.018": 0.0,
			"0.019": 0.0,
			"0.02": 0.0,
			"0.021": 0.0,
			"0.022": 0.0,
			"0.023": 0.0,
			"0.024": 0.0,
			"0.025": 0.0
		}
	}
}
