{
	 "smiles": "CC(C)(C)N1N=CC2=C1N=CNC2=O", 
	 "Tm": 500.15, 
	 "num_atms": 26, 
	 "gaussian": { 
		 "optdone": 1, 
		 "sigma_profile": "yes", 
		 "theory": "DFT", 
		 "functional": "B3LYP", 
		 "basiset": "6-31G**", 
		 "properties": { 
			 "R2extent": 2757.9819, 
			 "electric_dipole_moment_norm": 3.8463264513, 
			 "electric_quadrupole_moment_norm": 12.1979769351, 
			 "total_energy": -644.436368509, 
			 "HOMO_LUMO_gap": 0.19726, 
			 "cosmo_polarized_energy": -14.48, 
			 "cosmo_cavitation_energy": 28.67, 
			 "cosmo_dispersion_energy": -20.76, 
			 "cosmo_repulsion_energy": 1.61, 
			 "cosmo_total_nonelectrostatic_energy": 9.53, 
			 "SMD_solvation_energy": 5.02 
		},
		"coords": [
			{
				"x": -0.2711957532,
				"y": -1.4067987672,
				"z": -2.8027531386,
				"element": "C" 
			},
			{
				"x": -0.4430383526,
				"y": -1.9214308992,
				"z": -1.3611599233,
				"element": "C" 
			},
			{
				"x": 0.2670160941,
				"y": -3.2710971781,
				"z": -1.1968372316,
				"element": "C" 
			},
			{
				"x": -1.9344814357,
				"y": -2.0628198606,
				"z": -1.0030587774,
				"element": "C" 
			},
			{
				"x": 0.1772724212,
				"y": -0.9327312035,
				"z": -0.4274359955,
				"element": "N" 
			},
			{
				"x": 1.2075375952,
				"y": -1.292126351,
				"z": 0.3931905367,
				"element": "N" 
			},
			{
				"x": 1.5343199965,
				"y": -0.2119003642,
				"z": 1.0890687209,
				"element": "C" 
			},
			{
				"x": 0.7171651595,
				"y": 0.8835742248,
				"z": 0.7341807012,
				"element": "C" 
			},
			{
				"x": -0.1473681156,
				"y": 0.3769706607,
				"z": -0.249310444,
				"element": "C" 
			},
			{
				"x": -1.1325645975,
				"y": 1.0683753105,
				"z": -0.9070544933,
				"element": "N" 
			},
			{
				"x": -1.2204667444,
				"y": 2.3108037069,
				"z": -0.5347940117,
				"element": "C" 
			},
			{
				"x": -0.4321929369,
				"y": 2.9052993274,
				"z": 0.4103339878,
				"element": "N" 
			},
			{
				"x": 0.6134515559,
				"y": 2.2626305333,
				"z": 1.1416963469,
				"element": "C" 
			},
			{
				"x": 1.2602604938,
				"y": 2.886926429,
				"z": 1.967004549,
				"element": "O" 
			},
			{
				"x": -0.7081929163,
				"y": -2.1256992494,
				"z": -3.5028696919,
				"element": "H" 
			},
			{
				"x": 0.7897104957,
				"y": -1.2939584408,
				"z": -3.04633895,
				"element": "H" 
			},
			{
				"x": -0.7689330157,
				"y": -0.4445717318,
				"z": -2.9393995627,
				"element": "H" 
			},
			{
				"x": -0.1945384242,
				"y": -3.9865170809,
				"z": -1.8842311073,
				"element": "H" 
			},
			{
				"x": 1.3309316665,
				"y": -3.1961470711,
				"z": -1.430327701,
				"element": "H" 
			},
			{
				"x": 0.1735586274,
				"y": -3.6526304092,
				"z": -0.1781319475,
				"element": "H" 
			},
			{
				"x": -2.4578158995,
				"y": -1.110750442,
				"z": -1.1124468332,
				"element": "H" 
			},
			{
				"x": -2.0505028307,
				"y": -2.4138957505,
				"z": 0.026929585,
				"element": "H" 
			},
			{
				"x": -2.4031480935,
				"y": -2.7945427626,
				"z": -1.6685469092,
				"element": "H" 
			},
			{
				"x": 2.335190911,
				"y": -0.2522302306,
				"z": 1.8140403493,
				"element": "H" 
			},
			{
				"x": -1.9701046647,
				"y": 2.9514484043,
				"z": -0.9934342835,
				"element": "H" 
			},
			{
				"x": -0.5713712362,
				"y": 3.8823191957,
				"z": 0.6383862251,
				"element": "H" 
			}
		],
		 "valence_orbital": [ 
			{
				"type": "occ",
				"energy": -0.30084,
				"method": "rhf"
			},
			{
				"type": "occ",
				"energy": -0.28697,
				"method": "rhf"
			},
			{
				"type": "occ",
				"energy": -0.26424,
				"method": "rhf"
			},
			{
				"type": "occ",
				"energy": -0.25747,
				"method": "rhf"
			},
			{
				"type": "occ",
				"energy": -0.23241,
				"method": "rhf"
			},
			{
				"type": "unocc",
				"energy": -0.03515,
				"method": "rhf"
			},
			{
				"type": "unocc",
				"energy": -0.00979,
				"method": "rhf"
			},
			{
				"type": "unocc",
				"energy": 0.04265,
				"method": "rhf"
			},
			{
				"type": "unocc",
				"energy": 0.06895,
				"method": "rhf"
			},
			{
				"type": "unocc",
				"energy": 0.08971,
				"method": "rhf"
			}
		],
		"cosmo_sigma_profile": { 
			"-0.025": 0.0,
			"-0.024": 0.0,
			"-0.023": 0.0,
			"-0.022": 0.0,
			"-0.021": 0.0,
			"-0.02": 0.0,
			"-0.019": 0.0,
			"-0.018": 0.0,
			"-0.017": 0.769649932374,
			"-0.016": 1.65069464266,
			"-0.015": 1.67076763103,
			"-0.014": 0.846718620333,
			"-0.013": 0.766262441338,
			"-0.012": 1.63115665456,
			"-0.011": 1.74558644576,
			"-0.01": 3.08710630549,
			"-0.009": 2.4457664869,
			"-0.008": 3.45744116032,
			"-0.007": 3.6888875652,
			"-0.006": 2.79630371811,
			"-0.005": 3.96127483541,
			"-0.004": 14.1110128828,
			"-0.003": 21.0718894099,
			"-0.002": 21.9095020091,
			"-0.001": 22.8827081129,
			"0.0": 32.3371908538,
			"0.001": 21.7714982069,
			"0.002": 11.4461863161,
			"0.003": 7.02513798931,
			"0.004": 5.90226397427,
			"0.005": 4.6090799661,
			"0.006": 5.22797036549,
			"0.007": 4.95256895737,
			"0.008": 2.55692840449,
			"0.009": 3.46600171876,
			"0.01": 3.35304567414,
			"0.011": 3.08848741298,
			"0.012": 4.60396229306,
			"0.013": 6.37379167284,
			"0.014": 1.49170793625,
			"0.015": 0.0,
			"0.016": 0.0,
			"0.017": 0.0,
			"0.018": 0.0,
			"0.019": 0.0,
			"0.02": 0.0,
			"0.021": 0.0,
			"0.022": 0.0,
			"0.023": 0.0,
			"0.024": 0.0,
			"0.025": 0.0
		}
	}
}
