{
	 "smiles": "ClC1=CC(Cl)=C(Cl)C2=C1OC1=C2C=C(Cl)C(Cl)=C1", 
	 "Tm": 510.15, 
	 "num_atms": 21, 
	 "gaussian": { 
		 "optdone": 1, 
		 "sigma_profile": "yes", 
		 "theory": "DFT", 
		 "functional": "B3LYP", 
		 "basiset": "6-31G**", 
		 "properties": { 
			 "R2extent": 8526.7561, 
			 "electric_dipole_moment_norm": 1.22810066363, 
			 "electric_quadrupole_moment_norm": 3.02810758395, 
			 "total_energy": -2835.26445186, 
			 "HOMO_LUMO_gap": 0.17229, 
			 "cosmo_polarized_energy": -5.22, 
			 "cosmo_cavitation_energy": 35.03, 
			 "cosmo_dispersion_energy": -26.48, 
			 "cosmo_repulsion_energy": 2.02, 
			 "cosmo_total_nonelectrostatic_energy": 10.57, 
			 "SMD_solvation_energy": 4.58 
		},
		"coords": [
			{
				"x": 3.4037068052,
				"y": 1.792038377,
				"z": -0.6276320358,
				"element": "Cl" 
			},
			{
				"x": 1.8695877366,
				"y": 1.1858455714,
				"z": -1.1807167101,
				"element": "C" 
			},
			{
				"x": 1.5600228818,
				"y": 1.1337752778,
				"z": -2.536858454,
				"element": "C" 
			},
			{
				"x": 0.3198188608,
				"y": 0.64310858,
				"z": -2.973712799,
				"element": "C" 
			},
			{
				"x": 0.0152625917,
				"y": 0.6135347177,
				"z": -4.6919046176,
				"element": "Cl" 
			},
			{
				"x": -0.6431337357,
				"y": 0.1915478271,
				"z": -2.0626770069,
				"element": "C" 
			},
			{
				"x": -2.1844553376,
				"y": -0.4190829069,
				"z": -2.591061714,
				"element": "Cl" 
			},
			{
				"x": -0.3414271557,
				"y": 0.2396991175,
				"z": -0.6948059766,
				"element": "C" 
			},
			{
				"x": 0.9104120995,
				"y": 0.7365148626,
				"z": -0.2808478581,
				"element": "C" 
			},
			{
				"x": 1.0467233865,
				"y": 0.716391591,
				"z": 1.0788237404,
				"element": "O" 
			},
			{
				"x": -0.1293457016,
				"y": 0.2001367117,
				"z": 1.5667775278,
				"element": "C" 
			},
			{
				"x": -1.0300970473,
				"y": -0.1158404147,
				"z": 0.5337850629,
				"element": "C" 
			},
			{
				"x": -2.2773207612,
				"y": -0.6528577814,
				"z": 0.8665587825,
				"element": "C" 
			},
			{
				"x": -2.5833704594,
				"y": -0.8559274971,
				"z": 2.2113611539,
				"element": "C" 
			},
			{
				"x": -4.1456159032,
				"y": -1.5276493021,
				"z": 2.6101525023,
				"element": "Cl" 
			},
			{
				"x": -1.6564340951,
				"y": -0.5280139772,
				"z": 3.2258661414,
				"element": "C" 
			},
			{
				"x": -2.0368132629,
				"y": -0.7810065909,
				"z": 4.9079769698,
				"element": "Cl" 
			},
			{
				"x": -0.4070429302,
				"y": 0.0089937157,
				"z": 2.9093919363,
				"element": "C" 
			},
			{
				"x": 2.2827791109,
				"y": 1.4753392841,
				"z": -3.2673550367,
				"element": "H" 
			},
			{
				"x": -3.0025909907,
				"y": -0.91130236,
				"z": 0.1065007572,
				"element": "H" 
			},
			{
				"x": 0.3070339077,
				"y": 0.2620551966,
				"z": 3.6828776341,
				"element": "H" 
			}
		],
		 "valence_orbital": [ 
			{
				"type": "occ",
				"energy": -0.31884,
				"method": "rhf"
			},
			{
				"type": "occ",
				"energy": -0.29794,
				"method": "rhf"
			},
			{
				"type": "occ",
				"energy": -0.27295,
				"method": "rhf"
			},
			{
				"type": "occ",
				"energy": -0.25213,
				"method": "rhf"
			},
			{
				"type": "occ",
				"energy": -0.24615,
				"method": "rhf"
			},
			{
				"type": "unocc",
				"energy": -0.07386,
				"method": "rhf"
			},
			{
				"type": "unocc",
				"energy": -0.03956,
				"method": "rhf"
			},
			{
				"type": "unocc",
				"energy": -0.02455,
				"method": "rhf"
			},
			{
				"type": "unocc",
				"energy": -0.02041,
				"method": "rhf"
			},
			{
				"type": "unocc",
				"energy": -0.00761,
				"method": "rhf"
			}
		],
		"cosmo_sigma_profile": { 
			"-0.025": 0.0,
			"-0.024": 0.0,
			"-0.023": 0.0,
			"-0.022": 0.0,
			"-0.021": 0.0,
			"-0.02": 0.0,
			"-0.019": 0.0,
			"-0.018": 0.0,
			"-0.017": 0.0,
			"-0.016": 0.0,
			"-0.015": 0.0,
			"-0.014": 0.0,
			"-0.013": 0.0,
			"-0.012": 0.0,
			"-0.011": 0.0,
			"-0.01": 0.694976476096,
			"-0.009": 3.43715771882,
			"-0.008": 2.51063759291,
			"-0.007": 4.21731453932,
			"-0.006": 4.3458393864,
			"-0.005": 5.24178354873,
			"-0.004": 10.6943968634,
			"-0.003": 18.9165424486,
			"-0.002": 31.2024755991,
			"-0.001": 45.9352696446,
			"0.0": 42.0669327137,
			"0.001": 26.4233863064,
			"0.002": 25.9679774868,
			"0.003": 39.2832642227,
			"0.004": 25.8886936572,
			"0.005": 6.53777201164,
			"0.006": 1.74499364297,
			"0.007": 0.413002603582,
			"0.008": 0.0,
			"0.009": 0.0,
			"0.01": 0.0,
			"0.011": 0.0,
			"0.012": 0.0,
			"0.013": 0.0,
			"0.014": 0.0,
			"0.015": 0.0,
			"0.016": 0.0,
			"0.017": 0.0,
			"0.018": 0.0,
			"0.019": 0.0,
			"0.02": 0.0,
			"0.021": 0.0,
			"0.022": 0.0,
			"0.023": 0.0,
			"0.024": 0.0,
			"0.025": 0.0
		}
	}
}
