{
	 "smiles": "CC(=O)N1N=CC2=C(O)N=CN=C12", 
	 "Tm": 525.15, 
	 "num_atms": 19, 
	 "gaussian": { 
		 "optdone": 1, 
		 "sigma_profile": "yes", 
		 "theory": "DFT", 
		 "functional": "B3LYP", 
		 "basiset": "6-31G**", 
		 "properties": { 
			 "R2extent": 2971.4631, 
			 "electric_dipole_moment_norm": 1.90059260758, 
			 "electric_quadrupole_moment_norm": 23.5262140214, 
			 "total_energy": -639.797146793, 
			 "HOMO_LUMO_gap": 0.19801, 
			 "cosmo_polarized_energy": -19.98, 
			 "cosmo_cavitation_energy": 24.27, 
			 "cosmo_dispersion_energy": -18.15, 
			 "cosmo_repulsion_energy": 1.41, 
			 "cosmo_total_nonelectrostatic_energy": 7.53, 
			 "SMD_solvation_energy": 2.72 
		},
		"coords": [
			{
				"x": -0.8084191074,
				"y": 0.4170103078,
				"z": 1.723116856,
				"element": "C" 
			},
			{
				"x": -0.9783940238,
				"y": 1.5183276519,
				"z": 0.7065273711,
				"element": "C" 
			},
			{
				"x": -1.7666482484,
				"y": 2.424491558,
				"z": 0.8108284401,
				"element": "O" 
			},
			{
				"x": -0.1260981799,
				"y": 1.4502992827,
				"z": -0.4521119582,
				"element": "N" 
			},
			{
				"x": -0.244932161,
				"y": 2.4349478287,
				"z": -1.4089892654,
				"element": "N" 
			},
			{
				"x": 0.6233166599,
				"y": 2.157440314,
				"z": -2.3505343985,
				"element": "C" 
			},
			{
				"x": 1.3589814595,
				"y": 0.9661141324,
				"z": -2.0516143744,
				"element": "C" 
			},
			{
				"x": 2.3751625457,
				"y": 0.1585429437,
				"z": -2.599891898,
				"element": "C" 
			},
			{
				"x": 2.9805896631,
				"y": 0.4149249012,
				"z": -3.7725063306,
				"element": "O" 
			},
			{
				"x": 2.7932678262,
				"y": -0.9264275634,
				"z": -1.9621171637,
				"element": "N" 
			},
			{
				"x": 2.2152694954,
				"y": -1.2209288748,
				"z": -0.7856434204,
				"element": "C" 
			},
			{
				"x": 1.2500448279,
				"y": -0.5561068784,
				"z": -0.1476706335,
				"element": "N" 
			},
			{
				"x": 0.8475947305,
				"y": 0.5325536176,
				"z": -0.812346449,
				"element": "C" 
			},
			{
				"x": -1.5164483542,
				"y": 0.6100672288,
				"z": 2.5287112227,
				"element": "H" 
			},
			{
				"x": -0.9924069043,
				"y": -0.5640217139,
				"z": 1.2781249485,
				"element": "H" 
			},
			{
				"x": 0.2134714641,
				"y": 0.389492635,
				"z": 2.1094872816,
				"element": "H" 
			},
			{
				"x": 0.6965894464,
				"y": 2.8135962644,
				"z": -3.2093966549,
				"element": "H" 
			},
			{
				"x": 2.614000154,
				"y": 1.2195974791,
				"z": -4.1635223302,
				"element": "H" 
			},
			{
				"x": 2.5841587062,
				"y": -2.1173211149,
				"z": -0.292751243,
				"element": "H" 
			}
		],
		 "valence_orbital": [ 
			{
				"type": "occ",
				"energy": -0.30813,
				"method": "rhf"
			},
			{
				"type": "occ",
				"energy": -0.2918,
				"method": "rhf"
			},
			{
				"type": "occ",
				"energy": -0.2837,
				"method": "rhf"
			},
			{
				"type": "occ",
				"energy": -0.27636,
				"method": "rhf"
			},
			{
				"type": "occ",
				"energy": -0.2638,
				"method": "rhf"
			},
			{
				"type": "unocc",
				"energy": -0.06579,
				"method": "rhf"
			},
			{
				"type": "unocc",
				"energy": -0.0411,
				"method": "rhf"
			},
			{
				"type": "unocc",
				"energy": -0.00128,
				"method": "rhf"
			},
			{
				"type": "unocc",
				"energy": 0.03476,
				"method": "rhf"
			},
			{
				"type": "unocc",
				"energy": 0.04169,
				"method": "rhf"
			}
		],
		"cosmo_sigma_profile": { 
			"-0.025": 0.0,
			"-0.024": 0.0,
			"-0.023": 0.0,
			"-0.022": 0.0,
			"-0.021": 0.0,
			"-0.02": 0.366168399964,
			"-0.019": 1.34367041894,
			"-0.018": 1.58064030348,
			"-0.017": 1.60564197585,
			"-0.016": 1.10308411153,
			"-0.015": 0.60023098038,
			"-0.014": 1.14631498283,
			"-0.013": 1.37793586379,
			"-0.012": 1.58758862903,
			"-0.011": 1.07439647848,
			"-0.01": 1.72077972858,
			"-0.009": 2.34890250769,
			"-0.008": 3.85553875788,
			"-0.007": 6.47132494881,
			"-0.006": 10.2617976861,
			"-0.005": 9.90080190955,
			"-0.004": 13.6319522968,
			"-0.003": 16.1589182025,
			"-0.002": 18.3696030686,
			"-0.001": 13.7313586371,
			"0.0": 9.39118110817,
			"0.001": 5.43494051571,
			"0.002": 6.73474660615,
			"0.003": 6.75018501799,
			"0.004": 5.66112776764,
			"0.005": 5.45244414209,
			"0.006": 5.55687364998,
			"0.007": 5.00519077428,
			"0.008": 5.3149752258,
			"0.009": 6.18365719885,
			"0.01": 7.60085944704,
			"0.011": 6.79300239926,
			"0.012": 3.56154734606,
			"0.013": 3.03398622127,
			"0.014": 1.97671859763,
			"0.015": 1.54290711252,
			"0.016": 1.12361111913,
			"0.017": 0.0611385965788,
			"0.018": 0.0,
			"0.019": 0.0,
			"0.02": 0.0,
			"0.021": 0.0,
			"0.022": 0.0,
			"0.023": 0.0,
			"0.024": 0.0,
			"0.025": 0.0
		}
	}
}
