{
	 "smiles": "O=C1CCC2=C(OCC3=CC=CC=C3)C=CC=C12", 
	 "Tm": 345.15, 
	 "num_atms": 32, 
	 "gaussian": { 
		 "optdone": 1, 
		 "sigma_profile": "yes", 
		 "theory": "DFT", 
		 "functional": "B3LYP", 
		 "basiset": "6-31G**", 
		 "properties": { 
			 "R2extent": 6252.6816, 
			 "electric_dipole_moment_norm": 4.7289554132, 
			 "electric_quadrupole_moment_norm": 20.4495743907, 
			 "total_energy": -768.589143414, 
			 "HOMO_LUMO_gap": 0.18074, 
			 "cosmo_polarized_energy": -11.6, 
			 "cosmo_cavitation_energy": 35.61, 
			 "cosmo_dispersion_energy": -25.31, 
			 "cosmo_repulsion_energy": 1.97, 
			 "cosmo_total_nonelectrostatic_energy": 12.27, 
			 "SMD_solvation_energy": 6.24 
		},
		"coords": [
			{
				"x": -4.7290987706,
				"y": 0.2039900272,
				"z": 0.4214489123,
				"element": "O" 
			},
			{
				"x": -3.5515409901,
				"y": -0.0075793307,
				"z": 0.6430983736,
				"element": "C" 
			},
			{
				"x": -2.9392664794,
				"y": -0.357573033,
				"z": 2.0111624745,
				"element": "C" 
			},
			{
				"x": -1.4196726645,
				"y": -0.5314131187,
				"z": 1.77698286,
				"element": "C" 
			},
			{
				"x": -1.2396755124,
				"y": -0.2733135053,
				"z": 0.2969091815,
				"element": "C" 
			},
			{
				"x": -0.0485999728,
				"y": -0.2956211899,
				"z": -0.4422700354,
				"element": "C" 
			},
			{
				"x": 1.087361564,
				"y": -0.5802097391,
				"z": 0.2677789111,
				"element": "O" 
			},
			{
				"x": 2.3573985512,
				"y": -0.4773042991,
				"z": -0.3757216698,
				"element": "C" 
			},
			{
				"x": 2.7001853402,
				"y": -1.6534407845,
				"z": -1.2700219147,
				"element": "C" 
			},
			{
				"x": 2.2474572183,
				"y": -2.9420940289,
				"z": -0.9640469181,
				"element": "C" 
			},
			{
				"x": 2.6119213465,
				"y": -4.0255248312,
				"z": -1.7634445786,
				"element": "C" 
			},
			{
				"x": 3.4397653989,
				"y": -3.8350800972,
				"z": -2.8722443881,
				"element": "C" 
			},
			{
				"x": 3.8973714777,
				"y": -2.5532257094,
				"z": -3.1810739271,
				"element": "C" 
			},
			{
				"x": 3.5248685355,
				"y": -1.4680926559,
				"z": -2.3856609247,
				"element": "C" 
			},
			{
				"x": -0.1032535853,
				"y": -0.0275667027,
				"z": -1.8149382743,
				"element": "C" 
			},
			{
				"x": -1.3286201827,
				"y": 0.2699866357,
				"z": -2.4367655152,
				"element": "C" 
			},
			{
				"x": -2.5136174837,
				"y": 0.3007665874,
				"z": -1.7121005687,
				"element": "C" 
			},
			{
				"x": -2.4420365336,
				"y": 0.0224933359,
				"z": -0.3427440357,
				"element": "C" 
			},
			{
				"x": -3.419402383,
				"y": -1.2637501688,
				"z": 2.3943687317,
				"element": "H" 
			},
			{
				"x": -3.1731596064,
				"y": 0.4431802515,
				"z": 2.7201615811,
				"element": "H" 
			},
			{
				"x": -0.8215966129,
				"y": 0.1683746806,
				"z": 2.37164791,
				"element": "H" 
			},
			{
				"x": -1.0684462592,
				"y": -1.534110521,
				"z": 2.0461617388,
				"element": "H" 
			},
			{
				"x": 2.4267856096,
				"y": 0.4660276794,
				"z": -0.9334019137,
				"element": "H" 
			},
			{
				"x": 3.0685672041,
				"y": -0.4188897855,
				"z": 0.455549836,
				"element": "H" 
			},
			{
				"x": 1.6018605181,
				"y": -3.0872186059,
				"z": -0.103432146,
				"element": "H" 
			},
			{
				"x": 2.2496552065,
				"y": -5.0203523672,
				"z": -1.5201491671,
				"element": "H" 
			},
			{
				"x": 3.7229373064,
				"y": -4.6797845556,
				"z": -3.493475183,
				"element": "H" 
			},
			{
				"x": 4.5367785673,
				"y": -2.3953350285,
				"z": -4.044924557,
				"element": "H" 
			},
			{
				"x": 3.8780861458,
				"y": -0.4697365619,
				"z": -2.6352253063,
				"element": "H" 
			},
			{
				"x": 0.7960667655,
				"y": -0.0680214343,
				"z": -2.417704997,
				"element": "H" 
			},
			{
				"x": -1.3344812169,
				"y": 0.4715339365,
				"z": -3.5040961556,
				"element": "H" 
			},
			{
				"x": -3.469098502,
				"y": 0.5273849199,
				"z": -2.1736283349,
				"element": "H" 
			}
		],
		 "valence_orbital": [ 
			{
				"type": "occ",
				"energy": -0.25826,
				"method": "rhf"
			},
			{
				"type": "occ",
				"energy": -0.2552,
				"method": "rhf"
			},
			{
				"type": "occ",
				"energy": -0.24955,
				"method": "rhf"
			},
			{
				"type": "occ",
				"energy": -0.23521,
				"method": "rhf"
			},
			{
				"type": "occ",
				"energy": -0.22659,
				"method": "rhf"
			},
			{
				"type": "unocc",
				"energy": -0.04585,
				"method": "rhf"
			},
			{
				"type": "unocc",
				"energy": -0.01304,
				"method": "rhf"
			},
			{
				"type": "unocc",
				"energy": -0.01123,
				"method": "rhf"
			},
			{
				"type": "unocc",
				"energy": 0.00022,
				"method": "rhf"
			},
			{
				"type": "unocc",
				"energy": 0.05669,
				"method": "rhf"
			}
		],
		"cosmo_sigma_profile": { 
			"-0.025": 0.0,
			"-0.024": 0.0,
			"-0.023": 0.0,
			"-0.022": 0.0,
			"-0.021": 0.0,
			"-0.02": 0.0,
			"-0.019": 0.0,
			"-0.018": 0.0,
			"-0.017": 0.0,
			"-0.016": 0.0,
			"-0.015": 0.0,
			"-0.014": 0.0,
			"-0.013": 0.0,
			"-0.012": 0.0,
			"-0.011": 0.0,
			"-0.01": 0.0,
			"-0.009": 0.0,
			"-0.008": 0.000543512057223,
			"-0.007": 2.76634980732,
			"-0.006": 16.9093045759,
			"-0.005": 27.0743187675,
			"-0.004": 32.359055607,
			"-0.003": 27.3772465865,
			"-0.002": 20.4510020774,
			"-0.001": 21.3673519311,
			"0.0": 16.2997096886,
			"0.001": 17.0858846198,
			"0.002": 19.1889460051,
			"0.003": 20.1863129506,
			"0.004": 20.1056195124,
			"0.005": 13.5156590426,
			"0.006": 8.73770011802,
			"0.007": 2.73692825188,
			"0.008": 2.43919055275,
			"0.009": 2.29045269677,
			"0.01": 1.84537550633,
			"0.011": 2.42756424595,
			"0.012": 5.13301898319,
			"0.013": 3.15078398347,
			"0.014": 0.546814958686,
			"0.015": 0.0,
			"0.016": 0.0,
			"0.017": 0.0,
			"0.018": 0.0,
			"0.019": 0.0,
			"0.02": 0.0,
			"0.021": 0.0,
			"0.022": 0.0,
			"0.023": 0.0,
			"0.024": 0.0,
			"0.025": 0.0
		}
	}
}
