{
	 "smiles": "O=C1OCCN1C1=CC(=CC=C1)C#N", 
	 "Tm": 376.15, 
	 "num_atms": 22, 
	 "gaussian": { 
		 "optdone": 1, 
		 "sigma_profile": "yes", 
		 "theory": "DFT", 
		 "functional": "B3LYP", 
		 "basiset": "6-31G**", 
		 "properties": { 
			 "R2extent": 3867.8836, 
			 "electric_dipole_moment_norm": 2.97263377832, 
			 "electric_quadrupole_moment_norm": 33.1611288962, 
			 "total_energy": -645.831758068, 
			 "HOMO_LUMO_gap": 0.18839, 
			 "cosmo_polarized_energy": -16.76, 
			 "cosmo_cavitation_energy": 27.14, 
			 "cosmo_dispersion_energy": -19.79, 
			 "cosmo_repulsion_energy": 1.54, 
			 "cosmo_total_nonelectrostatic_energy": 8.89, 
			 "SMD_solvation_energy": 6.88 
		},
		"coords": [
			{
				"x": -2.4269958419,
				"y": 1.8771799024,
				"z": 1.3774997117,
				"element": "O" 
			},
			{
				"x": -2.6419327016,
				"y": 1.9458065078,
				"z": 0.191955008,
				"element": "C" 
			},
			{
				"x": -3.716390987,
				"y": 2.6075475854,
				"z": -0.3256754749,
				"element": "O" 
			},
			{
				"x": -3.6176324191,
				"y": 2.6696370536,
				"z": -1.7553493015,
				"element": "C" 
			},
			{
				"x": -2.6019456689,
				"y": 1.5795623241,
				"z": -2.1264167163,
				"element": "C" 
			},
			{
				"x": -1.9014113307,
				"y": 1.4042554189,
				"z": -0.8585896146,
				"element": "N" 
			},
			{
				"x": -0.773655782,
				"y": 0.5688806197,
				"z": -0.7213848272,
				"element": "C" 
			},
			{
				"x": -0.3133525112,
				"y": -0.1418663491,
				"z": -1.8379384608,
				"element": "C" 
			},
			{
				"x": 0.8210805348,
				"y": -0.9623800343,
				"z": -1.7342010139,
				"element": "C" 
			},
			{
				"x": 1.5062925402,
				"y": -1.0852315101,
				"z": -0.5181165955,
				"element": "C" 
			},
			{
				"x": 1.0383978978,
				"y": -0.3748961587,
				"z": 0.5853346322,
				"element": "C" 
			},
			{
				"x": -0.0825705734,
				"y": 0.4465955465,
				"z": 0.5000739093,
				"element": "C" 
			},
			{
				"x": 1.2721724242,
				"y": -1.6779113388,
				"z": -2.8933565252,
				"element": "C" 
			},
			{
				"x": 1.6350652508,
				"y": -2.2557359473,
				"z": -3.835513247,
				"element": "N" 
			},
			{
				"x": -4.6080902964,
				"y": 2.4999650394,
				"z": -2.1805654739,
				"element": "H" 
			},
			{
				"x": -3.2674390675,
				"y": 3.6674925079,
				"z": -2.0405149488,
				"element": "H" 
			},
			{
				"x": -3.0863102821,
				"y": 0.6461597563,
				"z": -2.4431218411,
				"element": "H" 
			},
			{
				"x": -1.9230113205,
				"y": 1.9049534128,
				"z": -2.9197945851,
				"element": "H" 
			},
			{
				"x": -0.8184941427,
				"y": -0.0781616017,
				"z": -2.7931536067,
				"element": "H" 
			},
			{
				"x": 2.3809357679,
				"y": -1.7219101547,
				"z": -0.4487840176,
				"element": "H" 
			},
			{
				"x": 1.5565328548,
				"y": -0.4574516261,
				"z": 1.5357180245,
				"element": "H" 
			},
			{
				"x": -0.4385443454,
				"y": 0.9854090461,
				"z": 1.3663949644,
				"element": "H" 
			}
		],
		 "valence_orbital": [ 
			{
				"type": "occ",
				"energy": -0.31748,
				"method": "rhf"
			},
			{
				"type": "occ",
				"energy": -0.31245,
				"method": "rhf"
			},
			{
				"type": "occ",
				"energy": -0.29323,
				"method": "rhf"
			},
			{
				"type": "occ",
				"energy": -0.27134,
				"method": "rhf"
			},
			{
				"type": "occ",
				"energy": -0.24228,
				"method": "rhf"
			},
			{
				"type": "unocc",
				"energy": -0.05389,
				"method": "rhf"
			},
			{
				"type": "unocc",
				"energy": -0.02699,
				"method": "rhf"
			},
			{
				"type": "unocc",
				"energy": 0.03244,
				"method": "rhf"
			},
			{
				"type": "unocc",
				"energy": 0.03402,
				"method": "rhf"
			},
			{
				"type": "unocc",
				"energy": 0.06246,
				"method": "rhf"
			}
		],
		"cosmo_sigma_profile": { 
			"-0.025": 0.0,
			"-0.024": 0.0,
			"-0.023": 0.0,
			"-0.022": 0.0,
			"-0.021": 0.0,
			"-0.02": 0.0,
			"-0.019": 0.0,
			"-0.018": 0.0,
			"-0.017": 0.0,
			"-0.016": 0.0,
			"-0.015": 0.0,
			"-0.014": 0.0,
			"-0.013": 0.0,
			"-0.012": 0.0,
			"-0.011": 0.0,
			"-0.01": 0.00941098162415,
			"-0.009": 2.08882978843,
			"-0.008": 7.31516940332,
			"-0.007": 23.0427770521,
			"-0.006": 20.8094377609,
			"-0.005": 14.6058596329,
			"-0.004": 10.6905529817,
			"-0.003": 9.8887874468,
			"-0.002": 10.5430526822,
			"-0.001": 13.7232862205,
			"0.0": 11.8464812969,
			"0.001": 13.6175454823,
			"0.002": 16.44817535,
			"0.003": 9.81915879991,
			"0.004": 4.24808057303,
			"0.005": 4.93542434995,
			"0.006": 5.59180410842,
			"0.007": 4.22704805336,
			"0.008": 5.90664822929,
			"0.009": 7.78467969921,
			"0.01": 7.17726114067,
			"0.011": 6.23063204363,
			"0.012": 5.76877177241,
			"0.013": 2.50721599446,
			"0.014": 0.0469320781278,
			"0.015": 0.0,
			"0.016": 0.0,
			"0.017": 0.0,
			"0.018": 0.0,
			"0.019": 0.0,
			"0.02": 0.0,
			"0.021": 0.0,
			"0.022": 0.0,
			"0.023": 0.0,
			"0.024": 0.0,
			"0.025": 0.0
		}
	}
}
