{
	 "smiles": "CCCCCCOC1=C(OC)C=C(C=O)C=C1", 
	 "Tm": 313.15, 
	 "num_atms": 37, 
	 "gaussian": { 
		 "optdone": 1, 
		 "sigma_profile": "yes", 
		 "theory": "DFT", 
		 "functional": "B3LYP", 
		 "basiset": "6-31G**", 
		 "properties": { 
			 "R2extent": 7766.9005, 
			 "electric_dipole_moment_norm": 4.11166518214, 
			 "electric_quadrupole_moment_norm": 22.191342194, 
			 "total_energy": -771.19616078, 
			 "HOMO_LUMO_gap": 0.18181, 
			 "cosmo_polarized_energy": -9.3, 
			 "cosmo_cavitation_energy": 39.79, 
			 "cosmo_dispersion_energy": -27.15, 
			 "cosmo_repulsion_energy": 2.15, 
			 "cosmo_total_nonelectrostatic_energy": 14.79, 
			 "SMD_solvation_energy": 8.23 
		},
		"coords": [
			{
				"x": 3.0719848792,
				"y": 3.1624289742,
				"z": 1.6996049183,
				"element": "C" 
			},
			{
				"x": 2.3071403186,
				"y": 2.5420278559,
				"z": 0.5241384544,
				"element": "C" 
			},
			{
				"x": 0.8486726428,
				"y": 2.164852998,
				"z": 0.8371200316,
				"element": "C" 
			},
			{
				"x": 0.6955484324,
				"y": 1.0277049559,
				"z": 1.8578671287,
				"element": "C" 
			},
			{
				"x": -0.7610016981,
				"y": 0.6547718704,
				"z": 2.1819676752,
				"element": "C" 
			},
			{
				"x": -1.5471647186,
				"y": 0.0441005396,
				"z": 1.0293757933,
				"element": "C" 
			},
			{
				"x": -0.8785031043,
				"y": -1.1755717049,
				"z": 0.6294617403,
				"element": "O" 
			},
			{
				"x": -1.4278478374,
				"y": -1.8431254351,
				"z": -0.432523019,
				"element": "C" 
			},
			{
				"x": -2.6953518112,
				"y": -2.4579911759,
				"z": -0.3470722032,
				"element": "C" 
			},
			{
				"x": -3.4592600255,
				"y": -2.3756470193,
				"z": 0.7950851014,
				"element": "O" 
			},
			{
				"x": -2.9598931387,
				"y": -3.1330561529,
				"z": 1.9053974991,
				"element": "C" 
			},
			{
				"x": -3.2034834775,
				"y": -3.1315869877,
				"z": -1.454686518,
				"element": "C" 
			},
			{
				"x": -2.4622735347,
				"y": -3.2214179325,
				"z": -2.6404136345,
				"element": "C" 
			},
			{
				"x": -3.0221568862,
				"y": -3.9409110093,
				"z": -3.8033255666,
				"element": "C" 
			},
			{
				"x": -2.4529607461,
				"y": -4.0845116694,
				"z": -4.8695855606,
				"element": "O" 
			},
			{
				"x": -1.1884235446,
				"y": -2.6375234345,
				"z": -2.7100164943,
				"element": "C" 
			},
			{
				"x": -0.681648074,
				"y": -1.9519328483,
				"z": -1.6137408631,
				"element": "C" 
			},
			{
				"x": 3.1723059666,
				"y": 2.4659707264,
				"z": 2.5382972503,
				"element": "H" 
			},
			{
				"x": 2.5621690001,
				"y": 4.0587034301,
				"z": 2.072318906,
				"element": "H" 
			},
			{
				"x": 4.0824885678,
				"y": 3.4576231536,
				"z": 1.3984437396,
				"element": "H" 
			},
			{
				"x": 2.8412564444,
				"y": 1.6495145342,
				"z": 0.1703057816,
				"element": "H" 
			},
			{
				"x": 2.3125109818,
				"y": 3.2495349275,
				"z": -0.3147602302,
				"element": "H" 
			},
			{
				"x": 0.3159766279,
				"y": 3.0557892092,
				"z": 1.2014916965,
				"element": "H" 
			},
			{
				"x": 0.3580442565,
				"y": 1.8806232488,
				"z": -0.1026107345,
				"element": "H" 
			},
			{
				"x": 1.2163363919,
				"y": 0.1349630246,
				"z": 1.4907767363,
				"element": "H" 
			},
			{
				"x": 1.1878801588,
				"y": 1.3093059503,
				"z": 2.7961817076,
				"element": "H" 
			},
			{
				"x": -1.3100434232,
				"y": 1.545375276,
				"z": 2.5169370361,
				"element": "H" 
			},
			{
				"x": -0.7770780487,
				"y": -0.0532641298,
				"z": 3.0196654144,
				"element": "H" 
			},
			{
				"x": -2.5741711672,
				"y": -0.1821748963,
				"z": 1.3332239948,
				"element": "H" 
			},
			{
				"x": -1.5868846713,
				"y": 0.7195018465,
				"z": 0.1650927943,
				"element": "H" 
			},
			{
				"x": -3.6582799365,
				"y": -2.9658380893,
				"z": 2.7276055807,
				"element": "H" 
			},
			{
				"x": -2.9336602609,
				"y": -4.2028215059,
				"z": 1.6636724628,
				"element": "H" 
			},
			{
				"x": -1.9584154915,
				"y": -2.80104026,
				"z": 2.1963856423,
				"element": "H" 
			},
			{
				"x": -4.1866922491,
				"y": -3.5884703098,
				"z": -1.3762042306,
				"element": "H" 
			},
			{
				"x": -4.0398706051,
				"y": -4.3616671306,
				"z": -3.6393349492,
				"element": "H" 
			},
			{
				"x": -0.6255899137,
				"y": -2.7240007852,
				"z": -3.6336084688,
				"element": "H" 
			},
			{
				"x": 0.2950396951,
				"y": -1.4792400446,
				"z": -1.6420346129,
				"element": "H" 
			}
		],
		 "valence_orbital": [ 
			{
				"type": "occ",
				"energy": -0.30417,
				"method": "rhf"
			},
			{
				"type": "occ",
				"energy": -0.27468,
				"method": "rhf"
			},
			{
				"type": "occ",
				"energy": -0.2577,
				"method": "rhf"
			},
			{
				"type": "occ",
				"energy": -0.25045,
				"method": "rhf"
			},
			{
				"type": "occ",
				"energy": -0.2401,
				"method": "rhf"
			},
			{
				"type": "unocc",
				"energy": -0.05829,
				"method": "rhf"
			},
			{
				"type": "unocc",
				"energy": -0.01125,
				"method": "rhf"
			},
			{
				"type": "unocc",
				"energy": 0.04248,
				"method": "rhf"
			},
			{
				"type": "unocc",
				"energy": 0.07318,
				"method": "rhf"
			},
			{
				"type": "unocc",
				"energy": 0.09009,
				"method": "rhf"
			}
		],
		"cosmo_sigma_profile": { 
			"-0.025": 0.0,
			"-0.024": 0.0,
			"-0.023": 0.0,
			"-0.022": 0.0,
			"-0.021": 0.0,
			"-0.02": 0.0,
			"-0.019": 0.0,
			"-0.018": 0.0,
			"-0.017": 0.0,
			"-0.016": 0.0,
			"-0.015": 0.0,
			"-0.014": 0.0,
			"-0.013": 0.0,
			"-0.012": 0.0,
			"-0.011": 0.0,
			"-0.01": 0.0,
			"-0.009": 0.0,
			"-0.008": 1.11187205888,
			"-0.007": 4.63834390746,
			"-0.006": 8.52536033781,
			"-0.005": 11.2183247616,
			"-0.004": 17.1821282727,
			"-0.003": 31.2459394457,
			"-0.002": 41.5334078173,
			"-0.001": 41.3380897644,
			"0.0": 39.9711541697,
			"0.001": 37.5780025264,
			"0.002": 26.0492009176,
			"0.003": 12.2598823309,
			"0.004": 5.93457284516,
			"0.005": 5.24627770245,
			"0.006": 3.88401351134,
			"0.007": 2.94026759557,
			"0.008": 3.79649796941,
			"0.009": 3.59446005735,
			"0.01": 4.22600007006,
			"0.011": 4.84095816493,
			"0.012": 3.69000480753,
			"0.013": 1.09284817273,
			"0.014": 0.0,
			"0.015": 0.0,
			"0.016": 0.0,
			"0.017": 0.0,
			"0.018": 0.0,
			"0.019": 0.0,
			"0.02": 0.0,
			"0.021": 0.0,
			"0.022": 0.0,
			"0.023": 0.0,
			"0.024": 0.0,
			"0.025": 0.0
		}
	}
}
