{
	 "smiles": "CC(O)C1=CC=NC=C1", 
	 "Tm": 342.15, 
	 "num_atms": 18, 
	 "gaussian": { 
		 "optdone": 1, 
		 "sigma_profile": "yes", 
		 "theory": "DFT", 
		 "functional": "B3LYP", 
		 "basiset": "6-31G**", 
		 "properties": { 
			 "R2extent": 1675.4135, 
			 "electric_dipole_moment_norm": 1.94498016699, 
			 "electric_quadrupole_moment_norm": 9.95721904901, 
			 "total_energy": -402.135473007, 
			 "HOMO_LUMO_gap": 0.2276, 
			 "cosmo_polarized_energy": -9.77, 
			 "cosmo_cavitation_energy": 21.42, 
			 "cosmo_dispersion_energy": -15.67, 
			 "cosmo_repulsion_energy": 1.29, 
			 "cosmo_total_nonelectrostatic_energy": 7.05, 
			 "SMD_solvation_energy": 2.47 
		},
		"coords": [
			{
				"x": -0.9601341108,
				"y": 0.2987825707,
				"z": -1.0970921491,
				"element": "C" 
			},
			{
				"x": -0.9167055605,
				"y": 1.0245671994,
				"z": 0.2490302814,
				"element": "C" 
			},
			{
				"x": -2.2692680708,
				"y": 1.1564116694,
				"z": 0.6754228825,
				"element": "O" 
			},
			{
				"x": -0.0647492495,
				"y": 0.2754110939,
				"z": 1.263256401,
				"element": "C" 
			},
			{
				"x": -0.6258261211,
				"y": -0.6767864243,
				"z": 2.1195763674,
				"element": "C" 
			},
			{
				"x": 0.2039584427,
				"y": -1.3558814471,
				"z": 3.0123678379,
				"element": "C" 
			},
			{
				"x": 1.5245376365,
				"y": -1.1547298379,
				"z": 3.1079694391,
				"element": "N" 
			},
			{
				"x": 2.0543315466,
				"y": -0.2398760412,
				"z": 2.2854282014,
				"element": "C" 
			},
			{
				"x": 1.3131340186,
				"y": 0.4943203662,
				"z": 1.3598261763,
				"element": "C" 
			},
			{
				"x": -1.3933297619,
				"y": -0.6977303735,
				"z": -0.9712715813,
				"element": "H" 
			},
			{
				"x": -1.5792244496,
				"y": 0.8622593102,
				"z": -1.8006769467,
				"element": "H" 
			},
			{
				"x": 0.0452292438,
				"y": 0.1923534413,
				"z": -1.5136919107,
				"element": "H" 
			},
			{
				"x": -0.4674904542,
				"y": 2.0196276958,
				"z": 0.0944360005,
				"element": "H" 
			},
			{
				"x": -2.2708404431,
				"y": 1.6253157886,
				"z": 1.5206609957,
				"element": "H" 
			},
			{
				"x": -1.6920331034,
				"y": -0.8755390558,
				"z": 2.0877797805,
				"element": "H" 
			},
			{
				"x": -0.2158715456,
				"y": -2.1003966232,
				"z": 3.6872327631,
				"element": "H" 
			},
			{
				"x": 3.1278040685,
				"y": -0.0800443442,
				"z": 2.3748029567,
				"element": "H" 
			},
			{
				"x": 1.805777914,
				"y": 1.2296350118,
				"z": 0.7283425043,
				"element": "H" 
			}
		],
		 "valence_orbital": [ 
			{
				"type": "occ",
				"energy": -0.33774,
				"method": "rhf"
			},
			{
				"type": "occ",
				"energy": -0.29123,
				"method": "rhf"
			},
			{
				"type": "occ",
				"energy": -0.27032,
				"method": "rhf"
			},
			{
				"type": "occ",
				"energy": -0.26176,
				"method": "rhf"
			},
			{
				"type": "occ",
				"energy": -0.25221,
				"method": "rhf"
			},
			{
				"type": "unocc",
				"energy": -0.02461,
				"method": "rhf"
			},
			{
				"type": "unocc",
				"energy": -0.01156,
				"method": "rhf"
			},
			{
				"type": "unocc",
				"energy": 0.07562,
				"method": "rhf"
			},
			{
				"type": "unocc",
				"energy": 0.10623,
				"method": "rhf"
			},
			{
				"type": "unocc",
				"energy": 0.11964,
				"method": "rhf"
			}
		],
		"cosmo_sigma_profile": { 
			"-0.025": 0.0,
			"-0.024": 0.0,
			"-0.023": 0.0,
			"-0.022": 0.0,
			"-0.021": 0.0,
			"-0.02": 0.0,
			"-0.019": 0.0,
			"-0.018": 0.0,
			"-0.017": 0.0,
			"-0.016": 0.36106242769,
			"-0.015": 0.771798402378,
			"-0.014": 1.15367237977,
			"-0.013": 0.867473075703,
			"-0.012": 1.05848256545,
			"-0.011": 0.647960157977,
			"-0.01": 0.671134840873,
			"-0.009": 0.902958586191,
			"-0.008": 1.09347984617,
			"-0.007": 1.90405672906,
			"-0.006": 8.92394157978,
			"-0.005": 12.8412157304,
			"-0.004": 14.2713727505,
			"-0.003": 14.1687304514,
			"-0.002": 14.2765946921,
			"-0.001": 12.6413493985,
			"0.0": 14.3043060952,
			"0.001": 11.5148754181,
			"0.002": 11.5588251435,
			"0.003": 14.22426477,
			"0.004": 3.95916166949,
			"0.005": 3.03470475038,
			"0.006": 2.87845045878,
			"0.007": 2.62229103716,
			"0.008": 2.1118574295,
			"0.009": 2.80009713489,
			"0.01": 2.61072891168,
			"0.011": 1.43462854263,
			"0.012": 2.73201680613,
			"0.013": 2.29001453344,
			"0.014": 1.99676429178,
			"0.015": 1.21118692701,
			"0.016": 0.703634930908,
			"0.017": 0.647801789305,
			"0.018": 0.0341219972772,
			"0.019": 0.0,
			"0.02": 0.0,
			"0.021": 0.0,
			"0.022": 0.0,
			"0.023": 0.0,
			"0.024": 0.0,
			"0.025": 0.0
		}
	}
}
