{
	 "smiles": "CC1CC(O)CC(C)N1", 
	 "Tm": 383.15, 
	 "num_atms": 24, 
	 "gaussian": { 
		 "optdone": 1, 
		 "sigma_profile": "yes", 
		 "theory": "DFT", 
		 "functional": "B3LYP", 
		 "basiset": "6-31G**", 
		 "properties": { 
			 "R2extent": 1360.6703, 
			 "electric_dipole_moment_norm": 1.77614034637, 
			 "electric_quadrupole_moment_norm": 5.4406348545, 
			 "total_energy": -405.753228955, 
			 "HOMO_LUMO_gap": 0.27737, 
			 "cosmo_polarized_energy": -8.08, 
			 "cosmo_cavitation_energy": 23.82, 
			 "cosmo_dispersion_energy": -17.76, 
			 "cosmo_repulsion_energy": 1.46, 
			 "cosmo_total_nonelectrostatic_energy": 7.52, 
			 "SMD_solvation_energy": 1.61 
		},
		"coords": [
			{
				"x": 0.7082396555,
				"y": 0.355491984,
				"z": -1.8656861831,
				"element": "C" 
			},
			{
				"x": -0.5028290782,
				"y": 0.7967159647,
				"z": -1.0289303884,
				"element": "C" 
			},
			{
				"x": -1.1765205148,
				"y": -0.3752947674,
				"z": -0.2953072838,
				"element": "C" 
			},
			{
				"x": -0.355660972,
				"y": -0.9671614179,
				"z": 0.8611107678,
				"element": "C" 
			},
			{
				"x": 0.4986563636,
				"y": -1.9790365851,
				"z": 0.3167394259,
				"element": "O" 
			},
			{
				"x": 0.4474291581,
				"y": 0.1258469242,
				"z": 1.606948395,
				"element": "C" 
			},
			{
				"x": -0.1408457,
				"y": 1.5269044394,
				"z": 1.3565061967,
				"element": "C" 
			},
			{
				"x": 0.6072137698,
				"y": 2.6143004627,
				"z": 2.1269070066,
				"element": "C" 
			},
			{
				"x": -0.1636177485,
				"y": 1.8781721654,
				"z": -0.0708030136,
				"element": "N" 
			},
			{
				"x": 1.1745990065,
				"y": 1.222788623,
				"z": -2.3492785573,
				"element": "H" 
			},
			{
				"x": 1.4579151723,
				"y": -0.156669162,
				"z": -1.2573865532,
				"element": "H" 
			},
			{
				"x": 0.3986878743,
				"y": -0.3351097776,
				"z": -2.6578620231,
				"element": "H" 
			},
			{
				"x": -1.2475845603,
				"y": 1.1989080869,
				"z": -1.733148398,
				"element": "H" 
			},
			{
				"x": -1.4060498145,
				"y": -1.1781574877,
				"z": -1.0029845763,
				"element": "H" 
			},
			{
				"x": -2.1343285838,
				"y": -0.0266081276,
				"z": 0.1080810262,
				"element": "H" 
			},
			{
				"x": -1.0625911021,
				"y": -1.4357922097,
				"z": 1.5646260402,
				"element": "H" 
			},
			{
				"x": 1.0412683225,
				"y": -2.3240376357,
				"z": 1.0380671541,
				"element": "H" 
			},
			{
				"x": 1.4793167113,
				"y": 0.113897064,
				"z": 1.2318614794,
				"element": "H" 
			},
			{
				"x": 0.4911152267,
				"y": -0.0920640185,
				"z": 2.6824060191,
				"element": "H" 
			},
			{
				"x": -1.1803238579,
				"y": 1.5249950892,
				"z": 1.7194510479,
				"element": "H" 
			},
			{
				"x": 0.5522877935,
				"y": 2.4413649023,
				"z": 3.2061016096,
				"element": "H" 
			},
			{
				"x": 0.1809350316,
				"y": 3.5983095536,
				"z": 1.910105816,
				"element": "H" 
			},
			{
				"x": 1.6679492579,
				"y": 2.6320890699,
				"z": 1.8452075019,
				"element": "H" 
			},
			{
				"x": 0.7365385887,
				"y": 2.2768468599,
				"z": -0.3234325096,
				"element": "H" 
			}
		],
		 "valence_orbital": [ 
			{
				"type": "occ",
				"energy": -0.33672,
				"method": "rhf"
			},
			{
				"type": "occ",
				"energy": -0.31578,
				"method": "rhf"
			},
			{
				"type": "occ",
				"energy": -0.29888,
				"method": "rhf"
			},
			{
				"type": "occ",
				"energy": -0.25947,
				"method": "rhf"
			},
			{
				"type": "occ",
				"energy": -0.20257,
				"method": "rhf"
			},
			{
				"type": "unocc",
				"energy": 0.0748,
				"method": "rhf"
			},
			{
				"type": "unocc",
				"energy": 0.0878,
				"method": "rhf"
			},
			{
				"type": "unocc",
				"energy": 0.10512,
				"method": "rhf"
			},
			{
				"type": "unocc",
				"energy": 0.11894,
				"method": "rhf"
			},
			{
				"type": "unocc",
				"energy": 0.13388,
				"method": "rhf"
			}
		],
		"cosmo_sigma_profile": { 
			"-0.025": 0.0,
			"-0.024": 0.0,
			"-0.023": 0.0,
			"-0.022": 0.0,
			"-0.021": 0.0,
			"-0.02": 0.0,
			"-0.019": 0.0,
			"-0.018": 0.0,
			"-0.017": 0.0,
			"-0.016": 0.0,
			"-0.015": 0.485499328364,
			"-0.014": 0.958377448645,
			"-0.013": 1.00876932322,
			"-0.012": 0.870613416799,
			"-0.011": 0.77585517593,
			"-0.01": 0.918084662445,
			"-0.009": 0.908048092494,
			"-0.008": 1.29267709302,
			"-0.007": 1.82740223032,
			"-0.006": 2.6818043689,
			"-0.005": 3.55030070571,
			"-0.004": 4.03997928969,
			"-0.003": 21.6282595532,
			"-0.002": 29.5639779271,
			"-0.001": 28.8851642569,
			"0.0": 23.3944208021,
			"0.001": 19.5199997413,
			"0.002": 9.75221720168,
			"0.003": 3.78922111698,
			"0.004": 2.69845381737,
			"0.005": 2.41592811939,
			"0.006": 2.95776769424,
			"0.007": 2.1726347389,
			"0.008": 2.12264122615,
			"0.009": 2.19218493977,
			"0.01": 1.67346602881,
			"0.011": 1.71263919004,
			"0.012": 1.92128227706,
			"0.013": 1.89882615275,
			"0.014": 1.64938967342,
			"0.015": 1.27984590884,
			"0.016": 0.430396359497,
			"0.017": 0.45367324513,
			"0.018": 0.331444292275,
			"0.019": 0.369527758487,
			"0.02": 0.000843353999138,
			"0.021": 0.0,
			"0.022": 0.0,
			"0.023": 0.0,
			"0.024": 0.0,
			"0.025": 0.0
		}
	}
}
