{
	 "smiles": "CC1=CC(=CC(C)=C1)C1(CC1)C(O)=O", 
	 "Tm": 438.15, 
	 "num_atms": 28, 
	 "gaussian": { 
		 "optdone": 1, 
		 "sigma_profile": "yes", 
		 "theory": "DFT", 
		 "functional": "B3LYP", 
		 "basiset": "6-31G**", 
		 "properties": { 
			 "R2extent": 3567.4751, 
			 "electric_dipole_moment_norm": 5.3420866279, 
			 "electric_quadrupole_moment_norm": 25.8239616436, 
			 "total_energy": -616.163682096, 
			 "HOMO_LUMO_gap": 0.22459, 
			 "cosmo_polarized_energy": -11.32, 
			 "cosmo_cavitation_energy": 31.15, 
			 "cosmo_dispersion_energy": -21.65, 
			 "cosmo_repulsion_energy": 1.72, 
			 "cosmo_total_nonelectrostatic_energy": 11.22, 
			 "SMD_solvation_energy": 6.36 
		},
		"coords": [
			{
				"x": -1.8047063117,
				"y": -2.5067277467,
				"z": -0.5343997073,
				"element": "C" 
			},
			{
				"x": -0.877844023,
				"y": -1.3136762597,
				"z": -0.5059647333,
				"element": "C" 
			},
			{
				"x": 0.218602287,
				"y": -1.2780584368,
				"z": 0.3639997846,
				"element": "C" 
			},
			{
				"x": 1.0667286907,
				"y": -0.1624674403,
				"z": 0.420263753,
				"element": "C" 
			},
			{
				"x": 0.8089387976,
				"y": 0.9266327604,
				"z": -0.4251468434,
				"element": "C" 
			},
			{
				"x": -0.2794700195,
				"y": 0.9208451612,
				"z": -1.3056169197,
				"element": "C" 
			},
			{
				"x": -0.5678826153,
				"y": 2.1131320681,
				"z": -2.1879676259,
				"element": "C" 
			},
			{
				"x": -1.1077398185,
				"y": -0.2079314943,
				"z": -1.3336236246,
				"element": "C" 
			},
			{
				"x": 2.2708704039,
				"y": -0.161171399,
				"z": 1.324590086,
				"element": "C" 
			},
			{
				"x": 2.0945979845,
				"y": -0.3945947329,
				"z": 2.8214823254,
				"element": "C" 
			},
			{
				"x": 2.4603013072,
				"y": 0.9676782309,
				"z": 2.3324005361,
				"element": "C" 
			},
			{
				"x": 3.5689494117,
				"y": -0.7094191994,
				"z": 0.7693025826,
				"element": "C" 
			},
			{
				"x": 3.5351531468,
				"y": -1.1605934437,
				"z": -0.5057428654,
				"element": "O" 
			},
			{
				"x": 4.595468108,
				"y": -0.753972833,
				"z": 1.408692693,
				"element": "O" 
			},
			{
				"x": -2.6487244646,
				"y": -2.3665244919,
				"z": 0.1524154882,
				"element": "H" 
			},
			{
				"x": -1.2885169385,
				"y": -3.4226164534,
				"z": -0.232403728,
				"element": "H" 
			},
			{
				"x": -2.2226583961,
				"y": -2.6654143179,
				"z": -1.5330399872,
				"element": "H" 
			},
			{
				"x": 0.4189440369,
				"y": -2.1281039566,
				"z": 1.0119445706,
				"element": "H" 
			},
			{
				"x": 1.4683815241,
				"y": 1.7906218555,
				"z": -0.3907831658,
				"element": "H" 
			},
			{
				"x": -1.0159747464,
				"y": 1.8086980579,
				"z": -3.1386202231,
				"element": "H" 
			},
			{
				"x": -1.2714810043,
				"y": 2.8012461543,
				"z": -1.7030174937,
				"element": "H" 
			},
			{
				"x": 0.3420788588,
				"y": 2.6792597923,
				"z": -2.4068662649,
				"element": "H" 
			},
			{
				"x": -1.9521006463,
				"y": -0.2274425281,
				"z": -2.0199165219,
				"element": "H" 
			},
			{
				"x": 2.8677738211,
				"y": -0.9793297795,
				"z": 3.3076642945,
				"element": "H" 
			},
			{
				"x": 1.0805783997,
				"y": -0.5634958302,
				"z": 3.1695328676,
				"element": "H" 
			},
			{
				"x": 3.4800539738,
				"y": 1.3019185637,
				"z": 2.4888576003,
				"element": "H" 
			},
			{
				"x": 1.6990990558,
				"y": 1.7412039265,
				"z": 2.3419467989,
				"element": "H" 
			},
			{
				"x": 2.6388791766,
				"y": -1.0485962272,
				"z": -0.8618836764,
				"element": "H" 
			}
		],
		 "valence_orbital": [ 
			{
				"type": "occ",
				"energy": -0.30976,
				"method": "rhf"
			},
			{
				"type": "occ",
				"energy": -0.28804,
				"method": "rhf"
			},
			{
				"type": "occ",
				"energy": -0.27382,
				"method": "rhf"
			},
			{
				"type": "occ",
				"energy": -0.25029,
				"method": "rhf"
			},
			{
				"type": "occ",
				"energy": -0.24511,
				"method": "rhf"
			},
			{
				"type": "unocc",
				"energy": -0.02052,
				"method": "rhf"
			},
			{
				"type": "unocc",
				"energy": -0.01397,
				"method": "rhf"
			},
			{
				"type": "unocc",
				"energy": 0.0186,
				"method": "rhf"
			},
			{
				"type": "unocc",
				"energy": 0.08748,
				"method": "rhf"
			},
			{
				"type": "unocc",
				"energy": 0.09873,
				"method": "rhf"
			}
		],
		"cosmo_sigma_profile": { 
			"-0.025": 0.0,
			"-0.024": 0.0,
			"-0.023": 0.0,
			"-0.022": 0.0,
			"-0.021": 0.0,
			"-0.02": 0.0,
			"-0.019": 0.0,
			"-0.018": 0.0,
			"-0.017": 0.0,
			"-0.016": 0.0,
			"-0.015": 0.0,
			"-0.014": 0.0942573453071,
			"-0.013": 0.471987315775,
			"-0.012": 0.632040179154,
			"-0.011": 0.588363130064,
			"-0.01": 0.393001008842,
			"-0.009": 0.636706804065,
			"-0.008": 1.30003350874,
			"-0.007": 0.60619249587,
			"-0.006": 2.96032790856,
			"-0.005": 13.7729926735,
			"-0.004": 29.7867169548,
			"-0.003": 26.6669910689,
			"-0.002": 29.2074905913,
			"-0.001": 28.9337893359,
			"0.0": 28.8557545353,
			"0.001": 16.5590659013,
			"0.002": 10.9310435865,
			"0.003": 9.54512959582,
			"0.004": 8.55309798762,
			"0.005": 6.7639051963,
			"0.006": 3.59427036862,
			"0.007": 1.97564732706,
			"0.008": 3.07548234459,
			"0.009": 2.42896508035,
			"0.01": 4.40640505921,
			"0.011": 4.18799843234,
			"0.012": 5.16185993269,
			"0.013": 3.06816814555,
			"0.014": 0.5217463359,
			"0.015": 0.0,
			"0.016": 0.0,
			"0.017": 0.0,
			"0.018": 0.0,
			"0.019": 0.0,
			"0.02": 0.0,
			"0.021": 0.0,
			"0.022": 0.0,
			"0.023": 0.0,
			"0.024": 0.0,
			"0.025": 0.0
		}
	}
}
