{
	 "smiles": "FC(F)(F)C1=C(C=CC=C1)C1=NN=C(CCl)O1", 
	 "Tm": 309.15, 
	 "num_atms": 23, 
	 "gaussian": { 
		 "optdone": 1, 
		 "sigma_profile": "yes", 
		 "theory": "DFT", 
		 "functional": "B3LYP", 
		 "basiset": "6-31G**", 
		 "properties": { 
			 "R2extent": 6325.6547, 
			 "electric_dipole_moment_norm": 4.63943378981, 
			 "electric_quadrupole_moment_norm": 19.7890728446, 
			 "total_energy": -1329.09198398, 
			 "HOMO_LUMO_gap": 0.19006, 
			 "cosmo_polarized_energy": -13.14, 
			 "cosmo_cavitation_energy": 31.41, 
			 "cosmo_dispersion_energy": -22.48, 
			 "cosmo_repulsion_energy": 1.7, 
			 "cosmo_total_nonelectrostatic_energy": 10.62, 
			 "SMD_solvation_energy": 4.7 
		},
		"coords": [
			{
				"x": 0.834122977,
				"y": -1.4444716109,
				"z": 2.5905906164,
				"element": "F" 
			},
			{
				"x": -0.051285112,
				"y": -2.4299835627,
				"z": 2.3426283605,
				"element": "C" 
			},
			{
				"x": -0.7790017984,
				"y": -2.5922040929,
				"z": 3.4749095233,
				"element": "F" 
			},
			{
				"x": 0.6303957459,
				"y": -3.57202578,
				"z": 2.1533307161,
				"element": "F" 
			},
			{
				"x": -0.9499360663,
				"y": -2.0961431002,
				"z": 1.166193422,
				"element": "C" 
			},
			{
				"x": -0.4547957842,
				"y": -1.6278940944,
				"z": -0.0731364774,
				"element": "C" 
			},
			{
				"x": -1.3685964305,
				"y": -1.2967120943,
				"z": -1.0874735698,
				"element": "C" 
			},
			{
				"x": -2.7397298063,
				"y": -1.443693529,
				"z": -0.8981983682,
				"element": "C" 
			},
			{
				"x": -3.2218775041,
				"y": -1.9251893335,
				"z": 0.3165062996,
				"element": "C" 
			},
			{
				"x": -2.3276851013,
				"y": -2.2424918945,
				"z": 1.3385527346,
				"element": "C" 
			},
			{
				"x": 0.970392336,
				"y": -1.4713192912,
				"z": -0.3813931455,
				"element": "C" 
			},
			{
				"x": 2.0099740057,
				"y": -2.1203043769,
				"z": 0.0544647393,
				"element": "N" 
			},
			{
				"x": 3.1113060756,
				"y": -1.611946004,
				"z": -0.6209379847,
				"element": "N" 
			},
			{
				"x": 2.6601611229,
				"y": -0.6950199905,
				"z": -1.4194507515,
				"element": "C" 
			},
			{
				"x": 3.4372183319,
				"y": 0.1570695253,
				"z": -2.3457212269,
				"element": "C" 
			},
			{
				"x": 3.0848013307,
				"y": -0.2260446932,
				"z": -4.0908403896,
				"element": "Cl" 
			},
			{
				"x": 1.3132305178,
				"y": -0.5408918321,
				"z": -1.3285378665,
				"element": "O" 
			},
			{
				"x": -0.9887932592,
				"y": -0.93141805,
				"z": -2.0348679493,
				"element": "H" 
			},
			{
				"x": -3.4242980321,
				"y": -1.1863556151,
				"z": -1.7003478123,
				"element": "H" 
			},
			{
				"x": -4.2884476977,
				"y": -2.0477180497,
				"z": 0.4764988972,
				"element": "H" 
			},
			{
				"x": -2.6995174466,
				"y": -2.5955942566,
				"z": 2.2922176092,
				"element": "H" 
			},
			{
				"x": 4.4976488826,
				"y": -0.0211990205,
				"z": -2.1771288391,
				"element": "H" 
			},
			{
				"x": 3.2027127126,
				"y": 1.2136507472,
				"z": -2.2118585372,
				"element": "H" 
			}
		],
		 "valence_orbital": [ 
			{
				"type": "occ",
				"energy": -0.31564,
				"method": "rhf"
			},
			{
				"type": "occ",
				"energy": -0.31302,
				"method": "rhf"
			},
			{
				"type": "occ",
				"energy": -0.28844,
				"method": "rhf"
			},
			{
				"type": "occ",
				"energy": -0.28408,
				"method": "rhf"
			},
			{
				"type": "occ",
				"energy": -0.26217,
				"method": "rhf"
			},
			{
				"type": "unocc",
				"energy": -0.07211,
				"method": "rhf"
			},
			{
				"type": "unocc",
				"energy": -0.03839,
				"method": "rhf"
			},
			{
				"type": "unocc",
				"energy": -0.03014,
				"method": "rhf"
			},
			{
				"type": "unocc",
				"energy": 0.02623,
				"method": "rhf"
			},
			{
				"type": "unocc",
				"energy": 0.04426,
				"method": "rhf"
			}
		],
		"cosmo_sigma_profile": { 
			"-0.025": 0.0,
			"-0.024": 0.0,
			"-0.023": 0.0,
			"-0.022": 0.0,
			"-0.021": 0.0,
			"-0.02": 0.0,
			"-0.019": 0.0,
			"-0.018": 0.0,
			"-0.017": 0.0,
			"-0.016": 0.0,
			"-0.015": 0.0,
			"-0.014": 0.0,
			"-0.013": 0.0,
			"-0.012": 0.0,
			"-0.011": 0.452942630638,
			"-0.01": 4.15214314134,
			"-0.009": 3.55465899275,
			"-0.008": 5.93360143181,
			"-0.007": 13.1046116407,
			"-0.006": 14.5030915496,
			"-0.005": 12.1802690567,
			"-0.004": 11.4626500336,
			"-0.003": 11.4442835007,
			"-0.002": 14.1206405861,
			"-0.001": 17.3900328208,
			"0.0": 19.7331619099,
			"0.001": 23.1558136918,
			"0.002": 32.4156640143,
			"0.003": 24.6831984351,
			"0.004": 11.4704241349,
			"0.005": 11.6602129379,
			"0.006": 4.90875783944,
			"0.007": 2.13974467715,
			"0.008": 2.82174647787,
			"0.009": 2.45433849539,
			"0.01": 3.79763749344,
			"0.011": 3.53459410155,
			"0.012": 2.66180854788,
			"0.013": 1.43246143425,
			"0.014": 0.57657826503,
			"0.015": 0.00940511330811,
			"0.016": 0.0,
			"0.017": 0.0,
			"0.018": 0.0,
			"0.019": 0.0,
			"0.02": 0.0,
			"0.021": 0.0,
			"0.022": 0.0,
			"0.023": 0.0,
			"0.024": 0.0,
			"0.025": 0.0
		}
	}
}
