{
	 "smiles": "NCCCCCCCCCCCCN", 
	 "Tm": 343.15, 
	 "num_atms": 42, 
	 "gaussian": { 
		 "optdone": 1, 
		 "sigma_profile": "yes", 
		 "theory": "DFT", 
		 "functional": "B3LYP", 
		 "basiset": "6-31G**", 
		 "properties": { 
			 "R2extent": 4704.7957, 
			 "electric_dipole_moment_norm": 1.22595853927, 
			 "electric_quadrupole_moment_norm": 10.6560481465, 
			 "total_energy": -583.671344824, 
			 "HOMO_LUMO_gap": 0.27595, 
			 "cosmo_polarized_energy": -9.13, 
			 "cosmo_cavitation_energy": 40.48, 
			 "cosmo_dispersion_energy": -26.49, 
			 "cosmo_repulsion_energy": 2.13, 
			 "cosmo_total_nonelectrostatic_energy": 16.12, 
			 "SMD_solvation_energy": 2.94 
		},
		"coords": [
			{
				"x": 0.7037153163,
				"y": 1.1626906442,
				"z": 3.0738589115,
				"element": "N" 
			},
			{
				"x": 2.120164334,
				"y": 0.7720839009,
				"z": 3.0166493989,
				"element": "C" 
			},
			{
				"x": 2.425305379,
				"y": -0.0485962709,
				"z": 1.7569301333,
				"element": "C" 
			},
			{
				"x": 1.738207809,
				"y": -1.4226474072,
				"z": 1.7444843223,
				"element": "C" 
			},
			{
				"x": 1.9607427983,
				"y": -2.2584948057,
				"z": 0.4619537289,
				"element": "C" 
			},
			{
				"x": 0.837069524,
				"y": -2.1724075138,
				"z": -0.5868477077,
				"element": "C" 
			},
			{
				"x": 0.6219553176,
				"y": -0.7892672521,
				"z": -1.2142921496,
				"element": "C" 
			},
			{
				"x": -0.5159848437,
				"y": -0.7710700398,
				"z": -2.2479611448,
				"element": "C" 
			},
			{
				"x": -0.7791627261,
				"y": 0.5906787974,
				"z": -2.9263469399,
				"element": "C" 
			},
			{
				"x": -1.733124719,
				"y": 1.5506824482,
				"z": -2.1907442027,
				"element": "C" 
			},
			{
				"x": -1.2572064054,
				"y": 2.0575253133,
				"z": -0.8221673933,
				"element": "C" 
			},
			{
				"x": -2.1647212301,
				"y": 3.1419754447,
				"z": -0.2239473829,
				"element": "C" 
			},
			{
				"x": -1.7668548911,
				"y": 3.5538858403,
				"z": 1.1972593229,
				"element": "C" 
			},
			{
				"x": -0.4637580241,
				"y": 4.2340234768,
				"z": 1.2115707941,
				"element": "N" 
			},
			{
				"x": 0.47531243,
				"y": 1.5094724458,
				"z": 4.0018772619,
				"element": "H" 
			},
			{
				"x": 0.5281500543,
				"y": 1.9352698209,
				"z": 2.4348564343,
				"element": "H" 
			},
			{
				"x": 2.8146496749,
				"y": 1.6293689489,
				"z": 3.0654707105,
				"element": "H" 
			},
			{
				"x": 2.3288240895,
				"y": 0.1562975096,
				"z": 3.9009369904,
				"element": "H" 
			},
			{
				"x": 3.5132438786,
				"y": -0.1838832088,
				"z": 1.6844937887,
				"element": "H" 
			},
			{
				"x": 2.136073071,
				"y": 0.5346742116,
				"z": 0.8723962736,
				"element": "H" 
			},
			{
				"x": 2.114138099,
				"y": -1.9864976505,
				"z": 2.6090155957,
				"element": "H" 
			},
			{
				"x": 0.6656678177,
				"y": -1.282260723,
				"z": 1.9230523053,
				"element": "H" 
			},
			{
				"x": 2.0681227858,
				"y": -3.3138047825,
				"z": 0.7419420805,
				"element": "H" 
			},
			{
				"x": 2.9174020715,
				"y": -1.977681114,
				"z": -0.0018798523,
				"element": "H" 
			},
			{
				"x": 1.045098241,
				"y": -2.8966818463,
				"z": -1.3871160492,
				"element": "H" 
			},
			{
				"x": -0.1026862462,
				"y": -2.5013763166,
				"z": -0.120154265,
				"element": "H" 
			},
			{
				"x": 1.5525039431,
				"y": -0.4605492696,
				"z": -1.699951234,
				"element": "H" 
			},
			{
				"x": 0.4181351461,
				"y": -0.0621852051,
				"z": -0.4231797761,
				"element": "H" 
			},
			{
				"x": -0.2774722915,
				"y": -1.5100829463,
				"z": -3.0249049925,
				"element": "H" 
			},
			{
				"x": -1.4438470595,
				"y": -1.1266851692,
				"z": -1.7765930547,
				"element": "H" 
			},
			{
				"x": -1.2073210913,
				"y": 0.4058078347,
				"z": -3.9197410947,
				"element": "H" 
			},
			{
				"x": 0.1799420977,
				"y": 1.0974651997,
				"z": -3.1065209469,
				"element": "H" 
			},
			{
				"x": -1.9110618867,
				"y": 2.418804922,
				"z": -2.8406219727,
				"element": "H" 
			},
			{
				"x": -2.71020304,
				"y": 1.0609548913,
				"z": -2.0701303588,
				"element": "H" 
			},
			{
				"x": -1.200799075,
				"y": 1.2221551672,
				"z": -0.1129421674,
				"element": "H" 
			},
			{
				"x": -0.2348762975,
				"y": 2.446702986,
				"z": -0.9303303296,
				"element": "H" 
			},
			{
				"x": -2.1588928271,
				"y": 4.0314641018,
				"z": -0.8665054129,
				"element": "H" 
			},
			{
				"x": -3.1981025259,
				"y": 2.7706820525,
				"z": -0.1982873294,
				"element": "H" 
			},
			{
				"x": -2.5071409515,
				"y": 4.2626645409,
				"z": 1.5870772823,
				"element": "H" 
			},
			{
				"x": -1.8109041857,
				"y": 2.6607594752,
				"z": 1.8468469295,
				"element": "H" 
			},
			{
				"x": 0.2724393745,
				"y": 3.6140399394,
				"z": 0.8846093697,
				"element": "H" 
			},
			{
				"x": -0.2154429357,
				"y": 4.5152416081,
				"z": 2.1562841231,
				"element": "H" 
			}
		],
		 "valence_orbital": [ 
			{
				"type": "occ",
				"energy": -0.30574,
				"method": "rhf"
			},
			{
				"type": "occ",
				"energy": -0.29478,
				"method": "rhf"
			},
			{
				"type": "occ",
				"energy": -0.29058,
				"method": "rhf"
			},
			{
				"type": "occ",
				"energy": -0.23676,
				"method": "rhf"
			},
			{
				"type": "occ",
				"energy": -0.22891,
				"method": "rhf"
			},
			{
				"type": "unocc",
				"energy": 0.04704,
				"method": "rhf"
			},
			{
				"type": "unocc",
				"energy": 0.09135,
				"method": "rhf"
			},
			{
				"type": "unocc",
				"energy": 0.09861,
				"method": "rhf"
			},
			{
				"type": "unocc",
				"energy": 0.10016,
				"method": "rhf"
			},
			{
				"type": "unocc",
				"energy": 0.10772,
				"method": "rhf"
			}
		],
		"cosmo_sigma_profile": { 
			"-0.025": 0.0,
			"-0.024": 0.0,
			"-0.023": 0.0,
			"-0.022": 0.0,
			"-0.021": 0.0,
			"-0.02": 0.0,
			"-0.019": 0.0,
			"-0.018": 0.0,
			"-0.017": 0.0,
			"-0.016": 0.0,
			"-0.015": 0.0,
			"-0.014": 0.0,
			"-0.013": 0.0,
			"-0.012": 0.0,
			"-0.011": 0.0,
			"-0.01": 0.595527133898,
			"-0.009": 3.88358923682,
			"-0.008": 4.8823212184,
			"-0.007": 4.98129333671,
			"-0.006": 4.26625501996,
			"-0.005": 6.65337266424,
			"-0.004": 5.19459292791,
			"-0.003": 7.78008000507,
			"-0.002": 29.8633230763,
			"-0.001": 67.4462156649,
			"0.0": 74.2705487489,
			"0.001": 50.4159399984,
			"0.002": 20.7364467169,
			"0.003": 3.20017403434,
			"0.004": 3.00430053002,
			"0.005": 2.31978011463,
			"0.006": 1.48786188718,
			"0.007": 1.47617295893,
			"0.008": 1.51714059176,
			"0.009": 1.9823491462,
			"0.01": 1.95760726309,
			"0.011": 1.49487734887,
			"0.012": 1.25956499621,
			"0.013": 1.16517149014,
			"0.014": 1.68932373077,
			"0.015": 0.861966195517,
			"0.016": 1.08944359799,
			"0.017": 1.21036826386,
			"0.018": 0.589327064417,
			"0.019": 0.750553341683,
			"0.02": 0.272589257959,
			"0.021": 0.0,
			"0.022": 0.0,
			"0.023": 0.0,
			"0.024": 0.0,
			"0.025": 0.0
		}
	}
}
