{
	 "smiles": "COC1=CC=C(N)C=C1O", 
	 "Tm": 404.15, 
	 "num_atms": 19, 
	 "gaussian": { 
		 "optdone": 1, 
		 "sigma_profile": "yes", 
		 "theory": "DFT", 
		 "functional": "B3LYP", 
		 "basiset": "6-31G**", 
		 "properties": { 
			 "R2extent": 1684.149, 
			 "electric_dipole_moment_norm": 3.59899853015, 
			 "electric_quadrupole_moment_norm": 9.79413505727, 
			 "total_energy": -477.343969285, 
			 "HOMO_LUMO_gap": 0.20037, 
			 "cosmo_polarized_energy": -14.68, 
			 "cosmo_cavitation_energy": 22.66, 
			 "cosmo_dispersion_energy": -16.97, 
			 "cosmo_repulsion_energy": 1.39, 
			 "cosmo_total_nonelectrostatic_energy": 7.09, 
			 "SMD_solvation_energy": 4.99 
		},
		"coords": [
			{
				"x": -1.82045466,
				"y": 2.107829339,
				"z": 1.701354759,
				"element": "C" 
			},
			{
				"x": -0.5279237634,
				"y": 1.5938643546,
				"z": 2.0216841244,
				"element": "O" 
			},
			{
				"x": -0.0606986309,
				"y": 0.6078379896,
				"z": 1.1804267226,
				"element": "C" 
			},
			{
				"x": 1.038477884,
				"y": 0.8617107159,
				"z": 0.3633862229,
				"element": "C" 
			},
			{
				"x": 1.5866213219,
				"y": -0.124909452,
				"z": -0.4554552507,
				"element": "C" 
			},
			{
				"x": 1.0235220157,
				"y": -1.4091181004,
				"z": -0.4789525614,
				"element": "C" 
			},
			{
				"x": 1.5896190745,
				"y": -2.4310441246,
				"z": -1.2523926564,
				"element": "N" 
			},
			{
				"x": -0.086662212,
				"y": -1.6726330345,
				"z": 0.3404995716,
				"element": "C" 
			},
			{
				"x": -0.6207447842,
				"y": -0.6836690599,
				"z": 1.1672071455,
				"element": "C" 
			},
			{
				"x": -1.691126393,
				"y": -0.9187792761,
				"z": 1.9875361319,
				"element": "O" 
			},
			{
				"x": -2.5935139691,
				"y": 1.336958569,
				"z": 1.7853544866,
				"element": "H" 
			},
			{
				"x": -1.8374942352,
				"y": 2.530405489,
				"z": 0.6874027365,
				"element": "H" 
			},
			{
				"x": -2.0225071282,
				"y": 2.9024383209,
				"z": 2.4235307554,
				"element": "H" 
			},
			{
				"x": 1.4674404824,
				"y": 1.8587044633,
				"z": 0.389638229,
				"element": "H" 
			},
			{
				"x": 2.4504891922,
				"y": 0.0989084013,
				"z": -1.075242159,
				"element": "H" 
			},
			{
				"x": 0.9440784626,
				"y": -3.1578534186,
				"z": -1.5309143975,
				"element": "H" 
			},
			{
				"x": 2.1313362964,
				"y": -2.1034441996,
				"z": -2.0409193607,
				"element": "H" 
			},
			{
				"x": -0.5286691847,
				"y": -2.668212554,
				"z": 0.3459526152,
				"element": "H" 
			},
			{
				"x": -1.9515897689,
				"y": -1.8446944227,
				"z": 1.9009028852,
				"element": "H" 
			}
		],
		 "valence_orbital": [ 
			{
				"type": "occ",
				"energy": -0.33098,
				"method": "rhf"
			},
			{
				"type": "occ",
				"energy": -0.28202,
				"method": "rhf"
			},
			{
				"type": "occ",
				"energy": -0.25815,
				"method": "rhf"
			},
			{
				"type": "occ",
				"energy": -0.2256,
				"method": "rhf"
			},
			{
				"type": "occ",
				"energy": -0.18784,
				"method": "rhf"
			},
			{
				"type": "unocc",
				"energy": 0.01253,
				"method": "rhf"
			},
			{
				"type": "unocc",
				"energy": 0.02994,
				"method": "rhf"
			},
			{
				"type": "unocc",
				"energy": 0.06883,
				"method": "rhf"
			},
			{
				"type": "unocc",
				"energy": 0.08111,
				"method": "rhf"
			},
			{
				"type": "unocc",
				"energy": 0.10756,
				"method": "rhf"
			}
		],
		"cosmo_sigma_profile": { 
			"-0.025": 0.0,
			"-0.024": 0.0,
			"-0.023": 0.0,
			"-0.022": 0.0,
			"-0.021": 0.0,
			"-0.02": 0.0,
			"-0.019": 0.0,
			"-0.018": 0.325316437707,
			"-0.017": 0.885555461039,
			"-0.016": 1.02789452492,
			"-0.015": 1.69250676941,
			"-0.014": 0.653213016343,
			"-0.013": 0.79253349517,
			"-0.012": 2.45413195576,
			"-0.011": 3.91699424196,
			"-0.01": 4.14225858241,
			"-0.009": 3.74708227016,
			"-0.008": 5.16313309629,
			"-0.007": 4.32833771731,
			"-0.006": 4.78134794765,
			"-0.005": 8.06092155786,
			"-0.004": 9.78679572199,
			"-0.003": 11.9632501573,
			"-0.002": 14.639586231,
			"-0.001": 8.58159153013,
			"0.0": 6.95586152732,
			"0.001": 9.65428776464,
			"0.002": 6.07269734401,
			"0.003": 7.66641582126,
			"0.004": 10.4655564189,
			"0.005": 11.2616901785,
			"0.006": 12.3986057532,
			"0.007": 7.94068843081,
			"0.008": 2.88244961542,
			"0.009": 3.09476223998,
			"0.01": 3.44668488888,
			"0.011": 3.4457027682,
			"0.012": 3.84222480132,
			"0.013": 1.50759660464,
			"0.014": 0.638090152169,
			"0.015": 0.567870548528,
			"0.016": 0.0646033598005,
			"0.017": 0.0,
			"0.018": 0.0,
			"0.019": 0.0,
			"0.02": 0.0,
			"0.021": 0.0,
			"0.022": 0.0,
			"0.023": 0.0,
			"0.024": 0.0,
			"0.025": 0.0
		}
	}
}
