{
	 "smiles": "OC(=O)C1=CC=CC=C1OC1CCOCC1", 
	 "Tm": 326.65, 
	 "num_atms": 30, 
	 "gaussian": { 
		 "optdone": 1, 
		 "sigma_profile": "yes", 
		 "theory": "DFT", 
		 "functional": "B3LYP", 
		 "basiset": "6-31G**", 
		 "properties": { 
			 "R2extent": 4092.8292, 
			 "electric_dipole_moment_norm": 1.07050996259, 
			 "electric_quadrupole_moment_norm": 17.3995102101, 
			 "total_energy": -766.596936131, 
			 "HOMO_LUMO_gap": 0.19083, 
			 "cosmo_polarized_energy": -13.02, 
			 "cosmo_cavitation_energy": 32.36, 
			 "cosmo_dispersion_energy": -23.35, 
			 "cosmo_repulsion_energy": 1.82, 
			 "cosmo_total_nonelectrostatic_energy": 10.83, 
			 "SMD_solvation_energy": 6.29 
		},
		"coords": [
			{
				"x": 1.9661284552,
				"y": -1.0865636975,
				"z": -0.7677489228,
				"element": "O" 
			},
			{
				"x": 2.0547797935,
				"y": -1.7513969314,
				"z": 0.4098488998,
				"element": "C" 
			},
			{
				"x": 2.7371919117,
				"y": -2.7542489027,
				"z": 0.5116020219,
				"element": "O" 
			},
			{
				"x": 1.2895795138,
				"y": -1.1544575419,
				"z": 1.5418914785,
				"element": "C" 
			},
			{
				"x": 1.5001268353,
				"y": -1.7691537432,
				"z": 2.7897895928,
				"element": "C" 
			},
			{
				"x": 0.9126168789,
				"y": -1.2834017211,
				"z": 3.9506528118,
				"element": "C" 
			},
			{
				"x": 0.0976269119,
				"y": -0.1502986793,
				"z": 3.8832240911,
				"element": "C" 
			},
			{
				"x": -0.1365352386,
				"y": 0.4666413677,
				"z": 2.6576671423,
				"element": "C" 
			},
			{
				"x": 0.4375746325,
				"y": -0.0257194077,
				"z": 1.4782864576,
				"element": "C" 
			},
			{
				"x": 0.1857238537,
				"y": 0.6640874398,
				"z": 0.3225514302,
				"element": "O" 
			},
			{
				"x": -0.7489982536,
				"y": 0.079585139,
				"z": -0.6172199827,
				"element": "C" 
			},
			{
				"x": -0.5191357054,
				"y": 0.7683175173,
				"z": -1.9739790292,
				"element": "C" 
			},
			{
				"x": -1.5231227424,
				"y": 1.8949254361,
				"z": -2.2031502042,
				"element": "C" 
			},
			{
				"x": -2.8719375428,
				"y": 1.4233137734,
				"z": -2.2234257402,
				"element": "O" 
			},
			{
				"x": -3.1470381374,
				"y": 0.3315657763,
				"z": -1.3465734957,
				"element": "C" 
			},
			{
				"x": -2.2016692505,
				"y": 0.2848114019,
				"z": -0.1454219226,
				"element": "C" 
			},
			{
				"x": 2.5323669305,
				"y": -1.5886719263,
				"z": -1.37825548,
				"element": "H" 
			},
			{
				"x": 2.1548696014,
				"y": -2.633248301,
				"z": 2.8138899934,
				"element": "H" 
			},
			{
				"x": 1.0970081291,
				"y": -1.7742498906,
				"z": 4.9009662714,
				"element": "H" 
			},
			{
				"x": -0.359197883,
				"y": 0.2512468907,
				"z": 4.7833675753,
				"element": "H" 
			},
			{
				"x": -0.763600522,
				"y": 1.3486837298,
				"z": 2.5844754362,
				"element": "H" 
			},
			{
				"x": -0.5268084078,
				"y": -0.9880830837,
				"z": -0.7082383032,
				"element": "H" 
			},
			{
				"x": 0.5067584561,
				"y": 1.1443336898,
				"z": -2.0067914208,
				"element": "H" 
			},
			{
				"x": -0.6247396121,
				"y": 0.0302983655,
				"z": -2.777262516,
				"element": "H" 
			},
			{
				"x": -1.3993603053,
				"y": 2.6663054914,
				"z": -1.4267979377,
				"element": "H" 
			},
			{
				"x": -1.3571378012,
				"y": 2.37760179,
				"z": -3.1715048499,
				"element": "H" 
			},
			{
				"x": -4.1848663245,
				"y": 0.4489861966,
				"z": -1.0163633335,
				"element": "H" 
			},
			{
				"x": -3.0901676006,
				"y": -0.6198916768,
				"z": -1.9020250775,
				"element": "H" 
			},
			{
				"x": -2.5089358192,
				"y": -0.5026674999,
				"z": 0.5505290395,
				"element": "H" 
			},
			{
				"x": -2.2643007571,
				"y": 1.2372489977,
				"z": 0.3925159741,
				"element": "H" 
			}
		],
		 "valence_orbital": [ 
			{
				"type": "occ",
				"energy": -0.28044,
				"method": "rhf"
			},
			{
				"type": "occ",
				"energy": -0.27628,
				"method": "rhf"
			},
			{
				"type": "occ",
				"energy": -0.2633,
				"method": "rhf"
			},
			{
				"type": "occ",
				"energy": -0.24614,
				"method": "rhf"
			},
			{
				"type": "occ",
				"energy": -0.24185,
				"method": "rhf"
			},
			{
				"type": "unocc",
				"energy": -0.05102,
				"method": "rhf"
			},
			{
				"type": "unocc",
				"energy": -0.00861,
				"method": "rhf"
			},
			{
				"type": "unocc",
				"energy": 0.0526,
				"method": "rhf"
			},
			{
				"type": "unocc",
				"energy": 0.07399,
				"method": "rhf"
			},
			{
				"type": "unocc",
				"energy": 0.0813,
				"method": "rhf"
			}
		],
		"cosmo_sigma_profile": { 
			"-0.025": 0.0,
			"-0.024": 0.0,
			"-0.023": 0.0,
			"-0.022": 0.0,
			"-0.021": 0.0,
			"-0.02": 0.0,
			"-0.019": 0.0,
			"-0.018": 0.514830424059,
			"-0.017": 1.31190914385,
			"-0.016": 0.648462922346,
			"-0.015": 0.325848799903,
			"-0.014": 0.474483389021,
			"-0.013": 0.609199949559,
			"-0.012": 0.883396923508,
			"-0.011": 1.32264351661,
			"-0.01": 0.674590748405,
			"-0.009": 0.154497059575,
			"-0.008": 0.369805239832,
			"-0.007": 2.70186261079,
			"-0.006": 7.60760381811,
			"-0.005": 13.9700093703,
			"-0.004": 29.0239921914,
			"-0.003": 31.0027146991,
			"-0.002": 26.0501447276,
			"-0.001": 21.705115851,
			"0.0": 15.2141529529,
			"0.001": 14.0471038872,
			"0.002": 17.1366349441,
			"0.003": 17.1981242803,
			"0.004": 11.3656629752,
			"0.005": 3.95261020955,
			"0.006": 3.94132014363,
			"0.007": 4.75999339392,
			"0.008": 3.25386045497,
			"0.009": 5.16251046636,
			"0.01": 4.35409422089,
			"0.011": 6.04671250129,
			"0.012": 5.09636154968,
			"0.013": 1.82650554102,
			"0.014": 1.87991762735,
			"0.015": 0.0560600284515,
			"0.016": 0.0,
			"0.017": 0.0,
			"0.018": 0.0,
			"0.019": 0.0,
			"0.02": 0.0,
			"0.021": 0.0,
			"0.022": 0.0,
			"0.023": 0.0,
			"0.024": 0.0,
			"0.025": 0.0
		}
	}
}
