{
	 "smiles": "CCCCCCC1=CC=C(O)C=C1", 
	 "Tm": 305.15, 
	 "num_atms": 31, 
	 "gaussian": { 
		 "optdone": 1, 
		 "sigma_profile": "yes", 
		 "theory": "DFT", 
		 "functional": "B3LYP", 
		 "basiset": "6-31G**", 
		 "properties": { 
			 "R2extent": 3988.5966, 
			 "electric_dipole_moment_norm": 1.24840507849, 
			 "electric_quadrupole_moment_norm": 10.5322717018, 
			 "total_energy": -543.368707639, 
			 "HOMO_LUMO_gap": 0.21241, 
			 "cosmo_polarized_energy": -7.69, 
			 "cosmo_cavitation_energy": 33.01, 
			 "cosmo_dispersion_energy": -23.24, 
			 "cosmo_repulsion_energy": 1.9, 
			 "cosmo_total_nonelectrostatic_energy": 11.67, 
			 "SMD_solvation_energy": 5.26 
		},
		"coords": [
			{
				"x": 4.5403188622,
				"y": -0.2568216403,
				"z": 0.1240359781,
				"element": "C" 
			},
			{
				"x": 3.7753641789,
				"y": 1.0721712103,
				"z": 0.107208003,
				"element": "C" 
			},
			{
				"x": 2.6566876659,
				"y": 1.1773927475,
				"z": 1.1571216475,
				"element": "C" 
			},
			{
				"x": 1.4839887382,
				"y": 0.2097494997,
				"z": 0.9444855188,
				"element": "C" 
			},
			{
				"x": 0.3639393306,
				"y": 0.3925756743,
				"z": 1.9758243981,
				"element": "C" 
			},
			{
				"x": -0.8339914513,
				"y": -0.5647252536,
				"z": 1.7898645393,
				"element": "C" 
			},
			{
				"x": -1.6189132453,
				"y": -0.3430455704,
				"z": 0.512779297,
				"element": "C" 
			},
			{
				"x": -2.4949237328,
				"y": 0.7475895013,
				"z": 0.3879060903,
				"element": "C" 
			},
			{
				"x": -3.2132112772,
				"y": 0.9801662872,
				"z": -0.7805658906,
				"element": "C" 
			},
			{
				"x": -3.0696445826,
				"y": 0.1108394681,
				"z": -1.868110208,
				"element": "C" 
			},
			{
				"x": -3.7995345792,
				"y": 0.3804766602,
				"z": -2.9937507266,
				"element": "O" 
			},
			{
				"x": -2.2068551714,
				"y": -0.983276171,
				"z": -1.7670664859,
				"element": "C" 
			},
			{
				"x": -1.493860966,
				"y": -1.2001419272,
				"z": -0.586020964,
				"element": "C" 
			},
			{
				"x": 3.8910424705,
				"y": -1.1055960961,
				"z": -0.1140587059,
				"element": "H" 
			},
			{
				"x": 4.9821062485,
				"y": -0.4447577776,
				"z": 1.1098352083,
				"element": "H" 
			},
			{
				"x": 5.3545110379,
				"y": -0.2524010653,
				"z": -0.6083189919,
				"element": "H" 
			},
			{
				"x": 3.3478941467,
				"y": 1.2351234978,
				"z": -0.8917353862,
				"element": "H" 
			},
			{
				"x": 4.4862853953,
				"y": 1.8926347878,
				"z": 0.2691651693,
				"element": "H" 
			},
			{
				"x": 2.2683008481,
				"y": 2.2050932399,
				"z": 1.1557532784,
				"element": "H" 
			},
			{
				"x": 3.0847134451,
				"y": 1.0173428572,
				"z": 2.1576173414,
				"element": "H" 
			},
			{
				"x": 1.0769266798,
				"y": 0.3503043125,
				"z": -0.0655154642,
				"element": "H" 
			},
			{
				"x": 1.8412537074,
				"y": -0.8281350356,
				"z": 0.9889835312,
				"element": "H" 
			},
			{
				"x": 0.0024316221,
				"y": 1.4294370865,
				"z": 1.9407531491,
				"element": "H" 
			},
			{
				"x": 0.7736438827,
				"y": 0.2454107063,
				"z": 2.984524416,
				"element": "H" 
			},
			{
				"x": -0.4717125829,
				"y": -1.6001759491,
				"z": 1.8195378373,
				"element": "H" 
			},
			{
				"x": -1.5054197009,
				"y": -0.450166414,
				"z": 2.6504914274,
				"element": "H" 
			},
			{
				"x": -2.6219215214,
				"y": 1.427587086,
				"z": 1.2273446585,
				"element": "H" 
			},
			{
				"x": -3.8920551003,
				"y": 1.8222494069,
				"z": -0.8685652218,
				"element": "H" 
			},
			{
				"x": -3.6101678407,
				"y": -0.2931254173,
				"z": -3.6595118982,
				"element": "H" 
			},
			{
				"x": -2.0931241939,
				"y": -1.6672315168,
				"z": -2.6061483699,
				"element": "H" 
			},
			{
				"x": -0.8299723141,
				"y": -2.0587441951,
				"z": -0.5213631758,
				"element": "H" 
			}
		],
		 "valence_orbital": [ 
			{
				"type": "occ",
				"energy": -0.31428,
				"method": "rhf"
			},
			{
				"type": "occ",
				"energy": -0.31202,
				"method": "rhf"
			},
			{
				"type": "occ",
				"energy": -0.30224,
				"method": "rhf"
			},
			{
				"type": "occ",
				"energy": -0.24699,
				"method": "rhf"
			},
			{
				"type": "occ",
				"energy": -0.21143,
				"method": "rhf"
			},
			{
				"type": "unocc",
				"energy": 0.00098,
				"method": "rhf"
			},
			{
				"type": "unocc",
				"energy": 0.01745,
				"method": "rhf"
			},
			{
				"type": "unocc",
				"energy": 0.07352,
				"method": "rhf"
			},
			{
				"type": "unocc",
				"energy": 0.09177,
				"method": "rhf"
			},
			{
				"type": "unocc",
				"energy": 0.09766,
				"method": "rhf"
			}
		],
		"cosmo_sigma_profile": { 
			"-0.025": 0.0,
			"-0.024": 0.0,
			"-0.023": 0.0,
			"-0.022": 0.0,
			"-0.021": 0.0,
			"-0.02": 0.0,
			"-0.019": 0.0,
			"-0.018": 0.090196770954,
			"-0.017": 0.976246181915,
			"-0.016": 1.14965432373,
			"-0.015": 0.858961603876,
			"-0.014": 0.866123717771,
			"-0.013": 1.67719467279,
			"-0.012": 0.692029266661,
			"-0.011": 0.748523081441,
			"-0.01": 1.0979677072,
			"-0.009": 0.836054945811,
			"-0.008": 1.23946447455,
			"-0.007": 1.17029751713,
			"-0.006": 2.4329980724,
			"-0.005": 6.62998057517,
			"-0.004": 8.45783142051,
			"-0.003": 14.2026334573,
			"-0.002": 29.0776697337,
			"-0.001": 36.7010417511,
			"0.0": 40.9629016865,
			"0.001": 37.2629187166,
			"0.002": 19.6787584765,
			"0.003": 8.95764093755,
			"0.004": 10.242411733,
			"0.005": 9.69929374601,
			"0.006": 10.1085997669,
			"0.007": 3.30080494455,
			"0.008": 1.05115685575,
			"0.009": 1.85372157548,
			"0.01": 1.46127769738,
			"0.011": 1.85336351001,
			"0.012": 1.43582638372,
			"0.013": 0.00753271703817,
			"0.014": 0.0,
			"0.015": 0.0,
			"0.016": 0.0,
			"0.017": 0.0,
			"0.018": 0.0,
			"0.019": 0.0,
			"0.02": 0.0,
			"0.021": 0.0,
			"0.022": 0.0,
			"0.023": 0.0,
			"0.024": 0.0,
			"0.025": 0.0
		}
	}
}
