{
	 "smiles": "CC(C)(C)OC(=O)NC1=C(C=C2C=CC=CC2=C1)C(O)=O", 
	 "Tm": 453.15, 
	 "num_atms": 38, 
	 "gaussian": { 
		 "optdone": 1, 
		 "sigma_profile": "yes", 
		 "theory": "DFT", 
		 "functional": "B3LYP", 
		 "basiset": "6-31G**", 
		 "properties": { 
			 "R2extent": 6935.0037, 
			 "electric_dipole_moment_norm": 3.70952538878, 
			 "electric_quadrupole_moment_norm": 19.0070196583, 
			 "total_energy": -975.659031378, 
			 "HOMO_LUMO_gap": 0.1588, 
			 "cosmo_polarized_energy": -17.31, 
			 "cosmo_cavitation_energy": 40.83, 
			 "cosmo_dispersion_energy": -28.01, 
			 "cosmo_repulsion_energy": 2.11, 
			 "cosmo_total_nonelectrostatic_energy": 14.92, 
			 "SMD_solvation_energy": 8.49 
		},
		"coords": [
			{
				"x": 0.6212079741,
				"y": -3.8730205144,
				"z": -1.8188755191,
				"element": "C" 
			},
			{
				"x": 1.4985492089,
				"y": -2.6717916666,
				"z": -1.4512778953,
				"element": "C" 
			},
			{
				"x": 2.6759989393,
				"y": -2.4934376323,
				"z": -2.4148047453,
				"element": "C" 
			},
			{
				"x": 1.9877171628,
				"y": -2.7704578678,
				"z": -0.0039503841,
				"element": "C" 
			},
			{
				"x": 0.6862780503,
				"y": -1.4399678081,
				"z": -1.4268438389,
				"element": "O" 
			},
			{
				"x": 0.0160560414,
				"y": -1.0341632262,
				"z": -2.5200253899,
				"element": "C" 
			},
			{
				"x": 0.0686602467,
				"y": -1.5201316437,
				"z": -3.6355807586,
				"element": "O" 
			},
			{
				"x": -0.7537615401,
				"y": 0.0826493791,
				"z": -2.2516860698,
				"element": "N" 
			},
			{
				"x": -0.8867108172,
				"y": 0.8066043902,
				"z": -1.0477851091,
				"element": "C" 
			},
			{
				"x": -1.2303846677,
				"y": 0.1837522882,
				"z": 0.1992855201,
				"element": "C" 
			},
			{
				"x": -1.3112680286,
				"y": 0.9595730875,
				"z": 1.3419928973,
				"element": "C" 
			},
			{
				"x": -1.1275653424,
				"y": 2.363195744,
				"z": 1.3174709492,
				"element": "C" 
			},
			{
				"x": -1.2325316309,
				"y": 3.1637584259,
				"z": 2.4864276993,
				"element": "C" 
			},
			{
				"x": -1.0587319259,
				"y": 4.5277145125,
				"z": 2.4193364278,
				"element": "C" 
			},
			{
				"x": -0.7723647494,
				"y": 5.1485718723,
				"z": 1.1777895772,
				"element": "C" 
			},
			{
				"x": -0.6657445932,
				"y": 4.3993646163,
				"z": 0.0270660198,
				"element": "C" 
			},
			{
				"x": -0.8404027571,
				"y": 2.9899340816,
				"z": 0.0638283311,
				"element": "C" 
			},
			{
				"x": -0.7095609707,
				"y": 2.1757178487,
				"z": -1.0886585985,
				"element": "C" 
			},
			{
				"x": -1.6295354831,
				"y": -1.2491168376,
				"z": 0.2827563192,
				"element": "C" 
			},
			{
				"x": -1.4289130028,
				"y": -1.769517659,
				"z": 1.5254741866,
				"element": "O" 
			},
			{
				"x": -2.1284361473,
				"y": -1.9087080634,
				"z": -0.6050532237,
				"element": "O" 
			},
			{
				"x": 0.2851186637,
				"y": -3.809677777,
				"z": -2.8540295751,
				"element": "H" 
			},
			{
				"x": -0.2586258082,
				"y": -3.9139473928,
				"z": -1.1707969422,
				"element": "H" 
			},
			{
				"x": 1.1953033619,
				"y": -4.7962704468,
				"z": -1.6884329242,
				"element": "H" 
			},
			{
				"x": 3.3364743175,
				"y": -3.3645411574,
				"z": -2.3516704156,
				"element": "H" 
			},
			{
				"x": 2.3252582106,
				"y": -2.3899124483,
				"z": -3.4418681552,
				"element": "H" 
			},
			{
				"x": 3.2574370888,
				"y": -1.6059717571,
				"z": -2.1454649798,
				"element": "H" 
			},
			{
				"x": 2.6107151801,
				"y": -3.6611818479,
				"z": 0.1204377708,
				"element": "H" 
			},
			{
				"x": 1.143304937,
				"y": -2.8340380025,
				"z": 0.6880574587,
				"element": "H" 
			},
			{
				"x": 2.5819969743,
				"y": -1.8917065414,
				"z": 0.2629972003,
				"element": "H" 
			},
			{
				"x": -1.118092839,
				"y": 0.5047757706,
				"z": -3.0931313267,
				"element": "H" 
			},
			{
				"x": -1.5578139693,
				"y": 0.4797781425,
				"z": 2.2829358362,
				"element": "H" 
			},
			{
				"x": -1.4532684853,
				"y": 2.6801299211,
				"z": 3.4343693732,
				"element": "H" 
			},
			{
				"x": -1.1405621579,
				"y": 5.1336047339,
				"z": 3.3166892819,
				"element": "H" 
			},
			{
				"x": -0.6371312277,
				"y": 6.2255511143,
				"z": 1.1371551174,
				"element": "H" 
			},
			{
				"x": -0.4444350178,
				"y": 4.8774431153,
				"z": -0.9234457929,
				"element": "H" 
			},
			{
				"x": -0.4351795556,
				"y": 2.6411988463,
				"z": -2.031865757,
				"element": "H" 
			},
			{
				"x": -1.7963556397,
				"y": -2.6681576003,
				"z": 1.4875774347,
				"element": "H" 
			}
		],
		 "valence_orbital": [ 
			{
				"type": "occ",
				"energy": -0.28311,
				"method": "rhf"
			},
			{
				"type": "occ",
				"energy": -0.27088,
				"method": "rhf"
			},
			{
				"type": "occ",
				"energy": -0.26124,
				"method": "rhf"
			},
			{
				"type": "occ",
				"energy": -0.24304,
				"method": "rhf"
			},
			{
				"type": "occ",
				"energy": -0.21834,
				"method": "rhf"
			},
			{
				"type": "unocc",
				"energy": -0.05954,
				"method": "rhf"
			},
			{
				"type": "unocc",
				"energy": -0.03578,
				"method": "rhf"
			},
			{
				"type": "unocc",
				"energy": 0.01673,
				"method": "rhf"
			},
			{
				"type": "unocc",
				"energy": 0.03022,
				"method": "rhf"
			},
			{
				"type": "unocc",
				"energy": 0.06177,
				"method": "rhf"
			}
		],
		"cosmo_sigma_profile": { 
			"-0.025": 0.0,
			"-0.024": 0.0,
			"-0.023": 0.0,
			"-0.022": 0.0,
			"-0.021": 0.0,
			"-0.02": 0.0,
			"-0.019": 0.0163835422873,
			"-0.018": 0.681302907196,
			"-0.017": 0.792604490683,
			"-0.016": 0.750417727668,
			"-0.015": 1.03087640791,
			"-0.014": 1.79986515808,
			"-0.013": 2.02343793043,
			"-0.012": 1.32462560954,
			"-0.011": 1.70383287052,
			"-0.01": 1.42035014926,
			"-0.009": 1.80804859517,
			"-0.008": 2.00780877755,
			"-0.007": 7.82456172062,
			"-0.006": 12.8589004793,
			"-0.005": 13.6804615067,
			"-0.004": 22.868340826,
			"-0.003": 22.3745301482,
			"-0.002": 25.5053550177,
			"-0.001": 24.4819239783,
			"0.0": 34.9288695294,
			"0.001": 28.532218038,
			"0.002": 25.3286506276,
			"0.003": 24.8488060108,
			"0.004": 17.9217383741,
			"0.005": 8.89152642926,
			"0.006": 5.82554842998,
			"0.007": 6.13872180851,
			"0.008": 4.45997279329,
			"0.009": 3.65393391502,
			"0.01": 2.78440713386,
			"0.011": 5.28363566929,
			"0.012": 4.91617767487,
			"0.013": 3.99352830078,
			"0.014": 0.483261803162,
			"0.015": 0.0,
			"0.016": 0.0,
			"0.017": 0.0,
			"0.018": 0.0,
			"0.019": 0.0,
			"0.02": 0.0,
			"0.021": 0.0,
			"0.022": 0.0,
			"0.023": 0.0,
			"0.024": 0.0,
			"0.025": 0.0
		}
	}
}
