{
	 "smiles": "CCC1=CC=C(C=C1)C(N)=NO", 
	 "Tm": 434.15, 
	 "num_atms": 24, 
	 "gaussian": { 
		 "optdone": 1, 
		 "sigma_profile": "yes", 
		 "theory": "DFT", 
		 "functional": "B3LYP", 
		 "basiset": "6-31G**", 
		 "properties": { 
			 "R2extent": 3509.544, 
			 "electric_dipole_moment_norm": 1.62831714663, 
			 "electric_quadrupole_moment_norm": 8.52680859642, 
			 "total_energy": -534.880404378, 
			 "HOMO_LUMO_gap": 0.18304, 
			 "cosmo_polarized_energy": -11.31, 
			 "cosmo_cavitation_energy": 27.61, 
			 "cosmo_dispersion_energy": -20.23, 
			 "cosmo_repulsion_energy": 1.64, 
			 "cosmo_total_nonelectrostatic_energy": 9.03, 
			 "SMD_solvation_energy": 4.77 
		},
		"coords": [
			{
				"x": -1.7943434318,
				"y": -2.2781220142,
				"z": -0.9762782889,
				"element": "C" 
			},
			{
				"x": -1.0006092885,
				"y": -2.0548988592,
				"z": 0.3240818738,
				"element": "C" 
			},
			{
				"x": -0.2820653827,
				"y": -0.7231844334,
				"z": 0.3531760554,
				"element": "C" 
			},
			{
				"x": 1.0303884831,
				"y": -0.5987675555,
				"z": -0.1183781236,
				"element": "C" 
			},
			{
				"x": 1.6805324709,
				"y": 0.6346909621,
				"z": -0.1283908477,
				"element": "C" 
			},
			{
				"x": 1.0282366053,
				"y": 1.7878773742,
				"z": 0.3318076537,
				"element": "C" 
			},
			{
				"x": -0.2865151302,
				"y": 1.6697832884,
				"z": 0.8095369459,
				"element": "C" 
			},
			{
				"x": -0.9238894983,
				"y": 0.433900805,
				"z": 0.8213953131,
				"element": "C" 
			},
			{
				"x": 1.7101753013,
				"y": 3.1032323192,
				"z": 0.3215757301,
				"element": "C" 
			},
			{
				"x": 2.7755491866,
				"y": 3.2801648435,
				"z": -0.5433504967,
				"element": "N" 
			},
			{
				"x": 1.3046868175,
				"y": 4.0018854029,
				"z": 1.1605227925,
				"element": "N" 
			},
			{
				"x": 2.0431132052,
				"y": 5.2043978201,
				"z": 0.9655680675,
				"element": "O" 
			},
			{
				"x": -2.5519183013,
				"y": -1.4994272589,
				"z": -1.1119760774,
				"element": "H" 
			},
			{
				"x": -1.1329305862,
				"y": -2.2519582015,
				"z": -1.8484051674,
				"element": "H" 
			},
			{
				"x": -2.3025244654,
				"y": -3.2480986023,
				"z": -0.9637726669,
				"element": "H" 
			},
			{
				"x": -1.6846711477,
				"y": -2.1196755817,
				"z": 1.1787736593,
				"element": "H" 
			},
			{
				"x": -0.2724660118,
				"y": -2.8657228615,
				"z": 0.4455716084,
				"element": "H" 
			},
			{
				"x": 1.5577205271,
				"y": -1.4821926277,
				"z": -0.4709515464,
				"element": "H" 
			},
			{
				"x": 2.7114436934,
				"y": 0.696558617,
				"z": -0.4635121949,
				"element": "H" 
			},
			{
				"x": -0.7927160114,
				"y": 2.5585378242,
				"z": 1.1698156469,
				"element": "H" 
			},
			{
				"x": -1.9419840809,
				"y": 0.362858122,
				"z": 1.197480999,
				"element": "H" 
			},
			{
				"x": 2.6969048472,
				"y": 2.807809823,
				"z": -1.4324901525,
				"element": "H" 
			},
			{
				"x": 3.0810196694,
				"y": 4.2420534974,
				"z": -0.6082501605,
				"element": "H" 
			},
			{
				"x": 1.6662625293,
				"y": 5.7793972967,
				"z": 1.6419493774,
				"element": "H" 
			}
		],
		 "valence_orbital": [ 
			{
				"type": "occ",
				"energy": -0.31423,
				"method": "rhf"
			},
			{
				"type": "occ",
				"energy": -0.26905,
				"method": "rhf"
			},
			{
				"type": "occ",
				"energy": -0.24891,
				"method": "rhf"
			},
			{
				"type": "occ",
				"energy": -0.2462,
				"method": "rhf"
			},
			{
				"type": "occ",
				"energy": -0.20417,
				"method": "rhf"
			},
			{
				"type": "unocc",
				"energy": -0.02113,
				"method": "rhf"
			},
			{
				"type": "unocc",
				"energy": -0.0003,
				"method": "rhf"
			},
			{
				"type": "unocc",
				"energy": 0.06224,
				"method": "rhf"
			},
			{
				"type": "unocc",
				"energy": 0.07896,
				"method": "rhf"
			},
			{
				"type": "unocc",
				"energy": 0.09719,
				"method": "rhf"
			}
		],
		"cosmo_sigma_profile": { 
			"-0.025": 0.0,
			"-0.024": 0.0,
			"-0.023": 0.0,
			"-0.022": 0.0,
			"-0.021": 0.0,
			"-0.02": 0.0,
			"-0.019": 0.0,
			"-0.018": 0.0,
			"-0.017": 0.288601528217,
			"-0.016": 1.05248456388,
			"-0.015": 1.06433727709,
			"-0.014": 0.574807992542,
			"-0.013": 1.34540194995,
			"-0.012": 1.84768554368,
			"-0.011": 3.21078359168,
			"-0.01": 1.98491285938,
			"-0.009": 3.21680912751,
			"-0.008": 3.06194819939,
			"-0.007": 2.43192201258,
			"-0.006": 3.86927878815,
			"-0.005": 9.49039493799,
			"-0.004": 12.5805962806,
			"-0.003": 18.4860862828,
			"-0.002": 18.8268530957,
			"-0.001": 19.2544139721,
			"0.0": 18.8716598382,
			"0.001": 17.2150800989,
			"0.002": 11.8732861888,
			"0.003": 10.4585492985,
			"0.004": 11.990513547,
			"0.005": 14.8195177695,
			"0.006": 7.38837792047,
			"0.007": 4.47112950427,
			"0.008": 5.62633490947,
			"0.009": 4.48765959968,
			"0.01": 2.76101600227,
			"0.011": 2.05514984716,
			"0.012": 1.41997566421,
			"0.013": 0.990892881089,
			"0.014": 0.428797081944,
			"0.015": 0.059194056336,
			"0.016": 0.0,
			"0.017": 0.0,
			"0.018": 0.0,
			"0.019": 0.0,
			"0.02": 0.0,
			"0.021": 0.0,
			"0.022": 0.0,
			"0.023": 0.0,
			"0.024": 0.0,
			"0.025": 0.0
		}
	}
}
