{
	 "smiles": "COC(Cl)=O", 
	 "Tm": 212.15, 
	 "num_atms": 8, 
	 "gaussian": { 
		 "optdone": 1, 
		 "sigma_profile": "yes", 
		 "theory": "DFT", 
		 "functional": "B3LYP", 
		 "basiset": "6-31G**", 
		 "properties": { 
			 "R2extent": 1107.8343, 
			 "electric_dipole_moment_norm": 2.85681520228, 
			 "electric_quadrupole_moment_norm": 4.20330639021, 
			 "total_energy": -688.660325085, 
			 "HOMO_LUMO_gap": 0.29619, 
			 "cosmo_polarized_energy": -5.38, 
			 "cosmo_cavitation_energy": 14.29, 
			 "cosmo_dispersion_energy": -10.84, 
			 "cosmo_repulsion_energy": 0.98, 
			 "cosmo_total_nonelectrostatic_energy": 4.44, 
			 "SMD_solvation_energy": 4.58 
		},
		"coords": [
			{
				"x": 0.3851943726,
				"y": -0.9097470372,
				"z": -1.0065827649,
				"element": "C" 
			},
			{
				"x": -0.1980690738,
				"y": -1.4602419523,
				"z": 0.1989256438,
				"element": "O" 
			},
			{
				"x": 0.4919847243,
				"y": -1.2079550957,
				"z": 1.3068839379,
				"element": "C" 
			},
			{
				"x": -0.3550620672,
				"y": -1.9489388434,
				"z": 2.6841544919,
				"element": "Cl" 
			},
			{
				"x": 1.5120294293,
				"y": -0.5939949299,
				"z": 1.4147061945,
				"element": "O" 
			},
			{
				"x": 0.4516037429,
				"y": 0.1775150222,
				"z": -0.9310073575,
				"element": "H" 
			},
			{
				"x": 1.3814018757,
				"y": -1.3266266911,
				"z": -1.1679828701,
				"element": "H" 
			},
			{
				"x": -0.2919830038,
				"y": -1.2022104726,
				"z": -1.8072972756,
				"element": "H" 
			}
		],
		 "valence_orbital": [ 
			{
				"type": "occ",
				"energy": -0.38951,
				"method": "rhf"
			},
			{
				"type": "occ",
				"energy": -0.34152,
				"method": "rhf"
			},
			{
				"type": "occ",
				"energy": -0.33496,
				"method": "rhf"
			},
			{
				"type": "occ",
				"energy": -0.32993,
				"method": "rhf"
			},
			{
				"type": "occ",
				"energy": -0.3051,
				"method": "rhf"
			},
			{
				"type": "unocc",
				"energy": -0.00891,
				"method": "rhf"
			},
			{
				"type": "unocc",
				"energy": 0.01298,
				"method": "rhf"
			},
			{
				"type": "unocc",
				"energy": 0.09656,
				"method": "rhf"
			},
			{
				"type": "unocc",
				"energy": 0.11314,
				"method": "rhf"
			},
			{
				"type": "unocc",
				"energy": 0.14253,
				"method": "rhf"
			}
		],
		"cosmo_sigma_profile": { 
			"-0.025": 0.0,
			"-0.024": 0.0,
			"-0.023": 0.0,
			"-0.022": 0.0,
			"-0.021": 0.0,
			"-0.02": 0.0,
			"-0.019": 0.0,
			"-0.018": 0.0,
			"-0.017": 0.0,
			"-0.016": 0.0,
			"-0.015": 0.0,
			"-0.014": 0.0,
			"-0.013": 0.0,
			"-0.012": 0.0,
			"-0.011": 0.0,
			"-0.01": 0.0,
			"-0.009": 0.0,
			"-0.008": 1.5478021099,
			"-0.007": 7.60695010879,
			"-0.006": 8.46159202928,
			"-0.005": 10.201959753,
			"-0.004": 9.61499514018,
			"-0.003": 6.66834591949,
			"-0.002": 5.48045248933,
			"-0.001": 5.34397893348,
			"0.0": 5.94590828545,
			"0.001": 6.46964097581,
			"0.002": 8.64025121709,
			"0.003": 11.7745016357,
			"0.004": 8.50742871473,
			"0.005": 4.37896322454,
			"0.006": 2.96958503314,
			"0.007": 2.97638723052,
			"0.008": 3.22004503105,
			"0.009": 5.01159021662,
			"0.01": 1.61007070186,
			"0.011": 0.0,
			"0.012": 0.0,
			"0.013": 0.0,
			"0.014": 0.0,
			"0.015": 0.0,
			"0.016": 0.0,
			"0.017": 0.0,
			"0.018": 0.0,
			"0.019": 0.0,
			"0.02": 0.0,
			"0.021": 0.0,
			"0.022": 0.0,
			"0.023": 0.0,
			"0.024": 0.0,
			"0.025": 0.0
		}
	}
}
