{
	 "smiles": "OC1C(COC(=O)C2=CN=CC=C2)(COC(=O)C2=CN=CC=C2)CCCC1(COC(=O)C1=CN=CC=C1)COC(=O)C1=CC=CN=C1", 
	 "Tm": 451.15, 
	 "num_atms": 79, 
	 "gaussian": { 
		 "optdone": 1, 
		 "sigma_profile": "yes", 
		 "theory": "DFT", 
		 "functional": "B3LYP", 
		 "basiset": "6-31G**", 
		 "properties": { 
			 "R2extent": 34207.4009, 
			 "electric_dipole_moment_norm": 1.78672626331, 
			 "electric_quadrupole_moment_norm": 49.5583085313, 
			 "total_energy": -2210.94267787, 
			 "HOMO_LUMO_gap": 0.18835, 
			 "cosmo_polarized_energy": -32.13, 
			 "cosmo_cavitation_energy": 82.15, 
			 "cosmo_dispersion_energy": -50.8, 
			 "cosmo_repulsion_energy": 3.68, 
			 "cosmo_total_nonelectrostatic_energy": 35.03, 
			 "SMD_solvation_energy": 10.3 
		},
		"coords": [
			{
				"x": 1.2610679518,
				"y": -0.7191588305,
				"z": -1.9366652626,
				"element": "O" 
			},
			{
				"x": 0.3646130165,
				"y": -1.5945231686,
				"z": -1.2687313276,
				"element": "C" 
			},
			{
				"x": 1.0046678648,
				"y": -1.9605680344,
				"z": 0.1206353525,
				"element": "C" 
			},
			{
				"x": 1.8823990277,
				"y": -3.2040503862,
				"z": -0.1861982682,
				"element": "C" 
			},
			{
				"x": 2.5983582341,
				"y": -3.6645705279,
				"z": 0.9765426538,
				"element": "O" 
			},
			{
				"x": 2.269898463,
				"y": -4.8859972287,
				"z": 1.4740565961,
				"element": "C" 
			},
			{
				"x": 1.4138843717,
				"y": -5.6044498258,
				"z": 0.9966501835,
				"element": "O" 
			},
			{
				"x": 3.0841489303,
				"y": -5.2360227691,
				"z": 2.6683548489,
				"element": "C" 
			},
			{
				"x": 2.8907385466,
				"y": -6.4943012168,
				"z": 3.2582354104,
				"element": "C" 
			},
			{
				"x": 3.5594112581,
				"y": -6.9193751043,
				"z": 4.3329794553,
				"element": "N" 
			},
			{
				"x": 4.4595683822,
				"y": -6.0802003045,
				"z": 4.8645990899,
				"element": "C" 
			},
			{
				"x": 4.7291119404,
				"y": -4.8064319745,
				"z": 4.3591280632,
				"element": "C" 
			},
			{
				"x": 4.028855545,
				"y": -4.3735040709,
				"z": 3.2371916742,
				"element": "C" 
			},
			{
				"x": 1.9810496714,
				"y": -0.8964246186,
				"z": 0.6628651194,
				"element": "C" 
			},
			{
				"x": 1.3216514483,
				"y": 0.311312689,
				"z": 1.1045879225,
				"element": "O" 
			},
			{
				"x": 1.5790547616,
				"y": 0.7360066748,
				"z": 2.3701392629,
				"element": "C" 
			},
			{
				"x": 2.2478682744,
				"y": 0.1162597981,
				"z": 3.1729740319,
				"element": "O" 
			},
			{
				"x": 0.9375785332,
				"y": 2.04783031,
				"z": 2.6622901327,
				"element": "C" 
			},
			{
				"x": 0.9608256521,
				"y": 2.5143695229,
				"z": 3.9860059842,
				"element": "C" 
			},
			{
				"x": 0.4213828911,
				"y": 3.6723341896,
				"z": 4.3743932222,
				"element": "N" 
			},
			{
				"x": -0.1674694869,
				"y": 4.4206686279,
				"z": 3.4297857356,
				"element": "C" 
			},
			{
				"x": -0.2411289401,
				"y": 4.0558327294,
				"z": 2.0843878703,
				"element": "C" 
			},
			{
				"x": 0.3241525742,
				"y": 2.8463031433,
				"z": 1.6895400613,
				"element": "C" 
			},
			{
				"x": -0.0854869576,
				"y": -2.3075867839,
				"z": 1.160214375,
				"element": "C" 
			},
			{
				"x": -1.2935237014,
				"y": -2.9919980158,
				"z": 0.5160404455,
				"element": "C" 
			},
			{
				"x": -2.0323086834,
				"y": -2.0565709849,
				"z": -0.4633840455,
				"element": "C" 
			},
			{
				"x": -1.1103714222,
				"y": -1.0705868511,
				"z": -1.2553227584,
				"element": "C" 
			},
			{
				"x": -1.6512782305,
				"y": -1.0519748124,
				"z": -2.6978170698,
				"element": "C" 
			},
			{
				"x": -0.9761006502,
				"y": -0.0222917842,
				"z": -3.4657315145,
				"element": "O" 
			},
			{
				"x": -1.339298471,
				"y": 0.077009253,
				"z": -4.7787227041,
				"element": "C" 
			},
			{
				"x": -2.0901163797,
				"y": -0.7114392744,
				"z": -5.3112671774,
				"element": "O" 
			},
			{
				"x": -0.703224738,
				"y": 1.2403237471,
				"z": -5.4484934371,
				"element": "C" 
			},
			{
				"x": -0.7273040856,
				"y": 1.2932311193,
				"z": -6.8506920567,
				"element": "C" 
			},
			{
				"x": -0.1943738999,
				"y": 2.288714864,
				"z": -7.5621941034,
				"element": "N" 
			},
			{
				"x": 0.3805480337,
				"y": 3.2893752534,
				"z": -6.87970552,
				"element": "C" 
			},
			{
				"x": 0.4471308871,
				"y": 3.3427493696,
				"z": -5.4856659234,
				"element": "C" 
			},
			{
				"x": -0.1039098303,
				"y": 2.2969950951,
				"z": -4.7507414339,
				"element": "C" 
			},
			{
				"x": -1.1547511045,
				"y": 0.3494199452,
				"z": -0.6707712574,
				"element": "C" 
			},
			{
				"x": -2.4561244238,
				"y": 0.9357159066,
				"z": -0.9232965913,
				"element": "O" 
			},
			{
				"x": -2.49168559,
				"y": 2.2597229183,
				"z": -1.1864385597,
				"element": "C" 
			},
			{
				"x": -1.5045911926,
				"y": 2.9745195403,
				"z": -1.2233348118,
				"element": "O" 
			},
			{
				"x": -3.8757574825,
				"y": 2.7494049038,
				"z": -1.4291622823,
				"element": "C" 
			},
			{
				"x": -5.0081845372,
				"y": 1.9305938725,
				"z": -1.34465746,
				"element": "C" 
			},
			{
				"x": -6.2555274146,
				"y": 2.4958123022,
				"z": -1.5909928084,
				"element": "C" 
			},
			{
				"x": -6.3216422138,
				"y": 3.8540920601,
				"z": -1.910549073,
				"element": "C" 
			},
			{
				"x": -5.2491100762,
				"y": 4.653554106,
				"z": -1.9943411718,
				"element": "N" 
			},
			{
				"x": -4.0569673215,
				"y": 4.1016474638,
				"z": -1.7560475703,
				"element": "C" 
			},
			{
				"x": 0.8430607659,
				"y": -0.4339571845,
				"z": -2.7623136506,
				"element": "H" 
			},
			{
				"x": 0.3002138158,
				"y": -2.5422486296,
				"z": -1.8317307963,
				"element": "H" 
			},
			{
				"x": 1.2731800237,
				"y": -4.0263078804,
				"z": -0.5628932431,
				"element": "H" 
			},
			{
				"x": 2.6400828512,
				"y": -2.9442996199,
				"z": -0.9317095762,
				"element": "H" 
			},
			{
				"x": 2.1593965332,
				"y": -7.1733069823,
				"z": 2.8273983229,
				"element": "H" 
			},
			{
				"x": 4.9920706996,
				"y": -6.4453958284,
				"z": 5.7410882851,
				"element": "H" 
			},
			{
				"x": 5.4683071426,
				"y": -4.1717265836,
				"z": 4.8368613779,
				"element": "H" 
			},
			{
				"x": 4.2013258213,
				"y": -3.392119363,
				"z": 2.8104885893,
				"element": "H" 
			},
			{
				"x": 2.5253307228,
				"y": -1.3130748528,
				"z": 1.5092791027,
				"element": "H" 
			},
			{
				"x": 2.6778224326,
				"y": -0.597392956,
				"z": -0.1208932518,
				"element": "H" 
			},
			{
				"x": 1.4400995296,
				"y": 1.9087458174,
				"z": 4.7509795232,
				"element": "H" 
			},
			{
				"x": -0.6000400374,
				"y": 5.3607501482,
				"z": 3.7682206303,
				"element": "H" 
			},
			{
				"x": -0.7287997099,
				"y": 4.6991906797,
				"z": 1.3595120216,
				"element": "H" 
			},
			{
				"x": 0.2893008205,
				"y": 2.5388350152,
				"z": 0.6518052755,
				"element": "H" 
			},
			{
				"x": 0.3459672759,
				"y": -2.9400496283,
				"z": 1.9416258111,
				"element": "H" 
			},
			{
				"x": -0.4123559593,
				"y": -1.3917799057,
				"z": 1.6641593889,
				"element": "H" 
			},
			{
				"x": -0.9654745319,
				"y": -3.9039803308,
				"z": 0.0038923214,
				"element": "H" 
			},
			{
				"x": -1.9926439039,
				"y": -3.324453939,
				"z": 1.2904082521,
				"element": "H" 
			},
			{
				"x": -2.611589757,
				"y": -2.6684679625,
				"z": -1.1654319277,
				"element": "H" 
			},
			{
				"x": -2.7683135665,
				"y": -1.4560328632,
				"z": 0.0818600738,
				"element": "H" 
			},
			{
				"x": -1.4965290673,
				"y": -2.0188697566,
				"z": -3.1861998353,
				"element": "H" 
			},
			{
				"x": -2.7217385897,
				"y": -0.8359577117,
				"z": -2.7073562983,
				"element": "H" 
			},
			{
				"x": -1.1996843749,
				"y": 0.4850581965,
				"z": -7.4036599698,
				"element": "H" 
			},
			{
				"x": 0.8049594611,
				"y": 4.092618758,
				"z": -7.4793616189,
				"element": "H" 
			},
			{
				"x": 0.9147101372,
				"y": 4.1874747934,
				"z": -4.9905620022,
				"element": "H" 
			},
			{
				"x": -0.0951558032,
				"y": 2.3109948299,
				"z": -3.6660208302,
				"element": "H" 
			},
			{
				"x": -1.0036880088,
				"y": 0.3402540245,
				"z": 0.4078226979,
				"element": "H" 
			},
			{
				"x": -0.3881681694,
				"y": 0.9765814472,
				"z": -1.1188567451,
				"element": "H" 
			},
			{
				"x": -4.9054704889,
				"y": 0.8820123869,
				"z": -1.089378565,
				"element": "H" 
			},
			{
				"x": -7.1613585591,
				"y": 1.9007411075,
				"z": -1.5372028053,
				"element": "H" 
			},
			{
				"x": -7.2833721511,
				"y": 4.3240261788,
				"z": -2.108335641,
				"element": "H" 
			},
			{
				"x": -3.1873747809,
				"y": 4.7501657572,
				"z": -1.8241682194,
				"element": "H" 
			}
		],
		 "valence_orbital": [ 
			{
				"type": "occ",
				"energy": -0.27087,
				"method": "rhf"
			},
			{
				"type": "occ",
				"energy": -0.27,
				"method": "rhf"
			},
			{
				"type": "occ",
				"energy": -0.26804,
				"method": "rhf"
			},
			{
				"type": "occ",
				"energy": -0.26248,
				"method": "rhf"
			},
			{
				"type": "occ",
				"energy": -0.25923,
				"method": "rhf"
			},
			{
				"type": "unocc",
				"energy": -0.07088,
				"method": "rhf"
			},
			{
				"type": "unocc",
				"energy": -0.0686,
				"method": "rhf"
			},
			{
				"type": "unocc",
				"energy": -0.0623,
				"method": "rhf"
			},
			{
				"type": "unocc",
				"energy": -0.05796,
				"method": "rhf"
			},
			{
				"type": "unocc",
				"energy": -0.03944,
				"method": "rhf"
			}
		],
		"cosmo_sigma_profile": { 
			"-0.025": 0.0,
			"-0.024": 0.0,
			"-0.023": 0.0,
			"-0.022": 0.0,
			"-0.021": 0.0,
			"-0.02": 0.0,
			"-0.019": 0.0,
			"-0.018": 0.0,
			"-0.017": 0.0,
			"-0.016": 0.0,
			"-0.015": 0.0,
			"-0.014": 0.0,
			"-0.013": 0.0,
			"-0.012": 0.0,
			"-0.011": 0.0,
			"-0.01": 0.547669631964,
			"-0.009": 1.76637503737,
			"-0.008": 5.69755673377,
			"-0.007": 28.2929436538,
			"-0.006": 39.9557037421,
			"-0.005": 42.4639571446,
			"-0.004": 45.0757388248,
			"-0.003": 52.1311229394,
			"-0.002": 57.8303524093,
			"-0.001": 66.1771860893,
			"0.0": 75.8852227135,
			"0.001": 63.9017738509,
			"0.002": 30.5034041128,
			"0.003": 20.8315837223,
			"0.004": 18.8260628463,
			"0.005": 10.7320088721,
			"0.006": 11.3284158068,
			"0.007": 14.1119717905,
			"0.008": 11.8368206623,
			"0.009": 10.2180788366,
			"0.01": 13.6863484597,
			"0.011": 15.7814800944,
			"0.012": 5.63158207071,
			"0.013": 4.29122393895,
			"0.014": 3.34364254272,
			"0.015": 3.27592736436,
			"0.016": 2.07103104477,
			"0.017": 0.0,
			"0.018": 0.0,
			"0.019": 0.0,
			"0.02": 0.0,
			"0.021": 0.0,
			"0.022": 0.0,
			"0.023": 0.0,
			"0.024": 0.0,
			"0.025": 0.0
		}
	}
}
