{
	 "smiles": "O=C1C=CC(=O)N1C1=CC=C(CC2=CC=C(C=C2)N2C(=O)C=CC2=O)C=C1", 
	 "Tm": 430.15, 
	 "num_atms": 41, 
	 "gaussian": { 
		 "optdone": 1, 
		 "sigma_profile": "yes", 
		 "theory": "DFT", 
		 "functional": "B3LYP", 
		 "basiset": "6-31G**", 
		 "properties": { 
			 "R2extent": 16273.2998, 
			 "electric_dipole_moment_norm": 1.29453553061, 
			 "electric_quadrupole_moment_norm": 29.1803530955, 
			 "total_energy": -1219.07349048, 
			 "HOMO_LUMO_gap": 0.12681, 
			 "cosmo_polarized_energy": -20.42, 
			 "cosmo_cavitation_energy": 47.98, 
			 "cosmo_dispersion_energy": -33.35, 
			 "cosmo_repulsion_energy": 2.47, 
			 "cosmo_total_nonelectrostatic_energy": 17.1, 
			 "SMD_solvation_energy": 10.93 
		},
		"coords": [
			{
				"x": 5.8694717908,
				"y": 0.8692166541,
				"z": 2.4669463984,
				"element": "O" 
			},
			{
				"x": 4.9891982927,
				"y": 1.4977401941,
				"z": 3.0144604643,
				"element": "C" 
			},
			{
				"x": 5.0975824904,
				"y": 2.2995674061,
				"z": 4.277219959,
				"element": "C" 
			},
			{
				"x": 3.9065037525,
				"y": 2.8344882995,
				"z": 4.5539601377,
				"element": "C" 
			},
			{
				"x": 2.9309264975,
				"y": 2.4262533751,
				"z": 3.4904813514,
				"element": "C" 
			},
			{
				"x": 1.7595268993,
				"y": 2.7287235539,
				"z": 3.4146394734,
				"element": "O" 
			},
			{
				"x": 3.6494695186,
				"y": 1.6155252816,
				"z": 2.5851052262,
				"element": "N" 
			},
			{
				"x": 3.1051264595,
				"y": 1.0078671035,
				"z": 1.4134345367,
				"element": "C" 
			},
			{
				"x": 3.4893436518,
				"y": -0.286162941,
				"z": 1.0519443385,
				"element": "C" 
			},
			{
				"x": 2.958960669,
				"y": -0.8656725547,
				"z": -0.1006240785,
				"element": "C" 
			},
			{
				"x": 2.0345219226,
				"y": -0.18601049,
				"z": -0.9003847616,
				"element": "C" 
			},
			{
				"x": 1.4757514348,
				"y": -0.8193796416,
				"z": -2.1636839251,
				"element": "C" 
			},
			{
				"x": -0.0413786745,
				"y": -0.8706667816,
				"z": -2.2295908469,
				"element": "C" 
			},
			{
				"x": -0.7854633809,
				"y": -1.4856184715,
				"z": -1.2128435857,
				"element": "C" 
			},
			{
				"x": -2.1739266132,
				"y": -1.5505715443,
				"z": -1.2705102179,
				"element": "C" 
			},
			{
				"x": -2.8499208166,
				"y": -1.0050834444,
				"z": -2.3695614224,
				"element": "C" 
			},
			{
				"x": -2.126669824,
				"y": -0.3921297981,
				"z": -3.3961831503,
				"element": "C" 
			},
			{
				"x": -0.7359991136,
				"y": -0.3230984912,
				"z": -3.3129540833,
				"element": "C" 
			},
			{
				"x": -4.2744393238,
				"y": -1.071756947,
				"z": -2.437507686,
				"element": "N" 
			},
			{
				"x": -5.1153421985,
				"y": -0.0436535437,
				"z": -2.916194164,
				"element": "C" 
			},
			{
				"x": -4.7643041079,
				"y": 1.035161135,
				"z": -3.3434952077,
				"element": "O" 
			},
			{
				"x": -6.5189202768,
				"y": -0.5573841422,
				"z": -2.7925805379,
				"element": "C" 
			},
			{
				"x": -6.4851831939,
				"y": -1.7911642957,
				"z": -2.2846378748,
				"element": "C" 
			},
			{
				"x": -5.0572712787,
				"y": -2.1750117721,
				"z": -2.0337064104,
				"element": "C" 
			},
			{
				"x": -4.6485090407,
				"y": -3.2200597279,
				"z": -1.5749835358,
				"element": "O" 
			},
			{
				"x": 1.6530455708,
				"y": 1.106452655,
				"z": -0.5135201198,
				"element": "C" 
			},
			{
				"x": 2.1845578076,
				"y": 1.7078784893,
				"z": 0.6229598157,
				"element": "C" 
			},
			{
				"x": 6.032447869,
				"y": 2.3788863148,
				"z": 4.8161004876,
				"element": "H" 
			},
			{
				"x": 3.6077757523,
				"y": 3.4651090284,
				"z": 5.3808411122,
				"element": "H" 
			},
			{
				"x": 4.2056224059,
				"y": -0.8287177884,
				"z": 1.6558085005,
				"element": "H" 
			},
			{
				"x": 3.2718461648,
				"y": -1.869234714,
				"z": -0.3773600051,
				"element": "H" 
			},
			{
				"x": 1.8779048186,
				"y": -1.8363217357,
				"z": -2.2533021899,
				"element": "H" 
			},
			{
				"x": 1.8465654466,
				"y": -0.2711212117,
				"z": -3.0388433507,
				"element": "H" 
			},
			{
				"x": -0.2715397916,
				"y": -1.9084690183,
				"z": -0.3540407043,
				"element": "H" 
			},
			{
				"x": -2.7310864829,
				"y": -2.0322932313,
				"z": -0.4770482735,
				"element": "H" 
			},
			{
				"x": -2.6451851195,
				"y": 0.0419321115,
				"z": -4.2415955379,
				"element": "H" 
			},
			{
				"x": -0.1839058215,
				"y": 0.1605210157,
				"z": -4.1147876454,
				"element": "H" 
			},
			{
				"x": -7.3674821757,
				"y": 0.0435128877,
				"z": -3.0917606878,
				"element": "H" 
			},
			{
				"x": -7.2986459883,
				"y": -2.4685105619,
				"z": -2.0607590765,
				"element": "H" 
			},
			{
				"x": 0.9280598292,
				"y": 1.6523802561,
				"z": -1.110892945,
				"element": "H" 
			},
			{
				"x": 1.8768641783,
				"y": 2.7064770869,
				"z": 0.9063502226,
				"element": "H" 
			}
		],
		 "valence_orbital": [ 
			{
				"type": "occ",
				"energy": -0.27338,
				"method": "rhf"
			},
			{
				"type": "occ",
				"energy": -0.25415,
				"method": "rhf"
			},
			{
				"type": "occ",
				"energy": -0.25197,
				"method": "rhf"
			},
			{
				"type": "occ",
				"energy": -0.23787,
				"method": "rhf"
			},
			{
				"type": "occ",
				"energy": -0.22685,
				"method": "rhf"
			},
			{
				"type": "unocc",
				"energy": -0.10004,
				"method": "rhf"
			},
			{
				"type": "unocc",
				"energy": -0.09983,
				"method": "rhf"
			},
			{
				"type": "unocc",
				"energy": -0.01655,
				"method": "rhf"
			},
			{
				"type": "unocc",
				"energy": -0.01172,
				"method": "rhf"
			},
			{
				"type": "unocc",
				"energy": -0.0079,
				"method": "rhf"
			}
		],
		"cosmo_sigma_profile": { 
			"-0.025": 0.0,
			"-0.024": 0.0,
			"-0.023": 0.0,
			"-0.022": 0.0,
			"-0.021": 0.0,
			"-0.02": 0.0,
			"-0.019": 0.0,
			"-0.018": 0.0,
			"-0.017": 0.0,
			"-0.016": 0.0,
			"-0.015": 0.0,
			"-0.014": 0.0,
			"-0.013": 0.0,
			"-0.012": 0.0,
			"-0.011": 0.000716985150892,
			"-0.01": 4.69024626299,
			"-0.009": 7.31071340535,
			"-0.008": 6.82082719273,
			"-0.007": 6.63054076302,
			"-0.006": 20.0694193748,
			"-0.005": 36.2899359419,
			"-0.004": 37.2187828205,
			"-0.003": 35.9658333333,
			"-0.002": 28.2623787658,
			"-0.001": 24.4315417416,
			"0.0": 21.4532125132,
			"0.001": 19.6982654624,
			"0.002": 13.3887164909,
			"0.003": 19.2726214361,
			"0.004": 26.2691164526,
			"0.005": 17.9886561245,
			"0.006": 6.6672100212,
			"0.007": 6.73197244914,
			"0.008": 9.71135947226,
			"0.009": 8.01075679421,
			"0.01": 16.2449000792,
			"0.011": 12.4920626948,
			"0.012": 1.44065419529,
			"0.013": 0.0,
			"0.014": 0.0,
			"0.015": 0.0,
			"0.016": 0.0,
			"0.017": 0.0,
			"0.018": 0.0,
			"0.019": 0.0,
			"0.02": 0.0,
			"0.021": 0.0,
			"0.022": 0.0,
			"0.023": 0.0,
			"0.024": 0.0,
			"0.025": 0.0
		}
	}
}
