{
	 "smiles": "CC(C)C1(CC(Br)=C)C(=O)NC(=O)N(C)C1=O", 
	 "Tm": 388.15, 
	 "num_atms": 32, 
	 "gaussian": { 
		 "optdone": 1, 
		 "sigma_profile": "yes", 
		 "theory": "DFT", 
		 "functional": "B3LYP", 
		 "basiset": "6-31G**", 
		 "properties": { 
			 "R2extent": 5785.265, 
			 "electric_dipole_moment_norm": 1.22159654551, 
			 "electric_quadrupole_moment_norm": 9.65453133611, 
			 "total_energy": -3334.82094009, 
			 "HOMO_LUMO_gap": 0.20174, 
			 "cosmo_polarized_energy": -15.68, 
			 "cosmo_cavitation_energy": 35.52, 
			 "cosmo_dispersion_energy": -24.48, 
			 "cosmo_repulsion_energy": 1.87, 
			 "cosmo_total_nonelectrostatic_energy": 12.91, 
			 "SMD_solvation_energy": 7.37 
		},
		"coords": [
			{
				"x": -1.2206450599,
				"y": -2.1894852037,
				"z": 1.9148512907,
				"element": "C" 
			},
			{
				"x": 0.1824818454,
				"y": -1.5848202985,
				"z": 1.7222383717,
				"element": "C" 
			},
			{
				"x": 0.6152058226,
				"y": -0.8462660033,
				"z": 2.9961471282,
				"element": "C" 
			},
			{
				"x": 0.2499359288,
				"y": -0.7355107136,
				"z": 0.392556743,
				"element": "C" 
			},
			{
				"x": 1.6357204823,
				"y": -0.0200462643,
				"z": 0.1354501211,
				"element": "C" 
			},
			{
				"x": 2.844593644,
				"y": -0.8491369488,
				"z": -0.2047994859,
				"element": "C" 
			},
			{
				"x": 3.7235452892,
				"y": -1.7615064423,
				"z": 1.2473096537,
				"element": "Br" 
			},
			{
				"x": 3.3910827875,
				"y": -0.925621051,
				"z": -1.4159467176,
				"element": "C" 
			},
			{
				"x": -0.0052097876,
				"y": -1.7093801522,
				"z": -0.7580143219,
				"element": "C" 
			},
			{
				"x": 0.642024632,
				"y": -2.7252104632,
				"z": -0.9219378767,
				"element": "O" 
			},
			{
				"x": -1.0191991702,
				"y": -1.3783729889,
				"z": -1.6453779427,
				"element": "N" 
			},
			{
				"x": -1.9650207652,
				"y": -0.3658802573,
				"z": -1.544446762,
				"element": "C" 
			},
			{
				"x": -2.8589080443,
				"y": -0.2530432012,
				"z": -2.3612882509,
				"element": "O" 
			},
			{
				"x": -1.8018497817,
				"y": 0.4929422941,
				"z": -0.4544540394,
				"element": "N" 
			},
			{
				"x": -2.7433229671,
				"y": 1.6127190387,
				"z": -0.3118771963,
				"element": "C" 
			},
			{
				"x": -0.7554120026,
				"y": 0.4247557465,
				"z": 0.4664212943,
				"element": "C" 
			},
			{
				"x": -0.6455754717,
				"y": 1.3008372592,
				"z": 1.3085222578,
				"element": "O" 
			},
			{
				"x": -1.973160014,
				"y": -1.4142958419,
				"z": 2.1010750233,
				"element": "H" 
			},
			{
				"x": -1.5434548076,
				"y": -2.7843187566,
				"z": 1.0543702843,
				"element": "H" 
			},
			{
				"x": -1.2198714223,
				"y": -2.8540865371,
				"z": 2.7838495185,
				"element": "H" 
			},
			{
				"x": 0.8808210518,
				"y": -2.4082543846,
				"z": 1.548258904,
				"element": "H" 
			},
			{
				"x": 0.5890123497,
				"y": -1.5526541373,
				"z": 3.8329304298,
				"element": "H" 
			},
			{
				"x": -0.0480934884,
				"y": -0.011184423,
				"z": 3.2291740001,
				"element": "H" 
			},
			{
				"x": 1.6370396829,
				"y": -0.4675016005,
				"z": 2.9302171165,
				"element": "H" 
			},
			{
				"x": 1.8305297735,
				"y": 0.6100138703,
				"z": 1.0058450416,
				"element": "H" 
			},
			{
				"x": 1.491529292,
				"y": 0.6620999661,
				"z": -0.7110970416,
				"element": "H" 
			},
			{
				"x": 2.9298457352,
				"y": -0.4049933115,
				"z": -2.2508393352,
				"element": "H" 
			},
			{
				"x": 4.285443386,
				"y": -1.5018699173,
				"z": -1.6172917118,
				"element": "H" 
			},
			{
				"x": -1.1751810307,
				"y": -2.0264792399,
				"z": -2.4090429969,
				"element": "H" 
			},
			{
				"x": -2.2213725536,
				"y": 2.5607687929,
				"z": -0.4591832225,
				"element": "H" 
			},
			{
				"x": -3.1661402246,
				"y": 1.6048477939,
				"z": 0.6937372866,
				"element": "H" 
			},
			{
				"x": -3.5223951115,
				"y": 1.4882333763,
				"z": -1.0595575639,
				"element": "H" 
			}
		],
		 "valence_orbital": [ 
			{
				"type": "occ",
				"energy": -0.2931,
				"method": "rhf"
			},
			{
				"type": "occ",
				"energy": -0.28954,
				"method": "rhf"
			},
			{
				"type": "occ",
				"energy": -0.28383,
				"method": "rhf"
			},
			{
				"type": "occ",
				"energy": -0.26647,
				"method": "rhf"
			},
			{
				"type": "occ",
				"energy": -0.25123,
				"method": "rhf"
			},
			{
				"type": "unocc",
				"energy": -0.04949,
				"method": "rhf"
			},
			{
				"type": "unocc",
				"energy": -0.01256,
				"method": "rhf"
			},
			{
				"type": "unocc",
				"energy": -0.00572,
				"method": "rhf"
			},
			{
				"type": "unocc",
				"energy": 0.00761,
				"method": "rhf"
			},
			{
				"type": "unocc",
				"energy": 0.05215,
				"method": "rhf"
			}
		],
		"cosmo_sigma_profile": { 
			"-0.025": 0.0,
			"-0.024": 0.0,
			"-0.023": 0.0,
			"-0.022": 0.0,
			"-0.021": 0.0,
			"-0.02": 0.0,
			"-0.019": 0.0,
			"-0.018": 0.0,
			"-0.017": 0.0182428711253,
			"-0.016": 0.75191132602,
			"-0.015": 0.945986750047,
			"-0.014": 0.888436965334,
			"-0.013": 0.598313185013,
			"-0.012": 1.35039771525,
			"-0.011": 1.8320798599,
			"-0.01": 1.10499858732,
			"-0.009": 2.29486969078,
			"-0.008": 4.11962563638,
			"-0.007": 7.05402986505,
			"-0.006": 9.51743653537,
			"-0.005": 17.3608791597,
			"-0.004": 23.3507834722,
			"-0.003": 28.4327400302,
			"-0.002": 26.3619505754,
			"-0.001": 20.2484592275,
			"0.0": 22.3003214138,
			"0.001": 19.8106330751,
			"0.002": 14.9290152395,
			"0.003": 13.3274959185,
			"0.004": 12.7828203836,
			"0.005": 10.6382786179,
			"0.006": 3.98635522352,
			"0.007": 4.81428985218,
			"0.008": 4.95517665073,
			"0.009": 5.66408402696,
			"0.01": 5.91541412742,
			"0.011": 11.9259972606,
			"0.012": 5.15472355119,
			"0.013": 0.0378772936745,
			"0.014": 0.0,
			"0.015": 0.0,
			"0.016": 0.0,
			"0.017": 0.0,
			"0.018": 0.0,
			"0.019": 0.0,
			"0.02": 0.0,
			"0.021": 0.0,
			"0.022": 0.0,
			"0.023": 0.0,
			"0.024": 0.0,
			"0.025": 0.0
		}
	}
}
