{
	 "smiles": "OC(=O)C1CCCCN1C(=O)C1=CC(F)=C(Br)C=C1", 
	 "Tm": 408.15, 
	 "num_atms": 32, 
	 "gaussian": { 
		 "optdone": 1, 
		 "sigma_profile": "yes", 
		 "theory": "DFT", 
		 "functional": "B3LYP", 
		 "basiset": "6-31G**", 
		 "properties": { 
			 "R2extent": 9801.4934, 
			 "electric_dipole_moment_norm": 3.80501301969, 
			 "electric_quadrupole_moment_norm": 25.4058001929, 
			 "total_energy": -3454.90363659, 
			 "HOMO_LUMO_gap": 0.19683, 
			 "cosmo_polarized_energy": -16.81, 
			 "cosmo_cavitation_energy": 37.76, 
			 "cosmo_dispersion_energy": -26.69, 
			 "cosmo_repulsion_energy": 2.04, 
			 "cosmo_total_nonelectrostatic_energy": 13.12, 
			 "SMD_solvation_energy": 6.51 
		},
		"coords": [
			{
				"x": -2.1413061829,
				"y": -2.1701503828,
				"z": 3.2182729773,
				"element": "O" 
			},
			{
				"x": -0.8458899216,
				"y": -2.0887529435,
				"z": 3.6058488133,
				"element": "C" 
			},
			{
				"x": -0.4809334212,
				"y": -2.2932553534,
				"z": 4.7401096442,
				"element": "O" 
			},
			{
				"x": 0.1086967461,
				"y": -1.8255600593,
				"z": 2.4424887184,
				"element": "C" 
			},
			{
				"x": 0.7057743517,
				"y": -3.1664951696,
				"z": 1.9458198996,
				"element": "C" 
			},
			{
				"x": 1.3221798958,
				"y": -2.9892388148,
				"z": 0.5530272635,
				"element": "C" 
			},
			{
				"x": 0.2354309597,
				"y": -2.6167850756,
				"z": -0.4840782775,
				"element": "C" 
			},
			{
				"x": -0.9522139429,
				"y": -1.9084269994,
				"z": 0.1956517142,
				"element": "C" 
			},
			{
				"x": -0.4913460145,
				"y": -1.09078448,
				"z": 1.323508206,
				"element": "N" 
			},
			{
				"x": -0.8689807908,
				"y": 0.2012484533,
				"z": 1.600555194,
				"element": "C" 
			},
			{
				"x": -0.7710079458,
				"y": 0.6568703427,
				"z": 2.7392474124,
				"element": "O" 
			},
			{
				"x": -1.3599291286,
				"y": 1.0838053259,
				"z": 0.4847379119,
				"element": "C" 
			},
			{
				"x": -0.7466926382,
				"y": 1.1282154039,
				"z": -0.7729994006,
				"element": "C" 
			},
			{
				"x": -1.1909585783,
				"y": 2.0390095474,
				"z": -1.7236899998,
				"element": "C" 
			},
			{
				"x": -0.5841479862,
				"y": 2.0747259939,
				"z": -2.9205173003,
				"element": "F" 
			},
			{
				"x": -2.2452367117,
				"y": 2.9096192508,
				"z": -1.4499512658,
				"element": "C" 
			},
			{
				"x": -2.8301978888,
				"y": 4.1293378938,
				"z": -2.7807669357,
				"element": "Br" 
			},
			{
				"x": -2.8494433754,
				"y": 2.8756777879,
				"z": -0.192247111,
				"element": "C" 
			},
			{
				"x": -2.3996804986,
				"y": 1.9779370517,
				"z": 0.7721022604,
				"element": "C" 
			},
			{
				"x": -2.648872391,
				"y": -2.3622322186,
				"z": 4.0247272535,
				"element": "H" 
			},
			{
				"x": 0.9051513869,
				"y": -1.2059779295,
				"z": 2.8618952742,
				"element": "H" 
			},
			{
				"x": -0.0721985962,
				"y": -3.9391329726,
				"z": 1.9115310169,
				"element": "H" 
			},
			{
				"x": 1.4458277138,
				"y": -3.5003396115,
				"z": 2.6776462801,
				"element": "H" 
			},
			{
				"x": 1.8460636786,
				"y": -3.9012593299,
				"z": 0.2500572514,
				"element": "H" 
			},
			{
				"x": 2.0775189827,
				"y": -2.1961001885,
				"z": 0.6010110449,
				"element": "H" 
			},
			{
				"x": 0.6672761267,
				"y": -1.9775540931,
				"z": -1.2623027676,
				"element": "H" 
			},
			{
				"x": -0.1409631295,
				"y": -3.5140262863,
				"z": -0.9885786904,
				"element": "H" 
			},
			{
				"x": -1.6667624602,
				"y": -2.646203278,
				"z": 0.5816370088,
				"element": "H" 
			},
			{
				"x": -1.5015870547,
				"y": -1.2812330346,
				"z": -0.5045059952,
				"element": "H" 
			},
			{
				"x": 0.090618605,
				"y": 0.4865895367,
				"z": -1.0245680717,
				"element": "H" 
			},
			{
				"x": -3.6627776227,
				"y": 3.5589309736,
				"z": 0.0243837939,
				"element": "H" 
			},
			{
				"x": -2.842212167,
				"y": 1.9669406595,
				"z": 1.7617468766,
				"element": "H" 
			}
		],
		 "valence_orbital": [ 
			{
				"type": "occ",
				"energy": -0.28751,
				"method": "rhf"
			},
			{
				"type": "occ",
				"energy": -0.27034,
				"method": "rhf"
			},
			{
				"type": "occ",
				"energy": -0.26683,
				"method": "rhf"
			},
			{
				"type": "occ",
				"energy": -0.24693,
				"method": "rhf"
			},
			{
				"type": "occ",
				"energy": -0.24533,
				"method": "rhf"
			},
			{
				"type": "unocc",
				"energy": -0.0485,
				"method": "rhf"
			},
			{
				"type": "unocc",
				"energy": -0.0211,
				"method": "rhf"
			},
			{
				"type": "unocc",
				"energy": -0.00498,
				"method": "rhf"
			},
			{
				"type": "unocc",
				"energy": 0.01043,
				"method": "rhf"
			},
			{
				"type": "unocc",
				"energy": 0.03376,
				"method": "rhf"
			}
		],
		"cosmo_sigma_profile": { 
			"-0.025": 0.0,
			"-0.024": 0.0,
			"-0.023": 0.0,
			"-0.022": 0.0,
			"-0.021": 0.0,
			"-0.02": 0.0,
			"-0.019": 0.0553739022234,
			"-0.018": 0.752696971464,
			"-0.017": 1.0249506358,
			"-0.016": 0.868322876666,
			"-0.015": 0.508748875553,
			"-0.014": 1.02514047443,
			"-0.013": 0.736203724557,
			"-0.012": 0.406337486583,
			"-0.011": 0.776328616685,
			"-0.01": 0.848370388421,
			"-0.009": 0.669913265898,
			"-0.008": 2.30138101149,
			"-0.007": 6.5188360036,
			"-0.006": 9.7114215184,
			"-0.005": 17.185260191,
			"-0.004": 24.5690297725,
			"-0.003": 29.6748877413,
			"-0.002": 31.2507293527,
			"-0.001": 29.2501196854,
			"0.0": 25.1563480203,
			"0.001": 18.3301690702,
			"0.002": 16.1722106254,
			"0.003": 20.2411730271,
			"0.004": 19.275067907,
			"0.005": 6.51043023687,
			"0.006": 5.19199588526,
			"0.007": 4.65228057439,
			"0.008": 4.04429667315,
			"0.009": 3.65016588326,
			"0.01": 3.02369794191,
			"0.011": 6.13577739299,
			"0.012": 6.80925994483,
			"0.013": 3.6732405547,
			"0.014": 1.07613300798,
			"0.015": 0.0,
			"0.016": 0.0,
			"0.017": 0.0,
			"0.018": 0.0,
			"0.019": 0.0,
			"0.02": 0.0,
			"0.021": 0.0,
			"0.022": 0.0,
			"0.023": 0.0,
			"0.024": 0.0,
			"0.025": 0.0
		}
	}
}
