{
	 "smiles": "OC(=O)C=CC(=O)NCC1=CC=NC=C1", 
	 "Tm": 413.15, 
	 "num_atms": 25, 
	 "gaussian": { 
		 "optdone": 1, 
		 "sigma_profile": "yes", 
		 "theory": "DFT", 
		 "functional": "B3LYP", 
		 "basiset": "6-31G**", 
		 "properties": { 
			 "R2extent": 5270.8332, 
			 "electric_dipole_moment_norm": 5.82855318668, 
			 "electric_quadrupole_moment_norm": 30.9661479138, 
			 "total_energy": -722.251355749, 
			 "HOMO_LUMO_gap": 0.18366, 
			 "cosmo_polarized_energy": -26.2, 
			 "cosmo_cavitation_energy": 31.01, 
			 "cosmo_dispersion_energy": -21.23, 
			 "cosmo_repulsion_energy": 1.7, 
			 "cosmo_total_nonelectrostatic_energy": 11.48, 
			 "SMD_solvation_energy": 5.89 
		},
		"coords": [
			{
				"x": 3.4502710039,
				"y": 2.0485416901,
				"z": -2.0029244315,
				"element": "O" 
			},
			{
				"x": 4.3320989484,
				"y": 1.0159828836,
				"z": -2.0739120914,
				"element": "C" 
			},
			{
				"x": 5.5219074335,
				"y": 1.2188175569,
				"z": -2.0566398671,
				"element": "O" 
			},
			{
				"x": 3.7617509476,
				"y": -0.3613169705,
				"z": -2.1408632507,
				"element": "C" 
			},
			{
				"x": 2.6082690815,
				"y": -0.7318234899,
				"z": -1.5695656295,
				"element": "C" 
			},
			{
				"x": 2.1637723101,
				"y": -2.1601215989,
				"z": -1.6446049217,
				"element": "C" 
			},
			{
				"x": 2.7616791458,
				"y": -2.9927677778,
				"z": -2.3158442823,
				"element": "O" 
			},
			{
				"x": 1.0339322543,
				"y": -2.4967803706,
				"z": -0.9367722068,
				"element": "N" 
			},
			{
				"x": 0.2910953125,
				"y": -1.6801384609,
				"z": 0.0113249397,
				"element": "C" 
			},
			{
				"x": -0.6442082043,
				"y": -0.64719537,
				"z": -0.6031969186,
				"element": "C" 
			},
			{
				"x": -1.1520804944,
				"y": -0.7728493949,
				"z": -1.8983572307,
				"element": "C" 
			},
			{
				"x": -2.032714332,
				"y": 0.2001815004,
				"z": -2.3752038878,
				"element": "C" 
			},
			{
				"x": -2.4282310158,
				"y": 1.2637636065,
				"z": -1.6654054518,
				"element": "N" 
			},
			{
				"x": -1.9360352622,
				"y": 1.3779382798,
				"z": -0.4252461595,
				"element": "C" 
			},
			{
				"x": -1.0507424369,
				"y": 0.4630564277,
				"z": 0.1449582312,
				"element": "C" 
			},
			{
				"x": 2.5542557461,
				"y": 1.7333791442,
				"z": -2.1886515221,
				"element": "H" 
			},
			{
				"x": 4.3843330131,
				"y": -1.1114321312,
				"z": -2.6193949836,
				"element": "H" 
			},
			{
				"x": 1.9876211131,
				"y": -0.0124821078,
				"z": -1.0420266124,
				"element": "H" 
			},
			{
				"x": 0.7960962408,
				"y": -3.4757032355,
				"z": -1.0205706163,
				"element": "H" 
			},
			{
				"x": -0.3016124001,
				"y": -2.3688733436,
				"z": 0.6237363395,
				"element": "H" 
			},
			{
				"x": 0.9750365715,
				"y": -1.1818541965,
				"z": 0.7089351916,
				"element": "H" 
			},
			{
				"x": -0.8624089791,
				"y": -1.607766668,
				"z": -2.5279930175,
				"element": "H" 
			},
			{
				"x": -2.4382609224,
				"y": 0.1188712096,
				"z": -3.3822444756,
				"element": "H" 
			},
			{
				"x": -2.260401714,
				"y": 2.2488017906,
				"z": 0.1416900353,
				"element": "H" 
			},
			{
				"x": -0.6847233608,
				"y": 0.6193710265,
				"z": 1.1566728197,
				"element": "H" 
			}
		],
		 "valence_orbital": [ 
			{
				"type": "occ",
				"energy": -0.28267,
				"method": "rhf"
			},
			{
				"type": "occ",
				"energy": -0.28098,
				"method": "rhf"
			},
			{
				"type": "occ",
				"energy": -0.27631,
				"method": "rhf"
			},
			{
				"type": "occ",
				"energy": -0.27204,
				"method": "rhf"
			},
			{
				"type": "occ",
				"energy": -0.26905,
				"method": "rhf"
			},
			{
				"type": "unocc",
				"energy": -0.08539,
				"method": "rhf"
			},
			{
				"type": "unocc",
				"energy": -0.04373,
				"method": "rhf"
			},
			{
				"type": "unocc",
				"energy": -0.03057,
				"method": "rhf"
			},
			{
				"type": "unocc",
				"energy": 0.025,
				"method": "rhf"
			},
			{
				"type": "unocc",
				"energy": 0.05582,
				"method": "rhf"
			}
		],
		"cosmo_sigma_profile": { 
			"-0.025": 0.0,
			"-0.024": 0.0,
			"-0.023": 0.0,
			"-0.022": 0.0,
			"-0.021": 0.0,
			"-0.02": 0.0,
			"-0.019": 0.204108492965,
			"-0.018": 0.58654444505,
			"-0.017": 1.08387167295,
			"-0.016": 1.06619710382,
			"-0.015": 1.33239520194,
			"-0.014": 2.16868388037,
			"-0.013": 2.60287407548,
			"-0.012": 2.21450123947,
			"-0.011": 2.28780506701,
			"-0.01": 2.60425656664,
			"-0.009": 3.38714293684,
			"-0.008": 7.01822041292,
			"-0.007": 12.9111556461,
			"-0.006": 16.4198721195,
			"-0.005": 17.2257039752,
			"-0.004": 15.2830705103,
			"-0.003": 13.1572230668,
			"-0.002": 14.8801221614,
			"-0.001": 12.0210135069,
			"0.0": 12.8949749438,
			"0.001": 11.7259208785,
			"0.002": 14.6328198899,
			"0.003": 11.2587470993,
			"0.004": 5.84114889616,
			"0.005": 5.90474444114,
			"0.006": 4.25715771954,
			"0.007": 5.39926817894,
			"0.008": 5.4447575845,
			"0.009": 6.68682847949,
			"0.01": 7.73858767215,
			"0.011": 8.01695430058,
			"0.012": 7.80042777341,
			"0.013": 7.23764492199,
			"0.014": 2.21218497354,
			"0.015": 0.514542488924,
			"0.016": 1.04667751948,
			"0.017": 0.53764864387,
			"0.018": 0.0,
			"0.019": 0.0,
			"0.02": 0.0,
			"0.021": 0.0,
			"0.022": 0.0,
			"0.023": 0.0,
			"0.024": 0.0,
			"0.025": 0.0
		}
	}
}
