{
	 "smiles": "COC1=CC(OC)=C(NC(=O)C2=C(N)C=CC=C2)C=C1", 
	 "Tm": 428.15, 
	 "num_atms": 36, 
	 "gaussian": { 
		 "optdone": 1, 
		 "sigma_profile": "yes", 
		 "theory": "DFT", 
		 "functional": "B3LYP", 
		 "basiset": "6-31G**", 
		 "properties": { 
			 "R2extent": 7911.2404, 
			 "electric_dipole_moment_norm": 4.08989654392, 
			 "electric_quadrupole_moment_norm": 19.5270294651, 
			 "total_energy": -916.415604332, 
			 "HOMO_LUMO_gap": 0.16009, 
			 "cosmo_polarized_energy": -17.26, 
			 "cosmo_cavitation_energy": 39.49, 
			 "cosmo_dispersion_energy": -28.56, 
			 "cosmo_repulsion_energy": 2.16, 
			 "cosmo_total_nonelectrostatic_energy": 13.1, 
			 "SMD_solvation_energy": 8.71 
		},
		"coords": [
			{
				"x": 3.7823883216,
				"y": -3.4916870467,
				"z": -2.0783551951,
				"element": "C" 
			},
			{
				"x": 2.372224506,
				"y": -3.4708387444,
				"z": -1.9342792548,
				"element": "O" 
			},
			{
				"x": 1.8197959564,
				"y": -2.4559078079,
				"z": -1.2017740931,
				"element": "C" 
			},
			{
				"x": 0.4194834461,
				"y": -2.4961786712,
				"z": -1.0948748288,
				"element": "C" 
			},
			{
				"x": -0.2472138925,
				"y": -1.513786072,
				"z": -0.3767308989,
				"element": "C" 
			},
			{
				"x": -1.6086180543,
				"y": -1.4602663303,
				"z": -0.2213048608,
				"element": "O" 
			},
			{
				"x": -2.3936715136,
				"y": -2.5067174047,
				"z": -0.7704263695,
				"element": "C" 
			},
			{
				"x": 0.4664233354,
				"y": -0.4679602277,
				"z": 0.2629015881,
				"element": "C" 
			},
			{
				"x": -0.3071872542,
				"y": 0.4755650154,
				"z": 0.9702827676,
				"element": "N" 
			},
			{
				"x": 0.1404871861,
				"y": 1.5567855973,
				"z": 1.694060645,
				"element": "C" 
			},
			{
				"x": 1.3294962364,
				"y": 1.8558884593,
				"z": 1.7931913659,
				"element": "O" 
			},
			{
				"x": -0.9163788806,
				"y": 2.3510009578,
				"z": 2.4172141334,
				"element": "C" 
			},
			{
				"x": -2.2791010961,
				"y": 2.4566275994,
				"z": 2.0450503613,
				"element": "C" 
			},
			{
				"x": -2.7989907471,
				"y": 1.8009070127,
				"z": 0.9146088416,
				"element": "N" 
			},
			{
				"x": -3.146429824,
				"y": 3.2073720516,
				"z": 2.8570474377,
				"element": "C" 
			},
			{
				"x": -2.687314196,
				"y": 3.8520944199,
				"z": 4.0001776611,
				"element": "C" 
			},
			{
				"x": -1.3367929305,
				"y": 3.7822720342,
				"z": 4.3511933628,
				"element": "C" 
			},
			{
				"x": -0.4708486324,
				"y": 3.0433774748,
				"z": 3.55390076,
				"element": "C" 
			},
			{
				"x": 1.8554719047,
				"y": -0.445198135,
				"z": 0.143835102,
				"element": "C" 
			},
			{
				"x": 2.5341775472,
				"y": -1.4306184321,
				"z": -0.5849522277,
				"element": "C" 
			},
			{
				"x": 4.2880514602,
				"y": -3.5821443622,
				"z": -1.1081328183,
				"element": "H" 
			},
			{
				"x": 4.0117741912,
				"y": -4.3690419389,
				"z": -2.685585412,
				"element": "H" 
			},
			{
				"x": 4.1515345327,
				"y": -2.5928588414,
				"z": -2.5893884251,
				"element": "H" 
			},
			{
				"x": -0.1074938335,
				"y": -3.3034071912,
				"z": -1.5871618565,
				"element": "H" 
			},
			{
				"x": -2.1149200139,
				"y": -3.4802769788,
				"z": -0.3487068565,
				"element": "H" 
			},
			{
				"x": -2.2992644466,
				"y": -2.5485066676,
				"z": -1.8627841172,
				"element": "H" 
			},
			{
				"x": -3.4273177348,
				"y": -2.279523889,
				"z": -0.5053517551,
				"element": "H" 
			},
			{
				"x": -1.2930553112,
				"y": 0.2447726216,
				"z": 1.034537838,
				"element": "H" 
			},
			{
				"x": -3.7369076193,
				"y": 2.0989819845,
				"z": 0.6779667422,
				"element": "H" 
			},
			{
				"x": -2.1996308915,
				"y": 1.8215413948,
				"z": 0.0980212334,
				"element": "H" 
			},
			{
				"x": -4.192867532,
				"y": 3.2886624817,
				"z": 2.5711680017,
				"element": "H" 
			},
			{
				"x": -3.384214819,
				"y": 4.4233508632,
				"z": 4.6071709113,
				"element": "H" 
			},
			{
				"x": -0.9671621511,
				"y": 4.2956265561,
				"z": 5.2330843494,
				"element": "H" 
			},
			{
				"x": 0.5853444699,
				"y": 2.9727727069,
				"z": 3.7902287278,
				"element": "H" 
			},
			{
				"x": 2.4009133812,
				"y": 0.3504786657,
				"z": 0.630125774,
				"element": "H" 
			},
			{
				"x": 3.6136148992,
				"y": -1.3771591558,
				"z": -0.6530586351,
				"element": "H" 
			}
		],
		 "valence_orbital": [ 
			{
				"type": "occ",
				"energy": -0.25252,
				"method": "rhf"
			},
			{
				"type": "occ",
				"energy": -0.23816,
				"method": "rhf"
			},
			{
				"type": "occ",
				"energy": -0.22881,
				"method": "rhf"
			},
			{
				"type": "occ",
				"energy": -0.21447,
				"method": "rhf"
			},
			{
				"type": "occ",
				"energy": -0.18851,
				"method": "rhf"
			},
			{
				"type": "unocc",
				"energy": -0.02842,
				"method": "rhf"
			},
			{
				"type": "unocc",
				"energy": 0.00999,
				"method": "rhf"
			},
			{
				"type": "unocc",
				"energy": 0.01274,
				"method": "rhf"
			},
			{
				"type": "unocc",
				"energy": 0.02708,
				"method": "rhf"
			},
			{
				"type": "unocc",
				"energy": 0.07541,
				"method": "rhf"
			}
		],
		"cosmo_sigma_profile": { 
			"-0.025": 0.0,
			"-0.024": 0.0,
			"-0.023": 0.0,
			"-0.022": 0.0,
			"-0.021": 0.0,
			"-0.02": 0.0,
			"-0.019": 0.0,
			"-0.018": 0.0,
			"-0.017": 0.0,
			"-0.016": 0.0,
			"-0.015": 0.0,
			"-0.014": 0.0,
			"-0.013": 0.93048713452,
			"-0.012": 2.45315293198,
			"-0.011": 2.84195178589,
			"-0.01": 3.14302388909,
			"-0.009": 2.48884846525,
			"-0.008": 2.86358739585,
			"-0.007": 3.86490138459,
			"-0.006": 15.9107366837,
			"-0.005": 28.1069131677,
			"-0.004": 28.5138157518,
			"-0.003": 29.4240811564,
			"-0.002": 18.2894595885,
			"-0.001": 14.7605682102,
			"0.0": 16.5660842749,
			"0.001": 15.9035566299,
			"0.002": 17.7670207618,
			"0.003": 21.7910610226,
			"0.004": 26.6016515777,
			"0.005": 25.5218367896,
			"0.006": 12.1119197128,
			"0.007": 4.56158944087,
			"0.008": 3.95588898936,
			"0.009": 3.63470746248,
			"0.01": 3.44352379296,
			"0.011": 3.14781791,
			"0.012": 1.67899141383,
			"0.013": 3.18096183597,
			"0.014": 1.15556902874,
			"0.015": 0.0,
			"0.016": 0.0,
			"0.017": 0.0,
			"0.018": 0.0,
			"0.019": 0.0,
			"0.02": 0.0,
			"0.021": 0.0,
			"0.022": 0.0,
			"0.023": 0.0,
			"0.024": 0.0,
			"0.025": 0.0
		}
	}
}
