{
	 "smiles": "ClC1=CN2C=CSC2=N1", 
	 "Tm": 358.15, 
	 "num_atms": 12, 
	 "gaussian": { 
		 "optdone": 1, 
		 "sigma_profile": "yes", 
		 "theory": "DFT", 
		 "functional": "B3LYP", 
		 "basiset": "6-31G**", 
		 "properties": { 
			 "R2extent": 2042.3766, 
			 "electric_dipole_moment_norm": 5.15126936007, 
			 "electric_quadrupole_moment_norm": 10.793540698, 
			 "total_energy": -1160.18529071, 
			 "HOMO_LUMO_gap": 0.2018, 
			 "cosmo_polarized_energy": -10.47, 
			 "cosmo_cavitation_energy": 20.02, 
			 "cosmo_dispersion_energy": -16.04, 
			 "cosmo_repulsion_energy": 1.25, 
			 "cosmo_total_nonelectrostatic_energy": 5.23, 
			 "SMD_solvation_energy": 1.99 
		},
		"coords": [
			{
				"x": 3.5371900861,
				"y": 0.553411912,
				"z": -0.5481508063,
				"element": "Cl" 
			},
			{
				"x": 1.8713796438,
				"y": 0.2586236042,
				"z": -0.9220272934,
				"element": "C" 
			},
			{
				"x": 1.2938940443,
				"y": 0.3944577398,
				"z": -2.1658239099,
				"element": "C" 
			},
			{
				"x": -0.0326991653,
				"y": 0.0503699213,
				"z": -1.9518743775,
				"element": "N" 
			},
			{
				"x": -1.2188588316,
				"y": -0.0631417172,
				"z": -2.6695539089,
				"element": "C" 
			},
			{
				"x": -2.2479131875,
				"y": -0.4612641715,
				"z": -1.88930013,
				"element": "C" 
			},
			{
				"x": -1.7834353853,
				"y": -0.7159438952,
				"z": -0.2080178992,
				"element": "S" 
			},
			{
				"x": -0.1403768037,
				"y": -0.2603566823,
				"z": -0.6105684275,
				"element": "C" 
			},
			{
				"x": 0.9928212995,
				"y": -0.1456985361,
				"z": 0.0458450267,
				"element": "N" 
			},
			{
				"x": 1.6887687522,
				"y": 0.6878581547,
				"z": -3.1236442817,
				"element": "H" 
			},
			{
				"x": -1.2415422656,
				"y": 0.1576615431,
				"z": -3.7271125981,
				"element": "H" 
			},
			{
				"x": -3.269428187,
				"y": -0.6250778727,
				"z": -2.1979713943,
				"element": "H" 
			}
		],
		 "valence_orbital": [ 
			{
				"type": "occ",
				"energy": -0.32241,
				"method": "rhf"
			},
			{
				"type": "occ",
				"energy": -0.31399,
				"method": "rhf"
			},
			{
				"type": "occ",
				"energy": -0.29503,
				"method": "rhf"
			},
			{
				"type": "occ",
				"energy": -0.23918,
				"method": "rhf"
			},
			{
				"type": "occ",
				"energy": -0.22596,
				"method": "rhf"
			},
			{
				"type": "unocc",
				"energy": -0.02416,
				"method": "rhf"
			},
			{
				"type": "unocc",
				"energy": -0.00154,
				"method": "rhf"
			},
			{
				"type": "unocc",
				"energy": 0.03337,
				"method": "rhf"
			},
			{
				"type": "unocc",
				"energy": 0.04615,
				"method": "rhf"
			},
			{
				"type": "unocc",
				"energy": 0.05089,
				"method": "rhf"
			}
		],
		"cosmo_sigma_profile": { 
			"-0.025": 0.0,
			"-0.024": 0.0,
			"-0.023": 0.0,
			"-0.022": 0.0,
			"-0.021": 0.0,
			"-0.02": 0.0,
			"-0.019": 0.0,
			"-0.018": 0.0,
			"-0.017": 0.0,
			"-0.016": 0.0,
			"-0.015": 0.0,
			"-0.014": 0.0,
			"-0.013": 0.0,
			"-0.012": 0.0,
			"-0.011": 1.00561967668,
			"-0.01": 6.91927292243,
			"-0.009": 6.56606126987,
			"-0.008": 4.83898366166,
			"-0.007": 5.57476330476,
			"-0.006": 4.34094702337,
			"-0.005": 4.42904712567,
			"-0.004": 4.40380924709,
			"-0.003": 6.26687429395,
			"-0.002": 8.82734484983,
			"-0.001": 13.9927970599,
			"0.0": 14.6108370273,
			"0.001": 15.6945704234,
			"0.002": 19.2221927617,
			"0.003": 15.7213891128,
			"0.004": 13.3984900937,
			"0.005": 7.25317939498,
			"0.006": 2.40413737051,
			"0.007": 1.93041738817,
			"0.008": 1.76789092763,
			"0.009": 1.33982278995,
			"0.01": 0.835449713962,
			"0.011": 1.3664996506,
			"0.012": 1.21397019087,
			"0.013": 0.915042703667,
			"0.014": 1.17582483546,
			"0.015": 0.919949241744,
			"0.016": 0.301621322427,
			"0.017": 0.0,
			"0.018": 0.0,
			"0.019": 0.0,
			"0.02": 0.0,
			"0.021": 0.0,
			"0.022": 0.0,
			"0.023": 0.0,
			"0.024": 0.0,
			"0.025": 0.0
		}
	}
}
