{
	 "smiles": "CN(CC(=O)NC1=C(Cl)C=CC=C1Cl)C(=O)CCl", 
	 "Tm": 462.15, 
	 "num_atms": 29, 
	 "gaussian": { 
		 "optdone": 1, 
		 "sigma_profile": "yes", 
		 "theory": "DFT", 
		 "functional": "B3LYP", 
		 "basiset": "6-31G**", 
		 "properties": { 
			 "R2extent": 7519.7694, 
			 "electric_dipole_moment_norm": 6.39638739446, 
			 "electric_quadrupole_moment_norm": 13.9419504722, 
			 "total_energy": -2066.34260646, 
			 "HOMO_LUMO_gap": 0.20319, 
			 "cosmo_polarized_energy": -19.87, 
			 "cosmo_cavitation_energy": 38.6, 
			 "cosmo_dispersion_energy": -26.46, 
			 "cosmo_repulsion_energy": 2.07, 
			 "cosmo_total_nonelectrostatic_energy": 14.2, 
			 "SMD_solvation_energy": 6.59 
		},
		"coords": [
			{
				"x": 0.2289621228,
				"y": 3.5560526239,
				"z": 0.779300296,
				"element": "C" 
			},
			{
				"x": 0.1903317453,
				"y": 3.0970580117,
				"z": -0.6066452967,
				"element": "N" 
			},
			{
				"x": -0.5976820815,
				"y": 1.913386833,
				"z": -0.8692603446,
				"element": "C" 
			},
			{
				"x": 0.1685044014,
				"y": 0.6099750855,
				"z": -0.575474032,
				"element": "C" 
			},
			{
				"x": 1.3762655934,
				"y": 0.5261467259,
				"z": -0.6963099599,
				"element": "O" 
			},
			{
				"x": -0.6478903185,
				"y": -0.4567962514,
				"z": -0.247436709,
				"element": "N" 
			},
			{
				"x": -0.1587386361,
				"y": -1.7440659165,
				"z": 0.0646731494,
				"element": "C" 
			},
			{
				"x": -0.3460272272,
				"y": -2.2902935737,
				"z": 1.3471541477,
				"element": "C" 
			},
			{
				"x": -1.1912964446,
				"y": -1.3448262342,
				"z": 2.5642061095,
				"element": "Cl" 
			},
			{
				"x": 0.1109703168,
				"y": -3.5606491976,
				"z": 1.6848761279,
				"element": "C" 
			},
			{
				"x": 0.7886861781,
				"y": -4.3132399714,
				"z": 0.7276857444,
				"element": "C" 
			},
			{
				"x": 0.9807053241,
				"y": -3.8113789832,
				"z": -0.5572673342,
				"element": "C" 
			},
			{
				"x": 0.4940936267,
				"y": -2.5472791535,
				"z": -0.8882718117,
				"element": "C" 
			},
			{
				"x": 0.6624425028,
				"y": -1.9985479161,
				"z": -2.537917323,
				"element": "Cl" 
			},
			{
				"x": 1.140491649,
				"y": 3.5881236455,
				"z": -1.4731950601,
				"element": "C" 
			},
			{
				"x": 1.9286081461,
				"y": 4.4689936482,
				"z": -1.1573757898,
				"element": "O" 
			},
			{
				"x": 1.2109305915,
				"y": 3.0021847628,
				"z": -2.8846787086,
				"element": "C" 
			},
			{
				"x": -0.238953985,
				"y": 3.4179118395,
				"z": -3.9086219655,
				"element": "Cl" 
			},
			{
				"x": 0.7204144391,
				"y": 2.8185089814,
				"z": 1.4265696281,
				"element": "H" 
			},
			{
				"x": 0.7946052256,
				"y": 4.4850520592,
				"z": 0.8155150429,
				"element": "H" 
			},
			{
				"x": -0.7900770517,
				"y": 3.7271615708,
				"z": 1.1416119244,
				"element": "H" 
			},
			{
				"x": -1.5181942924,
				"y": 1.9692999768,
				"z": -0.2763768681,
				"element": "H" 
			},
			{
				"x": -0.9115061848,
				"y": 1.8844532607,
				"z": -1.9170805765,
				"element": "H" 
			},
			{
				"x": -1.5796834064,
				"y": -0.2420401984,
				"z": 0.0818446092,
				"element": "H" 
			},
			{
				"x": -0.0549325872,
				"y": -3.9420214868,
				"z": 2.6855859779,
				"element": "H" 
			},
			{
				"x": 1.1611132433,
				"y": -5.3001353455,
				"z": 0.9824776774,
				"element": "H" 
			},
			{
				"x": 1.4889098791,
				"y": -4.3972942188,
				"z": -1.3141987789,
				"element": "H" 
			},
			{
				"x": 1.3082599047,
				"y": 1.916776753,
				"z": -2.8762821587,
				"element": "H" 
			},
			{
				"x": 2.0716873255,
				"y": 3.4567826694,
				"z": -3.3681077171,
				"element": "H" 
			}
		],
		 "valence_orbital": [ 
			{
				"type": "occ",
				"energy": -0.28335,
				"method": "rhf"
			},
			{
				"type": "occ",
				"energy": -0.26467,
				"method": "rhf"
			},
			{
				"type": "occ",
				"energy": -0.26265,
				"method": "rhf"
			},
			{
				"type": "occ",
				"energy": -0.25449,
				"method": "rhf"
			},
			{
				"type": "occ",
				"energy": -0.24594,
				"method": "rhf"
			},
			{
				"type": "unocc",
				"energy": -0.04275,
				"method": "rhf"
			},
			{
				"type": "unocc",
				"energy": -0.03688,
				"method": "rhf"
			},
			{
				"type": "unocc",
				"energy": -0.01623,
				"method": "rhf"
			},
			{
				"type": "unocc",
				"energy": -0.00847,
				"method": "rhf"
			},
			{
				"type": "unocc",
				"energy": 0.00371,
				"method": "rhf"
			}
		],
		"cosmo_sigma_profile": { 
			"-0.025": 0.0,
			"-0.024": 0.0,
			"-0.023": 0.0,
			"-0.022": 0.0,
			"-0.021": 0.0,
			"-0.02": 0.0,
			"-0.019": 0.0,
			"-0.018": 0.0,
			"-0.017": 0.0,
			"-0.016": 0.317039690703,
			"-0.015": 0.998692084498,
			"-0.014": 1.76496841848,
			"-0.013": 1.14243751028,
			"-0.012": 1.51410193125,
			"-0.011": 1.67735260839,
			"-0.01": 1.51723171832,
			"-0.009": 2.64556054582,
			"-0.008": 9.00497320431,
			"-0.007": 13.8054921766,
			"-0.006": 15.5109862188,
			"-0.005": 17.0445477606,
			"-0.004": 14.6091017583,
			"-0.003": 17.1823035166,
			"-0.002": 20.3665967124,
			"-0.001": 19.7737472144,
			"0.0": 24.1203533494,
			"0.001": 29.5648151068,
			"0.002": 28.8540825808,
			"0.003": 23.8263793916,
			"0.004": 21.1127940786,
			"0.005": 12.7992509296,
			"0.006": 6.13984118758,
			"0.007": 2.73150682478,
			"0.008": 3.17546117841,
			"0.009": 3.93191355428,
			"0.01": 3.17880796995,
			"0.011": 3.85593617325,
			"0.012": 7.11568692166,
			"0.013": 4.38706575312,
			"0.014": 0.666457335299,
			"0.015": 0.0,
			"0.016": 0.0,
			"0.017": 0.0,
			"0.018": 0.0,
			"0.019": 0.0,
			"0.02": 0.0,
			"0.021": 0.0,
			"0.022": 0.0,
			"0.023": 0.0,
			"0.024": 0.0,
			"0.025": 0.0
		}
	}
}
