{
	 "smiles": "CCOC(=O)C(=C(O)C(C)Cl)C1=NC(C)=CS1", 
	 "Tm": 397.15, 
	 "num_atms": 31, 
	 "gaussian": { 
		 "optdone": 1, 
		 "sigma_profile": "yes", 
		 "theory": "DFT", 
		 "functional": "B3LYP", 
		 "basiset": "6-31G**", 
		 "properties": { 
			 "R2extent": 5572.293, 
			 "electric_dipole_moment_norm": 4.15653394549, 
			 "electric_quadrupole_moment_norm": 14.7685505463, 
			 "total_energy": -1566.43210715, 
			 "HOMO_LUMO_gap": 0.16111, 
			 "cosmo_polarized_energy": -9.4, 
			 "cosmo_cavitation_energy": 37.67, 
			 "cosmo_dispersion_energy": -26.66, 
			 "cosmo_repulsion_energy": 2.09, 
			 "cosmo_total_nonelectrostatic_energy": 13.11, 
			 "SMD_solvation_energy": 6.8 
		},
		"coords": [
			{
				"x": 4.107046438,
				"y": 1.604421883,
				"z": 1.8535446398,
				"element": "C" 
			},
			{
				"x": 3.1758951828,
				"y": 2.4990215532,
				"z": 1.0511656957,
				"element": "C" 
			},
			{
				"x": 1.8870719175,
				"y": 1.8627560024,
				"z": 0.8397232306,
				"element": "O" 
			},
			{
				"x": 1.7702167222,
				"y": 1.0264988694,
				"z": -0.197708938,
				"element": "C" 
			},
			{
				"x": 2.7275651143,
				"y": 0.7999557169,
				"z": -0.9566104951,
				"element": "O" 
			},
			{
				"x": 0.4411408009,
				"y": 0.428734846,
				"z": -0.3608272622,
				"element": "C" 
			},
			{
				"x": 0.2688673526,
				"y": -0.3927532488,
				"z": -1.4709303893,
				"element": "C" 
			},
			{
				"x": 1.2528912474,
				"y": -0.6745487818,
				"z": -2.302857427,
				"element": "O" 
			},
			{
				"x": -1.0297698962,
				"y": -1.0628497386,
				"z": -1.8562797414,
				"element": "C" 
			},
			{
				"x": -0.9272952471,
				"y": -2.5832991243,
				"z": -1.7923307444,
				"element": "C" 
			},
			{
				"x": -1.4753554658,
				"y": -0.5295251995,
				"z": -3.5575330983,
				"element": "Cl" 
			},
			{
				"x": -0.6290114505,
				"y": 0.6470001321,
				"z": 0.6255577057,
				"element": "C" 
			},
			{
				"x": -1.5269736703,
				"y": -0.2596178298,
				"z": 0.9309197053,
				"element": "N" 
			},
			{
				"x": -2.4718383025,
				"y": 0.2069408685,
				"z": 1.8198240207,
				"element": "C" 
			},
			{
				"x": -3.5627763462,
				"y": -0.7164617831,
				"z": 2.2771993035,
				"element": "C" 
			},
			{
				"x": -2.2916339537,
				"y": 1.5036077086,
				"z": 2.2139390397,
				"element": "C" 
			},
			{
				"x": -0.8891415578,
				"y": 2.1823895564,
				"z": 1.4624135114,
				"element": "S" 
			},
			{
				"x": 5.0365165275,
				"y": 2.1420912906,
				"z": 2.0681252295,
				"element": "H" 
			},
			{
				"x": 3.6484229733,
				"y": 1.3179424147,
				"z": 2.8041881323,
				"element": "H" 
			},
			{
				"x": 4.355838192,
				"y": 0.7013215698,
				"z": 1.2914172438,
				"element": "H" 
			},
			{
				"x": 3.6039545707,
				"y": 2.7548468549,
				"z": 0.0799317881,
				"element": "H" 
			},
			{
				"x": 2.9283413242,
				"y": 3.4133302681,
				"z": 1.5942152006,
				"element": "H" 
			},
			{
				"x": 2.0637665004,
				"y": -0.1748312736,
				"z": -1.9739258915,
				"element": "H" 
			},
			{
				"x": -1.8360257887,
				"y": -0.7100782928,
				"z": -1.2242551642,
				"element": "H" 
			},
			{
				"x": -1.8638726666,
				"y": -3.0367045125,
				"z": -2.1241727003,
				"element": "H" 
			},
			{
				"x": -0.1101344321,
				"y": -2.9460760941,
				"z": -2.419030851,
				"element": "H" 
			},
			{
				"x": -0.744803889,
				"y": -2.8777617981,
				"z": -0.7535614199,
				"element": "H" 
			},
			{
				"x": -4.2227432128,
				"y": -0.2229762487,
				"z": 2.9947413832,
				"element": "H" 
			},
			{
				"x": -3.1418023017,
				"y": -1.6098244772,
				"z": 2.7507770846,
				"element": "H" 
			},
			{
				"x": -4.1682823609,
				"y": -1.0544988199,
				"z": 1.4290938068,
				"element": "H" 
			},
			{
				"x": -2.8745743218,
				"y": 2.0726476882,
				"z": 2.9245474013,
				"element": "H" 
			}
		],
		 "valence_orbital": [ 
			{
				"type": "occ",
				"energy": -0.2893,
				"method": "rhf"
			},
			{
				"type": "occ",
				"energy": -0.28631,
				"method": "rhf"
			},
			{
				"type": "occ",
				"energy": -0.27088,
				"method": "rhf"
			},
			{
				"type": "occ",
				"energy": -0.26786,
				"method": "rhf"
			},
			{
				"type": "occ",
				"energy": -0.21934,
				"method": "rhf"
			},
			{
				"type": "unocc",
				"energy": -0.05823,
				"method": "rhf"
			},
			{
				"type": "unocc",
				"energy": -0.02427,
				"method": "rhf"
			},
			{
				"type": "unocc",
				"energy": 0.02626,
				"method": "rhf"
			},
			{
				"type": "unocc",
				"energy": 0.03226,
				"method": "rhf"
			},
			{
				"type": "unocc",
				"energy": 0.04297,
				"method": "rhf"
			}
		],
		"cosmo_sigma_profile": { 
			"-0.025": 0.0,
			"-0.024": 0.0,
			"-0.023": 0.0,
			"-0.022": 0.0,
			"-0.021": 0.0,
			"-0.02": 0.0,
			"-0.019": 0.0,
			"-0.018": 0.0,
			"-0.017": 0.0,
			"-0.016": 0.0,
			"-0.015": 0.0,
			"-0.014": 0.0,
			"-0.013": 0.0,
			"-0.012": 0.0,
			"-0.011": 0.0,
			"-0.01": 0.0,
			"-0.009": 0.461837339505,
			"-0.008": 2.17072627594,
			"-0.007": 2.52136960988,
			"-0.006": 6.5108277963,
			"-0.005": 17.03071738,
			"-0.004": 29.7797188146,
			"-0.003": 31.1373741188,
			"-0.002": 30.7991822575,
			"-0.001": 32.9924315201,
			"0.0": 29.9493760874,
			"0.001": 19.9919699273,
			"0.002": 19.8882170568,
			"0.003": 20.4027790482,
			"0.004": 14.9146501158,
			"0.005": 12.6502861195,
			"0.006": 13.9307975859,
			"0.007": 5.83852942967,
			"0.008": 4.75014109723,
			"0.009": 4.06142902585,
			"0.01": 2.79351563141,
			"0.011": 0.250016896231,
			"0.012": 0.0,
			"0.013": 0.0,
			"0.014": 0.0,
			"0.015": 0.0,
			"0.016": 0.0,
			"0.017": 0.0,
			"0.018": 0.0,
			"0.019": 0.0,
			"0.02": 0.0,
			"0.021": 0.0,
			"0.022": 0.0,
			"0.023": 0.0,
			"0.024": 0.0,
			"0.025": 0.0
		}
	}
}
