{
	 "smiles": "CC1=CC(F)=CC(C)=C1[N+]([O-])=O", 
	 "Tm": 327.15, 
	 "num_atms": 20, 
	 "gaussian": { 
		 "optdone": 1, 
		 "sigma_profile": "yes", 
		 "theory": "DFT", 
		 "functional": "B3LYP", 
		 "basiset": "6-31G**", 
		 "properties": { 
			 "R2extent": 2097.9944, 
			 "electric_dipole_moment_norm": 2.44293705404, 
			 "electric_quadrupole_moment_norm": 11.9836503758, 
			 "total_energy": -614.613261304, 
			 "HOMO_LUMO_gap": 0.17968, 
			 "cosmo_polarized_energy": -7.24, 
			 "cosmo_cavitation_energy": 24.52, 
			 "cosmo_dispersion_energy": -17.7, 
			 "cosmo_repulsion_energy": 1.37, 
			 "cosmo_total_nonelectrostatic_energy": 8.19, 
			 "SMD_solvation_energy": 6.89 
		},
		"coords": [
			{
				"x": -1.1235297289,
				"y": 1.4658346272,
				"z": -2.26613735,
				"element": "C" 
			},
			{
				"x": -0.1352243848,
				"y": 0.9229516209,
				"z": -1.2607078498,
				"element": "C" 
			},
			{
				"x": 1.0318271318,
				"y": 1.6488484057,
				"z": -1.0076369823,
				"element": "C" 
			},
			{
				"x": 1.9623242945,
				"y": 1.1670564641,
				"z": -0.0982154453,
				"element": "C" 
			},
			{
				"x": 3.0853209924,
				"y": 1.8747083162,
				"z": 0.1174334729,
				"element": "F" 
			},
			{
				"x": 1.7748970007,
				"y": -0.0191749709,
				"z": 0.596550574,
				"element": "C" 
			},
			{
				"x": 0.6083993146,
				"y": -0.7636527089,
				"z": 0.4016341527,
				"element": "C" 
			},
			{
				"x": 0.4261665631,
				"y": -2.0441872125,
				"z": 1.1822628603,
				"element": "C" 
			},
			{
				"x": -0.3227011689,
				"y": -0.2727596587,
				"z": -0.5369055299,
				"element": "C" 
			},
			{
				"x": -1.5495527159,
				"y": -1.0458180551,
				"z": -0.7724006648,
				"element": "N" 
			},
			{
				"x": -1.9429153488,
				"y": -1.162286675,
				"z": -1.9338673836,
				"element": "O" 
			},
			{
				"x": -2.1181905953,
				"y": -1.5354754596,
				"z": 0.2044219073,
				"element": "O" 
			},
			{
				"x": -0.9005230289,
				"y": 2.5150898344,
				"z": -2.4738863756,
				"element": "H" 
			},
			{
				"x": -1.0746876202,
				"y": 0.9046116447,
				"z": -3.202887996,
				"element": "H" 
			},
			{
				"x": -2.1553699102,
				"y": 1.3939903832,
				"z": -1.9135875598,
				"element": "H" 
			},
			{
				"x": 1.222178936,
				"y": 2.5862297144,
				"z": -1.5184373341,
				"element": "H" 
			},
			{
				"x": 2.5371453293,
				"y": -0.3563751635,
				"z": 1.2901641673,
				"element": "H" 
			},
			{
				"x": 1.380758172,
				"y": -2.3513847962,
				"z": 1.6160989337,
				"element": "H" 
			},
			{
				"x": 0.050141369,
				"y": -2.8595172922,
				"z": 0.55937245,
				"element": "H" 
			},
			{
				"x": -0.2986646011,
				"y": -1.9089890181,
				"z": 1.989231953,
				"element": "H" 
			}
		],
		 "valence_orbital": [ 
			{
				"type": "occ",
				"energy": -0.30909,
				"method": "rhf"
			},
			{
				"type": "occ",
				"energy": -0.30431,
				"method": "rhf"
			},
			{
				"type": "occ",
				"energy": -0.29804,
				"method": "rhf"
			},
			{
				"type": "occ",
				"energy": -0.26872,
				"method": "rhf"
			},
			{
				"type": "occ",
				"energy": -0.26092,
				"method": "rhf"
			},
			{
				"type": "unocc",
				"energy": -0.08124,
				"method": "rhf"
			},
			{
				"type": "unocc",
				"energy": -0.02749,
				"method": "rhf"
			},
			{
				"type": "unocc",
				"energy": -0.00745,
				"method": "rhf"
			},
			{
				"type": "unocc",
				"energy": 0.0787,
				"method": "rhf"
			},
			{
				"type": "unocc",
				"energy": 0.1105,
				"method": "rhf"
			}
		],
		"cosmo_sigma_profile": { 
			"-0.025": 0.0,
			"-0.024": 0.0,
			"-0.023": 0.0,
			"-0.022": 0.0,
			"-0.021": 0.0,
			"-0.02": 0.0,
			"-0.019": 0.0,
			"-0.018": 0.0,
			"-0.017": 0.0,
			"-0.016": 0.0,
			"-0.015": 0.0,
			"-0.014": 0.0,
			"-0.013": 0.0,
			"-0.012": 0.0,
			"-0.011": 0.0,
			"-0.01": 0.0,
			"-0.009": 0.0138329797,
			"-0.008": 3.38748860473,
			"-0.007": 6.93915112498,
			"-0.006": 7.89274988277,
			"-0.005": 11.1853928069,
			"-0.004": 13.2358143765,
			"-0.003": 13.346925573,
			"-0.002": 14.9705957486,
			"-0.001": 25.193048337,
			"0.0": 21.8640785949,
			"0.001": 18.792079264,
			"0.002": 9.90399901019,
			"0.003": 9.26689868118,
			"0.004": 10.2419333674,
			"0.005": 4.04506985825,
			"0.006": 3.48674192609,
			"0.007": 6.21842848129,
			"0.008": 7.54757994119,
			"0.009": 4.49928037917,
			"0.01": 2.84855122128,
			"0.011": 0.264229112831,
			"0.012": 0.0,
			"0.013": 0.0,
			"0.014": 0.0,
			"0.015": 0.0,
			"0.016": 0.0,
			"0.017": 0.0,
			"0.018": 0.0,
			"0.019": 0.0,
			"0.02": 0.0,
			"0.021": 0.0,
			"0.022": 0.0,
			"0.023": 0.0,
			"0.024": 0.0,
			"0.025": 0.0
		}
	}
}
