{
	 "smiles": "CN1N=C(C)C(CC(O)=O)=C1C", 
	 "Tm": 497.15, 
	 "num_atms": 24, 
	 "gaussian": { 
		 "optdone": 1, 
		 "sigma_profile": "yes", 
		 "theory": "DFT", 
		 "functional": "B3LYP", 
		 "basiset": "6-31G**", 
		 "properties": { 
			 "R2extent": 2264.6297, 
			 "electric_dipole_moment_norm": 5.67980397989, 
			 "electric_quadrupole_moment_norm": 19.0955759808, 
			 "total_energy": -572.042038185, 
			 "HOMO_LUMO_gap": 0.24479, 
			 "cosmo_polarized_energy": -16.12, 
			 "cosmo_cavitation_energy": 27.61, 
			 "cosmo_dispersion_energy": -19.27, 
			 "cosmo_repulsion_energy": 1.56, 
			 "cosmo_total_nonelectrostatic_energy": 9.9, 
			 "SMD_solvation_energy": 5.09 
		},
		"coords": [
			{
				"x": -2.6396377976,
				"y": 1.3227965184,
				"z": 1.7947687779,
				"element": "C" 
			},
			{
				"x": -1.6846994031,
				"y": 0.7813125578,
				"z": 0.846240239,
				"element": "N" 
			},
			{
				"x": -1.5475961065,
				"y": 1.3681508007,
				"z": -0.369567566,
				"element": "N" 
			},
			{
				"x": -0.6069436224,
				"y": 0.6626938632,
				"z": -0.9943483688,
				"element": "C" 
			},
			{
				"x": -0.1844496281,
				"y": 1.0134264888,
				"z": -2.3891578678,
				"element": "C" 
			},
			{
				"x": -0.1217408224,
				"y": -0.3944361324,
				"z": -0.1685794537,
				"element": "C" 
			},
			{
				"x": 0.9272239692,
				"y": -1.40806845,
				"z": -0.5179417314,
				"element": "C" 
			},
			{
				"x": 2.3909664397,
				"y": -0.9349230984,
				"z": -0.4382569787,
				"element": "C" 
			},
			{
				"x": 2.5837645257,
				"y": 0.3454011685,
				"z": -0.0485133279,
				"element": "O" 
			},
			{
				"x": 3.3197748597,
				"y": -1.6547584237,
				"z": -0.7095045552,
				"element": "O" 
			},
			{
				"x": -0.8475047959,
				"y": -0.2794689798,
				"z": 1.0161624621,
				"element": "C" 
			},
			{
				"x": -0.8179666957,
				"y": -1.0860234631,
				"z": 2.2752092413,
				"element": "C" 
			},
			{
				"x": -3.1557188648,
				"y": 2.141806957,
				"z": 1.2956514793,
				"element": "H" 
			},
			{
				"x": -2.1373929168,
				"y": 1.7040986821,
				"z": 2.690246903,
				"element": "H" 
			},
			{
				"x": -3.3693844006,
				"y": 0.5636766028,
				"z": 2.0938899969,
				"element": "H" 
			},
			{
				"x": -0.3806354997,
				"y": 0.1908838157,
				"z": -3.0870145906,
				"element": "H" 
			},
			{
				"x": -0.734999917,
				"y": 1.8919115154,
				"z": -2.7316653031,
				"element": "H" 
			},
			{
				"x": 0.8878146953,
				"y": 1.2338527827,
				"z": -2.4416681219,
				"element": "H" 
			},
			{
				"x": 0.7914125937,
				"y": -1.7790320211,
				"z": -1.5403816386,
				"element": "H" 
			},
			{
				"x": 0.8597839423,
				"y": -2.2929602751,
				"z": 0.1234764953,
				"element": "H" 
			},
			{
				"x": 1.7139456908,
				"y": 0.739960723,
				"z": 0.1403475607,
				"element": "H" 
			},
			{
				"x": -1.7967397278,
				"y": -1.52613784,
				"z": 2.499582747,
				"element": "H" 
			},
			{
				"x": -0.5243815193,
				"y": -0.481605874,
				"z": 3.1418034172,
				"element": "H" 
			},
			{
				"x": -0.0997949987,
				"y": -1.9038579185,
				"z": 2.1868201839,
				"element": "H" 
			}
		],
		 "valence_orbital": [ 
			{
				"type": "occ",
				"energy": -0.30415,
				"method": "rhf"
			},
			{
				"type": "occ",
				"energy": -0.29102,
				"method": "rhf"
			},
			{
				"type": "occ",
				"energy": -0.27383,
				"method": "rhf"
			},
			{
				"type": "occ",
				"energy": -0.24715,
				"method": "rhf"
			},
			{
				"type": "occ",
				"energy": -0.23751,
				"method": "rhf"
			},
			{
				"type": "unocc",
				"energy": 0.00728,
				"method": "rhf"
			},
			{
				"type": "unocc",
				"energy": 0.02092,
				"method": "rhf"
			},
			{
				"type": "unocc",
				"energy": 0.04882,
				"method": "rhf"
			},
			{
				"type": "unocc",
				"energy": 0.06585,
				"method": "rhf"
			},
			{
				"type": "unocc",
				"energy": 0.08812,
				"method": "rhf"
			}
		],
		"cosmo_sigma_profile": { 
			"-0.025": 0.0,
			"-0.024": 0.0,
			"-0.023": 0.0,
			"-0.022": 0.0,
			"-0.021": 0.0,
			"-0.02": 0.0,
			"-0.019": 0.0,
			"-0.018": 0.0,
			"-0.017": 0.0,
			"-0.016": 0.0,
			"-0.015": 0.0,
			"-0.014": 0.0454978838298,
			"-0.013": 0.247111640129,
			"-0.012": 0.416268095904,
			"-0.011": 0.851456646307,
			"-0.01": 0.587742345633,
			"-0.009": 1.00719125524,
			"-0.008": 1.81843534079,
			"-0.007": 5.40286063235,
			"-0.006": 17.3429984917,
			"-0.005": 21.5323797448,
			"-0.004": 23.4788768154,
			"-0.003": 23.7697292717,
			"-0.002": 21.4425775333,
			"-0.001": 16.1393357241,
			"0.0": 12.0875372935,
			"0.001": 6.6843550153,
			"0.002": 5.33642033074,
			"0.003": 5.78932633646,
			"0.004": 5.82179502957,
			"0.005": 5.09876800376,
			"0.006": 4.27471195617,
			"0.007": 3.4520861377,
			"0.008": 4.27862655414,
			"0.009": 4.33713519331,
			"0.01": 4.83847276862,
			"0.011": 6.75477245606,
			"0.012": 6.59772704163,
			"0.013": 5.22277856666,
			"0.014": 1.2497619214,
			"0.015": 1.0327316501,
			"0.016": 0.501398195668,
			"0.017": 0.0,
			"0.018": 0.0,
			"0.019": 0.0,
			"0.02": 0.0,
			"0.021": 0.0,
			"0.022": 0.0,
			"0.023": 0.0,
			"0.024": 0.0,
			"0.025": 0.0
		}
	}
}
