{
	 "smiles": "NC1=CC=C(C=C1)C(F)(F)F", 
	 "Tm": 311.15, 
	 "num_atms": 17, 
	 "gaussian": { 
		 "optdone": 1, 
		 "sigma_profile": "yes", 
		 "theory": "DFT", 
		 "functional": "B3LYP", 
		 "basiset": "6-31G**", 
		 "properties": { 
			 "R2extent": 2721.129, 
			 "electric_dipole_moment_norm": 4.48776778031, 
			 "electric_quadrupole_moment_norm": 12.4778151637, 
			 "total_energy": -624.646057863, 
			 "HOMO_LUMO_gap": 0.20712, 
			 "cosmo_polarized_energy": -8.75, 
			 "cosmo_cavitation_energy": 22.47, 
			 "cosmo_dispersion_energy": -16.26, 
			 "cosmo_repulsion_energy": 1.25, 
			 "cosmo_total_nonelectrostatic_energy": 7.46, 
			 "SMD_solvation_energy": 5.03 
		},
		"coords": [
			{
				"x": 2.4149916901,
				"y": 1.2962212814,
				"z": 0.750589545,
				"element": "N" 
			},
			{
				"x": 1.6438045327,
				"y": 0.3357016629,
				"z": 0.1096138988,
				"element": "C" 
			},
			{
				"x": 1.7055114614,
				"y": 0.1794891421,
				"z": -1.2881318968,
				"element": "C" 
			},
			{
				"x": 0.8931189091,
				"y": -0.7445348854,
				"z": -1.9325096766,
				"element": "C" 
			},
			{
				"x": -0.0021432658,
				"y": -1.5345578401,
				"z": -1.2041425649,
				"element": "C" 
			},
			{
				"x": -0.0698945898,
				"y": -1.384280186,
				"z": 0.1847270359,
				"element": "C" 
			},
			{
				"x": 0.7394676602,
				"y": -0.4622718449,
				"z": 0.8357861278,
				"element": "C" 
			},
			{
				"x": -0.8299512294,
				"y": -2.5744403395,
				"z": -1.8949624945,
				"element": "C" 
			},
			{
				"x": -0.1943316311,
				"y": -3.7717666625,
				"z": -1.9687909099,
				"element": "F" 
			},
			{
				"x": -1.1289520293,
				"y": -2.2215770575,
				"z": -3.1672777992,
				"element": "F" 
			},
			{
				"x": -1.9991474915,
				"y": -2.8016233173,
				"z": -1.251500317,
				"element": "F" 
			},
			{
				"x": 2.5727928169,
				"y": 1.1543295655,
				"z": 1.7379381514,
				"element": "H" 
			},
			{
				"x": 3.244356542,
				"y": 1.6005393282,
				"z": 0.2612637031,
				"element": "H" 
			},
			{
				"x": 2.3907457055,
				"y": 0.7946671642,
				"z": -1.865517523,
				"element": "H" 
			},
			{
				"x": 0.9480766534,
				"y": -0.8502035659,
				"z": -3.0109622885,
				"element": "H" 
			},
			{
				"x": -0.7658040328,
				"y": -1.9887125324,
				"z": 0.7571073719,
				"element": "H" 
			},
			{
				"x": 0.6714582982,
				"y": -0.3474799127,
				"z": 1.9144696362,
				"element": "H" 
			}
		],
		 "valence_orbital": [ 
			{
				"type": "occ",
				"energy": -0.35664,
				"method": "rhf"
			},
			{
				"type": "occ",
				"energy": -0.35143,
				"method": "rhf"
			},
			{
				"type": "occ",
				"energy": -0.32062,
				"method": "rhf"
			},
			{
				"type": "occ",
				"energy": -0.26006,
				"method": "rhf"
			},
			{
				"type": "occ",
				"energy": -0.21627,
				"method": "rhf"
			},
			{
				"type": "unocc",
				"energy": -0.00915,
				"method": "rhf"
			},
			{
				"type": "unocc",
				"energy": -0.00545,
				"method": "rhf"
			},
			{
				"type": "unocc",
				"energy": 0.07042,
				"method": "rhf"
			},
			{
				"type": "unocc",
				"energy": 0.10105,
				"method": "rhf"
			},
			{
				"type": "unocc",
				"energy": 0.11107,
				"method": "rhf"
			}
		],
		"cosmo_sigma_profile": { 
			"-0.025": 0.0,
			"-0.024": 0.0,
			"-0.023": 0.0,
			"-0.022": 0.0,
			"-0.021": 0.0,
			"-0.02": 0.0,
			"-0.019": 0.0,
			"-0.018": 0.0,
			"-0.017": 0.0,
			"-0.016": 0.0,
			"-0.015": 0.0,
			"-0.014": 0.0194357187823,
			"-0.013": 1.80508235119,
			"-0.012": 2.6894918808,
			"-0.011": 2.72979595067,
			"-0.01": 3.20518324641,
			"-0.009": 3.39646009338,
			"-0.008": 2.46072692001,
			"-0.007": 4.34581390418,
			"-0.006": 7.5584618402,
			"-0.005": 8.5720006096,
			"-0.004": 8.39237826353,
			"-0.003": 7.36376573081,
			"-0.002": 7.4580345385,
			"-0.001": 5.75441426506,
			"0.0": 8.82729509764,
			"0.001": 10.9718622222,
			"0.002": 16.9016473494,
			"0.003": 35.2979855089,
			"0.004": 23.9989708478,
			"0.005": 11.2686775693,
			"0.006": 1.12752016424,
			"0.007": 1.28795231357,
			"0.008": 0.630544765916,
			"0.009": 0.589754830017,
			"0.01": 0.993059497638,
			"0.011": 0.432091724199,
			"0.012": 0.465227798504,
			"0.013": 0.795910609496,
			"0.014": 0.0,
			"0.015": 0.0,
			"0.016": 0.0,
			"0.017": 0.0,
			"0.018": 0.0,
			"0.019": 0.0,
			"0.02": 0.0,
			"0.021": 0.0,
			"0.022": 0.0,
			"0.023": 0.0,
			"0.024": 0.0,
			"0.025": 0.0
		}
	}
}
