{
	 "smiles": "NC1=NNC(CCC2=CC=CC=C2)=C1", 
	 "Tm": 332.15, 
	 "num_atms": 27, 
	 "gaussian": { 
		 "optdone": 1, 
		 "sigma_profile": "yes", 
		 "theory": "DFT", 
		 "functional": "B3LYP", 
		 "basiset": "6-31G**", 
		 "properties": { 
			 "R2extent": 3993.5371, 
			 "electric_dipole_moment_norm": 2.43932144663, 
			 "electric_quadrupole_moment_norm": 16.0377275619, 
			 "total_energy": -591.249638017, 
			 "HOMO_LUMO_gap": 0.18467, 
			 "cosmo_polarized_energy": -13.33, 
			 "cosmo_cavitation_energy": 30.45, 
			 "cosmo_dispersion_energy": -21.64, 
			 "cosmo_repulsion_energy": 1.73, 
			 "cosmo_total_nonelectrostatic_energy": 10.53, 
			 "SMD_solvation_energy": 3.66 
		},
		"coords": [
			{
				"x": 4.4308679577,
				"y": 1.9868229565,
				"z": -2.0238275131,
				"element": "N" 
			},
			{
				"x": 3.0577232454,
				"y": 1.9154074538,
				"z": -1.7649280742,
				"element": "C" 
			},
			{
				"x": 2.6092328427,
				"y": 1.6461905422,
				"z": -0.540420853,
				"element": "N" 
			},
			{
				"x": 1.2555151724,
				"y": 1.7565670597,
				"z": -0.6540120888,
				"element": "N" 
			},
			{
				"x": 0.8409096125,
				"y": 2.0504673579,
				"z": -1.9152113599,
				"element": "C" 
			},
			{
				"x": -0.5992539702,
				"y": 2.213555734,
				"z": -2.3016990457,
				"element": "C" 
			},
			{
				"x": -1.4500023787,
				"y": 0.9145697174,
				"z": -2.2496279849,
				"element": "C" 
			},
			{
				"x": -1.7212007664,
				"y": 0.404031711,
				"z": -0.8492252821,
				"element": "C" 
			},
			{
				"x": -2.6802923202,
				"y": 1.0306058078,
				"z": -0.0381208372,
				"element": "C" 
			},
			{
				"x": -2.9227029744,
				"y": 0.5873137307,
				"z": 1.2621117409,
				"element": "C" 
			},
			{
				"x": -2.2076499359,
				"y": -0.4963687504,
				"z": 1.7778057079,
				"element": "C" 
			},
			{
				"x": -1.2529093179,
				"y": -1.1315615562,
				"z": 0.9824548052,
				"element": "C" 
			},
			{
				"x": -1.01351553,
				"y": -0.6842021859,
				"z": -0.319333604,
				"element": "C" 
			},
			{
				"x": 1.995330739,
				"y": 2.1707911198,
				"z": -2.6718552087,
				"element": "C" 
			},
			{
				"x": 4.6921426182,
				"y": 1.5596394563,
				"z": -2.9040202262,
				"element": "H" 
			},
			{
				"x": 4.9663950129,
				"y": 1.585847585,
				"z": -1.2623603979,
				"element": "H" 
			},
			{
				"x": 0.6790073731,
				"y": 1.5309692697,
				"z": 0.1406984194,
				"element": "H" 
			},
			{
				"x": -1.0753092919,
				"y": 2.9722968226,
				"z": -1.6669389943,
				"element": "H" 
			},
			{
				"x": -0.6249630966,
				"y": 2.6057937118,
				"z": -3.3233234752,
				"element": "H" 
			},
			{
				"x": -2.4051323947,
				"y": 1.1233118586,
				"z": -2.7468197854,
				"element": "H" 
			},
			{
				"x": -0.9479957198,
				"y": 0.1398598575,
				"z": -2.8388847378,
				"element": "H" 
			},
			{
				"x": -3.2471513933,
				"y": 1.8707161013,
				"z": -0.433542638,
				"element": "H" 
			},
			{
				"x": -3.6723960805,
				"y": 1.0846099262,
				"z": 1.8712265053,
				"element": "H" 
			},
			{
				"x": -2.3961203678,
				"y": -0.8441400578,
				"z": 2.7893227669,
				"element": "H" 
			},
			{
				"x": -0.6935722521,
				"y": -1.9772350106,
				"z": 1.3724747095,
				"element": "H" 
			},
			{
				"x": -0.2680650786,
				"y": -1.183970765,
				"z": -0.9322930575,
				"element": "H" 
			},
			{
				"x": 2.0617082951,
				"y": 2.4345105459,
				"z": -3.7173494912,
				"element": "H" 
			}
		],
		 "valence_orbital": [ 
			{
				"type": "occ",
				"energy": -0.27052,
				"method": "rhf"
			},
			{
				"type": "occ",
				"energy": -0.25487,
				"method": "rhf"
			},
			{
				"type": "occ",
				"energy": -0.24887,
				"method": "rhf"
			},
			{
				"type": "occ",
				"energy": -0.22364,
				"method": "rhf"
			},
			{
				"type": "occ",
				"energy": -0.19339,
				"method": "rhf"
			},
			{
				"type": "unocc",
				"energy": -0.00872,
				"method": "rhf"
			},
			{
				"type": "unocc",
				"energy": -0.00542,
				"method": "rhf"
			},
			{
				"type": "unocc",
				"energy": 0.03618,
				"method": "rhf"
			},
			{
				"type": "unocc",
				"energy": 0.08549,
				"method": "rhf"
			},
			{
				"type": "unocc",
				"energy": 0.0902,
				"method": "rhf"
			}
		],
		"cosmo_sigma_profile": { 
			"-0.025": 0.0,
			"-0.024": 0.0,
			"-0.023": 0.0,
			"-0.022": 0.0,
			"-0.021": 0.0,
			"-0.02": 0.0,
			"-0.019": 0.0,
			"-0.018": 0.0,
			"-0.017": 0.0,
			"-0.016": 0.0,
			"-0.015": 0.0,
			"-0.014": 0.0,
			"-0.013": 0.0787359985375,
			"-0.012": 1.79905927723,
			"-0.011": 2.42132205402,
			"-0.01": 3.43947642092,
			"-0.009": 3.49800651752,
			"-0.008": 2.96336373132,
			"-0.007": 2.69319732656,
			"-0.006": 6.16943801043,
			"-0.005": 17.8105948495,
			"-0.004": 28.1996176817,
			"-0.003": 25.2941821074,
			"-0.002": 19.9060057132,
			"-0.001": 16.7194784498,
			"0.0": 13.9131010497,
			"0.001": 12.5632509427,
			"0.002": 12.078183404,
			"0.003": 9.81020799871,
			"0.004": 11.4891970417,
			"0.005": 11.397016542,
			"0.006": 10.4080639546,
			"0.007": 7.1977015568,
			"0.008": 4.18878416758,
			"0.009": 1.96561403684,
			"0.01": 2.90631600689,
			"0.011": 1.83995230302,
			"0.012": 1.83955465176,
			"0.013": 1.73807850155,
			"0.014": 1.77926081858,
			"0.015": 2.18471950037,
			"0.016": 1.60774516801,
			"0.017": 0.794094808603,
			"0.018": 0.0515365695937,
			"0.019": 0.0,
			"0.02": 0.0,
			"0.021": 0.0,
			"0.022": 0.0,
			"0.023": 0.0,
			"0.024": 0.0,
			"0.025": 0.0
		}
	}
}
