{
	 "smiles": "CN1C(=O)C(C2=NNC(=O)C2=C/C2=CC3=C(OCO3)C=C2)=C(O)C2=CC=CC=C12", 
	 "Tm": 538.15, 
	 "num_atms": 44, 
	 "gaussian": { 
		 "optdone": 1, 
		 "sigma_profile": "yes", 
		 "theory": "DFT", 
		 "functional": "B3LYP", 
		 "basiset": "6-31G**", 
		 "properties": { 
			 "R2extent": 16485.9171, 
			 "electric_dipole_moment_norm": 6.83655895681, 
			 "electric_quadrupole_moment_norm": 27.0393850098, 
			 "total_energy": -1349.60999435, 
			 "HOMO_LUMO_gap": 0.12236, 
			 "cosmo_polarized_energy": -29.31, 
			 "cosmo_cavitation_energy": 48.53, 
			 "cosmo_dispersion_energy": -35.2, 
			 "cosmo_repulsion_energy": 2.59, 
			 "cosmo_total_nonelectrostatic_energy": 15.92, 
			 "SMD_solvation_energy": 8.92 
		},
		"coords": [
			{
				"x": -2.2203288167,
				"y": 0.1658130816,
				"z": 1.3810172191,
				"element": "C" 
			},
			{
				"x": -0.9422210565,
				"y": 0.8094276785,
				"z": 1.0783851551,
				"element": "N" 
			},
			{
				"x": -0.389307957,
				"y": 0.5538543205,
				"z": -0.1981706508,
				"element": "C" 
			},
			{
				"x": -0.9623052065,
				"y": -0.2003092852,
				"z": -0.9827795986,
				"element": "O" 
			},
			{
				"x": 0.8612232626,
				"y": 1.2371965799,
				"z": -0.5200512394,
				"element": "C" 
			},
			{
				"x": 1.3935177616,
				"y": 1.0786010323,
				"z": -1.8921570418,
				"element": "C" 
			},
			{
				"x": 1.4801665702,
				"y": 2.1113087848,
				"z": -2.684774261,
				"element": "N" 
			},
			{
				"x": 2.0338351174,
				"y": 1.6530136759,
				"z": -3.8586390945,
				"element": "N" 
			},
			{
				"x": 2.3263377398,
				"y": 0.3053040063,
				"z": -3.8808936974,
				"element": "C" 
			},
			{
				"x": 2.8211820144,
				"y": -0.2861782341,
				"z": -4.8399637097,
				"element": "O" 
			},
			{
				"x": 1.9018281685,
				"y": -0.1435676688,
				"z": -2.5212863865,
				"element": "C" 
			},
			{
				"x": 1.9354843026,
				"y": -1.3617563474,
				"z": -1.9061436466,
				"element": "C" 
			},
			{
				"x": 2.3893768289,
				"y": -2.6783622143,
				"z": -2.3043867094,
				"element": "C" 
			},
			{
				"x": 2.2401722734,
				"y": -3.71374681,
				"z": -1.333227483,
				"element": "C" 
			},
			{
				"x": 2.6574275971,
				"y": -4.9765243966,
				"z": -1.672102544,
				"element": "C" 
			},
			{
				"x": 3.2134988123,
				"y": -5.2576912027,
				"z": -2.9210367462,
				"element": "C" 
			},
			{
				"x": 3.5488825201,
				"y": -6.5803564801,
				"z": -2.9913990131,
				"element": "O" 
			},
			{
				"x": 3.1089223305,
				"y": -7.1706866806,
				"z": -1.7584041514,
				"element": "C" 
			},
			{
				"x": 2.6299977364,
				"y": -6.1228372996,
				"z": -0.911395701,
				"element": "O" 
			},
			{
				"x": 3.3744324395,
				"y": -4.2781171834,
				"z": -3.8854366238,
				"element": "C" 
			},
			{
				"x": 2.9543963497,
				"y": -2.9822701785,
				"z": -3.5636181095,
				"element": "C" 
			},
			{
				"x": 1.4806836066,
				"y": 2.037384576,
				"z": 0.4019960235,
				"element": "C" 
			},
			{
				"x": 2.6512498842,
				"y": 2.6272994061,
				"z": 0.0678824865,
				"element": "O" 
			},
			{
				"x": 0.9164322599,
				"y": 2.2333426988,
				"z": 1.7239037917,
				"element": "C" 
			},
			{
				"x": 1.5525706192,
				"y": 3.0014741975,
				"z": 2.7172206137,
				"element": "C" 
			},
			{
				"x": 0.9807488147,
				"y": 3.1936916435,
				"z": 3.9648177517,
				"element": "C" 
			},
			{
				"x": -0.2572235435,
				"y": 2.6019835243,
				"z": 4.2439627919,
				"element": "C" 
			},
			{
				"x": -0.9008025248,
				"y": 1.8205479144,
				"z": 3.2949209417,
				"element": "C" 
			},
			{
				"x": -0.3257663153,
				"y": 1.6117763106,
				"z": 2.0238113871,
				"element": "C" 
			},
			{
				"x": -2.9873484936,
				"y": 0.9147481586,
				"z": 1.6012590803,
				"element": "H" 
			},
			{
				"x": -2.1222455966,
				"y": -0.5110827885,
				"z": 2.2357980789,
				"element": "H" 
			},
			{
				"x": -2.5052865697,
				"y": -0.401670503,
				"z": 0.4979367223,
				"element": "H" 
			},
			{
				"x": 2.1678389613,
				"y": 2.2879238793,
				"z": -4.6294257963,
				"element": "H" 
			},
			{
				"x": 1.530003311,
				"y": -1.3445295447,
				"z": -0.8960178724,
				"element": "H" 
			},
			{
				"x": 1.8077627993,
				"y": -3.5096492518,
				"z": -0.3598369771,
				"element": "H" 
			},
			{
				"x": 3.953768297,
				"y": -7.6758251917,
				"z": -1.2779020443,
				"element": "H" 
			},
			{
				"x": 2.2972453742,
				"y": -7.88021727,
				"z": -1.9668441115,
				"element": "H" 
			},
			{
				"x": 3.8073390233,
				"y": -4.5079238574,
				"z": -4.85233096,
				"element": "H" 
			},
			{
				"x": 3.0569045551,
				"y": -2.1856371749,
				"z": -4.2920252199,
				"element": "H" 
			},
			{
				"x": 2.8737493423,
				"y": 3.3150629643,
				"z": 0.706919341,
				"element": "H" 
			},
			{
				"x": 2.5268838402,
				"y": 3.4449857325,
				"z": 2.5259389543,
				"element": "H" 
			},
			{
				"x": 1.4898881093,
				"y": 3.7899053644,
				"z": 4.7145548997,
				"element": "H" 
			},
			{
				"x": -0.7212024488,
				"y": 2.745273833,
				"z": 5.215229438,
				"element": "H" 
			},
			{
				"x": -1.8511120935,
				"y": 1.3653202,
				"z": 3.5406947124,
				"element": "H" 
			}
		],
		 "valence_orbital": [ 
			{
				"type": "occ",
				"energy": -0.24331,
				"method": "rhf"
			},
			{
				"type": "occ",
				"energy": -0.23541,
				"method": "rhf"
			},
			{
				"type": "occ",
				"energy": -0.22618,
				"method": "rhf"
			},
			{
				"type": "occ",
				"energy": -0.21608,
				"method": "rhf"
			},
			{
				"type": "occ",
				"energy": -0.19693,
				"method": "rhf"
			},
			{
				"type": "unocc",
				"energy": -0.07457,
				"method": "rhf"
			},
			{
				"type": "unocc",
				"energy": -0.05759,
				"method": "rhf"
			},
			{
				"type": "unocc",
				"energy": -0.01725,
				"method": "rhf"
			},
			{
				"type": "unocc",
				"energy": 0.00132,
				"method": "rhf"
			},
			{
				"type": "unocc",
				"energy": 0.01571,
				"method": "rhf"
			}
		],
		"cosmo_sigma_profile": { 
			"-0.025": 0.0,
			"-0.024": 0.0,
			"-0.023": 0.0,
			"-0.022": 0.0,
			"-0.021": 0.0,
			"-0.02": 0.0,
			"-0.019": 0.483003500393,
			"-0.018": 1.05897045697,
			"-0.017": 0.579738816338,
			"-0.016": 1.88048322017,
			"-0.015": 2.18143038462,
			"-0.014": 2.18595939862,
			"-0.013": 1.5487296019,
			"-0.012": 2.49730718378,
			"-0.011": 1.63269147196,
			"-0.01": 0.855792202661,
			"-0.009": 3.85396453134,
			"-0.008": 12.0393407886,
			"-0.007": 17.3503255978,
			"-0.006": 23.09854905,
			"-0.005": 23.1685407021,
			"-0.004": 18.9093446177,
			"-0.003": 20.3027501739,
			"-0.002": 21.8330741639,
			"-0.001": 24.2235499422,
			"0.0": 28.0543065662,
			"0.001": 32.2682785431,
			"0.002": 34.5596557715,
			"0.003": 25.771850202,
			"0.004": 17.0959825807,
			"0.005": 8.70672086552,
			"0.006": 8.48026581593,
			"0.007": 8.86299708967,
			"0.008": 9.29172259688,
			"0.009": 7.22504246657,
			"0.01": 5.71238694662,
			"0.011": 5.42833836914,
			"0.012": 6.64565048239,
			"0.013": 7.60916337916,
			"0.014": 4.87470465959,
			"0.015": 0.566582034029,
			"0.016": 0.0,
			"0.017": 0.0,
			"0.018": 0.0,
			"0.019": 0.0,
			"0.02": 0.0,
			"0.021": 0.0,
			"0.022": 0.0,
			"0.023": 0.0,
			"0.024": 0.0,
			"0.025": 0.0
		}
	}
}
