{
	 "smiles": "OC(=O)C1=CC(S)=C(F)C=C1", 
	 "Tm": 437.15, 
	 "num_atms": 16, 
	 "gaussian": { 
		 "optdone": 1, 
		 "sigma_profile": "yes", 
		 "theory": "DFT", 
		 "functional": "B3LYP", 
		 "basiset": "6-31G**", 
		 "properties": { 
			 "R2extent": 2607.1832, 
			 "electric_dipole_moment_norm": 3.68611874741, 
			 "electric_quadrupole_moment_norm": 8.75535671917, 
			 "total_energy": -918.230473669, 
			 "HOMO_LUMO_gap": 0.18528, 
			 "cosmo_polarized_energy": -14.13, 
			 "cosmo_cavitation_energy": 23.0, 
			 "cosmo_dispersion_energy": -17.47, 
			 "cosmo_repulsion_energy": 1.33, 
			 "cosmo_total_nonelectrostatic_energy": 6.85, 
			 "SMD_solvation_energy": 5.03 
		},
		"coords": [
			{
				"x": -0.0264814389,
				"y": -2.7589310875,
				"z": -1.6671099691,
				"element": "O" 
			},
			{
				"x": -0.6744543737,
				"y": -1.5862189197,
				"z": -1.4328090674,
				"element": "C" 
			},
			{
				"x": -1.8484766113,
				"y": -1.480649104,
				"z": -1.6966738816,
				"element": "O" 
			},
			{
				"x": 0.1364979951,
				"y": -0.4692138437,
				"z": -0.8460884734,
				"element": "C" 
			},
			{
				"x": 1.3215947461,
				"y": -0.6894329846,
				"z": -0.1331131297,
				"element": "C" 
			},
			{
				"x": 2.0455726297,
				"y": 0.3771501764,
				"z": 0.4120142843,
				"element": "C" 
			},
			{
				"x": 3.5421358262,
				"y": 0.0597249182,
				"z": 1.3184801519,
				"element": "S" 
			},
			{
				"x": 1.5407711082,
				"y": 1.667000717,
				"z": 0.2166994008,
				"element": "C" 
			},
			{
				"x": 2.2206178768,
				"y": 2.7160593959,
				"z": 0.7263086869,
				"element": "F" 
			},
			{
				"x": 0.3592091137,
				"y": 1.9086595155,
				"z": -0.4732367699,
				"element": "C" 
			},
			{
				"x": -0.351045671,
				"y": 0.8357937057,
				"z": -0.9998051732,
				"element": "C" 
			},
			{
				"x": 0.9295794507,
				"y": -2.6377850402,
				"z": -1.5863973962,
				"element": "H" 
			},
			{
				"x": 1.6797218842,
				"y": -1.6995365768,
				"z": 0.0488264065,
				"element": "H" 
			},
			{
				"x": 3.7908308413,
				"y": 1.3437305019,
				"z": 1.6321733181,
				"element": "H" 
			},
			{
				"x": 0.0167776345,
				"y": 2.9319345092,
				"z": -0.5828460757,
				"element": "H" 
			},
			{
				"x": -1.2826510114,
				"y": 0.9860141166,
				"z": -1.5328223123,
				"element": "H" 
			}
		],
		 "valence_orbital": [ 
			{
				"type": "occ",
				"energy": -0.32841,
				"method": "rhf"
			},
			{
				"type": "occ",
				"energy": -0.31757,
				"method": "rhf"
			},
			{
				"type": "occ",
				"energy": -0.28351,
				"method": "rhf"
			},
			{
				"type": "occ",
				"energy": -0.27552,
				"method": "rhf"
			},
			{
				"type": "occ",
				"energy": -0.24198,
				"method": "rhf"
			},
			{
				"type": "unocc",
				"energy": -0.0567,
				"method": "rhf"
			},
			{
				"type": "unocc",
				"energy": -0.03663,
				"method": "rhf"
			},
			{
				"type": "unocc",
				"energy": 0.00164,
				"method": "rhf"
			},
			{
				"type": "unocc",
				"energy": 0.04082,
				"method": "rhf"
			},
			{
				"type": "unocc",
				"energy": 0.04358,
				"method": "rhf"
			}
		],
		"cosmo_sigma_profile": { 
			"-0.025": 0.0,
			"-0.024": 0.0,
			"-0.023": 0.0,
			"-0.022": 0.0,
			"-0.021": 0.0,
			"-0.02": 0.0,
			"-0.019": 0.574393769944,
			"-0.018": 0.661277974844,
			"-0.017": 1.06576549165,
			"-0.016": 1.34226401595,
			"-0.015": 0.5641638836,
			"-0.014": 1.30013921825,
			"-0.013": 0.868602236576,
			"-0.012": 1.86281420653,
			"-0.011": 1.80404231588,
			"-0.01": 2.28201387028,
			"-0.009": 3.32545054623,
			"-0.008": 4.95022331648,
			"-0.007": 6.89920568455,
			"-0.006": 6.08372254493,
			"-0.005": 7.50515240313,
			"-0.004": 7.5426835368,
			"-0.003": 9.03069250513,
			"-0.002": 10.3001368092,
			"-0.001": 12.9884163965,
			"0.0": 15.0298920108,
			"0.001": 17.8569744463,
			"0.002": 15.5968508104,
			"0.003": 13.5600347438,
			"0.004": 6.46175490785,
			"0.005": 5.00372139102,
			"0.006": 5.23649053838,
			"0.007": 5.03340072899,
			"0.008": 3.34606025637,
			"0.009": 4.20890930565,
			"0.01": 4.35392947753,
			"0.011": 5.46484886415,
			"0.012": 4.35042804167,
			"0.013": 1.16510500378,
			"0.014": 0.0123332559232,
			"0.015": 0.0,
			"0.016": 0.0,
			"0.017": 0.0,
			"0.018": 0.0,
			"0.019": 0.0,
			"0.02": 0.0,
			"0.021": 0.0,
			"0.022": 0.0,
			"0.023": 0.0,
			"0.024": 0.0,
			"0.025": 0.0
		}
	}
}
