{
	 "smiles": "CC1(C)OC2C3CC(C2O1)C(=O)N3", 
	 "Tm": 424.15, 
	 "num_atms": 26, 
	 "gaussian": { 
		 "optdone": 1, 
		 "sigma_profile": "yes", 
		 "theory": "DFT", 
		 "functional": "B3LYP", 
		 "basiset": "6-31G**", 
		 "properties": { 
			 "R2extent": 2450.3387, 
			 "electric_dipole_moment_norm": 3.36414175831, 
			 "electric_quadrupole_moment_norm": 11.619455748, 
			 "total_energy": -631.216769925, 
			 "HOMO_LUMO_gap": 0.26033, 
			 "cosmo_polarized_energy": -13.36, 
			 "cosmo_cavitation_energy": 26.94, 
			 "cosmo_dispersion_energy": -20.05, 
			 "cosmo_repulsion_energy": 1.58, 
			 "cosmo_total_nonelectrostatic_energy": 8.47, 
			 "SMD_solvation_energy": 3.93 
		},
		"coords": [
			{
				"x": 0.3393137239,
				"y": 3.3846621058,
				"z": 0.4639879493,
				"element": "C" 
			},
			{
				"x": 0.3841610401,
				"y": 2.4309447735,
				"z": -0.7341886468,
				"element": "C" 
			},
			{
				"x": 0.3481490728,
				"y": 3.1563240727,
				"z": -2.0690920948,
				"element": "C" 
			},
			{
				"x": -0.712572548,
				"y": 1.5101536924,
				"z": -0.6800108161,
				"element": "O" 
			},
			{
				"x": -0.301360029,
				"y": 0.3824506953,
				"z": 0.0745909059,
				"element": "C" 
			},
			{
				"x": -0.5463189261,
				"y": -0.9510885948,
				"z": -0.6798923624,
				"element": "C" 
			},
			{
				"x": 0.5979564836,
				"y": -0.9610704605,
				"z": -1.7110112333,
				"element": "C" 
			},
			{
				"x": 1.6958825478,
				"y": -0.8388864912,
				"z": -0.6338920769,
				"element": "C" 
			},
			{
				"x": 1.264223304,
				"y": 0.4647010637,
				"z": 0.0941821365,
				"element": "C" 
			},
			{
				"x": 1.5578421692,
				"y": 1.6162985101,
				"z": -0.6853239163,
				"element": "O" 
			},
			{
				"x": 1.2871835247,
				"y": -1.9554040826,
				"z": 0.3462296475,
				"element": "C" 
			},
			{
				"x": 1.9798596716,
				"y": -2.5836758893,
				"z": 1.1232526831,
				"element": "O" 
			},
			{
				"x": -0.0888717576,
				"y": -2.0327840639,
				"z": 0.2068244993,
				"element": "N" 
			},
			{
				"x": 0.3665082416,
				"y": 2.8277030772,
				"z": 1.40507302,
				"element": "H" 
			},
			{
				"x": -0.5793925214,
				"y": 3.9774026839,
				"z": 0.4430859769,
				"element": "H" 
			},
			{
				"x": 1.1980642479,
				"y": 4.0612479657,
				"z": 0.4419756727,
				"element": "H" 
			},
			{
				"x": -0.5689178801,
				"y": 3.745109356,
				"z": -2.1527713064,
				"element": "H" 
			},
			{
				"x": 0.3808424586,
				"y": 2.4324952999,
				"z": -2.8860991154,
				"element": "H" 
			},
			{
				"x": 1.2062338602,
				"y": 3.827776757,
				"z": -2.1552148729,
				"element": "H" 
			},
			{
				"x": -0.761780466,
				"y": 0.3792908169,
				"z": 1.070312714,
				"element": "H" 
			},
			{
				"x": -1.5627059218,
				"y": -1.1005244615,
				"z": -1.0452167864,
				"element": "H" 
			},
			{
				"x": 0.567806055,
				"y": -0.1087070334,
				"z": -2.3902653388,
				"element": "H" 
			},
			{
				"x": 0.6409267522,
				"y": -1.8947992404,
				"z": -2.2762649414,
				"element": "H" 
			},
			{
				"x": 2.7432965308,
				"y": -0.8697186104,
				"z": -0.9290542487,
				"element": "H" 
			},
			{
				"x": 1.7015027667,
				"y": 0.5468417135,
				"z": 1.0955973531,
				"element": "H" 
			},
			{
				"x": -0.6522324007,
				"y": -2.4286436557,
				"z": 0.9471851983,
				"element": "H" 
			}
		],
		 "valence_orbital": [ 
			{
				"type": "occ",
				"energy": -0.32474,
				"method": "rhf"
			},
			{
				"type": "occ",
				"energy": -0.28074,
				"method": "rhf"
			},
			{
				"type": "occ",
				"energy": -0.27012,
				"method": "rhf"
			},
			{
				"type": "occ",
				"energy": -0.25446,
				"method": "rhf"
			},
			{
				"type": "occ",
				"energy": -0.24163,
				"method": "rhf"
			},
			{
				"type": "unocc",
				"energy": 0.0187,
				"method": "rhf"
			},
			{
				"type": "unocc",
				"energy": 0.07733,
				"method": "rhf"
			},
			{
				"type": "unocc",
				"energy": 0.08251,
				"method": "rhf"
			},
			{
				"type": "unocc",
				"energy": 0.10288,
				"method": "rhf"
			},
			{
				"type": "unocc",
				"energy": 0.11051,
				"method": "rhf"
			}
		],
		"cosmo_sigma_profile": { 
			"-0.025": 0.0,
			"-0.024": 0.0,
			"-0.023": 0.0,
			"-0.022": 0.0,
			"-0.021": 0.0,
			"-0.02": 0.0,
			"-0.019": 0.0,
			"-0.018": 0.0,
			"-0.017": 0.0,
			"-0.016": 0.0,
			"-0.015": 0.0936997367776,
			"-0.014": 1.2150277159,
			"-0.013": 1.70936595358,
			"-0.012": 0.61573028796,
			"-0.011": 1.25155324826,
			"-0.01": 1.22195792913,
			"-0.009": 1.29455105406,
			"-0.008": 0.786465067047,
			"-0.007": 2.68367676303,
			"-0.006": 8.65560299497,
			"-0.005": 17.9738492741,
			"-0.004": 23.1015079885,
			"-0.003": 21.3292446156,
			"-0.002": 20.8855649062,
			"-0.001": 20.7832312412,
			"0.0": 18.8863415262,
			"0.001": 8.69024075992,
			"0.002": 5.73761547473,
			"0.003": 5.27570983163,
			"0.004": 4.8075328363,
			"0.005": 5.46738660915,
			"0.006": 3.94878777845,
			"0.007": 4.20602883513,
			"0.008": 3.19662337194,
			"0.009": 3.90880550441,
			"0.01": 2.6027837775,
			"0.011": 4.48746927464,
			"0.012": 4.6609402333,
			"0.013": 6.25254175988,
			"0.014": 3.74761554261,
			"0.015": 0.424617533968,
			"0.016": 0.0,
			"0.017": 0.0,
			"0.018": 0.0,
			"0.019": 0.0,
			"0.02": 0.0,
			"0.021": 0.0,
			"0.022": 0.0,
			"0.023": 0.0,
			"0.024": 0.0,
			"0.025": 0.0
		}
	}
}
