{
	 "smiles": "NC1=CC2=C(C=C1)N=C(S2)N1CCCC1", 
	 "Tm": 475.15, 
	 "num_atms": 28, 
	 "gaussian": { 
		 "optdone": 1, 
		 "sigma_profile": "yes", 
		 "theory": "DFT", 
		 "functional": "B3LYP", 
		 "basiset": "6-31G**", 
		 "properties": { 
			 "R2extent": 4952.3895, 
			 "electric_dipole_moment_norm": 2.15616016103, 
			 "electric_quadrupole_moment_norm": 24.0843156673, 
			 "total_energy": -989.463798371, 
			 "HOMO_LUMO_gap": 0.17806, 
			 "cosmo_polarized_energy": -13.25, 
			 "cosmo_cavitation_energy": 31.81, 
			 "cosmo_dispersion_energy": -24.48, 
			 "cosmo_repulsion_energy": 1.87, 
			 "cosmo_total_nonelectrostatic_energy": 9.21, 
			 "SMD_solvation_energy": 2.15 
		},
		"coords": [
			{
				"x": 0.4871937925,
				"y": 2.4418723739,
				"z": 4.944647871,
				"element": "N" 
			},
			{
				"x": 0.8915042074,
				"y": 1.8666694725,
				"z": 3.7284136892,
				"element": "C" 
			},
			{
				"x": -0.0535734874,
				"y": 1.292717398,
				"z": 2.8645454305,
				"element": "C" 
			},
			{
				"x": 0.3777965036,
				"y": 0.790474353,
				"z": 1.6398644725,
				"element": "C" 
			},
			{
				"x": 1.7330714242,
				"y": 0.8330246806,
				"z": 1.234739821,
				"element": "C" 
			},
			{
				"x": 2.6633453725,
				"y": 1.408505645,
				"z": 2.1094188955,
				"element": "C" 
			},
			{
				"x": 2.2447280004,
				"y": 1.915994056,
				"z": 3.3340968679,
				"element": "C" 
			},
			{
				"x": 2.0200158331,
				"y": 0.2878103034,
				"z": -0.0083023991,
				"element": "N" 
			},
			{
				"x": 0.9407617366,
				"y": -0.16889064,
				"z": -0.5716720279,
				"element": "C" 
			},
			{
				"x": -0.5814561652,
				"y": 0.0223699692,
				"z": 0.3760449216,
				"element": "S" 
			},
			{
				"x": 0.901973087,
				"y": -0.7573443562,
				"z": -1.7910541742,
				"element": "N" 
			},
			{
				"x": -0.3039098164,
				"y": -1.2613697494,
				"z": -2.4459358316,
				"element": "C" 
			},
			{
				"x": 0.2530633085,
				"y": -2.0217515103,
				"z": -3.6604961599,
				"element": "C" 
			},
			{
				"x": 1.5465040868,
				"y": -1.2579914147,
				"z": -3.9965263647,
				"element": "C" 
			},
			{
				"x": 2.1082836304,
				"y": -0.8776959478,
				"z": -2.6181434781,
				"element": "C" 
			},
			{
				"x": 1.2138283968,
				"y": 2.4690655055,
				"z": 5.6479915782,
				"element": "H" 
			},
			{
				"x": -0.3645051838,
				"y": 2.0506306356,
				"z": 5.325492717,
				"element": "H" 
			},
			{
				"x": -1.1007411687,
				"y": 1.2522779926,
				"z": 3.1513589498,
				"element": "H" 
			},
			{
				"x": 3.7083339301,
				"y": 1.4492122655,
				"z": 1.8192136543,
				"element": "H" 
			},
			{
				"x": 2.9719786029,
				"y": 2.3668142232,
				"z": 4.0049351223,
				"element": "H" 
			},
			{
				"x": -0.8786317272,
				"y": -1.9088856274,
				"z": -1.7726923178,
				"element": "H" 
			},
			{
				"x": -0.9615371421,
				"y": -0.4345638686,
				"z": -2.7552662314,
				"element": "H" 
			},
			{
				"x": 0.4873746696,
				"y": -3.0535660282,
				"z": -3.3761201275,
				"element": "H" 
			},
			{
				"x": -0.4583782702,
				"y": -2.0555297526,
				"z": -4.4896448219,
				"element": "H" 
			},
			{
				"x": 1.3109350841,
				"y": -0.3525311557,
				"z": -4.5670898443,
				"element": "H" 
			},
			{
				"x": 2.2525265834,
				"y": -1.8495062592,
				"z": -4.5852852556,
				"element": "H" 
			},
			{
				"x": 2.6660820492,
				"y": 0.0631936909,
				"z": -2.6138137471,
				"element": "H" 
			},
			{
				"x": 2.7730326617,
				"y": -1.6534062546,
				"z": -2.2137212096,
				"element": "H" 
			}
		],
		 "valence_orbital": [ 
			{
				"type": "occ",
				"energy": -0.28291,
				"method": "rhf"
			},
			{
				"type": "occ",
				"energy": -0.25736,
				"method": "rhf"
			},
			{
				"type": "occ",
				"energy": -0.23648,
				"method": "rhf"
			},
			{
				"type": "occ",
				"energy": -0.21672,
				"method": "rhf"
			},
			{
				"type": "occ",
				"energy": -0.17047,
				"method": "rhf"
			},
			{
				"type": "unocc",
				"energy": 0.00759,
				"method": "rhf"
			},
			{
				"type": "unocc",
				"energy": 0.01477,
				"method": "rhf"
			},
			{
				"type": "unocc",
				"energy": 0.01893,
				"method": "rhf"
			},
			{
				"type": "unocc",
				"energy": 0.06546,
				"method": "rhf"
			},
			{
				"type": "unocc",
				"energy": 0.07788,
				"method": "rhf"
			}
		],
		"cosmo_sigma_profile": { 
			"-0.025": 0.0,
			"-0.024": 0.0,
			"-0.023": 0.0,
			"-0.022": 0.0,
			"-0.021": 0.0,
			"-0.02": 0.0,
			"-0.019": 0.0,
			"-0.018": 0.0,
			"-0.017": 0.0,
			"-0.016": 0.0,
			"-0.015": 0.0,
			"-0.014": 0.0,
			"-0.013": 0.0,
			"-0.012": 1.74013113456,
			"-0.011": 2.34956813595,
			"-0.01": 3.63055028124,
			"-0.009": 3.54262456702,
			"-0.008": 3.23225270933,
			"-0.007": 2.97576476724,
			"-0.006": 5.78849708805,
			"-0.005": 10.1049372577,
			"-0.004": 23.5998230982,
			"-0.003": 34.4620663385,
			"-0.002": 27.1768424931,
			"-0.001": 18.0804371844,
			"0.0": 14.1902928357,
			"0.001": 10.5382411532,
			"0.002": 14.924801406,
			"0.003": 11.7745960675,
			"0.004": 13.8207789251,
			"0.005": 14.292397428,
			"0.006": 14.7264665709,
			"0.007": 6.07276012911,
			"0.008": 2.93305178326,
			"0.009": 2.85464368275,
			"0.01": 1.7132214253,
			"0.011": 1.82025374445,
			"0.012": 1.69059722097,
			"0.013": 2.27335166359,
			"0.014": 1.62339163916,
			"0.015": 1.14210670799,
			"0.016": 0.245881363658,
			"0.017": 0.0,
			"0.018": 0.0,
			"0.019": 0.0,
			"0.02": 0.0,
			"0.021": 0.0,
			"0.022": 0.0,
			"0.023": 0.0,
			"0.024": 0.0,
			"0.025": 0.0
		}
	}
}
