{
	 "smiles": "COC1=CC(N)=C(C=C1)C(O)=O", 
	 "Tm": 449.15, 
	 "num_atms": 21, 
	 "gaussian": { 
		 "optdone": 1, 
		 "sigma_profile": "yes", 
		 "theory": "DFT", 
		 "functional": "B3LYP", 
		 "basiset": "6-31G**", 
		 "properties": { 
			 "R2extent": 2923.9069, 
			 "electric_dipole_moment_norm": 4.62556777272, 
			 "electric_quadrupole_moment_norm": 21.2881299658, 
			 "total_energy": -590.707361119, 
			 "HOMO_LUMO_gap": 0.17441, 
			 "cosmo_polarized_energy": -16.08, 
			 "cosmo_cavitation_energy": 24.74, 
			 "cosmo_dispersion_energy": -18.85, 
			 "cosmo_repulsion_energy": 1.49, 
			 "cosmo_total_nonelectrostatic_energy": 7.38, 
			 "SMD_solvation_energy": 5.96 
		},
		"coords": [
			{
				"x": -1.787983642,
				"y": 0.5696940246,
				"z": 2.3822342801,
				"element": "C" 
			},
			{
				"x": -0.6169836264,
				"y": -0.2020632429,
				"z": 2.1554728638,
				"element": "O" 
			},
			{
				"x": -0.3107315303,
				"y": -0.5641691348,
				"z": 0.8823801662,
				"element": "C" 
			},
			{
				"x": -1.0674135369,
				"y": -0.2241101988,
				"z": -0.2329520929,
				"element": "C" 
			},
			{
				"x": -0.6777224584,
				"y": -0.6363792913,
				"z": -1.5285239077,
				"element": "C" 
			},
			{
				"x": -1.44699171,
				"y": -0.298087885,
				"z": -2.6027236527,
				"element": "N" 
			},
			{
				"x": 0.4949682793,
				"y": -1.4371538153,
				"z": -1.6774479284,
				"element": "C" 
			},
			{
				"x": 1.2438115441,
				"y": -1.7381014661,
				"z": -0.5190861272,
				"element": "C" 
			},
			{
				"x": 0.8692227372,
				"y": -1.3243015863,
				"z": 0.7416171388,
				"element": "C" 
			},
			{
				"x": 0.9173977495,
				"y": -1.8887697351,
				"z": -3.018309319,
				"element": "C" 
			},
			{
				"x": 1.8605437037,
				"y": -2.8681179468,
				"z": -3.0857874933,
				"element": "O" 
			},
			{
				"x": 0.4810407774,
				"y": -1.4471764456,
				"z": -4.0712404807,
				"element": "O" 
			},
			{
				"x": -2.690364223,
				"y": 0.0363585163,
				"z": 2.0584645933,
				"element": "H" 
			},
			{
				"x": -1.834297275,
				"y": 0.735171852,
				"z": 3.4593994083,
				"element": "H" 
			},
			{
				"x": -1.7372752038,
				"y": 1.5381697474,
				"z": 1.869214189,
				"element": "H" 
			},
			{
				"x": -1.9706520743,
				"y": 0.3670695586,
				"z": -0.1350842888,
				"element": "H" 
			},
			{
				"x": -1.0347317628,
				"y": -0.4472001478,
				"z": -3.5173176904,
				"element": "H" 
			},
			{
				"x": -2.1550908927,
				"y": 0.4082384115,
				"z": -2.4879862721,
				"element": "H" 
			},
			{
				"x": 2.1811441561,
				"y": -2.281906653,
				"z": -0.612116479,
				"element": "H" 
			},
			{
				"x": 1.4581230775,
				"y": -1.5527847293,
				"z": 1.6218749625,
				"element": "H" 
			},
			{
				"x": 1.9855859107,
				"y": -3.2683798324,
				"z": -2.2151818699,
				"element": "H" 
			}
		],
		 "valence_orbital": [ 
			{
				"type": "occ",
				"energy": -0.30627,
				"method": "rhf"
			},
			{
				"type": "occ",
				"energy": -0.3028,
				"method": "rhf"
			},
			{
				"type": "occ",
				"energy": -0.26774,
				"method": "rhf"
			},
			{
				"type": "occ",
				"energy": -0.23893,
				"method": "rhf"
			},
			{
				"type": "occ",
				"energy": -0.20717,
				"method": "rhf"
			},
			{
				"type": "unocc",
				"energy": -0.03276,
				"method": "rhf"
			},
			{
				"type": "unocc",
				"energy": 0.00391,
				"method": "rhf"
			},
			{
				"type": "unocc",
				"energy": 0.06173,
				"method": "rhf"
			},
			{
				"type": "unocc",
				"energy": 0.07071,
				"method": "rhf"
			},
			{
				"type": "unocc",
				"energy": 0.08428,
				"method": "rhf"
			}
		],
		"cosmo_sigma_profile": { 
			"-0.025": 0.0,
			"-0.024": 0.0,
			"-0.023": 0.0,
			"-0.022": 0.0,
			"-0.021": 0.0,
			"-0.02": 0.0,
			"-0.019": 0.0287605368927,
			"-0.018": 0.524518502673,
			"-0.017": 1.01308221848,
			"-0.016": 0.844678881305,
			"-0.015": 0.850787379629,
			"-0.014": 1.47405128187,
			"-0.013": 1.88161843476,
			"-0.012": 2.22381319735,
			"-0.011": 2.67714453935,
			"-0.01": 3.25964757499,
			"-0.009": 2.11429555144,
			"-0.008": 3.69330524585,
			"-0.007": 5.03131970018,
			"-0.006": 10.8677366936,
			"-0.005": 13.9574846129,
			"-0.004": 13.2838838463,
			"-0.003": 12.3490709757,
			"-0.002": 8.40066772618,
			"-0.001": 8.57853562869,
			"0.0": 8.32902791445,
			"0.001": 7.83530722852,
			"0.002": 11.8240808186,
			"0.003": 14.8464903498,
			"0.004": 15.7881472731,
			"0.005": 10.1548866873,
			"0.006": 5.20240236172,
			"0.007": 4.2917470908,
			"0.008": 3.9077707341,
			"0.009": 5.17752861162,
			"0.01": 5.35580127932,
			"0.011": 3.79193853708,
			"0.012": 3.73115216153,
			"0.013": 2.37899651113,
			"0.014": 1.12613434273,
			"0.015": 0.0,
			"0.016": 0.0,
			"0.017": 0.0,
			"0.018": 0.0,
			"0.019": 0.0,
			"0.02": 0.0,
			"0.021": 0.0,
			"0.022": 0.0,
			"0.023": 0.0,
			"0.024": 0.0,
			"0.025": 0.0
		}
	}
}
