{
	 "smiles": "OC(=O)C1CSC2(CCC(=O)N12)C1=CC=CC=C1", 
	 "Tm": 447.15, 
	 "num_atms": 31, 
	 "gaussian": { 
		 "optdone": 1, 
		 "sigma_profile": "yes", 
		 "theory": "DFT", 
		 "functional": "B3LYP", 
		 "basiset": "6-31G**", 
		 "properties": { 
			 "R2extent": 4427.8362, 
			 "electric_dipole_moment_norm": 2.20643076483, 
			 "electric_quadrupole_moment_norm": 13.188407173, 
			 "total_energy": -1181.84898777, 
			 "HOMO_LUMO_gap": 0.20941, 
			 "cosmo_polarized_energy": -16.75, 
			 "cosmo_cavitation_energy": 34.71, 
			 "cosmo_dispersion_energy": -24.72, 
			 "cosmo_repulsion_energy": 1.87, 
			 "cosmo_total_nonelectrostatic_energy": 11.86, 
			 "SMD_solvation_energy": 6.32 
		},
		"coords": [
			{
				"x": 0.2797312386,
				"y": 1.82889497,
				"z": -3.236249352,
				"element": "O" 
			},
			{
				"x": 0.340997388,
				"y": 1.9346107752,
				"z": -1.8934219906,
				"element": "C" 
			},
			{
				"x": 0.4472262456,
				"y": 2.9830756196,
				"z": -1.3038757892,
				"element": "O" 
			},
			{
				"x": 0.3978519583,
				"y": 0.5722386466,
				"z": -1.1980907283,
				"element": "C" 
			},
			{
				"x": 0.3321470838,
				"y": -0.6943098833,
				"z": -2.0792661138,
				"element": "C" 
			},
			{
				"x": -0.1498000639,
				"y": -2.0653660007,
				"z": -0.9338918617,
				"element": "S" 
			},
			{
				"x": -0.53646132,
				"y": -0.8462327433,
				"z": 0.4936785295,
				"element": "C" 
			},
			{
				"x": -1.948374964,
				"y": -1.0748525372,
				"z": 1.0971234047,
				"element": "C" 
			},
			{
				"x": -2.8943976026,
				"y": -0.2636660663,
				"z": 0.2024685812,
				"element": "C" 
			},
			{
				"x": -1.9848988798,
				"y": 0.672288666,
				"z": -0.5821191669,
				"element": "C" 
			},
			{
				"x": -2.3081375398,
				"y": 1.4719117892,
				"z": -1.438027176,
				"element": "O" 
			},
			{
				"x": -0.6602474914,
				"y": 0.4230306724,
				"z": -0.2001351441,
				"element": "N" 
			},
			{
				"x": 0.5550403142,
				"y": -0.8528851339,
				"z": 1.5566648102,
				"element": "C" 
			},
			{
				"x": 1.0940154376,
				"y": -2.0565602196,
				"z": 2.0286480877,
				"element": "C" 
			},
			{
				"x": 2.0246513704,
				"y": -2.0579920427,
				"z": 3.0668811336,
				"element": "C" 
			},
			{
				"x": 2.4401913743,
				"y": -0.8546586368,
				"z": 3.6413609033,
				"element": "C" 
			},
			{
				"x": 1.9122640923,
				"y": 0.3486506385,
				"z": 3.1734327066,
				"element": "C" 
			},
			{
				"x": 0.9693693091,
				"y": 0.3511997227,
				"z": 2.1433041659,
				"element": "C" 
			},
			{
				"x": 0.2667539229,
				"y": 2.738712342,
				"z": -3.5786226241,
				"element": "H" 
			},
			{
				"x": 1.3464268849,
				"y": 0.5763126327,
				"z": -0.6507843163,
				"element": "H" 
			},
			{
				"x": -0.4192451616,
				"y": -0.5864823576,
				"z": -2.8623366897,
				"element": "H" 
			},
			{
				"x": 1.2980534413,
				"y": -0.9162335147,
				"z": -2.5359038749,
				"element": "H" 
			},
			{
				"x": -1.9470095305,
				"y": -0.6833446308,
				"z": 2.1183432099,
				"element": "H" 
			},
			{
				"x": -2.1930262768,
				"y": -2.1372801585,
				"z": 1.1488601363,
				"element": "H" 
			},
			{
				"x": -3.4195862207,
				"y": -0.8825895175,
				"z": -0.5316727151,
				"element": "H" 
			},
			{
				"x": -3.6504967293,
				"y": 0.3015887992,
				"z": 0.7531629874,
				"element": "H" 
			},
			{
				"x": 0.797176546,
				"y": -2.995534415,
				"z": 1.5713964148,
				"element": "H" 
			},
			{
				"x": 2.432736482,
				"y": -3.0005740745,
				"z": 3.4203148587,
				"element": "H" 
			},
			{
				"x": 3.1725399529,
				"y": -0.8561615204,
				"z": 4.4434248058,
				"element": "H" 
			},
			{
				"x": 2.2316424884,
				"y": 1.291222755,
				"z": 3.6087927894,
				"element": "H" 
			},
			{
				"x": 0.5574662497,
				"y": 1.2891854238,
				"z": 1.7836400175,
				"element": "H" 
			}
		],
		 "valence_orbital": [ 
			{
				"type": "occ",
				"energy": -0.27223,
				"method": "rhf"
			},
			{
				"type": "occ",
				"energy": -0.26137,
				"method": "rhf"
			},
			{
				"type": "occ",
				"energy": -0.25662,
				"method": "rhf"
			},
			{
				"type": "occ",
				"energy": -0.25186,
				"method": "rhf"
			},
			{
				"type": "occ",
				"energy": -0.22941,
				"method": "rhf"
			},
			{
				"type": "unocc",
				"energy": -0.02,
				"method": "rhf"
			},
			{
				"type": "unocc",
				"energy": -0.00896,
				"method": "rhf"
			},
			{
				"type": "unocc",
				"energy": -0.00207,
				"method": "rhf"
			},
			{
				"type": "unocc",
				"energy": 0.00069,
				"method": "rhf"
			},
			{
				"type": "unocc",
				"energy": 0.01992,
				"method": "rhf"
			}
		],
		"cosmo_sigma_profile": { 
			"-0.025": 0.0,
			"-0.024": 0.0,
			"-0.023": 0.0,
			"-0.022": 0.0,
			"-0.021": 0.0,
			"-0.02": 0.0,
			"-0.019": 0.415639737569,
			"-0.018": 0.801577421819,
			"-0.017": 1.54396800482,
			"-0.016": 0.386082316792,
			"-0.015": 0.460609242951,
			"-0.014": 1.03871325941,
			"-0.013": 0.418166166102,
			"-0.012": 0.916356453029,
			"-0.011": 0.801228767346,
			"-0.01": 0.624023706792,
			"-0.009": 1.50534909186,
			"-0.008": 3.21809491321,
			"-0.007": 5.80279172302,
			"-0.006": 17.0334521324,
			"-0.005": 24.9183245008,
			"-0.004": 25.4649477586,
			"-0.003": 25.28758238,
			"-0.002": 21.6103691647,
			"-0.001": 15.0251278995,
			"0.0": 12.4419139047,
			"0.001": 12.3904336922,
			"0.002": 12.3493604582,
			"0.003": 11.6526193828,
			"0.004": 15.0644932483,
			"0.005": 16.2986340304,
			"0.006": 10.0128454532,
			"0.007": 7.03453548153,
			"0.008": 5.40945026203,
			"0.009": 5.58909132319,
			"0.01": 6.04083954574,
			"0.011": 8.39372812272,
			"0.012": 5.77274664276,
			"0.013": 1.0397106355,
			"0.014": 0.0,
			"0.015": 0.0,
			"0.016": 0.0,
			"0.017": 0.0,
			"0.018": 0.0,
			"0.019": 0.0,
			"0.02": 0.0,
			"0.021": 0.0,
			"0.022": 0.0,
			"0.023": 0.0,
			"0.024": 0.0,
			"0.025": 0.0
		}
	}
}
