{
	 "smiles": "O=CNCC1=CC=CC=C1", 
	 "Tm": 334.15, 
	 "num_atms": 19, 
	 "gaussian": { 
		 "optdone": 1, 
		 "sigma_profile": "yes", 
		 "theory": "DFT", 
		 "functional": "B3LYP", 
		 "basiset": "6-31G**", 
		 "properties": { 
			 "R2extent": 2715.3696, 
			 "electric_dipole_moment_norm": 3.96830449563, 
			 "electric_quadrupole_moment_norm": 11.9854003066, 
			 "total_energy": -440.256927132, 
			 "HOMO_LUMO_gap": 0.23241, 
			 "cosmo_polarized_energy": -11.99, 
			 "cosmo_cavitation_energy": 23.29, 
			 "cosmo_dispersion_energy": -16.87, 
			 "cosmo_repulsion_energy": 1.38, 
			 "cosmo_total_nonelectrostatic_energy": 7.81, 
			 "SMD_solvation_energy": 5.28 
		},
		"coords": [
			{
				"x": -0.3547663751,
				"y": 0.9716428422,
				"z": 3.441268932,
				"element": "O" 
			},
			{
				"x": -1.197829025,
				"y": 0.7055955668,
				"z": 2.6045368373,
				"element": "C" 
			},
			{
				"x": -0.9357150936,
				"y": 0.2211435057,
				"z": 1.3560990631,
				"element": "N" 
			},
			{
				"x": -1.9394633843,
				"y": -0.1223353944,
				"z": 0.3636564412,
				"element": "C" 
			},
			{
				"x": -1.7928041544,
				"y": 0.6298171511,
				"z": -0.9490936148,
				"element": "C" 
			},
			{
				"x": -1.9952094437,
				"y": -0.0358141447,
				"z": -2.1630540935,
				"element": "C" 
			},
			{
				"x": -1.9024855543,
				"y": 0.6495173278,
				"z": -3.3759994754,
				"element": "C" 
			},
			{
				"x": -1.5977575323,
				"y": 2.011070613,
				"z": -3.3870310916,
				"element": "C" 
			},
			{
				"x": -1.3872800278,
				"y": 2.6818841839,
				"z": -2.1797702607,
				"element": "C" 
			},
			{
				"x": -1.4843511574,
				"y": 1.9960470141,
				"z": -0.9692440706,
				"element": "C" 
			},
			{
				"x": -2.2866720397,
				"y": 0.8357785145,
				"z": 2.7767368966,
				"element": "H" 
			},
			{
				"x": 0.0422497505,
				"y": 0.0846099501,
				"z": 1.1316399188,
				"element": "H" 
			},
			{
				"x": -2.9158663606,
				"y": 0.0965962617,
				"z": 0.8151208845,
				"element": "H" 
			},
			{
				"x": -1.9286447791,
				"y": -1.2021648687,
				"z": 0.1651557619,
				"element": "H" 
			},
			{
				"x": -2.2257442802,
				"y": -1.0988101775,
				"z": -2.1600191418,
				"element": "H" 
			},
			{
				"x": -2.0603576455,
				"y": 0.1178549312,
				"z": -4.3100363884,
				"element": "H" 
			},
			{
				"x": -1.5196752608,
				"y": 2.5457100269,
				"z": -4.3292285485,
				"element": "H" 
			},
			{
				"x": -1.1458761839,
				"y": 3.7410502316,
				"z": -2.1809557636,
				"element": "H" 
			},
			{
				"x": -1.3107514527,
				"y": 2.5192064648,
				"z": -0.0331822866,
				"element": "H" 
			}
		],
		 "valence_orbital": [ 
			{
				"type": "occ",
				"energy": -0.34828,
				"method": "rhf"
			},
			{
				"type": "occ",
				"energy": -0.26536,
				"method": "rhf"
			},
			{
				"type": "occ",
				"energy": -0.25848,
				"method": "rhf"
			},
			{
				"type": "occ",
				"energy": -0.25387,
				"method": "rhf"
			},
			{
				"type": "occ",
				"energy": -0.24518,
				"method": "rhf"
			},
			{
				"type": "unocc",
				"energy": -0.01277,
				"method": "rhf"
			},
			{
				"type": "unocc",
				"energy": -0.01005,
				"method": "rhf"
			},
			{
				"type": "unocc",
				"energy": 0.02899,
				"method": "rhf"
			},
			{
				"type": "unocc",
				"energy": 0.08695,
				"method": "rhf"
			},
			{
				"type": "unocc",
				"energy": 0.09451,
				"method": "rhf"
			}
		],
		"cosmo_sigma_profile": { 
			"-0.025": 0.0,
			"-0.024": 0.0,
			"-0.023": 0.0,
			"-0.022": 0.0,
			"-0.021": 0.0,
			"-0.02": 0.0,
			"-0.019": 0.0,
			"-0.018": 0.0,
			"-0.017": 0.0,
			"-0.016": 0.0,
			"-0.015": 0.0,
			"-0.014": 0.694074323916,
			"-0.013": 1.23477455335,
			"-0.012": 0.474054873556,
			"-0.011": 0.998053962669,
			"-0.01": 1.12640468529,
			"-0.009": 1.15530379871,
			"-0.008": 2.22718245565,
			"-0.007": 4.98599974884,
			"-0.006": 10.8638005314,
			"-0.005": 18.4346662119,
			"-0.004": 17.49437792,
			"-0.003": 18.9415103446,
			"-0.002": 11.0757199734,
			"-0.001": 12.0415893338,
			"0.0": 10.1078858557,
			"0.001": 7.51525915357,
			"0.002": 9.22802795921,
			"0.003": 8.48674422153,
			"0.004": 9.11287536927,
			"0.005": 9.52411355292,
			"0.006": 9.00641446167,
			"0.007": 1.67758067449,
			"0.008": 1.45982070206,
			"0.009": 0.998949670002,
			"0.01": 1.15981187149,
			"0.011": 1.70113190411,
			"0.012": 2.23074878484,
			"0.013": 4.98887196141,
			"0.014": 5.08290259358,
			"0.015": 1.19504628019,
			"0.016": 0.0,
			"0.017": 0.0,
			"0.018": 0.0,
			"0.019": 0.0,
			"0.02": 0.0,
			"0.021": 0.0,
			"0.022": 0.0,
			"0.023": 0.0,
			"0.024": 0.0,
			"0.025": 0.0
		}
	}
}
