{
	 "smiles": "CCCCCCC(=O)C1=CC=CC=C1", 
	 "Tm": 289.55, 
	 "num_atms": 32, 
	 "gaussian": { 
		 "optdone": 1, 
		 "sigma_profile": "yes", 
		 "theory": "DFT", 
		 "functional": "B3LYP", 
		 "basiset": "6-31G**", 
		 "properties": { 
			 "R2extent": 5085.8055, 
			 "electric_dipole_moment_norm": 2.83399732886, 
			 "electric_quadrupole_moment_norm": 9.73298121749, 
			 "total_energy": -581.475310144, 
			 "HOMO_LUMO_gap": 0.1881, 
			 "cosmo_polarized_energy": -7.78, 
			 "cosmo_cavitation_energy": 34.24, 
			 "cosmo_dispersion_energy": -24.02, 
			 "cosmo_repulsion_energy": 1.92, 
			 "cosmo_total_nonelectrostatic_energy": 12.14, 
			 "SMD_solvation_energy": 5.78 
		},
		"coords": [
			{
				"x": 2.0702387789,
				"y": 2.5920662625,
				"z": 4.3848214804,
				"element": "C" 
			},
			{
				"x": 1.8880485428,
				"y": 2.0551825858,
				"z": 2.961214915,
				"element": "C" 
			},
			{
				"x": 1.8030675522,
				"y": 0.5233271387,
				"z": 2.9085756003,
				"element": "C" 
			},
			{
				"x": 1.7196302715,
				"y": -0.0686197723,
				"z": 1.4911213191,
				"element": "C" 
			},
			{
				"x": 0.4863411867,
				"y": 0.3323930821,
				"z": 0.6629685864,
				"element": "C" 
			},
			{
				"x": -0.8550696845,
				"y": -0.1237552709,
				"z": 1.2792764797,
				"element": "C" 
			},
			{
				"x": -2.0354541825,
				"y": 0.2934985387,
				"z": 0.4113496746,
				"element": "C" 
			},
			{
				"x": -2.6183275423,
				"y": 1.3440032778,
				"z": 0.6430890682,
				"element": "O" 
			},
			{
				"x": -2.4517511424,
				"y": -0.5618436606,
				"z": -0.7510768643,
				"element": "C" 
			},
			{
				"x": -1.8310647999,
				"y": -1.7788446874,
				"z": -1.0730407089,
				"element": "C" 
			},
			{
				"x": -2.2645184106,
				"y": -2.5250773269,
				"z": -2.1694434675,
				"element": "C" 
			},
			{
				"x": -3.3235430029,
				"y": -2.0649846677,
				"z": -2.9536875059,
				"element": "C" 
			},
			{
				"x": -3.9491419854,
				"y": -0.8538603121,
				"z": -2.640816108,
				"element": "C" 
			},
			{
				"x": -3.5151552234,
				"y": -0.1086558495,
				"z": -1.5493331014,
				"element": "C" 
			},
			{
				"x": 2.9891600361,
				"y": 2.2051882455,
				"z": 4.8402985479,
				"element": "H" 
			},
			{
				"x": 2.127632033,
				"y": 3.6853310349,
				"z": 4.396228378,
				"element": "H" 
			},
			{
				"x": 1.2339267822,
				"y": 2.2973469553,
				"z": 5.029067977,
				"element": "H" 
			},
			{
				"x": 2.7243422259,
				"y": 2.391290645,
				"z": 2.3324629576,
				"element": "H" 
			},
			{
				"x": 0.983107008,
				"y": 2.4958353586,
				"z": 2.5244025328,
				"element": "H" 
			},
			{
				"x": 2.6900218331,
				"y": 0.1035103303,
				"z": 3.4024620618,
				"element": "H" 
			},
			{
				"x": 0.9456867723,
				"y": 0.1878021556,
				"z": 3.5078846653,
				"element": "H" 
			},
			{
				"x": 2.6176231001,
				"y": 0.2273608838,
				"z": 0.9318595973,
				"element": "H" 
			},
			{
				"x": 1.755609691,
				"y": -1.1645019365,
				"z": 1.5626296871,
				"element": "H" 
			},
			{
				"x": 0.5861974354,
				"y": -0.0946802329,
				"z": -0.3424564408,
				"element": "H" 
			},
			{
				"x": 0.4544986037,
				"y": 1.4197741491,
				"z": 0.5287710162,
				"element": "H" 
			},
			{
				"x": -0.8408164618,
				"y": -1.2077260994,
				"z": 1.4414580337,
				"element": "H" 
			},
			{
				"x": -1.0053247255,
				"y": 0.3576752398,
				"z": 2.2488289039,
				"element": "H" 
			},
			{
				"x": -1.0074225564,
				"y": -2.151231272,
				"z": -0.4730212311,
				"element": "H" 
			},
			{
				"x": -1.7767740459,
				"y": -3.465253223,
				"z": -2.4099028444,
				"element": "H" 
			},
			{
				"x": -3.6613513579,
				"y": -2.6479167029,
				"z": -3.8059302618,
				"element": "H" 
			},
			{
				"x": -4.7734548436,
				"y": -0.4945302072,
				"z": -3.2501486787,
				"element": "H" 
			},
			{
				"x": -3.9825618881,
				"y": 0.8342953379,
				"z": -1.2862142695,
				"element": "H" 
			}
		],
		 "valence_orbital": [ 
			{
				"type": "occ",
				"energy": -0.31658,
				"method": "rhf"
			},
			{
				"type": "occ",
				"energy": -0.3122,
				"method": "rhf"
			},
			{
				"type": "occ",
				"energy": -0.25992,
				"method": "rhf"
			},
			{
				"type": "occ",
				"energy": -0.25627,
				"method": "rhf"
			},
			{
				"type": "occ",
				"energy": -0.24194,
				"method": "rhf"
			},
			{
				"type": "unocc",
				"energy": -0.05384,
				"method": "rhf"
			},
			{
				"type": "unocc",
				"energy": -0.00893,
				"method": "rhf"
			},
			{
				"type": "unocc",
				"energy": 0.04129,
				"method": "rhf"
			},
			{
				"type": "unocc",
				"energy": 0.07537,
				"method": "rhf"
			},
			{
				"type": "unocc",
				"energy": 0.09486,
				"method": "rhf"
			}
		],
		"cosmo_sigma_profile": { 
			"-0.025": 0.0,
			"-0.024": 0.0,
			"-0.023": 0.0,
			"-0.022": 0.0,
			"-0.021": 0.0,
			"-0.02": 0.0,
			"-0.019": 0.0,
			"-0.018": 0.0,
			"-0.017": 0.0,
			"-0.016": 0.0,
			"-0.015": 0.0,
			"-0.014": 0.0,
			"-0.013": 0.0,
			"-0.012": 0.0,
			"-0.011": 0.0,
			"-0.01": 0.0,
			"-0.009": 0.0,
			"-0.008": 0.000696937568422,
			"-0.007": 2.11862349745,
			"-0.006": 9.24422104387,
			"-0.005": 11.0946075748,
			"-0.004": 14.971387171,
			"-0.003": 19.7851256472,
			"-0.002": 37.4623548109,
			"-0.001": 40.4676214618,
			"0.0": 36.0712365865,
			"0.001": 29.5723156914,
			"0.002": 19.5813009829,
			"0.003": 12.099577091,
			"0.004": 13.4216921457,
			"0.005": 4.69399312988,
			"0.006": 1.98456842283,
			"0.007": 1.71672009621,
			"0.008": 0.845961962045,
			"0.009": 1.81001147809,
			"0.01": 2.17230429251,
			"0.011": 2.36128792076,
			"0.012": 3.94562503353,
			"0.013": 2.13995357891,
			"0.014": 0.545422966151,
			"0.015": 0.0,
			"0.016": 0.0,
			"0.017": 0.0,
			"0.018": 0.0,
			"0.019": 0.0,
			"0.02": 0.0,
			"0.021": 0.0,
			"0.022": 0.0,
			"0.023": 0.0,
			"0.024": 0.0,
			"0.025": 0.0
		}
	}
}
