{
	 "smiles": "CNC1=CC=CC=C1", 
	 "Tm": 216.15, 
	 "num_atms": 17, 
	 "gaussian": { 
		 "optdone": 1, 
		 "sigma_profile": "yes", 
		 "theory": "DFT", 
		 "functional": "B3LYP", 
		 "basiset": "6-31G**", 
		 "properties": { 
			 "R2extent": 1280.0652, 
			 "electric_dipole_moment_norm": 1.79674673229, 
			 "electric_quadrupole_moment_norm": 5.61307745181, 
			 "total_energy": -326.918234673, 
			 "HOMO_LUMO_gap": 0.20077, 
			 "cosmo_polarized_energy": -6.25, 
			 "cosmo_cavitation_energy": 19.92, 
			 "cosmo_dispersion_energy": -15.05, 
			 "cosmo_repulsion_energy": 1.24, 
			 "cosmo_total_nonelectrostatic_energy": 6.12, 
			 "SMD_solvation_energy": 2.75 
		},
		"coords": [
			{
				"x": 0.4516794218,
				"y": 0.8994293867,
				"z": 1.8670718114,
				"element": "C" 
			},
			{
				"x": 1.0271358945,
				"y": 0.4366380828,
				"z": 0.6197349426,
				"element": "N" 
			},
			{
				"x": 0.3264750613,
				"y": 0.5094331093,
				"z": -0.580719779,
				"element": "C" 
			},
			{
				"x": 0.7910175656,
				"y": -0.2119884479,
				"z": -1.6997378932,
				"element": "C" 
			},
			{
				"x": 0.1345078368,
				"y": -0.1289401506,
				"z": -2.9220848534,
				"element": "C" 
			},
			{
				"x": -1.0013501351,
				"y": 0.6737216863,
				"z": -3.0705153615,
				"element": "C" 
			},
			{
				"x": -1.4663812414,
				"y": 1.3884157831,
				"z": -1.9674607639,
				"element": "C" 
			},
			{
				"x": -0.8204108113,
				"y": 1.3105658705,
				"z": -0.7324464926,
				"element": "C" 
			},
			{
				"x": 1.1430501188,
				"y": 0.6676168191,
				"z": 2.6806278669,
				"element": "H" 
			},
			{
				"x": -0.5241350184,
				"y": 0.4427278018,
				"z": 2.0986811955,
				"element": "H" 
			},
			{
				"x": 0.3178780292,
				"y": 1.9869387047,
				"z": 1.851270449,
				"element": "H" 
			},
			{
				"x": 1.6126933677,
				"y": -0.3813996331,
				"z": 0.7036832467,
				"element": "H" 
			},
			{
				"x": 1.6776386217,
				"y": -0.8344929961,
				"z": -1.5989164319,
				"element": "H" 
			},
			{
				"x": 0.5138641561,
				"y": -0.6971996548,
				"z": -3.7672998333,
				"element": "H" 
			},
			{
				"x": -1.5118937237,
				"y": 0.7370605944,
				"z": -4.02628953,
				"element": "H" 
			},
			{
				"x": -2.34953892,
				"y": 2.0152110852,
				"z": -2.0600653444,
				"element": "H" 
			},
			{
				"x": -1.2082302235,
				"y": 1.8738619585,
				"z": 0.1091667711,
				"element": "H" 
			}
		],
		 "valence_orbital": [ 
			{
				"type": "occ",
				"energy": -0.34622,
				"method": "rhf"
			},
			{
				"type": "occ",
				"energy": -0.32901,
				"method": "rhf"
			},
			{
				"type": "occ",
				"energy": -0.28704,
				"method": "rhf"
			},
			{
				"type": "occ",
				"energy": -0.2386,
				"method": "rhf"
			},
			{
				"type": "occ",
				"energy": -0.19011,
				"method": "rhf"
			},
			{
				"type": "unocc",
				"energy": 0.01066,
				"method": "rhf"
			},
			{
				"type": "unocc",
				"energy": 0.0261,
				"method": "rhf"
			},
			{
				"type": "unocc",
				"energy": 0.08508,
				"method": "rhf"
			},
			{
				"type": "unocc",
				"energy": 0.10435,
				"method": "rhf"
			},
			{
				"type": "unocc",
				"energy": 0.11575,
				"method": "rhf"
			}
		],
		"cosmo_sigma_profile": { 
			"-0.025": 0.0,
			"-0.024": 0.0,
			"-0.023": 0.0,
			"-0.022": 0.0,
			"-0.021": 0.0,
			"-0.02": 0.0,
			"-0.019": 0.0,
			"-0.018": 0.0,
			"-0.017": 0.0,
			"-0.016": 0.0,
			"-0.015": 0.0,
			"-0.014": 0.0,
			"-0.013": 0.235396577433,
			"-0.012": 1.23096433692,
			"-0.011": 1.08423858931,
			"-0.01": 1.34520251527,
			"-0.009": 1.09916929287,
			"-0.008": 1.59028404541,
			"-0.007": 1.81380602988,
			"-0.006": 2.8548022245,
			"-0.005": 10.210898136,
			"-0.004": 14.2567843808,
			"-0.003": 16.5790777653,
			"-0.002": 16.8630110274,
			"-0.001": 15.9403066423,
			"0.0": 9.95278217833,
			"0.001": 6.20342542987,
			"0.002": 7.40907479832,
			"0.003": 7.45272079257,
			"0.004": 7.01713059307,
			"0.005": 7.66281896258,
			"0.006": 9.94328726597,
			"0.007": 9.43264339972,
			"0.008": 5.08537545739,
			"0.009": 0.893181730317,
			"0.01": 0.682682681582,
			"0.011": 0.472523167494,
			"0.012": 0.415068056288,
			"0.013": 0.00892476603321,
			"0.014": 0.0,
			"0.015": 0.0,
			"0.016": 0.0,
			"0.017": 0.0,
			"0.018": 0.0,
			"0.019": 0.0,
			"0.02": 0.0,
			"0.021": 0.0,
			"0.022": 0.0,
			"0.023": 0.0,
			"0.024": 0.0,
			"0.025": 0.0
		}
	}
}
