{
	 "smiles": "[O-][N+](=O)C1=CC=C(C=C1)S(=O)(=O)N1CCCC1", 
	 "Tm": 425.15, 
	 "num_atms": 29, 
	 "gaussian": { 
		 "optdone": 1, 
		 "sigma_profile": "yes", 
		 "theory": "DFT", 
		 "functional": "B3LYP", 
		 "basiset": "6-31G**", 
		 "properties": { 
			 "R2extent": 5970.1314, 
			 "electric_dipole_moment_norm": 4.93795980239, 
			 "electric_quadrupole_moment_norm": 21.6661133803, 
			 "total_energy": -1196.70814094, 
			 "HOMO_LUMO_gap": 0.1556, 
			 "cosmo_polarized_energy": -16.26, 
			 "cosmo_cavitation_energy": 33.83, 
			 "cosmo_dispersion_energy": -24.66, 
			 "cosmo_repulsion_energy": 1.87, 
			 "cosmo_total_nonelectrostatic_energy": 11.04, 
			 "SMD_solvation_energy": 6.0 
		},
		"coords": [
			{
				"x": 2.0862318754,
				"y": 3.8411035207,
				"z": 4.0483955949,
				"element": "O" 
			},
			{
				"x": 2.2788359673,
				"y": 2.6267672264,
				"z": 4.0541770853,
				"element": "N" 
			},
			{
				"x": 2.5900098184,
				"y": 1.9666209571,
				"z": 5.0436368753,
				"element": "O" 
			},
			{
				"x": 2.1199832429,
				"y": 1.9058533317,
				"z": 2.7766640362,
				"element": "C" 
			},
			{
				"x": 2.3345816738,
				"y": 0.5292416041,
				"z": 2.7527697279,
				"element": "C" 
			},
			{
				"x": 2.1798753894,
				"y": -0.1497671018,
				"z": 1.5463839383,
				"element": "C" 
			},
			{
				"x": 1.8131830501,
				"y": 0.5615003666,
				"z": 0.3991428826,
				"element": "C" 
			},
			{
				"x": 1.6175462667,
				"y": 1.9465505766,
				"z": 0.4338859928,
				"element": "C" 
			},
			{
				"x": 1.7707093159,
				"y": 2.629492251,
				"z": 1.6376913422,
				"element": "C" 
			},
			{
				"x": 1.5481163073,
				"y": -0.3302553759,
				"z": -1.1487560957,
				"element": "S" 
			},
			{
				"x": 1.7871663755,
				"y": 0.625585929,
				"z": -2.2307354362,
				"element": "O" 
			},
			{
				"x": 2.270150254,
				"y": -1.5973646563,
				"z": -1.0313641317,
				"element": "O" 
			},
			{
				"x": -0.0652325807,
				"y": -0.700859714,
				"z": -1.1864823029,
				"element": "N" 
			},
			{
				"x": -1.0825558336,
				"y": 0.306552705,
				"z": -1.5424506516,
				"element": "C" 
			},
			{
				"x": -2.3736563749,
				"y": -0.5150528486,
				"z": -1.4606939197,
				"element": "C" 
			},
			{
				"x": -2.1196954723,
				"y": -1.4453213606,
				"z": -0.2605798625,
				"element": "C" 
			},
			{
				"x": -0.6217841929,
				"y": -1.7985778936,
				"z": -0.3594861534,
				"element": "C" 
			},
			{
				"x": 2.6228462734,
				"y": 0.0182371274,
				"z": 3.6627557809,
				"element": "H" 
			},
			{
				"x": 2.3685535961,
				"y": -1.2152334268,
				"z": 1.4801007092,
				"element": "H" 
			},
			{
				"x": 1.3776778817,
				"y": 2.479935101,
				"z": -0.4789370071,
				"element": "H" 
			},
			{
				"x": 1.634107495,
				"y": 3.7012733801,
				"z": 1.7076656384,
				"element": "H" 
			},
			{
				"x": -0.8766991904,
				"y": 0.7119740456,
				"z": -2.5340274096,
				"element": "H" 
			},
			{
				"x": -1.1025130867,
				"y": 1.1374568364,
				"z": -0.8199935501,
				"element": "H" 
			},
			{
				"x": -3.2581846268,
				"y": 0.1147336668,
				"z": -1.3349592785,
				"element": "H" 
			},
			{
				"x": -2.4971379428,
				"y": -1.0985381078,
				"z": -2.3790151246,
				"element": "H" 
			},
			{
				"x": -2.7515080237,
				"y": -2.3370175693,
				"z": -0.2674464596,
				"element": "H" 
			},
			{
				"x": -2.314825433,
				"y": -0.9076900632,
				"z": 0.6737181638,
				"element": "H" 
			},
			{
				"x": -0.1490274367,
				"y": -1.8452577928,
				"z": 0.6279513537,
				"element": "H" 
			},
			{
				"x": -0.4454545884,
				"y": -2.7543427149,
				"z": -0.8611117385,
				"element": "H" 
			}
		],
		 "valence_orbital": [ 
			{
				"type": "occ",
				"energy": -0.31069,
				"method": "rhf"
			},
			{
				"type": "occ",
				"energy": -0.30267,
				"method": "rhf"
			},
			{
				"type": "occ",
				"energy": -0.2991,
				"method": "rhf"
			},
			{
				"type": "occ",
				"energy": -0.29478,
				"method": "rhf"
			},
			{
				"type": "occ",
				"energy": -0.26107,
				"method": "rhf"
			},
			{
				"type": "unocc",
				"energy": -0.10547,
				"method": "rhf"
			},
			{
				"type": "unocc",
				"energy": -0.04583,
				"method": "rhf"
			},
			{
				"type": "unocc",
				"energy": -0.02681,
				"method": "rhf"
			},
			{
				"type": "unocc",
				"energy": 0.04871,
				"method": "rhf"
			},
			{
				"type": "unocc",
				"energy": 0.07048,
				"method": "rhf"
			}
		],
		"cosmo_sigma_profile": { 
			"-0.025": 0.0,
			"-0.024": 0.0,
			"-0.023": 0.0,
			"-0.022": 0.0,
			"-0.021": 0.0,
			"-0.02": 0.0,
			"-0.019": 0.0,
			"-0.018": 0.0,
			"-0.017": 0.0,
			"-0.016": 0.0,
			"-0.015": 0.0,
			"-0.014": 0.0,
			"-0.013": 0.0,
			"-0.012": 0.0,
			"-0.011": 0.0,
			"-0.01": 0.0,
			"-0.009": 0.919989977869,
			"-0.008": 6.47027041262,
			"-0.007": 7.3329988398,
			"-0.006": 9.26843105123,
			"-0.005": 15.9322492131,
			"-0.004": 34.1130373657,
			"-0.003": 34.0145550393,
			"-0.002": 27.8943168966,
			"-0.001": 25.4501661247,
			"0.0": 18.997278195,
			"0.001": 7.61122766884,
			"0.002": 5.50880498712,
			"0.003": 5.42691596626,
			"0.004": 6.78056144377,
			"0.005": 7.79087793783,
			"0.006": 7.79407350445,
			"0.007": 13.5213152551,
			"0.008": 7.93946594323,
			"0.009": 7.57108159613,
			"0.01": 8.40683115978,
			"0.011": 8.0057340492,
			"0.012": 2.0683558923,
			"0.013": 0.0,
			"0.014": 0.0,
			"0.015": 0.0,
			"0.016": 0.0,
			"0.017": 0.0,
			"0.018": 0.0,
			"0.019": 0.0,
			"0.02": 0.0,
			"0.021": 0.0,
			"0.022": 0.0,
			"0.023": 0.0,
			"0.024": 0.0,
			"0.025": 0.0
		}
	}
}
