{
	 "smiles": "CC1(C)C2CCC1(C)C(C2)OC(=O)C=C", 
	 "Tm": 370.15, 
	 "num_atms": 35, 
	 "gaussian": { 
		 "optdone": 1, 
		 "sigma_profile": "yes", 
		 "theory": "DFT", 
		 "functional": "B3LYP", 
		 "basiset": "6-31G**", 
		 "properties": { 
			 "R2extent": 4005.4741, 
			 "electric_dipole_moment_norm": 1.61379572747, 
			 "electric_quadrupole_moment_norm": 11.1218239849, 
			 "total_energy": -657.883709292, 
			 "HOMO_LUMO_gap": 0.22515, 
			 "cosmo_polarized_energy": -6.46, 
			 "cosmo_cavitation_energy": 34.25, 
			 "cosmo_dispersion_energy": -23.65, 
			 "cosmo_repulsion_energy": 1.82, 
			 "cosmo_total_nonelectrostatic_energy": 12.42, 
			 "SMD_solvation_energy": 7.08 
		},
		"coords": [
			{
				"x": 1.8837183753,
				"y": -1.9364366449,
				"z": 0.8066610052,
				"element": "C" 
			},
			{
				"x": 1.2022760768,
				"y": -0.6206166925,
				"z": 0.3892103938,
				"element": "C" 
			},
			{
				"x": 2.2519877057,
				"y": 0.4944976603,
				"z": 0.5656510606,
				"element": "C" 
			},
			{
				"x": -0.1491066186,
				"y": -0.3410018617,
				"z": 1.1224347617,
				"element": "C" 
			},
			{
				"x": -1.0328252463,
				"y": -1.5266640902,
				"z": 0.6714090044,
				"element": "C" 
			},
			{
				"x": -0.5957753661,
				"y": -1.7380727923,
				"z": -0.810859688,
				"element": "C" 
			},
			{
				"x": 0.520077702,
				"y": -0.6767266148,
				"z": -1.0327973615,
				"element": "C" 
			},
			{
				"x": 1.4063570979,
				"y": -0.9445636709,
				"z": -2.2427679025,
				"element": "C" 
			},
			{
				"x": -0.1707749054,
				"y": 0.7091538011,
				"z": -1.0630075839,
				"element": "C" 
			},
			{
				"x": -0.6754436265,
				"y": 0.9179742523,
				"z": 0.3928768513,
				"element": "C" 
			},
			{
				"x": -1.2334147019,
				"y": 0.7083375828,
				"z": -2.045747698,
				"element": "O" 
			},
			{
				"x": -1.6726032132,
				"y": 1.9201842632,
				"z": -2.4582826567,
				"element": "C" 
			},
			{
				"x": -1.243968054,
				"y": 2.9783356616,
				"z": -2.0400019471,
				"element": "O" 
			},
			{
				"x": -2.7386556585,
				"y": 1.7673110537,
				"z": -3.4826777344,
				"element": "C" 
			},
			{
				"x": -3.3176740759,
				"y": 2.8389880749,
				"z": -4.0274433363,
				"element": "C" 
			},
			{
				"x": 2.1851115041,
				"y": -1.8851019519,
				"z": 1.8592034542,
				"element": "H" 
			},
			{
				"x": 1.2517306075,
				"y": -2.8183170803,
				"z": 0.6894023169,
				"element": "H" 
			},
			{
				"x": 2.7929822861,
				"y": -2.1030404057,
				"z": 0.2184697107,
				"element": "H" 
			},
			{
				"x": 1.8848163987,
				"y": 1.4969864934,
				"z": 0.3380889481,
				"element": "H" 
			},
			{
				"x": 2.6097760145,
				"y": 0.5088798666,
				"z": 1.6013906049,
				"element": "H" 
			},
			{
				"x": 3.1230447419,
				"y": 0.3104570508,
				"z": -0.0730544865,
				"element": "H" 
			},
			{
				"x": -0.0762440211,
				"y": -0.2254083382,
				"z": 2.2085112672,
				"element": "H" 
			},
			{
				"x": -0.8507224368,
				"y": -2.4190006912,
				"z": 1.2776990383,
				"element": "H" 
			},
			{
				"x": -2.0976891691,
				"y": -1.2911533713,
				"z": 0.764506558,
				"element": "H" 
			},
			{
				"x": -1.4159992715,
				"y": -1.5961857594,
				"z": -1.5171819327,
				"element": "H" 
			},
			{
				"x": -0.2005945834,
				"y": -2.744672252,
				"z": -0.9783269429,
				"element": "H" 
			},
			{
				"x": 1.8868325764,
				"y": -1.9264811292,
				"z": -2.1763929665,
				"element": "H" 
			},
			{
				"x": 0.8142495663,
				"y": -0.9271550007,
				"z": -3.1641180202,
				"element": "H" 
			},
			{
				"x": 2.193701114,
				"y": -0.1889191523,
				"z": -2.342863337,
				"element": "H" 
			},
			{
				"x": 0.5251215223,
				"y": 1.4964822082,
				"z": -1.3579301303,
				"element": "H" 
			},
			{
				"x": -1.7670546759,
				"y": 0.9827571745,
				"z": 0.4220440632,
				"element": "H" 
			},
			{
				"x": -0.2860465867,
				"y": 1.8484064782,
				"z": 0.812896732,
				"element": "H" 
			},
			{
				"x": -3.014334077,
				"y": 0.7538132157,
				"z": -3.7576348833,
				"element": "H" 
			},
			{
				"x": -3.0130673201,
				"y": 3.8364128685,
				"z": -3.724732199,
				"element": "H" 
			},
			{
				"x": -4.0969896814,
				"y": 2.7482397937,
				"z": -4.7771349636,
				"element": "H" 
			}
		],
		 "valence_orbital": [ 
			{
				"type": "occ",
				"energy": -0.2896,
				"method": "rhf"
			},
			{
				"type": "occ",
				"energy": -0.28876,
				"method": "rhf"
			},
			{
				"type": "occ",
				"energy": -0.28097,
				"method": "rhf"
			},
			{
				"type": "occ",
				"energy": -0.27991,
				"method": "rhf"
			},
			{
				"type": "occ",
				"energy": -0.26776,
				"method": "rhf"
			},
			{
				"type": "unocc",
				"energy": -0.04261,
				"method": "rhf"
			},
			{
				"type": "unocc",
				"energy": 0.07019,
				"method": "rhf"
			},
			{
				"type": "unocc",
				"energy": 0.08809,
				"method": "rhf"
			},
			{
				"type": "unocc",
				"energy": 0.10079,
				"method": "rhf"
			},
			{
				"type": "unocc",
				"energy": 0.10846,
				"method": "rhf"
			}
		],
		"cosmo_sigma_profile": { 
			"-0.025": 0.0,
			"-0.024": 0.0,
			"-0.023": 0.0,
			"-0.022": 0.0,
			"-0.021": 0.0,
			"-0.02": 0.0,
			"-0.019": 0.0,
			"-0.018": 0.0,
			"-0.017": 0.0,
			"-0.016": 0.0,
			"-0.015": 0.0,
			"-0.014": 0.0,
			"-0.013": 0.0,
			"-0.012": 0.0,
			"-0.011": 0.0,
			"-0.01": 0.0,
			"-0.009": 0.0,
			"-0.008": 0.16421662235,
			"-0.007": 2.80748356913,
			"-0.006": 4.59101629343,
			"-0.005": 5.67744717214,
			"-0.004": 9.97965682111,
			"-0.003": 23.4714732477,
			"-0.002": 41.8570713433,
			"-0.001": 41.2375914189,
			"0.0": 39.5080083249,
			"0.001": 39.9226827381,
			"0.002": 22.7356547319,
			"0.003": 7.51651563188,
			"0.004": 5.101867275,
			"0.005": 4.19401482681,
			"0.006": 2.66484568998,
			"0.007": 1.20500344161,
			"0.008": 1.50841022146,
			"0.009": 1.86217587611,
			"0.01": 1.8073258814,
			"0.011": 2.22095560531,
			"0.012": 4.53623666998,
			"0.013": 1.17248689261,
			"0.014": 0.0,
			"0.015": 0.0,
			"0.016": 0.0,
			"0.017": 0.0,
			"0.018": 0.0,
			"0.019": 0.0,
			"0.02": 0.0,
			"0.021": 0.0,
			"0.022": 0.0,
			"0.023": 0.0,
			"0.024": 0.0,
			"0.025": 0.0
		}
	}
}
