{
	 "smiles": "OC(=O)C1=C(C2=CC(=CC=C2N1)[N+]([O-])=O)C1=CC=CC=C1", 
	 "Tm": 563.15, 
	 "num_atms": 31, 
	 "gaussian": { 
		 "optdone": 1, 
		 "sigma_profile": "yes", 
		 "theory": "DFT", 
		 "functional": "B3LYP", 
		 "basiset": "6-31G**", 
		 "properties": { 
			 "R2extent": 7674.04, 
			 "electric_dipole_moment_norm": 2.54181476312, 
			 "electric_quadrupole_moment_norm": 39.1833840431, 
			 "total_energy": -987.952494984, 
			 "HOMO_LUMO_gap": 0.15053, 
			 "cosmo_polarized_energy": -18.01, 
			 "cosmo_cavitation_energy": 36.67, 
			 "cosmo_dispersion_energy": -26.11, 
			 "cosmo_repulsion_energy": 1.97, 
			 "cosmo_total_nonelectrostatic_energy": 12.53, 
			 "SMD_solvation_energy": 8.94 
		},
		"coords": [
			{
				"x": 0.1649621965,
				"y": -4.6562507023,
				"z": 2.1536927543,
				"element": "O" 
			},
			{
				"x": 0.0643057663,
				"y": -4.722532863,
				"z": 0.8137955834,
				"element": "C" 
			},
			{
				"x": 0.106074347,
				"y": -5.7893041795,
				"z": 0.233784987,
				"element": "O" 
			},
			{
				"x": -0.120796862,
				"y": -3.4618809851,
				"z": 0.0573926546,
				"element": "C" 
			},
			{
				"x": -0.2116967165,
				"y": -2.1178047115,
				"z": 0.3935956212,
				"element": "C" 
			},
			{
				"x": -0.5013884676,
				"y": -1.4223102877,
				"z": -0.8362551732,
				"element": "C" 
			},
			{
				"x": -0.6855636312,
				"y": -0.0694054782,
				"z": -1.151447406,
				"element": "C" 
			},
			{
				"x": -0.943025252,
				"y": 0.2503686103,
				"z": -2.4756176945,
				"element": "C" 
			},
			{
				"x": -1.0163305269,
				"y": -0.7146657317,
				"z": -3.5037074392,
				"element": "C" 
			},
			{
				"x": -0.8237885619,
				"y": -2.0522150561,
				"z": -3.2124104809,
				"element": "C" 
			},
			{
				"x": -0.5646724426,
				"y": -2.3987418827,
				"z": -1.8757436785,
				"element": "C" 
			},
			{
				"x": -0.3280867536,
				"y": -3.6123917753,
				"z": -1.3030014864,
				"element": "N" 
			},
			{
				"x": -1.1465387899,
				"y": 1.6600720136,
				"z": -2.827732235,
				"element": "N" 
			},
			{
				"x": -1.08775267,
				"y": 2.4934771092,
				"z": -1.9222049288,
				"element": "O" 
			},
			{
				"x": -1.3661873807,
				"y": 1.9296049536,
				"z": -4.0096424034,
				"element": "O" 
			},
			{
				"x": -0.0422176563,
				"y": -1.491448955,
				"z": 1.7212027249,
				"element": "C" 
			},
			{
				"x": 1.1228764867,
				"y": -1.7042604599,
				"z": 2.4833833376,
				"element": "C" 
			},
			{
				"x": 1.2747440405,
				"y": -1.1034216602,
				"z": 3.7350558072,
				"element": "C" 
			},
			{
				"x": 0.2766787458,
				"y": -0.26851838,
				"z": 4.2380060387,
				"element": "C" 
			},
			{
				"x": -0.8768201837,
				"y": -0.036763952,
				"z": 3.4842161829,
				"element": "C" 
			},
			{
				"x": -1.0378454587,
				"y": -0.6429299292,
				"z": 2.2397780757,
				"element": "C" 
			},
			{
				"x": 0.1033603327,
				"y": -3.7376682323,
				"z": 2.4674570337,
				"element": "H" 
			},
			{
				"x": -0.6321894522,
				"y": 0.7144017428,
				"z": -0.4064669233,
				"element": "H" 
			},
			{
				"x": -1.2217168778,
				"y": -0.3807438027,
				"z": -4.5124378693,
				"element": "H" 
			},
			{
				"x": -0.870763675,
				"y": -2.8055261595,
				"z": -3.9919214603,
				"element": "H" 
			},
			{
				"x": -0.3195548239,
				"y": -4.5264002561,
				"z": -1.7342963444,
				"element": "H" 
			},
			{
				"x": 1.9222390686,
				"y": -2.3178787394,
				"z": 2.0773405258,
				"element": "H" 
			},
			{
				"x": 2.1810598358,
				"y": -1.2779217221,
				"z": 4.3071571236,
				"element": "H" 
			},
			{
				"x": 0.3977207554,
				"y": 0.2030792691,
				"z": 5.2084501207,
				"element": "H" 
			},
			{
				"x": -1.6571466359,
				"y": 0.6126427515,
				"z": 3.8697353906,
				"element": "H" 
			},
			{
				"x": -1.944338757,
				"y": -0.4743605488,
				"z": 1.6665415614,
				"element": "H" 
			}
		],
		 "valence_orbital": [ 
			{
				"type": "occ",
				"energy": -0.2866,
				"method": "rhf"
			},
			{
				"type": "occ",
				"energy": -0.27908,
				"method": "rhf"
			},
			{
				"type": "occ",
				"energy": -0.27784,
				"method": "rhf"
			},
			{
				"type": "occ",
				"energy": -0.26063,
				"method": "rhf"
			},
			{
				"type": "occ",
				"energy": -0.23749,
				"method": "rhf"
			},
			{
				"type": "unocc",
				"energy": -0.08696,
				"method": "rhf"
			},
			{
				"type": "unocc",
				"energy": -0.06778,
				"method": "rhf"
			},
			{
				"type": "unocc",
				"energy": -0.03408,
				"method": "rhf"
			},
			{
				"type": "unocc",
				"energy": -0.03206,
				"method": "rhf"
			},
			{
				"type": "unocc",
				"energy": 0.0002,
				"method": "rhf"
			}
		],
		"cosmo_sigma_profile": { 
			"-0.025": 0.0,
			"-0.024": 0.0,
			"-0.023": 0.0,
			"-0.022": 0.0,
			"-0.021": 0.0,
			"-0.02": 0.0,
			"-0.019": 0.0,
			"-0.018": 0.0,
			"-0.017": 0.0,
			"-0.016": 0.460962380482,
			"-0.015": 0.948667198222,
			"-0.014": 1.10362094631,
			"-0.013": 1.23264340691,
			"-0.012": 0.80769309089,
			"-0.011": 1.64071225173,
			"-0.01": 2.0556633208,
			"-0.009": 2.37285633661,
			"-0.008": 4.23213305427,
			"-0.007": 10.2603414732,
			"-0.006": 16.9883697737,
			"-0.005": 20.7787139416,
			"-0.004": 22.8157816238,
			"-0.003": 16.4239152778,
			"-0.002": 18.010013486,
			"-0.001": 20.5647490058,
			"0.0": 29.7763009362,
			"0.001": 26.4705064944,
			"0.002": 16.2037346238,
			"0.003": 13.8152820355,
			"0.004": 11.1633308616,
			"0.005": 5.58801958476,
			"0.006": 5.31500034764,
			"0.007": 7.5847187973,
			"0.008": 13.1619415533,
			"0.009": 7.92792346497,
			"0.01": 8.91723098414,
			"0.011": 5.09445234066,
			"0.012": 2.85428802946,
			"0.013": 0.972208319893,
			"0.014": 0.0,
			"0.015": 0.0,
			"0.016": 0.0,
			"0.017": 0.0,
			"0.018": 0.0,
			"0.019": 0.0,
			"0.02": 0.0,
			"0.021": 0.0,
			"0.022": 0.0,
			"0.023": 0.0,
			"0.024": 0.0,
			"0.025": 0.0
		}
	}
}
