{
	 "smiles": "CC(C(O)C1=CC=CC=C1)N(C)C", 
	 "Tm": 360.65, 
	 "num_atms": 30, 
	 "gaussian": { 
		 "optdone": 1, 
		 "sigma_profile": "yes", 
		 "theory": "DFT", 
		 "functional": "B3LYP", 
		 "basiset": "6-31G**", 
		 "properties": { 
			 "R2extent": 2853.2657, 
			 "electric_dipole_moment_norm": 0.732312651809, 
			 "electric_quadrupole_moment_norm": 4.51946408659, 
			 "total_energy": -559.373516996, 
			 "HOMO_LUMO_gap": 0.20921, 
			 "cosmo_polarized_energy": -7.65, 
			 "cosmo_cavitation_energy": 30.73, 
			 "cosmo_dispersion_energy": -21.5, 
			 "cosmo_repulsion_energy": 1.7, 
			 "cosmo_total_nonelectrostatic_energy": 10.92, 
			 "SMD_solvation_energy": 5.16 
		},
		"coords": [
			{
				"x": 2.0226580173,
				"y": -1.7933173799,
				"z": 1.054132437,
				"element": "C" 
			},
			{
				"x": 2.3203662085,
				"y": -0.4312237349,
				"z": 0.4236046539,
				"element": "C" 
			},
			{
				"x": 1.3982598012,
				"y": -0.1761557868,
				"z": -0.8068801249,
				"element": "C" 
			},
			{
				"x": 1.8698151869,
				"y": -1.0597946482,
				"z": -1.8230218974,
				"element": "O" 
			},
			{
				"x": -0.0880995883,
				"y": -0.3506023142,
				"z": -0.5262242249,
				"element": "C" 
			},
			{
				"x": -0.8038604694,
				"y": 0.6546708757,
				"z": 0.1407334564,
				"element": "C" 
			},
			{
				"x": -2.1659979325,
				"y": 0.5049363215,
				"z": 0.3992134175,
				"element": "C" 
			},
			{
				"x": -2.8385597057,
				"y": -0.6491077302,
				"z": -0.0111690076,
				"element": "C" 
			},
			{
				"x": -2.1358677637,
				"y": -1.6532833373,
				"z": -0.6771999846,
				"element": "C" 
			},
			{
				"x": -0.7702272995,
				"y": -1.505129015,
				"z": -0.9308159783,
				"element": "C" 
			},
			{
				"x": 2.2190019504,
				"y": 0.7137401562,
				"z": 1.3526259561,
				"element": "N" 
			},
			{
				"x": 2.4548448608,
				"y": 0.4225669292,
				"z": 2.7623921768,
				"element": "C" 
			},
			{
				"x": 3.0678729329,
				"y": 1.8232425883,
				"z": 0.9298313214,
				"element": "C" 
			},
			{
				"x": 2.0433324223,
				"y": -2.5492862824,
				"z": 0.2653739704,
				"element": "H" 
			},
			{
				"x": 2.7749964911,
				"y": -2.0658289001,
				"z": 1.7986895488,
				"element": "H" 
			},
			{
				"x": 1.0358833619,
				"y": -1.8205056248,
				"z": 1.5242127908,
				"element": "H" 
			},
			{
				"x": 3.3419264012,
				"y": -0.4865183725,
				"z": 0.0049077979,
				"element": "H" 
			},
			{
				"x": 1.5569155486,
				"y": 0.8652789813,
				"z": -1.1235052922,
				"element": "H" 
			},
			{
				"x": 1.3151981119,
				"y": -0.9311348119,
				"z": -2.6035056811,
				"element": "H" 
			},
			{
				"x": -0.2810405273,
				"y": 1.5474342538,
				"z": 0.4680616274,
				"element": "H" 
			},
			{
				"x": -2.705659008,
				"y": 1.2933690647,
				"z": 0.9169460179,
				"element": "H" 
			},
			{
				"x": -3.9012326578,
				"y": -0.7618049794,
				"z": 0.1845826772,
				"element": "H" 
			},
			{
				"x": -2.6488025558,
				"y": -2.5551908615,
				"z": -1.0003313518,
				"element": "H" 
			},
			{
				"x": -0.2228901219,
				"y": -2.2902445774,
				"z": -1.4429203403,
				"element": "H" 
			},
			{
				"x": 2.2852647533,
				"y": 1.3374024519,
				"z": 3.3398059841,
				"element": "H" 
			},
			{
				"x": 3.4838209804,
				"y": 0.0787378331,
				"z": 2.982420615,
				"element": "H" 
			},
			{
				"x": 1.7558309515,
				"y": -0.330240884,
				"z": 3.1292111082,
				"element": "H" 
			},
			{
				"x": 2.8648132598,
				"y": 2.096623647,
				"z": -0.109087973,
				"element": "H" 
			},
			{
				"x": 4.1478622195,
				"y": 1.592858081,
				"z": 1.0092417191,
				"element": "H" 
			},
			{
				"x": 2.86377417,
				"y": 2.7031080569,
				"z": 1.54887458,
				"element": "H" 
			}
		],
		 "valence_orbital": [ 
			{
				"type": "occ",
				"energy": -0.31589,
				"method": "rhf"
			},
			{
				"type": "occ",
				"energy": -0.273,
				"method": "rhf"
			},
			{
				"type": "occ",
				"energy": -0.24383,
				"method": "rhf"
			},
			{
				"type": "occ",
				"energy": -0.2354,
				"method": "rhf"
			},
			{
				"type": "occ",
				"energy": -0.20681,
				"method": "rhf"
			},
			{
				"type": "unocc",
				"energy": 0.0024,
				"method": "rhf"
			},
			{
				"type": "unocc",
				"energy": 0.00525,
				"method": "rhf"
			},
			{
				"type": "unocc",
				"energy": 0.08035,
				"method": "rhf"
			},
			{
				"type": "unocc",
				"energy": 0.09325,
				"method": "rhf"
			},
			{
				"type": "unocc",
				"energy": 0.10491,
				"method": "rhf"
			}
		],
		"cosmo_sigma_profile": { 
			"-0.025": 0.0,
			"-0.024": 0.0,
			"-0.023": 0.0,
			"-0.022": 0.0,
			"-0.021": 0.0,
			"-0.02": 0.0,
			"-0.019": 0.0,
			"-0.018": 0.0,
			"-0.017": 0.0,
			"-0.016": 0.0495662277836,
			"-0.015": 0.555843141813,
			"-0.014": 1.15051450228,
			"-0.013": 0.535865138594,
			"-0.012": 0.832339028691,
			"-0.011": 1.05725154948,
			"-0.01": 0.601876072719,
			"-0.009": 1.11755254449,
			"-0.008": 0.79843581425,
			"-0.007": 1.09230553151,
			"-0.006": 2.26075491543,
			"-0.005": 9.2258470611,
			"-0.004": 15.5209110659,
			"-0.003": 23.9463818468,
			"-0.002": 27.2954200174,
			"-0.001": 36.9187444447,
			"0.0": 30.3372292045,
			"0.001": 17.3879377676,
			"0.002": 12.570089349,
			"0.003": 10.8758800597,
			"0.004": 9.14822080228,
			"0.005": 10.8803626726,
			"0.006": 10.2736897459,
			"0.007": 4.89732705533,
			"0.008": 2.56379289811,
			"0.009": 1.76839694575,
			"0.01": 1.7564768606,
			"0.011": 1.20748836411,
			"0.012": 1.0325375743,
			"0.013": 1.43632705728,
			"0.014": 0.639308859002,
			"0.015": 0.0,
			"0.016": 0.0,
			"0.017": 0.0,
			"0.018": 0.0,
			"0.019": 0.0,
			"0.02": 0.0,
			"0.021": 0.0,
			"0.022": 0.0,
			"0.023": 0.0,
			"0.024": 0.0,
			"0.025": 0.0
		}
	}
}
