{
	 "smiles": "CCSC1=C(C=C(C=C1)[N+]([O-])=O)C(O)=O", 
	 "Tm": 463.15, 
	 "num_atms": 24, 
	 "gaussian": { 
		 "optdone": 1, 
		 "sigma_profile": "yes", 
		 "theory": "DFT", 
		 "functional": "B3LYP", 
		 "basiset": "6-31G**", 
		 "properties": { 
			 "R2extent": 4301.108, 
			 "electric_dipole_moment_norm": 3.05287299769, 
			 "electric_quadrupole_moment_norm": 20.4838346578, 
			 "total_energy": -1102.12859096, 
			 "HOMO_LUMO_gap": 0.13319, 
			 "cosmo_polarized_energy": -12.74, 
			 "cosmo_cavitation_energy": 30.69, 
			 "cosmo_dispersion_energy": -22.53, 
			 "cosmo_repulsion_energy": 1.74, 
			 "cosmo_total_nonelectrostatic_energy": 9.89, 
			 "SMD_solvation_energy": 8.45 
		},
		"coords": [
			{
				"x": -0.5274530889,
				"y": -4.1912759894,
				"z": -2.4868180721,
				"element": "C" 
			},
			{
				"x": 0.0868630433,
				"y": -2.8769721656,
				"z": -2.0091834292,
				"element": "C" 
			},
			{
				"x": -1.2190965844,
				"y": -1.900805298,
				"z": -1.1351805777,
				"element": "S" 
			},
			{
				"x": -0.3740362972,
				"y": -0.383256078,
				"z": -0.6910113742,
				"element": "C" 
			},
			{
				"x": 0.5823774572,
				"y": -0.2390367254,
				"z": 0.3494997738,
				"element": "C" 
			},
			{
				"x": 1.0959177324,
				"y": 1.0317375693,
				"z": 0.6421198515,
				"element": "C" 
			},
			{
				"x": 0.6668748591,
				"y": 2.1374188998,
				"z": -0.078889123,
				"element": "C" 
			},
			{
				"x": -0.287990538,
				"y": 2.0293887236,
				"z": -1.0851270593,
				"element": "C" 
			},
			{
				"x": -0.7983342257,
				"y": 0.769367175,
				"z": -1.3759667215,
				"element": "C" 
			},
			{
				"x": 1.2312143893,
				"y": 3.4596735256,
				"z": 0.2388372207,
				"element": "N" 
			},
			{
				"x": 2.0830225301,
				"y": 3.5189105378,
				"z": 1.1237577257,
				"element": "O" 
			},
			{
				"x": 0.8132124227,
				"y": 4.4218431477,
				"z": -0.4037118857,
				"element": "O" 
			},
			{
				"x": 1.0670406007,
				"y": -1.3839355705,
				"z": 1.1810881862,
				"element": "C" 
			},
			{
				"x": 1.5645860207,
				"y": -0.9654516519,
				"z": 2.3708689874,
				"element": "O" 
			},
			{
				"x": 1.0485074009,
				"y": -2.5584506624,
				"z": 0.877614778,
				"element": "O" 
			},
			{
				"x": 0.2292158275,
				"y": -4.7742298615,
				"z": -3.021841716,
				"element": "H" 
			},
			{
				"x": -0.8813702976,
				"y": -4.79202591,
				"z": -1.6438906988,
				"element": "H" 
			},
			{
				"x": -1.3677412901,
				"y": -4.0235944704,
				"z": -3.1676912513,
				"element": "H" 
			},
			{
				"x": 0.8986434833,
				"y": -3.0526632584,
				"z": -1.3045694844,
				"element": "H" 
			},
			{
				"x": 0.4464484648,
				"y": -2.2814528402,
				"z": -2.8526822728,
				"element": "H" 
			},
			{
				"x": 1.8215839355,
				"y": 1.1632618873,
				"z": 1.4328285172,
				"element": "H" 
			},
			{
				"x": -0.6068915324,
				"y": 2.9136832516,
				"z": -1.6227746946,
				"element": "H" 
			},
			{
				"x": -1.5396011327,
				"y": 0.6579218873,
				"z": -2.1591841464,
				"element": "H" 
			},
			{
				"x": 1.8784068196,
				"y": -1.7657561234,
				"z": 2.8235074665,
				"element": "H" 
			}
		],
		 "valence_orbital": [ 
			{
				"type": "occ",
				"energy": -0.29996,
				"method": "rhf"
			},
			{
				"type": "occ",
				"energy": -0.29731,
				"method": "rhf"
			},
			{
				"type": "occ",
				"energy": -0.28958,
				"method": "rhf"
			},
			{
				"type": "occ",
				"energy": -0.28619,
				"method": "rhf"
			},
			{
				"type": "occ",
				"energy": -0.23465,
				"method": "rhf"
			},
			{
				"type": "unocc",
				"energy": -0.10146,
				"method": "rhf"
			},
			{
				"type": "unocc",
				"energy": -0.06978,
				"method": "rhf"
			},
			{
				"type": "unocc",
				"energy": -0.02319,
				"method": "rhf"
			},
			{
				"type": "unocc",
				"energy": 0.02647,
				"method": "rhf"
			},
			{
				"type": "unocc",
				"energy": 0.03726,
				"method": "rhf"
			}
		],
		"cosmo_sigma_profile": { 
			"-0.025": 0.0,
			"-0.024": 0.0,
			"-0.023": 0.0,
			"-0.022": 0.0,
			"-0.021": 0.0,
			"-0.02": 0.0,
			"-0.019": 0.172196785557,
			"-0.018": 0.885679655909,
			"-0.017": 1.3068817803,
			"-0.016": 0.499912475497,
			"-0.015": 0.749783547133,
			"-0.014": 0.666485752007,
			"-0.013": 0.879922833448,
			"-0.012": 0.632297973682,
			"-0.011": 0.847667542778,
			"-0.01": 0.701411679869,
			"-0.009": 1.09483194785,
			"-0.008": 3.42652043896,
			"-0.007": 6.10431399464,
			"-0.006": 5.26308592203,
			"-0.005": 10.0465156867,
			"-0.004": 15.5913733606,
			"-0.003": 22.3135371437,
			"-0.002": 30.9603565534,
			"-0.001": 33.1668313832,
			"0.0": 22.0931534533,
			"0.001": 11.3903978118,
			"0.002": 7.87532640267,
			"0.003": 6.85565708837,
			"0.004": 7.56512683488,
			"0.005": 9.66977543209,
			"0.006": 8.71329951909,
			"0.007": 13.1805615434,
			"0.008": 9.25428233604,
			"0.009": 7.01479554481,
			"0.01": 3.6410242365,
			"0.011": 3.62654897921,
			"0.012": 0.445556088672,
			"0.013": 0.0,
			"0.014": 0.0,
			"0.015": 0.0,
			"0.016": 0.0,
			"0.017": 0.0,
			"0.018": 0.0,
			"0.019": 0.0,
			"0.02": 0.0,
			"0.021": 0.0,
			"0.022": 0.0,
			"0.023": 0.0,
			"0.024": 0.0,
			"0.025": 0.0
		}
	}
}
