{
	 "smiles": "NC(=O)NC=O", 
	 "Tm": 445.15, 
	 "num_atms": 10, 
	 "gaussian": { 
		 "optdone": 1, 
		 "sigma_profile": "yes", 
		 "theory": "DFT", 
		 "functional": "B3LYP", 
		 "basiset": "6-31G**", 
		 "properties": { 
			 "R2extent": 1273.658, 
			 "electric_dipole_moment_norm": 3.34748538608, 
			 "electric_quadrupole_moment_norm": 10.0946427168, 
			 "total_energy": -338.598283589, 
			 "HOMO_LUMO_gap": 0.24609, 
			 "cosmo_polarized_energy": -16.66, 
			 "cosmo_cavitation_energy": 14.95, 
			 "cosmo_dispersion_energy": -11.1, 
			 "cosmo_repulsion_energy": 0.99, 
			 "cosmo_total_nonelectrostatic_energy": 4.84, 
			 "SMD_solvation_energy": 5.45 
		},
		"coords": [
			{
				"x": 0.2092900535,
				"y": 0.2344639391,
				"z": -0.8998253571,
				"element": "N" 
			},
			{
				"x": 0.528313483,
				"y": -0.9436165548,
				"z": -0.2616520883,
				"element": "C" 
			},
			{
				"x": -0.1055345821,
				"y": -1.4072779251,
				"z": 0.6673535127,
				"element": "O" 
			},
			{
				"x": 1.646739066,
				"y": -1.6263582197,
				"z": -0.7801746725,
				"element": "N" 
			},
			{
				"x": 2.2587628063,
				"y": -1.4872177609,
				"z": -2.0122729887,
				"element": "C" 
			},
			{
				"x": 3.1699766889,
				"y": -2.1920454795,
				"z": -2.389190272,
				"element": "O" 
			},
			{
				"x": -0.5271575418,
				"y": 0.7473169068,
				"z": -0.4362382992,
				"element": "H" 
			},
			{
				"x": 0.9421851194,
				"y": 0.7991986544,
				"z": -1.3032542735,
				"element": "H" 
			},
			{
				"x": 1.9178184828,
				"y": -2.4388265805,
				"z": -0.2375475345,
				"element": "H" 
			},
			{
				"x": 1.827906424,
				"y": -0.6756369798,
				"z": -2.6250980268,
				"element": "H" 
			}
		],
		 "valence_orbital": [ 
			{
				"type": "occ",
				"energy": -0.40464,
				"method": "rhf"
			},
			{
				"type": "occ",
				"energy": -0.30734,
				"method": "rhf"
			},
			{
				"type": "occ",
				"energy": -0.29684,
				"method": "rhf"
			},
			{
				"type": "occ",
				"energy": -0.28485,
				"method": "rhf"
			},
			{
				"type": "occ",
				"energy": -0.2721,
				"method": "rhf"
			},
			{
				"type": "unocc",
				"energy": -0.02601,
				"method": "rhf"
			},
			{
				"type": "unocc",
				"energy": 0.04984,
				"method": "rhf"
			},
			{
				"type": "unocc",
				"energy": 0.06313,
				"method": "rhf"
			},
			{
				"type": "unocc",
				"energy": 0.08685,
				"method": "rhf"
			},
			{
				"type": "unocc",
				"energy": 0.12297,
				"method": "rhf"
			}
		],
		"cosmo_sigma_profile": { 
			"-0.025": 0.0,
			"-0.024": 0.0,
			"-0.023": 0.0,
			"-0.022": 0.0,
			"-0.021": 0.0,
			"-0.02": 0.0,
			"-0.019": 0.0,
			"-0.018": 0.0,
			"-0.017": 0.0,
			"-0.016": 0.84314392752,
			"-0.015": 2.76937260731,
			"-0.014": 3.85657765721,
			"-0.013": 2.90572553631,
			"-0.012": 3.5110844447,
			"-0.011": 3.66492029408,
			"-0.01": 3.17135504231,
			"-0.009": 2.7710703953,
			"-0.008": 4.65262859932,
			"-0.007": 3.30705389973,
			"-0.006": 3.943652104,
			"-0.005": 3.62246572789,
			"-0.004": 4.89340590807,
			"-0.003": 5.80935563307,
			"-0.002": 5.9592634435,
			"-0.001": 5.00950341581,
			"0.0": 4.35679280406,
			"0.001": 3.42414408818,
			"0.002": 3.05921991082,
			"0.003": 3.38295689173,
			"0.004": 3.63016157092,
			"0.005": 2.08161803466,
			"0.006": 2.7069435112,
			"0.007": 3.48238841403,
			"0.008": 2.59789180259,
			"0.009": 3.16464572597,
			"0.01": 3.97008140885,
			"0.011": 5.8257114998,
			"0.012": 9.0305862179,
			"0.013": 6.58147469079,
			"0.014": 0.48655138038,
			"0.015": 0.0,
			"0.016": 0.0,
			"0.017": 0.0,
			"0.018": 0.0,
			"0.019": 0.0,
			"0.02": 0.0,
			"0.021": 0.0,
			"0.022": 0.0,
			"0.023": 0.0,
			"0.024": 0.0,
			"0.025": 0.0
		}
	}
}
