{
	 "smiles": "CC1=CC(C(=O)C(F)(F)F)=C(O)C=C1", 
	 "Tm": 314.15, 
	 "num_atms": 21, 
	 "gaussian": { 
		 "optdone": 1, 
		 "sigma_profile": "yes", 
		 "theory": "DFT", 
		 "functional": "B3LYP", 
		 "basiset": "6-31G**", 
		 "properties": { 
			 "R2extent": 3104.3612, 
			 "electric_dipole_moment_norm": 5.3829652321, 
			 "electric_quadrupole_moment_norm": 6.13266543601, 
			 "total_energy": -797.135208611, 
			 "HOMO_LUMO_gap": 0.16379, 
			 "cosmo_polarized_energy": -11.7, 
			 "cosmo_cavitation_energy": 26.79, 
			 "cosmo_dispersion_energy": -19.19, 
			 "cosmo_repulsion_energy": 1.46, 
			 "cosmo_total_nonelectrostatic_energy": 9.06, 
			 "SMD_solvation_energy": 6.78 
		},
		"coords": [
			{
				"x": 1.626108246,
				"y": 3.1849404329,
				"z": 2.1418235903,
				"element": "C" 
			},
			{
				"x": 1.016860822,
				"y": 2.1986839514,
				"z": 1.1733539067,
				"element": "C" 
			},
			{
				"x": 1.1273194986,
				"y": 0.8260858308,
				"z": 1.3627059767,
				"element": "C" 
			},
			{
				"x": 0.5901863094,
				"y": -0.1195263064,
				"z": 0.4647027916,
				"element": "C" 
			},
			{
				"x": 0.8305844237,
				"y": -1.5432862232,
				"z": 0.8255527171,
				"element": "C" 
			},
			{
				"x": 1.1686124029,
				"y": -1.8743135135,
				"z": 1.9469042725,
				"element": "O" 
			},
			{
				"x": 0.7437344097,
				"y": -2.6819477774,
				"z": -0.2327299971,
				"element": "C" 
			},
			{
				"x": 1.3849855056,
				"y": -3.7662206081,
				"z": 0.2212752994,
				"element": "F" 
			},
			{
				"x": 1.3224699762,
				"y": -2.3208881248,
				"z": -1.3948922113,
				"element": "F" 
			},
			{
				"x": -0.5335705479,
				"y": -3.030728536,
				"z": -0.4711285556,
				"element": "F" 
			},
			{
				"x": -0.1214280583,
				"y": 0.3557288514,
				"z": -0.6574348412,
				"element": "C" 
			},
			{
				"x": -0.7095652304,
				"y": -0.5291586427,
				"z": -1.5002156548,
				"element": "O" 
			},
			{
				"x": -0.2424217854,
				"y": 1.7379168762,
				"z": -0.8588055096,
				"element": "C" 
			},
			{
				"x": 0.3200333621,
				"y": 2.6386882304,
				"z": 0.0350492007,
				"element": "C" 
			},
			{
				"x": 2.4270244371,
				"y": 3.7668535314,
				"z": 1.6705960204,
				"element": "H" 
			},
			{
				"x": 2.0531952171,
				"y": 2.6750945787,
				"z": 3.0091305842,
				"element": "H" 
			},
			{
				"x": 0.8803309463,
				"y": 3.8996754897,
				"z": 2.5075362753,
				"element": "H" 
			},
			{
				"x": 1.6516119239,
				"y": 0.433956046,
				"z": 2.228177993,
				"element": "H" 
			},
			{
				"x": -1.1352617011,
				"y": -0.0526497004,
				"z": -2.2246094809,
				"element": "H" 
			},
			{
				"x": -0.7941369987,
				"y": 2.1006675382,
				"z": -1.7236411749,
				"element": "H" 
			},
			{
				"x": 0.2107268411,
				"y": 3.7044280755,
				"z": -0.1509512025,
				"element": "H" 
			}
		],
		 "valence_orbital": [ 
			{
				"type": "occ",
				"energy": -0.35884,
				"method": "rhf"
			},
			{
				"type": "occ",
				"energy": -0.33991,
				"method": "rhf"
			},
			{
				"type": "occ",
				"energy": -0.2737,
				"method": "rhf"
			},
			{
				"type": "occ",
				"energy": -0.26671,
				"method": "rhf"
			},
			{
				"type": "occ",
				"energy": -0.2365,
				"method": "rhf"
			},
			{
				"type": "unocc",
				"energy": -0.07271,
				"method": "rhf"
			},
			{
				"type": "unocc",
				"energy": -0.00595,
				"method": "rhf"
			},
			{
				"type": "unocc",
				"energy": 0.01411,
				"method": "rhf"
			},
			{
				"type": "unocc",
				"energy": 0.05388,
				"method": "rhf"
			},
			{
				"type": "unocc",
				"energy": 0.0872,
				"method": "rhf"
			}
		],
		"cosmo_sigma_profile": { 
			"-0.025": 0.0,
			"-0.024": 0.0,
			"-0.023": 0.0,
			"-0.022": 0.0,
			"-0.021": 0.0,
			"-0.02": 0.0,
			"-0.019": 0.461245742466,
			"-0.018": 1.23223837077,
			"-0.017": 0.863838356087,
			"-0.016": 1.27094208054,
			"-0.015": 1.19668071391,
			"-0.014": 0.714994970199,
			"-0.013": 1.15589881571,
			"-0.012": 0.990214247359,
			"-0.011": 1.23346875161,
			"-0.01": 0.89698344557,
			"-0.009": 1.04703165434,
			"-0.008": 1.37106760439,
			"-0.007": 2.58465820851,
			"-0.006": 6.46320046883,
			"-0.005": 8.69027821772,
			"-0.004": 12.2588594153,
			"-0.003": 12.6811906323,
			"-0.002": 14.5480090797,
			"-0.001": 15.7980726399,
			"0.0": 17.2476305105,
			"0.001": 18.0775499457,
			"0.002": 30.0667302253,
			"0.003": 27.8339034765,
			"0.004": 9.39525012627,
			"0.005": 4.42539438437,
			"0.006": 4.26578599782,
			"0.007": 5.09732359381,
			"0.008": 3.46168201074,
			"0.009": 2.73010281949,
			"0.01": 3.92608709098,
			"0.011": 1.96990301149,
			"0.012": 0.0303286738181,
			"0.013": 0.0,
			"0.014": 0.0,
			"0.015": 0.0,
			"0.016": 0.0,
			"0.017": 0.0,
			"0.018": 0.0,
			"0.019": 0.0,
			"0.02": 0.0,
			"0.021": 0.0,
			"0.022": 0.0,
			"0.023": 0.0,
			"0.024": 0.0,
			"0.025": 0.0
		}
	}
}
