{
	 "smiles": "FC(F)(F)C1=CC=CC(=C1)N1C(=O)NC2=C(C(=CS2)C2=CC=CC=C2)C1=O", 
	 "Tm": 505.15, 
	 "num_atms": 38, 
	 "gaussian": { 
		 "optdone": 1, 
		 "sigma_profile": "yes", 
		 "theory": "DFT", 
		 "functional": "B3LYP", 
		 "basiset": "6-31G**", 
		 "properties": { 
			 "R2extent": 13244.8033, 
			 "electric_dipole_moment_norm": 4.8057464311, 
			 "electric_quadrupole_moment_norm": 16.5167395787, 
			 "total_energy": -1688.34503267, 
			 "HOMO_LUMO_gap": 0.17831, 
			 "cosmo_polarized_energy": -19.65, 
			 "cosmo_cavitation_energy": 46.45, 
			 "cosmo_dispersion_energy": -32.63, 
			 "cosmo_repulsion_energy": 2.34, 
			 "cosmo_total_nonelectrostatic_energy": 16.16, 
			 "SMD_solvation_energy": 9.66 
		},
		"coords": [
			{
				"x": -4.0574348223,
				"y": 3.4701167875,
				"z": -0.15232914,
				"element": "F" 
			},
			{
				"x": -4.8674162798,
				"y": 2.5524401941,
				"z": -0.7253005095,
				"element": "C" 
			},
			{
				"x": -5.2718909106,
				"y": 3.0527007256,
				"z": -1.914628216,
				"element": "F" 
			},
			{
				"x": -5.9693093513,
				"y": 2.4583862988,
				"z": 0.0533907705,
				"element": "F" 
			},
			{
				"x": -4.184192517,
				"y": 1.2208734637,
				"z": -0.8860207792,
				"element": "C" 
			},
			{
				"x": -4.6176987611,
				"y": 0.3347866078,
				"z": -1.8757497714,
				"element": "C" 
			},
			{
				"x": -4.0176229859,
				"y": -0.9177443799,
				"z": -1.9891689544,
				"element": "C" 
			},
			{
				"x": -2.9933870335,
				"y": -1.2885733613,
				"z": -1.1186098154,
				"element": "C" 
			},
			{
				"x": -2.5648343314,
				"y": -0.3953838177,
				"z": -0.1369127042,
				"element": "C" 
			},
			{
				"x": -3.1536389129,
				"y": 0.8616105794,
				"z": -0.0172524545,
				"element": "C" 
			},
			{
				"x": -1.494690796,
				"y": -0.7692522258,
				"z": 0.7575367553,
				"element": "N" 
			},
			{
				"x": -1.8308546245,
				"y": -0.8949642183,
				"z": 2.1140094236,
				"element": "C" 
			},
			{
				"x": -2.9452150964,
				"y": -0.7094296543,
				"z": 2.5655634039,
				"element": "O" 
			},
			{
				"x": -0.7700252343,
				"y": -1.2593172909,
				"z": 2.9365383684,
				"element": "N" 
			},
			{
				"x": 0.5012490426,
				"y": -1.4713974593,
				"z": 2.4704112304,
				"element": "C" 
			},
			{
				"x": 0.8460009038,
				"y": -1.3332793531,
				"z": 1.1418771596,
				"element": "C" 
			},
			{
				"x": 2.2455678981,
				"y": -1.6483757936,
				"z": 0.9039138618,
				"element": "C" 
			},
			{
				"x": 2.8735753801,
				"y": -2.0030349336,
				"z": 2.0659643348,
				"element": "C" 
			},
			{
				"x": 1.8261761437,
				"y": -1.9753698081,
				"z": 3.4681749599,
				"element": "S" 
			},
			{
				"x": 2.9830490098,
				"y": -1.6109359696,
				"z": -0.3833275525,
				"element": "C" 
			},
			{
				"x": 3.8480815929,
				"y": -2.6678183678,
				"z": -0.7119354507,
				"element": "C" 
			},
			{
				"x": 4.6120718195,
				"y": -2.6290526343,
				"z": -1.8780731746,
				"element": "C" 
			},
			{
				"x": 4.5231793282,
				"y": -1.5317719078,
				"z": -2.7351524983,
				"element": "C" 
			},
			{
				"x": 3.6630763093,
				"y": -0.4773595449,
				"z": -2.4194818845,
				"element": "C" 
			},
			{
				"x": 2.8977388575,
				"y": -0.514513707,
				"z": -1.2560763284,
				"element": "C" 
			},
			{
				"x": -0.1965203534,
				"y": -0.980313892,
				"z": 0.1793997689,
				"element": "C" 
			},
			{
				"x": -0.0454143357,
				"y": -0.8602577174,
				"z": -1.0234288467,
				"element": "O" 
			},
			{
				"x": -5.4108917121,
				"y": 0.6297698336,
				"z": -2.5540344749,
				"element": "H" 
			},
			{
				"x": -4.3455272101,
				"y": -1.6082560436,
				"z": -2.7595681533,
				"element": "H" 
			},
			{
				"x": -2.5183717579,
				"y": -2.2590894827,
				"z": -1.2054986418,
				"element": "H" 
			},
			{
				"x": -2.8152197515,
				"y": 1.5522691984,
				"z": 0.7452305009,
				"element": "H" 
			},
			{
				"x": -1.0116093783,
				"y": -1.3590810542,
				"z": 3.9124843533,
				"element": "H" 
			},
			{
				"x": 3.9177287179,
				"y": -2.245024749,
				"z": 2.2003017843,
				"element": "H" 
			},
			{
				"x": 3.9031751093,
				"y": -3.5323784903,
				"z": -0.0568045914,
				"element": "H" 
			},
			{
				"x": 5.2695293611,
				"y": -3.4595592607,
				"z": -2.1189169543,
				"element": "H" 
			},
			{
				"x": 5.114475944,
				"y": -1.5001669311,
				"z": -3.6457618524,
				"element": "H" 
			},
			{
				"x": 3.5860371462,
				"y": 0.3792373733,
				"z": -3.0827613904,
				"element": "H" 
			},
			{
				"x": 2.2281535918,
				"y": 0.3050109863,
				"z": -1.0253025368,
				"element": "H" 
			}
		],
		 "valence_orbital": [ 
			{
				"type": "occ",
				"energy": -0.26701,
				"method": "rhf"
			},
			{
				"type": "occ",
				"energy": -0.2578,
				"method": "rhf"
			},
			{
				"type": "occ",
				"energy": -0.25081,
				"method": "rhf"
			},
			{
				"type": "occ",
				"energy": -0.24746,
				"method": "rhf"
			},
			{
				"type": "occ",
				"energy": -0.22553,
				"method": "rhf"
			},
			{
				"type": "unocc",
				"energy": -0.04722,
				"method": "rhf"
			},
			{
				"type": "unocc",
				"energy": -0.03407,
				"method": "rhf"
			},
			{
				"type": "unocc",
				"energy": -0.02673,
				"method": "rhf"
			},
			{
				"type": "unocc",
				"energy": -0.01798,
				"method": "rhf"
			},
			{
				"type": "unocc",
				"energy": -0.01452,
				"method": "rhf"
			}
		],
		"cosmo_sigma_profile": { 
			"-0.025": 0.0,
			"-0.024": 0.0,
			"-0.023": 0.0,
			"-0.022": 0.0,
			"-0.021": 0.0,
			"-0.02": 0.0,
			"-0.019": 0.0,
			"-0.018": 0.702208530693,
			"-0.017": 1.39638752797,
			"-0.016": 0.980783946421,
			"-0.015": 1.29263621435,
			"-0.014": 1.20580853926,
			"-0.013": 0.813789750114,
			"-0.012": 1.23555533007,
			"-0.011": 0.776013175953,
			"-0.01": 0.816805110105,
			"-0.009": 2.80001473007,
			"-0.008": 4.58259608812,
			"-0.007": 10.1381819372,
			"-0.006": 17.7296309839,
			"-0.005": 25.0858523039,
			"-0.004": 25.3841626266,
			"-0.003": 25.0125022706,
			"-0.002": 22.230770013,
			"-0.001": 23.7324433384,
			"0.0": 27.4215407869,
			"0.001": 30.7839247756,
			"0.002": 42.5034301121,
			"0.003": 45.3111995956,
			"0.004": 12.6078500753,
			"0.005": 12.2672994386,
			"0.006": 7.34678001975,
			"0.007": 4.41868456184,
			"0.008": 4.27065373529,
			"0.009": 3.22688850833,
			"0.01": 4.11285340713,
			"0.011": 5.65406971672,
			"0.012": 9.39841995394,
			"0.013": 1.53290217418,
			"0.014": 0.0,
			"0.015": 0.0,
			"0.016": 0.0,
			"0.017": 0.0,
			"0.018": 0.0,
			"0.019": 0.0,
			"0.02": 0.0,
			"0.021": 0.0,
			"0.022": 0.0,
			"0.023": 0.0,
			"0.024": 0.0,
			"0.025": 0.0
		}
	}
}
