{
	 "smiles": "CCCCCCCCCCCCCC=C", 
	 "Tm": 269.75, 
	 "num_atms": 45, 
	 "gaussian": { 
		 "optdone": 1, 
		 "sigma_profile": "yes", 
		 "theory": "DFT", 
		 "functional": "B3LYP", 
		 "basiset": "6-31G**", 
		 "properties": { 
			 "R2extent": 6441.2304, 
			 "electric_dipole_moment_norm": 0.343560969844, 
			 "electric_quadrupole_moment_norm": 1.7907215166, 
			 "total_energy": -589.689094925, 
			 "HOMO_LUMO_gap": 0.2688, 
			 "cosmo_polarized_energy": -1.91, 
			 "cosmo_cavitation_energy": 43.98, 
			 "cosmo_dispersion_energy": -28.64, 
			 "cosmo_repulsion_energy": 2.33, 
			 "cosmo_total_nonelectrostatic_energy": 17.67, 
			 "SMD_solvation_energy": 6.36 
		},
		"coords": [
			{
				"x": 0.1759825765,
				"y": 3.303211073,
				"z": 1.9873677703,
				"element": "C" 
			},
			{
				"x": -1.3474993462,
				"y": 3.4767111967,
				"z": 1.9635332123,
				"element": "C" 
			},
			{
				"x": -2.0443360517,
				"y": 2.8390466193,
				"z": 0.7495055821,
				"element": "C" 
			},
			{
				"x": -1.6912273473,
				"y": 3.4857483996,
				"z": -0.5983239146,
				"element": "C" 
			},
			{
				"x": -2.5212912704,
				"y": 2.9700214852,
				"z": -1.7871819826,
				"element": "C" 
			},
			{
				"x": -2.3548852557,
				"y": 1.4884462718,
				"z": -2.1797893096,
				"element": "C" 
			},
			{
				"x": -0.9651790358,
				"y": 1.0957604081,
				"z": -2.7331791593,
				"element": "C" 
			},
			{
				"x": 0.0597161508,
				"y": 0.5703608062,
				"z": -1.7095023487,
				"element": "C" 
			},
			{
				"x": -0.2672303454,
				"y": -0.8198068579,
				"z": -1.1445188219,
				"element": "C" 
			},
			{
				"x": 0.7904998371,
				"y": -1.3257163831,
				"z": -0.1531583055,
				"element": "C" 
			},
			{
				"x": 0.4603458756,
				"y": -2.6798937907,
				"z": 0.5009756453,
				"element": "C" 
			},
			{
				"x": 0.4022040572,
				"y": -3.9116627401,
				"z": -0.4230236994,
				"element": "C" 
			},
			{
				"x": 1.7600948956,
				"y": -4.457115298,
				"z": -0.9180469822,
				"element": "C" 
			},
			{
				"x": 2.4584390254,
				"y": -3.631537546,
				"z": -1.9658761637,
				"element": "C" 
			},
			{
				"x": 3.7354170536,
				"y": -3.2472200652,
				"z": -1.9265910878,
				"element": "C" 
			},
			{
				"x": 0.6077920971,
				"y": 3.7341233571,
				"z": 2.8968649474,
				"element": "H" 
			},
			{
				"x": 0.452590656,
				"y": 2.2424240466,
				"z": 1.960314339,
				"element": "H" 
			},
			{
				"x": 0.6568302004,
				"y": 3.7918720383,
				"z": 1.1337860256,
				"element": "H" 
			},
			{
				"x": -1.5927962662,
				"y": 4.5473244429,
				"z": 1.99776548,
				"element": "H" 
			},
			{
				"x": -1.7685530162,
				"y": 3.0408859682,
				"z": 2.8787575777,
				"element": "H" 
			},
			{
				"x": -1.8076477736,
				"y": 1.7666195877,
				"z": 0.7261419457,
				"element": "H" 
			},
			{
				"x": -3.1319184883,
				"y": 2.9048617344,
				"z": 0.8935847841,
				"element": "H" 
			},
			{
				"x": -1.8534212893,
				"y": 4.5698572308,
				"z": -0.515562771,
				"element": "H" 
			},
			{
				"x": -0.6226250517,
				"y": 3.3615430464,
				"z": -0.8109225791,
				"element": "H" 
			},
			{
				"x": -3.5834842988,
				"y": 3.1500551465,
				"z": -1.5689865528,
				"element": "H" 
			},
			{
				"x": -2.2880437863,
				"y": 3.5846460222,
				"z": -2.667724348,
				"element": "H" 
			},
			{
				"x": -3.106866182,
				"y": 1.2772077927,
				"z": -2.9504160947,
				"element": "H" 
			},
			{
				"x": -2.6200835675,
				"y": 0.8428757654,
				"z": -1.3333156604,
				"element": "H" 
			},
			{
				"x": -0.5378303133,
				"y": 1.9612897792,
				"z": -3.25777693,
				"element": "H" 
			},
			{
				"x": -1.0948384215,
				"y": 0.321294601,
				"z": -3.5013184837,
				"element": "H" 
			},
			{
				"x": 0.1682260418,
				"y": 1.2803184229,
				"z": -0.8802100258,
				"element": "H" 
			},
			{
				"x": 1.0442698231,
				"y": 0.5242736212,
				"z": -2.1948979646,
				"element": "H" 
			},
			{
				"x": -1.2466980251,
				"y": -0.8034087679,
				"z": -0.6461059379,
				"element": "H" 
			},
			{
				"x": -0.3670277783,
				"y": -1.5242999979,
				"z": -1.981666092,
				"element": "H" 
			},
			{
				"x": 0.9013734613,
				"y": -0.5810375788,
				"z": 0.6476722869,
				"element": "H" 
			},
			{
				"x": 1.7632770774,
				"y": -1.3797912201,
				"z": -0.6544927674,
				"element": "H" 
			},
			{
				"x": -0.5106699592,
				"y": -2.5888754323,
				"z": 1.0077746958,
				"element": "H" 
			},
			{
				"x": 1.1934884874,
				"y": -2.877920117,
				"z": 1.2951804881,
				"element": "H" 
			},
			{
				"x": -0.2432772613,
				"y": -3.708120671,
				"z": -1.287652732,
				"element": "H" 
			},
			{
				"x": -0.0921644063,
				"y": -4.7210214684,
				"z": 0.1288899735,
				"element": "H" 
			},
			{
				"x": 2.431315447,
				"y": -4.6111197461,
				"z": -0.062978411,
				"element": "H" 
			},
			{
				"x": 1.5748295579,
				"y": -5.4543862567,
				"z": -1.3454180964,
				"element": "H" 
			},
			{
				"x": 1.854532443,
				"y": -3.3639405039,
				"z": -2.835215623,
				"element": "H" 
			},
			{
				"x": 4.3782313555,
				"y": -3.4914345902,
				"z": -1.0836986772,
				"element": "H" 
			},
			{
				"x": 4.1869384179,
				"y": -2.6774698322,
				"z": -2.733563231,
				"element": "H" 
			}
		],
		 "valence_orbital": [ 
			{
				"type": "occ",
				"energy": -0.30494,
				"method": "rhf"
			},
			{
				"type": "occ",
				"energy": -0.2994,
				"method": "rhf"
			},
			{
				"type": "occ",
				"energy": -0.29701,
				"method": "rhf"
			},
			{
				"type": "occ",
				"energy": -0.29516,
				"method": "rhf"
			},
			{
				"type": "occ",
				"energy": -0.24671,
				"method": "rhf"
			},
			{
				"type": "unocc",
				"energy": 0.02209,
				"method": "rhf"
			},
			{
				"type": "unocc",
				"energy": 0.07002,
				"method": "rhf"
			},
			{
				"type": "unocc",
				"energy": 0.09118,
				"method": "rhf"
			},
			{
				"type": "unocc",
				"energy": 0.093,
				"method": "rhf"
			},
			{
				"type": "unocc",
				"energy": 0.10787,
				"method": "rhf"
			}
		],
		"cosmo_sigma_profile": { 
			"-0.025": 0.0,
			"-0.024": 0.0,
			"-0.023": 0.0,
			"-0.022": 0.0,
			"-0.021": 0.0,
			"-0.02": 0.0,
			"-0.019": 0.0,
			"-0.018": 0.0,
			"-0.017": 0.0,
			"-0.016": 0.0,
			"-0.015": 0.0,
			"-0.014": 0.0,
			"-0.013": 0.0,
			"-0.012": 0.0,
			"-0.011": 0.0,
			"-0.01": 0.0,
			"-0.009": 0.0,
			"-0.008": 0.0,
			"-0.007": 0.0,
			"-0.006": 0.0,
			"-0.005": 0.675997472962,
			"-0.004": 5.3435225811,
			"-0.003": 11.0340154043,
			"-0.002": 41.9152123391,
			"-0.001": 75.1248738498,
			"0.0": 81.3235404974,
			"0.001": 68.8023764517,
			"0.002": 33.8100204175,
			"0.003": 6.67487742406,
			"0.004": 6.10320968528,
			"0.005": 3.51726675681,
			"0.006": 1.28369116917,
			"0.007": 1.32621529412,
			"0.008": 0.160313369584,
			"0.009": 0.0,
			"0.01": 0.0,
			"0.011": 0.0,
			"0.012": 0.0,
			"0.013": 0.0,
			"0.014": 0.0,
			"0.015": 0.0,
			"0.016": 0.0,
			"0.017": 0.0,
			"0.018": 0.0,
			"0.019": 0.0,
			"0.02": 0.0,
			"0.021": 0.0,
			"0.022": 0.0,
			"0.023": 0.0,
			"0.024": 0.0,
			"0.025": 0.0
		}
	}
}
