{
	 "smiles": "CC(=O)C1=C(C)C2=C(S1)N=C(CCl)NC2=O", 
	 "Tm": 521.15, 
	 "num_atms": 25, 
	 "gaussian": { 
		 "optdone": 1, 
		 "sigma_profile": "yes", 
		 "theory": "DFT", 
		 "functional": "B3LYP", 
		 "basiset": "6-31G**", 
		 "properties": { 
			 "R2extent": 6108.0391, 
			 "electric_dipole_moment_norm": 4.04548955505, 
			 "electric_quadrupole_moment_norm": 8.18791398343, 
			 "total_energy": -1504.84888853, 
			 "HOMO_LUMO_gap": 0.15289, 
			 "cosmo_polarized_energy": -15.25, 
			 "cosmo_cavitation_energy": 32.53, 
			 "cosmo_dispersion_energy": -24.55, 
			 "cosmo_repulsion_energy": 1.86, 
			 "cosmo_total_nonelectrostatic_energy": 9.84, 
			 "SMD_solvation_energy": 4.5 
		},
		"coords": [
			{
				"x": -0.254890943,
				"y": -0.7993096526,
				"z": 4.1951389323,
				"element": "C" 
			},
			{
				"x": 0.6129724964,
				"y": -0.4204467791,
				"z": 3.0055642941,
				"element": "C" 
			},
			{
				"x": 1.8343905797,
				"y": -0.4095189443,
				"z": 3.0950315451,
				"element": "O" 
			},
			{
				"x": -0.0547744363,
				"y": -0.0651621988,
				"z": 1.7354739417,
				"element": "C" 
			},
			{
				"x": 0.5626744387,
				"y": 0.300937362,
				"z": 0.5480582272,
				"element": "C" 
			},
			{
				"x": 2.0501950794,
				"y": 0.3985219013,
				"z": 0.3487381244,
				"element": "C" 
			},
			{
				"x": -0.40454716,
				"y": 0.5771130633,
				"z": -0.473400378,
				"element": "C" 
			},
			{
				"x": -1.7285504194,
				"y": 0.4163183626,
				"z": -0.0503875988,
				"element": "C" 
			},
			{
				"x": -1.8153808207,
				"y": -0.0756270568,
				"z": 1.6082064518,
				"element": "S" 
			},
			{
				"x": -2.8567421736,
				"y": 0.5985704618,
				"z": -0.7938997449,
				"element": "N" 
			},
			{
				"x": -2.647367415,
				"y": 0.9762330653,
				"z": -2.0237017831,
				"element": "C" 
			},
			{
				"x": -3.8506983117,
				"y": 1.2919334922,
				"z": -2.8734407968,
				"element": "C" 
			},
			{
				"x": -3.6878826702,
				"y": 0.7150284061,
				"z": -4.5842272731,
				"element": "Cl" 
			},
			{
				"x": -1.4050933724,
				"y": 1.1678650643,
				"z": -2.5495384254,
				"element": "N" 
			},
			{
				"x": -0.1802123744,
				"y": 0.9825265346,
				"z": -1.8561560668,
				"element": "C" 
			},
			{
				"x": 0.8743276405,
				"y": 1.1684598392,
				"z": -2.4442197277,
				"element": "O" 
			},
			{
				"x": 0.3940359069,
				"y": -1.0295299814,
				"z": 5.0405652896,
				"element": "H" 
			},
			{
				"x": -0.9291495457,
				"y": 0.0204476974,
				"z": 4.4683083791,
				"element": "H" 
			},
			{
				"x": -0.8768492618,
				"y": -1.6724233115,
				"z": 3.9670114996,
				"element": "H" 
			},
			{
				"x": 2.5291460659,
				"y": -0.5591844994,
				"z": 0.5710525039,
				"element": "H" 
			},
			{
				"x": 2.483855011,
				"y": 1.1147408471,
				"z": 1.0524785724,
				"element": "H" 
			},
			{
				"x": 2.2756870446,
				"y": 0.6985638109,
				"z": -0.6733702276,
				"element": "H" 
			},
			{
				"x": -4.7223208991,
				"y": 0.8145056242,
				"z": -2.4308328138,
				"element": "H" 
			},
			{
				"x": -4.0112631632,
				"y": 2.3714068496,
				"z": -2.9299468468,
				"element": "H" 
			},
			{
				"x": -1.3059612965,
				"y": 1.4062300418,
				"z": -3.5310060787,
				"element": "H" 
			}
		],
		 "valence_orbital": [ 
			{
				"type": "occ",
				"energy": -0.30622,
				"method": "rhf"
			},
			{
				"type": "occ",
				"energy": -0.27859,
				"method": "rhf"
			},
			{
				"type": "occ",
				"energy": -0.27079,
				"method": "rhf"
			},
			{
				"type": "occ",
				"energy": -0.25201,
				"method": "rhf"
			},
			{
				"type": "occ",
				"energy": -0.23579,
				"method": "rhf"
			},
			{
				"type": "unocc",
				"energy": -0.0829,
				"method": "rhf"
			},
			{
				"type": "unocc",
				"energy": -0.03862,
				"method": "rhf"
			},
			{
				"type": "unocc",
				"energy": -0.02154,
				"method": "rhf"
			},
			{
				"type": "unocc",
				"energy": 0.00659,
				"method": "rhf"
			},
			{
				"type": "unocc",
				"energy": 0.00926,
				"method": "rhf"
			}
		],
		"cosmo_sigma_profile": { 
			"-0.025": 0.0,
			"-0.024": 0.0,
			"-0.023": 0.0,
			"-0.022": 0.0,
			"-0.021": 0.0,
			"-0.02": 0.0,
			"-0.019": 0.0,
			"-0.018": 0.0,
			"-0.017": 0.0,
			"-0.016": 0.0,
			"-0.015": 0.315033432667,
			"-0.014": 0.961525907766,
			"-0.013": 0.709906728829,
			"-0.012": 1.18822410286,
			"-0.011": 1.58557968393,
			"-0.01": 4.75404720973,
			"-0.009": 4.29530011557,
			"-0.008": 4.71317783329,
			"-0.007": 4.66414741161,
			"-0.006": 10.884865651,
			"-0.005": 13.3384001576,
			"-0.004": 16.654877466,
			"-0.003": 17.9047960457,
			"-0.002": 19.3507926936,
			"-0.001": 28.9119794613,
			"0.0": 28.3896988118,
			"0.001": 21.5141214738,
			"0.002": 14.8918263552,
			"0.003": 11.4263899616,
			"0.004": 10.0675593385,
			"0.005": 11.2711971028,
			"0.006": 5.38003968892,
			"0.007": 3.05506794006,
			"0.008": 3.78995898161,
			"0.009": 3.86892272795,
			"0.01": 4.7672077707,
			"0.011": 5.60335527182,
			"0.012": 7.59784852325,
			"0.013": 2.31597989813,
			"0.014": 0.113896672352,
			"0.015": 0.0,
			"0.016": 0.0,
			"0.017": 0.0,
			"0.018": 0.0,
			"0.019": 0.0,
			"0.02": 0.0,
			"0.021": 0.0,
			"0.022": 0.0,
			"0.023": 0.0,
			"0.024": 0.0,
			"0.025": 0.0
		}
	}
}
