{
	 "smiles": "SCC1=CC=CC=C1", 
	 "Tm": 243.65, 
	 "num_atms": 16, 
	 "gaussian": { 
		 "optdone": 1, 
		 "sigma_profile": "yes", 
		 "theory": "DFT", 
		 "functional": "B3LYP", 
		 "basiset": "6-31G**", 
		 "properties": { 
			 "R2extent": 1485.3032, 
			 "electric_dipole_moment_norm": 1.69954613059, 
			 "electric_quadrupole_moment_norm": 7.16707614582, 
			 "total_energy": -669.75425449, 
			 "HOMO_LUMO_gap": 0.21765, 
			 "cosmo_polarized_energy": -5.99, 
			 "cosmo_cavitation_energy": 21.13, 
			 "cosmo_dispersion_energy": -15.98, 
			 "cosmo_repulsion_energy": 1.29, 
			 "cosmo_total_nonelectrostatic_energy": 6.44, 
			 "SMD_solvation_energy": 3.05 
		},
		"coords": [
			{
				"x": 2.4020120362,
				"y": 1.4476672466,
				"z": -0.8268620408,
				"element": "S" 
			},
			{
				"x": 0.6133639853,
				"y": 0.9505549865,
				"z": -0.829807572,
				"element": "C" 
			},
			{
				"x": 0.3022119003,
				"y": -0.2774126985,
				"z": -0.0129394913,
				"element": "C" 
			},
			{
				"x": -0.0101899898,
				"y": -1.4858534775,
				"z": -0.6475654439,
				"element": "C" 
			},
			{
				"x": -0.3003535182,
				"y": -2.6305073623,
				"z": 0.0985397253,
				"element": "C" 
			},
			{
				"x": -0.282312048,
				"y": -2.5787934992,
				"z": 1.492097278,
				"element": "C" 
			},
			{
				"x": 0.0278764745,
				"y": -1.3769361426,
				"z": 2.1353898237,
				"element": "C" 
			},
			{
				"x": 0.3191612424,
				"y": -0.2372132768,
				"z": 1.3888748921,
				"element": "C" 
			},
			{
				"x": 2.8900714533,
				"y": 0.2603977391,
				"z": -1.2391513745,
				"element": "H" 
			},
			{
				"x": 0.105595648,
				"y": 1.83247845,
				"z": -0.4286982582,
				"element": "H" 
			},
			{
				"x": 0.2869555789,
				"y": 0.82456677,
				"z": -1.864597607,
				"element": "H" 
			},
			{
				"x": -0.0313718345,
				"y": -1.5300185391,
				"z": -1.7340512274,
				"element": "H" 
			},
			{
				"x": -0.5425526895,
				"y": -3.5592739603,
				"z": -0.4102851466,
				"element": "H" 
			},
			{
				"x": -0.5093972001,
				"y": -3.4667854852,
				"z": 2.0749009606,
				"element": "H" 
			},
			{
				"x": 0.041491701,
				"y": -1.3288515621,
				"z": 3.2206013491,
				"element": "H" 
			},
			{
				"x": 0.5706372601,
				"y": 0.6923808114,
				"z": 1.892754133,
				"element": "H" 
			}
		],
		 "valence_orbital": [ 
			{
				"type": "occ",
				"energy": -0.34399,
				"method": "rhf"
			},
			{
				"type": "occ",
				"energy": -0.32779,
				"method": "rhf"
			},
			{
				"type": "occ",
				"energy": -0.25425,
				"method": "rhf"
			},
			{
				"type": "occ",
				"energy": -0.25005,
				"method": "rhf"
			},
			{
				"type": "occ",
				"energy": -0.23204,
				"method": "rhf"
			},
			{
				"type": "unocc",
				"energy": -0.01439,
				"method": "rhf"
			},
			{
				"type": "unocc",
				"energy": -0.00383,
				"method": "rhf"
			},
			{
				"type": "unocc",
				"energy": 0.03338,
				"method": "rhf"
			},
			{
				"type": "unocc",
				"energy": 0.07784,
				"method": "rhf"
			},
			{
				"type": "unocc",
				"energy": 0.08898,
				"method": "rhf"
			}
		],
		"cosmo_sigma_profile": { 
			"-0.025": 0.0,
			"-0.024": 0.0,
			"-0.023": 0.0,
			"-0.022": 0.0,
			"-0.021": 0.0,
			"-0.02": 0.0,
			"-0.019": 0.0,
			"-0.018": 0.0,
			"-0.017": 0.0,
			"-0.016": 0.0,
			"-0.015": 0.0,
			"-0.014": 0.0,
			"-0.013": 0.0,
			"-0.012": 0.0,
			"-0.011": 0.0,
			"-0.01": 0.0,
			"-0.009": 0.890567694511,
			"-0.008": 1.90768591839,
			"-0.007": 2.25533836865,
			"-0.006": 10.3130311371,
			"-0.005": 17.4927436004,
			"-0.004": 16.3513792649,
			"-0.003": 16.2884331891,
			"-0.002": 10.7248493348,
			"-0.001": 10.82388206,
			"0.0": 8.47769695397,
			"0.001": 9.32845064917,
			"0.002": 9.16826819898,
			"0.003": 9.68017602723,
			"0.004": 9.84570026691,
			"0.005": 12.8234101127,
			"0.006": 12.3305197461,
			"0.007": 3.79044244139,
			"0.008": 2.09846194705,
			"0.009": 2.94861193689,
			"0.01": 2.00328777785,
			"0.011": 0.889173472878,
			"0.012": 0.0,
			"0.013": 0.0,
			"0.014": 0.0,
			"0.015": 0.0,
			"0.016": 0.0,
			"0.017": 0.0,
			"0.018": 0.0,
			"0.019": 0.0,
			"0.02": 0.0,
			"0.021": 0.0,
			"0.022": 0.0,
			"0.023": 0.0,
			"0.024": 0.0,
			"0.025": 0.0
		}
	}
}
