{
	 "smiles": "CC1=NC2=CC=C(C=C2C=C1)C(O)=O", 
	 "Tm": 523.15, 
	 "num_atms": 23, 
	 "gaussian": { 
		 "optdone": 1, 
		 "sigma_profile": "yes", 
		 "theory": "DFT", 
		 "functional": "B3LYP", 
		 "basiset": "6-31G**", 
		 "properties": { 
			 "R2extent": 3407.154, 
			 "electric_dipole_moment_norm": 5.7163745801, 
			 "electric_quadrupole_moment_norm": 12.5464227555, 
			 "total_energy": -629.818563933, 
			 "HOMO_LUMO_gap": 0.177, 
			 "cosmo_polarized_energy": -16.79, 
			 "cosmo_cavitation_energy": 27.59, 
			 "cosmo_dispersion_energy": -20.46, 
			 "cosmo_repulsion_energy": 1.59, 
			 "cosmo_total_nonelectrostatic_energy": 8.71, 
			 "SMD_solvation_energy": 4.33 
		},
		"coords": [
			{
				"x": 0.3716397404,
				"y": 3.0035705766,
				"z": 3.2808685389,
				"element": "C" 
			},
			{
				"x": 0.2508849354,
				"y": 2.228226235,
				"z": 1.9937144505,
				"element": "C" 
			},
			{
				"x": 0.794140382,
				"y": 1.024521319,
				"z": 1.9516019197,
				"element": "N" 
			},
			{
				"x": 0.6992087348,
				"y": 0.3024712567,
				"z": 0.797393148,
				"element": "C" 
			},
			{
				"x": 1.2711426625,
				"y": -0.9979238536,
				"z": 0.7615425561,
				"element": "C" 
			},
			{
				"x": 1.1977451659,
				"y": -1.7648367625,
				"z": -0.3759268253,
				"element": "C" 
			},
			{
				"x": 0.5685611911,
				"y": -1.2651770237,
				"z": -1.5488097035,
				"element": "C" 
			},
			{
				"x": -0.0088499253,
				"y": -0.0071042063,
				"z": -1.5336903048,
				"element": "C" 
			},
			{
				"x": 0.0404360563,
				"y": 0.7982905318,
				"z": -0.3701688604,
				"element": "C" 
			},
			{
				"x": -0.5377062312,
				"y": 2.0928649336,
				"z": -0.2889692814,
				"element": "C" 
			},
			{
				"x": -0.4337283771,
				"y": 2.8021664434,
				"z": 0.8794552779,
				"element": "C" 
			},
			{
				"x": 0.5193132452,
				"y": -2.1683282555,
				"z": -2.7437769984,
				"element": "C" 
			},
			{
				"x": 0.3205465694,
				"y": -1.5756797513,
				"z": -3.9528967287,
				"element": "O" 
			},
			{
				"x": 0.6436962514,
				"y": -3.3682168893,
				"z": -2.6721746779,
				"element": "O" 
			},
			{
				"x": 0.9232449308,
				"y": 2.4160554243,
				"z": 4.0157283005,
				"element": "H" 
			},
			{
				"x": 0.89385765,
				"y": 3.9539358617,
				"z": 3.1197844405,
				"element": "H" 
			},
			{
				"x": -0.6171910326,
				"y": 3.2450804607,
				"z": 3.6880280018,
				"element": "H" 
			},
			{
				"x": 1.7573961595,
				"y": -1.3583875868,
				"z": 1.661946734,
				"element": "H" 
			},
			{
				"x": 1.6159537803,
				"y": -2.7647528074,
				"z": -0.4116183424,
				"element": "H" 
			},
			{
				"x": -0.5489338137,
				"y": 0.3760907564,
				"z": -2.3975753008,
				"element": "H" 
			},
			{
				"x": -1.0536115114,
				"y": 2.5063733777,
				"z": -1.1521881158,
				"element": "H" 
			},
			{
				"x": -0.8643466521,
				"y": 3.7948893495,
				"z": 0.9704078063,
				"element": "H" 
			},
			{
				"x": 0.4207000885,
				"y": -0.61722939,
				"z": -3.8713760348,
				"element": "H" 
			}
		],
		 "valence_orbital": [ 
			{
				"type": "occ",
				"energy": -0.31592,
				"method": "rhf"
			},
			{
				"type": "occ",
				"energy": -0.27634,
				"method": "rhf"
			},
			{
				"type": "occ",
				"energy": -0.26421,
				"method": "rhf"
			},
			{
				"type": "occ",
				"energy": -0.25873,
				"method": "rhf"
			},
			{
				"type": "occ",
				"energy": -0.24889,
				"method": "rhf"
			},
			{
				"type": "unocc",
				"energy": -0.07189,
				"method": "rhf"
			},
			{
				"type": "unocc",
				"energy": -0.04431,
				"method": "rhf"
			},
			{
				"type": "unocc",
				"energy": -0.00147,
				"method": "rhf"
			},
			{
				"type": "unocc",
				"energy": 0.03031,
				"method": "rhf"
			},
			{
				"type": "unocc",
				"energy": 0.05967,
				"method": "rhf"
			}
		],
		"cosmo_sigma_profile": { 
			"-0.025": 0.0,
			"-0.024": 0.0,
			"-0.023": 0.0,
			"-0.022": 0.0,
			"-0.021": 0.0,
			"-0.02": 0.0,
			"-0.019": 0.31645440295,
			"-0.018": 0.798750029367,
			"-0.017": 1.03082238344,
			"-0.016": 1.08493622266,
			"-0.015": 1.09531907972,
			"-0.014": 0.65530848016,
			"-0.013": 1.11412553053,
			"-0.012": 1.09462683722,
			"-0.011": 1.02357776613,
			"-0.01": 1.43328479854,
			"-0.009": 2.11931837358,
			"-0.008": 4.17530322241,
			"-0.007": 6.08435948452,
			"-0.006": 9.01356244754,
			"-0.005": 13.2002334968,
			"-0.004": 15.4271037803,
			"-0.003": 14.6721564468,
			"-0.002": 14.5637051884,
			"-0.001": 15.1834968751,
			"0.0": 17.621776735,
			"0.001": 22.4784840097,
			"0.002": 20.3674455601,
			"0.003": 10.3999017039,
			"0.004": 4.12378990219,
			"0.005": 4.59142457261,
			"0.006": 4.32010258983,
			"0.007": 3.65418362441,
			"0.008": 4.41164023897,
			"0.009": 3.82121964135,
			"0.01": 6.08792183892,
			"0.011": 5.83709283714,
			"0.012": 6.04990477839,
			"0.013": 1.87038245176,
			"0.014": 0.72156302569,
			"0.015": 0.62955802891,
			"0.016": 0.0,
			"0.017": 0.0,
			"0.018": 0.0,
			"0.019": 0.0,
			"0.02": 0.0,
			"0.021": 0.0,
			"0.022": 0.0,
			"0.023": 0.0,
			"0.024": 0.0,
			"0.025": 0.0
		}
	}
}
