{
	 "smiles": "CC1=CC=CC=C1C1=CC2=CC=CC=C2C2(OCCO2)O1", 
	 "Tm": 348.15, 
	 "num_atms": 37, 
	 "gaussian": { 
		 "optdone": 1, 
		 "sigma_profile": "yes", 
		 "theory": "DFT", 
		 "functional": "B3LYP", 
		 "basiset": "6-31G**", 
		 "properties": { 
			 "R2extent": 6289.5058, 
			 "electric_dipole_moment_norm": 1.61566982394, 
			 "electric_quadrupole_moment_norm": 16.4070589638, 
			 "total_energy": -921.216451907, 
			 "HOMO_LUMO_gap": 0.16181, 
			 "cosmo_polarized_energy": -11.19, 
			 "cosmo_cavitation_energy": 39.28, 
			 "cosmo_dispersion_energy": -27.8, 
			 "cosmo_repulsion_energy": 2.07, 
			 "cosmo_total_nonelectrostatic_energy": 13.55, 
			 "SMD_solvation_energy": 6.22 
		},
		"coords": [
			{
				"x": -1.2344857036,
				"y": 0.831155308,
				"z": -2.0388261639,
				"element": "C" 
			},
			{
				"x": -0.2270555927,
				"y": -0.1823765571,
				"z": -2.5333745826,
				"element": "C" 
			},
			{
				"x": -0.2415909738,
				"y": -0.5529766895,
				"z": -3.8836002738,
				"element": "C" 
			},
			{
				"x": 0.6745176979,
				"y": -1.4635165896,
				"z": -4.4101383842,
				"element": "C" 
			},
			{
				"x": 1.6425952643,
				"y": -2.0262772693,
				"z": -3.5796379533,
				"element": "C" 
			},
			{
				"x": 1.6749753778,
				"y": -1.6743498202,
				"z": -2.2327955533,
				"element": "C" 
			},
			{
				"x": 0.7555660977,
				"y": -0.7587886409,
				"z": -1.6930760235,
				"element": "C" 
			},
			{
				"x": 0.8750161071,
				"y": -0.417033134,
				"z": -0.2581008044,
				"element": "C" 
			},
			{
				"x": 2.0412794833,
				"y": -0.1560541754,
				"z": 0.3745324126,
				"element": "C" 
			},
			{
				"x": 2.0680069744,
				"y": 0.0430260782,
				"z": 1.8091654493,
				"element": "C" 
			},
			{
				"x": 3.2618276146,
				"y": 0.0911303628,
				"z": 2.5519298614,
				"element": "C" 
			},
			{
				"x": 3.2292773626,
				"y": 0.228032305,
				"z": 3.9354873823,
				"element": "C" 
			},
			{
				"x": 2.005040508,
				"y": 0.3171307152,
				"z": 4.6082912098,
				"element": "C" 
			},
			{
				"x": 0.8141384866,
				"y": 0.2850597562,
				"z": 3.8845013573,
				"element": "C" 
			},
			{
				"x": 0.8434515622,
				"y": 0.1539497714,
				"z": 2.4961756333,
				"element": "C" 
			},
			{
				"x": -0.4252013772,
				"y": 0.2243461615,
				"z": 1.6877089256,
				"element": "C" 
			},
			{
				"x": -1.5016405673,
				"y": -0.3542950288,
				"z": 2.352375215,
				"element": "O" 
			},
			{
				"x": -2.6801619465,
				"y": 0.3003720613,
				"z": 1.8734121608,
				"element": "C" 
			},
			{
				"x": -2.1881507015,
				"y": 1.732854699,
				"z": 1.6351994587,
				"element": "C" 
			},
			{
				"x": -0.7801680934,
				"y": 1.5762353988,
				"z": 1.4323838436,
				"element": "O" 
			},
			{
				"x": -0.3134115814,
				"y": -0.445850091,
				"z": 0.4233553209,
				"element": "O" 
			},
			{
				"x": -0.7989290156,
				"y": 1.5217422572,
				"z": -1.3127853989,
				"element": "H" 
			},
			{
				"x": -2.0779156352,
				"y": 0.3383582994,
				"z": -1.5424851863,
				"element": "H" 
			},
			{
				"x": -1.6322677644,
				"y": 1.410282651,
				"z": -2.8773056655,
				"element": "H" 
			},
			{
				"x": -0.9850783402,
				"y": -0.104779823,
				"z": -4.5382727449,
				"element": "H" 
			},
			{
				"x": 0.6317156613,
				"y": -1.727995606,
				"z": -5.4629450258,
				"element": "H" 
			},
			{
				"x": 2.3602320074,
				"y": -2.7406053349,
				"z": -3.9722846571,
				"element": "H" 
			},
			{
				"x": 2.407895715,
				"y": -2.1260286255,
				"z": -1.5716430947,
				"element": "H" 
			},
			{
				"x": 2.9631315854,
				"y": -0.1331011788,
				"z": -0.1939576146,
				"element": "H" 
			},
			{
				"x": 4.2124499294,
				"y": 0.0077888737,
				"z": 2.0318861999,
				"element": "H" 
			},
			{
				"x": 4.1595198404,
				"y": 0.2595276136,
				"z": 4.4958989286,
				"element": "H" 
			},
			{
				"x": 1.9813886402,
				"y": 0.4176283906,
				"z": 5.6891806052,
				"element": "H" 
			},
			{
				"x": -0.1431312319,
				"y": 0.3577072179,
				"z": 4.3895244007,
				"element": "H" 
			},
			{
				"x": -3.450891295,
				"y": 0.2149142801,
				"z": 2.6420500957,
				"element": "H" 
			},
			{
				"x": -3.029361627,
				"y": -0.1751917471,
				"z": 0.949429369,
				"element": "H" 
			},
			{
				"x": -2.3540724522,
				"y": 2.3774598741,
				"z": 2.5068300173,
				"element": "H" 
			},
			{
				"x": -2.6414120168,
				"y": 2.198418236,
				"z": 0.7547112802,
				"element": "H" 
			}
		],
		 "valence_orbital": [ 
			{
				"type": "occ",
				"energy": -0.26992,
				"method": "rhf"
			},
			{
				"type": "occ",
				"energy": -0.25287,
				"method": "rhf"
			},
			{
				"type": "occ",
				"energy": -0.24497,
				"method": "rhf"
			},
			{
				"type": "occ",
				"energy": -0.24023,
				"method": "rhf"
			},
			{
				"type": "occ",
				"energy": -0.19775,
				"method": "rhf"
			},
			{
				"type": "unocc",
				"energy": -0.03594,
				"method": "rhf"
			},
			{
				"type": "unocc",
				"energy": -0.00451,
				"method": "rhf"
			},
			{
				"type": "unocc",
				"energy": 0.00248,
				"method": "rhf"
			},
			{
				"type": "unocc",
				"energy": 0.01072,
				"method": "rhf"
			},
			{
				"type": "unocc",
				"energy": 0.07254,
				"method": "rhf"
			}
		],
		"cosmo_sigma_profile": { 
			"-0.025": 0.0,
			"-0.024": 0.0,
			"-0.023": 0.0,
			"-0.022": 0.0,
			"-0.021": 0.0,
			"-0.02": 0.0,
			"-0.019": 0.0,
			"-0.018": 0.0,
			"-0.017": 0.0,
			"-0.016": 0.0,
			"-0.015": 0.0,
			"-0.014": 0.0,
			"-0.013": 0.0,
			"-0.012": 0.0,
			"-0.011": 0.0,
			"-0.01": 0.0,
			"-0.009": 0.0,
			"-0.008": 0.0,
			"-0.007": 2.37156515188,
			"-0.006": 18.292624756,
			"-0.005": 32.2098359535,
			"-0.004": 31.2035284066,
			"-0.003": 26.4295594947,
			"-0.002": 22.0130372861,
			"-0.001": 22.0685569753,
			"0.0": 20.4650348543,
			"0.001": 20.4547877801,
			"0.002": 18.2264203611,
			"0.003": 21.9477329462,
			"0.004": 26.4909730273,
			"0.005": 24.861224961,
			"0.006": 10.4673754122,
			"0.007": 2.85949485441,
			"0.008": 3.09968810823,
			"0.009": 3.60506763951,
			"0.01": 3.17009707653,
			"0.011": 2.17995928825,
			"0.012": 0.443549052839,
			"0.013": 0.0,
			"0.014": 0.0,
			"0.015": 0.0,
			"0.016": 0.0,
			"0.017": 0.0,
			"0.018": 0.0,
			"0.019": 0.0,
			"0.02": 0.0,
			"0.021": 0.0,
			"0.022": 0.0,
			"0.023": 0.0,
			"0.024": 0.0,
			"0.025": 0.0
		}
	}
}
