{
	 "smiles": "CSC1=NC(N=[N+]=[N-])=NC(NC(C)C)=N1", 
	 "Tm": 368.15, 
	 "num_atms": 26, 
	 "gaussian": { 
		 "optdone": 1, 
		 "sigma_profile": "yes", 
		 "theory": "DFT", 
		 "functional": "B3LYP", 
		 "basiset": "6-31G**", 
		 "properties": { 
			 "R2extent": 4776.7033, 
			 "electric_dipole_moment_norm": 5.14641772207, 
			 "electric_quadrupole_moment_norm": 8.77992108621, 
			 "total_energy": -1054.79421967, 
			 "HOMO_LUMO_gap": 0.18705, 
			 "cosmo_polarized_energy": -11.6, 
			 "cosmo_cavitation_energy": 33.43, 
			 "cosmo_dispersion_energy": -23.58, 
			 "cosmo_repulsion_energy": 1.86, 
			 "cosmo_total_nonelectrostatic_energy": 11.72, 
			 "SMD_solvation_energy": 0.3 
		},
		"coords": [
			{
				"x": -4.1747999954,
				"y": 0.6669944905,
				"z": -1.1564573868,
				"element": "C" 
			},
			{
				"x": -4.137828793,
				"y": 0.5029243032,
				"z": 0.6597499801,
				"element": "S" 
			},
			{
				"x": -2.4205750863,
				"y": 0.213120422,
				"z": 0.9530556545,
				"element": "C" 
			},
			{
				"x": -2.1189506165,
				"y": 0.0524371045,
				"z": 2.2540426296,
				"element": "N" 
			},
			{
				"x": -0.8233819868,
				"y": -0.1609783529,
				"z": 2.4659880237,
				"element": "C" 
			},
			{
				"x": -0.4829381724,
				"y": -0.3308791998,
				"z": 3.8195175618,
				"element": "N" 
			},
			{
				"x": 0.7247906167,
				"y": -0.5326846544,
				"z": 4.0529913022,
				"element": "N" 
			},
			{
				"x": 1.779439713,
				"y": -0.7234606062,
				"z": 4.4248645204,
				"element": "N" 
			},
			{
				"x": 0.1494303773,
				"y": -0.2231309518,
				"z": 1.5507126702,
				"element": "N" 
			},
			{
				"x": -0.2844299883,
				"y": -0.054381082,
				"z": 0.2862483003,
				"element": "C" 
			},
			{
				"x": 0.6121835088,
				"y": -0.1233129185,
				"z": -0.7197862826,
				"element": "N" 
			},
			{
				"x": 2.0594947807,
				"y": -0.2855116752,
				"z": -0.5574144083,
				"element": "C" 
			},
			{
				"x": 2.6195645401,
				"y": -1.0023046975,
				"z": -1.7888692598,
				"element": "C" 
			},
			{
				"x": 2.7503272655,
				"y": 1.0616026129,
				"z": -0.3015036778,
				"element": "C" 
			},
			{
				"x": -1.5732916931,
				"y": 0.1730708526,
				"z": -0.069527297,
				"element": "N" 
			},
			{
				"x": -3.5607918928,
				"y": 1.5071202585,
				"z": -1.4821105611,
				"element": "H" 
			},
			{
				"x": -3.825405109,
				"y": -0.2482997502,
				"z": -1.6349834751,
				"element": "H" 
			},
			{
				"x": -5.2202130329,
				"y": 0.8473255665,
				"z": -1.4160359194,
				"element": "H" 
			},
			{
				"x": 0.2370687536,
				"y": 0.072970304,
				"z": -1.6373510668,
				"element": "H" 
			},
			{
				"x": 2.1973093761,
				"y": -0.9186067536,
				"z": 0.3236875821,
				"element": "H" 
			},
			{
				"x": 3.6953963801,
				"y": -1.163847238,
				"z": -1.677424857,
				"element": "H" 
			},
			{
				"x": 2.4689168945,
				"y": -0.4035413923,
				"z": -2.6958734446,
				"element": "H" 
			},
			{
				"x": 2.1383281219,
				"y": -1.9738454244,
				"z": -1.934215789,
				"element": "H" 
			},
			{
				"x": 2.3339368512,
				"y": 1.5413305812,
				"z": 0.5880465095,
				"element": "H" 
			},
			{
				"x": 3.8241451225,
				"y": 0.9181227032,
				"z": -0.1421027522,
				"element": "H" 
			},
			{
				"x": 2.6196740646,
				"y": 1.7371654975,
				"z": -1.154448557,
				"element": "H" 
			}
		],
		 "valence_orbital": [ 
			{
				"type": "occ",
				"energy": -0.2751,
				"method": "rhf"
			},
			{
				"type": "occ",
				"energy": -0.27212,
				"method": "rhf"
			},
			{
				"type": "occ",
				"energy": -0.26962,
				"method": "rhf"
			},
			{
				"type": "occ",
				"energy": -0.24736,
				"method": "rhf"
			},
			{
				"type": "occ",
				"energy": -0.2385,
				"method": "rhf"
			},
			{
				"type": "unocc",
				"energy": -0.05145,
				"method": "rhf"
			},
			{
				"type": "unocc",
				"energy": -0.04176,
				"method": "rhf"
			},
			{
				"type": "unocc",
				"energy": -0.01708,
				"method": "rhf"
			},
			{
				"type": "unocc",
				"energy": 0.0297,
				"method": "rhf"
			},
			{
				"type": "unocc",
				"energy": 0.03643,
				"method": "rhf"
			}
		],
		"cosmo_sigma_profile": { 
			"-0.025": 0.0,
			"-0.024": 0.0,
			"-0.023": 0.0,
			"-0.022": 0.0,
			"-0.021": 0.0,
			"-0.02": 0.0,
			"-0.019": 0.0,
			"-0.018": 0.0,
			"-0.017": 0.0,
			"-0.016": 0.0,
			"-0.015": 0.0,
			"-0.014": 0.383671338013,
			"-0.013": 0.704728314717,
			"-0.012": 0.661815420117,
			"-0.011": 0.975275599781,
			"-0.01": 1.86531456411,
			"-0.009": 0.669864058407,
			"-0.008": 1.13673506303,
			"-0.007": 3.43052923824,
			"-0.006": 8.8614479192,
			"-0.005": 11.7567720755,
			"-0.004": 20.2386362272,
			"-0.003": 27.5642320311,
			"-0.002": 29.2045821978,
			"-0.001": 25.3266030825,
			"0.0": 27.7178091302,
			"0.001": 23.8685963607,
			"0.002": 13.3683034225,
			"0.003": 12.4080392393,
			"0.004": 14.6615924086,
			"0.005": 13.3263239228,
			"0.006": 10.0447957501,
			"0.007": 6.40721426712,
			"0.008": 4.00279609821,
			"0.009": 2.56900497446,
			"0.01": 2.84034920078,
			"0.011": 1.17062811001,
			"0.012": 1.3979136101,
			"0.013": 0.649503919394,
			"0.014": 1.02519894134,
			"0.015": 0.0108502948274,
			"0.016": 0.0,
			"0.017": 0.0,
			"0.018": 0.0,
			"0.019": 0.0,
			"0.02": 0.0,
			"0.021": 0.0,
			"0.022": 0.0,
			"0.023": 0.0,
			"0.024": 0.0,
			"0.025": 0.0
		}
	}
}
