{
	 "smiles": "C[C@]12CC[C@H]3[C@@H](CCC4=CC(=O)CC[C@H]34)[C@@H]1CC[C@@H]2OC(=O)CCC1=CC=CC=C1", 
	 "Tm": 391.15, 
	 "num_atms": 64, 
	 "gaussian": { 
		 "optdone": 1, 
		 "sigma_profile": "yes", 
		 "theory": "DFT", 
		 "functional": "B3LYP", 
		 "basiset": "6-31G**", 
		 "properties": { 
			 "R2extent": 19687.8245, 
			 "electric_dipole_moment_norm": 4.54364122373, 
			 "electric_quadrupole_moment_norm": 42.6926039293, 
			 "total_energy": -1275.08100488, 
			 "HOMO_LUMO_gap": 0.18635, 
			 "cosmo_polarized_energy": -16.76, 
			 "cosmo_cavitation_energy": 60.01, 
			 "cosmo_dispersion_energy": -40.6, 
			 "cosmo_repulsion_energy": 3.03, 
			 "cosmo_total_nonelectrostatic_energy": 22.44, 
			 "SMD_solvation_energy": 9.26 
		},
		"coords": [
			{
				"x": -2.2784597124,
				"y": -1.0105702555,
				"z": -0.0609195039,
				"element": "C" 
			},
			{
				"x": -0.768455049,
				"y": -0.7040678155,
				"z": 0.0451489,
				"element": "C" 
			},
			{
				"x": -0.5204315841,
				"y": 0.8119136775,
				"z": 0.0135365631,
				"element": "C" 
			},
			{
				"x": -0.8151840233,
				"y": 1.407102358,
				"z": -1.3787957445,
				"element": "C" 
			},
			{
				"x": -0.0816343971,
				"y": 0.684539286,
				"z": -2.5326819324,
				"element": "C" 
			},
			{
				"x": -0.2856152792,
				"y": -0.8547811869,
				"z": -2.4813937706,
				"element": "C" 
			},
			{
				"x": 0.5370789084,
				"y": -1.5309161854,
				"z": -3.5855192125,
				"element": "C" 
			},
			{
				"x": 0.1374109657,
				"y": -0.9980913538,
				"z": -4.9687498196,
				"element": "C" 
			},
			{
				"x": 0.1912958948,
				"y": 0.5069164921,
				"z": -5.0604047956,
				"element": "C" 
			},
			{
				"x": 0.7491686404,
				"y": 1.1125183822,
				"z": -6.1297242411,
				"element": "C" 
			},
			{
				"x": 0.6736051215,
				"y": 2.5619786275,
				"z": -6.3853425564,
				"element": "C" 
			},
			{
				"x": 1.2270815018,
				"y": 3.0814692279,
				"z": -7.3450036758,
				"element": "O" 
			},
			{
				"x": -0.200664075,
				"y": 3.3494813374,
				"z": -5.4223412252,
				"element": "C" 
			},
			{
				"x": -0.1191589922,
				"y": 2.7878172318,
				"z": -3.9996147892,
				"element": "C" 
			},
			{
				"x": -0.4565128721,
				"y": 1.2843894925,
				"z": -3.9223912289,
				"element": "C" 
			},
			{
				"x": 0.0754168714,
				"y": -1.3589973695,
				"z": -1.0802957466,
				"element": "C" 
			},
			{
				"x": 0.0266212443,
				"y": -2.8689787285,
				"z": -0.7629686311,
				"element": "C" 
			},
			{
				"x": -0.0238174559,
				"y": -2.9227199267,
				"z": 0.7934820174,
				"element": "C" 
			},
			{
				"x": -0.1668828838,
				"y": -1.4487908845,
				"z": 1.2527421226,
				"element": "C" 
			},
			{
				"x": -1.0005329218,
				"y": -1.2971190535,
				"z": 2.4241816978,
				"element": "O" 
			},
			{
				"x": -0.4202778279,
				"y": -1.533882181,
				"z": 3.6207978886,
				"element": "C" 
			},
			{
				"x": 0.7395301521,
				"y": -1.867605786,
				"z": 3.7548056885,
				"element": "O" 
			},
			{
				"x": -1.4200132465,
				"y": -1.3723684392,
				"z": 4.7516369514,
				"element": "C" 
			},
			{
				"x": -0.757936846,
				"y": -1.0627358466,
				"z": 6.1074233438,
				"element": "C" 
			},
			{
				"x": -0.2327927906,
				"y": 0.3553921958,
				"z": 6.2161804814,
				"element": "C" 
			},
			{
				"x": 1.0752828841,
				"y": 0.6763440278,
				"z": 5.8255506473,
				"element": "C" 
			},
			{
				"x": 1.5418621984,
				"y": 1.9893528948,
				"z": 5.909045007,
				"element": "C" 
			},
			{
				"x": 0.7091253094,
				"y": 3.0042277807,
				"z": 6.3841000801,
				"element": "C" 
			},
			{
				"x": -0.594901315,
				"y": 2.6969812317,
				"z": 6.7768073309,
				"element": "C" 
			},
			{
				"x": -1.0583558383,
				"y": 1.3833281236,
				"z": 6.6931065395,
				"element": "C" 
			},
			{
				"x": -2.8004056233,
				"y": -0.591939277,
				"z": 0.8034871792,
				"element": "H" 
			},
			{
				"x": -2.7230681704,
				"y": -0.579896044,
				"z": -0.9608110855,
				"element": "H" 
			},
			{
				"x": -2.4849405842,
				"y": -2.0843055667,
				"z": -0.0767924216,
				"element": "H" 
			},
			{
				"x": 0.5307172462,
				"y": 1.0048711064,
				"z": 0.2696172058,
				"element": "H" 
			},
			{
				"x": -1.1251808568,
				"y": 1.3246732313,
				"z": 0.7713010893,
				"element": "H" 
			},
			{
				"x": -1.8959161723,
				"y": 1.3835609588,
				"z": -1.5734937778,
				"element": "H" 
			},
			{
				"x": -0.5358154408,
				"y": 2.4651564518,
				"z": -1.3672329348,
				"element": "H" 
			},
			{
				"x": 0.9990224949,
				"y": 0.8561933564,
				"z": -2.395781548,
				"element": "H" 
			},
			{
				"x": -1.3469946991,
				"y": -1.0744041051,
				"z": -2.6767142625,
				"element": "H" 
			},
			{
				"x": 1.6060273262,
				"y": -1.3447421561,
				"z": -3.4113990893,
				"element": "H" 
			},
			{
				"x": 0.3972882766,
				"y": -2.6173762861,
				"z": -3.5586773579,
				"element": "H" 
			},
			{
				"x": -0.9008340434,
				"y": -1.3087973336,
				"z": -5.1673502522,
				"element": "H" 
			},
			{
				"x": 0.7505482143,
				"y": -1.4440279186,
				"z": -5.7585916566,
				"element": "H" 
			},
			{
				"x": 1.2372111635,
				"y": 0.5272680892,
				"z": -6.9061687934,
				"element": "H" 
			},
			{
				"x": -1.234460167,
				"y": 3.286088301,
				"z": -5.7933935479,
				"element": "H" 
			},
			{
				"x": 0.0901609662,
				"y": 4.4027297602,
				"z": -5.4656103981,
				"element": "H" 
			},
			{
				"x": 0.9006698735,
				"y": 2.9347192472,
				"z": -3.6181653826,
				"element": "H" 
			},
			{
				"x": -0.7833794014,
				"y": 3.356752522,
				"z": -3.3429297742,
				"element": "H" 
			},
			{
				"x": -1.5486828675,
				"y": 1.1637921236,
				"z": -4.0382966117,
				"element": "H" 
			},
			{
				"x": 1.1152782541,
				"y": -1.038143754,
				"z": -0.8994494372,
				"element": "H" 
			},
			{
				"x": -0.8646672103,
				"y": -3.3328431897,
				"z": -1.2003997216,
				"element": "H" 
			},
			{
				"x": 0.891475138,
				"y": -3.4034987098,
				"z": -1.1655942654,
				"element": "H" 
			},
			{
				"x": 0.8676677678,
				"y": -3.3770260909,
				"z": 1.2310879394,
				"element": "H" 
			},
			{
				"x": -0.8845424228,
				"y": -3.4977199029,
				"z": 1.1485351038,
				"element": "H" 
			},
			{
				"x": 0.8160673049,
				"y": -1.0349628131,
				"z": 1.4968424318,
				"element": "H" 
			},
			{
				"x": -2.1515492913,
				"y": -0.6072213681,
				"z": 4.4761320037,
				"element": "H" 
			},
			{
				"x": -1.9704832895,
				"y": -2.3212588086,
				"z": 4.8143167374,
				"element": "H" 
			},
			{
				"x": 0.0549336494,
				"y": -1.7782224662,
				"z": 6.2634215314,
				"element": "H" 
			},
			{
				"x": -1.4995166186,
				"y": -1.2361187998,
				"z": 6.8948975464,
				"element": "H" 
			},
			{
				"x": 1.7218899996,
				"y": -0.110170596,
				"z": 5.4486011088,
				"element": "H" 
			},
			{
				"x": 2.5598090249,
				"y": 2.2185828564,
				"z": 5.6056427746,
				"element": "H" 
			},
			{
				"x": 1.0743924641,
				"y": 4.0250643844,
				"z": 6.4523781265,
				"element": "H" 
			},
			{
				"x": -1.2493838808,
				"y": 3.4780801173,
				"z": 7.1540075895,
				"element": "H" 
			},
			{
				"x": -2.0729910067,
				"y": 1.1501153254,
				"z": 7.0092855649,
				"element": "H" 
			}
		],
		 "valence_orbital": [ 
			{
				"type": "occ",
				"energy": -0.27247,
				"method": "rhf"
			},
			{
				"type": "occ",
				"energy": -0.25481,
				"method": "rhf"
			},
			{
				"type": "occ",
				"energy": -0.245,
				"method": "rhf"
			},
			{
				"type": "occ",
				"energy": -0.23872,
				"method": "rhf"
			},
			{
				"type": "occ",
				"energy": -0.22996,
				"method": "rhf"
			},
			{
				"type": "unocc",
				"energy": -0.04361,
				"method": "rhf"
			},
			{
				"type": "unocc",
				"energy": 0.0005,
				"method": "rhf"
			},
			{
				"type": "unocc",
				"energy": 0.00248,
				"method": "rhf"
			},
			{
				"type": "unocc",
				"energy": 0.01135,
				"method": "rhf"
			},
			{
				"type": "unocc",
				"energy": 0.05623,
				"method": "rhf"
			}
		],
		"cosmo_sigma_profile": { 
			"-0.025": 0.0,
			"-0.024": 0.0,
			"-0.023": 0.0,
			"-0.022": 0.0,
			"-0.021": 0.0,
			"-0.02": 0.0,
			"-0.019": 0.0,
			"-0.018": 0.0,
			"-0.017": 0.0,
			"-0.016": 0.0,
			"-0.015": 0.0,
			"-0.014": 0.0,
			"-0.013": 0.0,
			"-0.012": 0.0,
			"-0.011": 0.0,
			"-0.01": 0.0,
			"-0.009": 0.0,
			"-0.008": 0.0,
			"-0.007": 0.600810572212,
			"-0.006": 4.22856031046,
			"-0.005": 16.1600659153,
			"-0.004": 40.3702622751,
			"-0.003": 67.3899785063,
			"-0.002": 77.5223323099,
			"-0.001": 68.4917282883,
			"0.0": 44.1547722294,
			"0.001": 31.7920605244,
			"0.002": 21.6042327613,
			"0.003": 16.5069436642,
			"0.004": 15.5107006371,
			"0.005": 13.8652169642,
			"0.006": 12.5194718613,
			"0.007": 7.13223959858,
			"0.008": 3.11921113195,
			"0.009": 2.99179218093,
			"0.01": 3.3923213837,
			"0.011": 3.62425168943,
			"0.012": 5.99399858958,
			"0.013": 5.21969303388,
			"0.014": 3.19662091845,
			"0.015": 0.682732210116,
			"0.016": 0.0,
			"0.017": 0.0,
			"0.018": 0.0,
			"0.019": 0.0,
			"0.02": 0.0,
			"0.021": 0.0,
			"0.022": 0.0,
			"0.023": 0.0,
			"0.024": 0.0,
			"0.025": 0.0
		}
	}
}
