{
	 "smiles": "CC(C)CN1C(C)=CC(C=O)=C1C", 
	 "Tm": 318.15, 
	 "num_atms": 30, 
	 "gaussian": { 
		 "optdone": 1, 
		 "sigma_profile": "yes", 
		 "theory": "DFT", 
		 "functional": "B3LYP", 
		 "basiset": "6-31G**", 
		 "properties": { 
			 "R2extent": 2970.1951, 
			 "electric_dipole_moment_norm": 5.31655298948, 
			 "electric_quadrupole_moment_norm": 16.1213558285, 
			 "total_energy": -559.405255984, 
			 "HOMO_LUMO_gap": 0.18118, 
			 "cosmo_polarized_energy": -10.21, 
			 "cosmo_cavitation_energy": 31.23, 
			 "cosmo_dispersion_energy": -21.7, 
			 "cosmo_repulsion_energy": 1.71, 
			 "cosmo_total_nonelectrostatic_energy": 11.24, 
			 "SMD_solvation_energy": 6.39 
		},
		"coords": [
			{
				"x": 1.8622149673,
				"y": -0.6563543873,
				"z": 2.7557414715,
				"element": "C" 
			},
			{
				"x": 0.9086326061,
				"y": 0.0388320957,
				"z": 1.773133375,
				"element": "C" 
			},
			{
				"x": 1.1186752962,
				"y": 1.5579512043,
				"z": 1.7713696996,
				"element": "C" 
			},
			{
				"x": 1.0777563571,
				"y": -0.5887944574,
				"z": 0.3715863333,
				"element": "C" 
			},
			{
				"x": 0.1465468284,
				"y": -0.0990815214,
				"z": -0.643330509,
				"element": "N" 
			},
			{
				"x": 0.4462284362,
				"y": 0.8477332957,
				"z": -1.6316356214,
				"element": "C" 
			},
			{
				"x": 1.8070612826,
				"y": 1.4422520971,
				"z": -1.8129196236,
				"element": "C" 
			},
			{
				"x": -0.6933428167,
				"y": 1.0450265159,
				"z": -2.3673311924,
				"element": "C" 
			},
			{
				"x": -1.7194311385,
				"y": 0.2009327255,
				"z": -1.8349004856,
				"element": "C" 
			},
			{
				"x": -3.0754907215,
				"y": 0.1051098071,
				"z": -2.3497811167,
				"element": "C" 
			},
			{
				"x": -3.9715016113,
				"y": -0.6164071419,
				"z": -1.9272664134,
				"element": "O" 
			},
			{
				"x": -1.1619778134,
				"y": -0.5022626774,
				"z": -0.7641560918,
				"element": "C" 
			},
			{
				"x": -1.7924719941,
				"y": -1.5413672211,
				"z": 0.1060967408,
				"element": "C" 
			},
			{
				"x": 2.9088553186,
				"y": -0.4993836526,
				"z": 2.4673648023,
				"element": "H" 
			},
			{
				"x": 1.6849628543,
				"y": -1.7366932861,
				"z": 2.7969635576,
				"element": "H" 
			},
			{
				"x": 1.7363070038,
				"y": -0.2587784103,
				"z": 3.7675466188,
				"element": "H" 
			},
			{
				"x": -0.1199202593,
				"y": -0.1588215239,
				"z": 2.1008993484,
				"element": "H" 
			},
			{
				"x": 0.4486559218,
				"y": 2.0575271254,
				"z": 1.0655382625,
				"element": "H" 
			},
			{
				"x": 2.1513608034,
				"y": 1.812980626,
				"z": 1.5034452936,
				"element": "H" 
			},
			{
				"x": 0.926084337,
				"y": 1.9733690542,
				"z": 2.7658381117,
				"element": "H" 
			},
			{
				"x": 2.0938630472,
				"y": -0.4077669156,
				"z": 0.0088839068,
				"element": "H" 
			},
			{
				"x": 0.9582654071,
				"y": -1.6748551953,
				"z": 0.4464966068,
				"element": "H" 
			},
			{
				"x": 2.1483206864,
				"y": 2.0101585885,
				"z": -0.9401395246,
				"element": "H" 
			},
			{
				"x": 1.7816027646,
				"y": 2.1288968938,
				"z": -2.6624740545,
				"element": "H" 
			},
			{
				"x": 2.5707209864,
				"y": 0.6842447636,
				"z": -2.0303412674,
				"element": "H" 
			},
			{
				"x": -0.7894123812,
				"y": 1.7141553852,
				"z": -3.2122913837,
				"element": "H" 
			},
			{
				"x": -3.2693071728,
				"y": 0.7757029896,
				"z": -3.2181350316,
				"element": "H" 
			},
			{
				"x": -2.8017512582,
				"y": -1.7249575836,
				"z": -0.2626568472,
				"element": "H" 
			},
			{
				"x": -1.2325989802,
				"y": -2.4851937435,
				"z": 0.0865405396,
				"element": "H" 
			},
			{
				"x": -1.8624087572,
				"y": -1.2257554501,
				"z": 1.1540144945,
				"element": "H" 
			}
		],
		 "valence_orbital": [ 
			{
				"type": "occ",
				"energy": -0.34127,
				"method": "rhf"
			},
			{
				"type": "occ",
				"energy": -0.33313,
				"method": "rhf"
			},
			{
				"type": "occ",
				"energy": -0.23969,
				"method": "rhf"
			},
			{
				"type": "occ",
				"energy": -0.22954,
				"method": "rhf"
			},
			{
				"type": "occ",
				"energy": -0.20449,
				"method": "rhf"
			},
			{
				"type": "unocc",
				"energy": -0.02331,
				"method": "rhf"
			},
			{
				"type": "unocc",
				"energy": 0.03926,
				"method": "rhf"
			},
			{
				"type": "unocc",
				"energy": 0.06773,
				"method": "rhf"
			},
			{
				"type": "unocc",
				"energy": 0.08648,
				"method": "rhf"
			},
			{
				"type": "unocc",
				"energy": 0.10569,
				"method": "rhf"
			}
		],
		"cosmo_sigma_profile": { 
			"-0.025": 0.0,
			"-0.024": 0.0,
			"-0.023": 0.0,
			"-0.022": 0.0,
			"-0.021": 0.0,
			"-0.02": 0.0,
			"-0.019": 0.0,
			"-0.018": 0.0,
			"-0.017": 0.0,
			"-0.016": 0.0,
			"-0.015": 0.0,
			"-0.014": 0.0,
			"-0.013": 0.0,
			"-0.012": 0.0,
			"-0.011": 0.0,
			"-0.01": 0.0,
			"-0.009": 0.0,
			"-0.008": 0.0,
			"-0.007": 0.0,
			"-0.006": 3.18261889223,
			"-0.005": 15.2039227957,
			"-0.004": 25.7571918591,
			"-0.003": 29.3662120068,
			"-0.002": 29.6565166004,
			"-0.001": 31.7147623875,
			"0.0": 29.3370732674,
			"0.001": 21.4369980052,
			"0.002": 11.2783846821,
			"0.003": 7.87862724574,
			"0.004": 6.64885111554,
			"0.005": 7.27444623137,
			"0.006": 5.60549337158,
			"0.007": 3.93406560462,
			"0.008": 1.66153849915,
			"0.009": 2.01409801862,
			"0.01": 1.27141460619,
			"0.011": 2.72788532527,
			"0.012": 2.80858731392,
			"0.013": 3.52542351028,
			"0.014": 1.74517684103,
			"0.015": 0.351399424213,
			"0.016": 0.0,
			"0.017": 0.0,
			"0.018": 0.0,
			"0.019": 0.0,
			"0.02": 0.0,
			"0.021": 0.0,
			"0.022": 0.0,
			"0.023": 0.0,
			"0.024": 0.0,
			"0.025": 0.0
		}
	}
}
