{
	 "smiles": "OC1=CC=C(C=C(C#N)C#N)C=C1", 
	 "Tm": 462.15, 
	 "num_atms": 19, 
	 "gaussian": { 
		 "optdone": 1, 
		 "sigma_profile": "yes", 
		 "theory": "DFT", 
		 "functional": "B3LYP", 
		 "basiset": "6-31G**", 
		 "properties": { 
			 "R2extent": 3820.3394, 
			 "electric_dipole_moment_norm": 7.14449138078, 
			 "electric_quadrupole_moment_norm": 22.8387039799, 
			 "total_energy": -569.348721999, 
			 "HOMO_LUMO_gap": 0.14309, 
			 "cosmo_polarized_energy": -17.98, 
			 "cosmo_cavitation_energy": 26.39, 
			 "cosmo_dispersion_energy": -18.14, 
			 "cosmo_repulsion_energy": 1.43, 
			 "cosmo_total_nonelectrostatic_energy": 9.68, 
			 "SMD_solvation_energy": 7.66 
		},
		"coords": [
			{
				"x": -3.2163944556,
				"y": 0.1161554847,
				"z": 1.1191295625,
				"element": "O" 
			},
			{
				"x": -2.1279191019,
				"y": 0.3975375155,
				"z": 0.3640592757,
				"element": "C" 
			},
			{
				"x": -1.7082416109,
				"y": 1.7347939635,
				"z": 0.310743369,
				"element": "C" 
			},
			{
				"x": -0.6006413736,
				"y": 2.06921199,
				"z": -0.448215429,
				"element": "C" 
			},
			{
				"x": 0.1271887166,
				"y": 1.0981339176,
				"z": -1.1774078318,
				"element": "C" 
			},
			{
				"x": 1.2673244526,
				"y": 1.5625170264,
				"z": -1.9356115783,
				"element": "C" 
			},
			{
				"x": 2.1644268788,
				"y": 0.8991832426,
				"z": -2.731396854,
				"element": "C" 
			},
			{
				"x": 3.2142297932,
				"y": 1.6378312445,
				"z": -3.3698677259,
				"element": "C" 
			},
			{
				"x": 4.0639064569,
				"y": 2.2437854151,
				"z": -3.8850277454,
				"element": "N" 
			},
			{
				"x": 2.1480946442,
				"y": -0.5075058545,
				"z": -2.9919707856,
				"element": "C" 
			},
			{
				"x": 2.1424988383,
				"y": -1.6511987449,
				"z": -3.2100760326,
				"element": "N" 
			},
			{
				"x": -0.3155357256,
				"y": -0.242729914,
				"z": -1.107631207,
				"element": "C" 
			},
			{
				"x": -1.4239818363,
				"y": -0.585775476,
				"z": -0.3496683358,
				"element": "C" 
			},
			{
				"x": -3.4085268438,
				"y": -0.8305925726,
				"z": 1.0787024363,
				"element": "H" 
			},
			{
				"x": -2.2619342192,
				"y": 2.4828218154,
				"z": 0.8672624435,
				"element": "H" 
			},
			{
				"x": -0.2798211083,
				"y": 3.1066956647,
				"z": -0.486027209,
				"element": "H" 
			},
			{
				"x": 1.4480511825,
				"y": 2.6326321459,
				"z": -1.8629370783,
				"element": "H" 
			},
			{
				"x": 0.2063102906,
				"y": -1.0229470975,
				"z": -1.646715234,
				"element": "H" 
			},
			{
				"x": -1.7494349785,
				"y": -1.6226497663,
				"z": -0.3082440402,
				"element": "H" 
			}
		],
		 "valence_orbital": [ 
			{
				"type": "occ",
				"energy": -0.34686,
				"method": "rhf"
			},
			{
				"type": "occ",
				"energy": -0.33745,
				"method": "rhf"
			},
			{
				"type": "occ",
				"energy": -0.30416,
				"method": "rhf"
			},
			{
				"type": "occ",
				"energy": -0.28718,
				"method": "rhf"
			},
			{
				"type": "occ",
				"energy": -0.24209,
				"method": "rhf"
			},
			{
				"type": "unocc",
				"energy": -0.099,
				"method": "rhf"
			},
			{
				"type": "unocc",
				"energy": -0.03362,
				"method": "rhf"
			},
			{
				"type": "unocc",
				"energy": -0.00527,
				"method": "rhf"
			},
			{
				"type": "unocc",
				"energy": 0.00789,
				"method": "rhf"
			},
			{
				"type": "unocc",
				"energy": 0.03985,
				"method": "rhf"
			}
		],
		"cosmo_sigma_profile": { 
			"-0.025": 0.0,
			"-0.024": 0.0,
			"-0.023": 0.0,
			"-0.022": 0.0,
			"-0.021": 0.0,
			"-0.02": 0.0,
			"-0.019": 0.669657192032,
			"-0.018": 1.11794948458,
			"-0.017": 1.52848998963,
			"-0.016": 1.02653479976,
			"-0.015": 1.16141411242,
			"-0.014": 0.581745415803,
			"-0.013": 0.725490785708,
			"-0.012": 1.74289281942,
			"-0.011": 1.62768515556,
			"-0.01": 3.68091469248,
			"-0.009": 3.46058958539,
			"-0.008": 5.53882899859,
			"-0.007": 7.76523197364,
			"-0.006": 8.529092727,
			"-0.005": 6.18155192587,
			"-0.004": 11.4824177549,
			"-0.003": 16.0536768508,
			"-0.002": 15.5978931808,
			"-0.001": 14.255705215,
			"0.0": 12.1162884786,
			"0.001": 15.8167791975,
			"0.002": 18.6171409298,
			"0.003": 8.91438445692,
			"0.004": 5.55976036866,
			"0.005": 6.0276501908,
			"0.006": 6.44299592324,
			"0.007": 6.41231298591,
			"0.008": 7.18514761739,
			"0.009": 8.28872873924,
			"0.01": 6.53113308875,
			"0.011": 5.16293371666,
			"0.012": 4.15158137879,
			"0.013": 0.874018128506,
			"0.014": 0.0,
			"0.015": 0.0,
			"0.016": 0.0,
			"0.017": 0.0,
			"0.018": 0.0,
			"0.019": 0.0,
			"0.02": 0.0,
			"0.021": 0.0,
			"0.022": 0.0,
			"0.023": 0.0,
			"0.024": 0.0,
			"0.025": 0.0
		}
	}
}
