{
	 "smiles": "CCC(C)C1=C(OC(=O)NC)C=CC=C1", 
	 "Tm": 304.65, 
	 "num_atms": 32, 
	 "gaussian": { 
		 "optdone": 1, 
		 "sigma_profile": "yes", 
		 "theory": "DFT", 
		 "functional": "B3LYP", 
		 "basiset": "6-31G**", 
		 "properties": { 
			 "R2extent": 3863.6531, 
			 "electric_dipole_moment_norm": 2.46979830351, 
			 "electric_quadrupole_moment_norm": 13.1273701384, 
			 "total_energy": -672.756077895, 
			 "HOMO_LUMO_gap": 0.23652, 
			 "cosmo_polarized_energy": -11.14, 
			 "cosmo_cavitation_energy": 34.33, 
			 "cosmo_dispersion_energy": -23.83, 
			 "cosmo_repulsion_energy": 1.92, 
			 "cosmo_total_nonelectrostatic_energy": 12.43, 
			 "SMD_solvation_energy": 6.55 
		},
		"coords": [
			{
				"x": 2.2212301339,
				"y": -0.6780709821,
				"z": 3.3102084655,
				"element": "C" 
			},
			{
				"x": 1.4689566277,
				"y": -1.5454474404,
				"z": 2.2944501505,
				"element": "C" 
			},
			{
				"x": 0.8857687506,
				"y": -0.7539152432,
				"z": 1.0997748877,
				"element": "C" 
			},
			{
				"x": 1.9766678906,
				"y": -0.1358176166,
				"z": 0.201239198,
				"element": "C" 
			},
			{
				"x": -0.0614288273,
				"y": -1.607946207,
				"z": 0.2680345791,
				"element": "C" 
			},
			{
				"x": -1.3608839293,
				"y": -1.1860063585,
				"z": -0.0444636712,
				"element": "C" 
			},
			{
				"x": -1.8630628398,
				"y": 0.0125434432,
				"z": 0.4796054486,
				"element": "O" 
			},
			{
				"x": -1.594984626,
				"y": 1.1723304201,
				"z": -0.2166630681,
				"element": "C" 
			},
			{
				"x": -0.924420237,
				"y": 1.2345273898,
				"z": -1.2273899485,
				"element": "O" 
			},
			{
				"x": -2.1931457941,
				"y": 2.2128235199,
				"z": 0.4220728616,
				"element": "N" 
			},
			{
				"x": -2.1151537236,
				"y": 3.5726533242,
				"z": -0.0738956695,
				"element": "C" 
			},
			{
				"x": -2.2314510138,
				"y": -1.9598595267,
				"z": -0.8086798781,
				"element": "C" 
			},
			{
				"x": -1.8122988862,
				"y": -3.19606915,
				"z": -1.294967758,
				"element": "C" 
			},
			{
				"x": -0.5207599571,
				"y": -3.6419973734,
				"z": -1.0107099059,
				"element": "C" 
			},
			{
				"x": 0.3344287233,
				"y": -2.8544350278,
				"z": -0.241215225,
				"element": "C" 
			},
			{
				"x": 2.5566646375,
				"y": -1.2790139247,
				"z": 4.1618971437,
				"element": "H" 
			},
			{
				"x": 1.5792209449,
				"y": 0.1202236083,
				"z": 3.7007481579,
				"element": "H" 
			},
			{
				"x": 3.1071509127,
				"y": -0.207072281,
				"z": 2.8731123695,
				"element": "H" 
			},
			{
				"x": 2.1399479888,
				"y": -2.3318972187,
				"z": 1.9249634421,
				"element": "H" 
			},
			{
				"x": 0.6463711728,
				"y": -2.0619939211,
				"z": 2.8043023596,
				"element": "H" 
			},
			{
				"x": 0.2967796073,
				"y": 0.0680908038,
				"z": 1.5222319192,
				"element": "H" 
			},
			{
				"x": 1.5186237979,
				"y": 0.4231598518,
				"z": -0.6185888451,
				"element": "H" 
			},
			{
				"x": 2.6151615274,
				"y": -0.9152159508,
				"z": -0.2305878521,
				"element": "H" 
			},
			{
				"x": 2.61724375,
				"y": 0.548431509,
				"z": 0.7666129539,
				"element": "H" 
			},
			{
				"x": -2.7438136163,
				"y": 1.9980816732,
				"z": 1.2389741902,
				"element": "H" 
			},
			{
				"x": -1.6901692885,
				"y": 4.2453805811,
				"z": 0.6792743807,
				"element": "H" 
			},
			{
				"x": -1.4656881247,
				"y": 3.5669933808,
				"z": -0.949755559,
				"element": "H" 
			},
			{
				"x": -3.1010305846,
				"y": 3.9513069345,
				"z": -0.3678462413,
				"element": "H" 
			},
			{
				"x": -3.2285815619,
				"y": -1.5816847584,
				"z": -1.0098385599,
				"element": "H" 
			},
			{
				"x": -2.4874949651,
				"y": -3.80209787,
				"z": -1.8915483277,
				"element": "H" 
			},
			{
				"x": -0.1790877783,
				"y": -4.602315125,
				"z": -1.385895362,
				"element": "H" 
			},
			{
				"x": 1.3372392885,
				"y": -3.2142904643,
				"z": -0.0296566362,
				"element": "H" 
			}
		],
		 "valence_orbital": [ 
			{
				"type": "occ",
				"energy": -0.29665,
				"method": "rhf"
			},
			{
				"type": "occ",
				"energy": -0.27432,
				"method": "rhf"
			},
			{
				"type": "occ",
				"energy": -0.25732,
				"method": "rhf"
			},
			{
				"type": "occ",
				"energy": -0.24224,
				"method": "rhf"
			},
			{
				"type": "occ",
				"energy": -0.23514,
				"method": "rhf"
			},
			{
				"type": "unocc",
				"energy": 0.00138,
				"method": "rhf"
			},
			{
				"type": "unocc",
				"energy": 0.00569,
				"method": "rhf"
			},
			{
				"type": "unocc",
				"energy": 0.05586,
				"method": "rhf"
			},
			{
				"type": "unocc",
				"energy": 0.08593,
				"method": "rhf"
			},
			{
				"type": "unocc",
				"energy": 0.09282,
				"method": "rhf"
			}
		],
		"cosmo_sigma_profile": { 
			"-0.025": 0.0,
			"-0.024": 0.0,
			"-0.023": 0.0,
			"-0.022": 0.0,
			"-0.021": 0.0,
			"-0.02": 0.0,
			"-0.019": 0.0,
			"-0.018": 0.0,
			"-0.017": 0.0,
			"-0.016": 0.0,
			"-0.015": 0.165623497053,
			"-0.014": 1.1197492595,
			"-0.013": 0.764816305096,
			"-0.012": 1.42155677606,
			"-0.011": 0.652092750551,
			"-0.01": 1.04980073934,
			"-0.009": 0.855607830361,
			"-0.008": 0.789559983149,
			"-0.007": 1.23113774581,
			"-0.006": 5.76421783924,
			"-0.005": 15.0251905606,
			"-0.004": 18.9225318269,
			"-0.003": 24.3690855883,
			"-0.002": 31.7718409065,
			"-0.001": 27.3688515674,
			"0.0": 30.5574088019,
			"0.001": 29.4019582044,
			"0.002": 18.596242532,
			"0.003": 12.0422840908,
			"0.004": 11.021936167,
			"0.005": 11.1463014596,
			"0.006": 6.86533566027,
			"0.007": 3.54291698966,
			"0.008": 2.52685336488,
			"0.009": 1.95263438132,
			"0.01": 2.09292877434,
			"0.011": 1.79857214483,
			"0.012": 2.78305961882,
			"0.013": 3.69033751803,
			"0.014": 0.341855220263,
			"0.015": 0.0,
			"0.016": 0.0,
			"0.017": 0.0,
			"0.018": 0.0,
			"0.019": 0.0,
			"0.02": 0.0,
			"0.021": 0.0,
			"0.022": 0.0,
			"0.023": 0.0,
			"0.024": 0.0,
			"0.025": 0.0
		}
	}
}
