{
	 "smiles": "NC1=C(OCC#N)C=C(F)C=C1", 
	 "Tm": 333.15, 
	 "num_atms": 19, 
	 "gaussian": { 
		 "optdone": 1, 
		 "sigma_profile": "yes", 
		 "theory": "DFT", 
		 "functional": "B3LYP", 
		 "basiset": "6-31G**", 
		 "properties": { 
			 "R2extent": 2487.0885, 
			 "electric_dipole_moment_norm": 3.85539921668, 
			 "electric_quadrupole_moment_norm": 20.002897966, 
			 "total_energy": -593.588730641, 
			 "HOMO_LUMO_gap": 0.19482, 
			 "cosmo_polarized_energy": -13.09, 
			 "cosmo_cavitation_energy": 25.18, 
			 "cosmo_dispersion_energy": -17.56, 
			 "cosmo_repulsion_energy": 1.39, 
			 "cosmo_total_nonelectrostatic_energy": 9.01, 
			 "SMD_solvation_energy": 6.66 
		},
		"coords": [
			{
				"x": -1.8749310539,
				"y": 1.3654873672,
				"z": 0.3585385035,
				"element": "N" 
			},
			{
				"x": -1.0646269063,
				"y": 0.7872744599,
				"z": -0.6253377705,
				"element": "C" 
			},
			{
				"x": 0.2967832733,
				"y": 0.5585077948,
				"z": -0.3443808708,
				"element": "C" 
			},
			{
				"x": 0.8014601403,
				"y": 0.9920720191,
				"z": 0.8776644894,
				"element": "O" 
			},
			{
				"x": 0.5790781317,
				"y": 0.0530351544,
				"z": 1.9339766443,
				"element": "C" 
			},
			{
				"x": 1.0348592443,
				"y": 0.6507080616,
				"z": 3.1943457554,
				"element": "C" 
			},
			{
				"x": 1.3818220322,
				"y": 1.1065658682,
				"z": 4.2025288783,
				"element": "N" 
			},
			{
				"x": 1.1441318086,
				"y": -0.0452842915,
				"z": -1.2679785152,
				"element": "C" 
			},
			{
				"x": 0.6193725978,
				"y": -0.4386201409,
				"z": -2.4942898143,
				"element": "C" 
			},
			{
				"x": 1.4349397176,
				"y": -1.0232619008,
				"z": -3.3993393364,
				"element": "F" 
			},
			{
				"x": -0.720292341,
				"y": -0.2442545822,
				"z": -2.8057525889,
				"element": "C" 
			},
			{
				"x": -1.5541388925,
				"y": 0.3716510081,
				"z": -1.8715853006,
				"element": "C" 
			},
			{
				"x": -2.736962216,
				"y": 1.7609318414,
				"z": 0.0069905012,
				"element": "H" 
			},
			{
				"x": -1.374377535,
				"y": 2.0250441604,
				"z": 0.9426837773,
				"element": "H" 
			},
			{
				"x": 1.1366666154,
				"y": -0.8759625529,
				"z": 1.7538800148,
				"element": "H" 
			},
			{
				"x": -0.4871553443,
				"y": -0.194553108,
				"z": 2.0213688171,
				"element": "H" 
			},
			{
				"x": 2.1930219772,
				"y": -0.1926064329,
				"z": -1.0370631154,
				"element": "H" 
			},
			{
				"x": -1.0979481046,
				"y": -0.5618909176,
				"z": -3.7713109302,
				"element": "H" 
			},
			{
				"x": -2.6010031448,
				"y": 0.5346561915,
				"z": -2.113039139,
				"element": "H" 
			}
		],
		 "valence_orbital": [ 
			{
				"type": "occ",
				"energy": -0.3425,
				"method": "rhf"
			},
			{
				"type": "occ",
				"energy": -0.31601,
				"method": "rhf"
			},
			{
				"type": "occ",
				"energy": -0.30196,
				"method": "rhf"
			},
			{
				"type": "occ",
				"energy": -0.26404,
				"method": "rhf"
			},
			{
				"type": "occ",
				"energy": -0.21539,
				"method": "rhf"
			},
			{
				"type": "unocc",
				"energy": -0.02057,
				"method": "rhf"
			},
			{
				"type": "unocc",
				"energy": 0.00052,
				"method": "rhf"
			},
			{
				"type": "unocc",
				"energy": 0.00806,
				"method": "rhf"
			},
			{
				"type": "unocc",
				"energy": 0.02962,
				"method": "rhf"
			},
			{
				"type": "unocc",
				"energy": 0.07218,
				"method": "rhf"
			}
		],
		"cosmo_sigma_profile": { 
			"-0.025": 0.0,
			"-0.024": 0.0,
			"-0.023": 0.0,
			"-0.022": 0.0,
			"-0.021": 0.0,
			"-0.02": 0.0,
			"-0.019": 0.0,
			"-0.018": 0.0,
			"-0.017": 0.0,
			"-0.016": 0.0,
			"-0.015": 0.0,
			"-0.014": 0.0,
			"-0.013": 0.65451072502,
			"-0.012": 1.78996667966,
			"-0.011": 2.04903769405,
			"-0.01": 3.6046341882,
			"-0.009": 8.09375793022,
			"-0.008": 8.45293318905,
			"-0.007": 10.6698189698,
			"-0.006": 10.1485117836,
			"-0.005": 10.1470356343,
			"-0.004": 8.94562540377,
			"-0.003": 7.50697329884,
			"-0.002": 7.50808729234,
			"-0.001": 7.2526356349,
			"0.0": 8.58304134459,
			"0.001": 11.6321238228,
			"0.002": 14.9902595672,
			"0.003": 18.9024761606,
			"0.004": 17.631827608,
			"0.005": 14.685017167,
			"0.006": 3.53742089968,
			"0.007": 6.33923000631,
			"0.008": 4.92432285023,
			"0.009": 4.83164424057,
			"0.01": 3.60977365524,
			"0.011": 2.97287680466,
			"0.012": 2.17612992809,
			"0.013": 0.565171679276,
			"0.014": 0.0,
			"0.015": 0.0,
			"0.016": 0.0,
			"0.017": 0.0,
			"0.018": 0.0,
			"0.019": 0.0,
			"0.02": 0.0,
			"0.021": 0.0,
			"0.022": 0.0,
			"0.023": 0.0,
			"0.024": 0.0,
			"0.025": 0.0
		}
	}
}
