{
	 "smiles": "CCCCCCCCCC1CCCC(=O)O1", 
	 "Tm": 406.15, 
	 "num_atms": 42, 
	 "gaussian": { 
		 "optdone": 1, 
		 "sigma_profile": "yes", 
		 "theory": "DFT", 
		 "functional": "B3LYP", 
		 "basiset": "6-31G**", 
		 "properties": { 
			 "R2extent": 6924.9964, 
			 "electric_dipole_moment_norm": 4.38596291024, 
			 "electric_quadrupole_moment_norm": 21.9714676324, 
			 "total_energy": -699.643899987, 
			 "HOMO_LUMO_gap": 0.27286, 
			 "cosmo_polarized_energy": -10.84, 
			 "cosmo_cavitation_energy": 41.32, 
			 "cosmo_dispersion_energy": -28.69, 
			 "cosmo_repulsion_energy": 2.33, 
			 "cosmo_total_nonelectrostatic_energy": 14.96, 
			 "SMD_solvation_energy": 6.5 
		},
		"coords": [
			{
				"x": -4.4039670085,
				"y": -1.3741948936,
				"z": 3.6339359693,
				"element": "C" 
			},
			{
				"x": -3.4113111341,
				"y": -0.7173288644,
				"z": 2.6684424626,
				"element": "C" 
			},
			{
				"x": -2.0557697187,
				"y": -0.4200757067,
				"z": 3.3241774773,
				"element": "C" 
			},
			{
				"x": -0.9754845084,
				"y": 0.1727946795,
				"z": 2.4014298573,
				"element": "C" 
			},
			{
				"x": -1.2998266835,
				"y": 1.571751505,
				"z": 1.8242887299,
				"element": "C" 
			},
			{
				"x": -1.9958967347,
				"y": 1.6002492403,
				"z": 0.4425813352,
				"element": "C" 
			},
			{
				"x": -1.0483570475,
				"y": 1.7079301893,
				"z": -0.7659404891,
				"element": "C" 
			},
			{
				"x": -0.0962550367,
				"y": 0.5215245785,
				"z": -0.9725851379,
				"element": "C" 
			},
			{
				"x": 0.7541748466,
				"y": 0.6780365774,
				"z": -2.2413339229,
				"element": "C" 
			},
			{
				"x": 1.6432237887,
				"y": -0.5158920038,
				"z": -2.5938639268,
				"element": "C" 
			},
			{
				"x": 2.6647045871,
				"y": -0.9228646198,
				"z": -1.5309106112,
				"element": "C" 
			},
			{
				"x": 3.5030607111,
				"y": -2.1351845526,
				"z": -2.0023713561,
				"element": "C" 
			},
			{
				"x": 2.8183149858,
				"y": -2.8854098006,
				"z": -3.1702626399,
				"element": "C" 
			},
			{
				"x": 1.3021925444,
				"y": -2.8582942864,
				"z": -3.0966672452,
				"element": "C" 
			},
			{
				"x": 0.5836146731,
				"y": -3.8134025828,
				"z": -3.2678883878,
				"element": "O" 
			},
			{
				"x": 0.7549888143,
				"y": -1.6375896265,
				"z": -2.8427321937,
				"element": "O" 
			},
			{
				"x": -4.5995640985,
				"y": -0.7305370099,
				"z": 4.4994818925,
				"element": "H" 
			},
			{
				"x": -4.0162662547,
				"y": -2.3266197069,
				"z": 4.0134048711,
				"element": "H" 
			},
			{
				"x": -5.3635971994,
				"y": -1.5763377286,
				"z": 3.14694698,
				"element": "H" 
			},
			{
				"x": -3.849225942,
				"y": 0.2101380896,
				"z": 2.2788750143,
				"element": "H" 
			},
			{
				"x": -3.2589753192,
				"y": -1.3722738316,
				"z": 1.7995424984,
				"element": "H" 
			},
			{
				"x": -2.2122573866,
				"y": 0.2636113675,
				"z": 4.1716010894,
				"element": "H" 
			},
			{
				"x": -1.6673777123,
				"y": -1.3518359351,
				"z": 3.7588814322,
				"element": "H" 
			},
			{
				"x": -0.7729587202,
				"y": -0.5325703955,
				"z": 1.5857415069,
				"element": "H" 
			},
			{
				"x": -0.0455249111,
				"y": 0.2351904513,
				"z": 2.981097615,
				"element": "H" 
			},
			{
				"x": -1.9233794477,
				"y": 2.1056737534,
				"z": 2.5534455316,
				"element": "H" 
			},
			{
				"x": -0.3739574681,
				"y": 2.1583445211,
				"z": 1.7533863432,
				"element": "H" 
			},
			{
				"x": -2.6310171779,
				"y": 0.7140469502,
				"z": 0.3236007406,
				"element": "H" 
			},
			{
				"x": -2.6742300547,
				"y": 2.4619334916,
				"z": 0.4041143386,
				"element": "H" 
			},
			{
				"x": -1.6561253763,
				"y": 1.8306505612,
				"z": -1.6730589417,
				"element": "H" 
			},
			{
				"x": -0.4577857205,
				"y": 2.6313490393,
				"z": -0.6718190101,
				"element": "H" 
			},
			{
				"x": 0.5573638113,
				"y": 0.4197192729,
				"z": -0.0983292939,
				"element": "H" 
			},
			{
				"x": -0.6730115159,
				"y": -0.4082473942,
				"z": -1.0454629612,
				"element": "H" 
			},
			{
				"x": 1.4007676837,
				"y": 1.5618351682,
				"z": -2.1552920368,
				"element": "H" 
			},
			{
				"x": 0.0933292847,
				"y": 0.8597501331,
				"z": -3.0980151139,
				"element": "H" 
			},
			{
				"x": 2.1673871168,
				"y": -0.2832336299,
				"z": -3.5327109355,
				"element": "H" 
			},
			{
				"x": 2.1189368921,
				"y": -1.1772439519,
				"z": -0.6169450662,
				"element": "H" 
			},
			{
				"x": 3.3070751276,
				"y": -0.0682304681,
				"z": -1.2929859034,
				"element": "H" 
			},
			{
				"x": 3.6563223051,
				"y": -2.8242154311,
				"z": -1.1665990559,
				"element": "H" 
			},
			{
				"x": 4.4983193383,
				"y": -1.8145473023,
				"z": -2.3260003285,
				"element": "H" 
			},
			{
				"x": 3.1300958399,
				"y": -3.9289125504,
				"z": -3.230716062,
				"element": "H" 
			},
			{
				"x": 3.0947498266,
				"y": -2.4111872966,
				"z": -4.1213850656,
				"element": "H" 
			}
		],
		 "valence_orbital": [ 
			{
				"type": "occ",
				"energy": -0.3082,
				"method": "rhf"
			},
			{
				"type": "occ",
				"energy": -0.30166,
				"method": "rhf"
			},
			{
				"type": "occ",
				"energy": -0.29948,
				"method": "rhf"
			},
			{
				"type": "occ",
				"energy": -0.28231,
				"method": "rhf"
			},
			{
				"type": "occ",
				"energy": -0.25548,
				"method": "rhf"
			},
			{
				"type": "unocc",
				"energy": 0.01738,
				"method": "rhf"
			},
			{
				"type": "unocc",
				"energy": 0.07064,
				"method": "rhf"
			},
			{
				"type": "unocc",
				"energy": 0.08509,
				"method": "rhf"
			},
			{
				"type": "unocc",
				"energy": 0.09291,
				"method": "rhf"
			},
			{
				"type": "unocc",
				"energy": 0.10138,
				"method": "rhf"
			}
		],
		"cosmo_sigma_profile": { 
			"-0.025": 0.0,
			"-0.024": 0.0,
			"-0.023": 0.0,
			"-0.022": 0.0,
			"-0.021": 0.0,
			"-0.02": 0.0,
			"-0.019": 0.0,
			"-0.018": 0.0,
			"-0.017": 0.0,
			"-0.016": 0.0,
			"-0.015": 0.0,
			"-0.014": 0.0,
			"-0.013": 0.0,
			"-0.012": 0.0,
			"-0.011": 0.0,
			"-0.01": 0.0,
			"-0.009": 0.0,
			"-0.008": 0.249419956555,
			"-0.007": 2.81651226914,
			"-0.006": 4.72828970142,
			"-0.005": 7.05272687679,
			"-0.004": 21.108831097,
			"-0.003": 26.7318564068,
			"-0.002": 39.1211946541,
			"-0.001": 62.7525741166,
			"0.0": 61.053812071,
			"0.001": 38.3696414853,
			"0.002": 18.2380270512,
			"0.003": 3.07173379887,
			"0.004": 2.78627370892,
			"0.005": 1.74551412954,
			"0.006": 2.58827875848,
			"0.007": 2.51471351254,
			"0.008": 1.55542814506,
			"0.009": 2.26683000249,
			"0.01": 2.83033306021,
			"0.011": 3.34638312114,
			"0.012": 5.67026239774,
			"0.013": 5.07806143214,
			"0.014": 1.6600338871,
			"0.015": 0.0105009438352,
			"0.016": 0.0,
			"0.017": 0.0,
			"0.018": 0.0,
			"0.019": 0.0,
			"0.02": 0.0,
			"0.021": 0.0,
			"0.022": 0.0,
			"0.023": 0.0,
			"0.024": 0.0,
			"0.025": 0.0
		}
	}
}
