{
	 "smiles": "OC1=CC(=NC2=CC(Cl)=CC=C12)C(F)(F)F", 
	 "Tm": 553.15, 
	 "num_atms": 21, 
	 "gaussian": { 
		 "optdone": 1, 
		 "sigma_profile": "yes", 
		 "theory": "DFT", 
		 "functional": "B3LYP", 
		 "basiset": "6-31G**", 
		 "properties": { 
			 "R2extent": 4887.0257, 
			 "electric_dipole_moment_norm": 4.90000153265, 
			 "electric_quadrupole_moment_norm": 13.0573874875, 
			 "total_energy": -1273.7739823, 
			 "HOMO_LUMO_gap": 0.17167, 
			 "cosmo_polarized_energy": -12.4, 
			 "cosmo_cavitation_energy": 29.17, 
			 "cosmo_dispersion_energy": -21.41, 
			 "cosmo_repulsion_energy": 1.59, 
			 "cosmo_total_nonelectrostatic_energy": 9.35, 
			 "SMD_solvation_energy": 4.69 
		},
		"coords": [
			{
				"x": -2.7435364329,
				"y": 2.4209299407,
				"z": 1.6035405856,
				"element": "O" 
			},
			{
				"x": -1.7525372508,
				"y": 1.5458473291,
				"z": 1.3182858675,
				"element": "C" 
			},
			{
				"x": -1.0569239397,
				"y": 0.9960729944,
				"z": 2.3795679688,
				"element": "C" 
			},
			{
				"x": -0.0242595708,
				"y": 0.0844929016,
				"z": 2.0958911438,
				"element": "C" 
			},
			{
				"x": 0.3454200566,
				"y": -0.2985406568,
				"z": 0.8896546411,
				"element": "N" 
			},
			{
				"x": -0.3294470735,
				"y": 0.2337694601,
				"z": -0.1627199063,
				"element": "C" 
			},
			{
				"x": 0.0595221216,
				"y": -0.1713021231,
				"z": -1.4683228283,
				"element": "C" 
			},
			{
				"x": -0.5914518745,
				"y": 0.3380287057,
				"z": -2.5652856167,
				"element": "C" 
			},
			{
				"x": -0.1149762552,
				"y": -0.1588383548,
				"z": -4.177807664,
				"element": "Cl" 
			},
			{
				"x": -1.6521868334,
				"y": 1.2666616451,
				"z": -2.4334858154,
				"element": "C" 
			},
			{
				"x": -2.0431265631,
				"y": 1.670744111,
				"z": -1.1782170557,
				"element": "C" 
			},
			{
				"x": -1.4018493507,
				"y": 1.173094492,
				"z": -0.0138929672,
				"element": "C" 
			},
			{
				"x": 0.7672420522,
				"y": -0.5438981738,
				"z": 3.2318934428,
				"element": "C" 
			},
			{
				"x": 0.3317141966,
				"y": -0.1107741213,
				"z": 4.4373649554,
				"element": "F" 
			},
			{
				"x": 2.0747226355,
				"y": -0.240263528,
				"z": 3.1402248941,
				"element": "F" 
			},
			{
				"x": 0.6569242464,
				"y": -1.8845832578,
				"z": 3.2187681737,
				"element": "F" 
			},
			{
				"x": -3.1608712183,
				"y": 2.7399419171,
				"z": 0.7935431597,
				"element": "H" 
			},
			{
				"x": -1.3095135739,
				"y": 1.2673808488,
				"z": 3.3958098116,
				"element": "H" 
			},
			{
				"x": 0.8719030285,
				"y": -0.8819334526,
				"z": -1.5605265664,
				"element": "H" 
			},
			{
				"x": -2.143779692,
				"y": 1.6484899759,
				"z": -3.3207943841,
				"element": "H" 
			},
			{
				"x": -2.8603887083,
				"y": 2.3849793467,
				"z": -1.1056918398,
				"element": "H" 
			}
		],
		 "valence_orbital": [ 
			{
				"type": "occ",
				"energy": -0.3259,
				"method": "rhf"
			},
			{
				"type": "occ",
				"energy": -0.29758,
				"method": "rhf"
			},
			{
				"type": "occ",
				"energy": -0.28054,
				"method": "rhf"
			},
			{
				"type": "occ",
				"energy": -0.26927,
				"method": "rhf"
			},
			{
				"type": "occ",
				"energy": -0.24491,
				"method": "rhf"
			},
			{
				"type": "unocc",
				"energy": -0.07324,
				"method": "rhf"
			},
			{
				"type": "unocc",
				"energy": -0.04377,
				"method": "rhf"
			},
			{
				"type": "unocc",
				"energy": 0.00047,
				"method": "rhf"
			},
			{
				"type": "unocc",
				"energy": 0.01244,
				"method": "rhf"
			},
			{
				"type": "unocc",
				"energy": 0.04005,
				"method": "rhf"
			}
		],
		"cosmo_sigma_profile": { 
			"-0.025": 0.0,
			"-0.024": 0.0,
			"-0.023": 0.0,
			"-0.022": 0.0,
			"-0.021": 0.0,
			"-0.02": 0.228798896703,
			"-0.019": 0.914860395787,
			"-0.018": 1.19471609195,
			"-0.017": 0.989261991868,
			"-0.016": 1.20975596653,
			"-0.015": 1.05763921589,
			"-0.014": 0.577376380044,
			"-0.013": 0.715847163317,
			"-0.012": 1.52971149068,
			"-0.011": 1.46636646061,
			"-0.01": 1.02539901277,
			"-0.009": 1.27608379875,
			"-0.008": 3.97528436078,
			"-0.007": 6.9854522976,
			"-0.006": 4.76268190804,
			"-0.005": 5.81857649461,
			"-0.004": 7.02947730459,
			"-0.003": 9.76397540199,
			"-0.002": 13.4431110391,
			"-0.001": 19.248263703,
			"0.0": 25.5276318515,
			"0.001": 29.0889619376,
			"0.002": 31.9235235942,
			"0.003": 32.3081857473,
			"0.004": 14.6456360845,
			"0.005": 5.26710061477,
			"0.006": 2.96860252553,
			"0.007": 3.68545561184,
			"0.008": 2.92706713798,
			"0.009": 3.42529387154,
			"0.01": 1.00125733094,
			"0.011": 0.688247848799,
			"0.012": 0.559697126706,
			"0.013": 0.643204793983,
			"0.014": 0.0569874411448,
			"0.015": 0.0,
			"0.016": 0.0,
			"0.017": 0.0,
			"0.018": 0.0,
			"0.019": 0.0,
			"0.02": 0.0,
			"0.021": 0.0,
			"0.022": 0.0,
			"0.023": 0.0,
			"0.024": 0.0,
			"0.025": 0.0
		}
	}
}
