{
	 "smiles": "CCOC(=O)C1=NN(CN2N=C(C=C2C)C(=O)OCC)C(C)=C1", 
	 "Tm": 403.15, 
	 "num_atms": 43, 
	 "gaussian": { 
		 "optdone": 1, 
		 "sigma_profile": "yes", 
		 "theory": "DFT", 
		 "functional": "B3LYP", 
		 "basiset": "6-31G**", 
		 "properties": { 
			 "R2extent": 11416.3424, 
			 "electric_dipole_moment_norm": 3.48220509735, 
			 "electric_quadrupole_moment_norm": 12.0452344294, 
			 "total_energy": -1103.55787251, 
			 "HOMO_LUMO_gap": 0.2161, 
			 "cosmo_polarized_energy": -20.19, 
			 "cosmo_cavitation_energy": 48.29, 
			 "cosmo_dispersion_energy": -32.74, 
			 "cosmo_repulsion_energy": 2.57, 
			 "cosmo_total_nonelectrostatic_energy": 18.12, 
			 "SMD_solvation_energy": 8.99 
		},
		"coords": [
			{
				"x": -4.2519801885,
				"y": 4.5052343356,
				"z": 0.3296831528,
				"element": "C" 
			},
			{
				"x": -4.5845924381,
				"y": 3.3736572883,
				"z": -0.6242417909,
				"element": "C" 
			},
			{
				"x": -3.7999501996,
				"y": 2.2277709536,
				"z": -0.2259508956,
				"element": "O" 
			},
			{
				"x": -3.9748405433,
				"y": 1.1191734854,
				"z": -0.971026092,
				"element": "C" 
			},
			{
				"x": -4.7288025821,
				"y": 1.04939345,
				"z": -1.9233607283,
				"element": "O" 
			},
			{
				"x": -3.1476298694,
				"y": -0.0196199526,
				"z": -0.5144895218,
				"element": "C" 
			},
			{
				"x": -2.3316028459,
				"y": 0.0474432656,
				"z": 0.539338051,
				"element": "N" 
			},
			{
				"x": -1.7846783993,
				"y": -1.1855259736,
				"z": 0.6171110546,
				"element": "N" 
			},
			{
				"x": -0.7668372431,
				"y": -1.4255099232,
				"z": 1.6220162407,
				"element": "C" 
			},
			{
				"x": 0.5821717042,
				"y": -1.1619843614,
				"z": 1.1555372373,
				"element": "N" 
			},
			{
				"x": 1.2699220381,
				"y": -2.1729378504,
				"z": 0.5859195269,
				"element": "N" 
			},
			{
				"x": 2.4131151282,
				"y": -1.6141961803,
				"z": 0.1844668005,
				"element": "C" 
			},
			{
				"x": 2.4535613031,
				"y": -0.2318882317,
				"z": 0.4946043347,
				"element": "C" 
			},
			{
				"x": 1.2525573913,
				"y": 0.0397219957,
				"z": 1.1171795167,
				"element": "C" 
			},
			{
				"x": 0.6944479691,
				"y": 1.3086336375,
				"z": 1.679809459,
				"element": "C" 
			},
			{
				"x": 3.4359675964,
				"y": -2.445462439,
				"z": -0.4924260859,
				"element": "C" 
			},
			{
				"x": 3.3310711536,
				"y": -3.6264365472,
				"z": -0.7463291582,
				"element": "O" 
			},
			{
				"x": 4.5241390101,
				"y": -1.6993042676,
				"z": -0.8002423619,
				"element": "O" 
			},
			{
				"x": 5.5911233362,
				"y": -2.4026693092,
				"z": -1.4732896863,
				"element": "C" 
			},
			{
				"x": 6.7044721171,
				"y": -1.4049921283,
				"z": -1.7308138653,
				"element": "C" 
			},
			{
				"x": -2.2228084704,
				"y": -2.0368818212,
				"z": -0.3733694464,
				"element": "C" 
			},
			{
				"x": -1.7588887116,
				"y": -3.4533248861,
				"z": -0.5013743855,
				"element": "C" 
			},
			{
				"x": -3.118463564,
				"y": -1.299427417,
				"z": -1.1191058289,
				"element": "C" 
			},
			{
				"x": -4.8280740117,
				"y": 5.3970406865,
				"z": 0.0635704483,
				"element": "H" 
			},
			{
				"x": -4.4958611095,
				"y": 4.2316273635,
				"z": 1.3601811876,
				"element": "H" 
			},
			{
				"x": -3.1882177875,
				"y": 4.7555128338,
				"z": 0.2831226901,
				"element": "H" 
			},
			{
				"x": -4.3436070246,
				"y": 3.6255777554,
				"z": -1.6621028309,
				"element": "H" 
			},
			{
				"x": -5.6456729667,
				"y": 3.1059823796,
				"z": -0.5913453839,
				"element": "H" 
			},
			{
				"x": -0.9937999386,
				"y": -0.7764024294,
				"z": 2.4672194981,
				"element": "H" 
			},
			{
				"x": -0.7972753028,
				"y": -2.4700015411,
				"z": 1.9307181979,
				"element": "H" 
			},
			{
				"x": 3.2550291759,
				"y": 0.4610023657,
				"z": 0.291454943,
				"element": "H" 
			},
			{
				"x": 0.6317232326,
				"y": 1.272516629,
				"z": 2.7746531022,
				"element": "H" 
			},
			{
				"x": -0.3097847086,
				"y": 1.5101776182,
				"z": 1.2943132803,
				"element": "H" 
			},
			{
				"x": 1.3473582578,
				"y": 2.1427249019,
				"z": 1.4146942113,
				"element": "H" 
			},
			{
				"x": 5.2011690065,
				"y": -2.833028408,
				"z": -2.4013226099,
				"element": "H" 
			},
			{
				"x": 5.9209271252,
				"y": -3.2336888221,
				"z": -0.8414860881,
				"element": "H" 
			},
			{
				"x": 6.3547008642,
				"y": -0.5822895008,
				"z": -2.3612104358,
				"element": "H" 
			},
			{
				"x": 7.0786327333,
				"y": -0.9851398579,
				"z": -0.7925449581,
				"element": "H" 
			},
			{
				"x": 7.5361102073,
				"y": -1.9001359941,
				"z": -2.2417654881,
				"element": "H" 
			},
			{
				"x": -2.1219286075,
				"y": -4.0738484041,
				"z": 0.3274855552,
				"element": "H" 
			},
			{
				"x": -0.6666133677,
				"y": -3.5195687607,
				"z": -0.5142236415,
				"element": "H" 
			},
			{
				"x": -2.1476554597,
				"y": -3.8808825885,
				"z": -1.427668498,
				"element": "H" 
			},
			{
				"x": -3.6851340098,
				"y": -1.6220433498,
				"z": -1.9786887071,
				"element": "H" 
			}
		],
		 "valence_orbital": [ 
			{
				"type": "occ",
				"energy": -0.26783,
				"method": "rhf"
			},
			{
				"type": "occ",
				"energy": -0.26685,
				"method": "rhf"
			},
			{
				"type": "occ",
				"energy": -0.25824,
				"method": "rhf"
			},
			{
				"type": "occ",
				"energy": -0.25062,
				"method": "rhf"
			},
			{
				"type": "occ",
				"energy": -0.24887,
				"method": "rhf"
			},
			{
				"type": "unocc",
				"energy": -0.03277,
				"method": "rhf"
			},
			{
				"type": "unocc",
				"energy": -0.02706,
				"method": "rhf"
			},
			{
				"type": "unocc",
				"energy": 0.01975,
				"method": "rhf"
			},
			{
				"type": "unocc",
				"energy": 0.02544,
				"method": "rhf"
			},
			{
				"type": "unocc",
				"energy": 0.08392,
				"method": "rhf"
			}
		],
		"cosmo_sigma_profile": { 
			"-0.025": 0.0,
			"-0.024": 0.0,
			"-0.023": 0.0,
			"-0.022": 0.0,
			"-0.021": 0.0,
			"-0.02": 0.0,
			"-0.019": 0.0,
			"-0.018": 0.0,
			"-0.017": 0.0,
			"-0.016": 0.0,
			"-0.015": 0.0,
			"-0.014": 0.0,
			"-0.013": 0.0,
			"-0.012": 0.0,
			"-0.011": 0.0,
			"-0.01": 0.758505841131,
			"-0.009": 5.11943879888,
			"-0.008": 4.2984864586,
			"-0.007": 8.53733453485,
			"-0.006": 13.6853576865,
			"-0.005": 24.3552411445,
			"-0.004": 36.6976130717,
			"-0.003": 37.2188706662,
			"-0.002": 39.4611973072,
			"-0.001": 40.8995037547,
			"0.0": 35.3138145863,
			"0.001": 21.6757127678,
			"0.002": 21.4653092734,
			"0.003": 19.41932908,
			"0.004": 10.816384056,
			"0.005": 8.60188579815,
			"0.006": 7.15360147099,
			"0.007": 5.91514028496,
			"0.008": 5.3995028939,
			"0.009": 5.29046137547,
			"0.01": 5.27212000246,
			"0.011": 7.52962858287,
			"0.012": 11.2489883088,
			"0.013": 4.20408070283,
			"0.014": 1.80804912264,
			"0.015": 0.0601960992672,
			"0.016": 0.0,
			"0.017": 0.0,
			"0.018": 0.0,
			"0.019": 0.0,
			"0.02": 0.0,
			"0.021": 0.0,
			"0.022": 0.0,
			"0.023": 0.0,
			"0.024": 0.0,
			"0.025": 0.0
		}
	}
}
