{
	 "smiles": "CC(=O)C1=CC(F)=C(C=C1)N1CCCC1", 
	 "Tm": 310.15, 
	 "num_atms": 29, 
	 "gaussian": { 
		 "optdone": 1, 
		 "sigma_profile": "yes", 
		 "theory": "DFT", 
		 "functional": "B3LYP", 
		 "basiset": "6-31G**", 
		 "properties": { 
			 "R2extent": 4854.0473, 
			 "electric_dipole_moment_norm": 5.88502130073, 
			 "electric_quadrupole_moment_norm": 15.628564189, 
			 "total_energy": -695.530379392, 
			 "HOMO_LUMO_gap": 0.15776, 
			 "cosmo_polarized_energy": -10.84, 
			 "cosmo_cavitation_energy": 31.44, 
			 "cosmo_dispersion_energy": -23.17, 
			 "cosmo_repulsion_energy": 1.78, 
			 "cosmo_total_nonelectrostatic_energy": 10.05, 
			 "SMD_solvation_energy": 5.03 
		},
		"coords": [
			{
				"x": 4.7837947559,
				"y": 1.8218149278,
				"z": 0.421074161,
				"element": "C" 
			},
			{
				"x": 3.9407316806,
				"y": 1.7696837243,
				"z": -0.8454574213,
				"element": "C" 
			},
			{
				"x": 4.3091607571,
				"y": 2.3565182735,
				"z": -1.8558695587,
				"element": "O" 
			},
			{
				"x": 2.6712780689,
				"y": 0.9970967637,
				"z": -0.8275702506,
				"element": "C" 
			},
			{
				"x": 1.8935781442,
				"y": 0.9616503402,
				"z": -1.9996429108,
				"element": "C" 
			},
			{
				"x": 0.70985214,
				"y": 0.2647628814,
				"z": -2.0342765222,
				"element": "C" 
			},
			{
				"x": -0.0167975859,
				"y": 0.2951042828,
				"z": -3.1850140771,
				"element": "F" 
			},
			{
				"x": 0.2063666215,
				"y": -0.4637415441,
				"z": -0.924711538,
				"element": "C" 
			},
			{
				"x": 0.9995138059,
				"y": -0.4077274223,
				"z": 0.2476337396,
				"element": "C" 
			},
			{
				"x": 2.1935299989,
				"y": 0.3023721016,
				"z": 0.2920909038,
				"element": "C" 
			},
			{
				"x": -0.9750047556,
				"y": -1.160926587,
				"z": -0.9578469891,
				"element": "N" 
			},
			{
				"x": -1.7155310094,
				"y": -1.5465554202,
				"z": -2.1750567581,
				"element": "C" 
			},
			{
				"x": -2.6392676791,
				"y": -2.6740478626,
				"z": -1.6932636779,
				"element": "C" 
			},
			{
				"x": -2.8927236365,
				"y": -2.3205565392,
				"z": -0.220788844,
				"element": "C" 
			},
			{
				"x": -1.5297541381,
				"y": -1.7926196592,
				"z": 0.2418532092,
				"element": "C" 
			},
			{
				"x": 5.0913119566,
				"y": 0.8174115473,
				"z": 0.732682126,
				"element": "H" 
			},
			{
				"x": 5.6701966749,
				"y": 2.4251662914,
				"z": 0.2230712666,
				"element": "H" 
			},
			{
				"x": 4.2224781461,
				"y": 2.2641258758,
				"z": 1.2515466776,
				"element": "H" 
			},
			{
				"x": 2.2270599039,
				"y": 1.5013844346,
				"z": -2.8789708649,
				"element": "H" 
			},
			{
				"x": 0.6732216539,
				"y": -0.9414750315,
				"z": 1.1317358725,
				"element": "H" 
			},
			{
				"x": 2.7581758345,
				"y": 0.3025536085,
				"z": 1.2188523778,
				"element": "H" 
			},
			{
				"x": -1.0331490243,
				"y": -1.8730990848,
				"z": -2.9627647158,
				"element": "H" 
			},
			{
				"x": -2.2902556109,
				"y": -0.6987901104,
				"z": -2.5674902675,
				"element": "H" 
			},
			{
				"x": -3.5546133284,
				"y": -2.7400889819,
				"z": -2.287314548,
				"element": "H" 
			},
			{
				"x": -2.1235195005,
				"y": -3.6385505425,
				"z": -1.7639516789,
				"element": "H" 
			},
			{
				"x": -3.2339581581,
				"y": -3.1689481015,
				"z": 0.3780803266,
				"element": "H" 
			},
			{
				"x": -3.6462218754,
				"y": -1.5287008681,
				"z": -0.1443776429,
				"element": "H" 
			},
			{
				"x": -1.614408268,
				"y": -1.0684438964,
				"z": 1.0607872538,
				"element": "H" 
			},
			{
				"x": -0.8863455725,
				"y": -2.6153734015,
				"z": 0.5937603512,
				"element": "H" 
			}
		],
		 "valence_orbital": [ 
			{
				"type": "occ",
				"energy": -0.34058,
				"method": "rhf"
			},
			{
				"type": "occ",
				"energy": -0.28898,
				"method": "rhf"
			},
			{
				"type": "occ",
				"energy": -0.24797,
				"method": "rhf"
			},
			{
				"type": "occ",
				"energy": -0.23446,
				"method": "rhf"
			},
			{
				"type": "occ",
				"energy": -0.19647,
				"method": "rhf"
			},
			{
				"type": "unocc",
				"energy": -0.03871,
				"method": "rhf"
			},
			{
				"type": "unocc",
				"energy": 0.00228,
				"method": "rhf"
			},
			{
				"type": "unocc",
				"energy": 0.0558,
				"method": "rhf"
			},
			{
				"type": "unocc",
				"energy": 0.07405,
				"method": "rhf"
			},
			{
				"type": "unocc",
				"energy": 0.08941,
				"method": "rhf"
			}
		],
		"cosmo_sigma_profile": { 
			"-0.025": 0.0,
			"-0.024": 0.0,
			"-0.023": 0.0,
			"-0.022": 0.0,
			"-0.021": 0.0,
			"-0.02": 0.0,
			"-0.019": 0.0,
			"-0.018": 0.0,
			"-0.017": 0.0,
			"-0.016": 0.0,
			"-0.015": 0.0,
			"-0.014": 0.0,
			"-0.013": 0.0,
			"-0.012": 0.0,
			"-0.011": 0.0,
			"-0.01": 0.0,
			"-0.009": 0.0,
			"-0.008": 0.0,
			"-0.007": 0.309160541876,
			"-0.006": 6.54452337511,
			"-0.005": 15.1219985733,
			"-0.004": 26.0976213067,
			"-0.003": 34.0965803634,
			"-0.002": 30.7489549683,
			"-0.001": 24.7939847988,
			"0.0": 21.1899659446,
			"0.001": 12.9129789567,
			"0.002": 15.9633839749,
			"0.003": 15.8031244773,
			"0.004": 15.2982618498,
			"0.005": 9.47606216358,
			"0.006": 1.52939086533,
			"0.007": 2.20581109776,
			"0.008": 0.883726960596,
			"0.009": 1.29529564855,
			"0.01": 2.25713155729,
			"0.011": 2.11743409039,
			"0.012": 3.61429536252,
			"0.013": 4.24181188761,
			"0.014": 0.980143829126,
			"0.015": 0.508234125842,
			"0.016": 0.0502776536379,
			"0.017": 0.0,
			"0.018": 0.0,
			"0.019": 0.0,
			"0.02": 0.0,
			"0.021": 0.0,
			"0.022": 0.0,
			"0.023": 0.0,
			"0.024": 0.0,
			"0.025": 0.0
		}
	}
}
