{
	 "smiles": "OC(=O)CC1=CC=CC=C1I", 
	 "Tm": 389.15, 
	 "num_atms": 18, 
	 "gaussian": { 
		 "optdone": 1, 
		 "sigma_profile": "no", 
		 "theory": "DFT", 
		 "functional": "B3LYP", 
		 "basiset": "6-31G**", 
		 "properties": { 
			 "R2extent": 1961.34, 
			 "electric_dipole_moment_norm": 1.84665423401, 
			 "electric_quadrupole_moment_norm": 9.48545467071, 
			 "total_energy": -470.917963349, 
			 "HOMO_LUMO_gap": 0.20172, 
			 "cosmo_polarized_energy": -79988.5, 
			 "cosmo_cavitation_energy": 25.59, 
			 "cosmo_dispersion_energy": -19.52, 
			 "cosmo_repulsion_energy": 1.55, 
			 "cosmo_total_nonelectrostatic_energy": 7.62, 
			 "SMD_solvation_energy": 4.67 
		},
		"coords": [
			{
				"x": 2.4012080658,
				"y": 1.0088736499,
				"z": 2.7943450245,
				"element": "O" 
			},
			{
				"x": 1.2202640985,
				"y": 0.6815002193,
				"z": 2.2155624353,
				"element": "C" 
			},
			{
				"x": 0.1505276667,
				"y": 0.9032719549,
				"z": 2.7319496752,
				"element": "O" 
			},
			{
				"x": 1.4546178655,
				"y": -0.017974961,
				"z": 0.8830965479,
				"element": "C" 
			},
			{
				"x": 0.2030120945,
				"y": -0.1824593451,
				"z": 0.0582977812,
				"element": "C" 
			},
			{
				"x": -0.4883918283,
				"y": -1.4025104926,
				"z": 0.095479679,
				"element": "C" 
			},
			{
				"x": -1.6504389421,
				"y": -1.6125874576,
				"z": -0.6426892027,
				"element": "C" 
			},
			{
				"x": -2.1507528511,
				"y": -0.5905862326,
				"z": -1.4482529459,
				"element": "C" 
			},
			{
				"x": -1.4869744002,
				"y": 0.634592142,
				"z": -1.5084369222,
				"element": "C" 
			},
			{
				"x": -0.324083879,
				"y": 0.8288535986,
				"z": -0.7598979947,
				"element": "C" 
			},
			{
				"x": 0.6186951993,
				"y": 2.7337613683,
				"z": -0.9086154287,
				"element": "I" 
			},
			{
				"x": 2.1784519301,
				"y": 1.4280263369,
				"z": 3.6425837384,
				"element": "H" 
			},
			{
				"x": 2.2315637315,
				"y": 0.5318982611,
				"z": 0.3441987563,
				"element": "H" 
			},
			{
				"x": 1.8829877388,
				"y": -1.000009646,
				"z": 1.1165175517,
				"element": "H" 
			},
			{
				"x": -0.0992914196,
				"y": -2.1994089084,
				"z": 0.7237498514,
				"element": "H" 
			},
			{
				"x": -2.1603706473,
				"y": -2.5695954965,
				"z": -0.5893750631,
				"element": "H" 
			},
			{
				"x": -3.0541436115,
				"y": -0.7390806754,
				"z": -2.0322604044,
				"element": "H" 
			},
			{
				"x": -1.8711808115,
				"y": 1.432735684,
				"z": -2.1332530792,
				"element": "H" 
			}
		],
		 "valence_orbital": [ 
			{
				"type": "occ",
				"energy": -0.29567,
				"method": "rhf"
			},
			{
				"type": "occ",
				"energy": -0.27922,
				"method": "rhf"
			},
			{
				"type": "occ",
				"energy": -0.26859,
				"method": "rhf"
			},
			{
				"type": "occ",
				"energy": -0.25937,
				"method": "rhf"
			},
			{
				"type": "occ",
				"energy": -0.24028,
				"method": "rhf"
			},
			{
				"type": "unocc",
				"energy": -0.03856,
				"method": "rhf"
			},
			{
				"type": "unocc",
				"energy": -0.01915,
				"method": "rhf"
			},
			{
				"type": "unocc",
				"energy": -0.01686,
				"method": "rhf"
			},
			{
				"type": "unocc",
				"energy": 0.00882,
				"method": "rhf"
			},
			{
				"type": "unocc",
				"energy": 0.04165,
				"method": "rhf"
			}
		],
		"cosmo_sigma_profile": { 
			"0.0": 0.0,
			"0.0": 0.0,
			"0.0": 0.0,
			"0.0": 0.0,
			"0.0": 0.0,
			"0.0": 0.0,
			"0.0": 0.0,
			"0.0": 0.0,
			"0.0": 0.0,
			"0.0": 0.0,
			"0.0": 0.0,
			"0.0": 0.0,
			"0.0": 0.0,
			"0.0": 0.0,
			"0.0": 0.0,
			"0.0": 0.0,
			"0.0": 0.0,
			"0.0": 0.0,
			"0.0": 0.0,
			"0.0": 0.0,
			"0.0": 0.0,
			"0.0": 0.0,
			"0.0": 0.0,
			"0.0": 0.0,
			"0.0": 0.0,
			"0.0": 0.0,
			"0.0": 0.0,
			"0.0": 0.0,
			"0.0": 0.0,
			"0.0": 0.0,
			"0.0": 0.0,
			"0.0": 0.0,
			"0.0": 0.0,
			"0.0": 0.0,
			"0.0": 0.0,
			"0.0": 0.0,
			"0.0": 0.0,
			"0.0": 0.0,
			"0.0": 0.0,
			"0.0": 0.0,
			"0.0": 0.0,
			"0.0": 0.0,
			"0.0": 0.0,
			"0.0": 0.0,
			"0.0": 0.0,
			"0.0": 0.0,
			"0.0": 0.0,
			"0.0": 0.0,
			"0.0": 0.0,
			"0.0": 0.0,
			"0.0": 0.0
		}
	}
}
