{
	 "smiles": "CC(C)C(NC(=O)OCC1C2=C(C=CC=C2)C2=C1C=CC=C2)C(O)=O", 
	 "Tm": 418.15, 
	 "num_atms": 46, 
	 "gaussian": { 
		 "optdone": 1, 
		 "sigma_profile": "yes", 
		 "theory": "DFT", 
		 "functional": "B3LYP", 
		 "basiset": "6-31G**", 
		 "properties": { 
			 "R2extent": 8710.822, 
			 "electric_dipole_moment_norm": 3.22530506619, 
			 "electric_quadrupole_moment_norm": 6.99306336594, 
			 "total_energy": -1130.4953431, 
			 "HOMO_LUMO_gap": 0.18422, 
			 "cosmo_polarized_energy": -17.46, 
			 "cosmo_cavitation_energy": 47.81, 
			 "cosmo_dispersion_energy": -31.48, 
			 "cosmo_repulsion_energy": 2.36, 
			 "cosmo_total_nonelectrostatic_energy": 18.69, 
			 "SMD_solvation_energy": 8.51 
		},
		"coords": [
			{
				"x": 0.5889954811,
				"y": 4.8964259729,
				"z": 0.611411327,
				"element": "C" 
			},
			{
				"x": -0.4510179616,
				"y": 3.8794944301,
				"z": 0.1175838665,
				"element": "C" 
			},
			{
				"x": -1.3559634301,
				"y": 4.5085167499,
				"z": -0.9525322077,
				"element": "C" 
			},
			{
				"x": 0.2156438508,
				"y": 2.5869713379,
				"z": -0.4227143629,
				"element": "C" 
			},
			{
				"x": -0.7988932544,
				"y": 1.6261737489,
				"z": -0.8445789829,
				"element": "N" 
			},
			{
				"x": -0.3911546497,
				"y": 0.5200659021,
				"z": -1.5458833973,
				"element": "C" 
			},
			{
				"x": 0.6583387856,
				"y": 0.4272066589,
				"z": -2.1562739978,
				"element": "O" 
			},
			{
				"x": -1.3481787529,
				"y": -0.4472024999,
				"z": -1.4771653126,
				"element": "O" 
			},
			{
				"x": -1.0062456035,
				"y": -1.7216773555,
				"z": -2.041627236,
				"element": "C" 
			},
			{
				"x": -0.7447844724,
				"y": -2.7627675459,
				"z": -0.942087028,
				"element": "C" 
			},
			{
				"x": -1.9334909712,
				"y": -3.0495066532,
				"z": -0.0357998758,
				"element": "C" 
			},
			{
				"x": -1.5657993747,
				"y": -2.9003991358,
				"z": 1.3163330508,
				"element": "C" 
			},
			{
				"x": -2.4948386116,
				"y": -3.1319360791,
				"z": 2.3329400441,
				"element": "C" 
			},
			{
				"x": -3.7938353469,
				"y": -3.5097604422,
				"z": 1.9857988135,
				"element": "C" 
			},
			{
				"x": -4.1586095732,
				"y": -3.6573966221,
				"z": 0.6431924939,
				"element": "C" 
			},
			{
				"x": -3.2266687406,
				"y": -3.4295487312,
				"z": -0.3761168544,
				"element": "C" 
			},
			{
				"x": -0.1535715932,
				"y": -2.5001748042,
				"z": 1.3758343363,
				"element": "C" 
			},
			{
				"x": 0.344002863,
				"y": -2.3968071017,
				"z": 0.0600006626,
				"element": "C" 
			},
			{
				"x": 1.6627691376,
				"y": -2.0184883873,
				"z": -0.1680322627,
				"element": "C" 
			},
			{
				"x": 2.4919024908,
				"y": -1.7515381896,
				"z": 0.9286644451,
				"element": "C" 
			},
			{
				"x": 2.0030637007,
				"y": -1.8667414493,
				"z": 2.2365160783,
				"element": "C" 
			},
			{
				"x": 0.674995992,
				"y": -2.2393269317,
				"z": 2.4696687736,
				"element": "C" 
			},
			{
				"x": 1.1772545982,
				"y": 1.9664480037,
				"z": 0.6004549033,
				"element": "C" 
			},
			{
				"x": 0.5419590122,
				"y": 1.0814649572,
				"z": 1.4009856321,
				"element": "O" 
			},
			{
				"x": 2.352581855,
				"y": 2.2354645878,
				"z": 0.7003483925,
				"element": "O" 
			},
			{
				"x": 1.2547487529,
				"y": 5.1997085217,
				"z": -0.2042411557,
				"element": "H" 
			},
			{
				"x": 1.2144790806,
				"y": 4.5006023981,
				"z": 1.414654959,
				"element": "H" 
			},
			{
				"x": 0.0844316952,
				"y": 5.7936518573,
				"z": 0.9834458663,
				"element": "H" 
			},
			{
				"x": -1.0765819519,
				"y": 3.5863037096,
				"z": 0.9746060056,
				"element": "H" 
			},
			{
				"x": -0.7630349002,
				"y": 4.8324292718,
				"z": -1.8158552227,
				"element": "H" 
			},
			{
				"x": -1.8658521406,
				"y": 5.3889994464,
				"z": -0.5484993393,
				"element": "H" 
			},
			{
				"x": -2.1125614835,
				"y": 3.8073327487,
				"z": -1.3124188257,
				"element": "H" 
			},
			{
				"x": 0.8295075866,
				"y": 2.8305729217,
				"z": -1.293243102,
				"element": "H" 
			},
			{
				"x": -1.5360880675,
				"y": 1.4372403136,
				"z": -0.1768141125,
				"element": "H" 
			},
			{
				"x": -0.1316247101,
				"y": -1.60289659,
				"z": -2.6842354455,
				"element": "H" 
			},
			{
				"x": -1.8601338915,
				"y": -2.0282800808,
				"z": -2.6528755656,
				"element": "H" 
			},
			{
				"x": -0.4587547095,
				"y": -3.6853572384,
				"z": -1.4720573067,
				"element": "H" 
			},
			{
				"x": -2.2173614524,
				"y": -3.0204434719,
				"z": 3.3775492946,
				"element": "H" 
			},
			{
				"x": -4.5280254351,
				"y": -3.691926469,
				"z": 2.7654062365,
				"element": "H" 
			},
			{
				"x": -5.1727218054,
				"y": -3.9524863862,
				"z": 0.3897583779,
				"element": "H" 
			},
			{
				"x": -3.5189384056,
				"y": -3.5501207031,
				"z": -1.4163807666,
				"element": "H" 
			},
			{
				"x": 2.0450754553,
				"y": -1.9060050981,
				"z": -1.177666287,
				"element": "H" 
			},
			{
				"x": 3.5217363526,
				"y": -1.4503748589,
				"z": 0.7625313391,
				"element": "H" 
			},
			{
				"x": 2.6650815351,
				"y": -1.6750885662,
				"z": 3.0770255304,
				"element": "H" 
			},
			{
				"x": 0.3002520132,
				"y": -2.3279201869,
				"z": 3.4857851957,
				"element": "H" 
			},
			{
				"x": 1.2145110509,
				"y": 0.6312980396,
				"z": 1.9416030227,
				"element": "H" 
			}
		],
		 "valence_orbital": [ 
			{
				"type": "occ",
				"energy": -0.27661,
				"method": "rhf"
			},
			{
				"type": "occ",
				"energy": -0.25395,
				"method": "rhf"
			},
			{
				"type": "occ",
				"energy": -0.24912,
				"method": "rhf"
			},
			{
				"type": "occ",
				"energy": -0.24583,
				"method": "rhf"
			},
			{
				"type": "occ",
				"energy": -0.21905,
				"method": "rhf"
			},
			{
				"type": "unocc",
				"energy": -0.03483,
				"method": "rhf"
			},
			{
				"type": "unocc",
				"energy": -0.01796,
				"method": "rhf"
			},
			{
				"type": "unocc",
				"energy": 0.00295,
				"method": "rhf"
			},
			{
				"type": "unocc",
				"energy": 0.01067,
				"method": "rhf"
			},
			{
				"type": "unocc",
				"energy": 0.03685,
				"method": "rhf"
			}
		],
		"cosmo_sigma_profile": { 
			"-0.025": 0.0,
			"-0.024": 0.0,
			"-0.023": 0.0,
			"-0.022": 0.0,
			"-0.021": 0.0,
			"-0.02": 0.0,
			"-0.019": 0.0,
			"-0.018": 0.0,
			"-0.017": 0.0,
			"-0.016": 0.0,
			"-0.015": 0.0,
			"-0.014": 0.307502044214,
			"-0.013": 1.04640214727,
			"-0.012": 0.983094466321,
			"-0.011": 1.37828154355,
			"-0.01": 1.61932657938,
			"-0.009": 2.09399708323,
			"-0.008": 2.00852645473,
			"-0.007": 3.26422958429,
			"-0.006": 22.494115916,
			"-0.005": 27.8886092215,
			"-0.004": 31.7354626405,
			"-0.003": 38.1832054232,
			"-0.002": 29.4695390769,
			"-0.001": 28.4163935235,
			"0.0": 27.5604577828,
			"0.001": 26.9034604189,
			"0.002": 19.974727805,
			"0.003": 20.4436155769,
			"0.004": 23.2627680417,
			"0.005": 22.0456105881,
			"0.006": 15.3386804471,
			"0.007": 6.72248572914,
			"0.008": 4.19057584439,
			"0.009": 3.20691017926,
			"0.01": 2.83662586062,
			"0.011": 5.41036280915,
			"0.012": 6.74604225486,
			"0.013": 1.83383402929,
			"0.014": 0.0,
			"0.015": 0.0,
			"0.016": 0.0,
			"0.017": 0.0,
			"0.018": 0.0,
			"0.019": 0.0,
			"0.02": 0.0,
			"0.021": 0.0,
			"0.022": 0.0,
			"0.023": 0.0,
			"0.024": 0.0,
			"0.025": 0.0
		}
	}
}
