{
	 "smiles": "COC1=CC=C(O)C=C1C(C)(C)C", 
	 "Tm": 321.15, 
	 "num_atms": 29, 
	 "gaussian": { 
		 "optdone": 1, 
		 "sigma_profile": "yes", 
		 "theory": "DFT", 
		 "functional": "B3LYP", 
		 "basiset": "6-31G**", 
		 "properties": { 
			 "R2extent": 2733.8133, 
			 "electric_dipole_moment_norm": 0.644575604565, 
			 "electric_quadrupole_moment_norm": 12.6407943682, 
			 "total_energy": -579.247442514, 
			 "HOMO_LUMO_gap": 0.19382, 
			 "cosmo_polarized_energy": -9.24, 
			 "cosmo_cavitation_energy": 30.08, 
			 "cosmo_dispersion_energy": -21.46, 
			 "cosmo_repulsion_energy": 1.69, 
			 "cosmo_total_nonelectrostatic_energy": 10.32, 
			 "SMD_solvation_energy": 6.37 
		},
		"coords": [
			{
				"x": 3.4335353592,
				"y": 0.6419085231,
				"z": 1.8596889138,
				"element": "C" 
			},
			{
				"x": 2.4441850704,
				"y": -0.0484629621,
				"z": 1.1217573041,
				"element": "O" 
			},
			{
				"x": 1.2312414032,
				"y": 0.5596105306,
				"z": 0.9013571776,
				"element": "C" 
			},
			{
				"x": 0.9580699089,
				"y": 1.8453796017,
				"z": 1.3927130552,
				"element": "C" 
			},
			{
				"x": -0.2665277532,
				"y": 2.4675983199,
				"z": 1.1737060738,
				"element": "C" 
			},
			{
				"x": -1.2448962831,
				"y": 1.7947166523,
				"z": 0.4475213991,
				"element": "C" 
			},
			{
				"x": -2.4452535892,
				"y": 2.4263147413,
				"z": 0.2427900273,
				"element": "O" 
			},
			{
				"x": -0.9723861559,
				"y": 0.5166857059,
				"z": -0.0403187329,
				"element": "C" 
			},
			{
				"x": 0.2509822108,
				"y": -0.1437347339,
				"z": 0.1605752391,
				"element": "C" 
			},
			{
				"x": 0.384784664,
				"y": -1.5639359934,
				"z": -0.4530171248,
				"element": "C" 
			},
			{
				"x": -0.7166751064,
				"y": -2.473810201,
				"z": 0.1475252937,
				"element": "C" 
			},
			{
				"x": 1.7338769433,
				"y": -2.2771870025,
				"z": -0.2181686037,
				"element": "C" 
			},
			{
				"x": 0.1868706181,
				"y": -1.4656393176,
				"z": -1.9868911409,
				"element": "C" 
			},
			{
				"x": 4.2948317874,
				"y": -0.0275105593,
				"z": 1.9041498715,
				"element": "H" 
			},
			{
				"x": 3.7335343763,
				"y": 1.5783241012,
				"z": 1.3701408836,
				"element": "H" 
			},
			{
				"x": 3.1022220611,
				"y": 0.8664730918,
				"z": 2.882593271,
				"element": "H" 
			},
			{
				"x": 1.7116874579,
				"y": 2.3782877365,
				"z": 1.9588360013,
				"element": "H" 
			},
			{
				"x": -0.4677433152,
				"y": 3.4618628277,
				"z": 1.5578782931,
				"element": "H" 
			},
			{
				"x": -3.0204932395,
				"y": 1.8454320694,
				"z": -0.2710042789,
				"element": "H" 
			},
			{
				"x": -1.7521297656,
				"y": 0.0110822481,
				"z": -0.6048311945,
				"element": "H" 
			},
			{
				"x": -0.6521244336,
				"y": -3.4782718551,
				"z": -0.2859462098,
				"element": "H" 
			},
			{
				"x": -1.7245117305,
				"y": -2.094955442,
				"z": -0.0449010756,
				"element": "H" 
			},
			{
				"x": -0.596362088,
				"y": -2.5650793944,
				"z": 1.2319328565,
				"element": "H" 
			},
			{
				"x": 1.9417460755,
				"y": -2.4262330933,
				"z": 0.8427321618,
				"element": "H" 
			},
			{
				"x": 2.5717417097,
				"y": -1.7259388722,
				"z": -0.6481647006,
				"element": "H" 
			},
			{
				"x": 1.6899063373,
				"y": -3.2613438863,
				"z": -0.6990290975,
				"element": "H" 
			},
			{
				"x": 0.2585718146,
				"y": -2.4609631031,
				"z": -2.4399405562,
				"element": "H" 
			},
			{
				"x": 0.9576849535,
				"y": -0.8323811668,
				"z": -2.4380874993,
				"element": "H" 
			},
			{
				"x": -0.7872692912,
				"y": -1.0483285665,
				"z": -2.257597608,
				"element": "H" 
			}
		],
		 "valence_orbital": [ 
			{
				"type": "occ",
				"energy": -0.31741,
				"method": "rhf"
			},
			{
				"type": "occ",
				"energy": -0.2984,
				"method": "rhf"
			},
			{
				"type": "occ",
				"energy": -0.28707,
				"method": "rhf"
			},
			{
				"type": "occ",
				"energy": -0.23899,
				"method": "rhf"
			},
			{
				"type": "occ",
				"energy": -0.19375,
				"method": "rhf"
			},
			{
				"type": "unocc",
				"energy": 7e-05,
				"method": "rhf"
			},
			{
				"type": "unocc",
				"energy": 0.03189,
				"method": "rhf"
			},
			{
				"type": "unocc",
				"energy": 0.07371,
				"method": "rhf"
			},
			{
				"type": "unocc",
				"energy": 0.08862,
				"method": "rhf"
			},
			{
				"type": "unocc",
				"energy": 0.10005,
				"method": "rhf"
			}
		],
		"cosmo_sigma_profile": { 
			"-0.025": 0.0,
			"-0.024": 0.0,
			"-0.023": 0.0,
			"-0.022": 0.0,
			"-0.021": 0.0,
			"-0.02": 0.0,
			"-0.019": 0.0,
			"-0.018": 0.0,
			"-0.017": 0.742128802762,
			"-0.016": 1.09778467395,
			"-0.015": 1.15453373952,
			"-0.014": 1.30825389811,
			"-0.013": 0.931890304662,
			"-0.012": 0.423256822738,
			"-0.011": 0.247430001148,
			"-0.01": 1.2884352911,
			"-0.009": 2.00794509156,
			"-0.008": 1.00092678541,
			"-0.007": 0.828362643114,
			"-0.006": 4.88437170426,
			"-0.005": 14.1979473365,
			"-0.004": 14.0037577776,
			"-0.003": 16.9003692709,
			"-0.002": 24.3491185339,
			"-0.001": 21.044442907,
			"0.0": 21.0464337747,
			"0.001": 24.661630809,
			"0.002": 21.0555593512,
			"0.003": 9.90668197386,
			"0.004": 11.8284696768,
			"0.005": 15.4805594646,
			"0.006": 12.8448909287,
			"0.007": 3.14027857001,
			"0.008": 1.53037992844,
			"0.009": 1.21014398408,
			"0.01": 2.08016755477,
			"0.011": 1.54518124444,
			"0.012": 2.00729452312,
			"0.013": 0.144178305901,
			"0.014": 0.0,
			"0.015": 0.0,
			"0.016": 0.0,
			"0.017": 0.0,
			"0.018": 0.0,
			"0.019": 0.0,
			"0.02": 0.0,
			"0.021": 0.0,
			"0.022": 0.0,
			"0.023": 0.0,
			"0.024": 0.0,
			"0.025": 0.0
		}
	}
}
