{
	 "smiles": "ClS(=O)(=O)CCOC1=CC=CC=C1", 
	 "Tm": 311.15, 
	 "num_atms": 22, 
	 "gaussian": { 
		 "optdone": 1, 
		 "sigma_profile": "yes", 
		 "theory": "DFT", 
		 "functional": "B3LYP", 
		 "basiset": "6-31G**", 
		 "properties": { 
			 "R2extent": 5337.418, 
			 "electric_dipole_moment_norm": 3.34415061563, 
			 "electric_quadrupole_moment_norm": 12.5086194686, 
			 "total_energy": -1394.24834611, 
			 "HOMO_LUMO_gap": 0.14474, 
			 "cosmo_polarized_energy": -11.42, 
			 "cosmo_cavitation_energy": 29.35, 
			 "cosmo_dispersion_energy": -21.86, 
			 "cosmo_repulsion_energy": 1.69, 
			 "cosmo_total_nonelectrostatic_energy": 9.18, 
			 "SMD_solvation_energy": 3.72 
		},
		"coords": [
			{
				"x": 5.1733840595,
				"y": 1.4021276689,
				"z": -0.7083670661,
				"element": "Cl" 
			},
			{
				"x": 3.4826748133,
				"y": 1.8487271726,
				"z": 0.5148131868,
				"element": "S" 
			},
			{
				"x": 3.5644276271,
				"y": 3.2623744048,
				"z": 0.8537999725,
				"element": "O" 
			},
			{
				"x": 3.4113999482,
				"y": 0.8096039713,
				"z": 1.5365636907,
				"element": "O" 
			},
			{
				"x": 2.1431941922,
				"y": 1.5943682125,
				"z": -0.6792552196,
				"element": "C" 
			},
			{
				"x": 2.004998764,
				"y": 0.1378501318,
				"z": -1.1491541399,
				"element": "C" 
			},
			{
				"x": 0.7815411052,
				"y": -0.0250261035,
				"z": -1.8437884365,
				"element": "O" 
			},
			{
				"x": -0.3861104438,
				"y": -0.1755598144,
				"z": -1.1270262515,
				"element": "C" 
			},
			{
				"x": -0.4676865402,
				"y": -0.2409038046,
				"z": 0.268454613,
				"element": "C" 
			},
			{
				"x": -1.7190049721,
				"y": -0.4103760108,
				"z": 0.872013987,
				"element": "C" 
			},
			{
				"x": -2.8770192953,
				"y": -0.5115425116,
				"z": 0.1052834155,
				"element": "C" 
			},
			{
				"x": -2.7822770128,
				"y": -0.4424676342,
				"z": -1.2888161409,
				"element": "C" 
			},
			{
				"x": -1.5470564875,
				"y": -0.2737659548,
				"z": -1.9051985046,
				"element": "C" 
			},
			{
				"x": 2.3197193859,
				"y": 2.2882508567,
				"z": -1.5029319001,
				"element": "H" 
			},
			{
				"x": 1.2560971872,
				"y": 1.9160944969,
				"z": -0.1240046719,
				"element": "H" 
			},
			{
				"x": 2.0912899718,
				"y": -0.5536369646,
				"z": -0.3051891671,
				"element": "H" 
			},
			{
				"x": 2.7898997874,
				"y": -0.101371799,
				"z": -1.8686623276,
				"element": "H" 
			},
			{
				"x": 0.414372307,
				"y": -0.168937897,
				"z": 0.8949794384,
				"element": "H" 
			},
			{
				"x": -1.7759592316,
				"y": -0.4615192651,
				"z": 1.9554506465,
				"element": "H" 
			},
			{
				"x": -3.8423009383,
				"y": -0.6415629749,
				"z": 0.5841221532,
				"element": "H" 
			},
			{
				"x": -3.6763392904,
				"y": -0.5206204991,
				"z": -1.9006274113,
				"element": "H" 
			},
			{
				"x": -1.4534449368,
				"y": -0.2200056819,
				"z": -2.9848598665,
				"element": "H" 
			}
		],
		 "valence_orbital": [ 
			{
				"type": "occ",
				"energy": -0.33912,
				"method": "rhf"
			},
			{
				"type": "occ",
				"energy": -0.33023,
				"method": "rhf"
			},
			{
				"type": "occ",
				"energy": -0.32422,
				"method": "rhf"
			},
			{
				"type": "occ",
				"energy": -0.26275,
				"method": "rhf"
			},
			{
				"type": "occ",
				"energy": -0.23546,
				"method": "rhf"
			},
			{
				"type": "unocc",
				"energy": -0.09072,
				"method": "rhf"
			},
			{
				"type": "unocc",
				"energy": -0.01456,
				"method": "rhf"
			},
			{
				"type": "unocc",
				"energy": -0.00146,
				"method": "rhf"
			},
			{
				"type": "unocc",
				"energy": 0.03141,
				"method": "rhf"
			},
			{
				"type": "unocc",
				"energy": 0.04774,
				"method": "rhf"
			}
		],
		"cosmo_sigma_profile": { 
			"-0.025": 0.0,
			"-0.024": 0.0,
			"-0.023": 0.0,
			"-0.022": 0.0,
			"-0.021": 0.0,
			"-0.02": 0.0,
			"-0.019": 0.0,
			"-0.018": 0.0,
			"-0.017": 0.0,
			"-0.016": 0.0,
			"-0.015": 0.0,
			"-0.014": 0.0,
			"-0.013": 0.0544148038979,
			"-0.012": 0.716842468604,
			"-0.011": 1.80917854821,
			"-0.01": 4.18818964998,
			"-0.009": 3.70876443205,
			"-0.008": 3.85955055745,
			"-0.007": 7.20304007961,
			"-0.006": 13.3135495563,
			"-0.005": 18.8299860027,
			"-0.004": 16.3364872634,
			"-0.003": 13.7409313405,
			"-0.002": 11.2444749911,
			"-0.001": 13.0597347128,
			"0.0": 12.6750323419,
			"0.001": 13.725678633,
			"0.002": 17.0002139898,
			"0.003": 21.0977651853,
			"0.004": 16.5316909142,
			"0.005": 13.973381805,
			"0.006": 8.66706376465,
			"0.007": 6.82398239559,
			"0.008": 12.5155716996,
			"0.009": 5.50149167578,
			"0.01": 0.281374964722,
			"0.011": 0.0,
			"0.012": 0.0,
			"0.013": 0.0,
			"0.014": 0.0,
			"0.015": 0.0,
			"0.016": 0.0,
			"0.017": 0.0,
			"0.018": 0.0,
			"0.019": 0.0,
			"0.02": 0.0,
			"0.021": 0.0,
			"0.022": 0.0,
			"0.023": 0.0,
			"0.024": 0.0,
			"0.025": 0.0
		}
	}
}
