{
	 "smiles": "CCCC(O)CO", 
	 "Tm": 377.15, 
	 "num_atms": 19, 
	 "gaussian": { 
		 "optdone": 1, 
		 "sigma_profile": "yes", 
		 "theory": "DFT", 
		 "functional": "B3LYP", 
		 "basiset": "6-31G**", 
		 "properties": { 
			 "R2extent": 1453.4325, 
			 "electric_dipole_moment_norm": 2.22745565388, 
			 "electric_quadrupole_moment_norm": 5.00609875252, 
			 "total_energy": -348.197441636, 
			 "HOMO_LUMO_gap": 0.32892, 
			 "cosmo_polarized_energy": -10.0, 
			 "cosmo_cavitation_energy": 20.49, 
			 "cosmo_dispersion_energy": -15.17, 
			 "cosmo_repulsion_energy": 1.31, 
			 "cosmo_total_nonelectrostatic_energy": 6.63, 
			 "SMD_solvation_energy": 3.6 
		},
		"coords": [
			{
				"x": -1.6554911726,
				"y": 1.2184194788,
				"z": 2.8363098542,
				"element": "C" 
			},
			{
				"x": -0.2928349322,
				"y": 0.553949404,
				"z": 2.5956887174,
				"element": "C" 
			},
			{
				"x": 0.7312056377,
				"y": 1.454024712,
				"z": 1.8702468547,
				"element": "C" 
			},
			{
				"x": 0.8106835951,
				"y": 1.2730223175,
				"z": 0.3505614002,
				"element": "C" 
			},
			{
				"x": 1.2613996267,
				"y": -0.0612100971,
				"z": 0.107192641,
				"element": "O" 
			},
			{
				"x": -0.5074255574,
				"y": 1.4980796882,
				"z": -0.3954100533,
				"element": "C" 
			},
			{
				"x": -0.9416753971,
				"y": 2.8304535888,
				"z": -0.1594269067,
				"element": "O" 
			},
			{
				"x": -2.0967456868,
				"y": 1.5964389509,
				"z": 1.9096314555,
				"element": "H" 
			},
			{
				"x": -1.5534778225,
				"y": 2.0764214808,
				"z": 3.5109090938,
				"element": "H" 
			},
			{
				"x": -2.3639753721,
				"y": 0.5191438145,
				"z": 3.2938620663,
				"element": "H" 
			},
			{
				"x": -0.4132466571,
				"y": -0.3777914877,
				"z": 2.0307249659,
				"element": "H" 
			},
			{
				"x": 0.1229754852,
				"y": 0.2572740872,
				"z": 3.5660473965,
				"element": "H" 
			},
			{
				"x": 0.5215735543,
				"y": 2.5096027744,
				"z": 2.0760875399,
				"element": "H" 
			},
			{
				"x": 1.7384660602,
				"y": 1.2485971705,
				"z": 2.2499137985,
				"element": "H" 
			},
			{
				"x": 1.5414294083,
				"y": 2.0025818223,
				"z": -0.0346765135,
				"element": "H" 
			},
			{
				"x": 1.4113688235,
				"y": -0.1602087605,
				"z": -0.8419047886,
				"element": "H" 
			},
			{
				"x": -1.2432978309,
				"y": 0.7553056548,
				"z": -0.0554259512,
				"element": "H" 
			},
			{
				"x": -0.3357329934,
				"y": 1.3206171446,
				"z": -1.4718934479,
				"element": "H" 
			},
			{
				"x": -1.786798769,
				"y": 2.9581782562,
				"z": -0.6067381228,
				"element": "H" 
			}
		],
		 "valence_orbital": [ 
			{
				"type": "occ",
				"energy": -0.3235,
				"method": "rhf"
			},
			{
				"type": "occ",
				"energy": -0.31648,
				"method": "rhf"
			},
			{
				"type": "occ",
				"energy": -0.3026,
				"method": "rhf"
			},
			{
				"type": "occ",
				"energy": -0.27257,
				"method": "rhf"
			},
			{
				"type": "occ",
				"energy": -0.26362,
				"method": "rhf"
			},
			{
				"type": "unocc",
				"energy": 0.0653,
				"method": "rhf"
			},
			{
				"type": "unocc",
				"energy": 0.07157,
				"method": "rhf"
			},
			{
				"type": "unocc",
				"energy": 0.11818,
				"method": "rhf"
			},
			{
				"type": "unocc",
				"energy": 0.12514,
				"method": "rhf"
			},
			{
				"type": "unocc",
				"energy": 0.14748,
				"method": "rhf"
			}
		],
		"cosmo_sigma_profile": { 
			"-0.025": 0.0,
			"-0.024": 0.0,
			"-0.023": 0.0,
			"-0.022": 0.0,
			"-0.021": 0.0,
			"-0.02": 0.0,
			"-0.019": 0.0,
			"-0.018": 0.0,
			"-0.017": 0.0,
			"-0.016": 0.663430720729,
			"-0.015": 1.85894342975,
			"-0.014": 2.14256690333,
			"-0.013": 1.7877143122,
			"-0.012": 1.68845609015,
			"-0.011": 2.16881042251,
			"-0.01": 2.0151066429,
			"-0.009": 1.3316675871,
			"-0.008": 1.69617903503,
			"-0.007": 1.69883190677,
			"-0.006": 2.41819562911,
			"-0.005": 2.91985775452,
			"-0.004": 3.99348421566,
			"-0.003": 10.2569594544,
			"-0.002": 17.14532226,
			"-0.001": 20.1326811826,
			"0.0": 19.2074085407,
			"0.001": 17.8954502029,
			"0.002": 11.9337277243,
			"0.003": 3.19443463416,
			"0.004": 2.9793670421,
			"0.005": 3.17678601661,
			"0.006": 2.74283037452,
			"0.007": 2.19402914835,
			"0.008": 3.38953094112,
			"0.009": 3.94710228452,
			"0.01": 1.8309630683,
			"0.011": 2.84995199308,
			"0.012": 2.86751777198,
			"0.013": 2.66402735051,
			"0.014": 2.03514182453,
			"0.015": 0.280182578615,
			"0.016": 0.0,
			"0.017": 0.0,
			"0.018": 0.0,
			"0.019": 0.0,
			"0.02": 0.0,
			"0.021": 0.0,
			"0.022": 0.0,
			"0.023": 0.0,
			"0.024": 0.0,
			"0.025": 0.0
		}
	}
}
