{
	 "smiles": "OC(=O)C1=CC(OCC2=CC=CC=C2)=NC=C1", 
	 "Tm": 445.15, 
	 "num_atms": 28, 
	 "gaussian": { 
		 "optdone": 1, 
		 "sigma_profile": "yes", 
		 "theory": "DFT", 
		 "functional": "B3LYP", 
		 "basiset": "6-31G**", 
		 "properties": { 
			 "R2extent": 6400.9164, 
			 "electric_dipole_moment_norm": 1.67931935617, 
			 "electric_quadrupole_moment_norm": 5.79479044574, 
			 "total_energy": -782.448077149, 
			 "HOMO_LUMO_gap": 0.17482, 
			 "cosmo_polarized_energy": -12.16, 
			 "cosmo_cavitation_energy": 33.8, 
			 "cosmo_dispersion_energy": -24.53, 
			 "cosmo_repulsion_energy": 1.91, 
			 "cosmo_total_nonelectrostatic_energy": 11.18, 
			 "SMD_solvation_energy": 6.31 
		},
		"coords": [
			{
				"x": -4.5711335208,
				"y": -0.042478237,
				"z": -1.8184375443,
				"element": "O" 
			},
			{
				"x": -4.7954982692,
				"y": 0.5989092239,
				"z": -0.6478074743,
				"element": "C" 
			},
			{
				"x": -5.9055663342,
				"y": 0.9345019148,
				"z": -0.2896327951,
				"element": "O" 
			},
			{
				"x": -3.5469411667,
				"y": 0.8406080962,
				"z": 0.1341958622,
				"element": "C" 
			},
			{
				"x": -2.2992113937,
				"y": 0.4360775555,
				"z": -0.3208979372,
				"element": "C" 
			},
			{
				"x": -1.1855660051,
				"y": 0.7140564374,
				"z": 0.496218228,
				"element": "C" 
			},
			{
				"x": 0.015404701,
				"y": 0.3104803349,
				"z": 0.0308681561,
				"element": "O" 
			},
			{
				"x": 1.1711823872,
				"y": 0.587033624,
				"z": 0.8562347513,
				"element": "C" 
			},
			{
				"x": 2.3832799788,
				"y": 0.0521268851,
				"z": 0.1417749639,
				"element": "C" 
			},
			{
				"x": 2.8095302729,
				"y": -1.2647690414,
				"z": 0.3526480115,
				"element": "C" 
			},
			{
				"x": 3.9231035709,
				"y": -1.7676328827,
				"z": -0.3206913429,
				"element": "C" 
			},
			{
				"x": 4.6234131517,
				"y": -0.9555345665,
				"z": -1.2151426305,
				"element": "C" 
			},
			{
				"x": 4.2059620984,
				"y": 0.3590941652,
				"z": -1.4330372179,
				"element": "C" 
			},
			{
				"x": 3.0918805439,
				"y": 0.8579850033,
				"z": -0.7576005985,
				"element": "C" 
			},
			{
				"x": -1.2664531843,
				"y": 1.3367949549,
				"z": 1.6678231531,
				"element": "N" 
			},
			{
				"x": -2.4860514626,
				"y": 1.7192479977,
				"z": 2.087834359,
				"element": "C" 
			},
			{
				"x": -3.6517867171,
				"y": 1.5006782306,
				"z": 1.3709165913,
				"element": "C" 
			},
			{
				"x": -5.4411722335,
				"y": -0.1453986768,
				"z": -2.2381456859,
				"element": "H" 
			},
			{
				"x": -2.1674604187,
				"y": -0.075111589,
				"z": -1.2657341997,
				"element": "H" 
			},
			{
				"x": 1.2417201368,
				"y": 1.6666850167,
				"z": 1.0221517432,
				"element": "H" 
			},
			{
				"x": 1.0342469067,
				"y": 0.1130193802,
				"z": 1.8333251978,
				"element": "H" 
			},
			{
				"x": 2.2652136507,
				"y": -1.8972802674,
				"z": 1.0494310274,
				"element": "H" 
			},
			{
				"x": 4.2456820621,
				"y": -2.7900650066,
				"z": -0.145880784,
				"element": "H" 
			},
			{
				"x": 5.4928572227,
				"y": -1.3444092484,
				"z": -1.7375557258,
				"element": "H" 
			},
			{
				"x": 4.7491753508,
				"y": 0.9954491133,
				"z": -2.1258250593,
				"element": "H" 
			},
			{
				"x": 2.7678590355,
				"y": 1.881769939,
				"z": -0.9271009808,
				"element": "H" 
			},
			{
				"x": -2.5158201928,
				"y": 2.2258559966,
				"z": 3.0501414847,
				"element": "H" 
			},
			{
				"x": -4.6200501716,
				"y": 1.8207056463,
				"z": 1.7357264466,
				"element": "H" 
			}
		],
		 "valence_orbital": [ 
			{
				"type": "occ",
				"energy": -0.28693,
				"method": "rhf"
			},
			{
				"type": "occ",
				"energy": -0.27414,
				"method": "rhf"
			},
			{
				"type": "occ",
				"energy": -0.2534,
				"method": "rhf"
			},
			{
				"type": "occ",
				"energy": -0.25019,
				"method": "rhf"
			},
			{
				"type": "occ",
				"energy": -0.2372,
				"method": "rhf"
			},
			{
				"type": "unocc",
				"energy": -0.06238,
				"method": "rhf"
			},
			{
				"type": "unocc",
				"energy": -0.01124,
				"method": "rhf"
			},
			{
				"type": "unocc",
				"energy": -0.00869,
				"method": "rhf"
			},
			{
				"type": "unocc",
				"energy": -0.00234,
				"method": "rhf"
			},
			{
				"type": "unocc",
				"energy": 0.05232,
				"method": "rhf"
			}
		],
		"cosmo_sigma_profile": { 
			"-0.025": 0.0,
			"-0.024": 0.0,
			"-0.023": 0.0,
			"-0.022": 0.0,
			"-0.021": 0.0,
			"-0.02": 0.0,
			"-0.019": 0.17930710426,
			"-0.018": 1.24252290866,
			"-0.017": 0.653965125082,
			"-0.016": 0.890126180249,
			"-0.015": 0.672973306285,
			"-0.014": 0.854648439798,
			"-0.013": 0.850085395964,
			"-0.012": 0.563874333747,
			"-0.011": 0.578857153666,
			"-0.01": 0.753312814271,
			"-0.009": 0.411292463065,
			"-0.008": 0.629849296621,
			"-0.007": 4.52411705423,
			"-0.006": 15.2849551524,
			"-0.005": 21.1645768873,
			"-0.004": 19.9053592191,
			"-0.003": 20.749303621,
			"-0.002": 16.5186952811,
			"-0.001": 17.6052436893,
			"0.0": 24.1406994677,
			"0.001": 25.1815615759,
			"0.002": 17.6367589027,
			"0.003": 13.6992901822,
			"0.004": 13.8486551092,
			"0.005": 15.9138899745,
			"0.006": 10.3619452308,
			"0.007": 5.7323011577,
			"0.008": 5.10274080181,
			"0.009": 3.39572815606,
			"0.01": 3.82694560908,
			"0.011": 5.87054311893,
			"0.012": 1.80578764678,
			"0.013": 0.0871896016313,
			"0.014": 0.0,
			"0.015": 0.0,
			"0.016": 0.0,
			"0.017": 0.0,
			"0.018": 0.0,
			"0.019": 0.0,
			"0.02": 0.0,
			"0.021": 0.0,
			"0.022": 0.0,
			"0.023": 0.0,
			"0.024": 0.0,
			"0.025": 0.0
		}
	}
}
