{
	 "smiles": "ClC1=CC(Cl)=C(C=C1)C(CN1C=CN=C1)OCC=C", 
	 "Tm": 325.85, 
	 "num_atms": 33, 
	 "gaussian": { 
		 "optdone": 1, 
		 "sigma_profile": "yes", 
		 "theory": "DFT", 
		 "functional": "B3LYP", 
		 "basiset": "6-31G**", 
		 "properties": { 
			 "R2extent": 7910.7763, 
			 "electric_dipole_moment_norm": 4.84976014046, 
			 "electric_quadrupole_moment_norm": 12.7719437193, 
			 "total_energy": -1646.98902559, 
			 "HOMO_LUMO_gap": 0.18573, 
			 "cosmo_polarized_energy": -15.03, 
			 "cosmo_cavitation_energy": 41.04, 
			 "cosmo_dispersion_energy": -27.03, 
			 "cosmo_repulsion_energy": 2.12, 
			 "cosmo_total_nonelectrostatic_energy": 16.13, 
			 "SMD_solvation_energy": 5.79 
		},
		"coords": [
			{
				"x": 1.915904933,
				"y": 0.1124762936,
				"z": -5.2534329998,
				"element": "Cl" 
			},
			{
				"x": 1.105145708,
				"y": 0.3219480622,
				"z": -3.7127917497,
				"element": "C" 
			},
			{
				"x": -0.129047307,
				"y": 0.9641338521,
				"z": -3.6772050871,
				"element": "C" 
			},
			{
				"x": -0.7676913157,
				"y": 1.1283177586,
				"z": -2.4459181334,
				"element": "C" 
			},
			{
				"x": -2.3141780257,
				"y": 1.9675125867,
				"z": -2.4571641915,
				"element": "Cl" 
			},
			{
				"x": -0.204812294,
				"y": 0.6610456574,
				"z": -1.2507956539,
				"element": "C" 
			},
			{
				"x": 1.0454869899,
				"y": 0.0297006904,
				"z": -1.3346667306,
				"element": "C" 
			},
			{
				"x": 1.7073553536,
				"y": -0.1477404149,
				"z": -2.545282255,
				"element": "C" 
			},
			{
				"x": -0.8641090597,
				"y": 0.7912733235,
				"z": 0.1168258428,
				"element": "C" 
			},
			{
				"x": -1.4904234656,
				"y": -0.5354416823,
				"z": 0.6063342587,
				"element": "C" 
			},
			{
				"x": -2.5812485859,
				"y": -1.0263474106,
				"z": -0.2139178684,
				"element": "N" 
			},
			{
				"x": -3.9071165451,
				"y": -0.6353912653,
				"z": -0.149166792,
				"element": "C" 
			},
			{
				"x": -4.5531093033,
				"y": -1.3567674802,
				"z": -1.1209740925,
				"element": "C" 
			},
			{
				"x": -3.6704633095,
				"y": -2.1807089653,
				"z": -1.783897555,
				"element": "N" 
			},
			{
				"x": -2.5049842094,
				"y": -1.9564815423,
				"z": -1.2186940661,
				"element": "C" 
			},
			{
				"x": 0.0821529708,
				"y": 1.1105061997,
				"z": 1.1272872846,
				"element": "O" 
			},
			{
				"x": 0.5479090189,
				"y": 2.4623538503,
				"z": 1.0956220462,
				"element": "C" 
			},
			{
				"x": 1.4215849342,
				"y": 2.6890288635,
				"z": 2.2923642861,
				"element": "C" 
			},
			{
				"x": 2.64610362,
				"y": 3.2102504787,
				"z": 2.2353444337,
				"element": "C" 
			},
			{
				"x": -0.5894281196,
				"y": 1.3325481975,
				"z": -4.5854133514,
				"element": "H" 
			},
			{
				"x": 1.5095675314,
				"y": -0.3070224409,
				"z": -0.4126185087,
				"element": "H" 
			},
			{
				"x": 2.6736873545,
				"y": -0.637117189,
				"z": -2.5867617819,
				"element": "H" 
			},
			{
				"x": -1.6481174631,
				"y": 1.5589110429,
				"z": 0.0738961301,
				"element": "H" 
			},
			{
				"x": -0.7102787693,
				"y": -1.3007114249,
				"z": 0.6461472111,
				"element": "H" 
			},
			{
				"x": -1.8483014467,
				"y": -0.3786300056,
				"z": 1.627420186,
				"element": "H" 
			},
			{
				"x": -4.2498219738,
				"y": 0.0943342329,
				"z": 0.5688344102,
				"element": "H" 
			},
			{
				"x": -5.6036607615,
				"y": -1.3341247612,
				"z": -1.3762285015,
				"element": "H" 
			},
			{
				"x": -1.569204962,
				"y": -2.4324680386,
				"z": -1.4802773453,
				"element": "H" 
			},
			{
				"x": 1.0991450101,
				"y": 2.6670677752,
				"z": 0.167165184,
				"element": "H" 
			},
			{
				"x": -0.3214670119,
				"y": 3.1416808592,
				"z": 1.1223660894,
				"element": "H" 
			},
			{
				"x": 0.9822258235,
				"y": 2.4150915112,
				"z": 3.2504128243,
				"element": "H" 
			},
			{
				"x": 3.2317293519,
				"y": 3.3900975538,
				"z": 3.1317495495,
				"element": "H" 
			},
			{
				"x": 3.1067653289,
				"y": 3.4840738319,
				"z": 1.2890369272,
				"element": "H" 
			}
		],
		 "valence_orbital": [ 
			{
				"type": "occ",
				"energy": -0.26826,
				"method": "rhf"
			},
			{
				"type": "occ",
				"energy": -0.26567,
				"method": "rhf"
			},
			{
				"type": "occ",
				"energy": -0.25826,
				"method": "rhf"
			},
			{
				"type": "occ",
				"energy": -0.25448,
				"method": "rhf"
			},
			{
				"type": "occ",
				"energy": -0.22167,
				"method": "rhf"
			},
			{
				"type": "unocc",
				"energy": -0.03594,
				"method": "rhf"
			},
			{
				"type": "unocc",
				"energy": -0.03105,
				"method": "rhf"
			},
			{
				"type": "unocc",
				"energy": -0.00118,
				"method": "rhf"
			},
			{
				"type": "unocc",
				"energy": 0.00262,
				"method": "rhf"
			},
			{
				"type": "unocc",
				"energy": 0.02936,
				"method": "rhf"
			}
		],
		"cosmo_sigma_profile": { 
			"-0.025": 0.0,
			"-0.024": 0.0,
			"-0.023": 0.0,
			"-0.022": 0.0,
			"-0.021": 0.0,
			"-0.02": 0.0,
			"-0.019": 0.0,
			"-0.018": 0.0,
			"-0.017": 0.0,
			"-0.016": 0.0,
			"-0.015": 0.0,
			"-0.014": 0.0,
			"-0.013": 0.0,
			"-0.012": 0.0,
			"-0.011": 0.0,
			"-0.01": 0.0,
			"-0.009": 0.518837590051,
			"-0.008": 8.38885841075,
			"-0.007": 12.0718783782,
			"-0.006": 16.9413372966,
			"-0.005": 23.6978153653,
			"-0.004": 23.3985478661,
			"-0.003": 24.2095558768,
			"-0.002": 25.087095885,
			"-0.001": 21.5519091655,
			"0.0": 26.8538489438,
			"0.001": 30.4896499912,
			"0.002": 27.6187867362,
			"0.003": 20.5865130536,
			"0.004": 25.2134071193,
			"0.005": 12.9193743771,
			"0.006": 9.42744839559,
			"0.007": 4.62290190283,
			"0.008": 2.95881769875,
			"0.009": 2.5120014404,
			"0.01": 2.72735643455,
			"0.011": 1.59088162902,
			"0.012": 1.25632066004,
			"0.013": 1.47364980354,
			"0.014": 0.622344896971,
			"0.015": 1.52206285745,
			"0.016": 1.19637355097,
			"0.017": 1.21651478851,
			"0.018": 0.760623844087,
			"0.019": 0.175632835778,
			"0.02": 0.0,
			"0.021": 0.0,
			"0.022": 0.0,
			"0.023": 0.0,
			"0.024": 0.0,
			"0.025": 0.0
		}
	}
}
