{
	 "smiles": "O=C1C2=CC=CC=C2OC2=CC=CC=C12", 
	 "Tm": 449.15, 
	 "num_atms": 23, 
	 "gaussian": { 
		 "optdone": 1, 
		 "sigma_profile": "yes", 
		 "theory": "DFT", 
		 "functional": "B3LYP", 
		 "basiset": "6-31G**", 
		 "properties": { 
			 "R2extent": 3060.3125, 
			 "electric_dipole_moment_norm": 2.89549538594, 
			 "electric_quadrupole_moment_norm": 14.9134487839, 
			 "total_energy": -650.666504828, 
			 "HOMO_LUMO_gap": 0.16513, 
			 "cosmo_polarized_energy": -8.9, 
			 "cosmo_cavitation_energy": 27.25, 
			 "cosmo_dispersion_energy": -20.59, 
			 "cosmo_repulsion_energy": 1.55, 
			 "cosmo_total_nonelectrostatic_energy": 8.22, 
			 "SMD_solvation_energy": 5.26 
		},
		"coords": [
			{
				"x": 1.8732419838,
				"y": -1.1706767232,
				"z": 1.2979647487,
				"element": "O" 
			},
			{
				"x": 0.9978785521,
				"y": -0.7667335153,
				"z": 0.5357294797,
				"element": "C" 
			},
			{
				"x": 0.9554093347,
				"y": 0.619778655,
				"z": 0.0265705735,
				"element": "C" 
			},
			{
				"x": 1.9352333879,
				"y": 1.555640791,
				"z": 0.4003533956,
				"element": "C" 
			},
			{
				"x": 1.8925253791,
				"y": 2.8556908713,
				"z": -0.0791113273,
				"element": "C" 
			},
			{
				"x": 0.8588250182,
				"y": 3.2427270383,
				"z": -0.9482012449,
				"element": "C" 
			},
			{
				"x": -0.1220444507,
				"y": 2.3379495482,
				"z": -1.3334754236,
				"element": "C" 
			},
			{
				"x": -0.068662291,
				"y": 1.02854602,
				"z": -0.843168078,
				"element": "C" 
			},
			{
				"x": -1.061876446,
				"y": 0.1837335439,
				"z": -1.2578327438,
				"element": "O" 
			},
			{
				"x": -1.0766198615,
				"y": -1.1125908444,
				"z": -0.8202956184,
				"element": "C" 
			},
			{
				"x": -2.1238179403,
				"y": -1.9141267984,
				"z": -1.2879453846,
				"element": "C" 
			},
			{
				"x": -2.1928612048,
				"y": -3.2396542194,
				"z": -0.8788446755,
				"element": "C" 
			},
			{
				"x": -1.22864633,
				"y": -3.7745498602,
				"z": -0.0083049403,
				"element": "C" 
			},
			{
				"x": -0.1955515884,
				"y": -2.9709323873,
				"z": 0.4485911171,
				"element": "C" 
			},
			{
				"x": -0.1018155961,
				"y": -1.6261961425,
				"z": 0.0504724925,
				"element": "C" 
			},
			{
				"x": 2.7163701575,
				"y": 1.2167332697,
				"z": 1.0731286957,
				"element": "H" 
			},
			{
				"x": 2.65275221,
				"y": 3.5727022441,
				"z": 0.21403082,
				"element": "H" 
			},
			{
				"x": 0.8210452693,
				"y": 4.2601237374,
				"z": -1.3265070548,
				"element": "H" 
			},
			{
				"x": -0.9280767807,
				"y": 2.6172810396,
				"z": -2.0033495307,
				"element": "H" 
			},
			{
				"x": -2.8582773801,
				"y": -1.4826063175,
				"z": -1.9593665852,
				"element": "H" 
			},
			{
				"x": -3.0041562895,
				"y": -3.8652509158,
				"z": -1.2394925275,
				"element": "H" 
			},
			{
				"x": -1.2943514186,
				"y": -4.8120443357,
				"z": 0.3035783802,
				"element": "H" 
			},
			{
				"x": 0.5689762851,
				"y": -3.3452446988,
				"z": 1.1216754318,
				"element": "H" 
			}
		],
		 "valence_orbital": [ 
			{
				"type": "occ",
				"energy": -0.27045,
				"method": "rhf"
			},
			{
				"type": "occ",
				"energy": -0.26351,
				"method": "rhf"
			},
			{
				"type": "occ",
				"energy": -0.26321,
				"method": "rhf"
			},
			{
				"type": "occ",
				"energy": -0.24756,
				"method": "rhf"
			},
			{
				"type": "occ",
				"energy": -0.23082,
				"method": "rhf"
			},
			{
				"type": "unocc",
				"energy": -0.06569,
				"method": "rhf"
			},
			{
				"type": "unocc",
				"energy": -0.02183,
				"method": "rhf"
			},
			{
				"type": "unocc",
				"energy": -0.00898,
				"method": "rhf"
			},
			{
				"type": "unocc",
				"energy": 0.00374,
				"method": "rhf"
			},
			{
				"type": "unocc",
				"energy": 0.06201,
				"method": "rhf"
			}
		],
		"cosmo_sigma_profile": { 
			"-0.025": 0.0,
			"-0.024": 0.0,
			"-0.023": 0.0,
			"-0.022": 0.0,
			"-0.021": 0.0,
			"-0.02": 0.0,
			"-0.019": 0.0,
			"-0.018": 0.0,
			"-0.017": 0.0,
			"-0.016": 0.0,
			"-0.015": 0.0,
			"-0.014": 0.0,
			"-0.013": 0.0,
			"-0.012": 0.0,
			"-0.011": 0.0,
			"-0.01": 0.0,
			"-0.009": 0.0,
			"-0.008": 0.664874509862,
			"-0.007": 8.48015647423,
			"-0.006": 15.2234056539,
			"-0.005": 15.8873634067,
			"-0.004": 16.5928706067,
			"-0.003": 14.2126419018,
			"-0.002": 12.1356202287,
			"-0.001": 14.6653282062,
			"0.0": 18.3133943258,
			"0.001": 23.8504717122,
			"0.002": 25.2482003819,
			"0.003": 22.7873220032,
			"0.004": 11.0506040693,
			"0.005": 2.44061358747,
			"0.006": 3.19722365158,
			"0.007": 1.7717694856,
			"0.008": 1.35510865341,
			"0.009": 1.25943604929,
			"0.01": 2.01029564067,
			"0.011": 2.29853793432,
			"0.012": 3.75722904977,
			"0.013": 3.18121687696,
			"0.014": 0.00444972450123,
			"0.015": 0.0,
			"0.016": 0.0,
			"0.017": 0.0,
			"0.018": 0.0,
			"0.019": 0.0,
			"0.02": 0.0,
			"0.021": 0.0,
			"0.022": 0.0,
			"0.023": 0.0,
			"0.024": 0.0,
			"0.025": 0.0
		}
	}
}
