{
	 "smiles": "NCC1=NOC(=N1)C1=CC=CC=C1", 
	 "Tm": 389.15, 
	 "num_atms": 22, 
	 "gaussian": { 
		 "optdone": 1, 
		 "sigma_profile": "yes", 
		 "theory": "DFT", 
		 "functional": "B3LYP", 
		 "basiset": "6-31G**", 
		 "properties": { 
			 "R2extent": 3086.3452, 
			 "electric_dipole_moment_norm": 2.87872030597, 
			 "electric_quadrupole_moment_norm": 14.1364974347, 
			 "total_energy": -587.820595845, 
			 "HOMO_LUMO_gap": 0.18131, 
			 "cosmo_polarized_energy": -11.08, 
			 "cosmo_cavitation_energy": 26.8, 
			 "cosmo_dispersion_energy": -19.99, 
			 "cosmo_repulsion_energy": 1.6, 
			 "cosmo_total_nonelectrostatic_energy": 8.41, 
			 "SMD_solvation_energy": 1.63 
		},
		"coords": [
			{
				"x": 1.8683891,
				"y": -3.7414327459,
				"z": 1.1503750476,
				"element": "N" 
			},
			{
				"x": 0.6878993994,
				"y": -3.1592827307,
				"z": 1.7939148991,
				"element": "C" 
			},
			{
				"x": 0.0800580624,
				"y": -2.1254134882,
				"z": 0.8951819864,
				"element": "C" 
			},
			{
				"x": -1.1827123509,
				"y": -2.1399077075,
				"z": 0.5485909198,
				"element": "N" 
			},
			{
				"x": -1.3037373159,
				"y": -0.9933689425,
				"z": -0.2614616713,
				"element": "O" 
			},
			{
				"x": -0.08481042,
				"y": -0.423550975,
				"z": -0.3114225223,
				"element": "C" 
			},
			{
				"x": 0.8082632542,
				"y": -1.0754582792,
				"z": 0.3867921695,
				"element": "N" 
			},
			{
				"x": 0.0953291678,
				"y": 0.7962903978,
				"z": -1.0948763863,
				"element": "C" 
			},
			{
				"x": -0.9787968282,
				"y": 1.3744314017,
				"z": -1.7895303202,
				"element": "C" 
			},
			{
				"x": -0.7793298143,
				"y": 2.5379113372,
				"z": -2.528922356,
				"element": "C" 
			},
			{
				"x": 0.4852030614,
				"y": 3.129588115,
				"z": -2.5805231259,
				"element": "C" 
			},
			{
				"x": 1.555571662,
				"y": 2.5546879267,
				"z": -1.8893632134,
				"element": "C" 
			},
			{
				"x": 1.3654887506,
				"y": 1.3921076498,
				"z": -1.1480541304,
				"element": "C" 
			},
			{
				"x": 2.3242079232,
				"y": -4.3829423317,
				"z": 1.7937570925,
				"element": "H" 
			},
			{
				"x": 2.533895613,
				"y": -2.9985429915,
				"z": 0.9498038233,
				"element": "H" 
			},
			{
				"x": -0.0569005528,
				"y": -3.9410928997,
				"z": 1.969285948,
				"element": "H" 
			},
			{
				"x": 0.8882314478,
				"y": -2.674646341,
				"z": 2.766625899,
				"element": "H" 
			},
			{
				"x": -1.9582304752,
				"y": 0.9103392252,
				"z": -1.7460848517,
				"element": "H" 
			},
			{
				"x": -1.6114369508,
				"y": 2.9833209793,
				"z": -3.0657113639,
				"element": "H" 
			},
			{
				"x": 0.636559731,
				"y": 4.0366829431,
				"z": -3.1583652059,
				"element": "H" 
			},
			{
				"x": 2.5388654266,
				"y": 3.0136140324,
				"z": -1.9292794081,
				"element": "H" 
			},
			{
				"x": 2.1847921083,
				"y": 0.9322654246,
				"z": -0.6061332297,
				"element": "H" 
			}
		],
		 "valence_orbital": [ 
			{
				"type": "occ",
				"energy": -0.3063,
				"method": "rhf"
			},
			{
				"type": "occ",
				"energy": -0.29529,
				"method": "rhf"
			},
			{
				"type": "occ",
				"energy": -0.26593,
				"method": "rhf"
			},
			{
				"type": "occ",
				"energy": -0.24941,
				"method": "rhf"
			},
			{
				"type": "occ",
				"energy": -0.23937,
				"method": "rhf"
			},
			{
				"type": "unocc",
				"energy": -0.05806,
				"method": "rhf"
			},
			{
				"type": "unocc",
				"energy": -0.01517,
				"method": "rhf"
			},
			{
				"type": "unocc",
				"energy": 0.01615,
				"method": "rhf"
			},
			{
				"type": "unocc",
				"energy": 0.0593,
				"method": "rhf"
			},
			{
				"type": "unocc",
				"energy": 0.08101,
				"method": "rhf"
			}
		],
		"cosmo_sigma_profile": { 
			"-0.025": 0.0,
			"-0.024": 0.0,
			"-0.023": 0.0,
			"-0.022": 0.0,
			"-0.021": 0.0,
			"-0.02": 0.0,
			"-0.019": 0.0,
			"-0.018": 0.0,
			"-0.017": 0.0,
			"-0.016": 0.0,
			"-0.015": 0.0,
			"-0.014": 0.0,
			"-0.013": 0.0,
			"-0.012": 0.0,
			"-0.011": 0.437470687157,
			"-0.01": 1.93812389821,
			"-0.009": 1.8025497081,
			"-0.008": 2.93470942771,
			"-0.007": 6.51983532675,
			"-0.006": 13.4536457686,
			"-0.005": 18.1984517126,
			"-0.004": 17.8179339696,
			"-0.003": 17.399084824,
			"-0.002": 14.4197654067,
			"-0.001": 14.0566673061,
			"0.0": 13.3304660463,
			"0.001": 13.8838222901,
			"0.002": 14.0218926394,
			"0.003": 18.7540151841,
			"0.004": 11.5913059918,
			"0.005": 4.3470400472,
			"0.006": 5.85337276645,
			"0.007": 4.34807100332,
			"0.008": 3.47249013279,
			"0.009": 3.10150884976,
			"0.01": 3.48714021626,
			"0.011": 2.24011546343,
			"0.012": 1.83613314673,
			"0.013": 1.36178087179,
			"0.014": 0.849153395347,
			"0.015": 0.808245895997,
			"0.016": 0.529277561596,
			"0.017": 0.75863597755,
			"0.018": 0.295393128717,
			"0.019": 0.436989634788,
			"0.02": 0.000208854078377,
			"0.021": 0.0,
			"0.022": 0.0,
			"0.023": 0.0,
			"0.024": 0.0,
			"0.025": 0.0
		}
	}
}
