{
	 "smiles": "CSC1=C(C(N)=O)C(SC)=NS1", 
	 "Tm": 488.15, 
	 "num_atms": 20, 
	 "gaussian": { 
		 "optdone": 1, 
		 "sigma_profile": "yes", 
		 "theory": "DFT", 
		 "functional": "B3LYP", 
		 "basiset": "6-31G**", 
		 "properties": { 
			 "R2extent": 3754.0454, 
			 "electric_dipole_moment_norm": 3.73610550306, 
			 "electric_quadrupole_moment_norm": 22.3380858327, 
			 "total_energy": -1612.74657312, 
			 "HOMO_LUMO_gap": 0.15324, 
			 "cosmo_polarized_energy": -14.27, 
			 "cosmo_cavitation_energy": 28.28, 
			 "cosmo_dispersion_energy": -22.2, 
			 "cosmo_repulsion_energy": 1.65, 
			 "cosmo_total_nonelectrostatic_energy": 7.73, 
			 "SMD_solvation_energy": 4.61 
		},
		"coords": [
			{
				"x": 3.8923357107,
				"y": 0.9660317191,
				"z": 2.3262737635,
				"element": "C" 
			},
			{
				"x": 3.2237477765,
				"y": -0.5326371723,
				"z": 1.49713456,
				"element": "S" 
			},
			{
				"x": 1.5214560488,
				"y": -0.0712731594,
				"z": 1.2803384227,
				"element": "C" 
			},
			{
				"x": 0.9057676912,
				"y": 0.8133896914,
				"z": 0.4096850036,
				"element": "C" 
			},
			{
				"x": 1.5161127772,
				"y": 1.6812371108,
				"z": -0.6423860765,
				"element": "C" 
			},
			{
				"x": 2.8451732461,
				"y": 1.5102077483,
				"z": -0.9170729667,
				"element": "N" 
			},
			{
				"x": 0.8407537973,
				"y": 2.5277505659,
				"z": -1.2195525314,
				"element": "O" 
			},
			{
				"x": -0.5278459384,
				"y": 0.8009107776,
				"z": 0.6399808106,
				"element": "C" 
			},
			{
				"x": -1.6787419416,
				"y": 1.8034733601,
				"z": -0.2577467474,
				"element": "S" 
			},
			{
				"x": -3.2349714201,
				"y": 1.19396929,
				"z": 0.4839839195,
				"element": "C" 
			},
			{
				"x": -0.9675876496,
				"y": -0.0243665166,
				"z": 1.5724428475,
				"element": "N" 
			},
			{
				"x": 0.3229937367,
				"y": -0.8292998771,
				"z": 2.2674586864,
				"element": "S" 
			},
			{
				"x": 3.8232441252,
				"y": 1.8291057868,
				"z": 1.6627762334,
				"element": "H" 
			},
			{
				"x": 3.3592454146,
				"y": 1.1494496327,
				"z": 3.2600005835,
				"element": "H" 
			},
			{
				"x": 4.940706401,
				"y": 0.746736049,
				"z": 2.5412072366,
				"element": "H" 
			},
			{
				"x": 3.1864814415,
				"y": 2.013370371,
				"z": -1.7233841581,
				"element": "H" 
			},
			{
				"x": 3.3328411949,
				"y": 0.6741477052,
				"z": -0.6213129799,
				"element": "H" 
			},
			{
				"x": -3.3654232007,
				"y": 0.1256486977,
				"z": 0.3060262997,
				"element": "H" 
			},
			{
				"x": -3.2622429142,
				"y": 1.3869465428,
				"z": 1.5571331029,
				"element": "H" 
			},
			{
				"x": -4.0286462971,
				"y": 1.754401677,
				"z": -0.0154860098,
				"element": "H" 
			}
		],
		 "valence_orbital": [ 
			{
				"type": "occ",
				"energy": -0.28076,
				"method": "rhf"
			},
			{
				"type": "occ",
				"energy": -0.27566,
				"method": "rhf"
			},
			{
				"type": "occ",
				"energy": -0.25933,
				"method": "rhf"
			},
			{
				"type": "occ",
				"energy": -0.25793,
				"method": "rhf"
			},
			{
				"type": "occ",
				"energy": -0.21898,
				"method": "rhf"
			},
			{
				"type": "unocc",
				"energy": -0.06574,
				"method": "rhf"
			},
			{
				"type": "unocc",
				"energy": -0.00364,
				"method": "rhf"
			},
			{
				"type": "unocc",
				"energy": -0.00104,
				"method": "rhf"
			},
			{
				"type": "unocc",
				"energy": 0.01892,
				"method": "rhf"
			},
			{
				"type": "unocc",
				"energy": 0.04576,
				"method": "rhf"
			}
		],
		"cosmo_sigma_profile": { 
			"-0.025": 0.0,
			"-0.024": 0.0,
			"-0.023": 0.0,
			"-0.022": 0.0,
			"-0.021": 0.0,
			"-0.02": 0.0,
			"-0.019": 0.0,
			"-0.018": 0.0,
			"-0.017": 0.0,
			"-0.016": 0.0,
			"-0.015": 0.0173251294889,
			"-0.014": 1.06616072029,
			"-0.013": 1.18883883578,
			"-0.012": 1.05646358823,
			"-0.011": 0.788288844456,
			"-0.01": 2.16159663179,
			"-0.009": 2.18356301183,
			"-0.008": 2.74321538376,
			"-0.007": 6.01912266978,
			"-0.006": 8.60540487813,
			"-0.005": 12.9191706068,
			"-0.004": 13.7546557688,
			"-0.003": 20.6284343265,
			"-0.002": 26.7505673755,
			"-0.001": 24.4298339799,
			"0.0": 17.9697555488,
			"0.001": 15.8900856513,
			"0.002": 12.7880787009,
			"0.003": 10.5193987036,
			"0.004": 8.25168317505,
			"0.005": 6.75953307889,
			"0.006": 4.6712757689,
			"0.007": 6.1425289297,
			"0.008": 4.72399667835,
			"0.009": 3.24718611699,
			"0.01": 2.65565055534,
			"0.011": 4.01512181994,
			"0.012": 3.04005704006,
			"0.013": 4.99698028045,
			"0.014": 1.28134561787,
			"0.015": 0.0,
			"0.016": 0.0,
			"0.017": 0.0,
			"0.018": 0.0,
			"0.019": 0.0,
			"0.02": 0.0,
			"0.021": 0.0,
			"0.022": 0.0,
			"0.023": 0.0,
			"0.024": 0.0,
			"0.025": 0.0
		}
	}
}
