{
	 "smiles": "OC(=O)C1=CC(F)=C(Cl)N=C1Cl", 
	 "Tm": 427.15, 
	 "num_atms": 14, 
	 "gaussian": { 
		 "optdone": 1, 
		 "sigma_profile": "yes", 
		 "theory": "DFT", 
		 "functional": "B3LYP", 
		 "basiset": "6-31G**", 
		 "properties": { 
			 "R2extent": 4054.2197, 
			 "electric_dipole_moment_norm": 1.55747640111, 
			 "electric_quadrupole_moment_norm": 11.2190233332, 
			 "total_energy": -1455.25414397, 
			 "HOMO_LUMO_gap": 0.19258, 
			 "cosmo_polarized_energy": -10.14, 
			 "cosmo_cavitation_energy": 23.47, 
			 "cosmo_dispersion_energy": -17.87, 
			 "cosmo_repulsion_energy": 1.4, 
			 "cosmo_total_nonelectrostatic_energy": 7.0, 
			 "SMD_solvation_energy": 3.99 
		},
		"coords": [
			{
				"x": -1.4814508788,
				"y": 3.1155823964,
				"z": -0.3044134511,
				"element": "O" 
			},
			{
				"x": -1.0092445052,
				"y": 1.8750436409,
				"z": -0.4752715001,
				"element": "C" 
			},
			{
				"x": -0.8009348424,
				"y": 1.4425026691,
				"z": -1.5860491651,
				"element": "O" 
			},
			{
				"x": -0.7328074252,
				"y": 1.0032183782,
				"z": 0.7390117166,
				"element": "C" 
			},
			{
				"x": -0.2397805165,
				"y": -0.2756791218,
				"z": 0.4351245279,
				"element": "C" 
			},
			{
				"x": 0.0532798587,
				"y": -1.1703842098,
				"z": 1.4457389274,
				"element": "C" 
			},
			{
				"x": 0.5222220285,
				"y": -2.386204137,
				"z": 1.1627912296,
				"element": "F" 
			},
			{
				"x": -0.1512013026,
				"y": -0.7775646758,
				"z": 2.7738285799,
				"element": "C" 
			},
			{
				"x": 0.2074490421,
				"y": -1.8802048793,
				"z": 4.0662864768,
				"element": "Cl" 
			},
			{
				"x": -0.6136621381,
				"y": 0.4208589116,
				"z": 3.0778390243,
				"element": "N" 
			},
			{
				"x": -0.8926172557,
				"y": 1.2743753371,
				"z": 2.1101973204,
				"element": "C" 
			},
			{
				"x": -1.5008874561,
				"y": 2.8294039436,
				"z": 2.7032511683,
				"element": "Cl" 
			},
			{
				"x": -1.6021637753,
				"y": 3.3324565696,
				"z": 0.6362380825,
				"element": "H" 
			},
			{
				"x": -0.0953008334,
				"y": -0.543104823,
				"z": -0.6054729373,
				"element": "H" 
			}
		],
		 "valence_orbital": [ 
			{
				"type": "occ",
				"energy": -0.33513,
				"method": "rhf"
			},
			{
				"type": "occ",
				"energy": -0.33095,
				"method": "rhf"
			},
			{
				"type": "occ",
				"energy": -0.32223,
				"method": "rhf"
			},
			{
				"type": "occ",
				"energy": -0.29505,
				"method": "rhf"
			},
			{
				"type": "occ",
				"energy": -0.2849,
				"method": "rhf"
			},
			{
				"type": "unocc",
				"energy": -0.09232,
				"method": "rhf"
			},
			{
				"type": "unocc",
				"energy": -0.06592,
				"method": "rhf"
			},
			{
				"type": "unocc",
				"energy": -0.01701,
				"method": "rhf"
			},
			{
				"type": "unocc",
				"energy": 0.01133,
				"method": "rhf"
			},
			{
				"type": "unocc",
				"energy": 0.02082,
				"method": "rhf"
			}
		],
		"cosmo_sigma_profile": { 
			"-0.025": 0.0,
			"-0.024": 0.0,
			"-0.023": 0.0,
			"-0.022": 0.0,
			"-0.021": 0.0,
			"-0.02": 0.0,
			"-0.019": 0.0,
			"-0.018": 0.0,
			"-0.017": 0.0,
			"-0.016": 0.0,
			"-0.015": 0.0,
			"-0.014": 0.0,
			"-0.013": 0.218404665995,
			"-0.012": 0.911248645038,
			"-0.011": 1.67293808253,
			"-0.01": 2.95984043155,
			"-0.009": 3.3547387462,
			"-0.008": 3.14112180091,
			"-0.007": 3.86730221542,
			"-0.006": 7.65847387356,
			"-0.005": 13.6270166221,
			"-0.004": 18.1938689099,
			"-0.003": 15.0830010723,
			"-0.002": 10.2724944171,
			"-0.001": 9.21000144282,
			"0.0": 12.9832218022,
			"0.001": 13.7591096983,
			"0.002": 24.3895591015,
			"0.003": 16.2542761097,
			"0.004": 5.96444251854,
			"0.005": 3.37334138128,
			"0.006": 3.21396329378,
			"0.007": 4.48525540287,
			"0.008": 4.5051652121,
			"0.009": 4.64906241451,
			"0.01": 5.77310696829,
			"0.011": 3.68833127553,
			"0.012": 1.82645135512,
			"0.013": 0.142320130833,
			"0.014": 0.0,
			"0.015": 0.0,
			"0.016": 0.0,
			"0.017": 0.0,
			"0.018": 0.0,
			"0.019": 0.0,
			"0.02": 0.0,
			"0.021": 0.0,
			"0.022": 0.0,
			"0.023": 0.0,
			"0.024": 0.0,
			"0.025": 0.0
		}
	}
}
