{
	 "smiles": "COC1=CC=C(C=C1)N1C=CN=C1S", 
	 "Tm": 449.15, 
	 "num_atms": 24, 
	 "gaussian": { 
		 "optdone": 1, 
		 "sigma_profile": "yes", 
		 "theory": "DFT", 
		 "functional": "B3LYP", 
		 "basiset": "6-31G**", 
		 "properties": { 
			 "R2extent": 4456.9391, 
			 "electric_dipole_moment_norm": 3.98335879629, 
			 "electric_quadrupole_moment_norm": 9.00125087918, 
			 "total_energy": -969.976976925, 
			 "HOMO_LUMO_gap": 0.18379, 
			 "cosmo_polarized_energy": -11.38, 
			 "cosmo_cavitation_energy": 29.9, 
			 "cosmo_dispersion_energy": -22.12, 
			 "cosmo_repulsion_energy": 1.69, 
			 "cosmo_total_nonelectrostatic_energy": 9.47, 
			 "SMD_solvation_energy": 4.41 
		},
		"coords": [
			{
				"x": 3.7583022349,
				"y": 0.3329072029,
				"z": 0.2739790238,
				"element": "C" 
			},
			{
				"x": 2.9168555528,
				"y": 1.4546668135,
				"z": 0.0493548217,
				"element": "O" 
			},
			{
				"x": 1.584049146,
				"y": 1.2385899608,
				"z": -0.1263519502,
				"element": "C" 
			},
			{
				"x": 0.8040255629,
				"y": 2.3880834894,
				"z": -0.333403263,
				"element": "C" 
			},
			{
				"x": -0.5671780045,
				"y": 2.2803536993,
				"z": -0.5127438572,
				"element": "C" 
			},
			{
				"x": -1.1818449422,
				"y": 1.0201106649,
				"z": -0.5060779116,
				"element": "C" 
			},
			{
				"x": -0.4065900067,
				"y": -0.1237244185,
				"z": -0.315515406,
				"element": "C" 
			},
			{
				"x": 0.9716021498,
				"y": -0.0204707675,
				"z": -0.1137105249,
				"element": "C" 
			},
			{
				"x": -2.5899204287,
				"y": 0.9178161991,
				"z": -0.7122319879,
				"element": "N" 
			},
			{
				"x": -3.2956002855,
				"y": 1.4335279309,
				"z": -1.7975644912,
				"element": "C" 
			},
			{
				"x": -4.6083599712,
				"y": 1.131160403,
				"z": -1.5651824649,
				"element": "C" 
			},
			{
				"x": -4.7520649323,
				"y": 0.4501995185,
				"z": -0.3732093192,
				"element": "N" 
			},
			{
				"x": -3.5340909213,
				"y": 0.3429960107,
				"z": 0.1081868328,
				"element": "C" 
			},
			{
				"x": -3.109048858,
				"y": -0.4051136596,
				"z": 1.6620167823,
				"element": "S" 
			},
			{
				"x": 4.7659703691,
				"y": 0.7327213336,
				"z": 0.3947451446,
				"element": "H" 
			},
			{
				"x": 3.7445906996,
				"y": -0.3596634295,
				"z": -0.5772408332,
				"element": "H" 
			},
			{
				"x": 3.4734009864,
				"y": -0.20981811,
				"z": 1.1841948494,
				"element": "H" 
			},
			{
				"x": 1.2964225584,
				"y": 3.3546556157,
				"z": -0.3352837668,
				"element": "H" 
			},
			{
				"x": -1.1736360525,
				"y": 3.1700031962,
				"z": -0.6491076087,
				"element": "H" 
			},
			{
				"x": -0.8774077852,
				"y": -1.1011004239,
				"z": -0.3323021554,
				"element": "H" 
			},
			{
				"x": 1.5510343522,
				"y": -0.9230598692,
				"z": 0.0369136575,
				"element": "H" 
			},
			{
				"x": -2.7837848295,
				"y": 1.9206808612,
				"z": -2.6125166932,
				"element": "H" 
			},
			{
				"x": -5.4642975148,
				"y": 1.3567473723,
				"z": -2.1859417243,
				"element": "H" 
			},
			{
				"x": -4.4016290796,
				"y": -0.5971695936,
				"z": 1.9836928456,
				"element": "H" 
			}
		],
		 "valence_orbital": [ 
			{
				"type": "occ",
				"energy": -0.27582,
				"method": "rhf"
			},
			{
				"type": "occ",
				"energy": -0.26789,
				"method": "rhf"
			},
			{
				"type": "occ",
				"energy": -0.26638,
				"method": "rhf"
			},
			{
				"type": "occ",
				"energy": -0.22717,
				"method": "rhf"
			},
			{
				"type": "occ",
				"energy": -0.20354,
				"method": "rhf"
			},
			{
				"type": "unocc",
				"energy": -0.01975,
				"method": "rhf"
			},
			{
				"type": "unocc",
				"energy": -0.01058,
				"method": "rhf"
			},
			{
				"type": "unocc",
				"energy": 0.02636,
				"method": "rhf"
			},
			{
				"type": "unocc",
				"energy": 0.03811,
				"method": "rhf"
			},
			{
				"type": "unocc",
				"energy": 0.06875,
				"method": "rhf"
			}
		],
		"cosmo_sigma_profile": { 
			"-0.025": 0.0,
			"-0.024": 0.0,
			"-0.023": 0.0,
			"-0.022": 0.0,
			"-0.021": 0.0,
			"-0.02": 0.0,
			"-0.019": 0.0,
			"-0.018": 0.0,
			"-0.017": 0.0,
			"-0.016": 0.0,
			"-0.015": 0.0,
			"-0.014": 0.0,
			"-0.013": 0.0,
			"-0.012": 0.166079493135,
			"-0.011": 1.31126908816,
			"-0.01": 1.47318631521,
			"-0.009": 1.02409311062,
			"-0.008": 3.00783374824,
			"-0.007": 7.68835573806,
			"-0.006": 18.1678860557,
			"-0.005": 20.5360519109,
			"-0.004": 19.2718719464,
			"-0.003": 18.5808637149,
			"-0.002": 13.6673587341,
			"-0.001": 11.3921764343,
			"0.0": 12.5759364705,
			"0.001": 14.4876611648,
			"0.002": 18.7552641586,
			"0.003": 22.7794473876,
			"0.004": 17.8595887717,
			"0.005": 10.5490904112,
			"0.006": 7.63628422109,
			"0.007": 5.07219388673,
			"0.008": 3.51164627025,
			"0.009": 3.07449229333,
			"0.01": 2.3035714576,
			"0.011": 1.3545992734,
			"0.012": 0.822165934708,
			"0.013": 1.25354249279,
			"0.014": 1.04458794643,
			"0.015": 1.03518966531,
			"0.016": 0.777418162876,
			"0.017": 0.540154838407,
			"0.018": 0.0,
			"0.019": 0.0,
			"0.02": 0.0,
			"0.021": 0.0,
			"0.022": 0.0,
			"0.023": 0.0,
			"0.024": 0.0,
			"0.025": 0.0
		}
	}
}
