{
	 "smiles": "NC(C1CC1)C1=NN=NN1", 
	 "Tm": 507.15, 
	 "num_atms": 19, 
	 "gaussian": { 
		 "optdone": 1, 
		 "sigma_profile": "yes", 
		 "theory": "DFT", 
		 "functional": "B3LYP", 
		 "basiset": "6-31G**", 
		 "properties": { 
			 "R2extent": 1981.0758, 
			 "electric_dipole_moment_norm": 6.2093464173, 
			 "electric_quadrupole_moment_norm": 13.9408885685, 
			 "total_energy": -469.624392659, 
			 "HOMO_LUMO_gap": 0.26476, 
			 "cosmo_polarized_energy": -18.06, 
			 "cosmo_cavitation_energy": 22.5, 
			 "cosmo_dispersion_energy": -16.61, 
			 "cosmo_repulsion_energy": 1.36, 
			 "cosmo_total_nonelectrostatic_energy": 7.25, 
			 "SMD_solvation_energy": 1.01 
		},
		"coords": [
			{
				"x": -1.0376254444,
				"y": -0.4219622976,
				"z": -2.4064724345,
				"element": "N" 
			},
			{
				"x": -1.1119303263,
				"y": -1.1864771857,
				"z": -1.1547373859,
				"element": "C" 
			},
			{
				"x": -1.7486957462,
				"y": -0.51139557,
				"z": 0.0626891729,
				"element": "C" 
			},
			{
				"x": -2.9797502861,
				"y": 0.3450392499,
				"z": -0.0693650766,
				"element": "C" 
			},
			{
				"x": -1.6559551926,
				"y": 0.9723342783,
				"z": 0.3046324915,
				"element": "C" 
			},
			{
				"x": 0.2792564541,
				"y": -1.6655579988,
				"z": -0.8274816776,
				"element": "C" 
			},
			{
				"x": 0.7601357117,
				"y": -2.0710965166,
				"z": 0.332554844,
				"element": "N" 
			},
			{
				"x": 2.0514200428,
				"y": -2.4429354877,
				"z": 0.0959410745,
				"element": "N" 
			},
			{
				"x": 2.3664742441,
				"y": -2.2771652722,
				"z": -1.1480761067,
				"element": "N" 
			},
			{
				"x": 1.2574076454,
				"y": -1.7897040568,
				"z": -1.745329911,
				"element": "N" 
			},
			{
				"x": -0.6781345363,
				"y": 0.5139822515,
				"z": -2.2318422323,
				"element": "H" 
			},
			{
				"x": -1.960945075,
				"y": -0.3193125639,
				"z": -2.8161283326,
				"element": "H" 
			},
			{
				"x": -1.7074436335,
				"y": -2.0825253534,
				"z": -1.3818308542,
				"element": "H" 
			},
			{
				"x": -1.6838795278,
				"y": -1.1335327779,
				"z": 0.9510991393,
				"element": "H" 
			},
			{
				"x": -3.7532786408,
				"y": 0.2573231806,
				"z": 0.6870152132,
				"element": "H" 
			},
			{
				"x": -3.3594966859,
				"y": 0.551807606,
				"z": -1.0669243427,
				"element": "H" 
			},
			{
				"x": -1.1754426059,
				"y": 1.6025329822,
				"z": -0.4396603459,
				"element": "H" 
			},
			{
				"x": -1.5024273123,
				"y": 1.3104348311,
				"z": 1.3241220244,
				"element": "H" 
			},
			{
				"x": 1.2181109148,
				"y": -1.5571892991,
				"z": -2.7278052597,
				"element": "H" 
			}
		],
		 "valence_orbital": [ 
			{
				"type": "occ",
				"energy": -0.30032,
				"method": "rhf"
			},
			{
				"type": "occ",
				"energy": -0.29239,
				"method": "rhf"
			},
			{
				"type": "occ",
				"energy": -0.28742,
				"method": "rhf"
			},
			{
				"type": "occ",
				"energy": -0.27902,
				"method": "rhf"
			},
			{
				"type": "occ",
				"energy": -0.27228,
				"method": "rhf"
			},
			{
				"type": "unocc",
				"energy": -0.00752,
				"method": "rhf"
			},
			{
				"type": "unocc",
				"energy": 0.02152,
				"method": "rhf"
			},
			{
				"type": "unocc",
				"energy": 0.05479,
				"method": "rhf"
			},
			{
				"type": "unocc",
				"energy": 0.08751,
				"method": "rhf"
			},
			{
				"type": "unocc",
				"energy": 0.09415,
				"method": "rhf"
			}
		],
		"cosmo_sigma_profile": { 
			"-0.025": 0.0,
			"-0.024": 0.0,
			"-0.023": 0.0,
			"-0.022": 0.0,
			"-0.021": 0.0,
			"-0.02": 0.0,
			"-0.019": 0.0,
			"-0.018": 0.340838527734,
			"-0.017": 0.686453404475,
			"-0.016": 0.742071649135,
			"-0.015": 0.648289567888,
			"-0.014": 0.789281723762,
			"-0.013": 1.08954331012,
			"-0.012": 0.784848931517,
			"-0.011": 2.47746818383,
			"-0.01": 4.50292651749,
			"-0.009": 4.99916211274,
			"-0.008": 5.88944278973,
			"-0.007": 7.11374246088,
			"-0.006": 6.96748580125,
			"-0.005": 7.14408621023,
			"-0.004": 12.4782600866,
			"-0.003": 13.6861766794,
			"-0.002": 13.0842183246,
			"-0.001": 9.29124434097,
			"0.0": 10.0685048628,
			"0.001": 8.25598541958,
			"0.002": 7.10644570026,
			"0.003": 7.0012585416,
			"0.004": 6.24146187888,
			"0.005": 5.54355475871,
			"0.006": 4.06289290488,
			"0.007": 4.65602803225,
			"0.008": 5.3385949069,
			"0.009": 5.88839502442,
			"0.01": 5.57444701613,
			"0.011": 4.98922976107,
			"0.012": 4.63068502582,
			"0.013": 2.6044952664,
			"0.014": 2.39987691049,
			"0.015": 0.536008648441,
			"0.016": 0.0,
			"0.017": 0.0,
			"0.018": 0.0,
			"0.019": 0.0,
			"0.02": 0.0,
			"0.021": 0.0,
			"0.022": 0.0,
			"0.023": 0.0,
			"0.024": 0.0,
			"0.025": 0.0
		}
	}
}
