{
	 "smiles": "CC(C)CNS(=O)(=O)C1=CC=C(C=C1)C(O)=O", 
	 "Tm": 512.15, 
	 "num_atms": 32, 
	 "gaussian": { 
		 "optdone": 1, 
		 "sigma_profile": "yes", 
		 "theory": "DFT", 
		 "functional": "B3LYP", 
		 "basiset": "6-31G**", 
		 "properties": { 
			 "R2extent": 6742.0553, 
			 "electric_dipole_moment_norm": 5.19382384472, 
			 "electric_quadrupole_moment_norm": 17.2819522361, 
			 "total_energy": -1182.00509101, 
			 "HOMO_LUMO_gap": 0.19485, 
			 "cosmo_polarized_energy": -19.65, 
			 "cosmo_cavitation_energy": 37.24, 
			 "cosmo_dispersion_energy": -26.48, 
			 "cosmo_repulsion_energy": 2.04, 
			 "cosmo_total_nonelectrostatic_energy": 12.8, 
			 "SMD_solvation_energy": 6.21 
		},
		"coords": [
			{
				"x": -0.7539585867,
				"y": 3.3517006963,
				"z": 1.7935652821,
				"element": "C" 
			},
			{
				"x": -1.5937480179,
				"y": 2.164411119,
				"z": 1.3007197107,
				"element": "C" 
			},
			{
				"x": -2.2765586275,
				"y": 1.4488283745,
				"z": 2.4756152,
				"element": "C" 
			},
			{
				"x": -0.7051301654,
				"y": 1.2165096337,
				"z": 0.4773421094,
				"element": "C" 
			},
			{
				"x": -1.4879949725,
				"y": 0.131544003,
				"z": -0.1281051823,
				"element": "N" 
			},
			{
				"x": -0.8952004119,
				"y": -0.7038971209,
				"z": -1.4529519136,
				"element": "S" 
			},
			{
				"x": -0.4255073587,
				"y": 0.2993300873,
				"z": -2.4087368551,
				"element": "O" 
			},
			{
				"x": -1.9227398181,
				"y": -1.6935089404,
				"z": -1.7772748309,
				"element": "O" 
			},
			{
				"x": 0.5571000284,
				"y": -1.6125781903,
				"z": -0.8867408443,
				"element": "C" 
			},
			{
				"x": 0.3943625499,
				"y": -2.8960439876,
				"z": -0.3558667565,
				"element": "C" 
			},
			{
				"x": 1.5106900113,
				"y": -3.5809468721,
				"z": 0.1128850855,
				"element": "C" 
			},
			{
				"x": 2.7793531601,
				"y": -2.9878771216,
				"z": 0.0493580102,
				"element": "C" 
			},
			{
				"x": 2.9310027427,
				"y": -1.7063821585,
				"z": -0.4967518239,
				"element": "C" 
			},
			{
				"x": 1.8169354623,
				"y": -1.0144094784,
				"z": -0.9685449024,
				"element": "C" 
			},
			{
				"x": 3.9370001535,
				"y": -3.7696035868,
				"z": 0.568898036,
				"element": "C" 
			},
			{
				"x": 5.1151128538,
				"y": -3.1113610611,
				"z": 0.4510023102,
				"element": "O" 
			},
			{
				"x": 3.8573855739,
				"y": -4.880231704,
				"z": 1.0532039933,
				"element": "O" 
			},
			{
				"x": -0.2928267345,
				"y": 3.8909212346,
				"z": 0.9592886699,
				"element": "H" 
			},
			{
				"x": -1.3739467316,
				"y": 4.0621402635,
				"z": 2.3492422508,
				"element": "H" 
			},
			{
				"x": 0.0483318292,
				"y": 3.018879132,
				"z": 2.4632953882,
				"element": "H" 
			},
			{
				"x": -2.3722499873,
				"y": 2.5408333954,
				"z": 0.6248423583,
				"element": "H" 
			},
			{
				"x": -2.9514842524,
				"y": 0.6535929285,
				"z": 2.1405842274,
				"element": "H" 
			},
			{
				"x": -2.8797209889,
				"y": 2.1519388156,
				"z": 3.058750363,
				"element": "H" 
			},
			{
				"x": -1.5358300943,
				"y": 1.0069060398,
				"z": 3.1538954236,
				"element": "H" 
			},
			{
				"x": 0.108200301,
				"y": 0.8270837305,
				"z": 1.1114308362,
				"element": "H" 
			},
			{
				"x": -0.2510329592,
				"y": 1.770696659,
				"z": -0.3479806993,
				"element": "H" 
			},
			{
				"x": -1.9362532991,
				"y": -0.5082965468,
				"z": 0.5202884433,
				"element": "H" 
			},
			{
				"x": -0.5900653823,
				"y": -3.3510238772,
				"z": -0.3375389125,
				"element": "H" 
			},
			{
				"x": 1.4234285676,
				"y": -4.579946137,
				"z": 0.5260360115,
				"element": "H" 
			},
			{
				"x": 3.9171550605,
				"y": -1.2608049605,
				"z": -0.5566860886,
				"element": "H" 
			},
			{
				"x": 1.9185849518,
				"y": -0.0336669599,
				"z": -1.41951778,
				"element": "H" 
			},
			{
				"x": 5.7917051422,
				"y": -3.7068374095,
				"z": 0.8133528798,
				"element": "H" 
			}
		],
		 "valence_orbital": [ 
			{
				"type": "occ",
				"energy": -0.30579,
				"method": "rhf"
			},
			{
				"type": "occ",
				"energy": -0.29214,
				"method": "rhf"
			},
			{
				"type": "occ",
				"energy": -0.29041,
				"method": "rhf"
			},
			{
				"type": "occ",
				"energy": -0.28114,
				"method": "rhf"
			},
			{
				"type": "occ",
				"energy": -0.26943,
				"method": "rhf"
			},
			{
				"type": "unocc",
				"energy": -0.07458,
				"method": "rhf"
			},
			{
				"type": "unocc",
				"energy": -0.03122,
				"method": "rhf"
			},
			{
				"type": "unocc",
				"energy": 0.02475,
				"method": "rhf"
			},
			{
				"type": "unocc",
				"energy": 0.0505,
				"method": "rhf"
			},
			{
				"type": "unocc",
				"energy": 0.06629,
				"method": "rhf"
			}
		],
		"cosmo_sigma_profile": { 
			"-0.025": 0.0,
			"-0.024": 0.0,
			"-0.023": 0.0,
			"-0.022": 0.0,
			"-0.021": 0.0,
			"-0.02": 0.0,
			"-0.019": 0.131448681456,
			"-0.018": 1.07913877324,
			"-0.017": 0.929960966345,
			"-0.016": 0.499801443423,
			"-0.015": 1.17255050819,
			"-0.014": 1.28330517448,
			"-0.013": 1.44293740889,
			"-0.012": 2.10585877088,
			"-0.011": 2.06888897144,
			"-0.01": 2.23433782878,
			"-0.009": 2.01111208821,
			"-0.008": 3.2109216196,
			"-0.007": 8.57503274589,
			"-0.006": 9.00612070128,
			"-0.005": 9.25843440237,
			"-0.004": 16.1307323876,
			"-0.003": 30.6166931662,
			"-0.002": 29.9209453572,
			"-0.001": 27.7685490133,
			"0.0": 29.0377457696,
			"0.001": 33.1542631844,
			"0.002": 10.6900029749,
			"0.003": 5.78486203626,
			"0.004": 6.61324786182,
			"0.005": 6.2829115672,
			"0.006": 6.54884889127,
			"0.007": 6.08607075149,
			"0.008": 6.14952003614,
			"0.009": 6.14501496127,
			"0.01": 9.20988634254,
			"0.011": 13.9490910087,
			"0.012": 4.71857341879,
			"0.013": 0.0,
			"0.014": 0.0,
			"0.015": 0.0,
			"0.016": 0.0,
			"0.017": 0.0,
			"0.018": 0.0,
			"0.019": 0.0,
			"0.02": 0.0,
			"0.021": 0.0,
			"0.022": 0.0,
			"0.023": 0.0,
			"0.024": 0.0,
			"0.025": 0.0
		}
	}
}
