{
	 "smiles": "OCC(O)C(O)C(O)C(=O)CO", 
	 "Tm": 438.15, 
	 "num_atms": 24, 
	 "gaussian": { 
		 "optdone": 1, 
		 "sigma_profile": "yes", 
		 "theory": "DFT", 
		 "functional": "B3LYP", 
		 "basiset": "6-31G**", 
		 "properties": { 
			 "R2extent": 2681.9162, 
			 "electric_dipole_moment_norm": 3.25539352153, 
			 "electric_quadrupole_moment_norm": 8.79018022284, 
			 "total_energy": -687.159712505, 
			 "HOMO_LUMO_gap": 0.2078, 
			 "cosmo_polarized_energy": -19.38, 
			 "cosmo_cavitation_energy": 26.41, 
			 "cosmo_dispersion_energy": -19.34, 
			 "cosmo_repulsion_energy": 1.59, 
			 "cosmo_total_nonelectrostatic_energy": 8.66, 
			 "SMD_solvation_energy": 5.26 
		},
		"coords": [
			{
				"x": -1.2530090538,
				"y": -1.5168567836,
				"z": -0.7308827928,
				"element": "O" 
			},
			{
				"x": -1.5332707238,
				"y": -0.1965298637,
				"z": -0.2881701448,
				"element": "C" 
			},
			{
				"x": -0.265190649,
				"y": 0.6503163694,
				"z": -0.4038868325,
				"element": "C" 
			},
			{
				"x": -0.7032434703,
				"y": 1.9870419853,
				"z": -0.1014436047,
				"element": "O" 
			},
			{
				"x": 0.8463111159,
				"y": 0.3110161387,
				"z": 0.6050002373,
				"element": "C" 
			},
			{
				"x": 0.3246686769,
				"y": 0.3603356036,
				"z": 1.9326709796,
				"element": "O" 
			},
			{
				"x": 1.5157189168,
				"y": -1.0735838613,
				"z": 0.4701950867,
				"element": "C" 
			},
			{
				"x": 2.2783228722,
				"y": -1.3462238542,
				"z": 1.6493550672,
				"element": "O" 
			},
			{
				"x": 2.4346398769,
				"y": -1.0940317445,
				"z": -0.7591262807,
				"element": "C" 
			},
			{
				"x": 1.9578894086,
				"y": -1.1203158644,
				"z": -1.8779640636,
				"element": "O" 
			},
			{
				"x": 3.9441622359,
				"y": -1.0311853461,
				"z": -0.5193697834,
				"element": "C" 
			},
			{
				"x": 4.2889108759,
				"y": -0.0272091205,
				"z": 0.418433856,
				"element": "O" 
			},
			{
				"x": -2.0401004957,
				"y": -2.0550159244,
				"z": -0.5846503989,
				"element": "H" 
			},
			{
				"x": -2.3016250866,
				"y": 0.285967321,
				"z": -0.9080519602,
				"element": "H" 
			},
			{
				"x": -1.8763083646,
				"y": -0.1781137549,
				"z": 0.7555686675,
				"element": "H" 
			},
			{
				"x": 0.1226894326,
				"y": 0.5689143268,
				"z": -1.4254646915,
				"element": "H" 
			},
			{
				"x": -0.0540461233,
				"y": 2.604468573,
				"z": -0.4619421208,
				"element": "H" 
			},
			{
				"x": 1.6375659649,
				"y": 1.0727192352,
				"z": 0.4969340972,
				"element": "H" 
			},
			{
				"x": -0.1322538333,
				"y": 1.2116540034,
				"z": 2.0070052529,
				"element": "H" 
			},
			{
				"x": 0.7415536312,
				"y": -1.8347009883,
				"z": 0.3252178064,
				"element": "H" 
			},
			{
				"x": 1.7487135552,
				"y": -0.9947267449,
				"z": 2.3832966911,
				"element": "H" 
			},
			{
				"x": 4.2907100078,
				"y": -2.0315458191,
				"z": -0.2090047783,
				"element": "H" 
			},
			{
				"x": 4.4195871494,
				"y": -0.7901060273,
				"z": -1.4732735405,
				"element": "H" 
			},
			{
				"x": 3.8711040801,
				"y": -0.3139878593,
				"z": 1.2483532509,
				"element": "H" 
			}
		],
		 "valence_orbital": [ 
			{
				"type": "occ",
				"energy": -0.28988,
				"method": "rhf"
			},
			{
				"type": "occ",
				"energy": -0.28326,
				"method": "rhf"
			},
			{
				"type": "occ",
				"energy": -0.27984,
				"method": "rhf"
			},
			{
				"type": "occ",
				"energy": -0.27372,
				"method": "rhf"
			},
			{
				"type": "occ",
				"energy": -0.23275,
				"method": "rhf"
			},
			{
				"type": "unocc",
				"energy": -0.02495,
				"method": "rhf"
			},
			{
				"type": "unocc",
				"energy": 0.04443,
				"method": "rhf"
			},
			{
				"type": "unocc",
				"energy": 0.06384,
				"method": "rhf"
			},
			{
				"type": "unocc",
				"energy": 0.08154,
				"method": "rhf"
			},
			{
				"type": "unocc",
				"energy": 0.11426,
				"method": "rhf"
			}
		],
		"cosmo_sigma_profile": { 
			"-0.025": 0.0,
			"-0.024": 0.0,
			"-0.023": 0.0,
			"-0.022": 0.0,
			"-0.021": 0.0,
			"-0.02": 0.0,
			"-0.019": 0.0,
			"-0.018": 0.0,
			"-0.017": 0.2194124734,
			"-0.016": 2.01584730164,
			"-0.015": 2.51143860523,
			"-0.014": 1.88772130424,
			"-0.013": 2.61711634293,
			"-0.012": 2.94237047118,
			"-0.011": 3.12367123746,
			"-0.01": 3.27634816216,
			"-0.009": 3.65564095022,
			"-0.008": 4.35227454621,
			"-0.007": 5.57633399235,
			"-0.006": 10.2262415888,
			"-0.005": 10.0868997023,
			"-0.004": 14.7400246251,
			"-0.003": 16.1240009767,
			"-0.002": 13.7641057326,
			"-0.001": 10.2890781797,
			"0.0": 10.1516723963,
			"0.001": 7.60437468404,
			"0.002": 6.49657673511,
			"0.003": 7.46185025278,
			"0.004": 7.0024164378,
			"0.005": 6.05372685958,
			"0.006": 6.85589377934,
			"0.007": 6.99514396236,
			"0.008": 5.93543226287,
			"0.009": 4.38067021422,
			"0.01": 7.45031826005,
			"0.011": 8.20382138794,
			"0.012": 6.16331422392,
			"0.013": 4.2667782079,
			"0.014": 2.05012851,
			"0.015": 0.113166736639,
			"0.016": 0.0,
			"0.017": 0.0,
			"0.018": 0.0,
			"0.019": 0.0,
			"0.02": 0.0,
			"0.021": 0.0,
			"0.022": 0.0,
			"0.023": 0.0,
			"0.024": 0.0,
			"0.025": 0.0
		}
	}
}
