{
	 "smiles": "CC(=O)OC1CC2=CC=CC=C12", 
	 "Tm": 304.15, 
	 "num_atms": 22, 
	 "gaussian": { 
		 "optdone": 1, 
		 "sigma_profile": "yes", 
		 "theory": "DFT", 
		 "functional": "B3LYP", 
		 "basiset": "6-31G**", 
		 "properties": { 
			 "R2extent": 2452.8704, 
			 "electric_dipole_moment_norm": 1.74629031378, 
			 "electric_quadrupole_moment_norm": 9.03747601214, 
			 "total_energy": -537.514491188, 
			 "HOMO_LUMO_gap": 0.2308, 
			 "cosmo_polarized_energy": -7.58, 
			 "cosmo_cavitation_energy": 26.12, 
			 "cosmo_dispersion_energy": -18.96, 
			 "cosmo_repulsion_energy": 1.54, 
			 "cosmo_total_nonelectrostatic_energy": 8.7, 
			 "SMD_solvation_energy": 5.23 
		},
		"coords": [
			{
				"x": -2.0723390654,
				"y": -2.4575708406,
				"z": -0.0467321577,
				"element": "C" 
			},
			{
				"x": -1.198710984,
				"y": -1.3979391332,
				"z": -0.675182522,
				"element": "C" 
			},
			{
				"x": -1.3317792645,
				"y": -0.9466228658,
				"z": -1.7926760672,
				"element": "O" 
			},
			{
				"x": -0.227006599,
				"y": -1.0032341427,
				"z": 0.1807511504,
				"element": "O" 
			},
			{
				"x": 0.6795791049,
				"y": -0.0021137127,
				"z": -0.3241691164,
				"element": "C" 
			},
			{
				"x": 1.6826625494,
				"y": 0.4718145814,
				"z": 0.7868438037,
				"element": "C" 
			},
			{
				"x": 1.1149309961,
				"y": 1.86781329,
				"z": 0.5560421171,
				"element": "C" 
			},
			{
				"x": 1.2298299084,
				"y": 3.204869761,
				"z": 0.9121790531,
				"element": "C" 
			},
			{
				"x": 0.3309300581,
				"y": 4.0827565752,
				"z": 0.2856928847,
				"element": "C" 
			},
			{
				"x": -0.6143618448,
				"y": 3.6361556774,
				"z": -0.6518896947,
				"element": "C" 
			},
			{
				"x": -0.7078962117,
				"y": 2.2852770644,
				"z": -1.0189599418,
				"element": "C" 
			},
			{
				"x": 0.1822902691,
				"y": 1.4310466525,
				"z": -0.3834415654,
				"element": "C" 
			},
			{
				"x": -2.5452401046,
				"y": -2.0627476469,
				"z": 0.8574768689,
				"element": "H" 
			},
			{
				"x": -1.4659456988,
				"y": -3.3176248872,
				"z": 0.2520542611,
				"element": "H" 
			},
			{
				"x": -2.8353682737,
				"y": -2.7682041834,
				"z": -0.7596321548,
				"element": "H" 
			},
			{
				"x": 1.1362198056,
				"y": -0.3734362571,
				"z": -1.2461199265,
				"element": "H" 
			},
			{
				"x": 2.7422766045,
				"y": 0.3199342754,
				"z": 0.5557728628,
				"element": "H" 
			},
			{
				"x": 1.463718001,
				"y": 0.0323785994,
				"z": 1.7647381526,
				"element": "H" 
			},
			{
				"x": 1.9560384801,
				"y": 3.5698872502,
				"z": 1.6330895297,
				"element": "H" 
			},
			{
				"x": 0.3643927596,
				"y": 5.1409674444,
				"z": 0.5311129836,
				"element": "H" 
			},
			{
				"x": -1.2843649368,
				"y": 4.3609340841,
				"z": -1.1062870154,
				"element": "H" 
			},
			{
				"x": -1.4289555537,
				"y": 1.9381584144,
				"z": -1.751563506,
				"element": "H" 
			}
		],
		 "valence_orbital": [ 
			{
				"type": "occ",
				"energy": -0.31963,
				"method": "rhf"
			},
			{
				"type": "occ",
				"energy": -0.29118,
				"method": "rhf"
			},
			{
				"type": "occ",
				"energy": -0.26942,
				"method": "rhf"
			},
			{
				"type": "occ",
				"energy": -0.25012,
				"method": "rhf"
			},
			{
				"type": "occ",
				"energy": -0.24117,
				"method": "rhf"
			},
			{
				"type": "unocc",
				"energy": -0.01037,
				"method": "rhf"
			},
			{
				"type": "unocc",
				"energy": 0.00245,
				"method": "rhf"
			},
			{
				"type": "unocc",
				"energy": 0.01251,
				"method": "rhf"
			},
			{
				"type": "unocc",
				"energy": 0.10071,
				"method": "rhf"
			},
			{
				"type": "unocc",
				"energy": 0.11155,
				"method": "rhf"
			}
		],
		"cosmo_sigma_profile": { 
			"-0.025": 0.0,
			"-0.024": 0.0,
			"-0.023": 0.0,
			"-0.022": 0.0,
			"-0.021": 0.0,
			"-0.02": 0.0,
			"-0.019": 0.0,
			"-0.018": 0.0,
			"-0.017": 0.0,
			"-0.016": 0.0,
			"-0.015": 0.0,
			"-0.014": 0.0,
			"-0.013": 0.0,
			"-0.012": 0.0,
			"-0.011": 0.0,
			"-0.01": 0.0,
			"-0.009": 0.0,
			"-0.008": 0.0,
			"-0.007": 1.12563227931,
			"-0.006": 10.0714247809,
			"-0.005": 19.1804716158,
			"-0.004": 21.0610919261,
			"-0.003": 22.0240900008,
			"-0.002": 20.8739460189,
			"-0.001": 19.2182337974,
			"0.0": 12.1745530846,
			"0.001": 11.4076582411,
			"0.002": 12.192247556,
			"0.003": 12.2926181971,
			"0.004": 11.3365213062,
			"0.005": 12.3593625515,
			"0.006": 7.56575422211,
			"0.007": 2.09860690638,
			"0.008": 2.4324850644,
			"0.009": 2.05816673492,
			"0.01": 1.67904962288,
			"0.011": 2.23888541003,
			"0.012": 3.33533715323,
			"0.013": 1.2035999424,
			"0.014": 0.0,
			"0.015": 0.0,
			"0.016": 0.0,
			"0.017": 0.0,
			"0.018": 0.0,
			"0.019": 0.0,
			"0.02": 0.0,
			"0.021": 0.0,
			"0.022": 0.0,
			"0.023": 0.0,
			"0.024": 0.0,
			"0.025": 0.0
		}
	}
}
