{
	 "smiles": "CC1=CC=C(NC(=O)CC2C3CCC(C)(C2=O)C3(C)C)C=C1", 
	 "Tm": 431.15, 
	 "num_atms": 47, 
	 "gaussian": { 
		 "optdone": 1, 
		 "sigma_profile": "yes", 
		 "theory": "DFT", 
		 "functional": "B3LYP", 
		 "basiset": "6-31G**", 
		 "properties": { 
			 "R2extent": 9227.4769, 
			 "electric_dipole_moment_norm": 2.15749096406, 
			 "electric_quadrupole_moment_norm": 19.8091238688, 
			 "total_energy": -944.317148948, 
			 "HOMO_LUMO_gap": 0.20867, 
			 "cosmo_polarized_energy": -14.98, 
			 "cosmo_cavitation_energy": 46.03, 
			 "cosmo_dispersion_energy": -31.49, 
			 "cosmo_repulsion_energy": 2.38, 
			 "cosmo_total_nonelectrostatic_energy": 16.92, 
			 "SMD_solvation_energy": 8.41 
		},
		"coords": [
			{
				"x": -3.3855700175,
				"y": 3.1224191878,
				"z": -5.1543251047,
				"element": "C" 
			},
			{
				"x": -2.4192082441,
				"y": 2.086330785,
				"z": -4.6314489669,
				"element": "C" 
			},
			{
				"x": -1.4853661788,
				"y": 2.4005031419,
				"z": -3.6370872526,
				"element": "C" 
			},
			{
				"x": -0.6017762393,
				"y": 1.4459840943,
				"z": -3.1345756822,
				"element": "C" 
			},
			{
				"x": -0.6527269934,
				"y": 0.1256537316,
				"z": -3.5985364975,
				"element": "C" 
			},
			{
				"x": 0.2345299982,
				"y": -0.8818320265,
				"z": -3.143116581,
				"element": "N" 
			},
			{
				"x": 0.6018755722,
				"y": -1.2738201735,
				"z": -1.8687772018,
				"element": "C" 
			},
			{
				"x": 1.2921695466,
				"y": -2.2769072356,
				"z": -1.727931015,
				"element": "O" 
			},
			{
				"x": 0.1274337745,
				"y": -0.4401348791,
				"z": -0.68514971,
				"element": "C" 
			},
			{
				"x": 0.2546891637,
				"y": -1.214985668,
				"z": 0.6320502627,
				"element": "C" 
			},
			{
				"x": 1.638511757,
				"y": -1.2888917849,
				"z": 1.3334052084,
				"element": "C" 
			},
			{
				"x": 1.5848077797,
				"y": -2.5549476953,
				"z": 2.2204634905,
				"element": "C" 
			},
			{
				"x": 0.5651844402,
				"y": -2.1470120514,
				"z": 3.3293301205,
				"element": "C" 
			},
			{
				"x": 0.2430683496,
				"y": -0.6427484009,
				"z": 3.0348908324,
				"element": "C" 
			},
			{
				"x": -0.3743959868,
				"y": 0.1242614678,
				"z": 4.1911299841,
				"element": "C" 
			},
			{
				"x": -0.6265744665,
				"y": -0.6654893623,
				"z": 1.7702883686,
				"element": "C" 
			},
			{
				"x": -1.7810405944,
				"y": -0.3044823843,
				"z": 1.6697687721,
				"element": "O" 
			},
			{
				"x": 1.5922774639,
				"y": -0.1381719003,
				"z": 2.4006743748,
				"element": "C" 
			},
			{
				"x": 1.4871850651,
				"y": 1.2873887824,
				"z": 1.8236127016,
				"element": "C" 
			},
			{
				"x": 2.7901909562,
				"y": -0.1443395873,
				"z": 3.3660936548,
				"element": "C" 
			},
			{
				"x": -1.5773917696,
				"y": -0.198616356,
				"z": -4.6019371588,
				"element": "C" 
			},
			{
				"x": -2.4368060275,
				"y": 0.7699569873,
				"z": -5.1124238615,
				"element": "C" 
			},
			{
				"x": -3.6243412933,
				"y": 2.9521189913,
				"z": -6.2086546733,
				"element": "H" 
			},
			{
				"x": -4.3319559849,
				"y": 3.0991517265,
				"z": -4.5994097223,
				"element": "H" 
			},
			{
				"x": -2.978424809,
				"y": 4.133465909,
				"z": -5.0590706645,
				"element": "H" 
			},
			{
				"x": -1.4303287912,
				"y": 3.418151294,
				"z": -3.2586221623,
				"element": "H" 
			},
			{
				"x": 0.1408803295,
				"y": 1.7368712663,
				"z": -2.4010495616,
				"element": "H" 
			},
			{
				"x": 0.5212874191,
				"y": -1.5701970854,
				"z": -3.8290357625,
				"element": "H" 
			},
			{
				"x": 0.7211247174,
				"y": 0.4786968672,
				"z": -0.6571901675,
				"element": "H" 
			},
			{
				"x": -0.9144986074,
				"y": -0.13125843,
				"z": -0.8270346603,
				"element": "H" 
			},
			{
				"x": -0.098077214,
				"y": -2.2320391748,
				"z": 0.4224220028,
				"element": "H" 
			},
			{
				"x": 2.4820193888,
				"y": -1.2609023817,
				"z": 0.6400514909,
				"element": "H" 
			},
			{
				"x": 2.5630780994,
				"y": -2.7967264796,
				"z": 2.6438754357,
				"element": "H" 
			},
			{
				"x": 1.2628272064,
				"y": -3.4285972975,
				"z": 1.6474724849,
				"element": "H" 
			},
			{
				"x": -0.3427278273,
				"y": -2.7589684517,
				"z": 3.319104575,
				"element": "H" 
			},
			{
				"x": 0.9922068054,
				"y": -2.2385691478,
				"z": 4.3329847459,
				"element": "H" 
			},
			{
				"x": 0.2738084055,
				"y": 0.1027422278,
				"z": 5.0733594284,
				"element": "H" 
			},
			{
				"x": -1.3397221514,
				"y": -0.3120420327,
				"z": 4.4661029095,
				"element": "H" 
			},
			{
				"x": -0.560396682,
				"y": 1.1691237883,
				"z": 3.9244805337,
				"element": "H" 
			},
			{
				"x": 1.4906075257,
				"y": 2.0248026676,
				"z": 2.633450487,
				"element": "H" 
			},
			{
				"x": 0.5761742725,
				"y": 1.4627606517,
				"z": 1.2458689261,
				"element": "H" 
			},
			{
				"x": 2.3458971303,
				"y": 1.5095379824,
				"z": 1.179721695,
				"element": "H" 
			},
			{
				"x": 2.9324396173,
				"y": -1.0921231745,
				"z": 3.887829515,
				"element": "H" 
			},
			{
				"x": 3.7146110872,
				"y": 0.0712828797,
				"z": 2.8173890107,
				"element": "H" 
			},
			{
				"x": 2.6743776177,
				"y": 0.6352657177,
				"z": 4.1267348397,
				"element": "H" 
			},
			{
				"x": -1.6223956076,
				"y": -1.2180844942,
				"z": -4.9760986023,
				"element": "H" 
			},
			{
				"x": -3.1418380029,
				"y": 0.4938175075,
				"z": -5.8925808421,
				"element": "H" 
			}
		],
		 "valence_orbital": [ 
			{
				"type": "occ",
				"energy": -0.28776,
				"method": "rhf"
			},
			{
				"type": "occ",
				"energy": -0.25783,
				"method": "rhf"
			},
			{
				"type": "occ",
				"energy": -0.25464,
				"method": "rhf"
			},
			{
				"type": "occ",
				"energy": -0.22944,
				"method": "rhf"
			},
			{
				"type": "occ",
				"energy": -0.22182,
				"method": "rhf"
			},
			{
				"type": "unocc",
				"energy": -0.01315,
				"method": "rhf"
			},
			{
				"type": "unocc",
				"energy": -0.01043,
				"method": "rhf"
			},
			{
				"type": "unocc",
				"energy": -0.00685,
				"method": "rhf"
			},
			{
				"type": "unocc",
				"energy": 0.0321,
				"method": "rhf"
			},
			{
				"type": "unocc",
				"energy": 0.07445,
				"method": "rhf"
			}
		],
		"cosmo_sigma_profile": { 
			"-0.025": 0.0,
			"-0.024": 0.0,
			"-0.023": 0.0,
			"-0.022": 0.0,
			"-0.021": 0.0,
			"-0.02": 0.0,
			"-0.019": 0.0,
			"-0.018": 0.0,
			"-0.017": 0.0,
			"-0.016": 0.0,
			"-0.015": 0.0,
			"-0.014": 0.365757699395,
			"-0.013": 1.37105652417,
			"-0.012": 0.840698499711,
			"-0.011": 0.793275039161,
			"-0.01": 0.841990829226,
			"-0.009": 2.01494110573,
			"-0.008": 2.23826274007,
			"-0.007": 2.84859077745,
			"-0.006": 6.67708687284,
			"-0.005": 14.4273439453,
			"-0.004": 28.2830519172,
			"-0.003": 42.124510264,
			"-0.002": 47.5186777143,
			"-0.001": 43.4527359996,
			"0.0": 42.3976561645,
			"0.001": 33.0667878645,
			"0.002": 14.8673571134,
			"0.003": 12.68882885,
			"0.004": 11.1922251836,
			"0.005": 12.4307861094,
			"0.006": 6.15001316346,
			"0.007": 3.02066740661,
			"0.008": 3.04908009922,
			"0.009": 3.1832900027,
			"0.01": 4.17011090126,
			"0.011": 4.1616787386,
			"0.012": 6.48705939914,
			"0.013": 6.05352251286,
			"0.014": 2.29615119864,
			"0.015": 0.0,
			"0.016": 0.0,
			"0.017": 0.0,
			"0.018": 0.0,
			"0.019": 0.0,
			"0.02": 0.0,
			"0.021": 0.0,
			"0.022": 0.0,
			"0.023": 0.0,
			"0.024": 0.0,
			"0.025": 0.0
		}
	}
}
