{
	 "smiles": "CC(CC1=CC=CC=C1)C(=O)C(C)=NNC(N)=O", 
	 "Tm": 385.15, 
	 "num_atms": 35, 
	 "gaussian": { 
		 "optdone": 1, 
		 "sigma_profile": "yes", 
		 "theory": "DFT", 
		 "functional": "B3LYP", 
		 "basiset": "6-31G**", 
		 "properties": { 
			 "R2extent": 4974.05, 
			 "electric_dipole_moment_norm": 1.91227658303, 
			 "electric_quadrupole_moment_norm": 17.3663803157, 
			 "total_energy": -820.332104403, 
			 "HOMO_LUMO_gap": 0.17262, 
			 "cosmo_polarized_energy": -17.22, 
			 "cosmo_cavitation_energy": 38.38, 
			 "cosmo_dispersion_energy": -25.2, 
			 "cosmo_repulsion_energy": 1.98, 
			 "cosmo_total_nonelectrostatic_energy": 15.17, 
			 "SMD_solvation_energy": 7.47 
		},
		"coords": [
			{
				"x": 1.0805785819,
				"y": 0.3945334251,
				"z": -1.6896152185,
				"element": "C" 
			},
			{
				"x": 0.3327137126,
				"y": -0.9391462218,
				"z": -1.5776176526,
				"element": "C" 
			},
			{
				"x": -1.0680136611,
				"y": -0.8853000518,
				"z": -2.2699438701,
				"element": "C" 
			},
			{
				"x": -2.0827433267,
				"y": 0.0273722608,
				"z": -1.6126551452,
				"element": "C" 
			},
			{
				"x": -2.8898224339,
				"y": -0.4390108903,
				"z": -0.56300332,
				"element": "C" 
			},
			{
				"x": -3.8180288458,
				"y": 0.3994631695,
				"z": 0.0551062873,
				"element": "C" 
			},
			{
				"x": -3.9612303414,
				"y": 1.7226680092,
				"z": -0.3678229949,
				"element": "C" 
			},
			{
				"x": -3.1733034045,
				"y": 2.1974985999,
				"z": -1.4171120387,
				"element": "C" 
			},
			{
				"x": -2.2454969658,
				"y": 1.3551567526,
				"z": -2.0330854808,
				"element": "C" 
			},
			{
				"x": 0.1740021273,
				"y": -1.6448214294,
				"z": -0.2147106061,
				"element": "C" 
			},
			{
				"x": -0.1981840193,
				"y": -2.8147060378,
				"z": -0.2414750555,
				"element": "O" 
			},
			{
				"x": 0.4101874011,
				"y": -1.0196895872,
				"z": 1.1224192964,
				"element": "C" 
			},
			{
				"x": 0.1931085768,
				"y": -1.8791429511,
				"z": 2.3409563171,
				"element": "C" 
			},
			{
				"x": 0.7716005514,
				"y": 0.2240059142,
				"z": 1.1717755956,
				"element": "N" 
			},
			{
				"x": 0.9596178239,
				"y": 0.7961979795,
				"z": 2.3666735759,
				"element": "N" 
			},
			{
				"x": 1.3523307103,
				"y": 2.1418625216,
				"z": 2.5016287179,
				"element": "C" 
			},
			{
				"x": 1.6057425901,
				"y": 2.7759102742,
				"z": 1.3264913345,
				"element": "N" 
			},
			{
				"x": 1.4596972099,
				"y": 2.6263578343,
				"z": 3.6168000662,
				"element": "O" 
			},
			{
				"x": 1.2618522458,
				"y": 0.6063118482,
				"z": -2.749883632,
				"element": "H" 
			},
			{
				"x": 0.497697385,
				"y": 1.221579411,
				"z": -1.2792799044,
				"element": "H" 
			},
			{
				"x": 2.047785074,
				"y": 0.3657161305,
				"z": -1.18272956,
				"element": "H" 
			},
			{
				"x": 0.9019612014,
				"y": -1.6827670258,
				"z": -2.1506790738,
				"element": "H" 
			},
			{
				"x": -0.9075126036,
				"y": -0.5688927997,
				"z": -3.3070517242,
				"element": "H" 
			},
			{
				"x": -1.4544627684,
				"y": -1.9079548228,
				"z": -2.2988444517,
				"element": "H" 
			},
			{
				"x": -2.7929951222,
				"y": -1.4712033514,
				"z": -0.2367930556,
				"element": "H" 
			},
			{
				"x": -4.4364825866,
				"y": 0.0165089507,
				"z": 0.8622890015,
				"element": "H" 
			},
			{
				"x": -4.6868738111,
				"y": 2.374481266,
				"z": 0.1101239983,
				"element": "H" 
			},
			{
				"x": -3.2850776109,
				"y": 3.2216883227,
				"z": -1.7624140175,
				"element": "H" 
			},
			{
				"x": -1.6466859703,
				"y": 1.7293376107,
				"z": -2.8600670544,
				"element": "H" 
			},
			{
				"x": -0.0792377368,
				"y": -2.8859158424,
				"z": 2.0285300753,
				"element": "H" 
			},
			{
				"x": -0.613552294,
				"y": -1.4797313489,
				"z": 2.9697107199,
				"element": "H" 
			},
			{
				"x": 1.1007392497,
				"y": -1.9326693503,
				"z": 2.9558244126,
				"element": "H" 
			},
			{
				"x": 0.7924771127,
				"y": 0.3134689016,
				"z": 3.244166319,
				"element": "H" 
			},
			{
				"x": 1.3790448204,
				"y": 2.3325885709,
				"z": 0.4502590921,
				"element": "H" 
			},
			{
				"x": 1.7703671283,
				"y": 3.7673439576,
				"z": 1.3723290464,
				"element": "H" 
			}
		],
		 "valence_orbital": [ 
			{
				"type": "occ",
				"energy": -0.27213,
				"method": "rhf"
			},
			{
				"type": "occ",
				"energy": -0.25284,
				"method": "rhf"
			},
			{
				"type": "occ",
				"energy": -0.2514,
				"method": "rhf"
			},
			{
				"type": "occ",
				"energy": -0.24757,
				"method": "rhf"
			},
			{
				"type": "occ",
				"energy": -0.24126,
				"method": "rhf"
			},
			{
				"type": "unocc",
				"energy": -0.06864,
				"method": "rhf"
			},
			{
				"type": "unocc",
				"energy": -0.00311,
				"method": "rhf"
			},
			{
				"type": "unocc",
				"energy": -0.00231,
				"method": "rhf"
			},
			{
				"type": "unocc",
				"energy": 0.03698,
				"method": "rhf"
			},
			{
				"type": "unocc",
				"energy": 0.06815,
				"method": "rhf"
			}
		],
		"cosmo_sigma_profile": { 
			"-0.025": 0.0,
			"-0.024": 0.0,
			"-0.023": 0.0,
			"-0.022": 0.0,
			"-0.021": 0.0,
			"-0.02": 0.0,
			"-0.019": 0.0,
			"-0.018": 0.0,
			"-0.017": 0.0,
			"-0.016": 0.0,
			"-0.015": 0.294139407594,
			"-0.014": 1.62728126711,
			"-0.013": 2.09544395039,
			"-0.012": 1.91611917061,
			"-0.011": 1.85814752802,
			"-0.01": 4.13003000107,
			"-0.009": 3.98846253931,
			"-0.008": 3.00350635102,
			"-0.007": 3.9610884068,
			"-0.006": 7.21565301852,
			"-0.005": 14.3088565636,
			"-0.004": 23.368805918,
			"-0.003": 33.0660809895,
			"-0.002": 28.2309744343,
			"-0.001": 28.5579939211,
			"0.0": 28.3749803743,
			"0.001": 21.1120663942,
			"0.002": 13.1031973646,
			"0.003": 13.9458932975,
			"0.004": 13.9604309527,
			"0.005": 11.8992705515,
			"0.006": 10.1423918804,
			"0.007": 4.86328735354,
			"0.008": 2.47232679272,
			"0.009": 2.82346928114,
			"0.01": 1.96064168476,
			"0.011": 4.29957874324,
			"0.012": 4.86201218734,
			"0.013": 6.59562775415,
			"0.014": 4.16421298216,
			"0.015": 0.248005232864,
			"0.016": 0.0,
			"0.017": 0.0,
			"0.018": 0.0,
			"0.019": 0.0,
			"0.02": 0.0,
			"0.021": 0.0,
			"0.022": 0.0,
			"0.023": 0.0,
			"0.024": 0.0,
			"0.025": 0.0
		}
	}
}
