{
	 "smiles": "OC(=O)C1=C(OCC2=CC(Br)=CC=C2)C=CC=C1", 
	 "Tm": 382.15, 
	 "num_atms": 29, 
	 "gaussian": { 
		 "optdone": 1, 
		 "sigma_profile": "yes", 
		 "theory": "DFT", 
		 "functional": "B3LYP", 
		 "basiset": "6-31G**", 
		 "properties": { 
			 "R2extent": 7549.5777, 
			 "electric_dipole_moment_norm": 1.97210636123, 
			 "electric_quadrupole_moment_norm": 12.7732251503, 
			 "total_energy": -3337.1965407, 
			 "HOMO_LUMO_gap": 0.19491, 
			 "cosmo_polarized_energy": -12.58, 
			 "cosmo_cavitation_energy": 36.25, 
			 "cosmo_dispersion_energy": -25.68, 
			 "cosmo_repulsion_energy": 2.01, 
			 "cosmo_total_nonelectrostatic_energy": 12.58, 
			 "SMD_solvation_energy": 6.16 
		},
		"coords": [
			{
				"x": -0.7318429557,
				"y": 3.2220729385,
				"z": 1.9381054059,
				"element": "O" 
			},
			{
				"x": -1.693127231,
				"y": 3.3641377126,
				"z": 0.9943547486,
				"element": "C" 
			},
			{
				"x": -2.2234062876,
				"y": 4.4418447496,
				"z": 0.7973619476,
				"element": "O" 
			},
			{
				"x": -2.0321226053,
				"y": 2.1267013207,
				"z": 0.2340081042,
				"element": "C" 
			},
			{
				"x": -1.5320991914,
				"y": 0.8282182191,
				"z": 0.4843909141,
				"element": "C" 
			},
			{
				"x": -0.6627355605,
				"y": 0.5590123373,
				"z": 1.514327288,
				"element": "O" 
			},
			{
				"x": 0.7371193292,
				"y": 0.7547694799,
				"z": 1.2458990802,
				"element": "C" 
			},
			{
				"x": 1.3625826161,
				"y": -0.4114541772,
				"z": 0.5091118971,
				"element": "C" 
			},
			{
				"x": 2.0910731315,
				"y": -0.1970486971,
				"z": -0.6644401233,
				"element": "C" 
			},
			{
				"x": 2.6890821471,
				"y": -1.2771117318,
				"z": -1.3140429907,
				"element": "C" 
			},
			{
				"x": 3.6850275999,
				"y": -0.9668088104,
				"z": -2.9175455006,
				"element": "Br" 
			},
			{
				"x": 2.5698783603,
				"y": -2.5743422628,
				"z": -0.8238018641,
				"element": "C" 
			},
			{
				"x": 1.8345684851,
				"y": -2.784684431,
				"z": 0.3464351744,
				"element": "C" 
			},
			{
				"x": 1.2380507987,
				"y": -1.7150254997,
				"z": 1.0100082034,
				"element": "C" 
			},
			{
				"x": -1.9861632095,
				"y": -0.2480701824,
				"z": -0.2863354671,
				"element": "C" 
			},
			{
				"x": -2.9151542184,
				"y": -0.0539956306,
				"z": -1.3052887513,
				"element": "C" 
			},
			{
				"x": -3.4088009401,
				"y": 1.2264853355,
				"z": -1.5677232591,
				"element": "C" 
			},
			{
				"x": -2.9719690563,
				"y": 2.2972293453,
				"z": -0.7983152374,
				"element": "C" 
			},
			{
				"x": -0.6406997936,
				"y": 4.1055603802,
				"z": 2.3338932256,
				"element": "H" 
			},
			{
				"x": 1.1902391649,
				"y": 0.8693345388,
				"z": 2.235087627,
				"element": "H" 
			},
			{
				"x": 0.8932574034,
				"y": 1.6897992386,
				"z": 0.6991554627,
				"element": "H" 
			},
			{
				"x": 2.1927440467,
				"y": 0.8032438562,
				"z": -1.0722742402,
				"element": "H" 
			},
			{
				"x": 3.0393083482,
				"y": -3.4016205122,
				"z": -1.3435693678,
				"element": "H" 
			},
			{
				"x": 1.7355627461,
				"y": -3.792606035,
				"z": 0.738891518,
				"element": "H" 
			},
			{
				"x": 0.6645463613,
				"y": -1.8832965037,
				"z": 1.9167459578,
				"element": "H" 
			},
			{
				"x": -1.5964292803,
				"y": -1.2347034574,
				"z": -0.062972528,
				"element": "H" 
			},
			{
				"x": -3.2529289707,
				"y": -0.9028140789,
				"z": -1.8930179105,
				"element": "H" 
			},
			{
				"x": -4.1341511039,
				"y": 1.3854170882,
				"z": -2.3593861701,
				"element": "H" 
			},
			{
				"x": -3.3507101342,
				"y": 3.2992554697,
				"z": -0.9667631445,
				"element": "H" 
			}
		],
		 "valence_orbital": [ 
			{
				"type": "occ",
				"energy": -0.27752,
				"method": "rhf"
			},
			{
				"type": "occ",
				"energy": -0.26753,
				"method": "rhf"
			},
			{
				"type": "occ",
				"energy": -0.26142,
				"method": "rhf"
			},
			{
				"type": "occ",
				"energy": -0.25031,
				"method": "rhf"
			},
			{
				"type": "occ",
				"energy": -0.24491,
				"method": "rhf"
			},
			{
				"type": "unocc",
				"energy": -0.05,
				"method": "rhf"
			},
			{
				"type": "unocc",
				"energy": -0.0259,
				"method": "rhf"
			},
			{
				"type": "unocc",
				"energy": -0.0189,
				"method": "rhf"
			},
			{
				"type": "unocc",
				"energy": -0.00607,
				"method": "rhf"
			},
			{
				"type": "unocc",
				"energy": 0.0044,
				"method": "rhf"
			}
		],
		"cosmo_sigma_profile": { 
			"-0.025": 0.0,
			"-0.024": 0.0,
			"-0.023": 0.0,
			"-0.022": 0.0,
			"-0.021": 0.0,
			"-0.02": 0.0,
			"-0.019": 0.0,
			"-0.018": 0.523986144575,
			"-0.017": 1.24688652897,
			"-0.016": 0.725844565442,
			"-0.015": 0.597086215849,
			"-0.014": 0.921085583803,
			"-0.013": 0.321854615375,
			"-0.012": 0.58106792525,
			"-0.011": 0.736413645225,
			"-0.01": 0.781893169545,
			"-0.009": 0.672347482614,
			"-0.008": 0.893067953157,
			"-0.007": 8.29573083977,
			"-0.006": 17.8850102722,
			"-0.005": 19.8361321924,
			"-0.004": 20.6363212601,
			"-0.003": 18.2265904749,
			"-0.002": 19.3049061392,
			"-0.001": 17.9702702819,
			"0.0": 18.1551414468,
			"0.001": 23.0475711106,
			"0.002": 29.9735714516,
			"0.003": 33.056042134,
			"0.004": 24.5400199395,
			"0.005": 10.2023085666,
			"0.006": 3.39647149151,
			"0.007": 2.11220830411,
			"0.008": 2.319057957,
			"0.009": 2.78252021301,
			"0.01": 3.72790886366,
			"0.011": 4.95457337423,
			"0.012": 4.72698799767,
			"0.013": 0.379399324639,
			"0.014": 0.0,
			"0.015": 0.0,
			"0.016": 0.0,
			"0.017": 0.0,
			"0.018": 0.0,
			"0.019": 0.0,
			"0.02": 0.0,
			"0.021": 0.0,
			"0.022": 0.0,
			"0.023": 0.0,
			"0.024": 0.0,
			"0.025": 0.0
		}
	}
}
