{
	 "smiles": "OCC1OC(CC1O)N1C=NC2=C1N=CNCC2O", 
	 "Tm": 493.15, 
	 "num_atms": 35, 
	 "gaussian": { 
		 "optdone": 1, 
		 "sigma_profile": "yes", 
		 "theory": "DFT", 
		 "functional": "B3LYP", 
		 "basiset": "6-31G**", 
		 "properties": { 
			 "R2extent": 5639.5623, 
			 "electric_dipole_moment_norm": 3.80511586814, 
			 "electric_quadrupole_moment_norm": 17.0908766446, 
			 "total_energy": -948.670191405, 
			 "HOMO_LUMO_gap": 0.18037, 
			 "cosmo_polarized_energy": -24.05, 
			 "cosmo_cavitation_energy": 36.16, 
			 "cosmo_dispersion_energy": -26.34, 
			 "cosmo_repulsion_energy": 2.04, 
			 "cosmo_total_nonelectrostatic_energy": 11.86, 
			 "SMD_solvation_energy": 3.86 
		},
		"coords": [
			{
				"x": -4.7337195853,
				"y": 1.4079498284,
				"z": -1.9624926932,
				"element": "O" 
			},
			{
				"x": -3.4335139941,
				"y": 1.9897910157,
				"z": -2.1089783782,
				"element": "C" 
			},
			{
				"x": -2.3514916193,
				"y": 1.0548423598,
				"z": -1.5750117915,
				"element": "C" 
			},
			{
				"x": -1.0822751235,
				"y": 1.6313320726,
				"z": -1.9100557755,
				"element": "O" 
			},
			{
				"x": -0.1294856303,
				"y": 0.6163172898,
				"z": -2.1448889774,
				"element": "C" 
			},
			{
				"x": -0.9110731538,
				"y": -0.6519802422,
				"z": -2.5454327182,
				"element": "C" 
			},
			{
				"x": -2.3851890044,
				"y": -0.3625239593,
				"z": -2.2121915679,
				"element": "C" 
			},
			{
				"x": -3.1380473715,
				"y": -0.4251557452,
				"z": -3.4153511633,
				"element": "O" 
			},
			{
				"x": 0.7821092076,
				"y": 0.4360779247,
				"z": -1.0092262924,
				"element": "N" 
			},
			{
				"x": 2.0564834605,
				"y": 0.9386511783,
				"z": -0.9671398038,
				"element": "C" 
			},
			{
				"x": 2.6659592804,
				"y": 0.6895722197,
				"z": 0.1695549132,
				"element": "N" 
			},
			{
				"x": 1.7464489596,
				"y": -0.0033324975,
				"z": 0.9269516763,
				"element": "C" 
			},
			{
				"x": 0.5602757442,
				"y": -0.175236018,
				"z": 0.2249238715,
				"element": "C" 
			},
			{
				"x": -0.6697015469,
				"y": -0.7257918532,
				"z": 0.5098415537,
				"element": "N" 
			},
			{
				"x": -0.9213967454,
				"y": -1.3383903033,
				"z": 1.6194700961,
				"element": "C" 
			},
			{
				"x": -0.1051362193,
				"y": -1.6869562848,
				"z": 2.651661595,
				"element": "N" 
			},
			{
				"x": 1.3535682499,
				"y": -1.7774839846,
				"z": 2.6528821568,
				"element": "C" 
			},
			{
				"x": 2.0635396082,
				"y": -0.4634796264,
				"z": 2.3112906892,
				"element": "C" 
			},
			{
				"x": 1.6942274753,
				"y": 0.4698707952,
				"z": 3.3314125761,
				"element": "O" 
			},
			{
				"x": -4.921374554,
				"y": 1.324656912,
				"z": -1.0182561562,
				"element": "H" 
			},
			{
				"x": -3.3725659636,
				"y": 2.9703117317,
				"z": -1.6195871775,
				"element": "H" 
			},
			{
				"x": -3.2835378866,
				"y": 2.1300515286,
				"z": -3.1807732193,
				"element": "H" 
			},
			{
				"x": -2.4259534998,
				"y": 0.9566285648,
				"z": -0.4831110659,
				"element": "H" 
			},
			{
				"x": 0.5162419124,
				"y": 0.9696746955,
				"z": -2.9540178083,
				"element": "H" 
			},
			{
				"x": -0.8370087298,
				"y": -0.8085590774,
				"z": -3.624296475,
				"element": "H" 
			},
			{
				"x": -0.5329965172,
				"y": -1.5370530672,
				"z": -2.0355790784,
				"element": "H" 
			},
			{
				"x": -2.7663034494,
				"y": -1.0829797891,
				"z": -1.4776992446,
				"element": "H" 
			},
			{
				"x": -4.0401209271,
				"y": -0.1513899622,
				"z": -3.1835227466,
				"element": "H" 
			},
			{
				"x": 2.4811642731,
				"y": 1.4720637726,
				"z": -1.8075802971,
				"element": "H" 
			},
			{
				"x": -1.9605415163,
				"y": -1.6252543312,
				"z": 1.7919683058,
				"element": "H" 
			},
			{
				"x": -0.5728739111,
				"y": -2.0758594632,
				"z": 3.4556316964,
				"element": "H" 
			},
			{
				"x": 1.643063484,
				"y": -2.0779452804,
				"z": 3.662790422,
				"element": "H" 
			},
			{
				"x": 1.6955354591,
				"y": -2.5557815914,
				"z": 1.9592617265,
				"element": "H" 
			},
			{
				"x": 3.147712827,
				"y": -0.6555969461,
				"z": 2.3501219162,
				"element": "H" 
			},
			{
				"x": 1.9873770075,
				"y": 1.3394581332,
				"z": 3.0289292355,
				"element": "H" 
			}
		],
		 "valence_orbital": [ 
			{
				"type": "occ",
				"energy": -0.26872,
				"method": "rhf"
			},
			{
				"type": "occ",
				"energy": -0.25629,
				"method": "rhf"
			},
			{
				"type": "occ",
				"energy": -0.25207,
				"method": "rhf"
			},
			{
				"type": "occ",
				"energy": -0.24676,
				"method": "rhf"
			},
			{
				"type": "occ",
				"energy": -0.193,
				"method": "rhf"
			},
			{
				"type": "unocc",
				"energy": -0.01263,
				"method": "rhf"
			},
			{
				"type": "unocc",
				"energy": 0.04522,
				"method": "rhf"
			},
			{
				"type": "unocc",
				"energy": 0.05284,
				"method": "rhf"
			},
			{
				"type": "unocc",
				"energy": 0.05793,
				"method": "rhf"
			},
			{
				"type": "unocc",
				"energy": 0.07897,
				"method": "rhf"
			}
		],
		"cosmo_sigma_profile": { 
			"-0.025": 0.0,
			"-0.024": 0.0,
			"-0.023": 0.0,
			"-0.022": 0.0,
			"-0.021": 0.0,
			"-0.02": 0.0,
			"-0.019": 0.0,
			"-0.018": 0.0,
			"-0.017": 0.144494176447,
			"-0.016": 1.04075182221,
			"-0.015": 1.98999655668,
			"-0.014": 3.53391005838,
			"-0.013": 3.58743311208,
			"-0.012": 3.22389474176,
			"-0.011": 3.04180821154,
			"-0.01": 3.17382332337,
			"-0.009": 5.29655961865,
			"-0.008": 8.0382090145,
			"-0.007": 10.016309844,
			"-0.006": 10.3283747133,
			"-0.005": 15.227702686,
			"-0.004": 20.976842371,
			"-0.003": 20.8606838773,
			"-0.002": 20.6961422655,
			"-0.001": 17.0465263297,
			"0.0": 11.7579901973,
			"0.001": 14.1162070713,
			"0.002": 11.0903222232,
			"0.003": 13.5336374403,
			"0.004": 13.1493377292,
			"0.005": 12.5310937865,
			"0.006": 9.0381054786,
			"0.007": 6.71995058763,
			"0.008": 6.16177035701,
			"0.009": 5.29625146569,
			"0.01": 5.68918378742,
			"0.011": 6.39260589445,
			"0.012": 5.55343027668,
			"0.013": 5.54898532444,
			"0.014": 4.50417047554,
			"0.015": 1.27437616616,
			"0.016": 0.938310425806,
			"0.017": 0.797302241543,
			"0.018": 0.524564879788,
			"0.019": 0.0,
			"0.02": 0.0,
			"0.021": 0.0,
			"0.022": 0.0,
			"0.023": 0.0,
			"0.024": 0.0,
			"0.025": 0.0
		}
	}
}
