{
	 "smiles": "OCCC(F)(F)C(F)(F)C(F)(F)C(F)(F)F", 
	 "Tm": 215.15, 
	 "num_atms": 21, 
	 "gaussian": { 
		 "optdone": 1, 
		 "sigma_profile": "yes", 
		 "theory": "DFT", 
		 "functional": "B3LYP", 
		 "basiset": "6-31G**", 
		 "properties": { 
			 "R2extent": 4106.3182, 
			 "electric_dipole_moment_norm": 2.74887937167, 
			 "electric_quadrupole_moment_norm": 10.0614600591, 
			 "total_energy": -1205.40699773, 
			 "HOMO_LUMO_gap": 0.31677, 
			 "cosmo_polarized_energy": -8.77, 
			 "cosmo_cavitation_energy": 28.16, 
			 "cosmo_dispersion_energy": -18.97, 
			 "cosmo_repulsion_energy": 1.33, 
			 "cosmo_total_nonelectrostatic_energy": 10.52, 
			 "SMD_solvation_energy": 7.8 
		},
		"coords": [
			{
				"x": 0.0855865261,
				"y": -1.0412222499,
				"z": -3.9590416303,
				"element": "O" 
			},
			{
				"x": -0.8588709568,
				"y": -0.5857607107,
				"z": -3.0109172055,
				"element": "C" 
			},
			{
				"x": -0.3325060914,
				"y": -0.539597388,
				"z": -1.5696224604,
				"element": "C" 
			},
			{
				"x": 0.9066724929,
				"y": 0.3265006797,
				"z": -1.4042341551,
				"element": "C" 
			},
			{
				"x": 0.7304039651,
				"y": 1.5259800781,
				"z": -2.0338732236,
				"element": "F" 
			},
			{
				"x": 2.004052447,
				"y": -0.2685942857,
				"z": -1.9494693012,
				"element": "F" 
			},
			{
				"x": 1.2681283937,
				"y": 0.6965447558,
				"z": 0.0626721271,
				"element": "C" 
			},
			{
				"x": 2.3992877893,
				"y": 1.4426531911,
				"z": 0.0459556792,
				"element": "F" 
			},
			{
				"x": 0.2572541657,
				"y": 1.4487672338,
				"z": 0.5709504391,
				"element": "F" 
			},
			{
				"x": 1.4908805042,
				"y": -0.4970908209,
				"z": 1.0255294268,
				"element": "C" 
			},
			{
				"x": 2.2625553986,
				"y": -1.4355042918,
				"z": 0.4278727596,
				"element": "F" 
			},
			{
				"x": 0.2818562603,
				"y": -1.0494049257,
				"z": 1.3073954568,
				"element": "F" 
			},
			{
				"x": 2.1624470941,
				"y": -0.1305218101,
				"z": 2.3741775509,
				"element": "C" 
			},
			{
				"x": 1.5337323135,
				"y": 0.9045847578,
				"z": 2.9459261398,
				"element": "F" 
			},
			{
				"x": 3.4480061362,
				"y": 0.1823124969,
				"z": 2.1886571398,
				"element": "F" 
			},
			{
				"x": 2.0900115011,
				"y": -1.1866376167,
				"z": 3.1952394995,
				"element": "F" 
			},
			{
				"x": 0.4028134013,
				"y": -1.9116237443,
				"z": -3.6856340943,
				"element": "H" 
			},
			{
				"x": -1.7752034811,
				"y": -1.1969516716,
				"z": -3.0151998778,
				"element": "H" 
			},
			{
				"x": -1.1367818592,
				"y": 0.4222497933,
				"z": -3.3292051941,
				"element": "H" 
			},
			{
				"x": -1.1181216282,
				"y": -0.1476571874,
				"z": -0.9158659781,
				"element": "H" 
			},
			{
				"x": -0.0903043722,
				"y": -1.5460262838,
				"z": -1.2119130982,
				"element": "H" 
			}
		],
		 "valence_orbital": [ 
			{
				"type": "occ",
				"energy": -0.39224,
				"method": "rhf"
			},
			{
				"type": "occ",
				"energy": -0.3769,
				"method": "rhf"
			},
			{
				"type": "occ",
				"energy": -0.3431,
				"method": "rhf"
			},
			{
				"type": "occ",
				"energy": -0.33856,
				"method": "rhf"
			},
			{
				"type": "occ",
				"energy": -0.27978,
				"method": "rhf"
			},
			{
				"type": "unocc",
				"energy": 0.03699,
				"method": "rhf"
			},
			{
				"type": "unocc",
				"energy": 0.03877,
				"method": "rhf"
			},
			{
				"type": "unocc",
				"energy": 0.06238,
				"method": "rhf"
			},
			{
				"type": "unocc",
				"energy": 0.09878,
				"method": "rhf"
			},
			{
				"type": "unocc",
				"energy": 0.10841,
				"method": "rhf"
			}
		],
		"cosmo_sigma_profile": { 
			"-0.025": 0.0,
			"-0.024": 0.0,
			"-0.023": 0.0,
			"-0.022": 0.0,
			"-0.021": 0.0,
			"-0.02": 0.0,
			"-0.019": 0.0,
			"-0.018": 0.0,
			"-0.017": 0.0,
			"-0.016": 0.684261282804,
			"-0.015": 0.873876855159,
			"-0.014": 0.922134080675,
			"-0.013": 1.08239039618,
			"-0.012": 1.18763384939,
			"-0.011": 1.16410109304,
			"-0.01": 0.839561587082,
			"-0.009": 0.916217950594,
			"-0.008": 1.71901812747,
			"-0.007": 3.9331218616,
			"-0.006": 4.67328992233,
			"-0.005": 11.8626071788,
			"-0.004": 10.2060264008,
			"-0.003": 9.42069247713,
			"-0.002": 12.530116299,
			"-0.001": 14.2906820534,
			"0.0": 24.6663635005,
			"0.001": 54.5508661258,
			"0.002": 31.3734429002,
			"0.003": 15.6783484245,
			"0.004": 4.7880074086,
			"0.005": 1.73166487349,
			"0.006": 1.91094442699,
			"0.007": 1.66386496428,
			"0.008": 1.44153296242,
			"0.009": 1.7122661585,
			"0.01": 1.52947240582,
			"0.011": 0.889738239328,
			"0.012": 1.44565229624,
			"0.013": 2.06581706332,
			"0.014": 1.47393698595,
			"0.015": 0.0598736396816,
			"0.016": 0.0,
			"0.017": 0.0,
			"0.018": 0.0,
			"0.019": 0.0,
			"0.02": 0.0,
			"0.021": 0.0,
			"0.022": 0.0,
			"0.023": 0.0,
			"0.024": 0.0,
			"0.025": 0.0
		}
	}
}
