{
	 "smiles": "COCC1=NC(C)=C(S1)C(O)=O", 
	 "Tm": 433.15, 
	 "num_atms": 21, 
	 "gaussian": { 
		 "optdone": 1, 
		 "sigma_profile": "yes", 
		 "theory": "DFT", 
		 "functional": "B3LYP", 
		 "basiset": "6-31G**", 
		 "properties": { 
			 "R2extent": 3690.1713, 
			 "electric_dipole_moment_norm": 4.79657889438, 
			 "electric_quadrupole_moment_norm": 23.5217982807, 
			 "total_energy": -950.764353836, 
			 "HOMO_LUMO_gap": 0.19074, 
			 "cosmo_polarized_energy": -15.98, 
			 "cosmo_cavitation_energy": 26.69, 
			 "cosmo_dispersion_energy": -20.01, 
			 "cosmo_repulsion_energy": 1.57, 
			 "cosmo_total_nonelectrostatic_energy": 8.26, 
			 "SMD_solvation_energy": 4.44 
		},
		"coords": [
			{
				"x": 2.5531178259,
				"y": -1.4121656037,
				"z": 2.3267467869,
				"element": "C" 
			},
			{
				"x": 1.6183190314,
				"y": -1.0210355268,
				"z": 3.3232525301,
				"element": "O" 
			},
			{
				"x": 0.2742492759,
				"y": -1.2444092151,
				"z": 2.958984611,
				"element": "C" 
			},
			{
				"x": -0.275690288,
				"y": -0.1772579439,
				"z": 2.04245923,
				"element": "C" 
			},
			{
				"x": -1.2675403059,
				"y": -0.3788127485,
				"z": 1.2131924008,
				"element": "N" 
			},
			{
				"x": -1.6067805129,
				"y": 0.7756486996,
				"z": 0.5486160343,
				"element": "C" 
			},
			{
				"x": -2.7470909,
				"y": 0.7055838341,
				"z": -0.4335388967,
				"element": "C" 
			},
			{
				"x": -0.8405020352,
				"y": 1.8799996141,
				"z": 0.875925586,
				"element": "C" 
			},
			{
				"x": 0.3390563821,
				"y": 1.4498650347,
				"z": 2.0877064988,
				"element": "S" 
			},
			{
				"x": -0.8541778256,
				"y": 3.2860809394,
				"z": 0.4152078458,
				"element": "C" 
			},
			{
				"x": -1.6640671253,
				"y": 3.5951172127,
				"z": -0.6316772848,
				"element": "O" 
			},
			{
				"x": -0.181255369,
				"y": 4.1481028506,
				"z": 0.9340456501,
				"element": "O" 
			},
			{
				"x": 3.5466139979,
				"y": -1.2069932837,
				"z": 2.7300072129,
				"element": "H" 
			},
			{
				"x": 2.4252815229,
				"y": -0.8468812506,
				"z": 1.3935440965,
				"element": "H" 
			},
			{
				"x": 2.4693865324,
				"y": -2.4858075767,
				"z": 2.1042099519,
				"element": "H" 
			},
			{
				"x": -0.3011655921,
				"y": -1.243736479,
				"z": 3.8925634167,
				"element": "H" 
			},
			{
				"x": 0.1247833911,
				"y": -2.2207548374,
				"z": 2.4751449304,
				"element": "H" 
			},
			{
				"x": -3.2650164888,
				"y": -0.2458228374,
				"z": -0.3033172417,
				"element": "H" 
			},
			{
				"x": -3.4756013633,
				"y": 1.5096698883,
				"z": -0.2812176746,
				"element": "H" 
			},
			{
				"x": -2.3977533699,
				"y": 0.7397553802,
				"z": -1.474690704,
				"element": "H" 
			},
			{
				"x": -2.0673667838,
				"y": 2.802953849,
				"z": -1.0102649804,
				"element": "H" 
			}
		],
		 "valence_orbital": [ 
			{
				"type": "occ",
				"energy": -0.30423,
				"method": "rhf"
			},
			{
				"type": "occ",
				"energy": -0.29231,
				"method": "rhf"
			},
			{
				"type": "occ",
				"energy": -0.28113,
				"method": "rhf"
			},
			{
				"type": "occ",
				"energy": -0.26852,
				"method": "rhf"
			},
			{
				"type": "occ",
				"energy": -0.25714,
				"method": "rhf"
			},
			{
				"type": "unocc",
				"energy": -0.0664,
				"method": "rhf"
			},
			{
				"type": "unocc",
				"energy": 0.00389,
				"method": "rhf"
			},
			{
				"type": "unocc",
				"energy": 0.01593,
				"method": "rhf"
			},
			{
				"type": "unocc",
				"energy": 0.06275,
				"method": "rhf"
			},
			{
				"type": "unocc",
				"energy": 0.07205,
				"method": "rhf"
			}
		],
		"cosmo_sigma_profile": { 
			"-0.025": 0.0,
			"-0.024": 0.0,
			"-0.023": 0.0,
			"-0.022": 0.0,
			"-0.021": 0.0,
			"-0.02": 0.0,
			"-0.019": 0.0,
			"-0.018": 0.0,
			"-0.017": 0.0,
			"-0.016": 0.346014585809,
			"-0.015": 1.18938286233,
			"-0.014": 1.55518713092,
			"-0.013": 1.18399709272,
			"-0.012": 1.23457190429,
			"-0.011": 0.871816557432,
			"-0.01": 1.54860050485,
			"-0.009": 2.1765871755,
			"-0.008": 3.33768268572,
			"-0.007": 6.79171506068,
			"-0.006": 10.1760733199,
			"-0.005": 14.0355566421,
			"-0.004": 17.608063546,
			"-0.003": 20.5852898209,
			"-0.002": 19.5132714285,
			"-0.001": 14.4540462863,
			"0.0": 12.2694290156,
			"0.001": 13.9452090346,
			"0.002": 11.4723908605,
			"0.003": 6.78726791211,
			"0.004": 4.94779091951,
			"0.005": 4.97302480453,
			"0.006": 5.74765174585,
			"0.007": 4.15586258187,
			"0.008": 5.06624876691,
			"0.009": 5.23736284808,
			"0.01": 6.74114759304,
			"0.011": 7.20372052016,
			"0.012": 6.05322791043,
			"0.013": 2.34246998864,
			"0.014": 0.288030383672,
			"0.015": 0.0203955513735,
			"0.016": 0.0,
			"0.017": 0.0,
			"0.018": 0.0,
			"0.019": 0.0,
			"0.02": 0.0,
			"0.021": 0.0,
			"0.022": 0.0,
			"0.023": 0.0,
			"0.024": 0.0,
			"0.025": 0.0
		}
	}
}
