{
	 "smiles": "OC(=O)C1(CCC1)C1=CC(F)=CC=C1", 
	 "Tm": 341.15, 
	 "num_atms": 25, 
	 "gaussian": { 
		 "optdone": 1, 
		 "sigma_profile": "yes", 
		 "theory": "DFT", 
		 "functional": "B3LYP", 
		 "basiset": "6-31G**", 
		 "properties": { 
			 "R2extent": 2926.2357, 
			 "electric_dipole_moment_norm": 3.82055126258, 
			 "electric_quadrupole_moment_norm": 19.8821926505, 
			 "total_energy": -676.065527039, 
			 "HOMO_LUMO_gap": 0.21892, 
			 "cosmo_polarized_energy": -11.67, 
			 "cosmo_cavitation_energy": 28.2, 
			 "cosmo_dispersion_energy": -20.06, 
			 "cosmo_repulsion_energy": 1.55, 
			 "cosmo_total_nonelectrostatic_energy": 9.69, 
			 "SMD_solvation_energy": 6.17 
		},
		"coords": [
			{
				"x": -1.3168357962,
				"y": 2.5415457303,
				"z": 0.3610455551,
				"element": "O" 
			},
			{
				"x": -0.0618109505,
				"y": 2.820751847,
				"z": -0.0588537835,
				"element": "C" 
			},
			{
				"x": 0.2356666514,
				"y": 3.9473899662,
				"z": -0.3773636891,
				"element": "O" 
			},
			{
				"x": 0.9598091116,
				"y": 1.6648708563,
				"z": -0.0283873523,
				"element": "C" 
			},
			{
				"x": 2.1973426578,
				"y": 1.9012183835,
				"z": -0.955164428,
				"element": "C" 
			},
			{
				"x": 3.1383685642,
				"y": 1.5699918609,
				"z": 0.2268716938,
				"element": "C" 
			},
			{
				"x": 1.9514880314,
				"y": 1.7961153633,
				"z": 1.1920674165,
				"element": "C" 
			},
			{
				"x": 0.2914425075,
				"y": 0.3051164066,
				"z": -0.1915055591,
				"element": "C" 
			},
			{
				"x": -0.1002488673,
				"y": -0.4575077824,
				"z": 0.9205175227,
				"element": "C" 
			},
			{
				"x": -0.762275855,
				"y": -1.6674424803,
				"z": 0.7286319287,
				"element": "C" 
			},
			{
				"x": -1.1176848807,
				"y": -2.383906802,
				"z": 1.8137703996,
				"element": "F" 
			},
			{
				"x": -1.0657045315,
				"y": -2.1571950795,
				"z": -0.5342314623,
				"element": "C" 
			},
			{
				"x": -0.6891460893,
				"y": -1.3913710067,
				"z": -1.639506802,
				"element": "C" 
			},
			{
				"x": -0.0237054439,
				"y": -0.177457271,
				"z": -1.4736987366,
				"element": "C" 
			},
			{
				"x": -1.4011702172,
				"y": 1.5893792291,
				"z": 0.5302106451,
				"element": "H" 
			},
			{
				"x": 2.2718967863,
				"y": 1.2772921732,
				"z": -1.8486294747,
				"element": "H" 
			},
			{
				"x": 2.2403660479,
				"y": 2.9540403587,
				"z": -1.2392027633,
				"element": "H" 
			},
			{
				"x": 3.4610306951,
				"y": 0.5247640963,
				"z": 0.2174118898,
				"element": "H" 
			},
			{
				"x": 4.0161017847,
				"y": 2.2069941919,
				"z": 0.3612906352,
				"element": "H" 
			},
			{
				"x": 1.9343789662,
				"y": 2.8149672532,
				"z": 1.5861452157,
				"element": "H" 
			},
			{
				"x": 1.8277980739,
				"y": 1.0944236514,
				"z": 2.0199415144,
				"element": "H" 
			},
			{
				"x": 0.111995401,
				"y": -0.1410157684,
				"z": 1.9358543451,
				"element": "H" 
			},
			{
				"x": -1.5804920901,
				"y": -3.1058703713,
				"z": -0.6372004916,
				"element": "H" 
			},
			{
				"x": -0.9198211779,
				"y": -1.7467706576,
				"z": -2.6392472415,
				"element": "H" 
			},
			{
				"x": 0.2511106207,
				"y": 0.4041758514,
				"z": -2.3476669777,
				"element": "H" 
			}
		],
		 "valence_orbital": [ 
			{
				"type": "occ",
				"energy": -0.31738,
				"method": "rhf"
			},
			{
				"type": "occ",
				"energy": -0.30902,
				"method": "rhf"
			},
			{
				"type": "occ",
				"energy": -0.28732,
				"method": "rhf"
			},
			{
				"type": "occ",
				"energy": -0.2665,
				"method": "rhf"
			},
			{
				"type": "occ",
				"energy": -0.25165,
				"method": "rhf"
			},
			{
				"type": "unocc",
				"energy": -0.03273,
				"method": "rhf"
			},
			{
				"type": "unocc",
				"energy": -0.02157,
				"method": "rhf"
			},
			{
				"type": "unocc",
				"energy": 0.0094,
				"method": "rhf"
			},
			{
				"type": "unocc",
				"energy": 0.07296,
				"method": "rhf"
			},
			{
				"type": "unocc",
				"energy": 0.08733,
				"method": "rhf"
			}
		],
		"cosmo_sigma_profile": { 
			"-0.025": 0.0,
			"-0.024": 0.0,
			"-0.023": 0.0,
			"-0.022": 0.0,
			"-0.021": 0.0,
			"-0.02": 0.0,
			"-0.019": 0.0,
			"-0.018": 0.0,
			"-0.017": 0.0,
			"-0.016": 0.0,
			"-0.015": 0.0,
			"-0.014": 0.104219341131,
			"-0.013": 0.634525052431,
			"-0.012": 0.78486088866,
			"-0.011": 0.800532442224,
			"-0.01": 1.59897174135,
			"-0.009": 1.50319776248,
			"-0.008": 3.302390103,
			"-0.007": 7.30424439057,
			"-0.006": 10.6097136521,
			"-0.005": 11.8712721462,
			"-0.004": 15.2170219456,
			"-0.003": 17.1134323306,
			"-0.002": 20.3256875944,
			"-0.001": 21.111856735,
			"0.0": 21.9854671363,
			"0.001": 18.333465253,
			"0.002": 12.0538112705,
			"0.003": 12.8506686457,
			"0.004": 14.5750909319,
			"0.005": 5.26584850112,
			"0.006": 2.19019853237,
			"0.007": 2.52974204337,
			"0.008": 2.35657134008,
			"0.009": 3.3772974994,
			"0.01": 4.35834206099,
			"0.011": 4.67322549747,
			"0.012": 5.10983748807,
			"0.013": 1.91730383467,
			"0.014": 0.120790260363,
			"0.015": 0.0,
			"0.016": 0.0,
			"0.017": 0.0,
			"0.018": 0.0,
			"0.019": 0.0,
			"0.02": 0.0,
			"0.021": 0.0,
			"0.022": 0.0,
			"0.023": 0.0,
			"0.024": 0.0,
			"0.025": 0.0
		}
	}
}
