{
	 "smiles": "COC1=CN(N=C1C(O)=O)C1=CC(=CC=C1)C(F)(F)F", 
	 "Tm": 423.15, 
	 "num_atms": 29, 
	 "gaussian": { 
		 "optdone": 1, 
		 "sigma_profile": "yes", 
		 "theory": "DFT", 
		 "functional": "B3LYP", 
		 "basiset": "6-31G**", 
		 "properties": { 
			 "R2extent": 7962.9498, 
			 "electric_dipole_moment_norm": 7.84682945972, 
			 "electric_quadrupole_moment_norm": 14.9953301354, 
			 "total_energy": -1097.3726902, 
			 "HOMO_LUMO_gap": 0.17055, 
			 "cosmo_polarized_energy": -19.67, 
			 "cosmo_cavitation_energy": 36.25, 
			 "cosmo_dispersion_energy": -25.58, 
			 "cosmo_repulsion_energy": 1.89, 
			 "cosmo_total_nonelectrostatic_energy": 12.57, 
			 "SMD_solvation_energy": 9.18 
		},
		"coords": [
			{
				"x": -3.0706396141,
				"y": -1.9287027175,
				"z": 1.8904765804,
				"element": "C" 
			},
			{
				"x": -2.5501340932,
				"y": -0.6136962644,
				"z": 2.0453531807,
				"element": "O" 
			},
			{
				"x": -1.4955682039,
				"y": -0.3067112429,
				"z": 1.2728149023,
				"element": "C" 
			},
			{
				"x": -0.8208346914,
				"y": -1.0691315158,
				"z": 0.3366383436,
				"element": "C" 
			},
			{
				"x": 0.1846913295,
				"y": -0.2710784048,
				"z": -0.1670496755,
				"element": "N" 
			},
			{
				"x": 0.1801014548,
				"y": 0.9466339181,
				"z": 0.3976947702,
				"element": "N" 
			},
			{
				"x": -0.8273505484,
				"y": 0.9505823741,
				"z": 1.2731112264,
				"element": "C" 
			},
			{
				"x": -1.1047548269,
				"y": 2.1691247408,
				"z": 2.0755886628,
				"element": "C" 
			},
			{
				"x": -0.2641519329,
				"y": 3.1998739721,
				"z": 1.8237292061,
				"element": "O" 
			},
			{
				"x": -1.9964012017,
				"y": 2.2524443638,
				"z": 2.8858220687,
				"element": "O" 
			},
			{
				"x": 1.1489419369,
				"y": -0.5990834646,
				"z": -1.1552838276,
				"element": "C" 
			},
			{
				"x": 2.0920456117,
				"y": 0.3616635815,
				"z": -1.5361473119,
				"element": "C" 
			},
			{
				"x": 3.0429502473,
				"y": 0.0430848121,
				"z": -2.5018280618,
				"element": "C" 
			},
			{
				"x": 3.0700684123,
				"y": -1.2220226537,
				"z": -3.0959441526,
				"element": "C" 
			},
			{
				"x": 2.1265079104,
				"y": -2.1703303882,
				"z": -2.709526436,
				"element": "C" 
			},
			{
				"x": 1.1662301482,
				"y": -1.8684293038,
				"z": -1.7446948669,
				"element": "C" 
			},
			{
				"x": 4.0226742784,
				"y": 1.0959561328,
				"z": -2.9543434045,
				"element": "C" 
			},
			{
				"x": 5.2233465138,
				"y": 0.5569332997,
				"z": -3.2591068101,
				"element": "F" 
			},
			{
				"x": 4.2246909497,
				"y": 2.0388802443,
				"z": -2.0103619151,
				"element": "F" 
			},
			{
				"x": 3.5837053064,
				"y": 1.7313772967,
				"z": -4.0643114579,
				"element": "F" 
			},
			{
				"x": -3.9098733093,
				"y": -2.0082061434,
				"z": 2.5813686046,
				"element": "H" 
			},
			{
				"x": -2.3159451953,
				"y": -2.685227814,
				"z": 2.1428955359,
				"element": "H" 
			},
			{
				"x": -3.4241981691,
				"y": -2.0959935991,
				"z": 0.8645079667,
				"element": "H" 
			},
			{
				"x": -0.9767476395,
				"y": -2.0803774606,
				"z": 0.0048159477,
				"element": "H" 
			},
			{
				"x": 0.3724679225,
				"y": 2.9193046247,
				"z": 1.143717525,
				"element": "H" 
			},
			{
				"x": 2.078980088,
				"y": 1.3381569928,
				"z": -1.0725366311,
				"element": "H" 
			},
			{
				"x": 3.8224795731,
				"y": -1.4585979064,
				"z": -3.8396005996,
				"element": "H" 
			},
			{
				"x": 2.1356267454,
				"y": -3.1585160283,
				"z": -3.1581726759,
				"element": "H" 
			},
			{
				"x": 0.4451909973,
				"y": -2.6255114461,
				"z": -1.4604266945,
				"element": "H" 
			}
		],
		 "valence_orbital": [ 
			{
				"type": "occ",
				"energy": -0.30361,
				"method": "rhf"
			},
			{
				"type": "occ",
				"energy": -0.28819,
				"method": "rhf"
			},
			{
				"type": "occ",
				"energy": -0.2687,
				"method": "rhf"
			},
			{
				"type": "occ",
				"energy": -0.2662,
				"method": "rhf"
			},
			{
				"type": "occ",
				"energy": -0.23517,
				"method": "rhf"
			},
			{
				"type": "unocc",
				"energy": -0.06462,
				"method": "rhf"
			},
			{
				"type": "unocc",
				"energy": -0.04429,
				"method": "rhf"
			},
			{
				"type": "unocc",
				"energy": -0.01091,
				"method": "rhf"
			},
			{
				"type": "unocc",
				"energy": 0.02476,
				"method": "rhf"
			},
			{
				"type": "unocc",
				"energy": 0.05715,
				"method": "rhf"
			}
		],
		"cosmo_sigma_profile": { 
			"-0.025": 0.0,
			"-0.024": 0.0,
			"-0.023": 0.0,
			"-0.022": 0.0,
			"-0.021": 0.0,
			"-0.02": 0.0,
			"-0.019": 0.0,
			"-0.018": 0.0,
			"-0.017": 0.0,
			"-0.016": 0.0,
			"-0.015": 0.0766100979977,
			"-0.014": 0.586440167688,
			"-0.013": 1.11255091702,
			"-0.012": 1.80221632111,
			"-0.011": 2.19674859699,
			"-0.01": 2.42611482236,
			"-0.009": 2.57824443132,
			"-0.008": 4.29137343173,
			"-0.007": 10.4652784927,
			"-0.006": 16.7922592663,
			"-0.005": 16.0854705174,
			"-0.004": 17.847002023,
			"-0.003": 17.1246322289,
			"-0.002": 15.4694119766,
			"-0.001": 20.0342090355,
			"0.0": 26.3898539678,
			"0.001": 28.4351874787,
			"0.002": 32.9548988354,
			"0.003": 31.7900851568,
			"0.004": 4.2277243286,
			"0.005": 3.36504886029,
			"0.006": 3.25465170546,
			"0.007": 2.76586828109,
			"0.008": 3.35682957269,
			"0.009": 4.41945145455,
			"0.01": 5.22432165459,
			"0.011": 5.91969892182,
			"0.012": 5.89217532689,
			"0.013": 3.44861376598,
			"0.014": 1.12887918031,
			"0.015": 0.0510538984742,
			"0.016": 0.0,
			"0.017": 0.0,
			"0.018": 0.0,
			"0.019": 0.0,
			"0.02": 0.0,
			"0.021": 0.0,
			"0.022": 0.0,
			"0.023": 0.0,
			"0.024": 0.0,
			"0.025": 0.0
		}
	}
}
