{
	 "smiles": "CC(N(C)C(=O)OCC1C2=C(C=CC=C2)C2=C1C=CC=C2)C(O)=O", 
	 "Tm": 393.15, 
	 "num_atms": 43, 
	 "gaussian": { 
		 "optdone": 1, 
		 "sigma_profile": "yes", 
		 "theory": "DFT", 
		 "functional": "B3LYP", 
		 "basiset": "6-31G**", 
		 "properties": { 
			 "R2extent": 8227.1559, 
			 "electric_dipole_moment_norm": 6.08241376593, 
			 "electric_quadrupole_moment_norm": 25.1163882039, 
			 "total_energy": -1091.1659496, 
			 "HOMO_LUMO_gap": 0.18389, 
			 "cosmo_polarized_energy": -20.01, 
			 "cosmo_cavitation_energy": 45.16, 
			 "cosmo_dispersion_energy": -29.64, 
			 "cosmo_repulsion_energy": 2.22, 
			 "cosmo_total_nonelectrostatic_energy": 17.74, 
			 "SMD_solvation_energy": 8.93 
		},
		"coords": [
			{
				"x": -1.059330681,
				"y": -2.7827922697,
				"z": -4.5136884934,
				"element": "C" 
			},
			{
				"x": -0.4470226586,
				"y": -1.5276453788,
				"z": -3.887114884,
				"element": "C" 
			},
			{
				"x": 0.0332464369,
				"y": -1.7100053046,
				"z": -2.5038632678,
				"element": "N" 
			},
			{
				"x": 1.4432291942,
				"y": -2.0638564015,
				"z": -2.3161650868,
				"element": "C" 
			},
			{
				"x": -0.9191140339,
				"y": -2.0230929122,
				"z": -1.5566918382,
				"element": "C" 
			},
			{
				"x": -2.1174901542,
				"y": -1.8787205619,
				"z": -1.7344203897,
				"element": "O" 
			},
			{
				"x": -0.3568439359,
				"y": -2.4753086136,
				"z": -0.4068827736,
				"element": "O" 
			},
			{
				"x": -1.2176464137,
				"y": -2.5339033999,
				"z": 0.7463941327,
				"element": "C" 
			},
			{
				"x": -0.8236492207,
				"y": -1.4488617772,
				"z": 1.7599818837,
				"element": "C" 
			},
			{
				"x": 0.551210139,
				"y": -1.6307379618,
				"z": 2.3873861471,
				"element": "C" 
			},
			{
				"x": 1.3315891776,
				"y": -0.472066452,
				"z": 2.2008886183,
				"element": "C" 
			},
			{
				"x": 2.6304581636,
				"y": -0.404219685,
				"z": 2.709715522,
				"element": "C" 
			},
			{
				"x": 3.1414368137,
				"y": -1.5041047916,
				"z": 3.4028835317,
				"element": "C" 
			},
			{
				"x": 2.3662244697,
				"y": -2.6539188232,
				"z": 3.587777433,
				"element": "C" 
			},
			{
				"x": 1.0628202983,
				"y": -2.7213581044,
				"z": 3.0811721568,
				"element": "C" 
			},
			{
				"x": 0.5413513292,
				"y": 0.5072019229,
				"z": 1.4418438899,
				"element": "C" 
			},
			{
				"x": -0.7257002272,
				"y": -0.0486687585,
				"z": 1.1671481775,
				"element": "C" 
			},
			{
				"x": -1.6654286169,
				"y": 0.665052506,
				"z": 0.4302821755,
				"element": "C" 
			},
			{
				"x": -1.3340205679,
				"y": 1.9461994999,
				"z": -0.0311924562,
				"element": "C" 
			},
			{
				"x": -0.0813497035,
				"y": 2.5025628095,
				"z": 0.2517499255,
				"element": "C" 
			},
			{
				"x": 0.8653530025,
				"y": 1.788557642,
				"z": 0.9907620714,
				"element": "C" 
			},
			{
				"x": -1.3790819451,
				"y": -0.305109435,
				"z": -4.0350094542,
				"element": "C" 
			},
			{
				"x": -1.1779158804,
				"y": 0.7023164241,
				"z": -3.1625854949,
				"element": "O" 
			},
			{
				"x": -2.1617760922,
				"y": -0.2021903653,
				"z": -4.9466036839,
				"element": "O" 
			},
			{
				"x": -0.3322985185,
				"y": -3.6006127629,
				"z": -4.517156054,
				"element": "H" 
			},
			{
				"x": -1.9465831328,
				"y": -3.0899735088,
				"z": -3.9576969148,
				"element": "H" 
			},
			{
				"x": -1.3566084817,
				"y": -2.5667146856,
				"z": -5.5409790919,
				"element": "H" 
			},
			{
				"x": 0.446523553,
				"y": -1.2508808784,
				"z": -4.4614704039,
				"element": "H" 
			},
			{
				"x": 1.7099839494,
				"y": -1.9590842339,
				"z": -1.2666177886,
				"element": "H" 
			},
			{
				"x": 2.0600478624,
				"y": -1.3825638694,
				"z": -2.9081253677,
				"element": "H" 
			},
			{
				"x": 1.6560962905,
				"y": -3.0931220507,
				"z": -2.6325688165,
				"element": "H" 
			},
			{
				"x": -1.0880770998,
				"y": -3.5298767708,
				"z": 1.1787220006,
				"element": "H" 
			},
			{
				"x": -2.2522882853,
				"y": -2.4175393298,
				"z": 0.4196862259,
				"element": "H" 
			},
			{
				"x": -1.5944629626,
				"y": -1.474994012,
				"z": 2.5458442149,
				"element": "H" 
			},
			{
				"x": 3.2368155168,
				"y": 0.4868796342,
				"z": 2.572415771,
				"element": "H" 
			},
			{
				"x": 4.1500693957,
				"y": -1.4658785663,
				"z": 3.8043377026,
				"element": "H" 
			},
			{
				"x": 2.7777577918,
				"y": -3.4997896814,
				"z": 4.1307039229,
				"element": "H" 
			},
			{
				"x": 0.4659437197,
				"y": -3.6172413129,
				"z": 3.2345752717,
				"element": "H" 
			},
			{
				"x": -2.6325849866,
				"y": 0.2349742584,
				"z": 0.188277825,
				"element": "H" 
			},
			{
				"x": -2.0532815732,
				"y": 2.5056864902,
				"z": -0.6208216517,
				"element": "H" 
			},
			{
				"x": 0.157901424,
				"y": 3.4979616299,
				"z": -0.111305334,
				"element": "H" 
			},
			{
				"x": 1.8378966282,
				"y": 2.2242808424,
				"z": 1.2027727748,
				"element": "H" 
			},
			{
				"x": -0.5829999842,
				"y": 0.4012589999,
				"z": -2.4559621283,
				"element": "H" 
			}
		],
		 "valence_orbital": [ 
			{
				"type": "occ",
				"energy": -0.27621,
				"method": "rhf"
			},
			{
				"type": "occ",
				"energy": -0.25685,
				"method": "rhf"
			},
			{
				"type": "occ",
				"energy": -0.25139,
				"method": "rhf"
			},
			{
				"type": "occ",
				"energy": -0.24985,
				"method": "rhf"
			},
			{
				"type": "occ",
				"energy": -0.22186,
				"method": "rhf"
			},
			{
				"type": "unocc",
				"energy": -0.03797,
				"method": "rhf"
			},
			{
				"type": "unocc",
				"energy": -0.0199,
				"method": "rhf"
			},
			{
				"type": "unocc",
				"energy": 0.00134,
				"method": "rhf"
			},
			{
				"type": "unocc",
				"energy": 0.02016,
				"method": "rhf"
			},
			{
				"type": "unocc",
				"energy": 0.0299,
				"method": "rhf"
			}
		],
		"cosmo_sigma_profile": { 
			"-0.025": 0.0,
			"-0.024": 0.0,
			"-0.023": 0.0,
			"-0.022": 0.0,
			"-0.021": 0.0,
			"-0.02": 0.0,
			"-0.019": 0.0,
			"-0.018": 0.0,
			"-0.017": 0.0,
			"-0.016": 0.0,
			"-0.015": 0.0,
			"-0.014": 0.0,
			"-0.013": 0.0,
			"-0.012": 0.0,
			"-0.011": 0.543520135635,
			"-0.01": 1.3551508088,
			"-0.009": 4.12100048237,
			"-0.008": 3.58146229254,
			"-0.007": 7.07316203075,
			"-0.006": 22.4598161445,
			"-0.005": 33.4975737639,
			"-0.004": 33.9538096943,
			"-0.003": 32.3298638534,
			"-0.002": 26.0762601024,
			"-0.001": 23.895185071,
			"0.0": 19.9195665451,
			"0.001": 18.6101546775,
			"0.002": 19.0088014112,
			"0.003": 21.6548726146,
			"0.004": 20.7785125331,
			"0.005": 18.9807469674,
			"0.006": 13.1375031902,
			"0.007": 6.43504950531,
			"0.008": 4.50953507736,
			"0.009": 4.72383865735,
			"0.01": 6.12991844218,
			"0.011": 6.52909708643,
			"0.012": 6.77161717735,
			"0.013": 1.89829960756,
			"0.014": 0.105617774705,
			"0.015": 0.0,
			"0.016": 0.0,
			"0.017": 0.0,
			"0.018": 0.0,
			"0.019": 0.0,
			"0.02": 0.0,
			"0.021": 0.0,
			"0.022": 0.0,
			"0.023": 0.0,
			"0.024": 0.0,
			"0.025": 0.0
		}
	}
}
