{
	 "smiles": "[O-][N+](=O)C1=CC=C(C=C1)C1CC2=CC=CC=C2C(=O)O1", 
	 "Tm": 457.15, 
	 "num_atms": 31, 
	 "gaussian": { 
		 "optdone": 1, 
		 "sigma_profile": "yes", 
		 "theory": "DFT", 
		 "functional": "B3LYP", 
		 "basiset": "6-31G**", 
		 "properties": { 
			 "R2extent": 6325.5873, 
			 "electric_dipole_moment_norm": 5.78379471368, 
			 "electric_quadrupole_moment_norm": 22.8690279796, 
			 "total_energy": -933.787303781, 
			 "HOMO_LUMO_gap": 0.17594, 
			 "cosmo_polarized_energy": -17.29, 
			 "cosmo_cavitation_energy": 35.64, 
			 "cosmo_dispersion_energy": -25.35, 
			 "cosmo_repulsion_energy": 1.92, 
			 "cosmo_total_nonelectrostatic_energy": 12.21, 
			 "SMD_solvation_energy": 8.67 
		},
		"coords": [
			{
				"x": 2.401703072,
				"y": -1.3235054827,
				"z": 3.415887765,
				"element": "O" 
			},
			{
				"x": 1.294921728,
				"y": -0.7876893636,
				"z": 3.3595881373,
				"element": "N" 
			},
			{
				"x": 0.4711130118,
				"y": -0.7811639042,
				"z": 4.273162342,
				"element": "O" 
			},
			{
				"x": 0.9312555986,
				"y": -0.1061541176,
				"z": 2.1076095752,
				"element": "C" 
			},
			{
				"x": 1.8453005884,
				"y": -0.0922077083,
				"z": 1.0554978172,
				"element": "C" 
			},
			{
				"x": 1.4910241148,
				"y": 0.5502076453,
				"z": -0.1253358575,
				"element": "C" 
			},
			{
				"x": 0.2385778812,
				"y": 1.1698748326,
				"z": -0.265511112,
				"element": "C" 
			},
			{
				"x": -0.6492305436,
				"y": 1.155774003,
				"z": 0.8179711488,
				"element": "C" 
			},
			{
				"x": -0.310564692,
				"y": 0.5133403215,
				"z": 2.0074356996,
				"element": "C" 
			},
			{
				"x": -0.0997462508,
				"y": 1.8941106559,
				"z": -1.5663146394,
				"element": "C" 
			},
			{
				"x": 0.0451264828,
				"y": 1.0344767007,
				"z": -2.831037722,
				"element": "C" 
			},
			{
				"x": -1.074145855,
				"y": 0.0295990805,
				"z": -2.9177559415,
				"element": "C" 
			},
			{
				"x": -0.9274004529,
				"y": -1.227850217,
				"z": -3.5074017786,
				"element": "C" 
			},
			{
				"x": -2.0147229892,
				"y": -2.0992285628,
				"z": -3.5873138309,
				"element": "C" 
			},
			{
				"x": -3.2629350401,
				"y": -1.7223293962,
				"z": -3.0813167418,
				"element": "C" 
			},
			{
				"x": -3.4201880541,
				"y": -0.4713696089,
				"z": -2.4927739263,
				"element": "C" 
			},
			{
				"x": -2.3278203671,
				"y": 0.4012243125,
				"z": -2.4062866668,
				"element": "C" 
			},
			{
				"x": -2.5288311936,
				"y": 1.7367170022,
				"z": -1.782660748,
				"element": "C" 
			},
			{
				"x": -3.6120985865,
				"y": 2.2030501892,
				"z": -1.5124223692,
				"element": "O" 
			},
			{
				"x": -1.4120881463,
				"y": 2.4845931162,
				"z": -1.5100956349,
				"element": "O" 
			},
			{
				"x": 2.8061125357,
				"y": -0.5762947384,
				"z": 1.1768884114,
				"element": "H" 
			},
			{
				"x": 2.2064027629,
				"y": 0.5724870722,
				"z": -0.9422770405,
				"element": "H" 
			},
			{
				"x": -1.6057392644,
				"y": 1.6582736535,
				"z": 0.739137635,
				"element": "H" 
			},
			{
				"x": -0.9883816626,
				"y": 0.4893792162,
				"z": 2.8515173666,
				"element": "H" 
			},
			{
				"x": 0.56741344,
				"y": 2.7592096391,
				"z": -1.6500978038,
				"element": "H" 
			},
			{
				"x": 1.0207917653,
				"y": 0.5412392153,
				"z": -2.8497174929,
				"element": "H" 
			},
			{
				"x": 0.0133203252,
				"y": 1.7046386021,
				"z": -3.7003051794,
				"element": "H" 
			},
			{
				"x": 0.0395609335,
				"y": -1.5266919778,
				"z": -3.9034503564,
				"element": "H" 
			},
			{
				"x": -1.88748443,
				"y": -3.0766249926,
				"z": -4.043749123,
				"element": "H" 
			},
			{
				"x": -4.1060215619,
				"y": -2.4030209869,
				"z": -3.147397089,
				"element": "H" 
			},
			{
				"x": -4.37542515,
				"y": -0.146364201,
				"z": -2.0946748441,
				"element": "H" 
			}
		],
		 "valence_orbital": [ 
			{
				"type": "occ",
				"energy": -0.28599,
				"method": "rhf"
			},
			{
				"type": "occ",
				"energy": -0.28305,
				"method": "rhf"
			},
			{
				"type": "occ",
				"energy": -0.27572,
				"method": "rhf"
			},
			{
				"type": "occ",
				"energy": -0.27145,
				"method": "rhf"
			},
			{
				"type": "occ",
				"energy": -0.26771,
				"method": "rhf"
			},
			{
				"type": "unocc",
				"energy": -0.09177,
				"method": "rhf"
			},
			{
				"type": "unocc",
				"energy": -0.06138,
				"method": "rhf"
			},
			{
				"type": "unocc",
				"energy": -0.03209,
				"method": "rhf"
			},
			{
				"type": "unocc",
				"energy": -0.02489,
				"method": "rhf"
			},
			{
				"type": "unocc",
				"energy": -0.00451,
				"method": "rhf"
			}
		],
		"cosmo_sigma_profile": { 
			"-0.025": 0.0,
			"-0.024": 0.0,
			"-0.023": 0.0,
			"-0.022": 0.0,
			"-0.021": 0.0,
			"-0.02": 0.0,
			"-0.019": 0.0,
			"-0.018": 0.0,
			"-0.017": 0.0,
			"-0.016": 0.0,
			"-0.015": 0.0,
			"-0.014": 0.0,
			"-0.013": 0.0,
			"-0.012": 0.0,
			"-0.011": 0.0,
			"-0.01": 0.135004059665,
			"-0.009": 1.84840756835,
			"-0.008": 7.11222189242,
			"-0.007": 14.6046543344,
			"-0.006": 23.294903729,
			"-0.005": 22.3675587969,
			"-0.004": 18.9292417529,
			"-0.003": 17.5887159626,
			"-0.002": 16.7717477075,
			"-0.001": 19.0858711846,
			"0.0": 19.9092431877,
			"0.001": 24.4668382155,
			"0.002": 20.2966072392,
			"0.003": 15.1994088043,
			"0.004": 10.0924146019,
			"0.005": 4.94879064774,
			"0.006": 5.55217191947,
			"0.007": 9.49184433199,
			"0.008": 10.6421081758,
			"0.009": 6.83232423571,
			"0.01": 6.02111935023,
			"0.011": 5.15247849546,
			"0.012": 4.05219431077,
			"0.013": 1.51369583225,
			"0.014": 0.0643060507228,
			"0.015": 0.0,
			"0.016": 0.0,
			"0.017": 0.0,
			"0.018": 0.0,
			"0.019": 0.0,
			"0.02": 0.0,
			"0.021": 0.0,
			"0.022": 0.0,
			"0.023": 0.0,
			"0.024": 0.0,
			"0.025": 0.0
		}
	}
}
