{
	 "smiles": "CN1CNC(S)=NC1", 
	 "Tm": 448.15, 
	 "num_atms": 17, 
	 "gaussian": { 
		 "optdone": 1, 
		 "sigma_profile": "yes", 
		 "theory": "DFT", 
		 "functional": "B3LYP", 
		 "basiset": "6-31G**", 
		 "properties": { 
			 "R2extent": 2001.1263, 
			 "electric_dipole_moment_norm": 2.66209529694, 
			 "electric_quadrupole_moment_norm": 6.15256061734, 
			 "total_energy": -720.262758759, 
			 "HOMO_LUMO_gap": 0.23507, 
			 "cosmo_polarized_energy": -9.79, 
			 "cosmo_cavitation_energy": 21.09, 
			 "cosmo_dispersion_energy": -16.66, 
			 "cosmo_repulsion_energy": 1.34, 
			 "cosmo_total_nonelectrostatic_energy": 5.77, 
			 "SMD_solvation_energy": -3.77 
		},
		"coords": [
			{
				"x": 0.0505226037,
				"y": -1.6399340729,
				"z": -0.2879428126,
				"element": "C" 
			},
			{
				"x": -0.2732142163,
				"y": -0.2275985955,
				"z": -0.163140269,
				"element": "N" 
			},
			{
				"x": 0.6598829887,
				"y": 0.6205500247,
				"z": -0.8930499693,
				"element": "C" 
			},
			{
				"x": 0.3474038733,
				"y": 2.0264931114,
				"z": -0.6662796528,
				"element": "N" 
			},
			{
				"x": -1.010288565,
				"y": 2.307165051,
				"z": -0.5676948404,
				"element": "C" 
			},
			{
				"x": -1.3200926968,
				"y": 4.0737485313,
				"z": -0.4240122868,
				"element": "S" 
			},
			{
				"x": -1.9691746297,
				"y": 1.4737240681,
				"z": -0.6455479095,
				"element": "N" 
			},
			{
				"x": -1.637720747,
				"y": 0.0600598965,
				"z": -0.6168650531,
				"element": "C" 
			},
			{
				"x": 1.0532747706,
				"y": -1.8282458425,
				"z": 0.1101039675,
				"element": "H" 
			},
			{
				"x": 0.0198228037,
				"y": -2.0093874343,
				"z": -1.3310165915,
				"element": "H" 
			},
			{
				"x": -0.6604074382,
				"y": -2.2310613813,
				"z": 0.2977388341,
				"element": "H" 
			},
			{
				"x": 1.6808581034,
				"y": 0.4247330415,
				"z": -0.5533361704,
				"element": "H" 
			},
			{
				"x": 0.6264784644,
				"y": 0.4284385316,
				"z": -1.9830067267,
				"element": "H" 
			},
			{
				"x": 0.9225059757,
				"y": 2.5005085182,
				"z": 0.0192245943,
				"element": "H" 
			},
			{
				"x": -2.5847625139,
				"y": 3.9211017806,
				"z": 0.0087386046,
				"element": "H" 
			},
			{
				"x": -1.8290952986,
				"y": -0.3562896578,
				"z": -1.6276248539,
				"element": "H" 
			},
			{
				"x": -2.333293478,
				"y": -0.4404055705,
				"z": 0.0681111356,
				"element": "H" 
			}
		],
		 "valence_orbital": [ 
			{
				"type": "occ",
				"energy": -0.34944,
				"method": "rhf"
			},
			{
				"type": "occ",
				"energy": -0.25852,
				"method": "rhf"
			},
			{
				"type": "occ",
				"energy": -0.25312,
				"method": "rhf"
			},
			{
				"type": "occ",
				"energy": -0.23685,
				"method": "rhf"
			},
			{
				"type": "occ",
				"energy": -0.22405,
				"method": "rhf"
			},
			{
				"type": "unocc",
				"energy": 0.01102,
				"method": "rhf"
			},
			{
				"type": "unocc",
				"energy": 0.03211,
				"method": "rhf"
			},
			{
				"type": "unocc",
				"energy": 0.0736,
				"method": "rhf"
			},
			{
				"type": "unocc",
				"energy": 0.08439,
				"method": "rhf"
			},
			{
				"type": "unocc",
				"energy": 0.09573,
				"method": "rhf"
			}
		],
		"cosmo_sigma_profile": { 
			"-0.025": 0.0,
			"-0.024": 0.0,
			"-0.023": 0.0,
			"-0.022": 0.0,
			"-0.021": 0.0,
			"-0.02": 0.0,
			"-0.019": 0.0,
			"-0.018": 0.0,
			"-0.017": 0.0,
			"-0.016": 0.0,
			"-0.015": 0.0,
			"-0.014": 0.604218883381,
			"-0.013": 1.28110805678,
			"-0.012": 1.44967781656,
			"-0.011": 0.882313877373,
			"-0.01": 2.56381976804,
			"-0.009": 3.07470066956,
			"-0.008": 2.5644621144,
			"-0.007": 3.24684663743,
			"-0.006": 4.70941119445,
			"-0.005": 7.28506019325,
			"-0.004": 12.6024609695,
			"-0.003": 20.0474103925,
			"-0.002": 18.4022674291,
			"-0.001": 15.6428934544,
			"0.0": 7.97773369504,
			"0.001": 6.32272165444,
			"0.002": 7.33766097604,
			"0.003": 7.4502085866,
			"0.004": 7.32960649399,
			"0.005": 7.43408886131,
			"0.006": 7.19556309647,
			"0.007": 5.04071551959,
			"0.008": 4.65933800339,
			"0.009": 3.01857932451,
			"0.01": 1.72756740501,
			"0.011": 1.46688128534,
			"0.012": 1.41872500216,
			"0.013": 1.29578460938,
			"0.014": 1.49729750151,
			"0.015": 1.08688852798,
			"0.016": 0.850424068599,
			"0.017": 0.120084388929,
			"0.018": 0.0,
			"0.019": 0.0,
			"0.02": 0.0,
			"0.021": 0.0,
			"0.022": 0.0,
			"0.023": 0.0,
			"0.024": 0.0,
			"0.025": 0.0
		}
	}
}
