{
	 "smiles": "O=C(C1CCOCC1)C1=CC=CC=C1", 
	 "Tm": 331.15, 
	 "num_atms": 28, 
	 "gaussian": { 
		 "optdone": 1, 
		 "sigma_profile": "yes", 
		 "theory": "DFT", 
		 "functional": "B3LYP", 
		 "basiset": "6-31G**", 
		 "properties": { 
			 "R2extent": 3463.4518, 
			 "electric_dipole_moment_norm": 3.46611337812, 
			 "electric_quadrupole_moment_norm": 6.48257148206, 
			 "total_energy": -616.155739898, 
			 "HOMO_LUMO_gap": 0.17844, 
			 "cosmo_polarized_energy": -9.56, 
			 "cosmo_cavitation_energy": 29.43, 
			 "cosmo_dispersion_energy": -21.78, 
			 "cosmo_repulsion_energy": 1.7, 
			 "cosmo_total_nonelectrostatic_energy": 9.35, 
			 "SMD_solvation_energy": 4.94 
		},
		"coords": [
			{
				"x": 2.2198417838,
				"y": -0.2714102251,
				"z": 1.1459183785,
				"element": "O" 
			},
			{
				"x": 1.2256545982,
				"y": -0.0737439762,
				"z": 0.4591366819,
				"element": "C" 
			},
			{
				"x": 1.1366785309,
				"y": 1.1384925526,
				"z": -0.4724513177,
				"element": "C" 
			},
			{
				"x": 2.5161259482,
				"y": 1.7698656584,
				"z": -0.7570560998,
				"element": "C" 
			},
			{
				"x": 3.0181437973,
				"y": 2.6423140023,
				"z": 0.3991649408,
				"element": "C" 
			},
			{
				"x": 2.0554272922,
				"y": 3.6244507769,
				"z": 0.7762599585,
				"element": "O" 
			},
			{
				"x": 0.8506301623,
				"y": 3.0216699746,
				"z": 1.2214352974,
				"element": "C" 
			},
			{
				"x": 0.1793949939,
				"y": 2.2218002007,
				"z": 0.1016582106,
				"element": "C" 
			},
			{
				"x": 0.067314315,
				"y": -1.0317214586,
				"z": 0.5353211095,
				"element": "C" 
			},
			{
				"x": 0.1377257848,
				"y": -2.0594086768,
				"z": 1.4908241029,
				"element": "C" 
			},
			{
				"x": -0.8915567526,
				"y": -2.9874556361,
				"z": 1.6124724185,
				"element": "C" 
			},
			{
				"x": -2.0096692316,
				"y": -2.9048530899,
				"z": 0.7769964819,
				"element": "C" 
			},
			{
				"x": -2.0908520034,
				"y": -1.8906044548,
				"z": -0.1785528657,
				"element": "C" 
			},
			{
				"x": -1.0597069807,
				"y": -0.9586355276,
				"z": -0.2992175443,
				"element": "C" 
			},
			{
				"x": 0.7157869467,
				"y": 0.7847763098,
				"z": -1.4217269689,
				"element": "H" 
			},
			{
				"x": 2.4243147858,
				"y": 2.396129159,
				"z": -1.6526177319,
				"element": "H" 
			},
			{
				"x": 3.2542345289,
				"y": 0.9898382198,
				"z": -0.9708456576,
				"element": "H" 
			},
			{
				"x": 3.9124536,
				"y": 3.1968372415,
				"z": 0.0987793716,
				"element": "H" 
			},
			{
				"x": 3.2724234404,
				"y": 2.0107575242,
				"z": 1.2606311233,
				"element": "H" 
			},
			{
				"x": 1.0470992624,
				"y": 2.372980456,
				"z": 2.0919870716,
				"element": "H" 
			},
			{
				"x": 0.199213729,
				"y": 3.8369778571,
				"z": 1.5515410969,
				"element": "H" 
			},
			{
				"x": -0.7520320696,
				"y": 1.7752967611,
				"z": 0.4668071622,
				"element": "H" 
			},
			{
				"x": -0.0829278678,
				"y": 2.9134734633,
				"z": -0.707541692,
				"element": "H" 
			},
			{
				"x": 1.0168047111,
				"y": -2.1063024642,
				"z": 2.1245583889,
				"element": "H" 
			},
			{
				"x": -0.8252704399,
				"y": -3.7762902826,
				"z": 2.3561713565,
				"element": "H" 
			},
			{
				"x": -2.8137806072,
				"y": -3.6293557933,
				"z": 0.8698301033,
				"element": "H" 
			},
			{
				"x": -2.9561876611,
				"y": -1.8251571685,
				"z": -0.831552158,
				"element": "H" 
			},
			{
				"x": -1.1408845969,
				"y": -0.1801214039,
				"z": -1.050231219,
				"element": "H" 
			}
		],
		 "valence_orbital": [ 
			{
				"type": "occ",
				"energy": -0.29683,
				"method": "rhf"
			},
			{
				"type": "occ",
				"energy": -0.26428,
				"method": "rhf"
			},
			{
				"type": "occ",
				"energy": -0.26093,
				"method": "rhf"
			},
			{
				"type": "occ",
				"energy": -0.25088,
				"method": "rhf"
			},
			{
				"type": "occ",
				"energy": -0.23767,
				"method": "rhf"
			},
			{
				"type": "unocc",
				"energy": -0.05923,
				"method": "rhf"
			},
			{
				"type": "unocc",
				"energy": -0.01282,
				"method": "rhf"
			},
			{
				"type": "unocc",
				"energy": 0.03398,
				"method": "rhf"
			},
			{
				"type": "unocc",
				"energy": 0.0795,
				"method": "rhf"
			},
			{
				"type": "unocc",
				"energy": 0.096,
				"method": "rhf"
			}
		],
		"cosmo_sigma_profile": { 
			"-0.025": 0.0,
			"-0.024": 0.0,
			"-0.023": 0.0,
			"-0.022": 0.0,
			"-0.021": 0.0,
			"-0.02": 0.0,
			"-0.019": 0.0,
			"-0.018": 0.0,
			"-0.017": 0.0,
			"-0.016": 0.0,
			"-0.015": 0.0,
			"-0.014": 0.0,
			"-0.013": 0.0,
			"-0.012": 0.0,
			"-0.011": 0.0,
			"-0.01": 0.0,
			"-0.009": 0.0,
			"-0.008": 0.192088756771,
			"-0.007": 2.92604816207,
			"-0.006": 9.66038949024,
			"-0.005": 14.8608463034,
			"-0.004": 23.7278980777,
			"-0.003": 30.9970285598,
			"-0.002": 27.2381871169,
			"-0.001": 20.7694412689,
			"0.0": 16.3573854539,
			"0.001": 12.3364827723,
			"0.002": 13.4968819474,
			"0.003": 13.1824815219,
			"0.004": 13.7885726848,
			"0.005": 6.71283856661,
			"0.006": 3.34829342483,
			"0.007": 2.86613209431,
			"0.008": 2.82718278649,
			"0.009": 2.57205852264,
			"0.01": 3.35046787597,
			"0.011": 3.38950875737,
			"0.012": 4.04605355522,
			"0.013": 1.98882794339,
			"0.014": 1.33046887508,
			"0.015": 0.0,
			"0.016": 0.0,
			"0.017": 0.0,
			"0.018": 0.0,
			"0.019": 0.0,
			"0.02": 0.0,
			"0.021": 0.0,
			"0.022": 0.0,
			"0.023": 0.0,
			"0.024": 0.0,
			"0.025": 0.0
		}
	}
}
