{
	 "smiles": "NNC(=O)C1=CC(=CN1)[N+]([O-])=O", 
	 "Tm": 554.15, 
	 "num_atms": 18, 
	 "gaussian": { 
		 "optdone": 1, 
		 "sigma_profile": "yes", 
		 "theory": "DFT", 
		 "functional": "B3LYP", 
		 "basiset": "6-31G**", 
		 "properties": { 
			 "R2extent": 3267.6822, 
			 "electric_dipole_moment_norm": 7.2203266422, 
			 "electric_quadrupole_moment_norm": 14.6435037925, 
			 "total_energy": -638.683663556, 
			 "HOMO_LUMO_gap": 0.17922, 
			 "cosmo_polarized_energy": -26.83, 
			 "cosmo_cavitation_energy": 24.0, 
			 "cosmo_dispersion_energy": -17.59, 
			 "cosmo_repulsion_energy": 1.42, 
			 "cosmo_total_nonelectrostatic_energy": 7.83, 
			 "SMD_solvation_energy": 7.87 
		},
		"coords": [
			{
				"x": -2.2443005381,
				"y": -1.8466395808,
				"z": 1.7329186642,
				"element": "N" 
			},
			{
				"x": -2.8353180811,
				"y": -0.596104158,
				"z": 1.9494775541,
				"element": "N" 
			},
			{
				"x": -2.4701902169,
				"y": 0.6289072897,
				"z": 1.4135228227,
				"element": "C" 
			},
			{
				"x": -2.823979038,
				"y": 1.6597231626,
				"z": 1.9730590603,
				"element": "O" 
			},
			{
				"x": -1.6829084111,
				"y": 0.7009931895,
				"z": 0.1616674183,
				"element": "C" 
			},
			{
				"x": -1.166413826,
				"y": 1.8661185688,
				"z": -0.3737243489,
				"element": "C" 
			},
			{
				"x": -0.5289596629,
				"y": 1.5046360678,
				"z": -1.580958747,
				"element": "C" 
			},
			{
				"x": -0.6651128114,
				"y": 0.1394592154,
				"z": -1.7773896827,
				"element": "C" 
			},
			{
				"x": -1.3600743896,
				"y": -0.3347148257,
				"z": -0.7134349798,
				"element": "N" 
			},
			{
				"x": 0.1585397287,
				"y": 2.382254763,
				"z": -2.4851300288,
				"element": "N" 
			},
			{
				"x": 0.6535323757,
				"y": 1.8768750952,
				"z": -3.4976287249,
				"element": "O" 
			},
			{
				"x": 0.2074963988,
				"y": 3.5765029871,
				"z": -2.1897027436,
				"element": "O" 
			},
			{
				"x": -1.232307314,
				"y": -1.8093197578,
				"z": 1.6707048831,
				"element": "H" 
			},
			{
				"x": -2.6650027406,
				"y": -2.3449861381,
				"z": 0.9556219482,
				"element": "H" 
			},
			{
				"x": -3.2686314462,
				"y": -0.4960035143,
				"z": 2.860245698,
				"element": "H" 
			},
			{
				"x": -1.2483638275,
				"y": 2.8508000575,
				"z": 0.0571988967,
				"element": "H" 
			},
			{
				"x": -0.3145580083,
				"y": -0.4848561153,
				"z": -2.5835183682,
				"element": "H" 
			},
			{
				"x": -1.6289481915,
				"y": -1.2960463067,
				"z": -0.5861293217,
				"element": "H" 
			}
		],
		 "valence_orbital": [ 
			{
				"type": "occ",
				"energy": -0.29298,
				"method": "rhf"
			},
			{
				"type": "occ",
				"energy": -0.28649,
				"method": "rhf"
			},
			{
				"type": "occ",
				"energy": -0.27403,
				"method": "rhf"
			},
			{
				"type": "occ",
				"energy": -0.27032,
				"method": "rhf"
			},
			{
				"type": "occ",
				"energy": -0.25641,
				"method": "rhf"
			},
			{
				"type": "unocc",
				"energy": -0.07719,
				"method": "rhf"
			},
			{
				"type": "unocc",
				"energy": -0.04689,
				"method": "rhf"
			},
			{
				"type": "unocc",
				"energy": 0.01471,
				"method": "rhf"
			},
			{
				"type": "unocc",
				"energy": 0.05087,
				"method": "rhf"
			},
			{
				"type": "unocc",
				"energy": 0.08164,
				"method": "rhf"
			}
		],
		"cosmo_sigma_profile": { 
			"-0.025": 0.0,
			"-0.024": 0.0,
			"-0.023": 0.0,
			"-0.022": 0.0,
			"-0.021": 0.0,
			"-0.02": 0.0,
			"-0.019": 0.786043612873,
			"-0.018": 1.8340973123,
			"-0.017": 1.54410340273,
			"-0.016": 1.89411685628,
			"-0.015": 1.93397985325,
			"-0.014": 1.88315893056,
			"-0.013": 4.35081800232,
			"-0.012": 4.28530159403,
			"-0.011": 5.12817118066,
			"-0.01": 5.76100107898,
			"-0.009": 2.80081052041,
			"-0.008": 4.39677640416,
			"-0.007": 4.74973820652,
			"-0.006": 3.81300211405,
			"-0.005": 5.94339244081,
			"-0.004": 6.44532819444,
			"-0.003": 7.50539598337,
			"-0.002": 8.76098141921,
			"-0.001": 12.3669859252,
			"0.0": 13.2266635611,
			"0.001": 11.3901227174,
			"0.002": 7.83008340968,
			"0.003": 6.61532590748,
			"0.004": 6.56983327855,
			"0.005": 6.11236397567,
			"0.006": 4.67939916452,
			"0.007": 6.27245606927,
			"0.008": 13.4564601568,
			"0.009": 7.55622225811,
			"0.01": 6.04900052529,
			"0.011": 3.58962334257,
			"0.012": 3.18386132919,
			"0.013": 6.65725644196,
			"0.014": 1.71974552098,
			"0.015": 0.188832988268,
			"0.016": 0.0,
			"0.017": 0.0,
			"0.018": 0.0,
			"0.019": 0.0,
			"0.02": 0.0,
			"0.021": 0.0,
			"0.022": 0.0,
			"0.023": 0.0,
			"0.024": 0.0,
			"0.025": 0.0
		}
	}
}
