{
	 "smiles": "CC1=CC(C=CC(O)=O)=C(C)N1C1=NC=CS1", 
	 "Tm": 434.15, 
	 "num_atms": 29, 
	 "gaussian": { 
		 "optdone": 1, 
		 "sigma_profile": "yes", 
		 "theory": "DFT", 
		 "functional": "B3LYP", 
		 "basiset": "6-31G**", 
		 "properties": { 
			 "R2extent": 6609.7427, 
			 "electric_dipole_moment_norm": 5.29841052109, 
			 "electric_quadrupole_moment_norm": 12.5623741295, 
			 "total_energy": -1122.63556299, 
			 "HOMO_LUMO_gap": 0.14933, 
			 "cosmo_polarized_energy": -14.3, 
			 "cosmo_cavitation_energy": 35.28, 
			 "cosmo_dispersion_energy": -25.32, 
			 "cosmo_repulsion_energy": 1.91, 
			 "cosmo_total_nonelectrostatic_energy": 11.87, 
			 "SMD_solvation_energy": 6.06 
		},
		"coords": [
			{
				"x": 0.5065026901,
				"y": 0.8267374986,
				"z": 3.2600015912,
				"element": "C" 
			},
			{
				"x": 0.7816226702,
				"y": -0.0491063168,
				"z": 2.0798706294,
				"element": "C" 
			},
			{
				"x": 1.7473178516,
				"y": -0.9970349242,
				"z": 1.9023752655,
				"element": "C" 
			},
			{
				"x": 1.65838651,
				"y": -1.5155229162,
				"z": 0.5634375815,
				"element": "C" 
			},
			{
				"x": 2.5376278984,
				"y": -2.5398219121,
				"z": 0.0450616903,
				"element": "C" 
			},
			{
				"x": 2.7604048386,
				"y": -2.9091895886,
				"z": -1.2357336451,
				"element": "C" 
			},
			{
				"x": 3.7070430184,
				"y": -3.9958804134,
				"z": -1.5244441992,
				"element": "C" 
			},
			{
				"x": 3.8216584195,
				"y": -4.2172412936,
				"z": -2.8640560016,
				"element": "O" 
			},
			{
				"x": 4.3377683667,
				"y": -4.6484900625,
				"z": -0.7109434312,
				"element": "O" 
			},
			{
				"x": 0.5996315381,
				"y": -0.8622175275,
				"z": -0.0592399302,
				"element": "C" 
			},
			{
				"x": -0.0007131923,
				"y": -1.0618493087,
				"z": -1.4117135298,
				"element": "C" 
			},
			{
				"x": 0.0670535521,
				"y": 0.0315933269,
				"z": 0.8691687379,
				"element": "N" 
			},
			{
				"x": -0.9896116717,
				"y": 0.9090791054,
				"z": 0.5975135013,
				"element": "C" 
			},
			{
				"x": -1.0294779028,
				"y": 1.6939494546,
				"z": -0.4406775896,
				"element": "N" 
			},
			{
				"x": -2.2128117838,
				"y": 2.3913452201,
				"z": -0.4812083731,
				"element": "C" 
			},
			{
				"x": -3.0926511312,
				"y": 2.1473801794,
				"z": 0.5336059921,
				"element": "C" 
			},
			{
				"x": -2.4378240134,
				"y": 0.9535684147,
				"z": 1.6053135279,
				"element": "S" 
			},
			{
				"x": -0.4415455824,
				"y": 0.5951338334,
				"z": 3.7590091145,
				"element": "H" 
			},
			{
				"x": 1.3050622728,
				"y": 0.6864179921,
				"z": 3.9922539839,
				"element": "H" 
			},
			{
				"x": 0.4826059119,
				"y": 1.8887016055,
				"z": 2.9897231541,
				"element": "H" 
			},
			{
				"x": 2.4814148561,
				"y": -1.2869188308,
				"z": 2.6420988536,
				"element": "H" 
			},
			{
				"x": 3.1174765428,
				"y": -3.0791786426,
				"z": 0.7937475359,
				"element": "H" 
			},
			{
				"x": 2.2972808019,
				"y": -2.4254716375,
				"z": -2.0867594442,
				"element": "H" 
			},
			{
				"x": 4.4628492468,
				"y": -4.941349615,
				"z": -2.9523228062,
				"element": "H" 
			},
			{
				"x": -1.0758866248,
				"y": -0.8666045755,
				"z": -1.4070122168,
				"element": "H" 
			},
			{
				"x": 0.158497018,
				"y": -2.0934396113,
				"z": -1.7347405117,
				"element": "H" 
			},
			{
				"x": 0.4408757913,
				"y": -0.3969065047,
				"z": -2.1633603198,
				"element": "H" 
			},
			{
				"x": -2.3790232601,
				"y": 3.0964103617,
				"z": -1.2869125407,
				"element": "H" 
			},
			{
				"x": -4.0539346328,
				"y": 2.6043066884,
				"z": 0.7207433801,
				"element": "H" 
			}
		],
		 "valence_orbital": [ 
			{
				"type": "occ",
				"energy": -0.29517,
				"method": "rhf"
			},
			{
				"type": "occ",
				"energy": -0.26659,
				"method": "rhf"
			},
			{
				"type": "occ",
				"energy": -0.25928,
				"method": "rhf"
			},
			{
				"type": "occ",
				"energy": -0.23225,
				"method": "rhf"
			},
			{
				"type": "occ",
				"energy": -0.20504,
				"method": "rhf"
			},
			{
				"type": "unocc",
				"energy": -0.05571,
				"method": "rhf"
			},
			{
				"type": "unocc",
				"energy": -0.03452,
				"method": "rhf"
			},
			{
				"type": "unocc",
				"energy": -0.00143,
				"method": "rhf"
			},
			{
				"type": "unocc",
				"energy": 0.02386,
				"method": "rhf"
			},
			{
				"type": "unocc",
				"energy": 0.03874,
				"method": "rhf"
			}
		],
		"cosmo_sigma_profile": { 
			"-0.025": 0.0,
			"-0.024": 0.0,
			"-0.023": 0.0,
			"-0.022": 0.0,
			"-0.021": 0.0,
			"-0.02": 0.0,
			"-0.019": 0.0,
			"-0.018": 0.216489000171,
			"-0.017": 0.89053043794,
			"-0.016": 1.18092066583,
			"-0.015": 0.393102608751,
			"-0.014": 0.480904023538,
			"-0.013": 0.494906975297,
			"-0.012": 0.457900629873,
			"-0.011": 0.814240113947,
			"-0.01": 2.3146572087,
			"-0.009": 2.72154449546,
			"-0.008": 3.66496838304,
			"-0.007": 4.90095950471,
			"-0.006": 8.45390373003,
			"-0.005": 20.1333016711,
			"-0.004": 22.6865365049,
			"-0.003": 20.709322974,
			"-0.002": 22.1895879826,
			"-0.001": 27.3114172487,
			"0.0": 24.8482291997,
			"0.001": 20.6635110612,
			"0.002": 21.1650910686,
			"0.003": 18.7556673308,
			"0.004": 13.2614230557,
			"0.005": 8.82937554921,
			"0.006": 6.7457844324,
			"0.007": 4.07971981499,
			"0.008": 3.89678159847,
			"0.009": 4.11281182286,
			"0.01": 4.49159482504,
			"0.011": 2.72991683016,
			"0.012": 5.01715933415,
			"0.013": 4.79575425737,
			"0.014": 0.297294508866,
			"0.015": 0.0,
			"0.016": 0.0,
			"0.017": 0.0,
			"0.018": 0.0,
			"0.019": 0.0,
			"0.02": 0.0,
			"0.021": 0.0,
			"0.022": 0.0,
			"0.023": 0.0,
			"0.024": 0.0,
			"0.025": 0.0
		}
	}
}
