{
	 "smiles": "NC(=O)C=CC(O)=O", 
	 "Tm": 445.15, 
	 "num_atms": 13, 
	 "gaussian": { 
		 "optdone": 1, 
		 "sigma_profile": "yes", 
		 "theory": "DFT", 
		 "functional": "B3LYP", 
		 "basiset": "6-31G**", 
		 "properties": { 
			 "R2extent": 1299.6131, 
			 "electric_dipole_moment_norm": 2.86494023323, 
			 "electric_quadrupole_moment_norm": 19.4715812517, 
			 "total_energy": -435.862034815, 
			 "HOMO_LUMO_gap": 0.18549, 
			 "cosmo_polarized_energy": -21.34, 
			 "cosmo_cavitation_energy": 18.79, 
			 "cosmo_dispersion_energy": -13.69, 
			 "cosmo_repulsion_energy": 1.18, 
			 "cosmo_total_nonelectrostatic_energy": 6.28, 
			 "SMD_solvation_energy": 5.79 
		},
		"coords": [
			{
				"x": 2.9360835856,
				"y": 0.5760658405,
				"z": 0.5304909366,
				"element": "N" 
			},
			{
				"x": 1.764843152,
				"y": 0.9893845693,
				"z": -0.0364356929,
				"element": "C" 
			},
			{
				"x": 1.6107707007,
				"y": 2.1122833605,
				"z": -0.5016085392,
				"element": "O" 
			},
			{
				"x": 0.6813897269,
				"y": -0.0434478332,
				"z": -0.043949391,
				"element": "C" 
			},
			{
				"x": -0.5143091339,
				"y": 0.2348931161,
				"z": -0.5705839147,
				"element": "C" 
			},
			{
				"x": -1.5994908615,
				"y": -0.7886868196,
				"z": -0.5820313641,
				"element": "C" 
			},
			{
				"x": -2.7713544911,
				"y": -0.3950684908,
				"z": -1.1438569009,
				"element": "O" 
			},
			{
				"x": -1.4827523471,
				"y": -1.9052923213,
				"z": -0.1331575404,
				"element": "O" 
			},
			{
				"x": 3.0603384371,
				"y": -0.3475004459,
				"z": 0.9119902506,
				"element": "H" 
			},
			{
				"x": 3.7046369167,
				"y": 1.2282716286,
				"z": 0.5650422132,
				"element": "H" 
			},
			{
				"x": 0.8566241015,
				"y": -1.0302324783,
				"z": 0.3790114306,
				"element": "H" 
			},
			{
				"x": -0.6769687108,
				"y": 1.2260195794,
				"z": -0.9906781363,
				"element": "H" 
			},
			{
				"x": -2.7085110761,
				"y": 0.5187102948,
				"z": -1.4557333515,
				"element": "H" 
			}
		],
		 "valence_orbital": [ 
			{
				"type": "occ",
				"energy": -0.32569,
				"method": "rhf"
			},
			{
				"type": "occ",
				"energy": -0.29516,
				"method": "rhf"
			},
			{
				"type": "occ",
				"energy": -0.2825,
				"method": "rhf"
			},
			{
				"type": "occ",
				"energy": -0.28141,
				"method": "rhf"
			},
			{
				"type": "occ",
				"energy": -0.26762,
				"method": "rhf"
			},
			{
				"type": "unocc",
				"energy": -0.08213,
				"method": "rhf"
			},
			{
				"type": "unocc",
				"energy": 0.04164,
				"method": "rhf"
			},
			{
				"type": "unocc",
				"energy": 0.05381,
				"method": "rhf"
			},
			{
				"type": "unocc",
				"energy": 0.06526,
				"method": "rhf"
			},
			{
				"type": "unocc",
				"energy": 0.09948,
				"method": "rhf"
			}
		],
		"cosmo_sigma_profile": { 
			"-0.025": 0.0,
			"-0.024": 0.0,
			"-0.023": 0.0,
			"-0.022": 0.0,
			"-0.021": 0.0,
			"-0.02": 0.479980957004,
			"-0.019": 1.02012719305,
			"-0.018": 1.60533244262,
			"-0.017": 1.20372746598,
			"-0.016": 0.887401672921,
			"-0.015": 2.2440735128,
			"-0.014": 4.12430979877,
			"-0.013": 4.81024722467,
			"-0.012": 3.17535169394,
			"-0.011": 3.98027908038,
			"-0.01": 3.34294030458,
			"-0.009": 3.36611746457,
			"-0.008": 3.56256862767,
			"-0.007": 2.65324865164,
			"-0.006": 3.65490326869,
			"-0.005": 3.96361888437,
			"-0.004": 4.5464467188,
			"-0.003": 5.42889539303,
			"-0.002": 7.43423431308,
			"-0.001": 6.90247084733,
			"0.0": 8.06873936024,
			"0.001": 7.46959948985,
			"0.002": 6.46390040541,
			"0.003": 5.97348806188,
			"0.004": 4.46712317306,
			"0.005": 3.34818074934,
			"0.006": 3.57070582015,
			"0.007": 4.17283360864,
			"0.008": 4.01744976357,
			"0.009": 4.40210562302,
			"0.01": 6.43766043808,
			"0.011": 7.01091817032,
			"0.012": 6.34612524324,
			"0.013": 6.5013550584,
			"0.014": 2.47099465839,
			"0.015": 0.143712052516,
			"0.016": 0.0,
			"0.017": 0.0,
			"0.018": 0.0,
			"0.019": 0.0,
			"0.02": 0.0,
			"0.021": 0.0,
			"0.022": 0.0,
			"0.023": 0.0,
			"0.024": 0.0,
			"0.025": 0.0
		}
	}
}
