{
	 "smiles": "ClC1CC2CCC1C2", 
	 "Tm": 268.15, 
	 "num_atms": 19, 
	 "gaussian": { 
		 "optdone": 1, 
		 "sigma_profile": "yes", 
		 "theory": "DFT", 
		 "functional": "B3LYP", 
		 "basiset": "6-31G**", 
		 "properties": { 
			 "R2extent": 1218.2783, 
			 "electric_dipole_moment_norm": 2.41160595455, 
			 "electric_quadrupole_moment_norm": 5.08679197432, 
			 "total_energy": -733.573474655, 
			 "HOMO_LUMO_gap": 0.30965, 
			 "cosmo_polarized_energy": -3.47, 
			 "cosmo_cavitation_energy": 20.76, 
			 "cosmo_dispersion_energy": -16.24, 
			 "cosmo_repulsion_energy": 1.34, 
			 "cosmo_total_nonelectrostatic_energy": 5.86, 
			 "SMD_solvation_energy": 2.26 
		},
		"coords": [
			{
				"x": -1.0804859961,
				"y": -1.2667159514,
				"z": 2.2292590384,
				"element": "Cl" 
			},
			{
				"x": -0.7737390183,
				"y": 0.4019045668,
				"z": 1.5477138296,
				"element": "C" 
			},
			{
				"x": 0.7326001243,
				"y": 0.6986572608,
				"z": 1.2801019941,
				"element": "C" 
			},
			{
				"x": 0.720627745,
				"y": 1.2248017796,
				"z": -0.1757906423,
				"element": "C" 
			},
			{
				"x": 0.4985949832,
				"y": 0.0267032425,
				"z": -1.1276233539,
				"element": "C" 
			},
			{
				"x": -0.9922191745,
				"y": -0.3630767792,
				"z": -0.8632554621,
				"element": "C" 
			},
			{
				"x": -1.4520860889,
				"y": 0.6710916728,
				"z": 0.1895155971,
				"element": "C" 
			},
			{
				"x": -0.6556885197,
				"y": 1.9279127815,
				"z": -0.2392799315,
				"element": "C" 
			},
			{
				"x": -1.1817229532,
				"y": 1.0667473263,
				"z": 2.3101306508,
				"element": "H" 
			},
			{
				"x": 1.3522900253,
				"y": -0.1935564294,
				"z": 1.3982664117,
				"element": "H" 
			},
			{
				"x": 1.1003232086,
				"y": 1.4535475101,
				"z": 1.9826210096,
				"element": "H" 
			},
			{
				"x": 1.5892200951,
				"y": 1.8390632179,
				"z": -0.4269554121,
				"element": "H" 
			},
			{
				"x": 1.1912192293,
				"y": -0.7952354223,
				"z": -0.9210484053,
				"element": "H" 
			},
			{
				"x": 0.6504543131,
				"y": 0.3270621418,
				"z": -2.1698046172,
				"element": "H" 
			},
			{
				"x": -1.1072653817,
				"y": -1.388626487,
				"z": -0.5060474181,
				"element": "H" 
			},
			{
				"x": -1.5963765238,
				"y": -0.2621546024,
				"z": -1.7703532936,
				"element": "H" 
			},
			{
				"x": -2.5361087735,
				"y": 0.7800552799,
				"z": 0.2685842824,
				"element": "H" 
			},
			{
				"x": -0.923148228,
				"y": 2.2734496529,
				"z": -1.2433580189,
				"element": "H" 
			},
			{
				"x": -0.7514890661,
				"y": 2.7680692387,
				"z": 0.4576237412,
				"element": "H" 
			}
		],
		 "valence_orbital": [ 
			{
				"type": "occ",
				"energy": -0.33034,
				"method": "rhf"
			},
			{
				"type": "occ",
				"energy": -0.31488,
				"method": "rhf"
			},
			{
				"type": "occ",
				"energy": -0.30884,
				"method": "rhf"
			},
			{
				"type": "occ",
				"energy": -0.28287,
				"method": "rhf"
			},
			{
				"type": "occ",
				"energy": -0.28022,
				"method": "rhf"
			},
			{
				"type": "unocc",
				"energy": 0.02943,
				"method": "rhf"
			},
			{
				"type": "unocc",
				"energy": 0.07342,
				"method": "rhf"
			},
			{
				"type": "unocc",
				"energy": 0.11332,
				"method": "rhf"
			},
			{
				"type": "unocc",
				"energy": 0.11942,
				"method": "rhf"
			},
			{
				"type": "unocc",
				"energy": 0.1406,
				"method": "rhf"
			}
		],
		"cosmo_sigma_profile": { 
			"-0.025": 0.0,
			"-0.024": 0.0,
			"-0.023": 0.0,
			"-0.022": 0.0,
			"-0.021": 0.0,
			"-0.02": 0.0,
			"-0.019": 0.0,
			"-0.018": 0.0,
			"-0.017": 0.0,
			"-0.016": 0.0,
			"-0.015": 0.0,
			"-0.014": 0.0,
			"-0.013": 0.0,
			"-0.012": 0.0,
			"-0.011": 0.0,
			"-0.01": 0.0,
			"-0.009": 0.0,
			"-0.008": 0.0,
			"-0.007": 0.0515642135559,
			"-0.006": 2.1638049382,
			"-0.005": 3.29206460864,
			"-0.004": 9.1852206471,
			"-0.003": 19.3316638433,
			"-0.002": 23.986718126,
			"-0.001": 23.5650081242,
			"0.0": 23.156675031,
			"0.001": 19.906861251,
			"0.002": 7.97958257565,
			"0.003": 4.98949930218,
			"0.004": 5.12547137016,
			"0.005": 5.2685217319,
			"0.006": 6.71592027307,
			"0.007": 7.51293820307,
			"0.008": 0.790911968051,
			"0.009": 0.0,
			"0.01": 0.0,
			"0.011": 0.0,
			"0.012": 0.0,
			"0.013": 0.0,
			"0.014": 0.0,
			"0.015": 0.0,
			"0.016": 0.0,
			"0.017": 0.0,
			"0.018": 0.0,
			"0.019": 0.0,
			"0.02": 0.0,
			"0.021": 0.0,
			"0.022": 0.0,
			"0.023": 0.0,
			"0.024": 0.0,
			"0.025": 0.0
		}
	}
}
