{
	 "smiles": "CNC1=C(C=CC=C1)C(N)=O", 
	 "Tm": 435.15, 
	 "num_atms": 21, 
	 "gaussian": { 
		 "optdone": 1, 
		 "sigma_profile": "yes", 
		 "theory": "DFT", 
		 "functional": "B3LYP", 
		 "basiset": "6-31G**", 
		 "properties": { 
			 "R2extent": 2037.5126, 
			 "electric_dipole_moment_norm": 4.18927474511, 
			 "electric_quadrupole_moment_norm": 11.0214882493, 
			 "total_energy": -495.623781661, 
			 "HOMO_LUMO_gap": 0.17846, 
			 "cosmo_polarized_energy": -13.15, 
			 "cosmo_cavitation_energy": 24.08, 
			 "cosmo_dispersion_energy": -18.08, 
			 "cosmo_repulsion_energy": 1.45, 
			 "cosmo_total_nonelectrostatic_energy": 7.45, 
			 "SMD_solvation_energy": 4.77 
		},
		"coords": [
			{
				"x": -1.7959074309,
				"y": -1.5667297805,
				"z": 1.5871302178,
				"element": "C" 
			},
			{
				"x": -0.9988307247,
				"y": -0.7855259119,
				"z": 0.656102166,
				"element": "N" 
			},
			{
				"x": 0.3793236124,
				"y": -0.9809588662,
				"z": 0.5452819881,
				"element": "C" 
			},
			{
				"x": 1.1305563974,
				"y": -0.3875238157,
				"z": -0.5093701011,
				"element": "C" 
			},
			{
				"x": 2.5068592554,
				"y": -0.6391901949,
				"z": -0.5957623946,
				"element": "C" 
			},
			{
				"x": 3.1742154666,
				"y": -1.4130783601,
				"z": 0.3464425074,
				"element": "C" 
			},
			{
				"x": 2.4422286579,
				"y": -1.9667070353,
				"z": 1.3979922197,
				"element": "C" 
			},
			{
				"x": 1.0683755404,
				"y": -1.7647993725,
				"z": 1.4921113749,
				"element": "C" 
			},
			{
				"x": 0.5811401754,
				"y": 0.5108956798,
				"z": -1.5788451717,
				"element": "C" 
			},
			{
				"x": -0.6220151486,
				"y": 1.1502044308,
				"z": -1.3193018029,
				"element": "N" 
			},
			{
				"x": 1.1582454661,
				"y": 0.6828619531,
				"z": -2.6457662576,
				"element": "O" 
			},
			{
				"x": -1.6809517347,
				"y": -2.6539159395,
				"z": 1.4586535761,
				"element": "H" 
			},
			{
				"x": -2.8476071288,
				"y": -1.3108774838,
				"z": 1.439780723,
				"element": "H" 
			},
			{
				"x": -1.5366514974,
				"y": -1.3183403564,
				"z": 2.6215954596,
				"element": "H" 
			},
			{
				"x": -1.4537875741,
				"y": -0.6179847446,
				"z": -0.2319251252,
				"element": "H" 
			},
			{
				"x": 3.0350925354,
				"y": -0.1944075646,
				"z": -1.4323448886,
				"element": "H" 
			},
			{
				"x": 4.2431459434,
				"y": -1.5810916745,
				"z": 0.2642846376,
				"element": "H" 
			},
			{
				"x": 2.93865865,
				"y": -2.5749109413,
				"z": 2.149446626,
				"element": "H" 
			},
			{
				"x": 0.5220295901,
				"y": -2.2284339666,
				"z": 2.3048339725,
				"element": "H" 
			},
			{
				"x": -0.8344321911,
				"y": 1.8826438702,
				"z": -1.9843284322,
				"element": "H" 
			},
			{
				"x": -0.87118786,
				"y": 1.3343700744,
				"z": -0.3556112947,
				"element": "H" 
			}
		],
		 "valence_orbital": [ 
			{
				"type": "occ",
				"energy": -0.29955,
				"method": "rhf"
			},
			{
				"type": "occ",
				"energy": -0.27211,
				"method": "rhf"
			},
			{
				"type": "occ",
				"energy": -0.25316,
				"method": "rhf"
			},
			{
				"type": "occ",
				"energy": -0.24214,
				"method": "rhf"
			},
			{
				"type": "occ",
				"energy": -0.20665,
				"method": "rhf"
			},
			{
				"type": "unocc",
				"energy": -0.02819,
				"method": "rhf"
			},
			{
				"type": "unocc",
				"energy": 0.01268,
				"method": "rhf"
			},
			{
				"type": "unocc",
				"energy": 0.0601,
				"method": "rhf"
			},
			{
				"type": "unocc",
				"energy": 0.08605,
				"method": "rhf"
			},
			{
				"type": "unocc",
				"energy": 0.09811,
				"method": "rhf"
			}
		],
		"cosmo_sigma_profile": { 
			"-0.025": 0.0,
			"-0.024": 0.0,
			"-0.023": 0.0,
			"-0.022": 0.0,
			"-0.021": 0.0,
			"-0.02": 0.0,
			"-0.019": 0.0,
			"-0.018": 0.0,
			"-0.017": 0.0,
			"-0.016": 0.0,
			"-0.015": 0.0,
			"-0.014": 0.172948216553,
			"-0.013": 1.20978658466,
			"-0.012": 1.39738608644,
			"-0.011": 1.98828531929,
			"-0.01": 3.46237047884,
			"-0.009": 3.04978077704,
			"-0.008": 3.20334746068,
			"-0.007": 3.08511495639,
			"-0.006": 6.91939072415,
			"-0.005": 13.4950419933,
			"-0.004": 15.8466781546,
			"-0.003": 17.364626788,
			"-0.002": 16.2980452938,
			"-0.001": 13.8745879349,
			"0.0": 9.9166225476,
			"0.001": 9.61997878074,
			"0.002": 8.03380306801,
			"0.003": 9.95171107545,
			"0.004": 10.4561611289,
			"0.005": 13.3604731912,
			"0.006": 8.61862493455,
			"0.007": 2.37480174114,
			"0.008": 1.45250256317,
			"0.009": 1.83863985187,
			"0.01": 1.35486468388,
			"0.011": 1.46188646642,
			"0.012": 2.27881875096,
			"0.013": 3.88338536671,
			"0.014": 4.54827599796,
			"0.015": 0.329744996854,
			"0.016": 0.0,
			"0.017": 0.0,
			"0.018": 0.0,
			"0.019": 0.0,
			"0.02": 0.0,
			"0.021": 0.0,
			"0.022": 0.0,
			"0.023": 0.0,
			"0.024": 0.0,
			"0.025": 0.0
		}
	}
}
