{
	 "smiles": "CC=CC=CCO", 
	 "Tm": 303.95, 
	 "num_atms": 17, 
	 "gaussian": { 
		 "optdone": 1, 
		 "sigma_profile": "yes", 
		 "theory": "DFT", 
		 "functional": "B3LYP", 
		 "basiset": "6-31G**", 
		 "properties": { 
			 "R2extent": 1517.8021, 
			 "electric_dipole_moment_norm": 1.78078576477, 
			 "electric_quadrupole_moment_norm": 7.18171579429, 
			 "total_energy": -309.84290817, 
			 "HOMO_LUMO_gap": 0.1991, 
			 "cosmo_polarized_energy": -6.66, 
			 "cosmo_cavitation_energy": 20.66, 
			 "cosmo_dispersion_energy": -15.05, 
			 "cosmo_repulsion_energy": 1.31, 
			 "cosmo_total_nonelectrostatic_energy": 6.92, 
			 "SMD_solvation_energy": 4.11 
		},
		"coords": [
			{
				"x": -1.7437405502,
				"y": -2.6884226111,
				"z": 0.2278220553,
				"element": "C" 
			},
			{
				"x": -1.2308777536,
				"y": -1.3773519409,
				"z": -0.2890463479,
				"element": "C" 
			},
			{
				"x": -1.3654158888,
				"y": -0.1986251328,
				"z": 0.3389105684,
				"element": "C" 
			},
			{
				"x": -0.8506412812,
				"y": 1.0943077192,
				"z": -0.123876189,
				"element": "C" 
			},
			{
				"x": 0.2403707968,
				"y": 1.2887957397,
				"z": -0.8800486582,
				"element": "C" 
			},
			{
				"x": 0.7059756443,
				"y": 2.635553519,
				"z": -1.3671274555,
				"element": "C" 
			},
			{
				"x": -0.2160720712,
				"y": 3.690829389,
				"z": -1.1552698183,
				"element": "O" 
			},
			{
				"x": -2.2581095658,
				"y": -2.5702954009,
				"z": 1.186432953,
				"element": "H" 
			},
			{
				"x": -0.9253873927,
				"y": -3.4066520302,
				"z": 0.3702369082,
				"element": "H" 
			},
			{
				"x": -2.4429409278,
				"y": -3.15231353,
				"z": -0.4801125896,
				"element": "H" 
			},
			{
				"x": -0.721997272,
				"y": -1.4037439459,
				"z": -1.2531233116,
				"element": "H" 
			},
			{
				"x": -1.9265571954,
				"y": -0.1759185079,
				"z": 1.2743495401,
				"element": "H" 
			},
			{
				"x": -1.3975855348,
				"y": 1.9774268144,
				"z": 0.2048776806,
				"element": "H" 
			},
			{
				"x": 0.8611253918,
				"y": 0.4418576396,
				"z": -1.1726014012,
				"element": "H" 
			},
			{
				"x": 1.6213159627,
				"y": 2.9314265139,
				"z": -0.8365016763,
				"element": "H" 
			},
			{
				"x": 0.9885404884,
				"y": 2.555482184,
				"z": -2.4321257428,
				"element": "H" 
			},
			{
				"x": -1.0345028505,
				"y": 3.449243581,
				"z": -1.6098965152,
				"element": "H" 
			}
		],
		 "valence_orbital": [ 
			{
				"type": "occ",
				"energy": -0.34518,
				"method": "rhf"
			},
			{
				"type": "occ",
				"energy": -0.32868,
				"method": "rhf"
			},
			{
				"type": "occ",
				"energy": -0.29428,
				"method": "rhf"
			},
			{
				"type": "occ",
				"energy": -0.27439,
				"method": "rhf"
			},
			{
				"type": "occ",
				"energy": -0.21582,
				"method": "rhf"
			},
			{
				"type": "unocc",
				"energy": -0.01672,
				"method": "rhf"
			},
			{
				"type": "unocc",
				"energy": 0.08002,
				"method": "rhf"
			},
			{
				"type": "unocc",
				"energy": 0.08649,
				"method": "rhf"
			},
			{
				"type": "unocc",
				"energy": 0.11112,
				"method": "rhf"
			},
			{
				"type": "unocc",
				"energy": 0.11871,
				"method": "rhf"
			}
		],
		"cosmo_sigma_profile": { 
			"-0.025": 0.0,
			"-0.024": 0.0,
			"-0.023": 0.0,
			"-0.022": 0.0,
			"-0.021": 0.0,
			"-0.02": 0.0,
			"-0.019": 0.0,
			"-0.018": 0.0,
			"-0.017": 0.0,
			"-0.016": 0.0,
			"-0.015": 0.521278980653,
			"-0.014": 0.9224062306,
			"-0.013": 0.657572264189,
			"-0.012": 0.75056063569,
			"-0.011": 1.27194719864,
			"-0.01": 0.65591555026,
			"-0.009": 0.44577509919,
			"-0.008": 0.632654077742,
			"-0.007": 1.11089982119,
			"-0.006": 1.68927686669,
			"-0.005": 5.33689657203,
			"-0.004": 18.6525359163,
			"-0.003": 21.7908600975,
			"-0.002": 16.7950699056,
			"-0.001": 15.929391128,
			"0.0": 14.1589976446,
			"0.001": 11.2413824648,
			"0.002": 6.97348092961,
			"0.003": 6.4320162948,
			"0.004": 7.56188979734,
			"0.005": 6.67577721367,
			"0.006": 7.13529754912,
			"0.007": 4.22715913874,
			"0.008": 0.751278509787,
			"0.009": 1.31229961564,
			"0.01": 1.61687845218,
			"0.011": 1.13287775997,
			"0.012": 1.18238057933,
			"0.013": 1.73947774846,
			"0.014": 2.35984554301,
			"0.015": 0.238923585741,
			"0.016": 0.0,
			"0.017": 0.0,
			"0.018": 0.0,
			"0.019": 0.0,
			"0.02": 0.0,
			"0.021": 0.0,
			"0.022": 0.0,
			"0.023": 0.0,
			"0.024": 0.0,
			"0.025": 0.0
		}
	}
}
