{
	 "smiles": "OC(=O)C1=CC=C(C=C1)N1C=CN=C1", 
	 "Tm": 583.15, 
	 "num_atms": 22, 
	 "gaussian": { 
		 "optdone": 1, 
		 "sigma_profile": "yes", 
		 "theory": "DFT", 
		 "functional": "B3LYP", 
		 "basiset": "6-31G**", 
		 "properties": { 
			 "R2extent": 4036.174, 
			 "electric_dipole_moment_norm": 1.56446171254, 
			 "electric_quadrupole_moment_norm": 37.4315794131, 
			 "total_energy": -645.831746335, 
			 "HOMO_LUMO_gap": 0.17262, 
			 "cosmo_polarized_energy": -20.27, 
			 "cosmo_cavitation_energy": 27.17, 
			 "cosmo_dispersion_energy": -19.96, 
			 "cosmo_repulsion_energy": 1.52, 
			 "cosmo_total_nonelectrostatic_energy": 8.74, 
			 "SMD_solvation_energy": 4.94 
		},
		"coords": [
			{
				"x": -0.53350983,
				"y": -0.2341285918,
				"z": 5.0315217075,
				"element": "O" 
			},
			{
				"x": 0.1234873144,
				"y": 0.7657462504,
				"z": 4.384842196,
				"element": "C" 
			},
			{
				"x": 0.6289454063,
				"y": 1.663970282,
				"z": 5.01576288,
				"element": "O" 
			},
			{
				"x": 0.1782621819,
				"y": 0.6844262484,
				"z": 2.8895828546,
				"element": "C" 
			},
			{
				"x": -0.7193785058,
				"y": -0.0721002889,
				"z": 2.1235179443,
				"element": "C" 
			},
			{
				"x": -0.6355189945,
				"y": -0.0848720187,
				"z": 0.7343449247,
				"element": "C" 
			},
			{
				"x": 0.3699064155,
				"y": 0.6476739076,
				"z": 0.0900212926,
				"element": "C" 
			},
			{
				"x": 1.2684039071,
				"y": 1.4126581235,
				"z": 0.8481091225,
				"element": "C" 
			},
			{
				"x": 1.1583462889,
				"y": 1.4411755437,
				"z": 2.2321771584,
				"element": "C" 
			},
			{
				"x": 0.4722493593,
				"y": 0.6173039052,
				"z": -1.3196688501,
				"element": "N" 
			},
			{
				"x": 0.877891485,
				"y": 1.6507170878,
				"z": -2.1557779663,
				"element": "C" 
			},
			{
				"x": 0.8301542797,
				"y": 1.1387727115,
				"z": -3.4245162268,
				"element": "C" 
			},
			{
				"x": 0.4240118353,
				"y": -0.1800744222,
				"z": -3.4072544401,
				"element": "N" 
			},
			{
				"x": 0.2155240564,
				"y": -0.4597965319,
				"z": -2.1443502912,
				"element": "C" 
			},
			{
				"x": -0.7274289823,
				"y": -0.9598971657,
				"z": 4.422683009,
				"element": "H" 
			},
			{
				"x": -1.532636751,
				"y": -0.6178696118,
				"z": 2.5954382569,
				"element": "H" 
			},
			{
				"x": -1.3657057881,
				"y": -0.6321831242,
				"z": 0.1484815651,
				"element": "H" 
			},
			{
				"x": 2.0586305736,
				"y": 1.9647323142,
				"z": 0.3510245366,
				"element": "H" 
			},
			{
				"x": 1.837740856,
				"y": 2.0373083428,
				"z": 2.8314788072,
				"element": "H" 
			},
			{
				"x": 1.1074309557,
				"y": 2.63301245,
				"z": -1.7748191081,
				"element": "H" 
			},
			{
				"x": 1.0596530112,
				"y": 1.6452279463,
				"z": -4.3516259299,
				"element": "H" 
			},
			{
				"x": -0.0793590745,
				"y": -1.420803358,
				"z": -1.7469734428,
				"element": "H" 
			}
		],
		 "valence_orbital": [ 
			{
				"type": "occ",
				"energy": -0.28876,
				"method": "rhf"
			},
			{
				"type": "occ",
				"energy": -0.28218,
				"method": "rhf"
			},
			{
				"type": "occ",
				"energy": -0.27755,
				"method": "rhf"
			},
			{
				"type": "occ",
				"energy": -0.26028,
				"method": "rhf"
			},
			{
				"type": "occ",
				"energy": -0.23957,
				"method": "rhf"
			},
			{
				"type": "unocc",
				"energy": -0.06695,
				"method": "rhf"
			},
			{
				"type": "unocc",
				"energy": -0.03951,
				"method": "rhf"
			},
			{
				"type": "unocc",
				"energy": 0.00829,
				"method": "rhf"
			},
			{
				"type": "unocc",
				"energy": 0.04671,
				"method": "rhf"
			},
			{
				"type": "unocc",
				"energy": 0.05043,
				"method": "rhf"
			}
		],
		"cosmo_sigma_profile": { 
			"-0.025": 0.0,
			"-0.024": 0.0,
			"-0.023": 0.0,
			"-0.022": 0.0,
			"-0.021": 0.0,
			"-0.02": 0.0,
			"-0.019": 0.471690587343,
			"-0.018": 0.96823573368,
			"-0.017": 0.899944992483,
			"-0.016": 0.775343441685,
			"-0.015": 1.19024593341,
			"-0.014": 0.775218427819,
			"-0.013": 1.33222364034,
			"-0.012": 1.27688473563,
			"-0.011": 1.06158232978,
			"-0.01": 1.55250764447,
			"-0.009": 5.96348104618,
			"-0.008": 9.03319379409,
			"-0.007": 11.961217235,
			"-0.006": 11.8420267484,
			"-0.005": 10.0164180163,
			"-0.004": 11.578222437,
			"-0.003": 10.5842825402,
			"-0.002": 11.9799090485,
			"-0.001": 13.0849654896,
			"0.0": 13.8777954838,
			"0.001": 14.7236120019,
			"0.002": 17.6290645783,
			"0.003": 8.36669396656,
			"0.004": 7.04277407885,
			"0.005": 7.434765981,
			"0.006": 4.96849209965,
			"0.007": 3.51698960526,
			"0.008": 4.45571531674,
			"0.009": 5.13661566593,
			"0.01": 6.38823654122,
			"0.011": 6.47475028391,
			"0.012": 5.62233330108,
			"0.013": 2.13501864309,
			"0.014": 1.3399562354,
			"0.015": 1.28055378934,
			"0.016": 1.00702440716,
			"0.017": 0.928244356875,
			"0.018": 0.351635813014,
			"0.019": 0.0,
			"0.02": 0.0,
			"0.021": 0.0,
			"0.022": 0.0,
			"0.023": 0.0,
			"0.024": 0.0,
			"0.025": 0.0
		}
	}
}
