{
	 "smiles": "COC1=C(OC)C=C2C=C(NC2=C1)C(O)=O", 
	 "Tm": 473.15, 
	 "num_atms": 27, 
	 "gaussian": { 
		 "optdone": 1, 
		 "sigma_profile": "yes", 
		 "theory": "DFT", 
		 "functional": "B3LYP", 
		 "basiset": "6-31G**", 
		 "properties": { 
			 "R2extent": 5666.8562, 
			 "electric_dipole_moment_norm": 1.95425362735, 
			 "electric_quadrupole_moment_norm": 27.0316088274, 
			 "total_energy": -781.437638699, 
			 "HOMO_LUMO_gap": 0.16049, 
			 "cosmo_polarized_energy": -15.62, 
			 "cosmo_cavitation_energy": 31.74, 
			 "cosmo_dispersion_energy": -23.21, 
			 "cosmo_repulsion_energy": 1.81, 
			 "cosmo_total_nonelectrostatic_energy": 10.33, 
			 "SMD_solvation_energy": 7.82 
		},
		"coords": [
			{
				"x": -2.619885514,
				"y": 1.3930822554,
				"z": -0.0922000252,
				"element": "C" 
			},
			{
				"x": -2.1192341108,
				"y": 0.0551411857,
				"z": -0.162168476,
				"element": "O" 
			},
			{
				"x": -0.7582933404,
				"y": -0.0732826016,
				"z": -0.2797638254,
				"element": "C" 
			},
			{
				"x": 0.103183594,
				"y": 0.2481693163,
				"z": 0.8220873768,
				"element": "C" 
			},
			{
				"x": -0.5419239359,
				"y": 0.718052827,
				"z": 1.9342632329,
				"element": "O" 
			},
			{
				"x": 0.241978638,
				"y": 1.0114515843,
				"z": 3.0781525408,
				"element": "C" 
			},
			{
				"x": 1.4727034059,
				"y": 0.0652472844,
				"z": 0.7227923561,
				"element": "C" 
			},
			{
				"x": 2.0127728525,
				"y": -0.456809327,
				"z": -0.4748569598,
				"element": "C" 
			},
			{
				"x": 3.3350744399,
				"y": -0.7694194726,
				"z": -0.904507045,
				"element": "C" 
			},
			{
				"x": 3.2382226296,
				"y": -1.263794602,
				"z": -2.1908471209,
				"element": "C" 
			},
			{
				"x": 1.9061881519,
				"y": -1.2712202072,
				"z": -2.577701319,
				"element": "N" 
			},
			{
				"x": 1.1391520381,
				"y": -0.7837148842,
				"z": -1.5488639989,
				"element": "C" 
			},
			{
				"x": -0.2464782756,
				"y": -0.5869251105,
				"z": -1.4585560903,
				"element": "C" 
			},
			{
				"x": 4.3100636474,
				"y": -1.7235311193,
				"z": -3.066148745,
				"element": "C" 
			},
			{
				"x": 3.830380549,
				"y": -2.1453085507,
				"z": -4.2748258345,
				"element": "O" 
			},
			{
				"x": 5.4933432064,
				"y": -1.7440381808,
				"z": -2.790457756,
				"element": "O" 
			},
			{
				"x": -2.3460059466,
				"y": 1.9593535692,
				"z": -0.9921455939,
				"element": "H" 
			},
			{
				"x": -2.2508508457,
				"y": 1.9142323858,
				"z": 0.7954248652,
				"element": "H" 
			},
			{
				"x": -3.7071769156,
				"y": 1.3066456798,
				"z": -0.0396144635,
				"element": "H" 
			},
			{
				"x": 0.9692376439,
				"y": 1.809674809,
				"z": 2.8785725533,
				"element": "H" 
			},
			{
				"x": -0.4571831855,
				"y": 1.3455240785,
				"z": 3.8463465898,
				"element": "H" 
			},
			{
				"x": 0.7774869287,
				"y": 0.1230570532,
				"z": 3.4372531277,
				"element": "H" 
			},
			{
				"x": 2.1310264627,
				"y": 0.3046122021,
				"z": 1.5491081252,
				"element": "H" 
			},
			{
				"x": 4.2586742105,
				"y": -0.6552186507,
				"z": -0.3562537505,
				"element": "H" 
			},
			{
				"x": 1.584194836,
				"y": -1.592014662,
				"z": -3.4766251391,
				"element": "H" 
			},
			{
				"x": -0.9293571278,
				"y": -0.8290971573,
				"z": -2.2659321447,
				"element": "H" 
			},
			{
				"x": 4.6076059633,
				"y": -2.4297697048,
				"z": -4.7823324802,
				"element": "H" 
			}
		],
		 "valence_orbital": [ 
			{
				"type": "occ",
				"energy": -0.28314,
				"method": "rhf"
			},
			{
				"type": "occ",
				"energy": -0.2766,
				"method": "rhf"
			},
			{
				"type": "occ",
				"energy": -0.26868,
				"method": "rhf"
			},
			{
				"type": "occ",
				"energy": -0.20899,
				"method": "rhf"
			},
			{
				"type": "occ",
				"energy": -0.20535,
				"method": "rhf"
			},
			{
				"type": "unocc",
				"energy": -0.04486,
				"method": "rhf"
			},
			{
				"type": "unocc",
				"energy": 0.01991,
				"method": "rhf"
			},
			{
				"type": "unocc",
				"energy": 0.03487,
				"method": "rhf"
			},
			{
				"type": "unocc",
				"energy": 0.07279,
				"method": "rhf"
			},
			{
				"type": "unocc",
				"energy": 0.09015,
				"method": "rhf"
			}
		],
		"cosmo_sigma_profile": { 
			"-0.025": 0.0,
			"-0.024": 0.0,
			"-0.023": 0.0,
			"-0.022": 0.0,
			"-0.021": 0.0,
			"-0.02": 0.0,
			"-0.019": 0.0390205304382,
			"-0.018": 0.666593201445,
			"-0.017": 1.00717926833,
			"-0.016": 0.996571501361,
			"-0.015": 1.57342803067,
			"-0.014": 1.59967886428,
			"-0.013": 1.24820940254,
			"-0.012": 2.08353445314,
			"-0.011": 1.76226084836,
			"-0.01": 1.61372513465,
			"-0.009": 1.09741361426,
			"-0.008": 2.16254663044,
			"-0.007": 5.24583209022,
			"-0.006": 10.6526903501,
			"-0.005": 15.6685100819,
			"-0.004": 20.0225334932,
			"-0.003": 21.1469440008,
			"-0.002": 19.2679809251,
			"-0.001": 15.6095880332,
			"0.0": 14.0050394981,
			"0.001": 12.8597244336,
			"0.002": 13.4434202672,
			"0.003": 21.0429733746,
			"0.004": 20.7939017306,
			"0.005": 12.5708936487,
			"0.006": 5.97608157861,
			"0.007": 4.27526394499,
			"0.008": 2.90682038563,
			"0.009": 3.15572372872,
			"0.01": 4.29820430575,
			"0.011": 5.88709187806,
			"0.012": 7.27141683229,
			"0.013": 0.74433358572,
			"0.014": 0.0,
			"0.015": 0.0,
			"0.016": 0.0,
			"0.017": 0.0,
			"0.018": 0.0,
			"0.019": 0.0,
			"0.02": 0.0,
			"0.021": 0.0,
			"0.022": 0.0,
			"0.023": 0.0,
			"0.024": 0.0,
			"0.025": 0.0
		}
	}
}
