{
	 "smiles": "NC1=NC=C(N1)C1=CC=CC=C1", 
	 "Tm": 413.15, 
	 "num_atms": 21, 
	 "gaussian": { 
		 "optdone": 1, 
		 "sigma_profile": "yes", 
		 "theory": "DFT", 
		 "functional": "B3LYP", 
		 "basiset": "6-31G**", 
		 "properties": { 
			 "R2extent": 3659.1005, 
			 "electric_dipole_moment_norm": 3.09314812772, 
			 "electric_quadrupole_moment_norm": 16.756953542, 
			 "total_energy": -512.641253806, 
			 "HOMO_LUMO_gap": 0.16755, 
			 "cosmo_polarized_energy": -16.18, 
			 "cosmo_cavitation_energy": 25.21, 
			 "cosmo_dispersion_energy": -18.88, 
			 "cosmo_repulsion_energy": 1.49, 
			 "cosmo_total_nonelectrostatic_energy": 7.82, 
			 "SMD_solvation_energy": 2.25 
		},
		"coords": [
			{
				"x": 1.8680275475,
				"y": 2.4232833501,
				"z": 3.2169603342,
				"element": "N" 
			},
			{
				"x": 1.2115196066,
				"y": 2.0067976919,
				"z": 2.0607810935,
				"element": "C" 
			},
			{
				"x": -0.0772728006,
				"y": 1.7510616406,
				"z": 1.9569611438,
				"element": "N" 
			},
			{
				"x": -0.2742890468,
				"y": 1.4510255962,
				"z": 0.6270481773,
				"element": "C" 
			},
			{
				"x": 0.901426203,
				"y": 1.5101493059,
				"z": -0.0901452168,
				"element": "C" 
			},
			{
				"x": 1.8540682353,
				"y": 1.8886881852,
				"z": 0.8618802447,
				"element": "N" 
			},
			{
				"x": 1.2129972424,
				"y": 1.280402026,
				"z": -1.496122793,
				"element": "C" 
			},
			{
				"x": 0.3396935392,
				"y": 0.5219605676,
				"z": -2.3004778485,
				"element": "C" 
			},
			{
				"x": 0.6143918935,
				"y": 0.3059731336,
				"z": -3.6472933132,
				"element": "C" 
			},
			{
				"x": 1.7754645764,
				"y": 0.825705805,
				"z": -4.2269080439,
				"element": "C" 
			},
			{
				"x": 2.6535685375,
				"y": 1.5736735857,
				"z": -3.4416425566,
				"element": "C" 
			},
			{
				"x": 2.3740688101,
				"y": 1.8041907898,
				"z": -2.0954543463,
				"element": "C" 
			},
			{
				"x": 1.2172811656,
				"y": 2.4145361925,
				"z": 3.9939494232,
				"element": "H" 
			},
			{
				"x": 2.6900081139,
				"y": 1.8737145499,
				"z": 3.4452656151,
				"element": "H" 
			},
			{
				"x": -1.2609953849,
				"y": 1.2203404688,
				"z": 0.2500769802,
				"element": "H" 
			},
			{
				"x": 2.8348283684,
				"y": 2.0469607265,
				"z": 0.6938914812,
				"element": "H" 
			},
			{
				"x": -0.5499144244,
				"y": 0.0874507444,
				"z": -1.8548963525,
				"element": "H" 
			},
			{
				"x": -0.0752237175,
				"y": -0.282709183,
				"z": -4.2458820679,
				"element": "H" 
			},
			{
				"x": 1.9919327041,
				"y": 0.6490457155,
				"z": -5.2761882345,
				"element": "H" 
			},
			{
				"x": 3.5562712069,
				"y": 1.990419025,
				"z": -3.8797385391,
				"element": "H" 
			},
			{
				"x": 3.0545476237,
				"y": 2.4228300829,
				"z": -1.5157651809,
				"element": "H" 
			}
		],
		 "valence_orbital": [ 
			{
				"type": "occ",
				"energy": -0.2742,
				"method": "rhf"
			},
			{
				"type": "occ",
				"energy": -0.26542,
				"method": "rhf"
			},
			{
				"type": "occ",
				"energy": -0.25904,
				"method": "rhf"
			},
			{
				"type": "occ",
				"energy": -0.25039,
				"method": "rhf"
			},
			{
				"type": "occ",
				"energy": -0.1857,
				"method": "rhf"
			},
			{
				"type": "unocc",
				"energy": -0.01815,
				"method": "rhf"
			},
			{
				"type": "unocc",
				"energy": -0.00086,
				"method": "rhf"
			},
			{
				"type": "unocc",
				"energy": 0.05627,
				"method": "rhf"
			},
			{
				"type": "unocc",
				"energy": 0.06571,
				"method": "rhf"
			},
			{
				"type": "unocc",
				"energy": 0.08757,
				"method": "rhf"
			}
		],
		"cosmo_sigma_profile": { 
			"-0.025": 0.0,
			"-0.024": 0.0,
			"-0.023": 0.0,
			"-0.022": 0.0,
			"-0.021": 0.0,
			"-0.02": 0.0,
			"-0.019": 0.0,
			"-0.018": 0.0,
			"-0.017": 0.0262031307623,
			"-0.016": 0.771872510482,
			"-0.015": 1.18142393051,
			"-0.014": 1.55706822634,
			"-0.013": 3.71667610424,
			"-0.012": 4.40317298398,
			"-0.011": 3.162792605,
			"-0.01": 4.30640537259,
			"-0.009": 3.66069624484,
			"-0.008": 2.46615757428,
			"-0.007": 2.4014242297,
			"-0.006": 7.97840883042,
			"-0.005": 13.4184348255,
			"-0.004": 13.8426502409,
			"-0.003": 12.4820357103,
			"-0.002": 9.50518057715,
			"-0.001": 9.84550599306,
			"0.0": 7.45014240912,
			"0.001": 8.97978059497,
			"0.002": 10.4536240853,
			"0.003": 13.5483874978,
			"0.004": 15.5402408157,
			"0.005": 16.3146166752,
			"0.006": 12.5861271319,
			"0.007": 3.69920946299,
			"0.008": 2.54765402404,
			"0.009": 1.80686890844,
			"0.01": 2.69240215371,
			"0.011": 1.79298868642,
			"0.012": 1.60751640915,
			"0.013": 1.16054071928,
			"0.014": 2.50115769111,
			"0.015": 0.993283836452,
			"0.016": 1.0971626919,
			"0.017": 1.04133269822,
			"0.018": 0.685926390406,
			"0.019": 0.0900313767793,
			"0.02": 0.0,
			"0.021": 0.0,
			"0.022": 0.0,
			"0.023": 0.0,
			"0.024": 0.0,
			"0.025": 0.0
		}
	}
}
