{
	 "smiles": "CC1=CC=C(S1)C1=NN=C(N)N1", 
	 "Tm": 496.15, 
	 "num_atms": 20, 
	 "gaussian": { 
		 "optdone": 1, 
		 "sigma_profile": "yes", 
		 "theory": "DFT", 
		 "functional": "B3LYP", 
		 "basiset": "6-31G**", 
		 "properties": { 
			 "R2extent": 3012.4704, 
			 "electric_dipole_moment_norm": 4.80690192744, 
			 "electric_quadrupole_moment_norm": 18.6722965987, 
			 "total_energy": -888.735580739, 
			 "HOMO_LUMO_gap": 0.16203, 
			 "cosmo_polarized_energy": -21.94, 
			 "cosmo_cavitation_energy": 26.3, 
			 "cosmo_dispersion_energy": -20.09, 
			 "cosmo_repulsion_energy": 1.57, 
			 "cosmo_total_nonelectrostatic_energy": 7.78, 
			 "SMD_solvation_energy": 2.08 
		},
		"coords": [
			{
				"x": 3.518410315,
				"y": -0.4831977577,
				"z": 2.1334818966,
				"element": "C" 
			},
			{
				"x": 2.266907653,
				"y": -0.079244428,
				"z": 1.4149948197,
				"element": "C" 
			},
			{
				"x": 1.7881187318,
				"y": 1.1803631586,
				"z": 1.1655305367,
				"element": "C" 
			},
			{
				"x": 0.5593525893,
				"y": 1.2060611216,
				"z": 0.4464744171,
				"element": "C" 
			},
			{
				"x": 0.0877939669,
				"y": -0.0474729509,
				"z": 0.1423072778,
				"element": "C" 
			},
			{
				"x": 1.173454682,
				"y": -1.2794100139,
				"z": 0.7578395733,
				"element": "S" 
			},
			{
				"x": -1.1272294915,
				"y": -0.3728776013,
				"z": -0.5756675684,
				"element": "C" 
			},
			{
				"x": -2.0622579725,
				"y": 0.4821110826,
				"z": -0.9317141878,
				"element": "N" 
			},
			{
				"x": -3.0580055942,
				"y": -0.2206848305,
				"z": -1.5856001235,
				"element": "N" 
			},
			{
				"x": -2.6902886556,
				"y": -1.4812092811,
				"z": -1.6170817673,
				"element": "C" 
			},
			{
				"x": -3.3571665952,
				"y": -2.5211418714,
				"z": -2.2516085384,
				"element": "N" 
			},
			{
				"x": -1.4844366181,
				"y": -1.6455485546,
				"z": -0.9879582572,
				"element": "N" 
			},
			{
				"x": 3.3059223725,
				"y": -1.0954670408,
				"z": 3.0174591495,
				"element": "H" 
			},
			{
				"x": 4.0534356289,
				"y": 0.4102872842,
				"z": 2.4666292573,
				"element": "H" 
			},
			{
				"x": 4.1944428277,
				"y": -1.0583226598,
				"z": 1.4902791665,
				"element": "H" 
			},
			{
				"x": 2.3112106765,
				"y": 2.0738040104,
				"z": 1.4898157889,
				"element": "H" 
			},
			{
				"x": 0.030550081,
				"y": 2.1044007134,
				"z": 0.1528482245,
				"element": "H" 
			},
			{
				"x": -3.5553733263,
				"y": -3.3120566413,
				"z": -1.6471332998,
				"element": "H" 
			},
			{
				"x": -4.2163903053,
				"y": -2.1723334767,
				"z": -2.6620202503,
				"element": "H" 
			},
			{
				"x": -0.9147509659,
				"y": -2.4781602627,
				"z": -0.9821761151,
				"element": "H" 
			}
		],
		 "valence_orbital": [ 
			{
				"type": "occ",
				"energy": -0.29617,
				"method": "rhf"
			},
			{
				"type": "occ",
				"energy": -0.25779,
				"method": "rhf"
			},
			{
				"type": "occ",
				"energy": -0.25552,
				"method": "rhf"
			},
			{
				"type": "occ",
				"energy": -0.24654,
				"method": "rhf"
			},
			{
				"type": "occ",
				"energy": -0.19884,
				"method": "rhf"
			},
			{
				"type": "unocc",
				"energy": -0.03681,
				"method": "rhf"
			},
			{
				"type": "unocc",
				"energy": 0.01279,
				"method": "rhf"
			},
			{
				"type": "unocc",
				"energy": 0.04301,
				"method": "rhf"
			},
			{
				"type": "unocc",
				"energy": 0.05319,
				"method": "rhf"
			},
			{
				"type": "unocc",
				"energy": 0.05733,
				"method": "rhf"
			}
		],
		"cosmo_sigma_profile": { 
			"-0.025": 0.0,
			"-0.024": 0.0,
			"-0.023": 0.0,
			"-0.022": 0.0,
			"-0.021": 0.0,
			"-0.02": 0.0,
			"-0.019": 0.0,
			"-0.018": 0.0839708151971,
			"-0.017": 0.744963771146,
			"-0.016": 1.28097667805,
			"-0.015": 1.04673598275,
			"-0.014": 2.84392507867,
			"-0.013": 4.41473758313,
			"-0.012": 3.86856017504,
			"-0.011": 4.37726110632,
			"-0.01": 2.80346620195,
			"-0.009": 2.87515382282,
			"-0.008": 2.54784343677,
			"-0.007": 4.16064216597,
			"-0.006": 5.55890978561,
			"-0.005": 11.5799151597,
			"-0.004": 14.3422304935,
			"-0.003": 14.6051510063,
			"-0.002": 12.9797676209,
			"-0.001": 14.3810490606,
			"0.0": 11.6549915935,
			"0.001": 11.2523055862,
			"0.002": 12.2721050663,
			"0.003": 13.8694511564,
			"0.004": 16.3818348095,
			"0.005": 8.57413368553,
			"0.006": 2.8930855271,
			"0.007": 3.11317482701,
			"0.008": 1.535832143,
			"0.009": 2.53371791643,
			"0.01": 2.89161518844,
			"0.011": 2.85716881843,
			"0.012": 2.61557654048,
			"0.013": 3.08091926782,
			"0.014": 3.88861354871,
			"0.015": 3.54289277507,
			"0.016": 2.61656565045,
			"0.017": 1.49386392417,
			"0.018": 0.28198901202,
			"0.019": 0.0,
			"0.02": 0.0,
			"0.021": 0.0,
			"0.022": 0.0,
			"0.023": 0.0,
			"0.024": 0.0,
			"0.025": 0.0
		}
	}
}
