{
	 "smiles": "O=C1CC2(CCOC2)CN1", 
	 "Tm": 337.15, 
	 "num_atms": 21, 
	 "gaussian": { 
		 "optdone": 1, 
		 "sigma_profile": "yes", 
		 "theory": "DFT", 
		 "functional": "B3LYP", 
		 "basiset": "6-31G**", 
		 "properties": { 
			 "R2extent": 1685.9443, 
			 "electric_dipole_moment_norm": 4.48842153435, 
			 "electric_quadrupole_moment_norm": 14.4357306604, 
			 "total_energy": -478.573100355, 
			 "HOMO_LUMO_gap": 0.27081, 
			 "cosmo_polarized_energy": -14.22, 
			 "cosmo_cavitation_energy": 22.64, 
			 "cosmo_dispersion_energy": -17.06, 
			 "cosmo_repulsion_energy": 1.39, 
			 "cosmo_total_nonelectrostatic_energy": 6.97, 
			 "SMD_solvation_energy": 3.53 
		},
		"coords": [
			{
				"x": -1.8458437049,
				"y": -2.9418088773,
				"z": 1.053506601,
				"element": "O" 
			},
			{
				"x": -1.2687158435,
				"y": -1.8924721685,
				"z": 0.8330297118,
				"element": "C" 
			},
			{
				"x": -1.0600940735,
				"y": -1.2058920211,
				"z": -0.5202601569,
				"element": "C" 
			},
			{
				"x": -0.5555668881,
				"y": 0.2119587728,
				"z": -0.1730624865,
				"element": "C" 
			},
			{
				"x": 0.3510544316,
				"y": 0.8632398705,
				"z": -1.2348532379,
				"element": "C" 
			},
			{
				"x": -0.6484807645,
				"y": 1.5493476783,
				"z": -2.1962111425,
				"element": "C" 
			},
			{
				"x": -1.9297197919,
				"y": 1.5210006237,
				"z": -1.5517365122,
				"element": "O" 
			},
			{
				"x": -1.7271143487,
				"y": 1.2150604963,
				"z": -0.1810145113,
				"element": "C" 
			},
			{
				"x": 0.0896997694,
				"y": 0.0233555102,
				"z": 1.2209013392,
				"element": "C" 
			},
			{
				"x": -0.6527492538,
				"y": -1.0994231492,
				"z": 1.7715757714,
				"element": "N" 
			},
			{
				"x": -1.978682726,
				"y": -1.209709527,
				"z": -1.1115020881,
				"element": "H" 
			},
			{
				"x": -0.3100016163,
				"y": -1.7843027008,
				"z": -1.0744967795,
				"element": "H" 
			},
			{
				"x": 1.0012195946,
				"y": 1.6082586922,
				"z": -0.761191773,
				"element": "H" 
			},
			{
				"x": 0.9960841801,
				"y": 0.138286878,
				"z": -1.7396365283,
				"element": "H" 
			},
			{
				"x": -0.7461223613,
				"y": 1.0214668123,
				"z": -3.1509119708,
				"element": "H" 
			},
			{
				"x": -0.3547034506,
				"y": 2.5860307292,
				"z": -2.4106697847,
				"element": "H" 
			},
			{
				"x": -2.6615299751,
				"y": 0.8108630344,
				"z": 0.2189931049,
				"element": "H" 
			},
			{
				"x": -1.4613016284,
				"y": 2.1172935432,
				"z": 0.3975109221,
				"element": "H" 
			},
			{
				"x": 1.1638063894,
				"y": -0.2008592919,
				"z": 1.133697592,
				"element": "H" 
			},
			{
				"x": -0.0128190592,
				"y": 0.9199423095,
				"z": 1.8436488951,
				"element": "H" 
			},
			{
				"x": -0.5355188794,
				"y": -1.4380372147,
				"z": 2.7157830344,
				"element": "H" 
			}
		],
		 "valence_orbital": [ 
			{
				"type": "occ",
				"energy": -0.34047,
				"method": "rhf"
			},
			{
				"type": "occ",
				"energy": -0.31337,
				"method": "rhf"
			},
			{
				"type": "occ",
				"energy": -0.25509,
				"method": "rhf"
			},
			{
				"type": "occ",
				"energy": -0.25332,
				"method": "rhf"
			},
			{
				"type": "occ",
				"energy": -0.24008,
				"method": "rhf"
			},
			{
				"type": "unocc",
				"energy": 0.03073,
				"method": "rhf"
			},
			{
				"type": "unocc",
				"energy": 0.07,
				"method": "rhf"
			},
			{
				"type": "unocc",
				"energy": 0.09078,
				"method": "rhf"
			},
			{
				"type": "unocc",
				"energy": 0.09967,
				"method": "rhf"
			},
			{
				"type": "unocc",
				"energy": 0.10438,
				"method": "rhf"
			}
		],
		"cosmo_sigma_profile": { 
			"-0.025": 0.0,
			"-0.024": 0.0,
			"-0.023": 0.0,
			"-0.022": 0.0,
			"-0.021": 0.0,
			"-0.02": 0.0,
			"-0.019": 0.0,
			"-0.018": 0.0,
			"-0.017": 0.0,
			"-0.016": 0.0,
			"-0.015": 0.0,
			"-0.014": 0.874613235725,
			"-0.013": 1.09226825479,
			"-0.012": 1.1449578457,
			"-0.011": 1.10547506503,
			"-0.01": 1.13532482697,
			"-0.009": 0.954082706358,
			"-0.008": 0.80471733522,
			"-0.007": 0.834417561904,
			"-0.006": 1.92782553714,
			"-0.005": 16.3182868188,
			"-0.004": 29.3630798798,
			"-0.003": 27.7823396557,
			"-0.002": 20.4898071537,
			"-0.001": 13.0053100599,
			"0.0": 6.83441104964,
			"0.001": 4.7088072127,
			"0.002": 3.97164355374,
			"0.003": 3.90767658945,
			"0.004": 3.60045838112,
			"0.005": 3.03941900213,
			"0.006": 2.20417624005,
			"0.007": 2.26397763945,
			"0.008": 2.84752679171,
			"0.009": 2.49212257363,
			"0.01": 1.90109701778,
			"0.011": 2.63817255313,
			"0.012": 3.05053867182,
			"0.013": 4.97196868076,
			"0.014": 7.92937198563,
			"0.015": 2.73406584917,
			"0.016": 0.112494262247,
			"0.017": 0.0,
			"0.018": 0.0,
			"0.019": 0.0,
			"0.02": 0.0,
			"0.021": 0.0,
			"0.022": 0.0,
			"0.023": 0.0,
			"0.024": 0.0,
			"0.025": 0.0
		}
	}
}
