{
	 "smiles": "CC1=CSC(=N1)C1=CC=C(N)C=C1", 
	 "Tm": 385.15, 
	 "num_atms": 23, 
	 "gaussian": { 
		 "optdone": 1, 
		 "sigma_profile": "yes", 
		 "theory": "DFT", 
		 "functional": "B3LYP", 
		 "basiset": "6-31G**", 
		 "properties": { 
			 "R2extent": 3804.0164, 
			 "electric_dipole_moment_norm": 2.33630675426, 
			 "electric_quadrupole_moment_norm": 16.4165798914, 
			 "total_energy": -894.792248339, 
			 "HOMO_LUMO_gap": 0.15582, 
			 "cosmo_polarized_energy": -11.63, 
			 "cosmo_cavitation_energy": 28.48, 
			 "cosmo_dispersion_energy": -21.76, 
			 "cosmo_repulsion_energy": 1.68, 
			 "cosmo_total_nonelectrostatic_energy": 8.4, 
			 "SMD_solvation_energy": 3.52 
		},
		"coords": [
			{
				"x": -4.3698965239,
				"y": 2.0874443974,
				"z": -0.9294865628,
				"element": "C" 
			},
			{
				"x": -2.8697489503,
				"y": 2.1063414323,
				"z": -0.9644867899,
				"element": "C" 
			},
			{
				"x": -2.0955671202,
				"y": 2.8985119878,
				"z": -1.7666600753,
				"element": "C" 
			},
			{
				"x": -0.4117008824,
				"y": 2.594115805,
				"z": -1.4788024748,
				"element": "S" 
			},
			{
				"x": -0.8752248768,
				"y": 1.3876734402,
				"z": -0.2652335059,
				"element": "C" 
			},
			{
				"x": -2.1698509259,
				"y": 1.26419928,
				"z": -0.1279766692,
				"element": "N" 
			},
			{
				"x": 0.1110497631,
				"y": 0.6184342699,
				"z": 0.4955207998,
				"element": "C" 
			},
			{
				"x": 1.4960284007,
				"y": 0.7722896405,
				"z": 0.3192494978,
				"element": "C" 
			},
			{
				"x": 2.4045141787,
				"y": 0.023628031,
				"z": 1.05531585,
				"element": "C" 
			},
			{
				"x": 1.9583326819,
				"y": -0.9147103528,
				"z": 2.0039626919,
				"element": "C" 
			},
			{
				"x": 2.8635909592,
				"y": -1.6285134982,
				"z": 2.7811323436,
				"element": "N" 
			},
			{
				"x": 0.5706893897,
				"y": -1.0717981431,
				"z": 2.1851435529,
				"element": "C" 
			},
			{
				"x": -0.330546416,
				"y": -0.320851808,
				"z": 1.4462841241,
				"element": "C" 
			},
			{
				"x": -4.7362476868,
				"y": 2.3362510324,
				"z": 0.0723721531,
				"element": "H" 
			},
			{
				"x": -4.7497827809,
				"y": 1.0894358007,
				"z": -1.173517653,
				"element": "H" 
			},
			{
				"x": -4.7929100163,
				"y": 2.8020010524,
				"z": -1.6400032536,
				"element": "H" 
			},
			{
				"x": -2.4133670307,
				"y": 3.6298922693,
				"z": -2.4959323747,
				"element": "H" 
			},
			{
				"x": 1.8768186635,
				"y": 1.4860265061,
				"z": -0.40648149,
				"element": "H" 
			},
			{
				"x": 3.4713630789,
				"y": 0.1649010411,
				"z": 0.9016922289,
				"element": "H" 
			},
			{
				"x": 3.7934773687,
				"y": -1.7265221703,
				"z": 2.3990378495,
				"element": "H" 
			},
			{
				"x": 2.5169184029,
				"y": -2.4867407618,
				"z": 3.1855917373,
				"element": "H" 
			},
			{
				"x": 0.2050798982,
				"y": -1.7887533683,
				"z": 2.916341885,
				"element": "H" 
			},
			{
				"x": -1.3980195752,
				"y": -0.4483558837,
				"z": 1.5888361352,
				"element": "H" 
			}
		],
		 "valence_orbital": [ 
			{
				"type": "occ",
				"energy": -0.27035,
				"method": "rhf"
			},
			{
				"type": "occ",
				"energy": -0.25991,
				"method": "rhf"
			},
			{
				"type": "occ",
				"energy": -0.25038,
				"method": "rhf"
			},
			{
				"type": "occ",
				"energy": -0.24054,
				"method": "rhf"
			},
			{
				"type": "occ",
				"energy": -0.19084,
				"method": "rhf"
			},
			{
				"type": "unocc",
				"energy": -0.03502,
				"method": "rhf"
			},
			{
				"type": "unocc",
				"energy": 0.00047,
				"method": "rhf"
			},
			{
				"type": "unocc",
				"energy": 0.0316,
				"method": "rhf"
			},
			{
				"type": "unocc",
				"energy": 0.03792,
				"method": "rhf"
			},
			{
				"type": "unocc",
				"energy": 0.07103,
				"method": "rhf"
			}
		],
		"cosmo_sigma_profile": { 
			"-0.025": 0.0,
			"-0.024": 0.0,
			"-0.023": 0.0,
			"-0.022": 0.0,
			"-0.021": 0.0,
			"-0.02": 0.0,
			"-0.019": 0.0,
			"-0.018": 0.0,
			"-0.017": 0.0,
			"-0.016": 0.0,
			"-0.015": 0.0,
			"-0.014": 0.0,
			"-0.013": 1.45002231313,
			"-0.012": 2.69661677826,
			"-0.011": 2.79978661343,
			"-0.01": 3.64608453905,
			"-0.009": 2.92547189771,
			"-0.008": 5.07420064101,
			"-0.007": 5.49498875497,
			"-0.006": 7.3077984218,
			"-0.005": 11.2268464113,
			"-0.004": 15.4542838916,
			"-0.003": 13.5567249168,
			"-0.002": 15.1792055797,
			"-0.001": 14.1642124699,
			"0.0": 14.9419636885,
			"0.001": 14.7910283993,
			"0.002": 17.6487659581,
			"0.003": 19.043059127,
			"0.004": 22.2509592608,
			"0.005": 17.7908985311,
			"0.006": 7.51085898005,
			"0.007": 2.95302162427,
			"0.008": 2.07771108075,
			"0.009": 2.51716649527,
			"0.01": 2.10191648273,
			"0.011": 1.84278036392,
			"0.012": 1.81137053657,
			"0.013": 1.03511850928,
			"0.014": 0.084598333692,
			"0.015": 0.0,
			"0.016": 0.0,
			"0.017": 0.0,
			"0.018": 0.0,
			"0.019": 0.0,
			"0.02": 0.0,
			"0.021": 0.0,
			"0.022": 0.0,
			"0.023": 0.0,
			"0.024": 0.0,
			"0.025": 0.0
		}
	}
}
