{
	 "smiles": "NC1=C(Br)C=C(F)C=C1Br", 
	 "Tm": 338.15, 
	 "num_atms": 14, 
	 "gaussian": { 
		 "optdone": 1, 
		 "sigma_profile": "yes", 
		 "theory": "DFT", 
		 "functional": "B3LYP", 
		 "basiset": "6-31G**", 
		 "properties": { 
			 "R2extent": 3825.2463, 
			 "electric_dipole_moment_norm": 1.56771103843, 
			 "electric_quadrupole_moment_norm": 4.54578854876, 
			 "total_energy": -5528.44348787, 
			 "HOMO_LUMO_gap": 0.18557, 
			 "cosmo_polarized_energy": -5.56, 
			 "cosmo_cavitation_energy": 23.02, 
			 "cosmo_dispersion_energy": -18.08, 
			 "cosmo_repulsion_energy": 1.43, 
			 "cosmo_total_nonelectrostatic_energy": 6.38, 
			 "SMD_solvation_energy": 2.2 
		},
		"coords": [
			{
				"x": -0.3117075302,
				"y": -1.5450242485,
				"z": -0.8810050963,
				"element": "N" 
			},
			{
				"x": 0.2458635015,
				"y": -0.2851592256,
				"z": -0.8814940935,
				"element": "C" 
			},
			{
				"x": -0.5005396074,
				"y": 0.8703996182,
				"z": -1.2004975899,
				"element": "C" 
			},
			{
				"x": -2.3721436854,
				"y": 0.6899361527,
				"z": -1.5608634325,
				"element": "Br" 
			},
			{
				"x": 0.0596047638,
				"y": 2.1415910437,
				"z": -1.262453187,
				"element": "C" 
			},
			{
				"x": 1.4138595812,
				"y": 2.2837314936,
				"z": -0.9939560578,
				"element": "C" 
			},
			{
				"x": 1.9725427131,
				"y": 3.5105944406,
				"z": -1.0508193564,
				"element": "F" 
			},
			{
				"x": 2.2053021148,
				"y": 1.1921841996,
				"z": -0.66463155,
				"element": "C" 
			},
			{
				"x": 1.6143874789,
				"y": -0.0653903542,
				"z": -0.6112125984,
				"element": "C" 
			},
			{
				"x": 2.7145142048,
				"y": -1.56076941,
				"z": -0.1433160151,
				"element": "Br" 
			},
			{
				"x": -1.3166828295,
				"y": -1.5842520095,
				"z": -0.7920420851,
				"element": "H" 
			},
			{
				"x": 0.1957604688,
				"y": -2.2533637006,
				"z": -0.370950105,
				"element": "H" 
			},
			{
				"x": -0.5422873397,
				"y": 3.0063606365,
				"z": -1.5113853721,
				"element": "H" 
			},
			{
				"x": 3.2586261654,
				"y": 1.3245613634,
				"z": -0.4523734612,
				"element": "H" 
			}
		],
		 "valence_orbital": [ 
			{
				"type": "occ",
				"energy": -0.30863,
				"method": "rhf"
			},
			{
				"type": "occ",
				"energy": -0.30225,
				"method": "rhf"
			},
			{
				"type": "occ",
				"energy": -0.2998,
				"method": "rhf"
			},
			{
				"type": "occ",
				"energy": -0.25347,
				"method": "rhf"
			},
			{
				"type": "occ",
				"energy": -0.21565,
				"method": "rhf"
			},
			{
				"type": "unocc",
				"energy": -0.03008,
				"method": "rhf"
			},
			{
				"type": "unocc",
				"energy": -0.02594,
				"method": "rhf"
			},
			{
				"type": "unocc",
				"energy": 0.00037,
				"method": "rhf"
			},
			{
				"type": "unocc",
				"energy": 0.02039,
				"method": "rhf"
			},
			{
				"type": "unocc",
				"energy": 0.08911,
				"method": "rhf"
			}
		],
		"cosmo_sigma_profile": { 
			"-0.025": 0.0,
			"-0.024": 0.0,
			"-0.023": 0.0,
			"-0.022": 0.0,
			"-0.021": 0.0,
			"-0.02": 0.0,
			"-0.019": 0.0,
			"-0.018": 0.0,
			"-0.017": 0.0,
			"-0.016": 0.0,
			"-0.015": 0.0,
			"-0.014": 0.0,
			"-0.013": 0.0911949902424,
			"-0.012": 1.1306551149,
			"-0.011": 1.79278459524,
			"-0.01": 2.45110607935,
			"-0.009": 2.35067225886,
			"-0.008": 4.59837507406,
			"-0.007": 4.3699726928,
			"-0.006": 4.99609150173,
			"-0.005": 6.37775347724,
			"-0.004": 8.50323447102,
			"-0.003": 9.38228923108,
			"-0.002": 8.67678978681,
			"-0.001": 12.0292828077,
			"0.0": 17.6690300441,
			"0.001": 26.2802200566,
			"0.002": 28.3553548671,
			"0.003": 19.9300404058,
			"0.004": 24.0383672273,
			"0.005": 4.57224800022,
			"0.006": 0.742209850632,
			"0.007": 0.324645726939,
			"0.008": 0.683294949639,
			"0.009": 0.887416975088,
			"0.01": 0.485713257705,
			"0.011": 0.644061070869,
			"0.012": 0.231015159014,
			"0.013": 0.0,
			"0.014": 0.0,
			"0.015": 0.0,
			"0.016": 0.0,
			"0.017": 0.0,
			"0.018": 0.0,
			"0.019": 0.0,
			"0.02": 0.0,
			"0.021": 0.0,
			"0.022": 0.0,
			"0.023": 0.0,
			"0.024": 0.0,
			"0.025": 0.0
		}
	}
}
