{
	 "smiles": "CN1N=CC(C(O)=O)=C1C", 
	 "Tm": 443.15, 
	 "num_atms": 18, 
	 "gaussian": { 
		 "optdone": 1, 
		 "sigma_profile": "yes", 
		 "theory": "DFT", 
		 "functional": "B3LYP", 
		 "basiset": "6-31G**", 
		 "properties": { 
			 "R2extent": 1752.6044, 
			 "electric_dipole_moment_norm": 4.22353205031, 
			 "electric_quadrupole_moment_norm": 12.8464852049, 
			 "total_energy": -493.407260294, 
			 "HOMO_LUMO_gap": 0.23211, 
			 "cosmo_polarized_energy": -16.11, 
			 "cosmo_cavitation_energy": 22.0, 
			 "cosmo_dispersion_energy": -16.3, 
			 "cosmo_repulsion_energy": 1.31, 
			 "cosmo_total_nonelectrostatic_energy": 7.01, 
			 "SMD_solvation_energy": 4.34 
		},
		"coords": [
			{
				"x": 0.8959010693,
				"y": -2.7492436774,
				"z": 1.1059965396,
				"element": "C" 
			},
			{
				"x": 0.4056505888,
				"y": -1.9331417461,
				"z": 0.008696046,
				"element": "N" 
			},
			{
				"x": -0.2262457595,
				"y": -2.5348852409,
				"z": -1.0355174126,
				"element": "N" 
			},
			{
				"x": -0.5386068554,
				"y": -1.5397816654,
				"z": -1.8517387122,
				"element": "C" 
			},
			{
				"x": -0.113720106,
				"y": -0.2818699555,
				"z": -1.3469792812,
				"element": "C" 
			},
			{
				"x": -0.2594709415,
				"y": 1.0663188025,
				"z": -1.9219871936,
				"element": "C" 
			},
			{
				"x": -0.7955985756,
				"y": 1.1349805609,
				"z": -3.17311664,
				"element": "O" 
			},
			{
				"x": 0.059360241,
				"y": 2.0941391088,
				"z": -1.361787185,
				"element": "O" 
			},
			{
				"x": 0.4971047715,
				"y": -0.5867208975,
				"z": -0.1250396328,
				"element": "C" 
			},
			{
				"x": 1.148178731,
				"y": 0.2874473768,
				"z": 0.8959288403,
				"element": "C" 
			},
			{
				"x": 0.4320411698,
				"y": -2.4500023281,
				"z": 2.05062226,
				"element": "H" 
			},
			{
				"x": 1.9828057836,
				"y": -2.6643665337,
				"z": 1.1999641694,
				"element": "H" 
			},
			{
				"x": 0.6299407033,
				"y": -3.780866321,
				"z": 0.8808168868,
				"element": "H" 
			},
			{
				"x": -1.0710622864,
				"y": -1.7689319155,
				"z": -2.7676523021,
				"element": "H" 
			},
			{
				"x": -0.9526872407,
				"y": 0.2490571474,
				"z": -3.5263301868,
				"element": "H" 
			},
			{
				"x": 1.0816080262,
				"y": 1.323795692,
				"z": 0.5670468924,
				"element": "H" 
			},
			{
				"x": 2.2034094531,
				"y": 0.0227724152,
				"z": 1.0334814766,
				"element": "H" 
			},
			{
				"x": 0.6553912278,
				"y": 0.1942991777,
				"z": 1.8709954353,
				"element": "H" 
			}
		],
		 "valence_orbital": [ 
			{
				"type": "occ",
				"energy": -0.30973,
				"method": "rhf"
			},
			{
				"type": "occ",
				"energy": -0.30591,
				"method": "rhf"
			},
			{
				"type": "occ",
				"energy": -0.26738,
				"method": "rhf"
			},
			{
				"type": "occ",
				"energy": -0.2659,
				"method": "rhf"
			},
			{
				"type": "occ",
				"energy": -0.25356,
				"method": "rhf"
			},
			{
				"type": "unocc",
				"energy": -0.02145,
				"method": "rhf"
			},
			{
				"type": "unocc",
				"energy": 0.00951,
				"method": "rhf"
			},
			{
				"type": "unocc",
				"energy": 0.06042,
				"method": "rhf"
			},
			{
				"type": "unocc",
				"energy": 0.07848,
				"method": "rhf"
			},
			{
				"type": "unocc",
				"energy": 0.11453,
				"method": "rhf"
			}
		],
		"cosmo_sigma_profile": { 
			"-0.025": 0.0,
			"-0.024": 0.0,
			"-0.023": 0.0,
			"-0.022": 0.0,
			"-0.021": 0.0,
			"-0.02": 0.0,
			"-0.019": 0.0856670097489,
			"-0.018": 0.934925568755,
			"-0.017": 1.14213296406,
			"-0.016": 1.31665117258,
			"-0.015": 0.938437107517,
			"-0.014": 0.903437215333,
			"-0.013": 0.704198502085,
			"-0.012": 1.07804319122,
			"-0.011": 1.30220838058,
			"-0.01": 1.1264992486,
			"-0.009": 1.72805415416,
			"-0.008": 1.49423935218,
			"-0.007": 5.99848655305,
			"-0.006": 13.936603053,
			"-0.005": 12.2563572743,
			"-0.004": 12.735790716,
			"-0.003": 13.7126658837,
			"-0.002": 11.5132117555,
			"-0.001": 10.9080355119,
			"0.0": 8.8581034681,
			"0.001": 8.86452559041,
			"0.002": 8.76236991478,
			"0.003": 6.45219575791,
			"0.004": 5.35119302095,
			"0.005": 4.44848949112,
			"0.006": 4.24313212878,
			"0.007": 4.10031559836,
			"0.008": 3.40310927007,
			"0.009": 3.81776619835,
			"0.01": 5.37792112212,
			"0.011": 5.93874215199,
			"0.012": 5.33682783526,
			"0.013": 3.99388769973,
			"0.014": 1.69429360335,
			"0.015": 0.43940303342,
			"0.016": 0.0,
			"0.017": 0.0,
			"0.018": 0.0,
			"0.019": 0.0,
			"0.02": 0.0,
			"0.021": 0.0,
			"0.022": 0.0,
			"0.023": 0.0,
			"0.024": 0.0,
			"0.025": 0.0
		}
	}
}
