{
	 "smiles": "OC(=O)C=CC1=CC=CC(=C1)C(F)(F)F", 
	 "Tm": 409.15, 
	 "num_atms": 22, 
	 "gaussian": { 
		 "optdone": 1, 
		 "sigma_profile": "yes", 
		 "theory": "DFT", 
		 "functional": "B3LYP", 
		 "basiset": "6-31G**", 
		 "properties": { 
			 "R2extent": 5706.1519, 
			 "electric_dipole_moment_norm": 5.49083988202, 
			 "electric_quadrupole_moment_norm": 28.4694466358, 
			 "total_energy": -835.249465297, 
			 "HOMO_LUMO_gap": 0.17377, 
			 "cosmo_polarized_energy": -16.53, 
			 "cosmo_cavitation_energy": 29.09, 
			 "cosmo_dispersion_energy": -20.45, 
			 "cosmo_repulsion_energy": 1.54, 
			 "cosmo_total_nonelectrostatic_energy": 10.18, 
			 "SMD_solvation_energy": 7.45 
		},
		"coords": [
			{
				"x": -2.4533123843,
				"y": -0.1883372071,
				"z": 5.214866099,
				"element": "O" 
			},
			{
				"x": -3.0961230485,
				"y": -0.8582982288,
				"z": 4.2169063882,
				"element": "C" 
			},
			{
				"x": -4.0240745484,
				"y": -1.5888382912,
				"z": 4.4738754345,
				"element": "O" 
			},
			{
				"x": -2.6214179229,
				"y": -0.6354635251,
				"z": 2.8253336326,
				"element": "C" 
			},
			{
				"x": -1.973565247,
				"y": 0.466668217,
				"z": 2.4057147652,
				"element": "C" 
			},
			{
				"x": -1.5367752072,
				"y": 0.7791989627,
				"z": 1.0406687212,
				"element": "C" 
			},
			{
				"x": -0.9609880403,
				"y": 2.03508277,
				"z": 0.7831209764,
				"element": "C" 
			},
			{
				"x": -0.5337670645,
				"y": 2.3830378833,
				"z": -0.4974931267,
				"element": "C" 
			},
			{
				"x": -0.6692028024,
				"y": 1.4787745968,
				"z": -1.5473988492,
				"element": "C" 
			},
			{
				"x": -1.2364298167,
				"y": 0.2216699459,
				"z": -1.3032760444,
				"element": "C" 
			},
			{
				"x": -1.6654844616,
				"y": -0.1272158331,
				"z": -0.027258109,
				"element": "C" 
			},
			{
				"x": -1.3274504645,
				"y": -0.7734851834,
				"z": -2.4314628415,
				"element": "C" 
			},
			{
				"x": -0.1390539328,
				"y": -1.3819341028,
				"z": -2.64813345,
				"element": "F" 
			},
			{
				"x": -2.2317023737,
				"y": -1.7437202372,
				"z": -2.1814133136,
				"element": "F" 
			},
			{
				"x": -1.6779888894,
				"y": -0.1755423903,
				"z": -3.5912852397,
				"element": "F" 
			},
			{
				"x": -1.6288522629,
				"y": 0.1904003582,
				"z": 4.8799525705,
				"element": "H" 
			},
			{
				"x": -2.9333102532,
				"y": -1.4145571188,
				"z": 2.1372734858,
				"element": "H" 
			},
			{
				"x": -1.7591592477,
				"y": 1.25255557,
				"z": 3.130925126,
				"element": "H" 
			},
			{
				"x": -0.8545102205,
				"y": 2.7471627272,
				"z": 1.5973193141,
				"element": "H" 
			},
			{
				"x": -0.0978871623,
				"y": 3.3608597265,
				"z": -0.6763535152,
				"element": "H" 
			},
			{
				"x": -0.3467856475,
				"y": 1.7413168066,
				"z": -2.5492506048,
				"element": "H" 
			},
			{
				"x": -2.1035590017,
				"y": -1.1056354463,
				"z": 0.1310685806,
				"element": "H" 
			}
		],
		 "valence_orbital": [ 
			{
				"type": "occ",
				"energy": -0.33614,
				"method": "rhf"
			},
			{
				"type": "occ",
				"energy": -0.31741,
				"method": "rhf"
			},
			{
				"type": "occ",
				"energy": -0.28693,
				"method": "rhf"
			},
			{
				"type": "occ",
				"energy": -0.27721,
				"method": "rhf"
			},
			{
				"type": "occ",
				"energy": -0.25827,
				"method": "rhf"
			},
			{
				"type": "unocc",
				"energy": -0.0845,
				"method": "rhf"
			},
			{
				"type": "unocc",
				"energy": -0.0422,
				"method": "rhf"
			},
			{
				"type": "unocc",
				"energy": -0.00343,
				"method": "rhf"
			},
			{
				"type": "unocc",
				"energy": 0.05409,
				"method": "rhf"
			},
			{
				"type": "unocc",
				"energy": 0.06575,
				"method": "rhf"
			}
		],
		"cosmo_sigma_profile": { 
			"-0.025": 0.0,
			"-0.024": 0.0,
			"-0.023": 0.0,
			"-0.022": 0.0,
			"-0.021": 0.0,
			"-0.02": 0.0,
			"-0.019": 0.197694651906,
			"-0.018": 0.89377716987,
			"-0.017": 1.04868363416,
			"-0.016": 1.10867921773,
			"-0.015": 0.931167415213,
			"-0.014": 0.749214539962,
			"-0.013": 1.04152354243,
			"-0.012": 0.856790129104,
			"-0.011": 1.91634347234,
			"-0.01": 1.25604539467,
			"-0.009": 3.92961189304,
			"-0.008": 5.83402423526,
			"-0.007": 9.88949218182,
			"-0.006": 10.5630763464,
			"-0.005": 9.62811456584,
			"-0.004": 9.51519582818,
			"-0.003": 9.70254141412,
			"-0.002": 12.260092119,
			"-0.001": 13.2538158835,
			"0.0": 16.5133921198,
			"0.001": 23.601853129,
			"0.002": 33.7605202809,
			"0.003": 31.4360875413,
			"0.004": 2.7498980667,
			"0.005": 1.94646566385,
			"0.006": 2.71608046884,
			"0.007": 1.85568300286,
			"0.008": 2.67663115244,
			"0.009": 3.27462523589,
			"0.01": 4.3124845665,
			"0.011": 5.68022839669,
			"0.012": 5.72474645726,
			"0.013": 2.77868595875,
			"0.014": 0.184859839653,
			"0.015": 0.0,
			"0.016": 0.0,
			"0.017": 0.0,
			"0.018": 0.0,
			"0.019": 0.0,
			"0.02": 0.0,
			"0.021": 0.0,
			"0.022": 0.0,
			"0.023": 0.0,
			"0.024": 0.0,
			"0.025": 0.0
		}
	}
}
