{
	 "smiles": "S1C=CSC1=C1SC=CS1", 
	 "Tm": 391.15, 
	 "num_atms": 14, 
	 "gaussian": { 
		 "optdone": 1, 
		 "sigma_profile": "yes", 
		 "theory": "DFT", 
		 "functional": "B3LYP", 
		 "basiset": "6-31G**", 
		 "properties": { 
			 "R2extent": 2563.1689, 
			 "electric_dipole_moment_norm": 0.0, 
			 "electric_quadrupole_moment_norm": 17.8476646103, 
			 "total_energy": -1823.72656775, 
			 "HOMO_LUMO_gap": 0.13145, 
			 "cosmo_polarized_energy": -7.9, 
			 "cosmo_cavitation_energy": 24.1, 
			 "cosmo_dispersion_energy": -20.39, 
			 "cosmo_repulsion_energy": 1.44, 
			 "cosmo_total_nonelectrostatic_energy": 5.16, 
			 "SMD_solvation_energy": 4.14 
		},
		"coords": [
			{
				"x": 0.043065326,
				"y": -1.8522112957,
				"z": -0.7635043797,
				"element": "S" 
			},
			{
				"x": 1.2119142775,
				"y": -2.6649320483,
				"z": 0.2734449611,
				"element": "C" 
			},
			{
				"x": 1.8209123523,
				"y": -1.9448052216,
				"z": 1.2213519945,
				"element": "C" 
			},
			{
				"x": 1.4078706868,
				"y": -0.2383629653,
				"z": 1.3607982532,
				"element": "S" 
			},
			{
				"x": 0.228448654,
				"y": -0.2537761682,
				"z": 0.0166454866,
				"element": "C" 
			},
			{
				"x": -0.4588667398,
				"y": 0.840822069,
				"z": -0.3733556377,
				"element": "C" 
			},
			{
				"x": -0.2734829941,
				"y": 2.4392575087,
				"z": 0.4067943842,
				"element": "S" 
			},
			{
				"x": -1.4423473316,
				"y": 3.2519732608,
				"z": -0.6301403934,
				"element": "C" 
			},
			{
				"x": -2.0513452212,
				"y": 2.5318473325,
				"z": -1.5780484041,
				"element": "C" 
			},
			{
				"x": -1.6382886512,
				"y": 0.8254097218,
				"z": -1.7175082957,
				"element": "S" 
			},
			{
				"x": 1.3828873797,
				"y": -3.7190367424,
				"z": 0.0918080399,
				"element": "H" 
			},
			{
				"x": 2.5553353035,
				"y": -2.3326255853,
				"z": 1.916752094,
				"element": "H" 
			},
			{
				"x": -1.6133264324,
				"y": 4.3060757799,
				"z": -0.4484968593,
				"element": "H" 
			},
			{
				"x": -2.7857766094,
				"y": 2.919664354,
				"z": -2.2734412434,
				"element": "H" 
			}
		],
		 "valence_orbital": [ 
			{
				"type": "occ",
				"energy": -0.30602,
				"method": "rhf"
			},
			{
				"type": "occ",
				"energy": -0.28818,
				"method": "rhf"
			},
			{
				"type": "occ",
				"energy": -0.27731,
				"method": "rhf"
			},
			{
				"type": "occ",
				"energy": -0.23493,
				"method": "rhf"
			},
			{
				"type": "occ",
				"energy": -0.16595,
				"method": "rhf"
			},
			{
				"type": "unocc",
				"energy": -0.0345,
				"method": "rhf"
			},
			{
				"type": "unocc",
				"energy": -0.00377,
				"method": "rhf"
			},
			{
				"type": "unocc",
				"energy": 0.00475,
				"method": "rhf"
			},
			{
				"type": "unocc",
				"energy": 0.01169,
				"method": "rhf"
			},
			{
				"type": "unocc",
				"energy": 0.01291,
				"method": "rhf"
			}
		],
		"cosmo_sigma_profile": { 
			"-0.025": 0.0,
			"-0.024": 0.0,
			"-0.023": 0.0,
			"-0.022": 0.0,
			"-0.021": 0.0,
			"-0.02": 0.0,
			"-0.019": 0.0,
			"-0.018": 0.0,
			"-0.017": 0.0,
			"-0.016": 0.0,
			"-0.015": 0.0,
			"-0.014": 0.0,
			"-0.013": 0.0,
			"-0.012": 0.0,
			"-0.011": 0.0,
			"-0.01": 3.94007772273,
			"-0.009": 9.51915759435,
			"-0.008": 7.90501099943,
			"-0.007": 6.73618238696,
			"-0.006": 8.58234254229,
			"-0.005": 6.30051982167,
			"-0.004": 5.8926651274,
			"-0.003": 6.39021108739,
			"-0.002": 5.80324390305,
			"-0.001": 8.09723009024,
			"0.0": 10.845259003,
			"0.001": 20.8251065516,
			"0.002": 26.2811336668,
			"0.003": 30.3009030655,
			"0.004": 24.48713589,
			"0.005": 12.5073662505,
			"0.006": 8.05052257906,
			"0.007": 0.478516402993,
			"0.008": 0.0,
			"0.009": 0.0,
			"0.01": 0.0,
			"0.011": 0.0,
			"0.012": 0.0,
			"0.013": 0.0,
			"0.014": 0.0,
			"0.015": 0.0,
			"0.016": 0.0,
			"0.017": 0.0,
			"0.018": 0.0,
			"0.019": 0.0,
			"0.02": 0.0,
			"0.021": 0.0,
			"0.022": 0.0,
			"0.023": 0.0,
			"0.024": 0.0,
			"0.025": 0.0
		}
	}
}
