{
	 "smiles": "O=CC1=CN2C=CC=CC2=N1", 
	 "Tm": 351.65, 
	 "num_atms": 17, 
	 "gaussian": { 
		 "optdone": 1, 
		 "sigma_profile": "yes", 
		 "theory": "DFT", 
		 "functional": "B3LYP", 
		 "basiset": "6-31G**", 
		 "properties": { 
			 "R2extent": 1833.3328, 
			 "electric_dipole_moment_norm": 5.24795147653, 
			 "electric_quadrupole_moment_norm": 6.25917661598, 
			 "total_energy": -493.174741316, 
			 "HOMO_LUMO_gap": 0.16243, 
			 "cosmo_polarized_energy": -12.51, 
			 "cosmo_cavitation_energy": 22.05, 
			 "cosmo_dispersion_energy": -16.36, 
			 "cosmo_repulsion_energy": 1.29, 
			 "cosmo_total_nonelectrostatic_energy": 6.98, 
			 "SMD_solvation_energy": 3.69 
		},
		"coords": [
			{
				"x": 1.3090132315,
				"y": 3.2646681261,
				"z": 0.1032590245,
				"element": "O" 
			},
			{
				"x": 1.7684840065,
				"y": 2.1454461344,
				"z": 0.2449586613,
				"element": "C" 
			},
			{
				"x": 0.9516379239,
				"y": 0.9249460079,
				"z": 0.3012352307,
				"element": "C" 
			},
			{
				"x": -0.4308329078,
				"y": 0.8539744217,
				"z": 0.205760581,
				"element": "C" 
			},
			{
				"x": -0.731073628,
				"y": -0.4789550607,
				"z": 0.311076154,
				"element": "N" 
			},
			{
				"x": -1.9369711678,
				"y": -1.1446232755,
				"z": 0.2855695972,
				"element": "C" 
			},
			{
				"x": -1.9493310058,
				"y": -2.5029433239,
				"z": 0.414596187,
				"element": "C" 
			},
			{
				"x": -0.7313338055,
				"y": -3.2293026274,
				"z": 0.5741738818,
				"element": "C" 
			},
			{
				"x": 0.4718117818,
				"y": -2.5708120128,
				"z": 0.6001830434,
				"element": "C" 
			},
			{
				"x": 0.5010448186,
				"y": -1.160609875,
				"z": 0.4674299046,
				"element": "C" 
			},
			{
				"x": 1.5188812563,
				"y": -0.3103596753,
				"z": 0.4613887091,
				"element": "N" 
			},
			{
				"x": 2.8580227297,
				"y": 1.9605377785,
				"z": 0.3424367907,
				"element": "H" 
			},
			{
				"x": -1.1798706678,
				"y": 1.6187688014,
				"z": 0.0771719969,
				"element": "H" 
			},
			{
				"x": -2.8236432139,
				"y": -0.5350268697,
				"z": 0.1616827947,
				"element": "H" 
			},
			{
				"x": -2.9008289092,
				"y": -3.0217922364,
				"z": 0.3938650423,
				"element": "H" 
			},
			{
				"x": -0.7648519976,
				"y": -4.3089387807,
				"z": 0.6749858382,
				"element": "H" 
			},
			{
				"x": 1.4170415553,
				"y": -3.0872775325,
				"z": 0.7195265628,
				"element": "H" 
			}
		],
		 "valence_orbital": [ 
			{
				"type": "occ",
				"energy": -0.33567,
				"method": "rhf"
			},
			{
				"type": "occ",
				"energy": -0.28764,
				"method": "rhf"
			},
			{
				"type": "occ",
				"energy": -0.25756,
				"method": "rhf"
			},
			{
				"type": "occ",
				"energy": -0.24992,
				"method": "rhf"
			},
			{
				"type": "occ",
				"energy": -0.22553,
				"method": "rhf"
			},
			{
				"type": "unocc",
				"energy": -0.0631,
				"method": "rhf"
			},
			{
				"type": "unocc",
				"energy": -0.02974,
				"method": "rhf"
			},
			{
				"type": "unocc",
				"energy": 0.00174,
				"method": "rhf"
			},
			{
				"type": "unocc",
				"energy": 0.07683,
				"method": "rhf"
			},
			{
				"type": "unocc",
				"energy": 0.10363,
				"method": "rhf"
			}
		],
		"cosmo_sigma_profile": { 
			"-0.025": 0.0,
			"-0.024": 0.0,
			"-0.023": 0.0,
			"-0.022": 0.0,
			"-0.021": 0.0,
			"-0.02": 0.0,
			"-0.019": 0.0,
			"-0.018": 0.0,
			"-0.017": 0.0,
			"-0.016": 0.0,
			"-0.015": 0.0,
			"-0.014": 0.0,
			"-0.013": 0.0,
			"-0.012": 0.00710751802187,
			"-0.011": 1.12544551025,
			"-0.01": 3.3824873562,
			"-0.009": 4.19404274663,
			"-0.008": 4.68181826511,
			"-0.007": 9.27144093329,
			"-0.006": 11.6354467909,
			"-0.005": 9.62070874754,
			"-0.004": 9.49631019251,
			"-0.003": 10.0488173874,
			"-0.002": 12.3289977009,
			"-0.001": 12.1554591955,
			"0.0": 13.8548326654,
			"0.001": 14.8510882658,
			"0.002": 15.301856059,
			"0.003": 9.77067010272,
			"0.004": 3.53192995879,
			"0.005": 3.97217204472,
			"0.006": 2.82145001282,
			"0.007": 2.41091038202,
			"0.008": 2.92622188229,
			"0.009": 2.27493377841,
			"0.01": 4.23701897916,
			"0.011": 5.54951310538,
			"0.012": 3.97250409011,
			"0.013": 2.00600506833,
			"0.014": 1.11798080907,
			"0.015": 0.467520956332,
			"0.016": 1.1278651093,
			"0.017": 0.202143033987,
			"0.018": 0.0,
			"0.019": 0.0,
			"0.02": 0.0,
			"0.021": 0.0,
			"0.022": 0.0,
			"0.023": 0.0,
			"0.024": 0.0,
			"0.025": 0.0
		}
	}
}
