{
	 "smiles": "CC1=C(C)C(Cl)=NC(NC(=O)NS(=O)(=O)C2=CC=CS2)=N1", 
	 "Tm": 475.15, 
	 "num_atms": 32, 
	 "gaussian": { 
		 "optdone": 1, 
		 "sigma_profile": "yes", 
		 "theory": "DFT", 
		 "functional": "B3LYP", 
		 "basiset": "6-31G**", 
		 "properties": { 
			 "R2extent": 9807.5045, 
			 "electric_dipole_moment_norm": 4.70875865701, 
			 "electric_quadrupole_moment_norm": 32.8991941257, 
			 "total_energy": -2126.99215287, 
			 "HOMO_LUMO_gap": 0.18275, 
			 "cosmo_polarized_energy": -21.74, 
			 "cosmo_cavitation_energy": 42.33, 
			 "cosmo_dispersion_energy": -30.53, 
			 "cosmo_repulsion_energy": 2.28, 
			 "cosmo_total_nonelectrostatic_energy": 14.08, 
			 "SMD_solvation_energy": 4.99 
		},
		"coords": [
			{
				"x": 2.1687588972,
				"y": -2.1122358602,
				"z": 3.4122199367,
				"element": "C" 
			},
			{
				"x": 1.1575189683,
				"y": -1.9739343366,
				"z": 2.3014535926,
				"element": "C" 
			},
			{
				"x": 0.5022488892,
				"y": -3.0896896274,
				"z": 1.737410206,
				"element": "C" 
			},
			{
				"x": 0.7343513726,
				"y": -4.5081748481,
				"z": 2.1840196992,
				"element": "C" 
			},
			{
				"x": -0.3884048695,
				"y": -2.7585897073,
				"z": 0.7083206036,
				"element": "C" 
			},
			{
				"x": -1.2644752266,
				"y": -4.0474283541,
				"z": -0.1132693808,
				"element": "Cl" 
			},
			{
				"x": -0.6370575386,
				"y": -1.5379892014,
				"z": 0.273583166,
				"element": "N" 
			},
			{
				"x": 0.0274620283,
				"y": -0.5677835199,
				"z": 0.9000343939,
				"element": "C" 
			},
			{
				"x": -0.1532838812,
				"y": 0.7606119011,
				"z": 0.5164245091,
				"element": "N" 
			},
			{
				"x": -1.1507804986,
				"y": 1.2757064175,
				"z": -0.2834268252,
				"element": "C" 
			},
			{
				"x": -2.1022853094,
				"y": 0.6910086447,
				"z": -0.7492451413,
				"element": "O" 
			},
			{
				"x": -1.0241537569,
				"y": 2.6779128756,
				"z": -0.5193514111,
				"element": "N" 
			},
			{
				"x": 0.317491971,
				"y": 3.7074409186,
				"z": -0.4670421135,
				"element": "S" 
			},
			{
				"x": 1.1247557534,
				"y": 3.272185023,
				"z": 0.6768708245,
				"element": "O" 
			},
			{
				"x": -0.2369041879,
				"y": 5.0507474918,
				"z": -0.5825820269,
				"element": "O" 
			},
			{
				"x": 1.2548339182,
				"y": 3.3982649014,
				"z": -1.9311448536,
				"element": "C" 
			},
			{
				"x": 1.1571934197,
				"y": 4.1159098499,
				"z": -3.0982985152,
				"element": "C" 
			},
			{
				"x": 2.0228663387,
				"y": 3.6116908666,
				"z": -4.1078364577,
				"element": "C" 
			},
			{
				"x": 2.7510752919,
				"y": 2.5296383993,
				"z": -3.6848249219,
				"element": "C" 
			},
			{
				"x": 2.4117967476,
				"y": 2.1023426095,
				"z": -2.0446038878,
				"element": "S" 
			},
			{
				"x": 0.9181463046,
				"y": -0.7230460267,
				"z": 1.8862869898,
				"element": "N" 
			},
			{
				"x": 3.0097739567,
				"y": -2.7460758545,
				"z": 3.1111008711,
				"element": "H" 
			},
			{
				"x": 1.7219595308,
				"y": -2.5659557228,
				"z": 4.3036169474,
				"element": "H" 
			},
			{
				"x": 2.5475889527,
				"y": -1.1241229412,
				"z": 3.6742679552,
				"element": "H" 
			},
			{
				"x": -0.201222523,
				"y": -4.976190568,
				"z": 2.5074680552,
				"element": "H" 
			},
			{
				"x": 1.1264802944,
				"y": -5.1205522673,
				"z": 1.3648189162,
				"element": "H" 
			},
			{
				"x": 1.4417742318,
				"y": -4.5588506918,
				"z": 3.0122417526,
				"element": "H" 
			},
			{
				"x": 0.460188959,
				"y": 1.4193638146,
				"z": 0.9908589471,
				"element": "H" 
			},
			{
				"x": -1.7805482971,
				"y": 3.0300569277,
				"z": -1.0972900643,
				"element": "H" 
			},
			{
				"x": 0.5018382883,
				"y": 4.9710764058,
				"z": -3.2087247179,
				"element": "H" 
			},
			{
				"x": 2.1058628017,
				"y": 4.0373801476,
				"z": -5.1006883647,
				"element": "H" 
			},
			{
				"x": 3.4841491726,
				"y": 1.9607823326,
				"z": -4.2409686843,
				"element": "H" 
			}
		],
		 "valence_orbital": [ 
			{
				"type": "occ",
				"energy": -0.28337,
				"method": "rhf"
			},
			{
				"type": "occ",
				"energy": -0.28054,
				"method": "rhf"
			},
			{
				"type": "occ",
				"energy": -0.26631,
				"method": "rhf"
			},
			{
				"type": "occ",
				"energy": -0.26034,
				"method": "rhf"
			},
			{
				"type": "occ",
				"energy": -0.24654,
				"method": "rhf"
			},
			{
				"type": "unocc",
				"energy": -0.06379,
				"method": "rhf"
			},
			{
				"type": "unocc",
				"energy": -0.04187,
				"method": "rhf"
			},
			{
				"type": "unocc",
				"energy": -0.03312,
				"method": "rhf"
			},
			{
				"type": "unocc",
				"energy": 0.00099,
				"method": "rhf"
			},
			{
				"type": "unocc",
				"energy": 0.0198,
				"method": "rhf"
			}
		],
		"cosmo_sigma_profile": { 
			"-0.025": 0.0,
			"-0.024": 0.0,
			"-0.023": 0.0,
			"-0.022": 0.0,
			"-0.021": 0.0,
			"-0.02": 0.0,
			"-0.019": 0.0,
			"-0.018": 0.0,
			"-0.017": 0.377405089805,
			"-0.016": 1.09026647316,
			"-0.015": 1.13842036914,
			"-0.014": 0.367273126024,
			"-0.013": 0.491496176727,
			"-0.012": 1.05666101016,
			"-0.011": 0.784845435512,
			"-0.01": 3.44597789114,
			"-0.009": 4.12983421374,
			"-0.008": 5.91021908967,
			"-0.007": 7.1276103221,
			"-0.006": 13.0849118215,
			"-0.005": 21.7106715759,
			"-0.004": 20.8949332917,
			"-0.003": 28.0749798922,
			"-0.002": 34.0026958714,
			"-0.001": 37.8243457903,
			"0.0": 25.3319848515,
			"0.001": 25.1965194426,
			"0.002": 22.6462852419,
			"0.003": 17.1784307851,
			"0.004": 10.510329348,
			"0.005": 9.33108641737,
			"0.006": 6.10087012392,
			"0.007": 6.02530411512,
			"0.008": 6.55412369178,
			"0.009": 10.1322667487,
			"0.01": 8.96037090492,
			"0.011": 5.24325659468,
			"0.012": 4.1531012739,
			"0.013": 1.38595218838,
			"0.014": 1.25389111623,
			"0.015": 1.13306404345,
			"0.016": 1.10069508637,
			"0.017": 0.127348542994,
			"0.018": 0.0,
			"0.019": 0.0,
			"0.02": 0.0,
			"0.021": 0.0,
			"0.022": 0.0,
			"0.023": 0.0,
			"0.024": 0.0,
			"0.025": 0.0
		}
	}
}
