{
	 "smiles": "COCCOC1=C(N)C=C(C=C1)C(F)(F)F", 
	 "Tm": 318.15, 
	 "num_atms": 28, 
	 "gaussian": { 
		 "optdone": 1, 
		 "sigma_profile": "yes", 
		 "theory": "DFT", 
		 "functional": "B3LYP", 
		 "basiset": "6-31G**", 
		 "properties": { 
			 "R2extent": 6516.9661, 
			 "electric_dipole_moment_norm": 4.63324511007, 
			 "electric_quadrupole_moment_norm": 18.1684011294, 
			 "total_energy": -893.000386471, 
			 "HOMO_LUMO_gap": 0.19518, 
			 "cosmo_polarized_energy": -12.14, 
			 "cosmo_cavitation_energy": 33.27, 
			 "cosmo_dispersion_energy": -23.35, 
			 "cosmo_repulsion_energy": 1.79, 
			 "cosmo_total_nonelectrostatic_energy": 11.72, 
			 "SMD_solvation_energy": 7.46 
		},
		"coords": [
			{
				"x": -3.6666941914,
				"y": -2.333539915,
				"z": -0.1434104818,
				"element": "C" 
			},
			{
				"x": -2.4895884736,
				"y": -3.1065739531,
				"z": -0.0133547149,
				"element": "O" 
			},
			{
				"x": -1.8789082002,
				"y": -3.4524548036,
				"z": -1.2393696205,
				"element": "C" 
			},
			{
				"x": -1.1046249994,
				"y": -2.3151192588,
				"z": -1.8955913729,
				"element": "C" 
			},
			{
				"x": -0.0535866686,
				"y": -1.946570418,
				"z": -1.0136834854,
				"element": "O" 
			},
			{
				"x": 0.7386128697,
				"y": -0.8766307625,
				"z": -1.330014025,
				"element": "C" 
			},
			{
				"x": 1.6332437495,
				"y": -0.4970827573,
				"z": -0.2954770553,
				"element": "C" 
			},
			{
				"x": 1.664643277,
				"y": -1.2481259272,
				"z": 0.8723905862,
				"element": "N" 
			},
			{
				"x": 2.4804094381,
				"y": 0.5881424824,
				"z": -0.5201899495,
				"element": "C" 
			},
			{
				"x": 2.4491072216,
				"y": 1.2821857062,
				"z": -1.7364651839,
				"element": "C" 
			},
			{
				"x": 1.5701487144,
				"y": 0.9014020868,
				"z": -2.7453287925,
				"element": "C" 
			},
			{
				"x": 0.7122732114,
				"y": -0.1847412375,
				"z": -2.5368122707,
				"element": "C" 
			},
			{
				"x": 3.3320021125,
				"y": 2.4833351635,
				"z": -1.9101336439,
				"element": "C" 
			},
			{
				"x": 2.8040119541,
				"y": 3.5889876786,
				"z": -1.327025295,
				"element": "F" 
			},
			{
				"x": 4.5504617789,
				"y": 2.3024245363,
				"z": -1.3467658685,
				"element": "F" 
			},
			{
				"x": 3.5310042782,
				"y": 2.7886874508,
				"z": -3.2121659615,
				"element": "F" 
			},
			{
				"x": -3.4758993282,
				"y": -1.3297581843,
				"z": -0.5505657635,
				"element": "H" 
			},
			{
				"x": -4.0857218602,
				"y": -2.2225124551,
				"z": 0.8593731625,
				"element": "H" 
			},
			{
				"x": -4.4102247109,
				"y": -2.8320967442,
				"z": -0.7852258042,
				"element": "H" 
			},
			{
				"x": -1.1819260978,
				"y": -4.2652605575,
				"z": -1.0118548485,
				"element": "H" 
			},
			{
				"x": -2.6217396148,
				"y": -3.8298486901,
				"z": -1.9623176353,
				"element": "H" 
			},
			{
				"x": -0.7006890019,
				"y": -2.6639482763,
				"z": -2.8574952475,
				"element": "H" 
			},
			{
				"x": -1.7503117946,
				"y": -1.4491508215,
				"z": -2.0963666851,
				"element": "H" 
			},
			{
				"x": 2.0040099863,
				"y": -0.7661059032,
				"z": 1.692123071,
				"element": "H" 
			},
			{
				"x": 0.8296985377,
				"y": -1.7935437641,
				"z": 1.037975319,
				"element": "H" 
			},
			{
				"x": 3.1785071626,
				"y": 0.8883720533,
				"z": 0.2552767362,
				"element": "H" 
			},
			{
				"x": 1.5528647919,
				"y": 1.4362641812,
				"z": -3.6873114641,
				"element": "H" 
			},
			{
				"x": 0.0304158579,
				"y": -0.4837369097,
				"z": -3.3243137054,
				"element": "H" 
			}
		],
		 "valence_orbital": [ 
			{
				"type": "occ",
				"energy": -0.32005,
				"method": "rhf"
			},
			{
				"type": "occ",
				"energy": -0.31394,
				"method": "rhf"
			},
			{
				"type": "occ",
				"energy": -0.26712,
				"method": "rhf"
			},
			{
				"type": "occ",
				"energy": -0.24093,
				"method": "rhf"
			},
			{
				"type": "occ",
				"energy": -0.20008,
				"method": "rhf"
			},
			{
				"type": "unocc",
				"energy": -0.0049,
				"method": "rhf"
			},
			{
				"type": "unocc",
				"energy": 0.00714,
				"method": "rhf"
			},
			{
				"type": "unocc",
				"energy": 0.07229,
				"method": "rhf"
			},
			{
				"type": "unocc",
				"energy": 0.08399,
				"method": "rhf"
			},
			{
				"type": "unocc",
				"energy": 0.10031,
				"method": "rhf"
			}
		],
		"cosmo_sigma_profile": { 
			"-0.025": 0.0,
			"-0.024": 0.0,
			"-0.023": 0.0,
			"-0.022": 0.0,
			"-0.021": 0.0,
			"-0.02": 0.0,
			"-0.019": 0.0,
			"-0.018": 0.0,
			"-0.017": 0.0,
			"-0.016": 0.0,
			"-0.015": 0.0,
			"-0.014": 0.0,
			"-0.013": 0.616889336282,
			"-0.012": 1.38634959421,
			"-0.011": 1.59825861487,
			"-0.01": 2.7560917051,
			"-0.009": 2.07952843282,
			"-0.008": 2.8683577669,
			"-0.007": 4.16609098728,
			"-0.006": 13.1848186262,
			"-0.005": 23.1366822912,
			"-0.004": 22.540372762,
			"-0.003": 17.5960420996,
			"-0.002": 17.9878163552,
			"-0.001": 11.4434987118,
			"0.0": 10.8739522413,
			"0.001": 14.3805208163,
			"0.002": 18.7056139166,
			"0.003": 41.0650920903,
			"0.004": 24.563741768,
			"0.005": 10.1384851918,
			"0.006": 3.97144366292,
			"0.007": 3.77482228251,
			"0.008": 3.45012344317,
			"0.009": 1.64929737347,
			"0.01": 2.04991485563,
			"0.011": 2.56685279405,
			"0.012": 2.01130987459,
			"0.013": 1.91661098213,
			"0.014": 0.606269717196,
			"0.015": 0.0412630815977,
			"0.016": 0.0,
			"0.017": 0.0,
			"0.018": 0.0,
			"0.019": 0.0,
			"0.02": 0.0,
			"0.021": 0.0,
			"0.022": 0.0,
			"0.023": 0.0,
			"0.024": 0.0,
			"0.025": 0.0
		}
	}
}
