{
	 "smiles": "O=N(=O)C(N(=O)=O)N(=O)=O", 
	 "Tm": 288.15, 
	 "num_atms": 11, 
	 "gaussian": { 
		 "optdone": 1, 
		 "sigma_profile": "yes", 
		 "theory": "DFT", 
		 "functional": "B3LYP", 
		 "basiset": "6-31G**", 
		 "properties": { 
			 "R2extent": 1259.3, 
			 "electric_dipole_moment_norm": 2.23805713511, 
			 "electric_quadrupole_moment_norm": 6.08498742809, 
			 "total_energy": -653.945304467, 
			 "HOMO_LUMO_gap": 0.21431, 
			 "cosmo_polarized_energy": -10.93, 
			 "cosmo_cavitation_energy": 18.86, 
			 "cosmo_dispersion_energy": -12.87, 
			 "cosmo_repulsion_energy": 1.07, 
			 "cosmo_total_nonelectrostatic_energy": 7.07, 
			 "SMD_solvation_energy": 9.94 
		},
		"coords": [
			{
				"x": -2.2226609166,
				"y": 0.4218175347,
				"z": -1.6748532615,
				"element": "O" 
			},
			{
				"x": -1.1954339035,
				"y": -0.2133267329,
				"z": -1.4997905377,
				"element": "N" 
			},
			{
				"x": -0.9706014185,
				"y": -1.3836358522,
				"z": -1.7453890574,
				"element": "O" 
			},
			{
				"x": -0.0821069411,
				"y": 0.5999514836,
				"z": -0.8667481214,
				"element": "C" 
			},
			{
				"x": -0.3497740483,
				"y": 0.7553505536,
				"z": 0.6184725985,
				"element": "N" 
			},
			{
				"x": -1.1405322062,
				"y": -0.0128294631,
				"z": 1.1333599066,
				"element": "O" 
			},
			{
				"x": 0.2963875729,
				"y": 1.6507416343,
				"z": 1.1381118244,
				"element": "O" 
			},
			{
				"x": 1.2429947238,
				"y": -0.1099812217,
				"z": -1.0710807015,
				"element": "N" 
			},
			{
				"x": 1.7040340742,
				"y": -0.7275811262,
				"z": -0.1295297119,
				"element": "O" 
			},
			{
				"x": 1.6919056717,
				"y": 0.0131492946,
				"z": -2.1991718786,
				"element": "O" 
			},
			{
				"x": -0.0420126085,
				"y": 1.5805438953,
				"z": -1.3311810596,
				"element": "H" 
			}
		],
		 "valence_orbital": [ 
			{
				"type": "occ",
				"energy": -0.36553,
				"method": "rhf"
			},
			{
				"type": "occ",
				"energy": -0.36553,
				"method": "rhf"
			},
			{
				"type": "occ",
				"energy": -0.35193,
				"method": "rhf"
			},
			{
				"type": "occ",
				"energy": -0.3472,
				"method": "rhf"
			},
			{
				"type": "occ",
				"energy": -0.3472,
				"method": "rhf"
			},
			{
				"type": "unocc",
				"energy": -0.13289,
				"method": "rhf"
			},
			{
				"type": "unocc",
				"energy": -0.13288,
				"method": "rhf"
			},
			{
				"type": "unocc",
				"energy": -0.12373,
				"method": "rhf"
			},
			{
				"type": "unocc",
				"energy": 0.05858,
				"method": "rhf"
			},
			{
				"type": "unocc",
				"energy": 0.05859,
				"method": "rhf"
			}
		],
		"cosmo_sigma_profile": { 
			"-0.025": 0.0,
			"-0.024": 0.0,
			"-0.023": 0.0,
			"-0.022": 0.0,
			"-0.021": 0.0,
			"-0.02": 0.0,
			"-0.019": 0.0,
			"-0.018": 0.0,
			"-0.017": 1.62333809883,
			"-0.016": 2.52897906562,
			"-0.015": 2.04374452668,
			"-0.014": 1.54063629668,
			"-0.013": 2.16689734234,
			"-0.012": 1.72342204737,
			"-0.011": 2.12370613976,
			"-0.01": 1.84515622068,
			"-0.009": 1.74560040366,
			"-0.008": 2.1856312048,
			"-0.007": 2.83412529108,
			"-0.006": 3.20109253587,
			"-0.005": 3.16495862481,
			"-0.004": 2.43125312327,
			"-0.003": 5.20438111915,
			"-0.002": 8.46730134202,
			"-0.001": 8.0965129472,
			"0.0": 8.59946947539,
			"0.001": 8.89597801672,
			"0.002": 9.76058706882,
			"0.003": 14.4960623653,
			"0.004": 26.1464802073,
			"0.005": 18.5458007752,
			"0.006": 9.99084372753,
			"0.007": 2.1297198859,
			"0.008": 0.0,
			"0.009": 0.0,
			"0.01": 0.0,
			"0.011": 0.0,
			"0.012": 0.0,
			"0.013": 0.0,
			"0.014": 0.0,
			"0.015": 0.0,
			"0.016": 0.0,
			"0.017": 0.0,
			"0.018": 0.0,
			"0.019": 0.0,
			"0.02": 0.0,
			"0.021": 0.0,
			"0.022": 0.0,
			"0.023": 0.0,
			"0.024": 0.0,
			"0.025": 0.0
		}
	}
}
