{
	 "smiles": "OC1=CC(O)=CC=C1", 
	 "Tm": 383.15, 
	 "num_atms": 14, 
	 "gaussian": { 
		 "optdone": 1, 
		 "sigma_profile": "yes", 
		 "theory": "DFT", 
		 "functional": "B3LYP", 
		 "basiset": "6-31G**", 
		 "properties": { 
			 "R2extent": 921.9328, 
			 "electric_dipole_moment_norm": 2.3747787139, 
			 "electric_quadrupole_moment_norm": 11.5341968026, 
			 "total_energy": -382.691257772, 
			 "HOMO_LUMO_gap": 0.21723, 
			 "cosmo_polarized_energy": -12.95, 
			 "cosmo_cavitation_energy": 18.05, 
			 "cosmo_dispersion_energy": -13.77, 
			 "cosmo_repulsion_energy": 1.15, 
			 "cosmo_total_nonelectrostatic_energy": 5.43, 
			 "SMD_solvation_energy": 3.87 
		},
		"coords": [
			{
				"x": 1.3163998579,
				"y": 1.0949869246,
				"z": -1.9672565726,
				"element": "O" 
			},
			{
				"x": 0.4167883671,
				"y": 0.6292776699,
				"z": -1.0491233646,
				"element": "C" 
			},
			{
				"x": 0.7814900698,
				"y": -0.2732659692,
				"z": -0.0434686634,
				"element": "C" 
			},
			{
				"x": -0.1815128368,
				"y": -0.7169517278,
				"z": 0.870143458,
				"element": "C" 
			},
			{
				"x": 0.1197277752,
				"y": -1.5976593227,
				"z": 1.8715370285,
				"element": "O" 
			},
			{
				"x": -1.5016190979,
				"y": -0.2653980193,
				"z": 0.7845294098,
				"element": "C" 
			},
			{
				"x": -1.8424041822,
				"y": 0.6335343451,
				"z": -0.22536168,
				"element": "C" 
			},
			{
				"x": -0.8997285877,
				"y": 1.0889094968,
				"z": -1.1462789261,
				"element": "C" 
			},
			{
				"x": 2.1819483022,
				"y": 0.7046825277,
				"z": -1.792053482,
				"element": "H" 
			},
			{
				"x": 1.8092616253,
				"y": -0.6284746987,
				"z": 0.0277761967,
				"element": "H" 
			},
			{
				"x": 1.0555317228,
				"y": -1.8299101537,
				"z": 1.8211920164,
				"element": "H" 
			},
			{
				"x": -2.2309597344,
				"y": -0.6222728322,
				"z": 1.5027555122,
				"element": "H" 
			},
			{
				"x": -2.8667181609,
				"y": 0.9875185134,
				"z": -0.2963746547,
				"element": "H" 
			},
			{
				"x": -1.1599051204,
				"y": 1.7877232461,
				"z": -1.9331162783,
				"element": "H" 
			}
		],
		 "valence_orbital": [ 
			{
				"type": "occ",
				"energy": -0.35197,
				"method": "rhf"
			},
			{
				"type": "occ",
				"energy": -0.34794,
				"method": "rhf"
			},
			{
				"type": "occ",
				"energy": -0.30919,
				"method": "rhf"
			},
			{
				"type": "occ",
				"energy": -0.23613,
				"method": "rhf"
			},
			{
				"type": "occ",
				"energy": -0.21049,
				"method": "rhf"
			},
			{
				"type": "unocc",
				"energy": 0.00674,
				"method": "rhf"
			},
			{
				"type": "unocc",
				"energy": 0.02299,
				"method": "rhf"
			},
			{
				"type": "unocc",
				"energy": 0.06438,
				"method": "rhf"
			},
			{
				"type": "unocc",
				"energy": 0.07047,
				"method": "rhf"
			},
			{
				"type": "unocc",
				"energy": 0.10118,
				"method": "rhf"
			}
		],
		"cosmo_sigma_profile": { 
			"-0.025": 0.0,
			"-0.024": 0.0,
			"-0.023": 0.0,
			"-0.022": 0.0,
			"-0.021": 0.0,
			"-0.02": 0.0,
			"-0.019": 0.0,
			"-0.018": 0.733721748624,
			"-0.017": 2.35675237005,
			"-0.016": 2.26249006218,
			"-0.015": 2.54674145573,
			"-0.014": 2.10493708935,
			"-0.013": 1.15130106906,
			"-0.012": 1.09089609237,
			"-0.011": 1.96886577175,
			"-0.01": 2.97416943717,
			"-0.009": 2.34398710969,
			"-0.008": 2.16465147516,
			"-0.007": 2.00135551777,
			"-0.006": 3.69318509479,
			"-0.005": 7.29151728938,
			"-0.004": 7.31331308978,
			"-0.003": 6.60835137647,
			"-0.002": 5.89508616575,
			"-0.001": 5.46214011241,
			"0.0": 5.72779023272,
			"0.001": 5.26923650881,
			"0.002": 7.22584145631,
			"0.003": 8.21487387884,
			"0.004": 12.3507377611,
			"0.005": 14.554423856,
			"0.006": 10.8463045338,
			"0.007": 4.51747753461,
			"0.008": 2.49489696531,
			"0.009": 3.33051006264,
			"0.01": 2.91953206252,
			"0.011": 4.1488125437,
			"0.012": 1.87161191319,
			"0.013": 0.0,
			"0.014": 0.0,
			"0.015": 0.0,
			"0.016": 0.0,
			"0.017": 0.0,
			"0.018": 0.0,
			"0.019": 0.0,
			"0.02": 0.0,
			"0.021": 0.0,
			"0.022": 0.0,
			"0.023": 0.0,
			"0.024": 0.0,
			"0.025": 0.0
		}
	}
}
