{
	 "smiles": "COC1=CC=C(C=C1)C(Cl)(C1=CC=CC=C1)C1=CC=C(OC)C=C1", 
	 "Tm": 397.15, 
	 "num_atms": 43, 
	 "gaussian": { 
		 "optdone": 1, 
		 "sigma_profile": "yes", 
		 "theory": "DFT", 
		 "functional": "B3LYP", 
		 "basiset": "6-31G**", 
		 "properties": { 
			 "R2extent": 9723.7602, 
			 "electric_dipole_moment_norm": 4.46005162526, 
			 "electric_quadrupole_moment_norm": 14.7905282712, 
			 "total_energy": -1422.3014812, 
			 "HOMO_LUMO_gap": 0.18478, 
			 "cosmo_polarized_energy": -12.16, 
			 "cosmo_cavitation_energy": 46.87, 
			 "cosmo_dispersion_energy": -32.5, 
			 "cosmo_repulsion_energy": 2.49, 
			 "cosmo_total_nonelectrostatic_energy": 16.85, 
			 "SMD_solvation_energy": 9.1 
		},
		"coords": [
			{
				"x": 5.423147062,
				"y": -1.2115954076,
				"z": 1.8706787423,
				"element": "C" 
			},
			{
				"x": 4.1977108109,
				"y": -1.7368236314,
				"z": 2.3562904615,
				"element": "O" 
			},
			{
				"x": 3.0768105793,
				"y": -1.5603173055,
				"z": 1.6006881595,
				"element": "C" 
			},
			{
				"x": 3.0332048838,
				"y": -0.8842612423,
				"z": 0.3795151927,
				"element": "C" 
			},
			{
				"x": 1.8201407525,
				"y": -0.7736991267,
				"z": -0.3106169082,
				"element": "C" 
			},
			{
				"x": 0.6383107301,
				"y": -1.3241640701,
				"z": 0.1906604183,
				"element": "C" 
			},
			{
				"x": 0.7023409071,
				"y": -1.9930060389,
				"z": 1.4292016126,
				"element": "C" 
			},
			{
				"x": 1.8951551855,
				"y": -2.1139671022,
				"z": 2.1221533268,
				"element": "C" 
			},
			{
				"x": -0.698776587,
				"y": -1.1494279182,
				"z": -0.5282290881,
				"element": "C" 
			},
			{
				"x": -1.5062278248,
				"y": -2.8899992119,
				"z": -0.5744051385,
				"element": "Cl" 
			},
			{
				"x": -0.5274141505,
				"y": -0.7230599332,
				"z": -1.991155217,
				"element": "C" 
			},
			{
				"x": 0.0202411362,
				"y": -1.6069752576,
				"z": -2.9358195196,
				"element": "C" 
			},
			{
				"x": 0.2391190883,
				"y": -1.2021762256,
				"z": -4.2498326227,
				"element": "C" 
			},
			{
				"x": -0.0773356684,
				"y": 0.0994699371,
				"z": -4.6493913751,
				"element": "C" 
			},
			{
				"x": -0.6099485601,
				"y": 0.9886274072,
				"z": -3.7189113479,
				"element": "C" 
			},
			{
				"x": -0.8329117584,
				"y": 0.5815362616,
				"z": -2.4000399643,
				"element": "C" 
			},
			{
				"x": -1.6768935491,
				"y": -0.2578851546,
				"z": 0.2359746606,
				"element": "C" 
			},
			{
				"x": -1.2494223369,
				"y": 0.5975296167,
				"z": 1.2539059219,
				"element": "C" 
			},
			{
				"x": -2.1361502826,
				"y": 1.4590735047,
				"z": 1.9110919568,
				"element": "C" 
			},
			{
				"x": -3.4847220952,
				"y": 1.4734367581,
				"z": 1.5489261538,
				"element": "C" 
			},
			{
				"x": -4.4386904404,
				"y": 2.2619369318,
				"z": 2.1203495507,
				"element": "O" 
			},
			{
				"x": -4.0490418566,
				"y": 3.1288855412,
				"z": 3.1738583905,
				"element": "C" 
			},
			{
				"x": -3.9292712397,
				"y": 0.6248420423,
				"z": 0.5206248065,
				"element": "C" 
			},
			{
				"x": -3.0392470181,
				"y": -0.2190058221,
				"z": -0.1218786579,
				"element": "C" 
			},
			{
				"x": 5.3816330136,
				"y": -0.1200355277,
				"z": 1.7623012708,
				"element": "H" 
			},
			{
				"x": 6.1780949938,
				"y": -1.4693275484,
				"z": 2.6150415691,
				"element": "H" 
			},
			{
				"x": 5.7001889219,
				"y": -1.6564569966,
				"z": 0.9063371912,
				"element": "H" 
			},
			{
				"x": 3.9247943999,
				"y": -0.443066854,
				"z": -0.0498440611,
				"element": "H" 
			},
			{
				"x": 1.8113585604,
				"y": -0.24152657,
				"z": -1.25447004,
				"element": "H" 
			},
			{
				"x": -0.1984185061,
				"y": -2.43346861,
				"z": 1.8424903419,
				"element": "H" 
			},
			{
				"x": 1.9430941873,
				"y": -2.6388493791,
				"z": 3.0706782895,
				"element": "H" 
			},
			{
				"x": 0.2629927962,
				"y": -2.6204659863,
				"z": -2.6364881845,
				"element": "H" 
			},
			{
				"x": 0.6549573462,
				"y": -1.906262763,
				"z": -4.9650108776,
				"element": "H" 
			},
			{
				"x": 0.0897718598,
				"y": 0.4134238292,
				"z": -5.6757976021,
				"element": "H" 
			},
			{
				"x": -0.8588890769,
				"y": 2.0043040167,
				"z": -4.0131443764,
				"element": "H" 
			},
			{
				"x": -1.2452215255,
				"y": 1.287077078,
				"z": -1.6884258309,
				"element": "H" 
			},
			{
				"x": -0.2067964844,
				"y": 0.6074208406,
				"z": 1.5488126827,
				"element": "H" 
			},
			{
				"x": -1.7591536126,
				"y": 2.1028672617,
				"z": 2.6968099583,
				"element": "H" 
			},
			{
				"x": -3.6424455221,
				"y": 2.5712878122,
				"z": 4.0273163419,
				"element": "H" 
			},
			{
				"x": -3.3053544735,
				"y": 3.8638914242,
				"z": 2.8396951092,
				"element": "H" 
			},
			{
				"x": -4.9547151867,
				"y": 3.6516479806,
				"z": 3.4851750299,
				"element": "H" 
			},
			{
				"x": -4.9797822476,
				"y": 0.6451718535,
				"z": 0.2495476016,
				"element": "H" 
			},
			{
				"x": -3.4015372116,
				"y": -0.8723064142,
				"z": -0.9081639286,
				"element": "H" 
			}
		],
		 "valence_orbital": [ 
			{
				"type": "occ",
				"energy": -0.2496,
				"method": "rhf"
			},
			{
				"type": "occ",
				"energy": -0.24642,
				"method": "rhf"
			},
			{
				"type": "occ",
				"energy": -0.24163,
				"method": "rhf"
			},
			{
				"type": "occ",
				"energy": -0.21879,
				"method": "rhf"
			},
			{
				"type": "occ",
				"energy": -0.21719,
				"method": "rhf"
			},
			{
				"type": "unocc",
				"energy": -0.03241,
				"method": "rhf"
			},
			{
				"type": "unocc",
				"energy": -0.01181,
				"method": "rhf"
			},
			{
				"type": "unocc",
				"energy": -0.00226,
				"method": "rhf"
			},
			{
				"type": "unocc",
				"energy": 0.00435,
				"method": "rhf"
			},
			{
				"type": "unocc",
				"energy": 0.00758,
				"method": "rhf"
			}
		],
		"cosmo_sigma_profile": { 
			"-0.025": 0.0,
			"-0.024": 0.0,
			"-0.023": 0.0,
			"-0.022": 0.0,
			"-0.021": 0.0,
			"-0.02": 0.0,
			"-0.019": 0.0,
			"-0.018": 0.0,
			"-0.017": 0.0,
			"-0.016": 0.0,
			"-0.015": 0.0,
			"-0.014": 0.0,
			"-0.013": 0.0,
			"-0.012": 0.0,
			"-0.011": 0.0,
			"-0.01": 0.0,
			"-0.009": 0.0,
			"-0.008": 0.0,
			"-0.007": 1.47123032039,
			"-0.006": 19.999376346,
			"-0.005": 36.9794304457,
			"-0.004": 38.5871937513,
			"-0.003": 35.4493825264,
			"-0.002": 23.4749995314,
			"-0.001": 24.8959360186,
			"0.0": 22.7853061072,
			"0.001": 23.9651085294,
			"0.002": 27.7823419455,
			"0.003": 33.1272801026,
			"0.004": 30.0725567078,
			"0.005": 27.7750849546,
			"0.006": 14.2309401699,
			"0.007": 6.33074424486,
			"0.008": 2.61415172968,
			"0.009": 2.67354935804,
			"0.01": 2.95115290363,
			"0.011": 0.334924206114,
			"0.012": 0.0,
			"0.013": 0.0,
			"0.014": 0.0,
			"0.015": 0.0,
			"0.016": 0.0,
			"0.017": 0.0,
			"0.018": 0.0,
			"0.019": 0.0,
			"0.02": 0.0,
			"0.021": 0.0,
			"0.022": 0.0,
			"0.023": 0.0,
			"0.024": 0.0,
			"0.025": 0.0
		}
	}
}
