{
	 "smiles": "NC1=CC(=NC=C1)C(O)=O", 
	 "Tm": 472.15, 
	 "num_atms": 16, 
	 "gaussian": { 
		 "optdone": 1, 
		 "sigma_profile": "yes", 
		 "theory": "DFT", 
		 "functional": "B3LYP", 
		 "basiset": "6-31G**", 
		 "properties": { 
			 "R2extent": 1601.3637, 
			 "electric_dipole_moment_norm": 6.95889582261, 
			 "electric_quadrupole_moment_norm": 15.8186476347, 
			 "total_energy": -492.227124328, 
			 "HOMO_LUMO_gap": 0.19376, 
			 "cosmo_polarized_energy": -16.4, 
			 "cosmo_cavitation_energy": 20.74, 
			 "cosmo_dispersion_energy": -15.75, 
			 "cosmo_repulsion_energy": 1.29, 
			 "cosmo_total_nonelectrostatic_energy": 6.27, 
			 "SMD_solvation_energy": 4.2 
		},
		"coords": [
			{
				"x": -0.2263781479,
				"y": 2.6250519969,
				"z": -2.2787196183,
				"element": "N" 
			},
			{
				"x": -0.2217887556,
				"y": 1.6612851839,
				"z": -1.3010993758,
				"element": "C" 
			},
			{
				"x": 0.8220987998,
				"y": 0.7220778407,
				"z": -1.2043335509,
				"element": "C" 
			},
			{
				"x": 0.7482017749,
				"y": -0.2522852656,
				"z": -0.2215265012,
				"element": "C" 
			},
			{
				"x": -0.2592149585,
				"y": -0.3731694991,
				"z": 0.6610505414,
				"element": "N" 
			},
			{
				"x": -1.2505849734,
				"y": 0.5217446649,
				"z": 0.565166399,
				"element": "C" 
			},
			{
				"x": -1.2811135817,
				"y": 1.540864088,
				"z": -0.3786977097,
				"element": "C" 
			},
			{
				"x": 1.8513681989,
				"y": -1.2749594054,
				"z": -0.0822860685,
				"element": "C" 
			},
			{
				"x": 1.6373373423,
				"y": -2.1500561781,
				"z": 0.9106695198,
				"element": "O" 
			},
			{
				"x": 2.8301749626,
				"y": -1.300654412,
				"z": -0.7951599077,
				"element": "O" 
			},
			{
				"x": 0.6390363637,
				"y": 2.8188194928,
				"z": -2.7586080356,
				"element": "H" 
			},
			{
				"x": -0.842721764,
				"y": 3.4154637096,
				"z": -2.1705311787,
				"element": "H" 
			},
			{
				"x": 1.677602246,
				"y": 0.7354012976,
				"z": -1.871229064,
				"element": "H" 
			},
			{
				"x": -2.0633481361,
				"y": 0.4215836356,
				"z": 1.2811988688,
				"element": "H" 
			},
			{
				"x": -2.1169861174,
				"y": 2.2337937318,
				"z": -0.4040922929,
				"element": "H" 
			},
			{
				"x": 0.7786167466,
				"y": -1.8882608815,
				"z": 1.3110979742,
				"element": "H" 
			}
		],
		 "valence_orbital": [ 
			{
				"type": "occ",
				"energy": -0.30207,
				"method": "rhf"
			},
			{
				"type": "occ",
				"energy": -0.29249,
				"method": "rhf"
			},
			{
				"type": "occ",
				"energy": -0.27483,
				"method": "rhf"
			},
			{
				"type": "occ",
				"energy": -0.25878,
				"method": "rhf"
			},
			{
				"type": "occ",
				"energy": -0.24467,
				"method": "rhf"
			},
			{
				"type": "unocc",
				"energy": -0.05091,
				"method": "rhf"
			},
			{
				"type": "unocc",
				"energy": -0.0223,
				"method": "rhf"
			},
			{
				"type": "unocc",
				"energy": 0.05512,
				"method": "rhf"
			},
			{
				"type": "unocc",
				"energy": 0.06621,
				"method": "rhf"
			},
			{
				"type": "unocc",
				"energy": 0.09393,
				"method": "rhf"
			}
		],
		"cosmo_sigma_profile": { 
			"-0.025": 0.0,
			"-0.024": 0.0,
			"-0.023": 0.0,
			"-0.022": 0.0,
			"-0.021": 0.0,
			"-0.02": 0.0,
			"-0.019": 0.0,
			"-0.018": 0.0,
			"-0.017": 0.0,
			"-0.016": 0.0,
			"-0.015": 0.00763528307212,
			"-0.014": 1.87182066811,
			"-0.013": 3.36899364202,
			"-0.012": 3.8116411722,
			"-0.011": 3.29096840032,
			"-0.01": 4.2347099842,
			"-0.009": 3.50069022157,
			"-0.008": 3.84086913057,
			"-0.007": 5.8293552429,
			"-0.006": 7.75509722203,
			"-0.005": 5.98658994848,
			"-0.004": 6.86126273202,
			"-0.003": 7.55301384987,
			"-0.002": 7.35078555933,
			"-0.001": 7.06053162549,
			"0.0": 10.1320566741,
			"0.001": 14.1698131974,
			"0.002": 15.9953547025,
			"0.003": 8.39359309275,
			"0.004": 4.60533084965,
			"0.005": 4.45811886813,
			"0.006": 4.58970109815,
			"0.007": 5.32621657893,
			"0.008": 3.96629528617,
			"0.009": 4.17902090386,
			"0.01": 5.84209588496,
			"0.011": 4.94328026798,
			"0.012": 4.75303604495,
			"0.013": 1.85259411912,
			"0.014": 0.223677347173,
			"0.015": 0.0,
			"0.016": 0.0,
			"0.017": 0.0,
			"0.018": 0.0,
			"0.019": 0.0,
			"0.02": 0.0,
			"0.021": 0.0,
			"0.022": 0.0,
			"0.023": 0.0,
			"0.024": 0.0,
			"0.025": 0.0
		}
	}
}
