{
	 "smiles": "OC(=O)C1CCCN(C1)C(=O)C1=CC(F)=C(Br)C=C1", 
	 "Tm": 431.15, 
	 "num_atms": 32, 
	 "gaussian": { 
		 "optdone": 1, 
		 "sigma_profile": "yes", 
		 "theory": "DFT", 
		 "functional": "B3LYP", 
		 "basiset": "6-31G**", 
		 "properties": { 
			 "R2extent": 10615.8449, 
			 "electric_dipole_moment_norm": 4.92592315612, 
			 "electric_quadrupole_moment_norm": 17.3603659521, 
			 "total_energy": -3454.89329934, 
			 "HOMO_LUMO_gap": 0.19735, 
			 "cosmo_polarized_energy": -23.63, 
			 "cosmo_cavitation_energy": 37.71, 
			 "cosmo_dispersion_energy": -26.49, 
			 "cosmo_repulsion_energy": 2.03, 
			 "cosmo_total_nonelectrostatic_energy": 13.25, 
			 "SMD_solvation_energy": 6.21 
		},
		"coords": [
			{
				"x": -2.6616612373,
				"y": 0.6076737486,
				"z": -1.0510847026,
				"element": "O" 
			},
			{
				"x": -1.9908308064,
				"y": 1.4007811823,
				"z": -0.1729987415,
				"element": "C" 
			},
			{
				"x": -1.8204251705,
				"y": 2.5655100979,
				"z": -0.4312499249,
				"element": "O" 
			},
			{
				"x": -1.4861918883,
				"y": 0.6970468718,
				"z": 1.0967939847,
				"element": "C" 
			},
			{
				"x": -0.9603924777,
				"y": 1.7080642821,
				"z": 2.1460631972,
				"element": "C" 
			},
			{
				"x": 0.5799584156,
				"y": 1.734725147,
				"z": 2.1993746373,
				"element": "C" 
			},
			{
				"x": 1.1965139608,
				"y": 1.6075494514,
				"z": 0.8074496036,
				"element": "C" 
			},
			{
				"x": 0.7960398513,
				"y": 0.3238862314,
				"z": 0.1915210608,
				"element": "N" 
			},
			{
				"x": -0.3923804398,
				"y": -0.3366569238,
				"z": 0.729956573,
				"element": "C" 
			},
			{
				"x": 1.4105420651,
				"y": 0.0084151935,
				"z": -0.9977098507,
				"element": "C" 
			},
			{
				"x": 2.2049532518,
				"y": 0.7808705474,
				"z": -1.5272563256,
				"element": "O" 
			},
			{
				"x": 1.131877736,
				"y": -1.3267368653,
				"z": -1.64146645,
				"element": "C" 
			},
			{
				"x": 1.1293781787,
				"y": -2.5292187885,
				"z": -0.9241804925,
				"element": "C" 
			},
			{
				"x": 0.9694495481,
				"y": -3.733993182,
				"z": -1.5986347816,
				"element": "C" 
			},
			{
				"x": 0.9796270132,
				"y": -4.8771772291,
				"z": -0.8944038217,
				"element": "F" 
			},
			{
				"x": 0.8011851408,
				"y": -3.767864779,
				"z": -2.9821379171,
				"element": "C" 
			},
			{
				"x": 0.5685433416,
				"y": -5.432795082,
				"z": -3.8627917391,
				"element": "Br" 
			},
			{
				"x": 0.8142565716,
				"y": -2.5710114587,
				"z": -3.7006302774,
				"element": "C" 
			},
			{
				"x": 0.992649834,
				"y": -1.3609916462,
				"z": -3.0355824587,
				"element": "C" 
			},
			{
				"x": -2.7673666945,
				"y": -0.286031099,
				"z": -0.6957596774,
				"element": "H" 
			},
			{
				"x": -2.3345206172,
				"y": 0.1342962949,
				"z": 1.5108429105,
				"element": "H" 
			},
			{
				"x": -1.3613757692,
				"y": 1.4575510498,
				"z": 3.1331355269,
				"element": "H" 
			},
			{
				"x": -1.3354302886,
				"y": 2.6992352588,
				"z": 1.8804076928,
				"element": "H" 
			},
			{
				"x": 0.9566618396,
				"y": 0.9260854261,
				"z": 2.8381682641,
				"element": "H" 
			},
			{
				"x": 0.9211682368,
				"y": 2.6701440625,
				"z": 2.6534528114,
				"element": "H" 
			},
			{
				"x": 0.8735872585,
				"y": 2.4360785586,
				"z": 0.16633362,
				"element": "H" 
			},
			{
				"x": 2.2882612429,
				"y": 1.6376234049,
				"z": 0.8448967296,
				"element": "H" 
			},
			{
				"x": -0.7603739194,
				"y": -1.0500740421,
				"z": -0.0083031979,
				"element": "H" 
			},
			{
				"x": -0.1509661081,
				"y": -0.9123353059,
				"z": 1.6340886824,
				"element": "H" 
			},
			{
				"x": 1.2766555986,
				"y": -2.5566538295,
				"z": 0.1501499034,
				"element": "H" 
			},
			{
				"x": 0.6918606206,
				"y": -2.5970815219,
				"z": -4.7775009574,
				"element": "H" 
			},
			{
				"x": 1.0357457113,
				"y": -0.4306150564,
				"z": -3.5905438819,
				"element": "H" 
			}
		],
		 "valence_orbital": [ 
			{
				"type": "occ",
				"energy": -0.28345,
				"method": "rhf"
			},
			{
				"type": "occ",
				"energy": -0.27195,
				"method": "rhf"
			},
			{
				"type": "occ",
				"energy": -0.26617,
				"method": "rhf"
			},
			{
				"type": "occ",
				"energy": -0.24969,
				"method": "rhf"
			},
			{
				"type": "occ",
				"energy": -0.24489,
				"method": "rhf"
			},
			{
				"type": "unocc",
				"energy": -0.04754,
				"method": "rhf"
			},
			{
				"type": "unocc",
				"energy": -0.02251,
				"method": "rhf"
			},
			{
				"type": "unocc",
				"energy": -0.00815,
				"method": "rhf"
			},
			{
				"type": "unocc",
				"energy": -0.00494,
				"method": "rhf"
			},
			{
				"type": "unocc",
				"energy": 0.03197,
				"method": "rhf"
			}
		],
		"cosmo_sigma_profile": { 
			"-0.025": 0.0,
			"-0.024": 0.0,
			"-0.023": 0.0,
			"-0.022": 0.0,
			"-0.021": 0.0,
			"-0.02": 0.149663992153,
			"-0.019": 0.872756988367,
			"-0.018": 1.32080532497,
			"-0.017": 1.04800965813,
			"-0.016": 1.37891852746,
			"-0.015": 1.04116469928,
			"-0.014": 0.723683937193,
			"-0.013": 0.916138802786,
			"-0.012": 1.50859127322,
			"-0.011": 1.42422052642,
			"-0.01": 0.951320590299,
			"-0.009": 2.1644085335,
			"-0.008": 6.10166357538,
			"-0.007": 8.71261076411,
			"-0.006": 13.5301116719,
			"-0.005": 14.5899027875,
			"-0.004": 20.5077340012,
			"-0.003": 21.9466472344,
			"-0.002": 24.9441544881,
			"-0.001": 26.288782117,
			"0.0": 24.9273468948,
			"0.001": 18.9005493511,
			"0.002": 17.6002937904,
			"0.003": 20.4212420467,
			"0.004": 19.8468243517,
			"0.005": 5.90293263848,
			"0.006": 4.20934968212,
			"0.007": 4.25168438618,
			"0.008": 4.11780290944,
			"0.009": 4.65168870025,
			"0.01": 6.37758974237,
			"0.011": 6.31489761754,
			"0.012": 5.74414166524,
			"0.013": 4.90733903254,
			"0.014": 3.49809788756,
			"0.015": 0.182362382375,
			"0.016": 0.0,
			"0.017": 0.0,
			"0.018": 0.0,
			"0.019": 0.0,
			"0.02": 0.0,
			"0.021": 0.0,
			"0.022": 0.0,
			"0.023": 0.0,
			"0.024": 0.0,
			"0.025": 0.0
		}
	}
}
