{
	 "smiles": "CON(C)C(=O)NC1=CC=C(Br)C(Cl)=C1", 
	 "Tm": 369.15, 
	 "num_atms": 25, 
	 "gaussian": { 
		 "optdone": 1, 
		 "sigma_profile": "yes", 
		 "theory": "DFT", 
		 "functional": "B3LYP", 
		 "basiset": "6-31G**", 
		 "properties": { 
			 "R2extent": 9485.6302, 
			 "electric_dipole_moment_norm": 5.23042225255, 
			 "electric_quadrupole_moment_norm": 14.1033220877, 
			 "total_energy": -3640.49049514, 
			 "HOMO_LUMO_gap": 0.20141, 
			 "cosmo_polarized_energy": -11.81, 
			 "cosmo_cavitation_energy": 33.54, 
			 "cosmo_dispersion_energy": -24.71, 
			 "cosmo_repulsion_energy": 1.94, 
			 "cosmo_total_nonelectrostatic_energy": 10.77, 
			 "SMD_solvation_energy": 5.94 
		},
		"coords": [
			{
				"x": 3.075895972,
				"y": 2.2181534669,
				"z": 0.398433573,
				"element": "C" 
			},
			{
				"x": 1.6453069251,
				"y": 2.2915113545,
				"z": 0.406092504,
				"element": "O" 
			},
			{
				"x": 1.1319391119,
				"y": 1.4027248218,
				"z": 1.3937135763,
				"element": "N" 
			},
			{
				"x": 0.7314774325,
				"y": 2.1273212442,
				"z": 2.5957205428,
				"element": "C" 
			},
			{
				"x": 0.232923944,
				"y": 0.4402146139,
				"z": 0.8868454869,
				"element": "C" 
			},
			{
				"x": -0.473197952,
				"y": -0.207774969,
				"z": 1.6471479402,
				"element": "O" 
			},
			{
				"x": 0.302729987,
				"y": 0.2878701416,
				"z": -0.4784651076,
				"element": "N" 
			},
			{
				"x": -0.3825765925,
				"y": -0.6443847294,
				"z": -1.2715371332,
				"element": "C" 
			},
			{
				"x": -1.1960797441,
				"y": -1.6634972141,
				"z": -0.7510024653,
				"element": "C" 
			},
			{
				"x": -1.8238608585,
				"y": -2.5482542282,
				"z": -1.6215791557,
				"element": "C" 
			},
			{
				"x": -1.6666405955,
				"y": -2.450848729,
				"z": -3.005297177,
				"element": "C" 
			},
			{
				"x": -2.5596827866,
				"y": -3.7005151255,
				"z": -4.1260253089,
				"element": "Br" 
			},
			{
				"x": -0.855738623,
				"y": -1.4340248886,
				"z": -3.5206907186,
				"element": "C" 
			},
			{
				"x": -0.6026711317,
				"y": -1.2375602953,
				"z": -5.239820123,
				"element": "Cl" 
			},
			{
				"x": -0.2211281763,
				"y": -0.5408054448,
				"z": -2.6604848857,
				"element": "C" 
			},
			{
				"x": 3.4202833984,
				"y": 1.2083083365,
				"z": 0.1508883089,
				"element": "H" 
			},
			{
				"x": 3.4921131357,
				"y": 2.5172392073,
				"z": 1.3665458973,
				"element": "H" 
			},
			{
				"x": 3.3977580419,
				"y": 2.925616332,
				"z": -0.3695254534,
				"element": "H" 
			},
			{
				"x": 1.6180908313,
				"y": 2.5547257697,
				"z": 3.0696213325,
				"element": "H" 
			},
			{
				"x": 0.2701594997,
				"y": 1.4089063523,
				"z": 3.2717330476,
				"element": "H" 
			},
			{
				"x": 0.0191001382,
				"y": 2.9288576318,
				"z": 2.3649102272,
				"element": "H" 
			},
			{
				"x": 0.8424218224,
				"y": 0.9988835858,
				"z": -0.9527680782,
				"element": "H" 
			},
			{
				"x": -1.332169459,
				"y": -1.7471698875,
				"z": 0.3175423352,
				"element": "H" 
			},
			{
				"x": -2.4529004537,
				"y": -3.3350257716,
				"z": -1.2207684057,
				"element": "H" 
			},
			{
				"x": 0.4028461328,
				"y": 0.2395284244,
				"z": -3.0844307596,
				"element": "H" 
			}
		],
		 "valence_orbital": [ 
			{
				"type": "occ",
				"energy": -0.28273,
				"method": "rhf"
			},
			{
				"type": "occ",
				"energy": -0.27411,
				"method": "rhf"
			},
			{
				"type": "occ",
				"energy": -0.25987,
				"method": "rhf"
			},
			{
				"type": "occ",
				"energy": -0.25615,
				"method": "rhf"
			},
			{
				"type": "occ",
				"energy": -0.22264,
				"method": "rhf"
			},
			{
				"type": "unocc",
				"energy": -0.02123,
				"method": "rhf"
			},
			{
				"type": "unocc",
				"energy": -0.01949,
				"method": "rhf"
			},
			{
				"type": "unocc",
				"energy": -0.00749,
				"method": "rhf"
			},
			{
				"type": "unocc",
				"energy": 0.04062,
				"method": "rhf"
			},
			{
				"type": "unocc",
				"energy": 0.05431,
				"method": "rhf"
			}
		],
		"cosmo_sigma_profile": { 
			"-0.025": 0.0,
			"-0.024": 0.0,
			"-0.023": 0.0,
			"-0.022": 0.0,
			"-0.021": 0.0,
			"-0.02": 0.0,
			"-0.019": 0.0,
			"-0.018": 0.0,
			"-0.017": 0.0,
			"-0.016": 0.0,
			"-0.015": 0.000873791023721,
			"-0.014": 0.899324591989,
			"-0.013": 0.476550898964,
			"-0.012": 1.35482180826,
			"-0.011": 1.0884420561,
			"-0.01": 1.47109797777,
			"-0.009": 1.03701004433,
			"-0.008": 2.29009968924,
			"-0.007": 4.38737781549,
			"-0.006": 9.40096077784,
			"-0.005": 19.3618936407,
			"-0.004": 21.5328054354,
			"-0.003": 24.0423237131,
			"-0.002": 20.0893063479,
			"-0.001": 14.0312792046,
			"0.0": 20.4752672268,
			"0.001": 25.6640507655,
			"0.002": 28.327130541,
			"0.003": 23.4702290138,
			"0.004": 21.7880186423,
			"0.005": 11.1374247209,
			"0.006": 4.76886809329,
			"0.007": 2.90850379647,
			"0.008": 1.77402684849,
			"0.009": 2.89097428581,
			"0.01": 1.63990170121,
			"0.011": 2.28017580413,
			"0.012": 2.98641643451,
			"0.013": 1.60026361107,
			"0.014": 0.0,
			"0.015": 0.0,
			"0.016": 0.0,
			"0.017": 0.0,
			"0.018": 0.0,
			"0.019": 0.0,
			"0.02": 0.0,
			"0.021": 0.0,
			"0.022": 0.0,
			"0.023": 0.0,
			"0.024": 0.0,
			"0.025": 0.0
		}
	}
}
