{
	 "smiles": "NP(N)(=O)OC1=CC=CC=C1", 
	 "Tm": 457.15, 
	 "num_atms": 20, 
	 "gaussian": { 
		 "optdone": 1, 
		 "sigma_profile": "yes", 
		 "theory": "DFT", 
		 "functional": "B3LYP", 
		 "basiset": "6-31G**", 
		 "properties": { 
			 "R2extent": 2211.2231, 
			 "electric_dipole_moment_norm": 4.15730617828, 
			 "electric_quadrupole_moment_norm": 16.3355228175, 
			 "total_energy": -835.435128714, 
			 "HOMO_LUMO_gap": 0.22892, 
			 "cosmo_polarized_energy": -18.65, 
			 "cosmo_cavitation_energy": 25.29, 
			 "cosmo_dispersion_energy": -18.96, 
			 "cosmo_repulsion_energy": 1.53, 
			 "cosmo_total_nonelectrostatic_energy": 7.87, 
			 "SMD_solvation_energy": 6.66 
		},
		"coords": [
			{
				"x": 2.2127676351,
				"y": -1.7796480148,
				"z": 0.1647629162,
				"element": "N" 
			},
			{
				"x": 2.2692125431,
				"y": -0.1621058112,
				"z": -0.3163893472,
				"element": "P" 
			},
			{
				"x": 1.5314196393,
				"y": -0.2426149318,
				"z": -1.809562592,
				"element": "N" 
			},
			{
				"x": 3.5543580486,
				"y": 0.571709663,
				"z": -0.3400034094,
				"element": "O" 
			},
			{
				"x": 1.2540132144,
				"y": 0.504005853,
				"z": 0.7951527915,
				"element": "O" 
			},
			{
				"x": -0.131925107,
				"y": 0.4829838633,
				"z": 0.7430035242,
				"element": "C" 
			},
			{
				"x": -0.8591923593,
				"y": -0.6978152497,
				"z": 0.5640597636,
				"element": "C" 
			},
			{
				"x": -2.2556253292,
				"y": -0.6425494747,
				"z": 0.5578323991,
				"element": "C" 
			},
			{
				"x": -2.9212001819,
				"y": 0.5702154513,
				"z": 0.7400430314,
				"element": "C" 
			},
			{
				"x": -2.1813306943,
				"y": 1.7402984581,
				"z": 0.9304653104,
				"element": "C" 
			},
			{
				"x": -0.7876834051,
				"y": 1.7023246581,
				"z": 0.9293166541,
				"element": "C" 
			},
			{
				"x": 2.8225368323,
				"y": -2.3739625652,
				"z": -0.3885871697,
				"element": "H" 
			},
			{
				"x": 2.4068614976,
				"y": -1.8987100052,
				"z": 1.1542349102,
				"element": "H" 
			},
			{
				"x": 1.7004535576,
				"y": 0.5593192189,
				"z": -2.4028993634,
				"element": "H" 
			},
			{
				"x": 0.5828724668,
				"y": -0.5923237781,
				"z": -1.8637697638,
				"element": "H" 
			},
			{
				"x": -0.3340291335,
				"y": -1.6400986161,
				"z": 0.4482186143,
				"element": "H" 
			},
			{
				"x": -2.8224101628,
				"y": -1.5589407389,
				"z": 0.4190465301,
				"element": "H" 
			},
			{
				"x": -4.0063683554,
				"y": 0.6038736143,
				"z": 0.738552755,
				"element": "H" 
			},
			{
				"x": -2.6896073549,
				"y": 2.6888739629,
				"z": 1.0775946833,
				"element": "H" 
			},
			{
				"x": -0.1935233516,
				"y": 2.5984644429,
				"z": 1.073627762,
				"element": "H" 
			}
		],
		 "valence_orbital": [ 
			{
				"type": "occ",
				"energy": -0.29953,
				"method": "rhf"
			},
			{
				"type": "occ",
				"energy": -0.2817,
				"method": "rhf"
			},
			{
				"type": "occ",
				"energy": -0.26494,
				"method": "rhf"
			},
			{
				"type": "occ",
				"energy": -0.25973,
				"method": "rhf"
			},
			{
				"type": "occ",
				"energy": -0.2412,
				"method": "rhf"
			},
			{
				"type": "unocc",
				"energy": -0.01228,
				"method": "rhf"
			},
			{
				"type": "unocc",
				"energy": -0.00368,
				"method": "rhf"
			},
			{
				"type": "unocc",
				"energy": 0.0552,
				"method": "rhf"
			},
			{
				"type": "unocc",
				"energy": 0.08184,
				"method": "rhf"
			},
			{
				"type": "unocc",
				"energy": 0.0904,
				"method": "rhf"
			}
		],
		"cosmo_sigma_profile": { 
			"-0.025": 0.0,
			"-0.024": 0.0,
			"-0.023": 0.0,
			"-0.022": 0.0,
			"-0.021": 0.0,
			"-0.02": 0.0,
			"-0.019": 0.0,
			"-0.018": 0.0,
			"-0.017": 0.0,
			"-0.016": 0.0,
			"-0.015": 0.0,
			"-0.014": 1.25736970716,
			"-0.013": 3.73088103523,
			"-0.012": 4.83468787074,
			"-0.011": 5.58728319397,
			"-0.01": 4.19584786581,
			"-0.009": 3.88209354475,
			"-0.008": 4.17088861113,
			"-0.007": 3.917319475,
			"-0.006": 9.73010613588,
			"-0.005": 11.7538368449,
			"-0.004": 14.2607207964,
			"-0.003": 10.1833640906,
			"-0.002": 10.8840669324,
			"-0.001": 11.0145707476,
			"0.0": 9.35895355423,
			"0.001": 9.39819769628,
			"0.002": 9.8164888607,
			"0.003": 12.56753761,
			"0.004": 11.5718543618,
			"0.005": 11.5754103774,
			"0.006": 4.75787982912,
			"0.007": 2.91089268318,
			"0.008": 2.92920513931,
			"0.009": 2.39222063543,
			"0.01": 2.46596200972,
			"0.011": 2.68025760229,
			"0.012": 1.28000793121,
			"0.013": 1.4046587555,
			"0.014": 3.15169289032,
			"0.015": 7.49782230375,
			"0.016": 3.17410689122,
			"0.017": 0.0,
			"0.018": 0.0,
			"0.019": 0.0,
			"0.02": 0.0,
			"0.021": 0.0,
			"0.022": 0.0,
			"0.023": 0.0,
			"0.024": 0.0,
			"0.025": 0.0
		}
	}
}
