{
	 "smiles": "COC(=O)C1=CC(C)=C(S1)S(Cl)(=O)=O", 
	 "Tm": 313.65, 
	 "num_atms": 21, 
	 "gaussian": { 
		 "optdone": 1, 
		 "sigma_profile": "yes", 
		 "theory": "DFT", 
		 "functional": "B3LYP", 
		 "basiset": "6-31G**", 
		 "properties": { 
			 "R2extent": 4865.3638, 
			 "electric_dipole_moment_norm": 6.42426843617, 
			 "electric_quadrupole_moment_norm": 3.76259207994, 
			 "total_energy": -1828.35054278, 
			 "HOMO_LUMO_gap": 0.17037, 
			 "cosmo_polarized_energy": -11.33, 
			 "cosmo_cavitation_energy": 31.01, 
			 "cosmo_dispersion_energy": -23.2, 
			 "cosmo_repulsion_energy": 1.75, 
			 "cosmo_total_nonelectrostatic_energy": 9.56, 
			 "SMD_solvation_energy": 5.48 
		},
		"coords": [
			{
				"x": 2.7555830715,
				"y": -3.7419662413,
				"z": 0.8684206232,
				"element": "C" 
			},
			{
				"x": 2.2214886346,
				"y": -2.4295695093,
				"z": 0.6097557426,
				"element": "O" 
			},
			{
				"x": 0.9101630914,
				"y": -2.2833655364,
				"z": 0.8782451839,
				"element": "C" 
			},
			{
				"x": 0.1910591497,
				"y": -3.1629045314,
				"z": 1.3086826632,
				"element": "O" 
			},
			{
				"x": 0.4446525785,
				"y": -0.9123567674,
				"z": 0.5818770283,
				"element": "C" 
			},
			{
				"x": 1.1568671142,
				"y": 0.165471213,
				"z": 0.104783519,
				"element": "C" 
			},
			{
				"x": 0.3778544933,
				"y": 1.3448158338,
				"z": -0.0475592253,
				"element": "C" 
			},
			{
				"x": 0.9190859791,
				"y": 2.6480161772,
				"z": -0.5669796722,
				"element": "C" 
			},
			{
				"x": -0.9278629407,
				"y": 1.0929044785,
				"z": 0.345494757,
				"element": "C" 
			},
			{
				"x": -1.2199010333,
				"y": -0.5367709048,
				"z": 0.87219141,
				"element": "S" 
			},
			{
				"x": -2.2664954222,
				"y": 2.2336722606,
				"z": 0.3361776403,
				"element": "S" 
			},
			{
				"x": -2.8082042225,
				"y": 2.2613880817,
				"z": -1.730107032,
				"element": "Cl" 
			},
			{
				"x": -1.7772263788,
				"y": 3.5744591307,
				"z": 0.6285882984,
				"element": "O" 
			},
			{
				"x": -3.3886887221,
				"y": 1.6339262249,
				"z": 1.045075647,
				"element": "O" 
			},
			{
				"x": 2.2407429781,
				"y": -4.4897015495,
				"z": 0.2607922763,
				"element": "H" 
			},
			{
				"x": 2.6395895518,
				"y": -3.9995075103,
				"z": 1.9237000698,
				"element": "H" 
			},
			{
				"x": 3.8095377811,
				"y": -3.6853751754,
				"z": 0.5989967702,
				"element": "H" 
			},
			{
				"x": 2.2135835901,
				"y": 0.111114903,
				"z": -0.1271044313,
				"element": "H" 
			},
			{
				"x": 0.3658052502,
				"y": 2.9837482003,
				"z": -1.4497352755,
				"element": "H" 
			},
			{
				"x": 1.9703376224,
				"y": 2.5377036277,
				"z": -0.8412131205,
				"element": "H" 
			},
			{
				"x": 0.8301278337,
				"y": 3.4377975943,
				"z": 0.1835171275,
				"element": "H" 
			}
		],
		 "valence_orbital": [ 
			{
				"type": "occ",
				"energy": -0.32479,
				"method": "rhf"
			},
			{
				"type": "occ",
				"energy": -0.31794,
				"method": "rhf"
			},
			{
				"type": "occ",
				"energy": -0.30099,
				"method": "rhf"
			},
			{
				"type": "occ",
				"energy": -0.2866,
				"method": "rhf"
			},
			{
				"type": "occ",
				"energy": -0.27663,
				"method": "rhf"
			},
			{
				"type": "unocc",
				"energy": -0.10626,
				"method": "rhf"
			},
			{
				"type": "unocc",
				"energy": -0.07094,
				"method": "rhf"
			},
			{
				"type": "unocc",
				"energy": -0.0098,
				"method": "rhf"
			},
			{
				"type": "unocc",
				"energy": -0.00204,
				"method": "rhf"
			},
			{
				"type": "unocc",
				"energy": 0.03832,
				"method": "rhf"
			}
		],
		"cosmo_sigma_profile": { 
			"-0.025": 0.0,
			"-0.024": 0.0,
			"-0.023": 0.0,
			"-0.022": 0.0,
			"-0.021": 0.0,
			"-0.02": 0.0,
			"-0.019": 0.0,
			"-0.018": 0.0,
			"-0.017": 0.0,
			"-0.016": 0.0,
			"-0.015": 0.0,
			"-0.014": 0.0,
			"-0.013": 0.0,
			"-0.012": 0.0,
			"-0.011": 0.0,
			"-0.01": 0.0,
			"-0.009": 1.20040042156,
			"-0.008": 2.28111438218,
			"-0.007": 5.35134222846,
			"-0.006": 10.8166297696,
			"-0.005": 14.3444184661,
			"-0.004": 23.9103515983,
			"-0.003": 23.0265636785,
			"-0.002": 26.7810839352,
			"-0.001": 25.6895299349,
			"0.0": 21.495323438,
			"0.001": 16.1825202019,
			"0.002": 14.1407252547,
			"0.003": 16.392057083,
			"0.004": 9.74155231556,
			"0.005": 6.5415042373,
			"0.006": 5.80289057189,
			"0.007": 8.45145457921,
			"0.008": 9.79673356611,
			"0.009": 3.53830098126,
			"0.01": 3.141822295,
			"0.011": 3.89299134775,
			"0.012": 0.220076078563,
			"0.013": 0.0,
			"0.014": 0.0,
			"0.015": 0.0,
			"0.016": 0.0,
			"0.017": 0.0,
			"0.018": 0.0,
			"0.019": 0.0,
			"0.02": 0.0,
			"0.021": 0.0,
			"0.022": 0.0,
			"0.023": 0.0,
			"0.024": 0.0,
			"0.025": 0.0
		}
	}
}
