{
	 "smiles": "NC(=O)NC(CC1=CC=CC=C1)C(O)=O", 
	 "Tm": 460.15, 
	 "num_atms": 27, 
	 "gaussian": { 
		 "optdone": 1, 
		 "sigma_profile": "yes", 
		 "theory": "DFT", 
		 "functional": "B3LYP", 
		 "basiset": "6-31G**", 
		 "properties": { 
			 "R2extent": 3987.1361, 
			 "electric_dipole_moment_norm": 3.85359200228, 
			 "electric_quadrupole_moment_norm": 13.2255628912, 
			 "total_energy": -723.49890231, 
			 "HOMO_LUMO_gap": 0.23531, 
			 "cosmo_polarized_energy": -21.14, 
			 "cosmo_cavitation_energy": 30.6, 
			 "cosmo_dispersion_energy": -21.78, 
			 "cosmo_repulsion_energy": 1.71, 
			 "cosmo_total_nonelectrostatic_energy": 10.53, 
			 "SMD_solvation_energy": 6.79 
		},
		"coords": [
			{
				"x": 0.2583110261,
				"y": -1.6601570746,
				"z": -2.0589241903,
				"element": "N" 
			},
			{
				"x": 0.8890938601,
				"y": -0.9651880401,
				"z": -3.0633928722,
				"element": "C" 
			},
			{
				"x": 1.0635992715,
				"y": -1.4254152049,
				"z": -4.1809853012,
				"element": "O" 
			},
			{
				"x": 1.3995093419,
				"y": 0.3067299363,
				"z": -2.7362130692,
				"element": "N" 
			},
			{
				"x": 0.9796173981,
				"y": 1.1114122841,
				"z": -1.582545618,
				"element": "C" 
			},
			{
				"x": 1.4365238905,
				"y": 0.4786889731,
				"z": -0.2173965531,
				"element": "C" 
			},
			{
				"x": 0.3182295742,
				"y": 0.3283061909,
				"z": 0.7954158551,
				"element": "C" 
			},
			{
				"x": -0.4759200397,
				"y": 1.4293671852,
				"z": 1.1560113039,
				"element": "C" 
			},
			{
				"x": -1.4966253945,
				"y": 1.2873969738,
				"z": 2.0950309973,
				"element": "C" 
			},
			{
				"x": -1.7410387919,
				"y": 0.046825176,
				"z": 2.6908566245,
				"element": "C" 
			},
			{
				"x": -0.9568146971,
				"y": -1.0520081908,
				"z": 2.3420510992,
				"element": "C" 
			},
			{
				"x": 0.0658571277,
				"y": -0.910912385,
				"z": 1.3996611523,
				"element": "C" 
			},
			{
				"x": 1.6181945683,
				"y": 2.5007204952,
				"z": -1.6903231483,
				"element": "C" 
			},
			{
				"x": 2.8584942371,
				"y": 2.5211103697,
				"z": -2.2278722098,
				"element": "O" 
			},
			{
				"x": 1.0914339963,
				"y": 3.503095886,
				"z": -1.2750058013,
				"element": "O" 
			},
			{
				"x": -0.1710652756,
				"y": -1.2004919135,
				"z": -1.2692023003,
				"element": "H" 
			},
			{
				"x": -0.1798501389,
				"y": -2.5125547358,
				"z": -2.3744218067,
				"element": "H" 
			},
			{
				"x": 1.4788505839,
				"y": 0.8250170547,
				"z": -3.6048935392,
				"element": "H" 
			},
			{
				"x": -0.1044556659,
				"y": 1.2761664163,
				"z": -1.5638303326,
				"element": "H" 
			},
			{
				"x": 2.2314739195,
				"y": 1.0990740122,
				"z": 0.2132994916,
				"element": "H" 
			},
			{
				"x": 1.8921332883,
				"y": -0.492470814,
				"z": -0.4236473918,
				"element": "H" 
			},
			{
				"x": -0.2890485559,
				"y": 2.3975028882,
				"z": 0.6980406511,
				"element": "H" 
			},
			{
				"x": -2.1013060311,
				"y": 2.1485225725,
				"z": 2.3647463922,
				"element": "H" 
			},
			{
				"x": -2.5365527363,
				"y": -0.0600171376,
				"z": 3.4224867202,
				"element": "H" 
			},
			{
				"x": -1.1367758974,
				"y": -2.019870603,
				"z": 2.8012702198,
				"element": "H" 
			},
			{
				"x": 0.6793804822,
				"y": -1.7695754664,
				"z": 1.136853107,
				"element": "H" 
			},
			{
				"x": 3.1109506584,
				"y": 1.6123251517,
				"z": -2.4705694802,
				"element": "H" 
			}
		],
		 "valence_orbital": [ 
			{
				"type": "occ",
				"energy": -0.28547,
				"method": "rhf"
			},
			{
				"type": "occ",
				"energy": -0.2734,
				"method": "rhf"
			},
			{
				"type": "occ",
				"energy": -0.26733,
				"method": "rhf"
			},
			{
				"type": "occ",
				"energy": -0.26185,
				"method": "rhf"
			},
			{
				"type": "occ",
				"energy": -0.25694,
				"method": "rhf"
			},
			{
				"type": "unocc",
				"energy": -0.02163,
				"method": "rhf"
			},
			{
				"type": "unocc",
				"energy": -0.01495,
				"method": "rhf"
			},
			{
				"type": "unocc",
				"energy": -0.00482,
				"method": "rhf"
			},
			{
				"type": "unocc",
				"energy": 0.03561,
				"method": "rhf"
			},
			{
				"type": "unocc",
				"energy": 0.0562,
				"method": "rhf"
			}
		],
		"cosmo_sigma_profile": { 
			"-0.025": 0.0,
			"-0.024": 0.0,
			"-0.023": 0.0,
			"-0.022": 0.0,
			"-0.021": 0.0,
			"-0.02": 0.0,
			"-0.019": 0.0,
			"-0.018": 0.0,
			"-0.017": 0.0,
			"-0.016": 0.450761122632,
			"-0.015": 1.36495589318,
			"-0.014": 3.73552193858,
			"-0.013": 3.30463148565,
			"-0.012": 2.56164850123,
			"-0.011": 4.00890552008,
			"-0.01": 3.25516121115,
			"-0.009": 4.49164387901,
			"-0.008": 4.30066709241,
			"-0.007": 7.05891374215,
			"-0.006": 12.3530529334,
			"-0.005": 15.4244356819,
			"-0.004": 16.8076101128,
			"-0.003": 18.6486573168,
			"-0.002": 13.1397163495,
			"-0.001": 13.7529159422,
			"0.0": 11.3038999045,
			"0.001": 10.8768728571,
			"0.002": 9.91909547064,
			"0.003": 12.1769726603,
			"0.004": 12.4951875391,
			"0.005": 11.6453920644,
			"0.006": 7.66938368026,
			"0.007": 4.32030328266,
			"0.008": 5.05713762902,
			"0.009": 5.0877898226,
			"0.01": 6.16338347547,
			"0.011": 5.87148432404,
			"0.012": 3.96229647362,
			"0.013": 4.26656398765,
			"0.014": 6.2152391757,
			"0.015": 0.793689597252,
			"0.016": 0.0,
			"0.017": 0.0,
			"0.018": 0.0,
			"0.019": 0.0,
			"0.02": 0.0,
			"0.021": 0.0,
			"0.022": 0.0,
			"0.023": 0.0,
			"0.024": 0.0,
			"0.025": 0.0
		}
	}
}
