{
	 "smiles": "CC(OC1=CC=C(Cl)C=C1Cl)C(=O)NC1=CC=C2N=C(SCC3=CC=CC=C3)SC2=C1", 
	 "Tm": 442.15, 
	 "num_atms": 49, 
	 "gaussian": { 
		 "optdone": 1, 
		 "sigma_profile": "yes", 
		 "theory": "DFT", 
		 "functional": "B3LYP", 
		 "basiset": "6-31G**", 
		 "properties": { 
			 "R2extent": 27654.7308, 
			 "electric_dipole_moment_norm": 1.53908707031, 
			 "electric_quadrupole_moment_norm": 17.0006456927, 
			 "total_energy": -2864.03125244, 
			 "HOMO_LUMO_gap": 0.16933, 
			 "cosmo_polarized_energy": -16.92, 
			 "cosmo_cavitation_energy": 61.23, 
			 "cosmo_dispersion_energy": -42.8, 
			 "cosmo_repulsion_energy": 3.16, 
			 "cosmo_total_nonelectrostatic_energy": 21.59, 
			 "SMD_solvation_energy": 8.32 
		},
		"coords": [
			{
				"x": 4.675818645,
				"y": 3.3706666569,
				"z": -0.4992032405,
				"element": "C" 
			},
			{
				"x": 3.5755307642,
				"y": 2.9119369901,
				"z": -1.4530602921,
				"element": "C" 
			},
			{
				"x": 2.5473500037,
				"y": 3.913512587,
				"z": -1.416352962,
				"element": "O" 
			},
			{
				"x": 1.6809304022,
				"y": 4.0192242471,
				"z": -2.468436731,
				"element": "C" 
			},
			{
				"x": 1.5741179731,
				"y": 3.0923893298,
				"z": -3.5119004747,
				"element": "C" 
			},
			{
				"x": 0.6567197697,
				"y": 3.2855721141,
				"z": -4.5459306963,
				"element": "C" 
			},
			{
				"x": -0.1649793561,
				"y": 4.4081125351,
				"z": -4.5361714831,
				"element": "C" 
			},
			{
				"x": -1.3213510722,
				"y": 4.6590697197,
				"z": -5.8321525807,
				"element": "Cl" 
			},
			{
				"x": -0.0865213349,
				"y": 5.3414461356,
				"z": -3.5024145854,
				"element": "C" 
			},
			{
				"x": 0.8324345316,
				"y": 5.1419994024,
				"z": -2.477217561,
				"element": "C" 
			},
			{
				"x": 0.9295924293,
				"y": 6.3100037261,
				"z": -1.1782084055,
				"element": "Cl" 
			},
			{
				"x": 3.0549428535,
				"y": 1.5182456822,
				"z": -1.0510338823,
				"element": "C" 
			},
			{
				"x": 3.6486535097,
				"y": 0.5143996098,
				"z": -1.4261542586,
				"element": "O" 
			},
			{
				"x": 1.9619832186,
				"y": 1.5497707753,
				"z": -0.2322899249,
				"element": "N" 
			},
			{
				"x": 1.2634198039,
				"y": 0.4727209067,
				"z": 0.3548561338,
				"element": "C" 
			},
			{
				"x": 0.1282901703,
				"y": 0.7937578667,
				"z": 1.130179075,
				"element": "C" 
			},
			{
				"x": -0.6215909099,
				"y": -0.194042261,
				"z": 1.7501709908,
				"element": "C" 
			},
			{
				"x": -0.2433002743,
				"y": -1.5349212556,
				"z": 1.6017439537,
				"element": "C" 
			},
			{
				"x": -0.8957382011,
				"y": -2.6224996172,
				"z": 2.1643140918,
				"element": "N" 
			},
			{
				"x": -0.3074914609,
				"y": -3.7314986197,
				"z": 1.848799439,
				"element": "C" 
			},
			{
				"x": -0.7744439513,
				"y": -5.3468124356,
				"z": 2.3696064506,
				"element": "S" 
			},
			{
				"x": -2.3349309693,
				"y": -4.9828740081,
				"z": 3.3147640382,
				"element": "C" 
			},
			{
				"x": -3.5950476379,
				"y": -5.0489905141,
				"z": 2.4926670232,
				"element": "C" 
			},
			{
				"x": -4.0771421663,
				"y": -3.9119900991,
				"z": 1.8286362782,
				"element": "C" 
			},
			{
				"x": -5.2486087374,
				"y": -3.9787968939,
				"z": 1.0743901864,
				"element": "C" 
			},
			{
				"x": -5.9538989876,
				"y": -5.1799458384,
				"z": 0.9735907332,
				"element": "C" 
			},
			{
				"x": -5.4817034228,
				"y": -6.3163817654,
				"z": 1.6329381656,
				"element": "C" 
			},
			{
				"x": -4.3102588787,
				"y": -6.2494399771,
				"z": 2.3872313158,
				"element": "C" 
			},
			{
				"x": 1.1331852421,
				"y": -3.5807499905,
				"z": 0.8040956409,
				"element": "S" 
			},
			{
				"x": 0.8959311204,
				"y": -1.8396224935,
				"z": 0.8217126002,
				"element": "C" 
			},
			{
				"x": 1.661956407,
				"y": -0.8601896663,
				"z": 0.1922753726,
				"element": "C" 
			},
			{
				"x": 4.281326754,
				"y": 3.4954996992,
				"z": 0.5131598783,
				"element": "H" 
			},
			{
				"x": 5.4724657596,
				"y": 2.6231797276,
				"z": -0.4775165457,
				"element": "H" 
			},
			{
				"x": 5.0879722455,
				"y": 4.3256290018,
				"z": -0.8338852144,
				"element": "H" 
			},
			{
				"x": 3.9777775079,
				"y": 2.8185113625,
				"z": -2.466625036,
				"element": "H" 
			},
			{
				"x": 2.1932649319,
				"y": 2.2032579774,
				"z": -3.5233922357,
				"element": "H" 
			},
			{
				"x": 0.5821452872,
				"y": 2.5603084749,
				"z": -5.3479174878,
				"element": "H" 
			},
			{
				"x": -0.7272390764,
				"y": 6.2146124142,
				"z": -3.4918374862,
				"element": "H" 
			},
			{
				"x": 1.593568316,
				"y": 2.4748473358,
				"z": -0.0494921872,
				"element": "H" 
			},
			{
				"x": -0.1609375651,
				"y": 1.8357198843,
				"z": 1.2414737591,
				"element": "H" 
			},
			{
				"x": -1.4922507166,
				"y": 0.0552692308,
				"z": 2.3472236962,
				"element": "H" 
			},
			{
				"x": -2.3348073403,
				"y": -5.7386950665,
				"z": 4.1040118354,
				"element": "H" 
			},
			{
				"x": -2.1866205652,
				"y": -4.000700683,
				"z": 3.765761664,
				"element": "H" 
			},
			{
				"x": -3.5217831989,
				"y": -2.9823159541,
				"z": 1.9042461053,
				"element": "H" 
			},
			{
				"x": -5.6127225282,
				"y": -3.0903899134,
				"z": 0.5659787701,
				"element": "H" 
			},
			{
				"x": -6.8669451107,
				"y": -5.2295639919,
				"z": 0.3872325813,
				"element": "H" 
			},
			{
				"x": -6.0263741832,
				"y": -7.2536784138,
				"z": 1.5629916706,
				"element": "H" 
			},
			{
				"x": -3.9480383184,
				"y": -7.1369486099,
				"z": 2.9010669229,
				"element": "H" 
			},
			{
				"x": 2.5319483174,
				"y": -1.0946153254,
				"z": -0.4045251009,
				"element": "H" 
			}
		],
		 "valence_orbital": [ 
			{
				"type": "occ",
				"energy": -0.25057,
				"method": "rhf"
			},
			{
				"type": "occ",
				"energy": -0.24498,
				"method": "rhf"
			},
			{
				"type": "occ",
				"energy": -0.23872,
				"method": "rhf"
			},
			{
				"type": "occ",
				"energy": -0.23825,
				"method": "rhf"
			},
			{
				"type": "occ",
				"energy": -0.2111,
				"method": "rhf"
			},
			{
				"type": "unocc",
				"energy": -0.04177,
				"method": "rhf"
			},
			{
				"type": "unocc",
				"energy": -0.0327,
				"method": "rhf"
			},
			{
				"type": "unocc",
				"energy": -0.02007,
				"method": "rhf"
			},
			{
				"type": "unocc",
				"energy": -0.01903,
				"method": "rhf"
			},
			{
				"type": "unocc",
				"energy": -0.01354,
				"method": "rhf"
			}
		],
		"cosmo_sigma_profile": { 
			"-0.025": 0.0,
			"-0.024": 0.0,
			"-0.023": 0.0,
			"-0.022": 0.0,
			"-0.021": 0.0,
			"-0.02": 0.0,
			"-0.019": 0.0,
			"-0.018": 0.0,
			"-0.017": 0.0,
			"-0.016": 0.0,
			"-0.015": 0.0,
			"-0.014": 0.415525102789,
			"-0.013": 1.22781302051,
			"-0.012": 1.06572103964,
			"-0.011": 0.656274997027,
			"-0.01": 1.50332549991,
			"-0.009": 2.03281210366,
			"-0.008": 8.37175215299,
			"-0.007": 15.4076756472,
			"-0.006": 21.0689202062,
			"-0.005": 27.7848124306,
			"-0.004": 32.3469347858,
			"-0.003": 32.3225840175,
			"-0.002": 32.7851015098,
			"-0.001": 35.1320676622,
			"0.0": 40.9947819125,
			"0.001": 50.8709944954,
			"0.002": 50.5688948416,
			"0.003": 49.7155632294,
			"0.004": 40.1382944665,
			"0.005": 23.6426774689,
			"0.006": 13.2105915603,
			"0.007": 5.27692707006,
			"0.008": 3.17902640634,
			"0.009": 2.04784479393,
			"0.01": 1.69555630271,
			"0.011": 2.21734949049,
			"0.012": 2.25684833569,
			"0.013": 2.07119512961,
			"0.014": 0.159037104754,
			"0.015": 0.0,
			"0.016": 0.0,
			"0.017": 0.0,
			"0.018": 0.0,
			"0.019": 0.0,
			"0.02": 0.0,
			"0.021": 0.0,
			"0.022": 0.0,
			"0.023": 0.0,
			"0.024": 0.0,
			"0.025": 0.0
		}
	}
}
