{
	 "smiles": "O=CC1=CN=C(C=C1)C1=CC=CC=C1", 
	 "Tm": 331.15, 
	 "num_atms": 23, 
	 "gaussian": { 
		 "optdone": 1, 
		 "sigma_profile": "yes", 
		 "theory": "DFT", 
		 "functional": "B3LYP", 
		 "basiset": "6-31G**", 
		 "properties": { 
			 "R2extent": 3949.6561, 
			 "electric_dipole_moment_norm": 2.74660810091, 
			 "electric_quadrupole_moment_norm": 16.9572367201, 
			 "total_energy": -592.670745946, 
			 "HOMO_LUMO_gap": 0.15945, 
			 "cosmo_polarized_energy": -9.88, 
			 "cosmo_cavitation_energy": 27.87, 
			 "cosmo_dispersion_energy": -20.49, 
			 "cosmo_repulsion_energy": 1.57, 
			 "cosmo_total_nonelectrostatic_energy": 8.95, 
			 "SMD_solvation_energy": 4.74 
		},
		"coords": [
			{
				"x": 1.8795165339,
				"y": 0.9064012291,
				"z": -5.1711624876,
				"element": "O" 
			},
			{
				"x": 2.2375660978,
				"y": 0.8325919159,
				"z": -4.0099570162,
				"element": "C" 
			},
			{
				"x": 1.3170642371,
				"y": 0.7843713324,
				"z": -2.8577783312,
				"element": "C" 
			},
			{
				"x": 1.8053570624,
				"y": 0.6907361575,
				"z": -1.5491726656,
				"element": "C" 
			},
			{
				"x": 1.0326688238,
				"y": 0.6494532551,
				"z": -0.4659830586,
				"element": "N" 
			},
			{
				"x": -0.3062237418,
				"y": 0.6979797062,
				"z": -0.6277196723,
				"element": "C" 
			},
			{
				"x": -0.8897608159,
				"y": 0.7697724038,
				"z": -1.9114414298,
				"element": "C" 
			},
			{
				"x": -0.0743042543,
				"y": 0.8184443796,
				"z": -3.0291094908,
				"element": "C" 
			},
			{
				"x": -1.1240587396,
				"y": 0.6552486466,
				"z": 0.6105105023,
				"element": "C" 
			},
			{
				"x": -2.4754707594,
				"y": 1.0415729015,
				"z": 0.6237724717,
				"element": "C" 
			},
			{
				"x": -3.2203413765,
				"y": 0.9862540497,
				"z": 1.8002544227,
				"element": "C" 
			},
			{
				"x": -2.6298230296,
				"y": 0.5432423138,
				"z": 2.9852576819,
				"element": "C" 
			},
			{
				"x": -1.2851615311,
				"y": 0.1641052542,
				"z": 2.9865287133,
				"element": "C" 
			},
			{
				"x": -0.5380002268,
				"y": 0.2233065944,
				"z": 1.8133930492,
				"element": "C" 
			},
			{
				"x": 3.3173220419,
				"y": 0.7959703191,
				"z": -3.7455351283,
				"element": "H" 
			},
			{
				"x": 2.8809913184,
				"y": 0.6491400337,
				"z": -1.3732906923,
				"element": "H" 
			},
			{
				"x": -1.9673127461,
				"y": 0.7667144277,
				"z": -2.0265195807,
				"element": "H" 
			},
			{
				"x": -0.4806778309,
				"y": 0.8736466272,
				"z": -4.0344538218,
				"element": "H" 
			},
			{
				"x": -2.9485585326,
				"y": 1.4128533859,
				"z": -0.2795259954,
				"element": "H" 
			},
			{
				"x": -4.2613360466,
				"y": 1.2958969426,
				"z": 1.7921477365,
				"element": "H" 
			},
			{
				"x": -3.2117749608,
				"y": 0.4986563599,
				"z": 3.9012976065,
				"element": "H" 
			},
			{
				"x": -0.8176223074,
				"y": -0.1789703234,
				"z": 3.9050040122,
				"element": "H" 
			},
			{
				"x": 0.5074407841,
				"y": -0.0622879122,
				"z": 1.8041831744,
				"element": "H" 
			}
		],
		 "valence_orbital": [ 
			{
				"type": "occ",
				"energy": -0.29334,
				"method": "rhf"
			},
			{
				"type": "occ",
				"energy": -0.27484,
				"method": "rhf"
			},
			{
				"type": "occ",
				"energy": -0.25859,
				"method": "rhf"
			},
			{
				"type": "occ",
				"energy": -0.25455,
				"method": "rhf"
			},
			{
				"type": "occ",
				"energy": -0.23985,
				"method": "rhf"
			},
			{
				"type": "unocc",
				"energy": -0.0804,
				"method": "rhf"
			},
			{
				"type": "unocc",
				"energy": -0.03432,
				"method": "rhf"
			},
			{
				"type": "unocc",
				"energy": -0.01403,
				"method": "rhf"
			},
			{
				"type": "unocc",
				"energy": -0.00564,
				"method": "rhf"
			},
			{
				"type": "unocc",
				"energy": 0.04638,
				"method": "rhf"
			}
		],
		"cosmo_sigma_profile": { 
			"-0.025": 0.0,
			"-0.024": 0.0,
			"-0.023": 0.0,
			"-0.022": 0.0,
			"-0.021": 0.0,
			"-0.02": 0.0,
			"-0.019": 0.0,
			"-0.018": 0.0,
			"-0.017": 0.0,
			"-0.016": 0.0,
			"-0.015": 0.0,
			"-0.014": 0.0,
			"-0.013": 0.0,
			"-0.012": 0.0,
			"-0.011": 0.0,
			"-0.01": 0.0,
			"-0.009": 1.33791529083,
			"-0.008": 5.14746025092,
			"-0.007": 9.47615262358,
			"-0.006": 14.5003464328,
			"-0.005": 15.512387169,
			"-0.004": 16.807892101,
			"-0.003": 14.4607471967,
			"-0.002": 12.8958297898,
			"-0.001": 15.880030386,
			"0.0": 22.3567688077,
			"0.001": 17.2965400211,
			"0.002": 14.8169489609,
			"0.003": 12.9787313972,
			"0.004": 13.8616093606,
			"0.005": 12.3896857623,
			"0.006": 3.33325758215,
			"0.007": 2.7393430782,
			"0.008": 2.81261059347,
			"0.009": 4.13158684591,
			"0.01": 3.38612387573,
			"0.011": 4.8767234219,
			"0.012": 3.08351465259,
			"0.013": 0.742798805661,
			"0.014": 0.0,
			"0.015": 0.0,
			"0.016": 0.0,
			"0.017": 0.0,
			"0.018": 0.0,
			"0.019": 0.0,
			"0.02": 0.0,
			"0.021": 0.0,
			"0.022": 0.0,
			"0.023": 0.0,
			"0.024": 0.0,
			"0.025": 0.0
		}
	}
}
