{
	 "smiles": "CN(C1=CC=C(F)C=C1)S(=O)(=O)C1=CC(C(O)=O)=C(Cl)C=C1", 
	 "Tm": 448.15, 
	 "num_atms": 33, 
	 "gaussian": { 
		 "optdone": 1, 
		 "sigma_profile": "yes", 
		 "theory": "DFT", 
		 "functional": "B3LYP", 
		 "basiset": "6-31G**", 
		 "properties": { 
			 "R2extent": 8790.1228, 
			 "electric_dipole_moment_norm": 3.11667159804, 
			 "electric_quadrupole_moment_norm": 16.1736261281, 
			 "total_energy": -1853.90924809, 
			 "HOMO_LUMO_gap": 0.18306, 
			 "cosmo_polarized_energy": -17.69, 
			 "cosmo_cavitation_energy": 41.89, 
			 "cosmo_dispersion_energy": -28.5, 
			 "cosmo_repulsion_energy": 2.14, 
			 "cosmo_total_nonelectrostatic_energy": 15.52, 
			 "SMD_solvation_energy": 7.87 
		},
		"coords": [
			{
				"x": 2.6376574503,
				"y": -0.7914288681,
				"z": 2.4776728101,
				"element": "C" 
			},
			{
				"x": 1.6873132295,
				"y": -0.276585935,
				"z": 1.4716675049,
				"element": "N" 
			},
			{
				"x": 0.2902249453,
				"y": -0.5132470117,
				"z": 1.745478545,
				"element": "C" 
			},
			{
				"x": -0.3731304227,
				"y": -1.4885305701,
				"z": 0.9924048596,
				"element": "C" 
			},
			{
				"x": -1.7113618898,
				"y": -1.7881948625,
				"z": 1.244054688,
				"element": "C" 
			},
			{
				"x": -2.3691504234,
				"y": -1.0941239584,
				"z": 2.2537304465,
				"element": "C" 
			},
			{
				"x": -3.6628350837,
				"y": -1.3757623997,
				"z": 2.5024180427,
				"element": "F" 
			},
			{
				"x": -1.7352667917,
				"y": -0.1164079316,
				"z": 3.0147116501,
				"element": "C" 
			},
			{
				"x": -0.3962796089,
				"y": 0.1715779078,
				"z": 2.7583621443,
				"element": "C" 
			},
			{
				"x": 2.0842980827,
				"y": 1.2453013982,
				"z": 0.8089219524,
				"element": "S" 
			},
			{
				"x": 1.387771982,
				"y": 2.3430557126,
				"z": 1.4939072717,
				"element": "O" 
			},
			{
				"x": 3.5451169115,
				"y": 1.2558833931,
				"z": 0.6908122429,
				"element": "O" 
			},
			{
				"x": 1.3687849238,
				"y": 1.1138968915,
				"z": -0.8322854711,
				"element": "C" 
			},
			{
				"x": 2.007231197,
				"y": 0.3343912447,
				"z": -1.7902580955,
				"element": "C" 
			},
			{
				"x": 1.4945700316,
				"y": 0.2367046195,
				"z": -3.0931973064,
				"element": "C" 
			},
			{
				"x": 2.2323802697,
				"y": -0.5947063366,
				"z": -4.0943566729,
				"element": "C" 
			},
			{
				"x": 3.2093127331,
				"y": -1.3342479385,
				"z": -3.5073757401,
				"element": "O" 
			},
			{
				"x": 2.0298035974,
				"y": -0.6345557935,
				"z": -5.2871689017,
				"element": "O" 
			},
			{
				"x": 0.3147529711,
				"y": 0.9518599806,
				"z": -3.3971015463,
				"element": "C" 
			},
			{
				"x": -0.4491777522,
				"y": 0.9015431563,
				"z": -4.9634790052,
				"element": "Cl" 
			},
			{
				"x": -0.3127384726,
				"y": 1.7377758482,
				"z": -2.426104124,
				"element": "C" 
			},
			{
				"x": 0.2123825086,
				"y": 1.8284582926,
				"z": -1.1409481937,
				"element": "C" 
			},
			{
				"x": 2.4543522608,
				"y": -1.8634141631,
				"z": 2.5809993522,
				"element": "H" 
			},
			{
				"x": 2.5186782166,
				"y": -0.3147374617,
				"z": 3.4589574511,
				"element": "H" 
			},
			{
				"x": 3.6546800533,
				"y": -0.6326277201,
				"z": 2.1202844591,
				"element": "H" 
			},
			{
				"x": 0.1712138445,
				"y": -2.009309815,
				"z": 0.2115918673,
				"element": "H" 
			},
			{
				"x": -2.2444133654,
				"y": -2.5411561455,
				"z": 0.6741571473,
				"element": "H" 
			},
			{
				"x": -2.2899258735,
				"y": 0.40270665,
				"z": 3.788654343,
				"element": "H" 
			},
			{
				"x": 0.1139300053,
				"y": 0.941213391,
				"z": 3.3263711161,
				"element": "H" 
			},
			{
				"x": 2.9172130733,
				"y": -0.1954422633,
				"z": -1.5394389501,
				"element": "H" 
			},
			{
				"x": 3.6469164556,
				"y": -1.8104471939,
				"z": -4.231917022,
				"element": "H" 
			},
			{
				"x": -1.2146244838,
				"y": 2.2780557469,
				"z": -2.6896224494,
				"element": "H" 
			},
			{
				"x": -0.2593805754,
				"y": 2.4471021351,
				"z": -0.385904416,
				"element": "H" 
			}
		],
		 "valence_orbital": [ 
			{
				"type": "occ",
				"energy": -0.28201,
				"method": "rhf"
			},
			{
				"type": "occ",
				"energy": -0.28076,
				"method": "rhf"
			},
			{
				"type": "occ",
				"energy": -0.27544,
				"method": "rhf"
			},
			{
				"type": "occ",
				"energy": -0.25896,
				"method": "rhf"
			},
			{
				"type": "occ",
				"energy": -0.25741,
				"method": "rhf"
			},
			{
				"type": "unocc",
				"energy": -0.07435,
				"method": "rhf"
			},
			{
				"type": "unocc",
				"energy": -0.05395,
				"method": "rhf"
			},
			{
				"type": "unocc",
				"energy": -0.02622,
				"method": "rhf"
			},
			{
				"type": "unocc",
				"energy": -0.02332,
				"method": "rhf"
			},
			{
				"type": "unocc",
				"energy": 0.01724,
				"method": "rhf"
			}
		],
		"cosmo_sigma_profile": { 
			"-0.025": 0.0,
			"-0.024": 0.0,
			"-0.023": 0.0,
			"-0.022": 0.0,
			"-0.021": 0.0,
			"-0.02": 0.0,
			"-0.019": 0.295880852594,
			"-0.018": 1.00354407356,
			"-0.017": 0.823944810005,
			"-0.016": 0.969599421504,
			"-0.015": 0.766657618861,
			"-0.014": 0.717560247896,
			"-0.013": 0.220690731989,
			"-0.012": 1.03233973674,
			"-0.011": 1.13257205522,
			"-0.01": 0.386973889913,
			"-0.009": 1.81348151598,
			"-0.008": 6.0036701553,
			"-0.007": 10.663306142,
			"-0.006": 13.4438712902,
			"-0.005": 18.8686164657,
			"-0.004": 19.8510247751,
			"-0.003": 23.9355016296,
			"-0.002": 29.8596180229,
			"-0.001": 32.8116609496,
			"0.0": 30.7305254981,
			"0.001": 24.2244508051,
			"0.002": 23.598472018,
			"0.003": 22.510148718,
			"0.004": 19.7954195478,
			"0.005": 7.87009050506,
			"0.006": 4.8890011631,
			"0.007": 5.25349639978,
			"0.008": 5.36901299716,
			"0.009": 6.85095513856,
			"0.01": 9.82029633513,
			"0.011": 11.1990028027,
			"0.012": 1.47010214088,
			"0.013": 0.0,
			"0.014": 0.0,
			"0.015": 0.0,
			"0.016": 0.0,
			"0.017": 0.0,
			"0.018": 0.0,
			"0.019": 0.0,
			"0.02": 0.0,
			"0.021": 0.0,
			"0.022": 0.0,
			"0.023": 0.0,
			"0.024": 0.0,
			"0.0": 0.0
		}
	}
}
