{
	 "smiles": "CC1=CC(=C(C)O1)C1=NC2=C(C(C)=NO2)C(=C1)C(O)=O", 
	 "Tm": 540.15, 
	 "num_atms": 32, 
	 "gaussian": { 
		 "optdone": 1, 
		 "sigma_profile": "yes", 
		 "theory": "DFT", 
		 "functional": "B3LYP", 
		 "basiset": "6-31G**", 
		 "properties": { 
			 "R2extent": 7548.6632, 
			 "electric_dipole_moment_norm": 5.22882542642, 
			 "electric_quadrupole_moment_norm": 14.3762725235, 
			 "total_energy": -951.087584294, 
			 "HOMO_LUMO_gap": 0.13392, 
			 "cosmo_polarized_energy": -18.29, 
			 "cosmo_cavitation_energy": 37.11, 
			 "cosmo_dispersion_energy": -26.78, 
			 "cosmo_repulsion_energy": 2.04, 
			 "cosmo_total_nonelectrostatic_energy": 12.36, 
			 "SMD_solvation_energy": 6.96 
		},
		"coords": [
			{
				"x": -3.9505902194,
				"y": -3.243952167,
				"z": -0.7547535098,
				"element": "C" 
			},
			{
				"x": -2.7145330088,
				"y": -2.6918140096,
				"z": -0.138429635,
				"element": "C" 
			},
			{
				"x": -1.6355036318,
				"y": -2.02413057,
				"z": -0.620668792,
				"element": "C" 
			},
			{
				"x": -0.7618072689,
				"y": -1.7629722835,
				"z": 0.5004155106,
				"element": "C" 
			},
			{
				"x": -1.3913645381,
				"y": -2.3042574049,
				"z": 1.6033783371,
				"element": "C" 
			},
			{
				"x": -1.0627345748,
				"y": -2.3981374472,
				"z": 3.0522174579,
				"element": "C" 
			},
			{
				"x": -2.5711178655,
				"y": -2.8642904753,
				"z": 1.218258631,
				"element": "O" 
			},
			{
				"x": 0.523147642,
				"y": -1.0731798067,
				"z": 0.4925748659,
				"element": "C" 
			},
			{
				"x": 1.1826536846,
				"y": -0.9694692682,
				"z": 1.6632909624,
				"element": "N" 
			},
			{
				"x": 2.347962006,
				"y": -0.3499924125,
				"z": 1.601447694,
				"element": "C" 
			},
			{
				"x": 2.9835988514,
				"y": 0.2065270303,
				"z": 0.4791873705,
				"element": "C" 
			},
			{
				"x": 4.208635967,
				"y": 0.7461467891,
				"z": 1.0138042511,
				"element": "C" 
			},
			{
				"x": 5.323696164,
				"y": 1.479376933,
				"z": 0.3389646402,
				"element": "C" 
			},
			{
				"x": 4.2809484649,
				"y": 0.5224297407,
				"z": 2.3039727804,
				"element": "N" 
			},
			{
				"x": 3.1129517997,
				"y": -0.1701150199,
				"z": 2.6970826038,
				"element": "O" 
			},
			{
				"x": 2.2840575862,
				"y": 0.1160554693,
				"z": -0.7389597323,
				"element": "C" 
			},
			{
				"x": 1.0508804116,
				"y": -0.5312063331,
				"z": -0.7121544969,
				"element": "C" 
			},
			{
				"x": 2.855683443,
				"y": 0.6323363089,
				"z": -2.0291442003,
				"element": "C" 
			},
			{
				"x": 1.956185874,
				"y": 1.1193231467,
				"z": -2.9204511396,
				"element": "O" 
			},
			{
				"x": 4.0325976672,
				"y": 0.6099114571,
				"z": -2.2964512382,
				"element": "O" 
			},
			{
				"x": -3.949422618,
				"y": -3.0471622947,
				"z": -1.8292300338,
				"element": "H" 
			},
			{
				"x": -4.0236921269,
				"y": -4.3270816457,
				"z": -0.6042766722,
				"element": "H" 
			},
			{
				"x": -4.8505730635,
				"y": -2.7909128515,
				"z": -0.3234115698,
				"element": "H" 
			},
			{
				"x": -1.4794620272,
				"y": -1.7564106097,
				"z": -1.6557892652,
				"element": "H" 
			},
			{
				"x": -0.8991092892,
				"y": -1.4072470292,
				"z": 3.4852092331,
				"element": "H" 
			},
			{
				"x": -0.1367216762,
				"y": -2.9586483199,
				"z": 3.212055937,
				"element": "H" 
			},
			{
				"x": -1.8807487769,
				"y": -2.8946560123,
				"z": 3.5792106663,
				"element": "H" 
			},
			{
				"x": 4.960659252,
				"y": 2.4077009113,
				"z": -0.1132133395,
				"element": "H" 
			},
			{
				"x": 6.0949831449,
				"y": 1.7203316636,
				"z": 1.0729681062,
				"element": "H" 
			},
			{
				"x": 5.7466173818,
				"y": 0.8774683066,
				"z": -0.4677466107,
				"element": "H" 
			},
			{
				"x": 0.4954320723,
				"y": -0.6710593332,
				"z": -1.6326790441,
				"element": "H" 
			},
			{
				"x": 1.0850892726,
				"y": 1.1918875377,
				"z": -2.5040797681,
				"element": "H" 
			}
		],
		 "valence_orbital": [ 
			{
				"type": "occ",
				"energy": -0.29771,
				"method": "rhf"
			},
			{
				"type": "occ",
				"energy": -0.28204,
				"method": "rhf"
			},
			{
				"type": "occ",
				"energy": -0.27371,
				"method": "rhf"
			},
			{
				"type": "occ",
				"energy": -0.25961,
				"method": "rhf"
			},
			{
				"type": "occ",
				"energy": -0.21939,
				"method": "rhf"
			},
			{
				"type": "unocc",
				"energy": -0.08547,
				"method": "rhf"
			},
			{
				"type": "unocc",
				"energy": -0.03897,
				"method": "rhf"
			},
			{
				"type": "unocc",
				"energy": 0.0079,
				"method": "rhf"
			},
			{
				"type": "unocc",
				"energy": 0.01619,
				"method": "rhf"
			},
			{
				"type": "unocc",
				"energy": 0.02891,
				"method": "rhf"
			}
		],
		"cosmo_sigma_profile": { 
			"-0.025": 0.0,
			"-0.024": 0.0,
			"-0.023": 0.0,
			"-0.022": 0.0,
			"-0.021": 0.0,
			"-0.02": 0.0,
			"-0.019": 0.577444378807,
			"-0.018": 0.768554206043,
			"-0.017": 1.06638052519,
			"-0.016": 1.09285907126,
			"-0.015": 0.561640153444,
			"-0.014": 1.38048504834,
			"-0.013": 1.71843072988,
			"-0.012": 0.904846079527,
			"-0.011": 1.16071231373,
			"-0.01": 1.95623916623,
			"-0.009": 2.8730699832,
			"-0.008": 2.66621149487,
			"-0.007": 4.28475852893,
			"-0.006": 8.35183793468,
			"-0.005": 15.6990486968,
			"-0.004": 19.9761528902,
			"-0.003": 24.9682087409,
			"-0.002": 31.0759170907,
			"-0.001": 37.0179566804,
			"0.0": 20.6519288643,
			"0.001": 16.3263510009,
			"0.002": 15.0579922947,
			"0.003": 14.3472931171,
			"0.004": 12.0773298461,
			"0.005": 10.3171808343,
			"0.006": 8.17494088622,
			"0.007": 10.6663303021,
			"0.008": 10.9472959101,
			"0.009": 6.2637809047,
			"0.01": 5.92710481431,
			"0.011": 3.75822502979,
			"0.012": 2.87511418985,
			"0.013": 0.957180132548,
			"0.014": 0.435079853947,
			"0.015": 0.0,
			"0.016": 0.0,
			"0.017": 0.0,
			"0.018": 0.0,
			"0.019": 0.0,
			"0.02": 0.0,
			"0.021": 0.0,
			"0.022": 0.0,
			"0.023": 0.0,
			"0.024": 0.0,
			"0.025": 0.0
		}
	}
}
