{
	 "smiles": "CC(C)C1=C(O)C(=O)C2=C([C@@H]3O[C@@H]3[C@H]3C(C)(C)CCC[C@]23C)C1=O", 
	 "Tm": 475.15, 
	 "num_atms": 50, 
	 "gaussian": { 
		 "optdone": 1, 
		 "sigma_profile": "yes", 
		 "theory": "DFT", 
		 "functional": "B3LYP", 
		 "basiset": "6-31G**", 
		 "properties": { 
			 "R2extent": 8938.4246, 
			 "electric_dipole_moment_norm": 1.25106860723, 
			 "electric_quadrupole_moment_norm": 25.8064223971, 
			 "total_energy": -1078.63261349, 
			 "HOMO_LUMO_gap": 0.13377, 
			 "cosmo_polarized_energy": -16.56, 
			 "cosmo_cavitation_energy": 45.82, 
			 "cosmo_dispersion_energy": -32.24, 
			 "cosmo_repulsion_energy": 2.39, 
			 "cosmo_total_nonelectrostatic_energy": 15.96, 
			 "SMD_solvation_energy": 8.12 
		},
		"coords": [
			{
				"x": 2.7396565417,
				"y": -1.640320377,
				"z": 4.6191692628,
				"element": "C" 
			},
			{
				"x": 1.2165566506,
				"y": -1.864119287,
				"z": 4.7110807571,
				"element": "C" 
			},
			{
				"x": 0.8763509717,
				"y": -3.3289066117,
				"z": 5.0541664359,
				"element": "C" 
			},
			{
				"x": 0.4878256318,
				"y": -1.3814164818,
				"z": 3.464660374,
				"element": "C" 
			},
			{
				"x": -0.4781410855,
				"y": -0.4251817791,
				"z": 3.4845226682,
				"element": "C" 
			},
			{
				"x": -0.9290471858,
				"y": 0.2246441574,
				"z": 4.5744050796,
				"element": "O" 
			},
			{
				"x": -1.2367549051,
				"y": -0.0014328169,
				"z": 2.251765932,
				"element": "C" 
			},
			{
				"x": -2.2607413287,
				"y": 0.6522304924,
				"z": 2.3856251234,
				"element": "O" 
			},
			{
				"x": -0.7304939619,
				"y": -0.4445309914,
				"z": 0.9181527562,
				"element": "C" 
			},
			{
				"x": 0.1790510931,
				"y": -1.4473425808,
				"z": 0.9092667501,
				"element": "C" 
			},
			{
				"x": 0.5829595268,
				"y": -2.1168715185,
				"z": -0.3561503762,
				"element": "C" 
			},
			{
				"x": 1.6171845905,
				"y": -1.4957305971,
				"z": -1.1410131613,
				"element": "O" 
			},
			{
				"x": 0.2556297833,
				"y": -1.440422498,
				"z": -1.6148501749,
				"element": "C" 
			},
			{
				"x": -0.390087781,
				"y": -0.0598500733,
				"z": -1.561353957,
				"element": "C" 
			},
			{
				"x": -0.9145725206,
				"y": 0.4391183441,
				"z": -2.9583271604,
				"element": "C" 
			},
			{
				"x": -1.6933032708,
				"y": -0.6180683125,
				"z": -3.7730697753,
				"element": "C" 
			},
			{
				"x": 0.3226782635,
				"y": 0.8492538055,
				"z": -3.7887109759,
				"element": "C" 
			},
			{
				"x": -1.8262572997,
				"y": 1.6823611874,
				"z": -2.752978118,
				"element": "C" 
			},
			{
				"x": -1.4425125649,
				"y": 2.4705517279,
				"z": -1.5008156366,
				"element": "C" 
			},
			{
				"x": -1.6653520854,
				"y": 1.6569293531,
				"z": -0.2085887714,
				"element": "C" 
			},
			{
				"x": -1.3817941371,
				"y": 0.1167222122,
				"z": -0.3578475646,
				"element": "C" 
			},
			{
				"x": -2.7121096578,
				"y": -0.6645460141,
				"z": -0.5328130971,
				"element": "C" 
			},
			{
				"x": 0.805501079,
				"y": -1.989559149,
				"z": 2.1591589385,
				"element": "C" 
			},
			{
				"x": 1.586759348,
				"y": -2.9366320105,
				"z": 2.0579250358,
				"element": "O" 
			},
			{
				"x": 2.9745424922,
				"y": -0.5895865649,
				"z": 4.4212268933,
				"element": "H" 
			},
			{
				"x": 3.2175408644,
				"y": -1.922711506,
				"z": 5.5632191238,
				"element": "H" 
			},
			{
				"x": 3.1681064068,
				"y": -2.2467392664,
				"z": 3.8192864853,
				"element": "H" 
			},
			{
				"x": 0.872256857,
				"y": -1.2572017999,
				"z": 5.5641609616,
				"element": "H" 
			},
			{
				"x": -0.203547769,
				"y": -3.4692214618,
				"z": 5.1678581507,
				"element": "H" 
			},
			{
				"x": 1.2304427221,
				"y": -3.9954488899,
				"z": 4.2658153326,
				"element": "H" 
			},
			{
				"x": 1.3569063958,
				"y": -3.6164953274,
				"z": 5.9953900644,
				"element": "H" 
			},
			{
				"x": -0.4552456688,
				"y": -0.0952613875,
				"z": 5.3554071318,
				"element": "H" 
			},
			{
				"x": 0.6575937738,
				"y": -3.2008200545,
				"z": -0.3016253061,
				"element": "H" 
			},
			{
				"x": 0.0777260228,
				"y": -2.0609846153,
				"z": -2.4900532229,
				"element": "H" 
			},
			{
				"x": 0.4479507523,
				"y": 0.6012142133,
				"z": -1.3107205401,
				"element": "H" 
			},
			{
				"x": -1.0486219369,
				"y": -1.4248603981,
				"z": -4.1356417538,
				"element": "H" 
			},
			{
				"x": -2.5138405446,
				"y": -1.068980359,
				"z": -3.210027599,
				"element": "H" 
			},
			{
				"x": -2.1266532382,
				"y": -0.1404976119,
				"z": -4.6592065254,
				"element": "H" 
			},
			{
				"x": 0.8395926288,
				"y": 1.7059714618,
				"z": -3.3428088169,
				"element": "H" 
			},
			{
				"x": 0.0294045219,
				"y": 1.1267098048,
				"z": -4.8073207467,
				"element": "H" 
			},
			{
				"x": 1.0466453122,
				"y": 0.0301028638,
				"z": -3.8602413179,
				"element": "H" 
			},
			{
				"x": -1.7684385433,
				"y": 2.3183199429,
				"z": -3.6449532484,
				"element": "H" 
			},
			{
				"x": -2.8758442845,
				"y": 1.3728299847,
				"z": -2.6740273882,
				"element": "H" 
			},
			{
				"x": -0.3921620128,
				"y": 2.7793852035,
				"z": -1.576873752,
				"element": "H" 
			},
			{
				"x": -2.0215021423,
				"y": 3.3989654133,
				"z": -1.4403273562,
				"element": "H" 
			},
			{
				"x": -2.6914925701,
				"y": 1.7885282142,
				"z": 0.1415897076,
				"element": "H" 
			},
			{
				"x": -1.0309485257,
				"y": 2.0789821446,
				"z": 0.576346637,
				"element": "H" 
			},
			{
				"x": -3.3061865325,
				"y": -0.5918140063,
				"z": 0.3814719266,
				"element": "H" 
			},
			{
				"x": -3.3140144989,
				"y": -0.2564221284,
				"z": -1.346792769,
				"element": "H" 
			},
			{
				"x": -2.5265961781,
				"y": -1.7239440512,
				"z": -0.7389324168,
				"element": "H" 
			}
		],
		 "valence_orbital": [ 
			{
				"type": "occ",
				"energy": -0.27596,
				"method": "rhf"
			},
			{
				"type": "occ",
				"energy": -0.2681,
				"method": "rhf"
			},
			{
				"type": "occ",
				"energy": -0.26337,
				"method": "rhf"
			},
			{
				"type": "occ",
				"energy": -0.25135,
				"method": "rhf"
			},
			{
				"type": "occ",
				"energy": -0.2474,
				"method": "rhf"
			},
			{
				"type": "unocc",
				"energy": -0.11363,
				"method": "rhf"
			},
			{
				"type": "unocc",
				"energy": -0.00885,
				"method": "rhf"
			},
			{
				"type": "unocc",
				"energy": 0.01164,
				"method": "rhf"
			},
			{
				"type": "unocc",
				"energy": 0.04167,
				"method": "rhf"
			},
			{
				"type": "unocc",
				"energy": 0.07259,
				"method": "rhf"
			}
		],
		"cosmo_sigma_profile": { 
			"-0.025": 0.0,
			"-0.024": 0.0,
			"-0.023": 0.0,
			"-0.022": 0.0,
			"-0.021": 0.0,
			"-0.02": 0.0,
			"-0.019": 0.0,
			"-0.018": 0.623100146065,
			"-0.017": 0.862363470236,
			"-0.016": 0.774221063871,
			"-0.015": 1.31939169033,
			"-0.014": 0.705723562894,
			"-0.013": 0.596153258049,
			"-0.012": 1.39487812522,
			"-0.011": 1.18650399512,
			"-0.01": 0.504554716953,
			"-0.009": 1.09523989266,
			"-0.008": 1.43897292436,
			"-0.007": 1.6661132697,
			"-0.006": 5.62746999517,
			"-0.005": 10.1426345264,
			"-0.004": 19.4269953809,
			"-0.003": 42.1817984601,
			"-0.002": 49.7100223414,
			"-0.001": 48.6934735033,
			"0.0": 44.930314296,
			"0.001": 43.17968389,
			"0.002": 15.4995972368,
			"0.003": 5.95569893857,
			"0.004": 6.82140996285,
			"0.005": 5.54105939308,
			"0.006": 5.86124522907,
			"0.007": 6.20928162085,
			"0.008": 5.66089202373,
			"0.009": 5.81261353783,
			"0.01": 7.63515401941,
			"0.011": 7.65521701064,
			"0.012": 5.3427418763,
			"0.013": 1.98547362088,
			"0.014": 0.521108282336,
			"0.015": 0.0,
			"0.016": 0.0,
			"0.017": 0.0,
			"0.018": 0.0,
			"0.019": 0.0,
			"0.02": 0.0,
			"0.021": 0.0,
			"0.022": 0.0,
			"0.023": 0.0,
			"0.024": 0.0,
			"0.025": 0.0
		}
	}
}
