{
	 "smiles": "CN1C=C(C=O)C(=O)N(C)C1=O", 
	 "Tm": 395.15, 
	 "num_atms": 20, 
	 "gaussian": { 
		 "optdone": 1, 
		 "sigma_profile": "yes", 
		 "theory": "DFT", 
		 "functional": "B3LYP", 
		 "basiset": "6-31G**", 
		 "properties": { 
			 "R2extent": 2168.8943, 
			 "electric_dipole_moment_norm": 3.54261854142, 
			 "electric_quadrupole_moment_norm": 13.9096365535, 
			 "total_energy": -606.766213711, 
			 "HOMO_LUMO_gap": 0.18063, 
			 "cosmo_polarized_energy": -15.41, 
			 "cosmo_cavitation_energy": 24.58, 
			 "cosmo_dispersion_energy": -17.92, 
			 "cosmo_repulsion_energy": 1.4, 
			 "cosmo_total_nonelectrostatic_energy": 8.06, 
			 "SMD_solvation_energy": 7.17 
		},
		"coords": [
			{
				"x": 2.4636494715,
				"y": -0.2165558645,
				"z": 1.1887360344,
				"element": "C" 
			},
			{
				"x": 1.1094589988,
				"y": -0.3859239653,
				"z": 0.6524215619,
				"element": "N" 
			},
			{
				"x": 0.0374356436,
				"y": -0.6210655872,
				"z": 1.4468362669,
				"element": "C" 
			},
			{
				"x": -1.2255586136,
				"y": -0.7807335771,
				"z": 0.9606212349,
				"element": "C" 
			},
			{
				"x": -2.3353462375,
				"y": -1.0331308836,
				"z": 1.8953710043,
				"element": "C" 
			},
			{
				"x": -2.1912989851,
				"y": -1.1100506174,
				"z": 3.1055925144,
				"element": "O" 
			},
			{
				"x": -1.4690765407,
				"y": -0.7007694584,
				"z": -0.4754892825,
				"element": "C" 
			},
			{
				"x": -2.5630650987,
				"y": -0.8299770935,
				"z": -1.0062228681,
				"element": "O" 
			},
			{
				"x": -0.3042507238,
				"y": -0.4526159268,
				"z": -1.2504825755,
				"element": "N" 
			},
			{
				"x": -0.436484812,
				"y": -0.3532808682,
				"z": -2.7088458294,
				"element": "C" 
			},
			{
				"x": 0.9782240201,
				"y": -0.2912688565,
				"z": -0.7494265185,
				"element": "C" 
			},
			{
				"x": 1.9517288541,
				"y": -0.0795702264,
				"z": -1.4526911468,
				"element": "O" 
			},
			{
				"x": 2.854634387,
				"y": 0.7653035375,
				"z": 0.9151400432,
				"element": "H" 
			},
			{
				"x": 2.4191086362,
				"y": -0.3103997866,
				"z": 2.2738030378,
				"element": "H" 
			},
			{
				"x": 3.1281909183,
				"y": -0.9779081237,
				"z": 0.7756934952,
				"element": "H" 
			},
			{
				"x": 0.2116229988,
				"y": -0.6817286827,
				"z": 2.5170093912,
				"element": "H" 
			},
			{
				"x": -3.3235024211,
				"y": -1.1496888024,
				"z": 1.4148150063,
				"element": "H" 
			},
			{
				"x": -0.0974004262,
				"y": 0.6280432351,
				"z": -3.0471457641,
				"element": "H" 
			},
			{
				"x": 0.1773323081,
				"y": -1.1169735394,
				"z": -3.1909690259,
				"element": "H" 
			},
			{
				"x": -1.4876023779,
				"y": -0.4992049127,
				"z": -2.9465665796,
				"element": "H" 
			}
		],
		 "valence_orbital": [ 
			{
				"type": "occ",
				"energy": -0.30584,
				"method": "rhf"
			},
			{
				"type": "occ",
				"energy": -0.28426,
				"method": "rhf"
			},
			{
				"type": "occ",
				"energy": -0.28073,
				"method": "rhf"
			},
			{
				"type": "occ",
				"energy": -0.25485,
				"method": "rhf"
			},
			{
				"type": "occ",
				"energy": -0.25337,
				"method": "rhf"
			},
			{
				"type": "unocc",
				"energy": -0.07274,
				"method": "rhf"
			},
			{
				"type": "unocc",
				"energy": -0.02227,
				"method": "rhf"
			},
			{
				"type": "unocc",
				"energy": 0.02005,
				"method": "rhf"
			},
			{
				"type": "unocc",
				"energy": 0.07461,
				"method": "rhf"
			},
			{
				"type": "unocc",
				"energy": 0.09809,
				"method": "rhf"
			}
		],
		"cosmo_sigma_profile": { 
			"-0.025": 0.0,
			"-0.024": 0.0,
			"-0.023": 0.0,
			"-0.022": 0.0,
			"-0.021": 0.0,
			"-0.02": 0.0,
			"-0.019": 0.0,
			"-0.018": 0.0,
			"-0.017": 0.0,
			"-0.016": 0.0,
			"-0.015": 0.0,
			"-0.014": 0.0,
			"-0.013": 0.0,
			"-0.012": 0.651650221004,
			"-0.011": 2.00928654416,
			"-0.01": 1.72323743912,
			"-0.009": 2.31616986034,
			"-0.008": 2.47244396842,
			"-0.007": 5.35497142073,
			"-0.006": 15.7861980969,
			"-0.005": 20.5012064428,
			"-0.004": 24.226910398,
			"-0.003": 19.6110699638,
			"-0.002": 14.4344213934,
			"-0.001": 11.281387423,
			"0.0": 7.22922531959,
			"0.001": 5.26739099538,
			"0.002": 4.15478160743,
			"0.003": 4.28605887926,
			"0.004": 5.13253531844,
			"0.005": 4.08981786409,
			"0.006": 3.69923446267,
			"0.007": 4.42423732023,
			"0.008": 4.50291724873,
			"0.009": 4.4102533213,
			"0.01": 5.90808360748,
			"0.011": 9.8241253137,
			"0.012": 10.9764799907,
			"0.013": 1.80557336776,
			"0.014": 0.0639738665566,
			"0.015": 0.0,
			"0.016": 0.0,
			"0.017": 0.0,
			"0.018": 0.0,
			"0.019": 0.0,
			"0.02": 0.0,
			"0.021": 0.0,
			"0.022": 0.0,
			"0.023": 0.0,
			"0.024": 0.0,
			"0.025": 0.0
		}
	}
}
