{
	 "smiles": "CCCNC(N)=O", 
	 "Tm": 381.15, 
	 "num_atms": 17, 
	 "gaussian": { 
		 "optdone": 1, 
		 "sigma_profile": "yes", 
		 "theory": "DFT", 
		 "functional": "B3LYP", 
		 "basiset": "6-31G**", 
		 "properties": { 
			 "R2extent": 1705.9935, 
			 "electric_dipole_moment_norm": 3.58211784703, 
			 "electric_quadrupole_moment_norm": 15.2805500071, 
			 "total_energy": -343.212927537, 
			 "HOMO_LUMO_gap": 0.29987, 
			 "cosmo_polarized_energy": -13.86, 
			 "cosmo_cavitation_energy": 20.15, 
			 "cosmo_dispersion_energy": -14.79, 
			 "cosmo_repulsion_energy": 1.3, 
			 "cosmo_total_nonelectrostatic_energy": 6.66, 
			 "SMD_solvation_energy": 4.08 
		},
		"coords": [
			{
				"x": 0.8923472053,
				"y": 0.0411931955,
				"z": 0.8708909265,
				"element": "C" 
			},
			{
				"x": 0.4110179138,
				"y": 0.2514446526,
				"z": -0.5680701149,
				"element": "C" 
			},
			{
				"x": -0.0225206331,
				"y": -1.0404812153,
				"z": -1.27298645,
				"element": "C" 
			},
			{
				"x": -1.1613647268,
				"y": -1.6904871423,
				"z": -0.6340726845,
				"element": "N" 
			},
			{
				"x": -2.3289897093,
				"y": -1.9257391622,
				"z": -1.3315096536,
				"element": "C" 
			},
			{
				"x": -3.2588822586,
				"y": -2.6896117587,
				"z": -0.6258120922,
				"element": "N" 
			},
			{
				"x": -2.5372693969,
				"y": -1.5287921633,
				"z": -2.4704394155,
				"element": "O" 
			},
			{
				"x": 1.7461307954,
				"y": -0.6462835568,
				"z": 0.9095175299,
				"element": "H" 
			},
			{
				"x": 0.0965474601,
				"y": -0.3755876526,
				"z": 1.4984443538,
				"element": "H" 
			},
			{
				"x": 1.206808649,
				"y": 0.9847708905,
				"z": 1.3277986321,
				"element": "H" 
			},
			{
				"x": -0.4294877894,
				"y": 0.9556693739,
				"z": -0.5808702614,
				"element": "H" 
			},
			{
				"x": 1.2140474321,
				"y": 0.7074368669,
				"z": -1.1616049454,
				"element": "H" 
			},
			{
				"x": -0.3315759898,
				"y": -0.8291294725,
				"z": -2.2989157115,
				"element": "H" 
			},
			{
				"x": 0.8231262476,
				"y": -1.7416713076,
				"z": -1.3184077793,
				"element": "H" 
			},
			{
				"x": -0.9763681072,
				"y": -2.2778808567,
				"z": 0.1652936121,
				"element": "H" 
			},
			{
				"x": -4.1685588592,
				"y": -2.6732211911,
				"z": -1.0654100655,
				"element": "H" 
			},
			{
				"x": -3.2913082332,
				"y": -2.5678295002,
				"z": 0.3776541195,
				"element": "H" 
			}
		],
		 "valence_orbital": [ 
			{
				"type": "occ",
				"energy": -0.34292,
				"method": "rhf"
			},
			{
				"type": "occ",
				"energy": -0.33703,
				"method": "rhf"
			},
			{
				"type": "occ",
				"energy": -0.26991,
				"method": "rhf"
			},
			{
				"type": "occ",
				"energy": -0.24899,
				"method": "rhf"
			},
			{
				"type": "occ",
				"energy": -0.24378,
				"method": "rhf"
			},
			{
				"type": "unocc",
				"energy": 0.05609,
				"method": "rhf"
			},
			{
				"type": "unocc",
				"energy": 0.06938,
				"method": "rhf"
			},
			{
				"type": "unocc",
				"energy": 0.0983,
				"method": "rhf"
			},
			{
				"type": "unocc",
				"energy": 0.12256,
				"method": "rhf"
			},
			{
				"type": "unocc",
				"energy": 0.13773,
				"method": "rhf"
			}
		],
		"cosmo_sigma_profile": { 
			"-0.025": 0.0,
			"-0.024": 0.0,
			"-0.023": 0.0,
			"-0.022": 0.0,
			"-0.021": 0.0,
			"-0.02": 0.0,
			"-0.019": 0.0,
			"-0.018": 0.0,
			"-0.017": 0.0,
			"-0.016": 0.0,
			"-0.015": 0.0,
			"-0.014": 0.873905758559,
			"-0.013": 3.69967039236,
			"-0.012": 3.41356526059,
			"-0.011": 3.02480519437,
			"-0.01": 2.6967398984,
			"-0.009": 3.74857082337,
			"-0.008": 2.87475447694,
			"-0.007": 2.45438277895,
			"-0.006": 2.90752300941,
			"-0.005": 2.59611513684,
			"-0.004": 4.5589148196,
			"-0.003": 11.8810072485,
			"-0.002": 17.9091544713,
			"-0.001": 17.397768412,
			"0.0": 16.0419584026,
			"0.001": 15.2488554895,
			"0.002": 7.00916918657,
			"0.003": 3.40380902508,
			"0.004": 3.4099686246,
			"0.005": 4.41560892317,
			"0.006": 3.05525403519,
			"0.007": 2.09789035694,
			"0.008": 1.71860421251,
			"0.009": 2.26836828923,
			"0.01": 2.30996942737,
			"0.011": 1.4127114277,
			"0.012": 2.2547785667,
			"0.013": 2.25876445866,
			"0.014": 4.67585914392,
			"0.015": 4.38920010522,
			"0.016": 0.168524952917,
			"0.017": 0.0,
			"0.018": 0.0,
			"0.019": 0.0,
			"0.02": 0.0,
			"0.021": 0.0,
			"0.022": 0.0,
			"0.023": 0.0,
			"0.024": 0.0,
			"0.025": 0.0
		}
	}
}
