{
	 "smiles": "OC(=O)C1=CC=CC=C1NC1=CC(=CC=C1)C(F)(F)F", 
	 "Tm": 407.15, 
	 "num_atms": 30, 
	 "gaussian": { 
		 "optdone": 1, 
		 "sigma_profile": "yes", 
		 "theory": "DFT", 
		 "functional": "B3LYP", 
		 "basiset": "6-31G**", 
		 "properties": { 
			 "R2extent": 7273.343, 
			 "electric_dipole_moment_norm": 2.76235181141, 
			 "electric_quadrupole_moment_norm": 24.5022040633, 
			 "total_energy": -1044.26372476, 
			 "HOMO_LUMO_gap": 0.15153, 
			 "cosmo_polarized_energy": -13.54, 
			 "cosmo_cavitation_energy": 35.93, 
			 "cosmo_dispersion_energy": -25.41, 
			 "cosmo_repulsion_energy": 1.86, 
			 "cosmo_total_nonelectrostatic_energy": 12.38, 
			 "SMD_solvation_energy": 7.93 
		},
		"coords": [
			{
				"x": -0.5051496386,
				"y": 3.9780473362,
				"z": -3.1890770294,
				"element": "O" 
			},
			{
				"x": -0.0243567307,
				"y": 2.8180559482,
				"z": -2.6772615712,
				"element": "C" 
			},
			{
				"x": 0.4783701368,
				"y": 2.014291852,
				"z": -3.4470316862,
				"element": "O" 
			},
			{
				"x": -0.1466780316,
				"y": 2.6130988532,
				"z": -1.2112197022,
				"element": "C" 
			},
			{
				"x": -0.3150763452,
				"y": 3.7133604368,
				"z": -0.3501201766,
				"element": "C" 
			},
			{
				"x": -0.4321800763,
				"y": 3.5620330764,
				"z": 1.0232811447,
				"element": "C" 
			},
			{
				"x": -0.3607338331,
				"y": 2.2722227265,
				"z": 1.5628899151,
				"element": "C" 
			},
			{
				"x": -0.17043005,
				"y": 1.1656125595,
				"z": 0.7490495442,
				"element": "C" 
			},
			{
				"x": -0.0550112374,
				"y": 1.2994144098,
				"z": -0.6526528218,
				"element": "C" 
			},
			{
				"x": 0.1830577994,
				"y": 0.222328645,
				"z": -1.4802018011,
				"element": "N" 
			},
			{
				"x": 0.0119506871,
				"y": -1.1457284422,
				"z": -1.2341725451,
				"element": "C" 
			},
			{
				"x": -0.9687294933,
				"y": -1.6567252008,
				"z": -0.3701894681,
				"element": "C" 
			},
			{
				"x": -1.0996140895,
				"y": -3.0357819101,
				"z": -0.2006290583,
				"element": "C" 
			},
			{
				"x": -0.28551849,
				"y": -3.9300880769,
				"z": -0.8980715714,
				"element": "C" 
			},
			{
				"x": 0.6704160779,
				"y": -3.422042293,
				"z": -1.7786345079,
				"element": "C" 
			},
			{
				"x": 0.8247547117,
				"y": -2.049446741,
				"z": -1.9431859699,
				"element": "C" 
			},
			{
				"x": -2.1934666454,
				"y": -3.5595597509,
				"z": 0.692032476,
				"element": "C" 
			},
			{
				"x": -3.3570646775,
				"y": -3.7146885875,
				"z": 0.0185884972,
				"element": "F" 
			},
			{
				"x": -1.8813366169,
				"y": -4.7640597349,
				"z": 1.2184903902,
				"element": "F" 
			},
			{
				"x": -2.4488987448,
				"y": -2.7206084649,
				"z": 1.7225836294,
				"element": "F" 
			},
			{
				"x": -1.0361564841,
				"y": 4.4397684116,
				"z": -2.5260045916,
				"element": "H" 
			},
			{
				"x": -0.3095756122,
				"y": 4.7197261211,
				"z": -0.7621590723,
				"element": "H" 
			},
			{
				"x": -0.5557018815,
				"y": 4.4276764209,
				"z": 1.6648718454,
				"element": "H" 
			},
			{
				"x": -0.4299323372,
				"y": 2.1291651225,
				"z": 2.6374853575,
				"element": "H" 
			},
			{
				"x": -0.0688877484,
				"y": 0.1853945823,
				"z": 1.1973589291,
				"element": "H" 
			},
			{
				"x": 0.4971714502,
				"y": 0.4931808069,
				"z": -2.4108520932,
				"element": "H" 
			},
			{
				"x": -1.6396809931,
				"y": -0.9894022821,
				"z": 0.1554896488,
				"element": "H" 
			},
			{
				"x": -0.3958945782,
				"y": -4.9980109177,
				"z": -0.7501312392,
				"element": "H" 
			},
			{
				"x": 1.3111907892,
				"y": -4.1016974464,
				"z": -2.332076872,
				"element": "H" 
			},
			{
				"x": 1.5834626827,
				"y": -1.6604374605,
				"z": -2.6163496,
				"element": "H" 
			}
		],
		 "valence_orbital": [ 
			{
				"type": "occ",
				"energy": -0.28754,
				"method": "rhf"
			},
			{
				"type": "occ",
				"energy": -0.27395,
				"method": "rhf"
			},
			{
				"type": "occ",
				"energy": -0.27115,
				"method": "rhf"
			},
			{
				"type": "occ",
				"energy": -0.26947,
				"method": "rhf"
			},
			{
				"type": "occ",
				"energy": -0.20885,
				"method": "rhf"
			},
			{
				"type": "unocc",
				"energy": -0.05732,
				"method": "rhf"
			},
			{
				"type": "unocc",
				"energy": -0.02988,
				"method": "rhf"
			},
			{
				"type": "unocc",
				"energy": -0.02705,
				"method": "rhf"
			},
			{
				"type": "unocc",
				"energy": 0.00843,
				"method": "rhf"
			},
			{
				"type": "unocc",
				"energy": 0.03933,
				"method": "rhf"
			}
		],
		"cosmo_sigma_profile": { 
			"-0.025": 0.0,
			"-0.024": 0.0,
			"-0.023": 0.0,
			"-0.022": 0.0,
			"-0.021": 0.0,
			"-0.02": 0.0,
			"-0.019": 0.0804358418617,
			"-0.018": 0.81204649841,
			"-0.017": 1.0623035675,
			"-0.016": 1.25617475206,
			"-0.015": 1.09222188949,
			"-0.014": 0.393441011356,
			"-0.013": 0.564506112892,
			"-0.012": 1.41328424851,
			"-0.011": 1.46600735523,
			"-0.01": 1.14934549615,
			"-0.009": 1.46573873182,
			"-0.008": 2.82699793904,
			"-0.007": 7.54567181807,
			"-0.006": 14.0876582588,
			"-0.005": 18.0530853289,
			"-0.004": 16.9218776384,
			"-0.003": 15.7710337812,
			"-0.002": 14.7667026007,
			"-0.001": 16.071631261,
			"0.0": 20.6152629744,
			"0.001": 22.7951142045,
			"0.002": 34.2036609573,
			"0.003": 49.4801131265,
			"0.004": 19.3367499935,
			"0.005": 3.88398296726,
			"0.006": 2.14866157107,
			"0.007": 2.50696824744,
			"0.008": 2.37277752572,
			"0.009": 3.40350204652,
			"0.01": 4.51514976653,
			"0.011": 3.5032544237,
			"0.012": 2.30500904397,
			"0.013": 1.27442998062,
			"0.014": 0.024460046573,
			"0.015": 0.0,
			"0.016": 0.0,
			"0.017": 0.0,
			"0.018": 0.0,
			"0.019": 0.0,
			"0.02": 0.0,
			"0.021": 0.0,
			"0.022": 0.0,
			"0.023": 0.0,
			"0.024": 0.0,
			"0.025": 0.0
		}
	}
}
