{
	 "smiles": "OC(=O)C1=CC2=C(NC(=O)CO2)C=C1", 
	 "Tm": 595.15, 
	 "num_atms": 21, 
	 "gaussian": { 
		 "optdone": 1, 
		 "sigma_profile": "yes", 
		 "theory": "DFT", 
		 "functional": "B3LYP", 
		 "basiset": "6-31G**", 
		 "properties": { 
			 "R2extent": 3452.8178, 
			 "electric_dipole_moment_norm": 2.69839384449, 
			 "electric_quadrupole_moment_norm": 26.0114798766, 
			 "total_energy": -702.836035383, 
			 "HOMO_LUMO_gap": 0.17786, 
			 "cosmo_polarized_energy": -21.38, 
			 "cosmo_cavitation_energy": 26.01, 
			 "cosmo_dispersion_energy": -19.64, 
			 "cosmo_repulsion_energy": 1.53, 
			 "cosmo_total_nonelectrostatic_energy": 7.9, 
			 "SMD_solvation_energy": 6.45 
		},
		"coords": [
			{
				"x": 1.0607182859,
				"y": -3.8692871251,
				"z": -1.2936051954,
				"element": "O" 
			},
			{
				"x": 0.2682007899,
				"y": -2.8450931147,
				"z": -1.7112824743,
				"element": "C" 
			},
			{
				"x": -0.5203049152,
				"y": -3.0210496179,
				"z": -2.6105939722,
				"element": "O" 
			},
			{
				"x": 0.4335134876,
				"y": -1.5329566075,
				"z": -1.0096771125,
				"element": "C" 
			},
			{
				"x": 1.0116304668,
				"y": -1.417285261,
				"z": 0.2639485147,
				"element": "C" 
			},
			{
				"x": 1.1289741255,
				"y": -0.1712827848,
				"z": 0.8674292515,
				"element": "C" 
			},
			{
				"x": 0.6644884306,
				"y": 0.9806955152,
				"z": 0.2083250026,
				"element": "C" 
			},
			{
				"x": 0.8477551072,
				"y": 2.2154827816,
				"z": 0.841779025,
				"element": "N" 
			},
			{
				"x": 1.1851078642,
				"y": 2.3463188586,
				"z": 2.1689372936,
				"element": "C" 
			},
			{
				"x": 1.3142048888,
				"y": 3.4222002793,
				"z": 2.7232890282,
				"element": "O" 
			},
			{
				"x": 1.3156834889,
				"y": 1.0168107336,
				"z": 2.9071461134,
				"element": "C" 
			},
			{
				"x": 1.7471601663,
				"y": -0.0705449149,
				"z": 2.0840997931,
				"element": "O" 
			},
			{
				"x": 0.0654503213,
				"y": 0.8619139697,
				"z": -1.0493001962,
				"element": "C" 
			},
			{
				"x": -0.0534954606,
				"y": -0.3862863378,
				"z": -1.6505697702,
				"element": "C" 
			},
			{
				"x": 1.7509611631,
				"y": -3.5397729536,
				"z": -0.7018769052,
				"element": "H" 
			},
			{
				"x": 1.3547019394,
				"y": -2.2782690492,
				"z": 0.8301519109,
				"element": "H" 
			},
			{
				"x": 0.6719648201,
				"y": 3.0753423221,
				"z": 0.3371476859,
				"element": "H" 
			},
			{
				"x": 0.3448503681,
				"y": 0.7830560884,
				"z": 3.3702460733,
				"element": "H" 
			},
			{
				"x": 2.0589493598,
				"y": 1.1317992646,
				"z": 3.6957295913,
				"element": "H" 
			},
			{
				"x": -0.3011525961,
				"y": 1.7523516695,
				"z": -1.5525582911,
				"element": "H" 
			},
			{
				"x": -0.5220621017,
				"y": -0.4952437164,
				"z": -2.6217653666,
				"element": "H" 
			}
		],
		 "valence_orbital": [ 
			{
				"type": "occ",
				"energy": -0.31513,
				"method": "rhf"
			},
			{
				"type": "occ",
				"energy": -0.28148,
				"method": "rhf"
			},
			{
				"type": "occ",
				"energy": -0.27597,
				"method": "rhf"
			},
			{
				"type": "occ",
				"energy": -0.26569,
				"method": "rhf"
			},
			{
				"type": "occ",
				"energy": -0.23689,
				"method": "rhf"
			},
			{
				"type": "unocc",
				"energy": -0.05903,
				"method": "rhf"
			},
			{
				"type": "unocc",
				"energy": -0.02704,
				"method": "rhf"
			},
			{
				"type": "unocc",
				"energy": -0.00288,
				"method": "rhf"
			},
			{
				"type": "unocc",
				"energy": 0.0491,
				"method": "rhf"
			},
			{
				"type": "unocc",
				"energy": 0.05725,
				"method": "rhf"
			}
		],
		"cosmo_sigma_profile": { 
			"-0.025": 0.0,
			"-0.024": 0.0,
			"-0.023": 0.0,
			"-0.022": 0.0,
			"-0.021": 0.0,
			"-0.02": 0.0,
			"-0.019": 0.221352800981,
			"-0.018": 0.955243944603,
			"-0.017": 0.763591247749,
			"-0.016": 2.10618763104,
			"-0.015": 2.32954704615,
			"-0.014": 2.20374277439,
			"-0.013": 2.21638765252,
			"-0.012": 3.13276021424,
			"-0.011": 2.33088893915,
			"-0.01": 2.01802788054,
			"-0.009": 3.17814097521,
			"-0.008": 7.61285925134,
			"-0.007": 9.10098958708,
			"-0.006": 10.7469040608,
			"-0.005": 10.5174912498,
			"-0.004": 8.86365175039,
			"-0.003": 8.82134521374,
			"-0.002": 10.7450184711,
			"-0.001": 12.2606130313,
			"0.0": 12.5805536614,
			"0.001": 11.6552788868,
			"0.002": 13.8136252118,
			"0.003": 10.6070936972,
			"0.004": 4.91778941169,
			"0.005": 5.01587049977,
			"0.006": 4.81025202538,
			"0.007": 3.62900967586,
			"0.008": 5.58663366402,
			"0.009": 5.87561545475,
			"0.01": 6.83221519584,
			"0.011": 7.66261653354,
			"0.012": 10.7414755046,
			"0.013": 4.24965374175,
			"0.014": 0.195236471418,
			"0.015": 0.0,
			"0.016": 0.0,
			"0.017": 0.0,
			"0.018": 0.0,
			"0.019": 0.0,
			"0.02": 0.0,
			"0.021": 0.0,
			"0.022": 0.0,
			"0.023": 0.0,
			"0.024": 0.0,
			"0.025": 0.0
		}
	}
}
