{
	 "smiles": "OC(=O)CCCNCC1=NC=CC=C1", 
	 "Tm": 343.15, 
	 "num_atms": 28, 
	 "gaussian": { 
		 "optdone": 1, 
		 "sigma_profile": "yes", 
		 "theory": "DFT", 
		 "functional": "B3LYP", 
		 "basiset": "6-31G**", 
		 "properties": { 
			 "R2extent": 3331.0968, 
			 "electric_dipole_moment_norm": 7.38523072828, 
			 "electric_quadrupole_moment_norm": 26.9965162273, 
			 "total_energy": -649.457227101, 
			 "HOMO_LUMO_gap": 0.1845, 
			 "cosmo_polarized_energy": -16.82, 
			 "cosmo_cavitation_energy": 30.12, 
			 "cosmo_dispersion_energy": -21.62, 
			 "cosmo_repulsion_energy": 1.7, 
			 "cosmo_total_nonelectrostatic_energy": 10.2, 
			 "SMD_solvation_energy": 3.75 
		},
		"coords": [
			{
				"x": 0.3119142291,
				"y": 0.9035712295,
				"z": 2.7284288128,
				"element": "O" 
			},
			{
				"x": -0.943657726,
				"y": 0.8486423253,
				"z": 3.2120481731,
				"element": "C" 
			},
			{
				"x": -1.1886866223,
				"y": 1.2934136205,
				"z": 4.3113922637,
				"element": "O" 
			},
			{
				"x": -2.0476708596,
				"y": 0.1797033809,
				"z": 2.3798386211,
				"element": "C" 
			},
			{
				"x": -1.7998840114,
				"y": -0.0759976233,
				"z": 0.8902002836,
				"element": "C" 
			},
			{
				"x": -1.6344121946,
				"y": 1.2129439547,
				"z": 0.0672627782,
				"element": "C" 
			},
			{
				"x": -1.0825381786,
				"y": 0.9680233405,
				"z": -1.273906328,
				"element": "N" 
			},
			{
				"x": 0.3522274409,
				"y": 1.2387260349,
				"z": -1.421516128,
				"element": "C" 
			},
			{
				"x": 1.2483178123,
				"y": 0.0914349555,
				"z": -0.9864629424,
				"element": "C" 
			},
			{
				"x": 1.3998445879,
				"y": -0.1072159013,
				"z": 0.3361581491,
				"element": "N" 
			},
			{
				"x": 2.2080377377,
				"y": -1.0894173218,
				"z": 0.7581702001,
				"element": "C" 
			},
			{
				"x": 2.9126429776,
				"y": -1.9230977062,
				"z": -0.1078396012,
				"element": "C" 
			},
			{
				"x": 2.755024769,
				"y": -1.7274448679,
				"z": -1.4787355134,
				"element": "C" 
			},
			{
				"x": 1.9127781001,
				"y": -0.708965177,
				"z": -1.9216115749,
				"element": "C" 
			},
			{
				"x": 0.4530202359,
				"y": 0.5648234178,
				"z": 1.8116535089,
				"element": "H" 
			},
			{
				"x": -2.2604787745,
				"y": -0.7701367168,
				"z": 2.8864082842,
				"element": "H" 
			},
			{
				"x": -2.940245971,
				"y": 0.7959424936,
				"z": 2.5334014278,
				"element": "H" 
			},
			{
				"x": -0.9184330132,
				"y": -0.7076839426,
				"z": 0.7587613804,
				"element": "H" 
			},
			{
				"x": -2.6377780172,
				"y": -0.650866642,
				"z": 0.4796844896,
				"element": "H" 
			},
			{
				"x": -2.6180005657,
				"y": 1.6858560044,
				"z": -0.0404817362,
				"element": "H" 
			},
			{
				"x": -1.0085236625,
				"y": 1.9313797041,
				"z": 0.6215059849,
				"element": "H" 
			},
			{
				"x": -1.5772487737,
				"y": 1.5384528178,
				"z": -1.9498351841,
				"element": "H" 
			},
			{
				"x": 0.5463786817,
				"y": 1.4342147657,
				"z": -2.4807938886,
				"element": "H" 
			},
			{
				"x": 0.6680237431,
				"y": 2.135741395,
				"z": -0.8593601248,
				"element": "H" 
			},
			{
				"x": 2.2905801285,
				"y": -1.2025050178,
				"z": 1.8369222632,
				"element": "H" 
			},
			{
				"x": 3.5612437467,
				"y": -2.69911666,
				"z": 0.2845711353,
				"element": "H" 
			},
			{
				"x": 3.2807211103,
				"y": -2.3552580694,
				"z": -2.192379049,
				"element": "H" 
			},
			{
				"x": 1.7697030694,
				"y": -0.5295637941,
				"z": -2.9824856854,
				"element": "H" 
			}
		],
		 "valence_orbital": [ 
			{
				"type": "occ",
				"energy": -0.28541,
				"method": "rhf"
			},
			{
				"type": "occ",
				"energy": -0.27831,
				"method": "rhf"
			},
			{
				"type": "occ",
				"energy": -0.27623,
				"method": "rhf"
			},
			{
				"type": "occ",
				"energy": -0.23775,
				"method": "rhf"
			},
			{
				"type": "occ",
				"energy": -0.23215,
				"method": "rhf"
			},
			{
				"type": "unocc",
				"energy": -0.04765,
				"method": "rhf"
			},
			{
				"type": "unocc",
				"energy": -0.02964,
				"method": "rhf"
			},
			{
				"type": "unocc",
				"energy": 0.03853,
				"method": "rhf"
			},
			{
				"type": "unocc",
				"energy": 0.06528,
				"method": "rhf"
			},
			{
				"type": "unocc",
				"energy": 0.08498,
				"method": "rhf"
			}
		],
		"cosmo_sigma_profile": { 
			"-0.025": 0.0,
			"-0.024": 0.0,
			"-0.023": 0.0,
			"-0.022": 0.0,
			"-0.021": 0.0,
			"-0.02": 0.0,
			"-0.019": 0.0,
			"-0.018": 0.0,
			"-0.017": 0.0,
			"-0.016": 0.0,
			"-0.015": 0.0,
			"-0.014": 0.0,
			"-0.013": 0.0,
			"-0.012": 0.0,
			"-0.011": 0.378221742173,
			"-0.01": 1.38509100492,
			"-0.009": 1.86609579126,
			"-0.008": 1.64753940566,
			"-0.007": 9.70662508183,
			"-0.006": 15.8479626203,
			"-0.005": 18.4082972979,
			"-0.004": 19.1524148129,
			"-0.003": 25.8057296793,
			"-0.002": 25.8440601933,
			"-0.001": 19.5488503953,
			"0.0": 14.0796520639,
			"0.001": 12.3409376228,
			"0.002": 15.6368197125,
			"0.003": 8.81901255446,
			"0.004": 4.62940237703,
			"0.005": 3.88702158928,
			"0.006": 3.12904542344,
			"0.007": 2.95771663719,
			"0.008": 2.7177934893,
			"0.009": 3.35260942727,
			"0.01": 3.07890570785,
			"0.011": 4.44874603041,
			"0.012": 5.60830116145,
			"0.013": 7.4608636372,
			"0.014": 4.0246096365,
			"0.015": 1.04469728811,
			"0.016": 0.594770894411,
			"0.017": 0.121945997211,
			"0.018": 0.0,
			"0.019": 0.0,
			"0.02": 0.0,
			"0.021": 0.0,
			"0.022": 0.0,
			"0.023": 0.0,
			"0.024": 0.0,
			"0.025": 0.0
		}
	}
}
