{
	 "smiles": "CC(=O)C1=CC(=CC(N)=C1)C(C)=O", 
	 "Tm": 413.15, 
	 "num_atms": 24, 
	 "gaussian": { 
		 "optdone": 1, 
		 "sigma_profile": "yes", 
		 "theory": "DFT", 
		 "functional": "B3LYP", 
		 "basiset": "6-31G**", 
		 "properties": { 
			 "R2extent": 2959.8265, 
			 "electric_dipole_moment_norm": 4.05714348156, 
			 "electric_quadrupole_moment_norm": 14.7907711442, 
			 "total_energy": -592.905087139, 
			 "HOMO_LUMO_gap": 0.15504, 
			 "cosmo_polarized_energy": -16.2, 
			 "cosmo_cavitation_energy": 28.4, 
			 "cosmo_dispersion_energy": -20.33, 
			 "cosmo_repulsion_energy": 1.62, 
			 "cosmo_total_nonelectrostatic_energy": 9.69, 
			 "SMD_solvation_energy": 6.23 
		},
		"coords": [
			{
				"x": -0.7098844907,
				"y": 3.3042167457,
				"z": 1.1053698248,
				"element": "C" 
			},
			{
				"x": -0.8690248104,
				"y": 1.8089605903,
				"z": 1.3243430896,
				"element": "C" 
			},
			{
				"x": -1.7394863065,
				"y": 1.3812950016,
				"z": 2.0673317873,
				"element": "O" 
			},
			{
				"x": 0.0577997654,
				"y": 0.864740648,
				"z": 0.6135923321,
				"element": "C" 
			},
			{
				"x": -0.1182679881,
				"y": -0.509512417,
				"z": 0.8274009648,
				"element": "C" 
			},
			{
				"x": 0.7213046701,
				"y": -1.4249338634,
				"z": 0.1880219102,
				"element": "C" 
			},
			{
				"x": 1.7352294062,
				"y": -0.9673871437,
				"z": -0.6632566654,
				"element": "C" 
			},
			{
				"x": 1.9252761176,
				"y": 0.4016715274,
				"z": -0.8895994294,
				"element": "C" 
			},
			{
				"x": 2.896596508,
				"y": 0.8512576134,
				"z": -1.7813772577,
				"element": "N" 
			},
			{
				"x": 1.0725000175,
				"y": 1.3124974876,
				"z": -0.2391671777,
				"element": "C" 
			},
			{
				"x": 0.5912770794,
				"y": -2.9106614297,
				"z": 0.3777597777,
				"element": "C" 
			},
			{
				"x": -0.507454939,
				"y": -3.437904055,
				"z": 1.282556686,
				"element": "C" 
			},
			{
				"x": 1.3573289178,
				"y": -3.6768875636,
				"z": -0.1871091051,
				"element": "O" 
			},
			{
				"x": 0.2863226625,
				"y": 3.6428855602,
				"z": 1.4109082073,
				"element": "H" 
			},
			{
				"x": -0.8332581953,
				"y": 3.5621408604,
				"z": 0.0477289557,
				"element": "H" 
			},
			{
				"x": -1.4647433033,
				"y": 3.8247304527,
				"z": 1.6951590197,
				"element": "H" 
			},
			{
				"x": -0.9128403863,
				"y": -0.8194358333,
				"z": 1.4949238985,
				"element": "H" 
			},
			{
				"x": 2.3690928672,
				"y": -1.7064199802,
				"z": -1.1444637005,
				"element": "H" 
			},
			{
				"x": 3.2279200662,
				"y": 1.7940151693,
				"z": -1.6333076322,
				"element": "H" 
			},
			{
				"x": 3.6497518206,
				"y": 0.2036178589,
				"z": -1.9656517081,
				"element": "H" 
			},
			{
				"x": 1.2119274672,
				"y": 2.3752313174,
				"z": -0.4148053647,
				"element": "H" 
			},
			{
				"x": -0.4558537416,
				"y": -4.5268537626,
				"z": 1.297344535,
				"element": "H" 
			},
			{
				"x": -1.4940048204,
				"y": -3.1225819486,
				"z": 0.9260420451,
				"element": "H" 
			},
			{
				"x": -0.3944083842,
				"y": -3.0526828358,
				"z": 2.3017550069,
				"element": "H" 
			}
		],
		 "valence_orbital": [ 
			{
				"type": "occ",
				"energy": -0.31536,
				"method": "rhf"
			},
			{
				"type": "occ",
				"energy": -0.26316,
				"method": "rhf"
			},
			{
				"type": "occ",
				"energy": -0.25427,
				"method": "rhf"
			},
			{
				"type": "occ",
				"energy": -0.24563,
				"method": "rhf"
			},
			{
				"type": "occ",
				"energy": -0.21895,
				"method": "rhf"
			},
			{
				"type": "unocc",
				"energy": -0.06391,
				"method": "rhf"
			},
			{
				"type": "unocc",
				"energy": -0.04347,
				"method": "rhf"
			},
			{
				"type": "unocc",
				"energy": 0.02881,
				"method": "rhf"
			},
			{
				"type": "unocc",
				"energy": 0.0582,
				"method": "rhf"
			},
			{
				"type": "unocc",
				"energy": 0.07102,
				"method": "rhf"
			}
		],
		"cosmo_sigma_profile": { 
			"-0.025": 0.0,
			"-0.024": 0.0,
			"-0.023": 0.0,
			"-0.022": 0.0,
			"-0.021": 0.0,
			"-0.02": 0.0,
			"-0.019": 0.0,
			"-0.018": 0.0,
			"-0.017": 0.0,
			"-0.016": 0.0,
			"-0.015": 0.0,
			"-0.014": 0.00872988487029,
			"-0.013": 1.48733367936,
			"-0.012": 3.29604792213,
			"-0.011": 2.89477576758,
			"-0.01": 3.20344793506,
			"-0.009": 3.70878048643,
			"-0.008": 2.48701892458,
			"-0.007": 5.43658265386,
			"-0.006": 14.8761462991,
			"-0.005": 18.2678402907,
			"-0.004": 14.5054160321,
			"-0.003": 14.5802142195,
			"-0.002": 16.0427293772,
			"-0.001": 18.3921170289,
			"0.0": 11.4457392393,
			"0.001": 10.1993547628,
			"0.002": 12.4920363585,
			"0.003": 18.0147040679,
			"0.004": 8.80638991519,
			"0.005": 4.23125680221,
			"0.006": 4.857436715,
			"0.007": 4.54532538644,
			"0.008": 3.31875133881,
			"0.009": 3.84978046839,
			"0.01": 4.71222275305,
			"0.011": 7.09796554083,
			"0.012": 8.69668517452,
			"0.013": 3.07620030044,
			"0.014": 0.521186822194,
			"0.015": 0.0,
			"0.016": 0.0,
			"0.017": 0.0,
			"0.018": 0.0,
			"0.019": 0.0,
			"0.02": 0.0,
			"0.021": 0.0,
			"0.022": 0.0,
			"0.023": 0.0,
			"0.024": 0.0,
			"0.025": 0.0
		}
	}
}
