{
	 "smiles": "COC1=CC2=C(C=C1C(=O)NCC1CCCN1CC=C)N=NN2", 
	 "Tm": 412.15, 
	 "num_atms": 44, 
	 "gaussian": { 
		 "optdone": 1, 
		 "sigma_profile": "yes", 
		 "theory": "DFT", 
		 "functional": "B3LYP", 
		 "basiset": "6-31G**", 
		 "properties": { 
			 "R2extent": 7869.1528, 
			 "electric_dipole_moment_norm": 5.13481546114, 
			 "electric_quadrupole_moment_norm": 25.1575689746, 
			 "total_energy": -1046.48902224, 
			 "HOMO_LUMO_gap": 0.15707, 
			 "cosmo_polarized_energy": -23.21, 
			 "cosmo_cavitation_energy": 46.79, 
			 "cosmo_dispersion_energy": -29.84, 
			 "cosmo_repulsion_energy": 2.29, 
			 "cosmo_total_nonelectrostatic_energy": 19.23, 
			 "SMD_solvation_energy": 5.24 
		},
		"coords": [
			{
				"x": 3.6764227383,
				"y": 2.2147020312,
				"z": 0.070496898,
				"element": "C" 
			},
			{
				"x": 2.6927208566,
				"y": 1.7378647442,
				"z": -0.8569655346,
				"element": "O" 
			},
			{
				"x": 2.3537052135,
				"y": 0.4112612512,
				"z": -0.7229064384,
				"element": "C" 
			},
			{
				"x": 2.8225785373,
				"y": -0.4728116337,
				"z": -1.6866736991,
				"element": "C" 
			},
			{
				"x": 2.4297377819,
				"y": -1.8106736492,
				"z": -1.5549228057,
				"element": "C" 
			},
			{
				"x": 1.621339745,
				"y": -2.2534378572,
				"z": -0.4879836178,
				"element": "C" 
			},
			{
				"x": 1.1701494669,
				"y": -1.3502126575,
				"z": 0.4847679042,
				"element": "C" 
			},
			{
				"x": 1.5108260245,
				"y": -0.0102207618,
				"z": 0.3511714051,
				"element": "C" 
			},
			{
				"x": 1.0342525397,
				"y": 0.9392632368,
				"z": 1.4283647255,
				"element": "C" 
			},
			{
				"x": 1.3323491229,
				"y": 0.7425655962,
				"z": 2.6040373612,
				"element": "O" 
			},
			{
				"x": 0.2727716378,
				"y": 2.0112236688,
				"z": 1.0540370096,
				"element": "N" 
			},
			{
				"x": -0.4284451005,
				"y": 2.229166179,
				"z": -0.2062510536,
				"element": "C" 
			},
			{
				"x": -1.8755438006,
				"y": 1.6899171386,
				"z": -0.2112604355,
				"element": "C" 
			},
			{
				"x": -2.8522059858,
				"y": 2.5187814633,
				"z": 0.6587295295,
				"element": "C" 
			},
			{
				"x": -3.6275546468,
				"y": 3.3773364159,
				"z": -0.3569348569,
				"element": "C" 
			},
			{
				"x": -3.733749726,
				"y": 2.4312235226,
				"z": -1.554306459,
				"element": "C" 
			},
			{
				"x": -2.4194996746,
				"y": 1.7873010282,
				"z": -1.5783754462,
				"element": "N" 
			},
			{
				"x": -2.2704413298,
				"y": 0.607849329,
				"z": -2.4326577907,
				"element": "C" 
			},
			{
				"x": -3.0192145086,
				"y": -0.6264356727,
				"z": -1.9781556864,
				"element": "C" 
			},
			{
				"x": -2.4393673058,
				"y": -1.7782242923,
				"z": -1.6366884033,
				"element": "C" 
			},
			{
				"x": 1.4129653941,
				"y": -3.6133012518,
				"z": -0.6235788321,
				"element": "N" 
			},
			{
				"x": 2.0296727912,
				"y": -4.0223244482,
				"z": -1.6793252277,
				"element": "N" 
			},
			{
				"x": 2.6544746437,
				"y": -2.9529813636,
				"z": -2.2639960942,
				"element": "N" 
			},
			{
				"x": 3.3725527649,
				"y": 2.0485168463,
				"z": 1.109108644,
				"element": "H" 
			},
			{
				"x": 3.7754856643,
				"y": 3.285721869,
				"z": -0.1136410682,
				"element": "H" 
			},
			{
				"x": 4.6413138583,
				"y": 1.7223420876,
				"z": -0.1046580535,
				"element": "H" 
			},
			{
				"x": 3.4600692623,
				"y": -0.1099484646,
				"z": -2.4848901264,
				"element": "H" 
			},
			{
				"x": 0.5629252083,
				"y": -1.6851967894,
				"z": 1.3184243379,
				"element": "H" 
			},
			{
				"x": -0.0260234463,
				"y": 2.5553135442,
				"z": 1.8546146952,
				"element": "H" 
			},
			{
				"x": 0.1401896905,
				"y": 1.7609748295,
				"z": -1.0092288215,
				"element": "H" 
			},
			{
				"x": -0.4388542912,
				"y": 3.3034833975,
				"z": -0.4214045566,
				"element": "H" 
			},
			{
				"x": -1.8466760688,
				"y": 0.6473832437,
				"z": 0.1397550647,
				"element": "H" 
			},
			{
				"x": -3.5425498507,
				"y": 1.8499134601,
				"z": 1.1835515434,
				"element": "H" 
			},
			{
				"x": -2.3425490886,
				"y": 3.1151564698,
				"z": 1.423099633,
				"element": "H" 
			},
			{
				"x": -4.6012635495,
				"y": 3.7082436114,
				"z": 0.0149490162,
				"element": "H" 
			},
			{
				"x": -3.0504840415,
				"y": 4.2661364284,
				"z": -0.6349126475,
				"element": "H" 
			},
			{
				"x": -4.5671699485,
				"y": 1.722769958,
				"z": -1.3954951509,
				"element": "H" 
			},
			{
				"x": -3.9228654708,
				"y": 2.9503100944,
				"z": -2.5023209922,
				"element": "H" 
			},
			{
				"x": -2.6038116278,
				"y": 0.8938884757,
				"z": -3.4399595787,
				"element": "H" 
			},
			{
				"x": -1.2030071843,
				"y": 0.368799678,
				"z": -2.5160905851,
				"element": "H" 
			},
			{
				"x": -4.1047224796,
				"y": -0.5438388607,
				"z": -1.9238611282,
				"element": "H" 
			},
			{
				"x": -3.0174883399,
				"y": -2.6389558789,
				"z": -1.3122972946,
				"element": "H" 
			},
			{
				"x": -1.3602787763,
				"y": -1.9102054005,
				"z": -1.6764270562,
				"element": "H" 
			},
			{
				"x": 3.1888633001,
				"y": -3.1002406166,
				"z": -3.1065383267,
				"element": "H" 
			}
		],
		 "valence_orbital": [ 
			{
				"type": "occ",
				"energy": -0.2607,
				"method": "rhf"
			},
			{
				"type": "occ",
				"energy": -0.24918,
				"method": "rhf"
			},
			{
				"type": "occ",
				"energy": -0.24566,
				"method": "rhf"
			},
			{
				"type": "occ",
				"energy": -0.23729,
				"method": "rhf"
			},
			{
				"type": "occ",
				"energy": -0.20579,
				"method": "rhf"
			},
			{
				"type": "unocc",
				"energy": -0.04872,
				"method": "rhf"
			},
			{
				"type": "unocc",
				"energy": -0.01342,
				"method": "rhf"
			},
			{
				"type": "unocc",
				"energy": 0.01517,
				"method": "rhf"
			},
			{
				"type": "unocc",
				"energy": 0.02579,
				"method": "rhf"
			},
			{
				"type": "unocc",
				"energy": 0.04094,
				"method": "rhf"
			}
		],
		"cosmo_sigma_profile": { 
			"-0.025": 0.0,
			"-0.024": 0.0,
			"-0.023": 0.0,
			"-0.022": 0.0,
			"-0.021": 0.0,
			"-0.02": 0.0,
			"-0.019": 0.00598604187138,
			"-0.018": 1.16095598495,
			"-0.017": 1.90514112504,
			"-0.016": 1.35453600977,
			"-0.015": 0.738534878285,
			"-0.014": 0.968678868658,
			"-0.013": 1.6733483834,
			"-0.012": 2.39416768607,
			"-0.011": 2.17440192809,
			"-0.01": 2.00601487801,
			"-0.009": 2.68021050979,
			"-0.008": 4.8720839962,
			"-0.007": 5.25161531999,
			"-0.006": 6.58195570818,
			"-0.005": 12.0722791886,
			"-0.004": 23.2009481687,
			"-0.003": 40.6055937864,
			"-0.002": 43.6523537436,
			"-0.001": 43.2601093209,
			"0.0": 41.3842700243,
			"0.001": 28.5868227125,
			"0.002": 15.7081575055,
			"0.003": 11.6142414161,
			"0.004": 10.7649293006,
			"0.005": 8.70425078704,
			"0.006": 8.53114832029,
			"0.007": 5.40942734619,
			"0.008": 5.07962023673,
			"0.009": 5.83791442326,
			"0.01": 6.85773002964,
			"0.011": 5.6542347852,
			"0.012": 4.36318023367,
			"0.013": 5.62377165214,
			"0.014": 6.08180017634,
			"0.015": 1.84020549443,
			"0.016": 0.128886976505,
			"0.017": 0.0,
			"0.018": 0.0,
			"0.019": 0.0,
			"0.02": 0.0,
			"0.021": 0.0,
			"0.022": 0.0,
			"0.023": 0.0,
			"0.024": 0.0,
			"0.025": 0.0
		}
	}
}
