{
	 "smiles": "FC1=C(F)C=C2C(=O)CCSC2=C1", 
	 "Tm": 367.15, 
	 "num_atms": 19, 
	 "gaussian": { 
		 "optdone": 1, 
		 "sigma_profile": "yes", 
		 "theory": "DFT", 
		 "functional": "B3LYP", 
		 "basiset": "6-31G**", 
		 "properties": { 
			 "R2extent": 3150.6737, 
			 "electric_dipole_moment_norm": 2.93614459113, 
			 "electric_quadrupole_moment_norm": 11.3477319426, 
			 "total_energy": -1019.6503268, 
			 "HOMO_LUMO_gap": 0.16064, 
			 "cosmo_polarized_energy": -8.18, 
			 "cosmo_cavitation_energy": 25.33, 
			 "cosmo_dispersion_energy": -19.16, 
			 "cosmo_repulsion_energy": 1.4, 
			 "cosmo_total_nonelectrostatic_energy": 7.57, 
			 "SMD_solvation_energy": 5.12 
		},
		"coords": [
			{
				"x": -2.3655252961,
				"y": -1.8794641452,
				"z": -1.6949995798,
				"element": "F" 
			},
			{
				"x": -1.4099592097,
				"y": -0.9796479757,
				"z": -1.4303582259,
				"element": "C" 
			},
			{
				"x": -1.7267426703,
				"y": 0.3827738748,
				"z": -1.489905138,
				"element": "C" 
			},
			{
				"x": -2.9812185442,
				"y": 0.7442659488,
				"z": -1.8041533001,
				"element": "F" 
			},
			{
				"x": -0.7549671247,
				"y": 1.3218198574,
				"z": -1.2241696146,
				"element": "C" 
			},
			{
				"x": 0.5541465853,
				"y": 0.9260686025,
				"z": -0.8881389759,
				"element": "C" 
			},
			{
				"x": 1.5160243661,
				"y": 2.0179702762,
				"z": -0.5523464316,
				"element": "C" 
			},
			{
				"x": 1.1810487325,
				"y": 3.1918187911,
				"z": -0.6082309184,
				"element": "O" 
			},
			{
				"x": 2.917595582,
				"y": 1.6416061604,
				"z": -0.0901077163,
				"element": "C" 
			},
			{
				"x": 3.4848902965,
				"y": 0.4103634563,
				"z": -0.7890561795,
				"element": "C" 
			},
			{
				"x": 2.482297565,
				"y": -1.0839566166,
				"z": -0.448884101,
				"element": "S" 
			},
			{
				"x": 0.8721511441,
				"y": -0.4502215389,
				"z": -0.8497057545,
				"element": "C" 
			},
			{
				"x": -0.1271968219,
				"y": -1.3978864554,
				"z": -1.1231115209,
				"element": "C" 
			},
			{
				"x": -0.9868387388,
				"y": 2.3805282216,
				"z": -1.2546365699,
				"element": "H" 
			},
			{
				"x": 3.5556625705,
				"y": 2.5155823306,
				"z": -0.2523930197,
				"element": "H" 
			},
			{
				"x": 2.874404593,
				"y": 1.462801233,
				"z": 0.9932292413,
				"element": "H" 
			},
			{
				"x": 3.5411273329,
				"y": 0.5576160913,
				"z": -1.8723871448,
				"element": "H" 
			},
			{
				"x": 4.4890051806,
				"y": 0.1759278376,
				"z": -0.4269918515,
				"element": "H" 
			},
			{
				"x": 0.0870944572,
				"y": -2.4611659497,
				"z": -1.1163531988,
				"element": "H" 
			}
		],
		 "valence_orbital": [ 
			{
				"type": "occ",
				"energy": -0.33826,
				"method": "rhf"
			},
			{
				"type": "occ",
				"energy": -0.29632,
				"method": "rhf"
			},
			{
				"type": "occ",
				"energy": -0.27025,
				"method": "rhf"
			},
			{
				"type": "occ",
				"energy": -0.25987,
				"method": "rhf"
			},
			{
				"type": "occ",
				"energy": -0.23002,
				"method": "rhf"
			},
			{
				"type": "unocc",
				"energy": -0.06938,
				"method": "rhf"
			},
			{
				"type": "unocc",
				"energy": -0.02518,
				"method": "rhf"
			},
			{
				"type": "unocc",
				"energy": 0.00972,
				"method": "rhf"
			},
			{
				"type": "unocc",
				"energy": 0.03263,
				"method": "rhf"
			},
			{
				"type": "unocc",
				"energy": 0.05651,
				"method": "rhf"
			}
		],
		"cosmo_sigma_profile": { 
			"-0.025": 0.0,
			"-0.024": 0.0,
			"-0.023": 0.0,
			"-0.022": 0.0,
			"-0.021": 0.0,
			"-0.02": 0.0,
			"-0.019": 0.0,
			"-0.018": 0.0,
			"-0.017": 0.0,
			"-0.016": 0.0,
			"-0.015": 0.0,
			"-0.014": 0.0,
			"-0.013": 0.0,
			"-0.012": 0.0,
			"-0.011": 0.0,
			"-0.01": 0.0,
			"-0.009": 0.910142492569,
			"-0.008": 2.52610612179,
			"-0.007": 9.31122769451,
			"-0.006": 12.7252356373,
			"-0.005": 13.4339897794,
			"-0.004": 13.27776625,
			"-0.003": 13.8953188336,
			"-0.002": 13.1134903226,
			"-0.001": 17.0840838914,
			"0.0": 17.4504840869,
			"0.001": 17.1914439208,
			"0.002": 13.4324705568,
			"0.003": 23.6539887236,
			"0.004": 12.1656109343,
			"0.005": 4.24256549376,
			"0.006": 3.79596001676,
			"0.007": 3.36910135617,
			"0.008": 2.65834015193,
			"0.009": 1.72154762487,
			"0.01": 1.92194045634,
			"0.011": 3.74723995628,
			"0.012": 2.89782363029,
			"0.013": 0.736744270182,
			"0.014": 0.0,
			"0.015": 0.0,
			"0.016": 0.0,
			"0.017": 0.0,
			"0.018": 0.0,
			"0.019": 0.0,
			"0.02": 0.0,
			"0.021": 0.0,
			"0.022": 0.0,
			"0.023": 0.0,
			"0.024": 0.0,
			"0.025": 0.0
		}
	}
}
