{
	 "smiles": "CC(C)C1=C(O)C(=O)C2=C(C[C@@H](O)[C@H]3C(C)(C)CCC[C@]23C)C1=O", 
	 "Tm": 461.15, 
	 "num_atms": 52, 
	 "gaussian": { 
		 "optdone": 1, 
		 "sigma_profile": "yes", 
		 "theory": "DFT", 
		 "functional": "B3LYP", 
		 "basiset": "6-31G**", 
		 "properties": { 
			 "R2extent": 9184.994, 
			 "electric_dipole_moment_norm": 1.83091043473, 
			 "electric_quadrupole_moment_norm": 7.51173970928, 
			 "total_energy": -1079.90126651, 
			 "HOMO_LUMO_gap": 0.12334, 
			 "cosmo_polarized_energy": -11.42, 
			 "cosmo_cavitation_energy": 46.37, 
			 "cosmo_dispersion_energy": -32.98, 
			 "cosmo_repulsion_energy": 2.45, 
			 "cosmo_total_nonelectrostatic_energy": 15.83, 
			 "SMD_solvation_energy": 8.57 
		},
		"coords": [
			{
				"x": -2.4422109133,
				"y": 4.6178849623,
				"z": 2.0111498094,
				"element": "C" 
			},
			{
				"x": -3.038330146,
				"y": 4.0638241713,
				"z": 0.7012606764,
				"element": "C" 
			},
			{
				"x": -4.4854830187,
				"y": 3.5719440355,
				"z": 0.9073090563,
				"element": "C" 
			},
			{
				"x": -2.1558414606,
				"y": 2.9945869876,
				"z": 0.0822094191,
				"element": "C" 
			},
			{
				"x": -1.6009631422,
				"y": 3.1328277292,
				"z": -1.1458471272,
				"element": "C" 
			},
			{
				"x": -1.7831543996,
				"y": 4.208611218,
				"z": -1.9259286589,
				"element": "O" 
			},
			{
				"x": -0.7319888829,
				"y": 2.0866447872,
				"z": -1.787362603,
				"element": "C" 
			},
			{
				"x": -0.3682490934,
				"y": 2.344819077,
				"z": -2.938616428,
				"element": "O" 
			},
			{
				"x": -0.3779832803,
				"y": 0.8522214021,
				"z": -1.0468350554,
				"element": "C" 
			},
			{
				"x": -0.9770904591,
				"y": 0.6848868333,
				"z": 0.1588899184,
				"element": "C" 
			},
			{
				"x": -0.7860293219,
				"y": -0.5367745852,
				"z": 1.0135311434,
				"element": "C" 
			},
			{
				"x": -0.1215197511,
				"y": -1.7108691532,
				"z": 0.2910565572,
				"element": "C" 
			},
			{
				"x": -1.0568570661,
				"y": -2.441236585,
				"z": -0.5085982032,
				"element": "O" 
			},
			{
				"x": 1.0329459279,
				"y": -1.1869571045,
				"z": -0.57806714,
				"element": "C" 
			},
			{
				"x": 2.1133581896,
				"y": -2.251837614,
				"z": -0.9883359246,
				"element": "C" 
			},
			{
				"x": 2.6594465649,
				"y": -2.935759023,
				"z": 0.2876094415,
				"element": "C" 
			},
			{
				"x": 1.6143731976,
				"y": -3.3772384338,
				"z": -1.9228380609,
				"element": "C" 
			},
			{
				"x": 3.2991785269,
				"y": -1.4895003805,
				"z": -1.6345256654,
				"element": "C" 
			},
			{
				"x": 2.8881476358,
				"y": -0.5087896985,
				"z": -2.7354106937,
				"element": "C" 
			},
			{
				"x": 1.8405620312,
				"y": 0.5012918429,
				"z": -2.2484650823,
				"element": "C" 
			},
			{
				"x": 0.5545793541,
				"y": -0.1882222888,
				"z": -1.6968346249,
				"element": "C" 
			},
			{
				"x": -0.2473870933,
				"y": -0.8126438704,
				"z": -2.8736935872,
				"element": "C" 
			},
			{
				"x": -1.877830686,
				"y": 1.732616369,
				"z": 0.7818928541,
				"element": "C" 
			},
			{
				"x": -2.3597258553,
				"y": 1.4867927885,
				"z": 1.8891790174,
				"element": "O" 
			},
			{
				"x": -1.4308616725,
				"y": 5.0065431922,
				"z": 1.8522777181,
				"element": "H" 
			},
			{
				"x": -2.3986220157,
				"y": 3.8426369745,
				"z": 2.7794108999,
				"element": "H" 
			},
			{
				"x": -3.0621401953,
				"y": 5.4399413259,
				"z": 2.3852253821,
				"element": "H" 
			},
			{
				"x": -3.0692726772,
				"y": 4.8859047389,
				"z": -0.0213904678,
				"element": "H" 
			},
			{
				"x": -4.5209664254,
				"y": 2.7549555483,
				"z": 1.6314709749,
				"element": "H" 
			},
			{
				"x": -5.1091159309,
				"y": 4.3916039852,
				"z": 1.2805719087,
				"element": "H" 
			},
			{
				"x": -4.9213020802,
				"y": 3.2210118379,
				"z": -0.0339011249,
				"element": "H" 
			},
			{
				"x": -1.2915029176,
				"y": 4.0023375021,
				"z": -2.7503682717,
				"element": "H" 
			},
			{
				"x": -0.1835862923,
				"y": -0.2564031517,
				"z": 1.8890594164,
				"element": "H" 
			},
			{
				"x": -1.7541383617,
				"y": -0.8318085971,
				"z": 1.4343378037,
				"element": "H" 
			},
			{
				"x": 0.288671446,
				"y": -2.3780357981,
				"z": 1.0604353101,
				"element": "H" 
			},
			{
				"x": -1.7435810521,
				"y": -2.782326244,
				"z": 0.0788461868,
				"element": "H" 
			},
			{
				"x": 1.5850033861,
				"y": -0.5362576165,
				"z": 0.1194753002,
				"element": "H" 
			},
			{
				"x": 3.5671730119,
				"y": -3.4986734044,
				"z": 0.0439364265,
				"element": "H" 
			},
			{
				"x": 1.9480098565,
				"y": -3.6480867039,
				"z": 0.7170342486,
				"element": "H" 
			},
			{
				"x": 2.9220398462,
				"y": -2.2054635454,
				"z": 1.0622950843,
				"element": "H" 
			},
			{
				"x": 0.6716277318,
				"y": -3.7977012513,
				"z": -1.5662399455,
				"element": "H" 
			},
			{
				"x": 1.4599612488,
				"y": -3.0429824216,
				"z": -2.9499367714,
				"element": "H" 
			},
			{
				"x": 2.3616960385,
				"y": -4.178663321,
				"z": -1.9566374472,
				"element": "H" 
			},
			{
				"x": 3.8197894322,
				"y": -0.9271859081,
				"z": -0.8454547437,
				"element": "H" 
			},
			{
				"x": 4.0242461539,
				"y": -2.2171381105,
				"z": -2.0215469211,
				"element": "H" 
			},
			{
				"x": 3.7715117859,
				"y": 0.0367249568,
				"z": -3.0890660026,
				"element": "H" 
			},
			{
				"x": 2.50667573,
				"y": -1.0531979686,
				"z": -3.6072760017,
				"element": "H" 
			},
			{
				"x": 2.2831533862,
				"y": 1.1135872562,
				"z": -1.4492684063,
				"element": "H" 
			},
			{
				"x": 1.5749931259,
				"y": 1.1813317283,
				"z": -3.0582074758,
				"element": "H" 
			},
			{
				"x": -1.1135225074,
				"y": -1.3614900024,
				"z": -2.5071649479,
				"element": "H" 
			},
			{
				"x": 0.3618676398,
				"y": -1.4994317524,
				"z": -3.4603503061,
				"element": "H" 
			},
			{
				"x": -0.5768545497,
				"y": -0.0175567163,
				"z": -3.5464968651,
				"element": "H" 
			}
		],
		 "valence_orbital": [ 
			{
				"type": "occ",
				"energy": -0.28116,
				"method": "rhf"
			},
			{
				"type": "occ",
				"energy": -0.27314,
				"method": "rhf"
			},
			{
				"type": "occ",
				"energy": -0.26866,
				"method": "rhf"
			},
			{
				"type": "occ",
				"energy": -0.25287,
				"method": "rhf"
			},
			{
				"type": "occ",
				"energy": -0.23928,
				"method": "rhf"
			},
			{
				"type": "unocc",
				"energy": -0.11594,
				"method": "rhf"
			},
			{
				"type": "unocc",
				"energy": 0.00235,
				"method": "rhf"
			},
			{
				"type": "unocc",
				"energy": 0.01622,
				"method": "rhf"
			},
			{
				"type": "unocc",
				"energy": 0.05437,
				"method": "rhf"
			},
			{
				"type": "unocc",
				"energy": 0.08763,
				"method": "rhf"
			}
		],
		"cosmo_sigma_profile": { 
			"-0.025": 0.0,
			"-0.024": 0.0,
			"-0.023": 0.0,
			"-0.022": 0.0,
			"-0.021": 0.0,
			"-0.02": 0.0,
			"-0.019": 0.0,
			"-0.018": 0.0,
			"-0.017": 0.0,
			"-0.016": 0.0409759854744,
			"-0.015": 0.846983014074,
			"-0.014": 1.50388363669,
			"-0.013": 1.39611967428,
			"-0.012": 1.27811612265,
			"-0.011": 1.61219035201,
			"-0.01": 2.05769131879,
			"-0.009": 2.01006579195,
			"-0.008": 1.5248789454,
			"-0.007": 1.5965044308,
			"-0.006": 2.72018635725,
			"-0.005": 9.37296077195,
			"-0.004": 15.7632501634,
			"-0.003": 30.1851220112,
			"-0.002": 45.8406929561,
			"-0.001": 46.4724767971,
			"0.0": 50.1377726272,
			"0.001": 51.063198717,
			"0.002": 31.7344073789,
			"0.003": 10.7116879293,
			"0.004": 8.71561803258,
			"0.005": 8.23210749056,
			"0.006": 6.09767891279,
			"0.007": 8.15624469342,
			"0.008": 6.18094333553,
			"0.009": 6.33662540161,
			"0.01": 3.09944192959,
			"0.011": 2.89853343512,
			"0.012": 1.59978171669,
			"0.013": 0.0263775836301,
			"0.014": 0.0,
			"0.015": 0.0,
			"0.016": 0.0,
			"0.017": 0.0,
			"0.018": 0.0,
			"0.019": 0.0,
			"0.02": 0.0,
			"0.021": 0.0,
			"0.022": 0.0,
			"0.023": 0.0,
			"0.024": 0.0,
			"0.025": 0.0
		}
	}
}
