{
	 "smiles": "[O-][N+](=O)C1=CC(Br)=CN=C1Cl", 
	 "Tm": 338.65, 
	 "num_atms": 13, 
	 "gaussian": { 
		 "optdone": 1, 
		 "sigma_profile": "yes", 
		 "theory": "DFT", 
		 "functional": "B3LYP", 
		 "basiset": "6-31G**", 
		 "properties": { 
			 "R2extent": 5271.3324, 
			 "electric_dipole_moment_norm": 3.2402233565, 
			 "electric_quadrupole_moment_norm": 9.65931871097, 
			 "total_energy": -3483.15662901, 
			 "HOMO_LUMO_gap": 0.16804, 
			 "cosmo_polarized_energy": -8.73, 
			 "cosmo_cavitation_energy": 23.06, 
			 "cosmo_dispersion_energy": -17.62, 
			 "cosmo_repulsion_energy": 1.42, 
			 "cosmo_total_nonelectrostatic_energy": 6.86, 
			 "SMD_solvation_energy": 3.58 
		},
		"coords": [
			{
				"x": 1.9630367087,
				"y": 0.7857894888,
				"z": 2.2299725539,
				"element": "O" 
			},
			{
				"x": 1.0919395204,
				"y": 0.9353246891,
				"z": 1.3739832059,
				"element": "N" 
			},
			{
				"x": 0.0331758855,
				"y": 1.5299661619,
				"z": 1.5283813397,
				"element": "O" 
			},
			{
				"x": 1.384567941,
				"y": 0.3750180766,
				"z": 0.0404710035,
				"element": "C" 
			},
			{
				"x": 2.7258590852,
				"y": 0.3358370329,
				"z": -0.3331633036,
				"element": "C" 
			},
			{
				"x": 3.0473627599,
				"y": -0.1421381295,
				"z": -1.5968073936,
				"element": "C" 
			},
			{
				"x": 4.8485992475,
				"y": -0.2054367013,
				"z": -2.1858838398,
				"element": "Br" 
			},
			{
				"x": 2.0163613049,
				"y": -0.5796419822,
				"z": -2.4307553086,
				"element": "C" 
			},
			{
				"x": 0.7387119138,
				"y": -0.570386921,
				"z": -2.0492095686,
				"element": "N" 
			},
			{
				"x": 0.4097847528,
				"y": -0.1070821555,
				"z": -0.8521982471,
				"element": "C" 
			},
			{
				"x": -1.2784996986,
				"y": -0.2063234796,
				"z": -0.4478067868,
				"element": "Cl" 
			},
			{
				"x": 3.4801924954,
				"y": 0.6776448997,
				"z": 0.364187576,
				"element": "H" 
			},
			{
				"x": 2.2273080836,
				"y": -0.9527709801,
				"z": -3.4288712307,
				"element": "H" 
			}
		],
		 "valence_orbital": [ 
			{
				"type": "occ",
				"energy": -0.32671,
				"method": "rhf"
			},
			{
				"type": "occ",
				"energy": -0.32208,
				"method": "rhf"
			},
			{
				"type": "occ",
				"energy": -0.30642,
				"method": "rhf"
			},
			{
				"type": "occ",
				"energy": -0.30185,
				"method": "rhf"
			},
			{
				"type": "occ",
				"energy": -0.27908,
				"method": "rhf"
			},
			{
				"type": "unocc",
				"energy": -0.11104,
				"method": "rhf"
			},
			{
				"type": "unocc",
				"energy": -0.07148,
				"method": "rhf"
			},
			{
				"type": "unocc",
				"energy": -0.04308,
				"method": "rhf"
			},
			{
				"type": "unocc",
				"energy": -0.02418,
				"method": "rhf"
			},
			{
				"type": "unocc",
				"energy": 0.00992,
				"method": "rhf"
			}
		],
		"cosmo_sigma_profile": { 
			"-0.025": 0.0,
			"-0.024": 0.0,
			"-0.023": 0.0,
			"-0.022": 0.0,
			"-0.021": 0.0,
			"-0.02": 0.0,
			"-0.019": 0.0,
			"-0.018": 0.0,
			"-0.017": 0.0,
			"-0.016": 0.0,
			"-0.015": 0.0,
			"-0.014": 0.0,
			"-0.013": 0.0,
			"-0.012": 0.0,
			"-0.011": 0.0710041653018,
			"-0.01": 2.34807459472,
			"-0.009": 5.29759634365,
			"-0.008": 4.53188121545,
			"-0.007": 5.33504052953,
			"-0.006": 7.49765994375,
			"-0.005": 10.6814008403,
			"-0.004": 13.4209700867,
			"-0.003": 17.9453020085,
			"-0.002": 12.1143941815,
			"-0.001": 10.4411256281,
			"0.0": 12.2349653276,
			"0.001": 11.0506964651,
			"0.002": 17.0685976252,
			"0.003": 18.6053976268,
			"0.004": 7.31433751534,
			"0.005": 5.91296348551,
			"0.006": 8.97987193869,
			"0.007": 11.112581512,
			"0.008": 5.25118670637,
			"0.009": 2.88657627319,
			"0.01": 0.823408651089,
			"0.011": 0.715880162275,
			"0.012": 0.737055304408,
			"0.013": 0.0,
			"0.014": 0.0,
			"0.015": 0.0,
			"0.016": 0.0,
			"0.017": 0.0,
			"0.018": 0.0,
			"0.019": 0.0,
			"0.02": 0.0,
			"0.021": 0.0,
			"0.022": 0.0,
			"0.023": 0.0,
			"0.024": 0.0,
			"0.025": 0.0
		}
	}
}
