{
	 "smiles": "CC1=C(N)C(=CC(F)=C1)C(O)=O", 
	 "Tm": 465.15, 
	 "num_atms": 20, 
	 "gaussian": { 
		 "optdone": 1, 
		 "sigma_profile": "yes", 
		 "theory": "DFT", 
		 "functional": "B3LYP", 
		 "basiset": "6-31G**", 
		 "properties": { 
			 "R2extent": 2664.2444, 
			 "electric_dipole_moment_norm": 4.42904969265, 
			 "electric_quadrupole_moment_norm": 10.1224404414, 
			 "total_energy": -614.735000136, 
			 "HOMO_LUMO_gap": 0.15986, 
			 "cosmo_polarized_energy": -12.01, 
			 "cosmo_cavitation_energy": 24.25, 
			 "cosmo_dispersion_energy": -18.14, 
			 "cosmo_repulsion_energy": 1.41, 
			 "cosmo_total_nonelectrostatic_energy": 7.52, 
			 "SMD_solvation_energy": 5.68 
		},
		"coords": [
			{
				"x": 0.449183036,
				"y": -1.2757146938,
				"z": -2.3124651101,
				"element": "C" 
			},
			{
				"x": -0.0022445007,
				"y": -0.0696067633,
				"z": -1.5266697277,
				"element": "C" 
			},
			{
				"x": 0.8951754067,
				"y": 0.5549853092,
				"z": -0.6113114125,
				"element": "C" 
			},
			{
				"x": 2.1741757749,
				"y": 0.0493265058,
				"z": -0.5058272089,
				"element": "N" 
			},
			{
				"x": 0.4476084393,
				"y": 1.6990755579,
				"z": 0.1065032506,
				"element": "C" 
			},
			{
				"x": -0.8544980294,
				"y": 2.1982806676,
				"z": -0.1026978326,
				"element": "C" 
			},
			{
				"x": -1.6948913934,
				"y": 1.5712754397,
				"z": -0.9911292083,
				"element": "C" 
			},
			{
				"x": -2.9468128104,
				"y": 2.0447951302,
				"z": -1.1900791575,
				"element": "F" 
			},
			{
				"x": -1.2809548827,
				"y": 0.4437945873,
				"z": -1.7001189929,
				"element": "C" 
			},
			{
				"x": 1.2346328808,
				"y": 2.4544782308,
				"z": 1.1067861175,
				"element": "C" 
			},
			{
				"x": 2.4827692078,
				"y": 1.9519648566,
				"z": 1.3635868433,
				"element": "O" 
			},
			{
				"x": 0.8491373223,
				"y": 3.446952308,
				"z": 1.694663588,
				"element": "O" 
			},
			{
				"x": 1.3483271746,
				"y": -1.056938371,
				"z": -2.9019421502,
				"element": "H" 
			},
			{
				"x": -0.3307228235,
				"y": -1.6079682971,
				"z": -3.0011208198,
				"element": "H" 
			},
			{
				"x": 0.688424384,
				"y": -2.1274310293,
				"z": -1.6597662781,
				"element": "H" 
			},
			{
				"x": 2.7377280006,
				"y": 0.3787385784,
				"z": 0.2625350384,
				"element": "H" 
			},
			{
				"x": 2.3115468872,
				"y": -0.9117775947,
				"z": -0.7732165678,
				"element": "H" 
			},
			{
				"x": -1.175461658,
				"y": 3.0724935852,
				"z": 0.4502120783,
				"element": "H" 
			},
			{
				"x": -1.9709875277,
				"y": -0.0244771964,
				"z": -2.3953854317,
				"element": "H" 
			},
			{
				"x": 2.8620651116,
				"y": 2.5448531891,
				"z": 2.0331429821,
				"element": "H" 
			}
		],
		 "valence_orbital": [ 
			{
				"type": "occ",
				"energy": -0.32601,
				"method": "rhf"
			},
			{
				"type": "occ",
				"energy": -0.30539,
				"method": "rhf"
			},
			{
				"type": "occ",
				"energy": -0.27891,
				"method": "rhf"
			},
			{
				"type": "occ",
				"energy": -0.25673,
				"method": "rhf"
			},
			{
				"type": "occ",
				"energy": -0.2047,
				"method": "rhf"
			},
			{
				"type": "unocc",
				"energy": -0.04484,
				"method": "rhf"
			},
			{
				"type": "unocc",
				"energy": 0.0107,
				"method": "rhf"
			},
			{
				"type": "unocc",
				"energy": 0.06204,
				"method": "rhf"
			},
			{
				"type": "unocc",
				"energy": 0.06899,
				"method": "rhf"
			},
			{
				"type": "unocc",
				"energy": 0.08161,
				"method": "rhf"
			}
		],
		"cosmo_sigma_profile": { 
			"-0.025": 0.0,
			"-0.024": 0.0,
			"-0.023": 0.0,
			"-0.022": 0.0,
			"-0.021": 0.0,
			"-0.02": 0.0,
			"-0.019": 0.0110569382524,
			"-0.018": 0.807915838773,
			"-0.017": 0.731471760607,
			"-0.016": 1.08485578397,
			"-0.015": 0.749426789519,
			"-0.014": 0.513719847139,
			"-0.013": 0.776519041003,
			"-0.012": 1.62088292718,
			"-0.011": 2.01980480858,
			"-0.01": 2.32933068694,
			"-0.009": 2.7163093439,
			"-0.008": 3.36273940187,
			"-0.007": 4.68917633079,
			"-0.006": 6.88334830812,
			"-0.005": 8.47082008898,
			"-0.004": 8.83143415293,
			"-0.003": 9.82898982473,
			"-0.002": 11.8664900569,
			"-0.001": 14.0922522515,
			"0.0": 15.8146466162,
			"0.001": 14.9639026121,
			"0.002": 16.6288892024,
			"0.003": 20.1536003277,
			"0.004": 13.0097079767,
			"0.005": 11.9248995624,
			"0.006": 2.30366462487,
			"0.007": 0.991948437261,
			"0.008": 2.26756641427,
			"0.009": 2.96746011021,
			"0.01": 1.75829306695,
			"0.011": 3.60065312348,
			"0.012": 4.99937781517,
			"0.013": 0.219346356548,
			"0.014": 0.0,
			"0.015": 0.0,
			"0.016": 0.0,
			"0.017": 0.0,
			"0.018": 0.0,
			"0.019": 0.0,
			"0.02": 0.0,
			"0.021": 0.0,
			"0.022": 0.0,
			"0.023": 0.0,
			"0.024": 0.0,
			"0.025": 0.0
		}
	}
}
