{
	 "smiles": "CC1=CSC(SCC2=C(OC3=C2C=CC=C3)C(O)=O)=N1", 
	 "Tm": 451.15, 
	 "num_atms": 31, 
	 "gaussian": { 
		 "optdone": 1, 
		 "sigma_profile": "yes", 
		 "theory": "DFT", 
		 "functional": "B3LYP", 
		 "basiset": "6-31G**", 
		 "properties": { 
			 "R2extent": 6738.2513, 
			 "electric_dipole_moment_norm": 3.44867911091, 
			 "electric_quadrupole_moment_norm": 17.2882596232, 
			 "total_energy": -1616.90603914, 
			 "HOMO_LUMO_gap": 0.15848, 
			 "cosmo_polarized_energy": -18.11, 
			 "cosmo_cavitation_energy": 38.41, 
			 "cosmo_dispersion_energy": -27.58, 
			 "cosmo_repulsion_energy": 2.01, 
			 "cosmo_total_nonelectrostatic_energy": 12.85, 
			 "SMD_solvation_energy": 6.68 
		},
		"coords": [
			{
				"x": -1.6524157671,
				"y": -3.2932677378,
				"z": 2.8743091888,
				"element": "C" 
			},
			{
				"x": -2.0193307721,
				"y": -2.0815006704,
				"z": 2.0708052311,
				"element": "C" 
			},
			{
				"x": -2.9523289588,
				"y": -1.1413380309,
				"z": 2.4002573757,
				"element": "C" 
			},
			{
				"x": -3.037285429,
				"y": 0.1024158251,
				"z": 1.1834331811,
				"element": "S" 
			},
			{
				"x": -1.7975148626,
				"y": -0.7701551852,
				"z": 0.2904107246,
				"element": "C" 
			},
			{
				"x": -1.234147052,
				"y": -0.1652364348,
				"z": -1.2745319091,
				"element": "S" 
			},
			{
				"x": 0.2792693816,
				"y": -1.2162005161,
				"z": -1.4837461044,
				"element": "C" 
			},
			{
				"x": 1.4312876287,
				"y": -0.8021956264,
				"z": -0.6256007737,
				"element": "C" 
			},
			{
				"x": 1.9948260037,
				"y": -1.4763533637,
				"z": 0.4301380103,
				"element": "C" 
			},
			{
				"x": 2.9882230155,
				"y": -0.7464936574,
				"z": 1.0337936575,
				"element": "O" 
			},
			{
				"x": 3.0849743584,
				"y": 0.4238894391,
				"z": 0.3393551287,
				"element": "C" 
			},
			{
				"x": 2.1417461485,
				"y": 0.4558486214,
				"z": -0.7017717469,
				"element": "C" 
			},
			{
				"x": 2.0805402788,
				"y": 1.5883734358,
				"z": -1.5307229614,
				"element": "C" 
			},
			{
				"x": 2.9706767163,
				"y": 2.6285397265,
				"z": -1.2890582485,
				"element": "C" 
			},
			{
				"x": 3.9096757198,
				"y": 2.5619736364,
				"z": -0.2396173114,
				"element": "C" 
			},
			{
				"x": 3.9852986991,
				"y": 1.4522696275,
				"z": 0.5981458716,
				"element": "C" 
			},
			{
				"x": 1.714886996,
				"y": -2.782390785,
				"z": 1.0850077546,
				"element": "C" 
			},
			{
				"x": 1.3526269431,
				"y": -3.7934327546,
				"z": 0.2552860457,
				"element": "O" 
			},
			{
				"x": 1.814735663,
				"y": -2.9601334464,
				"z": 2.2740019207,
				"element": "O" 
			},
			{
				"x": -1.3741556489,
				"y": -1.8559682709,
				"z": 0.8629429421,
				"element": "N" 
			},
			{
				"x": -1.8590815424,
				"y": -4.2072962874,
				"z": 2.3070274796,
				"element": "H" 
			},
			{
				"x": -2.217572124,
				"y": -3.329743663,
				"z": 3.8087689507,
				"element": "H" 
			},
			{
				"x": -0.5824282245,
				"y": -3.2908659559,
				"z": 3.1042427892,
				"element": "H" 
			},
			{
				"x": -3.5862203225,
				"y": -1.1018878643,
				"z": 3.2744260994,
				"element": "H" 
			},
			{
				"x": 0.5137049531,
				"y": -1.1077201573,
				"z": -2.5471829021,
				"element": "H" 
			},
			{
				"x": -0.0364050068,
				"y": -2.2413398609,
				"z": -1.2900502626,
				"element": "H" 
			},
			{
				"x": 1.3560949925,
				"y": 1.6548925477,
				"z": -2.3360792836,
				"element": "H" 
			},
			{
				"x": 2.9427970005,
				"y": 3.5131705793,
				"z": -1.9178037493,
				"element": "H" 
			},
			{
				"x": 4.5868255367,
				"y": 3.3953088398,
				"z": -0.0792242129,
				"element": "H" 
			},
			{
				"x": 4.6985719792,
				"y": 1.3852828599,
				"z": 1.4118921763,
				"element": "H" 
			},
			{
				"x": 1.4824236961,
				"y": -3.5265448702,
				"z": -0.6653550619,
				"element": "H" 
			}
		],
		 "valence_orbital": [ 
			{
				"type": "occ",
				"energy": -0.27946,
				"method": "rhf"
			},
			{
				"type": "occ",
				"energy": -0.27449,
				"method": "rhf"
			},
			{
				"type": "occ",
				"energy": -0.2508,
				"method": "rhf"
			},
			{
				"type": "occ",
				"energy": -0.23697,
				"method": "rhf"
			},
			{
				"type": "occ",
				"energy": -0.21849,
				"method": "rhf"
			},
			{
				"type": "unocc",
				"energy": -0.06001,
				"method": "rhf"
			},
			{
				"type": "unocc",
				"energy": -0.02479,
				"method": "rhf"
			},
			{
				"type": "unocc",
				"energy": -0.00957,
				"method": "rhf"
			},
			{
				"type": "unocc",
				"energy": -0.00255,
				"method": "rhf"
			},
			{
				"type": "unocc",
				"energy": 0.00878,
				"method": "rhf"
			}
		],
		"cosmo_sigma_profile": { 
			"-0.025": 0.0,
			"-0.024": 0.0,
			"-0.023": 0.0,
			"-0.022": 0.0,
			"-0.021": 0.0,
			"-0.02": 0.0,
			"-0.019": 0.480633209416,
			"-0.018": 0.750664302309,
			"-0.017": 0.909226465879,
			"-0.016": 1.13890229591,
			"-0.015": 1.09566038615,
			"-0.014": 1.24210471923,
			"-0.013": 0.856281502978,
			"-0.012": 1.04338289158,
			"-0.011": 0.895960294454,
			"-0.01": 0.734673365776,
			"-0.009": 3.71265614915,
			"-0.008": 7.32413741244,
			"-0.007": 11.0107462613,
			"-0.006": 13.7273648683,
			"-0.005": 17.2558272741,
			"-0.004": 18.0836330594,
			"-0.003": 13.8640812779,
			"-0.002": 16.4887793782,
			"-0.001": 20.0992341896,
			"0.0": 24.9263591196,
			"0.001": 29.0513539976,
			"0.002": 28.152953246,
			"0.003": 30.331629893,
			"0.004": 21.6630685841,
			"0.005": 11.2453544035,
			"0.006": 7.11224872205,
			"0.007": 5.04491457645,
			"0.008": 5.78042369239,
			"0.009": 6.28954699941,
			"0.01": 5.19843465628,
			"0.011": 4.83012097731,
			"0.012": 2.1803542428,
			"0.013": 0.0548469105047,
			"0.014": 0.0,
			"0.015": 0.0,
			"0.016": 0.0,
			"0.017": 0.0,
			"0.018": 0.0,
			"0.019": 0.0,
			"0.02": 0.0,
			"0.021": 0.0,
			"0.022": 0.0,
			"0.023": 0.0,
			"0.024": 0.0,
			"0.025": 0.0
		}
	}
}
