{
	 "smiles": "OC(=O)C1=C2SC=CC2=C(F)C=C1", 
	 "Tm": 504.15, 
	 "num_atms": 18, 
	 "gaussian": { 
		 "optdone": 1, 
		 "sigma_profile": "yes", 
		 "theory": "DFT", 
		 "functional": "B3LYP", 
		 "basiset": "6-31G**", 
		 "properties": { 
			 "R2extent": 2621.3919, 
			 "electric_dipole_moment_norm": 4.56081348994, 
			 "electric_quadrupole_moment_norm": 15.6432883592, 
			 "total_energy": -994.445932894, 
			 "HOMO_LUMO_gap": 0.18076, 
			 "cosmo_polarized_energy": -11.66, 
			 "cosmo_cavitation_energy": 24.57, 
			 "cosmo_dispersion_energy": -18.8, 
			 "cosmo_repulsion_energy": 1.38, 
			 "cosmo_total_nonelectrostatic_energy": 7.15, 
			 "SMD_solvation_energy": 5.66 
		},
		"coords": [
			{
				"x": -0.6460930675,
				"y": 2.6954229742,
				"z": 2.0839344595,
				"element": "O" 
			},
			{
				"x": 0.1844255549,
				"y": 2.8903158763,
				"z": 1.0239276857,
				"element": "C" 
			},
			{
				"x": 0.7814937844,
				"y": 3.934557098,
				"z": 0.9120544706,
				"element": "O" 
			},
			{
				"x": 0.299978036,
				"y": 1.7745980209,
				"z": 0.0308200737,
				"element": "C" 
			},
			{
				"x": 0.0572405929,
				"y": 0.411707286,
				"z": 0.3021287328,
				"element": "C" 
			},
			{
				"x": -0.3583683232,
				"y": -0.3517278842,
				"z": 1.8357473831,
				"element": "S" 
			},
			{
				"x": -0.4265934647,
				"y": -1.9310757835,
				"z": 1.0811618709,
				"element": "C" 
			},
			{
				"x": -0.1200708827,
				"y": -1.9041133603,
				"z": -0.2391239668,
				"element": "C" 
			},
			{
				"x": 0.1671482058,
				"y": -0.5750278984,
				"z": -0.7080410674,
				"element": "C" 
			},
			{
				"x": 0.538633327,
				"y": -0.1609523409,
				"z": -1.9944333233,
				"element": "C" 
			},
			{
				"x": 0.6369787605,
				"y": -1.0935167778,
				"z": -2.9596342083,
				"element": "F" 
			},
			{
				"x": 0.808074369,
				"y": 1.1642857052,
				"z": -2.2838950727,
				"element": "C" 
			},
			{
				"x": 0.6920733839,
				"y": 2.1182900189,
				"z": -1.266562032,
				"element": "C" 
			},
			{
				"x": -1.2155406925,
				"y": 1.9223477807,
				"z": 1.9487227156,
				"element": "H" 
			},
			{
				"x": -0.6759065768,
				"y": -2.7893269731,
				"z": 1.6901432497,
				"element": "H" 
			},
			{
				"x": -0.0884701172,
				"y": -2.780446188,
				"z": -0.8741523439,
				"element": "H" 
			},
			{
				"x": 1.1006217571,
				"y": 1.4432877737,
				"z": -3.289732167,
				"element": "H" 
			},
			{
				"x": 0.9020753532,
				"y": 3.1628746723,
				"z": -1.4678664601,
				"element": "H" 
			}
		],
		 "valence_orbital": [ 
			{
				"type": "occ",
				"energy": -0.31964,
				"method": "rhf"
			},
			{
				"type": "occ",
				"energy": -0.30138,
				"method": "rhf"
			},
			{
				"type": "occ",
				"energy": -0.27826,
				"method": "rhf"
			},
			{
				"type": "occ",
				"energy": -0.26557,
				"method": "rhf"
			},
			{
				"type": "occ",
				"energy": -0.23979,
				"method": "rhf"
			},
			{
				"type": "unocc",
				"energy": -0.05903,
				"method": "rhf"
			},
			{
				"type": "unocc",
				"energy": -0.04062,
				"method": "rhf"
			},
			{
				"type": "unocc",
				"energy": -0.00327,
				"method": "rhf"
			},
			{
				"type": "unocc",
				"energy": 0.00776,
				"method": "rhf"
			},
			{
				"type": "unocc",
				"energy": 0.05317,
				"method": "rhf"
			}
		],
		"cosmo_sigma_profile": { 
			"-0.025": 0.0,
			"-0.024": 0.0,
			"-0.023": 0.0,
			"-0.022": 0.0,
			"-0.021": 0.0,
			"-0.02": 0.0,
			"-0.019": 0.0,
			"-0.018": 0.0,
			"-0.017": 0.0446951723573,
			"-0.016": 0.427143336873,
			"-0.015": 0.97749300263,
			"-0.014": 0.831642095571,
			"-0.013": 0.804834809259,
			"-0.012": 0.831870557376,
			"-0.011": 0.902962064435,
			"-0.01": 1.89668645322,
			"-0.009": 3.10617999273,
			"-0.008": 4.71491408026,
			"-0.007": 8.41837339196,
			"-0.006": 8.10795185179,
			"-0.005": 8.12057665743,
			"-0.004": 8.76599832703,
			"-0.003": 10.8899988925,
			"-0.002": 9.8391688926,
			"-0.001": 17.0165897908,
			"0.0": 22.2151233828,
			"0.001": 22.2623339085,
			"0.002": 18.8943700965,
			"0.003": 16.013204003,
			"0.004": 7.22619379716,
			"0.005": 2.75421253042,
			"0.006": 2.24957105702,
			"0.007": 1.92232116833,
			"0.008": 3.252693481,
			"0.009": 3.39644401611,
			"0.01": 5.10271220956,
			"0.011": 5.27071291009,
			"0.012": 3.57738075929,
			"0.013": 0.902721683221,
			"0.014": 0.0,
			"0.015": 0.0,
			"0.016": 0.0,
			"0.017": 0.0,
			"0.018": 0.0,
			"0.019": 0.0,
			"0.02": 0.0,
			"0.021": 0.0,
			"0.022": 0.0,
			"0.023": 0.0,
			"0.024": 0.0,
			"0.025": 0.0
		}
	}
}
