{
	 "smiles": "CC(C)N(CCC(C(N)=O)(C1=CC=CC=C1)C1=CC=CC=N1)C(C)C", 
	 "Tm": 367.95, 
	 "num_atms": 54, 
	 "gaussian": { 
		 "optdone": 1, 
		 "sigma_profile": "yes", 
		 "theory": "DFT", 
		 "functional": "B3LYP", 
		 "basiset": "6-31G**", 
		 "properties": { 
			 "R2extent": 9300.7012, 
			 "electric_dipole_moment_norm": 4.88823156673, 
			 "electric_quadrupole_moment_norm": 7.80944342127, 
			 "total_energy": -1057.20115011, 
			 "HOMO_LUMO_gap": 0.14344, 
			 "cosmo_polarized_energy": -16.17, 
			 "cosmo_cavitation_energy": 52.8, 
			 "cosmo_dispersion_energy": -33.53, 
			 "cosmo_repulsion_energy": 2.59, 
			 "cosmo_total_nonelectrostatic_energy": 21.85, 
			 "SMD_solvation_energy": 8.31 
		},
		"coords": [
			{
				"x": 2.4468148642,
				"y": 0.8483693129,
				"z": -2.9862567083,
				"element": "C" 
			},
			{
				"x": 3.2797165708,
				"y": 0.575739523,
				"z": -1.7218170628,
				"element": "C" 
			},
			{
				"x": 3.7118531262,
				"y": 1.907591709,
				"z": -1.0664247053,
				"element": "C" 
			},
			{
				"x": 2.5751644091,
				"y": -0.3727551513,
				"z": -0.847666513,
				"element": "N" 
			},
			{
				"x": 1.4319925993,
				"y": 0.1409580347,
				"z": -0.0958656133,
				"element": "C" 
			},
			{
				"x": 0.206653163,
				"y": -0.7775836721,
				"z": -0.277470616,
				"element": "C" 
			},
			{
				"x": -1.0129737678,
				"y": -0.5467917942,
				"z": 0.6744986213,
				"element": "C" 
			},
			{
				"x": -0.4282916556,
				"y": -0.6026744723,
				"z": 2.1174857882,
				"element": "C" 
			},
			{
				"x": -0.6701536996,
				"y": 0.448318845,
				"z": 2.9512674323,
				"element": "N" 
			},
			{
				"x": 0.2437195535,
				"y": -1.5596659273,
				"z": 2.484927933,
				"element": "O" 
			},
			{
				"x": -2.0070935715,
				"y": -1.7143898671,
				"z": 0.4428094592,
				"element": "C" 
			},
			{
				"x": -2.7038498513,
				"y": -1.7513286397,
				"z": -0.7776858966,
				"element": "C" 
			},
			{
				"x": -3.6004629343,
				"y": -2.7774341137,
				"z": -1.0679103926,
				"element": "C" 
			},
			{
				"x": -3.8279204545,
				"y": -3.793942055,
				"z": -0.1378451148,
				"element": "C" 
			},
			{
				"x": -3.1423088048,
				"y": -3.7704190651,
				"z": 1.0750075954,
				"element": "C" 
			},
			{
				"x": -2.2367873439,
				"y": -2.7450902908,
				"z": 1.3638175233,
				"element": "C" 
			},
			{
				"x": -1.762414398,
				"y": 0.769049756,
				"z": 0.3911662378,
				"element": "C" 
			},
			{
				"x": -2.9919098203,
				"y": 1.0342561546,
				"z": 1.0256210152,
				"element": "C" 
			},
			{
				"x": -3.6571460748,
				"y": 2.2262018188,
				"z": 0.7585126046,
				"element": "C" 
			},
			{
				"x": -3.0928304733,
				"y": 3.1253121525,
				"z": -0.1486253025,
				"element": "C" 
			},
			{
				"x": -1.8823848405,
				"y": 2.7763367201,
				"z": -0.7410081561,
				"element": "C" 
			},
			{
				"x": -1.228100001,
				"y": 1.635329293,
				"z": -0.4814992631,
				"element": "N" 
			},
			{
				"x": 3.3642221131,
				"y": -1.3928565474,
				"z": -0.1387628401,
				"element": "C" 
			},
			{
				"x": 3.9283607602,
				"y": -2.4431734392,
				"z": -1.108142848,
				"element": "C" 
			},
			{
				"x": 4.4705350085,
				"y": -0.8473240229,
				"z": 0.788916986,
				"element": "C" 
			},
			{
				"x": 2.9825896624,
				"y": 1.5088454913,
				"z": -3.6778304535,
				"element": "H" 
			},
			{
				"x": 2.2196155614,
				"y": -0.08920887,
				"z": -3.5010985891,
				"element": "H" 
			},
			{
				"x": 1.4961358196,
				"y": 1.3320304892,
				"z": -2.7340981309,
				"element": "H" 
			},
			{
				"x": 4.1950703,
				"y": 0.0660747093,
				"z": -2.0439884794,
				"element": "H" 
			},
			{
				"x": 2.8460662156,
				"y": 2.5143695483,
				"z": -0.7801946445,
				"element": "H" 
			},
			{
				"x": 4.3181200867,
				"y": 1.7436020347,
				"z": -0.1723440274,
				"element": "H" 
			},
			{
				"x": 4.30472892,
				"y": 2.5012925898,
				"z": -1.7716642315,
				"element": "H" 
			},
			{
				"x": 1.6724513628,
				"y": 0.246569182,
				"z": 0.9745497993,
				"element": "H" 
			},
			{
				"x": 1.1705425684,
				"y": 1.1357565486,
				"z": -0.4543342616,
				"element": "H" 
			},
			{
				"x": 0.5170445314,
				"y": -1.812355037,
				"z": -0.1144673219,
				"element": "H" 
			},
			{
				"x": -0.1365133963,
				"y": -0.6997287742,
				"z": -1.3122410572,
				"element": "H" 
			},
			{
				"x": -1.1256857614,
				"y": 1.2925957231,
				"z": 2.6476267188,
				"element": "H" 
			},
			{
				"x": -0.2075627069,
				"y": 0.4304128726,
				"z": 3.8480327972,
				"element": "H" 
			},
			{
				"x": -2.5458431714,
				"y": -0.963932057,
				"z": -1.5091723571,
				"element": "H" 
			},
			{
				"x": -4.1226640076,
				"y": -2.7803941444,
				"z": -2.0207419851,
				"element": "H" 
			},
			{
				"x": -4.5283241849,
				"y": -4.5942948191,
				"z": -0.3589454118,
				"element": "H" 
			},
			{
				"x": -3.3036543173,
				"y": -4.5569710908,
				"z": 1.807145536,
				"element": "H" 
			},
			{
				"x": -1.6915312751,
				"y": -2.7676471402,
				"z": 2.2988107061,
				"element": "H" 
			},
			{
				"x": -3.4161254302,
				"y": 0.3030455883,
				"z": 1.7056918651,
				"element": "H" 
			},
			{
				"x": -4.6056587047,
				"y": 2.4449585803,
				"z": 1.240883215,
				"element": "H" 
			},
			{
				"x": -3.5783096111,
				"y": 4.0641712638,
				"z": -0.3948090826,
				"element": "H" 
			},
			{
				"x": -1.4090337324,
				"y": 3.44108118,
				"z": -1.4615642413,
				"element": "H" 
			},
			{
				"x": 2.6435942775,
				"y": -1.9111415187,
				"z": 0.5051127871,
				"element": "H" 
			},
			{
				"x": 4.4010693536,
				"y": -3.2621594052,
				"z": -0.5550116397,
				"element": "H" 
			},
			{
				"x": 3.1284106483,
				"y": -2.8564030172,
				"z": -1.7287668716,
				"element": "H" 
			},
			{
				"x": 4.6898142731,
				"y": -2.0205141452,
				"z": -1.7735616981,
				"element": "H" 
			},
			{
				"x": 5.2816293417,
				"y": -0.3803505777,
				"z": 0.2191941504,
				"element": "H" 
			},
			{
				"x": 4.9092326325,
				"y": -1.6595202044,
				"z": 1.3794065802,
				"element": "H" 
			},
			{
				"x": 4.0725862676,
				"y": -0.106019262,
				"z": 1.4895301653,
				"element": "H" 
			}
		],
		 "valence_orbital": [ 
			{
				"type": "occ",
				"energy": -0.26126,
				"method": "rhf"
			},
			{
				"type": "occ",
				"energy": -0.24651,
				"method": "rhf"
			},
			{
				"type": "occ",
				"energy": -0.24149,
				"method": "rhf"
			},
			{
				"type": "occ",
				"energy": -0.23177,
				"method": "rhf"
			},
			{
				"type": "occ",
				"energy": -0.17825,
				"method": "rhf"
			},
			{
				"type": "unocc",
				"energy": -0.03481,
				"method": "rhf"
			},
			{
				"type": "unocc",
				"energy": -0.0256,
				"method": "rhf"
			},
			{
				"type": "unocc",
				"energy": 0.00123,
				"method": "rhf"
			},
			{
				"type": "unocc",
				"energy": 0.00785,
				"method": "rhf"
			},
			{
				"type": "unocc",
				"energy": 0.0274,
				"method": "rhf"
			}
		],
		"cosmo_sigma_profile": { 
			"-0.025": 0.0,
			"-0.024": 0.0,
			"-0.023": 0.0,
			"-0.022": 0.0,
			"-0.021": 0.0,
			"-0.02": 0.0,
			"-0.019": 0.0,
			"-0.018": 0.0,
			"-0.017": 0.0,
			"-0.016": 0.0,
			"-0.015": 0.0211720554076,
			"-0.014": 0.743804111549,
			"-0.013": 1.52543372483,
			"-0.012": 1.63280925953,
			"-0.011": 2.17500937686,
			"-0.01": 2.62217064579,
			"-0.009": 1.68719134378,
			"-0.008": 1.75791983623,
			"-0.007": 5.56403555692,
			"-0.006": 11.7243695416,
			"-0.005": 19.6925955148,
			"-0.004": 18.522715967,
			"-0.003": 28.4033940983,
			"-0.002": 45.0949022852,
			"-0.001": 45.0131381258,
			"0.0": 46.138690806,
			"0.001": 49.8622215045,
			"0.002": 45.7675310345,
			"0.003": 21.8613911348,
			"0.004": 14.3475556864,
			"0.005": 15.5880170175,
			"0.006": 11.9731302753,
			"0.007": 4.78515624112,
			"0.008": 2.98236884285,
			"0.009": 2.68291210843,
			"0.01": 2.24199365715,
			"0.011": 1.64264504824,
			"0.012": 1.64765889613,
			"0.013": 2.63601146348,
			"0.014": 2.74576906802,
			"0.015": 0.30739420086,
			"0.016": 0.0,
			"0.017": 0.0,
			"0.018": 0.0,
			"0.019": 0.0,
			"0.02": 0.0,
			"0.021": 0.0,
			"0.022": 0.0,
			"0.023": 0.0,
			"0.024": 0.0,
			"0.025": 0.0
		}
	}
}
