{
	 "smiles": "CC1=CC(C)=C(C(C)=C1)S(=O)(=O)N1C=NC(=N1)[N+]([O-])=O", 
	 "Tm": 406.15, 
	 "num_atms": 32, 
	 "gaussian": { 
		 "optdone": 1, 
		 "sigma_profile": "yes", 
		 "theory": "DFT", 
		 "functional": "B3LYP", 
		 "basiset": "6-31G**", 
		 "properties": { 
			 "R2extent": 6367.1612, 
			 "electric_dipole_moment_norm": 7.38774998562, 
			 "electric_quadrupole_moment_norm": 24.5063995695, 
			 "total_energy": -1344.28741391, 
			 "HOMO_LUMO_gap": 0.17715, 
			 "cosmo_polarized_energy": -16.68, 
			 "cosmo_cavitation_energy": 38.13, 
			 "cosmo_dispersion_energy": -26.91, 
			 "cosmo_repulsion_energy": 2.01, 
			 "cosmo_total_nonelectrostatic_energy": 13.24, 
			 "SMD_solvation_energy": 6.63 
		},
		"coords": [
			{
				"x": -0.4509724793,
				"y": 2.2539989047,
				"z": -4.2880739414,
				"element": "C" 
			},
			{
				"x": -0.6671571384,
				"y": 1.7729071281,
				"z": -2.8756010761,
				"element": "C" 
			},
			{
				"x": -1.7099227692,
				"y": 0.8986353282,
				"z": -2.56708058,
				"element": "C" 
			},
			{
				"x": -1.9683465704,
				"y": 0.4523556133,
				"z": -1.2670187854,
				"element": "C" 
			},
			{
				"x": -3.1103098121,
				"y": -0.5236695293,
				"z": -1.0855486622,
				"element": "C" 
			},
			{
				"x": -1.1176984606,
				"y": 0.9394172413,
				"z": -0.2396843548,
				"element": "C" 
			},
			{
				"x": -0.0219246574,
				"y": 1.8008033812,
				"z": -0.5108985662,
				"element": "C" 
			},
			{
				"x": 0.9722084173,
				"y": 2.3160331063,
				"z": 0.5083003785,
				"element": "C" 
			},
			{
				"x": 0.1652088177,
				"y": 2.196559819,
				"z": -1.8377797233,
				"element": "C" 
			},
			{
				"x": -1.4307805387,
				"y": 0.4497074966,
				"z": 1.4537700353,
				"element": "S" 
			},
			{
				"x": -0.8203930313,
				"y": 1.3565938427,
				"z": 2.4192085995,
				"element": "O" 
			},
			{
				"x": -2.7942595378,
				"y": -0.0189060079,
				"z": 1.6315442089,
				"element": "O" 
			},
			{
				"x": -0.3910143394,
				"y": -0.9998006577,
				"z": 1.6266562099,
				"element": "N" 
			},
			{
				"x": 0.5906925333,
				"y": -1.2372242019,
				"z": 2.5478709344,
				"element": "C" 
			},
			{
				"x": 1.0762095337,
				"y": -2.4502648457,
				"z": 2.3738916767,
				"element": "N" 
			},
			{
				"x": 0.3416283316,
				"y": -2.9013788393,
				"z": 1.3295263631,
				"element": "C" 
			},
			{
				"x": -0.5629162182,
				"y": -2.0765618429,
				"z": 0.8344969803,
				"element": "N" 
			},
			{
				"x": 0.5286801368,
				"y": -4.235791017,
				"z": 0.7569997914,
				"element": "N" 
			},
			{
				"x": -0.1825261531,
				"y": -4.5307204691,
				"z": -0.1981720677,
				"element": "O" 
			},
			{
				"x": 1.381001431,
				"y": -4.942144751,
				"z": 1.280805235,
				"element": "O" 
			},
			{
				"x": -0.78093992,
				"y": 1.5104232408,
				"z": -5.0187121553,
				"element": "H" 
			},
			{
				"x": -1.0221069556,
				"y": 3.1718789067,
				"z": -4.474442966,
				"element": "H" 
			},
			{
				"x": 0.6018951558,
				"y": 2.4806309746,
				"z": -4.4774469592,
				"element": "H" 
			},
			{
				"x": -2.3494043812,
				"y": 0.5357994532,
				"z": -3.3667784561,
				"element": "H" 
			},
			{
				"x": -3.4955205067,
				"y": -0.8091105299,
				"z": -2.0667714195,
				"element": "H" 
			},
			{
				"x": -2.7874924993,
				"y": -1.4287652828,
				"z": -0.5664525644,
				"element": "H" 
			},
			{
				"x": -3.9266894219,
				"y": -0.0906552371,
				"z": -0.5038494726,
				"element": "H" 
			},
			{
				"x": 1.7754960187,
				"y": 2.8450454857,
				"z": -0.0087925418,
				"element": "H" 
			},
			{
				"x": 1.4229680785,
				"y": 1.5101935887,
				"z": 1.0935464892,
				"element": "H" 
			},
			{
				"x": 0.5073773682,
				"y": 2.9986646293,
				"z": 1.2224889923,
				"element": "H" 
			},
			{
				"x": 0.9986048916,
				"y": 2.8561801314,
				"z": -2.0632065127,
				"element": "H" 
			},
			{
				"x": 0.8858046766,
				"y": -0.51063506,
				"z": 3.2899049099,
				"element": "H" 
			}
		],
		 "valence_orbital": [ 
			{
				"type": "occ",
				"energy": -0.31159,
				"method": "rhf"
			},
			{
				"type": "occ",
				"energy": -0.30936,
				"method": "rhf"
			},
			{
				"type": "occ",
				"energy": -0.2947,
				"method": "rhf"
			},
			{
				"type": "occ",
				"energy": -0.28028,
				"method": "rhf"
			},
			{
				"type": "occ",
				"energy": -0.27044,
				"method": "rhf"
			},
			{
				"type": "unocc",
				"energy": -0.09329,
				"method": "rhf"
			},
			{
				"type": "unocc",
				"energy": -0.06935,
				"method": "rhf"
			},
			{
				"type": "unocc",
				"energy": -0.03385,
				"method": "rhf"
			},
			{
				"type": "unocc",
				"energy": -0.02773,
				"method": "rhf"
			},
			{
				"type": "unocc",
				"energy": 0.00588,
				"method": "rhf"
			}
		],
		"cosmo_sigma_profile": { 
			"-0.025": 0.0,
			"-0.024": 0.0,
			"-0.023": 0.0,
			"-0.022": 0.0,
			"-0.021": 0.0,
			"-0.02": 0.0,
			"-0.019": 0.0,
			"-0.018": 0.0,
			"-0.017": 0.0,
			"-0.016": 0.0,
			"-0.015": 0.0,
			"-0.014": 0.0,
			"-0.013": 0.334160904948,
			"-0.012": 1.31894064286,
			"-0.011": 1.43170712127,
			"-0.01": 1.35032958521,
			"-0.009": 2.93176292687,
			"-0.008": 4.27143274787,
			"-0.007": 8.78894557318,
			"-0.006": 16.9449756113,
			"-0.005": 21.198431712,
			"-0.004": 22.3993983111,
			"-0.003": 22.4099151134,
			"-0.002": 26.2119264399,
			"-0.001": 31.4087875194,
			"0.0": 21.9315173941,
			"0.001": 15.3111464034,
			"0.002": 18.5557552568,
			"0.003": 13.6712988104,
			"0.004": 8.04573044526,
			"0.005": 9.04529844274,
			"0.006": 12.4470499192,
			"0.007": 14.9046146901,
			"0.008": 13.195497839,
			"0.009": 10.8172041725,
			"0.01": 1.70847760633,
			"0.011": 1.82267002341,
			"0.012": 1.25241277267,
			"0.013": 1.09836421769,
			"0.014": 0.192908108024,
			"0.015": 0.0,
			"0.016": 0.0,
			"0.017": 0.0,
			"0.018": 0.0,
			"0.019": 0.0,
			"0.02": 0.0,
			"0.021": 0.0,
			"0.022": 0.0,
			"0.023": 0.0,
			"0.024": 0.0,
			"0.025": 0.0
		}
	}
}
