{
	 "smiles": "CC1(C)C2=CC=CC=C2N(CC2=CC=CC=C2)C11OC2=C(C=C1)C=C(C=C2)[N+]([O-])=O", 
	 "Tm": 432.15, 
	 "num_atms": 52, 
	 "gaussian": { 
		 "optdone": 1, 
		 "sigma_profile": "yes", 
		 "theory": "DFT", 
		 "functional": "B3LYP", 
		 "basiset": "6-31G**", 
		 "properties": { 
			 "R2extent": 13897.318, 
			 "electric_dipole_moment_norm": 5.45036571984, 
			 "electric_quadrupole_moment_norm": 38.9422623508, 
			 "total_energy": -1300.99599454, 
			 "HOMO_LUMO_gap": 0.12763, 
			 "cosmo_polarized_energy": -14.54, 
			 "cosmo_cavitation_energy": 54.34, 
			 "cosmo_dispersion_energy": -35.75, 
			 "cosmo_repulsion_energy": 2.65, 
			 "cosmo_total_nonelectrostatic_energy": 21.24, 
			 "SMD_solvation_energy": 11.13 
		},
		"coords": [
			{
				"x": -0.4906810737,
				"y": 2.2977706498,
				"z": 2.0913612329,
				"element": "C" 
			},
			{
				"x": 0.6391182957,
				"y": 1.9827773063,
				"z": 1.0824400153,
				"element": "C" 
			},
			{
				"x": 1.9972342065,
				"y": 2.2859587262,
				"z": 1.7275584831,
				"element": "C" 
			},
			{
				"x": 0.3703948307,
				"y": 2.7368643044,
				"z": -0.2103384388,
				"element": "C" 
			},
			{
				"x": 0.5978182251,
				"y": 4.0616805554,
				"z": -0.5492327042,
				"element": "C" 
			},
			{
				"x": 0.2002465223,
				"y": 4.5221864176,
				"z": -1.8140535036,
				"element": "C" 
			},
			{
				"x": -0.4204580568,
				"y": 3.6522683593,
				"z": -2.710505247,
				"element": "C" 
			},
			{
				"x": -0.6566684173,
				"y": 2.3108510729,
				"z": -2.3791031183,
				"element": "C" 
			},
			{
				"x": -0.2517920732,
				"y": 1.8707281805,
				"z": -1.1207486093,
				"element": "C" 
			},
			{
				"x": -0.3780760598,
				"y": 0.5844711325,
				"z": -0.557790444,
				"element": "N" 
			},
			{
				"x": -0.6046369851,
				"y": -0.5811653185,
				"z": -1.4045696309,
				"element": "C" 
			},
			{
				"x": -2.0349462409,
				"y": -0.7235121491,
				"z": -1.9022335934,
				"element": "C" 
			},
			{
				"x": -2.2774599201,
				"y": -1.3229386656,
				"z": -3.1444349839,
				"element": "C" 
			},
			{
				"x": -3.5822272104,
				"y": -1.5231116496,
				"z": -3.59796744,
				"element": "C" 
			},
			{
				"x": -4.6644641396,
				"y": -1.1180473906,
				"z": -2.8150212059,
				"element": "C" 
			},
			{
				"x": -4.4314687551,
				"y": -0.5130938096,
				"z": -1.5782456192,
				"element": "C" 
			},
			{
				"x": -3.126210441,
				"y": -0.3190165993,
				"z": -1.1249294583,
				"element": "C" 
			},
			{
				"x": 0.5332032332,
				"y": 0.4860091276,
				"z": 0.5678371312,
				"element": "C" 
			},
			{
				"x": 1.86232483,
				"y": 0.1323878856,
				"z": 0.0168838261,
				"element": "O" 
			},
			{
				"x": 2.5974753009,
				"y": -0.9158907422,
				"z": 0.4355903947,
				"element": "C" 
			},
			{
				"x": 2.1457208175,
				"y": -1.796371589,
				"z": 1.4439542314,
				"element": "C" 
			},
			{
				"x": 0.8234479804,
				"y": -1.5536992225,
				"z": 1.9967438998,
				"element": "C" 
			},
			{
				"x": 0.0765650638,
				"y": -0.5182728664,
				"z": 1.5866855969,
				"element": "C" 
			},
			{
				"x": 2.963539521,
				"y": -2.8577496526,
				"z": 1.8326311982,
				"element": "C" 
			},
			{
				"x": 4.2033541072,
				"y": -3.0305622544,
				"z": 1.2220997507,
				"element": "C" 
			},
			{
				"x": 4.6511996878,
				"y": -2.1672766842,
				"z": 0.2172930171,
				"element": "C" 
			},
			{
				"x": 3.8435345828,
				"y": -1.1105414959,
				"z": -0.1784166172,
				"element": "C" 
			},
			{
				"x": 5.0533569461,
				"y": -4.1432468775,
				"z": 1.6395068297,
				"element": "N" 
			},
			{
				"x": 4.6309120335,
				"y": -4.8876405518,
				"z": 2.5272709877,
				"element": "O" 
			},
			{
				"x": 6.1441212355,
				"y": -4.274258548,
				"z": 1.080268348,
				"element": "O" 
			},
			{
				"x": -0.353103821,
				"y": 1.7523838092,
				"z": 3.0309555826,
				"element": "H" 
			},
			{
				"x": -1.4760194703,
				"y": 2.0543462745,
				"z": 1.683490364,
				"element": "H" 
			},
			{
				"x": -0.4809257713,
				"y": 3.3676516398,
				"z": 2.3180508735,
				"element": "H" 
			},
			{
				"x": 2.0096496393,
				"y": 3.3168592956,
				"z": 2.0953240834,
				"element": "H" 
			},
			{
				"x": 2.8172659329,
				"y": 2.1658794357,
				"z": 1.0185302844,
				"element": "H" 
			},
			{
				"x": 2.1772139435,
				"y": 1.6295581141,
				"z": 2.5860302873,
				"element": "H" 
			},
			{
				"x": 1.0837092971,
				"y": 4.737189891,
				"z": 0.1501254939,
				"element": "H" 
			},
			{
				"x": 0.3773884112,
				"y": 5.556068831,
				"z": -2.0939783823,
				"element": "H" 
			},
			{
				"x": -0.725593379,
				"y": 4.0147459126,
				"z": -3.6881128743,
				"element": "H" 
			},
			{
				"x": -1.1437774746,
				"y": 1.6440786213,
				"z": -3.0815745661,
				"element": "H" 
			},
			{
				"x": -0.3498427406,
				"y": -1.46325325,
				"z": -0.8060585703,
				"element": "H" 
			},
			{
				"x": 0.0829510778,
				"y": -0.5751500005,
				"z": -2.2631101983,
				"element": "H" 
			},
			{
				"x": -1.4379832528,
				"y": -1.6351006352,
				"z": -3.7618232826,
				"element": "H" 
			},
			{
				"x": -3.7519789277,
				"y": -1.9886685507,
				"z": -4.5647321502,
				"element": "H" 
			},
			{
				"x": -5.6807530298,
				"y": -1.2672792958,
				"z": -3.1680409044,
				"element": "H" 
			},
			{
				"x": -5.2681227732,
				"y": -0.1891251876,
				"z": -0.9654222295,
				"element": "H" 
			},
			{
				"x": -2.9444497268,
				"y": 0.1610914265,
				"z": -0.1684251253,
				"element": "H" 
			},
			{
				"x": 0.4419052025,
				"y": -2.2465400412,
				"z": 2.742118314,
				"element": "H" 
			},
			{
				"x": -0.9203423449,
				"y": -0.3621770557,
				"z": 1.9817483755,
				"element": "H" 
			},
			{
				"x": 2.6478021498,
				"y": -3.5532096766,
				"z": 2.6014473833,
				"element": "H" 
			},
			{
				"x": 5.6211753606,
				"y": -2.3376346743,
				"z": -0.2325915198,
				"element": "H" 
			},
			{
				"x": 4.1576536501,
				"y": -0.420372535,
				"z": -0.9535855677,
				"element": "H" 
			}
		],
		 "valence_orbital": [ 
			{
				"type": "occ",
				"energy": -0.25469,
				"method": "rhf"
			},
			{
				"type": "occ",
				"energy": -0.24979,
				"method": "rhf"
			},
			{
				"type": "occ",
				"energy": -0.24539,
				"method": "rhf"
			},
			{
				"type": "occ",
				"energy": -0.23221,
				"method": "rhf"
			},
			{
				"type": "occ",
				"energy": -0.20673,
				"method": "rhf"
			},
			{
				"type": "unocc",
				"energy": -0.0791,
				"method": "rhf"
			},
			{
				"type": "unocc",
				"energy": -0.05481,
				"method": "rhf"
			},
			{
				"type": "unocc",
				"energy": -0.00958,
				"method": "rhf"
			},
			{
				"type": "unocc",
				"energy": -0.00758,
				"method": "rhf"
			},
			{
				"type": "unocc",
				"energy": -0.00094,
				"method": "rhf"
			}
		],
		"cosmo_sigma_profile": { 
			"-0.025": 0.0,
			"-0.024": 0.0,
			"-0.023": 0.0,
			"-0.022": 0.0,
			"-0.021": 0.0,
			"-0.02": 0.0,
			"-0.019": 0.0,
			"-0.018": 0.0,
			"-0.017": 0.0,
			"-0.016": 0.0,
			"-0.015": 0.0,
			"-0.014": 0.0,
			"-0.013": 0.0,
			"-0.012": 0.0,
			"-0.011": 0.0,
			"-0.01": 0.0,
			"-0.009": 0.163347327037,
			"-0.008": 2.99811559444,
			"-0.007": 7.71354394188,
			"-0.006": 12.0219296584,
			"-0.005": 28.5477221047,
			"-0.004": 36.5749409102,
			"-0.003": 46.7459430411,
			"-0.002": 40.0534836902,
			"-0.001": 39.9220239104,
			"0.0": 43.2598688473,
			"0.001": 40.5630217715,
			"0.002": 24.8375672368,
			"0.003": 19.6596520297,
			"0.004": 17.6908571067,
			"0.005": 19.6239526497,
			"0.006": 20.1041435388,
			"0.007": 10.4431959475,
			"0.008": 10.8250747756,
			"0.009": 5.248609756,
			"0.01": 4.16725028274,
			"0.011": 1.30528812336,
			"0.012": 0.0,
			"0.013": 0.0,
			"0.014": 0.0,
			"0.015": 0.0,
			"0.016": 0.0,
			"0.017": 0.0,
			"0.018": 0.0,
			"0.019": 0.0,
			"0.02": 0.0,
			"0.021": 0.0,
			"0.022": 0.0,
			"0.023": 0.0,
			"0.024": 0.0,
			"0.025": 0.0
		}
	}
}
