{
	 "smiles": "BrC1=CC=C(NC(=S)C(=O)C2=CC=CC=C2)C=C1", 
	 "Tm": 391.15, 
	 "num_atms": 28, 
	 "gaussian": { 
		 "optdone": 1, 
		 "sigma_profile": "yes", 
		 "theory": "DFT", 
		 "functional": "B3LYP", 
		 "basiset": "6-31G**", 
		 "properties": { 
			 "R2extent": 11433.2254, 
			 "electric_dipole_moment_norm": 2.52371226767, 
			 "electric_quadrupole_moment_norm": 9.20379715009, 
			 "total_energy": -3639.08417902, 
			 "HOMO_LUMO_gap": 0.1183, 
			 "cosmo_polarized_energy": -10.81, 
			 "cosmo_cavitation_energy": 36.93, 
			 "cosmo_dispersion_energy": -27.69, 
			 "cosmo_repulsion_energy": 2.08, 
			 "cosmo_total_nonelectrostatic_energy": 11.32, 
			 "SMD_solvation_energy": 4.64 
		},
		"coords": [
			{
				"x": 3.4829896462,
				"y": -2.3683964163,
				"z": 4.6724817151,
				"element": "Br" 
			},
			{
				"x": 2.4175768996,
				"y": -1.5035225274,
				"z": 3.3463047978,
				"element": "C" 
			},
			{
				"x": 1.1588259318,
				"y": -2.0086168131,
				"z": 3.0313743769,
				"element": "C" 
			},
			{
				"x": 0.3717727763,
				"y": -1.3826953429,
				"z": 2.0652101067,
				"element": "C" 
			},
			{
				"x": 0.8540132696,
				"y": -0.2402804756,
				"z": 1.4072393637,
				"element": "C" 
			},
			{
				"x": 0.1587630528,
				"y": 0.4652368264,
				"z": 0.4119171016,
				"element": "N" 
			},
			{
				"x": -1.0626773251,
				"y": 0.3424346002,
				"z": -0.1477315983,
				"element": "C" 
			},
			{
				"x": -2.271682391,
				"y": -0.738617095,
				"z": 0.2239179651,
				"element": "S" 
			},
			{
				"x": -1.240812437,
				"y": 1.488085429,
				"z": -1.1723148846,
				"element": "C" 
			},
			{
				"x": -0.470158908,
				"y": 2.4408322046,
				"z": -1.0796323933,
				"element": "O" 
			},
			{
				"x": -2.2969867937,
				"y": 1.4749875962,
				"z": -2.2164876105,
				"element": "C" 
			},
			{
				"x": -2.7714327901,
				"y": 0.3057332334,
				"z": -2.8346290951,
				"element": "C" 
			},
			{
				"x": -3.6965135021,
				"y": 0.3932659884,
				"z": -3.8734722847,
				"element": "C" 
			},
			{
				"x": -4.1691658892,
				"y": 1.6380135876,
				"z": -4.293440674,
				"element": "C" 
			},
			{
				"x": -3.6970191558,
				"y": 2.8062288378,
				"z": -3.6878249403,
				"element": "C" 
			},
			{
				"x": -2.7551478327,
				"y": 2.7260767138,
				"z": -2.6678811623,
				"element": "C" 
			},
			{
				"x": 2.1295092178,
				"y": 0.2557341646,
				"z": 1.7369029734,
				"element": "C" 
			},
			{
				"x": 2.9099778071,
				"y": -0.3679059375,
				"z": 2.7012399798,
				"element": "C" 
			},
			{
				"x": 0.7846222247,
				"y": -2.8903728318,
				"z": 3.5388491689,
				"element": "H" 
			},
			{
				"x": -0.6082001867,
				"y": -1.769388494,
				"z": 1.8249059971,
				"element": "H" 
			},
			{
				"x": 0.626133126,
				"y": 1.3071844585,
				"z": 0.0701077079,
				"element": "H" 
			},
			{
				"x": -2.4098496346,
				"y": -0.6623304223,
				"z": -2.5141339162,
				"element": "H" 
			},
			{
				"x": -4.0508441324,
				"y": -0.514000224,
				"z": -4.3531958525,
				"element": "H" 
			},
			{
				"x": -4.8999517052,
				"y": 1.6988920872,
				"z": -5.094892892,
				"element": "H" 
			},
			{
				"x": -4.0585714295,
				"y": 3.7760523819,
				"z": -4.0160953462,
				"element": "H" 
			},
			{
				"x": -2.3632875746,
				"y": 3.623480408,
				"z": -2.2014244735,
				"element": "H" 
			},
			{
				"x": 2.5119942867,
				"y": 1.1384552391,
				"z": 1.2306098216,
				"element": "H" 
			},
			{
				"x": 3.8901234491,
				"y": 0.0223328234,
				"z": 2.9492960478,
				"element": "H" 
			}
		],
		 "valence_orbital": [ 
			{
				"type": "occ",
				"energy": -0.27245,
				"method": "rhf"
			},
			{
				"type": "occ",
				"energy": -0.26856,
				"method": "rhf"
			},
			{
				"type": "occ",
				"energy": -0.26329,
				"method": "rhf"
			},
			{
				"type": "occ",
				"energy": -0.22657,
				"method": "rhf"
			},
			{
				"type": "occ",
				"energy": -0.2195,
				"method": "rhf"
			},
			{
				"type": "unocc",
				"energy": -0.1012,
				"method": "rhf"
			},
			{
				"type": "unocc",
				"energy": -0.04303,
				"method": "rhf"
			},
			{
				"type": "unocc",
				"energy": -0.02347,
				"method": "rhf"
			},
			{
				"type": "unocc",
				"energy": -0.01236,
				"method": "rhf"
			},
			{
				"type": "unocc",
				"energy": -0.00015,
				"method": "rhf"
			}
		],
		"cosmo_sigma_profile": { 
			"-0.025": 0.0,
			"-0.024": 0.0,
			"-0.023": 0.0,
			"-0.022": 0.0,
			"-0.021": 0.0,
			"-0.02": 0.0,
			"-0.019": 0.0,
			"-0.018": 0.0,
			"-0.017": 0.0,
			"-0.016": 0.0,
			"-0.015": 0.0,
			"-0.014": 0.482978771472,
			"-0.013": 1.21769101064,
			"-0.012": 0.921276876237,
			"-0.011": 0.864261329816,
			"-0.01": 1.28961100436,
			"-0.009": 1.15707704135,
			"-0.008": 3.91309613528,
			"-0.007": 9.25773043155,
			"-0.006": 15.9549934842,
			"-0.005": 19.5527220329,
			"-0.004": 19.3769642811,
			"-0.003": 17.3232731647,
			"-0.002": 17.1561401925,
			"-0.001": 19.5678751103,
			"0.0": 20.7764394985,
			"0.001": 25.3490477367,
			"0.002": 35.5593227985,
			"0.003": 31.1915807786,
			"0.004": 26.9286236999,
			"0.005": 12.5332695734,
			"0.006": 8.47733690079,
			"0.007": 4.92573609373,
			"0.008": 3.32505935228,
			"0.009": 3.95000169388,
			"0.01": 2.40247818516,
			"0.011": 0.436959768252,
			"0.012": 0.0,
			"0.013": 0.0,
			"0.014": 0.0,
			"0.015": 0.0,
			"0.016": 0.0,
			"0.017": 0.0,
			"0.018": 0.0,
			"0.019": 0.0,
			"0.02": 0.0,
			"0.021": 0.0,
			"0.022": 0.0,
			"0.023": 0.0,
			"0.024": 0.0,
			"0.025": 0.0
		}
	}
}
