{
	 "smiles": "C[C@]12CCC3C(CCC4=C[C@@H](O)CC[C@]34C)C1CC[C@@]2(O)C#C", 
	 "Tm": 477.15, 
	 "num_atms": 53, 
	 "gaussian": { 
		 "optdone": 1, 
		 "sigma_profile": "yes", 
		 "theory": "DFT", 
		 "functional": "B3LYP", 
		 "basiset": "6-31G**", 
		 "properties": { 
			 "R2extent": 8201.4377, 
			 "electric_dipole_moment_norm": 2.34881398795, 
			 "electric_quadrupole_moment_norm": 8.31305617027, 
			 "total_energy": -968.668321334, 
			 "HOMO_LUMO_gap": 0.25169, 
			 "cosmo_polarized_energy": -13.33, 
			 "cosmo_cavitation_energy": 46.15, 
			 "cosmo_dispersion_energy": -31.81, 
			 "cosmo_repulsion_energy": 2.34, 
			 "cosmo_total_nonelectrostatic_energy": 16.68, 
			 "SMD_solvation_energy": 7.86 
		},
		"coords": [
			{
				"x": 0.174894377,
				"y": -2.9050905827,
				"z": 0.8535834979,
				"element": "C" 
			},
			{
				"x": -0.5359535551,
				"y": -1.6841627195,
				"z": 1.4603080633,
				"element": "C" 
			},
			{
				"x": -1.7528180368,
				"y": -1.2418473174,
				"z": 0.579167235,
				"element": "C" 
			},
			{
				"x": -1.5061071983,
				"y": 0.0102906269,
				"z": -0.299568632,
				"element": "C" 
			},
			{
				"x": -0.0536625664,
				"y": 0.0342811151,
				"z": -0.8028719664,
				"element": "C" 
			},
			{
				"x": 0.9051134878,
				"y": 0.2489280953,
				"z": 0.4142724885,
				"element": "C" 
			},
			{
				"x": 1.2196836782,
				"y": 1.7345103192,
				"z": 0.6951219424,
				"element": "C" 
			},
			{
				"x": 1.6602019358,
				"y": 2.5081119,
				"z": -0.5576545423,
				"element": "C" 
			},
			{
				"x": 0.5907700302,
				"y": 2.3805591277,
				"z": -1.6137076804,
				"element": "C" 
			},
			{
				"x": -0.0547590069,
				"y": 3.4557164015,
				"z": -2.0869042282,
				"element": "C" 
			},
			{
				"x": -1.2052565172,
				"y": 3.3971031264,
				"z": -3.0547486739,
				"element": "C" 
			},
			{
				"x": -0.6935431757,
				"y": 3.7013216685,
				"z": -4.3638243489,
				"element": "O" 
			},
			{
				"x": -1.8734755401,
				"y": 2.0187151716,
				"z": -3.0075393456,
				"element": "C" 
			},
			{
				"x": -0.8174711658,
				"y": 0.9178957053,
				"z": -3.1371126516,
				"element": "C" 
			},
			{
				"x": 0.2868584998,
				"y": 0.9488945601,
				"z": -2.0442562988,
				"element": "C" 
			},
			{
				"x": 1.5627985222,
				"y": 0.355951115,
				"z": -2.7103691481,
				"element": "C" 
			},
			{
				"x": 0.4055299707,
				"y": -0.4726640542,
				"z": 1.7119539796,
				"element": "C" 
			},
			{
				"x": -0.3691423855,
				"y": 0.3825605555,
				"z": 2.7598407022,
				"element": "C" 
			},
			{
				"x": -1.2878372873,
				"y": -0.5986469537,
				"z": 3.5321143922,
				"element": "C" 
			},
			{
				"x": -1.0112015924,
				"y": -1.9987501208,
				"z": 2.9210596919,
				"element": "C" 
			},
			{
				"x": 0.1110029282,
				"y": -2.6004930607,
				"z": 3.5908897724,
				"element": "O" 
			},
			{
				"x": -2.1663011599,
				"y": -2.9054159881,
				"z": 3.0020599667,
				"element": "C" 
			},
			{
				"x": -3.104686965,
				"y": -3.6595101664,
				"z": 3.1119286659,
				"element": "C" 
			},
			{
				"x": 0.5234332567,
				"y": -2.7037461912,
				"z": -0.1627109054,
				"element": "H" 
			},
			{
				"x": -0.5127223623,
				"y": -3.756728348,
				"z": 0.8036349001,
				"element": "H" 
			},
			{
				"x": 1.031792125,
				"y": -3.2011313112,
				"z": 1.461335151,
				"element": "H" 
			},
			{
				"x": -2.6383764654,
				"y": -1.0710115979,
				"z": 1.1993904675,
				"element": "H" 
			},
			{
				"x": -2.0175329421,
				"y": -2.0805244824,
				"z": -0.0745443768,
				"element": "H" 
			},
			{
				"x": -2.2142734701,
				"y": -0.0240360339,
				"z": -1.1313225215,
				"element": "H" 
			},
			{
				"x": -1.7342490247,
				"y": 0.9287298502,
				"z": 0.2545914372,
				"element": "H" 
			},
			{
				"x": 0.1318072264,
				"y": -0.9807592877,
				"z": -1.1774269477,
				"element": "H" 
			},
			{
				"x": 1.8598227162,
				"y": -0.223177755,
				"z": 0.1494880182,
				"element": "H" 
			},
			{
				"x": 1.9918380913,
				"y": 1.7975145745,
				"z": 1.472591767,
				"element": "H" 
			},
			{
				"x": 0.3346444604,
				"y": 2.2401381971,
				"z": 1.0952449735,
				"element": "H" 
			},
			{
				"x": 1.8262638953,
				"y": 3.5621903376,
				"z": -0.3100428663,
				"element": "H" 
			},
			{
				"x": 2.6180779731,
				"y": 2.1133070821,
				"z": -0.9207981293,
				"element": "H" 
			},
			{
				"x": 0.2599696469,
				"y": 4.4474343833,
				"z": -1.7657290344,
				"element": "H" 
			},
			{
				"x": -1.9421284289,
				"y": 4.1657714058,
				"z": -2.7683042691,
				"element": "H" 
			},
			{
				"x": -1.4538003836,
				"y": 3.7882303432,
				"z": -4.955227152,
				"element": "H" 
			},
			{
				"x": -2.607099659,
				"y": 1.9346565426,
				"z": -3.821005383,
				"element": "H" 
			},
			{
				"x": -2.4327569211,
				"y": 1.9359446516,
				"z": -2.069411446,
				"element": "H" 
			},
			{
				"x": -1.2804254884,
				"y": -0.0759339647,
				"z": -3.1660650173,
				"element": "H" 
			},
			{
				"x": -0.3334923627,
				"y": 1.0618159647,
				"z": -4.1094800033,
				"element": "H" 
			},
			{
				"x": 1.9309503108,
				"y": 1.0239897278,
				"z": -3.4952688679,
				"element": "H" 
			},
			{
				"x": 2.3770327086,
				"y": 0.1864234031,
				"z": -2.0016822813,
				"element": "H" 
			},
			{
				"x": 1.3227479459,
				"y": -0.6087234677,
				"z": -3.1717823568,
				"element": "H" 
			},
			{
				"x": 1.2902132897,
				"y": -0.860375351,
				"z": 2.2272307347,
				"element": "H" 
			},
			{
				"x": -0.9831372833,
				"y": 1.1493803363,
				"z": 2.2826114464,
				"element": "H" 
			},
			{
				"x": 0.3195436226,
				"y": 0.9084819934,
				"z": 3.4267379173,
				"element": "H" 
			},
			{
				"x": -2.3416494045,
				"y": -0.3290925179,
				"z": 3.4202391144,
				"element": "H" 
			},
			{
				"x": -1.0796515431,
				"y": -0.6278261633,
				"z": 4.6060943317,
				"element": "H" 
			},
			{
				"x": -0.1916707479,
				"y": -2.8713700185,
				"z": 4.4676332139,
				"element": "H" 
			},
			{
				"x": -3.9306080591,
				"y": -4.3270308274,
				"z": 3.1988352034,
				"element": "H" 
			}
		],
		 "valence_orbital": [ 
			{
				"type": "occ",
				"energy": -0.27119,
				"method": "rhf"
			},
			{
				"type": "occ",
				"energy": -0.26453,
				"method": "rhf"
			},
			{
				"type": "occ",
				"energy": -0.25592,
				"method": "rhf"
			},
			{
				"type": "occ",
				"energy": -0.25586,
				"method": "rhf"
			},
			{
				"type": "occ",
				"energy": -0.23118,
				"method": "rhf"
			},
			{
				"type": "unocc",
				"energy": 0.02051,
				"method": "rhf"
			},
			{
				"type": "unocc",
				"energy": 0.03789,
				"method": "rhf"
			},
			{
				"type": "unocc",
				"energy": 0.05063,
				"method": "rhf"
			},
			{
				"type": "unocc",
				"energy": 0.07259,
				"method": "rhf"
			},
			{
				"type": "unocc",
				"energy": 0.07732,
				"method": "rhf"
			}
		],
		"cosmo_sigma_profile": { 
			"-0.025": 0.0,
			"-0.024": 0.0,
			"-0.023": 0.0,
			"-0.022": 0.0,
			"-0.021": 0.0,
			"-0.02": 0.0,
			"-0.019": 0.0,
			"-0.018": 0.0,
			"-0.017": 0.0,
			"-0.016": 0.231907381023,
			"-0.015": 0.977475970348,
			"-0.014": 1.75299303858,
			"-0.013": 1.76547109587,
			"-0.012": 2.23254433778,
			"-0.011": 2.84506714524,
			"-0.01": 2.60779308597,
			"-0.009": 2.67909088496,
			"-0.008": 2.51581226722,
			"-0.007": 3.78935652636,
			"-0.006": 3.21572111367,
			"-0.005": 4.18966019116,
			"-0.004": 8.59621266831,
			"-0.003": 27.9924936811,
			"-0.002": 50.6604245731,
			"-0.001": 59.7433506494,
			"0.0": 49.5511326167,
			"0.001": 41.3969535141,
			"0.002": 18.7753499107,
			"0.003": 12.4299052252,
			"0.004": 9.50452982738,
			"0.005": 10.1163787021,
			"0.006": 11.075997815,
			"0.007": 6.42239351032,
			"0.008": 3.46201176492,
			"0.009": 2.72570500679,
			"0.01": 3.59265998653,
			"0.011": 3.29768955672,
			"0.012": 2.54386189321,
			"0.013": 1.23385582951,
			"0.014": 1.43259276013,
			"0.015": 2.04982061962,
			"0.016": 0.213779637037,
			"0.017": 0.0,
			"0.018": 0.0,
			"0.019": 0.0,
			"0.02": 0.0,
			"0.021": 0.0,
			"0.022": 0.0,
			"0.023": 0.0,
			"0.024": 0.0,
			"0.025": 0.0
		}
	}
}
