{
	 "smiles": "COC1=CC(=CC=C1O)C(O)=O", 
	 "Tm": 486.15, 
	 "num_atms": 20, 
	 "gaussian": { 
		 "optdone": 1, 
		 "sigma_profile": "yes", 
		 "theory": "DFT", 
		 "functional": "B3LYP", 
		 "basiset": "6-31G**", 
		 "properties": { 
			 "R2extent": 2756.8508, 
			 "electric_dipole_moment_norm": 3.80579598376, 
			 "electric_quadrupole_moment_norm": 14.6407784824, 
			 "total_energy": -610.563763653, 
			 "HOMO_LUMO_gap": 0.18701, 
			 "cosmo_polarized_energy": -16.14, 
			 "cosmo_cavitation_energy": 24.49, 
			 "cosmo_dispersion_energy": -18.3, 
			 "cosmo_repulsion_energy": 1.46, 
			 "cosmo_total_nonelectrostatic_energy": 7.65, 
			 "SMD_solvation_energy": 6.52 
		},
		"coords": [
			{
				"x": 3.1006992178,
				"y": -0.0399302482,
				"z": 0.6422667029,
				"element": "C" 
			},
			{
				"x": 2.884079598,
				"y": -0.2080926781,
				"z": -0.7545243463,
				"element": "O" 
			},
			{
				"x": 1.6018890877,
				"y": -0.0995197276,
				"z": -1.2255914466,
				"element": "C" 
			},
			{
				"x": 0.4675813706,
				"y": 0.1412445404,
				"z": -0.4685066403,
				"element": "C" 
			},
			{
				"x": -0.7921122681,
				"y": 0.2154389096,
				"z": -1.0924704416,
				"element": "C" 
			},
			{
				"x": -0.8823873276,
				"y": 0.0729922658,
				"z": -2.4814779501,
				"element": "C" 
			},
			{
				"x": 0.26027899,
				"y": -0.1630594495,
				"z": -3.2474395941,
				"element": "C" 
			},
			{
				"x": 1.5028773132,
				"y": -0.2575073159,
				"z": -2.6282680451,
				"element": "C" 
			},
			{
				"x": 2.6161174293,
				"y": -0.4912858085,
				"z": -3.3632646745,
				"element": "O" 
			},
			{
				"x": -1.9655731387,
				"y": 0.4820131573,
				"z": -0.2078981007,
				"element": "C" 
			},
			{
				"x": -3.1990566258,
				"y": 0.2283990897,
				"z": -0.7254604689,
				"element": "O" 
			},
			{
				"x": -1.866315177,
				"y": 0.9001809665,
				"z": 0.9240629619,
				"element": "O" 
			},
			{
				"x": 4.173730539,
				"y": -0.155829064,
				"z": 0.7984850451,
				"element": "H" 
			},
			{
				"x": 2.5624045443,
				"y": -0.8001876189,
				"z": 1.2204316721,
				"element": "H" 
			},
			{
				"x": 2.7871545209,
				"y": 0.9567299995,
				"z": 0.9741383173,
				"element": "H" 
			},
			{
				"x": 0.5098203016,
				"y": 0.2795116243,
				"z": 0.604755406,
				"element": "H" 
			},
			{
				"x": -1.8328289112,
				"y": 0.1856443424,
				"z": -2.9967062635,
				"element": "H" 
			},
			{
				"x": 0.2077317369,
				"y": -0.2662231517,
				"z": -4.325803577,
				"element": "H" 
			},
			{
				"x": 3.366980835,
				"y": -0.5090561818,
				"z": -2.7485695284,
				"element": "H" 
			},
			{
				"x": -3.115772036,
				"y": -0.2538636514,
				"z": -1.5593590282,
				"element": "H" 
			}
		],
		 "valence_orbital": [ 
			{
				"type": "occ",
				"energy": -0.33801,
				"method": "rhf"
			},
			{
				"type": "occ",
				"energy": -0.30827,
				"method": "rhf"
			},
			{
				"type": "occ",
				"energy": -0.26882,
				"method": "rhf"
			},
			{
				"type": "occ",
				"energy": -0.25486,
				"method": "rhf"
			},
			{
				"type": "occ",
				"energy": -0.22648,
				"method": "rhf"
			},
			{
				"type": "unocc",
				"energy": -0.03947,
				"method": "rhf"
			},
			{
				"type": "unocc",
				"energy": -0.01023,
				"method": "rhf"
			},
			{
				"type": "unocc",
				"energy": 0.05587,
				"method": "rhf"
			},
			{
				"type": "unocc",
				"energy": 0.06583,
				"method": "rhf"
			},
			{
				"type": "unocc",
				"energy": 0.07451,
				"method": "rhf"
			}
		],
		"cosmo_sigma_profile": { 
			"-0.025": 0.0,
			"-0.024": 0.0,
			"-0.023": 0.0,
			"-0.022": 0.0,
			"-0.021": 0.0,
			"-0.02": 0.0,
			"-0.019": 0.152818058298,
			"-0.018": 0.625443111133,
			"-0.017": 1.2002023471,
			"-0.016": 0.799128680901,
			"-0.015": 1.17282052179,
			"-0.014": 1.14378542424,
			"-0.013": 0.983443186454,
			"-0.012": 2.09313578406,
			"-0.011": 2.37451938931,
			"-0.01": 1.47044399696,
			"-0.009": 2.21288038949,
			"-0.008": 2.01210371392,
			"-0.007": 4.95798240911,
			"-0.006": 14.0609512723,
			"-0.005": 14.4084974293,
			"-0.004": 14.0601160502,
			"-0.003": 11.0621560192,
			"-0.002": 8.73089211926,
			"-0.001": 8.66889550892,
			"0.0": 11.8054552285,
			"0.001": 12.4426265717,
			"0.002": 14.1929962508,
			"0.003": 14.5880394845,
			"0.004": 9.15495859261,
			"0.005": 4.19874112192,
			"0.006": 3.76246913984,
			"0.007": 3.98467615371,
			"0.008": 3.49277409804,
			"0.009": 4.22314955033,
			"0.01": 6.74369616778,
			"0.011": 5.91516908058,
			"0.012": 5.35252498563,
			"0.013": 2.79307243194,
			"0.014": 0.442765158301,
			"0.015": 0.0,
			"0.016": 0.0,
			"0.017": 0.0,
			"0.018": 0.0,
			"0.019": 0.0,
			"0.02": 0.0,
			"0.021": 0.0,
			"0.022": 0.0,
			"0.023": 0.0,
			"0.024": 0.0,
			"0.025": 0.0
		}
	}
}
