{
	 "smiles": "CCOC1=CC=C(C=C1)S(=O)(=O)NN", 
	 "Tm": 388.15, 
	 "num_atms": 26, 
	 "gaussian": { 
		 "optdone": 1, 
		 "sigma_profile": "yes", 
		 "theory": "DFT", 
		 "functional": "B3LYP", 
		 "basiset": "6-31G**", 
		 "properties": { 
			 "R2extent": 4625.8918, 
			 "electric_dipole_moment_norm": 5.36688888929, 
			 "electric_quadrupole_moment_norm": 11.2112530566, 
			 "total_energy": -1045.3354775, 
			 "HOMO_LUMO_gap": 0.20972, 
			 "cosmo_polarized_energy": -17.73, 
			 "cosmo_cavitation_energy": 31.24, 
			 "cosmo_dispersion_energy": -23.1, 
			 "cosmo_repulsion_energy": 1.79, 
			 "cosmo_total_nonelectrostatic_energy": 9.93, 
			 "SMD_solvation_energy": 5.58 
		},
		"coords": [
			{
				"x": 1.0016884687,
				"y": -0.4672647893,
				"z": -3.9784650787,
				"element": "C" 
			},
			{
				"x": 1.9331283328,
				"y": -1.1377727224,
				"z": -2.9753006854,
				"element": "C" 
			},
			{
				"x": 1.2268226462,
				"y": -1.6784210026,
				"z": -1.8498168443,
				"element": "O" 
			},
			{
				"x": 0.8603300745,
				"y": -0.8771688887,
				"z": -0.8190519095,
				"element": "C" 
			},
			{
				"x": 0.1636343539,
				"y": -1.5246431308,
				"z": 0.2198751848,
				"element": "C" 
			},
			{
				"x": -0.2478488544,
				"y": -0.8160904639,
				"z": 1.3359817071,
				"element": "C" 
			},
			{
				"x": 0.0288258678,
				"y": 0.5560572406,
				"z": 1.4201671627,
				"element": "C" 
			},
			{
				"x": 0.7196446635,
				"y": 1.208032152,
				"z": 0.4001728227,
				"element": "C" 
			},
			{
				"x": 1.136651643,
				"y": 0.4956190046,
				"z": -0.7239600222,
				"element": "C" 
			},
			{
				"x": -0.4884957479,
				"y": 1.4736142992,
				"z": 2.8512627418,
				"element": "S" 
			},
			{
				"x": -0.2823142112,
				"y": 0.6916836221,
				"z": 4.0752399611,
				"element": "O" 
			},
			{
				"x": 0.0562074139,
				"y": 2.8398839357,
				"z": 2.7587798244,
				"element": "O" 
			},
			{
				"x": -2.2088972085,
				"y": 1.4812751506,
				"z": 2.6214372713,
				"element": "N" 
			},
			{
				"x": -2.922477961,
				"y": 2.0825936799,
				"z": 3.6930735603,
				"element": "N" 
			},
			{
				"x": 0.4983227912,
				"y": 0.4030584869,
				"z": -3.5488423399,
				"element": "H" 
			},
			{
				"x": 0.2368443285,
				"y": -1.1725962277,
				"z": -4.3150717883,
				"element": "H" 
			},
			{
				"x": 1.5724377793,
				"y": -0.1348412184,
				"z": -4.8517730862,
				"element": "H" 
			},
			{
				"x": 2.419122706,
				"y": -2.0060310434,
				"z": -3.4277773614,
				"element": "H" 
			},
			{
				"x": 2.7240562289,
				"y": -0.4590401205,
				"z": -2.6342302085,
				"element": "H" 
			},
			{
				"x": -0.0308338003,
				"y": -2.5873731972,
				"z": 0.1240627137,
				"element": "H" 
			},
			{
				"x": -0.7736850354,
				"y": -1.3143031421,
				"z": 2.1430143687,
				"element": "H" 
			},
			{
				"x": 0.9342936927,
				"y": 2.2670979599,
				"z": 0.4935499597,
				"element": "H" 
			},
			{
				"x": 1.6712163449,
				"y": 1.0162651556,
				"z": -1.5085952443,
				"element": "H" 
			},
			{
				"x": -2.4176390901,
				"y": 1.9870291195,
				"z": 1.7609158749,
				"element": "H" 
			},
			{
				"x": -2.8960397939,
				"y": 1.4247669128,
				"z": 4.4673758394,
				"element": "H" 
			},
			{
				"x": -2.4699956332,
				"y": 2.9474692275,
				"z": 3.998375576,
				"element": "H" 
			}
		],
		 "valence_orbital": [ 
			{
				"type": "occ",
				"energy": -0.30581,
				"method": "rhf"
			},
			{
				"type": "occ",
				"energy": -0.28185,
				"method": "rhf"
			},
			{
				"type": "occ",
				"energy": -0.27343,
				"method": "rhf"
			},
			{
				"type": "occ",
				"energy": -0.25392,
				"method": "rhf"
			},
			{
				"type": "occ",
				"energy": -0.24195,
				"method": "rhf"
			},
			{
				"type": "unocc",
				"energy": -0.03223,
				"method": "rhf"
			},
			{
				"type": "unocc",
				"energy": -0.02303,
				"method": "rhf"
			},
			{
				"type": "unocc",
				"energy": 0.0562,
				"method": "rhf"
			},
			{
				"type": "unocc",
				"energy": 0.07105,
				"method": "rhf"
			},
			{
				"type": "unocc",
				"energy": 0.08443,
				"method": "rhf"
			}
		],
		"cosmo_sigma_profile": { 
			"-0.025": 0.0,
			"-0.024": 0.0,
			"-0.023": 0.0,
			"-0.022": 0.0,
			"-0.021": 0.0,
			"-0.02": 0.0,
			"-0.019": 0.0,
			"-0.018": 0.0,
			"-0.017": 0.0,
			"-0.016": 0.0,
			"-0.015": 0.477339079866,
			"-0.014": 1.44467412335,
			"-0.013": 0.825818232277,
			"-0.012": 2.05600897608,
			"-0.011": 3.32533220961,
			"-0.01": 4.01678724102,
			"-0.009": 3.49218565766,
			"-0.008": 5.40205450411,
			"-0.007": 9.36019109296,
			"-0.006": 12.5194592234,
			"-0.005": 14.0100246229,
			"-0.004": 18.8628388139,
			"-0.003": 17.2537676927,
			"-0.002": 15.2008593554,
			"-0.001": 16.6732748396,
			"0.0": 16.5665242304,
			"0.001": 14.2600375043,
			"0.002": 19.1734001407,
			"0.003": 13.3065416546,
			"0.004": 6.25784913425,
			"0.005": 5.27377998551,
			"0.006": 4.47100884535,
			"0.007": 4.61273616175,
			"0.008": 6.14078555852,
			"0.009": 6.09451297687,
			"0.01": 7.8762126051,
			"0.011": 10.4085219007,
			"0.012": 5.44370692679,
			"0.013": 0.859446421611,
			"0.014": 0.741792738774,
			"0.015": 0.491039432731,
			"0.016": 0.15055943711,
			"0.017": 0.0,
			"0.018": 0.0,
			"0.019": 0.0,
			"0.02": 0.0,
			"0.021": 0.0,
			"0.022": 0.0,
			"0.023": 0.0,
			"0.024": 0.0,
			"0.025": 0.0
		}
	}
}
