{
	 "smiles": "CC(C)(C)C1=CC=C(O)C=C1", 
	 "Tm": 372.15, 
	 "num_atms": 25, 
	 "gaussian": { 
		 "optdone": 1, 
		 "sigma_profile": "yes", 
		 "theory": "DFT", 
		 "functional": "B3LYP", 
		 "basiset": "6-31G**", 
		 "properties": { 
			 "R2extent": 2408.5865, 
			 "electric_dipole_moment_norm": 1.30932919466, 
			 "electric_quadrupole_moment_norm": 9.30176836413, 
			 "total_energy": -464.735213072, 
			 "HOMO_LUMO_gap": 0.21369, 
			 "cosmo_polarized_energy": -7.74, 
			 "cosmo_cavitation_energy": 26.58, 
			 "cosmo_dispersion_energy": -19.19, 
			 "cosmo_repulsion_energy": 1.53, 
			 "cosmo_total_nonelectrostatic_energy": 8.92, 
			 "SMD_solvation_energy": 5.04 
		},
		"coords": [
			{
				"x": -0.9504242285,
				"y": 2.6690372352,
				"z": -1.0742261303,
				"element": "C" 
			},
			{
				"x": 0.1079847009,
				"y": 1.9922701425,
				"z": -0.1825563106,
				"element": "C" 
			},
			{
				"x": -0.479762587,
				"y": 1.8553919762,
				"z": 1.2422213779,
				"element": "C" 
			},
			{
				"x": 1.353785485,
				"y": 2.9087151811,
				"z": -0.134668316,
				"element": "C" 
			},
			{
				"x": 0.5107203649,
				"y": 0.6028862993,
				"z": -0.7091359793,
				"element": "C" 
			},
			{
				"x": -0.0327271187,
				"y": 0.0361179308,
				"z": -1.8682127759,
				"element": "C" 
			},
			{
				"x": 0.3532310163,
				"y": -1.2283061948,
				"z": -2.3213686095,
				"element": "C" 
			},
			{
				"x": 1.3048342355,
				"y": -1.9650476014,
				"z": -1.6157097653,
				"element": "C" 
			},
			{
				"x": 1.7262060366,
				"y": -3.2072617951,
				"z": -2.0043636328,
				"element": "O" 
			},
			{
				"x": 1.8647040065,
				"y": -1.4229019116,
				"z": -0.4537917915,
				"element": "C" 
			},
			{
				"x": 1.4680729438,
				"y": -0.1635155116,
				"z": -0.0187522069,
				"element": "C" 
			},
			{
				"x": -1.2068197032,
				"y": 3.6510599954,
				"z": -0.6633965804,
				"element": "H" 
			},
			{
				"x": -0.5845441081,
				"y": 2.8242797564,
				"z": -2.0946645186,
				"element": "H" 
			},
			{
				"x": -1.873872777,
				"y": 2.0827566039,
				"z": -1.1270196488,
				"element": "H" 
			},
			{
				"x": -0.7648440244,
				"y": 2.8379169958,
				"z": 1.6358098029,
				"element": "H" 
			},
			{
				"x": 0.24029458,
				"y": 1.4150050363,
				"z": 1.9384648505,
				"element": "H" 
			},
			{
				"x": -1.3707613412,
				"y": 1.2189076932,
				"z": 1.2380417479,
				"element": "H" 
			},
			{
				"x": 1.0859143538,
				"y": 3.9009469008,
				"z": 0.2464771986,
				"element": "H" 
			},
			{
				"x": 2.1329068657,
				"y": 2.5019079261,
				"z": 0.5170007201,
				"element": "H" 
			},
			{
				"x": 1.7862383747,
				"y": 3.0329871158,
				"z": -1.1329439132,
				"element": "H" 
			},
			{
				"x": -0.7749520883,
				"y": 0.5761961759,
				"z": -2.4450275891,
				"element": "H" 
			},
			{
				"x": -0.090954599,
				"y": -1.6373247005,
				"z": -3.2271456556,
				"element": "H" 
			},
			{
				"x": 1.2621027068,
				"y": -3.4564429114,
				"z": -2.8139971925,
				"element": "H" 
			},
			{
				"x": 2.6046441647,
				"y": -1.9994151004,
				"z": 0.0920129396,
				"element": "H" 
			},
			{
				"x": 1.9213227403,
				"y": 0.229732762,
				"z": 0.8868519787,
				"element": "H" 
			}
		],
		 "valence_orbital": [ 
			{
				"type": "occ",
				"energy": -0.31884,
				"method": "rhf"
			},
			{
				"type": "occ",
				"energy": -0.31367,
				"method": "rhf"
			},
			{
				"type": "occ",
				"energy": -0.31196,
				"method": "rhf"
			},
			{
				"type": "occ",
				"energy": -0.24569,
				"method": "rhf"
			},
			{
				"type": "occ",
				"energy": -0.21142,
				"method": "rhf"
			},
			{
				"type": "unocc",
				"energy": 0.00227,
				"method": "rhf"
			},
			{
				"type": "unocc",
				"energy": 0.01908,
				"method": "rhf"
			},
			{
				"type": "unocc",
				"energy": 0.0738,
				"method": "rhf"
			},
			{
				"type": "unocc",
				"energy": 0.08339,
				"method": "rhf"
			},
			{
				"type": "unocc",
				"energy": 0.1124,
				"method": "rhf"
			}
		],
		"cosmo_sigma_profile": { 
			"-0.025": 0.0,
			"-0.024": 0.0,
			"-0.023": 0.0,
			"-0.022": 0.0,
			"-0.021": 0.0,
			"-0.02": 0.0,
			"-0.019": 0.0,
			"-0.018": 0.0478327227079,
			"-0.017": 0.98127523992,
			"-0.016": 1.07317637164,
			"-0.015": 1.01702410089,
			"-0.014": 1.17171282969,
			"-0.013": 0.888636856757,
			"-0.012": 0.892315384869,
			"-0.011": 0.592163274496,
			"-0.01": 1.2483007973,
			"-0.009": 1.29073252343,
			"-0.008": 0.884651813389,
			"-0.007": 1.25634737866,
			"-0.006": 2.35208119633,
			"-0.005": 7.0984801123,
			"-0.004": 8.63005657729,
			"-0.003": 17.6446603826,
			"-0.002": 25.7631689275,
			"-0.001": 22.1390261962,
			"0.0": 20.0134246091,
			"0.001": 25.7635596025,
			"0.002": 16.4294982552,
			"0.003": 7.72624356241,
			"0.004": 10.5464564582,
			"0.005": 9.69802494503,
			"0.006": 10.0627460566,
			"0.007": 4.35961119788,
			"0.008": 1.91650740439,
			"0.009": 0.992584357086,
			"0.01": 2.01949704446,
			"0.011": 1.55017039929,
			"0.012": 1.53233055708,
			"0.013": 0.0,
			"0.014": 0.0,
			"0.015": 0.0,
			"0.016": 0.0,
			"0.017": 0.0,
			"0.018": 0.0,
			"0.019": 0.0,
			"0.02": 0.0,
			"0.021": 0.0,
			"0.022": 0.0,
			"0.023": 0.0,
			"0.024": 0.0,
			"0.025": 0.0
		}
	}
}
