{
	 "smiles": "ClS(=O)(=O)C1=CC2=C(C=CS2)N=C1", 
	 "Tm": 403.15, 
	 "num_atms": 17, 
	 "gaussian": { 
		 "optdone": 1, 
		 "sigma_profile": "yes", 
		 "theory": "DFT", 
		 "functional": "B3LYP", 
		 "basiset": "6-31G**", 
		 "properties": { 
			 "R2extent": 4263.6301, 
			 "electric_dipole_moment_norm": 5.72512121269, 
			 "electric_quadrupole_moment_norm": 8.42971265347, 
			 "total_energy": -1730.84157078, 
			 "HOMO_LUMO_gap": 0.16666, 
			 "cosmo_polarized_energy": -10.66, 
			 "cosmo_cavitation_energy": 27.02, 
			 "cosmo_dispersion_energy": -21.1, 
			 "cosmo_repulsion_energy": 1.56, 
			 "cosmo_total_nonelectrostatic_energy": 7.48, 
			 "SMD_solvation_energy": 1.51 
		},
		"coords": [
			{
				"x": -4.043007941,
				"y": -1.2820589722,
				"z": -0.1798696553,
				"element": "Cl" 
			},
			{
				"x": -2.1874889969,
				"y": -2.3349196028,
				"z": -0.1695454957,
				"element": "S" 
			},
			{
				"x": -2.0043389876,
				"y": -2.8464866894,
				"z": -1.5210909731,
				"element": "O" 
			},
			{
				"x": -2.2218080463,
				"y": -3.2035883465,
				"z": 1.0006576436,
				"element": "O" 
			},
			{
				"x": -1.0315290079,
				"y": -1.0129117959,
				"z": 0.1198233846,
				"element": "C" 
			},
			{
				"x": -0.6641560433,
				"y": -0.7162633248,
				"z": 1.429219547,
				"element": "C" 
			},
			{
				"x": 0.2534896717,
				"y": 0.3180714162,
				"z": 1.577870328,
				"element": "C" 
			},
			{
				"x": 0.7486534302,
				"y": 0.9965935095,
				"z": 0.4268677714,
				"element": "C" 
			},
			{
				"x": 1.6806300187,
				"y": 2.0330444329,
				"z": 0.7738855864,
				"element": "C" 
			},
			{
				"x": 1.8738242027,
				"y": 2.1228974957,
				"z": 2.1161283297,
				"element": "C" 
			},
			{
				"x": 0.9472090269,
				"y": 0.9653752295,
				"z": 3.0464880483,
				"element": "S" 
			},
			{
				"x": 0.3757705999,
				"y": 0.6823835147,
				"z": -0.8306592419,
				"element": "N" 
			},
			{
				"x": -0.4985953741,
				"y": -0.3043582411,
				"z": -0.976417518,
				"element": "C" 
			},
			{
				"x": -1.0719206283,
				"y": -1.2737962987,
				"z": 2.2654841389,
				"element": "H" 
			},
			{
				"x": 2.1648029727,
				"y": 2.6609095504,
				"z": 0.0368755775,
				"element": "H" 
			},
			{
				"x": 2.5185404568,
				"y": 2.8128636059,
				"z": 2.6441809374,
				"element": "H" 
			},
			{
				"x": -0.793775354,
				"y": -0.5677554834,
				"z": -1.9881984088,
				"element": "H" 
			}
		],
		 "valence_orbital": [ 
			{
				"type": "occ",
				"energy": -0.32981,
				"method": "rhf"
			},
			{
				"type": "occ",
				"energy": -0.31743,
				"method": "rhf"
			},
			{
				"type": "occ",
				"energy": -0.28851,
				"method": "rhf"
			},
			{
				"type": "occ",
				"energy": -0.27956,
				"method": "rhf"
			},
			{
				"type": "occ",
				"energy": -0.26593,
				"method": "rhf"
			},
			{
				"type": "unocc",
				"energy": -0.09927,
				"method": "rhf"
			},
			{
				"type": "unocc",
				"energy": -0.06958,
				"method": "rhf"
			},
			{
				"type": "unocc",
				"energy": -0.04984,
				"method": "rhf"
			},
			{
				"type": "unocc",
				"energy": -0.0111,
				"method": "rhf"
			},
			{
				"type": "unocc",
				"energy": 0.00204,
				"method": "rhf"
			}
		],
		"cosmo_sigma_profile": { 
			"-0.025": 0.0,
			"-0.024": 0.0,
			"-0.023": 0.0,
			"-0.022": 0.0,
			"-0.021": 0.0,
			"-0.02": 0.0,
			"-0.019": 0.0,
			"-0.018": 0.0,
			"-0.017": 0.0,
			"-0.016": 0.0,
			"-0.015": 0.0,
			"-0.014": 0.0,
			"-0.013": 0.0,
			"-0.012": 0.0,
			"-0.011": 1.21798711556,
			"-0.01": 3.78089159696,
			"-0.009": 4.73020886479,
			"-0.008": 6.16744084751,
			"-0.007": 7.90801296267,
			"-0.006": 8.34600911252,
			"-0.005": 8.94324258205,
			"-0.004": 8.61645747359,
			"-0.003": 12.5283325333,
			"-0.002": 19.8568128021,
			"-0.001": 21.0746973714,
			"0.0": 19.1537065978,
			"0.001": 18.2627900782,
			"0.002": 19.3949757076,
			"0.003": 19.3763278883,
			"0.004": 9.37738502975,
			"0.005": 4.44740082021,
			"0.006": 5.08644538073,
			"0.007": 7.45175854275,
			"0.008": 9.76557867753,
			"0.009": 4.41838519352,
			"0.01": 0.850628401361,
			"0.011": 1.10321867458,
			"0.012": 0.589735255841,
			"0.013": 0.676646774121,
			"0.014": 0.691483645062,
			"0.015": 0.0595789042134,
			"0.016": 0.0,
			"0.017": 0.0,
			"0.018": 0.0,
			"0.019": 0.0,
			"0.02": 0.0,
			"0.021": 0.0,
			"0.022": 0.0,
			"0.023": 0.0,
			"0.024": 0.0,
			"0.025": 0.0
		}
	}
}
