{
	 "smiles": "OC1=CC=C(NS(=O)(=O)C2=CC=CC=C2)C=C1", 
	 "Tm": 430.15, 
	 "num_atms": 28, 
	 "gaussian": { 
		 "optdone": 1, 
		 "sigma_profile": "yes", 
		 "theory": "DFT", 
		 "functional": "B3LYP", 
		 "basiset": "6-31G**", 
		 "properties": { 
			 "R2extent": 5866.956, 
			 "electric_dipole_moment_norm": 4.57649099092, 
			 "electric_quadrupole_moment_norm": 20.239041713, 
			 "total_energy": -1142.43819298, 
			 "HOMO_LUMO_gap": 0.17299, 
			 "cosmo_polarized_energy": -20.8, 
			 "cosmo_cavitation_energy": 34.27, 
			 "cosmo_dispersion_energy": -24.89, 
			 "cosmo_repulsion_energy": 1.87, 
			 "cosmo_total_nonelectrostatic_energy": 11.26, 
			 "SMD_solvation_energy": 5.36 
		},
		"coords": [
			{
				"x": 3.0480322906,
				"y": 4.1078721419,
				"z": 1.537449018,
				"element": "O" 
			},
			{
				"x": 2.4146206437,
				"y": 3.032959356,
				"z": 0.9820645205,
				"element": "C" 
			},
			{
				"x": 1.231826096,
				"y": 3.2773515372,
				"z": 0.273058295,
				"element": "C" 
			},
			{
				"x": 0.5514837563,
				"y": 2.2269525067,
				"z": -0.3304372518,
				"element": "C" 
			},
			{
				"x": 1.0296766281,
				"y": 0.9147276486,
				"z": -0.216415912,
				"element": "C" 
			},
			{
				"x": 0.3332435348,
				"y": -0.153324817,
				"z": -0.8800242084,
				"element": "N" 
			},
			{
				"x": -1.0973803992,
				"y": -0.7402564077,
				"z": -0.1152371874,
				"element": "S" 
			},
			{
				"x": -1.9525029535,
				"y": 0.4277231322,
				"z": 0.1014993866,
				"element": "O" 
			},
			{
				"x": -0.7701161619,
				"y": -1.6427487333,
				"z": 0.9976722399,
				"element": "O" 
			},
			{
				"x": -1.7578092298,
				"y": -1.7379845281,
				"z": -1.4514958807,
				"element": "C" 
			},
			{
				"x": -1.7963007134,
				"y": -3.1246702422,
				"z": -1.3048953745,
				"element": "C" 
			},
			{
				"x": -2.3340208363,
				"y": -3.8968387587,
				"z": -2.3367560062,
				"element": "C" 
			},
			{
				"x": -2.8238714942,
				"y": -3.2808069039,
				"z": -3.4894307514,
				"element": "C" 
			},
			{
				"x": -2.7847605064,
				"y": -1.88876955,
				"z": -3.618619313,
				"element": "C" 
			},
			{
				"x": -2.2529209598,
				"y": -1.1065018115,
				"z": -2.5956336092,
				"element": "C" 
			},
			{
				"x": 2.1997902703,
				"y": 0.6722422136,
				"z": 0.5082843736,
				"element": "C" 
			},
			{
				"x": 2.9011260808,
				"y": 1.7266207651,
				"z": 1.0919615243,
				"element": "C" 
			},
			{
				"x": 3.8340315558,
				"y": 3.8047335706,
				"z": 2.0099333751,
				"element": "H" 
			},
			{
				"x": 0.8687157236,
				"y": 4.2966186454,
				"z": 0.1965220654,
				"element": "H" 
			},
			{
				"x": -0.3588406046,
				"y": 2.4111769118,
				"z": -0.8883974213,
				"element": "H" 
			},
			{
				"x": 0.9404295095,
				"y": -0.9569698111,
				"z": -1.0333660337,
				"element": "H" 
			},
			{
				"x": -1.4183366194,
				"y": -3.576663788,
				"z": -0.3945234935,
				"element": "H" 
			},
			{
				"x": -2.3726659853,
				"y": -4.977280324,
				"z": -2.2367218722,
				"element": "H" 
			},
			{
				"x": -3.2415097461,
				"y": -3.8851616009,
				"z": -4.2893934276,
				"element": "H" 
			},
			{
				"x": -3.1724967916,
				"y": -1.4136303482,
				"z": -4.5145606902,
				"element": "H" 
			},
			{
				"x": -2.2222498491,
				"y": -0.0254567762,
				"z": -2.675540316,
				"element": "H" 
			},
			{
				"x": 2.5680142515,
				"y": -0.3441921501,
				"z": 0.6185904627,
				"element": "H" 
			},
			{
				"x": 3.8174925096,
				"y": 1.5284781219,
				"z": 1.6436134881,
				"element": "H" 
			}
		],
		 "valence_orbital": [ 
			{
				"type": "occ",
				"energy": -0.28652,
				"method": "rhf"
			},
			{
				"type": "occ",
				"energy": -0.27277,
				"method": "rhf"
			},
			{
				"type": "occ",
				"energy": -0.26824,
				"method": "rhf"
			},
			{
				"type": "occ",
				"energy": -0.25574,
				"method": "rhf"
			},
			{
				"type": "occ",
				"energy": -0.21473,
				"method": "rhf"
			},
			{
				"type": "unocc",
				"energy": -0.04174,
				"method": "rhf"
			},
			{
				"type": "unocc",
				"energy": -0.02192,
				"method": "rhf"
			},
			{
				"type": "unocc",
				"energy": -0.00699,
				"method": "rhf"
			},
			{
				"type": "unocc",
				"energy": 0.00274,
				"method": "rhf"
			},
			{
				"type": "unocc",
				"energy": 0.0606,
				"method": "rhf"
			}
		],
		"cosmo_sigma_profile": { 
			"-0.025": 0.0,
			"-0.024": 0.0,
			"-0.023": 0.0,
			"-0.022": 0.0,
			"-0.021": 0.0,
			"-0.02": 0.0,
			"-0.019": 0.0,
			"-0.018": 0.402703900789,
			"-0.017": 1.21879380789,
			"-0.016": 1.41217071771,
			"-0.015": 1.65402380908,
			"-0.014": 2.15552716166,
			"-0.013": 2.90719615396,
			"-0.012": 1.8445278763,
			"-0.011": 1.84876958358,
			"-0.01": 2.14399795087,
			"-0.009": 3.03629820611,
			"-0.008": 3.4485727908,
			"-0.007": 12.0005516503,
			"-0.006": 16.9468310873,
			"-0.005": 18.1262511886,
			"-0.004": 14.8594268453,
			"-0.003": 13.2736310179,
			"-0.002": 12.2444770189,
			"-0.001": 12.9710143919,
			"0.0": 14.2079726236,
			"0.001": 15.5521315723,
			"0.002": 21.148010551,
			"0.003": 27.2065788125,
			"0.004": 18.5741051298,
			"0.005": 10.0579447329,
			"0.006": 5.48456193328,
			"0.007": 5.94089865308,
			"0.008": 5.38510750841,
			"0.009": 6.67332626002,
			"0.01": 8.52052409042,
			"0.011": 10.231648566,
			"0.012": 2.88621033774,
			"0.013": 0.0,
			"0.014": 0.0,
			"0.015": 0.0,
			"0.016": 0.0,
			"0.017": 0.0,
			"0.018": 0.0,
			"0.019": 0.0,
			"0.02": 0.0,
			"0.021": 0.0,
			"0.022": 0.0,
			"0.023": 0.0,
			"0.024": 0.0,
			"0.025": 0.0
		}
	}
}
