{
	 "smiles": "CC1(NC(=O)NC1=O)C1=C(F)C=CC=C1F", 
	 "Tm": 489.15, 
	 "num_atms": 24, 
	 "gaussian": { 
		 "optdone": 1, 
		 "sigma_profile": "yes", 
		 "theory": "DFT", 
		 "functional": "B3LYP", 
		 "basiset": "6-31G**", 
		 "properties": { 
			 "R2extent": 3358.5343, 
			 "electric_dipole_moment_norm": 3.38406422811, 
			 "electric_quadrupole_moment_norm": 18.6828072743, 
			 "total_energy": -845.541164844, 
			 "HOMO_LUMO_gap": 0.22711, 
			 "cosmo_polarized_energy": -16.59, 
			 "cosmo_cavitation_energy": 28.85, 
			 "cosmo_dispersion_energy": -20.49, 
			 "cosmo_repulsion_energy": 1.56, 
			 "cosmo_total_nonelectrostatic_energy": 9.93, 
			 "SMD_solvation_energy": 6.98 
		},
		"coords": [
			{
				"x": 1.3853542539,
				"y": 1.1563554852,
				"z": 0.2971356561,
				"element": "C" 
			},
			{
				"x": 0.2611873152,
				"y": 0.5353879388,
				"z": -0.55743752,
				"element": "C" 
			},
			{
				"x": 0.0884257007,
				"y": 1.2654877091,
				"z": -1.8161876361,
				"element": "N" 
			},
			{
				"x": 0.629569688,
				"y": 0.6290784326,
				"z": -2.9059378067,
				"element": "C" 
			},
			{
				"x": 0.7238176478,
				"y": 1.0314060752,
				"z": -4.0461082971,
				"element": "O" 
			},
			{
				"x": 1.0727367469,
				"y": -0.621580096,
				"z": -2.4278035748,
				"element": "N" 
			},
			{
				"x": 0.8185424068,
				"y": -0.8210834926,
				"z": -1.0902680983,
				"element": "C" 
			},
			{
				"x": 1.0388949637,
				"y": -1.8139368537,
				"z": -0.4342236302,
				"element": "O" 
			},
			{
				"x": -1.0798123633,
				"y": 0.3347311473,
				"z": 0.1536856725,
				"element": "C" 
			},
			{
				"x": -2.0838724299,
				"y": -0.417988745,
				"z": -0.47644278,
				"element": "C" 
			},
			{
				"x": -1.8008727955,
				"y": -0.9644625537,
				"z": -1.6779313756,
				"element": "F" 
			},
			{
				"x": -3.343365636,
				"y": -0.6456694579,
				"z": 0.0560623098,
				"element": "C" 
			},
			{
				"x": -3.6497493463,
				"y": -0.0908703272,
				"z": 1.2983858411,
				"element": "C" 
			},
			{
				"x": -2.7007936593,
				"y": 0.6705111575,
				"z": 1.973437573,
				"element": "C" 
			},
			{
				"x": -1.4504188305,
				"y": 0.8689015359,
				"z": 1.3940373274,
				"element": "C" 
			},
			{
				"x": -0.5764898468,
				"y": 1.6253112223,
				"z": 2.0947882811,
				"element": "F" 
			},
			{
				"x": 1.1404706561,
				"y": 2.1758435205,
				"z": 0.5964894514,
				"element": "H" 
			},
			{
				"x": 1.5605999146,
				"y": 0.559153252,
				"z": 1.1935703586,
				"element": "H" 
			},
			{
				"x": 2.3032506165,
				"y": 1.1769028199,
				"z": -0.2969941936,
				"element": "H" 
			},
			{
				"x": -0.1214303709,
				"y": 2.2508563536,
				"z": -1.864237022,
				"element": "H" 
			},
			{
				"x": 1.4282186484,
				"y": -1.3356556082,
				"z": -3.0470753775,
				"element": "H" 
			},
			{
				"x": -4.0518915423,
				"y": -1.2465314982,
				"z": -0.5019332024,
				"element": "H" 
			},
			{
				"x": -4.6277970351,
				"y": -0.2536689058,
				"z": 1.7390899914,
				"element": "H" 
			},
			{
				"x": -2.9020747027,
				"y": 1.1195208885,
				"z": 2.9391980521,
				"element": "H" 
			}
		],
		 "valence_orbital": [ 
			{
				"type": "occ",
				"energy": -0.28874,
				"method": "rhf"
			},
			{
				"type": "occ",
				"energy": -0.27708,
				"method": "rhf"
			},
			{
				"type": "occ",
				"energy": -0.26402,
				"method": "rhf"
			},
			{
				"type": "occ",
				"energy": -0.26131,
				"method": "rhf"
			},
			{
				"type": "occ",
				"energy": -0.2591,
				"method": "rhf"
			},
			{
				"type": "unocc",
				"energy": -0.03199,
				"method": "rhf"
			},
			{
				"type": "unocc",
				"energy": -0.01352,
				"method": "rhf"
			},
			{
				"type": "unocc",
				"energy": -0.0076,
				"method": "rhf"
			},
			{
				"type": "unocc",
				"energy": 0.06203,
				"method": "rhf"
			},
			{
				"type": "unocc",
				"energy": 0.06287,
				"method": "rhf"
			}
		],
		"cosmo_sigma_profile": { 
			"-0.025": 0.0,
			"-0.024": 0.0,
			"-0.023": 0.0,
			"-0.022": 0.0,
			"-0.021": 0.0,
			"-0.02": 0.0,
			"-0.019": 0.0,
			"-0.018": 0.0,
			"-0.017": 0.520254671566,
			"-0.016": 1.85589443136,
			"-0.015": 1.97988022346,
			"-0.014": 2.38508850411,
			"-0.013": 1.56330839136,
			"-0.012": 1.75920028485,
			"-0.011": 2.00706489355,
			"-0.01": 2.19435848168,
			"-0.009": 1.6937952923,
			"-0.008": 4.32570002917,
			"-0.007": 8.11502581159,
			"-0.006": 9.84903732946,
			"-0.005": 12.9333828528,
			"-0.004": 12.0421734768,
			"-0.003": 12.8990685254,
			"-0.002": 13.0013301943,
			"-0.001": 16.1985194428,
			"0.0": 19.8394326207,
			"0.001": 18.4481515306,
			"0.002": 17.1131861889,
			"0.003": 20.9829911191,
			"0.004": 10.2626210401,
			"0.005": 2.61444685386,
			"0.006": 2.55711201359,
			"0.007": 2.82487191583,
			"0.008": 2.04931127183,
			"0.009": 2.7778111581,
			"0.01": 3.73121395635,
			"0.011": 6.00565587267,
			"0.012": 9.49546362143,
			"0.013": 5.75160168901,
			"0.014": 0.459603292405,
			"0.015": 0.0,
			"0.016": 0.0,
			"0.017": 0.0,
			"0.018": 0.0,
			"0.019": 0.0,
			"0.02": 0.0,
			"0.021": 0.0,
			"0.022": 0.0,
			"0.023": 0.0,
			"0.024": 0.0,
			"0.025": 0.0
		}
	}
}
