{
	 "smiles": "ClC1=CC=C(CSC(CN2C=NC=N2)=NC2=CC=C(Cl)C=C2Cl)C=C1", 
	 "Tm": 363.15, 
	 "num_atms": 38, 
	 "gaussian": { 
		 "optdone": 1, 
		 "sigma_profile": "yes", 
		 "theory": "DFT", 
		 "functional": "B3LYP", 
		 "basiset": "6-31G**", 
		 "properties": { 
			 "R2extent": 13969.0149, 
			 "electric_dipole_moment_norm": 1.28867642176, 
			 "electric_quadrupole_moment_norm": 9.01159322872, 
			 "total_energy": -2653.37761702, 
			 "HOMO_LUMO_gap": 0.18453, 
			 "cosmo_polarized_energy": -15.57, 
			 "cosmo_cavitation_energy": 50.57, 
			 "cosmo_dispersion_energy": -33.55, 
			 "cosmo_repulsion_energy": 2.52, 
			 "cosmo_total_nonelectrostatic_energy": 19.54, 
			 "SMD_solvation_energy": 3.9 
		},
		"coords": [
			{
				"x": -4.1031652754,
				"y": -3.8171067418,
				"z": 4.055734782,
				"element": "Cl" 
			},
			{
				"x": -3.8132004039,
				"y": -2.6145055955,
				"z": 2.8080359935,
				"element": "C" 
			},
			{
				"x": -3.9027279775,
				"y": -2.9841811098,
				"z": 1.4644935078,
				"element": "C" 
			},
			{
				"x": -3.6697645193,
				"y": -2.0286407731,
				"z": 0.4786299241,
				"element": "C" 
			},
			{
				"x": -3.3500640373,
				"y": -0.7058218301,
				"z": 0.8160117159,
				"element": "C" 
			},
			{
				"x": -3.1450088585,
				"y": 0.3619850686,
				"z": -0.2352444933,
				"element": "C" 
			},
			{
				"x": -1.999336899,
				"y": -0.0502047137,
				"z": -1.6266507887,
				"element": "S" 
			},
			{
				"x": -0.3582624041,
				"y": -0.1352697684,
				"z": -0.9374532296,
				"element": "C" 
			},
			{
				"x": -0.054516752,
				"y": 0.4108437704,
				"z": 0.4617305304,
				"element": "C" 
			},
			{
				"x": -0.0222561606,
				"y": 1.8672883719,
				"z": 0.5156517338,
				"element": "N" 
			},
			{
				"x": 0.9546377841,
				"y": 2.7155133632,
				"z": 0.1138329094,
				"element": "C" 
			},
			{
				"x": 0.6018653501,
				"y": 3.9689766678,
				"z": 0.3393503715,
				"element": "N" 
			},
			{
				"x": -0.6339624551,
				"y": 3.8335771045,
				"z": 0.8937924503,
				"element": "C" 
			},
			{
				"x": -1.0602059343,
				"y": 2.5852495925,
				"z": 1.0267285746,
				"element": "N" 
			},
			{
				"x": 0.5091995976,
				"y": -0.6357724056,
				"z": -1.726430004,
				"element": "N" 
			},
			{
				"x": 1.8756901219,
				"y": -0.7556000136,
				"z": -1.4461341997,
				"element": "C" 
			},
			{
				"x": 2.7864049278,
				"y": 0.1051143661,
				"z": -2.0860416228,
				"element": "C" 
			},
			{
				"x": 4.1609177731,
				"y": -0.0300767733,
				"z": -1.9196769176,
				"element": "C" 
			},
			{
				"x": 4.6519401502,
				"y": -1.059190707,
				"z": -1.1155266266,
				"element": "C" 
			},
			{
				"x": 6.3826589249,
				"y": -1.2502015186,
				"z": -0.9016895293,
				"element": "Cl" 
			},
			{
				"x": 3.7847148136,
				"y": -1.9453279889,
				"z": -0.4821589212,
				"element": "C" 
			},
			{
				"x": 2.4086403015,
				"y": -1.7880260515,
				"z": -0.6499140359,
				"element": "C" 
			},
			{
				"x": 1.3342931345,
				"y": -2.9174191294,
				"z": 0.1562582653,
				"element": "Cl" 
			},
			{
				"x": -3.264344681,
				"y": -0.3619880549,
				"z": 2.1720173736,
				"element": "C" 
			},
			{
				"x": -3.4943839128,
				"y": -1.3089120172,
				"z": 3.1726377309,
				"element": "C" 
			},
			{
				"x": -4.1503597221,
				"y": -4.0057546764,
				"z": 1.1981100976,
				"element": "H" 
			},
			{
				"x": -3.7282568932,
				"y": -2.3184367951,
				"z": -0.566502632,
				"element": "H" 
			},
			{
				"x": -4.0761393466,
				"y": 0.5473364626,
				"z": -0.7829372273,
				"element": "H" 
			},
			{
				"x": -2.8379803797,
				"y": 1.3060759872,
				"z": 0.2173801918,
				"element": "H" 
			},
			{
				"x": -0.7970876565,
				"y": 0.0729180519,
				"z": 1.1840897238,
				"element": "H" 
			},
			{
				"x": 0.9208694565,
				"y": 0.0334077863,
				"z": 0.7736266432,
				"element": "H" 
			},
			{
				"x": 1.8846279184,
				"y": 2.3738857054,
				"z": -0.3197788873,
				"element": "H" 
			},
			{
				"x": -1.2345814275,
				"y": 4.6732285452,
				"z": 1.2153595909,
				"element": "H" 
			},
			{
				"x": 2.3887631861,
				"y": 0.8797819896,
				"z": -2.7339546107,
				"element": "H" 
			},
			{
				"x": 4.8449618762,
				"y": 0.6481745116,
				"z": -2.4169283998,
				"element": "H" 
			},
			{
				"x": 4.1664798289,
				"y": -2.7482640599,
				"z": 0.1365335791,
				"element": "H" 
			},
			{
				"x": -3.0154067247,
				"y": 0.6588235267,
				"z": 2.4500126173,
				"element": "H" 
			},
			{
				"x": -3.425952724,
				"y": -1.0360801479,
				"z": 4.2199038189,
				"element": "H" 
			}
		],
		 "valence_orbital": [ 
			{
				"type": "occ",
				"energy": -0.2736,
				"method": "rhf"
			},
			{
				"type": "occ",
				"energy": -0.27155,
				"method": "rhf"
			},
			{
				"type": "occ",
				"energy": -0.2595,
				"method": "rhf"
			},
			{
				"type": "occ",
				"energy": -0.24702,
				"method": "rhf"
			},
			{
				"type": "occ",
				"energy": -0.23544,
				"method": "rhf"
			},
			{
				"type": "unocc",
				"energy": -0.05091,
				"method": "rhf"
			},
			{
				"type": "unocc",
				"energy": -0.03514,
				"method": "rhf"
			},
			{
				"type": "unocc",
				"energy": -0.03234,
				"method": "rhf"
			},
			{
				"type": "unocc",
				"energy": -0.02605,
				"method": "rhf"
			},
			{
				"type": "unocc",
				"energy": -0.02384,
				"method": "rhf"
			}
		],
		"cosmo_sigma_profile": { 
			"-0.025": 0.0,
			"-0.024": 0.0,
			"-0.023": 0.0,
			"-0.022": 0.0,
			"-0.021": 0.0,
			"-0.02": 0.0,
			"-0.019": 0.0,
			"-0.018": 0.0,
			"-0.017": 0.0,
			"-0.016": 0.0,
			"-0.015": 0.0,
			"-0.014": 0.0,
			"-0.013": 0.0,
			"-0.012": 0.0,
			"-0.011": 0.0,
			"-0.01": 0.238790453605,
			"-0.009": 3.37618714709,
			"-0.008": 11.7158386093,
			"-0.007": 17.8132764089,
			"-0.006": 22.338892326,
			"-0.005": 22.4371394692,
			"-0.004": 21.1613474075,
			"-0.003": 21.6494083487,
			"-0.002": 25.7046470573,
			"-0.001": 27.9086615519,
			"0.0": 32.4233111973,
			"0.001": 41.9953699182,
			"0.002": 45.6953851854,
			"0.003": 38.4421434493,
			"0.004": 37.7859667913,
			"0.005": 18.4332022388,
			"0.006": 7.64255197628,
			"0.007": 4.8881382978,
			"0.008": 2.487250342,
			"0.009": 1.78204204466,
			"0.01": 2.49764202611,
			"0.011": 1.10810081698,
			"0.012": 2.07188812409,
			"0.013": 1.18027599361,
			"0.014": 0.919971888748,
			"0.015": 1.17604702944,
			"0.016": 0.754800627129,
			"0.017": 0.0842066843612,
			"0.018": 0.0,
			"0.019": 0.0,
			"0.02": 0.0,
			"0.021": 0.0,
			"0.022": 0.0,
			"0.023": 0.0,
			"0.024": 0.0,
			"0.025": 0.0
		}
	}
}
