{
	 "smiles": "FC1=CC=C(NC(=O)C2=NC(OC3=CC=CC(=C3)C(F)(F)F)=CC=C2)C=C1", 
	 "Tm": 380.15, 
	 "num_atms": 39, 
	 "gaussian": { 
		 "optdone": 1, 
		 "sigma_profile": "yes", 
		 "theory": "DFT", 
		 "functional": "B3LYP", 
		 "basiset": "6-31G**", 
		 "properties": { 
			 "R2extent": 9011.707, 
			 "electric_dipole_moment_norm": 3.45095989545, 
			 "electric_quadrupole_moment_norm": 15.1507683696, 
			 "total_energy": -1390.57329865, 
			 "HOMO_LUMO_gap": 0.17275, 
			 "cosmo_polarized_energy": -14.02, 
			 "cosmo_cavitation_energy": 46.15, 
			 "cosmo_dispersion_energy": -29.11, 
			 "cosmo_repulsion_energy": 2.09, 
			 "cosmo_total_nonelectrostatic_energy": 19.13, 
			 "SMD_solvation_energy": 9.9 
		},
		"coords": [
			{
				"x": -1.9601343713,
				"y": -0.0795861866,
				"z": -3.2823012792,
				"element": "F" 
			},
			{
				"x": -1.702333314,
				"y": 0.2860009055,
				"z": -2.0083024815,
				"element": "C" 
			},
			{
				"x": -0.7173204593,
				"y": 1.2355223541,
				"z": -1.7634339718,
				"element": "C" 
			},
			{
				"x": -0.4495491667,
				"y": 1.5989896826,
				"z": -0.4451370789,
				"element": "C" 
			},
			{
				"x": -1.1681107637,
				"y": 1.0254149313,
				"z": 0.6081789905,
				"element": "C" 
			},
			{
				"x": -0.9077735876,
				"y": 1.4564070601,
				"z": 1.942685026,
				"element": "N" 
			},
			{
				"x": -0.6932337234,
				"y": 0.7231622698,
				"z": 3.0849979482,
				"element": "C" 
			},
			{
				"x": -0.8454139509,
				"y": 1.22795934,
				"z": 4.1933567721,
				"element": "O" 
			},
			{
				"x": -0.1975546386,
				"y": -0.6995287653,
				"z": 2.9713845524,
				"element": "C" 
			},
			{
				"x": 0.4657955761,
				"y": -1.0759417575,
				"z": 1.8622855359,
				"element": "N" 
			},
			{
				"x": 0.9574269157,
				"y": -2.3012599154,
				"z": 1.8262173173,
				"element": "C" 
			},
			{
				"x": 1.6315762331,
				"y": -2.7502984183,
				"z": 0.7231603531,
				"element": "O" 
			},
			{
				"x": 1.9634796445,
				"y": -1.9420777232,
				"z": -0.351146974,
				"element": "C" 
			},
			{
				"x": 1.8019500002,
				"y": -2.5196689207,
				"z": -1.6107763294,
				"element": "C" 
			},
			{
				"x": 2.2100789906,
				"y": -1.8247156463,
				"z": -2.7488907328,
				"element": "C" 
			},
			{
				"x": 2.770047639,
				"y": -0.5545392641,
				"z": -2.632882963,
				"element": "C" 
			},
			{
				"x": 2.9230791086,
				"y": 0.0118423152,
				"z": -1.3635378943,
				"element": "C" 
			},
			{
				"x": 2.530880314,
				"y": -0.6741918236,
				"z": -0.213368497,
				"element": "C" 
			},
			{
				"x": 3.4665763992,
				"y": 1.4099119728,
				"z": -1.2503235538,
				"element": "C" 
			},
			{
				"x": 4.473657675,
				"y": 1.6308237379,
				"z": -2.1226479206,
				"element": "F" 
			},
			{
				"x": 3.9275053797,
				"y": 1.6865006532,
				"z": -0.0136633782,
				"element": "F" 
			},
			{
				"x": 2.5107057271,
				"y": 2.3397658516,
				"z": -1.5293713317,
				"element": "F" 
			},
			{
				"x": 0.8193188348,
				"y": -3.2378136578,
				"z": 2.8643050397,
				"element": "C" 
			},
			{
				"x": 0.1314782088,
				"y": -2.8365145961,
				"z": 3.9997567044,
				"element": "C" 
			},
			{
				"x": -0.3838584077,
				"y": -1.5381907967,
				"z": 4.0683184277,
				"element": "C" 
			},
			{
				"x": -2.169750858,
				"y": 0.0865282541,
				"z": 0.3340554468,
				"element": "C" 
			},
			{
				"x": -2.4325049107,
				"y": -0.2988162875,
				"z": -0.9792249739,
				"element": "C" 
			},
			{
				"x": -0.1550362584,
				"y": 1.6595901052,
				"z": -2.5873708323,
				"element": "H" 
			},
			{
				"x": 0.3413046715,
				"y": 2.3092126198,
				"z": -0.2319556011,
				"element": "H" 
			},
			{
				"x": -1.1254141749,
				"y": 2.4217310458,
				"z": 2.162626544,
				"element": "H" 
			},
			{
				"x": 1.3652974999,
				"y": -3.5102800215,
				"z": -1.6796291646,
				"element": "H" 
			},
			{
				"x": 2.0885768281,
				"y": -2.2778160868,
				"z": -3.7276881057,
				"element": "H" 
			},
			{
				"x": 3.0919318043,
				"y": -0.008895661,
				"z": -3.5130878206,
				"element": "H" 
			},
			{
				"x": 2.6566874152,
				"y": -0.2275987694,
				"z": 0.7625915904,
				"element": "H" 
			},
			{
				"x": 1.2456626518,
				"y": -4.2284437457,
				"z": 2.757422907,
				"element": "H" 
			},
			{
				"x": 0.0020446959,
				"y": -3.5245188392,
				"z": 4.8298154608,
				"element": "H" 
			},
			{
				"x": -0.9012808583,
				"y": -1.1621491292,
				"z": 4.941816943,
				"element": "H" 
			},
			{
				"x": -2.7439233583,
				"y": -0.3396373447,
				"z": 1.1505427957,
				"element": "H" 
			},
			{
				"x": -3.1999694115,
				"y": -1.0284797427,
				"z": -1.2134774708,
				"element": "H" 
			}
		],
		 "valence_orbital": [ 
			{
				"type": "occ",
				"energy": -0.26898,
				"method": "rhf"
			},
			{
				"type": "occ",
				"energy": -0.26191,
				"method": "rhf"
			},
			{
				"type": "occ",
				"energy": -0.25602,
				"method": "rhf"
			},
			{
				"type": "occ",
				"energy": -0.23671,
				"method": "rhf"
			},
			{
				"type": "occ",
				"energy": -0.23069,
				"method": "rhf"
			},
			{
				"type": "unocc",
				"energy": -0.05794,
				"method": "rhf"
			},
			{
				"type": "unocc",
				"energy": -0.03292,
				"method": "rhf"
			},
			{
				"type": "unocc",
				"energy": -0.02813,
				"method": "rhf"
			},
			{
				"type": "unocc",
				"energy": -0.01243,
				"method": "rhf"
			},
			{
				"type": "unocc",
				"energy": -0.00758,
				"method": "rhf"
			}
		],
		"cosmo_sigma_profile": { 
			"-0.025": 0.0,
			"-0.024": 0.0,
			"-0.023": 0.0,
			"-0.022": 0.0,
			"-0.021": 0.0,
			"-0.02": 0.0,
			"-0.019": 0.0,
			"-0.018": 0.0,
			"-0.017": 0.0,
			"-0.016": 0.0,
			"-0.015": 0.231708087782,
			"-0.014": 0.744586417672,
			"-0.013": 1.27854984502,
			"-0.012": 0.488211542566,
			"-0.011": 0.907121893379,
			"-0.01": 0.98304134095,
			"-0.009": 1.14149720738,
			"-0.008": 4.45192347195,
			"-0.007": 14.3723626395,
			"-0.006": 20.8164295587,
			"-0.005": 21.0208168746,
			"-0.004": 18.3184763296,
			"-0.003": 20.2441282605,
			"-0.002": 22.6396292807,
			"-0.001": 24.9134169667,
			"0.0": 36.6968473755,
			"0.001": 38.8737194922,
			"0.002": 48.8653435055,
			"0.003": 41.9217005396,
			"0.004": 17.9055642285,
			"0.005": 9.83827574152,
			"0.006": 4.32424090521,
			"0.007": 3.04420096441,
			"0.008": 1.42281734114,
			"0.009": 2.72630772234,
			"0.01": 2.07981088503,
			"0.011": 2.28487075454,
			"0.012": 2.81597601077,
			"0.013": 5.12516830015,
			"0.014": 1.12461155956,
			"0.015": 0.0,
			"0.016": 0.0,
			"0.017": 0.0,
			"0.018": 0.0,
			"0.019": 0.0,
			"0.02": 0.0,
			"0.021": 0.0,
			"0.022": 0.0,
			"0.023": 0.0,
			"0.024": 0.0,
			"0.025": 0.0
		}
	}
}
