{
	 "smiles": "CN1C(S)=NN=C1C1=CC=C(F)C=C1", 
	 "Tm": 386.15, 
	 "num_atms": 22, 
	 "gaussian": { 
		 "optdone": 1, 
		 "sigma_profile": "yes", 
		 "theory": "DFT", 
		 "functional": "B3LYP", 
		 "basiset": "6-31G**", 
		 "properties": { 
			 "R2extent": 4167.8265, 
			 "electric_dipole_moment_norm": 4.29358752211, 
			 "electric_quadrupole_moment_norm": 10.5770874067, 
			 "total_energy": -1010.02981833, 
			 "HOMO_LUMO_gap": 0.18848, 
			 "cosmo_polarized_energy": -15.98, 
			 "cosmo_cavitation_energy": 28.56, 
			 "cosmo_dispersion_energy": -21.31, 
			 "cosmo_repulsion_energy": 1.59, 
			 "cosmo_total_nonelectrostatic_energy": 8.84, 
			 "SMD_solvation_energy": 2.95 
		},
		"coords": [
			{
				"x": 1.5458029745,
				"y": -2.1493203946,
				"z": 0.9919886797,
				"element": "C" 
			},
			{
				"x": 0.1343499589,
				"y": -1.9825838941,
				"z": 0.672322825,
				"element": "N" 
			},
			{
				"x": -0.7805338727,
				"y": -2.9864690942,
				"z": 0.4788438149,
				"element": "C" 
			},
			{
				"x": -0.3978782345,
				"y": -4.689523269,
				"z": 0.7585880368,
				"element": "S" 
			},
			{
				"x": -1.9346933005,
				"y": -2.5121664485,
				"z": 0.0710728638,
				"element": "N" 
			},
			{
				"x": -1.7945186615,
				"y": -1.1454518505,
				"z": -0.0144907683,
				"element": "N" 
			},
			{
				"x": -0.5675670912,
				"y": -0.8308711818,
				"z": 0.3483645163,
				"element": "C" 
			},
			{
				"x": -0.0455164971,
				"y": 0.541221308,
				"z": 0.3777068563,
				"element": "C" 
			},
			{
				"x": 0.86442853,
				"y": 0.9927765253,
				"z": 1.3482537729,
				"element": "C" 
			},
			{
				"x": 1.308568394,
				"y": 2.3144583443,
				"z": 1.3517179656,
				"element": "C" 
			},
			{
				"x": 0.8234064309,
				"y": 3.1855707427,
				"z": 0.3837918971,
				"element": "C" 
			},
			{
				"x": 1.2504939454,
				"y": 4.4636162947,
				"z": 0.3817721055,
				"element": "F" 
			},
			{
				"x": -0.0946651344,
				"y": 2.7776784288,
				"z": -0.5795573216,
				"element": "C" 
			},
			{
				"x": -0.5241638049,
				"y": 1.4548778072,
				"z": -0.5789438797,
				"element": "C" 
			},
			{
				"x": 2.1077163084,
				"y": -1.3059279834,
				"z": 0.5903735319,
				"element": "H" 
			},
			{
				"x": 1.9142150867,
				"y": -3.0676872734,
				"z": 0.5284934155,
				"element": "H" 
			},
			{
				"x": 1.7082848553,
				"y": -2.2080952556,
				"z": 2.0730469384,
				"element": "H" 
			},
			{
				"x": -1.5721436578,
				"y": -5.1038173738,
				"z": 0.2470600034,
				"element": "H" 
			},
			{
				"x": 1.2086816694,
				"y": 0.3241772328,
				"z": 2.1301785865,
				"element": "H" 
			},
			{
				"x": 2.0068966377,
				"y": 2.6767191604,
				"z": 2.0981096932,
				"element": "H" 
			},
			{
				"x": -0.4540987535,
				"y": 3.4908555501,
				"z": -1.3132928423,
				"element": "H" 
			},
			{
				"x": -1.2416657831,
				"y": 1.1096626248,
				"z": -1.3149006909,
				"element": "H" 
			}
		],
		 "valence_orbital": [ 
			{
				"type": "occ",
				"energy": -0.29379,
				"method": "rhf"
			},
			{
				"type": "occ",
				"energy": -0.2723,
				"method": "rhf"
			},
			{
				"type": "occ",
				"energy": -0.26646,
				"method": "rhf"
			},
			{
				"type": "occ",
				"energy": -0.25545,
				"method": "rhf"
			},
			{
				"type": "occ",
				"energy": -0.22123,
				"method": "rhf"
			},
			{
				"type": "unocc",
				"energy": -0.03275,
				"method": "rhf"
			},
			{
				"type": "unocc",
				"energy": -0.02293,
				"method": "rhf"
			},
			{
				"type": "unocc",
				"energy": 0.00229,
				"method": "rhf"
			},
			{
				"type": "unocc",
				"energy": 0.02737,
				"method": "rhf"
			},
			{
				"type": "unocc",
				"energy": 0.0525,
				"method": "rhf"
			}
		],
		"cosmo_sigma_profile": { 
			"-0.025": 0.0,
			"-0.024": 0.0,
			"-0.023": 0.0,
			"-0.022": 0.0,
			"-0.021": 0.0,
			"-0.02": 0.0,
			"-0.019": 0.0,
			"-0.018": 0.0,
			"-0.017": 0.0,
			"-0.016": 0.0,
			"-0.015": 0.0,
			"-0.014": 0.0,
			"-0.013": 0.0350210956958,
			"-0.012": 1.47137081318,
			"-0.011": 1.43872742581,
			"-0.01": 1.21759405828,
			"-0.009": 1.42533351994,
			"-0.008": 5.2787532087,
			"-0.007": 14.0694790929,
			"-0.006": 15.9633498215,
			"-0.005": 18.523568551,
			"-0.004": 15.731168783,
			"-0.003": 11.6995252815,
			"-0.002": 10.7297251574,
			"-0.001": 11.814552411,
			"0.0": 16.839741934,
			"0.001": 17.5805108784,
			"0.002": 18.9448714301,
			"0.003": 18.9623070225,
			"0.004": 15.8216887352,
			"0.005": 5.65466533539,
			"0.006": 4.17329430345,
			"0.007": 3.34266684887,
			"0.008": 1.81325711652,
			"0.009": 1.411533904,
			"0.01": 2.63886753084,
			"0.011": 1.96007395248,
			"0.012": 2.76999797953,
			"0.013": 3.56809393732,
			"0.014": 2.63733264438,
			"0.015": 2.41673785206,
			"0.016": 1.92907732297,
			"0.017": 0.256159534162,
			"0.018": 0.0,
			"0.019": 0.0,
			"0.02": 0.0,
			"0.021": 0.0,
			"0.022": 0.0,
			"0.023": 0.0,
			"0.024": 0.0,
			"0.025": 0.0
		}
	}
}
