{
	 "smiles": "CC(=N/C1=C2C(N)=CC=CC2=CC=C1)C1=C(O)C2=CC=CC=C2N(C2=CC=CC=C2)C1=O", 
	 "Tm": 573.15, 
	 "num_atms": 53, 
	 "gaussian": { 
		 "optdone": 1, 
		 "sigma_profile": "yes", 
		 "theory": "DFT", 
		 "functional": "B3LYP", 
		 "basiset": "6-31G**", 
		 "properties": { 
			 "R2extent": 16804.6172, 
			 "electric_dipole_moment_norm": 3.60403964185, 
			 "electric_quadrupole_moment_norm": 12.9976819418, 
			 "total_energy": -1356.27748687, 
			 "HOMO_LUMO_gap": 0.11231, 
			 "cosmo_polarized_energy": -17.07, 
			 "cosmo_cavitation_energy": 55.33, 
			 "cosmo_dispersion_energy": -38.4, 
			 "cosmo_repulsion_energy": 2.81, 
			 "cosmo_total_nonelectrostatic_energy": 19.74, 
			 "SMD_solvation_energy": 9.21 
		},
		"coords": [
			{
				"x": -0.116393559,
				"y": -0.136589511,
				"z": -2.6811334277,
				"element": "C" 
			},
			{
				"x": -0.6435453274,
				"y": -0.2296003888,
				"z": -1.2730135738,
				"element": "C" 
			},
			{
				"x": -1.6662016673,
				"y": -0.9871134059,
				"z": -0.9595491734,
				"element": "N" 
			},
			{
				"x": -2.4983482769,
				"y": -1.6498118863,
				"z": -1.8999911532,
				"element": "C" 
			},
			{
				"x": -2.6045152588,
				"y": -3.0844757941,
				"z": -1.9323365362,
				"element": "C" 
			},
			{
				"x": -1.8133573653,
				"y": -3.9923829241,
				"z": -1.1334055328,
				"element": "C" 
			},
			{
				"x": -0.8167549775,
				"y": -3.5523466302,
				"z": -0.2692197068,
				"element": "N" 
			},
			{
				"x": -2.0096806353,
				"y": -5.3643436219,
				"z": -1.2712983215,
				"element": "C" 
			},
			{
				"x": -2.948809129,
				"y": -5.8958566896,
				"z": -2.1694889831,
				"element": "C" 
			},
			{
				"x": -3.7166086875,
				"y": -5.0614614121,
				"z": -2.9472585363,
				"element": "C" 
			},
			{
				"x": -3.562895063,
				"y": -3.6546540927,
				"z": -2.8474252604,
				"element": "C" 
			},
			{
				"x": -4.3615645395,
				"y": -2.8040569243,
				"z": -3.6593294243,
				"element": "C" 
			},
			{
				"x": -4.2353699213,
				"y": -1.4385285905,
				"z": -3.5960018387,
				"element": "C" 
			},
			{
				"x": -3.301936168,
				"y": -0.8635482729,
				"z": -2.7119202548,
				"element": "C" 
			},
			{
				"x": -0.0042673378,
				"y": 0.4958373718,
				"z": -0.1668848026,
				"element": "C" 
			},
			{
				"x": -0.5197695613,
				"y": 0.3793726491,
				"z": 1.1330815281,
				"element": "C" 
			},
			{
				"x": -1.5656692124,
				"y": -0.374819279,
				"z": 1.4106484196,
				"element": "O" 
			},
			{
				"x": 0.0797545483,
				"y": 1.0830386057,
				"z": 2.2459187952,
				"element": "C" 
			},
			{
				"x": -0.4391232521,
				"y": 0.9567909354,
				"z": 3.5490101128,
				"element": "C" 
			},
			{
				"x": 0.1431770359,
				"y": 1.628751055,
				"z": 4.6098591968,
				"element": "C" 
			},
			{
				"x": 1.2630859455,
				"y": 2.4412952065,
				"z": 4.3741146893,
				"element": "C" 
			},
			{
				"x": 1.7927104131,
				"y": 2.582760449,
				"z": 3.0993980888,
				"element": "C" 
			},
			{
				"x": 1.20612538,
				"y": 1.9043346969,
				"z": 2.0121579328,
				"element": "C" 
			},
			{
				"x": 1.7039051425,
				"y": 2.0221907943,
				"z": 0.7179089301,
				"element": "N" 
			},
			{
				"x": 2.8458299337,
				"y": 2.868594863,
				"z": 0.4590523614,
				"element": "C" 
			},
			{
				"x": 4.1329795669,
				"y": 2.3326065045,
				"z": 0.5189726978,
				"element": "C" 
			},
			{
				"x": 5.2351728998,
				"y": 3.1549572263,
				"z": 0.2830128653,
				"element": "C" 
			},
			{
				"x": 5.0502258998,
				"y": 4.5073183537,
				"z": -0.0116038161,
				"element": "C" 
			},
			{
				"x": 3.7598618555,
				"y": 5.0375968165,
				"z": -0.0721581453,
				"element": "C" 
			},
			{
				"x": 2.6547133938,
				"y": 4.2189581676,
				"z": 0.1627398138,
				"element": "C" 
			},
			{
				"x": 1.1517107707,
				"y": 1.3648900146,
				"z": -0.4105842509,
				"element": "C" 
			},
			{
				"x": 1.6690461278,
				"y": 1.5630408057,
				"z": -1.5072580775,
				"element": "O" 
			},
			{
				"x": -0.6686580078,
				"y": -0.8063448215,
				"z": -3.3389107812,
				"element": "H" 
			},
			{
				"x": -0.1788914163,
				"y": 0.8879840061,
				"z": -3.0554862246,
				"element": "H" 
			},
			{
				"x": 0.9471229422,
				"y": -0.3812475075,
				"z": -2.6921121463,
				"element": "H" 
			},
			{
				"x": -0.9227281738,
				"y": -2.6277044856,
				"z": 0.1159464844,
				"element": "H" 
			},
			{
				"x": -0.5211219741,
				"y": -4.2395220854,
				"z": 0.409577435,
				"element": "H" 
			},
			{
				"x": -1.407864911,
				"y": -6.0367323503,
				"z": -0.6644627871,
				"element": "H" 
			},
			{
				"x": -3.0636927295,
				"y": -6.9739517775,
				"z": -2.2401186383,
				"element": "H" 
			},
			{
				"x": -4.4463253098,
				"y": -5.4594783167,
				"z": -3.6458534468,
				"element": "H" 
			},
			{
				"x": -5.078272098,
				"y": -3.2629780325,
				"z": -4.3346791963,
				"element": "H" 
			},
			{
				"x": -4.8518876216,
				"y": -0.7954586668,
				"z": -4.2172999499,
				"element": "H" 
			},
			{
				"x": -3.2130446877,
				"y": 0.2157426652,
				"z": -2.638494715,
				"element": "H" 
			},
			{
				"x": -1.8665753976,
				"y": -0.7626935837,
				"z": 0.4749376248,
				"element": "H" 
			},
			{
				"x": -1.3047697944,
				"y": 0.3205432029,
				"z": 3.6927816051,
				"element": "H" 
			},
			{
				"x": -0.2609292393,
				"y": 1.5286726559,
				"z": 5.6119504303,
				"element": "H" 
			},
			{
				"x": 1.7292305863,
				"y": 2.9726216496,
				"z": 5.1990246876,
				"element": "H" 
			},
			{
				"x": 2.6564204245,
				"y": 3.2140786672,
				"z": 2.9352344509,
				"element": "H" 
			},
			{
				"x": 4.2619669124,
				"y": 1.2785445373,
				"z": 0.7432908633,
				"element": "H" 
			},
			{
				"x": 6.236936415,
				"y": 2.7380616271,
				"z": 0.3267488885,
				"element": "H" 
			},
			{
				"x": 5.9092674972,
				"y": 5.1456741871,
				"z": -0.1959957676,
				"element": "H" 
			},
			{
				"x": 3.6118645737,
				"y": 6.0878471738,
				"z": -0.3052477739,
				"element": "H" 
			},
			{
				"x": 1.6460630359,
				"y": 4.6166961632,
				"z": 0.1131543406,
				"element": "H" 
			}
		],
		 "valence_orbital": [ 
			{
				"type": "occ",
				"energy": -0.24101,
				"method": "rhf"
			},
			{
				"type": "occ",
				"energy": -0.23744,
				"method": "rhf"
			},
			{
				"type": "occ",
				"energy": -0.23088,
				"method": "rhf"
			},
			{
				"type": "occ",
				"energy": -0.22008,
				"method": "rhf"
			},
			{
				"type": "occ",
				"energy": -0.17869,
				"method": "rhf"
			},
			{
				"type": "unocc",
				"energy": -0.06638,
				"method": "rhf"
			},
			{
				"type": "unocc",
				"energy": -0.02567,
				"method": "rhf"
			},
			{
				"type": "unocc",
				"energy": -0.01446,
				"method": "rhf"
			},
			{
				"type": "unocc",
				"energy": -0.01358,
				"method": "rhf"
			},
			{
				"type": "unocc",
				"energy": -0.01093,
				"method": "rhf"
			}
		],
		"cosmo_sigma_profile": { 
			"-0.025": 0.0,
			"-0.024": 0.0,
			"-0.023": 0.0,
			"-0.022": 0.0,
			"-0.021": 0.0,
			"-0.02": 0.0,
			"-0.019": 0.0,
			"-0.018": 0.0,
			"-0.017": 0.0,
			"-0.016": 0.0,
			"-0.015": 0.0,
			"-0.014": 0.0,
			"-0.013": 0.0593319800439,
			"-0.012": 1.02161684547,
			"-0.011": 1.71560841507,
			"-0.01": 1.13693996428,
			"-0.009": 1.42315248798,
			"-0.008": 2.09399280567,
			"-0.007": 7.41891486452,
			"-0.006": 23.1338193592,
			"-0.005": 34.760180404,
			"-0.004": 37.9858511827,
			"-0.003": 33.9590636416,
			"-0.002": 35.6560077809,
			"-0.001": 37.7655069794,
			"0.0": 36.3123865991,
			"0.001": 28.7033711871,
			"0.002": 30.9478354928,
			"0.003": 29.3464096621,
			"0.004": 32.8228361533,
			"0.005": 25.4108456486,
			"0.006": 14.2456456567,
			"0.007": 7.43783941553,
			"0.008": 3.80019725592,
			"0.009": 4.10426081067,
			"0.01": 2.14774240012,
			"0.011": 2.27149655796,
			"0.012": 2.68824305578,
			"0.013": 3.54693684468,
			"0.014": 2.27499053034,
			"0.015": 0.0564700442659,
			"0.016": 0.0,
			"0.017": 0.0,
			"0.018": 0.0,
			"0.019": 0.0,
			"0.02": 0.0,
			"0.021": 0.0,
			"0.022": 0.0,
			"0.023": 0.0,
			"0.024": 0.0,
			"0.025": 0.0
		}
	}
}
