{
	 "smiles": "ClCC1=CC2=C(NC1=O)C=CC=C2", 
	 "Tm": 473.15, 
	 "num_atms": 21, 
	 "gaussian": { 
		 "optdone": 1, 
		 "sigma_profile": "yes", 
		 "theory": "DFT", 
		 "functional": "B3LYP", 
		 "basiset": "6-31G**", 
		 "properties": { 
			 "R2extent": 3568.7995, 
			 "electric_dipole_moment_norm": 5.38353309733, 
			 "electric_quadrupole_moment_norm": 14.6298433823, 
			 "total_energy": -976.084808206, 
			 "HOMO_LUMO_gap": 0.15919, 
			 "cosmo_polarized_energy": -15.11, 
			 "cosmo_cavitation_energy": 27.02, 
			 "cosmo_dispersion_energy": -19.99, 
			 "cosmo_repulsion_energy": 1.57, 
			 "cosmo_total_nonelectrostatic_energy": 8.6, 
			 "SMD_solvation_energy": 4.6 
		},
		"coords": [
			{
				"x": 0.4648182307,
				"y": -2.9792127547,
				"z": -0.5386640045,
				"element": "Cl" 
			},
			{
				"x": 1.1211087196,
				"y": -1.3392967268,
				"z": -0.0313982926,
				"element": "C" 
			},
			{
				"x": 0.0300953588,
				"y": -0.4056009044,
				"z": 0.3743759352,
				"element": "C" 
			},
			{
				"x": -0.5952673421,
				"y": 0.4292143673,
				"z": -0.4987013376,
				"element": "C" 
			},
			{
				"x": -1.6573651135,
				"y": 1.3110984596,
				"z": -0.0982763915,
				"element": "C" 
			},
			{
				"x": -2.0566290508,
				"y": 1.2949006869,
				"z": 1.2614742534,
				"element": "C" 
			},
			{
				"x": -1.3961951581,
				"y": 0.4438296506,
				"z": 2.1245872267,
				"element": "N" 
			},
			{
				"x": -0.3559099759,
				"y": -0.4248553825,
				"z": 1.7963803396,
				"element": "C" 
			},
			{
				"x": 0.1751269274,
				"y": -1.1183535976,
				"z": 2.657575625,
				"element": "O" 
			},
			{
				"x": -3.0949535067,
				"y": 2.1313732568,
				"z": 1.7031932993,
				"element": "C" 
			},
			{
				"x": -3.7270146505,
				"y": 2.9753548948,
				"z": 0.8007013286,
				"element": "C" 
			},
			{
				"x": -3.3423006781,
				"y": 3.0040193703,
				"z": -0.5505034715,
				"element": "C" 
			},
			{
				"x": -2.3187656437,
				"y": 2.179071391,
				"z": -0.9893440174,
				"element": "C" 
			},
			{
				"x": 1.7846830891,
				"y": -1.5423437873,
				"z": 0.8071882085,
				"element": "H" 
			},
			{
				"x": 1.6791380475,
				"y": -0.969828321,
				"z": -0.891091852,
				"element": "H" 
			},
			{
				"x": -0.2975100297,
				"y": 0.4326619073,
				"z": -1.5455965843,
				"element": "H" 
			},
			{
				"x": -1.6581218061,
				"y": 0.4233874701,
				"z": 3.1027928489,
				"element": "H" 
			},
			{
				"x": -3.3950083092,
				"y": 2.1114668158,
				"z": 2.7472987433,
				"element": "H" 
			},
			{
				"x": -4.5289939856,
				"y": 3.6201009582,
				"z": 1.1475311297,
				"element": "H" 
			},
			{
				"x": -3.8458298832,
				"y": 3.6682492559,
				"z": -1.2452001219,
				"element": "H" 
			},
			{
				"x": -2.01220524,
				"y": 2.1886629897,
				"z": -2.031822865,
				"element": "H" 
			}
		],
		 "valence_orbital": [ 
			{
				"type": "occ",
				"energy": -0.29188,
				"method": "rhf"
			},
			{
				"type": "occ",
				"energy": -0.28688,
				"method": "rhf"
			},
			{
				"type": "occ",
				"energy": -0.26096,
				"method": "rhf"
			},
			{
				"type": "occ",
				"energy": -0.25337,
				"method": "rhf"
			},
			{
				"type": "occ",
				"energy": -0.2281,
				"method": "rhf"
			},
			{
				"type": "unocc",
				"energy": -0.06891,
				"method": "rhf"
			},
			{
				"type": "unocc",
				"energy": -0.01747,
				"method": "rhf"
			},
			{
				"type": "unocc",
				"energy": 0.00383,
				"method": "rhf"
			},
			{
				"type": "unocc",
				"energy": 0.02698,
				"method": "rhf"
			},
			{
				"type": "unocc",
				"energy": 0.07592,
				"method": "rhf"
			}
		],
		"cosmo_sigma_profile": { 
			"-0.025": 0.0,
			"-0.024": 0.0,
			"-0.023": 0.0,
			"-0.022": 0.0,
			"-0.021": 0.0,
			"-0.02": 0.0,
			"-0.019": 0.0,
			"-0.018": 0.0,
			"-0.017": 0.0,
			"-0.016": 0.279944831786,
			"-0.015": 1.13790143996,
			"-0.014": 1.24962415522,
			"-0.013": 1.1323704955,
			"-0.012": 1.28521880604,
			"-0.011": 1.23726546586,
			"-0.01": 1.30310929081,
			"-0.009": 0.938102861467,
			"-0.008": 7.45205623951,
			"-0.007": 10.2193398756,
			"-0.006": 12.7850189016,
			"-0.005": 14.0345324304,
			"-0.004": 12.6843307848,
			"-0.003": 10.7523407783,
			"-0.002": 11.4669842349,
			"-0.001": 12.8946328884,
			"0.0": 15.7048867927,
			"0.001": 15.6296732299,
			"0.002": 13.8146754899,
			"0.003": 15.3220712775,
			"0.004": 14.2199402148,
			"0.005": 7.84211768936,
			"0.006": 9.43330229478,
			"0.007": 9.99713955803,
			"0.008": 1.27754039663,
			"0.009": 1.70030283334,
			"0.01": 1.29245384395,
			"0.011": 1.53705045827,
			"0.012": 1.45691416406,
			"0.013": 4.86197681011,
			"0.014": 3.56664628681,
			"0.015": 0.0737612198767,
			"0.016": 0.0,
			"0.017": 0.0,
			"0.018": 0.0,
			"0.019": 0.0,
			"0.02": 0.0,
			"0.021": 0.0,
			"0.022": 0.0,
			"0.023": 0.0,
			"0.024": 0.0,
			"0.025": 0.0
		}
	}
}
