{
	 "smiles": "CC(CC(C(N)=O)(C1=CC=CC=C1)C1=CC=CC=N1)N(C)C", 
	 "Tm": 429.15, 
	 "num_atms": 45, 
	 "gaussian": { 
		 "optdone": 1, 
		 "sigma_profile": "yes", 
		 "theory": "DFT", 
		 "functional": "B3LYP", 
		 "basiset": "6-31G**", 
		 "properties": { 
			 "R2extent": 6536.319, 
			 "electric_dipole_moment_norm": 4.57996411012, 
			 "electric_quadrupole_moment_norm": 8.20115840781, 
			 "total_energy": -939.259971169, 
			 "HOMO_LUMO_gap": 0.16256, 
			 "cosmo_polarized_energy": -15.21, 
			 "cosmo_cavitation_energy": 44.48, 
			 "cosmo_dispersion_energy": -29.1, 
			 "cosmo_repulsion_energy": 2.23, 
			 "cosmo_total_nonelectrostatic_energy": 17.61, 
			 "SMD_solvation_energy": 7.86 
		},
		"coords": [
			{
				"x": -3.0410311951,
				"y": 0.1154176963,
				"z": 0.1277801894,
				"element": "C" 
			},
			{
				"x": -1.5466799655,
				"y": 0.3205486725,
				"z": -0.1998981881,
				"element": "C" 
			},
			{
				"x": -0.7014825119,
				"y": -0.7643066495,
				"z": 0.4975148442,
				"element": "C" 
			},
			{
				"x": 0.8445785952,
				"y": -0.5996788915,
				"z": 0.3871178651,
				"element": "C" 
			},
			{
				"x": 1.249757268,
				"y": -1.051375245,
				"z": -1.0591824983,
				"element": "C" 
			},
			{
				"x": 2.1858816717,
				"y": -0.3199418787,
				"z": -1.7189269672,
				"element": "N" 
			},
			{
				"x": 0.8107315471,
				"y": -2.1140885607,
				"z": -1.4851103513,
				"element": "O" 
			},
			{
				"x": 1.5977996034,
				"y": -1.6035179342,
				"z": 1.2965022699,
				"element": "C" 
			},
			{
				"x": 0.9696990877,
				"y": -2.6794076931,
				"z": 1.9347983407,
				"element": "C" 
			},
			{
				"x": 1.7022876661,
				"y": -3.5709476706,
				"z": 2.7237066465,
				"element": "C" 
			},
			{
				"x": 3.0771560293,
				"y": -3.4089030669,
				"z": 2.8827889214,
				"element": "C" 
			},
			{
				"x": 3.7183156941,
				"y": -2.3474708426,
				"z": 2.2399430621,
				"element": "C" 
			},
			{
				"x": 2.9860085982,
				"y": -1.4585951502,
				"z": 1.4563595376,
				"element": "C" 
			},
			{
				"x": 1.2060178542,
				"y": 0.8271374832,
				"z": 0.8519357189,
				"element": "C" 
			},
			{
				"x": 1.0170684724,
				"y": 1.1544220717,
				"z": 2.2081468923,
				"element": "C" 
			},
			{
				"x": 1.2662579832,
				"y": 2.4485943576,
				"z": 2.6470154589,
				"element": "C" 
			},
			{
				"x": 1.7135924954,
				"y": 3.4017491165,
				"z": 1.7291042652,
				"element": "C" 
			},
			{
				"x": 1.8924518493,
				"y": 2.9957179051,
				"z": 0.4124145805,
				"element": "C" 
			},
			{
				"x": 1.6421402031,
				"y": 1.7495754886,
				"z": -0.0190296372,
				"element": "N" 
			},
			{
				"x": -1.2342872275,
				"y": 0.4245231467,
				"z": -1.6354777442,
				"element": "N" 
			},
			{
				"x": -1.7900332619,
				"y": -0.6309160864,
				"z": -2.476293298,
				"element": "C" 
			},
			{
				"x": -1.5014509053,
				"y": 1.7443597258,
				"z": -2.1871152031,
				"element": "C" 
			},
			{
				"x": -3.3877645125,
				"y": -0.88033108,
				"z": -0.1671119718,
				"element": "H" 
			},
			{
				"x": -3.6642821751,
				"y": 0.8550949898,
				"z": -0.3850412589,
				"element": "H" 
			},
			{
				"x": -3.2174175549,
				"y": 0.2226228623,
				"z": 1.2033414921,
				"element": "H" 
			},
			{
				"x": -1.2568360853,
				"y": 1.2875745668,
				"z": 0.2280818801,
				"element": "H" 
			},
			{
				"x": -0.9520238033,
				"y": -1.7489860921,
				"z": 0.0949360909,
				"element": "H" 
			},
			{
				"x": -0.9822242209,
				"y": -0.7675405595,
				"z": 1.5567111225,
				"element": "H" 
			},
			{
				"x": 2.2344896902,
				"y": 0.6693527194,
				"z": -1.483755648,
				"element": "H" 
			},
			{
				"x": 2.3549110926,
				"y": -0.6173368286,
				"z": -2.6700326972,
				"element": "H" 
			},
			{
				"x": -0.0954167141,
				"y": -2.8401179194,
				"z": 1.8195696576,
				"element": "H" 
			},
			{
				"x": 1.1908487489,
				"y": -4.3971870237,
				"z": 3.2098682555,
				"element": "H" 
			},
			{
				"x": 3.6448701498,
				"y": -4.1034036004,
				"z": 3.4954236826,
				"element": "H" 
			},
			{
				"x": 4.7911367841,
				"y": -2.2121907841,
				"z": 2.3461564323,
				"element": "H" 
			},
			{
				"x": 3.4982987542,
				"y": -0.6451771759,
				"z": 0.9508659617,
				"element": "H" 
			},
			{
				"x": 0.6898218856,
				"y": 0.3909259442,
				"z": 2.9052039607,
				"element": "H" 
			},
			{
				"x": 1.1199640434,
				"y": 2.710210508,
				"z": 3.6911842549,
				"element": "H" 
			},
			{
				"x": 1.9252539236,
				"y": 4.4236455503,
				"z": 2.0261270035,
				"element": "H" 
			},
			{
				"x": 2.2534760359,
				"y": 3.694066837,
				"z": -0.3399913002,
				"element": "H" 
			},
			{
				"x": -1.5002250639,
				"y": -1.6114012533,
				"z": -2.0951638425,
				"element": "H" 
			},
			{
				"x": -2.889681458,
				"y": -0.5875262145,
				"z": -2.5753876702,
				"element": "H" 
			},
			{
				"x": -1.3642852236,
				"y": -0.5409303958,
				"z": -3.4812577299,
				"element": "H" 
			},
			{
				"x": -2.5747407249,
				"y": 2.013646332,
				"z": -2.2235453134,
				"element": "H" 
			},
			{
				"x": -0.9779558471,
				"y": 2.5059975042,
				"z": -1.600767531,
				"element": "H" 
			},
			{
				"x": -1.1203972761,
				"y": 1.7910951185,
				"z": -3.2132095365,
				"element": "H" 
			}
		],
		 "valence_orbital": [ 
			{
				"type": "occ",
				"energy": -0.24782,
				"method": "rhf"
			},
			{
				"type": "occ",
				"energy": -0.24256,
				"method": "rhf"
			},
			{
				"type": "occ",
				"energy": -0.23793,
				"method": "rhf"
			},
			{
				"type": "occ",
				"energy": -0.22435,
				"method": "rhf"
			},
			{
				"type": "occ",
				"energy": -0.1972,
				"method": "rhf"
			},
			{
				"type": "unocc",
				"energy": -0.03464,
				"method": "rhf"
			},
			{
				"type": "unocc",
				"energy": -0.02259,
				"method": "rhf"
			},
			{
				"type": "unocc",
				"energy": 0.00114,
				"method": "rhf"
			},
			{
				"type": "unocc",
				"energy": 0.00647,
				"method": "rhf"
			},
			{
				"type": "unocc",
				"energy": 0.05587,
				"method": "rhf"
			}
		],
		"cosmo_sigma_profile": { 
			"-0.025": 0.0,
			"-0.024": 0.0,
			"-0.023": 0.0,
			"-0.022": 0.0,
			"-0.021": 0.0,
			"-0.02": 0.0,
			"-0.019": 0.0,
			"-0.018": 0.0,
			"-0.017": 0.0,
			"-0.016": 0.0,
			"-0.015": 0.0,
			"-0.014": 0.0,
			"-0.013": 0.374186785227,
			"-0.012": 0.876923778165,
			"-0.011": 1.51146367466,
			"-0.01": 0.786490132989,
			"-0.009": 0.610591189901,
			"-0.008": 1.43758981675,
			"-0.007": 5.92326740571,
			"-0.006": 13.2252916687,
			"-0.005": 20.124116393,
			"-0.004": 22.6369859179,
			"-0.003": 31.685875235,
			"-0.002": 37.7457033892,
			"-0.001": 37.5575424322,
			"0.0": 41.359598828,
			"0.001": 32.4234008857,
			"0.002": 22.593484477,
			"0.003": 17.9038368006,
			"0.004": 11.3357091824,
			"0.005": 11.7548886362,
			"0.006": 10.7632689776,
			"0.007": 5.07065001079,
			"0.008": 3.7195105422,
			"0.009": 3.57986113024,
			"0.01": 2.92665314746,
			"0.011": 2.1748312838,
			"0.012": 2.22129195294,
			"0.013": 1.78685149948,
			"0.014": 3.67849390312,
			"0.015": 1.75414246592,
			"0.016": 0.129382960177,
			"0.017": 0.0,
			"0.018": 0.0,
			"0.019": 0.0,
			"0.02": 0.0,
			"0.021": 0.0,
			"0.022": 0.0,
			"0.023": 0.0,
			"0.024": 0.0,
			"0.025": 0.0
		}
	}
}
