{
	 "smiles": "CS(=O)(=O)C1=C(Cl)C=C(Cl)C(=C1)C(O)=O", 
	 "Tm": 484.15, 
	 "num_atms": 21, 
	 "gaussian": { 
		 "optdone": 1, 
		 "sigma_profile": "yes", 
		 "theory": "DFT", 
		 "functional": "B3LYP", 
		 "basiset": "6-31G**", 
		 "properties": { 
			 "R2extent": 4985.7117, 
			 "electric_dipole_moment_norm": 6.03960565683, 
			 "electric_quadrupole_moment_norm": 21.384626946, 
			 "total_energy": -1927.86272991, 
			 "HOMO_LUMO_gap": 0.1988, 
			 "cosmo_polarized_energy": -21.02, 
			 "cosmo_cavitation_energy": 30.39, 
			 "cosmo_dispersion_energy": -22.91, 
			 "cosmo_repulsion_energy": 1.73, 
			 "cosmo_total_nonelectrostatic_energy": 9.21, 
			 "SMD_solvation_energy": 5.73 
		},
		"coords": [
			{
				"x": -2.3631421811,
				"y": 1.4699409161,
				"z": 1.8251682879,
				"element": "C" 
			},
			{
				"x": -1.9970895013,
				"y": 1.139044602,
				"z": 0.0891488069,
				"element": "S" 
			},
			{
				"x": -2.8032940258,
				"y": -0.0014284679,
				"z": -0.3569830925,
				"element": "O" 
			},
			{
				"x": -2.0470414249,
				"y": 2.421573077,
				"z": -0.6243465703,
				"element": "O" 
			},
			{
				"x": -0.2428409401,
				"y": 0.6374524067,
				"z": 0.0954391133,
				"element": "C" 
			},
			{
				"x": 0.2432961922,
				"y": -0.5638562611,
				"z": 0.6326427489,
				"element": "C" 
			},
			{
				"x": -0.773997398,
				"y": -1.710395487,
				"z": 1.4651760393,
				"element": "Cl" 
			},
			{
				"x": 1.5972368549,
				"y": -0.8718755533,
				"z": 0.5237357322,
				"element": "C" 
			},
			{
				"x": 2.461157187,
				"y": 0.0069228024,
				"z": -0.1286473073,
				"element": "C" 
			},
			{
				"x": 4.1499780553,
				"y": -0.5014149269,
				"z": -0.1872400185,
				"element": "Cl" 
			},
			{
				"x": 2.0112015834,
				"y": 1.2182805047,
				"z": -0.6779914847,
				"element": "C" 
			},
			{
				"x": 0.6430952899,
				"y": 1.5005921956,
				"z": -0.5388636512,
				"element": "C" 
			},
			{
				"x": 2.8031632916,
				"y": 2.3013201331,
				"z": -1.3907674286,
				"element": "C" 
			},
			{
				"x": 4.0310453217,
				"y": 2.0209644906,
				"z": -1.8582017064,
				"element": "O" 
			},
			{
				"x": 2.3235912118,
				"y": 3.3978756807,
				"z": -1.5572593449,
				"element": "O" 
			},
			{
				"x": -1.7192234834,
				"y": 2.2792488732,
				"z": 2.1719387195,
				"element": "H" 
			},
			{
				"x": -3.4097625163,
				"y": 1.7810244507,
				"z": 1.8501163294,
				"element": "H" 
			},
			{
				"x": -2.2232441379,
				"y": 0.5616273398,
				"z": 2.4108926892,
				"element": "H" 
			},
			{
				"x": 1.9769243737,
				"y": -1.794689645,
				"z": 0.9444919862,
				"element": "H" 
			},
			{
				"x": 0.2727530743,
				"y": 2.4342300079,
				"z": -0.9484446635,
				"element": "H" 
			},
			{
				"x": 4.3006931732,
				"y": 1.1116628607,
				"z": -1.6539051846,
				"element": "H" 
			}
		],
		 "valence_orbital": [ 
			{
				"type": "occ",
				"energy": -0.31199,
				"method": "rhf"
			},
			{
				"type": "occ",
				"energy": -0.30918,
				"method": "rhf"
			},
			{
				"type": "occ",
				"energy": -0.30021,
				"method": "rhf"
			},
			{
				"type": "occ",
				"energy": -0.29456,
				"method": "rhf"
			},
			{
				"type": "occ",
				"energy": -0.28828,
				"method": "rhf"
			},
			{
				"type": "unocc",
				"energy": -0.08948,
				"method": "rhf"
			},
			{
				"type": "unocc",
				"energy": -0.06702,
				"method": "rhf"
			},
			{
				"type": "unocc",
				"energy": -0.03171,
				"method": "rhf"
			},
			{
				"type": "unocc",
				"energy": 0.00423,
				"method": "rhf"
			},
			{
				"type": "unocc",
				"energy": 0.00913,
				"method": "rhf"
			}
		],
		"cosmo_sigma_profile": { 
			"-0.025": 0.0,
			"-0.024": 0.0,
			"-0.023": 0.0,
			"-0.022": 0.0,
			"-0.021": 0.0,
			"-0.02": 0.0,
			"-0.019": 0.0,
			"-0.018": 0.0,
			"-0.017": 0.0,
			"-0.016": 0.0,
			"-0.015": 0.0621296559334,
			"-0.014": 0.541250395808,
			"-0.013": 1.27082485391,
			"-0.012": 1.17318715199,
			"-0.011": 1.21321433488,
			"-0.01": 3.21660868671,
			"-0.009": 6.69339451976,
			"-0.008": 7.36631097931,
			"-0.007": 10.9548455431,
			"-0.006": 11.9190127295,
			"-0.005": 15.016734655,
			"-0.004": 17.426934812,
			"-0.003": 22.6344582364,
			"-0.002": 24.7696576737,
			"-0.001": 14.5055507551,
			"0.0": 12.2909338271,
			"0.001": 13.5196431223,
			"0.002": 12.9480331214,
			"0.003": 6.04221854142,
			"0.004": 4.69082146121,
			"0.005": 5.11354964062,
			"0.006": 3.89156977759,
			"0.007": 5.85900087975,
			"0.008": 6.81572436058,
			"0.009": 8.5242394022,
			"0.01": 12.6032790873,
			"0.011": 14.1846051421,
			"0.012": 3.44973475836,
			"0.013": 0.217833505852,
			"0.014": 0.0,
			"0.015": 0.0,
			"0.016": 0.0,
			"0.017": 0.0,
			"0.018": 0.0,
			"0.019": 0.0,
			"0.02": 0.0,
			"0.021": 0.0,
			"0.022": 0.0,
			"0.023": 0.0,
			"0.024": 0.0,
			"0.025": 0.0
		}
	}
}
