{
	 "smiles": "CC1=NC(=CS1)C1=CC=C(S1)C(O)=O", 
	 "Tm": 473.15, 
	 "num_atms": 21, 
	 "gaussian": { 
		 "optdone": 1, 
		 "sigma_profile": "yes", 
		 "theory": "DFT", 
		 "functional": "B3LYP", 
		 "basiset": "6-31G**", 
		 "properties": { 
			 "R2extent": 4814.4972, 
			 "electric_dipole_moment_norm": 6.42025348799, 
			 "electric_quadrupole_moment_norm": 25.325473765, 
			 "total_energy": -1348.74714208, 
			 "HOMO_LUMO_gap": 0.15449, 
			 "cosmo_polarized_energy": -19.46, 
			 "cosmo_cavitation_energy": 29.57, 
			 "cosmo_dispersion_energy": -22.74, 
			 "cosmo_repulsion_energy": 1.69, 
			 "cosmo_total_nonelectrostatic_energy": 8.53, 
			 "SMD_solvation_energy": 4.64 
		},
		"coords": [
			{
				"x": 3.4792782622,
				"y": -1.9452074958,
				"z": 1.4822137649,
				"element": "C" 
			},
			{
				"x": 2.5377851719,
				"y": -0.8163429233,
				"z": 1.1967795276,
				"element": "C" 
			},
			{
				"x": 1.5458960796,
				"y": -0.8797102612,
				"z": 0.3619813077,
				"element": "N" 
			},
			{
				"x": 0.8402132418,
				"y": 0.3100764938,
				"z": 0.2951953227,
				"element": "C" 
			},
			{
				"x": 1.3161205996,
				"y": 1.3092415532,
				"z": 1.1086268264,
				"element": "C" 
			},
			{
				"x": 2.6935945296,
				"y": 0.7534348268,
				"z": 1.9934128183,
				"element": "S" 
			},
			{
				"x": -0.3044345076,
				"y": 0.3885741251,
				"z": -0.6026643832,
				"element": "C" 
			},
			{
				"x": -1.1584631522,
				"y": 1.4517165658,
				"z": -0.8330817453,
				"element": "C" 
			},
			{
				"x": -2.160256052,
				"y": 1.1525869051,
				"z": -1.7846226111,
				"element": "C" 
			},
			{
				"x": -2.0688674247,
				"y": -0.1327467357,
				"z": -2.2809423625,
				"element": "C" 
			},
			{
				"x": -0.7403171443,
				"y": -0.9969647003,
				"z": -1.5605119595,
				"element": "S" 
			},
			{
				"x": -2.910189962,
				"y": -0.847796044,
				"z": -3.2609627968,
				"element": "C" 
			},
			{
				"x": -3.8437737895,
				"y": -0.1070137506,
				"z": -3.9191781315,
				"element": "O" 
			},
			{
				"x": -2.8024396143,
				"y": -2.0316024439,
				"z": -3.4897305559,
				"element": "O" 
			},
			{
				"x": 3.1843923619,
				"y": -2.803040988,
				"z": 0.8755127155,
				"element": "H" 
			},
			{
				"x": 3.4509418356,
				"y": -2.2327125164,
				"z": 2.5383612617,
				"element": "H" 
			},
			{
				"x": 4.5121102803,
				"y": -1.6768740457,
				"z": 1.2369220417,
				"element": "H" 
			},
			{
				"x": 0.9414201047,
				"y": 2.3148044488,
				"z": 1.231886626,
				"element": "H" 
			},
			{
				"x": -1.0714822069,
				"y": 2.4096912046,
				"z": -0.3335309566,
				"element": "H" 
			},
			{
				"x": -2.9295007859,
				"y": 1.8657964302,
				"z": -2.0663971698,
				"element": "H" 
			},
			{
				"x": -3.7402278277,
				"y": 0.8321893516,
				"z": -3.7144695402,
				"element": "H" 
			}
		],
		 "valence_orbital": [ 
			{
				"type": "occ",
				"energy": -0.28817,
				"method": "rhf"
			},
			{
				"type": "occ",
				"energy": -0.28369,
				"method": "rhf"
			},
			{
				"type": "occ",
				"energy": -0.27278,
				"method": "rhf"
			},
			{
				"type": "occ",
				"energy": -0.26557,
				"method": "rhf"
			},
			{
				"type": "occ",
				"energy": -0.22408,
				"method": "rhf"
			},
			{
				"type": "unocc",
				"energy": -0.06959,
				"method": "rhf"
			},
			{
				"type": "unocc",
				"energy": -0.03441,
				"method": "rhf"
			},
			{
				"type": "unocc",
				"energy": 0.00025,
				"method": "rhf"
			},
			{
				"type": "unocc",
				"energy": 0.00943,
				"method": "rhf"
			},
			{
				"type": "unocc",
				"energy": 0.0369,
				"method": "rhf"
			}
		],
		"cosmo_sigma_profile": { 
			"-0.025": 0.0,
			"-0.024": 0.0,
			"-0.023": 0.0,
			"-0.022": 0.0,
			"-0.021": 0.0,
			"-0.02": 0.00913714151966,
			"-0.019": 0.452244030071,
			"-0.018": 1.19063441622,
			"-0.017": 1.11309674391,
			"-0.016": 1.12964769691,
			"-0.015": 0.954808416206,
			"-0.014": 0.463724884367,
			"-0.013": 1.60018765379,
			"-0.012": 1.13407558238,
			"-0.011": 1.73849575092,
			"-0.01": 2.03293424321,
			"-0.009": 4.99246014695,
			"-0.008": 5.33066021502,
			"-0.007": 6.06154499879,
			"-0.006": 10.9511042118,
			"-0.005": 13.5369206902,
			"-0.004": 10.9925274823,
			"-0.003": 11.7947201763,
			"-0.002": 15.1059771882,
			"-0.001": 14.8016113596,
			"0.0": 14.7389103355,
			"0.001": 22.1889286386,
			"0.002": 31.1681908497,
			"0.003": 19.8033172711,
			"0.004": 6.95985026412,
			"0.005": 4.38943422706,
			"0.006": 4.82737535354,
			"0.007": 3.53653407494,
			"0.008": 5.06100333603,
			"0.009": 4.63069052333,
			"0.01": 5.68166695545,
			"0.011": 6.55815499569,
			"0.012": 5.1843117784,
			"0.013": 1.74891922642,
			"0.014": 0.0847638914817,
			"0.015": 0.0,
			"0.016": 0.0,
			"0.017": 0.0,
			"0.018": 0.0,
			"0.019": 0.0,
			"0.02": 0.0,
			"0.021": 0.0,
			"0.022": 0.0,
			"0.023": 0.0,
			"0.024": 0.0,
			"0.025": 0.0
		}
	}
}
