{
	 "smiles": "O=C(OC1CC2OC(=O)CC2C1COC(C1=CC=CC=C1)(C1=CC=CC=C1)C1=CC=CC=C1)C1=CC=CC=C1", 
	 "Tm": 457.15, 
	 "num_atms": 69, 
	 "gaussian": { 
		 "optdone": 1, 
		 "sigma_profile": "yes", 
		 "theory": "DFT", 
		 "functional": "B3LYP", 
		 "basiset": "6-31G**", 
		 "properties": { 
			 "R2extent": 19817.2583, 
			 "electric_dipole_moment_norm": 4.71130055611, 
			 "electric_quadrupole_moment_norm": 25.5089855449, 
			 "total_energy": -1689.82983767, 
			 "HOMO_LUMO_gap": 0.17699, 
			 "cosmo_polarized_energy": -22.25, 
			 "cosmo_cavitation_energy": 69.12, 
			 "cosmo_dispersion_energy": -43.06, 
			 "cosmo_repulsion_energy": 3.25, 
			 "cosmo_total_nonelectrostatic_energy": 29.31, 
			 "SMD_solvation_energy": 12.3 
		},
		"coords": [
			{
				"x": 0.4333445339,
				"y": -0.4897209185,
				"z": 2.981044902,
				"element": "O" 
			},
			{
				"x": 1.2082466559,
				"y": 0.3957389544,
				"z": 3.2899824861,
				"element": "C" 
			},
			{
				"x": 2.1157744929,
				"y": 0.9301579867,
				"z": 2.4388996933,
				"element": "O" 
			},
			{
				"x": 2.1654434975,
				"y": 0.3928395631,
				"z": 1.0855196937,
				"element": "C" 
			},
			{
				"x": 3.5558118932,
				"y": 0.7430760871,
				"z": 0.5439611486,
				"element": "C" 
			},
			{
				"x": 3.4299400834,
				"y": 2.1805060935,
				"z": 0.0033082252,
				"element": "C" 
			},
			{
				"x": 3.8624621297,
				"y": 2.2619844381,
				"z": -1.3745104196,
				"element": "O" 
			},
			{
				"x": 2.9484442193,
				"y": 2.9095601401,
				"z": -2.1573955933,
				"element": "C" 
			},
			{
				"x": 3.1344147996,
				"y": 3.112059561,
				"z": -3.3283981979,
				"element": "O" 
			},
			{
				"x": 1.7391674996,
				"y": 3.3027149134,
				"z": -1.3113394875,
				"element": "C" 
			},
			{
				"x": 1.9124411463,
				"y": 2.5329966507,
				"z": 0.0014732013,
				"element": "C" 
			},
			{
				"x": 1.1844278254,
				"y": 1.1697255437,
				"z": 0.1851885865,
				"element": "C" 
			},
			{
				"x": 0.9202666455,
				"y": 0.4133791984,
				"z": -1.131415428,
				"element": "C" 
			},
			{
				"x": 0.5395987432,
				"y": -0.9342635112,
				"z": -0.8586244989,
				"element": "O" 
			},
			{
				"x": -0.7578913669,
				"y": -1.4031706351,
				"z": -1.2938798992,
				"element": "C" 
			},
			{
				"x": -0.9026129579,
				"y": -2.8001071559,
				"z": -0.652542112,
				"element": "C" 
			},
			{
				"x": -2.1631791019,
				"y": -3.3499392811,
				"z": -0.385821846,
				"element": "C" 
			},
			{
				"x": -2.2844851053,
				"y": -4.643938965,
				"z": 0.1225621476,
				"element": "C" 
			},
			{
				"x": -1.1462615348,
				"y": -5.4096889805,
				"z": 0.3757762019,
				"element": "C" 
			},
			{
				"x": 0.1132890376,
				"y": -4.8693444534,
				"z": 0.1129768025,
				"element": "C" 
			},
			{
				"x": 0.234684077,
				"y": -3.578306721,
				"z": -0.4012877443,
				"element": "C" 
			},
			{
				"x": -1.8302900732,
				"y": -0.4236179682,
				"z": -0.7754547749,
				"element": "C" 
			},
			{
				"x": -2.014178035,
				"y": -0.3248361957,
				"z": 0.615468516,
				"element": "C" 
			},
			{
				"x": -2.9134119361,
				"y": 0.5936550893,
				"z": 1.1530564038,
				"element": "C" 
			},
			{
				"x": -3.6441032679,
				"y": 1.4403817436,
				"z": 0.3140112803,
				"element": "C" 
			},
			{
				"x": -3.4544506924,
				"y": 1.3670371659,
				"z": -1.0641948412,
				"element": "C" 
			},
			{
				"x": -2.5509263949,
				"y": 0.4452974253,
				"z": -1.6042685916,
				"element": "C" 
			},
			{
				"x": -0.7682987679,
				"y": -1.6180383818,
				"z": -2.8237780538,
				"element": "C" 
			},
			{
				"x": -1.9510388264,
				"y": -1.959486676,
				"z": -3.4998446106,
				"element": "C" 
			},
			{
				"x": -1.9456046412,
				"y": -2.2191978996,
				"z": -4.8693294555,
				"element": "C" 
			},
			{
				"x": -0.7536199966,
				"y": -2.1546292287,
				"z": -5.5943219066,
				"element": "C" 
			},
			{
				"x": 0.4306645139,
				"y": -1.8405545683,
				"z": -4.930332021,
				"element": "C" 
			},
			{
				"x": 0.4231317055,
				"y": -1.5814043145,
				"z": -3.5575818162,
				"element": "C" 
			},
			{
				"x": 1.2726601585,
				"y": 1.0107349201,
				"z": 4.6475145337,
				"element": "C" 
			},
			{
				"x": 2.1830872211,
				"y": 2.0261272974,
				"z": 4.9728527837,
				"element": "C" 
			},
			{
				"x": 2.1959908695,
				"y": 2.5622583389,
				"z": 6.2595052921,
				"element": "C" 
			},
			{
				"x": 1.3040213363,
				"y": 2.0891159711,
				"z": 7.2251398684,
				"element": "C" 
			},
			{
				"x": 0.3962830889,
				"y": 1.0761495771,
				"z": 6.9039082607,
				"element": "C" 
			},
			{
				"x": 0.3798928317,
				"y": 0.5381737989,
				"z": 5.6195781289,
				"element": "C" 
			},
			{
				"x": 1.9406994652,
				"y": -0.6721243562,
				"z": 1.1248672984,
				"element": "H" 
			},
			{
				"x": 4.3240842992,
				"y": 0.6376873135,
				"z": 1.3130654507,
				"element": "H" 
			},
			{
				"x": 3.8160390564,
				"y": 0.0752964965,
				"z": -0.2823752048,
				"element": "H" 
			},
			{
				"x": 4.030198569,
				"y": 2.8981212202,
				"z": 0.5711322061,
				"element": "H" 
			},
			{
				"x": 1.7839478647,
				"y": 4.3861964274,
				"z": -1.1523855491,
				"element": "H" 
			},
			{
				"x": 0.8190109348,
				"y": 3.1030061238,
				"z": -1.8635674494,
				"element": "H" 
			},
			{
				"x": 1.6789655549,
				"y": 3.1561642138,
				"z": 0.8672798763,
				"element": "H" 
			},
			{
				"x": 0.2271884997,
				"y": 1.292855463,
				"z": 0.6971274747,
				"element": "H" 
			},
			{
				"x": 0.1482934079,
				"y": 0.9336053878,
				"z": -1.7049983274,
				"element": "H" 
			},
			{
				"x": 1.8231593947,
				"y": 0.3856563851,
				"z": -1.754415062,
				"element": "H" 
			},
			{
				"x": -3.0584102985,
				"y": -2.7617054199,
				"z": -0.5594745272,
				"element": "H" 
			},
			{
				"x": -3.271873752,
				"y": -5.0487357785,
				"z": 0.3265963157,
				"element": "H" 
			},
			{
				"x": -1.2396544158,
				"y": -6.4152941896,
				"z": 0.7757996007,
				"element": "H" 
			},
			{
				"x": 1.0081563052,
				"y": -5.4540229147,
				"z": 0.3079246602,
				"element": "H" 
			},
			{
				"x": 1.2150841147,
				"y": -3.1655904361,
				"z": -0.605385921,
				"element": "H" 
			},
			{
				"x": -1.4307461273,
				"y": -0.9538821572,
				"z": 1.2790338217,
				"element": "H" 
			},
			{
				"x": -3.0387403619,
				"y": 0.6499355828,
				"z": 2.2306452646,
				"element": "H" 
			},
			{
				"x": -4.3484952383,
				"y": 2.1533173057,
				"z": 0.7333968343,
				"element": "H" 
			},
			{
				"x": -4.0057362334,
				"y": 2.0271087507,
				"z": -1.7281351402,
				"element": "H" 
			},
			{
				"x": -2.4141173922,
				"y": 0.4078568952,
				"z": -2.6789979519,
				"element": "H" 
			},
			{
				"x": -2.8853260296,
				"y": -2.0298259423,
				"z": -2.9525600381,
				"element": "H" 
			},
			{
				"x": -2.8752121762,
				"y": -2.4768860205,
				"z": -5.3691681117,
				"element": "H" 
			},
			{
				"x": -0.7490373858,
				"y": -2.3552335851,
				"z": -6.6617383708,
				"element": "H" 
			},
			{
				"x": 1.3687410874,
				"y": -1.7987866856,
				"z": -5.4766109635,
				"element": "H" 
			},
			{
				"x": 1.3553255682,
				"y": -1.3672240876,
				"z": -3.0498485815,
				"element": "H" 
			},
			{
				"x": 2.8737593897,
				"y": 2.3863310549,
				"z": 4.2192955456,
				"element": "H" 
			},
			{
				"x": 2.9022303524,
				"y": 3.348341776,
				"z": 6.5100716534,
				"element": "H" 
			},
			{
				"x": 1.3170212642,
				"y": 2.5087207908,
				"z": 8.227084927,
				"element": "H" 
			},
			{
				"x": -0.2961075937,
				"y": 0.7071261426,
				"z": 7.6547458345,
				"element": "H" 
			},
			{
				"x": -0.3134844308,
				"y": -0.2499403598,
				"z": 5.3462875763,
				"element": "H" 
			}
		],
		 "valence_orbital": [ 
			{
				"type": "occ",
				"energy": -0.2521,
				"method": "rhf"
			},
			{
				"type": "occ",
				"energy": -0.24737,
				"method": "rhf"
			},
			{
				"type": "occ",
				"energy": -0.24348,
				"method": "rhf"
			},
			{
				"type": "occ",
				"energy": -0.23895,
				"method": "rhf"
			},
			{
				"type": "occ",
				"energy": -0.22749,
				"method": "rhf"
			},
			{
				"type": "unocc",
				"energy": -0.0505,
				"method": "rhf"
			},
			{
				"type": "unocc",
				"energy": -0.01415,
				"method": "rhf"
			},
			{
				"type": "unocc",
				"energy": -0.01271,
				"method": "rhf"
			},
			{
				"type": "unocc",
				"energy": -0.01131,
				"method": "rhf"
			},
			{
				"type": "unocc",
				"energy": -0.00508,
				"method": "rhf"
			}
		],
		"cosmo_sigma_profile": { 
			"-0.025": 0.0,
			"-0.024": 0.0,
			"-0.023": 0.0,
			"-0.022": 0.0,
			"-0.021": 0.0,
			"-0.02": 0.0,
			"-0.019": 0.0,
			"-0.018": 0.0,
			"-0.017": 0.0,
			"-0.016": 0.0,
			"-0.015": 0.0,
			"-0.014": 0.0,
			"-0.013": 0.0,
			"-0.012": 0.0,
			"-0.011": 0.0,
			"-0.01": 0.0,
			"-0.009": 0.0,
			"-0.008": 1.09124990207,
			"-0.007": 8.20707148612,
			"-0.006": 29.162819888,
			"-0.005": 53.4143330781,
			"-0.004": 55.7335394786,
			"-0.003": 52.132530011,
			"-0.002": 42.0221338128,
			"-0.001": 38.1330450989,
			"0.0": 31.1149849971,
			"0.001": 38.0820593476,
			"0.002": 38.342736575,
			"0.003": 37.987997854,
			"0.004": 38.1053893622,
			"0.005": 30.2468107892,
			"0.006": 19.5769437781,
			"0.007": 5.13920341888,
			"0.008": 6.14484798383,
			"0.009": 5.23308214241,
			"0.01": 6.14276227698,
			"0.011": 6.18586507712,
			"0.012": 6.03650601972,
			"0.013": 2.17223702643,
			"0.014": 0.0140970248178,
			"0.015": 0.0,
			"0.016": 0.0,
			"0.017": 0.0,
			"0.018": 0.0,
			"0.019": 0.0,
			"0.02": 0.0,
			"0.021": 0.0,
			"0.022": 0.0,
			"0.023": 0.0,
			"0.024": 0.0,
			"0.025": 0.0
		}
	}
}
