{
	 "smiles": "COCCNC1=C(C=O)C(=O)N(C)C(=O)N1C", 
	 "Tm": 410.15, 
	 "num_atms": 32, 
	 "gaussian": { 
		 "optdone": 1, 
		 "sigma_profile": "yes", 
		 "theory": "DFT", 
		 "functional": "B3LYP", 
		 "basiset": "6-31G**", 
		 "properties": { 
			 "R2extent": 5234.2166, 
			 "electric_dipole_moment_norm": 4.09659156983, 
			 "electric_quadrupole_moment_norm": 13.0217224114, 
			 "total_energy": -855.272397295, 
			 "HOMO_LUMO_gap": 0.18262, 
			 "cosmo_polarized_energy": -17.71, 
			 "cosmo_cavitation_energy": 34.66, 
			 "cosmo_dispersion_energy": -25.02, 
			 "cosmo_repulsion_energy": 1.91, 
			 "cosmo_total_nonelectrostatic_energy": 11.56, 
			 "SMD_solvation_energy": 8.13 
		},
		"coords": [
			{
				"x": 2.9541817535,
				"y": 1.4000499847,
				"z": 3.9055228024,
				"element": "C" 
			},
			{
				"x": 1.5463992746,
				"y": 1.3283432826,
				"z": 3.7577825553,
				"element": "O" 
			},
			{
				"x": 1.1003325693,
				"y": 0.3023695794,
				"z": 2.894760081,
				"element": "C" 
			},
			{
				"x": 1.0948884275,
				"y": 0.7592501367,
				"z": 1.4283711341,
				"element": "C" 
			},
			{
				"x": 0.6793653922,
				"y": -0.3267910279,
				"z": 0.5339018482,
				"element": "N" 
			},
			{
				"x": -0.1691145803,
				"y": -0.2570772454,
				"z": -0.5186718765,
				"element": "C" 
			},
			{
				"x": 0.1128847721,
				"y": -0.9960504709,
				"z": -1.6832723623,
				"element": "C" 
			},
			{
				"x": 1.3127324194,
				"y": -1.7902105681,
				"z": -1.8089799961,
				"element": "C" 
			},
			{
				"x": 2.1644239807,
				"y": -1.9622660657,
				"z": -0.9222218427,
				"element": "O" 
			},
			{
				"x": -0.7589387436,
				"y": -0.9250755693,
				"z": -2.8421639864,
				"element": "C" 
			},
			{
				"x": -0.5805448949,
				"y": -1.5373556233,
				"z": -3.8887614915,
				"element": "O" 
			},
			{
				"x": -1.8542857443,
				"y": -0.0333902878,
				"z": -2.7178156263,
				"element": "N" 
			},
			{
				"x": -2.7567476798,
				"y": 0.1475076929,
				"z": -3.8600246815,
				"element": "C" 
			},
			{
				"x": -2.1843886678,
				"y": 0.6503434935,
				"z": -1.5681525768,
				"element": "C" 
			},
			{
				"x": -3.1785605839,
				"y": 1.3537241863,
				"z": -1.4836131194,
				"element": "O" 
			},
			{
				"x": -1.3276128936,
				"y": 0.4882414904,
				"z": -0.4507146941,
				"element": "N" 
			},
			{
				"x": -1.8867558613,
				"y": 0.98306788,
				"z": 0.8168699451,
				"element": "C" 
			},
			{
				"x": 3.46935042,
				"y": 1.6463219613,
				"z": 2.9657138893,
				"element": "H" 
			},
			{
				"x": 3.3669521376,
				"y": 0.4553124535,
				"z": 4.2898029049,
				"element": "H" 
			},
			{
				"x": 3.1565784761,
				"y": 2.193720976,
				"z": 4.6281775143,
				"element": "H" 
			},
			{
				"x": 0.0815785902,
				"y": 0.0454946917,
				"z": 3.2059685302,
				"element": "H" 
			},
			{
				"x": 1.7127953748,
				"y": -0.6070994547,
				"z": 3.0000924943,
				"element": "H" 
			},
			{
				"x": 2.1045260024,
				"y": 1.0727231763,
				"z": 1.1350782422,
				"element": "H" 
			},
			{
				"x": 0.4542000477,
				"y": 1.6327141417,
				"z": 1.3190184744,
				"element": "H" 
			},
			{
				"x": 1.4352866658,
				"y": -0.9941813643,
				"z": 0.3026044434,
				"element": "H" 
			},
			{
				"x": 1.4354220684,
				"y": -2.2683986624,
				"z": -2.7931602528,
				"element": "H" 
			},
			{
				"x": -2.3496679804,
				"y": -0.4355225865,
				"z": -4.6827285368,
				"element": "H" 
			},
			{
				"x": -2.8123774715,
				"y": 1.2053176346,
				"z": -4.124262344,
				"element": "H" 
			},
			{
				"x": -3.7608997745,
				"y": -0.199111581,
				"z": -3.6056396402,
				"element": "H" 
			},
			{
				"x": -2.9708909517,
				"y": 0.9123244627,
				"z": 0.7513030397,
				"element": "H" 
			},
			{
				"x": -1.6299652491,
				"y": 2.0298788041,
				"z": 0.9974215807,
				"element": "H" 
			},
			{
				"x": -1.5209472956,
				"y": 0.3605244789,
				"z": 1.6318935479,
				"element": "H" 
			}
		],
		 "valence_orbital": [ 
			{
				"type": "occ",
				"energy": -0.27477,
				"method": "rhf"
			},
			{
				"type": "occ",
				"energy": -0.27342,
				"method": "rhf"
			},
			{
				"type": "occ",
				"energy": -0.26345,
				"method": "rhf"
			},
			{
				"type": "occ",
				"energy": -0.25005,
				"method": "rhf"
			},
			{
				"type": "occ",
				"energy": -0.23504,
				"method": "rhf"
			},
			{
				"type": "unocc",
				"energy": -0.05242,
				"method": "rhf"
			},
			{
				"type": "unocc",
				"energy": -0.01233,
				"method": "rhf"
			},
			{
				"type": "unocc",
				"energy": 0.02722,
				"method": "rhf"
			},
			{
				"type": "unocc",
				"energy": 0.06637,
				"method": "rhf"
			},
			{
				"type": "unocc",
				"energy": 0.07563,
				"method": "rhf"
			}
		],
		"cosmo_sigma_profile": { 
			"-0.025": 0.0,
			"-0.024": 0.0,
			"-0.023": 0.0,
			"-0.022": 0.0,
			"-0.021": 0.0,
			"-0.02": 0.0,
			"-0.019": 0.0,
			"-0.018": 0.0,
			"-0.017": 0.0,
			"-0.016": 0.0,
			"-0.015": 0.0,
			"-0.014": 0.0,
			"-0.013": 0.0,
			"-0.012": 0.0,
			"-0.011": 0.0,
			"-0.01": 0.0163812355492,
			"-0.009": 0.642644319495,
			"-0.008": 3.74646689811,
			"-0.007": 7.85726571872,
			"-0.006": 17.1373660418,
			"-0.005": 26.6813900181,
			"-0.004": 34.0960376082,
			"-0.003": 33.021335651,
			"-0.002": 28.592725375,
			"-0.001": 18.7501521598,
			"0.0": 13.8548811951,
			"0.001": 9.24535566242,
			"0.002": 7.91673047758,
			"0.003": 6.58435486264,
			"0.004": 6.66925763864,
			"0.005": 5.79184611488,
			"0.006": 5.17315622195,
			"0.007": 5.37937505694,
			"0.008": 5.97222702763,
			"0.009": 4.44592355142,
			"0.01": 6.69784838312,
			"0.011": 7.91215159353,
			"0.012": 10.8409219711,
			"0.013": 6.75467630315,
			"0.014": 0.578226480114,
			"0.015": 0.0,
			"0.016": 0.0,
			"0.017": 0.0,
			"0.018": 0.0,
			"0.019": 0.0,
			"0.02": 0.0,
			"0.021": 0.0,
			"0.022": 0.0,
			"0.023": 0.0,
			"0.024": 0.0,
			"0.025": 0.0
		}
	}
}
