{
	 "smiles": "CCCCN", 
	 "Tm": 223.65, 
	 "num_atms": 16, 
	 "gaussian": { 
		 "optdone": 1, 
		 "sigma_profile": "yes", 
		 "theory": "DFT", 
		 "functional": "B3LYP", 
		 "basiset": "6-31G**", 
		 "properties": { 
			 "R2extent": 724.4784, 
			 "electric_dipole_moment_norm": 1.39293834393, 
			 "electric_quadrupole_moment_norm": 4.487540265, 
			 "total_energy": -213.808911211, 
			 "HOMO_LUMO_gap": 0.29953, 
			 "cosmo_polarized_energy": -4.73, 
			 "cosmo_cavitation_energy": 17.5, 
			 "cosmo_dispersion_energy": -13.03, 
			 "cosmo_repulsion_energy": 1.16, 
			 "cosmo_total_nonelectrostatic_energy": 5.64, 
			 "SMD_solvation_energy": 1.61 
		},
		"coords": [
			{
				"x": -1.7058547474,
				"y": 1.6161189525,
				"z": -0.4907495058,
				"element": "C" 
			},
			{
				"x": -1.7979387224,
				"y": 1.1217706315,
				"z": 0.9597012494,
				"element": "C" 
			},
			{
				"x": -1.1690767708,
				"y": -0.2625806776,
				"z": 1.2219737614,
				"element": "C" 
			},
			{
				"x": 0.3415000521,
				"y": -0.2723409404,
				"z": 1.5311904721,
				"element": "C" 
			},
			{
				"x": 1.2721081109,
				"y": 0.1905864715,
				"z": 0.497700891,
				"element": "N" 
			},
			{
				"x": -0.6704877517,
				"y": 1.7145374318,
				"z": -0.829818218,
				"element": "H" 
			},
			{
				"x": -2.2052627265,
				"y": 0.9175394049,
				"z": -1.1720334952,
				"element": "H" 
			},
			{
				"x": -2.1874359643,
				"y": 2.5929515427,
				"z": -0.6070186167,
				"element": "H" 
			},
			{
				"x": -2.8582580807,
				"y": 1.0851239286,
				"z": 1.2387516179,
				"element": "H" 
			},
			{
				"x": -1.3405391019,
				"y": 1.8602923288,
				"z": 1.6336524204,
				"element": "H" 
			},
			{
				"x": -1.3708333134,
				"y": -0.9244353552,
				"z": 0.3665748274,
				"element": "H" 
			},
			{
				"x": -1.6741289693,
				"y": -0.7241248222,
				"z": 2.0817071027,
				"element": "H" 
			},
			{
				"x": 0.6309436751,
				"y": -1.2968775132,
				"z": 1.798934817,
				"element": "H" 
			},
			{
				"x": 0.5231854927,
				"y": 0.335665891,
				"z": 2.4274102705,
				"element": "H" 
			},
			{
				"x": 1.1254481734,
				"y": 1.1767642109,
				"z": 0.3022459272,
				"element": "H" 
			},
			{
				"x": 1.1037306441,
				"y": -0.3044914856,
				"z": -0.3754235213,
				"element": "H" 
			}
		],
		 "valence_orbital": [ 
			{
				"type": "occ",
				"energy": -0.3555,
				"method": "rhf"
			},
			{
				"type": "occ",
				"energy": -0.33458,
				"method": "rhf"
			},
			{
				"type": "occ",
				"energy": -0.32927,
				"method": "rhf"
			},
			{
				"type": "occ",
				"energy": -0.31958,
				"method": "rhf"
			},
			{
				"type": "occ",
				"energy": -0.22567,
				"method": "rhf"
			},
			{
				"type": "unocc",
				"energy": 0.07386,
				"method": "rhf"
			},
			{
				"type": "unocc",
				"energy": 0.11301,
				"method": "rhf"
			},
			{
				"type": "unocc",
				"energy": 0.12273,
				"method": "rhf"
			},
			{
				"type": "unocc",
				"energy": 0.1282,
				"method": "rhf"
			},
			{
				"type": "unocc",
				"energy": 0.15012,
				"method": "rhf"
			}
		],
		"cosmo_sigma_profile": { 
			"-0.025": 0.0,
			"-0.024": 0.0,
			"-0.023": 0.0,
			"-0.022": 0.0,
			"-0.021": 0.0,
			"-0.02": 0.0,
			"-0.019": 0.0,
			"-0.018": 0.0,
			"-0.017": 0.0,
			"-0.016": 0.0,
			"-0.015": 0.0,
			"-0.014": 0.0,
			"-0.013": 0.0,
			"-0.012": 0.0,
			"-0.011": 0.0,
			"-0.01": 0.0,
			"-0.009": 0.918578399401,
			"-0.008": 2.22226214732,
			"-0.007": 3.3170697636,
			"-0.006": 2.71257837629,
			"-0.005": 3.79629640838,
			"-0.004": 3.2402094178,
			"-0.003": 6.64218802588,
			"-0.002": 22.1457704645,
			"-0.001": 22.4419833549,
			"0.0": 23.8629842057,
			"0.001": 19.8907719976,
			"0.002": 9.26919393815,
			"0.003": 1.23600193751,
			"0.004": 0.715410249012,
			"0.005": 1.21819308158,
			"0.006": 0.802225678429,
			"0.007": 0.692935717102,
			"0.008": 0.884040374064,
			"0.009": 1.21438793023,
			"0.01": 0.664902151593,
			"0.011": 0.349075952967,
			"0.012": 0.403909838634,
			"0.013": 1.20700259388,
			"0.014": 0.479549991178,
			"0.015": 0.641533189349,
			"0.016": 0.505028375064,
			"0.017": 0.817393192242,
			"0.018": 0.743159071351,
			"0.019": 0.636193502829,
			"0.02": 0.469636931985,
			"0.021": 0.0246708665176,
			"0.022": 0.0,
			"0.023": 0.0,
			"0.024": 0.0,
			"0.025": 0.0
		}
	}
}
