{
	 "smiles": "NC(C1=CC=CC=C1)(C1=CC=CC=C1)C1=CC=CC=C1", 
	 "Tm": 375.15, 
	 "num_atms": 37, 
	 "gaussian": { 
		 "optdone": 1, 
		 "sigma_profile": "yes", 
		 "theory": "DFT", 
		 "functional": "B3LYP", 
		 "basiset": "6-31G**", 
		 "properties": { 
			 "R2extent": 5344.9835, 
			 "electric_dipole_moment_norm": 1.16452895627, 
			 "electric_quadrupole_moment_norm": 1.53406196094, 
			 "total_energy": -789.013002186, 
			 "HOMO_LUMO_gap": 0.21537, 
			 "cosmo_polarized_energy": -8.98, 
			 "cosmo_cavitation_energy": 38.64, 
			 "cosmo_dispersion_energy": -26.83, 
			 "cosmo_repulsion_energy": 2.07, 
			 "cosmo_total_nonelectrostatic_energy": 13.89, 
			 "SMD_solvation_energy": 6.27 
		},
		"coords": [
			{
				"x": 1.2201644788,
				"y": -2.4691171418,
				"z": -0.0722468109,
				"element": "N" 
			},
			{
				"x": 0.5702812066,
				"y": -1.1363142389,
				"z": -0.0123091994,
				"element": "C" 
			},
			{
				"x": -0.9196793179,
				"y": -1.3388911733,
				"z": 0.3486676976,
				"element": "C" 
			},
			{
				"x": -1.5361491877,
				"y": -2.5824780692,
				"z": 0.1600447956,
				"element": "C" 
			},
			{
				"x": -2.8960735471,
				"y": -2.7556241152,
				"z": 0.428624798,
				"element": "C" 
			},
			{
				"x": -3.6676586901,
				"y": -1.6871225585,
				"z": 0.8830223344,
				"element": "C" 
			},
			{
				"x": -3.0659441906,
				"y": -0.4401420961,
				"z": 1.0655027937,
				"element": "C" 
			},
			{
				"x": -1.7080543555,
				"y": -0.2691106099,
				"z": 0.800211318,
				"element": "C" 
			},
			{
				"x": 0.6037568879,
				"y": -0.5164238153,
				"z": -1.4285975656,
				"element": "C" 
			},
			{
				"x": 0.7875954371,
				"y": -1.3264418786,
				"z": -2.5565312587,
				"element": "C" 
			},
			{
				"x": 0.7593078552,
				"y": -0.7809274548,
				"z": -3.8422372343,
				"element": "C" 
			},
			{
				"x": 0.5385781078,
				"y": 0.583335433,
				"z": -4.0255999682,
				"element": "C" 
			},
			{
				"x": 0.344390121,
				"y": 1.3991358233,
				"z": -2.9088969811,
				"element": "C" 
			},
			{
				"x": 0.3759390937,
				"y": 0.854333533,
				"z": -1.6260247298,
				"element": "C" 
			},
			{
				"x": 1.3283007031,
				"y": -0.2814438265,
				"z": 1.033279429,
				"element": "C" 
			},
			{
				"x": 0.9976767861,
				"y": -0.3511168991,
				"z": 2.3962534408,
				"element": "C" 
			},
			{
				"x": 1.7731204709,
				"y": 0.2934045359,
				"z": 3.3612123843,
				"element": "C" 
			},
			{
				"x": 2.9038909616,
				"y": 1.0202103766,
				"z": 2.9870616698,
				"element": "C" 
			},
			{
				"x": 3.2534209346,
				"y": 1.0881747749,
				"z": 1.6379365435,
				"element": "C" 
			},
			{
				"x": 2.4766398379,
				"y": 0.4428612109,
				"z": 0.6746118826,
				"element": "C" 
			},
			{
				"x": 2.2026972659,
				"y": -2.3345068882,
				"z": -0.3033291302,
				"element": "H" 
			},
			{
				"x": 1.2057818802,
				"y": -2.8730949757,
				"z": 0.8623645244,
				"element": "H" 
			},
			{
				"x": -0.9436973757,
				"y": -3.411631745,
				"z": -0.2090950277,
				"element": "H" 
			},
			{
				"x": -3.3509968832,
				"y": -3.7307911685,
				"z": 0.2770173113,
				"element": "H" 
			},
			{
				"x": -4.7253148771,
				"y": -1.8214282416,
				"z": 1.0912944377,
				"element": "H" 
			},
			{
				"x": -3.6536305392,
				"y": 0.4032584282,
				"z": 1.4174704411,
				"element": "H" 
			},
			{
				"x": -1.2572998697,
				"y": 0.7054971986,
				"z": 0.9570439835,
				"element": "H" 
			},
			{
				"x": 0.9427812206,
				"y": -2.3902928573,
				"z": -2.4191170136,
				"element": "H" 
			},
			{
				"x": 0.9071691119,
				"y": -1.4294835176,
				"z": -4.7015379693,
				"element": "H" 
			},
			{
				"x": 0.5158381899,
				"y": 1.0076620225,
				"z": -5.0253409928,
				"element": "H" 
			},
			{
				"x": 0.16954819,
				"y": 2.4641183756,
				"z": -3.0347023904,
				"element": "H" 
			},
			{
				"x": 0.2320183208,
				"y": 1.5066845764,
				"z": -0.7708328751,
				"element": "H" 
			},
			{
				"x": 0.1222233982,
				"y": -0.9115820125,
				"z": 2.7078942579,
				"element": "H" 
			},
			{
				"x": 1.4892143908,
				"y": 0.2268051964,
				"z": 4.4079788121,
				"element": "H" 
			},
			{
				"x": 3.5055991087,
				"y": 1.5255735458,
				"z": 3.7369905712,
				"element": "H" 
			},
			{
				"x": 4.1333017158,
				"y": 1.6464576338,
				"z": 1.3298896451,
				"element": "H" 
			},
			{
				"x": 2.7657631587,
				"y": 0.507652619,
				"z": -0.3693739246,
				"element": "H" 
			}
		],
		 "valence_orbital": [ 
			{
				"type": "occ",
				"energy": -0.24827,
				"method": "rhf"
			},
			{
				"type": "occ",
				"energy": -0.24617,
				"method": "rhf"
			},
			{
				"type": "occ",
				"energy": -0.23965,
				"method": "rhf"
			},
			{
				"type": "occ",
				"energy": -0.22751,
				"method": "rhf"
			},
			{
				"type": "occ",
				"energy": -0.22669,
				"method": "rhf"
			},
			{
				"type": "unocc",
				"energy": -0.01132,
				"method": "rhf"
			},
			{
				"type": "unocc",
				"energy": -0.0054,
				"method": "rhf"
			},
			{
				"type": "unocc",
				"energy": -0.00448,
				"method": "rhf"
			},
			{
				"type": "unocc",
				"energy": -0.0007,
				"method": "rhf"
			},
			{
				"type": "unocc",
				"energy": 0.01733,
				"method": "rhf"
			}
		],
		"cosmo_sigma_profile": { 
			"-0.025": 0.0,
			"-0.024": 0.0,
			"-0.023": 0.0,
			"-0.022": 0.0,
			"-0.021": 0.0,
			"-0.02": 0.0,
			"-0.019": 0.0,
			"-0.018": 0.0,
			"-0.017": 0.0,
			"-0.016": 0.0,
			"-0.015": 0.0,
			"-0.014": 0.0,
			"-0.013": 0.0,
			"-0.012": 0.0,
			"-0.011": 0.0,
			"-0.01": 0.86688378396,
			"-0.009": 1.81547066236,
			"-0.008": 2.25493904978,
			"-0.007": 3.20257853889,
			"-0.006": 8.55737938627,
			"-0.005": 25.2599149152,
			"-0.004": 28.535597109,
			"-0.003": 35.1642352391,
			"-0.002": 23.1915355039,
			"-0.001": 21.3545770696,
			"0.0": 20.9110430029,
			"0.001": 19.2852367921,
			"0.002": 20.7102458837,
			"0.003": 20.8893941556,
			"0.004": 21.5783077954,
			"0.005": 22.5188742582,
			"0.006": 25.1808617604,
			"0.007": 3.648657064,
			"0.008": 0.37759833534,
			"0.009": 0.854841290614,
			"0.01": 0.671937705585,
			"0.011": 0.438651211834,
			"0.012": 0.33802741319,
			"0.013": 0.361841081196,
			"0.014": 0.0701726840445,
			"0.015": 0.0,
			"0.016": 0.0,
			"0.017": 0.0,
			"0.018": 0.0,
			"0.019": 0.0,
			"0.02": 0.0,
			"0.021": 0.0,
			"0.022": 0.0,
			"0.023": 0.0,
			"0.024": 0.0,
			"0.025": 0.0
		}
	}
}
