{
	 "smiles": "CC12CC(O)C3C(CCC4CC(O)CCC34C)C1CCC2=O", 
	 "Tm": 508.15, 
	 "num_atms": 52, 
	 "gaussian": { 
		 "optdone": 1, 
		 "sigma_profile": "yes", 
		 "theory": "DFT", 
		 "functional": "B3LYP", 
		 "basiset": "6-31G**", 
		 "properties": { 
			 "R2extent": 7661.2784, 
			 "electric_dipole_moment_norm": 2.49282335114, 
			 "electric_quadrupole_moment_norm": 20.2467104214, 
			 "total_energy": -967.793125236, 
			 "HOMO_LUMO_gap": 0.21728, 
			 "cosmo_polarized_energy": -15.01, 
			 "cosmo_cavitation_energy": 44.0, 
			 "cosmo_dispersion_energy": -31.27, 
			 "cosmo_repulsion_energy": 2.31, 
			 "cosmo_total_nonelectrostatic_energy": 15.03, 
			 "SMD_solvation_energy": 6.53 
		},
		"coords": [
			{
				"x": -1.4631029571,
				"y": -3.3758272474,
				"z": 0.3013730953,
				"element": "C" 
			},
			{
				"x": -0.5556301599,
				"y": -2.7216390172,
				"z": -0.749696154,
				"element": "C" 
			},
			{
				"x": -1.3580129592,
				"y": -1.9254779931,
				"z": -1.8185727644,
				"element": "C" 
			},
			{
				"x": -1.8574836381,
				"y": -0.5506905227,
				"z": -1.3495658888,
				"element": "C" 
			},
			{
				"x": -2.8475008807,
				"y": -0.6785618505,
				"z": -0.3225943538,
				"element": "O" 
			},
			{
				"x": -0.6934771268,
				"y": 0.3272966321,
				"z": -0.8406446449,
				"element": "C" 
			},
			{
				"x": 0.1245033609,
				"y": -0.4034491139,
				"z": 0.2572466126,
				"element": "C" 
			},
			{
				"x": 1.3441016273,
				"y": 0.4267747002,
				"z": 0.7068225279,
				"element": "C" 
			},
			{
				"x": 1.0065903239,
				"y": 1.8833522479,
				"z": 1.0410838444,
				"element": "C" 
			},
			{
				"x": 0.2652616495,
				"y": 2.5442498844,
				"z": -0.1279816608,
				"element": "C" 
			},
			{
				"x": 0.0892936651,
				"y": 4.059347445,
				"z": 0.0719790183,
				"element": "C" 
			},
			{
				"x": -0.5844301726,
				"y": 4.7301165263,
				"z": -1.1271321473,
				"element": "C" 
			},
			{
				"x": 0.3503609907,
				"y": 4.6631024317,
				"z": -2.210605371,
				"element": "O" 
			},
			{
				"x": -1.9019334917,
				"y": 4.0258639578,
				"z": -1.4789615102,
				"element": "C" 
			},
			{
				"x": -1.7181667367,
				"y": 2.5121712797,
				"z": -1.6730256106,
				"element": "C" 
			},
			{
				"x": -1.0751461546,
				"y": 1.8040019841,
				"z": -0.450051434,
				"element": "C" 
			},
			{
				"x": -2.0520282808,
				"y": 1.8710527558,
				"z": 0.7491177623,
				"element": "C" 
			},
			{
				"x": 0.570308353,
				"y": -1.8278185534,
				"z": -0.1632807651,
				"element": "C" 
			},
			{
				"x": 1.7179050166,
				"y": -1.9186225737,
				"z": -1.2085608085,
				"element": "C" 
			},
			{
				"x": 1.6669958842,
				"y": -3.3703554398,
				"z": -1.7087498991,
				"element": "C" 
			},
			{
				"x": 0.2116880356,
				"y": -3.8048959386,
				"z": -1.5321536067,
				"element": "C" 
			},
			{
				"x": -0.2735993706,
				"y": -4.8370279821,
				"z": -1.9458331484,
				"element": "O" 
			},
			{
				"x": -0.8654576338,
				"y": -3.9361136325,
				"z": 1.0291036064,
				"element": "H" 
			},
			{
				"x": -2.053533623,
				"y": -2.6298212906,
				"z": 0.835050822,
				"element": "H" 
			},
			{
				"x": -2.1388336755,
				"y": -4.0877060032,
				"z": -0.1832463584,
				"element": "H" 
			},
			{
				"x": -0.7378096962,
				"y": -1.7622785666,
				"z": -2.7102647453,
				"element": "H" 
			},
			{
				"x": -2.2032233069,
				"y": -2.5384791059,
				"z": -2.1590201503,
				"element": "H" 
			},
			{
				"x": -2.3073799915,
				"y": -0.0541803801,
				"z": -2.2231047057,
				"element": "H" 
			},
			{
				"x": -3.5234379654,
				"y": -1.289846139,
				"z": -0.6431510633,
				"element": "H" 
			},
			{
				"x": -0.0349722343,
				"y": 0.4340605513,
				"z": -1.7170394439,
				"element": "H" 
			},
			{
				"x": -0.5360317958,
				"y": -0.5303611789,
				"z": 1.1242427126,
				"element": "H" 
			},
			{
				"x": 1.8242018432,
				"y": -0.0664866952,
				"z": 1.5624570902,
				"element": "H" 
			},
			{
				"x": 2.0875737263,
				"y": 0.4345482401,
				"z": -0.1006868659,
				"element": "H" 
			},
			{
				"x": 0.4037870772,
				"y": 1.940800484,
				"z": 1.9564433016,
				"element": "H" 
			},
			{
				"x": 1.932432623,
				"y": 2.4347208448,
				"z": 1.2500155279,
				"element": "H" 
			},
			{
				"x": 0.900380447,
				"y": 2.4324470463,
				"z": -1.018754943,
				"element": "H" 
			},
			{
				"x": 1.0724488994,
				"y": 4.5207759948,
				"z": 0.2218830828,
				"element": "H" 
			},
			{
				"x": -0.4982107669,
				"y": 4.2723298018,
				"z": 0.9733753815,
				"element": "H" 
			},
			{
				"x": -0.7902954024,
				"y": 5.785319886,
				"z": -0.8828068294,
				"element": "H" 
			},
			{
				"x": -0.0774982936,
				"y": 5.0358006207,
				"z": -2.9923397833,
				"element": "H" 
			},
			{
				"x": -2.6322927198,
				"y": 4.2265160015,
				"z": -0.6856261391,
				"element": "H" 
			},
			{
				"x": -2.3224568834,
				"y": 4.4694375044,
				"z": -2.3929275116,
				"element": "H" 
			},
			{
				"x": -2.6919418823,
				"y": 2.0635552017,
				"z": -1.899554665,
				"element": "H" 
			},
			{
				"x": -1.0785694966,
				"y": 2.3535195743,
				"z": -2.5510721735,
				"element": "H" 
			},
			{
				"x": -1.7290359589,
				"y": 1.2482082836,
				"z": 1.5859502877,
				"element": "H" 
			},
			{
				"x": -2.1479402069,
				"y": 2.892703991,
				"z": 1.1275940471,
				"element": "H" 
			},
			{
				"x": -3.0423152114,
				"y": 1.518813568,
				"z": 0.4600351525,
				"element": "H" 
			},
			{
				"x": 0.9375586019,
				"y": -2.3253009722,
				"z": 0.7473652224,
				"element": "H" 
			},
			{
				"x": 1.5463993248,
				"y": -1.2249550994,
				"z": -2.0397710317,
				"element": "H" 
			},
			{
				"x": 2.6887322609,
				"y": -1.6625058694,
				"z": -0.7779280845,
				"element": "H" 
			},
			{
				"x": 2.2763728167,
				"y": -4.0298284879,
				"z": -1.075755873,
				"element": "H" 
			},
			{
				"x": 2.0040521464,
				"y": -3.5254577861,
				"z": -2.7376789607,
				"element": "H" 
			}
		],
		 "valence_orbital": [ 
			{
				"type": "occ",
				"energy": -0.27844,
				"method": "rhf"
			},
			{
				"type": "occ",
				"energy": -0.27189,
				"method": "rhf"
			},
			{
				"type": "occ",
				"energy": -0.26421,
				"method": "rhf"
			},
			{
				"type": "occ",
				"energy": -0.2578,
				"method": "rhf"
			},
			{
				"type": "occ",
				"energy": -0.22824,
				"method": "rhf"
			},
			{
				"type": "unocc",
				"energy": -0.01096,
				"method": "rhf"
			},
			{
				"type": "unocc",
				"energy": 0.05651,
				"method": "rhf"
			},
			{
				"type": "unocc",
				"energy": 0.07056,
				"method": "rhf"
			},
			{
				"type": "unocc",
				"energy": 0.08295,
				"method": "rhf"
			},
			{
				"type": "unocc",
				"energy": 0.09092,
				"method": "rhf"
			}
		],
		"cosmo_sigma_profile": { 
			"-0.025": 0.0,
			"-0.024": 0.0,
			"-0.023": 0.0,
			"-0.022": 0.0,
			"-0.021": 0.0,
			"-0.02": 0.0,
			"-0.019": 0.0,
			"-0.018": 0.0,
			"-0.017": 0.0,
			"-0.016": 0.0,
			"-0.015": 0.522838578505,
			"-0.014": 2.21229517723,
			"-0.013": 1.24566072224,
			"-0.012": 1.78880304224,
			"-0.011": 1.79148364595,
			"-0.01": 2.71228333665,
			"-0.009": 1.47238906523,
			"-0.008": 1.74309628543,
			"-0.007": 1.91650973818,
			"-0.006": 3.83869671897,
			"-0.005": 11.2550317974,
			"-0.004": 15.5954360708,
			"-0.003": 27.7771557123,
			"-0.002": 51.170819537,
			"-0.001": 53.3875620743,
			"0.0": 45.5735774561,
			"0.001": 33.8231099586,
			"0.002": 17.6897543355,
			"0.003": 8.04807514697,
			"0.004": 5.35110541654,
			"0.005": 5.30827493785,
			"0.006": 5.05953437725,
			"0.007": 5.53663806303,
			"0.008": 4.28055315042,
			"0.009": 3.71942814359,
			"0.01": 4.25217991669,
			"0.011": 4.95166158856,
			"0.012": 6.15792642802,
			"0.013": 4.69346438016,
			"0.014": 1.77841979274,
			"0.015": 0.802927493403,
			"0.016": 0.0112848481658,
			"0.017": 0.0,
			"0.018": 0.0,
			"0.019": 0.0,
			"0.02": 0.0,
			"0.021": 0.0,
			"0.022": 0.0,
			"0.023": 0.0,
			"0.024": 0.0,
			"0.025": 0.0
		}
	}
}
