{
	 "smiles": "NC1=CC(NC(=O)C2CC2)=C(F)C=C1", 
	 "Tm": 395.15, 
	 "num_atms": 25, 
	 "gaussian": { 
		 "optdone": 1, 
		 "sigma_profile": "yes", 
		 "theory": "DFT", 
		 "functional": "B3LYP", 
		 "basiset": "6-31G**", 
		 "properties": { 
			 "R2extent": 3749.7562, 
			 "electric_dipole_moment_norm": 5.11932042756, 
			 "electric_quadrupole_moment_norm": 6.59058690937, 
			 "total_energy": -672.24179361, 
			 "HOMO_LUMO_gap": 0.18665, 
			 "cosmo_polarized_energy": -14.63, 
			 "cosmo_cavitation_energy": 29.34, 
			 "cosmo_dispersion_energy": -20.96, 
			 "cosmo_repulsion_energy": 1.64, 
			 "cosmo_total_nonelectrostatic_energy": 10.03, 
			 "SMD_solvation_energy": 5.66 
		},
		"coords": [
			{
				"x": 0.5129585173,
				"y": 3.0147980065,
				"z": 0.1365974442,
				"element": "N" 
			},
			{
				"x": -0.3945394628,
				"y": 2.1495071548,
				"z": 0.7548094367,
				"element": "C" 
			},
			{
				"x": -0.0201652655,
				"y": 0.8258959369,
				"z": 1.0435150353,
				"element": "C" 
			},
			{
				"x": -0.8963519549,
				"y": -0.0441745389,
				"z": 1.7029848355,
				"element": "C" 
			},
			{
				"x": -0.583463449,
				"y": -1.3725055981,
				"z": 2.0383044714,
				"element": "N" 
			},
			{
				"x": 0.1547698671,
				"y": -2.3457600382,
				"z": 1.3843147738,
				"element": "C" 
			},
			{
				"x": 0.3903794349,
				"y": -3.4035458425,
				"z": 1.9579437979,
				"element": "O" 
			},
			{
				"x": 0.6035685528,
				"y": -2.0875919615,
				"z": -0.0177855303,
				"element": "C" 
			},
			{
				"x": 2.0337810881,
				"y": -2.4848812751,
				"z": -0.3653998215,
				"element": "C" 
			},
			{
				"x": 0.8949772721,
				"y": -3.3132786935,
				"z": -0.8625436262,
				"element": "C" 
			},
			{
				"x": -2.1379287072,
				"y": 0.4573304487,
				"z": 2.1174279713,
				"element": "C" 
			},
			{
				"x": -2.9684147344,
				"y": -0.3753049868,
				"z": 2.7965815817,
				"element": "F" 
			},
			{
				"x": -2.5174179132,
				"y": 1.7634954669,
				"z": 1.864182464,
				"element": "C" 
			},
			{
				"x": -1.6544220232,
				"y": 2.6107053252,
				"z": 1.1704529857,
				"element": "C" 
			},
			{
				"x": 1.2027932131,
				"y": 2.5669611486,
				"z": -0.4506064471,
				"element": "H" 
			},
			{
				"x": 0.095640716,
				"y": 3.8134290377,
				"z": -0.3209641202,
				"element": "H" 
			},
			{
				"x": 0.9742235989,
				"y": 0.4811664166,
				"z": 0.7816099457,
				"element": "H" 
			},
			{
				"x": -1.0093690115,
				"y": -1.7250919503,
				"z": 2.8868098294,
				"element": "H" 
			},
			{
				"x": 0.1883692222,
				"y": -1.2238117148,
				"z": -0.522283341,
				"element": "H" 
			},
			{
				"x": 2.6260455996,
				"y": -2.8894618324,
				"z": 0.4488299228,
				"element": "H" 
			},
			{
				"x": 2.5725981682,
				"y": -1.8519375782,
				"z": -1.063977901,
				"element": "H" 
			},
			{
				"x": 0.7250549208,
				"y": -4.2685456234,
				"z": -0.3785870769,
				"element": "H" 
			},
			{
				"x": 0.6287575987,
				"y": -3.2584996409,
				"z": -1.9133292966,
				"element": "H" 
			},
			{
				"x": -3.490703156,
				"y": 2.1041178621,
				"z": 2.200929731,
				"element": "H" 
			},
			{
				"x": -1.9505420921,
				"y": 3.6356844707,
				"z": 0.9670829344,
				"element": "H" 
			}
		],
		 "valence_orbital": [ 
			{
				"type": "occ",
				"energy": -0.29441,
				"method": "rhf"
			},
			{
				"type": "occ",
				"energy": -0.28501,
				"method": "rhf"
			},
			{
				"type": "occ",
				"energy": -0.25307,
				"method": "rhf"
			},
			{
				"type": "occ",
				"energy": -0.23322,
				"method": "rhf"
			},
			{
				"type": "occ",
				"energy": -0.20471,
				"method": "rhf"
			},
			{
				"type": "unocc",
				"energy": -0.01806,
				"method": "rhf"
			},
			{
				"type": "unocc",
				"energy": 0.0074,
				"method": "rhf"
			},
			{
				"type": "unocc",
				"energy": 0.03362,
				"method": "rhf"
			},
			{
				"type": "unocc",
				"energy": 0.06905,
				"method": "rhf"
			},
			{
				"type": "unocc",
				"energy": 0.09038,
				"method": "rhf"
			}
		],
		"cosmo_sigma_profile": { 
			"-0.025": 0.0,
			"-0.024": 0.0,
			"-0.023": 0.0,
			"-0.022": 0.0,
			"-0.021": 0.0,
			"-0.02": 0.0,
			"-0.019": 0.0,
			"-0.018": 0.0,
			"-0.017": 0.0,
			"-0.016": 0.0,
			"-0.015": 0.0,
			"-0.014": 0.0,
			"-0.013": 0.845559689542,
			"-0.012": 3.56845169251,
			"-0.011": 3.65863861265,
			"-0.01": 4.04774410042,
			"-0.009": 3.88075824199,
			"-0.008": 3.33133625093,
			"-0.007": 5.23462828476,
			"-0.006": 9.00449166689,
			"-0.005": 14.4103693663,
			"-0.004": 16.4442483403,
			"-0.003": 14.0562098678,
			"-0.002": 14.3772531095,
			"-0.001": 16.1374706009,
			"0.0": 14.6846207186,
			"0.001": 18.8464326786,
			"0.002": 17.8873114804,
			"0.003": 15.3299960094,
			"0.004": 18.0700115139,
			"0.005": 12.9388388087,
			"0.006": 3.90934358283,
			"0.007": 2.18391578594,
			"0.008": 2.25941014648,
			"0.009": 1.64749400472,
			"0.01": 2.31679059618,
			"0.011": 2.32915593872,
			"0.012": 2.39895402526,
			"0.013": 5.10315925842,
			"0.014": 3.76994882647,
			"0.015": 0.22743210401,
			"0.016": 0.0,
			"0.017": 0.0,
			"0.018": 0.0,
			"0.019": 0.0,
			"0.02": 0.0,
			"0.021": 0.0,
			"0.022": 0.0,
			"0.023": 0.0,
			"0.024": 0.0,
			"0.025": 0.0
		}
	}
}
