{
	 "smiles": "NNC1=NC=NC2=C1C1=C(CCCC1)S2", 
	 "Tm": 451.15, 
	 "num_atms": 27, 
	 "gaussian": { 
		 "optdone": 1, 
		 "sigma_profile": "yes", 
		 "theory": "DFT", 
		 "functional": "B3LYP", 
		 "basiset": "6-31G**", 
		 "properties": { 
			 "R2extent": 4906.9205, 
			 "electric_dipole_moment_norm": 3.58276583801, 
			 "electric_quadrupole_moment_norm": 10.0073650448, 
			 "total_energy": -1005.48085919, 
			 "HOMO_LUMO_gap": 0.18037, 
			 "cosmo_polarized_energy": -11.57, 
			 "cosmo_cavitation_energy": 30.28, 
			 "cosmo_dispersion_energy": -23.49, 
			 "cosmo_repulsion_energy": 1.78, 
			 "cosmo_total_nonelectrostatic_energy": 8.58, 
			 "SMD_solvation_energy": 1.46 
		},
		"coords": [
			{
				"x": -4.2246417569,
				"y": 2.8313177836,
				"z": -0.1478192864,
				"element": "N" 
			},
			{
				"x": -2.8864463097,
				"y": 2.3791888937,
				"z": -0.1588864886,
				"element": "N" 
			},
			{
				"x": -2.052058655,
				"y": 2.5806650002,
				"z": 0.9150762746,
				"element": "C" 
			},
			{
				"x": -2.4979494853,
				"y": 3.3930713735,
				"z": 1.882341906,
				"element": "N" 
			},
			{
				"x": -1.6996454626,
				"y": 3.6040455117,
				"z": 2.9406755626,
				"element": "C" 
			},
			{
				"x": -0.495766729,
				"y": 3.0891572675,
				"z": 3.1660103983,
				"element": "N" 
			},
			{
				"x": -0.06803807,
				"y": 2.2839291532,
				"z": 2.1843491611,
				"element": "C" 
			},
			{
				"x": -0.7669312345,
				"y": 1.9714098711,
				"z": 1.0034475102,
				"element": "C" 
			},
			{
				"x": -0.021877462,
				"y": 1.0903165999,
				"z": 0.1289617562,
				"element": "C" 
			},
			{
				"x": 1.1867022174,
				"y": 0.7410231841,
				"z": 0.6641644208,
				"element": "C" 
			},
			{
				"x": 2.2011120618,
				"y": -0.1627476693,
				"z": 0.0181147269,
				"element": "C" 
			},
			{
				"x": 1.5607700166,
				"y": -0.9482404768,
				"z": -1.1394388515,
				"element": "C" 
			},
			{
				"x": 0.7095378728,
				"y": -0.0259432502,
				"z": -2.0212364611,
				"element": "C" 
			},
			{
				"x": -0.4590520934,
				"y": 0.5900038447,
				"z": -1.2312901727,
				"element": "C" 
			},
			{
				"x": 1.4880056654,
				"y": 1.4763844193,
				"z": 2.2339664206,
				"element": "S" 
			},
			{
				"x": -4.2077255934,
				"y": 3.8240268291,
				"z": -0.3786276091,
				"element": "H" 
			},
			{
				"x": -4.552899813,
				"y": 2.7934858713,
				"z": 0.8184900427,
				"element": "H" 
			},
			{
				"x": -2.7576642327,
				"y": 1.5423299572,
				"z": -0.7052388688,
				"element": "H" 
			},
			{
				"x": -2.0928748849,
				"y": 4.27147644,
				"z": 3.7050958714,
				"element": "H" 
			},
			{
				"x": 2.6254889649,
				"y": -0.8527508747,
				"z": 0.757440636,
				"element": "H" 
			},
			{
				"x": 3.0437719443,
				"y": 0.435314679,
				"z": -0.3582180981,
				"element": "H" 
			},
			{
				"x": 2.3431442177,
				"y": -1.4332105942,
				"z": -1.7331503632,
				"element": "H" 
			},
			{
				"x": 0.9291351211,
				"y": -1.7477631604,
				"z": -0.7310562645,
				"element": "H" 
			},
			{
				"x": 0.3202042413,
				"y": -0.5720942897,
				"z": -2.887219073,
				"element": "H" 
			},
			{
				"x": 1.3423951813,
				"y": 0.7804227077,
				"z": -2.4140628203,
				"element": "H" 
			},
			{
				"x": -0.8950082893,
				"y": 1.4124118118,
				"z": -1.8112993766,
				"element": "H" 
			},
			{
				"x": -1.2527874329,
				"y": -0.1647308836,
				"z": -1.1124909532,
				"element": "H" 
			}
		],
		 "valence_orbital": [ 
			{
				"type": "occ",
				"energy": -0.27753,
				"method": "rhf"
			},
			{
				"type": "occ",
				"energy": -0.26188,
				"method": "rhf"
			},
			{
				"type": "occ",
				"energy": -0.25225,
				"method": "rhf"
			},
			{
				"type": "occ",
				"energy": -0.25064,
				"method": "rhf"
			},
			{
				"type": "occ",
				"energy": -0.20903,
				"method": "rhf"
			},
			{
				"type": "unocc",
				"energy": -0.02866,
				"method": "rhf"
			},
			{
				"type": "unocc",
				"energy": -0.01057,
				"method": "rhf"
			},
			{
				"type": "unocc",
				"energy": 0.02203,
				"method": "rhf"
			},
			{
				"type": "unocc",
				"energy": 0.03461,
				"method": "rhf"
			},
			{
				"type": "unocc",
				"energy": 0.07689,
				"method": "rhf"
			}
		],
		"cosmo_sigma_profile": { 
			"-0.025": 0.0,
			"-0.024": 0.0,
			"-0.023": 0.0,
			"-0.022": 0.0,
			"-0.021": 0.0,
			"-0.02": 0.0,
			"-0.019": 0.0,
			"-0.018": 0.0,
			"-0.017": 0.0,
			"-0.016": 0.0,
			"-0.015": 0.0,
			"-0.014": 0.0,
			"-0.013": 0.00111478979118,
			"-0.012": 0.904720599373,
			"-0.011": 2.28333684519,
			"-0.01": 3.4121573864,
			"-0.009": 3.61530345431,
			"-0.008": 3.99275030591,
			"-0.007": 3.62396689895,
			"-0.006": 4.65341050774,
			"-0.005": 7.4528058612,
			"-0.004": 15.5032223406,
			"-0.003": 23.7409822739,
			"-0.002": 28.3631123015,
			"-0.001": 24.9070925855,
			"0.0": 21.3810311355,
			"0.001": 19.8203607975,
			"0.002": 18.2242824841,
			"0.003": 15.4637915511,
			"0.004": 11.2214993508,
			"0.005": 7.02342859658,
			"0.006": 3.61450583288,
			"0.007": 3.78934971719,
			"0.008": 3.30854488755,
			"0.009": 2.06499740677,
			"0.01": 2.72378525675,
			"0.011": 2.44779003611,
			"0.012": 2.15313307587,
			"0.013": 1.76179797496,
			"0.014": 1.47486574783,
			"0.015": 1.33004599753,
			"0.016": 0.867216294095,
			"0.017": 0.24055174464,
			"0.018": 0.0,
			"0.019": 0.0,
			"0.02": 0.0,
			"0.021": 0.0,
			"0.022": 0.0,
			"0.023": 0.0,
			"0.024": 0.0,
			"0.025": 0.0
		}
	}
}
