{
	 "smiles": "CC(=O)N(CCN(C(C)=O)C(C)=O)C(C)=O", 
	 "Tm": 424.15, 
	 "num_atms": 32, 
	 "gaussian": { 
		 "optdone": 1, 
		 "sigma_profile": "yes", 
		 "theory": "DFT", 
		 "functional": "B3LYP", 
		 "basiset": "6-31G**", 
		 "properties": { 
			 "R2extent": 4033.7689, 
			 "electric_dipole_moment_norm": 1.74106525151, 
			 "electric_quadrupole_moment_norm": 6.7674738145, 
			 "total_energy": -801.1566023, 
			 "HOMO_LUMO_gap": 0.22901, 
			 "cosmo_polarized_energy": -14.83, 
			 "cosmo_cavitation_energy": 33.72, 
			 "cosmo_dispersion_energy": -22.87, 
			 "cosmo_repulsion_energy": 1.77, 
			 "cosmo_total_nonelectrostatic_energy": 12.62, 
			 "SMD_solvation_energy": 8.57 
		},
		"coords": [
			{
				"x": -2.9326261035,
				"y": 1.1698256058,
				"z": -2.3981238083,
				"element": "C" 
			},
			{
				"x": -2.1274677348,
				"y": -0.083904536,
				"z": -2.1036126319,
				"element": "C" 
			},
			{
				"x": -2.6858178356,
				"y": -1.1352167099,
				"z": -1.8482347933,
				"element": "O" 
			},
			{
				"x": -0.7149191167,
				"y": 0.0081099796,
				"z": -2.1746114071,
				"element": "N" 
			},
			{
				"x": -0.0278370446,
				"y": 1.3119544634,
				"z": -2.2383075302,
				"element": "C" 
			},
			{
				"x": 0.731221468,
				"y": 1.7215736787,
				"z": -0.9593004576,
				"element": "C" 
			},
			{
				"x": -0.0564115996,
				"y": 1.667798117,
				"z": 0.2868577089,
				"element": "N" 
			},
			{
				"x": 0.1719278068,
				"y": 0.669811568,
				"z": 1.2669807616,
				"element": "C" 
			},
			{
				"x": 1.4403921125,
				"y": -0.1574043728,
				"z": 1.1505093186,
				"element": "C" 
			},
			{
				"x": -0.5999007531,
				"y": 0.4968998432,
				"z": 2.1925115713,
				"element": "O" 
			},
			{
				"x": -1.010737438,
				"y": 2.7004349475,
				"z": 0.4365324801,
				"element": "C" 
			},
			{
				"x": -1.7808964854,
				"y": 2.8648681216,
				"z": 1.7253032494,
				"element": "C" 
			},
			{
				"x": -1.1784860646,
				"y": 3.4744937053,
				"z": -0.4981725881,
				"element": "O" 
			},
			{
				"x": 0.1357541226,
				"y": -1.1199838338,
				"z": -2.2319677522,
				"element": "C" 
			},
			{
				"x": -0.4318356766,
				"y": -2.5160080077,
				"z": -2.3322074399,
				"element": "C" 
			},
			{
				"x": 1.3466224702,
				"y": -0.9336876577,
				"z": -2.2241230657,
				"element": "O" 
			},
			{
				"x": -3.9833104013,
				"y": 0.887610477,
				"z": -2.3383065486,
				"element": "H" 
			},
			{
				"x": -2.7183472357,
				"y": 1.5456430924,
				"z": -3.4045191978,
				"element": "H" 
			},
			{
				"x": -2.73345009,
				"y": 1.9831184105,
				"z": -1.6960133525,
				"element": "H" 
			},
			{
				"x": 0.7105661832,
				"y": 1.2684261604,
				"z": -3.0431985414,
				"element": "H" 
			},
			{
				"x": -0.7553462569,
				"y": 2.0797005541,
				"z": -2.4759161131,
				"element": "H" 
			},
			{
				"x": 1.0645947535,
				"y": 2.752157064,
				"z": -1.106776862,
				"element": "H" 
			},
			{
				"x": 1.6033702527,
				"y": 1.0871388017,
				"z": -0.8498690432,
				"element": "H" 
			},
			{
				"x": 1.4563687455,
				"y": -0.8275285707,
				"z": 2.0094874271,
				"element": "H" 
			},
			{
				"x": 1.4876044569,
				"y": -0.7442044764,
				"z": 0.2299013906,
				"element": "H" 
			},
			{
				"x": 2.3291652965,
				"y": 0.4823900316,
				"z": 1.1774615234,
				"element": "H" 
			},
			{
				"x": -1.1269724296,
				"y": 2.8590389043,
				"z": 2.5993827737,
				"element": "H" 
			},
			{
				"x": -2.4838401108,
				"y": 2.041616736,
				"z": 1.8664330235,
				"element": "H" 
			},
			{
				"x": -2.3153149726,
				"y": 3.8125760317,
				"z": 1.6484369155,
				"element": "H" 
			},
			{
				"x": 0.4108424044,
				"y": -3.1800009419,
				"z": -2.5288522947,
				"element": "H" 
			},
			{
				"x": -0.9322759957,
				"y": -2.8003068114,
				"z": -1.4045651034,
				"element": "H" 
			},
			{
				"x": -1.1826367281,
				"y": -2.5996403755,
				"z": -3.1202196128,
				"element": "H" 
			}
		],
		 "valence_orbital": [ 
			{
				"type": "occ",
				"energy": -0.28008,
				"method": "rhf"
			},
			{
				"type": "occ",
				"energy": -0.2758,
				"method": "rhf"
			},
			{
				"type": "occ",
				"energy": -0.2726,
				"method": "rhf"
			},
			{
				"type": "occ",
				"energy": -0.26615,
				"method": "rhf"
			},
			{
				"type": "occ",
				"energy": -0.26502,
				"method": "rhf"
			},
			{
				"type": "unocc",
				"energy": -0.03601,
				"method": "rhf"
			},
			{
				"type": "unocc",
				"energy": -0.02731,
				"method": "rhf"
			},
			{
				"type": "unocc",
				"energy": 0.02564,
				"method": "rhf"
			},
			{
				"type": "unocc",
				"energy": 0.02631,
				"method": "rhf"
			},
			{
				"type": "unocc",
				"energy": 0.09051,
				"method": "rhf"
			}
		],
		"cosmo_sigma_profile": { 
			"-0.025": 0.0,
			"-0.024": 0.0,
			"-0.023": 0.0,
			"-0.022": 0.0,
			"-0.021": 0.0,
			"-0.02": 0.0,
			"-0.019": 0.0,
			"-0.018": 0.0,
			"-0.017": 0.0,
			"-0.016": 0.0,
			"-0.015": 0.0,
			"-0.014": 0.0,
			"-0.013": 0.0,
			"-0.012": 0.0,
			"-0.011": 0.0,
			"-0.01": 0.0,
			"-0.009": 0.0,
			"-0.008": 0.0303200955885,
			"-0.007": 6.49460255732,
			"-0.006": 15.9940163937,
			"-0.005": 28.0043483791,
			"-0.004": 30.0843974612,
			"-0.003": 31.7416682746,
			"-0.002": 31.2159334895,
			"-0.001": 25.587975058,
			"0.0": 11.8263900901,
			"0.001": 8.79577007751,
			"0.002": 7.47079798658,
			"0.003": 6.37041392462,
			"0.004": 5.85996297471,
			"0.005": 6.37089790654,
			"0.006": 5.22086901007,
			"0.007": 5.58986610695,
			"0.008": 4.67074545328,
			"0.009": 5.55591267166,
			"0.01": 6.20892581809,
			"0.011": 8.15253007793,
			"0.012": 9.89165671515,
			"0.013": 4.43727877289,
			"0.014": 0.103805732116,
			"0.015": 0.0,
			"0.016": 0.0,
			"0.017": 0.0,
			"0.018": 0.0,
			"0.019": 0.0,
			"0.02": 0.0,
			"0.021": 0.0,
			"0.022": 0.0,
			"0.023": 0.0,
			"0.024": 0.0,
			"0.025": 0.0
		}
	}
}
