{
	 "smiles": "CCN=C1/NC(NC(Cl)=N1)=NC(C)C", 
	 "Tm": 448.15, 
	 "num_atms": 28, 
	 "gaussian": { 
		 "optdone": 1, 
		 "sigma_profile": "yes", 
		 "theory": "DFT", 
		 "functional": "B3LYP", 
		 "basiset": "6-31G**", 
		 "properties": { 
			 "R2extent": 4945.8907, 
			 "electric_dipole_moment_norm": 3.92579341025, 
			 "electric_quadrupole_moment_norm": 17.6624883561, 
			 "total_energy": -1047.23853384, 
			 "HOMO_LUMO_gap": 0.19932, 
			 "cosmo_polarized_energy": -17.46, 
			 "cosmo_cavitation_energy": 33.2, 
			 "cosmo_dispersion_energy": -23.94, 
			 "cosmo_repulsion_energy": 1.95, 
			 "cosmo_total_nonelectrostatic_energy": 11.21, 
			 "SMD_solvation_energy": -1.01 
		},
		"coords": [
			{
				"x": 1.5651487656,
				"y": -4.4225136394,
				"z": -0.5406269628,
				"element": "C" 
			},
			{
				"x": 0.6791041727,
				"y": -3.7952542138,
				"z": -1.6271710476,
				"element": "C" 
			},
			{
				"x": -0.6926686525,
				"y": -3.6423547055,
				"z": -1.1749308743,
				"element": "N" 
			},
			{
				"x": -1.0757265776,
				"y": -2.562855001,
				"z": -0.6164169482,
				"element": "C" 
			},
			{
				"x": -0.2728796336,
				"y": -1.4308771652,
				"z": -0.3757130018,
				"element": "N" 
			},
			{
				"x": -0.6854941113,
				"y": -0.2201338993,
				"z": 0.1611554297,
				"element": "C" 
			},
			{
				"x": -2.0418537905,
				"y": -0.244800874,
				"z": 0.5297911761,
				"element": "N" 
			},
			{
				"x": -2.7953559169,
				"y": -1.3755625589,
				"z": 0.331163776,
				"element": "C" 
			},
			{
				"x": -4.4531779969,
				"y": -1.1960888472,
				"z": 0.8862599853,
				"element": "Cl" 
			},
			{
				"x": -2.4121262291,
				"y": -2.4665133699,
				"z": -0.1871234574,
				"element": "N" 
			},
			{
				"x": 0.1325386821,
				"y": 0.7474093276,
				"z": 0.2784268053,
				"element": "N" 
			},
			{
				"x": -0.265879063,
				"y": 2.0267421201,
				"z": 0.8556784794,
				"element": "C" 
			},
			{
				"x": 0.4676376513,
				"y": 3.1447253513,
				"z": 0.1053867067,
				"element": "C" 
			},
			{
				"x": 0.062819951,
				"y": 2.0486487985,
				"z": 2.3573803019,
				"element": "C" 
			},
			{
				"x": 1.1333999002,
				"y": -5.3693829649,
				"z": -0.2052545799,
				"element": "H" 
			},
			{
				"x": 1.651950963,
				"y": -3.7666874221,
				"z": 0.3322663376,
				"element": "H" 
			},
			{
				"x": 2.5718996897,
				"y": -4.6149548113,
				"z": -0.9256652491,
				"element": "H" 
			},
			{
				"x": 0.6613305508,
				"y": -4.4610500724,
				"z": -2.4973291596,
				"element": "H" 
			},
			{
				"x": 1.1361136816,
				"y": -2.8538339325,
				"z": -1.9828543707,
				"element": "H" 
			},
			{
				"x": 0.6972440654,
				"y": -1.4391979645,
				"z": -0.6551591381,
				"element": "H" 
			},
			{
				"x": -2.4519448579,
				"y": 0.5692906068,
				"z": 0.9598944648,
				"element": "H" 
			},
			{
				"x": -1.3493779447,
				"y": 2.2189926283,
				"z": 0.7372654235,
				"element": "H" 
			},
			{
				"x": 0.2181094256,
				"y": 3.1243482633,
				"z": -0.959348116,
				"element": "H" 
			},
			{
				"x": 1.5498253678,
				"y": 3.0118962145,
				"z": 0.2009300926,
				"element": "H" 
			},
			{
				"x": 0.1980458312,
				"y": 4.1270928066,
				"z": 0.5068670434,
				"element": "H" 
			},
			{
				"x": 1.1319190451,
				"y": 1.8696371029,
				"z": 2.5077651905,
				"element": "H" 
			},
			{
				"x": -0.4861728341,
				"y": 1.2698972328,
				"z": 2.8973206716,
				"element": "H" 
			},
			{
				"x": -0.1928301349,
				"y": 3.017480989,
				"z": 2.7991410213,
				"element": "H" 
			}
		],
		 "valence_orbital": [ 
			{
				"type": "occ",
				"energy": -0.30037,
				"method": "rhf"
			},
			{
				"type": "occ",
				"energy": -0.27206,
				"method": "rhf"
			},
			{
				"type": "occ",
				"energy": -0.25062,
				"method": "rhf"
			},
			{
				"type": "occ",
				"energy": -0.249,
				"method": "rhf"
			},
			{
				"type": "occ",
				"energy": -0.23487,
				"method": "rhf"
			},
			{
				"type": "unocc",
				"energy": -0.03555,
				"method": "rhf"
			},
			{
				"type": "unocc",
				"energy": 0.00509,
				"method": "rhf"
			},
			{
				"type": "unocc",
				"energy": 0.01163,
				"method": "rhf"
			},
			{
				"type": "unocc",
				"energy": 0.05321,
				"method": "rhf"
			},
			{
				"type": "unocc",
				"energy": 0.07268,
				"method": "rhf"
			}
		],
		"cosmo_sigma_profile": { 
			"-0.025": 0.0,
			"-0.024": 0.0,
			"-0.023": 0.0,
			"-0.022": 0.0,
			"-0.021": 0.0,
			"-0.02": 0.0,
			"-0.019": 0.0,
			"-0.018": 0.0,
			"-0.017": 0.0,
			"-0.016": 0.728176884726,
			"-0.015": 0.954702969806,
			"-0.014": 0.954373600317,
			"-0.013": 1.99569091362,
			"-0.012": 1.89046218383,
			"-0.011": 2.78479808708,
			"-0.01": 1.95682645843,
			"-0.009": 2.85162663111,
			"-0.008": 2.71714258439,
			"-0.007": 2.72547308229,
			"-0.006": 4.69530654793,
			"-0.005": 6.72831106869,
			"-0.004": 14.114595765,
			"-0.003": 27.9005552587,
			"-0.002": 31.3249800057,
			"-0.001": 31.3754815712,
			"0.0": 28.9860168071,
			"0.001": 30.0402629914,
			"0.002": 15.9108077415,
			"0.003": 10.4137383457,
			"0.004": 6.03580749003,
			"0.005": 4.11503720444,
			"0.006": 3.33255755323,
			"0.007": 3.46393295981,
			"0.008": 3.48079376118,
			"0.009": 3.07559708352,
			"0.01": 2.44380896224,
			"0.011": 2.43496681117,
			"0.012": 2.44611051627,
			"0.013": 2.68162968343,
			"0.014": 2.80392740081,
			"0.015": 2.12357966466,
			"0.016": 1.97031708734,
			"0.017": 1.4278350886,
			"0.018": 0.886650036948,
			"0.019": 0.0403810877126,
			"0.02": 0.0,
			"0.021": 0.0,
			"0.022": 0.0,
			"0.023": 0.0,
			"0.024": 0.0,
			"0.025": 0.0
		}
	}
}
