{
	 "smiles": "NC(CS(=O)(=O)C1=CC=C(F)C=C1)=NO", 
	 "Tm": 455.15, 
	 "num_atms": 24, 
	 "gaussian": { 
		 "optdone": 1, 
		 "sigma_profile": "yes", 
		 "theory": "DFT", 
		 "functional": "B3LYP", 
		 "basiset": "6-31G**", 
		 "properties": { 
			 "R2extent": 4784.85, 
			 "electric_dipole_moment_norm": 5.44776138703, 
			 "electric_quadrupole_moment_norm": 15.4781486981, 
			 "total_energy": -1143.34899072, 
			 "HOMO_LUMO_gap": 0.18295, 
			 "cosmo_polarized_energy": -22.89, 
			 "cosmo_cavitation_energy": 30.63, 
			 "cosmo_dispersion_energy": -21.95, 
			 "cosmo_repulsion_energy": 1.68, 
			 "cosmo_total_nonelectrostatic_energy": 10.36, 
			 "SMD_solvation_energy": 5.08 
		},
		"coords": [
			{
				"x": -0.6765181113,
				"y": 1.0329188437,
				"z": -0.1133420636,
				"element": "N" 
			},
			{
				"x": -1.2105535632,
				"y": -0.1006633008,
				"z": 0.4583682964,
				"element": "C" 
			},
			{
				"x": -0.4104229748,
				"y": -1.3633203065,
				"z": 0.455917827,
				"element": "C" 
			},
			{
				"x": 1.0567447223,
				"y": -1.3938712402,
				"z": 1.5763312473,
				"element": "S" 
			},
			{
				"x": 0.6906495268,
				"y": -0.7541629656,
				"z": 2.8458968159,
				"element": "O" 
			},
			{
				"x": 1.5396133857,
				"y": -2.7835467915,
				"z": 1.5181447105,
				"element": "O" 
			},
			{
				"x": 2.299390861,
				"y": -0.3663663981,
				"z": 0.7772156217,
				"element": "C" 
			},
			{
				"x": 2.4027252833,
				"y": 0.9836704438,
				"z": 1.1246441513,
				"element": "C" 
			},
			{
				"x": 3.3841371749,
				"y": 1.7693333184,
				"z": 0.5241293889,
				"element": "C" 
			},
			{
				"x": 4.2363837552,
				"y": 1.1800806525,
				"z": -0.4066112331,
				"element": "C" 
			},
			{
				"x": 5.1822950767,
				"y": 1.9383443481,
				"z": -0.9878936093,
				"element": "F" 
			},
			{
				"x": 4.1503886907,
				"y": -0.1655993689,
				"z": -0.753962338,
				"element": "C" 
			},
			{
				"x": 3.1699469749,
				"y": -0.9491181104,
				"z": -0.1481667604,
				"element": "C" 
			},
			{
				"x": -2.354723669,
				"y": -0.1579064388,
				"z": 1.052546238,
				"element": "N" 
			},
			{
				"x": -2.9972446163,
				"y": 1.1031695161,
				"z": 0.9577125264,
				"element": "O" 
			},
			{
				"x": -0.0122332604,
				"y": 0.9102662059,
				"z": -0.8623622918,
				"element": "H" 
			},
			{
				"x": -1.338180837,
				"y": 1.7872422098,
				"z": -0.2365381208,
				"element": "H" 
			},
			{
				"x": -1.0266606114,
				"y": -2.1811830788,
				"z": 0.8341476927,
				"element": "H" 
			},
			{
				"x": -0.0313215529,
				"y": -1.6286451573,
				"z": -0.5362611069,
				"element": "H" 
			},
			{
				"x": 1.7269341441,
				"y": 1.401350488,
				"z": 1.8618116608,
				"element": "H" 
			},
			{
				"x": 3.5028052023,
				"y": 2.8187901353,
				"z": 0.7698572748,
				"element": "H" 
			},
			{
				"x": 4.8493783606,
				"y": -0.5801137876,
				"z": -1.4718465954,
				"element": "H" 
			},
			{
				"x": 3.0926649604,
				"y": -2.0087136501,
				"z": -0.3672352707,
				"element": "H" 
			},
			{
				"x": -3.8302989225,
				"y": 0.9406444329,
				"z": 1.4166959384,
				"element": "H" 
			}
		],
		 "valence_orbital": [ 
			{
				"type": "occ",
				"energy": -0.29474,
				"method": "rhf"
			},
			{
				"type": "occ",
				"energy": -0.2859,
				"method": "rhf"
			},
			{
				"type": "occ",
				"energy": -0.28216,
				"method": "rhf"
			},
			{
				"type": "occ",
				"energy": -0.27255,
				"method": "rhf"
			},
			{
				"type": "occ",
				"energy": -0.22631,
				"method": "rhf"
			},
			{
				"type": "unocc",
				"energy": -0.04336,
				"method": "rhf"
			},
			{
				"type": "unocc",
				"energy": -0.03525,
				"method": "rhf"
			},
			{
				"type": "unocc",
				"energy": 0.00288,
				"method": "rhf"
			},
			{
				"type": "unocc",
				"energy": 0.05766,
				"method": "rhf"
			},
			{
				"type": "unocc",
				"energy": 0.06143,
				"method": "rhf"
			}
		],
		"cosmo_sigma_profile": { 
			"-0.025": 0.0,
			"-0.024": 0.0,
			"-0.023": 0.0,
			"-0.022": 0.0,
			"-0.021": 0.0,
			"-0.02": 0.0,
			"-0.019": 0.0,
			"-0.018": 0.0470497166997,
			"-0.017": 0.634958001961,
			"-0.016": 0.883447363954,
			"-0.015": 1.13623581812,
			"-0.014": 1.37800871029,
			"-0.013": 2.32451871163,
			"-0.012": 3.02589982543,
			"-0.011": 3.54366684745,
			"-0.01": 4.33844002274,
			"-0.009": 7.11121288047,
			"-0.008": 11.0417021302,
			"-0.007": 11.4337674609,
			"-0.006": 11.5324937208,
			"-0.005": 10.4794945702,
			"-0.004": 9.05325431596,
			"-0.003": 8.33930919446,
			"-0.002": 10.0137570874,
			"-0.001": 15.3022130904,
			"0.0": 16.4675496123,
			"0.001": 18.3561607756,
			"0.002": 11.5308702287,
			"0.003": 13.0559497744,
			"0.004": 11.7575970267,
			"0.005": 6.58306013921,
			"0.006": 7.31153362975,
			"0.007": 6.76516344773,
			"0.008": 6.08051430756,
			"0.009": 7.78457625532,
			"0.01": 9.05725013866,
			"0.011": 10.3919655606,
			"0.012": 5.51028513875,
			"0.013": 1.09403119027,
			"0.014": 0.500876130396,
			"0.015": 0.0312278138997,
			"0.016": 0.0,
			"0.017": 0.0,
			"0.018": 0.0,
			"0.019": 0.0,
			"0.02": 0.0,
			"0.021": 0.0,
			"0.022": 0.0,
			"0.023": 0.0,
			"0.024": 0.0,
			"0.025": 0.0
		}
	}
}
