{
	 "smiles": "CC1=C(C)C(=CC(=C1)S(N)(=O)=O)C(O)=O", 
	 "Tm": 535.15, 
	 "num_atms": 26, 
	 "gaussian": { 
		 "optdone": 1, 
		 "sigma_profile": "yes", 
		 "theory": "DFT", 
		 "functional": "B3LYP", 
		 "basiset": "6-31G**", 
		 "properties": { 
			 "R2extent": 4418.3407, 
			 "electric_dipole_moment_norm": 3.31194786493, 
			 "electric_quadrupole_moment_norm": 21.2838586781, 
			 "total_energy": -1103.38109092, 
			 "HOMO_LUMO_gap": 0.19824, 
			 "cosmo_polarized_energy": -18.72, 
			 "cosmo_cavitation_energy": 31.2, 
			 "cosmo_dispersion_energy": -23.24, 
			 "cosmo_repulsion_energy": 1.78, 
			 "cosmo_total_nonelectrostatic_energy": 9.74, 
			 "SMD_solvation_energy": 6.13 
		},
		"coords": [
			{
				"x": -0.076876768,
				"y": -1.376925437,
				"z": -2.6228538449,
				"element": "C" 
			},
			{
				"x": -0.4844410024,
				"y": -0.5355804089,
				"z": -1.4320082584,
				"element": "C" 
			},
			{
				"x": -1.6302056437,
				"y": -0.8396974178,
				"z": -0.6561365754,
				"element": "C" 
			},
			{
				"x": -2.4742199195,
				"y": -2.0440112229,
				"z": -1.001577541,
				"element": "C" 
			},
			{
				"x": -1.956607872,
				"y": 0.0102403229,
				"z": 0.4312611028,
				"element": "C" 
			},
			{
				"x": -1.1566757958,
				"y": 1.1203962049,
				"z": 0.7424043234,
				"element": "C" 
			},
			{
				"x": -0.0336594759,
				"y": 1.3852532903,
				"z": -0.0247235688,
				"element": "C" 
			},
			{
				"x": 0.2990477544,
				"y": 0.5742932676,
				"z": -1.1074356302,
				"element": "C" 
			},
			{
				"x": 0.9932336384,
				"y": 2.7996262694,
				"z": 0.3669939921,
				"element": "S" 
			},
			{
				"x": 2.2121014569,
				"y": 2.136939282,
				"z": 1.3439639547,
				"element": "N" 
			},
			{
				"x": 0.1938068511,
				"y": 3.7124010397,
				"z": 1.1896733327,
				"element": "O" 
			},
			{
				"x": 1.6557717407,
				"y": 3.232482972,
				"z": -0.8670680417,
				"element": "O" 
			},
			{
				"x": -3.165542249,
				"y": -0.2345695408,
				"z": 1.2711689613,
				"element": "C" 
			},
			{
				"x": -3.2622114105,
				"y": 0.6336997516,
				"z": 2.3110411857,
				"element": "O" 
			},
			{
				"x": -4.0059769505,
				"y": -1.096012522,
				"z": 1.0945390679,
				"element": "O" 
			},
			{
				"x": 0.1554903,
				"y": -2.4081245771,
				"z": -2.3347523572,
				"element": "H" 
			},
			{
				"x": -0.8661650669,
				"y": -1.4219876386,
				"z": -3.3807618087,
				"element": "H" 
			},
			{
				"x": 0.813702159,
				"y": -0.9591863128,
				"z": -3.0982633172,
				"element": "H" 
			},
			{
				"x": -2.6104982564,
				"y": -2.6927805041,
				"z": -0.1334752246,
				"element": "H" 
			},
			{
				"x": -3.4820303883,
				"y": -1.7432361201,
				"z": -1.3019050524,
				"element": "H" 
			},
			{
				"x": -2.0302340639,
				"y": -2.6259386127,
				"z": -1.808154195,
				"element": "H" 
			},
			{
				"x": -1.4238666157,
				"y": 1.7736880433,
				"z": 1.5624451153,
				"element": "H" 
			},
			{
				"x": 1.1667298517,
				"y": 0.8217102306,
				"z": -1.7102992736,
				"element": "H" 
			},
			{
				"x": 3.1145615179,
				"y": 2.4233328107,
				"z": 0.9728059109,
				"element": "H" 
			},
			{
				"x": 2.0923284831,
				"y": 2.4525404951,
				"z": 2.3032001832,
				"element": "H" 
			},
			{
				"x": -4.0824622748,
				"y": 0.3950463348,
				"z": 2.7726175593,
				"element": "H" 
			}
		],
		 "valence_orbital": [ 
			{
				"type": "occ",
				"energy": -0.30645,
				"method": "rhf"
			},
			{
				"type": "occ",
				"energy": -0.29885,
				"method": "rhf"
			},
			{
				"type": "occ",
				"energy": -0.27998,
				"method": "rhf"
			},
			{
				"type": "occ",
				"energy": -0.27054,
				"method": "rhf"
			},
			{
				"type": "occ",
				"energy": -0.25937,
				"method": "rhf"
			},
			{
				"type": "unocc",
				"energy": -0.06113,
				"method": "rhf"
			},
			{
				"type": "unocc",
				"energy": -0.03416,
				"method": "rhf"
			},
			{
				"type": "unocc",
				"energy": 0.03539,
				"method": "rhf"
			},
			{
				"type": "unocc",
				"energy": 0.05453,
				"method": "rhf"
			},
			{
				"type": "unocc",
				"energy": 0.0759,
				"method": "rhf"
			}
		],
		"cosmo_sigma_profile": { 
			"-0.025": 0.0,
			"-0.024": 0.0,
			"-0.023": 0.0,
			"-0.022": 0.0,
			"-0.021": 0.0,
			"-0.02": 0.0,
			"-0.019": 0.0186571112208,
			"-0.018": 0.819650429659,
			"-0.017": 0.758359440191,
			"-0.016": 0.824888514385,
			"-0.015": 2.41520070564,
			"-0.014": 3.00829589831,
			"-0.013": 2.30834604239,
			"-0.012": 3.92478287301,
			"-0.011": 2.80801347049,
			"-0.01": 1.84382385585,
			"-0.009": 3.17695149762,
			"-0.008": 2.81006920548,
			"-0.007": 4.50600891699,
			"-0.006": 4.53562260368,
			"-0.005": 9.85403409653,
			"-0.004": 16.1891372671,
			"-0.003": 18.6957360788,
			"-0.002": 20.3175185665,
			"-0.001": 25.8122610997,
			"0.0": 22.6858370329,
			"0.001": 18.1531195732,
			"0.002": 10.9211884572,
			"0.003": 6.89571237427,
			"0.004": 7.2672662915,
			"0.005": 5.51108207911,
			"0.006": 6.67351533378,
			"0.007": 5.89916008499,
			"0.008": 5.80486751239,
			"0.009": 5.62287567542,
			"0.01": 9.58751184221,
			"0.011": 12.9890558903,
			"0.012": 4.58760808461,
			"0.013": 0.097948740426,
			"0.014": 0.0,
			"0.015": 0.0,
			"0.016": 0.0,
			"0.017": 0.0,
			"0.018": 0.0,
			"0.019": 0.0,
			"0.02": 0.0,
			"0.021": 0.0,
			"0.022": 0.0,
			"0.023": 0.0,
			"0.024": 0.0,
			"0.025": 0.0
		}
	}
}
