{
	 "smiles": "COC1=CC(OCC2=CC=CC=C2)=CC=C1C=O", 
	 "Tm": 369.15, 
	 "num_atms": 32, 
	 "gaussian": { 
		 "optdone": 1, 
		 "sigma_profile": "yes", 
		 "theory": "DFT", 
		 "functional": "B3LYP", 
		 "basiset": "6-31G**", 
		 "properties": { 
			 "R2extent": 5966.2258, 
			 "electric_dipole_moment_norm": 6.54602215471, 
			 "electric_quadrupole_moment_norm": 28.7951668797, 
			 "total_energy": -805.677744148, 
			 "HOMO_LUMO_gap": 0.17675, 
			 "cosmo_polarized_energy": -13.29, 
			 "cosmo_cavitation_energy": 36.36, 
			 "cosmo_dispersion_energy": -24.99, 
			 "cosmo_repulsion_energy": 1.94, 
			 "cosmo_total_nonelectrostatic_energy": 13.31, 
			 "SMD_solvation_energy": 8.14 
		},
		"coords": [
			{
				"x": 2.5545463037,
				"y": -1.4004153955,
				"z": -0.7930841851,
				"element": "C" 
			},
			{
				"x": 2.5015838582,
				"y": -0.6662380454,
				"z": -2.0081050543,
				"element": "O" 
			},
			{
				"x": 1.3091545222,
				"y": -0.1613384785,
				"z": -2.4260536987,
				"element": "C" 
			},
			{
				"x": 0.1156678987,
				"y": -0.3371463866,
				"z": -1.7136187533,
				"element": "C" 
			},
			{
				"x": -1.0682919664,
				"y": 0.2230630209,
				"z": -2.2102953189,
				"element": "C" 
			},
			{
				"x": -2.2815093564,
				"y": 0.10436801,
				"z": -1.6002660935,
				"element": "O" 
			},
			{
				"x": -2.4276901399,
				"y": -0.7473892139,
				"z": -0.4632379244,
				"element": "C" 
			},
			{
				"x": -1.9096493066,
				"y": -0.1533165888,
				"z": 0.8325871655,
				"element": "C" 
			},
			{
				"x": -1.4339356304,
				"y": -0.9943098096,
				"z": 1.8456321796,
				"element": "C" 
			},
			{
				"x": -1.0101812357,
				"y": -0.4655347809,
				"z": 3.0663581353,
				"element": "C" 
			},
			{
				"x": -1.0502277226,
				"y": 0.912956703,
				"z": 3.2816420205,
				"element": "C" 
			},
			{
				"x": -1.519012063,
				"y": 1.7573057374,
				"z": 2.2724902488,
				"element": "C" 
			},
			{
				"x": -1.9505082584,
				"y": 1.2278298665,
				"z": 1.0561755089,
				"element": "C" 
			},
			{
				"x": -1.0694284223,
				"y": 0.9599484996,
				"z": -3.4067423682,
				"element": "C" 
			},
			{
				"x": 0.1177680293,
				"y": 1.1214518953,
				"z": -4.0966239126,
				"element": "C" 
			},
			{
				"x": 1.3248411236,
				"y": 0.5711295787,
				"z": -3.6343271273,
				"element": "C" 
			},
			{
				"x": 2.558881729,
				"y": 0.7752458911,
				"z": -4.4127572619,
				"element": "C" 
			},
			{
				"x": 2.6042262379,
				"y": 1.4058080375,
				"z": -5.4586808253,
				"element": "O" 
			},
			{
				"x": 1.9312803609,
				"y": -2.3021155317,
				"z": -0.840432895,
				"element": "H" 
			},
			{
				"x": 2.2422193436,
				"y": -0.7887554326,
				"z": 0.0620089984,
				"element": "H" 
			},
			{
				"x": 3.5980965364,
				"y": -1.6914883679,
				"z": -0.6665605005,
				"element": "H" 
			},
			{
				"x": 0.1134651404,
				"y": -0.8686971509,
				"z": -0.7738560486,
				"element": "H" 
			},
			{
				"x": -1.962757349,
				"y": -1.7229563011,
				"z": -0.6562605098,
				"element": "H" 
			},
			{
				"x": -3.5090495576,
				"y": -0.9082331676,
				"z": -0.3964469176,
				"element": "H" 
			},
			{
				"x": -1.3963210442,
				"y": -2.0692320853,
				"z": 1.6809634786,
				"element": "H" 
			},
			{
				"x": -0.6436987476,
				"y": -1.1291172511,
				"z": 3.8444644945,
				"element": "H" 
			},
			{
				"x": -0.7157471446,
				"y": 1.3271615091,
				"z": 4.2282895651,
				"element": "H" 
			},
			{
				"x": -1.5496046086,
				"y": 2.8312127194,
				"z": 2.4329549839,
				"element": "H" 
			},
			{
				"x": -2.3119969651,
				"y": 1.8829372516,
				"z": 0.269724901,
				"element": "H" 
			},
			{
				"x": -2.0044732012,
				"y": 1.3772242983,
				"z": -3.7632505948,
				"element": "H" 
			},
			{
				"x": 0.1540287014,
				"y": 1.6800733468,
				"z": -5.0266255077,
				"element": "H" 
			},
			{
				"x": 3.4716229342,
				"y": 0.314367622,
				"z": -3.9906661824,
				"element": "H" 
			}
		],
		 "valence_orbital": [ 
			{
				"type": "occ",
				"energy": -0.26213,
				"method": "rhf"
			},
			{
				"type": "occ",
				"energy": -0.2578,
				"method": "rhf"
			},
			{
				"type": "occ",
				"energy": -0.24511,
				"method": "rhf"
			},
			{
				"type": "occ",
				"energy": -0.23413,
				"method": "rhf"
			},
			{
				"type": "occ",
				"energy": -0.22011,
				"method": "rhf"
			},
			{
				"type": "unocc",
				"energy": -0.04336,
				"method": "rhf"
			},
			{
				"type": "unocc",
				"energy": -0.01693,
				"method": "rhf"
			},
			{
				"type": "unocc",
				"energy": -0.01483,
				"method": "rhf"
			},
			{
				"type": "unocc",
				"energy": 0.00446,
				"method": "rhf"
			},
			{
				"type": "unocc",
				"energy": 0.05579,
				"method": "rhf"
			}
		],
		"cosmo_sigma_profile": { 
			"-0.025": 0.0,
			"-0.024": 0.0,
			"-0.023": 0.0,
			"-0.022": 0.0,
			"-0.021": 0.0,
			"-0.02": 0.0,
			"-0.019": 0.0,
			"-0.018": 0.0,
			"-0.017": 0.0,
			"-0.016": 0.0,
			"-0.015": 0.0,
			"-0.014": 0.0,
			"-0.013": 0.0,
			"-0.012": 0.0,
			"-0.011": 0.0,
			"-0.01": 0.0,
			"-0.009": 0.0,
			"-0.008": 0.133471701699,
			"-0.007": 5.83763279793,
			"-0.006": 18.9540653382,
			"-0.005": 27.6465406721,
			"-0.004": 30.9749992826,
			"-0.003": 24.8649666396,
			"-0.002": 18.3592437832,
			"-0.001": 17.6554613948,
			"0.0": 15.9425192282,
			"0.001": 20.9051538557,
			"0.002": 23.2862167344,
			"0.003": 24.3942838614,
			"0.004": 18.2092323065,
			"0.005": 13.9570122775,
			"0.006": 8.80744308962,
			"0.007": 2.13969522714,
			"0.008": 3.76832141098,
			"0.009": 1.79107190901,
			"0.01": 2.55863147359,
			"0.011": 2.64156373031,
			"0.012": 4.56674792979,
			"0.013": 2.55671118326,
			"0.014": 0.536497722425,
			"0.015": 0.0,
			"0.016": 0.0,
			"0.017": 0.0,
			"0.018": 0.0,
			"0.019": 0.0,
			"0.02": 0.0,
			"0.021": 0.0,
			"0.022": 0.0,
			"0.023": 0.0,
			"0.024": 0.0,
			"0.025": 0.0
		}
	}
}
