{
	 "smiles": "CC1=CC=C(C=C1)P(C1=CC=CC=C1)C1=CC=CC=C1", 
	 "Tm": 340.15, 
	 "num_atms": 37, 
	 "gaussian": { 
		 "optdone": 1, 
		 "sigma_profile": "yes", 
		 "theory": "DFT", 
		 "functional": "B3LYP", 
		 "basiset": "6-31G**", 
		 "properties": { 
			 "R2extent": 6975.7464, 
			 "electric_dipole_moment_norm": 1.61322876245, 
			 "electric_quadrupole_moment_norm": 7.91337171754, 
			 "total_energy": -1075.62502181, 
			 "HOMO_LUMO_gap": 0.19104, 
			 "cosmo_polarized_energy": -7.78, 
			 "cosmo_cavitation_energy": 41.7, 
			 "cosmo_dispersion_energy": -29.02, 
			 "cosmo_repulsion_energy": 2.34, 
			 "cosmo_total_nonelectrostatic_energy": 15.01, 
			 "SMD_solvation_energy": 7.12 
		},
		"coords": [
			{
				"x": -5.4837058185,
				"y": 1.4863791569,
				"z": -2.0972349545,
				"element": "C" 
			},
			{
				"x": -4.3116974063,
				"y": 0.6892711945,
				"z": -1.575571658,
				"element": "C" 
			},
			{
				"x": -2.993329599,
				"y": 1.0897118781,
				"z": -1.8251315091,
				"element": "C" 
			},
			{
				"x": -1.9090267648,
				"y": 0.3684258524,
				"z": -1.3224546489,
				"element": "C" 
			},
			{
				"x": -2.1109044938,
				"y": -0.7871565738,
				"z": -0.5540037628,
				"element": "C" 
			},
			{
				"x": -3.4334989502,
				"y": -1.1992355648,
				"z": -0.317742625,
				"element": "C" 
			},
			{
				"x": -4.5121858811,
				"y": -0.4698713749,
				"z": -0.812480316,
				"element": "C" 
			},
			{
				"x": -0.759602855,
				"y": -1.8443084536,
				"z": 0.1415744517,
				"element": "P" 
			},
			{
				"x": 0.7172942758,
				"y": -1.3007682126,
				"z": -0.8383935209,
				"element": "C" 
			},
			{
				"x": 0.9769846903,
				"y": -1.993070346,
				"z": -2.0336046814,
				"element": "C" 
			},
			{
				"x": 2.0710851682,
				"y": -1.6590117539,
				"z": -2.8314635423,
				"element": "C" 
			},
			{
				"x": 2.9372515661,
				"y": -0.6366472849,
				"z": -2.4375182973,
				"element": "C" 
			},
			{
				"x": 2.6991811017,
				"y": 0.0496044192,
				"z": -1.2456255705,
				"element": "C" 
			},
			{
				"x": 1.5969855042,
				"y": -0.2776313937,
				"z": -0.4524342517,
				"element": "C" 
			},
			{
				"x": -0.4469938361,
				"y": -1.0695408888,
				"z": 1.796578783,
				"element": "C" 
			},
			{
				"x": -0.9285052799,
				"y": 0.1881537847,
				"z": 2.1910730745,
				"element": "C" 
			},
			{
				"x": -0.6646062406,
				"y": 0.6814379788,
				"z": 3.4709959755,
				"element": "C" 
			},
			{
				"x": 0.0871941566,
				"y": -0.0713704012,
				"z": 4.3744358506,
				"element": "C" 
			},
			{
				"x": 0.5695931939,
				"y": -1.3261209609,
				"z": 3.9953685629,
				"element": "C" 
			},
			{
				"x": 0.296097849,
				"y": -1.8233228987,
				"z": 2.7213551857,
				"element": "C" 
			},
			{
				"x": -6.295643449,
				"y": 0.8328002109,
				"z": -2.4319331455,
				"element": "H" 
			},
			{
				"x": -5.1930443669,
				"y": 2.1233752489,
				"z": -2.9375353017,
				"element": "H" 
			},
			{
				"x": -5.8964034484,
				"y": 2.1397351353,
				"z": -1.3181184315,
				"element": "H" 
			},
			{
				"x": -2.8102076667,
				"y": 1.9792662129,
				"z": -2.4236118174,
				"element": "H" 
			},
			{
				"x": -0.8996140589,
				"y": 0.7048676443,
				"z": -1.5379327481,
				"element": "H" 
			},
			{
				"x": -3.6185325349,
				"y": -2.1058696701,
				"z": 0.2532942129,
				"element": "H" 
			},
			{
				"x": -5.525522488,
				"y": -0.8118593298,
				"z": -0.6145736378,
				"element": "H" 
			},
			{
				"x": 0.318015809,
				"y": -2.8029427171,
				"z": -2.3370352894,
				"element": "H" 
			},
			{
				"x": 2.2533850475,
				"y": -2.2032384488,
				"z": -3.7540163561,
				"element": "H" 
			},
			{
				"x": 3.7956857044,
				"y": -0.3812829037,
				"z": -3.0524403299,
				"element": "H" 
			},
			{
				"x": 3.3717618168,
				"y": 0.8430022089,
				"z": -0.9308214128,
				"element": "H" 
			},
			{
				"x": 1.4227289668,
				"y": 0.2628512722,
				"z": 0.4726244467,
				"element": "H" 
			},
			{
				"x": -1.5145796556,
				"y": 0.7826353387,
				"z": 1.4973365632,
				"element": "H" 
			},
			{
				"x": -1.0470406885,
				"y": 1.6564164864,
				"z": 3.7610512068,
				"element": "H" 
			},
			{
				"x": 0.2905484389,
				"y": 0.3137414036,
				"z": 5.3697176704,
				"element": "H" 
			},
			{
				"x": 1.1492715231,
				"y": -1.9219067154,
				"z": 4.6950338434,
				"element": "H" 
			},
			{
				"x": 0.6582806698,
				"y": -2.8093195339,
				"z": 2.4404379816,
				"element": "H" 
			}
		],
		 "valence_orbital": [ 
			{
				"type": "occ",
				"energy": -0.2514,
				"method": "rhf"
			},
			{
				"type": "occ",
				"energy": -0.24939,
				"method": "rhf"
			},
			{
				"type": "occ",
				"energy": -0.24577,
				"method": "rhf"
			},
			{
				"type": "occ",
				"energy": -0.2436,
				"method": "rhf"
			},
			{
				"type": "occ",
				"energy": -0.209,
				"method": "rhf"
			},
			{
				"type": "unocc",
				"energy": -0.01796,
				"method": "rhf"
			},
			{
				"type": "unocc",
				"energy": -0.01725,
				"method": "rhf"
			},
			{
				"type": "unocc",
				"energy": -0.00781,
				"method": "rhf"
			},
			{
				"type": "unocc",
				"energy": 0.00223,
				"method": "rhf"
			},
			{
				"type": "unocc",
				"energy": 0.00462,
				"method": "rhf"
			}
		],
		"cosmo_sigma_profile": { 
			"-0.025": 0.0,
			"-0.024": 0.0,
			"-0.023": 0.0,
			"-0.022": 0.0,
			"-0.021": 0.0,
			"-0.02": 0.0,
			"-0.019": 0.0,
			"-0.018": 0.0,
			"-0.017": 0.0,
			"-0.016": 0.0,
			"-0.015": 0.0,
			"-0.014": 0.0,
			"-0.013": 0.0,
			"-0.012": 0.0,
			"-0.011": 0.0,
			"-0.01": 0.0,
			"-0.009": 0.0,
			"-0.008": 0.0,
			"-0.007": 0.0162574615776,
			"-0.006": 9.27358310668,
			"-0.005": 24.2051215543,
			"-0.004": 36.5479107128,
			"-0.003": 32.4613354727,
			"-0.002": 27.2386334215,
			"-0.001": 29.5144886566,
			"0.0": 30.3919683847,
			"0.001": 24.0227395777,
			"0.002": 24.386890467,
			"0.003": 28.7390713038,
			"0.004": 25.8143497713,
			"0.005": 26.7213897256,
			"0.006": 9.6367350518,
			"0.007": 0.506332654879,
			"0.008": 0.551239124275,
			"0.009": 0.935815768223,
			"0.01": 0.824476234282,
			"0.011": 0.715437057221,
			"0.012": 0.318200325334,
			"0.013": 0.874551717946,
			"0.014": 0.15876642672,
			"0.015": 0.0,
			"0.016": 0.0,
			"0.017": 0.0,
			"0.018": 0.0,
			"0.019": 0.0,
			"0.02": 0.0,
			"0.021": 0.0,
			"0.022": 0.0,
			"0.023": 0.0,
			"0.024": 0.0,
			"0.025": 0.0
		}
	}
}
