{
	 "smiles": "CCCOC1=CN(N=C1C(O)=O)C1=CC=CC=C1", 
	 "Tm": 393.15, 
	 "num_atms": 32, 
	 "gaussian": { 
		 "optdone": 1, 
		 "sigma_profile": "yes", 
		 "theory": "DFT", 
		 "functional": "B3LYP", 
		 "basiset": "6-31G**", 
		 "properties": { 
			 "R2extent": 6356.7599, 
			 "electric_dipole_moment_norm": 2.81926388265, 
			 "electric_quadrupole_moment_norm": 7.67322085503, 
			 "total_energy": -838.979749563, 
			 "HOMO_LUMO_gap": 0.17945, 
			 "cosmo_polarized_energy": -14.47, 
			 "cosmo_cavitation_energy": 36.65, 
			 "cosmo_dispersion_energy": -26.21, 
			 "cosmo_repulsion_energy": 2.04, 
			 "cosmo_total_nonelectrostatic_energy": 12.48, 
			 "SMD_solvation_energy": 7.2 
		},
		"coords": [
			{
				"x": -1.0496452795,
				"y": 4.5735999181,
				"z": -0.3250836526,
				"element": "C" 
			},
			{
				"x": -1.3049892238,
				"y": 3.7941864729,
				"z": -1.6190113217,
				"element": "C" 
			},
			{
				"x": -1.465857232,
				"y": 2.2976545094,
				"z": -1.3981089048,
				"element": "C" 
			},
			{
				"x": -0.2154132446,
				"y": 1.7917226939,
				"z": -0.8756759551,
				"element": "O" 
			},
			{
				"x": -0.1948034109,
				"y": 0.4924985842,
				"z": -0.498077404,
				"element": "C" 
			},
			{
				"x": 0.5933125221,
				"y": -0.4785323769,
				"z": -1.0811142625,
				"element": "C" 
			},
			{
				"x": 0.3912572501,
				"y": -1.6313968158,
				"z": -0.3656963033,
				"element": "N" 
			},
			{
				"x": -0.4859108155,
				"y": -1.4646848143,
				"z": 0.6344673273,
				"element": "N" 
			},
			{
				"x": -0.8563837819,
				"y": -0.178876482,
				"z": 0.5791109935,
				"element": "C" 
			},
			{
				"x": -1.7870550029,
				"y": 0.3847541172,
				"z": 1.570294018,
				"element": "C" 
			},
			{
				"x": -2.1374687624,
				"y": -0.4964856377,
				"z": 2.5324702104,
				"element": "O" 
			},
			{
				"x": -2.2091154598,
				"y": 1.5283373426,
				"z": 1.5517573865,
				"element": "O" 
			},
			{
				"x": 0.9795317632,
				"y": -2.9080893817,
				"z": -0.5888305022,
				"element": "C" 
			},
			{
				"x": 2.1694711239,
				"y": -3.017814705,
				"z": -1.3154105626,
				"element": "C" 
			},
			{
				"x": 2.7242029891,
				"y": -4.2779849016,
				"z": -1.5376903435,
				"element": "C" 
			},
			{
				"x": 2.1080668188,
				"y": -5.4221706452,
				"z": -1.0296065473,
				"element": "C" 
			},
			{
				"x": 0.9272786794,
				"y": -5.2990453018,
				"z": -0.2931481233,
				"element": "C" 
			},
			{
				"x": 0.3552997999,
				"y": -4.0484807643,
				"z": -0.0721268587,
				"element": "C" 
			},
			{
				"x": -0.1253166919,
				"y": 4.2372540077,
				"z": 0.1516262611,
				"element": "H" 
			},
			{
				"x": -1.8633255528,
				"y": 4.422587409,
				"z": 0.3915352784,
				"element": "H" 
			},
			{
				"x": -0.9620380048,
				"y": 5.64651997,
				"z": -0.5243045366,
				"element": "H" 
			},
			{
				"x": -2.2219199258,
				"y": 4.1531045253,
				"z": -2.1043821966,
				"element": "H" 
			},
			{
				"x": -0.4871365012,
				"y": 3.9619742065,
				"z": -2.3309170791,
				"element": "H" 
			},
			{
				"x": -1.6851757425,
				"y": 1.7794738045,
				"z": -2.3421566279,
				"element": "H" 
			},
			{
				"x": -2.2650187985,
				"y": 2.0945655406,
				"z": -0.6797412808,
				"element": "H" 
			},
			{
				"x": 1.2456917136,
				"y": -0.4218247799,
				"z": -1.9366863421,
				"element": "H" 
			},
			{
				"x": -2.7415098485,
				"y": -0.0095141266,
				"z": 3.117357615,
				"element": "H" 
			},
			{
				"x": 2.673373614,
				"y": -2.1319283326,
				"z": -1.6860727409,
				"element": "H" 
			},
			{
				"x": 3.6487692058,
				"y": -4.3594976949,
				"z": -2.1012520935,
				"element": "H" 
			},
			{
				"x": 2.5459391383,
				"y": -6.4004766386,
				"z": -1.2021279743,
				"element": "H" 
			},
			{
				"x": 0.4414888208,
				"y": -6.1832414962,
				"z": 0.1086665915,
				"element": "H" 
			},
			{
				"x": -0.5607001597,
				"y": -3.9355882069,
				"z": 0.4945359318,
				"element": "H" 
			}
		],
		 "valence_orbital": [ 
			{
				"type": "occ",
				"energy": -0.27556,
				"method": "rhf"
			},
			{
				"type": "occ",
				"energy": -0.27393,
				"method": "rhf"
			},
			{
				"type": "occ",
				"energy": -0.26349,
				"method": "rhf"
			},
			{
				"type": "occ",
				"energy": -0.25085,
				"method": "rhf"
			},
			{
				"type": "occ",
				"energy": -0.22639,
				"method": "rhf"
			},
			{
				"type": "unocc",
				"energy": -0.04694,
				"method": "rhf"
			},
			{
				"type": "unocc",
				"energy": -0.01503,
				"method": "rhf"
			},
			{
				"type": "unocc",
				"energy": -0.00346,
				"method": "rhf"
			},
			{
				"type": "unocc",
				"energy": 0.03764,
				"method": "rhf"
			},
			{
				"type": "unocc",
				"energy": 0.07994,
				"method": "rhf"
			}
		],
		"cosmo_sigma_profile": { 
			"-0.025": 0.0,
			"-0.024": 0.0,
			"-0.023": 0.0,
			"-0.022": 0.0,
			"-0.021": 0.0,
			"-0.02": 0.0,
			"-0.019": 0.0821425646353,
			"-0.018": 0.816036646209,
			"-0.017": 1.0487847408,
			"-0.016": 0.876351859093,
			"-0.015": 0.480867323247,
			"-0.014": 0.586575210711,
			"-0.013": 0.404497248062,
			"-0.012": 0.972882323905,
			"-0.011": 1.94053705354,
			"-0.01": 2.7459098876,
			"-0.009": 2.22643387922,
			"-0.008": 3.01205693766,
			"-0.007": 4.84782586887,
			"-0.006": 10.5023929187,
			"-0.005": 12.141265955,
			"-0.004": 16.8120556766,
			"-0.003": 22.954280889,
			"-0.002": 28.3730707763,
			"-0.001": 27.0963415873,
			"0.0": 29.201316111,
			"0.001": 25.4877695385,
			"0.002": 18.9570030102,
			"0.003": 15.8648494081,
			"0.004": 17.1126159028,
			"0.005": 10.1240768797,
			"0.006": 6.73959190923,
			"0.007": 6.19663224719,
			"0.008": 6.17678976258,
			"0.009": 5.40086874641,
			"0.01": 4.10626529318,
			"0.011": 3.68607580732,
			"0.012": 2.78573064249,
			"0.013": 1.14009140025,
			"0.014": 0.766342005638,
			"0.015": 0.0,
			"0.016": 0.0,
			"0.017": 0.0,
			"0.018": 0.0,
			"0.019": 0.0,
			"0.02": 0.0,
			"0.021": 0.0,
			"0.022": 0.0,
			"0.023": 0.0,
			"0.024": 0.0,
			"0.025": 0.0
		}
	}
}
