{
	 "smiles": "NC1=NC(=C(O1)C1=CC=CC=C1)C1=CC=CC=C1", 
	 "Tm": 424.15, 
	 "num_atms": 30, 
	 "gaussian": { 
		 "optdone": 1, 
		 "sigma_profile": "yes", 
		 "theory": "DFT", 
		 "functional": "B3LYP", 
		 "basiset": "6-31G**", 
		 "properties": { 
			 "R2extent": 5196.8378, 
			 "electric_dipole_moment_norm": 1.95103643738, 
			 "electric_quadrupole_moment_norm": 14.0713243655, 
			 "total_energy": -763.560435031, 
			 "HOMO_LUMO_gap": 0.15284, 
			 "cosmo_polarized_energy": -12.61, 
			 "cosmo_cavitation_energy": 34.31, 
			 "cosmo_dispersion_energy": -24.92, 
			 "cosmo_repulsion_energy": 1.93, 
			 "cosmo_total_nonelectrostatic_energy": 11.32, 
			 "SMD_solvation_energy": 4.48 
		},
		"coords": [
			{
				"x": 2.8210593413,
				"y": 0.7193079508,
				"z": 2.4714477577,
				"element": "N" 
			},
			{
				"x": 1.7792341435,
				"y": 0.836430485,
				"z": 1.5880510178,
				"element": "C" 
			},
			{
				"x": 0.6313121701,
				"y": 1.4113618255,
				"z": 1.7791041515,
				"element": "N" 
			},
			{
				"x": -0.0842750873,
				"y": 1.1556847522,
				"z": 0.6035950401,
				"element": "C" 
			},
			{
				"x": 0.7105148137,
				"y": 0.4536937748,
				"z": -0.2717236426,
				"element": "C" 
			},
			{
				"x": 1.9240388927,
				"y": 0.2292935234,
				"z": 0.3909952313,
				"element": "O" 
			},
			{
				"x": 0.6498473497,
				"y": -0.0333346119,
				"z": -1.6458207558,
				"element": "C" 
			},
			{
				"x": -0.1545237469,
				"y": 0.5952117737,
				"z": -2.6154553495,
				"element": "C" 
			},
			{
				"x": -0.1857247608,
				"y": 0.1221829856,
				"z": -3.9248243136,
				"element": "C" 
			},
			{
				"x": 0.5945431598,
				"y": -0.973714436,
				"z": -4.3019832683,
				"element": "C" 
			},
			{
				"x": 1.4109197629,
				"y": -1.5925455731,
				"z": -3.3531679856,
				"element": "C" 
			},
			{
				"x": 1.4399152626,
				"y": -1.1308506557,
				"z": -2.0392290033,
				"element": "C" 
			},
			{
				"x": -1.480111856,
				"y": 1.6118210416,
				"z": 0.5009577747,
				"element": "C" 
			},
			{
				"x": -1.8791161923,
				"y": 2.7552003075,
				"z": 1.2143132289,
				"element": "C" 
			},
			{
				"x": -3.197593725,
				"y": 3.2025955149,
				"z": 1.159440828,
				"element": "C" 
			},
			{
				"x": -4.145197613,
				"y": 2.5118146386,
				"z": 0.4009771216,
				"element": "C" 
			},
			{
				"x": -3.7639042172,
				"y": 1.3624475042,
				"z": -0.2951224833,
				"element": "C" 
			},
			{
				"x": -2.445904223,
				"y": 0.9122277942,
				"z": -0.2426429369,
				"element": "C" 
			},
			{
				"x": 3.7377483678,
				"y": 0.6409965616,
				"z": 2.0536325246,
				"element": "H" 
			},
			{
				"x": 2.766332243,
				"y": 1.3705261556,
				"z": 3.2414419321,
				"element": "H" 
			},
			{
				"x": -0.7454180038,
				"y": 1.4619626394,
				"z": -2.3409649941,
				"element": "H" 
			},
			{
				"x": -0.812323704,
				"y": 0.6223408951,
				"z": -4.6579413029,
				"element": "H" 
			},
			{
				"x": 0.5706269498,
				"y": -1.337040224,
				"z": -5.3251480865,
				"element": "H" 
			},
			{
				"x": 2.0258460754,
				"y": -2.4426251405,
				"z": -3.6352642856,
				"element": "H" 
			},
			{
				"x": 2.0735239007,
				"y": -1.6178890806,
				"z": -1.3056738065,
				"element": "H" 
			},
			{
				"x": -1.1419972458,
				"y": 3.2783182347,
				"z": 1.8137653637,
				"element": "H" 
			},
			{
				"x": -3.4867507223,
				"y": 4.0917835231,
				"z": 1.7128263607,
				"element": "H" 
			},
			{
				"x": -5.1733341752,
				"y": 2.8599932475,
				"z": 0.3599459024,
				"element": "H" 
			},
			{
				"x": -4.4977212606,
				"y": 0.8060312997,
				"z": -0.8715717466,
				"element": "H" 
			},
			{
				"x": -2.1661658995,
				"y": 0.0047732929,
				"z": -0.7672602738,
				"element": "H" 
			}
		],
		 "valence_orbital": [ 
			{
				"type": "occ",
				"energy": -0.26397,
				"method": "rhf"
			},
			{
				"type": "occ",
				"energy": -0.25088,
				"method": "rhf"
			},
			{
				"type": "occ",
				"energy": -0.24417,
				"method": "rhf"
			},
			{
				"type": "occ",
				"energy": -0.24259,
				"method": "rhf"
			},
			{
				"type": "occ",
				"energy": -0.18963,
				"method": "rhf"
			},
			{
				"type": "unocc",
				"energy": -0.03679,
				"method": "rhf"
			},
			{
				"type": "unocc",
				"energy": -0.00204,
				"method": "rhf"
			},
			{
				"type": "unocc",
				"energy": 0.00739,
				"method": "rhf"
			},
			{
				"type": "unocc",
				"energy": 0.01088,
				"method": "rhf"
			},
			{
				"type": "unocc",
				"energy": 0.04392,
				"method": "rhf"
			}
		],
		"cosmo_sigma_profile": { 
			"-0.025": 0.0,
			"-0.024": 0.0,
			"-0.023": 0.0,
			"-0.022": 0.0,
			"-0.021": 0.0,
			"-0.02": 0.0,
			"-0.019": 0.0,
			"-0.018": 0.0,
			"-0.017": 0.0,
			"-0.016": 0.0,
			"-0.015": 0.559304094762,
			"-0.014": 2.54200396488,
			"-0.013": 2.74518575495,
			"-0.012": 2.48619287812,
			"-0.011": 1.85695434263,
			"-0.01": 2.41378239978,
			"-0.009": 1.45032159179,
			"-0.008": 2.06700841171,
			"-0.007": 1.79213380247,
			"-0.006": 8.04503506272,
			"-0.005": 18.8168490284,
			"-0.004": 23.2955757979,
			"-0.003": 20.5000967079,
			"-0.002": 16.4960452531,
			"-0.001": 17.2716239177,
			"0.0": 18.5245553581,
			"0.001": 17.8018329403,
			"0.002": 22.6577383195,
			"0.003": 23.3910413459,
			"0.004": 22.3456128857,
			"0.005": 23.9342449524,
			"0.006": 10.9208599002,
			"0.007": 2.62690532426,
			"0.008": 1.8666069286,
			"0.009": 1.99416053506,
			"0.01": 2.38164914217,
			"0.011": 1.32832942153,
			"0.012": 0.967485182154,
			"0.013": 0.898629115961,
			"0.014": 0.706169016405,
			"0.015": 0.690251574459,
			"0.016": 0.0623734083098,
			"0.017": 0.0,
			"0.018": 0.0,
			"0.019": 0.0,
			"0.02": 0.0,
			"0.021": 0.0,
			"0.022": 0.0,
			"0.023": 0.0,
			"0.024": 0.0,
			"0.025": 0.0
		}
	}
}
