{
	 "smiles": "COC1=CC=C(Cl)C=C1I", 
	 "Tm": 321.15, 
	 "num_atms": 16, 
	 "gaussian": { 
		 "optdone": 1, 
		 "sigma_profile": "no", 
		 "theory": "DFT", 
		 "functional": "B3LYP", 
		 "basiset": "6-31G**", 
		 "properties": { 
			 "R2extent": 2434.7673, 
			 "electric_dipole_moment_norm": 3.36738454887, 
			 "electric_quadrupole_moment_norm": 7.061658398, 
			 "total_energy": -817.147158995, 
			 "HOMO_LUMO_gap": 0.18669, 
			 "cosmo_polarized_energy": -91249.4, 
			 "cosmo_cavitation_energy": 24.95, 
			 "cosmo_dispersion_energy": -19.96, 
			 "cosmo_repulsion_energy": 1.59, 
			 "cosmo_total_nonelectrostatic_energy": 6.58, 
			 "SMD_solvation_energy": 3.97 
		},
		"coords": [
			{
				"x": -2.6253330091,
				"y": -1.4732515235,
				"z": -1.6882408023,
				"element": "C" 
			},
			{
				"x": -2.5760706252,
				"y": -0.4943370991,
				"z": -0.6592001811,
				"element": "O" 
			},
			{
				"x": -1.4726715618,
				"y": -0.4278690857,
				"z": 0.1252604179,
				"element": "C" 
			},
			{
				"x": -0.3585784438,
				"y": -1.2683812822,
				"z": -0.0070979343,
				"element": "C" 
			},
			{
				"x": 0.742309106,
				"y": -1.138823492,
				"z": 0.8400438996,
				"element": "C" 
			},
			{
				"x": 0.7349257487,
				"y": -0.1623551338,
				"z": 1.8298359086,
				"element": "C" 
			},
			{
				"x": 2.1158584684,
				"y": 0.0101381165,
				"z": 2.9026251134,
				"element": "Cl" 
			},
			{
				"x": -0.3609442198,
				"y": 0.6886958533,
				"z": 1.9847646701,
				"element": "C" 
			},
			{
				"x": -1.4556477245,
				"y": 0.5534279483,
				"z": 1.1358326704,
				"element": "C" 
			},
			{
				"x": -3.1102311919,
				"y": 1.8452664208,
				"z": 1.3769442016,
				"element": "I" 
			},
			{
				"x": -3.5902969214,
				"y": -1.3387370666,
				"z": -2.1776280282,
				"element": "H" 
			},
			{
				"x": -1.8229345112,
				"y": -1.3268326841,
				"z": -2.4218894638,
				"element": "H" 
			},
			{
				"x": -2.5640766907,
				"y": -2.4897310924,
				"z": -1.2801537726,
				"element": "H" 
			},
			{
				"x": -0.3415826972,
				"y": -2.0326885386,
				"z": -0.774552575,
				"element": "H" 
			},
			{
				"x": 1.5975530773,
				"y": -1.7954406629,
				"z": 0.7268395942,
				"element": "H" 
			},
			{
				"x": -0.3563788039,
				"y": 1.4459193219,
				"z": 2.7590162813,
				"element": "H" 
			}
		],
		 "valence_orbital": [ 
			{
				"type": "occ",
				"energy": -0.31527,
				"method": "rhf"
			},
			{
				"type": "occ",
				"energy": -0.29839,
				"method": "rhf"
			},
			{
				"type": "occ",
				"energy": -0.26441,
				"method": "rhf"
			},
			{
				"type": "occ",
				"energy": -0.2517,
				"method": "rhf"
			},
			{
				"type": "occ",
				"energy": -0.22727,
				"method": "rhf"
			},
			{
				"type": "unocc",
				"energy": -0.04058,
				"method": "rhf"
			},
			{
				"type": "unocc",
				"energy": -0.02739,
				"method": "rhf"
			},
			{
				"type": "unocc",
				"energy": -0.00985,
				"method": "rhf"
			},
			{
				"type": "unocc",
				"energy": 0.03191,
				"method": "rhf"
			},
			{
				"type": "unocc",
				"energy": 0.04496,
				"method": "rhf"
			}
		],
		"cosmo_sigma_profile": { 
			"0.0": 0.0,
			"0.0": 0.0,
			"0.0": 0.0,
			"0.0": 0.0,
			"0.0": 0.0,
			"0.0": 0.0,
			"0.0": 0.0,
			"0.0": 0.0,
			"0.0": 0.0,
			"0.0": 0.0,
			"0.0": 0.0,
			"0.0": 0.0,
			"0.0": 0.0,
			"0.0": 0.0,
			"0.0": 0.0,
			"0.0": 0.0,
			"0.0": 0.0,
			"0.0": 0.0,
			"0.0": 0.0,
			"0.0": 0.0,
			"0.0": 0.0,
			"0.0": 0.0,
			"0.0": 0.0,
			"0.0": 0.0,
			"0.0": 0.0,
			"0.0": 0.0,
			"0.0": 0.0,
			"0.0": 0.0,
			"0.0": 0.0,
			"0.0": 0.0,
			"0.0": 0.0,
			"0.0": 0.0,
			"0.0": 0.0,
			"0.0": 0.0,
			"0.0": 0.0,
			"0.0": 0.0,
			"0.0": 0.0,
			"0.0": 0.0,
			"0.0": 0.0,
			"0.0": 0.0,
			"0.0": 0.0,
			"0.0": 0.0,
			"0.0": 0.0,
			"0.0": 0.0,
			"0.0": 0.0,
			"0.0": 0.0,
			"0.0": 0.0,
			"0.0": 0.0,
			"0.0": 0.0,
			"0.0": 0.0,
			"0.0": 0.0
		}
	}
}
