{
	 "smiles": "NNC(=N)C1=CC(F)=CC(F)=C1", 
	 "Tm": 375.15, 
	 "num_atms": 19, 
	 "gaussian": { 
		 "optdone": 1, 
		 "sigma_profile": "yes", 
		 "theory": "DFT", 
		 "functional": "B3LYP", 
		 "basiset": "6-31G**", 
		 "properties": { 
			 "R2extent": 2596.6539, 
			 "electric_dipole_moment_norm": 0.993949706977, 
			 "electric_quadrupole_moment_norm": 3.4695869293, 
			 "total_energy": -634.849101306, 
			 "HOMO_LUMO_gap": 0.19391, 
			 "cosmo_polarized_energy": -10.33, 
			 "cosmo_cavitation_energy": 24.67, 
			 "cosmo_dispersion_energy": -17.76, 
			 "cosmo_repulsion_energy": 1.38, 
			 "cosmo_total_nonelectrostatic_energy": 8.3, 
			 "SMD_solvation_energy": 4.93 
		},
		"coords": [
			{
				"x": -3.2726265016,
				"y": -0.8128969944,
				"z": 1.7523150509,
				"element": "N" 
			},
			{
				"x": -1.9833696779,
				"y": -0.5058915243,
				"z": 1.2546372923,
				"element": "N" 
			},
			{
				"x": -1.8654332247,
				"y": 0.3373869463,
				"z": 0.1612441351,
				"element": "C" 
			},
			{
				"x": -2.9212812254,
				"y": 0.6909057907,
				"z": -0.4805395288,
				"element": "N" 
			},
			{
				"x": -0.4577352507,
				"y": 0.7313866043,
				"z": -0.1621442885,
				"element": "C" 
			},
			{
				"x": -0.1964829295,
				"y": 2.023028114,
				"z": -0.6398230495,
				"element": "C" 
			},
			{
				"x": 1.1114175081,
				"y": 2.3715873297,
				"z": -0.9511321354,
				"element": "C" 
			},
			{
				"x": 1.3640310511,
				"y": 3.6143657861,
				"z": -1.4009900867,
				"element": "F" 
			},
			{
				"x": 2.1769921618,
				"y": 1.4888487596,
				"z": -0.8083803561,
				"element": "C" 
			},
			{
				"x": 1.8840333213,
				"y": 0.216486209,
				"z": -0.3313295418,
				"element": "C" 
			},
			{
				"x": 2.8920077086,
				"y": -0.6636835789,
				"z": -0.1898598449,
				"element": "F" 
			},
			{
				"x": 0.5935490936,
				"y": -0.1825318572,
				"z": -0.0015615433,
				"element": "C" 
			},
			{
				"x": -3.6113327696,
				"y": -1.6109749864,
				"z": 1.2159415489,
				"element": "H" 
			},
			{
				"x": -3.8842473443,
				"y": -0.039115485,
				"z": 1.4802455398,
				"element": "H" 
			},
			{
				"x": -1.3083993918,
				"y": -0.3663516102,
				"z": 1.9952041653,
				"element": "H" 
			},
			{
				"x": -2.6745236719,
				"y": 1.2363218468,
				"z": -1.3050331914,
				"element": "H" 
			},
			{
				"x": -0.9886610169,
				"y": 2.7548361757,
				"z": -0.7487606939,
				"element": "H" 
			},
			{
				"x": 3.1897228577,
				"y": 1.7802761466,
				"z": -1.0579586332,
				"element": "H" 
			},
			{
				"x": 0.4123393021,
				"y": -1.1926836726,
				"z": 0.3454251613,
				"element": "H" 
			}
		],
		 "valence_orbital": [ 
			{
				"type": "occ",
				"energy": -0.28268,
				"method": "rhf"
			},
			{
				"type": "occ",
				"energy": -0.27214,
				"method": "rhf"
			},
			{
				"type": "occ",
				"energy": -0.26571,
				"method": "rhf"
			},
			{
				"type": "occ",
				"energy": -0.26013,
				"method": "rhf"
			},
			{
				"type": "occ",
				"energy": -0.23963,
				"method": "rhf"
			},
			{
				"type": "unocc",
				"energy": -0.04572,
				"method": "rhf"
			},
			{
				"type": "unocc",
				"energy": -0.01646,
				"method": "rhf"
			},
			{
				"type": "unocc",
				"energy": 0.04395,
				"method": "rhf"
			},
			{
				"type": "unocc",
				"energy": 0.0752,
				"method": "rhf"
			},
			{
				"type": "unocc",
				"energy": 0.09576,
				"method": "rhf"
			}
		],
		"cosmo_sigma_profile": { 
			"-0.025": 0.0,
			"-0.024": 0.0,
			"-0.023": 0.0,
			"-0.022": 0.0,
			"-0.021": 0.0,
			"-0.02": 0.0,
			"-0.019": 0.0,
			"-0.018": 0.0,
			"-0.017": 0.0,
			"-0.016": 0.0,
			"-0.015": 0.0,
			"-0.014": 0.0691535618245,
			"-0.013": 0.82125773581,
			"-0.012": 1.06928441735,
			"-0.011": 1.83498555827,
			"-0.01": 2.46204355911,
			"-0.009": 5.78008989317,
			"-0.008": 7.96277157515,
			"-0.007": 7.63396648659,
			"-0.006": 7.11502040756,
			"-0.005": 7.93531174598,
			"-0.004": 8.29762107389,
			"-0.003": 8.21427119632,
			"-0.002": 8.71132563417,
			"-0.001": 14.3275205945,
			"0.0": 24.6032884543,
			"0.001": 19.908757598,
			"0.002": 11.7510602386,
			"0.003": 14.5974874039,
			"0.004": 19.2627655328,
			"0.005": 2.80008213767,
			"0.006": 2.63713214806,
			"0.007": 2.57496467154,
			"0.008": 2.55004743252,
			"0.009": 1.87663541237,
			"0.01": 1.91194580488,
			"0.011": 1.27367425951,
			"0.012": 1.51635995306,
			"0.013": 2.15546456352,
			"0.014": 1.77557170663,
			"0.015": 1.32708321595,
			"0.016": 1.47359173682,
			"0.017": 0.545275432247,
			"0.018": 0.0191763039,
			"0.019": 0.0,
			"0.02": 0.0,
			"0.021": 0.0,
			"0.022": 0.0,
			"0.023": 0.0,
			"0.024": 0.0,
			"0.025": 0.0
		}
	}
}
