{
	 "smiles": "CC1(C)OCC(O1)C(O)C(O)C1COC(C)(C)O1", 
	 "Tm": 387.15, 
	 "num_atms": 40, 
	 "gaussian": { 
		 "optdone": 1, 
		 "sigma_profile": "yes", 
		 "theory": "DFT", 
		 "functional": "B3LYP", 
		 "basiset": "6-31G**", 
		 "properties": { 
			 "R2extent": 5397.3217, 
			 "electric_dipole_moment_norm": 1.03941995844, 
			 "electric_quadrupole_moment_norm": 5.25078560694, 
			 "total_energy": -921.859362346, 
			 "HOMO_LUMO_gap": 0.32003, 
			 "cosmo_polarized_energy": -13.68, 
			 "cosmo_cavitation_energy": 39.15, 
			 "cosmo_dispersion_energy": -26.48, 
			 "cosmo_repulsion_energy": 2.05, 
			 "cosmo_total_nonelectrostatic_energy": 14.72, 
			 "SMD_solvation_energy": 6.26 
		},
		"coords": [
			{
				"x": 2.1000694093,
				"y": -2.4121680265,
				"z": -0.6536987344,
				"element": "C" 
			},
			{
				"x": 2.6011163647,
				"y": -1.2748865512,
				"z": -1.5367258729,
				"element": "C" 
			},
			{
				"x": 4.1170589685,
				"y": -1.0951943192,
				"z": -1.4753539647,
				"element": "C" 
			},
			{
				"x": 2.2297311144,
				"y": -1.5103774219,
				"z": -2.9065501728,
				"element": "O" 
			},
			{
				"x": 1.2897684247,
				"y": -0.5185220447,
				"z": -3.2990553052,
				"element": "C" 
			},
			{
				"x": 1.5891065392,
				"y": 0.6341825314,
				"z": -2.3372000528,
				"element": "C" 
			},
			{
				"x": 1.9318269388,
				"y": -0.0711487127,
				"z": -1.1436855412,
				"element": "O" 
			},
			{
				"x": 0.4941390383,
				"y": 1.6782737384,
				"z": -2.1093195793,
				"element": "C" 
			},
			{
				"x": 0.9781879599,
				"y": 2.7710615699,
				"z": -1.3308855533,
				"element": "O" 
			},
			{
				"x": -0.8807916056,
				"y": 1.2340567989,
				"z": -1.5488639662,
				"element": "C" 
			},
			{
				"x": -1.7214567269,
				"y": 2.3808424445,
				"z": -1.5603973062,
				"element": "O" 
			},
			{
				"x": -0.8384894532,
				"y": 0.5892353254,
				"z": -0.1525448401,
				"element": "C" 
			},
			{
				"x": -2.2232537519,
				"y": 0.3363386481,
				"z": 0.46327188,
				"element": "C" 
			},
			{
				"x": -2.0146293313,
				"y": 0.5700241122,
				"z": 1.85260524,
				"element": "O" 
			},
			{
				"x": -1.0499109767,
				"y": 1.604423385,
				"z": 1.9653235869,
				"element": "C" 
			},
			{
				"x": -1.7079653153,
				"y": 2.9861035478,
				"z": 1.9640270116,
				"element": "C" 
			},
			{
				"x": -0.207026958,
				"y": 1.3394910593,
				"z": 3.2043824215,
				"element": "C" 
			},
			{
				"x": -0.2159724148,
				"y": 1.4801539216,
				"z": 0.7911408668,
				"element": "O" 
			},
			{
				"x": 2.602156704,
				"y": -3.3457883555,
				"z": -0.9211818188,
				"element": "H" 
			},
			{
				"x": 2.2994871177,
				"y": -2.1941240837,
				"z": 0.3992409903,
				"element": "H" 
			},
			{
				"x": 1.0235744382,
				"y": -2.5437945248,
				"z": -0.7895299589,
				"element": "H" 
			},
			{
				"x": 4.4409601942,
				"y": -0.938725964,
				"z": -0.4426183456,
				"element": "H" 
			},
			{
				"x": 4.4202939861,
				"y": -0.2326334269,
				"z": -2.0742205155,
				"element": "H" 
			},
			{
				"x": 4.6176057918,
				"y": -1.9826083623,
				"z": -1.8726131597,
				"element": "H" 
			},
			{
				"x": 0.2586157059,
				"y": -0.8872145321,
				"z": -3.1902541471,
				"element": "H" 
			},
			{
				"x": 1.461907145,
				"y": -0.2636117483,
				"z": -4.3489814157,
				"element": "H" 
			},
			{
				"x": 2.4652588486,
				"y": 1.1931320162,
				"z": -2.7004322367,
				"element": "H" 
			},
			{
				"x": 0.2834583017,
				"y": 2.1060963123,
				"z": -3.0984203331,
				"element": "H" 
			},
			{
				"x": 1.0061887394,
				"y": 2.4593822151,
				"z": -0.4090994017,
				"element": "H" 
			},
			{
				"x": -1.3340627668,
				"y": 0.503930367,
				"z": -2.2323088999,
				"element": "H" 
			},
			{
				"x": -1.1445753437,
				"y": 3.1080017262,
				"z": -1.2733539122,
				"element": "H" 
			},
			{
				"x": -0.247386366,
				"y": -0.3300116965,
				"z": -0.1958830266,
				"element": "H" 
			},
			{
				"x": -2.562824906,
				"y": -0.6955387857,
				"z": 0.3425821774,
				"element": "H" 
			},
			{
				"x": -2.9703296647,
				"y": 1.0200185749,
				"z": 0.0435238259,
				"element": "H" 
			},
			{
				"x": -2.3730008988,
				"y": 3.0891914917,
				"z": 2.8261121045,
				"element": "H" 
			},
			{
				"x": -0.9462749784,
				"y": 3.7700947215,
				"z": 2.0143003896,
				"element": "H" 
			},
			{
				"x": -2.2874213823,
				"y": 3.1267124334,
				"z": 1.0484732025,
				"element": "H" 
			},
			{
				"x": -0.8305609358,
				"y": 1.3847292867,
				"z": 4.1015145335,
				"element": "H" 
			},
			{
				"x": 0.586779979,
				"y": 2.0861382698,
				"z": 3.291427405,
				"element": "H" 
			},
			{
				"x": 0.2422420666,
				"y": 0.3466340586,
				"z": 3.1338524252,
				"element": "H" 
			}
		],
		 "valence_orbital": [ 
			{
				"type": "occ",
				"energy": -0.28234,
				"method": "rhf"
			},
			{
				"type": "occ",
				"energy": -0.27109,
				"method": "rhf"
			},
			{
				"type": "occ",
				"energy": -0.26341,
				"method": "rhf"
			},
			{
				"type": "occ",
				"energy": -0.25486,
				"method": "rhf"
			},
			{
				"type": "occ",
				"energy": -0.25067,
				"method": "rhf"
			},
			{
				"type": "unocc",
				"energy": 0.06936,
				"method": "rhf"
			},
			{
				"type": "unocc",
				"energy": 0.0756,
				"method": "rhf"
			},
			{
				"type": "unocc",
				"energy": 0.08666,
				"method": "rhf"
			},
			{
				"type": "unocc",
				"energy": 0.09463,
				"method": "rhf"
			},
			{
				"type": "unocc",
				"energy": 0.09989,
				"method": "rhf"
			}
		],
		"cosmo_sigma_profile": { 
			"-0.025": 0.0,
			"-0.024": 0.0,
			"-0.023": 0.0,
			"-0.022": 0.0,
			"-0.021": 0.0,
			"-0.02": 0.0,
			"-0.019": 0.0,
			"-0.018": 0.0,
			"-0.017": 0.0,
			"-0.016": 0.0,
			"-0.015": 0.0,
			"-0.014": 0.0,
			"-0.013": 0.0,
			"-0.012": 0.0,
			"-0.011": 0.0,
			"-0.01": 0.397512366955,
			"-0.009": 0.412121837045,
			"-0.008": 0.576306727319,
			"-0.007": 5.62617590705,
			"-0.006": 15.016994641,
			"-0.005": 17.5858657281,
			"-0.004": 34.5397753585,
			"-0.003": 35.1398789975,
			"-0.002": 32.2478254598,
			"-0.001": 29.2837127286,
			"0.0": 34.7018610774,
			"0.001": 19.7274834123,
			"0.002": 8.96483980506,
			"0.003": 8.40244091951,
			"0.004": 6.79928140823,
			"0.005": 7.23973979562,
			"0.006": 6.13887294925,
			"0.007": 5.94727458715,
			"0.008": 5.56168593653,
			"0.009": 5.55426219098,
			"0.01": 6.15993265584,
			"0.011": 5.39518098778,
			"0.012": 5.25496445162,
			"0.013": 4.22334623359,
			"0.014": 1.93315304378,
			"0.015": 0.00754608743795,
			"0.016": 0.0,
			"0.017": 0.0,
			"0.018": 0.0,
			"0.019": 0.0,
			"0.02": 0.0,
			"0.021": 0.0,
			"0.022": 0.0,
			"0.023": 0.0,
			"0.024": 0.0,
			"0.025": 0.0
		}
	}
}
