{
	 "smiles": "CC1=NC2=CC=CC=C2C1(C)C#N", 
	 "Tm": 346.15, 
	 "num_atms": 23, 
	 "gaussian": { 
		 "optdone": 1, 
		 "sigma_profile": "yes", 
		 "theory": "DFT", 
		 "functional": "B3LYP", 
		 "basiset": "6-31G**", 
		 "properties": { 
			 "R2extent": 2496.4662, 
			 "electric_dipole_moment_norm": 3.23780297733, 
			 "electric_quadrupole_moment_norm": 14.9488389894, 
			 "total_energy": -534.679550621, 
			 "HOMO_LUMO_gap": 0.19017, 
			 "cosmo_polarized_energy": -11.2, 
			 "cosmo_cavitation_energy": 27.4, 
			 "cosmo_dispersion_energy": -18.88, 
			 "cosmo_repulsion_energy": 1.49, 
			 "cosmo_total_nonelectrostatic_energy": 10.01, 
			 "SMD_solvation_energy": 4.27 
		},
		"coords": [
			{
				"x": -2.0852145684,
				"y": 1.1876455908,
				"z": 0.2240090233,
				"element": "C" 
			},
			{
				"x": -0.9007969156,
				"y": 0.2872541555,
				"z": 0.1015854652,
				"element": "C" 
			},
			{
				"x": -0.087430433,
				"y": 0.0413989905,
				"z": 1.0679441483,
				"element": "N" 
			},
			{
				"x": 0.8875321915,
				"y": -0.8730502457,
				"z": 0.5935407727,
				"element": "C" 
			},
			{
				"x": 1.9486678755,
				"y": -1.4031200973,
				"z": 1.3199887547,
				"element": "C" 
			},
			{
				"x": 2.7991546386,
				"y": -2.3053304638,
				"z": 0.6706047603,
				"element": "C" 
			},
			{
				"x": 2.589056326,
				"y": -2.6617985081,
				"z": -0.6655759101,
				"element": "C" 
			},
			{
				"x": 1.5194696176,
				"y": -2.1207069735,
				"z": -1.3939622731,
				"element": "C" 
			},
			{
				"x": 0.67939993,
				"y": -1.2259203415,
				"z": -0.7495413371,
				"element": "C" 
			},
			{
				"x": -0.5258299163,
				"y": -0.43051715,
				"z": -1.2273562942,
				"element": "C" 
			},
			{
				"x": -0.162211929,
				"y": 0.5942040277,
				"z": -2.3349038896,
				"element": "C" 
			},
			{
				"x": -1.6279208333,
				"y": -1.2902747925,
				"z": -1.6801019392,
				"element": "C" 
			},
			{
				"x": -2.5107089844,
				"y": -1.9514176065,
				"z": -2.0447243683,
				"element": "N" 
			},
			{
				"x": -2.1554673844,
				"y": 1.5642892059,
				"z": 1.2453592723,
				"element": "H" 
			},
			{
				"x": -3.0074858094,
				"y": 0.6518939051,
				"z": -0.0290430152,
				"element": "H" 
			},
			{
				"x": -2.0108711655,
				"y": 2.038408942,
				"z": -0.4642647513,
				"element": "H" 
			},
			{
				"x": 2.0991027805,
				"y": -1.1219096788,
				"z": 2.357002746,
				"element": "H" 
			},
			{
				"x": 3.6343664389,
				"y": -2.7381019935,
				"z": 1.2133994259,
				"element": "H" 
			},
			{
				"x": 3.259822049,
				"y": -3.3682965903,
				"z": -1.1449901475,
				"element": "H" 
			},
			{
				"x": 1.3561419983,
				"y": -2.4072825116,
				"z": -2.4291948817,
				"element": "H" 
			},
			{
				"x": 0.6348322176,
				"y": 1.250094161,
				"z": -1.9758877579,
				"element": "H" 
			},
			{
				"x": 0.1891003997,
				"y": 0.0733242712,
				"z": -3.2288839585,
				"element": "H" 
			},
			{
				"x": -1.0304085237,
				"y": 1.1999137036,
				"z": -2.6076038448,
				"element": "H" 
			}
		],
		 "valence_orbital": [ 
			{
				"type": "occ",
				"energy": -0.33346,
				"method": "rhf"
			},
			{
				"type": "occ",
				"energy": -0.32413,
				"method": "rhf"
			},
			{
				"type": "occ",
				"energy": -0.27526,
				"method": "rhf"
			},
			{
				"type": "occ",
				"energy": -0.26194,
				"method": "rhf"
			},
			{
				"type": "occ",
				"energy": -0.24005,
				"method": "rhf"
			},
			{
				"type": "unocc",
				"energy": -0.04988,
				"method": "rhf"
			},
			{
				"type": "unocc",
				"energy": -0.01763,
				"method": "rhf"
			},
			{
				"type": "unocc",
				"energy": 0.01485,
				"method": "rhf"
			},
			{
				"type": "unocc",
				"energy": 0.0371,
				"method": "rhf"
			},
			{
				"type": "unocc",
				"energy": 0.04484,
				"method": "rhf"
			}
		],
		"cosmo_sigma_profile": { 
			"-0.025": 0.0,
			"-0.024": 0.0,
			"-0.023": 0.0,
			"-0.022": 0.0,
			"-0.021": 0.0,
			"-0.02": 0.0,
			"-0.019": 0.0,
			"-0.018": 0.0,
			"-0.017": 0.0,
			"-0.016": 0.0,
			"-0.015": 0.0,
			"-0.014": 0.0,
			"-0.013": 0.0,
			"-0.012": 0.0,
			"-0.011": 0.0,
			"-0.01": 0.0,
			"-0.009": 0.0,
			"-0.008": 0.229855019609,
			"-0.007": 4.32707266529,
			"-0.006": 19.0450195829,
			"-0.005": 21.3088585575,
			"-0.004": 22.9458846541,
			"-0.003": 20.9271644793,
			"-0.002": 19.6303054415,
			"-0.001": 14.7982255727,
			"0.0": 9.47574446818,
			"0.001": 10.6965077455,
			"0.002": 10.798298235,
			"0.003": 13.2716106545,
			"0.004": 12.4411176405,
			"0.005": 8.45260108268,
			"0.006": 3.48185343021,
			"0.007": 3.71908704936,
			"0.008": 4.0472632084,
			"0.009": 5.18319947092,
			"0.01": 3.78803595413,
			"0.011": 3.61445859721,
			"0.012": 2.95780026368,
			"0.013": 2.42597837763,
			"0.014": 0.646674624157,
			"0.015": 0.811837886027,
			"0.016": 0.166682254978,
			"0.017": 0.0,
			"0.018": 0.0,
			"0.019": 0.0,
			"0.02": 0.0,
			"0.021": 0.0,
			"0.022": 0.0,
			"0.023": 0.0,
			"0.024": 0.0,
			"0.025": 0.0
		}
	}
}
