{
	 "smiles": "CC1=CC=C(C)C(=C1)C#N", 
	 "Tm": 286.65, 
	 "num_atms": 19, 
	 "gaussian": { 
		 "optdone": 1, 
		 "sigma_profile": "yes", 
		 "theory": "DFT", 
		 "functional": "B3LYP", 
		 "basiset": "6-31G**", 
		 "properties": { 
			 "R2extent": 2189.3405, 
			 "electric_dipole_moment_norm": 4.52463148334, 
			 "electric_quadrupole_moment_norm": 19.1366817832, 
			 "total_energy": -403.133501749, 
			 "HOMO_LUMO_gap": 0.20199, 
			 "cosmo_polarized_energy": -8.12, 
			 "cosmo_cavitation_energy": 23.51, 
			 "cosmo_dispersion_energy": -16.55, 
			 "cosmo_repulsion_energy": 1.34, 
			 "cosmo_total_nonelectrostatic_energy": 8.3, 
			 "SMD_solvation_energy": 5.41 
		},
		"coords": [
			{
				"x": -3.2493666933,
				"y": 0.9929958063,
				"z": -0.8532549015,
				"element": "C" 
			},
			{
				"x": -2.0714098727,
				"y": 0.1077158387,
				"z": -0.5217110685,
				"element": "C" 
			},
			{
				"x": -0.809307992,
				"y": 0.3442850182,
				"z": -1.0853015178,
				"element": "C" 
			},
			{
				"x": 0.2817686103,
				"y": -0.4700314855,
				"z": -0.787541035,
				"element": "C" 
			},
			{
				"x": 0.1691841465,
				"y": -1.557305273,
				"z": 0.0846380191,
				"element": "C" 
			},
			{
				"x": 1.3503289959,
				"y": -2.4374678389,
				"z": 0.4064777671,
				"element": "C" 
			},
			{
				"x": -1.1009222321,
				"y": -1.7959102287,
				"z": 0.6528657498,
				"element": "C" 
			},
			{
				"x": -2.1995766447,
				"y": -0.9731529736,
				"z": 0.3508973941,
				"element": "C" 
			},
			{
				"x": -1.283338621,
				"y": -2.8951656742,
				"z": 1.5564402549,
				"element": "C" 
			},
			{
				"x": -1.4247733287,
				"y": -3.7886656928,
				"z": 2.2886777899,
				"element": "N" 
			},
			{
				"x": -3.4912512152,
				"y": 0.948531362,
				"z": -1.9213241437,
				"element": "H" 
			},
			{
				"x": -3.0387650516,
				"y": 2.0412132816,
				"z": -0.613670561,
				"element": "H" 
			},
			{
				"x": -4.1420190764,
				"y": 0.6954888316,
				"z": -0.2969521542,
				"element": "H" 
			},
			{
				"x": -0.678298029,
				"y": 1.1800778924,
				"z": -1.7684728581,
				"element": "H" 
			},
			{
				"x": 1.2461147764,
				"y": -0.2585386755,
				"z": -1.24151368,
				"element": "H" 
			},
			{
				"x": 2.2443769051,
				"y": -2.1003060803,
				"z": -0.1235726772,
				"element": "H" 
			},
			{
				"x": 1.5686194378,
				"y": -2.4355329223,
				"z": 1.4800295686,
				"element": "H" 
			},
			{
				"x": 1.1596514165,
				"y": -3.4792576553,
				"z": 0.1263102336,
				"element": "H" 
			},
			{
				"x": -3.1592155316,
				"y": -1.1910735305,
				"z": 0.8098778199,
				"element": "H" 
			}
		],
		 "valence_orbital": [ 
			{
				"type": "occ",
				"energy": -0.34917,
				"method": "rhf"
			},
			{
				"type": "occ",
				"energy": -0.33666,
				"method": "rhf"
			},
			{
				"type": "occ",
				"energy": -0.32421,
				"method": "rhf"
			},
			{
				"type": "occ",
				"energy": -0.26309,
				"method": "rhf"
			},
			{
				"type": "occ",
				"energy": -0.24974,
				"method": "rhf"
			},
			{
				"type": "unocc",
				"energy": -0.04775,
				"method": "rhf"
			},
			{
				"type": "unocc",
				"energy": -0.01295,
				"method": "rhf"
			},
			{
				"type": "unocc",
				"energy": 0.04097,
				"method": "rhf"
			},
			{
				"type": "unocc",
				"energy": 0.07629,
				"method": "rhf"
			},
			{
				"type": "unocc",
				"energy": 0.08635,
				"method": "rhf"
			}
		],
		"cosmo_sigma_profile": { 
			"-0.025": 0.0,
			"-0.024": 0.0,
			"-0.023": 0.0,
			"-0.022": 0.0,
			"-0.021": 0.0,
			"-0.02": 0.0,
			"-0.019": 0.0,
			"-0.018": 0.0,
			"-0.017": 0.0,
			"-0.016": 0.0,
			"-0.015": 0.0,
			"-0.014": 0.0,
			"-0.013": 0.0,
			"-0.012": 0.0,
			"-0.011": 0.0,
			"-0.01": 0.0,
			"-0.009": 0.0,
			"-0.008": 0.0473645040395,
			"-0.007": 2.43848648802,
			"-0.006": 7.89430601081,
			"-0.005": 14.4989236638,
			"-0.004": 18.7673026975,
			"-0.003": 17.9071742336,
			"-0.002": 17.7880113826,
			"-0.001": 22.795138317,
			"0.0": 20.1492392758,
			"0.001": 11.1275666709,
			"0.002": 10.2655026073,
			"0.003": 12.2112701151,
			"0.004": 7.41741629564,
			"0.005": 1.82782726745,
			"0.006": 2.50272761145,
			"0.007": 2.4555353245,
			"0.008": 2.97319755842,
			"0.009": 3.47012256886,
			"0.01": 3.22477483403,
			"0.011": 3.1842588248,
			"0.012": 2.46469521529,
			"0.013": 1.9996463709,
			"0.014": 0.314747061181,
			"0.015": 0.0,
			"0.016": 0.0,
			"0.017": 0.0,
			"0.018": 0.0,
			"0.019": 0.0,
			"0.02": 0.0,
			"0.021": 0.0,
			"0.022": 0.0,
			"0.023": 0.0,
			"0.024": 0.0,
			"0.025": 0.0
		}
	}
}
