{
	 "smiles": "CCCCNC1=C(N)C=C(C=C1)S(=O)(=O)N1CCCC1", 
	 "Tm": 482.15, 
	 "num_atms": 43, 
	 "gaussian": { 
		 "optdone": 1, 
		 "sigma_profile": "yes", 
		 "theory": "DFT", 
		 "functional": "B3LYP", 
		 "basiset": "6-31G**", 
		 "properties": { 
			 "R2extent": 10472.4832, 
			 "electric_dipole_moment_norm": 7.72862624145, 
			 "electric_quadrupole_moment_norm": 42.5211481924, 
			 "total_energy": -1260.18830171, 
			 "HOMO_LUMO_gap": 0.1884, 
			 "cosmo_polarized_energy": -20.64, 
			 "cosmo_cavitation_energy": 44.49, 
			 "cosmo_dispersion_energy": -31.94, 
			 "cosmo_repulsion_energy": 2.47, 
			 "cosmo_total_nonelectrostatic_energy": 15.02, 
			 "SMD_solvation_energy": 4.26 
		},
		"coords": [
			{
				"x": -4.830187749,
				"y": -0.5898189973,
				"z": 4.093343248,
				"element": "C" 
			},
			{
				"x": -3.8869488342,
				"y": 0.4032376578,
				"z": 3.4023138458,
				"element": "C" 
			},
			{
				"x": -2.8845047781,
				"y": -0.2397444882,
				"z": 2.4308279526,
				"element": "C" 
			},
			{
				"x": -1.862095367,
				"y": -1.1612755052,
				"z": 3.1143738439,
				"element": "C" 
			},
			{
				"x": -0.8784713755,
				"y": -1.7011347077,
				"z": 2.1802985389,
				"element": "N" 
			},
			{
				"x": 0.2790282891,
				"y": -1.01157986,
				"z": 1.8380256289,
				"element": "C" 
			},
			{
				"x": 1.243597368,
				"y": -1.7168112035,
				"z": 1.0631361805,
				"element": "C" 
			},
			{
				"x": 0.9565564236,
				"y": -3.0614864737,
				"z": 0.7386702396,
				"element": "N" 
			},
			{
				"x": 2.4381336178,
				"y": -1.0973117098,
				"z": 0.714361185,
				"element": "C" 
			},
			{
				"x": 2.692345193,
				"y": 0.2222595892,
				"z": 1.1149883644,
				"element": "C" 
			},
			{
				"x": 1.7456225061,
				"y": 0.9329352844,
				"z": 1.8518156741,
				"element": "C" 
			},
			{
				"x": 0.546693308,
				"y": 0.3147289777,
				"z": 2.2086038079,
				"element": "C" 
			},
			{
				"x": 4.2120312995,
				"y": 1.0159142498,
				"z": 0.6084015264,
				"element": "S" 
			},
			{
				"x": 4.5181116735,
				"y": 2.0586838228,
				"z": 1.5917649605,
				"element": "O" 
			},
			{
				"x": 5.1648397902,
				"y": -0.0440153356,
				"z": 0.2640746757,
				"element": "O" 
			},
			{
				"x": 3.8920637246,
				"y": 1.822236024,
				"z": -0.8230305004,
				"element": "N" 
			},
			{
				"x": 3.6575311232,
				"y": 1.0454664211,
				"z": -2.0632637021,
				"element": "C" 
			},
			{
				"x": 2.809998215,
				"y": 1.9949026494,
				"z": -2.9395098476,
				"element": "C" 
			},
			{
				"x": 3.0003772912,
				"y": 3.3840458725,
				"z": -2.3023242538,
				"element": "C" 
			},
			{
				"x": 3.0986021665,
				"y": 3.0634132177,
				"z": -0.8080866445,
				"element": "C" 
			},
			{
				"x": -5.3888859165,
				"y": -1.1800561123,
				"z": 3.3576348003,
				"element": "H" 
			},
			{
				"x": -5.5590767275,
				"y": -0.0668715576,
				"z": 4.7207178278,
				"element": "H" 
			},
			{
				"x": -4.290703267,
				"y": -1.2904618332,
				"z": 4.7394684484,
				"element": "H" 
			},
			{
				"x": -4.4857037929,
				"y": 1.1356109342,
				"z": 2.8472319813,
				"element": "H" 
			},
			{
				"x": -3.3393434367,
				"y": 0.9771779021,
				"z": 4.1627345685,
				"element": "H" 
			},
			{
				"x": -3.4192348635,
				"y": -0.8197636819,
				"z": 1.6676884624,
				"element": "H" 
			},
			{
				"x": -2.3460973191,
				"y": 0.5489722131,
				"z": 1.8923983962,
				"element": "H" 
			},
			{
				"x": -1.3709020633,
				"y": -0.6263648156,
				"z": 3.9431974198,
				"element": "H" 
			},
			{
				"x": -2.378040923,
				"y": -2.0157812187,
				"z": 3.561688672,
				"element": "H" 
			},
			{
				"x": -0.7028229533,
				"y": -2.6947317452,
				"z": 2.2751892554,
				"element": "H" 
			},
			{
				"x": 0.0607691941,
				"y": -3.1618949512,
				"z": 0.2682789457,
				"element": "H" 
			},
			{
				"x": 1.6845774768,
				"y": -3.4950360779,
				"z": 0.1833826811,
				"element": "H" 
			},
			{
				"x": 3.1951592316,
				"y": -1.6403974935,
				"z": 0.15690434,
				"element": "H" 
			},
			{
				"x": 1.9622167776,
				"y": 1.9426756646,
				"z": 2.181548771,
				"element": "H" 
			},
			{
				"x": -0.171870172,
				"y": 0.8643336653,
				"z": 2.8055430262,
				"element": "H" 
			},
			{
				"x": 3.1261863021,
				"y": 0.1068996351,
				"z": -1.8643292731,
				"element": "H" 
			},
			{
				"x": 4.6201719014,
				"y": 0.7949191019,
				"z": -2.5176449758,
				"element": "H" 
			},
			{
				"x": 3.1091671409,
				"y": 1.9613893244,
				"z": -3.9905041714,
				"element": "H" 
			},
			{
				"x": 1.7545972592,
				"y": 1.7059864094,
				"z": -2.8877288214,
				"element": "H" 
			},
			{
				"x": 2.18313179,
				"y": 4.0745320777,
				"z": -2.5285392546,
				"element": "H" 
			},
			{
				"x": 3.9365787824,
				"y": 3.8384162647,
				"z": -2.6432223313,
				"element": "H" 
			},
			{
				"x": 2.0958648752,
				"y": 2.9065712708,
				"z": -0.3782656176,
				"element": "H" 
			},
			{
				"x": 3.6127368177,
				"y": 3.8265295383,
				"z": -0.2219578744,
				"element": "H" 
			}
		],
		 "valence_orbital": [ 
			{
				"type": "occ",
				"energy": -0.28202,
				"method": "rhf"
			},
			{
				"type": "occ",
				"energy": -0.28046,
				"method": "rhf"
			},
			{
				"type": "occ",
				"energy": -0.2441,
				"method": "rhf"
			},
			{
				"type": "occ",
				"energy": -0.23367,
				"method": "rhf"
			},
			{
				"type": "occ",
				"energy": -0.19874,
				"method": "rhf"
			},
			{
				"type": "unocc",
				"energy": -0.01034,
				"method": "rhf"
			},
			{
				"type": "unocc",
				"energy": -0.00111,
				"method": "rhf"
			},
			{
				"type": "unocc",
				"energy": 0.06599,
				"method": "rhf"
			},
			{
				"type": "unocc",
				"energy": 0.0697,
				"method": "rhf"
			},
			{
				"type": "unocc",
				"energy": 0.07733,
				"method": "rhf"
			}
		],
		"cosmo_sigma_profile": { 
			"-0.025": 0.0,
			"-0.024": 0.0,
			"-0.023": 0.0,
			"-0.022": 0.0,
			"-0.021": 0.0,
			"-0.02": 0.0,
			"-0.019": 0.0,
			"-0.018": 0.0,
			"-0.017": 0.0,
			"-0.016": 0.0,
			"-0.015": 0.0,
			"-0.014": 0.0,
			"-0.013": 0.156855250736,
			"-0.012": 1.87781567012,
			"-0.011": 3.78911207027,
			"-0.01": 3.8973747604,
			"-0.009": 3.73514908282,
			"-0.008": 3.94770928234,
			"-0.007": 4.11173418357,
			"-0.006": 4.91219789849,
			"-0.005": 11.1188843671,
			"-0.004": 27.5133014749,
			"-0.003": 41.2931277911,
			"-0.002": 46.9455996593,
			"-0.001": 39.7282431487,
			"0.0": 32.0969549529,
			"0.001": 23.6726651501,
			"0.002": 13.8010760944,
			"0.003": 10.5558449696,
			"0.004": 15.4681018033,
			"0.005": 10.1984513558,
			"0.006": 6.81790344387,
			"0.007": 5.6858769167,
			"0.008": 6.49092442006,
			"0.009": 5.09181437742,
			"0.01": 4.43218898094,
			"0.011": 8.94077270396,
			"0.012": 8.57626365801,
			"0.013": 2.2329180828,
			"0.014": 0.22774143004,
			"0.015": 0.0,
			"0.016": 0.0,
			"0.017": 0.0,
			"0.018": 0.0,
			"0.019": 0.0,
			"0.02": 0.0,
			"0.021": 0.0,
			"0.022": 0.0,
			"0.023": 0.0,
			"0.024": 0.0,
			"0.025": 0.0
		}
	}
}
