{
	 "smiles": "CC(C)C1=C(OCCC(O)=O)C=CC=C1", 
	 "Tm": 358.15, 
	 "num_atms": 31, 
	 "gaussian": { 
		 "optdone": 1, 
		 "sigma_profile": "yes", 
		 "theory": "DFT", 
		 "functional": "B3LYP", 
		 "basiset": "6-31G**", 
		 "properties": { 
			 "R2extent": 5228.8882, 
			 "electric_dipole_moment_norm": 3.1502632271, 
			 "electric_quadrupole_moment_norm": 19.3827633659, 
			 "total_energy": -692.603721573, 
			 "HOMO_LUMO_gap": 0.21726, 
			 "cosmo_polarized_energy": -15.8, 
			 "cosmo_cavitation_energy": 34.05, 
			 "cosmo_dispersion_energy": -23.82, 
			 "cosmo_repulsion_energy": 1.9, 
			 "cosmo_total_nonelectrostatic_energy": 12.13, 
			 "SMD_solvation_energy": 7.11 
		},
		"coords": [
			{
				"x": 0.0627609635,
				"y": 1.0599183748,
				"z": -2.1527742046,
				"element": "C" 
			},
			{
				"x": -1.2451790091,
				"y": 0.2434966876,
				"z": -2.0803192924,
				"element": "C" 
			},
			{
				"x": -2.2462656167,
				"y": 0.7317830256,
				"z": -3.1375353277,
				"element": "C" 
			},
			{
				"x": -1.8013534349,
				"y": 0.240004764,
				"z": -0.660863384,
				"element": "C" 
			},
			{
				"x": -1.2433502605,
				"y": -0.6262598987,
				"z": 0.3074915884,
				"element": "C" 
			},
			{
				"x": -0.2221247416,
				"y": -1.4326698256,
				"z": -0.1355967438,
				"element": "O" 
			},
			{
				"x": 0.3577762543,
				"y": -2.3614403609,
				"z": 0.7707279672,
				"element": "C" 
			},
			{
				"x": 1.4237174124,
				"y": -3.1211416617,
				"z": -0.0074666882,
				"element": "C" 
			},
			{
				"x": 2.1264609716,
				"y": -4.1538383382,
				"z": 0.8599386801,
				"element": "C" 
			},
			{
				"x": 3.0940780144,
				"y": -4.8787435019,
				"z": 0.2395499441,
				"element": "O" 
			},
			{
				"x": 1.873602696,
				"y": -4.3486392174,
				"z": 2.0227325538,
				"element": "O" 
			},
			{
				"x": -1.7174894367,
				"y": -0.6431682029,
				"z": 1.6220573431,
				"element": "C" 
			},
			{
				"x": -2.7565334467,
				"y": 0.2138434511,
				"z": 1.9961339875,
				"element": "C" 
			},
			{
				"x": -3.3189960781,
				"y": 1.0779307187,
				"z": 1.0633522623,
				"element": "C" 
			},
			{
				"x": -2.8382075094,
				"y": 1.0803607742,
				"z": -0.2500820025,
				"element": "C" 
			},
			{
				"x": 0.4946699052,
				"y": 1.0126172117,
				"z": -3.1590898208,
				"element": "H" 
			},
			{
				"x": 0.8033665478,
				"y": 0.6783048939,
				"z": -1.4450789291,
				"element": "H" 
			},
			{
				"x": -0.1245727468,
				"y": 2.1129987064,
				"z": -1.9147519666,
				"element": "H" 
			},
			{
				"x": -0.9901360077,
				"y": -0.7954282936,
				"z": -2.3211994118,
				"element": "H" 
			},
			{
				"x": -2.4679937398,
				"y": 1.7994187071,
				"z": -3.0298425225,
				"element": "H" 
			},
			{
				"x": -3.1919691344,
				"y": 0.1830923958,
				"z": -3.0839877783,
				"element": "H" 
			},
			{
				"x": -1.8291240677,
				"y": 0.590579444,
				"z": -4.1400699699,
				"element": "H" 
			},
			{
				"x": 0.808642677,
				"y": -1.8467983321,
				"z": 1.6278550866,
				"element": "H" 
			},
			{
				"x": -0.3970254971,
				"y": -3.05595094,
				"z": 1.1589591219,
				"element": "H" 
			},
			{
				"x": 2.1636966948,
				"y": -2.4165448912,
				"z": -0.4085071521,
				"element": "H" 
			},
			{
				"x": 0.9675416823,
				"y": -3.6195226989,
				"z": -0.872533474,
				"element": "H" 
			},
			{
				"x": 3.1788957402,
				"y": -4.607680385,
				"z": -0.6857191255,
				"element": "H" 
			},
			{
				"x": -1.2882247312,
				"y": -1.3128134304,
				"z": 2.3577352526,
				"element": "H" 
			},
			{
				"x": -3.1186668497,
				"y": 0.1954095136,
				"z": 3.0200161194,
				"element": "H" 
			},
			{
				"x": -4.1273594468,
				"y": 1.7450075859,
				"z": 1.3469933932,
				"element": "H" 
			},
			{
				"x": -3.2888378046,
				"y": 1.7532737239,
				"z": -0.9725255064,
				"element": "H" 
			}
		],
		 "valence_orbital": [ 
			{
				"type": "occ",
				"energy": -0.3154,
				"method": "rhf"
			},
			{
				"type": "occ",
				"energy": -0.31326,
				"method": "rhf"
			},
			{
				"type": "occ",
				"energy": -0.28144,
				"method": "rhf"
			},
			{
				"type": "occ",
				"energy": -0.2422,
				"method": "rhf"
			},
			{
				"type": "occ",
				"energy": -0.21652,
				"method": "rhf"
			},
			{
				"type": "unocc",
				"energy": 0.00074,
				"method": "rhf"
			},
			{
				"type": "unocc",
				"energy": 0.00297,
				"method": "rhf"
			},
			{
				"type": "unocc",
				"energy": 0.01475,
				"method": "rhf"
			},
			{
				"type": "unocc",
				"energy": 0.04682,
				"method": "rhf"
			},
			{
				"type": "unocc",
				"energy": 0.08704,
				"method": "rhf"
			}
		],
		"cosmo_sigma_profile": { 
			"-0.025": 0.0,
			"-0.024": 0.0,
			"-0.023": 0.0,
			"-0.022": 0.0,
			"-0.021": 0.0,
			"-0.02": 0.00818680116088,
			"-0.019": 0.890824761513,
			"-0.018": 1.2010369514,
			"-0.017": 0.922531566253,
			"-0.016": 1.07126093543,
			"-0.015": 1.11762515879,
			"-0.014": 1.54607997325,
			"-0.013": 0.878470685939,
			"-0.012": 1.06870374789,
			"-0.011": 1.19277261654,
			"-0.01": 1.78163921322,
			"-0.009": 1.10076500308,
			"-0.008": 2.87939625005,
			"-0.007": 5.1337594951,
			"-0.006": 8.65564935466,
			"-0.005": 16.5137981802,
			"-0.004": 14.7052126079,
			"-0.003": 18.6880339116,
			"-0.002": 22.809750004,
			"-0.001": 23.6546136764,
			"0.0": 21.1500076977,
			"0.001": 25.7324584612,
			"0.002": 17.713663595,
			"0.003": 12.5458402444,
			"0.004": 11.6804607676,
			"0.005": 12.3001107636,
			"0.006": 12.047388955,
			"0.007": 6.27982080355,
			"0.008": 2.30946735151,
			"0.009": 3.60431872621,
			"0.01": 4.91522191779,
			"0.011": 5.50157832153,
			"0.012": 4.41891507181,
			"0.013": 1.2768169446,
			"0.014": 0.00639407512062,
			"0.015": 0.0,
			"0.016": 0.0,
			"0.017": 0.0,
			"0.018": 0.0,
			"0.019": 0.0,
			"0.02": 0.0,
			"0.021": 0.0,
			"0.022": 0.0,
			"0.023": 0.0,
			"0.024": 0.0,
			"0.025": 0.0
		}
	}
}
