{
	 "smiles": "OCC1=CN(N=N1)C1=CC(Cl)=C(Cl)C=C1", 
	 "Tm": 416.15, 
	 "num_atms": 22, 
	 "gaussian": { 
		 "optdone": 1, 
		 "sigma_profile": "yes", 
		 "theory": "DFT", 
		 "functional": "B3LYP", 
		 "basiset": "6-31G**", 
		 "properties": { 
			 "R2extent": 6516.9776, 
			 "electric_dipole_moment_norm": 3.61837821821, 
			 "electric_quadrupole_moment_norm": 14.4634882515, 
			 "total_energy": -1506.98035595, 
			 "HOMO_LUMO_gap": 0.19279, 
			 "cosmo_polarized_energy": -14.56, 
			 "cosmo_cavitation_energy": 30.85, 
			 "cosmo_dispersion_energy": -23.04, 
			 "cosmo_repulsion_energy": 1.8, 
			 "cosmo_total_nonelectrostatic_energy": 9.61, 
			 "SMD_solvation_energy": 3.72 
		},
		"coords": [
			{
				"x": -0.2244396236,
				"y": -1.64365834,
				"z": 4.4909127278,
				"element": "O" 
			},
			{
				"x": -0.1790590808,
				"y": -2.275375251,
				"z": 3.2217727344,
				"element": "C" 
			},
			{
				"x": -0.4783920194,
				"y": -1.3166919603,
				"z": 2.1057094044,
				"element": "C" 
			},
			{
				"x": 0.225708151,
				"y": -0.968764153,
				"z": 0.9777198241,
				"element": "C" 
			},
			{
				"x": -0.5567282724,
				"y": -0.0370740112,
				"z": 0.3570094392,
				"element": "N" 
			},
			{
				"x": -1.6890763017,
				"y": 0.1820218364,
				"z": 1.0801244569,
				"element": "N" 
			},
			{
				"x": -1.6376498312,
				"y": -0.5888318095,
				"z": 2.1235830826,
				"element": "N" 
			},
			{
				"x": -0.3318768002,
				"y": 0.6648548347,
				"z": -0.8553228432,
				"element": "C" 
			},
			{
				"x": -1.4272467922,
				"y": 1.1785200553,
				"z": -1.5525173047,
				"element": "C" 
			},
			{
				"x": -1.2238164279,
				"y": 1.8710580647,
				"z": -2.7446854162,
				"element": "C" 
			},
			{
				"x": -2.6151615363,
				"y": 2.4991438207,
				"z": -3.5860053791,
				"element": "Cl" 
			},
			{
				"x": 0.0740031869,
				"y": 2.041136396,
				"z": -3.2506314241,
				"element": "C" 
			},
			{
				"x": 0.3703537514,
				"y": 2.8903191717,
				"z": -4.7436617408,
				"element": "Cl" 
			},
			{
				"x": 1.1588763247,
				"y": 1.522021727,
				"z": -2.5413287892,
				"element": "C" 
			},
			{
				"x": 0.9655050264,
				"y": 0.8421324726,
				"z": -1.3433672398,
				"element": "C" 
			},
			{
				"x": -1.0657534792,
				"y": -1.1671860879,
				"z": 4.5324247048,
				"element": "H" 
			},
			{
				"x": 0.8275562587,
				"y": -2.6877073677,
				"z": 3.1056549778,
				"element": "H" 
			},
			{
				"x": -0.8865654041,
				"y": -3.1185578142,
				"z": 3.172301891,
				"element": "H" 
			},
			{
				"x": 1.1633535019,
				"y": -1.3130039393,
				"z": 0.5731572271,
				"element": "H" 
			},
			{
				"x": -2.427293869,
				"y": 1.0412401043,
				"z": -1.162618448,
				"element": "H" 
			},
			{
				"x": 2.1601818484,
				"y": 1.6669215075,
				"z": -2.9304350559,
				"element": "H" 
			},
			{
				"x": 1.8226213884,
				"y": 0.4754807432,
				"z": -0.7902968289,
				"element": "H" 
			}
		],
		 "valence_orbital": [ 
			{
				"type": "occ",
				"energy": -0.28502,
				"method": "rhf"
			},
			{
				"type": "occ",
				"energy": -0.28229,
				"method": "rhf"
			},
			{
				"type": "occ",
				"energy": -0.27484,
				"method": "rhf"
			},
			{
				"type": "occ",
				"energy": -0.27166,
				"method": "rhf"
			},
			{
				"type": "occ",
				"energy": -0.2525,
				"method": "rhf"
			},
			{
				"type": "unocc",
				"energy": -0.05971,
				"method": "rhf"
			},
			{
				"type": "unocc",
				"energy": -0.04282,
				"method": "rhf"
			},
			{
				"type": "unocc",
				"energy": -0.00947,
				"method": "rhf"
			},
			{
				"type": "unocc",
				"energy": 0.00112,
				"method": "rhf"
			},
			{
				"type": "unocc",
				"energy": 0.02817,
				"method": "rhf"
			}
		],
		"cosmo_sigma_profile": { 
			"-0.025": 0.0,
			"-0.024": 0.0,
			"-0.023": 0.0,
			"-0.022": 0.0,
			"-0.021": 0.0,
			"-0.02": 0.0,
			"-0.019": 0.0,
			"-0.018": 0.0,
			"-0.017": 0.0,
			"-0.016": 0.0,
			"-0.015": 0.0,
			"-0.014": 0.205966340494,
			"-0.013": 0.846484409375,
			"-0.012": 1.3473136387,
			"-0.011": 3.06984823047,
			"-0.01": 3.04664738978,
			"-0.009": 4.68595021754,
			"-0.008": 6.44784966384,
			"-0.007": 8.29454779092,
			"-0.006": 9.42667842351,
			"-0.005": 10.4657426941,
			"-0.004": 12.2171516128,
			"-0.003": 14.9846175925,
			"-0.002": 16.6527647957,
			"-0.001": 22.0286346272,
			"0.0": 31.0031621643,
			"0.001": 21.4078784754,
			"0.002": 15.3328407067,
			"0.003": 18.8692472658,
			"0.004": 14.8769167837,
			"0.005": 6.7842424057,
			"0.006": 3.33866277255,
			"0.007": 3.20585368821,
			"0.008": 3.14502426093,
			"0.009": 3.86476788177,
			"0.01": 4.83151006049,
			"0.011": 3.58517063908,
			"0.012": 2.97833796243,
			"0.013": 2.95047428982,
			"0.014": 2.42008840423,
			"0.015": 0.0390765509511,
			"0.016": 0.0,
			"0.017": 0.0,
			"0.018": 0.0,
			"0.019": 0.0,
			"0.02": 0.0,
			"0.021": 0.0,
			"0.022": 0.0,
			"0.023": 0.0,
			"0.024": 0.0,
			"0.025": 0.0
		}
	}
}
