{
	 "smiles": "ClC1=CC=C2C=CC=CC2=C1", 
	 "Tm": 334.15, 
	 "num_atms": 18, 
	 "gaussian": { 
		 "optdone": 1, 
		 "sigma_profile": "yes", 
		 "theory": "DFT", 
		 "functional": "B3LYP", 
		 "basiset": "6-31G**", 
		 "properties": { 
			 "R2extent": 2394.7959, 
			 "electric_dipole_moment_norm": 2.10982716591, 
			 "electric_quadrupole_moment_norm": 8.7842530263, 
			 "total_energy": -845.488183513, 
			 "HOMO_LUMO_gap": 0.17478, 
			 "cosmo_polarized_energy": -4.75, 
			 "cosmo_cavitation_energy": 23.55, 
			 "cosmo_dispersion_energy": -17.84, 
			 "cosmo_repulsion_energy": 1.4, 
			 "cosmo_total_nonelectrostatic_energy": 7.12, 
			 "SMD_solvation_energy": 3.46 
		},
		"coords": [
			{
				"x": 0.3433976219,
				"y": -3.0506959538,
				"z": -1.4239506765,
				"element": "Cl" 
			},
			{
				"x": 0.411694174,
				"y": -1.2985486116,
				"z": -1.2817984194,
				"element": "C" 
			},
			{
				"x": 0.5953697445,
				"y": -0.5330098286,
				"z": -2.4582903412,
				"element": "C" 
			},
			{
				"x": 0.6511326932,
				"y": 0.8382709235,
				"z": -2.3652998794,
				"element": "C" 
			},
			{
				"x": 0.5281101403,
				"y": 1.4990280292,
				"z": -1.113374298,
				"element": "C" 
			},
			{
				"x": 0.582471536,
				"y": 2.9131874814,
				"z": -0.991892444,
				"element": "C" 
			},
			{
				"x": 0.4595941876,
				"y": 3.5199760923,
				"z": 0.2378306382,
				"element": "C" 
			},
			{
				"x": 0.2762668372,
				"y": 2.7376574741,
				"z": 1.4048486326,
				"element": "C" 
			},
			{
				"x": 0.2191510495,
				"y": 1.364705064,
				"z": 1.32172523,
				"element": "C" 
			},
			{
				"x": 0.3426688958,
				"y": 0.7079170139,
				"z": 0.0672443297,
				"element": "C" 
			},
			{
				"x": 0.2874192756,
				"y": -0.7072884991,
				"z": -0.0473712392,
				"element": "C" 
			},
			{
				"x": 0.6894835516,
				"y": -1.0353031055,
				"z": -3.4145053053,
				"element": "H" 
			},
			{
				"x": 0.7918820723,
				"y": 1.4349547493,
				"z": -3.2626901741,
				"element": "H" 
			},
			{
				"x": 0.7232407335,
				"y": 3.5099055931,
				"z": -1.8894636776,
				"element": "H" 
			},
			{
				"x": 0.5027563006,
				"y": 4.6021292576,
				"z": 0.3182859649,
				"element": "H" 
			},
			{
				"x": 0.1805580538,
				"y": 3.22774027,
				"z": 2.3693532898,
				"element": "H" 
			},
			{
				"x": 0.0785546269,
				"y": 0.7634285349,
				"z": 2.2160612109,
				"element": "H" 
			},
			{
				"x": 0.1472485058,
				"y": -1.3136544845,
				"z": 0.8414871586,
				"element": "H" 
			}
		],
		 "valence_orbital": [ 
			{
				"type": "occ",
				"energy": -0.31287,
				"method": "rhf"
			},
			{
				"type": "occ",
				"energy": -0.31134,
				"method": "rhf"
			},
			{
				"type": "occ",
				"energy": -0.29002,
				"method": "rhf"
			},
			{
				"type": "occ",
				"energy": -0.24573,
				"method": "rhf"
			},
			{
				"type": "occ",
				"energy": -0.22212,
				"method": "rhf"
			},
			{
				"type": "unocc",
				"energy": -0.04734,
				"method": "rhf"
			},
			{
				"type": "unocc",
				"energy": -0.01781,
				"method": "rhf"
			},
			{
				"type": "unocc",
				"energy": 0.02312,
				"method": "rhf"
			},
			{
				"type": "unocc",
				"energy": 0.03099,
				"method": "rhf"
			},
			{
				"type": "unocc",
				"energy": 0.08858,
				"method": "rhf"
			}
		],
		"cosmo_sigma_profile": { 
			"-0.025": 0.0,
			"-0.024": 0.0,
			"-0.023": 0.0,
			"-0.022": 0.0,
			"-0.021": 0.0,
			"-0.02": 0.0,
			"-0.019": 0.0,
			"-0.018": 0.0,
			"-0.017": 0.0,
			"-0.016": 0.0,
			"-0.015": 0.0,
			"-0.014": 0.0,
			"-0.013": 0.0,
			"-0.012": 0.0,
			"-0.011": 0.0,
			"-0.01": 0.0,
			"-0.009": 0.0,
			"-0.008": 0.21275440518,
			"-0.007": 5.46298182924,
			"-0.006": 14.5636703976,
			"-0.005": 13.1335953967,
			"-0.004": 13.6188516034,
			"-0.003": 10.3033663452,
			"-0.002": 11.1292746307,
			"-0.001": 10.7425542366,
			"0.0": 10.7629129658,
			"0.001": 14.5453666687,
			"0.002": 19.4632866744,
			"0.003": 30.2537254556,
			"0.004": 23.1021620033,
			"0.005": 14.3153038217,
			"0.006": 0.201375299735,
			"0.007": 0.0,
			"0.008": 0.0,
			"0.009": 0.0,
			"0.01": 0.0,
			"0.011": 0.0,
			"0.012": 0.0,
			"0.013": 0.0,
			"0.014": 0.0,
			"0.015": 0.0,
			"0.016": 0.0,
			"0.017": 0.0,
			"0.018": 0.0,
			"0.019": 0.0,
			"0.02": 0.0,
			"0.021": 0.0,
			"0.022": 0.0,
			"0.023": 0.0,
			"0.024": 0.0,
			"0.025": 0.0
		}
	}
}
