{
	 "smiles": "ClC1=CC2=C(C=C1Cl)C1=C(O2)C=CC(Cl)=C1Cl", 
	 "Tm": 483.15, 
	 "num_atms": 21, 
	 "gaussian": { 
		 "optdone": 1, 
		 "sigma_profile": "yes", 
		 "theory": "DFT", 
		 "functional": "B3LYP", 
		 "basiset": "6-31G**", 
		 "properties": { 
			 "R2extent": 7795.1243, 
			 "electric_dipole_moment_norm": 2.86512180893, 
			 "electric_quadrupole_moment_norm": 7.39450694232, 
			 "total_energy": -2375.67962924, 
			 "HOMO_LUMO_gap": 0.17541, 
			 "cosmo_polarized_energy": -5.66, 
			 "cosmo_cavitation_energy": 32.87, 
			 "cosmo_dispersion_energy": -24.98, 
			 "cosmo_repulsion_energy": 1.9, 
			 "cosmo_total_nonelectrostatic_energy": 9.78, 
			 "SMD_solvation_energy": 4.49 
		},
		"coords": [
			{
				"x": 4.2850411751,
				"y": -0.2042110362,
				"z": 3.5454347182,
				"element": "Cl" 
			},
			{
				"x": 2.93572715,
				"y": 0.1750384902,
				"z": 2.5070231897,
				"element": "C" 
			},
			{
				"x": 1.6812377307,
				"y": -0.3329694498,
				"z": 2.8497409547,
				"element": "C" 
			},
			{
				"x": 0.6251959097,
				"y": -0.0190844841,
				"z": 2.0110904924,
				"element": "C" 
			},
			{
				"x": 0.7615689043,
				"y": 0.7723763886,
				"z": 0.8547529071,
				"element": "C" 
			},
			{
				"x": 2.0242669427,
				"y": 1.2734580885,
				"z": 0.5253977499,
				"element": "C" 
			},
			{
				"x": 3.1047699807,
				"y": 0.9720887756,
				"z": 1.3533807385,
				"element": "C" 
			},
			{
				"x": 4.6757993767,
				"y": 1.606952056,
				"z": 0.9261943388,
				"element": "Cl" 
			},
			{
				"x": -0.5722284076,
				"y": 0.8454812536,
				"z": 0.2868857136,
				"element": "C" 
			},
			{
				"x": -1.3897105945,
				"y": 0.092044348,
				"z": 1.152168091,
				"element": "C" 
			},
			{
				"x": -0.6699597086,
				"y": -0.4332553494,
				"z": 2.1971444212,
				"element": "O" 
			},
			{
				"x": -2.7508242735,
				"y": -0.0871156937,
				"z": 0.9583636236,
				"element": "C" 
			},
			{
				"x": -3.3106726979,
				"y": 0.5229130686,
				"z": -0.1606305181,
				"element": "C" 
			},
			{
				"x": -2.5301400212,
				"y": 1.2825827647,
				"z": -1.0479958134,
				"element": "C" 
			},
			{
				"x": -3.3209364863,
				"y": 2.0106394002,
				"z": -2.4254385689,
				"element": "Cl" 
			},
			{
				"x": -1.1567320678,
				"y": 1.4513436185,
				"z": -0.8341093423,
				"element": "C" 
			},
			{
				"x": -0.1713895362,
				"y": 2.3896114778,
				"z": -1.9225036681,
				"element": "Cl" 
			},
			{
				"x": 1.5468440265,
				"y": -0.9444406389,
				"z": 3.7331798032,
				"element": "H" 
			},
			{
				"x": 2.1769803809,
				"y": 1.8859778013,
				"z": -0.3534002471,
				"element": "H" 
			},
			{
				"x": -3.3473381125,
				"y": -0.6742432467,
				"z": 1.6465365604,
				"element": "H" 
			},
			{
				"x": -4.3698996714,
				"y": 0.4189123674,
				"z": -0.3653151444,
				"element": "H" 
			}
		],
		 "valence_orbital": [ 
			{
				"type": "occ",
				"energy": -0.3151,
				"method": "rhf"
			},
			{
				"type": "occ",
				"energy": -0.29685,
				"method": "rhf"
			},
			{
				"type": "occ",
				"energy": -0.27123,
				"method": "rhf"
			},
			{
				"type": "occ",
				"energy": -0.24554,
				"method": "rhf"
			},
			{
				"type": "occ",
				"energy": -0.24234,
				"method": "rhf"
			},
			{
				"type": "unocc",
				"energy": -0.06693,
				"method": "rhf"
			},
			{
				"type": "unocc",
				"energy": -0.03209,
				"method": "rhf"
			},
			{
				"type": "unocc",
				"energy": -0.01795,
				"method": "rhf"
			},
			{
				"type": "unocc",
				"energy": -0.01013,
				"method": "rhf"
			},
			{
				"type": "unocc",
				"energy": -0.00235,
				"method": "rhf"
			}
		],
		"cosmo_sigma_profile": { 
			"-0.025": 0.0,
			"-0.024": 0.0,
			"-0.023": 0.0,
			"-0.022": 0.0,
			"-0.021": 0.0,
			"-0.02": 0.0,
			"-0.019": 0.0,
			"-0.018": 0.0,
			"-0.017": 0.0,
			"-0.016": 0.0,
			"-0.015": 0.0,
			"-0.014": 0.0,
			"-0.013": 0.0,
			"-0.012": 0.0,
			"-0.011": 0.0,
			"-0.01": 0.210331072469,
			"-0.009": 2.94945649884,
			"-0.008": 5.65650092795,
			"-0.007": 6.21149246333,
			"-0.006": 5.83959254423,
			"-0.005": 6.1928111715,
			"-0.004": 7.6460224716,
			"-0.003": 15.068707104,
			"-0.002": 19.9627350691,
			"-0.001": 34.1779021292,
			"0.0": 49.7036821989,
			"0.001": 31.9782076417,
			"0.002": 23.4021068951,
			"0.003": 27.6878979864,
			"0.004": 27.9359834994,
			"0.005": 8.27038954675,
			"0.006": 1.55615062075,
			"0.007": 1.00157536577,
			"0.008": 0.0197077069326,
			"0.009": 0.0,
			"0.01": 0.0,
			"0.011": 0.0,
			"0.012": 0.0,
			"0.013": 0.0,
			"0.014": 0.0,
			"0.015": 0.0,
			"0.016": 0.0,
			"0.017": 0.0,
			"0.018": 0.0,
			"0.019": 0.0,
			"0.02": 0.0,
			"0.021": 0.0,
			"0.022": 0.0,
			"0.023": 0.0,
			"0.024": 0.0,
			"0.025": 0.0
		}
	}
}
