{
	 "smiles": "CC1=C(C)C=C2C(=O)C3=CC=CC=C3C(=O)C2=C1", 
	 "Tm": 484.15, 
	 "num_atms": 30, 
	 "gaussian": { 
		 "optdone": 1, 
		 "sigma_profile": "yes", 
		 "theory": "DFT", 
		 "functional": "B3LYP", 
		 "basiset": "6-31G**", 
		 "properties": { 
			 "R2extent": 4860.1515, 
			 "electric_dipole_moment_norm": 1.1790193001, 
			 "electric_quadrupole_moment_norm": 23.8840075406, 
			 "total_energy": -767.418928047, 
			 "HOMO_LUMO_gap": 0.15418, 
			 "cosmo_polarized_energy": -10.3, 
			 "cosmo_cavitation_energy": 33.66, 
			 "cosmo_dispersion_energy": -24.62, 
			 "cosmo_repulsion_energy": 1.82, 
			 "cosmo_total_nonelectrostatic_energy": 10.86, 
			 "SMD_solvation_energy": 6.29 
		},
		"coords": [
			{
				"x": 1.2734001752,
				"y": -2.7657080177,
				"z": -3.2457588925,
				"element": "C" 
			},
			{
				"x": 0.6595265245,
				"y": -1.6801857662,
				"z": -2.3968104857,
				"element": "C" 
			},
			{
				"x": -0.0264291816,
				"y": -0.5932174466,
				"z": -2.9940076977,
				"element": "C" 
			},
			{
				"x": -0.1599605152,
				"y": -0.4947875331,
				"z": -4.4934847629,
				"element": "C" 
			},
			{
				"x": -0.5805974265,
				"y": 0.3913304375,
				"z": -2.1746073792,
				"element": "C" 
			},
			{
				"x": -0.4757751592,
				"y": 0.3315897515,
				"z": -0.7815018831,
				"element": "C" 
			},
			{
				"x": -1.0868694123,
				"y": 1.4107139473,
				"z": 0.0424773894,
				"element": "C" 
			},
			{
				"x": -1.6815549803,
				"y": 2.3525149751,
				"z": -0.4728982186,
				"element": "O" 
			},
			{
				"x": -0.9487176371,
				"y": 1.3023473294,
				"z": 1.5251648217,
				"element": "C" 
			},
			{
				"x": -1.5100691236,
				"y": 2.2971960252,
				"z": 2.3338157507,
				"element": "C" 
			},
			{
				"x": -1.3954887435,
				"y": 2.2200703427,
				"z": 3.7196351274,
				"element": "C" 
			},
			{
				"x": -0.7179456748,
				"y": 1.1464383006,
				"z": 4.30950806,
				"element": "C" 
			},
			{
				"x": -0.156334701,
				"y": 0.1520786111,
				"z": 3.512385753,
				"element": "C" 
			},
			{
				"x": -0.2667194879,
				"y": 0.2216478642,
				"z": 2.1189244156,
				"element": "C" 
			},
			{
				"x": 0.3450827559,
				"y": -0.8583426348,
				"z": 1.289160435,
				"element": "C" 
			},
			{
				"x": 0.9384102979,
				"y": -1.7990376344,
				"z": 1.8081075719,
				"element": "O" 
			},
			{
				"x": 0.204818924,
				"y": -0.7469233288,
				"z": -0.1889483698,
				"element": "C" 
			},
			{
				"x": 0.761663965,
				"y": -1.7356875218,
				"z": -1.005998519,
				"element": "C" 
			},
			{
				"x": 2.0234620107,
				"y": -2.3606235757,
				"z": -3.9357189456,
				"element": "H" 
			},
			{
				"x": 1.7602774536,
				"y": -3.5221998757,
				"z": -2.6261610018,
				"element": "H" 
			},
			{
				"x": 0.5188954498,
				"y": -3.2688638296,
				"z": -3.8624224452,
				"element": "H" 
			},
			{
				"x": -0.6840151589,
				"y": -1.3642706241,
				"z": -4.9083129397,
				"element": "H" 
			},
			{
				"x": 0.8207737322,
				"y": -0.4564947111,
				"z": -4.9827696869,
				"element": "H" 
			},
			{
				"x": -0.7146844543,
				"y": 0.401082339,
				"z": -4.7814624612,
				"element": "H" 
			},
			{
				"x": -1.1110870865,
				"y": 1.2343657083,
				"z": -2.606643072,
				"element": "H" 
			},
			{
				"x": -2.0295779837,
				"y": 3.1178759444,
				"z": 1.8505280509,
				"element": "H" 
			},
			{
				"x": -1.8327809541,
				"y": 2.9945179645,
				"z": 4.3430751211,
				"element": "H" 
			},
			{
				"x": -0.6296985838,
				"y": 1.0881355868,
				"z": 5.3904735279,
				"element": "H" 
			},
			{
				"x": 0.373968456,
				"y": -0.6907120268,
				"z": 3.9430294383,
				"element": "H" 
			},
			{
				"x": 1.2818265194,
				"y": -2.5574506013,
				"z": -0.5233787021,
				"element": "H" 
			}
		],
		 "valence_orbital": [ 
			{
				"type": "occ",
				"energy": -0.26471,
				"method": "rhf"
			},
			{
				"type": "occ",
				"energy": -0.26371,
				"method": "rhf"
			},
			{
				"type": "occ",
				"energy": -0.25791,
				"method": "rhf"
			},
			{
				"type": "occ",
				"energy": -0.25248,
				"method": "rhf"
			},
			{
				"type": "occ",
				"energy": -0.25196,
				"method": "rhf"
			},
			{
				"type": "unocc",
				"energy": -0.09778,
				"method": "rhf"
			},
			{
				"type": "unocc",
				"energy": -0.05174,
				"method": "rhf"
			},
			{
				"type": "unocc",
				"energy": -0.01848,
				"method": "rhf"
			},
			{
				"type": "unocc",
				"energy": -0.00589,
				"method": "rhf"
			},
			{
				"type": "unocc",
				"energy": 0.05506,
				"method": "rhf"
			}
		],
		"cosmo_sigma_profile": { 
			"-0.025": 0.0,
			"-0.024": 0.0,
			"-0.023": 0.0,
			"-0.022": 0.0,
			"-0.021": 0.0,
			"-0.02": 0.0,
			"-0.019": 0.0,
			"-0.018": 0.0,
			"-0.017": 0.0,
			"-0.016": 0.0,
			"-0.015": 0.0,
			"-0.014": 0.0,
			"-0.013": 0.0,
			"-0.012": 0.0,
			"-0.011": 0.0,
			"-0.01": 0.0,
			"-0.009": 0.0,
			"-0.008": 0.168117836028,
			"-0.007": 4.1745783714,
			"-0.006": 9.77609146952,
			"-0.005": 23.8974717771,
			"-0.004": 23.8934282619,
			"-0.003": 20.8584256054,
			"-0.002": 23.8115769645,
			"-0.001": 27.2096012948,
			"0.0": 27.8681516373,
			"0.001": 26.0749503197,
			"0.002": 30.0201381627,
			"0.003": 14.1211353785,
			"0.004": 4.09853775724,
			"0.005": 4.64544105695,
			"0.006": 3.03823539716,
			"0.007": 2.16368754408,
			"0.008": 3.74644503513,
			"0.009": 3.9293225611,
			"0.01": 5.09894318638,
			"0.011": 6.93734583568,
			"0.012": 4.02907011735,
			"0.013": 0.0,
			"0.014": 0.0,
			"0.015": 0.0,
			"0.016": 0.0,
			"0.017": 0.0,
			"0.018": 0.0,
			"0.019": 0.0,
			"0.02": 0.0,
			"0.021": 0.0,
			"0.022": 0.0,
			"0.023": 0.0,
			"0.024": 0.0,
			"0.025": 0.0
		}
	}
}
