{
	 "smiles": "O=C1CCN(N1)C1=CC=CC=C1", 
	 "Tm": 397.15, 
	 "num_atms": 22, 
	 "gaussian": { 
		 "optdone": 1, 
		 "sigma_profile": "yes", 
		 "theory": "DFT", 
		 "functional": "B3LYP", 
		 "basiset": "6-31G**", 
		 "properties": { 
			 "R2extent": 2462.664, 
			 "electric_dipole_moment_norm": 2.79528919613, 
			 "electric_quadrupole_moment_norm": 11.7146279339, 
			 "total_energy": -533.682771696, 
			 "HOMO_LUMO_gap": 0.20236, 
			 "cosmo_polarized_energy": -11.86, 
			 "cosmo_cavitation_energy": 25.24, 
			 "cosmo_dispersion_energy": -18.71, 
			 "cosmo_repulsion_energy": 1.5, 
			 "cosmo_total_nonelectrostatic_energy": 8.03, 
			 "SMD_solvation_energy": 4.27 
		},
		"coords": [
			{
				"x": -2.2708224862,
				"y": -2.8485709953,
				"z": -0.2215138669,
				"element": "O" 
			},
			{
				"x": -1.9628773163,
				"y": -1.8134749379,
				"z": 0.3350524907,
				"element": "C" 
			},
			{
				"x": -2.8434820042,
				"y": -0.6097585566,
				"z": 0.6828483965,
				"element": "C" 
			},
			{
				"x": -2.0901020285,
				"y": -0.0046829387,
				"z": 1.8745918661,
				"element": "C" 
			},
			{
				"x": -0.65865522,
				"y": -0.3432408349,
				"z": 1.6235410266,
				"element": "N" 
			},
			{
				"x": -0.7033664239,
				"y": -1.510843914,
				"z": 0.8185489559,
				"element": "N" 
			},
			{
				"x": 0.1702165935,
				"y": 0.6988788188,
				"z": 1.1029167353,
				"element": "C" 
			},
			{
				"x": 0.2957063454,
				"y": 1.8823249261,
				"z": 1.8506517319,
				"element": "C" 
			},
			{
				"x": 1.1229436405,
				"y": 2.9106589413,
				"z": 1.4069626789,
				"element": "C" 
			},
			{
				"x": 1.8569308826,
				"y": 2.7732923006,
				"z": 0.2258927353,
				"element": "C" 
			},
			{
				"x": 1.7499632101,
				"y": 1.589824987,
				"z": -0.5038369706,
				"element": "C" 
			},
			{
				"x": 0.9139267644,
				"y": 0.5567055312,
				"z": -0.0759451576,
				"element": "C" 
			},
			{
				"x": -2.8831581192,
				"y": 0.0731095143,
				"z": -0.1736565519,
				"element": "H" 
			},
			{
				"x": -3.8578336194,
				"y": -0.9397668197,
				"z": 0.9104679791,
				"element": "H" 
			},
			{
				"x": -2.405114128,
				"y": -0.4767808907,
				"z": 2.8119743602,
				"element": "H" 
			},
			{
				"x": -2.2020413738,
				"y": 1.0748265119,
				"z": 1.970741395,
				"element": "H" 
			},
			{
				"x": -0.0678045991,
				"y": -2.2585624274,
				"z": 1.0670948502,
				"element": "H" 
			},
			{
				"x": -0.2398365943,
				"y": 1.9841578654,
				"z": 2.789887702,
				"element": "H" 
			},
			{
				"x": 1.2040865206,
				"y": 3.8193230854,
				"z": 1.9969763957,
				"element": "H" 
			},
			{
				"x": 2.5081219281,
				"y": 3.5729615048,
				"z": -0.1132157377,
				"element": "H" 
			},
			{
				"x": 2.3159436662,
				"y": 1.4644320363,
				"z": -1.4228547165,
				"element": "H" 
			},
			{
				"x": 0.8296543615,
				"y": -0.3555137078,
				"z": -0.6546262981,
				"element": "H" 
			}
		],
		 "valence_orbital": [ 
			{
				"type": "occ",
				"energy": -0.31586,
				"method": "rhf"
			},
			{
				"type": "occ",
				"energy": -0.26433,
				"method": "rhf"
			},
			{
				"type": "occ",
				"energy": -0.25666,
				"method": "rhf"
			},
			{
				"type": "occ",
				"energy": -0.25108,
				"method": "rhf"
			},
			{
				"type": "occ",
				"energy": -0.2071,
				"method": "rhf"
			},
			{
				"type": "unocc",
				"energy": -0.00474,
				"method": "rhf"
			},
			{
				"type": "unocc",
				"energy": 0.0045,
				"method": "rhf"
			},
			{
				"type": "unocc",
				"energy": 0.01323,
				"method": "rhf"
			},
			{
				"type": "unocc",
				"energy": 0.08066,
				"method": "rhf"
			},
			{
				"type": "unocc",
				"energy": 0.09671,
				"method": "rhf"
			}
		],
		"cosmo_sigma_profile": { 
			"-0.025": 0.0,
			"-0.024": 0.0,
			"-0.023": 0.0,
			"-0.022": 0.0,
			"-0.021": 0.0,
			"-0.02": 0.0,
			"-0.019": 0.0,
			"-0.018": 0.0,
			"-0.017": 0.0,
			"-0.016": 0.0,
			"-0.015": 0.779845563495,
			"-0.014": 1.53752397655,
			"-0.013": 0.62695677646,
			"-0.012": 1.15668015536,
			"-0.011": 0.624216945833,
			"-0.01": 1.04002101933,
			"-0.009": 0.770036960317,
			"-0.008": 0.909723956626,
			"-0.007": 1.55990007017,
			"-0.006": 12.244115515,
			"-0.005": 22.0345470133,
			"-0.004": 20.432748597,
			"-0.003": 21.2002080709,
			"-0.002": 15.6769377547,
			"-0.001": 10.9751584982,
			"0.0": 8.12739653876,
			"0.001": 8.36948420329,
			"0.002": 8.67528223722,
			"0.003": 8.83567550268,
			"0.004": 9.17936401071,
			"0.005": 10.7751822953,
			"0.006": 10.6539902133,
			"0.007": 4.78111591372,
			"0.008": 1.44588889865,
			"0.009": 1.73537187802,
			"0.01": 2.00850045447,
			"0.011": 2.3940827959,
			"0.012": 3.9673093838,
			"0.013": 5.82986119815,
			"0.014": 2.20640398923,
			"0.015": 0.0276318586539,
			"0.016": 0.0,
			"0.017": 0.0,
			"0.018": 0.0,
			"0.019": 0.0,
			"0.02": 0.0,
			"0.021": 0.0,
			"0.022": 0.0,
			"0.023": 0.0,
			"0.024": 0.0,
			"0.025": 0.0
		}
	}
}
