{
	 "smiles": "CC(=O)C1=CC=CC(=C1)[N+]([O-])=O", 
	 "Tm": 352.65, 
	 "num_atms": 19, 
	 "gaussian": { 
		 "optdone": 1, 
		 "sigma_profile": "yes", 
		 "theory": "DFT", 
		 "functional": "B3LYP", 
		 "basiset": "6-31G**", 
		 "properties": { 
			 "R2extent": 2714.9889, 
			 "electric_dipole_moment_norm": 1.68066125974, 
			 "electric_quadrupole_moment_norm": 19.5187967383, 
			 "total_energy": -589.395277229, 
			 "HOMO_LUMO_gap": 0.16757, 
			 "cosmo_polarized_energy": -10.87, 
			 "cosmo_cavitation_energy": 24.38, 
			 "cosmo_dispersion_energy": -17.66, 
			 "cosmo_repulsion_energy": 1.4, 
			 "cosmo_total_nonelectrostatic_energy": 8.12, 
			 "SMD_solvation_energy": 7.25 
		},
		"coords": [
			{
				"x": -0.6197442619,
				"y": 2.2997183925,
				"z": 0.6515262131,
				"element": "C" 
			},
			{
				"x": -0.7524827151,
				"y": 1.6794043172,
				"z": -0.7258483703,
				"element": "C" 
			},
			{
				"x": -0.8019505075,
				"y": 2.3721473167,
				"z": -1.7291779634,
				"element": "O" 
			},
			{
				"x": -0.8232221776,
				"y": 0.1802337658,
				"z": -0.8432895675,
				"element": "C" 
			},
			{
				"x": -0.9462629307,
				"y": -0.379346177,
				"z": -2.1260234182,
				"element": "C" 
			},
			{
				"x": -1.0165726234,
				"y": -1.7596628271,
				"z": -2.2989692219,
				"element": "C" 
			},
			{
				"x": -0.9652644451,
				"y": -2.6083361483,
				"z": -1.1926188219,
				"element": "C" 
			},
			{
				"x": -0.8431035905,
				"y": -2.0409568874,
				"z": 0.0737836509,
				"element": "C" 
			},
			{
				"x": -0.7711098078,
				"y": -0.6643828174,
				"z": 0.2700515773,
				"element": "C" 
			},
			{
				"x": -0.7878735306,
				"y": -2.9276963245,
				"z": 1.2501397337,
				"element": "N" 
			},
			{
				"x": -0.853523785,
				"y": -4.139724431,
				"z": 1.0528785338,
				"element": "O" 
			},
			{
				"x": -0.6796766642,
				"y": -2.3996740646,
				"z": 2.3562625079,
				"element": "O" 
			},
			{
				"x": -0.5834987816,
				"y": 3.3839012933,
				"z": 0.5443988396,
				"element": "H" 
			},
			{
				"x": 0.2909652537,
				"y": 1.9531316905,
				"z": 1.1524638998,
				"element": "H" 
			},
			{
				"x": -1.4673540343,
				"y": 2.0254323852,
				"z": 1.289320023,
				"element": "H" 
			},
			{
				"x": -0.984445253,
				"y": 0.297701124,
				"z": -2.9729068486,
				"element": "H" 
			},
			{
				"x": -1.1115427863,
				"y": -2.1803562786,
				"z": -3.294912422,
				"element": "H" 
			},
			{
				"x": -1.0172628648,
				"y": -3.6856498953,
				"z": -1.2899752716,
				"element": "H" 
			},
			{
				"x": -0.6767744942,
				"y": -0.2883844341,
				"z": 1.280496926,
				"element": "H" 
			}
		],
		 "valence_orbital": [ 
			{
				"type": "occ",
				"energy": -0.31645,
				"method": "rhf"
			},
			{
				"type": "occ",
				"energy": -0.30012,
				"method": "rhf"
			},
			{
				"type": "occ",
				"energy": -0.29207,
				"method": "rhf"
			},
			{
				"type": "occ",
				"energy": -0.28822,
				"method": "rhf"
			},
			{
				"type": "occ",
				"energy": -0.26637,
				"method": "rhf"
			},
			{
				"type": "unocc",
				"energy": -0.0988,
				"method": "rhf"
			},
			{
				"type": "unocc",
				"energy": -0.07496,
				"method": "rhf"
			},
			{
				"type": "unocc",
				"energy": -0.01696,
				"method": "rhf"
			},
			{
				"type": "unocc",
				"energy": 0.02498,
				"method": "rhf"
			},
			{
				"type": "unocc",
				"energy": 0.07343,
				"method": "rhf"
			}
		],
		"cosmo_sigma_profile": { 
			"-0.025": 0.0,
			"-0.024": 0.0,
			"-0.023": 0.0,
			"-0.022": 0.0,
			"-0.021": 0.0,
			"-0.02": 0.0,
			"-0.019": 0.0,
			"-0.018": 0.0,
			"-0.017": 0.0,
			"-0.016": 0.0,
			"-0.015": 0.0,
			"-0.014": 0.0,
			"-0.013": 0.0,
			"-0.012": 0.0,
			"-0.011": 0.0,
			"-0.01": 0.0,
			"-0.009": 0.132561527753,
			"-0.008": 3.85309586578,
			"-0.007": 12.9052276353,
			"-0.006": 14.7601762659,
			"-0.005": 11.8090010926,
			"-0.004": 13.2081804105,
			"-0.003": 14.2589677,
			"-0.002": 16.1664342968,
			"-0.001": 20.1047534122,
			"0.0": 18.0986058809,
			"0.001": 10.6986335554,
			"0.002": 5.67773698117,
			"0.003": 4.24968527242,
			"0.004": 3.87804873215,
			"0.005": 4.94771120552,
			"0.006": 5.78613645841,
			"0.007": 9.98362447737,
			"0.008": 8.38520619321,
			"0.009": 5.77434163478,
			"0.01": 4.0890582907,
			"0.011": 3.91709401751,
			"0.012": 2.21585512972,
			"0.013": 0.589638675957,
			"0.014": 0.0,
			"0.015": 0.0,
			"0.016": 0.0,
			"0.017": 0.0,
			"0.018": 0.0,
			"0.019": 0.0,
			"0.02": 0.0,
			"0.021": 0.0,
			"0.022": 0.0,
			"0.023": 0.0,
			"0.024": 0.0,
			"0.025": 0.0
		}
	}
}
