{
	 "smiles": "CCCCCCBr", 
	 "Tm": 188.35, 
	 "num_atms": 20, 
	 "gaussian": { 
		 "optdone": 1, 
		 "sigma_profile": "yes", 
		 "theory": "DFT", 
		 "functional": "B3LYP", 
		 "basiset": "6-31G**", 
		 "properties": { 
			 "R2extent": 4681.7225, 
			 "electric_dipole_moment_norm": 2.47340707123, 
			 "electric_quadrupole_moment_norm": 12.9512737211, 
			 "total_energy": -2807.89974052, 
			 "HOMO_LUMO_gap": 0.27026, 
			 "cosmo_polarized_energy": -3.73, 
			 "cosmo_cavitation_energy": 23.91, 
			 "cosmo_dispersion_energy": -17.89, 
			 "cosmo_repulsion_energy": 1.54, 
			 "cosmo_total_nonelectrostatic_energy": 7.56, 
			 "SMD_solvation_energy": 2.49 
		},
		"coords": [
			{
				"x": 1.2922360403,
				"y": 0.0351102762,
				"z": 1.8164198103,
				"element": "C" 
			},
			{
				"x": 0.554147215,
				"y": -1.2225923367,
				"z": 1.342092424,
				"element": "C" 
			},
			{
				"x": -0.8299753307,
				"y": -0.9581278477,
				"z": 0.7245941471,
				"element": "C" 
			},
			{
				"x": -0.7929717407,
				"y": -0.1789918038,
				"z": -0.5991713875,
				"element": "C" 
			},
			{
				"x": -2.176981998,
				"y": 0.1240355945,
				"z": -1.2074902789,
				"element": "C" 
			},
			{
				"x": -2.9035981396,
				"y": -1.1286718664,
				"z": -1.6780740293,
				"element": "C" 
			},
			{
				"x": -4.6455257857,
				"y": -0.6878363632,
				"z": -2.5201727194,
				"element": "Br" 
			},
			{
				"x": 1.5201370364,
				"y": 0.7158139164,
				"z": 0.9897761132,
				"element": "H" 
			},
			{
				"x": 0.6939514469,
				"y": 0.5907678304,
				"z": 2.5479690408,
				"element": "H" 
			},
			{
				"x": 2.2421134909,
				"y": -0.2250828049,
				"z": 2.2947241581,
				"element": "H" 
			},
			{
				"x": 1.176923493,
				"y": -1.7605332721,
				"z": 0.6140555696,
				"element": "H" 
			},
			{
				"x": 0.4303832127,
				"y": -1.9031883508,
				"z": 2.1938437913,
				"element": "H" 
			},
			{
				"x": -1.3281283556,
				"y": -1.9236866927,
				"z": 0.5694160913,
				"element": "H" 
			},
			{
				"x": -1.4499151145,
				"y": -0.4089516467,
				"z": 1.448012046,
				"element": "H" 
			},
			{
				"x": -0.1844344378,
				"y": -0.7305795669,
				"z": -1.3302693637,
				"element": "H" 
			},
			{
				"x": -0.2838696354,
				"y": 0.779650812,
				"z": -0.4454029241,
				"element": "H" 
			},
			{
				"x": -2.799409202,
				"y": 0.6496970708,
				"z": -0.4738622097,
				"element": "H" 
			},
			{
				"x": -2.0582848691,
				"y": 0.801348125,
				"z": -2.0600099524,
				"element": "H" 
			},
			{
				"x": -2.3446359137,
				"y": -1.6672791629,
				"z": -2.4443607048,
				"element": "H" 
			},
			{
				"x": -3.1528614124,
				"y": -1.8104019104,
				"z": -0.8661896218,
				"element": "H" 
			}
		],
		 "valence_orbital": [ 
			{
				"type": "occ",
				"energy": -0.32956,
				"method": "rhf"
			},
			{
				"type": "occ",
				"energy": -0.32571,
				"method": "rhf"
			},
			{
				"type": "occ",
				"energy": -0.31738,
				"method": "rhf"
			},
			{
				"type": "occ",
				"energy": -0.26729,
				"method": "rhf"
			},
			{
				"type": "occ",
				"energy": -0.26668,
				"method": "rhf"
			},
			{
				"type": "unocc",
				"energy": 0.00358,
				"method": "rhf"
			},
			{
				"type": "unocc",
				"energy": 0.08924,
				"method": "rhf"
			},
			{
				"type": "unocc",
				"energy": 0.10233,
				"method": "rhf"
			},
			{
				"type": "unocc",
				"energy": 0.10691,
				"method": "rhf"
			},
			{
				"type": "unocc",
				"energy": 0.1171,
				"method": "rhf"
			}
		],
		"cosmo_sigma_profile": { 
			"-0.025": 0.0,
			"-0.024": 0.0,
			"-0.023": 0.0,
			"-0.022": 0.0,
			"-0.021": 0.0,
			"-0.02": 0.0,
			"-0.019": 0.0,
			"-0.018": 0.0,
			"-0.017": 0.0,
			"-0.016": 0.0,
			"-0.015": 0.0,
			"-0.014": 0.0,
			"-0.013": 0.0,
			"-0.012": 0.0,
			"-0.011": 0.0,
			"-0.01": 0.0,
			"-0.009": 0.0,
			"-0.008": 0.0,
			"-0.007": 0.460139450677,
			"-0.006": 4.1623677488,
			"-0.005": 5.05815737789,
			"-0.004": 6.41647392571,
			"-0.003": 18.0550204769,
			"-0.002": 27.6262506993,
			"-0.001": 31.0583314178,
			"0.0": 28.877756658,
			"0.001": 23.4330568219,
			"0.002": 10.7127326881,
			"0.003": 4.13414011258,
			"0.004": 4.84862417058,
			"0.005": 5.9979650163,
			"0.006": 9.32996543304,
			"0.007": 7.96565430636,
			"0.008": 0.0,
			"0.009": 0.0,
			"0.01": 0.0,
			"0.011": 0.0,
			"0.012": 0.0,
			"0.013": 0.0,
			"0.014": 0.0,
			"0.015": 0.0,
			"0.016": 0.0,
			"0.017": 0.0,
			"0.018": 0.0,
			"0.019": 0.0,
			"0.02": 0.0,
			"0.021": 0.0,
			"0.022": 0.0,
			"0.023": 0.0,
			"0.024": 0.0,
			"0.025": 0.0
		}
	}
}
