{
	 "smiles": "NC(=S)C1=CC=C(N)C=C1", 
	 "Tm": 463.15, 
	 "num_atms": 18, 
	 "gaussian": { 
		 "optdone": 1, 
		 "sigma_profile": "yes", 
		 "theory": "DFT", 
		 "functional": "B3LYP", 
		 "basiset": "6-31G**", 
		 "properties": { 
			 "R2extent": 2135.4186, 
			 "electric_dipole_moment_norm": 6.51391341975, 
			 "electric_quadrupole_moment_norm": 14.6590145399, 
			 "total_energy": -779.271947377, 
			 "HOMO_LUMO_gap": 0.14803, 
			 "cosmo_polarized_energy": -20.6, 
			 "cosmo_cavitation_energy": 23.55, 
			 "cosmo_dispersion_energy": -18.12, 
			 "cosmo_repulsion_energy": 1.43, 
			 "cosmo_total_nonelectrostatic_energy": 6.86, 
			 "SMD_solvation_energy": 3.14 
		},
		"coords": [
			{
				"x": 1.8335834893,
				"y": -1.741055294,
				"z": 0.2717933686,
				"element": "N" 
			},
			{
				"x": 1.032744019,
				"y": -1.3949572212,
				"z": -0.7683713047,
				"element": "C" 
			},
			{
				"x": 1.1431466013,
				"y": -2.2047069133,
				"z": -2.2298900779,
				"element": "S" 
			},
			{
				"x": 0.0718862732,
				"y": -0.3029343813,
				"z": -0.4977192773,
				"element": "C" 
			},
			{
				"x": -0.3581949284,
				"y": 0.0039106698,
				"z": 0.8076911833,
				"element": "C" 
			},
			{
				"x": -1.2562114858,
				"y": 1.0337835082,
				"z": 1.0525649716,
				"element": "C" 
			},
			{
				"x": -1.7596828686,
				"y": 1.8102522221,
				"z": -0.0082661468,
				"element": "C" 
			},
			{
				"x": -2.6878811928,
				"y": 2.8111284169,
				"z": 0.2224818322,
				"element": "N" 
			},
			{
				"x": -1.339954632,
				"y": 1.5028365597,
				"z": -1.3182659475,
				"element": "C" 
			},
			{
				"x": -0.4529784066,
				"y": 0.4653563937,
				"z": -1.5528459766,
				"element": "C" 
			},
			{
				"x": 1.9712125231,
				"y": -1.1154225933,
				"z": 1.0515224201,
				"element": "H" 
			},
			{
				"x": 2.5276184291,
				"y": -2.4549490414,
				"z": 0.1060995307,
				"element": "H" 
			},
			{
				"x": -0.0244991093,
				"y": -0.5993577757,
				"z": 1.6471629846,
				"element": "H" 
			},
			{
				"x": -1.5894746966,
				"y": 1.2325863567,
				"z": 2.0679802393,
				"element": "H" 
			},
			{
				"x": -2.7983836871,
				"y": 3.5048059464,
				"z": -0.5022304014,
				"element": "H" 
			},
			{
				"x": -2.7266826681,
				"y": 3.1924859076,
				"z": 1.1560656395,
				"element": "H" 
			},
			{
				"x": -1.7225170895,
				"y": 2.0859748066,
				"z": -2.1521858962,
				"element": "H" 
			},
			{
				"x": -0.1401305702,
				"y": 0.2314624325,
				"z": -2.5646871415,
				"element": "H" 
			}
		],
		 "valence_orbital": [ 
			{
				"type": "occ",
				"energy": -0.31273,
				"method": "rhf"
			},
			{
				"type": "occ",
				"energy": -0.25893,
				"method": "rhf"
			},
			{
				"type": "occ",
				"energy": -0.22891,
				"method": "rhf"
			},
			{
				"type": "occ",
				"energy": -0.20831,
				"method": "rhf"
			},
			{
				"type": "occ",
				"energy": -0.1948,
				"method": "rhf"
			},
			{
				"type": "unocc",
				"energy": -0.04677,
				"method": "rhf"
			},
			{
				"type": "unocc",
				"energy": -0.0076,
				"method": "rhf"
			},
			{
				"type": "unocc",
				"energy": 0.03923,
				"method": "rhf"
			},
			{
				"type": "unocc",
				"energy": 0.07023,
				"method": "rhf"
			},
			{
				"type": "unocc",
				"energy": 0.07847,
				"method": "rhf"
			}
		],
		"cosmo_sigma_profile": { 
			"-0.025": 0.0,
			"-0.024": 0.0,
			"-0.023": 0.0,
			"-0.022": 0.0,
			"-0.021": 0.0,
			"-0.02": 0.0,
			"-0.019": 0.0,
			"-0.018": 0.0,
			"-0.017": 0.0,
			"-0.016": 0.0,
			"-0.015": 0.979369506782,
			"-0.014": 1.86133639509,
			"-0.013": 4.96013573598,
			"-0.012": 5.47704823634,
			"-0.011": 6.13334438708,
			"-0.01": 5.0270166617,
			"-0.009": 4.10887311978,
			"-0.008": 5.27250796312,
			"-0.007": 6.83772733774,
			"-0.006": 6.79994085321,
			"-0.005": 7.49854272413,
			"-0.004": 7.98407743775,
			"-0.003": 7.20794451111,
			"-0.002": 6.78573594348,
			"-0.001": 5.8004242518,
			"0.0": 7.58816786401,
			"0.001": 8.55291423204,
			"0.002": 9.61083939455,
			"0.003": 10.1589382045,
			"0.004": 15.102778861,
			"0.005": 15.5711027228,
			"0.006": 5.1680971742,
			"0.007": 6.01164111481,
			"0.008": 5.06839236313,
			"0.009": 6.59554299154,
			"0.01": 7.72760403004,
			"0.011": 5.27163981671,
			"0.012": 3.88516182733,
			"0.013": 0.859681590277,
			"0.014": 0.0,
			"0.015": 0.0,
			"0.016": 0.0,
			"0.017": 0.0,
			"0.018": 0.0,
			"0.019": 0.0,
			"0.02": 0.0,
			"0.021": 0.0,
			"0.022": 0.0,
			"0.023": 0.0,
			"0.024": 0.0,
			"0.025": 0.0
		}
	}
}
