{
	 "smiles": "NC1=CC=C(CN2CCN(CC2)C2=NC=CC=C2)C=C1", 
	 "Tm": 375.15, 
	 "num_atms": 40, 
	 "gaussian": { 
		 "optdone": 1, 
		 "sigma_profile": "yes", 
		 "theory": "DFT", 
		 "functional": "B3LYP", 
		 "basiset": "6-31G**", 
		 "properties": { 
			 "R2extent": 9675.1822, 
			 "electric_dipole_moment_norm": 3.23806789459, 
			 "electric_quadrupole_moment_norm": 14.8970962929, 
			 "total_energy": -840.750269353, 
			 "HOMO_LUMO_gap": 0.18448, 
			 "cosmo_polarized_energy": -13.58, 
			 "cosmo_cavitation_energy": 41.33, 
			 "cosmo_dispersion_energy": -29.83, 
			 "cosmo_repulsion_energy": 2.29, 
			 "cosmo_total_nonelectrostatic_energy": 13.78, 
			 "SMD_solvation_energy": 3.15 
		},
		"coords": [
			{
				"x": -6.5007307095,
				"y": 1.6785904754,
				"z": 1.7056340808,
				"element": "N" 
			},
			{
				"x": -5.1348020788,
				"y": 1.4167550851,
				"z": 1.8436933831,
				"element": "C" 
			},
			{
				"x": -4.176005273,
				"y": 2.3092395302,
				"z": 1.3295498301,
				"element": "C" 
			},
			{
				"x": -2.8183060017,
				"y": 2.0781843875,
				"z": 1.5185972264,
				"element": "C" 
			},
			{
				"x": -2.360519678,
				"y": 0.9540819096,
				"z": 2.2212499399,
				"element": "C" 
			},
			{
				"x": -0.8806671303,
				"y": 0.7366814702,
				"z": 2.4634900561,
				"element": "C" 
			},
			{
				"x": -0.0586537065,
				"y": 0.9229035026,
				"z": 1.2668754813,
				"element": "N" 
			},
			{
				"x": 1.3663915015,
				"y": 1.0557622616,
				"z": 1.602370469,
				"element": "C" 
			},
			{
				"x": 2.2562526583,
				"y": 0.7045521758,
				"z": 0.4126572771,
				"element": "C" 
			},
			{
				"x": 2.0511173777,
				"y": -0.6964720721,
				"z": 0.0371071062,
				"element": "N" 
			},
			{
				"x": 0.6945258113,
				"y": -1.2195621606,
				"z": 0.1673429952,
				"element": "C" 
			},
			{
				"x": -0.3024368984,
				"y": -0.0543110131,
				"z": 0.1961223393,
				"element": "C" 
			},
			{
				"x": 3.1150670223,
				"y": -1.5206231696,
				"z": -0.2556914878,
				"element": "C" 
			},
			{
				"x": 4.3253418064,
				"y": -0.9371026973,
				"z": -0.3709650729,
				"element": "N" 
			},
			{
				"x": 5.3771627405,
				"y": -1.705046846,
				"z": -0.6681103478,
				"element": "C" 
			},
			{
				"x": 5.3131240259,
				"y": -3.0797095147,
				"z": -0.8774978842,
				"element": "C" 
			},
			{
				"x": 4.0590138962,
				"y": -3.685112192,
				"z": -0.7486175699,
				"element": "C" 
			},
			{
				"x": 2.9475945307,
				"y": -2.9186460153,
				"z": -0.43178799,
				"element": "C" 
			},
			{
				"x": -3.3177919649,
				"y": 0.0661729507,
				"z": 2.7226483647,
				"element": "C" 
			},
			{
				"x": -4.6826117767,
				"y": 0.2874277925,
				"z": 2.5439323354,
				"element": "C" 
			},
			{
				"x": -6.7459704339,
				"y": 2.2632995051,
				"z": 0.9183580663,
				"element": "H" 
			},
			{
				"x": -7.1001355077,
				"y": 0.8671027692,
				"z": 1.7690868862,
				"element": "H" 
			},
			{
				"x": -4.5057396171,
				"y": 3.1901524417,
				"z": 0.7832335832,
				"element": "H" 
			},
			{
				"x": -2.089818932,
				"y": 2.7691421138,
				"z": 1.1041786854,
				"element": "H" 
			},
			{
				"x": -0.5220818371,
				"y": 1.4685191855,
				"z": 3.2007445401,
				"element": "H" 
			},
			{
				"x": -0.7296773735,
				"y": -0.2566620125,
				"z": 2.9316710792,
				"element": "H" 
			},
			{
				"x": 1.6500196139,
				"y": 0.3926964076,
				"z": 2.440829397,
				"element": "H" 
			},
			{
				"x": 1.5704018868,
				"y": 2.0850120832,
				"z": 1.9266811741,
				"element": "H" 
			},
			{
				"x": 3.3076471575,
				"y": 0.8339544297,
				"z": 0.6680556639,
				"element": "H" 
			},
			{
				"x": 2.0433834499,
				"y": 1.3764383696,
				"z": -0.4314431986,
				"element": "H" 
			},
			{
				"x": 0.5892631153,
				"y": -1.83989342,
				"z": 1.0731988739,
				"element": "H" 
			},
			{
				"x": 0.4570771934,
				"y": -1.8627636644,
				"z": -0.6899222749,
				"element": "H" 
			},
			{
				"x": -1.3173239668,
				"y": -0.4458709859,
				"z": 0.3007346939,
				"element": "H" 
			},
			{
				"x": -0.2626026859,
				"y": 0.4533576987,
				"z": -0.7763919057,
				"element": "H" 
			},
			{
				"x": 6.3302349978,
				"y": -1.1823350979,
				"z": -0.7458195366,
				"element": "H" 
			},
			{
				"x": 6.2022381435,
				"y": -3.6494413313,
				"z": -1.1241168248,
				"element": "H" 
			},
			{
				"x": 3.9476029792,
				"y": -4.7574349417,
				"z": -0.8871150601,
				"element": "H" 
			},
			{
				"x": 1.9797441667,
				"y": -3.3884235831,
				"z": -0.3097042752,
				"element": "H" 
			},
			{
				"x": -2.9934366848,
				"y": -0.8192135977,
				"z": 3.2653758887,
				"element": "H" 
			},
			{
				"x": -5.4045918183,
				"y": -0.4189022298,
				"z": 2.9471640119,
				"element": "H" 
			}
		],
		 "valence_orbital": [ 
			{
				"type": "occ",
				"energy": -0.24353,
				"method": "rhf"
			},
			{
				"type": "occ",
				"energy": -0.2429,
				"method": "rhf"
			},
			{
				"type": "occ",
				"energy": -0.20682,
				"method": "rhf"
			},
			{
				"type": "occ",
				"energy": -0.19575,
				"method": "rhf"
			},
			{
				"type": "occ",
				"energy": -0.19045,
				"method": "rhf"
			},
			{
				"type": "unocc",
				"energy": -0.00597,
				"method": "rhf"
			},
			{
				"type": "unocc",
				"energy": 0.0044,
				"method": "rhf"
			},
			{
				"type": "unocc",
				"energy": 0.01727,
				"method": "rhf"
			},
			{
				"type": "unocc",
				"energy": 0.02109,
				"method": "rhf"
			},
			{
				"type": "unocc",
				"energy": 0.08062,
				"method": "rhf"
			}
		],
		"cosmo_sigma_profile": { 
			"-0.025": 0.0,
			"-0.024": 0.0,
			"-0.023": 0.0,
			"-0.022": 0.0,
			"-0.021": 0.0,
			"-0.02": 0.0,
			"-0.019": 0.0,
			"-0.018": 0.0,
			"-0.017": 0.0,
			"-0.016": 0.0,
			"-0.015": 0.0,
			"-0.014": 0.0,
			"-0.013": 0.0229896312933,
			"-0.012": 2.14870484611,
			"-0.011": 2.57842485632,
			"-0.01": 2.75045326959,
			"-0.009": 2.9703352024,
			"-0.008": 3.45793339962,
			"-0.007": 2.79790439825,
			"-0.006": 7.73754821555,
			"-0.005": 15.8023185569,
			"-0.004": 25.964052465,
			"-0.003": 42.0923437518,
			"-0.002": 40.7952896468,
			"-0.001": 25.9199507767,
			"0.0": 20.2895457867,
			"0.001": 15.0209374323,
			"0.002": 16.1402155863,
			"0.003": 17.0304853354,
			"0.004": 19.2363818572,
			"0.005": 20.3679039235,
			"0.006": 13.4197857565,
			"0.007": 11.2830441772,
			"0.008": 4.24025035633,
			"0.009": 3.55184349773,
			"0.01": 2.17025095661,
			"0.011": 2.50427479739,
			"0.012": 2.11477722136,
			"0.013": 1.53001636481,
			"0.014": 0.97648770156,
			"0.015": 0.432848550527,
			"0.016": 0.0475303012546,
			"0.017": 0.0,
			"0.018": 0.0,
			"0.019": 0.0,
			"0.02": 0.0,
			"0.021": 0.0,
			"0.022": 0.0,
			"0.023": 0.0,
			"0.024": 0.0,
			"0.025": 0.0
		}
	}
}
