{
	 "smiles": "CC(C)OC(=O)C1=CC(=CC=C1)C1=NNN=N1", 
	 "Tm": 430.15, 
	 "num_atms": 29, 
	 "gaussian": { 
		 "optdone": 1, 
		 "sigma_profile": "yes", 
		 "theory": "DFT", 
		 "functional": "B3LYP", 
		 "basiset": "6-31G**", 
		 "properties": { 
			 "R2extent": 5596.5274, 
			 "electric_dipole_moment_norm": 2.44770775625, 
			 "electric_quadrupole_moment_norm": 22.2196701006, 
			 "total_energy": -795.838784598, 
			 "HOMO_LUMO_gap": 0.19374, 
			 "cosmo_polarized_energy": -15.09, 
			 "cosmo_cavitation_energy": 34.24, 
			 "cosmo_dispersion_energy": -24.5, 
			 "cosmo_repulsion_energy": 1.92, 
			 "cosmo_total_nonelectrostatic_energy": 11.66, 
			 "SMD_solvation_energy": 4.62 
		},
		"coords": [
			{
				"x": -2.0315947991,
				"y": -3.10524641,
				"z": -1.2374838873,
				"element": "C" 
			},
			{
				"x": -1.3322532823,
				"y": -2.8329891035,
				"z": 0.0866848465,
				"element": "C" 
			},
			{
				"x": -2.2693668463,
				"y": -2.855993433,
				"z": 1.2900640329,
				"element": "C" 
			},
			{
				"x": -0.7406012251,
				"y": -1.505790486,
				"z": -0.0401102025,
				"element": "O" 
			},
			{
				"x": 0.3503774449,
				"y": -1.2407887171,
				"z": 0.7069075082,
				"element": "C" 
			},
			{
				"x": 0.8615809548,
				"y": -2.0370803614,
				"z": 1.4728514492,
				"element": "O" 
			},
			{
				"x": 0.8667665923,
				"y": 0.1441309768,
				"z": 0.4854532237,
				"element": "C" 
			},
			{
				"x": 0.2514792192,
				"y": 1.0361417464,
				"z": -0.3984810402,
				"element": "C" 
			},
			{
				"x": 0.774699283,
				"y": 2.3237913504,
				"z": -0.5700860306,
				"element": "C" 
			},
			{
				"x": 1.9167096117,
				"y": 2.7114267197,
				"z": 0.1479331015,
				"element": "C" 
			},
			{
				"x": 2.5266715226,
				"y": 1.8191923591,
				"z": 1.0278965306,
				"element": "C" 
			},
			{
				"x": 2.006187533,
				"y": 0.5381069089,
				"z": 1.1997441345,
				"element": "C" 
			},
			{
				"x": 0.1256538292,
				"y": 3.2561055745,
				"z": -1.4979378088,
				"element": "C" 
			},
			{
				"x": 0.546065511,
				"y": 4.502342887,
				"z": -1.7323026829,
				"element": "N" 
			},
			{
				"x": -0.3529699935,
				"y": 4.912050845,
				"z": -2.6193853046,
				"element": "N" 
			},
			{
				"x": -1.278778703,
				"y": 4.0117850137,
				"z": -2.9354023073,
				"element": "N" 
			},
			{
				"x": -0.9873686166,
				"y": 2.9518730726,
				"z": -2.2297495475,
				"element": "N" 
			},
			{
				"x": -2.8260677809,
				"y": -2.3735713449,
				"z": -1.4154602634,
				"element": "H" 
			},
			{
				"x": -1.3237614326,
				"y": -3.0545530214,
				"z": -2.0694015053,
				"element": "H" 
			},
			{
				"x": -2.4797191295,
				"y": -4.1036441609,
				"z": -1.2255667195,
				"element": "H" 
			},
			{
				"x": -0.5125576565,
				"y": -3.53937756,
				"z": 0.2463380427,
				"element": "H" 
			},
			{
				"x": -3.0614948682,
				"y": -2.1090092153,
				"z": 1.1757128024,
				"element": "H" 
			},
			{
				"x": -1.717099621,
				"y": -2.6517886398,
				"z": 2.2101639575,
				"element": "H" 
			},
			{
				"x": -2.7363444439,
				"y": -3.8419764996,
				"z": 1.3828283117,
				"element": "H" 
			},
			{
				"x": -0.6295231489,
				"y": 0.7356357052,
				"z": -0.9517610132,
				"element": "H" 
			},
			{
				"x": 2.3170339118,
				"y": 3.7105549626,
				"z": 0.0101225119,
				"element": "H" 
			},
			{
				"x": 3.4097295629,
				"y": 2.1254329229,
				"z": 1.5804242786,
				"element": "H" 
			},
			{
				"x": 2.4634633736,
				"y": -0.1731214421,
				"z": 1.8790286983,
				"element": "H" 
			},
			{
				"x": -0.3387168024,
				"y": 5.8375593503,
				"z": -3.0262251174,
				"element": "H" 
			}
		],
		 "valence_orbital": [ 
			{
				"type": "occ",
				"energy": -0.29757,
				"method": "rhf"
			},
			{
				"type": "occ",
				"energy": -0.29499,
				"method": "rhf"
			},
			{
				"type": "occ",
				"energy": -0.27093,
				"method": "rhf"
			},
			{
				"type": "occ",
				"energy": -0.26381,
				"method": "rhf"
			},
			{
				"type": "occ",
				"energy": -0.24777,
				"method": "rhf"
			},
			{
				"type": "unocc",
				"energy": -0.05403,
				"method": "rhf"
			},
			{
				"type": "unocc",
				"energy": -0.03434,
				"method": "rhf"
			},
			{
				"type": "unocc",
				"energy": -0.02876,
				"method": "rhf"
			},
			{
				"type": "unocc",
				"energy": 0.03662,
				"method": "rhf"
			},
			{
				"type": "unocc",
				"energy": 0.06048,
				"method": "rhf"
			}
		],
		"cosmo_sigma_profile": { 
			"-0.025": 0.0,
			"-0.024": 0.0,
			"-0.023": 0.0,
			"-0.022": 0.0,
			"-0.021": 0.0,
			"-0.02": 0.609611017812,
			"-0.019": 2.27859157055,
			"-0.018": 1.22153509634,
			"-0.017": 0.703350627316,
			"-0.016": 1.0551271977,
			"-0.015": 1.66473586413,
			"-0.014": 0.528041725956,
			"-0.013": 0.369900145917,
			"-0.012": 0.69235602699,
			"-0.011": 0.947711047095,
			"-0.01": 0.943799607516,
			"-0.009": 0.688851053859,
			"-0.008": 0.738375298838,
			"-0.007": 2.87122201564,
			"-0.006": 5.75911668255,
			"-0.005": 9.45602588646,
			"-0.004": 21.1492237343,
			"-0.003": 23.2604098407,
			"-0.002": 23.9665578389,
			"-0.001": 27.4245959421,
			"0.0": 34.9067109644,
			"0.001": 24.2275868783,
			"0.002": 20.9821897459,
			"0.003": 15.0621280946,
			"0.004": 7.30372435495,
			"0.005": 6.40062836401,
			"0.006": 5.08115584508,
			"0.007": 5.48377460445,
			"0.008": 5.53877056131,
			"0.009": 5.93732310639,
			"0.01": 5.31110880621,
			"0.011": 4.96107636787,
			"0.012": 5.02399163553,
			"0.013": 0.607659085215,
			"0.014": 0.0101500431611,
			"0.015": 0.0,
			"0.016": 0.0,
			"0.017": 0.0,
			"0.018": 0.0,
			"0.019": 0.0,
			"0.02": 0.0,
			"0.021": 0.0,
			"0.022": 0.0,
			"0.023": 0.0,
			"0.024": 0.0,
			"0.025": 0.0
		}
	}
}
