{
	 "smiles": "COC(=O)C1=C(Cl)C=CC(=C1)S(=O)(=O)N1CCOCC1", 
	 "Tm": 348.15, 
	 "num_atms": 34, 
	 "gaussian": { 
		 "optdone": 1, 
		 "sigma_profile": "yes", 
		 "theory": "DFT", 
		 "functional": "B3LYP", 
		 "basiset": "6-31G**", 
		 "properties": { 
			 "R2extent": 7675.1882, 
			 "electric_dipole_moment_norm": 3.85844416572, 
			 "electric_quadrupole_moment_norm": 20.6734389045, 
			 "total_energy": -1754.86832332, 
			 "HOMO_LUMO_gap": 0.18178, 
			 "cosmo_polarized_energy": -18.34, 
			 "cosmo_cavitation_energy": 40.2, 
			 "cosmo_dispersion_energy": -28.58, 
			 "cosmo_repulsion_energy": 2.17, 
			 "cosmo_total_nonelectrostatic_energy": 13.79, 
			 "SMD_solvation_energy": 6.25 
		},
		"coords": [
			{
				"x": 4.0239322767,
				"y": 3.7805871356,
				"z": -0.8906671879,
				"element": "C" 
			},
			{
				"x": 3.5544859936,
				"y": 2.6933094481,
				"z": -0.0724055885,
				"element": "O" 
			},
			{
				"x": 2.2699154608,
				"y": 2.3569825733,
				"z": -0.2484865037,
				"element": "C" 
			},
			{
				"x": 1.5219529469,
				"y": 2.9288690433,
				"z": -1.0171985693,
				"element": "O" 
			},
			{
				"x": 1.8076985566,
				"y": 1.2314844335,
				"z": 0.6342456875,
				"element": "C" 
			},
			{
				"x": 2.5929599884,
				"y": 0.2192883164,
				"z": 1.2193775429,
				"element": "C" 
			},
			{
				"x": 4.3150885293,
				"y": 0.0650505801,
				"z": 0.9516263318,
				"element": "Cl" 
			},
			{
				"x": 2.0067699104,
				"y": -0.7554227596,
				"z": 2.0350480787,
				"element": "C" 
			},
			{
				"x": 0.6369835711,
				"y": -0.7484673532,
				"z": 2.2733219337,
				"element": "C" 
			},
			{
				"x": -0.1541634327,
				"y": 0.2366562671,
				"z": 1.6762230104,
				"element": "C" 
			},
			{
				"x": 0.4241634503,
				"y": 1.2135283805,
				"z": 0.8729310882,
				"element": "C" 
			},
			{
				"x": -1.938511517,
				"y": 0.2232893806,
				"z": 1.9263440088,
				"element": "S" 
			},
			{
				"x": -2.1886871108,
				"y": -0.6183106675,
				"z": 3.0982392938,
				"element": "O" 
			},
			{
				"x": -2.391322661,
				"y": 1.6110041071,
				"z": 1.831010024,
				"element": "O" 
			},
			{
				"x": -2.6029116392,
				"y": -0.5763295321,
				"z": 0.6195988338,
				"element": "N" 
			},
			{
				"x": -2.6397501961,
				"y": 0.1148101443,
				"z": -0.6819848822,
				"element": "C" 
			},
			{
				"x": -3.415113708,
				"y": -0.7609341754,
				"z": -1.6612769706,
				"element": "C" 
			},
			{
				"x": -2.8082064334,
				"y": -2.0338596236,
				"z": -1.8731479121,
				"element": "O" 
			},
			{
				"x": -2.0468983128,
				"y": -2.5252366286,
				"z": -0.774420336,
				"element": "C" 
			},
			{
				"x": -2.583688789,
				"y": -2.0530169893,
				"z": 0.5741915762,
				"element": "C" 
			},
			{
				"x": 3.9123840845,
				"y": 3.5378378978,
				"z": -1.9498951443,
				"element": "H" 
			},
			{
				"x": 3.4605223962,
				"y": 4.6911121612,
				"z": -0.6737624732,
				"element": "H" 
			},
			{
				"x": 5.0744994746,
				"y": 3.9051547489,
				"z": -0.6312224122,
				"element": "H" 
			},
			{
				"x": 2.6371215818,
				"y": -1.5160649082,
				"z": 2.4814110113,
				"element": "H" 
			},
			{
				"x": 0.1845843798,
				"y": -1.4828492956,
				"z": 2.9304999287,
				"element": "H" 
			},
			{
				"x": -0.178667484,
				"y": 1.9984604758,
				"z": 0.4317740488,
				"element": "H" 
			},
			{
				"x": -1.6291274992,
				"y": 0.300027803,
				"z": -1.0763388349,
				"element": "H" 
			},
			{
				"x": -3.1407424493,
				"y": 1.0771116082,
				"z": -0.558005299,
				"element": "H" 
			},
			{
				"x": -3.462700809,
				"y": -0.2644749141,
				"z": -2.6355761469,
				"element": "H" 
			},
			{
				"x": -4.4446974262,
				"y": -0.8874771786,
				"z": -1.2946767704,
				"element": "H" 
			},
			{
				"x": -0.9929177161,
				"y": -2.2221174111,
				"z": -0.8750639203,
				"element": "H" 
			},
			{
				"x": -2.0850790982,
				"y": -3.6183787579,
				"z": -0.8265431808,
				"element": "H" 
			},
			{
				"x": -1.9678906852,
				"y": -2.4451119493,
				"z": 1.386831637,
				"element": "H" 
			},
			{
				"x": -3.6006856337,
				"y": -2.4316123608,
				"z": 0.7306980966,
				"element": "H" 
			}
		],
		 "valence_orbital": [ 
			{
				"type": "occ",
				"energy": -0.29769,
				"method": "rhf"
			},
			{
				"type": "occ",
				"energy": -0.28432,
				"method": "rhf"
			},
			{
				"type": "occ",
				"energy": -0.28081,
				"method": "rhf"
			},
			{
				"type": "occ",
				"energy": -0.26431,
				"method": "rhf"
			},
			{
				"type": "occ",
				"energy": -0.25262,
				"method": "rhf"
			},
			{
				"type": "unocc",
				"energy": -0.07084,
				"method": "rhf"
			},
			{
				"type": "unocc",
				"energy": -0.05003,
				"method": "rhf"
			},
			{
				"type": "unocc",
				"energy": 0.01174,
				"method": "rhf"
			},
			{
				"type": "unocc",
				"energy": 0.02129,
				"method": "rhf"
			},
			{
				"type": "unocc",
				"energy": 0.0546,
				"method": "rhf"
			}
		],
		"cosmo_sigma_profile": { 
			"-0.025": 0.0,
			"-0.024": 0.0,
			"-0.023": 0.0,
			"-0.022": 0.0,
			"-0.021": 0.0,
			"-0.02": 0.0,
			"-0.019": 0.0,
			"-0.018": 0.0,
			"-0.017": 0.0,
			"-0.016": 0.0,
			"-0.015": 0.0,
			"-0.014": 0.0,
			"-0.013": 0.0,
			"-0.012": 0.0,
			"-0.011": 0.0,
			"-0.01": 0.0,
			"-0.009": 0.899473118322,
			"-0.008": 3.84370448788,
			"-0.007": 8.34415624343,
			"-0.006": 22.8605753922,
			"-0.005": 33.5221980312,
			"-0.004": 38.1801541187,
			"-0.003": 27.167898873,
			"-0.002": 19.9016007888,
			"-0.001": 24.1556876221,
			"0.0": 22.8393659756,
			"0.001": 14.4780764313,
			"0.002": 11.2298652882,
			"0.003": 15.2159697843,
			"0.004": 12.8608040983,
			"0.005": 8.30056238835,
			"0.006": 7.6617260345,
			"0.007": 8.75684587497,
			"0.008": 5.61886396076,
			"0.009": 5.9881873064,
			"0.01": 10.4310155784,
			"0.011": 13.3484628241,
			"0.012": 3.85966229703,
			"0.013": 1.5646983328,
			"0.014": 0.217317399295,
			"0.015": 0.0,
			"0.016": 0.0,
			"0.017": 0.0,
			"0.018": 0.0,
			"0.019": 0.0,
			"0.02": 0.0,
			"0.021": 0.0,
			"0.022": 0.0,
			"0.023": 0.0,
			"0.024": 0.0,
			"0.025": 0.0
		}
	}
}
