{
	 "smiles": "OC(=O)CC1=C(Br)C=C(C=C1)[N+]([O-])=O", 
	 "Tm": 438.15, 
	 "num_atms": 20, 
	 "gaussian": { 
		 "optdone": 1, 
		 "sigma_profile": "yes", 
		 "theory": "DFT", 
		 "functional": "B3LYP", 
		 "basiset": "6-31G**", 
		 "properties": { 
			 "R2extent": 5984.1863, 
			 "electric_dipole_moment_norm": 3.38473744477, 
			 "electric_quadrupole_moment_norm": 23.6830651291, 
			 "total_energy": -3235.42475517, 
			 "HOMO_LUMO_gap": 0.16833, 
			 "cosmo_polarized_energy": -15.88, 
			 "cosmo_cavitation_energy": 27.78, 
			 "cosmo_dispersion_energy": -20.41, 
			 "cosmo_repulsion_energy": 1.59, 
			 "cosmo_total_nonelectrostatic_energy": 8.96, 
			 "SMD_solvation_energy": 7.15 
		},
		"coords": [
			{
				"x": -2.8719293392,
				"y": -0.8800211358,
				"z": 2.5476284942,
				"element": "O" 
			},
			{
				"x": -2.5294355736,
				"y": 0.0666379289,
				"z": 1.6473469484,
				"element": "C" 
			},
			{
				"x": -2.8085144097,
				"y": 1.2247080282,
				"z": 1.8239481648,
				"element": "O" 
			},
			{
				"x": -1.7531945859,
				"y": -0.4237707598,
				"z": 0.4107023793,
				"element": "C" 
			},
			{
				"x": -0.315481821,
				"y": -0.7618678044,
				"z": 0.7399488014,
				"element": "C" 
			},
			{
				"x": 0.1276994034,
				"y": -2.051131086,
				"z": 1.0785400013,
				"element": "C" 
			},
			{
				"x": -1.1074669739,
				"y": -3.5208999694,
				"z": 1.1592922034,
				"element": "Br" 
			},
			{
				"x": 1.4580133787,
				"y": -2.3259673259,
				"z": 1.374719246,
				"element": "C" 
			},
			{
				"x": 2.367081054,
				"y": -1.273797456,
				"z": 1.3403678364,
				"element": "C" 
			},
			{
				"x": 1.9813238568,
				"y": 0.0261770211,
				"z": 1.0262669404,
				"element": "C" 
			},
			{
				"x": 0.6444739478,
				"y": 0.264549335,
				"z": 0.7299115593,
				"element": "C" 
			},
			{
				"x": 3.7805146341,
				"y": -1.5539179706,
				"z": 1.6489495062,
				"element": "N" 
			},
			{
				"x": 4.564266659,
				"y": -0.6080769487,
				"z": 1.6103529108,
				"element": "O" 
			},
			{
				"x": 4.0826946639,
				"y": -2.7135820676,
				"z": 1.9235067462,
				"element": "O" 
			},
			{
				"x": -2.5795915351,
				"y": -1.7611399683,
				"z": 2.2596440943,
				"element": "H" 
			},
			{
				"x": -1.7813802658,
				"y": 0.3944680858,
				"z": -0.3095907817,
				"element": "H" 
			},
			{
				"x": -2.2595380624,
				"y": -1.2883358111,
				"z": -0.0283524951,
				"element": "H" 
			},
			{
				"x": 1.7948993201,
				"y": -3.321953868,
				"z": 1.6287280894,
				"element": "H" 
			},
			{
				"x": 2.7198534245,
				"y": 0.8175276447,
				"z": 1.0159452367,
				"element": "H" 
			},
			{
				"x": 0.3219122242,
				"y": 1.2716941281,
				"z": 0.4847441186,
				"element": "H" 
			}
		],
		 "valence_orbital": [ 
			{
				"type": "occ",
				"energy": -0.32178,
				"method": "rhf"
			},
			{
				"type": "occ",
				"energy": -0.30812,
				"method": "rhf"
			},
			{
				"type": "occ",
				"energy": -0.30747,
				"method": "rhf"
			},
			{
				"type": "occ",
				"energy": -0.28832,
				"method": "rhf"
			},
			{
				"type": "occ",
				"energy": -0.27642,
				"method": "rhf"
			},
			{
				"type": "unocc",
				"energy": -0.10809,
				"method": "rhf"
			},
			{
				"type": "unocc",
				"energy": -0.05484,
				"method": "rhf"
			},
			{
				"type": "unocc",
				"energy": -0.03802,
				"method": "rhf"
			},
			{
				"type": "unocc",
				"energy": -0.02784,
				"method": "rhf"
			},
			{
				"type": "unocc",
				"energy": 0.00544,
				"method": "rhf"
			}
		],
		"cosmo_sigma_profile": { 
			"-0.025": 0.0,
			"-0.024": 0.0,
			"-0.023": 0.0,
			"-0.022": 0.0,
			"-0.021": 0.0,
			"-0.02": 0.0,
			"-0.019": 0.0,
			"-0.018": 0.0,
			"-0.017": 0.0,
			"-0.016": 0.0,
			"-0.015": 0.0,
			"-0.014": 0.0,
			"-0.013": 0.256326463446,
			"-0.012": 0.418937225439,
			"-0.011": 1.80309948911,
			"-0.01": 1.66525498422,
			"-0.009": 3.18823741487,
			"-0.008": 9.33322691884,
			"-0.007": 11.270988911,
			"-0.006": 11.7318799323,
			"-0.005": 14.3102645395,
			"-0.004": 15.3814318282,
			"-0.003": 15.5977711547,
			"-0.002": 18.6447045633,
			"-0.001": 20.8113290969,
			"0.0": 14.4846006368,
			"0.001": 9.9172886619,
			"0.002": 10.0877480549,
			"0.003": 6.64689772942,
			"0.004": 5.58074377455,
			"0.005": 4.41340042765,
			"0.006": 6.09141555928,
			"0.007": 12.0396568013,
			"0.008": 8.35114582256,
			"0.009": 7.67673666092,
			"0.01": 5.90511261485,
			"0.011": 5.80832750957,
			"0.012": 4.10640107464,
			"0.013": 0.620338012921,
			"0.014": 0.0,
			"0.015": 0.0,
			"0.016": 0.0,
			"0.017": 0.0,
			"0.018": 0.0,
			"0.019": 0.0,
			"0.02": 0.0,
			"0.021": 0.0,
			"0.022": 0.0,
			"0.023": 0.0,
			"0.024": 0.0,
			"0.025": 0.0
		}
	}
}
