{
	 "smiles": "CNC1CC(=O)N(CC2=CC=CC=C2)C1=O", 
	 "Tm": 346.15, 
	 "num_atms": 30, 
	 "gaussian": { 
		 "optdone": 1, 
		 "sigma_profile": "yes", 
		 "theory": "DFT", 
		 "functional": "B3LYP", 
		 "basiset": "6-31G**", 
		 "properties": { 
			 "R2extent": 4444.1243, 
			 "electric_dipole_moment_norm": 1.12606477167, 
			 "electric_quadrupole_moment_norm": 11.8045511554, 
			 "total_energy": -725.691823359, 
			 "HOMO_LUMO_gap": 0.20131, 
			 "cosmo_polarized_energy": -13.56, 
			 "cosmo_cavitation_energy": 33.42, 
			 "cosmo_dispersion_energy": -23.45, 
			 "cosmo_repulsion_energy": 1.84, 
			 "cosmo_total_nonelectrostatic_energy": 11.81, 
			 "SMD_solvation_energy": 4.75 
		},
		"coords": [
			{
				"x": -3.7308090217,
				"y": 1.594884861,
				"z": 1.522820313,
				"element": "C" 
			},
			{
				"x": -2.9031791631,
				"y": 0.4350166514,
				"z": 1.8684346669,
				"element": "N" 
			},
			{
				"x": -2.921133678,
				"y": -0.6486834851,
				"z": 0.898947256,
				"element": "C" 
			},
			{
				"x": -2.3010233895,
				"y": -1.9550019038,
				"z": 1.4315833168,
				"element": "C" 
			},
			{
				"x": -1.4317935507,
				"y": -2.4914925241,
				"z": 0.3037902756,
				"element": "C" 
			},
			{
				"x": -0.8624687894,
				"y": -3.5620709441,
				"z": 0.2429778345,
				"element": "O" 
			},
			{
				"x": -1.370434034,
				"y": -1.5092063829,
				"z": -0.6874232051,
				"element": "N" 
			},
			{
				"x": -0.5291599643,
				"y": -1.6343023464,
				"z": -1.8838604451,
				"element": "C" 
			},
			{
				"x": 0.8811615345,
				"y": -1.1195587502,
				"z": -1.6714100189,
				"element": "C" 
			},
			{
				"x": 1.8907252427,
				"y": -1.9830483676,
				"z": -1.2273345169,
				"element": "C" 
			},
			{
				"x": 3.1862098207,
				"y": -1.5061735514,
				"z": -1.0218312778,
				"element": "C" 
			},
			{
				"x": 3.4836162417,
				"y": -0.1622085825,
				"z": -1.2568501783,
				"element": "C" 
			},
			{
				"x": 2.4799113268,
				"y": 0.7047274799,
				"z": -1.6945457191,
				"element": "C" 
			},
			{
				"x": 1.1842645771,
				"y": 0.2289915847,
				"z": -1.9002243251,
				"element": "C" 
			},
			{
				"x": -2.1460873928,
				"y": -0.3868232866,
				"z": -0.4118898929,
				"element": "C" 
			},
			{
				"x": -2.1816867568,
				"y": 0.6124178516,
				"z": -1.1062515521,
				"element": "O" 
			},
			{
				"x": -3.6565251003,
				"y": 2.3297122536,
				"z": 2.3301100738,
				"element": "H" 
			},
			{
				"x": -3.4629918379,
				"y": 2.0773396492,
				"z": 0.5742361615,
				"element": "H" 
			},
			{
				"x": -4.7781339874,
				"y": 1.2771297286,
				"z": 1.4620340585,
				"element": "H" 
			},
			{
				"x": -1.9436129201,
				"y": 0.7347650774,
				"z": 2.0261867606,
				"element": "H" 
			},
			{
				"x": -3.9681039659,
				"y": -0.8143792916,
				"z": 0.6136086966,
				"element": "H" 
			},
			{
				"x": -1.662236359,
				"y": -1.7561519304,
				"z": 2.2993897842,
				"element": "H" 
			},
			{
				"x": -3.0321984869,
				"y": -2.7056454856,
				"z": 1.7390395616,
				"element": "H" 
			},
			{
				"x": -1.0304420882,
				"y": -1.0723047579,
				"z": -2.6749933393,
				"element": "H" 
			},
			{
				"x": -0.5183546059,
				"y": -2.6947475508,
				"z": -2.1449868233,
				"element": "H" 
			},
			{
				"x": 1.6528113698,
				"y": -3.0254238918,
				"z": -1.0348516297,
				"element": "H" 
			},
			{
				"x": 3.9631053027,
				"y": -2.1845100831,
				"z": -0.6805351927,
				"element": "H" 
			},
			{
				"x": 4.4930140961,
				"y": 0.2077879862,
				"z": -1.1004902975,
				"element": "H" 
			},
			{
				"x": 2.7061889636,
				"y": 1.7512633544,
				"z": -1.8785557137,
				"element": "H" 
			},
			{
				"x": 0.3974666161,
				"y": 0.9018966381,
				"z": -2.229424632,
				"element": "H" 
			}
		],
		 "valence_orbital": [ 
			{
				"type": "occ",
				"energy": -0.27842,
				"method": "rhf"
			},
			{
				"type": "occ",
				"energy": -0.26518,
				"method": "rhf"
			},
			{
				"type": "occ",
				"energy": -0.25022,
				"method": "rhf"
			},
			{
				"type": "occ",
				"energy": -0.24853,
				"method": "rhf"
			},
			{
				"type": "occ",
				"energy": -0.22519,
				"method": "rhf"
			},
			{
				"type": "unocc",
				"energy": -0.02388,
				"method": "rhf"
			},
			{
				"type": "unocc",
				"energy": -0.00808,
				"method": "rhf"
			},
			{
				"type": "unocc",
				"energy": -0.00197,
				"method": "rhf"
			},
			{
				"type": "unocc",
				"energy": 0.02095,
				"method": "rhf"
			},
			{
				"type": "unocc",
				"energy": 0.08905,
				"method": "rhf"
			}
		],
		"cosmo_sigma_profile": { 
			"-0.025": 0.0,
			"-0.024": 0.0,
			"-0.023": 0.0,
			"-0.022": 0.0,
			"-0.021": 0.0,
			"-0.02": 0.0,
			"-0.019": 0.0,
			"-0.018": 0.0,
			"-0.017": 0.0,
			"-0.016": 0.0,
			"-0.015": 0.0,
			"-0.014": 0.0,
			"-0.013": 0.0,
			"-0.012": 0.589796479701,
			"-0.011": 2.08325153419,
			"-0.01": 1.71936606052,
			"-0.009": 2.30854737371,
			"-0.008": 3.88296424029,
			"-0.007": 9.1501300377,
			"-0.006": 14.2346982039,
			"-0.005": 19.7637189753,
			"-0.004": 24.2727955472,
			"-0.003": 26.3058159668,
			"-0.002": 17.5635492603,
			"-0.001": 17.7102190126,
			"0.0": 19.2505290525,
			"0.001": 10.743637487,
			"0.002": 13.1601101626,
			"0.003": 14.7207079539,
			"0.004": 12.5244074169,
			"0.005": 13.4076717355,
			"0.006": 10.0638453381,
			"0.007": 3.84320331219,
			"0.008": 3.56077749292,
			"0.009": 3.60750120278,
			"0.01": 4.34262494621,
			"0.011": 6.77317538648,
			"0.012": 5.99679211909,
			"0.013": 1.36734209736,
			"0.014": 0.208456325829,
			"0.015": 0.805207697539,
			"0.016": 0.406504396006,
			"0.017": 0.0670312308206,
			"0.018": 0.0,
			"0.019": 0.0,
			"0.02": 0.0,
			"0.021": 0.0,
			"0.022": 0.0,
			"0.023": 0.0,
			"0.024": 0.0,
			"0.025": 0.0
		}
	}
}
