{
	 "smiles": "CCC(C)C1=C(OC(C)=O)C(=CC(=C1)[N+]([O-])=O)[N+]([O-])=O", 
	 "Tm": 299.15, 
	 "num_atms": 34, 
	 "gaussian": { 
		 "optdone": 1, 
		 "sigma_profile": "yes", 
		 "theory": "DFT", 
		 "functional": "B3LYP", 
		 "basiset": "6-31G**", 
		 "properties": { 
			 "R2extent": 6421.418, 
			 "electric_dipole_moment_norm": 6.26689042508, 
			 "electric_quadrupole_moment_norm": 10.1345036988, 
			 "total_energy": -1026.37141447, 
			 "HOMO_LUMO_gap": 0.17435, 
			 "cosmo_polarized_energy": -13.83, 
			 "cosmo_cavitation_energy": 38.75, 
			 "cosmo_dispersion_energy": -25.97, 
			 "cosmo_repulsion_energy": 2.01, 
			 "cosmo_total_nonelectrostatic_energy": 14.8, 
			 "SMD_solvation_energy": 12.07 
		},
		"coords": [
			{
				"x": 3.6619927232,
				"y": 1.0268150828,
				"z": 0.1452808068,
				"element": "C" 
			},
			{
				"x": 2.2012367281,
				"y": 0.9436385723,
				"z": -0.3130399661,
				"element": "C" 
			},
			{
				"x": 1.3256900182,
				"y": 0.035078967,
				"z": 0.5866911532,
				"element": "C" 
			},
			{
				"x": 1.6704318187,
				"y": -1.4621266641,
				"z": 0.4522910527,
				"element": "C" 
			},
			{
				"x": -0.1694199455,
				"y": 0.2929259347,
				"z": 0.4137430254,
				"element": "C" 
			},
			{
				"x": -0.8574783041,
				"y": 0.0640105064,
				"z": -0.7962128005,
				"element": "C" 
			},
			{
				"x": -0.136249898,
				"y": -0.43721279,
				"z": -1.8505395408,
				"element": "O" 
			},
			{
				"x": -0.1161246914,
				"y": 0.2615898711,
				"z": -3.0582589909,
				"element": "C" 
			},
			{
				"x": 0.5248344077,
				"y": -0.5822621208,
				"z": -4.1194961114,
				"element": "C" 
			},
			{
				"x": -0.5558453302,
				"y": 1.3731799371,
				"z": -3.1665606348,
				"element": "O" 
			},
			{
				"x": -2.2434664262,
				"y": 0.3114625985,
				"z": -0.8774715239,
				"element": "C" 
			},
			{
				"x": -2.9541362052,
				"y": 0.8105942909,
				"z": 0.2080944951,
				"element": "C" 
			},
			{
				"x": -2.2650807303,
				"y": 1.0293398958,
				"z": 1.3892841639,
				"element": "C" 
			},
			{
				"x": -0.9023469405,
				"y": 0.7701021978,
				"z": 1.5029126863,
				"element": "C" 
			},
			{
				"x": -2.9990180995,
				"y": 1.5439110355,
				"z": 2.5570161601,
				"element": "N" 
			},
			{
				"x": -4.2022380401,
				"y": 1.7539016284,
				"z": 2.422822563,
				"element": "O" 
			},
			{
				"x": -2.3583969042,
				"y": 1.7288662977,
				"z": 3.590591908,
				"element": "O" 
			},
			{
				"x": -3.0371587968,
				"y": 0.0124594474,
				"z": -2.0850353719,
				"element": "N" 
			},
			{
				"x": -4.105952989,
				"y": 0.6010289084,
				"z": -2.2094946328,
				"element": "O" 
			},
			{
				"x": -2.6068313718,
				"y": -0.833716999,
				"z": -2.8680998635,
				"element": "O" 
			},
			{
				"x": 3.7351152574,
				"y": 1.4003474024,
				"z": 1.1729808007,
				"element": "H" 
			},
			{
				"x": 4.2278261058,
				"y": 1.7099237257,
				"z": -0.4957384887,
				"element": "H" 
			},
			{
				"x": 4.1619010089,
				"y": 0.0538758759,
				"z": 0.107855157,
				"element": "H" 
			},
			{
				"x": 1.7715832278,
				"y": 1.9524404686,
				"z": -0.3202230157,
				"element": "H" 
			},
			{
				"x": 2.1636954141,
				"y": 0.5839131036,
				"z": -1.3463583387,
				"element": "H" 
			},
			{
				"x": 1.5468353468,
				"y": 0.3228294238,
				"z": 1.6228812143,
				"element": "H" 
			},
			{
				"x": 1.4889025445,
				"y": -1.8230656371,
				"z": -0.5628264153,
				"element": "H" 
			},
			{
				"x": 2.7223600221,
				"y": -1.6364557728,
				"z": 0.6953920371,
				"element": "H" 
			},
			{
				"x": 1.0686418527,
				"y": -2.0643189741,
				"z": 1.1400031711,
				"element": "H" 
			},
			{
				"x": -0.1742265749,
				"y": -1.3806542864,
				"z": -4.3881617597,
				"element": "H" 
			},
			{
				"x": 0.7321414009,
				"y": 0.0327660263,
				"z": -4.9943940579,
				"element": "H" 
			},
			{
				"x": 1.4410142289,
				"y": -1.0492617082,
				"z": -3.7501370374,
				"element": "H" 
			},
			{
				"x": -4.0131125779,
				"y": 1.0123339728,
				"z": 0.1265296985,
				"element": "H" 
			},
			{
				"x": -0.4161182803,
				"y": 0.9566397817,
				"z": 2.4529784566,
				"element": "H" 
			}
		],
		 "valence_orbital": [ 
			{
				"type": "occ",
				"energy": -0.31097,
				"method": "rhf"
			},
			{
				"type": "occ",
				"energy": -0.30525,
				"method": "rhf"
			},
			{
				"type": "occ",
				"energy": -0.30386,
				"method": "rhf"
			},
			{
				"type": "occ",
				"energy": -0.29554,
				"method": "rhf"
			},
			{
				"type": "occ",
				"energy": -0.28356,
				"method": "rhf"
			},
			{
				"type": "unocc",
				"energy": -0.10921,
				"method": "rhf"
			},
			{
				"type": "unocc",
				"energy": -0.09824,
				"method": "rhf"
			},
			{
				"type": "unocc",
				"energy": -0.03667,
				"method": "rhf"
			},
			{
				"type": "unocc",
				"energy": -0.01757,
				"method": "rhf"
			},
			{
				"type": "unocc",
				"energy": -0.00608,
				"method": "rhf"
			}
		],
		"cosmo_sigma_profile": { 
			"-0.025": 0.0,
			"-0.024": 0.0,
			"-0.023": 0.0,
			"-0.022": 0.0,
			"-0.021": 0.0,
			"-0.02": 0.0,
			"-0.019": 0.0,
			"-0.018": 0.0,
			"-0.017": 0.0,
			"-0.016": 0.0,
			"-0.015": 0.0,
			"-0.014": 0.0,
			"-0.013": 0.0,
			"-0.012": 0.0,
			"-0.011": 0.0,
			"-0.01": 0.0,
			"-0.009": 0.721489316645,
			"-0.008": 3.94155319236,
			"-0.007": 7.90671888649,
			"-0.006": 13.1561324221,
			"-0.005": 13.5856780772,
			"-0.004": 22.1142307636,
			"-0.003": 40.9518957582,
			"-0.002": 38.4104073542,
			"-0.001": 29.8720750722,
			"0.0": 27.5892217517,
			"0.001": 20.04385809,
			"0.002": 9.35922718384,
			"0.003": 7.360155603,
			"0.004": 8.61674133248,
			"0.005": 8.31004926235,
			"0.006": 12.9670402836,
			"0.007": 17.6288158301,
			"0.008": 10.3226042037,
			"0.009": 8.11328937184,
			"0.01": 4.61404244636,
			"0.011": 1.33623810681,
			"0.012": 0.00463388548997,
			"0.013": 0.0,
			"0.014": 0.0,
			"0.015": 0.0,
			"0.016": 0.0,
			"0.017": 0.0,
			"0.018": 0.0,
			"0.019": 0.0,
			"0.02": 0.0,
			"0.021": 0.0,
			"0.022": 0.0,
			"0.023": 0.0,
			"0.024": 0.0,
			"0.025": 0.0
		}
	}
}
