{
	 "smiles": "NC1=CC(=NN1C1=CC=CC=C1)C1CCCC1", 
	 "Tm": 354.15, 
	 "num_atms": 34, 
	 "gaussian": { 
		 "optdone": 1, 
		 "sigma_profile": "yes", 
		 "theory": "DFT", 
		 "functional": "B3LYP", 
		 "basiset": "6-31G**", 
		 "properties": { 
			 "R2extent": 5812.3494, 
			 "electric_dipole_moment_norm": 2.85081441346, 
			 "electric_quadrupole_moment_norm": 9.28299858235, 
			 "total_energy": -707.981233443, 
			 "HOMO_LUMO_gap": 0.19122, 
			 "cosmo_polarized_energy": -12.04, 
			 "cosmo_cavitation_energy": 35.77, 
			 "cosmo_dispersion_energy": -26.26, 
			 "cosmo_repulsion_energy": 2.07, 
			 "cosmo_total_nonelectrostatic_energy": 11.58, 
			 "SMD_solvation_energy": 4.55 
		},
		"coords": [
			{
				"x": 2.5231457992,
				"y": -2.6619692553,
				"z": 0.1361788821,
				"element": "N" 
			},
			{
				"x": 1.573075464,
				"y": -1.6450244837,
				"z": 0.2375282644,
				"element": "C" 
			},
			{
				"x": 1.1314738794,
				"y": -0.9445204679,
				"z": 1.3437987568,
				"element": "C" 
			},
			{
				"x": 0.1406759654,
				"y": -0.0552719021,
				"z": 0.8465426181,
				"element": "C" 
			},
			{
				"x": -0.0222455083,
				"y": -0.187856999,
				"z": -0.4636909202,
				"element": "N" 
			},
			{
				"x": 0.8506948606,
				"y": -1.1857766424,
				"z": -0.8374849514,
				"element": "N" 
			},
			{
				"x": 0.9484882073,
				"y": -1.5435843497,
				"z": -2.205282628,
				"element": "C" 
			},
			{
				"x": 0.7301348765,
				"y": -0.5592180842,
				"z": -3.1792660759,
				"element": "C" 
			},
			{
				"x": 0.811831316,
				"y": -0.8932479096,
				"z": -4.5283329071,
				"element": "C" 
			},
			{
				"x": 1.1196322341,
				"y": -2.198798763,
				"z": -4.9216305241,
				"element": "C" 
			},
			{
				"x": 1.3263945435,
				"y": -3.1764991871,
				"z": -3.9487640789,
				"element": "C" 
			},
			{
				"x": 1.2319364018,
				"y": -2.8610290266,
				"z": -2.59193394,
				"element": "C" 
			},
			{
				"x": -0.6808296621,
				"y": 0.9426811487,
				"z": 1.6072450946,
				"element": "C" 
			},
			{
				"x": 0.1291127972,
				"y": 2.0058660118,
				"z": 2.3841769873,
				"element": "C" 
			},
			{
				"x": -0.8919445824,
				"y": 2.6382291581,
				"z": 3.3575279527,
				"element": "C" 
			},
			{
				"x": -2.0038818797,
				"y": 1.5634346387,
				"z": 3.5652784446,
				"element": "C" 
			},
			{
				"x": -1.5751691271,
				"y": 0.3451256987,
				"z": 2.7174001803,
				"element": "C" 
			},
			{
				"x": 3.1286203215,
				"y": -2.6876716908,
				"z": 0.9469940204,
				"element": "H" 
			},
			{
				"x": 3.0732575786,
				"y": -2.6231292593,
				"z": -0.7151389895,
				"element": "H" 
			},
			{
				"x": 1.4857734953,
				"y": -1.0553441594,
				"z": 2.3582298023,
				"element": "H" 
			},
			{
				"x": 0.4875816328,
				"y": 0.4462398997,
				"z": -2.8576362405,
				"element": "H" 
			},
			{
				"x": 0.6400843868,
				"y": -0.1257783316,
				"z": -5.2776694212,
				"element": "H" 
			},
			{
				"x": 1.1887790735,
				"y": -2.4515183111,
				"z": -5.9753758841,
				"element": "H" 
			},
			{
				"x": 1.545433927,
				"y": -4.1995003773,
				"z": -4.2412438568,
				"element": "H" 
			},
			{
				"x": 1.3498678006,
				"y": -3.6332175239,
				"z": -1.8403371784,
				"element": "H" 
			},
			{
				"x": -1.3206837942,
				"y": 1.4511385765,
				"z": 0.8749872432,
				"element": "H" 
			},
			{
				"x": 0.9314606082,
				"y": 1.5080596839,
				"z": 2.9432040212,
				"element": "H" 
			},
			{
				"x": 0.6050618608,
				"y": 2.7371140098,
				"z": 1.7234573517,
				"element": "H" 
			},
			{
				"x": -0.4212910106,
				"y": 2.9357668384,
				"z": 4.299810143,
				"element": "H" 
			},
			{
				"x": -1.3204225307,
				"y": 3.5472474331,
				"z": 2.9221447693,
				"element": "H" 
			},
			{
				"x": -2.9692306109,
				"y": 1.9464361829,
				"z": 3.2174233913,
				"element": "H" 
			},
			{
				"x": -2.1344390649,
				"y": 1.2987953693,
				"z": 4.6192159177,
				"element": "H" 
			},
			{
				"x": -2.4211813792,
				"y": -0.2208067807,
				"z": 2.3156597955,
				"element": "H" 
			},
			{
				"x": -0.97969788,
				"y": -0.351271145,
				"z": 3.3211839597,
				"element": "H" 
			}
		],
		 "valence_orbital": [ 
			{
				"type": "occ",
				"energy": -0.27319,
				"method": "rhf"
			},
			{
				"type": "occ",
				"energy": -0.27015,
				"method": "rhf"
			},
			{
				"type": "occ",
				"energy": -0.25217,
				"method": "rhf"
			},
			{
				"type": "occ",
				"energy": -0.21421,
				"method": "rhf"
			},
			{
				"type": "occ",
				"energy": -0.20211,
				"method": "rhf"
			},
			{
				"type": "unocc",
				"energy": -0.01089,
				"method": "rhf"
			},
			{
				"type": "unocc",
				"energy": -0.00431,
				"method": "rhf"
			},
			{
				"type": "unocc",
				"energy": 0.05114,
				"method": "rhf"
			},
			{
				"type": "unocc",
				"energy": 0.07475,
				"method": "rhf"
			},
			{
				"type": "unocc",
				"energy": 0.08988,
				"method": "rhf"
			}
		],
		"cosmo_sigma_profile": { 
			"-0.025": 0.0,
			"-0.024": 0.0,
			"-0.023": 0.0,
			"-0.022": 0.0,
			"-0.021": 0.0,
			"-0.02": 0.0,
			"-0.019": 0.0,
			"-0.018": 0.0,
			"-0.017": 0.0,
			"-0.016": 0.0,
			"-0.015": 0.0,
			"-0.014": 0.102115274027,
			"-0.013": 1.49127433811,
			"-0.012": 2.00152568585,
			"-0.011": 3.13727293967,
			"-0.01": 3.33478894166,
			"-0.009": 1.81923856403,
			"-0.008": 2.13649448784,
			"-0.007": 2.94631937528,
			"-0.006": 8.20903082089,
			"-0.005": 11.8042005035,
			"-0.004": 13.8002469205,
			"-0.003": 19.6878130471,
			"-0.002": 28.6777607907,
			"-0.001": 35.0821515161,
			"0.0": 30.0324777224,
			"0.001": 25.695227101,
			"0.002": 19.7219314684,
			"0.003": 13.0579288736,
			"0.004": 15.5260301164,
			"0.005": 16.9426702955,
			"0.006": 8.93833321317,
			"0.007": 3.69284782588,
			"0.008": 2.49243023186,
			"0.009": 2.72193329462,
			"0.01": 2.06170184142,
			"0.011": 1.96369779879,
			"0.012": 1.68394113914,
			"0.013": 1.28970288815,
			"0.014": 0.902995631174,
			"0.015": 0.498015124834,
			"0.016": 0.472122564306,
			"0.017": 0.0,
			"0.018": 0.0,
			"0.019": 0.0,
			"0.02": 0.0,
			"0.021": 0.0,
			"0.022": 0.0,
			"0.023": 0.0,
			"0.024": 0.0,
			"0.025": 0.0
		}
	}
}
