{
	 "smiles": "OC(=O)C1=C(Cl)SC(Cl)=C1", 
	 "Tm": 421.15, 
	 "num_atms": 12, 
	 "gaussian": { 
		 "optdone": 1, 
		 "sigma_profile": "yes", 
		 "theory": "DFT", 
		 "functional": "B3LYP", 
		 "basiset": "6-31G**", 
		 "properties": { 
			 "R2extent": 2642.8511, 
			 "electric_dipole_moment_norm": 3.5529744947, 
			 "electric_quadrupole_moment_norm": 10.3647143106, 
			 "total_energy": -1660.73287658, 
			 "HOMO_LUMO_gap": 0.18581, 
			 "cosmo_polarized_energy": -9.55, 
			 "cosmo_cavitation_energy": 22.26, 
			 "cosmo_dispersion_energy": -17.53, 
			 "cosmo_repulsion_energy": 1.37, 
			 "cosmo_total_nonelectrostatic_energy": 6.1, 
			 "SMD_solvation_energy": 4.29 
		},
		"coords": [
			{
				"x": 2.1024677471,
				"y": 2.3695222739,
				"z": 0.2151685823,
				"element": "O" 
			},
			{
				"x": 1.1914359389,
				"y": 1.9608192338,
				"z": -0.6899811839,
				"element": "C" 
			},
			{
				"x": 1.2928189422,
				"y": 2.2850105499,
				"z": -1.8506439572,
				"element": "O" 
			},
			{
				"x": 0.0504557285,
				"y": 1.1001908425,
				"z": -0.2320265728,
				"element": "C" 
			},
			{
				"x": -0.2636521688,
				"y": 0.6164530299,
				"z": 1.0174542299,
				"element": "C" 
			},
			{
				"x": 0.5839651363,
				"y": 0.8516597623,
				"z": 2.517288485,
				"element": "Cl" 
			},
			{
				"x": -1.709758081,
				"y": -0.3508680541,
				"z": 1.0354915683,
				"element": "S" 
			},
			{
				"x": -1.8990236248,
				"y": -0.0988842004,
				"z": -0.6853999461,
				"element": "C" 
			},
			{
				"x": -3.2352145077,
				"y": -0.8061075315,
				"z": -1.5183486294,
				"element": "Cl" 
			},
			{
				"x": -0.9121365192,
				"y": 0.673927109,
				"z": -1.210434662,
				"element": "C" 
			},
			{
				"x": 1.9029139722,
				"y": 2.0404864282,
				"z": 1.1053369133,
				"element": "H" 
			},
			{
				"x": -0.8307725636,
				"y": 0.9567905566,
				"z": -2.2513048273,
				"element": "H" 
			}
		],
		 "valence_orbital": [ 
			{
				"type": "occ",
				"energy": -0.34089,
				"method": "rhf"
			},
			{
				"type": "occ",
				"energy": -0.32549,
				"method": "rhf"
			},
			{
				"type": "occ",
				"energy": -0.29158,
				"method": "rhf"
			},
			{
				"type": "occ",
				"energy": -0.28742,
				"method": "rhf"
			},
			{
				"type": "occ",
				"energy": -0.25786,
				"method": "rhf"
			},
			{
				"type": "unocc",
				"energy": -0.07205,
				"method": "rhf"
			},
			{
				"type": "unocc",
				"energy": -0.02775,
				"method": "rhf"
			},
			{
				"type": "unocc",
				"energy": -0.02477,
				"method": "rhf"
			},
			{
				"type": "unocc",
				"energy": -0.01708,
				"method": "rhf"
			},
			{
				"type": "unocc",
				"energy": 0.02261,
				"method": "rhf"
			}
		],
		"cosmo_sigma_profile": { 
			"-0.025": 0.0,
			"-0.024": 0.0,
			"-0.023": 0.0,
			"-0.022": 0.0,
			"-0.021": 0.0,
			"-0.02": 0.0,
			"-0.019": 0.0,
			"-0.018": 0.0,
			"-0.017": 0.0,
			"-0.016": 0.0,
			"-0.015": 0.0,
			"-0.014": 0.0,
			"-0.013": 0.328813675984,
			"-0.012": 1.22219468684,
			"-0.011": 1.95884799561,
			"-0.01": 2.15507558555,
			"-0.009": 1.67348305123,
			"-0.008": 2.53761659617,
			"-0.007": 2.95707790734,
			"-0.006": 4.09014521304,
			"-0.005": 6.81454489776,
			"-0.004": 12.5315891728,
			"-0.003": 14.7847071639,
			"-0.002": 18.8334050942,
			"-0.001": 24.0376464001,
			"0.0": 22.6204728833,
			"0.001": 18.7433284242,
			"0.002": 13.0818753542,
			"0.003": 9.06050910786,
			"0.004": 2.40352026005,
			"0.005": 2.02896770652,
			"0.006": 1.91848366823,
			"0.007": 3.23760285509,
			"0.008": 2.27261535119,
			"0.009": 4.16062175766,
			"0.01": 4.69089533363,
			"0.011": 5.27140065797,
			"0.012": 2.85847383083,
			"0.013": 0.576891237706,
			"0.014": 0.0,
			"0.015": 0.0,
			"0.016": 0.0,
			"0.017": 0.0,
			"0.018": 0.0,
			"0.019": 0.0,
			"0.02": 0.0,
			"0.021": 0.0,
			"0.022": 0.0,
			"0.023": 0.0,
			"0.024": 0.0,
			"0.025": 0.0
		}
	}
}
