{
	 "smiles": "O=C1CCC1", 
	 "Tm": 221.65, 
	 "num_atms": 11, 
	 "gaussian": { 
		 "optdone": 1, 
		 "sigma_profile": "yes", 
		 "theory": "DFT", 
		 "functional": "B3LYP", 
		 "basiset": "6-31G**", 
		 "properties": { 
			 "R2extent": 548.9534, 
			 "electric_dipole_moment_norm": 2.78028804803, 
			 "electric_quadrupole_moment_norm": 7.05289776758, 
			 "total_energy": -231.232900039, 
			 "HOMO_LUMO_gap": 0.22103, 
			 "cosmo_polarized_energy": -6.14, 
			 "cosmo_cavitation_energy": 14.14, 
			 "cosmo_dispersion_energy": -10.78, 
			 "cosmo_repulsion_energy": 0.99, 
			 "cosmo_total_nonelectrostatic_energy": 4.35, 
			 "SMD_solvation_energy": 3.1 
		},
		"coords": [
			{
				"x": 1.4232902683,
				"y": -1.9230693881,
				"z": 1.2027950661,
				"element": "O" 
			},
			{
				"x": 0.9379176565,
				"y": -1.238728421,
				"z": 0.3399614357,
				"element": "C" 
			},
			{
				"x": 1.4815023418,
				"y": -0.1139424657,
				"z": -0.5591166176,
				"element": "C" 
			},
			{
				"x": 0.0865845316,
				"y": -0.0585869037,
				"z": -1.2554169292,
				"element": "C" 
			},
			{
				"x": -0.459628934,
				"y": -1.1648186219,
				"z": -0.3006385342,
				"element": "C" 
			},
			{
				"x": 1.7696058995,
				"y": 0.7836267081,
				"z": -0.0011401738,
				"element": "H" 
			},
			{
				"x": 2.3296982611,
				"y": -0.4119290914,
				"z": -1.1842692241,
				"element": "H" 
			},
			{
				"x": 0.1057728668,
				"y": -0.3526872441,
				"z": -2.3069733065,
				"element": "H" 
			},
			{
				"x": -0.423254023,
				"y": 0.9034401593,
				"z": -1.1731284135,
				"element": "H" 
			},
			{
				"x": -1.2391844192,
				"y": -0.84526881,
				"z": 0.3994720939,
				"element": "H" 
			},
			{
				"x": -0.7864044493,
				"y": -2.0989359216,
				"z": -0.7693453967,
				"element": "H" 
			}
		],
		 "valence_orbital": [ 
			{
				"type": "occ",
				"energy": -0.38764,
				"method": "rhf"
			},
			{
				"type": "occ",
				"energy": -0.35316,
				"method": "rhf"
			},
			{
				"type": "occ",
				"energy": -0.3413,
				"method": "rhf"
			},
			{
				"type": "occ",
				"energy": -0.33604,
				"method": "rhf"
			},
			{
				"type": "occ",
				"energy": -0.2422,
				"method": "rhf"
			},
			{
				"type": "unocc",
				"energy": -0.02117,
				"method": "rhf"
			},
			{
				"type": "unocc",
				"energy": 0.08958,
				"method": "rhf"
			},
			{
				"type": "unocc",
				"energy": 0.12295,
				"method": "rhf"
			},
			{
				"type": "unocc",
				"energy": 0.12632,
				"method": "rhf"
			},
			{
				"type": "unocc",
				"energy": 0.13818,
				"method": "rhf"
			}
		],
		"cosmo_sigma_profile": { 
			"-0.025": 0.0,
			"-0.024": 0.0,
			"-0.023": 0.0,
			"-0.022": 0.0,
			"-0.021": 0.0,
			"-0.02": 0.0,
			"-0.019": 0.0,
			"-0.018": 0.0,
			"-0.017": 0.0,
			"-0.016": 0.0,
			"-0.015": 0.0,
			"-0.014": 0.0,
			"-0.013": 0.0,
			"-0.012": 0.0,
			"-0.011": 0.0,
			"-0.01": 0.0,
			"-0.009": 0.0,
			"-0.008": 0.0,
			"-0.007": 0.0,
			"-0.006": 4.40313098682,
			"-0.005": 12.9422339148,
			"-0.004": 14.5258927488,
			"-0.003": 15.4873189874,
			"-0.002": 12.3789465089,
			"-0.001": 9.78954872529,
			"0.0": 9.12574558179,
			"0.001": 5.93229052066,
			"0.002": 1.83275046276,
			"0.003": 2.09301725118,
			"0.004": 1.08861098347,
			"0.005": 1.59664451725,
			"0.006": 1.93884577822,
			"0.007": 0.880653932217,
			"0.008": 2.03222511266,
			"0.009": 2.34887058964,
			"0.01": 2.62708697489,
			"0.011": 4.62573754932,
			"0.012": 4.52394864257,
			"0.013": 1.20949555831,
			"0.014": 0.0,
			"0.015": 0.0,
			"0.016": 0.0,
			"0.017": 0.0,
			"0.018": 0.0,
			"0.019": 0.0,
			"0.02": 0.0,
			"0.021": 0.0,
			"0.022": 0.0,
			"0.023": 0.0,
			"0.024": 0.0,
			"0.025": 0.0
		}
	}
}
