{
	 "smiles": "CC1=C(SC2=C1C=CC(=N2)C(F)(F)F)C(O)=O", 
	 "Tm": 539.15, 
	 "num_atms": 23, 
	 "gaussian": { 
		 "optdone": 1, 
		 "sigma_profile": "yes", 
		 "theory": "DFT", 
		 "functional": "B3LYP", 
		 "basiset": "6-31G**", 
		 "properties": { 
			 "R2extent": 5926.3458, 
			 "electric_dipole_moment_norm": 3.04965618226, 
			 "electric_quadrupole_moment_norm": 20.9479920532, 
			 "total_energy": -1287.60202067, 
			 "HOMO_LUMO_gap": 0.16646, 
			 "cosmo_polarized_energy": -14.06, 
			 "cosmo_cavitation_energy": 30.99, 
			 "cosmo_dispersion_energy": -22.8, 
			 "cosmo_repulsion_energy": 1.64, 
			 "cosmo_total_nonelectrostatic_energy": 9.83, 
			 "SMD_solvation_energy": 5.76 
		},
		"coords": [
			{
				"x": -1.9848199731,
				"y": -1.3851230963,
				"z": -1.1252891815,
				"element": "C" 
			},
			{
				"x": -0.6028335724,
				"y": -1.3753680204,
				"z": -0.5370996683,
				"element": "C" 
			},
			{
				"x": 0.1509729531,
				"y": -2.4723723677,
				"z": -0.197924815,
				"element": "C" 
			},
			{
				"x": 1.7435908479,
				"y": -2.065991286,
				"z": 0.468061355,
				"element": "S" 
			},
			{
				"x": 1.3800304515,
				"y": -0.3542427498,
				"z": 0.326318168,
				"element": "C" 
			},
			{
				"x": 0.0943511888,
				"y": -0.1475010363,
				"z": -0.2350939237,
				"element": "C" 
			},
			{
				"x": -0.3041513738,
				"y": 1.1859419487,
				"z": -0.4114632171,
				"element": "C" 
			},
			{
				"x": 0.5703086257,
				"y": 2.1973098154,
				"z": -0.0329178233,
				"element": "C" 
			},
			{
				"x": 1.8179073693,
				"y": 1.8487277775,
				"z": 0.5075970051,
				"element": "C" 
			},
			{
				"x": 2.2326153843,
				"y": 0.5937061137,
				"z": 0.6884662116,
				"element": "N" 
			},
			{
				"x": 2.8110347955,
				"y": 2.911982769,
				"z": 0.9368444621,
				"element": "C" 
			},
			{
				"x": 3.9671420182,
				"y": 2.8022088075,
				"z": 0.2581491705,
				"element": "F" 
			},
			{
				"x": 3.0962691445,
				"y": 2.8113960342,
				"z": 2.247924689,
				"element": "F" 
			},
			{
				"x": 2.3228142248,
				"y": 4.1538598861,
				"z": 0.7177567885,
				"element": "F" 
			},
			{
				"x": -0.2502503344,
				"y": -3.8998043454,
				"z": -0.3373366612,
				"element": "C" 
			},
			{
				"x": 0.4073357117,
				"y": -4.7914613897,
				"z": 0.4477515262,
				"element": "O" 
			},
			{
				"x": -1.1045535491,
				"y": -4.2859633335,
				"z": -1.1016530421,
				"element": "O" 
			},
			{
				"x": -1.9678089485,
				"y": -0.960076779,
				"z": -2.1361906594,
				"element": "H" 
			},
			{
				"x": -2.3794535182,
				"y": -2.3964515533,
				"z": -1.1952142998,
				"element": "H" 
			},
			{
				"x": -2.6619289562,
				"y": -0.7675077822,
				"z": -0.5241205382,
				"element": "H" 
			},
			{
				"x": -1.2741814813,
				"y": 1.4240638953,
				"z": -0.836800091,
				"element": "H" 
			},
			{
				"x": 0.3062420946,
				"y": 3.2405923663,
				"z": -0.1499158924,
				"element": "H" 
			},
			{
				"x": 0.9397668972,
				"y": -4.345125674,
				"z": 1.1233504369,
				"element": "H" 
			}
		],
		 "valence_orbital": [ 
			{
				"type": "occ",
				"energy": -0.32946,
				"method": "rhf"
			},
			{
				"type": "occ",
				"energy": -0.29896,
				"method": "rhf"
			},
			{
				"type": "occ",
				"energy": -0.28871,
				"method": "rhf"
			},
			{
				"type": "occ",
				"energy": -0.27718,
				"method": "rhf"
			},
			{
				"type": "occ",
				"energy": -0.25672,
				"method": "rhf"
			},
			{
				"type": "unocc",
				"energy": -0.09026,
				"method": "rhf"
			},
			{
				"type": "unocc",
				"energy": -0.04854,
				"method": "rhf"
			},
			{
				"type": "unocc",
				"energy": -0.02076,
				"method": "rhf"
			},
			{
				"type": "unocc",
				"energy": -0.01478,
				"method": "rhf"
			},
			{
				"type": "unocc",
				"energy": 0.04455,
				"method": "rhf"
			}
		],
		"cosmo_sigma_profile": { 
			"-0.025": 0.0,
			"-0.024": 0.0,
			"-0.023": 0.0,
			"-0.022": 0.0,
			"-0.021": 0.0,
			"-0.02": 0.0,
			"-0.019": 0.00683161563597,
			"-0.018": 0.658658449395,
			"-0.017": 0.339477697758,
			"-0.016": 0.91191020076,
			"-0.015": 0.546683958767,
			"-0.014": 1.26098866964,
			"-0.013": 1.43289299136,
			"-0.012": 1.00249466179,
			"-0.011": 0.574572729985,
			"-0.01": 0.675686880724,
			"-0.009": 1.89758581215,
			"-0.008": 4.70511061454,
			"-0.007": 6.75265499405,
			"-0.006": 9.35632350891,
			"-0.005": 10.6013611067,
			"-0.004": 11.9287971136,
			"-0.003": 14.0959747662,
			"-0.002": 21.859978369,
			"-0.001": 29.0741880819,
			"0.0": 22.8266880731,
			"0.001": 16.6445164886,
			"0.002": 29.0512422048,
			"0.003": 23.2348844466,
			"0.004": 6.08556254058,
			"0.005": 5.13229470334,
			"0.006": 4.60464647595,
			"0.007": 4.23826996944,
			"0.008": 4.22504807574,
			"0.009": 4.736481784,
			"0.01": 5.99152084795,
			"0.011": 4.85571052508,
			"0.012": 2.26567278871,
			"0.013": 0.218632798362,
			"0.014": 0.0,
			"0.015": 0.0,
			"0.016": 0.0,
			"0.017": 0.0,
			"0.018": 0.0,
			"0.019": 0.0,
			"0.02": 0.0,
			"0.021": 0.0,
			"0.022": 0.0,
			"0.023": 0.0,
			"0.024": 0.0,
			"0.025": 0.0
		}
	}
}
