{
	 "smiles": "CC(C)OC1=CC=C(C=C1)C(O)CN", 
	 "Tm": 336.15, 
	 "num_atms": 31, 
	 "gaussian": { 
		 "optdone": 1, 
		 "sigma_profile": "yes", 
		 "theory": "DFT", 
		 "functional": "B3LYP", 
		 "basiset": "6-31G**", 
		 "properties": { 
			 "R2extent": 4496.0028, 
			 "electric_dipole_moment_norm": 0.856176932649, 
			 "electric_quadrupole_moment_norm": 13.0103224664, 
			 "total_energy": -634.600143251, 
			 "HOMO_LUMO_gap": 0.20941, 
			 "cosmo_polarized_energy": -13.71, 
			 "cosmo_cavitation_energy": 32.7, 
			 "cosmo_dispersion_energy": -23.4, 
			 "cosmo_repulsion_energy": 1.88, 
			 "cosmo_total_nonelectrostatic_energy": 11.18, 
			 "SMD_solvation_energy": 4.37 
		},
		"coords": [
			{
				"x": -1.3438594021,
				"y": 3.2587383892,
				"z": -0.1498625666,
				"element": "C" 
			},
			{
				"x": -0.5119282929,
				"y": 2.5199029755,
				"z": 0.9024346604,
				"element": "C" 
			},
			{
				"x": -1.3278376961,
				"y": 1.8952335097,
				"z": 2.0382323522,
				"element": "C" 
			},
			{
				"x": 0.4414392976,
				"y": 1.604536221,
				"z": 0.3256586808,
				"element": "O" 
			},
			{
				"x": 0.1163292898,
				"y": 0.488214767,
				"z": -0.390880884,
				"element": "C" 
			},
			{
				"x": -1.1710278551,
				"y": 0.0060043385,
				"z": -0.6692130213,
				"element": "C" 
			},
			{
				"x": -1.3337838172,
				"y": -1.1617040504,
				"z": -1.4176755339,
				"element": "C" 
			},
			{
				"x": -0.2383104504,
				"y": -1.8743756344,
				"z": -1.9122449875,
				"element": "C" 
			},
			{
				"x": 1.0438114071,
				"y": -1.3772499243,
				"z": -1.637145155,
				"element": "C" 
			},
			{
				"x": 1.2225506637,
				"y": -0.2205308086,
				"z": -0.8869803258,
				"element": "C" 
			},
			{
				"x": -0.4275340718,
				"y": -3.1700076263,
				"z": -2.6698446003,
				"element": "C" 
			},
			{
				"x": -1.6313551986,
				"y": -3.0718360716,
				"z": -3.4291478002,
				"element": "O" 
			},
			{
				"x": -0.5010069909,
				"y": -4.3972653787,
				"z": -1.7226523549,
				"element": "C" 
			},
			{
				"x": 0.6752910118,
				"y": -4.6777746479,
				"z": -0.9095595134,
				"element": "N" 
			},
			{
				"x": -1.8686141697,
				"y": 4.0945975589,
				"z": 0.3245651632,
				"element": "H" 
			},
			{
				"x": -2.0917953364,
				"y": 2.624319454,
				"z": -0.6299771481,
				"element": "H" 
			},
			{
				"x": -0.6898946688,
				"y": 3.6639019665,
				"z": -0.9271195445,
				"element": "H" 
			},
			{
				"x": 0.1577599516,
				"y": 3.2579578218,
				"z": 1.3579653698,
				"element": "H" 
			},
			{
				"x": -0.663371184,
				"y": 1.3756652446,
				"z": 2.7343310291,
				"element": "H" 
			},
			{
				"x": -2.0788987423,
				"y": 1.1841360984,
				"z": 1.6878734923,
				"element": "H" 
			},
			{
				"x": -1.8476453236,
				"y": 2.6862745983,
				"z": 2.5888696646,
				"element": "H" 
			},
			{
				"x": -2.0518710387,
				"y": 0.5239371104,
				"z": -0.3162088399,
				"element": "H" 
			},
			{
				"x": -2.3344467458,
				"y": -1.5182450393,
				"z": -1.6383441892,
				"element": "H" 
			},
			{
				"x": 1.9175976909,
				"y": -1.8942524175,
				"z": -2.0270741695,
				"element": "H" 
			},
			{
				"x": 2.2146776669,
				"y": 0.1666315112,
				"z": -0.678712386,
				"element": "H" 
			},
			{
				"x": 0.4393704049,
				"y": -3.312525255,
				"z": -3.340050105,
				"element": "H" 
			},
			{
				"x": -1.8224035508,
				"y": -3.9473049922,
				"z": -3.7906221577,
				"element": "H" 
			},
			{
				"x": -0.7105027342,
				"y": -5.2880353321,
				"z": -2.333969138,
				"element": "H" 
			},
			{
				"x": -1.3634442708,
				"y": -4.2587169013,
				"z": -1.0601971463,
				"element": "H" 
			},
			{
				"x": 1.4888948536,
				"y": -4.824343157,
				"z": -1.5031714549,
				"element": "H" 
			},
			{
				"x": 0.8874093022,
				"y": -3.8738843286,
				"z": -0.3230773905,
				"element": "H" 
			}
		],
		 "valence_orbital": [ 
			{
				"type": "occ",
				"energy": -0.307,
				"method": "rhf"
			},
			{
				"type": "occ",
				"energy": -0.27677,
				"method": "rhf"
			},
			{
				"type": "occ",
				"energy": -0.24565,
				"method": "rhf"
			},
			{
				"type": "occ",
				"energy": -0.22991,
				"method": "rhf"
			},
			{
				"type": "occ",
				"energy": -0.20752,
				"method": "rhf"
			},
			{
				"type": "unocc",
				"energy": 0.00189,
				"method": "rhf"
			},
			{
				"type": "unocc",
				"energy": 0.01357,
				"method": "rhf"
			},
			{
				"type": "unocc",
				"energy": 0.07598,
				"method": "rhf"
			},
			{
				"type": "unocc",
				"energy": 0.084,
				"method": "rhf"
			},
			{
				"type": "unocc",
				"energy": 0.08763,
				"method": "rhf"
			}
		],
		"cosmo_sigma_profile": { 
			"-0.025": 0.0,
			"-0.024": 0.0,
			"-0.023": 0.0,
			"-0.022": 0.0,
			"-0.021": 0.0,
			"-0.02": 0.0,
			"-0.019": 0.0,
			"-0.018": 0.0,
			"-0.017": 0.0,
			"-0.016": 0.0486492085424,
			"-0.015": 0.818518983257,
			"-0.014": 1.046004044,
			"-0.013": 0.931226747021,
			"-0.012": 1.25916830717,
			"-0.011": 1.03674405562,
			"-0.01": 1.18040774418,
			"-0.009": 1.76478201988,
			"-0.008": 2.79859112754,
			"-0.007": 5.0494891723,
			"-0.006": 8.73450136913,
			"-0.005": 14.1585648304,
			"-0.004": 26.4277403371,
			"-0.003": 25.5477405631,
			"-0.002": 23.0080637459,
			"-0.001": 21.0776318646,
			"0.0": 24.6359613576,
			"0.001": 15.8842294908,
			"0.002": 9.79367263849,
			"0.003": 9.0544671295,
			"0.004": 11.9382381008,
			"0.005": 11.3638879351,
			"0.006": 9.57280613718,
			"0.007": 5.10012211269,
			"0.008": 3.88549551547,
			"0.009": 3.39417315468,
			"0.01": 3.56746597142,
			"0.011": 3.08872873998,
			"0.012": 1.86794156101,
			"0.013": 1.82033737223,
			"0.014": 1.4012776311,
			"0.015": 1.00066982657,
			"0.016": 0.860227073558,
			"0.017": 0.536579732962,
			"0.018": 0.628285370267,
			"0.019": 0.560925962254,
			"0.02": 0.242257579682,
			"0.021": 0.0,
			"0.022": 0.0,
			"0.023": 0.0,
			"0.024": 0.0,
			"0.025": 0.0
		}
	}
}
