{
	 "smiles": "OC(=O)CCCC1=CC2=C(NC(=O)C2)C=C1", 
	 "Tm": 454.15, 
	 "num_atms": 29, 
	 "gaussian": { 
		 "optdone": 1, 
		 "sigma_profile": "yes", 
		 "theory": "DFT", 
		 "functional": "B3LYP", 
		 "basiset": "6-31G**", 
		 "properties": { 
			 "R2extent": 5417.2489, 
			 "electric_dipole_moment_norm": 5.25821834275, 
			 "electric_quadrupole_moment_norm": 31.5250504429, 
			 "total_energy": -745.571572598, 
			 "HOMO_LUMO_gap": 0.19777, 
			 "cosmo_polarized_energy": -23.96, 
			 "cosmo_cavitation_energy": 33.31, 
			 "cosmo_dispersion_energy": -23.61, 
			 "cosmo_repulsion_energy": 1.88, 
			 "cosmo_total_nonelectrostatic_energy": 11.58, 
			 "SMD_solvation_energy": 6.76 
		},
		"coords": [
			{
				"x": 3.3858551695,
				"y": 3.7537124903,
				"z": 0.3291208529,
				"element": "O" 
			},
			{
				"x": 2.0974286451,
				"y": 3.4644158983,
				"z": -0.0152989634,
				"element": "C" 
			},
			{
				"x": 1.4605363425,
				"y": 4.2537804459,
				"z": -0.6652142335,
				"element": "O" 
			},
			{
				"x": 1.5752394268,
				"y": 2.116005208,
				"z": 0.4618427734,
				"element": "C" 
			},
			{
				"x": 2.3363481471,
				"y": 0.9205521589,
				"z": -0.1426232181,
				"element": "C" 
			},
			{
				"x": 1.7689353804,
				"y": -0.4486313187,
				"z": 0.2914068412,
				"element": "C" 
			},
			{
				"x": 0.3567733055,
				"y": -0.7186302272,
				"z": -0.1890519533,
				"element": "C" 
			},
			{
				"x": -0.7378501168,
				"y": -0.6337512199,
				"z": 0.6916111785,
				"element": "C" 
			},
			{
				"x": -2.024446379,
				"y": -0.8678615435,
				"z": 0.2299542603,
				"element": "C" 
			},
			{
				"x": -2.2321883891,
				"y": -1.1917409196,
				"z": -1.1218443729,
				"element": "C" 
			},
			{
				"x": -3.6006153152,
				"y": -1.3860497239,
				"z": -1.3441633735,
				"element": "N" 
			},
			{
				"x": -4.3595698728,
				"y": -1.2092582872,
				"z": -0.1946545661,
				"element": "C" 
			},
			{
				"x": -5.5661228584,
				"y": -1.3202463077,
				"z": -0.1182909068,
				"element": "O" 
			},
			{
				"x": -3.3629658955,
				"y": -0.8533975211,
				"z": 0.9245711937,
				"element": "C" 
			},
			{
				"x": -1.1731787899,
				"y": -1.2873492686,
				"z": -2.0177823277,
				"element": "C" 
			},
			{
				"x": 0.1158089867,
				"y": -1.047508871,
				"z": -1.5305343575,
				"element": "C" 
			},
			{
				"x": 3.7598830408,
				"y": 3.0360477197,
				"z": 0.8591007228,
				"element": "H" 
			},
			{
				"x": 1.6379785707,
				"y": 2.0773943405,
				"z": 1.558968055,
				"element": "H" 
			},
			{
				"x": 0.5194513555,
				"y": 2.0700850882,
				"z": 0.1900630336,
				"element": "H" 
			},
			{
				"x": 3.3967721081,
				"y": 0.9606513492,
				"z": 0.1418295597,
				"element": "H" 
			},
			{
				"x": 2.3089172598,
				"y": 0.9955734188,
				"z": -1.2361525789,
				"element": "H" 
			},
			{
				"x": 2.4399009804,
				"y": -1.2284509201,
				"z": -0.0893589385,
				"element": "H" 
			},
			{
				"x": 1.803576576,
				"y": -0.5203148675,
				"z": 1.3857415338,
				"element": "H" 
			},
			{
				"x": -0.5691430906,
				"y": -0.3891475765,
				"z": 1.7379476583,
				"element": "H" 
			},
			{
				"x": -4.0248730408,
				"y": -1.6237551893,
				"z": -2.2285796246,
				"element": "H" 
			},
			{
				"x": -3.450800067,
				"y": -1.5884490535,
				"z": 1.732534811,
				"element": "H" 
			},
			{
				"x": -3.6312633546,
				"y": 0.120977276,
				"z": 1.3482220667,
				"element": "H" 
			},
			{
				"x": -1.334178516,
				"y": -1.5439013012,
				"z": -3.0604129521,
				"element": "H" 
			},
			{
				"x": 0.9560903907,
				"y": -1.1249512773,
				"z": -2.2163521739,
				"element": "H" 
			}
		],
		 "valence_orbital": [ 
			{
				"type": "occ",
				"energy": -0.30902,
				"method": "rhf"
			},
			{
				"type": "occ",
				"energy": -0.26675,
				"method": "rhf"
			},
			{
				"type": "occ",
				"energy": -0.26111,
				"method": "rhf"
			},
			{
				"type": "occ",
				"energy": -0.25929,
				"method": "rhf"
			},
			{
				"type": "occ",
				"energy": -0.21967,
				"method": "rhf"
			},
			{
				"type": "unocc",
				"energy": -0.0219,
				"method": "rhf"
			},
			{
				"type": "unocc",
				"energy": -0.01097,
				"method": "rhf"
			},
			{
				"type": "unocc",
				"energy": 0.00959,
				"method": "rhf"
			},
			{
				"type": "unocc",
				"energy": 0.02842,
				"method": "rhf"
			},
			{
				"type": "unocc",
				"energy": 0.04661,
				"method": "rhf"
			}
		],
		"cosmo_sigma_profile": { 
			"-0.025": 0.0,
			"-0.024": 0.0,
			"-0.023": 0.0,
			"-0.022": 0.0,
			"-0.021": 0.0,
			"-0.02": 0.0,
			"-0.019": 0.0110211072717,
			"-0.018": 0.905411531004,
			"-0.017": 0.933451889554,
			"-0.016": 1.13595263931,
			"-0.015": 2.63958634916,
			"-0.014": 2.24528428506,
			"-0.013": 2.22378057453,
			"-0.012": 2.01660552607,
			"-0.011": 2.35846292742,
			"-0.01": 1.81055610952,
			"-0.009": 2.29288996904,
			"-0.008": 2.64662785552,
			"-0.007": 7.3083092719,
			"-0.006": 11.1297388962,
			"-0.005": 16.8010098262,
			"-0.004": 25.4910328853,
			"-0.003": 24.4855414116,
			"-0.002": 21.4253402743,
			"-0.001": 16.9910195512,
			"0.0": 13.5313171176,
			"0.001": 12.3937752522,
			"0.002": 10.3376159479,
			"0.003": 9.86419072475,
			"0.004": 9.37551889117,
			"0.005": 10.0944920108,
			"0.006": 6.60115952958,
			"0.007": 2.78756714946,
			"0.008": 4.75789951962,
			"0.009": 3.71194161089,
			"0.01": 5.39581550254,
			"0.011": 8.31155772327,
			"0.012": 8.81164032146,
			"0.013": 9.31054993442,
			"0.014": 2.83735566376,
			"0.015": 0.0424400302754,
			"0.016": 0.0,
			"0.017": 0.0,
			"0.018": 0.0,
			"0.019": 0.0,
			"0.02": 0.0,
			"0.021": 0.0,
			"0.022": 0.0,
			"0.023": 0.0,
			"0.024": 0.0,
			"0.025": 0.0
		}
	}
}
