{
	 "smiles": "OC(=O)CNC(=O)C1=CSC=C1", 
	 "Tm": 450.15, 
	 "num_atms": 19, 
	 "gaussian": { 
		 "optdone": 1, 
		 "sigma_profile": "yes", 
		 "theory": "DFT", 
		 "functional": "B3LYP", 
		 "basiset": "6-31G**", 
		 "properties": { 
			 "R2extent": 4027.6831, 
			 "electric_dipole_moment_norm": 6.11590399369, 
			 "electric_quadrupole_moment_norm": 26.2595991932, 
			 "total_energy": -949.586842455, 
			 "HOMO_LUMO_gap": 0.19223, 
			 "cosmo_polarized_energy": -18.37, 
			 "cosmo_cavitation_energy": 25.53, 
			 "cosmo_dispersion_energy": -19.46, 
			 "cosmo_repulsion_energy": 1.5, 
			 "cosmo_total_nonelectrostatic_energy": 7.57, 
			 "SMD_solvation_energy": 5.7 
		},
		"coords": [
			{
				"x": 3.0761448399,
				"y": -0.2510039395,
				"z": 0.282984029,
				"element": "O" 
			},
			{
				"x": 3.1022026292,
				"y": -1.0785616591,
				"z": -0.7679621486,
				"element": "C" 
			},
			{
				"x": 4.1135187553,
				"y": -1.6166361538,
				"z": -1.1532233077,
				"element": "O" 
			},
			{
				"x": 1.7495103723,
				"y": -1.2768720545,
				"z": -1.4830464346,
				"element": "C" 
			},
			{
				"x": 0.6808570776,
				"y": -1.8023385608,
				"z": -0.6361951308,
				"element": "N" 
			},
			{
				"x": 0.0472373778,
				"y": -1.0342189892,
				"z": 0.2907576734,
				"element": "C" 
			},
			{
				"x": 0.4261365896,
				"y": 0.1222411527,
				"z": 0.5392963631,
				"element": "O" 
			},
			{
				"x": -1.1186483236,
				"y": -1.626950608,
				"z": 0.9893987785,
				"element": "C" 
			},
			{
				"x": -1.8692716395,
				"y": -2.6984329752,
				"z": 0.5598898907,
				"element": "C" 
			},
			{
				"x": -3.1531657169,
				"y": -3.0558114155,
				"z": 1.654261443,
				"element": "S" 
			},
			{
				"x": -2.6849107401,
				"y": -1.7545909483,
				"z": 2.7066357312,
				"element": "C" 
			},
			{
				"x": -1.6004030622,
				"y": -1.0834210901,
				"z": 2.2251081319,
				"element": "C" 
			},
			{
				"x": 2.1560999121,
				"y": 0.085679985,
				"z": 0.4246526198,
				"element": "H" 
			},
			{
				"x": 1.4229258303,
				"y": -0.3120890754,
				"z": -1.8880184539,
				"element": "H" 
			},
			{
				"x": 1.9123985426,
				"y": -1.9692374659,
				"z": -2.3082425494,
				"element": "H" 
			},
			{
				"x": 0.5015820318,
				"y": -2.7947613036,
				"z": -0.6549094548,
				"element": "H" 
			},
			{
				"x": -1.7713392814,
				"y": -3.2664308316,
				"z": -0.3551287975,
				"element": "H" 
			},
			{
				"x": -3.2415008767,
				"y": -1.5695786912,
				"z": 3.61465477,
				"element": "H" 
			},
			{
				"x": -1.1364743181,
				"y": -0.2327853759,
				"z": 2.7076868466,
				"element": "H" 
			}
		],
		 "valence_orbital": [ 
			{
				"type": "occ",
				"energy": -0.29974,
				"method": "rhf"
			},
			{
				"type": "occ",
				"energy": -0.28656,
				"method": "rhf"
			},
			{
				"type": "occ",
				"energy": -0.27662,
				"method": "rhf"
			},
			{
				"type": "occ",
				"energy": -0.26538,
				"method": "rhf"
			},
			{
				"type": "occ",
				"energy": -0.25251,
				"method": "rhf"
			},
			{
				"type": "unocc",
				"energy": -0.06028,
				"method": "rhf"
			},
			{
				"type": "unocc",
				"energy": -0.00948,
				"method": "rhf"
			},
			{
				"type": "unocc",
				"energy": 0.00682,
				"method": "rhf"
			},
			{
				"type": "unocc",
				"energy": 0.01279,
				"method": "rhf"
			},
			{
				"type": "unocc",
				"energy": 0.05154,
				"method": "rhf"
			}
		],
		"cosmo_sigma_profile": { 
			"-0.025": 0.0,
			"-0.024": 0.0,
			"-0.023": 0.0,
			"-0.022": 0.0,
			"-0.021": 0.0,
			"-0.02": 0.0,
			"-0.019": 0.0,
			"-0.018": 0.0,
			"-0.017": 0.0548396640085,
			"-0.016": 0.851925538936,
			"-0.015": 1.34345962466,
			"-0.014": 1.77371868519,
			"-0.013": 1.20760171649,
			"-0.012": 1.68892187511,
			"-0.011": 2.25517186609,
			"-0.01": 2.77674293323,
			"-0.009": 4.62413290692,
			"-0.008": 8.92442677144,
			"-0.007": 8.32339415212,
			"-0.006": 8.43216550363,
			"-0.005": 10.4800194278,
			"-0.004": 11.3909831294,
			"-0.003": 11.1092943789,
			"-0.002": 10.9175393985,
			"-0.001": 12.8023633304,
			"0.0": 11.74664797,
			"0.001": 13.0718556491,
			"0.002": 17.3282828576,
			"0.003": 14.6317049169,
			"0.004": 8.05933843277,
			"0.005": 3.53322695868,
			"0.006": 3.42010011212,
			"0.007": 4.41548774771,
			"0.008": 3.22977573635,
			"0.009": 3.69976240776,
			"0.01": 5.92439515827,
			"0.011": 7.6443039086,
			"0.012": 7.54163718242,
			"0.013": 3.24201425756,
			"0.014": 0.22528396433,
			"0.015": 0.0,
			"0.016": 0.0,
			"0.017": 0.0,
			"0.018": 0.0,
			"0.019": 0.0,
			"0.02": 0.0,
			"0.021": 0.0,
			"0.022": 0.0,
			"0.023": 0.0,
			"0.024": 0.0,
			"0.025": 0.0
		}
	}
}
