{
	 "smiles": "ClCCS(=O)(=O)C1=CC=CC=C1", 
	 "Tm": 327.15, 
	 "num_atms": 21, 
	 "gaussian": { 
		 "optdone": 1, 
		 "sigma_profile": "yes", 
		 "theory": "DFT", 
		 "functional": "B3LYP", 
		 "basiset": "6-31G**", 
		 "properties": { 
			 "R2extent": 3396.4142, 
			 "electric_dipole_moment_norm": 4.6903914698, 
			 "electric_quadrupole_moment_norm": 13.9010263046, 
			 "total_energy": -1319.04118254, 
			 "HOMO_LUMO_gap": 0.23087, 
			 "cosmo_polarized_energy": -14.32, 
			 "cosmo_cavitation_energy": 27.88, 
			 "cosmo_dispersion_energy": -20.59, 
			 "cosmo_repulsion_energy": 1.62, 
			 "cosmo_total_nonelectrostatic_energy": 8.91, 
			 "SMD_solvation_energy": 3.59 
		},
		"coords": [
			{
				"x": -3.8889335901,
				"y": 2.1773048725,
				"z": -0.7808756416,
				"element": "Cl" 
			},
			{
				"x": -2.8677804983,
				"y": 0.7484635678,
				"z": -0.3253542319,
				"element": "C" 
			},
			{
				"x": -1.5177284981,
				"y": 0.8300836395,
				"z": -1.0166236915,
				"element": "C" 
			},
			{
				"x": -0.4493757602,
				"y": -0.6052217742,
				"z": -0.6342707928,
				"element": "S" 
			},
			{
				"x": -1.2939055345,
				"y": -1.8096575667,
				"z": -0.7081119506,
				"element": "O" 
			},
			{
				"x": 0.755903303,
				"y": -0.4564375903,
				"z": -1.4628298023,
				"element": "O" 
			},
			{
				"x": 0.0234014235,
				"y": -0.3660525621,
				"z": 1.0863499882,
				"element": "C" 
			},
			{
				"x": -0.6910021798,
				"y": -1.0264636044,
				"z": 2.0881092099,
				"element": "C" 
			},
			{
				"x": -0.3187682434,
				"y": -0.8344253978,
				"z": 3.4196540015,
				"element": "C" 
			},
			{
				"x": 0.7534851007,
				"y": 0.0040304057,
				"z": 3.7326441261,
				"element": "C" 
			},
			{
				"x": 1.4675455652,
				"y": 0.648426778,
				"z": 2.7184757081,
				"element": "C" 
			},
			{
				"x": 1.1074161804,
				"y": 0.4636036118,
				"z": 1.3838848709,
				"element": "C" 
			},
			{
				"x": -2.7719090263,
				"y": 0.7684538624,
				"z": 0.7607962497,
				"element": "H" 
			},
			{
				"x": -3.4096951356,
				"y": -0.1467957172,
				"z": -0.6271477282,
				"element": "H" 
			},
			{
				"x": -0.9610378917,
				"y": 1.7288796219,
				"z": -0.7416522453,
				"element": "H" 
			},
			{
				"x": -1.620420918,
				"y": 0.799620597,
				"z": -2.1049635894,
				"element": "H" 
			},
			{
				"x": -1.5038939575,
				"y": -1.6921988597,
				"z": 1.8184501575,
				"element": "H" 
			},
			{
				"x": -0.860867514,
				"y": -1.3447510073,
				"z": 4.2098675328,
				"element": "H" 
			},
			{
				"x": 1.0399991912,
				"y": 0.1494715558,
				"z": 4.7700173303,
				"element": "H" 
			},
			{
				"x": 2.3098805008,
				"y": 1.2870168444,
				"z": 2.9662243751,
				"element": "H" 
			},
			{
				"x": 1.6668874826,
				"y": 0.9325487228,
				"z": 0.5811561236,
				"element": "H" 
			}
		],
		 "valence_orbital": [ 
			{
				"type": "occ",
				"energy": -0.3091,
				"method": "rhf"
			},
			{
				"type": "occ",
				"energy": -0.30613,
				"method": "rhf"
			},
			{
				"type": "occ",
				"energy": -0.29064,
				"method": "rhf"
			},
			{
				"type": "occ",
				"energy": -0.28353,
				"method": "rhf"
			},
			{
				"type": "occ",
				"energy": -0.28071,
				"method": "rhf"
			},
			{
				"type": "unocc",
				"energy": -0.04984,
				"method": "rhf"
			},
			{
				"type": "unocc",
				"energy": -0.03248,
				"method": "rhf"
			},
			{
				"type": "unocc",
				"energy": 6e-05,
				"method": "rhf"
			},
			{
				"type": "unocc",
				"energy": 0.05315,
				"method": "rhf"
			},
			{
				"type": "unocc",
				"energy": 0.072,
				"method": "rhf"
			}
		],
		"cosmo_sigma_profile": { 
			"-0.025": 0.0,
			"-0.024": 0.0,
			"-0.023": 0.0,
			"-0.022": 0.0,
			"-0.021": 0.0,
			"-0.02": 0.0,
			"-0.019": 0.0,
			"-0.018": 0.0,
			"-0.017": 0.0,
			"-0.016": 0.0,
			"-0.015": 0.0,
			"-0.014": 0.0,
			"-0.013": 0.0,
			"-0.012": 0.0,
			"-0.011": 0.0,
			"-0.01": 0.317690001964,
			"-0.009": 3.12803866497,
			"-0.008": 6.18394871176,
			"-0.007": 15.6489403291,
			"-0.006": 20.9823979713,
			"-0.005": 18.7750027369,
			"-0.004": 12.7267127007,
			"-0.003": 10.6644213264,
			"-0.002": 10.0005647549,
			"-0.001": 11.418792568,
			"0.0": 12.4311386781,
			"0.001": 13.5835388667,
			"0.002": 15.9226678361,
			"0.003": 16.1001802741,
			"0.004": 8.36629242397,
			"0.005": 10.091127198,
			"0.006": 9.51091698542,
			"0.007": 2.74495519758,
			"0.008": 3.01816832671,
			"0.009": 3.43685267665,
			"0.01": 5.6438282279,
			"0.011": 8.92101462614,
			"0.012": 4.97233434513,
			"0.013": 0.00221425639099,
			"0.014": 0.0,
			"0.015": 0.0,
			"0.016": 0.0,
			"0.017": 0.0,
			"0.018": 0.0,
			"0.019": 0.0,
			"0.02": 0.0,
			"0.021": 0.0,
			"0.022": 0.0,
			"0.023": 0.0,
			"0.024": 0.0,
			"0.025": 0.0
		}
	}
}
