{
	 "smiles": "CCOC(=O)C1CCN(CC1)C1=CC=C(C=C1)C#N", 
	 "Tm": 340.65, 
	 "num_atms": 37, 
	 "gaussian": { 
		 "optdone": 1, 
		 "sigma_profile": "yes", 
		 "theory": "DFT", 
		 "functional": "B3LYP", 
		 "basiset": "6-31G**", 
		 "properties": { 
			 "R2extent": 8632.9523, 
			 "electric_dipole_moment_norm": 8.63459775438, 
			 "electric_quadrupole_moment_norm": 45.7104167917, 
			 "total_energy": -842.39858912, 
			 "HOMO_LUMO_gap": 0.1784, 
			 "cosmo_polarized_energy": -16.45, 
			 "cosmo_cavitation_energy": 40.06, 
			 "cosmo_dispersion_energy": -27.95, 
			 "cosmo_repulsion_energy": 2.15, 
			 "cosmo_total_nonelectrostatic_energy": 14.26, 
			 "SMD_solvation_energy": 7.8 
		},
		"coords": [
			{
				"x": 5.0901178169,
				"y": 0.2091248677,
				"z": -1.1401352468,
				"element": "C" 
			},
			{
				"x": 4.9591145913,
				"y": -0.9237840424,
				"z": -0.13406138,
				"element": "C" 
			},
			{
				"x": 3.7083468237,
				"y": -0.8400722818,
				"z": 0.5956008646,
				"element": "O" 
			},
			{
				"x": 2.6255761547,
				"y": -1.3979415837,
				"z": 0.0121906392,
				"element": "C" 
			},
			{
				"x": 2.6489907982,
				"y": -1.9653739991,
				"z": -1.0604875345,
				"element": "O" 
			},
			{
				"x": 1.3889023861,
				"y": -1.1954511068,
				"z": 0.8787542048,
				"element": "C" 
			},
			{
				"x": 0.1713503106,
				"y": -1.9750799632,
				"z": 0.3393231067,
				"element": "C" 
			},
			{
				"x": -0.7658447964,
				"y": -1.1004378547,
				"z": -0.4989761312,
				"element": "C" 
			},
			{
				"x": -1.2717910532,
				"y": 0.0274928674,
				"z": 0.2895970106,
				"element": "N" 
			},
			{
				"x": -0.3998601616,
				"y": 0.5626047993,
				"z": 1.3363180805,
				"element": "C" 
			},
			{
				"x": 1.0712052687,
				"y": 0.3199116391,
				"z": 0.9900876856,
				"element": "C" 
			},
			{
				"x": -2.5160608594,
				"y": 0.5720217208,
				"z": 0.053514075,
				"element": "C" 
			},
			{
				"x": -3.2324837972,
				"y": 0.2890470947,
				"z": -1.1372538023,
				"element": "C" 
			},
			{
				"x": -4.4843711317,
				"y": 0.8361703662,
				"z": -1.3677609982,
				"element": "C" 
			},
			{
				"x": -5.0828629035,
				"y": 1.6965453756,
				"z": -0.4299697003,
				"element": "C" 
			},
			{
				"x": -4.379904613,
				"y": 1.9876765173,
				"z": 0.7524139388,
				"element": "C" 
			},
			{
				"x": -3.1300931012,
				"y": 1.4394022147,
				"z": 0.9926324158,
				"element": "C" 
			},
			{
				"x": -6.3726827604,
				"y": 2.2615393668,
				"z": -0.6727605391,
				"element": "C" 
			},
			{
				"x": -7.4241016294,
				"y": 2.7223307632,
				"z": -0.8702617459,
				"element": "N" 
			},
			{
				"x": 4.9905438781,
				"y": 1.1814680991,
				"z": -0.648683305,
				"element": "H" 
			},
			{
				"x": 4.3272312817,
				"y": 0.1234314005,
				"z": -1.9178660209,
				"element": "H" 
			},
			{
				"x": 6.0733843486,
				"y": 0.1668624802,
				"z": -1.6201327446,
				"element": "H" 
			},
			{
				"x": 5.0133263136,
				"y": -1.8976232405,
				"z": -0.6261541351,
				"element": "H" 
			},
			{
				"x": 5.7273100064,
				"y": -0.8640756306,
				"z": 0.6403554547,
				"element": "H" 
			},
			{
				"x": 1.6447880302,
				"y": -1.563475077,
				"z": 1.879309686,
				"element": "H" 
			},
			{
				"x": -0.3976298978,
				"y": -2.3862453829,
				"z": 1.1797943776,
				"element": "H" 
			},
			{
				"x": 0.5108755554,
				"y": -2.813336733,
				"z": -0.2738718204,
				"element": "H" 
			},
			{
				"x": -0.2472365266,
				"y": -0.76108393,
				"z": -1.4087160012,
				"element": "H" 
			},
			{
				"x": -1.6152898622,
				"y": -1.7086370014,
				"z": -0.8212574344,
				"element": "H" 
			},
			{
				"x": -0.5676109114,
				"y": 1.6412060157,
				"z": 1.4163440377,
				"element": "H" 
			},
			{
				"x": -0.6331370527,
				"y": 0.1275913713,
				"z": 2.3225446592,
				"element": "H" 
			},
			{
				"x": 1.284768401,
				"y": 0.8192234347,
				"z": 0.0376360681,
				"element": "H" 
			},
			{
				"x": 1.7115527811,
				"y": 0.787722211,
				"z": 1.7421152329,
				"element": "H" 
			},
			{
				"x": -2.7922561408,
				"y": -0.3383566109,
				"z": -1.9023859583,
				"element": "H" 
			},
			{
				"x": -5.0061988755,
				"y": 0.6089075388,
				"z": -2.2918765258,
				"element": "H" 
			},
			{
				"x": -4.8295402575,
				"y": 2.6414539069,
				"z": 1.4929425981,
				"element": "H" 
			},
			{
				"x": -2.639128415,
				"y": 1.6616403869,
				"z": 1.9321368881,
				"element": "H" 
			}
		],
		 "valence_orbital": [ 
			{
				"type": "occ",
				"energy": -0.3102,
				"method": "rhf"
			},
			{
				"type": "occ",
				"energy": -0.28409,
				"method": "rhf"
			},
			{
				"type": "occ",
				"energy": -0.28068,
				"method": "rhf"
			},
			{
				"type": "occ",
				"energy": -0.26304,
				"method": "rhf"
			},
			{
				"type": "occ",
				"energy": -0.2026,
				"method": "rhf"
			},
			{
				"type": "unocc",
				"energy": -0.0242,
				"method": "rhf"
			},
			{
				"type": "unocc",
				"energy": -0.0116,
				"method": "rhf"
			},
			{
				"type": "unocc",
				"energy": -0.00037,
				"method": "rhf"
			},
			{
				"type": "unocc",
				"energy": 0.05368,
				"method": "rhf"
			},
			{
				"type": "unocc",
				"energy": 0.06354,
				"method": "rhf"
			}
		],
		"cosmo_sigma_profile": { 
			"-0.025": 0.0,
			"-0.024": 0.0,
			"-0.023": 0.0,
			"-0.022": 0.0,
			"-0.021": 0.0,
			"-0.02": 0.0,
			"-0.019": 0.0,
			"-0.018": 0.0,
			"-0.017": 0.0,
			"-0.016": 0.0,
			"-0.015": 0.0,
			"-0.014": 0.0,
			"-0.013": 0.0,
			"-0.012": 0.0,
			"-0.011": 0.0,
			"-0.01": 0.0,
			"-0.009": 0.0,
			"-0.008": 0.128894695491,
			"-0.007": 4.57492682835,
			"-0.006": 12.1352363434,
			"-0.005": 27.2732079974,
			"-0.004": 41.7793907838,
			"-0.003": 39.4715111463,
			"-0.002": 29.6534136258,
			"-0.001": 23.8898109433,
			"0.0": 22.5527264666,
			"0.001": 16.7771253544,
			"0.002": 15.3326029302,
			"0.003": 15.3629883677,
			"0.004": 16.60195164,
			"0.005": 7.86928213721,
			"0.006": 5.70299198063,
			"0.007": 5.04305617848,
			"0.008": 5.1214194083,
			"0.009": 5.28355029224,
			"0.01": 5.5307925037,
			"0.011": 5.4661868886,
			"0.012": 6.54762318978,
			"0.013": 2.82254527069,
			"0.014": 1.52428609215,
			"0.015": 0.0425798093178,
			"0.016": 0.0,
			"0.017": 0.0,
			"0.018": 0.0,
			"0.019": 0.0,
			"0.02": 0.0,
			"0.021": 0.0,
			"0.022": 0.0,
			"0.023": 0.0,
			"0.024": 0.0,
			"0.025": 0.0
		}
	}
}
