{
	 "smiles": "CC(C)(C)C1=NNC(=C1)C(O)=O", 
	 "Tm": 469.15, 
	 "num_atms": 24, 
	 "gaussian": { 
		 "optdone": 1, 
		 "sigma_profile": "yes", 
		 "theory": "DFT", 
		 "functional": "B3LYP", 
		 "basiset": "6-31G**", 
		 "properties": { 
			 "R2extent": 2680.4229, 
			 "electric_dipole_moment_norm": 1.39890873541, 
			 "electric_quadrupole_moment_norm": 16.3182418364, 
			 "total_energy": -572.045945523, 
			 "HOMO_LUMO_gap": 0.20802, 
			 "cosmo_polarized_energy": -11.73, 
			 "cosmo_cavitation_energy": 27.48, 
			 "cosmo_dispersion_energy": -19.6, 
			 "cosmo_repulsion_energy": 1.58, 
			 "cosmo_total_nonelectrostatic_energy": 9.46, 
			 "SMD_solvation_energy": 5.41 
		},
		"coords": [
			{
				"x": -2.2957456193,
				"y": -0.682092991,
				"z": 1.0311702884,
				"element": "C" 
			},
			{
				"x": -1.6123511682,
				"y": -0.7438227893,
				"z": -0.3464317147,
				"element": "C" 
			},
			{
				"x": -1.7379462287,
				"y": -2.1731909157,
				"z": -0.9204418262,
				"element": "C" 
			},
			{
				"x": -2.2966715784,
				"y": 0.2553621806,
				"z": -1.3064556619,
				"element": "C" 
			},
			{
				"x": -0.1400258167,
				"y": -0.3850706285,
				"z": -0.2202828234,
				"element": "C" 
			},
			{
				"x": 0.6440174411,
				"y": -0.3792008788,
				"z": -1.3134443617,
				"element": "N" 
			},
			{
				"x": 1.8584357606,
				"y": -0.0301972689,
				"z": -0.8766892296,
				"element": "N" 
			},
			{
				"x": 1.8953633589,
				"y": 0.1928185887,
				"z": 0.4676024048,
				"element": "C" 
			},
			{
				"x": 0.6049335097,
				"y": -0.0307879621,
				"z": 0.9261334867,
				"element": "C" 
			},
			{
				"x": 3.1052879728,
				"y": 0.5862940771,
				"z": 1.1900086056,
				"element": "C" 
			},
			{
				"x": 4.1741224868,
				"y": 0.6980799987,
				"z": 0.3511952633,
				"element": "O" 
			},
			{
				"x": 3.1767677674,
				"y": 0.7931195159,
				"z": 2.3827003389,
				"element": "O" 
			},
			{
				"x": -3.3551471135,
				"y": -0.9411597669,
				"z": 0.9361984407,
				"element": "H" 
			},
			{
				"x": -2.2361971665,
				"y": 0.3217669835,
				"z": 1.4653194859,
				"element": "H" 
			},
			{
				"x": -1.842792301,
				"y": -1.3866185257,
				"z": 1.7370323911,
				"element": "H" 
			},
			{
				"x": -1.2439918988,
				"y": -2.2445009201,
				"z": -1.8931546854,
				"element": "H" 
			},
			{
				"x": -1.2759917095,
				"y": -2.9075226122,
				"z": -0.251931852,
				"element": "H" 
			},
			{
				"x": -2.7925307081,
				"y": -2.4433887968,
				"z": -1.0455302763,
				"element": "H" 
			},
			{
				"x": -1.8156206892,
				"y": 0.2402905221,
				"z": -2.2880948628,
				"element": "H" 
			},
			{
				"x": -3.3545354418,
				"y": -0.0005891413,
				"z": -1.4337660533,
				"element": "H" 
			},
			{
				"x": -2.2388033873,
				"y": 1.2774317755,
				"z": -0.9171306256,
				"element": "H" 
			},
			{
				"x": 2.6314150388,
				"y": 0.0446181323,
				"z": -1.5211524678,
				"element": "H" 
			},
			{
				"x": 0.2751674186,
				"y": 0.0566110552,
				"z": 1.9490593929,
				"element": "H" 
			},
			{
				"x": 4.9267400722,
				"y": 0.9597503676,
				"z": 0.9064863422,
				"element": "H" 
			}
		],
		 "valence_orbital": [ 
			{
				"type": "occ",
				"energy": -0.3295,
				"method": "rhf"
			},
			{
				"type": "occ",
				"energy": -0.30054,
				"method": "rhf"
			},
			{
				"type": "occ",
				"energy": -0.28108,
				"method": "rhf"
			},
			{
				"type": "occ",
				"energy": -0.26099,
				"method": "rhf"
			},
			{
				"type": "occ",
				"energy": -0.25333,
				"method": "rhf"
			},
			{
				"type": "unocc",
				"energy": -0.04531,
				"method": "rhf"
			},
			{
				"type": "unocc",
				"energy": 0.04269,
				"method": "rhf"
			},
			{
				"type": "unocc",
				"energy": 0.06476,
				"method": "rhf"
			},
			{
				"type": "unocc",
				"energy": 0.08946,
				"method": "rhf"
			},
			{
				"type": "unocc",
				"energy": 0.09777,
				"method": "rhf"
			}
		],
		"cosmo_sigma_profile": { 
			"-0.025": 0.0,
			"-0.024": 0.0,
			"-0.023": 0.0,
			"-0.022": 0.0,
			"-0.021": 0.0,
			"-0.02": 0.0,
			"-0.019": 0.151003444616,
			"-0.018": 1.07350643906,
			"-0.017": 1.08012505772,
			"-0.016": 1.48646808301,
			"-0.015": 1.68149078467,
			"-0.014": 2.06393122404,
			"-0.013": 1.93443533851,
			"-0.012": 0.286517154126,
			"-0.011": 1.68570783629,
			"-0.01": 1.66930927796,
			"-0.009": 0.785023669087,
			"-0.008": 1.57390528676,
			"-0.007": 2.87651664254,
			"-0.006": 3.39330803979,
			"-0.005": 1.97979569788,
			"-0.004": 4.92495373878,
			"-0.003": 20.019599602,
			"-0.002": 27.7619771202,
			"-0.001": 21.516578015,
			"0.0": 21.5963138106,
			"0.001": 28.278027876,
			"0.002": 16.86785026,
			"0.003": 10.0369023291,
			"0.004": 7.3746319916,
			"0.005": 4.248197307,
			"0.006": 5.67437169672,
			"0.007": 4.14649696062,
			"0.008": 2.42151410435,
			"0.009": 2.11094322902,
			"0.01": 3.4829830181,
			"0.011": 5.83410938889,
			"0.012": 3.84386624066,
			"0.013": 0.611784689301,
			"0.014": 0.671680989208,
			"0.015": 0.0985859178264,
			"0.016": 0.0,
			"0.017": 0.0,
			"0.018": 0.0,
			"0.019": 0.0,
			"0.02": 0.0,
			"0.021": 0.0,
			"0.022": 0.0,
			"0.023": 0.0,
			"0.024": 0.0,
			"0.025": 0.0
		}
	}
}
