{
	 "smiles": "CN1C=NC=C1C(O)=O", 
	 "Tm": 521.15, 
	 "num_atms": 15, 
	 "gaussian": { 
		 "optdone": 1, 
		 "sigma_profile": "yes", 
		 "theory": "DFT", 
		 "functional": "B3LYP", 
		 "basiset": "6-31G**", 
		 "properties": { 
			 "R2extent": 1667.1901, 
			 "electric_dipole_moment_norm": 5.95359180579, 
			 "electric_quadrupole_moment_norm": 11.0414875357, 
			 "total_energy": -454.090162111, 
			 "HOMO_LUMO_gap": 0.2082, 
			 "cosmo_polarized_energy": -20.34, 
			 "cosmo_cavitation_energy": 19.44, 
			 "cosmo_dispersion_energy": -14.4, 
			 "cosmo_repulsion_energy": 1.16, 
			 "cosmo_total_nonelectrostatic_energy": 6.2, 
			 "SMD_solvation_energy": 3.33 
		},
		"coords": [
			{
				"x": 2.0847903311,
				"y": 1.283159871,
				"z": -0.8407032659,
				"element": "C" 
			},
			{
				"x": 2.138218722,
				"y": 0.645112075,
				"z": 0.4676723436,
				"element": "N" 
			},
			{
				"x": 3.0395895995,
				"y": 0.947594125,
				"z": 1.4454478342,
				"element": "C" 
			},
			{
				"x": 2.8307598353,
				"y": 0.2814717652,
				"z": 2.5653308882,
				"element": "N" 
			},
			{
				"x": 1.7289618745,
				"y": -0.4833351591,
				"z": 2.3164688792,
				"element": "C" 
			},
			{
				"x": 1.2681607713,
				"y": -0.2951971882,
				"z": 1.0258808137,
				"element": "C" 
			},
			{
				"x": 0.0998261808,
				"y": -0.9451090695,
				"z": 0.4089250418,
				"element": "C" 
			},
			{
				"x": 0.0269962703,
				"y": -0.9596298799,
				"z": -0.9587921227,
				"element": "O" 
			},
			{
				"x": -0.7799615477,
				"y": -1.4550806258,
				"z": 1.060560199,
				"element": "O" 
			},
			{
				"x": 2.6924434823,
				"y": 2.1889911181,
				"z": -0.8122914303,
				"element": "H" 
			},
			{
				"x": 1.0586313348,
				"y": 1.5591663006,
				"z": -1.0912453711,
				"element": "H" 
			},
			{
				"x": 2.4908882772,
				"y": 0.6349148998,
				"z": -1.6275516462,
				"element": "H" 
			},
			{
				"x": 3.8235433325,
				"y": 1.676389526,
				"z": 1.2830743787,
				"element": "H" 
			},
			{
				"x": 1.3044625359,
				"y": -1.1472180958,
				"z": 3.0561939513,
				"element": "H" 
			},
			{
				"x": 0.890089,
				"y": -0.7727296621,
				"z": -1.3504704934,
				"element": "H" 
			}
		],
		 "valence_orbital": [ 
			{
				"type": "occ",
				"energy": -0.3227,
				"method": "rhf"
			},
			{
				"type": "occ",
				"energy": -0.29327,
				"method": "rhf"
			},
			{
				"type": "occ",
				"energy": -0.28624,
				"method": "rhf"
			},
			{
				"type": "occ",
				"energy": -0.27875,
				"method": "rhf"
			},
			{
				"type": "occ",
				"energy": -0.24796,
				"method": "rhf"
			},
			{
				"type": "unocc",
				"energy": -0.03976,
				"method": "rhf"
			},
			{
				"type": "unocc",
				"energy": 0.03044,
				"method": "rhf"
			},
			{
				"type": "unocc",
				"energy": 0.03292,
				"method": "rhf"
			},
			{
				"type": "unocc",
				"energy": 0.08502,
				"method": "rhf"
			},
			{
				"type": "unocc",
				"energy": 0.10002,
				"method": "rhf"
			}
		],
		"cosmo_sigma_profile": { 
			"-0.025": 0.0,
			"-0.024": 0.0,
			"-0.023": 0.0,
			"-0.022": 0.0,
			"-0.021": 0.0,
			"-0.02": 0.0,
			"-0.019": 0.150014492379,
			"-0.018": 1.04214061302,
			"-0.017": 1.23299746126,
			"-0.016": 0.793517024789,
			"-0.015": 0.909977479949,
			"-0.014": 0.955642850583,
			"-0.013": 1.0463085931,
			"-0.012": 1.08753145043,
			"-0.011": 0.680554506739,
			"-0.01": 4.44799518957,
			"-0.009": 3.93334816395,
			"-0.008": 7.4919847722,
			"-0.007": 10.7827828883,
			"-0.006": 8.55121632186,
			"-0.005": 10.7576124031,
			"-0.004": 8.34748247356,
			"-0.003": 6.7625873041,
			"-0.002": 4.84538010155,
			"-0.001": 6.16407057969,
			"0.0": 7.03975560898,
			"0.001": 5.78747858315,
			"0.002": 5.46591385814,
			"0.003": 6.10242672508,
			"0.004": 5.10478771156,
			"0.005": 4.73880485885,
			"0.006": 3.27935805225,
			"0.007": 3.46101454577,
			"0.008": 4.89987824419,
			"0.009": 3.93732664289,
			"0.01": 5.60376665453,
			"0.011": 7.063964796,
			"0.012": 6.49995753433,
			"0.013": 2.45930479476,
			"0.014": 1.29943380079,
			"0.015": 1.13588639303,
			"0.016": 0.883740148903,
			"0.017": 0.723191567645,
			"0.018": 0.0,
			"0.019": 0.0,
			"0.02": 0.0,
			"0.021": 0.0,
			"0.022": 0.0,
			"0.023": 0.0,
			"0.024": 0.0,
			"0.025": 0.0
		}
	}
}
