{
	 "smiles": "CC(C)=CCC(CC=C(C)C)(C#N)C(O)=O", 
	 "Tm": 343.65, 
	 "num_atms": 35, 
	 "gaussian": { 
		 "optdone": 1, 
		 "sigma_profile": "yes", 
		 "theory": "DFT", 
		 "functional": "B3LYP", 
		 "basiset": "6-31G**", 
		 "properties": { 
			 "R2extent": 5146.0264, 
			 "electric_dipole_moment_norm": 3.00043220887, 
			 "electric_quadrupole_moment_norm": 19.9574853093, 
			 "total_energy": -712.011020441, 
			 "HOMO_LUMO_gap": 0.2164, 
			 "cosmo_polarized_energy": -14.11, 
			 "cosmo_cavitation_energy": 38.44, 
			 "cosmo_dispersion_energy": -24.8, 
			 "cosmo_repulsion_energy": 2.01, 
			 "cosmo_total_nonelectrostatic_energy": 15.64, 
			 "SMD_solvation_energy": 9.02 
		},
		"coords": [
			{
				"x": -1.2327007128,
				"y": -1.6068005719,
				"z": 2.5431922649,
				"element": "C" 
			},
			{
				"x": 0.0482611669,
				"y": -2.1296172679,
				"z": 1.942093805,
				"element": "C" 
			},
			{
				"x": 0.4736593461,
				"y": -3.4823847448,
				"z": 2.4607544456,
				"element": "C" 
			},
			{
				"x": 0.7920558642,
				"y": -1.4888447845,
				"z": 1.0259090219,
				"element": "C" 
			},
			{
				"x": 0.5247935203,
				"y": -0.1464314587,
				"z": 0.4003836886,
				"element": "C" 
			},
			{
				"x": 1.453295805,
				"y": 0.9956586099,
				"z": 0.9127740312,
				"element": "C" 
			},
			{
				"x": 1.0838712703,
				"y": 2.3767200385,
				"z": 0.2385713088,
				"element": "C" 
			},
			{
				"x": 1.1625184678,
				"y": 2.3676117205,
				"z": -1.2626215049,
				"element": "C" 
			},
			{
				"x": 0.1858462833,
				"y": 2.6591474846,
				"z": -2.1377547841,
				"element": "C" 
			},
			{
				"x": 0.4595076107,
				"y": 2.6347646474,
				"z": -3.6227246029,
				"element": "C" 
			},
			{
				"x": -1.2275324183,
				"y": 3.0406808091,
				"z": -1.7729935715,
				"element": "C" 
			},
			{
				"x": 1.2873988496,
				"y": 1.1566157662,
				"z": 2.3667353342,
				"element": "C" 
			},
			{
				"x": 1.0900240045,
				"y": 1.3007610668,
				"z": 3.5015521239,
				"element": "N" 
			},
			{
				"x": 2.9192805956,
				"y": 0.6843234631,
				"z": 0.5672134604,
				"element": "C" 
			},
			{
				"x": 3.7833293262,
				"y": 1.3567253726,
				"z": 1.3534473888,
				"element": "O" 
			},
			{
				"x": 3.2709518199,
				"y": -0.0263050246,
				"z": -0.3469677196,
				"element": "O" 
			},
			{
				"x": -2.0474444194,
				"y": -2.3285790212,
				"z": 2.4013802905,
				"element": "H" 
			},
			{
				"x": -1.551807567,
				"y": -0.6495450724,
				"z": 2.1279143294,
				"element": "H" 
			},
			{
				"x": -1.1158632934,
				"y": -1.4714203409,
				"z": 3.62545842,
				"element": "H" 
			},
			{
				"x": -0.2969706513,
				"y": -4.2395753893,
				"z": 2.2642406103,
				"element": "H" 
			},
			{
				"x": 0.6139300169,
				"y": -3.4570928411,
				"z": 3.5492584873,
				"element": "H" 
			},
			{
				"x": 1.4077318219,
				"y": -3.8204305844,
				"z": 2.0041957013,
				"element": "H" 
			},
			{
				"x": 1.7026441243,
				"y": -1.9746842369,
				"z": 0.6800418911,
				"element": "H" 
			},
			{
				"x": 0.6810437471,
				"y": -0.2026355005,
				"z": -0.6810300327,
				"element": "H" 
			},
			{
				"x": -0.5062286262,
				"y": 0.1791028045,
				"z": 0.5624338208,
				"element": "H" 
			},
			{
				"x": 1.7704891988,
				"y": 3.1281071909,
				"z": 0.6481004867,
				"element": "H" 
			},
			{
				"x": 0.0842637251,
				"y": 2.6412160325,
				"z": 0.5906307675,
				"element": "H" 
			},
			{
				"x": 2.1377611213,
				"y": 2.1094812076,
				"z": -1.6735511118,
				"element": "H" 
			},
			{
				"x": 0.2708941117,
				"y": 3.6182135656,
				"z": -4.0730093898,
				"element": "H" 
			},
			{
				"x": 1.4913085276,
				"y": 2.3503521818,
				"z": -3.8447680873,
				"element": "H" 
			},
			{
				"x": -0.2074261889,
				"y": 1.9272800056,
				"z": -4.1324470747,
				"element": "H" 
			},
			{
				"x": -1.4232125445,
				"y": 3.0314564002,
				"z": -0.6994147961,
				"element": "H" 
			},
			{
				"x": -1.9426782616,
				"y": 2.3593385057,
				"z": -2.2512393178,
				"element": "H" 
			},
			{
				"x": -1.4615683652,
				"y": 4.0459698846,
				"z": -2.1464832575,
				"element": "H" 
			},
			{
				"x": 4.6763727234,
				"y": 1.1337200812,
				"z": 1.0398235725,
				"element": "H" 
			}
		],
		 "valence_orbital": [ 
			{
				"type": "occ",
				"energy": -0.32788,
				"method": "rhf"
			},
			{
				"type": "occ",
				"energy": -0.3171,
				"method": "rhf"
			},
			{
				"type": "occ",
				"energy": -0.28702,
				"method": "rhf"
			},
			{
				"type": "occ",
				"energy": -0.24883,
				"method": "rhf"
			},
			{
				"type": "occ",
				"energy": -0.23209,
				"method": "rhf"
			},
			{
				"type": "unocc",
				"energy": -0.01569,
				"method": "rhf"
			},
			{
				"type": "unocc",
				"energy": 0.0114,
				"method": "rhf"
			},
			{
				"type": "unocc",
				"energy": 0.02543,
				"method": "rhf"
			},
			{
				"type": "unocc",
				"energy": 0.04077,
				"method": "rhf"
			},
			{
				"type": "unocc",
				"energy": 0.04859,
				"method": "rhf"
			}
		],
		"cosmo_sigma_profile": { 
			"-0.025": 0.0,
			"-0.024": 0.0,
			"-0.023": 0.0,
			"-0.022": 0.0,
			"-0.021": 0.0,
			"-0.02": 0.057780577177,
			"-0.019": 0.867567450959,
			"-0.018": 0.870240301251,
			"-0.017": 0.832175594604,
			"-0.016": 0.877745469298,
			"-0.015": 0.590488869098,
			"-0.014": 0.686285162189,
			"-0.013": 1.24636660045,
			"-0.012": 0.909604823736,
			"-0.011": 0.447038389938,
			"-0.01": 0.367784905226,
			"-0.009": 0.650115063815,
			"-0.008": 1.058547555,
			"-0.007": 3.10285684199,
			"-0.006": 5.77033202559,
			"-0.005": 8.03655283419,
			"-0.004": 23.3691006946,
			"-0.003": 37.2224297925,
			"-0.002": 33.344398188,
			"-0.001": 30.8310850436,
			"0.0": 39.1794547976,
			"0.001": 25.2999504325,
			"0.002": 13.787982357,
			"0.003": 13.3586850353,
			"0.004": 8.47451311962,
			"0.005": 9.58662060525,
			"0.006": 7.6529356348,
			"0.007": 6.29621423435,
			"0.008": 6.07858650298,
			"0.009": 4.63155909893,
			"0.01": 5.39060793837,
			"0.011": 6.17611253395,
			"0.012": 2.48194635668,
			"0.013": 1.58862130866,
			"0.014": 0.0503237587569,
			"0.015": 0.0,
			"0.016": 0.0,
			"0.017": 0.0,
			"0.018": 0.0,
			"0.019": 0.0,
			"0.02": 0.0,
			"0.021": 0.0,
			"0.022": 0.0,
			"0.023": 0.0,
			"0.024": 0.0,
			"0.025": 0.0
		}
	}
}
