{
	 "smiles": "N#CCC1=CC=C(NC2CCCCC2)C=C1", 
	 "Tm": 331.15, 
	 "num_atms": 34, 
	 "gaussian": { 
		 "optdone": 1, 
		 "sigma_profile": "yes", 
		 "theory": "DFT", 
		 "functional": "B3LYP", 
		 "basiset": "6-31G**", 
		 "properties": { 
			 "R2extent": 5735.487, 
			 "electric_dipole_moment_norm": 5.25722932732, 
			 "electric_quadrupole_moment_norm": 24.4042711516, 
			 "total_energy": -653.836107279, 
			 "HOMO_LUMO_gap": 0.19177, 
			 "cosmo_polarized_energy": -13.02, 
			 "cosmo_cavitation_energy": 36.22, 
			 "cosmo_dispersion_energy": -25.42, 
			 "cosmo_repulsion_energy": 2.0, 
			 "cosmo_total_nonelectrostatic_energy": 12.81, 
			 "SMD_solvation_energy": 5.91 
		},
		"coords": [
			{
				"x": 3.9688749097,
				"y": -1.4877482363,
				"z": 3.9578382959,
				"element": "N" 
			},
			{
				"x": 3.4588203209,
				"y": -2.1104443136,
				"z": 3.1212184938,
				"element": "C" 
			},
			{
				"x": 2.8015788216,
				"y": -2.8914432642,
				"z": 2.0615620829,
				"element": "C" 
			},
			{
				"x": 1.6425587483,
				"y": -2.1566469876,
				"z": 1.4063566945,
				"element": "C" 
			},
			{
				"x": 1.8163338001,
				"y": -1.4560776072,
				"z": 0.2104982738,
				"element": "C" 
			},
			{
				"x": 0.7661363345,
				"y": -0.7657103046,
				"z": -0.3909289495,
				"element": "C" 
			},
			{
				"x": -0.5145772548,
				"y": -0.7582277621,
				"z": 0.1955349968,
				"element": "C" 
			},
			{
				"x": -1.6100049479,
				"y": -0.1381969238,
				"z": -0.3899824455,
				"element": "N" 
			},
			{
				"x": -1.5144633775,
				"y": 0.8905898826,
				"z": -1.4207902254,
				"element": "C" 
			},
			{
				"x": -2.8926497458,
				"y": 1.1209681965,
				"z": -2.0555886483,
				"element": "C" 
			},
			{
				"x": -2.7896290686,
				"y": 2.0197239799,
				"z": -3.3116895284,
				"element": "C" 
			},
			{
				"x": -1.6121400525,
				"y": 3.019841255,
				"z": -3.2302860323,
				"element": "C" 
			},
			{
				"x": -1.3487715324,
				"y": 3.4446962959,
				"z": -1.7795979244,
				"element": "C" 
			},
			{
				"x": -0.9326838746,
				"y": 2.2366136419,
				"z": -0.9044416958,
				"element": "C" 
			},
			{
				"x": -0.6858945929,
				"y": -1.4653865606,
				"z": 1.4052164607,
				"element": "C" 
			},
			{
				"x": 0.3704214315,
				"y": -2.1469019405,
				"z": 1.9933424804,
				"element": "C" 
			},
			{
				"x": 2.4626030332,
				"y": -3.8358093504,
				"z": 2.5044000263,
				"element": "H" 
			},
			{
				"x": 3.5612618739,
				"y": -3.1518472978,
				"z": 1.3157372942,
				"element": "H" 
			},
			{
				"x": 2.7937641392,
				"y": -1.4408001207,
				"z": -0.2661060834,
				"element": "H" 
			},
			{
				"x": 0.9477142247,
				"y": -0.2352870542,
				"z": -1.3187192693,
				"element": "H" 
			},
			{
				"x": -2.3930211549,
				"y": -0.0113835785,
				"z": 0.2385691115,
				"element": "H" 
			},
			{
				"x": -0.8590648496,
				"y": 0.4928364927,
				"z": -2.2054136109,
				"element": "H" 
			},
			{
				"x": -3.3494986842,
				"y": 0.157773484,
				"z": -2.3043856831,
				"element": "H" 
			},
			{
				"x": -3.5452064146,
				"y": 1.5934783394,
				"z": -1.3072072437,
				"element": "H" 
			},
			{
				"x": -3.7322180373,
				"y": 2.5645014423,
				"z": -3.4379515349,
				"element": "H" 
			},
			{
				"x": -2.6754830135,
				"y": 1.3947082625,
				"z": -4.2048949981,
				"element": "H" 
			},
			{
				"x": -1.8177584201,
				"y": 3.8936798689,
				"z": -3.8581279554,
				"element": "H" 
			},
			{
				"x": -0.7024257138,
				"y": 2.5603441318,
				"z": -3.6388137754,
				"element": "H" 
			},
			{
				"x": -0.5788455149,
				"y": 4.2227500158,
				"z": -1.7376921395,
				"element": "H" 
			},
			{
				"x": -2.2622665346,
				"y": 3.8994845531,
				"z": -1.3749604386,
				"element": "H" 
			},
			{
				"x": 0.158656909,
				"y": 2.1604871921,
				"z": -0.849414798,
				"element": "H" 
			},
			{
				"x": -1.2795834388,
				"y": 2.3871067142,
				"z": 0.1251570395,
				"element": "H" 
			},
			{
				"x": -1.665648001,
				"y": -1.4800407298,
				"z": 1.8771651299,
				"element": "H" 
			},
			{
				"x": 0.2026096777,
				"y": -2.6780317166,
				"z": 2.9272965996,
				"element": "H" 
			}
		],
		 "valence_orbital": [ 
			{
				"type": "occ",
				"energy": -0.31178,
				"method": "rhf"
			},
			{
				"type": "occ",
				"energy": -0.30827,
				"method": "rhf"
			},
			{
				"type": "occ",
				"energy": -0.2888,
				"method": "rhf"
			},
			{
				"type": "occ",
				"energy": -0.25228,
				"method": "rhf"
			},
			{
				"type": "occ",
				"energy": -0.19734,
				"method": "rhf"
			},
			{
				"type": "unocc",
				"energy": -0.00557,
				"method": "rhf"
			},
			{
				"type": "unocc",
				"energy": 0.00591,
				"method": "rhf"
			},
			{
				"type": "unocc",
				"energy": 0.04976,
				"method": "rhf"
			},
			{
				"type": "unocc",
				"energy": 0.05265,
				"method": "rhf"
			},
			{
				"type": "unocc",
				"energy": 0.06827,
				"method": "rhf"
			}
		],
		"cosmo_sigma_profile": { 
			"-0.025": 0.0,
			"-0.024": 0.0,
			"-0.023": 0.0,
			"-0.022": 0.0,
			"-0.021": 0.0,
			"-0.02": 0.0,
			"-0.019": 0.0,
			"-0.018": 0.0,
			"-0.017": 0.0,
			"-0.016": 0.0,
			"-0.015": 0.0,
			"-0.014": 0.0,
			"-0.013": 0.0,
			"-0.012": 0.447163620024,
			"-0.011": 1.12644413782,
			"-0.01": 1.51014203121,
			"-0.009": 1.47533700962,
			"-0.008": 7.07221230373,
			"-0.007": 7.90694200276,
			"-0.006": 11.9242935802,
			"-0.005": 14.3381241692,
			"-0.004": 12.2824247215,
			"-0.003": 19.8952662601,
			"-0.002": 33.9651167634,
			"-0.001": 34.7770034708,
			"0.0": 28.4947227153,
			"0.001": 26.6472177277,
			"0.002": 12.7381520929,
			"0.003": 9.38869562604,
			"0.004": 9.65623277319,
			"0.005": 10.1683508516,
			"0.006": 12.9897438965,
			"0.007": 5.83347274313,
			"0.008": 4.51192768714,
			"0.009": 3.78804567266,
			"0.01": 4.46780369329,
			"0.011": 3.24303738128,
			"0.012": 2.62693902611,
			"0.013": 2.22636908556,
			"0.014": 0.770968103043,
			"0.015": 0.0,
			"0.016": 0.0,
			"0.017": 0.0,
			"0.018": 0.0,
			"0.019": 0.0,
			"0.02": 0.0,
			"0.021": 0.0,
			"0.022": 0.0,
			"0.023": 0.0,
			"0.024": 0.0,
			"0.025": 0.0
		}
	}
}
