{
	 "smiles": "OCC1=C(N=NS1)C1=CC=CC=C1", 
	 "Tm": 390.15, 
	 "num_atms": 21, 
	 "gaussian": { 
		 "optdone": 1, 
		 "sigma_profile": "yes", 
		 "theory": "DFT", 
		 "functional": "B3LYP", 
		 "basiset": "6-31G**", 
		 "properties": { 
			 "R2extent": 3453.5464, 
			 "electric_dipole_moment_norm": 2.89718668194, 
			 "electric_quadrupole_moment_norm": 10.2681305285, 
			 "total_energy": -930.638601093, 
			 "HOMO_LUMO_gap": 0.17418, 
			 "cosmo_polarized_energy": -11.77, 
			 "cosmo_cavitation_energy": 26.69, 
			 "cosmo_dispersion_energy": -20.17, 
			 "cosmo_repulsion_energy": 1.53, 
			 "cosmo_total_nonelectrostatic_energy": 8.05, 
			 "SMD_solvation_energy": 2.46 
		},
		"coords": [
			{
				"x": 1.8530652486,
				"y": -2.3021396609,
				"z": -2.1263427406,
				"element": "O" 
			},
			{
				"x": 1.1857595222,
				"y": -2.7647250595,
				"z": -0.9549584265,
				"element": "C" 
			},
			{
				"x": -0.3012302912,
				"y": -2.5368357563,
				"z": -0.9949568024,
				"element": "C" 
			},
			{
				"x": -1.035580363,
				"y": -1.4906110992,
				"z": -0.4565483757,
				"element": "C" 
			},
			{
				"x": -2.3944082329,
				"y": -1.61368589,
				"z": -0.6847661278,
				"element": "N" 
			},
			{
				"x": -2.7606350391,
				"y": -2.6298299795,
				"z": -1.3556682146,
				"element": "N" 
			},
			{
				"x": -1.3833438806,
				"y": -3.5999146926,
				"z": -1.7967817381,
				"element": "S" 
			},
			{
				"x": -0.5654357365,
				"y": -0.3281380812,
				"z": 0.3246874145,
				"element": "C" 
			},
			{
				"x": 0.7013413085,
				"y": 0.249048821,
				"z": 0.1313368134,
				"element": "C" 
			},
			{
				"x": 1.1071178222,
				"y": 1.344839618,
				"z": 0.8926671222,
				"element": "C" 
			},
			{
				"x": 0.2523886575,
				"y": 1.8910407309,
				"z": 1.8505230077,
				"element": "C" 
			},
			{
				"x": -1.0160298798,
				"y": 1.3367768342,
				"z": 2.0385347042,
				"element": "C" 
			},
			{
				"x": -1.423149984,
				"y": 0.239810803,
				"z": 1.2838082188,
				"element": "C" 
			},
			{
				"x": 1.4740133414,
				"y": -1.4487873458,
				"z": -2.3746034325,
				"element": "H" 
			},
			{
				"x": 1.5853304487,
				"y": -2.2900631034,
				"z": -0.0491154034,
				"element": "H" 
			},
			{
				"x": 1.4082940971,
				"y": -3.8332611957,
				"z": -0.8905264158,
				"element": "H" 
			},
			{
				"x": 1.3737926413,
				"y": -0.1380296609,
				"z": -0.6270441663,
				"element": "H" 
			},
			{
				"x": 2.0890844954,
				"y": 1.7777898906,
				"z": 0.7263333022,
				"element": "H" 
			},
			{
				"x": 0.5685208883,
				"y": 2.7465847238,
				"z": 2.4399518034,
				"element": "H" 
			},
			{
				"x": -1.6912430348,
				"y": 1.7596198563,
				"z": 2.776675169,
				"element": "H" 
			},
			{
				"x": -2.4091520292,
				"y": -0.188989753,
				"z": 1.4246942883,
				"element": "H" 
			}
		],
		 "valence_orbital": [ 
			{
				"type": "occ",
				"energy": -0.30065,
				"method": "rhf"
			},
			{
				"type": "occ",
				"energy": -0.29066,
				"method": "rhf"
			},
			{
				"type": "occ",
				"energy": -0.26439,
				"method": "rhf"
			},
			{
				"type": "occ",
				"energy": -0.26193,
				"method": "rhf"
			},
			{
				"type": "occ",
				"energy": -0.24218,
				"method": "rhf"
			},
			{
				"type": "unocc",
				"energy": -0.068,
				"method": "rhf"
			},
			{
				"type": "unocc",
				"energy": -0.03191,
				"method": "rhf"
			},
			{
				"type": "unocc",
				"energy": -0.0178,
				"method": "rhf"
			},
			{
				"type": "unocc",
				"energy": -0.01085,
				"method": "rhf"
			},
			{
				"type": "unocc",
				"energy": 0.04494,
				"method": "rhf"
			}
		],
		"cosmo_sigma_profile": { 
			"-0.025": 0.0,
			"-0.024": 0.0,
			"-0.023": 0.0,
			"-0.022": 0.0,
			"-0.021": 0.0,
			"-0.02": 0.0,
			"-0.019": 0.0,
			"-0.018": 0.0,
			"-0.017": 0.0,
			"-0.016": 0.322602592872,
			"-0.015": 1.23867313108,
			"-0.014": 0.867857945604,
			"-0.013": 1.42493776912,
			"-0.012": 1.23306245379,
			"-0.011": 0.691770090003,
			"-0.01": 1.0344190254,
			"-0.009": 0.787566111465,
			"-0.008": 2.99740962335,
			"-0.007": 4.28332277422,
			"-0.006": 10.4957299694,
			"-0.005": 15.3960062943,
			"-0.004": 19.23943972,
			"-0.003": 14.9599463841,
			"-0.002": 15.3209677317,
			"-0.001": 16.9943560215,
			"0.0": 17.0647121413,
			"0.001": 16.6533345945,
			"0.002": 10.7142713197,
			"0.003": 11.7636522575,
			"0.004": 14.0169650865,
			"0.005": 9.77268849698,
			"0.006": 4.3488772412,
			"0.007": 2.98125492464,
			"0.008": 3.20012355388,
			"0.009": 4.57904814216,
			"0.01": 4.50214499454,
			"0.011": 3.40138221599,
			"0.012": 3.65645221026,
			"0.013": 2.375968139,
			"0.014": 0.324890725997,
			"0.015": 0.0,
			"0.016": 0.0,
			"0.017": 0.0,
			"0.018": 0.0,
			"0.019": 0.0,
			"0.02": 0.0,
			"0.021": 0.0,
			"0.022": 0.0,
			"0.023": 0.0,
			"0.024": 0.0,
			"0.025": 0.0
		}
	}
}
