{
	 "smiles": "CC1=NN=C2N1C=CC=C2Cl", 
	 "Tm": 437.15, 
	 "num_atms": 17, 
	 "gaussian": { 
		 "optdone": 1, 
		 "sigma_profile": "yes", 
		 "theory": "DFT", 
		 "functional": "B3LYP", 
		 "basiset": "6-31G**", 
		 "properties": { 
			 "R2extent": 2222.8127, 
			 "electric_dipole_moment_norm": 6.34403477371, 
			 "electric_quadrupole_moment_norm": 9.51689804611, 
			 "total_energy": -894.778778589, 
			 "HOMO_LUMO_gap": 0.16901, 
			 "cosmo_polarized_energy": -17.33, 
			 "cosmo_cavitation_energy": 23.11, 
			 "cosmo_dispersion_energy": -17.4, 
			 "cosmo_repulsion_energy": 1.38, 
			 "cosmo_total_nonelectrostatic_energy": 7.09, 
			 "SMD_solvation_energy": 2.08 
		},
		"coords": [
			{
				"x": 1.7435266511,
				"y": 2.203036907,
				"z": -1.82034201,
				"element": "C" 
			},
			{
				"x": 1.3302153964,
				"y": 0.8100008009,
				"z": -1.4970756336,
				"element": "C" 
			},
			{
				"x": 1.1739935076,
				"y": -0.1781390665,
				"z": -2.3569235301,
				"element": "N" 
			},
			{
				"x": 0.7879317514,
				"y": -1.3079020771,
				"z": -1.6909862478,
				"element": "N" 
			},
			{
				"x": 0.7113454104,
				"y": -0.9913478152,
				"z": -0.4091980046,
				"element": "C" 
			},
			{
				"x": 1.0487152455,
				"y": 0.35580346,
				"z": -0.2255827731,
				"element": "N" 
			},
			{
				"x": 1.0577716637,
				"y": 0.9704082436,
				"z": 1.0085886416,
				"element": "C" 
			},
			{
				"x": 0.7226906115,
				"y": 0.2336420433,
				"z": 2.104095449,
				"element": "C" 
			},
			{
				"x": 0.3693081897,
				"y": -1.1458308073,
				"z": 1.9793896683,
				"element": "C" 
			},
			{
				"x": 0.3636950842,
				"y": -1.7461843119,
				"z": 0.7481650629,
				"element": "C" 
			},
			{
				"x": -0.0581676706,
				"y": -3.4185330382,
				"z": 0.545308315,
				"element": "Cl" 
			},
			{
				"x": 0.9786797426,
				"y": 2.9343820852,
				"z": -1.5327871816,
				"element": "H" 
			},
			{
				"x": 2.6789417592,
				"y": 2.4795347379,
				"z": -1.3192496997,
				"element": "H" 
			},
			{
				"x": 1.896935851,
				"y": 2.2703953779,
				"z": -2.8982607403,
				"element": "H" 
			},
			{
				"x": 1.33460389,
				"y": 2.0164750169,
				"z": 1.0327635122,
				"element": "H" 
			},
			{
				"x": 0.725242361,
				"y": 0.7029163179,
				"z": 3.080919009,
				"element": "H" 
			},
			{
				"x": 0.1049705552,
				"y": -1.7193578744,
				"z": 2.8601761627,
				"element": "H" 
			}
		],
		 "valence_orbital": [ 
			{
				"type": "occ",
				"energy": -0.31435,
				"method": "rhf"
			},
			{
				"type": "occ",
				"energy": -0.30681,
				"method": "rhf"
			},
			{
				"type": "occ",
				"energy": -0.27485,
				"method": "rhf"
			},
			{
				"type": "occ",
				"energy": -0.25406,
				"method": "rhf"
			},
			{
				"type": "occ",
				"energy": -0.22633,
				"method": "rhf"
			},
			{
				"type": "unocc",
				"energy": -0.05732,
				"method": "rhf"
			},
			{
				"type": "unocc",
				"energy": -0.01464,
				"method": "rhf"
			},
			{
				"type": "unocc",
				"energy": 0.02322,
				"method": "rhf"
			},
			{
				"type": "unocc",
				"energy": 0.0467,
				"method": "rhf"
			},
			{
				"type": "unocc",
				"energy": 0.07654,
				"method": "rhf"
			}
		],
		"cosmo_sigma_profile": { 
			"-0.025": 0.0,
			"-0.024": 0.0,
			"-0.023": 0.0,
			"-0.022": 0.0,
			"-0.021": 0.0,
			"-0.02": 0.0,
			"-0.019": 0.0,
			"-0.018": 0.0,
			"-0.017": 0.0,
			"-0.016": 0.0,
			"-0.015": 0.0,
			"-0.014": 0.0,
			"-0.013": 0.0,
			"-0.012": 0.0,
			"-0.011": 0.0645911972113,
			"-0.01": 1.34347050993,
			"-0.009": 4.07398693388,
			"-0.008": 8.68944137044,
			"-0.007": 9.39929506795,
			"-0.006": 12.0009476309,
			"-0.005": 8.9926878542,
			"-0.004": 11.7402576032,
			"-0.003": 14.7861385966,
			"-0.002": 15.5055855955,
			"-0.001": 14.7878270404,
			"0.0": 14.7082468343,
			"0.001": 13.6562110169,
			"0.002": 8.82184761239,
			"0.003": 9.62917042135,
			"0.004": 8.1051679555,
			"0.005": 2.68812590302,
			"0.006": 2.71065423583,
			"0.007": 2.14790739516,
			"0.008": 1.99846758887,
			"0.009": 2.83811909734,
			"0.01": 2.05622122266,
			"0.011": 2.39067507302,
			"0.012": 2.74341353614,
			"0.013": 3.78707810319,
			"0.014": 2.98572184893,
			"0.015": 2.76539725686,
			"0.016": 2.18861405775,
			"0.017": 0.697406539556,
			"0.018": 0.0,
			"0.019": 0.0,
			"0.02": 0.0,
			"0.021": 0.0,
			"0.022": 0.0,
			"0.023": 0.0,
			"0.024": 0.0,
			"0.025": 0.0
		}
	}
}
