{
	 "smiles": "ClC(=O)C=CC1=CC=CC=C1Cl", 
	 "Tm": 311.15, 
	 "num_atms": 18, 
	 "gaussian": { 
		 "optdone": 1, 
		 "sigma_profile": "yes", 
		 "theory": "DFT", 
		 "functional": "B3LYP", 
		 "basiset": "6-31G**", 
		 "properties": { 
			 "R2extent": 4591.4214, 
			 "electric_dipole_moment_norm": 5.84368507536, 
			 "electric_quadrupole_moment_norm": 10.7889727291, 
			 "total_energy": -1342.17520048, 
			 "HOMO_LUMO_gap": 0.15901, 
			 "cosmo_polarized_energy": -8.31, 
			 "cosmo_cavitation_energy": 26.95, 
			 "cosmo_dispersion_energy": -19.77, 
			 "cosmo_repulsion_energy": 1.58, 
			 "cosmo_total_nonelectrostatic_energy": 8.77, 
			 "SMD_solvation_energy": 5.06 
		},
		"coords": [
			{
				"x": 3.2599244724,
				"y": 2.4860884724,
				"z": -2.8756820787,
				"element": "Cl" 
			},
			{
				"x": 2.4703076147,
				"y": 0.8294870632,
				"z": -2.9296949587,
				"element": "C" 
			},
			{
				"x": 2.702469887,
				"y": 0.0887781918,
				"z": -3.8381408479,
				"element": "O" 
			},
			{
				"x": 1.5955098821,
				"y": 0.6115837753,
				"z": -1.7728319544,
				"element": "C" 
			},
			{
				"x": 0.9298401559,
				"y": -0.5583714431,
				"z": -1.6650878178,
				"element": "C" 
			},
			{
				"x": 0.0321520357,
				"y": -0.9529557437,
				"z": -0.5830958273,
				"element": "C" 
			},
			{
				"x": -0.0819021448,
				"y": -0.1949844848,
				"z": 0.602089371,
				"element": "C" 
			},
			{
				"x": -0.9314544227,
				"y": -0.569390916,
				"z": 1.6337388559,
				"element": "C" 
			},
			{
				"x": -1.7016651825,
				"y": -1.7295837779,
				"z": 1.5128246754,
				"element": "C" 
			},
			{
				"x": -1.6134061265,
				"y": -2.5070898861,
				"z": 0.3604554904,
				"element": "C" 
			},
			{
				"x": -0.7563138891,
				"y": -2.1223571251,
				"z": -0.6697884825,
				"element": "C" 
			},
			{
				"x": -0.7035715668,
				"y": -3.1470537331,
				"z": -2.0967845878,
				"element": "Cl" 
			},
			{
				"x": 1.5176461331,
				"y": 1.4180664225,
				"z": -1.0550592193,
				"element": "H" 
			},
			{
				"x": 1.0711359299,
				"y": -1.2774565678,
				"z": -2.4664268838,
				"element": "H" 
			},
			{
				"x": 0.5241683586,
				"y": 0.6978349563,
				"z": 0.7128378944,
				"element": "H" 
			},
			{
				"x": -0.9909187704,
				"y": 0.0363860797,
				"z": 2.5322278335,
				"element": "H" 
			},
			{
				"x": -2.3683411017,
				"y": -2.0331017472,
				"z": 2.3140845139,
				"element": "H" 
			},
			{
				"x": -2.2039812649,
				"y": -3.4096795364,
				"z": 0.2521340236,
				"element": "H" 
			}
		],
		 "valence_orbital": [ 
			{
				"type": "occ",
				"energy": -0.31468,
				"method": "rhf"
			},
			{
				"type": "occ",
				"energy": -0.31453,
				"method": "rhf"
			},
			{
				"type": "occ",
				"energy": -0.29139,
				"method": "rhf"
			},
			{
				"type": "occ",
				"energy": -0.27289,
				"method": "rhf"
			},
			{
				"type": "occ",
				"energy": -0.25794,
				"method": "rhf"
			},
			{
				"type": "unocc",
				"energy": -0.09893,
				"method": "rhf"
			},
			{
				"type": "unocc",
				"energy": -0.03352,
				"method": "rhf"
			},
			{
				"type": "unocc",
				"energy": -0.01211,
				"method": "rhf"
			},
			{
				"type": "unocc",
				"energy": 0.01242,
				"method": "rhf"
			},
			{
				"type": "unocc",
				"energy": 0.02311,
				"method": "rhf"
			}
		],
		"cosmo_sigma_profile": { 
			"-0.025": 0.0,
			"-0.024": 0.0,
			"-0.023": 0.0,
			"-0.022": 0.0,
			"-0.021": 0.0,
			"-0.02": 0.0,
			"-0.019": 0.0,
			"-0.018": 0.0,
			"-0.017": 0.0,
			"-0.016": 0.0,
			"-0.015": 0.0,
			"-0.014": 0.0,
			"-0.013": 0.0,
			"-0.012": 0.0,
			"-0.011": 0.0589803342167,
			"-0.01": 1.2506534421,
			"-0.009": 1.82434670436,
			"-0.008": 3.64466419258,
			"-0.007": 8.52961460198,
			"-0.006": 10.6013321511,
			"-0.005": 8.66060233752,
			"-0.004": 10.0918776251,
			"-0.003": 14.0695950582,
			"-0.002": 16.5875344237,
			"-0.001": 17.720995787,
			"0.0": 24.0786625559,
			"0.001": 23.8368918415,
			"0.002": 21.5769346133,
			"0.003": 18.257703613,
			"0.004": 16.0610195189,
			"0.005": 9.78865442685,
			"0.006": 3.90658248437,
			"0.007": 2.42929355022,
			"0.008": 3.49461180802,
			"0.009": 4.47919090724,
			"0.01": 1.09610724378,
			"0.011": 0.0,
			"0.012": 0.0,
			"0.013": 0.0,
			"0.014": 0.0,
			"0.015": 0.0,
			"0.016": 0.0,
			"0.017": 0.0,
			"0.018": 0.0,
			"0.019": 0.0,
			"0.02": 0.0,
			"0.021": 0.0,
			"0.022": 0.0,
			"0.023": 0.0,
			"0.024": 0.0,
			"0.025": 0.0
		}
	}
}
