{
	 "smiles": "CC1=NC(=CS1)C#N", 
	 "Tm": 331.15, 
	 "num_atms": 12, 
	 "gaussian": { 
		 "optdone": 1, 
		 "sigma_profile": "yes", 
		 "theory": "DFT", 
		 "functional": "B3LYP", 
		 "basiset": "6-31G**", 
		 "properties": { 
			 "R2extent": 1440.9193, 
			 "electric_dipole_moment_norm": 5.26245072661, 
			 "electric_quadrupole_moment_norm": 15.4007779644, 
			 "total_energy": -700.605397293, 
			 "HOMO_LUMO_gap": 0.20318, 
			 "cosmo_polarized_energy": -10.46, 
			 "cosmo_cavitation_energy": 19.27, 
			 "cosmo_dispersion_energy": -14.33, 
			 "cosmo_repulsion_energy": 1.15, 
			 "cosmo_total_nonelectrostatic_energy": 6.09, 
			 "SMD_solvation_energy": 3.37 
		},
		"coords": [
			{
				"x": -0.2622134033,
				"y": -1.9237933144,
				"z": 0.9443660504,
				"element": "C" 
			},
			{
				"x": 0.3769700037,
				"y": -0.6028148736,
				"z": 0.6477426186,
				"element": "C" 
			},
			{
				"x": -0.101962245,
				"y": 0.5449835049,
				"z": 1.0217248804,
				"element": "N" 
			},
			{
				"x": 0.7076241941,
				"y": 1.584042118,
				"z": 0.6010896206,
				"element": "C" 
			},
			{
				"x": 1.8275523105,
				"y": 1.2278869165,
				"z": -0.1079571031,
				"element": "C" 
			},
			{
				"x": 1.8891639927,
				"y": -0.4872188426,
				"z": -0.2679786757,
				"element": "S" 
			},
			{
				"x": 0.359319243,
				"y": 2.9367383569,
				"z": 0.9099647689,
				"element": "C" 
			},
			{
				"x": 0.096613694,
				"y": 4.0438359339,
				"z": 1.1491329858,
				"element": "N" 
			},
			{
				"x": 0.4018757229,
				"y": -2.5662397543,
				"z": 1.5316755689,
				"element": "H" 
			},
			{
				"x": -1.1750495165,
				"y": -1.7445754413,
				"z": 1.5147214007,
				"element": "H" 
			},
			{
				"x": -0.5188252371,
				"y": -2.4591745121,
				"z": 0.0244729755,
				"element": "H" 
			},
			{
				"x": 2.585831241,
				"y": 1.8746299082,
				"z": -0.5249550911,
				"element": "H" 
			}
		],
		 "valence_orbital": [ 
			{
				"type": "occ",
				"energy": -0.35291,
				"method": "rhf"
			},
			{
				"type": "occ",
				"energy": -0.33653,
				"method": "rhf"
			},
			{
				"type": "occ",
				"energy": -0.30866,
				"method": "rhf"
			},
			{
				"type": "occ",
				"energy": -0.2991,
				"method": "rhf"
			},
			{
				"type": "occ",
				"energy": -0.26235,
				"method": "rhf"
			},
			{
				"type": "unocc",
				"energy": -0.05917,
				"method": "rhf"
			},
			{
				"type": "unocc",
				"energy": -0.01103,
				"method": "rhf"
			},
			{
				"type": "unocc",
				"energy": -0.01037,
				"method": "rhf"
			},
			{
				"type": "unocc",
				"energy": 0.03607,
				"method": "rhf"
			},
			{
				"type": "unocc",
				"energy": 0.07177,
				"method": "rhf"
			}
		],
		"cosmo_sigma_profile": { 
			"-0.025": 0.0,
			"-0.024": 0.0,
			"-0.023": 0.0,
			"-0.022": 0.0,
			"-0.021": 0.0,
			"-0.02": 0.0,
			"-0.019": 0.0,
			"-0.018": 0.0,
			"-0.017": 0.0,
			"-0.016": 0.0,
			"-0.015": 0.0,
			"-0.014": 0.0,
			"-0.013": 0.0,
			"-0.012": 0.0417976381349,
			"-0.011": 1.99928275757,
			"-0.01": 2.31466118002,
			"-0.009": 1.86602217692,
			"-0.008": 2.00432690497,
			"-0.007": 3.79640896937,
			"-0.006": 10.969952599,
			"-0.005": 8.67652723368,
			"-0.004": 9.66766545572,
			"-0.003": 10.8448925535,
			"-0.002": 16.8460470266,
			"-0.001": 17.6165402993,
			"0.0": 14.0534298898,
			"0.001": 9.86817172632,
			"0.002": 5.98878298515,
			"0.003": 4.82793144174,
			"0.004": 3.85190718311,
			"0.005": 4.93113582063,
			"0.006": 3.49976008424,
			"0.007": 3.79583612737,
			"0.008": 4.57358221969,
			"0.009": 4.62050273911,
			"0.01": 3.92659188282,
			"0.011": 3.37506482378,
			"0.012": 3.10061733278,
			"0.013": 1.29094058191,
			"0.014": 0.104558989754,
			"0.015": 0.0,
			"0.016": 0.0,
			"0.017": 0.0,
			"0.018": 0.0,
			"0.019": 0.0,
			"0.02": 0.0,
			"0.021": 0.0,
			"0.022": 0.0,
			"0.023": 0.0,
			"0.024": 0.0,
			"0.025": 0.0
		}
	}
}
