{
	 "smiles": "COC1=CC=C(C=O)C=C1", 
	 "Tm": 273.15, 
	 "num_atms": 18, 
	 "gaussian": { 
		 "optdone": 1, 
		 "sigma_profile": "yes", 
		 "theory": "DFT", 
		 "functional": "B3LYP", 
		 "basiset": "6-31G**", 
		 "properties": { 
			 "R2extent": 2332.2358, 
			 "electric_dipole_moment_norm": 4.01029461511, 
			 "electric_quadrupole_moment_norm": 11.441520714, 
			 "total_energy": -460.101495046, 
			 "HOMO_LUMO_gap": 0.18163, 
			 "cosmo_polarized_energy": -9.46, 
			 "cosmo_cavitation_energy": 22.39, 
			 "cosmo_dispersion_energy": -16.48, 
			 "cosmo_repulsion_energy": 1.32, 
			 "cosmo_total_nonelectrostatic_energy": 7.23, 
			 "SMD_solvation_energy": 5.78 
		},
		"coords": [
			{
				"x": -0.2170790568,
				"y": -2.7054271229,
				"z": 1.5803389992,
				"element": "C" 
			},
			{
				"x": -1.4556375039,
				"y": -2.0163304545,
				"z": 1.4645998491,
				"element": "O" 
			},
			{
				"x": -1.5259477231,
				"y": -0.9324502662,
				"z": 0.6502740047,
				"element": "C" 
			},
			{
				"x": -0.4481553136,
				"y": -0.4307786444,
				"z": -0.1004509404,
				"element": "C" 
			},
			{
				"x": -0.6367637209,
				"y": 0.6888558858,
				"z": -0.9025630718,
				"element": "C" 
			},
			{
				"x": -1.884698159,
				"y": 1.3232174218,
				"z": -0.9728301487,
				"element": "C" 
			},
			{
				"x": -2.0742807829,
				"y": 2.5094042129,
				"z": -1.8259743756,
				"element": "C" 
			},
			{
				"x": -1.2074987087,
				"y": 3.0207782586,
				"z": -2.5129623168,
				"element": "O" 
			},
			{
				"x": -2.9534011664,
				"y": 0.8115575719,
				"z": -0.217458701,
				"element": "C" 
			},
			{
				"x": -2.7819191563,
				"y": -0.3036184992,
				"z": 0.5869719489,
				"element": "C" 
			},
			{
				"x": -0.3960279631,
				"y": -3.5264177255,
				"z": 2.2755970249,
				"element": "H" 
			},
			{
				"x": 0.1087610321,
				"y": -3.1127532307,
				"z": 0.6154406413,
				"element": "H" 
			},
			{
				"x": 0.5693496206,
				"y": -2.055248757,
				"z": 1.9827165172,
				"element": "H" 
			},
			{
				"x": 0.5249426124,
				"y": -0.9053494847,
				"z": -0.0611727579,
				"element": "H" 
			},
			{
				"x": 0.1805858721,
				"y": 1.0941956523,
				"z": -1.4911177465,
				"element": "H" 
			},
			{
				"x": -3.1051001711,
				"y": 2.9311961276,
				"z": -1.8050738295,
				"element": "H" 
			},
			{
				"x": -3.9250085302,
				"y": 1.2981492817,
				"z": -0.2665312552,
				"element": "H" 
			},
			{
				"x": -3.5946211812,
				"y": -0.7132802276,
				"z": 1.1772961579,
				"element": "H" 
			}
		],
		 "valence_orbital": [ 
			{
				"type": "occ",
				"energy": -0.33745,
				"method": "rhf"
			},
			{
				"type": "occ",
				"energy": -0.3259,
				"method": "rhf"
			},
			{
				"type": "occ",
				"energy": -0.26627,
				"method": "rhf"
			},
			{
				"type": "occ",
				"energy": -0.24682,
				"method": "rhf"
			},
			{
				"type": "occ",
				"energy": -0.23347,
				"method": "rhf"
			},
			{
				"type": "unocc",
				"energy": -0.05184,
				"method": "rhf"
			},
			{
				"type": "unocc",
				"energy": -0.013,
				"method": "rhf"
			},
			{
				"type": "unocc",
				"energy": 0.05098,
				"method": "rhf"
			},
			{
				"type": "unocc",
				"energy": 0.08685,
				"method": "rhf"
			},
			{
				"type": "unocc",
				"energy": 0.09635,
				"method": "rhf"
			}
		],
		"cosmo_sigma_profile": { 
			"-0.025": 0.0,
			"-0.024": 0.0,
			"-0.023": 0.0,
			"-0.022": 0.0,
			"-0.021": 0.0,
			"-0.02": 0.0,
			"-0.019": 0.0,
			"-0.018": 0.0,
			"-0.017": 0.0,
			"-0.016": 0.0,
			"-0.015": 0.0,
			"-0.014": 0.0,
			"-0.013": 0.0,
			"-0.012": 0.0,
			"-0.011": 0.0,
			"-0.01": 0.0,
			"-0.009": 0.0,
			"-0.008": 0.25209816743,
			"-0.007": 6.70715548564,
			"-0.006": 17.0576282339,
			"-0.005": 18.1549472305,
			"-0.004": 16.2941759804,
			"-0.003": 14.1170318698,
			"-0.002": 9.70079513116,
			"-0.001": 9.59053854835,
			"0.0": 8.33627615912,
			"0.001": 10.8438606204,
			"0.002": 13.6901063167,
			"0.003": 16.3401409608,
			"0.004": 10.0181414422,
			"0.005": 3.69505341817,
			"0.006": 2.77077200814,
			"0.007": 2.09493014304,
			"0.008": 3.25019939031,
			"0.009": 3.44231356798,
			"0.01": 2.77454324951,
			"0.011": 3.10984513456,
			"0.012": 4.46781389129,
			"0.013": 1.87616652559,
			"0.014": 0.230393938992,
			"0.015": 0.0,
			"0.016": 0.0,
			"0.017": 0.0,
			"0.018": 0.0,
			"0.019": 0.0,
			"0.02": 0.0,
			"0.021": 0.0,
			"0.022": 0.0,
			"0.023": 0.0,
			"0.024": 0.0,
			"0.025": 0.0
		}
	}
}
