{
	 "smiles": "O=C1CCN(CC1)S(=O)(=O)C1=CC=CS1", 
	 "Tm": 401.15, 
	 "num_atms": 26, 
	 "gaussian": { 
		 "optdone": 1, 
		 "sigma_profile": "yes", 
		 "theory": "DFT", 
		 "functional": "B3LYP", 
		 "basiset": "6-31G**", 
		 "properties": { 
			 "R2extent": 4508.1878, 
			 "electric_dipole_moment_norm": 3.62716083459, 
			 "electric_quadrupole_moment_norm": 30.2279589427, 
			 "total_energy": -1426.28280452, 
			 "HOMO_LUMO_gap": 0.19758, 
			 "cosmo_polarized_energy": -18.08, 
			 "cosmo_cavitation_energy": 31.67, 
			 "cosmo_dispersion_energy": -23.34, 
			 "cosmo_repulsion_energy": 1.74, 
			 "cosmo_total_nonelectrostatic_energy": 10.07, 
			 "SMD_solvation_energy": 3.91 
		},
		"coords": [
			{
				"x": -0.5073280551,
				"y": 3.2959752498,
				"z": 0.5239867676,
				"element": "O" 
			},
			{
				"x": 0.0425368326,
				"y": 2.2142272819,
				"z": 0.5090050723,
				"element": "C" 
			},
			{
				"x": -0.1916296438,
				"y": 1.1538022388,
				"z": 1.5800612983,
				"element": "C" 
			},
			{
				"x": -0.0397427388,
				"y": -0.2686157798,
				"z": 1.0312982075,
				"element": "C" 
			},
			{
				"x": 1.3097351576,
				"y": -0.4505997104,
				"z": 0.4591442384,
				"element": "N" 
			},
			{
				"x": 2.0088817547,
				"y": 0.7347898846,
				"z": -0.0826203583,
				"element": "C" 
			},
			{
				"x": 1.0261334341,
				"y": 1.8005428446,
				"z": -0.5809647538,
				"element": "C" 
			},
			{
				"x": 1.6479144387,
				"y": -1.9571648854,
				"z": -0.1891995096,
				"element": "S" 
			},
			{
				"x": 1.0879520957,
				"y": -2.9348388674,
				"z": 0.7425557223,
				"element": "O" 
			},
			{
				"x": 3.0580493478,
				"y": -1.9363551127,
				"z": -0.5774246622,
				"element": "O" 
			},
			{
				"x": 0.7005203534,
				"y": -2.1050434357,
				"z": -1.6869890562,
				"element": "C" 
			},
			{
				"x": -0.5621360414,
				"y": -2.6343350595,
				"z": -1.7935997622,
				"element": "C" 
			},
			{
				"x": -1.0695491739,
				"y": -2.5581587447,
				"z": -3.1227507412,
				"element": "C" 
			},
			{
				"x": -0.1860717859,
				"y": -1.9741488363,
				"z": -3.9918252606,
				"element": "C" 
			},
			{
				"x": 1.2930007957,
				"y": -1.5168153069,
				"z": -3.2166987472,
				"element": "S" 
			},
			{
				"x": -1.1839152995,
				"y": 1.2994975319,
				"z": 2.0144940062,
				"element": "H" 
			},
			{
				"x": 0.5403354004,
				"y": 1.3196181723,
				"z": 2.382702085,
				"element": "H" 
			},
			{
				"x": -0.816047275,
				"y": -0.4495355383,
				"z": 0.2709415035,
				"element": "H" 
			},
			{
				"x": -0.1790403681,
				"y": -1.0040841175,
				"z": 1.8252058372,
				"element": "H" 
			},
			{
				"x": 2.6450180529,
				"y": 1.1537574673,
				"z": 0.7069565376,
				"element": "H" 
			},
			{
				"x": 2.6823241323,
				"y": 0.4142714149,
				"z": -0.8786555476,
				"element": "H" 
			},
			{
				"x": 0.443603198,
				"y": 1.4084305534,
				"z": -1.4263511356,
				"element": "H" 
			},
			{
				"x": 1.5510842644,
				"y": 2.6901096844,
				"z": -0.9410318061,
				"element": "H" 
			},
			{
				"x": -1.0816402691,
				"y": -3.0796151255,
				"z": -0.9541037811,
				"element": "H" 
			},
			{
				"x": -2.042989749,
				"y": -2.9301329246,
				"z": -3.4202797197,
				"element": "H" 
			},
			{
				"x": -0.3072988589,
				"y": -1.8047788792,
				"z": -5.0533564345,
				"element": "H" 
			}
		],
		 "valence_orbital": [ 
			{
				"type": "occ",
				"energy": -0.31061,
				"method": "rhf"
			},
			{
				"type": "occ",
				"energy": -0.27891,
				"method": "rhf"
			},
			{
				"type": "occ",
				"energy": -0.27784,
				"method": "rhf"
			},
			{
				"type": "occ",
				"energy": -0.25495,
				"method": "rhf"
			},
			{
				"type": "occ",
				"energy": -0.24992,
				"method": "rhf"
			},
			{
				"type": "unocc",
				"energy": -0.05234,
				"method": "rhf"
			},
			{
				"type": "unocc",
				"energy": -0.02934,
				"method": "rhf"
			},
			{
				"type": "unocc",
				"energy": 0.00669,
				"method": "rhf"
			},
			{
				"type": "unocc",
				"energy": 0.03094,
				"method": "rhf"
			},
			{
				"type": "unocc",
				"energy": 0.04724,
				"method": "rhf"
			}
		],
		"cosmo_sigma_profile": { 
			"-0.025": 0.0,
			"-0.024": 0.0,
			"-0.023": 0.0,
			"-0.022": 0.0,
			"-0.021": 0.0,
			"-0.02": 0.0,
			"-0.019": 0.0,
			"-0.018": 0.0,
			"-0.017": 0.0,
			"-0.016": 0.0,
			"-0.015": 0.0,
			"-0.014": 0.0,
			"-0.013": 0.0,
			"-0.012": 0.0,
			"-0.011": 0.0,
			"-0.01": 0.901484105484,
			"-0.009": 2.51467675211,
			"-0.008": 6.81326838603,
			"-0.007": 11.906461274,
			"-0.006": 20.7577527174,
			"-0.005": 26.717644155,
			"-0.004": 23.8709881808,
			"-0.003": 18.1059135282,
			"-0.002": 11.7864239178,
			"-0.001": 12.0879522838,
			"0.0": 11.6473784077,
			"0.001": 14.6283491039,
			"0.002": 15.9537978411,
			"0.003": 13.1593564589,
			"0.004": 7.52813033732,
			"0.005": 5.90603632328,
			"0.006": 4.76117307191,
			"0.007": 5.49929732799,
			"0.008": 4.33161462168,
			"0.009": 6.21207890888,
			"0.01": 10.0640973497,
			"0.011": 11.3291999617,
			"0.012": 5.48672963832,
			"0.013": 1.58282240161,
			"0.014": 0.00771788221825,
			"0.015": 0.0,
			"0.016": 0.0,
			"0.017": 0.0,
			"0.018": 0.0,
			"0.019": 0.0,
			"0.02": 0.0,
			"0.021": 0.0,
			"0.022": 0.0,
			"0.023": 0.0,
			"0.024": 0.0,
			"0.025": 0.0
		}
	}
}
