{
	 "smiles": "O=CC1=CC=C(CN2CCOCC2)C=C1", 
	 "Tm": 327.65, 
	 "num_atms": 30, 
	 "gaussian": { 
		 "optdone": 1, 
		 "sigma_profile": "yes", 
		 "theory": "DFT", 
		 "functional": "B3LYP", 
		 "basiset": "6-31G**", 
		 "properties": { 
			 "R2extent": 4737.6647, 
			 "electric_dipole_moment_norm": 2.40618359025, 
			 "electric_quadrupole_moment_norm": 21.6614003382, 
			 "total_energy": -671.474928419, 
			 "HOMO_LUMO_gap": 0.14718, 
			 "cosmo_polarized_energy": -12.3, 
			 "cosmo_cavitation_energy": 32.17, 
			 "cosmo_dispersion_energy": -23.11, 
			 "cosmo_repulsion_energy": 1.8, 
			 "cosmo_total_nonelectrostatic_energy": 10.87, 
			 "SMD_solvation_energy": 4.03 
		},
		"coords": [
			{
				"x": -4.0658295715,
				"y": 0.8338667167,
				"z": 3.9357405007,
				"element": "O" 
			},
			{
				"x": -3.9207047563,
				"y": 0.3213936116,
				"z": 2.8418295527,
				"element": "C" 
			},
			{
				"x": -2.6871673437,
				"y": 0.4054179555,
				"z": 2.0294365357,
				"element": "C" 
			},
			{
				"x": -2.6260622123,
				"y": -0.2223679644,
				"z": 0.7784339829,
				"element": "C" 
			},
			{
				"x": -1.4674995758,
				"y": -0.1430722695,
				"z": 0.0097660378,
				"element": "C" 
			},
			{
				"x": -0.3456212607,
				"y": 0.5610844812,
				"z": 0.4730823564,
				"element": "C" 
			},
			{
				"x": 0.9392544828,
				"y": 0.6041771986,
				"z": -0.3461563231,
				"element": "C" 
			},
			{
				"x": 1.8568910776,
				"y": -0.5198041841,
				"z": -0.1705456885,
				"element": "N" 
			},
			{
				"x": 1.4148802441,
				"y": -1.8130733801,
				"z": -0.6686579468,
				"element": "C" 
			},
			{
				"x": 2.6535062027,
				"y": -2.7106949723,
				"z": -0.8659234849,
				"element": "C" 
			},
			{
				"x": 3.6642467481,
				"y": -2.4751284825,
				"z": 0.1120245141,
				"element": "O" 
			},
			{
				"x": 3.1269824378,
				"y": -1.9968698106,
				"z": 1.3298357679,
				"element": "C" 
			},
			{
				"x": 2.4907350956,
				"y": -0.6067836143,
				"z": 1.1481381542,
				"element": "C" 
			},
			{
				"x": -0.4222270117,
				"y": 1.196090715,
				"z": 1.7254213017,
				"element": "C" 
			},
			{
				"x": -1.5751026157,
				"y": 1.1202998924,
				"z": 2.4983694406,
				"element": "C" 
			},
			{
				"x": -4.7434005415,
				"y": -0.2642941555,
				"z": 2.3729950049,
				"element": "H" 
			},
			{
				"x": -3.4925937348,
				"y": -0.7661876714,
				"z": 0.4084120641,
				"element": "H" 
			},
			{
				"x": -1.4343101432,
				"y": -0.6211561619,
				"z": -0.9657485098,
				"element": "H" 
			},
			{
				"x": 1.4918464538,
				"y": 1.5191447453,
				"z": -0.0979604242,
				"element": "H" 
			},
			{
				"x": 0.6867900419,
				"y": 0.6598662258,
				"z": -1.412136701,
				"element": "H" 
			},
			{
				"x": 0.9222736856,
				"y": -1.6731272326,
				"z": -1.637738296,
				"element": "H" 
			},
			{
				"x": 0.6758427223,
				"y": -2.3075850797,
				"z": -0.0118660483,
				"element": "H" 
			},
			{
				"x": 2.3473196343,
				"y": -3.7695381327,
				"z": -0.8525448827,
				"element": "H" 
			},
			{
				"x": 3.1199742286,
				"y": -2.500906897,
				"z": -1.8336505086,
				"element": "H" 
			},
			{
				"x": 3.9534578012,
				"y": -1.94520632,
				"z": 2.0438752727,
				"element": "H" 
			},
			{
				"x": 2.3869233024,
				"y": -2.7055518591,
				"z": 1.7356487986,
				"element": "H" 
			},
			{
				"x": 1.7827311713,
				"y": -0.4449705861,
				"z": 1.9803340572,
				"element": "H" 
			},
			{
				"x": 3.2573373631,
				"y": 0.1771857463,
				"z": 1.2130119645,
				"element": "H" 
			},
			{
				"x": 0.4310705243,
				"y": 1.7657437445,
				"z": 2.0850514171,
				"element": "H" 
			},
			{
				"x": -1.6439444502,
				"y": 1.6099477411,
				"z": 3.46482209,
				"element": "H" 
			}
		],
		 "valence_orbital": [ 
			{
				"type": "occ",
				"energy": -0.26823,
				"method": "rhf"
			},
			{
				"type": "occ",
				"energy": -0.26221,
				"method": "rhf"
			},
			{
				"type": "occ",
				"energy": -0.2557,
				"method": "rhf"
			},
			{
				"type": "occ",
				"energy": -0.24873,
				"method": "rhf"
			},
			{
				"type": "occ",
				"energy": -0.21237,
				"method": "rhf"
			},
			{
				"type": "unocc",
				"energy": -0.06519,
				"method": "rhf"
			},
			{
				"type": "unocc",
				"energy": -0.01858,
				"method": "rhf"
			},
			{
				"type": "unocc",
				"energy": 0.0332,
				"method": "rhf"
			},
			{
				"type": "unocc",
				"energy": 0.0736,
				"method": "rhf"
			},
			{
				"type": "unocc",
				"energy": 0.09731,
				"method": "rhf"
			}
		],
		"cosmo_sigma_profile": { 
			"-0.025": 0.0,
			"-0.024": 0.0,
			"-0.023": 0.0,
			"-0.022": 0.0,
			"-0.021": 0.0,
			"-0.02": 0.0,
			"-0.019": 0.0,
			"-0.018": 0.0,
			"-0.017": 0.0,
			"-0.016": 0.0,
			"-0.015": 0.0,
			"-0.014": 0.0,
			"-0.013": 0.0,
			"-0.012": 0.0,
			"-0.011": 0.0,
			"-0.01": 0.0,
			"-0.009": 0.0,
			"-0.008": 0.347799804924,
			"-0.007": 3.67639907302,
			"-0.006": 12.0559708212,
			"-0.005": 20.6888119247,
			"-0.004": 26.7669692383,
			"-0.003": 35.3878104679,
			"-0.002": 29.7103173055,
			"-0.001": 20.3553840704,
			"0.0": 15.3023142257,
			"0.001": 12.7674432786,
			"0.002": 11.6398251338,
			"0.003": 14.8450667081,
			"0.004": 9.92196044842,
			"0.005": 4.44308201679,
			"0.006": 3.36478640768,
			"0.007": 2.87601507519,
			"0.008": 2.68925892274,
			"0.009": 4.29258112107,
			"0.01": 4.6930647914,
			"0.011": 5.46692332551,
			"0.012": 6.31729106696,
			"0.013": 3.575117003,
			"0.014": 1.50084408357,
			"0.015": 0.230507817825,
			"0.016": 0.0,
			"0.017": 0.0,
			"0.018": 0.0,
			"0.019": 0.0,
			"0.02": 0.0,
			"0.021": 0.0,
			"0.022": 0.0,
			"0.023": 0.0,
			"0.024": 0.0,
			"0.025": 0.0
		}
	}
}
