{
	 "smiles": "CC(C)(CN)CO", 
	 "Tm": 343.15, 
	 "num_atms": 20, 
	 "gaussian": { 
		 "optdone": 1, 
		 "sigma_profile": "yes", 
		 "theory": "DFT", 
		 "functional": "B3LYP", 
		 "basiset": "6-31G**", 
		 "properties": { 
			 "R2extent": 879.6073, 
			 "electric_dipole_moment_norm": 2.4309849218, 
			 "electric_quadrupole_moment_norm": 5.66385377283, 
			 "total_energy": -328.33546958, 
			 "HOMO_LUMO_gap": 0.28219, 
			 "cosmo_polarized_energy": -8.61, 
			 "cosmo_cavitation_energy": 20.79, 
			 "cosmo_dispersion_energy": -15.4, 
			 "cosmo_repulsion_energy": 1.31, 
			 "cosmo_total_nonelectrostatic_energy": 6.71, 
			 "SMD_solvation_energy": 2.89 
		},
		"coords": [
			{
				"x": -0.8412406923,
				"y": 0.4373062838,
				"z": -1.4815068688,
				"element": "C" 
			},
			{
				"x": 0.3223755952,
				"y": 0.198111721,
				"z": -0.5044268893,
				"element": "C" 
			},
			{
				"x": 1.4881609258,
				"y": -0.4951983685,
				"z": -1.2371146814,
				"element": "C" 
			},
			{
				"x": 0.8484746726,
				"y": 1.5388217857,
				"z": 0.0698249944,
				"element": "C" 
			},
			{
				"x": -0.2153717667,
				"y": 2.4186770296,
				"z": 0.5556871835,
				"element": "N" 
			},
			{
				"x": -0.1172831621,
				"y": -0.7484387231,
				"z": 0.6275474308,
				"element": "C" 
			},
			{
				"x": -1.1906648964,
				"y": -0.174369686,
				"z": 1.3747689176,
				"element": "O" 
			},
			{
				"x": -0.529423799,
				"y": 1.1038248329,
				"z": -2.292749492,
				"element": "H" 
			},
			{
				"x": -1.6879700556,
				"y": 0.9018262716,
				"z": -0.9755462336,
				"element": "H" 
			},
			{
				"x": -1.1705855412,
				"y": -0.5088656358,
				"z": -1.92760441,
				"element": "H" 
			},
			{
				"x": 1.1919329801,
				"y": -1.4804960165,
				"z": -1.6141644916,
				"element": "H" 
			},
			{
				"x": 1.8131770758,
				"y": 0.1028886254,
				"z": -2.0945647774,
				"element": "H" 
			},
			{
				"x": 2.3542675558,
				"y": -0.6340542997,
				"z": -0.5788851277,
				"element": "H" 
			},
			{
				"x": 1.3747973887,
				"y": 2.0676153868,
				"z": -0.7362812345,
				"element": "H" 
			},
			{
				"x": 1.6169858971,
				"y": 1.2948109026,
				"z": 0.829623501,
				"element": "H" 
			},
			{
				"x": -0.7252526452,
				"y": 1.9452299154,
				"z": 1.2966133764,
				"element": "H" 
			},
			{
				"x": 0.1906030341,
				"y": 3.2644924159,
				"z": 0.9467107034,
				"element": "H" 
			},
			{
				"x": -0.4278741302,
				"y": -1.709822765,
				"z": 0.187672903,
				"element": "H" 
			},
			{
				"x": 0.7458330873,
				"y": -0.9484814433,
				"z": 1.2839094001,
				"element": "H" 
			},
			{
				"x": -1.4511415238,
				"y": -0.8026782326,
				"z": 2.0587857959,
				"element": "H" 
			}
		],
		 "valence_orbital": [ 
			{
				"type": "occ",
				"energy": -0.32235,
				"method": "rhf"
			},
			{
				"type": "occ",
				"energy": -0.31593,
				"method": "rhf"
			},
			{
				"type": "occ",
				"energy": -0.30076,
				"method": "rhf"
			},
			{
				"type": "occ",
				"energy": -0.26957,
				"method": "rhf"
			},
			{
				"type": "occ",
				"energy": -0.21429,
				"method": "rhf"
			},
			{
				"type": "unocc",
				"energy": 0.0679,
				"method": "rhf"
			},
			{
				"type": "unocc",
				"energy": 0.09013,
				"method": "rhf"
			},
			{
				"type": "unocc",
				"energy": 0.1167,
				"method": "rhf"
			},
			{
				"type": "unocc",
				"energy": 0.13478,
				"method": "rhf"
			},
			{
				"type": "unocc",
				"energy": 0.14233,
				"method": "rhf"
			}
		],
		"cosmo_sigma_profile": { 
			"-0.025": 0.0,
			"-0.024": 0.0,
			"-0.023": 0.0,
			"-0.022": 0.0,
			"-0.021": 0.0,
			"-0.02": 0.0,
			"-0.019": 0.0,
			"-0.018": 0.0,
			"-0.017": 0.0,
			"-0.016": 0.360143374197,
			"-0.015": 1.09198944464,
			"-0.014": 1.48650604294,
			"-0.013": 0.310087071225,
			"-0.012": 0.712540810949,
			"-0.011": 1.08902981329,
			"-0.01": 0.885914646117,
			"-0.009": 2.21751637589,
			"-0.008": 1.64426209995,
			"-0.007": 1.94692115232,
			"-0.006": 2.01341172552,
			"-0.005": 3.32166342085,
			"-0.004": 3.32592221659,
			"-0.003": 13.4274146525,
			"-0.002": 26.8323227381,
			"-0.001": 22.1942933877,
			"0.0": 17.6993676678,
			"0.001": 16.4135402843,
			"0.002": 11.0996344057,
			"0.003": 4.66405575969,
			"0.004": 3.93120512859,
			"0.005": 2.11702191969,
			"0.006": 2.43997556947,
			"0.007": 2.61502101411,
			"0.008": 2.7004020241,
			"0.009": 2.48773876532,
			"0.01": 2.21663883456,
			"0.011": 1.17191216337,
			"0.012": 1.74146944019,
			"0.013": 0.542057036846,
			"0.014": 0.641239528636,
			"0.015": 0.789018914657,
			"0.016": 0.781800371757,
			"0.017": 0.40405899939,
			"0.018": 0.449432918247,
			"0.019": 0.708951921394,
			"0.02": 0.109267257409,
			"0.021": 0.0,
			"0.022": 0.0,
			"0.023": 0.0,
			"0.024": 0.0,
			"0.025": 0.0
		}
	}
}
