{
	 "smiles": "COC1=NC2=C(C=CC=C2)C(CN)=C1", 
	 "Tm": 353.15, 
	 "num_atms": 26, 
	 "gaussian": { 
		 "optdone": 1, 
		 "sigma_profile": "yes", 
		 "theory": "DFT", 
		 "functional": "B3LYP", 
		 "basiset": "6-31G**", 
		 "properties": { 
			 "R2extent": 3366.8733, 
			 "electric_dipole_moment_norm": 2.17216703087, 
			 "electric_quadrupole_moment_norm": 11.5733672179, 
			 "total_energy": -611.133932915, 
			 "HOMO_LUMO_gap": 0.17831, 
			 "cosmo_polarized_energy": -10.69, 
			 "cosmo_cavitation_energy": 29.12, 
			 "cosmo_dispersion_energy": -21.72, 
			 "cosmo_repulsion_energy": 1.72, 
			 "cosmo_total_nonelectrostatic_energy": 9.11, 
			 "SMD_solvation_energy": 3.71 
		},
		"coords": [
			{
				"x": -1.0766602581,
				"y": -0.878543906,
				"z": 2.9020638676,
				"element": "C" 
			},
			{
				"x": -1.010532955,
				"y": 0.2670625916,
				"z": 2.0499626409,
				"element": "O" 
			},
			{
				"x": -0.1137673421,
				"y": 0.2223498596,
				"z": 1.0384481826,
				"element": "C" 
			},
			{
				"x": 0.6366275803,
				"y": -0.8361691303,
				"z": 0.8722917646,
				"element": "N" 
			},
			{
				"x": 1.5286253875,
				"y": -0.8172914244,
				"z": -0.1678045599,
				"element": "C" 
			},
			{
				"x": 1.6550331334,
				"y": 0.2920056616,
				"z": -1.0620052678,
				"element": "C" 
			},
			{
				"x": 2.6152428281,
				"y": 0.2198102178,
				"z": -2.1025450287,
				"element": "C" 
			},
			{
				"x": 3.4126252691,
				"y": -0.8968407337,
				"z": -2.2590602406,
				"element": "C" 
			},
			{
				"x": 3.2802380123,
				"y": -1.9914557976,
				"z": -1.3778484416,
				"element": "C" 
			},
			{
				"x": 2.3568490893,
				"y": -1.9515886587,
				"z": -0.3538293521,
				"element": "C" 
			},
			{
				"x": 0.7979713718,
				"y": 1.426621977,
				"z": -0.8390582685,
				"element": "C" 
			},
			{
				"x": 0.8693436694,
				"y": 2.6382069592,
				"z": -1.7488273233,
				"element": "C" 
			},
			{
				"x": -0.1998876794,
				"y": 3.6015173743,
				"z": -1.487521453,
				"element": "N" 
			},
			{
				"x": -0.0751294708,
				"y": 1.3863286769,
				"z": 0.2151313352,
				"element": "C" 
			},
			{
				"x": -1.8440290971,
				"y": -0.6465739313,
				"z": 3.6421058867,
				"element": "H" 
			},
			{
				"x": -1.3495245159,
				"y": -1.7746601069,
				"z": 2.3369588931,
				"element": "H" 
			},
			{
				"x": -0.1158299731,
				"y": -1.0604619008,
				"z": 3.3924058161,
				"element": "H" 
			},
			{
				"x": 2.7309034016,
				"y": 1.0551198833,
				"z": -2.785892249,
				"element": "H" 
			},
			{
				"x": 4.1435320715,
				"y": -0.9332425124,
				"z": -3.0615341004,
				"element": "H" 
			},
			{
				"x": 3.909710476,
				"y": -2.8673159365,
				"z": -1.5077159441,
				"element": "H" 
			},
			{
				"x": 2.2370631963,
				"y": -2.7784778421,
				"z": 0.3387547839,
				"element": "H" 
			},
			{
				"x": 1.8280970035,
				"y": 3.145563761,
				"z": -1.5760074573,
				"element": "H" 
			},
			{
				"x": 0.9009585354,
				"y": 2.285597682,
				"z": -2.7939439343,
				"element": "H" 
			},
			{
				"x": -0.0220077496,
				"y": 4.4594483471,
				"z": -2.0012367737,
				"element": "H" 
			},
			{
				"x": -1.0866958876,
				"y": 3.2367464641,
				"z": -1.8270882346,
				"element": "H" 
			},
			{
				"x": -0.7233560968,
				"y": 2.2246424253,
				"z": 0.4372954582,
				"element": "H" 
			}
		],
		 "valence_orbital": [ 
			{
				"type": "occ",
				"energy": -0.28843,
				"method": "rhf"
			},
			{
				"type": "occ",
				"energy": -0.25614,
				"method": "rhf"
			},
			{
				"type": "occ",
				"energy": -0.24521,
				"method": "rhf"
			},
			{
				"type": "occ",
				"energy": -0.22966,
				"method": "rhf"
			},
			{
				"type": "occ",
				"energy": -0.21597,
				"method": "rhf"
			},
			{
				"type": "unocc",
				"energy": -0.03766,
				"method": "rhf"
			},
			{
				"type": "unocc",
				"energy": -0.00111,
				"method": "rhf"
			},
			{
				"type": "unocc",
				"energy": 0.03201,
				"method": "rhf"
			},
			{
				"type": "unocc",
				"energy": 0.07778,
				"method": "rhf"
			},
			{
				"type": "unocc",
				"energy": 0.10019,
				"method": "rhf"
			}
		],
		"cosmo_sigma_profile": { 
			"-0.025": 0.0,
			"-0.024": 0.0,
			"-0.023": 0.0,
			"-0.022": 0.0,
			"-0.021": 0.0,
			"-0.02": 0.0,
			"-0.019": 0.0,
			"-0.018": 0.0,
			"-0.017": 0.0,
			"-0.016": 0.0,
			"-0.015": 0.0,
			"-0.014": 0.0,
			"-0.013": 0.0,
			"-0.012": 0.0,
			"-0.011": 0.291075925857,
			"-0.01": 2.36377762837,
			"-0.009": 2.80179821415,
			"-0.008": 2.85983620621,
			"-0.007": 3.05073537251,
			"-0.006": 9.52039715499,
			"-0.005": 19.6038596368,
			"-0.004": 22.3194454769,
			"-0.003": 24.2116341585,
			"-0.002": 16.8835975365,
			"-0.001": 11.0945850085,
			"0.0": 10.8879103284,
			"0.001": 15.0392920362,
			"0.002": 18.4688289951,
			"0.003": 16.5947763945,
			"0.004": 17.0677981002,
			"0.005": 12.8200632956,
			"0.006": 5.33646907017,
			"0.007": 3.01947015885,
			"0.008": 4.85028432216,
			"0.009": 3.36942232119,
			"0.01": 2.47886216529,
			"0.011": 2.11916867239,
			"0.012": 1.3590172358,
			"0.013": 0.549685553346,
			"0.014": 0.544748119122,
			"0.015": 0.716618835255,
			"0.016": 0.286644436767,
			"0.017": 0.44678018563,
			"0.018": 0.0404758556852,
			"0.019": 0.0,
			"0.02": 0.0,
			"0.021": 0.0,
			"0.022": 0.0,
			"0.023": 0.0,
			"0.024": 0.0,
			"0.025": 0.0
		}
	}
}
