{
	 "smiles": "C(C1CCN(CC2=CC=CC=C2)CC1)C1=CC=CC=C1", 
	 "Tm": 339.15, 
	 "num_atms": 43, 
	 "gaussian": { 
		 "optdone": 1, 
		 "sigma_profile": "yes", 
		 "theory": "DFT", 
		 "functional": "B3LYP", 
		 "basiset": "6-31G**", 
		 "properties": { 
			 "R2extent": 10011.3822, 
			 "electric_dipole_moment_norm": 0.38765630396, 
			 "electric_quadrupole_moment_norm": 7.38096695495, 
			 "total_energy": -792.646024604, 
			 "HOMO_LUMO_gap": 0.21229, 
			 "cosmo_polarized_energy": -6.77, 
			 "cosmo_cavitation_energy": 43.18, 
			 "cosmo_dispersion_energy": -30.07, 
			 "cosmo_repulsion_energy": 2.3, 
			 "cosmo_total_nonelectrostatic_energy": 15.41, 
			 "SMD_solvation_energy": 4.95 
		},
		"coords": [
			{
				"x": 1.0114947279,
				"y": 0.657384208,
				"z": -1.6601215492,
				"element": "C" 
			},
			{
				"x": 0.2292899966,
				"y": 0.9429198612,
				"z": -0.3499022852,
				"element": "C" 
			},
			{
				"x": -0.6316540016,
				"y": -0.2607141864,
				"z": 0.0851158334,
				"element": "C" 
			},
			{
				"x": 0.197598096,
				"y": -1.38799988,
				"z": 0.7095123181,
				"element": "C" 
			},
			{
				"x": 0.9804885884,
				"y": -0.8935290328,
				"z": 1.8456266663,
				"element": "N" 
			},
			{
				"x": 1.6708489088,
				"y": -1.9714936864,
				"z": 2.5501208077,
				"element": "C" 
			},
			{
				"x": 0.7333864813,
				"y": -2.8930131015,
				"z": 3.3103041865,
				"element": "C" 
			},
			{
				"x": 0.9381314486,
				"y": -4.2771253719,
				"z": 3.3146892207,
				"element": "C" 
			},
			{
				"x": 0.1104740029,
				"y": -5.1204576093,
				"z": 4.0597638097,
				"element": "C" 
			},
			{
				"x": -0.9410677031,
				"y": -4.5868687757,
				"z": 4.8054238911,
				"element": "C" 
			},
			{
				"x": -1.1587971145,
				"y": -3.2063426,
				"z": 4.8008153364,
				"element": "C" 
			},
			{
				"x": -0.3270526005,
				"y": -2.3665330098,
				"z": 4.061032649,
				"element": "C" 
			},
			{
				"x": 1.898456218,
				"y": 0.1689370342,
				"z": 1.4298643324,
				"element": "C" 
			},
			{
				"x": 1.1342310008,
				"y": 1.3540729334,
				"z": 0.8293674591,
				"element": "C" 
			},
			{
				"x": 1.7125903189,
				"y": 1.8700944758,
				"z": -2.2363844983,
				"element": "C" 
			},
			{
				"x": 3.1011748906,
				"y": 2.0288775535,
				"z": -2.1325873261,
				"element": "C" 
			},
			{
				"x": 3.738933193,
				"y": 3.1574162247,
				"z": -2.6528053983,
				"element": "C" 
			},
			{
				"x": 2.995037579,
				"y": 4.1505198236,
				"z": -3.2905428682,
				"element": "C" 
			},
			{
				"x": 1.6104452928,
				"y": 4.0049045245,
				"z": -3.4055987057,
				"element": "C" 
			},
			{
				"x": 0.9791389075,
				"y": 2.8760190246,
				"z": -2.8840603406,
				"element": "C" 
			},
			{
				"x": 0.2966538625,
				"y": 0.2714749151,
				"z": -2.3987765795,
				"element": "H" 
			},
			{
				"x": 1.7436177638,
				"y": -0.1410811518,
				"z": -1.498758555,
				"element": "H" 
			},
			{
				"x": -0.4449248941,
				"y": 1.7826151751,
				"z": -0.5652234485,
				"element": "H" 
			},
			{
				"x": -1.3605809066,
				"y": 0.0766302755,
				"z": 0.8319120202,
				"element": "H" 
			},
			{
				"x": -1.2003775822,
				"y": -0.6551512767,
				"z": -0.7662015223,
				"element": "H" 
			},
			{
				"x": -0.4680194924,
				"y": -2.1791073056,
				"z": 1.067889021,
				"element": "H" 
			},
			{
				"x": 0.856640884,
				"y": -1.8505222587,
				"z": -0.0536960427,
				"element": "H" 
			},
			{
				"x": 2.3591324823,
				"y": -1.5014329273,
				"z": 3.2657557074,
				"element": "H" 
			},
			{
				"x": 2.3031121172,
				"y": -2.5755740633,
				"z": 1.8691573107,
				"element": "H" 
			},
			{
				"x": 1.7521716784,
				"y": -4.6986422524,
				"z": 2.7292240605,
				"element": "H" 
			},
			{
				"x": 0.2838135609,
				"y": -6.1930876118,
				"z": 4.0510517934,
				"element": "H" 
			},
			{
				"x": -1.588965346,
				"y": -5.2406479586,
				"z": 5.3825390652,
				"element": "H" 
			},
			{
				"x": -1.9782136655,
				"y": -2.7838958523,
				"z": 5.3762379826,
				"element": "H" 
			},
			{
				"x": -0.4958017633,
				"y": -1.2940630875,
				"z": 4.0425725976,
				"element": "H" 
			},
			{
				"x": 2.4576777803,
				"y": 0.5049604779,
				"z": 2.310999537,
				"element": "H" 
			},
			{
				"x": 2.6506203285,
				"y": -0.2083215855,
				"z": 0.7067633412,
				"element": "H" 
			},
			{
				"x": 1.8439746489,
				"y": 2.1284540428,
				"z": 0.5187020105,
				"element": "H" 
			},
			{
				"x": 0.5073849605,
				"y": 1.7864629088,
				"z": 1.6185001667,
				"element": "H" 
			},
			{
				"x": 3.6899574275,
				"y": 1.2561480594,
				"z": -1.6438471544,
				"element": "H" 
			},
			{
				"x": 4.8171316059,
				"y": 3.2574521376,
				"z": -2.5622229267,
				"element": "H" 
			},
			{
				"x": 3.4887293086,
				"y": 5.027839106,
				"z": -3.6986182729,
				"element": "H" 
			},
			{
				"x": 1.0226880149,
				"y": 4.7690616709,
				"z": -3.9069712035,
				"element": "H" 
			},
			{
				"x": -0.0984710057,
				"y": 2.7680601528,
				"z": -2.9862224472,
				"element": "H" 
			}
		],
		 "valence_orbital": [ 
			{
				"type": "occ",
				"energy": -0.24583,
				"method": "rhf"
			},
			{
				"type": "occ",
				"energy": -0.24395,
				"method": "rhf"
			},
			{
				"type": "occ",
				"energy": -0.23844,
				"method": "rhf"
			},
			{
				"type": "occ",
				"energy": -0.23642,
				"method": "rhf"
			},
			{
				"type": "occ",
				"energy": -0.21156,
				"method": "rhf"
			},
			{
				"type": "unocc",
				"energy": 0.00073,
				"method": "rhf"
			},
			{
				"type": "unocc",
				"energy": 0.00223,
				"method": "rhf"
			},
			{
				"type": "unocc",
				"energy": 0.00387,
				"method": "rhf"
			},
			{
				"type": "unocc",
				"energy": 0.00517,
				"method": "rhf"
			},
			{
				"type": "unocc",
				"energy": 0.07983,
				"method": "rhf"
			}
		],
		"cosmo_sigma_profile": { 
			"-0.025": 0.0,
			"-0.024": 0.0,
			"-0.023": 0.0,
			"-0.022": 0.0,
			"-0.021": 0.0,
			"-0.02": 0.0,
			"-0.019": 0.0,
			"-0.018": 0.0,
			"-0.017": 0.0,
			"-0.016": 0.0,
			"-0.015": 0.0,
			"-0.014": 0.0,
			"-0.013": 0.0,
			"-0.012": 0.0,
			"-0.011": 0.0,
			"-0.01": 0.0,
			"-0.009": 0.0,
			"-0.008": 0.0,
			"-0.007": 0.0,
			"-0.006": 2.02577800097,
			"-0.005": 16.1046453263,
			"-0.004": 26.4193431371,
			"-0.003": 38.6825635226,
			"-0.002": 44.0562149681,
			"-0.001": 48.0343871551,
			"0.0": 39.716939276,
			"0.001": 26.4686547432,
			"0.002": 17.7359129558,
			"0.003": 18.2744562668,
			"0.004": 17.0182496407,
			"0.005": 16.9714983304,
			"0.006": 16.6053295676,
			"0.007": 7.58457598996,
			"0.008": 0.816419590692,
			"0.009": 0.876561665224,
			"0.01": 0.868859940818,
			"0.011": 0.379271622664,
			"0.012": 0.146560651009,
			"0.013": 0.0,
			"0.014": 0.0,
			"0.015": 0.0,
			"0.016": 0.0,
			"0.017": 0.0,
			"0.018": 0.0,
			"0.019": 0.0,
			"0.02": 0.0,
			"0.021": 0.0,
			"0.022": 0.0,
			"0.023": 0.0,
			"0.024": 0.0,
			"0.025": 0.0
		}
	}
}
