{
	 "smiles": "OC(=O)C1=C(NC(=O)C2=CC=C(Br)C=C2)C=CS1", 
	 "Tm": 514.15, 
	 "num_atms": 26, 
	 "gaussian": { 
		 "optdone": 1, 
		 "sigma_profile": "yes", 
		 "theory": "DFT", 
		 "functional": "B3LYP", 
		 "basiset": "6-31G**", 
		 "properties": { 
			 "R2extent": 10560.896, 
			 "electric_dipole_moment_norm": 1.29587645244, 
			 "electric_quadrupole_moment_norm": 14.0912973296, 
			 "total_energy": -3712.14000168, 
			 "HOMO_LUMO_gap": 0.16103, 
			 "cosmo_polarized_energy": -15.12, 
			 "cosmo_cavitation_energy": 35.54, 
			 "cosmo_dispersion_energy": -26.82, 
			 "cosmo_repulsion_energy": 1.99, 
			 "cosmo_total_nonelectrostatic_energy": 10.71, 
			 "SMD_solvation_energy": 6.3 
		},
		"coords": [
			{
				"x": -1.884845087,
				"y": -2.4228099219,
				"z": -1.10540743,
				"element": "O" 
			},
			{
				"x": -1.7060502129,
				"y": -2.6016827635,
				"z": -2.4582947015,
				"element": "C" 
			},
			{
				"x": -2.1251304083,
				"y": -3.5952380932,
				"z": -3.0193269816,
				"element": "O" 
			},
			{
				"x": -0.9886507725,
				"y": -1.5073683504,
				"z": -3.0892533388,
				"element": "C" 
			},
			{
				"x": -0.4602612665,
				"y": -0.3278261075,
				"z": -2.5589592418,
				"element": "C" 
			},
			{
				"x": -0.5644066591,
				"y": -0.0064669417,
				"z": -1.209323518,
				"element": "N" 
			},
			{
				"x": -0.0734074474,
				"y": 1.1223715852,
				"z": -0.5796778354,
				"element": "C" 
			},
			{
				"x": 0.5880187788,
				"y": 1.9819707661,
				"z": -1.1497390737,
				"element": "O" 
			},
			{
				"x": -0.3983125235,
				"y": 1.2244717105,
				"z": 0.8829278626,
				"element": "C" 
			},
			{
				"x": 0.3841103082,
				"y": 2.1008853841,
				"z": 1.6475939444,
				"element": "C" 
			},
			{
				"x": 0.1500672252,
				"y": 2.2639164502,
				"z": 3.0094016312,
				"element": "C" 
			},
			{
				"x": -0.8892148948,
				"y": 1.5515994871,
				"z": 3.6094157461,
				"element": "C" 
			},
			{
				"x": -1.2218160901,
				"y": 1.7682668731,
				"z": 5.475149171,
				"element": "Br" 
			},
			{
				"x": -1.6949112425,
				"y": 0.6891034073,
				"z": 2.8671360928,
				"element": "C" 
			},
			{
				"x": -1.4451969057,
				"y": 0.5286810582,
				"z": 1.505149969,
				"element": "C" 
			},
			{
				"x": 0.1710348098,
				"y": 0.4812936358,
				"z": -3.5555202994,
				"element": "C" 
			},
			{
				"x": 0.1080402425,
				"y": -0.0935168748,
				"z": -4.7956168066,
				"element": "C" 
			},
			{
				"x": -0.7030282381,
				"y": -1.6132756351,
				"z": -4.8084137144,
				"element": "S" 
			},
			{
				"x": -2.3582840743,
				"y": -3.2135723347,
				"z": -0.7988686194,
				"element": "H" 
			},
			{
				"x": -0.9992880167,
				"y": -0.7214619551,
				"z": -0.6407569794,
				"element": "H" 
			},
			{
				"x": 1.1762443223,
				"y": 2.6509857325,
				"z": 1.1515073637,
				"element": "H" 
			},
			{
				"x": 0.7626941592,
				"y": 2.9354749534,
				"z": 3.5997875009,
				"element": "H" 
			},
			{
				"x": -2.509665189,
				"y": 0.1574716007,
				"z": 3.34484093,
				"element": "H" 
			},
			{
				"x": -2.1015508502,
				"y": -0.1224510914,
				"z": 0.9351045333,
				"element": "H" 
			},
			{
				"x": 0.6399555241,
				"y": 1.4267001466,
				"z": -3.3306495019,
				"element": "H" 
			},
			{
				"x": 0.5082545086,
				"y": 0.3084772784,
				"z": -5.7167067032,
				"element": "H" 
			}
		],
		 "valence_orbital": [ 
			{
				"type": "occ",
				"energy": -0.27995,
				"method": "rhf"
			},
			{
				"type": "occ",
				"energy": -0.27388,
				"method": "rhf"
			},
			{
				"type": "occ",
				"energy": -0.259,
				"method": "rhf"
			},
			{
				"type": "occ",
				"energy": -0.25591,
				"method": "rhf"
			},
			{
				"type": "occ",
				"energy": -0.23295,
				"method": "rhf"
			},
			{
				"type": "unocc",
				"energy": -0.07192,
				"method": "rhf"
			},
			{
				"type": "unocc",
				"energy": -0.04566,
				"method": "rhf"
			},
			{
				"type": "unocc",
				"energy": -0.0293,
				"method": "rhf"
			},
			{
				"type": "unocc",
				"energy": -0.00382,
				"method": "rhf"
			},
			{
				"type": "unocc",
				"energy": 0.01877,
				"method": "rhf"
			}
		],
		"cosmo_sigma_profile": { 
			"-0.025": 0.0,
			"-0.024": 0.0,
			"-0.023": 0.0,
			"-0.022": 0.0,
			"-0.021": 0.0,
			"-0.02": 0.0,
			"-0.019": 0.203374523533,
			"-0.018": 0.907461048935,
			"-0.017": 0.770429795095,
			"-0.016": 1.27728279432,
			"-0.015": 0.656975488593,
			"-0.014": 0.413281765364,
			"-0.013": 0.328464300564,
			"-0.012": 0.999250554646,
			"-0.011": 1.09901496449,
			"-0.01": 1.41189498526,
			"-0.009": 2.86820465922,
			"-0.008": 5.40737598557,
			"-0.007": 11.500271695,
			"-0.006": 11.7503757302,
			"-0.005": 12.4987441212,
			"-0.004": 14.4297217211,
			"-0.003": 14.4757457314,
			"-0.002": 18.9457938592,
			"-0.001": 20.8507451308,
			"0.0": 24.8061133158,
			"0.001": 33.5558361409,
			"0.002": 38.5178956501,
			"0.003": 23.9380442597,
			"0.004": 16.5988494578,
			"0.005": 5.60891461434,
			"0.006": 2.90895596252,
			"0.007": 2.62873253145,
			"0.008": 2.5425323321,
			"0.009": 3.64502099801,
			"0.01": 4.11717664534,
			"0.011": 6.60511644595,
			"0.012": 5.70214752423,
			"0.013": 0.402000822396,
			"0.014": 0.0,
			"0.015": 0.0,
			"0.016": 0.0,
			"0.017": 0.0,
			"0.018": 0.0,
			"0.019": 0.0,
			"0.02": 0.0,
			"0.021": 0.0,
			"0.022": 0.0,
			"0.023": 0.0,
			"0.024": 0.0,
			"0.025": 0.0
		}
	}
}
