{
	 "smiles": "ClC1=C2N(CC3=CC=CC=C3)C=CC2=CC=N1", 
	 "Tm": 349.15, 
	 "num_atms": 28, 
	 "gaussian": { 
		 "optdone": 1, 
		 "sigma_profile": "yes", 
		 "theory": "DFT", 
		 "functional": "B3LYP", 
		 "basiset": "6-31G**", 
		 "properties": { 
			 "R2extent": 4792.9059, 
			 "electric_dipole_moment_norm": 4.16700694624, 
			 "electric_quadrupole_moment_norm": 10.7580462729, 
			 "total_energy": -1109.81195501, 
			 "HOMO_LUMO_gap": 0.19019, 
			 "cosmo_polarized_energy": -10.32, 
			 "cosmo_cavitation_energy": 33.63, 
			 "cosmo_dispersion_energy": -23.96, 
			 "cosmo_repulsion_energy": 1.83, 
			 "cosmo_total_nonelectrostatic_energy": 11.49, 
			 "SMD_solvation_energy": 3.98 
		},
		"coords": [
			{
				"x": -2.5247869866,
				"y": -1.1716743049,
				"z": -2.0329528877,
				"element": "Cl" 
			},
			{
				"x": -0.7979703048,
				"y": -1.5467448123,
				"z": -2.2330071684,
				"element": "C" 
			},
			{
				"x": 0.2050335677,
				"y": -0.7153652407,
				"z": -1.7025275243,
				"element": "C" 
			},
			{
				"x": 0.2222982631,
				"y": 0.4728109661,
				"z": -0.9853905685,
				"element": "N" 
			},
			{
				"x": -0.8882997502,
				"y": 1.2966065143,
				"z": -0.4902895066,
				"element": "C" 
			},
			{
				"x": -1.0882430718,
				"y": 1.2060086588,
				"z": 1.0118953439,
				"element": "C" 
			},
			{
				"x": -1.0105405387,
				"y": 2.3566486019,
				"z": 1.8033925759,
				"element": "C" 
			},
			{
				"x": -1.213672386,
				"y": 2.2877294551,
				"z": 3.1839310312,
				"element": "C" 
			},
			{
				"x": -1.4924627632,
				"y": 1.0614504767,
				"z": 3.786395238,
				"element": "C" 
			},
			{
				"x": -1.5708042593,
				"y": -0.0936417539,
				"z": 3.0029497135,
				"element": "C" 
			},
			{
				"x": -1.3724491435,
				"y": -0.0221681613,
				"z": 1.625318254,
				"element": "C" 
			},
			{
				"x": 1.5409339355,
				"y": 0.7991047892,
				"z": -0.7379485903,
				"element": "C" 
			},
			{
				"x": 2.3875307749,
				"y": -0.130632242,
				"z": -1.2796701207,
				"element": "C" 
			},
			{
				"x": 1.5636348005,
				"y": -1.1146564422,
				"z": -1.9054610936,
				"element": "C" 
			},
			{
				"x": 1.8278184246,
				"y": -2.2945292063,
				"z": -2.6207722851,
				"element": "C" 
			},
			{
				"x": 0.7464457435,
				"y": -3.0164192361,
				"z": -3.0910066279,
				"element": "C" 
			},
			{
				"x": -0.5395307307,
				"y": -2.6455533161,
				"z": -2.8954900627,
				"element": "N" 
			},
			{
				"x": -1.788686527,
				"y": 0.9883942496,
				"z": -1.0191822489,
				"element": "H" 
			},
			{
				"x": -0.6840074146,
				"y": 2.3341313739,
				"z": -0.7743985926,
				"element": "H" 
			},
			{
				"x": -0.7932536374,
				"y": 3.3151630627,
				"z": 1.3373438851,
				"element": "H" 
			},
			{
				"x": -1.150366834,
				"y": 3.1902541707,
				"z": 3.7850891225,
				"element": "H" 
			},
			{
				"x": -1.6486256413,
				"y": 1.003580943,
				"z": 4.859699187,
				"element": "H" 
			},
			{
				"x": -1.7907345316,
				"y": -1.0511358216,
				"z": 3.4662999586,
				"element": "H" 
			},
			{
				"x": -1.4387446819,
				"y": -0.9226796304,
				"z": 1.0213785093,
				"element": "H" 
			},
			{
				"x": 1.7670053094,
				"y": 1.693788148,
				"z": -0.1746759602,
				"element": "H" 
			},
			{
				"x": 3.4669071491,
				"y": -0.1148225507,
				"z": -1.2405259842,
				"element": "H" 
			},
			{
				"x": 2.8440535586,
				"y": -2.6313956694,
				"z": -2.7984812446,
				"element": "H" 
			},
			{
				"x": 0.8874176758,
				"y": -3.9373530221,
				"z": -3.6504123525,
				"element": "H" 
			}
		],
		 "valence_orbital": [ 
			{
				"type": "occ",
				"energy": -0.26389,
				"method": "rhf"
			},
			{
				"type": "occ",
				"energy": -0.25779,
				"method": "rhf"
			},
			{
				"type": "occ",
				"energy": -0.25487,
				"method": "rhf"
			},
			{
				"type": "occ",
				"energy": -0.24243,
				"method": "rhf"
			},
			{
				"type": "occ",
				"energy": -0.21965,
				"method": "rhf"
			},
			{
				"type": "unocc",
				"energy": -0.02946,
				"method": "rhf"
			},
			{
				"type": "unocc",
				"energy": -0.01427,
				"method": "rhf"
			},
			{
				"type": "unocc",
				"energy": -0.00871,
				"method": "rhf"
			},
			{
				"type": "unocc",
				"energy": 0.0063,
				"method": "rhf"
			},
			{
				"type": "unocc",
				"energy": 0.03468,
				"method": "rhf"
			}
		],
		"cosmo_sigma_profile": { 
			"-0.025": 0.0,
			"-0.024": 0.0,
			"-0.023": 0.0,
			"-0.022": 0.0,
			"-0.021": 0.0,
			"-0.02": 0.0,
			"-0.019": 0.0,
			"-0.018": 0.0,
			"-0.017": 0.0,
			"-0.016": 0.0,
			"-0.015": 0.0,
			"-0.014": 0.0,
			"-0.013": 0.0,
			"-0.012": 0.0,
			"-0.011": 0.0,
			"-0.01": 0.0,
			"-0.009": 0.5643532128,
			"-0.008": 2.57572049075,
			"-0.007": 8.28480308889,
			"-0.006": 15.0280578108,
			"-0.005": 19.7861528271,
			"-0.004": 24.5555686836,
			"-0.003": 20.4922987538,
			"-0.002": 17.5799537927,
			"-0.001": 18.1384733574,
			"0.0": 17.5500734333,
			"0.001": 21.0514950126,
			"0.002": 22.4620067978,
			"0.003": 24.9759064432,
			"0.004": 22.4235882034,
			"0.005": 17.2448210435,
			"0.006": 8.56349354095,
			"0.007": 1.48181141968,
			"0.008": 2.2000017886,
			"0.009": 2.12890278585,
			"0.01": 1.15447741834,
			"0.011": 0.519918832742,
			"0.012": 1.25186209034,
			"0.013": 1.1835804144,
			"0.014": 0.783916891064,
			"0.015": 0.783452220992,
			"0.016": 0.0365198211699,
			"0.017": 0.0,
			"0.018": 0.0,
			"0.019": 0.0,
			"0.02": 0.0,
			"0.021": 0.0,
			"0.022": 0.0,
			"0.023": 0.0,
			"0.024": 0.0,
			"0.025": 0.0
		}
	}
}
