{
	 "smiles": "CC1=CN(N=C1)C1=C(F)C=C(C=C1)S(N)(=O)=O", 
	 "Tm": 463.15, 
	 "num_atms": 27, 
	 "gaussian": { 
		 "optdone": 1, 
		 "sigma_profile": "yes", 
		 "theory": "DFT", 
		 "functional": "B3LYP", 
		 "basiset": "6-31G**", 
		 "properties": { 
			 "R2extent": 7095.6603, 
			 "electric_dipole_moment_norm": 3.55225733865, 
			 "electric_quadrupole_moment_norm": 25.083104224, 
			 "total_energy": -1199.72501471, 
			 "HOMO_LUMO_gap": 0.18028, 
			 "cosmo_polarized_energy": -15.97, 
			 "cosmo_cavitation_energy": 33.43, 
			 "cosmo_dispersion_energy": -25.1, 
			 "cosmo_repulsion_energy": 1.87, 
			 "cosmo_total_nonelectrostatic_energy": 10.2, 
			 "SMD_solvation_energy": 5.62 
		},
		"coords": [
			{
				"x": -5.0954716888,
				"y": -1.64501886,
				"z": -1.8933961319,
				"element": "C" 
			},
			{
				"x": -3.6978116212,
				"y": -1.3174643712,
				"z": -1.4606821732,
				"element": "C" 
			},
			{
				"x": -3.3001263172,
				"y": -0.6202037461,
				"z": -0.3430409049,
				"element": "C" 
			},
			{
				"x": -1.9238990639,
				"y": -0.567332854,
				"z": -0.3576870777,
				"element": "N" 
			},
			{
				"x": -1.4149353488,
				"y": -1.2051411965,
				"z": -1.4508033437,
				"element": "N" 
			},
			{
				"x": -2.4750607541,
				"y": -1.6531511483,
				"z": -2.1045321295,
				"element": "C" 
			},
			{
				"x": -1.0314552698,
				"y": 0.0552122771,
				"z": 0.5374545545,
				"element": "C" 
			},
			{
				"x": -1.432129986,
				"y": 0.5539722618,
				"z": 1.7869651442,
				"element": "C" 
			},
			{
				"x": -2.722633982,
				"y": 0.4494056207,
				"z": 2.1807914646,
				"element": "F" 
			},
			{
				"x": -0.5433609686,
				"y": 1.1654361076,
				"z": 2.6564468059,
				"element": "C" 
			},
			{
				"x": 0.792676052,
				"y": 1.2765368585,
				"z": 2.2788833133,
				"element": "C" 
			},
			{
				"x": 1.2297281228,
				"y": 0.7956730726,
				"z": 1.0434674943,
				"element": "C" 
			},
			{
				"x": 0.3212342529,
				"y": 0.191193376,
				"z": 0.1836053981,
				"element": "C" 
			},
			{
				"x": 1.9512247401,
				"y": 2.057507755,
				"z": 3.3971717882,
				"element": "S" 
			},
			{
				"x": 2.5787275482,
				"y": 0.7592178225,
				"z": 4.2876696429,
				"element": "N" 
			},
			{
				"x": 3.0504759539,
				"y": 2.5941859671,
				"z": 2.5904270734,
				"element": "O" 
			},
			{
				"x": 1.1773788069,
				"y": 2.8841229531,
				"z": 4.3281556668,
				"element": "O" 
			},
			{
				"x": -5.8305640156,
				"y": -1.2347044649,
				"z": -1.1957324423,
				"element": "H" 
			},
			{
				"x": -5.2570226227,
				"y": -2.7276707158,
				"z": -1.9463482098,
				"element": "H" 
			},
			{
				"x": -5.3153722863,
				"y": -1.2359642254,
				"z": -2.8859002302,
				"element": "H" 
			},
			{
				"x": -3.8748662631,
				"y": -0.1626859091,
				"z": 0.4430514016,
				"element": "H" 
			},
			{
				"x": -2.335538118,
				"y": -2.2096954596,
				"z": -3.0229004406,
				"element": "H" 
			},
			{
				"x": -0.9009446463,
				"y": 1.554656979,
				"z": 3.6023176554,
				"element": "H" 
			},
			{
				"x": 2.2665110393,
				"y": 0.9145969589,
				"z": 0.7507658527,
				"element": "H" 
			},
			{
				"x": 0.6304084653,
				"y": -0.189175002,
				"z": -0.7811046219,
				"element": "H" 
			},
			{
				"x": 2.3533113054,
				"y": 0.8853078771,
				"z": 5.2709353737,
				"element": "H" 
			},
			{
				"x": 3.5832166656,
				"y": 0.7055820662,
				"z": 4.1404190763,
				"element": "H" 
			}
		],
		 "valence_orbital": [ 
			{
				"type": "occ",
				"energy": -0.29723,
				"method": "rhf"
			},
			{
				"type": "occ",
				"energy": -0.29044,
				"method": "rhf"
			},
			{
				"type": "occ",
				"energy": -0.27297,
				"method": "rhf"
			},
			{
				"type": "occ",
				"energy": -0.25562,
				"method": "rhf"
			},
			{
				"type": "occ",
				"energy": -0.23365,
				"method": "rhf"
			},
			{
				"type": "unocc",
				"energy": -0.05337,
				"method": "rhf"
			},
			{
				"type": "unocc",
				"energy": -0.02324,
				"method": "rhf"
			},
			{
				"type": "unocc",
				"energy": 0.01621,
				"method": "rhf"
			},
			{
				"type": "unocc",
				"energy": 0.04708,
				"method": "rhf"
			},
			{
				"type": "unocc",
				"energy": 0.05877,
				"method": "rhf"
			}
		],
		"cosmo_sigma_profile": { 
			"-0.025": 0.0,
			"-0.024": 0.0,
			"-0.023": 0.0,
			"-0.022": 0.0,
			"-0.021": 0.0,
			"-0.02": 0.0,
			"-0.019": 0.0,
			"-0.018": 0.0,
			"-0.017": 0.0,
			"-0.016": 0.0356241710454,
			"-0.015": 1.47617650876,
			"-0.014": 2.05015660672,
			"-0.013": 1.99834067306,
			"-0.012": 3.00035358288,
			"-0.011": 2.75423039093,
			"-0.01": 0.995057302326,
			"-0.009": 2.43195398243,
			"-0.008": 4.19701606882,
			"-0.007": 9.24452376146,
			"-0.006": 8.39033677688,
			"-0.005": 13.1599061933,
			"-0.004": 16.5833521,
			"-0.003": 16.8114701717,
			"-0.002": 22.296796858,
			"-0.001": 24.5117001444,
			"0.0": 24.1827921585,
			"0.001": 21.4366602422,
			"0.002": 17.7206587093,
			"0.003": 15.1664064575,
			"0.004": 10.2233447586,
			"0.005": 5.79816133764,
			"0.006": 4.00158252241,
			"0.007": 5.67627604756,
			"0.008": 5.61711363789,
			"0.009": 5.06164566477,
			"0.01": 10.4073239175,
			"0.011": 10.0494383327,
			"0.012": 2.67678760749,
			"0.013": 0.139975936349,
			"0.014": 0.0,
			"0.015": 0.0,
			"0.016": 0.0,
			"0.017": 0.0,
			"0.018": 0.0,
			"0.019": 0.0,
			"0.02": 0.0,
			"0.021": 0.0,
			"0.022": 0.0,
			"0.023": 0.0,
			"0.024": 0.0,
			"0.025": 0.0
		}
	}
}
