{
	 "smiles": "NC1=NNC=C1Br", 
	 "Tm": 407.15, 
	 "num_atms": 11, 
	 "gaussian": { 
		 "optdone": 1, 
		 "sigma_profile": "yes", 
		 "theory": "DFT", 
		 "functional": "B3LYP", 
		 "basiset": "6-31G**", 
		 "properties": { 
			 "R2extent": 1606.6606, 
			 "electric_dipole_moment_norm": 1.90553365491, 
			 "electric_quadrupole_moment_norm": 14.6153656263, 
			 "total_energy": -2852.35868289, 
			 "HOMO_LUMO_gap": 0.22558, 
			 "cosmo_polarized_energy": -12.0, 
			 "cosmo_cavitation_energy": 17.54, 
			 "cosmo_dispersion_energy": -13.89, 
			 "cosmo_repulsion_energy": 1.19, 
			 "cosmo_total_nonelectrostatic_energy": 4.84, 
			 "SMD_solvation_energy": 1.31 
		},
		"coords": [
			{
				"x": 0.7683610712,
				"y": -0.7372941718,
				"z": -0.0953054915,
				"element": "N" 
			},
			{
				"x": -0.590951733,
				"y": -0.8114205197,
				"z": -0.3584411592,
				"element": "C" 
			},
			{
				"x": -1.141015605,
				"y": -1.8737262734,
				"z": -0.9456455915,
				"element": "N" 
			},
			{
				"x": -2.475425136,
				"y": -1.6016648938,
				"z": -0.9626971637,
				"element": "N" 
			},
			{
				"x": -2.7866654887,
				"y": -0.4041385037,
				"z": -0.4166608593,
				"element": "C" 
			},
			{
				"x": -1.5851994482,
				"y": 0.1422841675,
				"z": -0.0123603631,
				"element": "C" 
			},
			{
				"x": -1.3005473419,
				"y": 1.8123348857,
				"z": 0.8137924086,
				"element": "Br" 
			},
			{
				"x": 1.1332431029,
				"y": 0.2061769462,
				"z": -0.0990455598,
				"element": "H" 
			},
			{
				"x": 1.3146005597,
				"y": -1.3657744828,
				"z": -0.6696632482,
				"element": "H" 
			},
			{
				"x": -3.1031856006,
				"y": -2.2831294327,
				"z": -1.3561482585,
				"element": "H" 
			},
			{
				"x": -3.7960143804,
				"y": -0.0277477217,
				"z": -0.3514247137,
				"element": "H" 
			}
		],
		 "valence_orbital": [ 
			{
				"type": "occ",
				"energy": -0.31693,
				"method": "rhf"
			},
			{
				"type": "occ",
				"energy": -0.30488,
				"method": "rhf"
			},
			{
				"type": "occ",
				"energy": -0.27981,
				"method": "rhf"
			},
			{
				"type": "occ",
				"energy": -0.23577,
				"method": "rhf"
			},
			{
				"type": "occ",
				"energy": -0.20806,
				"method": "rhf"
			},
			{
				"type": "unocc",
				"energy": 0.01752,
				"method": "rhf"
			},
			{
				"type": "unocc",
				"energy": 0.01798,
				"method": "rhf"
			},
			{
				"type": "unocc",
				"energy": 0.07528,
				"method": "rhf"
			},
			{
				"type": "unocc",
				"energy": 0.08611,
				"method": "rhf"
			},
			{
				"type": "unocc",
				"energy": 0.10222,
				"method": "rhf"
			}
		],
		"cosmo_sigma_profile": { 
			"-0.025": 0.0,
			"-0.024": 0.0,
			"-0.023": 0.0,
			"-0.022": 0.0,
			"-0.021": 0.0,
			"-0.02": 0.0,
			"-0.019": 0.0,
			"-0.018": 0.0,
			"-0.017": 0.41342612142,
			"-0.016": 2.0104045159,
			"-0.015": 1.1930142239,
			"-0.014": 0.949548894518,
			"-0.013": 1.51896728302,
			"-0.012": 2.57123892167,
			"-0.011": 3.47656197965,
			"-0.01": 3.77566120847,
			"-0.009": 6.34730980691,
			"-0.008": 3.60935760386,
			"-0.007": 3.97298769606,
			"-0.006": 3.71029599449,
			"-0.005": 4.2438960603,
			"-0.004": 5.30997797111,
			"-0.003": 4.27830886756,
			"-0.002": 4.95036289106,
			"-0.001": 5.88756182629,
			"0.0": 6.85150196893,
			"0.001": 7.15558548172,
			"0.002": 9.0140416708,
			"0.003": 13.0112985509,
			"0.004": 17.8533781393,
			"0.005": 9.33701728376,
			"0.006": 3.17877633218,
			"0.007": 2.7536322375,
			"0.008": 2.35982813793,
			"0.009": 2.70245799219,
			"0.01": 1.9112141823,
			"0.011": 1.55933586719,
			"0.012": 1.86212919058,
			"0.013": 1.65565798436,
			"0.014": 1.57018100847,
			"0.015": 1.58393265103,
			"0.016": 0.649843028682,
			"0.017": 0.0,
			"0.018": 0.0,
			"0.019": 0.0,
			"0.02": 0.0,
			"0.021": 0.0,
			"0.022": 0.0,
			"0.023": 0.0,
			"0.024": 0.0,
			"0.025": 0.0
		}
	}
}
