{
	 "smiles": "CCOC(=O)N1C(=O)C2=C(C=CC=C2)C1=O", 
	 "Tm": 364.15, 
	 "num_atms": 25, 
	 "gaussian": { 
		 "optdone": 1, 
		 "sigma_profile": "yes", 
		 "theory": "DFT", 
		 "functional": "B3LYP", 
		 "basiset": "6-31G**", 
		 "properties": { 
			 "R2extent": 6064.2821, 
			 "electric_dipole_moment_norm": 3.61835983147, 
			 "electric_quadrupole_moment_norm": 27.1542643774, 
			 "total_energy": -780.275647847, 
			 "HOMO_LUMO_gap": 0.18536, 
			 "cosmo_polarized_energy": -15.4, 
			 "cosmo_cavitation_energy": 30.99, 
			 "cosmo_dispersion_energy": -22.11, 
			 "cosmo_repulsion_energy": 1.72, 
			 "cosmo_total_nonelectrostatic_energy": 10.6, 
			 "SMD_solvation_energy": 8.01 
		},
		"coords": [
			{
				"x": 3.2762469268,
				"y": -3.6132048772,
				"z": 0.7169735623,
				"element": "C" 
			},
			{
				"x": 1.9435918968,
				"y": -3.7509617754,
				"z": 1.4260040791,
				"element": "C" 
			},
			{
				"x": 0.9562725727,
				"y": -3.0604616927,
				"z": 0.6185104114,
				"element": "O" 
			},
			{
				"x": -0.2744779838,
				"y": -3.0172811564,
				"z": 1.13480543,
				"element": "C" 
			},
			{
				"x": -0.6451781572,
				"y": -3.5604689208,
				"z": 2.1457124941,
				"element": "O" 
			},
			{
				"x": -1.1263866991,
				"y": -2.2371641888,
				"z": 0.304884917,
				"element": "N" 
			},
			{
				"x": -0.7481823686,
				"y": -1.0623407772,
				"z": -0.4223187956,
				"element": "C" 
			},
			{
				"x": 0.3507574925,
				"y": -0.5619018184,
				"z": -0.461400238,
				"element": "O" 
			},
			{
				"x": -2.0022068295,
				"y": -0.5821629645,
				"z": -1.0646743041,
				"element": "C" 
			},
			{
				"x": -3.0513897743,
				"y": -1.4270286721,
				"z": -0.7081299293,
				"element": "C" 
			},
			{
				"x": -4.3454672734,
				"y": -1.2125267334,
				"z": -1.1649637552,
				"element": "C" 
			},
			{
				"x": -4.5579407369,
				"y": -0.1080384737,
				"z": -1.9977697664,
				"element": "C" 
			},
			{
				"x": -3.5024424336,
				"y": 0.743989701,
				"z": -2.3545725786,
				"element": "C" 
			},
			{
				"x": -2.2021555767,
				"y": 0.5178021252,
				"z": -1.8891829921,
				"element": "C" 
			},
			{
				"x": -2.5290481963,
				"y": -2.5060310637,
				"z": 0.1742151159,
				"element": "C" 
			},
			{
				"x": -3.1255699944,
				"y": -3.4382059993,
				"z": 0.6545636288,
				"element": "O" 
			},
			{
				"x": 4.0554846804,
				"y": -4.1164555011,
				"z": 1.2976390089,
				"element": "H" 
			},
			{
				"x": 3.2393896326,
				"y": -4.0673551405,
				"z": -0.2771514201,
				"element": "H" 
			},
			{
				"x": 3.549502224,
				"y": -2.5605414403,
				"z": 0.6056755363,
				"element": "H" 
			},
			{
				"x": 1.63527848,
				"y": -4.7951696682,
				"z": 1.5348747257,
				"element": "H" 
			},
			{
				"x": 1.9555974072,
				"y": -3.3007294554,
				"z": 2.4231526539,
				"element": "H" 
			},
			{
				"x": -5.1529447717,
				"y": -1.8789021823,
				"z": -0.879938654,
				"element": "H" 
			},
			{
				"x": -5.5557901654,
				"y": 0.095623821,
				"z": -2.3744294308,
				"element": "H" 
			},
			{
				"x": -3.7001422812,
				"y": 1.5921731869,
				"z": -3.0030805235,
				"element": "H" 
			},
			{
				"x": -1.3765980709,
				"y": 1.1688436674,
				"z": -2.1573991756,
				"element": "H" 
			}
		],
		 "valence_orbital": [ 
			{
				"type": "occ",
				"energy": -0.29631,
				"method": "rhf"
			},
			{
				"type": "occ",
				"energy": -0.28421,
				"method": "rhf"
			},
			{
				"type": "occ",
				"energy": -0.2829,
				"method": "rhf"
			},
			{
				"type": "occ",
				"energy": -0.27735,
				"method": "rhf"
			},
			{
				"type": "occ",
				"energy": -0.27312,
				"method": "rhf"
			},
			{
				"type": "unocc",
				"energy": -0.08776,
				"method": "rhf"
			},
			{
				"type": "unocc",
				"energy": -0.05351,
				"method": "rhf"
			},
			{
				"type": "unocc",
				"energy": 0.00841,
				"method": "rhf"
			},
			{
				"type": "unocc",
				"energy": 0.02291,
				"method": "rhf"
			},
			{
				"type": "unocc",
				"energy": 0.08015,
				"method": "rhf"
			}
		],
		"cosmo_sigma_profile": { 
			"-0.025": 0.0,
			"-0.024": 0.0,
			"-0.023": 0.0,
			"-0.022": 0.0,
			"-0.021": 0.0,
			"-0.02": 0.0,
			"-0.019": 0.0,
			"-0.018": 0.0,
			"-0.017": 0.0,
			"-0.016": 0.0,
			"-0.015": 0.0,
			"-0.014": 0.0,
			"-0.013": 0.0,
			"-0.012": 0.0,
			"-0.011": 0.0,
			"-0.01": 0.0,
			"-0.009": 0.0607128781421,
			"-0.008": 4.73446084701,
			"-0.007": 11.4861403224,
			"-0.006": 17.6881499909,
			"-0.005": 20.3050741541,
			"-0.004": 24.7497845919,
			"-0.003": 18.818392478,
			"-0.002": 19.2012897569,
			"-0.001": 21.960207718,
			"0.0": 18.8120954509,
			"0.001": 18.3754574491,
			"0.002": 11.1880235137,
			"0.003": 4.28062560857,
			"0.004": 5.25121623137,
			"0.005": 3.5182249621,
			"0.006": 4.27886809722,
			"0.007": 4.55126860384,
			"0.008": 4.9433113158,
			"0.009": 7.13967787077,
			"0.01": 12.1825903146,
			"0.011": 10.5452674633,
			"0.012": 2.24097244293,
			"0.013": 1.75808439776,
			"0.014": 0.367870556728,
			"0.015": 0.0,
			"0.016": 0.0,
			"0.017": 0.0,
			"0.018": 0.0,
			"0.019": 0.0,
			"0.02": 0.0,
			"0.021": 0.0,
			"0.022": 0.0,
			"0.023": 0.0,
			"0.024": 0.0,
			"0.025": 0.0
		}
	}
}
