{
	 "smiles": "CC(C)(C)OC(=O)NC(CC1=CC=C(Br)S1)C(O)=O", 
	 "Tm": 343.45, 
	 "num_atms": 35, 
	 "gaussian": { 
		 "optdone": 1, 
		 "sigma_profile": "yes", 
		 "theory": "DFT", 
		 "functional": "B3LYP", 
		 "basiset": "6-31G**", 
		 "properties": { 
			 "R2extent": 9890.4, 
			 "electric_dipole_moment_norm": 2.5283608445, 
			 "electric_quadrupole_moment_norm": 12.1592150018, 
			 "total_energy": -3792.18996937, 
			 "HOMO_LUMO_gap": 0.2018, 
			 "cosmo_polarized_energy": -17.06, 
			 "cosmo_cavitation_energy": 42.84, 
			 "cosmo_dispersion_energy": -28.49, 
			 "cosmo_repulsion_energy": 2.22, 
			 "cosmo_total_nonelectrostatic_energy": 16.57, 
			 "SMD_solvation_energy": 8.35 
		},
		"coords": [
			{
				"x": -3.1257690734,
				"y": -1.4212995846,
				"z": 1.1066100703,
				"element": "C" 
			},
			{
				"x": -1.8095736919,
				"y": -0.8552018911,
				"z": 1.6485719151,
				"element": "C" 
			},
			{
				"x": -2.0194887628,
				"y": 0.400810329,
				"z": 2.4995967708,
				"element": "C" 
			},
			{
				"x": -1.0366539465,
				"y": -1.9206735209,
				"z": 2.4293066799,
				"element": "C" 
			},
			{
				"x": -0.8961397135,
				"y": -0.5557791471,
				"z": 0.5285785035,
				"element": "O" 
			},
			{
				"x": -1.2163576325,
				"y": 0.3708142317,
				"z": -0.397112191,
				"element": "C" 
			},
			{
				"x": -2.2460590703,
				"y": 1.017577564,
				"z": -0.4573071809,
				"element": "O" 
			},
			{
				"x": -0.1829377768,
				"y": 0.5449534252,
				"z": -1.300009799,
				"element": "N" 
			},
			{
				"x": 0.9340821701,
				"y": -0.358534878,
				"z": -1.4870314393,
				"element": "C" 
			},
			{
				"x": 2.2257703096,
				"y": 0.4068002298,
				"z": -1.8568705196,
				"element": "C" 
			},
			{
				"x": 2.8197807255,
				"y": 1.2096697963,
				"z": -0.7362880454,
				"element": "C" 
			},
			{
				"x": 4.0924420784,
				"y": 1.1064641799,
				"z": -0.2380313921,
				"element": "C" 
			},
			{
				"x": 4.3896857786,
				"y": 2.0351211159,
				"z": 0.8058228419,
				"element": "C" 
			},
			{
				"x": 3.3232459443,
				"y": 2.8412861942,
				"z": 1.0810714786,
				"element": "C" 
			},
			{
				"x": 3.2377208228,
				"y": 4.2001959655,
				"z": 2.3878077982,
				"element": "Br" 
			},
			{
				"x": 1.9363790842,
				"y": 2.4786796014,
				"z": 0.0918692335,
				"element": "S" 
			},
			{
				"x": 0.6835547844,
				"y": -1.4695334035,
				"z": -2.5185451729,
				"element": "C" 
			},
			{
				"x": -0.6137412334,
				"y": -1.5822070788,
				"z": -2.8708584257,
				"element": "O" 
			},
			{
				"x": 1.5537255146,
				"y": -2.1880413278,
				"z": -2.9595322459,
				"element": "O" 
			},
			{
				"x": -3.667108183,
				"y": -0.6695176225,
				"z": 0.5320836454,
				"element": "H" 
			},
			{
				"x": -3.7535442284,
				"y": -1.7502210508,
				"z": 1.9410659563,
				"element": "H" 
			},
			{
				"x": -2.9315486962,
				"y": -2.2868955939,
				"z": 0.4653417781,
				"element": "H" 
			},
			{
				"x": -1.0560320672,
				"y": 0.8044482193,
				"z": 2.8260243414,
				"element": "H" 
			},
			{
				"x": -2.6009950442,
				"y": 0.1445718276,
				"z": 3.3911378002,
				"element": "H" 
			},
			{
				"x": -2.5534770899,
				"y": 1.1685159711,
				"z": 1.9392933986,
				"element": "H" 
			},
			{
				"x": -0.8465157208,
				"y": -2.7978802435,
				"z": 1.803749811,
				"element": "H" 
			},
			{
				"x": -1.6148663856,
				"y": -2.237907911,
				"z": 3.3020753504,
				"element": "H" 
			},
			{
				"x": -0.0765903127,
				"y": -1.5266164913,
				"z": 2.7750216454,
				"element": "H" 
			},
			{
				"x": -0.4758695976,
				"y": 1.0952299074,
				"z": -2.0965209849,
				"element": "H" 
			},
			{
				"x": 1.0957755249,
				"y": -0.8729104566,
				"z": -0.5360393525,
				"element": "H" 
			},
			{
				"x": 2.9672082656,
				"y": -0.3272941841,
				"z": -2.182236426,
				"element": "H" 
			},
			{
				"x": 2.0143041235,
				"y": 1.0458118751,
				"z": -2.7261809643,
				"element": "H" 
			},
			{
				"x": 4.809866747,
				"y": 0.3854242725,
				"z": -0.6157573716,
				"element": "H" 
			},
			{
				"x": 5.3393431026,
				"y": 2.0992336367,
				"z": 1.3217856534,
				"element": "H" 
			},
			{
				"x": -0.6617167492,
				"y": -2.3263939569,
				"z": -3.4950931609,
				"element": "H" 
			}
		],
		 "valence_orbital": [ 
			{
				"type": "occ",
				"energy": -0.29298,
				"method": "rhf"
			},
			{
				"type": "occ",
				"energy": -0.26748,
				"method": "rhf"
			},
			{
				"type": "occ",
				"energy": -0.26128,
				"method": "rhf"
			},
			{
				"type": "occ",
				"energy": -0.25421,
				"method": "rhf"
			},
			{
				"type": "occ",
				"energy": -0.22447,
				"method": "rhf"
			},
			{
				"type": "unocc",
				"energy": -0.02267,
				"method": "rhf"
			},
			{
				"type": "unocc",
				"energy": -0.00902,
				"method": "rhf"
			},
			{
				"type": "unocc",
				"energy": 0.00059,
				"method": "rhf"
			},
			{
				"type": "unocc",
				"energy": 0.02548,
				"method": "rhf"
			},
			{
				"type": "unocc",
				"energy": 0.04906,
				"method": "rhf"
			}
		],
		"cosmo_sigma_profile": { 
			"-0.025": 0.0,
			"-0.024": 0.0,
			"-0.023": 0.0,
			"-0.022": 0.0,
			"-0.021": 0.0,
			"-0.02": 0.0,
			"-0.019": 0.355583742695,
			"-0.018": 0.967660017942,
			"-0.017": 1.04465011997,
			"-0.016": 0.92470022439,
			"-0.015": 0.687998178947,
			"-0.014": 1.12180673125,
			"-0.013": 1.97548718619,
			"-0.012": 2.71759459738,
			"-0.011": 1.85672970753,
			"-0.01": 1.50207708428,
			"-0.009": 2.25473290067,
			"-0.008": 2.97805075541,
			"-0.007": 8.41087285369,
			"-0.006": 10.3523083084,
			"-0.005": 10.5885158332,
			"-0.004": 23.5418781097,
			"-0.003": 25.3802087366,
			"-0.002": 24.2460557205,
			"-0.001": 27.7277916543,
			"0.0": 36.4612996804,
			"0.001": 30.9350571911,
			"0.002": 28.6020665771,
			"0.003": 31.615383108,
			"0.004": 25.7529081266,
			"0.005": 8.14236247352,
			"0.006": 4.65433245239,
			"0.007": 4.14551661276,
			"0.008": 2.57565178165,
			"0.009": 2.97536158551,
			"0.01": 3.60615043531,
			"0.011": 6.1598518567,
			"0.012": 4.48509911435,
			"0.013": 3.29933484695,
			"0.014": 0.662586339602,
			"0.015": 0.0,
			"0.016": 0.0,
			"0.017": 0.0,
			"0.018": 0.0,
			"0.019": 0.0,
			"0.02": 0.0,
			"0.021": 0.0,
			"0.022": 0.0,
			"0.023": 0.0,
			"0.024": 0.0,
			"0.025": 0.0
		}
	}
}
