{
	 "smiles": "COC1=C(Cl)C(Cl)=CC(Cl)=C1Cl", 
	 "Tm": 361.65, 
	 "num_atms": 16, 
	 "gaussian": { 
		 "optdone": 1, 
		 "sigma_profile": "yes", 
		 "theory": "DFT", 
		 "functional": "B3LYP", 
		 "basiset": "6-31G**", 
		 "properties": { 
			 "R2extent": 3804.371, 
			 "electric_dipole_moment_norm": 1.57896743792, 
			 "electric_quadrupole_moment_norm": 7.33160896598, 
			 "total_energy": -2185.11663943, 
			 "HOMO_LUMO_gap": 0.21177, 
			 "cosmo_polarized_energy": -5.03, 
			 "cosmo_cavitation_energy": 27.29, 
			 "cosmo_dispersion_energy": -20.39, 
			 "cosmo_repulsion_energy": 1.63, 
			 "cosmo_total_nonelectrostatic_energy": 8.52, 
			 "SMD_solvation_energy": 4.51 
		},
		"coords": [
			{
				"x": 1.8108366411,
				"y": -0.5979244815,
				"z": 1.4871275167,
				"element": "C" 
			},
			{
				"x": 0.4446531193,
				"y": -0.1588059651,
				"z": 1.5768769337,
				"element": "O" 
			},
			{
				"x": -0.1304797742,
				"y": 0.2243072181,
				"z": 0.4073537376,
				"element": "C" 
			},
			{
				"x": -0.0797971855,
				"y": 1.571245437,
				"z": 0.0027244397,
				"element": "C" 
			},
			{
				"x": 0.7843721822,
				"y": 2.7076808998,
				"z": 0.99352772,
				"element": "Cl" 
			},
			{
				"x": -0.7341122485,
				"y": 1.9708818587,
				"z": -1.1698349198,
				"element": "C" 
			},
			{
				"x": -0.7017693147,
				"y": 3.6296826708,
				"z": -1.7045006398,
				"element": "Cl" 
			},
			{
				"x": -1.4307971511,
				"y": 1.0414273913,
				"z": -1.9385635876,
				"element": "C" 
			},
			{
				"x": -1.4854954103,
				"y": -0.2926543732,
				"z": -1.5417848798,
				"element": "C" 
			},
			{
				"x": -2.3765676024,
				"y": -1.4155794388,
				"z": -2.5335311404,
				"element": "Cl" 
			},
			{
				"x": -0.8371719949,
				"y": -0.7102863017,
				"z": -0.3721765989,
				"element": "C" 
			},
			{
				"x": -0.8990153532,
				"y": -2.3633589609,
				"z": 0.160278478,
				"element": "Cl" 
			},
			{
				"x": 1.8970619739,
				"y": -1.4765754207,
				"z": 0.8396256885,
				"element": "H" 
			},
			{
				"x": 2.1042290541,
				"y": -0.8628786455,
				"z": 2.5033562085,
				"element": "H" 
			},
			{
				"x": 2.4559676479,
				"y": 0.2054583981,
				"z": 1.1168324232,
				"element": "H" 
			},
			{
				"x": -1.9353145836,
				"y": 1.3574797137,
				"z": -2.8427113796,
				"element": "H" 
			}
		],
		 "valence_orbital": [ 
			{
				"type": "occ",
				"energy": -0.31991,
				"method": "rhf"
			},
			{
				"type": "occ",
				"energy": -0.31734,
				"method": "rhf"
			},
			{
				"type": "occ",
				"energy": -0.29921,
				"method": "rhf"
			},
			{
				"type": "occ",
				"energy": -0.26331,
				"method": "rhf"
			},
			{
				"type": "occ",
				"energy": -0.25545,
				"method": "rhf"
			},
			{
				"type": "unocc",
				"energy": -0.04368,
				"method": "rhf"
			},
			{
				"type": "unocc",
				"energy": -0.04058,
				"method": "rhf"
			},
			{
				"type": "unocc",
				"energy": -0.02895,
				"method": "rhf"
			},
			{
				"type": "unocc",
				"energy": 0.01468,
				"method": "rhf"
			},
			{
				"type": "unocc",
				"energy": 0.0354,
				"method": "rhf"
			}
		],
		"cosmo_sigma_profile": { 
			"-0.025": 0.0,
			"-0.024": 0.0,
			"-0.023": 0.0,
			"-0.022": 0.0,
			"-0.021": 0.0,
			"-0.02": 0.0,
			"-0.019": 0.0,
			"-0.018": 0.0,
			"-0.017": 0.0,
			"-0.016": 0.0,
			"-0.015": 0.0,
			"-0.014": 0.0,
			"-0.013": 0.0,
			"-0.012": 0.0,
			"-0.011": 0.0,
			"-0.01": 0.362810303103,
			"-0.009": 1.34133851938,
			"-0.008": 1.19439204727,
			"-0.007": 2.0690040308,
			"-0.006": 4.65508237155,
			"-0.005": 10.7632554656,
			"-0.004": 14.8558877648,
			"-0.003": 17.5671356573,
			"-0.002": 22.6250458622,
			"-0.001": 29.3149934787,
			"0.0": 22.6882441806,
			"0.001": 17.3631273336,
			"0.002": 22.971941378,
			"0.003": 29.0312486678,
			"0.004": 18.987053619,
			"0.005": 4.28260290791,
			"0.006": 1.67710900693,
			"0.007": 2.23984443781,
			"0.008": 1.5213947128,
			"0.009": 1.39050738815,
			"0.01": 1.12674330676,
			"0.011": 0.00918397595388,
			"0.012": 0.0,
			"0.013": 0.0,
			"0.014": 0.0,
			"0.015": 0.0,
			"0.016": 0.0,
			"0.017": 0.0,
			"0.018": 0.0,
			"0.019": 0.0,
			"0.02": 0.0,
			"0.021": 0.0,
			"0.022": 0.0,
			"0.023": 0.0,
			"0.024": 0.0,
			"0.025": 0.0
		}
	}
}
