{
	 "smiles": "BrCC(=O)C1=CC=C(C=C1)N1CCOCC1", 
	 "Tm": 387.15, 
	 "num_atms": 30, 
	 "gaussian": { 
		 "optdone": 1, 
		 "sigma_profile": "yes", 
		 "theory": "DFT", 
		 "functional": "B3LYP", 
		 "basiset": "6-31G**", 
		 "properties": { 
			 "R2extent": 10590.6324, 
			 "electric_dipole_moment_norm": 6.2365176509, 
			 "electric_quadrupole_moment_norm": 30.6476988668, 
			 "total_energy": -3242.291606, 
			 "HOMO_LUMO_gap": 0.16144, 
			 "cosmo_polarized_energy": -17.33, 
			 "cosmo_cavitation_energy": 34.52, 
			 "cosmo_dispersion_energy": -26.1, 
			 "cosmo_repulsion_energy": 2.02, 
			 "cosmo_total_nonelectrostatic_energy": 10.44, 
			 "SMD_solvation_energy": 4.02 
		},
		"coords": [
			{
				"x": -5.263702475,
				"y": 1.8336750552,
				"z": 4.0062537065,
				"element": "Br" 
			},
			{
				"x": -3.9641276179,
				"y": 1.416903279,
				"z": 2.6094132855,
				"element": "C" 
			},
			{
				"x": -2.6818829469,
				"y": 0.7643025372,
				"z": 3.1439504141,
				"element": "C" 
			},
			{
				"x": -2.5225136548,
				"y": 0.5402043648,
				"z": 4.3314456351,
				"element": "O" 
			},
			{
				"x": -1.6480078989,
				"y": 0.4232503336,
				"z": 2.1332155992,
				"element": "C" 
			},
			{
				"x": -0.4514874098,
				"y": -0.1659357071,
				"z": 2.5807158738,
				"element": "C" 
			},
			{
				"x": 0.5616394766,
				"y": -0.5098715796,
				"z": 1.7041189079,
				"element": "C" 
			},
			{
				"x": 0.4261239402,
				"y": -0.2825571487,
				"z": 0.3103827131,
				"element": "C" 
			},
			{
				"x": -0.7793379933,
				"y": 0.3089869615,
				"z": -0.1410453973,
				"element": "C" 
			},
			{
				"x": -1.7832267572,
				"y": 0.6517327786,
				"z": 0.7531232342,
				"element": "C" 
			},
			{
				"x": 1.4291573633,
				"y": -0.6234336401,
				"z": -0.5710143652,
				"element": "N" 
			},
			{
				"x": 2.5544594981,
				"y": -1.4685058192,
				"z": -0.1743172722,
				"element": "C" 
			},
			{
				"x": 3.0936374627,
				"y": -2.2179465892,
				"z": -1.3914412098,
				"element": "C" 
			},
			{
				"x": 3.5311776668,
				"y": -1.3579937549,
				"z": -2.4376872895,
				"element": "O" 
			},
			{
				"x": 2.8626296036,
				"y": -0.1032976035,
				"z": -2.4836552904,
				"element": "C" 
			},
			{
				"x": 1.4296487177,
				"y": -0.1606860571,
				"z": -1.9576293345,
				"element": "C" 
			},
			{
				"x": -3.7369447659,
				"y": 2.3564438153,
				"z": 2.1026838245,
				"element": "H" 
			},
			{
				"x": -4.4671133779,
				"y": 0.755465845,
				"z": 1.9016812539,
				"element": "H" 
			},
			{
				"x": -0.3359021636,
				"y": -0.335724286,
				"z": 3.6461559478,
				"element": "H" 
			},
			{
				"x": 1.477562453,
				"y": -0.9310928988,
				"z": 2.1012641209,
				"element": "H" 
			},
			{
				"x": -0.9437562143,
				"y": 0.4741263212,
				"z": -1.1990012224,
				"element": "H" 
			},
			{
				"x": -2.690076761,
				"y": 1.0947263773,
				"z": 0.3525455553,
				"element": "H" 
			},
			{
				"x": 3.3590822224,
				"y": -0.8833843662,
				"z": 0.2973583036,
				"element": "H" 
			},
			{
				"x": 2.2162430985,
				"y": -2.2095242065,
				"z": 0.5571664836,
				"element": "H" 
			},
			{
				"x": 2.3130427474,
				"y": -2.8987033142,
				"z": -1.7647576194,
				"element": "H" 
			},
			{
				"x": 3.9541086366,
				"y": -2.8270791864,
				"z": -1.0958986582,
				"element": "H" 
			},
			{
				"x": 2.8572917067,
				"y": 0.2178181628,
				"z": -3.530304916,
				"element": "H" 
			},
			{
				"x": 3.4242951634,
				"y": 0.646932639,
				"z": -1.9056927853,
				"element": "H" 
			},
			{
				"x": 1.008819637,
				"y": 0.8492028929,
				"z": -2.0073067849,
				"element": "H" 
			},
			{
				"x": 0.8152606426,
				"y": -0.8061352061,
				"z": -2.6046227138,
				"element": "H" 
			}
		],
		 "valence_orbital": [ 
			{
				"type": "occ",
				"energy": -0.26493,
				"method": "rhf"
			},
			{
				"type": "occ",
				"energy": -0.26455,
				"method": "rhf"
			},
			{
				"type": "occ",
				"energy": -0.26264,
				"method": "rhf"
			},
			{
				"type": "occ",
				"energy": -0.24997,
				"method": "rhf"
			},
			{
				"type": "occ",
				"energy": -0.2093,
				"method": "rhf"
			},
			{
				"type": "unocc",
				"energy": -0.04786,
				"method": "rhf"
			},
			{
				"type": "unocc",
				"energy": -0.01205,
				"method": "rhf"
			},
			{
				"type": "unocc",
				"energy": 0.00999,
				"method": "rhf"
			},
			{
				"type": "unocc",
				"energy": 0.04614,
				"method": "rhf"
			},
			{
				"type": "unocc",
				"energy": 0.06569,
				"method": "rhf"
			}
		],
		"cosmo_sigma_profile": { 
			"-0.025": 0.0,
			"-0.024": 0.0,
			"-0.023": 0.0,
			"-0.022": 0.0,
			"-0.021": 0.0,
			"-0.02": 0.0,
			"-0.019": 0.0,
			"-0.018": 0.0,
			"-0.017": 0.0,
			"-0.016": 0.0,
			"-0.015": 0.0,
			"-0.014": 0.0,
			"-0.013": 0.0,
			"-0.012": 0.0,
			"-0.011": 0.0,
			"-0.01": 0.0,
			"-0.009": 2.5415857337,
			"-0.008": 7.7532477684,
			"-0.007": 7.48684100683,
			"-0.006": 16.7672092786,
			"-0.005": 25.9883654682,
			"-0.004": 35.7610856231,
			"-0.003": 22.6383697391,
			"-0.002": 15.6297574309,
			"-0.001": 12.6670455163,
			"0.0": 12.0260424938,
			"0.001": 12.3762476103,
			"0.002": 12.7308661854,
			"0.003": 15.9878448726,
			"0.004": 16.6684375293,
			"0.005": 17.3443229924,
			"0.006": 12.0042218864,
			"0.007": 3.99083303524,
			"0.008": 3.3454226552,
			"0.009": 3.92212546953,
			"0.01": 2.85719469333,
			"0.011": 4.40057357374,
			"0.012": 5.95919009754,
			"0.013": 4.25516359542,
			"0.014": 1.08931099493,
			"0.015": 0.0,
			"0.016": 0.0,
			"0.017": 0.0,
			"0.018": 0.0,
			"0.019": 0.0,
			"0.02": 0.0,
			"0.021": 0.0,
			"0.022": 0.0,
			"0.023": 0.0,
			"0.024": 0.0,
			"0.025": 0.0
		}
	}
}
