{
	 "smiles": "CC(=O)NC1=C(C=CC=C1C)C(O)=O", 
	 "Tm": 478.15, 
	 "num_atms": 25, 
	 "gaussian": { 
		 "optdone": 1, 
		 "sigma_profile": "yes", 
		 "theory": "DFT", 
		 "functional": "B3LYP", 
		 "basiset": "6-31G**", 
		 "properties": { 
			 "R2extent": 3147.5129, 
			 "electric_dipole_moment_norm": 4.80583454043, 
			 "electric_quadrupole_moment_norm": 17.6542359101, 
			 "total_energy": -668.155542205, 
			 "HOMO_LUMO_gap": 0.17254, 
			 "cosmo_polarized_energy": -14.71, 
			 "cosmo_cavitation_energy": 28.48, 
			 "cosmo_dispersion_energy": -20.49, 
			 "cosmo_repulsion_energy": 1.61, 
			 "cosmo_total_nonelectrostatic_energy": 9.59, 
			 "SMD_solvation_energy": 6.9 
		},
		"coords": [
			{
				"x": -0.1694353711,
				"y": 0.0096892155,
				"z": 3.1478156945,
				"element": "C" 
			},
			{
				"x": -1.4680234437,
				"y": -0.51856173,
				"z": 2.5637858245,
				"element": "C" 
			},
			{
				"x": -2.5214835332,
				"y": -0.4198761791,
				"z": 3.1709051032,
				"element": "O" 
			},
			{
				"x": -1.4621127424,
				"y": -1.0908522904,
				"z": 1.2914820874,
				"element": "N" 
			},
			{
				"x": -0.4034469184,
				"y": -1.2040230449,
				"z": 0.3683615975,
				"element": "C" 
			},
			{
				"x": -0.517712447,
				"y": -0.6045960428,
				"z": -0.9175167074,
				"element": "C" 
			},
			{
				"x": 0.5407084238,
				"y": -0.6973741977,
				"z": -1.8319961953,
				"element": "C" 
			},
			{
				"x": 1.6994651771,
				"y": -1.3889624576,
				"z": -1.5014545328,
				"element": "C" 
			},
			{
				"x": 1.7838573516,
				"y": -2.024658992,
				"z": -0.2648855094,
				"element": "C" 
			},
			{
				"x": 0.7477047231,
				"y": -1.9656354431,
				"z": 0.6752958749,
				"element": "C" 
			},
			{
				"x": 0.8638574252,
				"y": -2.7735466906,
				"z": 1.946830285,
				"element": "C" 
			},
			{
				"x": -1.7688256653,
				"y": 0.0788646833,
				"z": -1.3317636578,
				"element": "C" 
			},
			{
				"x": -1.6162483412,
				"y": 0.8444198005,
				"z": -2.4386928802,
				"element": "O" 
			},
			{
				"x": -2.8564007123,
				"y": -0.020535665,
				"z": -0.7849985039,
				"element": "O" 
			},
			{
				"x": 0.1692293628,
				"y": -0.6545206778,
				"z": 3.9481917017,
				"element": "H" 
			},
			{
				"x": -0.3957365266,
				"y": 0.975426038,
				"z": 3.6047554827,
				"element": "H" 
			},
			{
				"x": 0.6329021754,
				"y": 0.1277896287,
				"z": 2.4181977651,
				"element": "H" 
			},
			{
				"x": -2.3854734918,
				"y": -1.0428250824,
				"z": 0.8671548756,
				"element": "H" 
			},
			{
				"x": 0.4361020028,
				"y": -0.227985537,
				"z": -2.8026810981,
				"element": "H" 
			},
			{
				"x": 2.5172798823,
				"y": -1.459252519,
				"z": -2.2114914157,
				"element": "H" 
			},
			{
				"x": 2.6663075886,
				"y": -2.6124765097,
				"z": -0.0243223821,
				"element": "H" 
			},
			{
				"x": 1.4094418384,
				"y": -3.7011946374,
				"z": 1.7513048582,
				"element": "H" 
			},
			{
				"x": 1.4090746658,
				"y": -2.2396363839,
				"z": 2.7326908466,
				"element": "H" 
			},
			{
				"x": -0.1205290122,
				"y": -3.0317320831,
				"z": 2.3442654489,
				"element": "H" 
			},
			{
				"x": -2.4985024117,
				"y": 1.2025567974,
				"z": -2.6318345632,
				"element": "H" 
			}
		],
		 "valence_orbital": [ 
			{
				"type": "occ",
				"energy": -0.29946,
				"method": "rhf"
			},
			{
				"type": "occ",
				"energy": -0.28461,
				"method": "rhf"
			},
			{
				"type": "occ",
				"energy": -0.26472,
				"method": "rhf"
			},
			{
				"type": "occ",
				"energy": -0.24848,
				"method": "rhf"
			},
			{
				"type": "occ",
				"energy": -0.23188,
				"method": "rhf"
			},
			{
				"type": "unocc",
				"energy": -0.05934,
				"method": "rhf"
			},
			{
				"type": "unocc",
				"energy": -0.01733,
				"method": "rhf"
			},
			{
				"type": "unocc",
				"energy": 0.02565,
				"method": "rhf"
			},
			{
				"type": "unocc",
				"energy": 0.04217,
				"method": "rhf"
			},
			{
				"type": "unocc",
				"energy": 0.07165,
				"method": "rhf"
			}
		],
		"cosmo_sigma_profile": { 
			"-0.025": 0.0,
			"-0.024": 0.0,
			"-0.023": 0.0,
			"-0.022": 0.0,
			"-0.021": 0.0,
			"-0.02": 0.0,
			"-0.019": 0.0954382370011,
			"-0.018": 1.18569403912,
			"-0.017": 0.544703201056,
			"-0.016": 1.09209453584,
			"-0.015": 0.678794289533,
			"-0.014": 0.515797681159,
			"-0.013": 0.379213679857,
			"-0.012": 0.527517686072,
			"-0.011": 0.973292506537,
			"-0.01": 0.834174807211,
			"-0.009": 0.305503477449,
			"-0.008": 0.83368080469,
			"-0.007": 2.80449267414,
			"-0.006": 10.5615311396,
			"-0.005": 16.632196815,
			"-0.004": 20.4075474468,
			"-0.003": 21.4678851554,
			"-0.002": 22.4305917066,
			"-0.001": 19.7576380061,
			"0.0": 16.07379371,
			"0.001": 13.933258777,
			"0.002": 14.0982514793,
			"0.003": 13.0093495877,
			"0.004": 9.33427747094,
			"0.005": 3.70331453983,
			"0.006": 4.00931158242,
			"0.007": 3.39193629801,
			"0.008": 3.67447289231,
			"0.009": 3.17185813761,
			"0.01": 4.06241831711,
			"0.011": 3.01239116857,
			"0.012": 3.35484469852,
			"0.013": 5.51559030051,
			"0.014": 3.34986691041,
			"0.015": 0.346513395382,
			"0.016": 0.0,
			"0.017": 0.0,
			"0.018": 0.0,
			"0.019": 0.0,
			"0.02": 0.0,
			"0.021": 0.0,
			"0.022": 0.0,
			"0.023": 0.0,
			"0.024": 0.0,
			"0.025": 0.0
		}
	}
}
