{
	 "smiles": "OC(=O)CC1=CC=C(NC(=O)C2=CC3=C(O2)C=CC=C3)C=C1", 
	 "Tm": 463.15, 
	 "num_atms": 35, 
	 "gaussian": { 
		 "optdone": 1, 
		 "sigma_profile": "yes", 
		 "theory": "DFT", 
		 "functional": "B3LYP", 
		 "basiset": "6-31G**", 
		 "properties": { 
			 "R2extent": 10078.5043, 
			 "electric_dipole_moment_norm": 4.29265945773, 
			 "electric_quadrupole_moment_norm": 29.4353926757, 
			 "total_energy": -1011.30703751, 
			 "HOMO_LUMO_gap": 0.16986, 
			 "cosmo_polarized_energy": -20.5, 
			 "cosmo_cavitation_energy": 41.15, 
			 "cosmo_dispersion_energy": -28.81, 
			 "cosmo_repulsion_energy": 2.22, 
			 "cosmo_total_nonelectrostatic_energy": 14.56, 
			 "SMD_solvation_energy": 8.81 
		},
		"coords": [
			{
				"x": -1.7167029638,
				"y": -4.5689931925,
				"z": 4.4598564767,
				"element": "O" 
			},
			{
				"x": -1.0247284038,
				"y": -3.4313835294,
				"z": 4.222098094,
				"element": "C" 
			},
			{
				"x": -1.3769595493,
				"y": -2.3490544434,
				"z": 4.6374106993,
				"element": "O" 
			},
			{
				"x": 0.2016753884,
				"y": -3.6775535919,
				"z": 3.3606232761,
				"element": "C" 
			},
			{
				"x": -0.0599518104,
				"y": -3.3054626726,
				"z": 1.9091547112,
				"element": "C" 
			},
			{
				"x": 0.0289684449,
				"y": -4.2641797505,
				"z": 0.8956007778,
				"element": "C" 
			},
			{
				"x": -0.1895848429,
				"y": -3.9183816781,
				"z": -0.4377388304,
				"element": "C" 
			},
			{
				"x": -0.5276469008,
				"y": -2.6040985036,
				"z": -0.7810385088,
				"element": "C" 
			},
			{
				"x": -0.7992728854,
				"y": -2.3021402333,
				"z": -2.1405362218,
				"element": "N" 
			},
			{
				"x": -0.545959774,
				"y": -1.1633070107,
				"z": -2.8873577348,
				"element": "C" 
			},
			{
				"x": -1.1768615848,
				"y": -0.9351003017,
				"z": -3.9103608832,
				"element": "O" 
			},
			{
				"x": 0.5790422205,
				"y": -0.2929110741,
				"z": -2.4674366942,
				"element": "C" 
			},
			{
				"x": 1.7332538157,
				"y": -0.5118127522,
				"z": -1.7699317493,
				"element": "C" 
			},
			{
				"x": 2.4923229298,
				"y": 0.7051293145,
				"z": -1.8476132924,
				"element": "C" 
			},
			{
				"x": 1.7012825537,
				"y": 1.5858616505,
				"z": -2.6126710632,
				"element": "C" 
			},
			{
				"x": 0.5436882279,
				"y": 0.9781056972,
				"z": -2.9947971076,
				"element": "O" 
			},
			{
				"x": 2.0774905008,
				"y": 2.8908537664,
				"z": -2.9162669706,
				"element": "C" 
			},
			{
				"x": 3.3116164541,
				"y": 3.3080280418,
				"z": -2.424333745,
				"element": "C" 
			},
			{
				"x": 4.1284487035,
				"y": 2.4497907834,
				"z": -1.6587465561,
				"element": "C" 
			},
			{
				"x": 3.7344584154,
				"y": 1.1504806225,
				"z": -1.3628292903,
				"element": "C" 
			},
			{
				"x": -0.6483662223,
				"y": -1.6434398055,
				"z": 0.2342793845,
				"element": "C" 
			},
			{
				"x": -0.4015160967,
				"y": -1.9911039467,
				"z": 1.5587171489,
				"element": "C" 
			},
			{
				"x": -2.4945405243,
				"y": -4.309495779,
				"z": 4.9829843945,
				"element": "H" 
			},
			{
				"x": 0.4996586684,
				"y": -4.7253144606,
				"z": 3.4355651544,
				"element": "H" 
			},
			{
				"x": 1.0042983592,
				"y": -3.0560239097,
				"z": 3.7707795506,
				"element": "H" 
			},
			{
				"x": 0.284235037,
				"y": -5.2906912274,
				"z": 1.1445959186,
				"element": "H" 
			},
			{
				"x": -0.0952528754,
				"y": -4.666591466,
				"z": -1.2195956962,
				"element": "H" 
			},
			{
				"x": -1.4478696774,
				"y": -2.9141402508,
				"z": -2.6213298241,
				"element": "H" 
			},
			{
				"x": 2.0086881392,
				"y": -1.4271222259,
				"z": -1.2681020274,
				"element": "H" 
			},
			{
				"x": 1.4394342914,
				"y": 3.5378990622,
				"z": -3.5077810429,
				"element": "H" 
			},
			{
				"x": 3.6536833045,
				"y": 4.3165580507,
				"z": -2.6360492539,
				"element": "H" 
			},
			{
				"x": 5.0835206379,
				"y": 2.8162671459,
				"z": -1.2946339479,
				"element": "H" 
			},
			{
				"x": 4.3681557247,
				"y": 0.4965075155,
				"z": -0.77143891,
				"element": "H" 
			},
			{
				"x": -0.9419984376,
				"y": -0.6297404111,
				"z": -0.0148571065,
				"element": "H" 
			},
			{
				"x": -0.5072092681,
				"y": -1.2434394339,
				"z": 2.3389808698,
				"element": "H" 
			}
		],
		 "valence_orbital": [ 
			{
				"type": "occ",
				"energy": -0.2656,
				"method": "rhf"
			},
			{
				"type": "occ",
				"energy": -0.2616,
				"method": "rhf"
			},
			{
				"type": "occ",
				"energy": -0.24222,
				"method": "rhf"
			},
			{
				"type": "occ",
				"energy": -0.23662,
				"method": "rhf"
			},
			{
				"type": "occ",
				"energy": -0.22392,
				"method": "rhf"
			},
			{
				"type": "unocc",
				"energy": -0.05406,
				"method": "rhf"
			},
			{
				"type": "unocc",
				"energy": -0.0206,
				"method": "rhf"
			},
			{
				"type": "unocc",
				"energy": -0.0174,
				"method": "rhf"
			},
			{
				"type": "unocc",
				"energy": 0.00416,
				"method": "rhf"
			},
			{
				"type": "unocc",
				"energy": 0.00912,
				"method": "rhf"
			}
		],
		"cosmo_sigma_profile": { 
			"-0.025": 0.0,
			"-0.024": 0.0,
			"-0.023": 0.0,
			"-0.022": 0.0,
			"-0.021": 0.0,
			"-0.02": 0.0,
			"-0.019": 0.035874285426,
			"-0.018": 0.690255887315,
			"-0.017": 1.02845742227,
			"-0.016": 0.939464091868,
			"-0.015": 0.748980821859,
			"-0.014": 2.11806168508,
			"-0.013": 1.81101550684,
			"-0.012": 1.21933584714,
			"-0.011": 1.40806733966,
			"-0.01": 2.79979053197,
			"-0.009": 1.23745884495,
			"-0.008": 2.15557971346,
			"-0.007": 10.3785156872,
			"-0.006": 22.4655629719,
			"-0.005": 24.4948369576,
			"-0.004": 24.5339991058,
			"-0.003": 19.2798871194,
			"-0.002": 19.8064678955,
			"-0.001": 19.0747740648,
			"0.0": 21.90694325,
			"0.001": 25.0755016582,
			"0.002": 25.5384911567,
			"0.003": 22.9545914135,
			"0.004": 22.1348537771,
			"0.005": 11.1294376062,
			"0.006": 4.12501768382,
			"0.007": 4.74286681797,
			"0.008": 4.19870323211,
			"0.009": 5.33856765637,
			"0.01": 4.37027665171,
			"0.011": 5.75860063987,
			"0.012": 8.28534845828,
			"0.013": 5.75077770581,
			"0.014": 1.76993546796,
			"0.015": 0.0716193283833,
			"0.016": 0.0,
			"0.017": 0.0,
			"0.018": 0.0,
			"0.019": 0.0,
			"0.02": 0.0,
			"0.021": 0.0,
			"0.022": 0.0,
			"0.023": 0.0,
			"0.024": 0.0,
			"0.025": 0.0
		}
	}
}
