{
	 "smiles": "OC(=O)C1=CC2=C(OCC(=O)N2)C=C1", 
	 "Tm": 502.15, 
	 "num_atms": 21, 
	 "gaussian": { 
		 "optdone": 1, 
		 "sigma_profile": "yes", 
		 "theory": "DFT", 
		 "functional": "B3LYP", 
		 "basiset": "6-31G**", 
		 "properties": { 
			 "R2extent": 4025.1356, 
			 "electric_dipole_moment_norm": 2.61109109186, 
			 "electric_quadrupole_moment_norm": 21.80139585, 
			 "total_energy": -702.835048222, 
			 "HOMO_LUMO_gap": 0.18256, 
			 "cosmo_polarized_energy": -22.27, 
			 "cosmo_cavitation_energy": 26.03, 
			 "cosmo_dispersion_energy": -19.62, 
			 "cosmo_repulsion_energy": 1.53, 
			 "cosmo_total_nonelectrostatic_energy": 7.94, 
			 "SMD_solvation_energy": 6.46 
		},
		"coords": [
			{
				"x": 2.0444529494,
				"y": -1.0320426293,
				"z": -1.3183672506,
				"element": "O" 
			},
			{
				"x": 1.5559135562,
				"y": 0.1917242738,
				"z": -0.9706562374,
				"element": "C" 
			},
			{
				"x": 2.2892854794,
				"y": 1.1518816432,
				"z": -0.9596333066,
				"element": "O" 
			},
			{
				"x": 0.1037546958,
				"y": 0.2603189004,
				"z": -0.6153997697,
				"element": "C" 
			},
			{
				"x": -0.6237552653,
				"y": -0.8588255636,
				"z": -0.1823374674,
				"element": "C" 
			},
			{
				"x": -1.9715571356,
				"y": -0.7365748613,
				"z": 0.1500339348,
				"element": "C" 
			},
			{
				"x": -2.5979949446,
				"y": 0.519871255,
				"z": 0.0600129376,
				"element": "C" 
			},
			{
				"x": -3.9278229404,
				"y": 0.64990473,
				"z": 0.3350026282,
				"element": "O" 
			},
			{
				"x": -4.4656822758,
				"y": -0.271537595,
				"z": 1.2893144928,
				"element": "C" 
			},
			{
				"x": -4.0015361399,
				"y": -1.7136993117,
				"z": 1.1074930512,
				"element": "C" 
			},
			{
				"x": -4.6654913274,
				"y": -2.666319764,
				"z": 1.4740252161,
				"element": "O" 
			},
			{
				"x": -2.7514586675,
				"y": -1.8326018038,
				"z": 0.5509451206,
				"element": "N" 
			},
			{
				"x": -1.8744601083,
				"y": 1.635707283,
				"z": -0.3573987388,
				"element": "C" 
			},
			{
				"x": -0.5292398031,
				"y": 1.5078665543,
				"z": -0.6887150666,
				"element": "C" 
			},
			{
				"x": 1.3160014925,
				"y": -1.647388226,
				"z": -1.478535007,
				"element": "H" 
			},
			{
				"x": -0.1451068543,
				"y": -1.827837846,
				"z": -0.0603583803,
				"element": "H" 
			},
			{
				"x": -5.5496125309,
				"y": -0.2424780078,
				"z": 1.1805542984,
				"element": "H" 
			},
			{
				"x": -4.2068931376,
				"y": 0.0479781766,
				"z": 2.3100032024,
				"element": "H" 
			},
			{
				"x": -2.3843946726,
				"y": -2.7729471889,
				"z": 0.4771309547,
				"element": "H" 
			},
			{
				"x": -2.3855599883,
				"y": 2.5905357235,
				"z": -0.4174567749,
				"element": "H" 
			},
			{
				"x": 0.0528576185,
				"y": 2.3669642576,
				"z": -1.0017578376,
				"element": "H" 
			}
		],
		 "valence_orbital": [ 
			{
				"type": "occ",
				"energy": -0.31747,
				"method": "rhf"
			},
			{
				"type": "occ",
				"energy": -0.28331,
				"method": "rhf"
			},
			{
				"type": "occ",
				"energy": -0.27548,
				"method": "rhf"
			},
			{
				"type": "occ",
				"energy": -0.26613,
				"method": "rhf"
			},
			{
				"type": "occ",
				"energy": -0.23673,
				"method": "rhf"
			},
			{
				"type": "unocc",
				"energy": -0.05417,
				"method": "rhf"
			},
			{
				"type": "unocc",
				"energy": -0.03787,
				"method": "rhf"
			},
			{
				"type": "unocc",
				"energy": 0.00318,
				"method": "rhf"
			},
			{
				"type": "unocc",
				"energy": 0.04581,
				"method": "rhf"
			},
			{
				"type": "unocc",
				"energy": 0.05686,
				"method": "rhf"
			}
		],
		"cosmo_sigma_profile": { 
			"-0.025": 0.0,
			"-0.024": 0.0,
			"-0.023": 0.0,
			"-0.022": 0.0,
			"-0.021": 0.0,
			"-0.02": 0.0,
			"-0.019": 0.150407458333,
			"-0.018": 1.08565000707,
			"-0.017": 0.745057054669,
			"-0.016": 2.36241024069,
			"-0.015": 2.66148555778,
			"-0.014": 1.83116280076,
			"-0.013": 2.14303561898,
			"-0.012": 3.28690926733,
			"-0.011": 2.70827296851,
			"-0.01": 2.12304286158,
			"-0.009": 3.04612450093,
			"-0.008": 7.86980834388,
			"-0.007": 8.44738811522,
			"-0.006": 9.39036844974,
			"-0.005": 9.87706410769,
			"-0.004": 10.6141320361,
			"-0.003": 9.35445505119,
			"-0.002": 9.53486663363,
			"-0.001": 12.1634725203,
			"0.0": 12.3809855735,
			"0.001": 13.5989467807,
			"0.002": 13.1908103242,
			"0.003": 10.206823067,
			"0.004": 5.83173320443,
			"0.005": 4.00916890435,
			"0.006": 3.825453654,
			"0.007": 5.1162803315,
			"0.008": 5.75059645216,
			"0.009": 5.23190196046,
			"0.01": 6.56612505141,
			"0.011": 7.98200403963,
			"0.012": 10.3398519843,
			"0.013": 4.8653167395,
			"0.014": 0.164447276405,
			"0.015": 0.0,
			"0.016": 0.0,
			"0.017": 0.0,
			"0.018": 0.0,
			"0.019": 0.0,
			"0.02": 0.0,
			"0.021": 0.0,
			"0.022": 0.0,
			"0.023": 0.0,
			"0.024": 0.0,
			"0.025": 0.0
		}
	}
}
