{
	 "smiles": "CC(OC1=CC(F)=C(F)C=C1)C(O)=O", 
	 "Tm": 313.15, 
	 "num_atms": 22, 
	 "gaussian": { 
		 "optdone": 1, 
		 "sigma_profile": "yes", 
		 "theory": "DFT", 
		 "functional": "B3LYP", 
		 "basiset": "6-31G**", 
		 "properties": { 
			 "R2extent": 3255.3249, 
			 "electric_dipole_moment_norm": 5.75818881941, 
			 "electric_quadrupole_moment_norm": 11.6157550491, 
			 "total_energy": -773.099521599, 
			 "HOMO_LUMO_gap": 0.22152, 
			 "cosmo_polarized_energy": -16.65, 
			 "cosmo_cavitation_energy": 27.55, 
			 "cosmo_dispersion_energy": -19.4, 
			 "cosmo_repulsion_energy": 1.49, 
			 "cosmo_total_nonelectrostatic_energy": 9.64, 
			 "SMD_solvation_energy": 6.98 
		},
		"coords": [
			{
				"x": -2.0085745926,
				"y": -0.1485311809,
				"z": -1.8077377124,
				"element": "C" 
			},
			{
				"x": -1.1207636796,
				"y": -1.4009363903,
				"z": -1.7846080992,
				"element": "C" 
			},
			{
				"x": -0.4770469055,
				"y": -1.6462236917,
				"z": -0.5414109092,
				"element": "O" 
			},
			{
				"x": -0.0575637714,
				"y": -0.6018159451,
				"z": 0.2644440325,
				"element": "C" 
			},
			{
				"x": 0.9893663668,
				"y": 0.2504477732,
				"z": -0.1070892739,
				"element": "C" 
			},
			{
				"x": 1.398492439,
				"y": 1.2301787359,
				"z": 0.7863823207,
				"element": "C" 
			},
			{
				"x": 2.3977608357,
				"y": 2.0664633513,
				"z": 0.4581665644,
				"element": "F" 
			},
			{
				"x": 0.7967605198,
				"y": 1.3610825308,
				"z": 2.0383319351,
				"element": "C" 
			},
			{
				"x": 1.2263846648,
				"y": 2.3215958803,
				"z": 2.8762412941,
				"element": "F" 
			},
			{
				"x": -0.2295765119,
				"y": 0.5040985384,
				"z": 2.409081028,
				"element": "C" 
			},
			{
				"x": -0.6632578423,
				"y": -0.4788437716,
				"z": 1.5173769826,
				"element": "C" 
			},
			{
				"x": -0.1170592268,
				"y": -1.383758938,
				"z": -2.9550772179,
				"element": "C" 
			},
			{
				"x": -0.6713917005,
				"y": -1.6242391156,
				"z": -4.1727011072,
				"element": "O" 
			},
			{
				"x": 1.0611688612,
				"y": -1.1572699089,
				"z": -2.8619818718,
				"element": "O" 
			},
			{
				"x": -2.5611808727,
				"y": -0.0871873314,
				"z": -2.7500962801,
				"element": "H" 
			},
			{
				"x": -2.7297344846,
				"y": -0.1883472613,
				"z": -0.9877016645,
				"element": "H" 
			},
			{
				"x": -1.4134645551,
				"y": 0.7613189199,
				"z": -1.7040562097,
				"element": "H" 
			},
			{
				"x": -1.7577765325,
				"y": -2.285437403,
				"z": -1.9257815566,
				"element": "H" 
			},
			{
				"x": 1.4853571715,
				"y": 0.1320960748,
				"z": -1.0623899999,
				"element": "H" 
			},
			{
				"x": -0.6806389952,
				"y": 0.6185971831,
				"z": 3.3887504296,
				"element": "H" 
			},
			{
				"x": -1.4607035636,
				"y": -1.16216204,
				"z": 1.7873373879,
				"element": "H" 
			},
			{
				"x": -1.6105576244,
				"y": -1.8436260098,
				"z": -4.0897800725,
				"element": "H" 
			}
		],
		 "valence_orbital": [ 
			{
				"type": "occ",
				"energy": -0.33143,
				"method": "rhf"
			},
			{
				"type": "occ",
				"energy": -0.31127,
				"method": "rhf"
			},
			{
				"type": "occ",
				"energy": -0.27925,
				"method": "rhf"
			},
			{
				"type": "occ",
				"energy": -0.26036,
				"method": "rhf"
			},
			{
				"type": "occ",
				"energy": -0.23682,
				"method": "rhf"
			},
			{
				"type": "unocc",
				"energy": -0.0153,
				"method": "rhf"
			},
			{
				"type": "unocc",
				"energy": -0.00876,
				"method": "rhf"
			},
			{
				"type": "unocc",
				"energy": -0.0022,
				"method": "rhf"
			},
			{
				"type": "unocc",
				"energy": 0.03421,
				"method": "rhf"
			},
			{
				"type": "unocc",
				"energy": 0.07162,
				"method": "rhf"
			}
		],
		"cosmo_sigma_profile": { 
			"-0.025": 0.0,
			"-0.024": 0.0,
			"-0.023": 0.0,
			"-0.022": 0.0,
			"-0.021": 0.0,
			"-0.02": 0.459764451207,
			"-0.019": 0.946306214174,
			"-0.018": 1.33628220311,
			"-0.017": 1.40856734994,
			"-0.016": 0.954378739714,
			"-0.015": 0.81929547444,
			"-0.014": 1.17288533313,
			"-0.013": 1.46446969923,
			"-0.012": 1.4801045117,
			"-0.011": 1.19894283318,
			"-0.01": 1.05667419728,
			"-0.009": 1.67592234621,
			"-0.008": 4.46545083697,
			"-0.007": 5.68982802176,
			"-0.006": 5.97894230877,
			"-0.005": 11.0817077122,
			"-0.004": 12.4109586018,
			"-0.003": 11.8795184972,
			"-0.002": 13.8388742502,
			"-0.001": 15.3577245881,
			"0.0": 17.9340436945,
			"0.001": 15.7784284583,
			"0.002": 14.5275264252,
			"0.003": 19.6471265437,
			"0.004": 22.6046175654,
			"0.005": 3.9695282408,
			"0.006": 3.42152505373,
			"0.007": 4.18600782499,
			"0.008": 4.66236474626,
			"0.009": 6.17937890248,
			"0.01": 7.17935837356,
			"0.011": 3.05426313983,
			"0.012": 1.89834630809,
			"0.013": 0.170284299826,
			"0.014": 0.0,
			"0.015": 0.0,
			"0.016": 0.0,
			"0.017": 0.0,
			"0.018": 0.0,
			"0.019": 0.0,
			"0.02": 0.0,
			"0.021": 0.0,
			"0.022": 0.0,
			"0.023": 0.0,
			"0.024": 0.0,
			"0.025": 0.0
		}
	}
}
