{
	 "smiles": "OCCOC1=CC2=C(NC(=O)CC2)C=C1", 
	 "Tm": 454.15, 
	 "num_atms": 28, 
	 "gaussian": { 
		 "optdone": 1, 
		 "sigma_profile": "yes", 
		 "theory": "DFT", 
		 "functional": "B3LYP", 
		 "basiset": "6-31G**", 
		 "properties": { 
			 "R2extent": 4980.5252, 
			 "electric_dipole_moment_norm": 3.72823843926, 
			 "electric_quadrupole_moment_norm": 26.6507885437, 
			 "total_energy": -707.433798313, 
			 "HOMO_LUMO_gap": 0.1891, 
			 "cosmo_polarized_energy": -19.46, 
			 "cosmo_cavitation_energy": 31.41, 
			 "cosmo_dispersion_energy": -23.24, 
			 "cosmo_repulsion_energy": 1.85, 
			 "cosmo_total_nonelectrostatic_energy": 10.02, 
			 "SMD_solvation_energy": 5.73 
		},
		"coords": [
			{
				"x": -5.1105358133,
				"y": -1.3315582694,
				"z": 2.4938810358,
				"element": "O" 
			},
			{
				"x": -4.3945423069,
				"y": -2.0906632018,
				"z": 1.5395617765,
				"element": "C" 
			},
			{
				"x": -2.9778450959,
				"y": -1.592804296,
				"z": 1.2874450288,
				"element": "C" 
			},
			{
				"x": -3.0505516852,
				"y": -0.291518529,
				"z": 0.7296077353,
				"element": "O" 
			},
			{
				"x": -1.8872822361,
				"y": 0.3711633898,
				"z": 0.4507860233,
				"element": "C" 
			},
			{
				"x": -0.6037075913,
				"y": -0.1565092781,
				"z": 0.6328648998,
				"element": "C" 
			},
			{
				"x": 0.5294616866,
				"y": 0.6011041616,
				"z": 0.3195395972,
				"element": "C" 
			},
			{
				"x": 0.3723256673,
				"y": 1.8934612344,
				"z": -0.2006955977,
				"element": "C" 
			},
			{
				"x": 1.5182110574,
				"y": 2.651133628,
				"z": -0.5174723294,
				"element": "N" 
			},
			{
				"x": 2.7885885506,
				"y": 2.1466790946,
				"z": -0.7013468965,
				"element": "C" 
			},
			{
				"x": 3.7257068707,
				"y": 2.8654506178,
				"z": -1.0131199841,
				"element": "O" 
			},
			{
				"x": 2.8955065198,
				"y": 0.6379324495,
				"z": -0.5209036355,
				"element": "C" 
			},
			{
				"x": 1.9372348805,
				"y": 0.1016841442,
				"z": 0.5531440455,
				"element": "C" 
			},
			{
				"x": -0.9120060902,
				"y": 2.4205876712,
				"z": -0.3857865815,
				"element": "C" 
			},
			{
				"x": -2.0327575566,
				"y": 1.6695770949,
				"z": -0.056761334,
				"element": "C" 
			},
			{
				"x": -4.6444940051,
				"y": -1.3889302215,
				"z": 3.3381627531,
				"element": "H" 
			},
			{
				"x": -4.9667875766,
				"y": -2.0239683748,
				"z": 0.6093076555,
				"element": "H" 
			},
			{
				"x": -4.3333759018,
				"y": -3.1563434592,
				"z": 1.8173562522,
				"element": "H" 
			},
			{
				"x": -2.4065644099,
				"y": -1.5754096038,
				"z": 2.2301950598,
				"element": "H" 
			},
			{
				"x": -2.4647578257,
				"y": -2.2846816119,
				"z": 0.6012711241,
				"element": "H" 
			},
			{
				"x": -0.4636691658,
				"y": -1.1580910676,
				"z": 1.0242594034,
				"element": "H" 
			},
			{
				"x": 1.4179133889,
				"y": 3.6381315168,
				"z": -0.7163038509,
				"element": "H" 
			},
			{
				"x": 3.9389015938,
				"y": 0.407533509,
				"z": -0.2967700228,
				"element": "H" 
			},
			{
				"x": 2.6606428539,
				"y": 0.1807337013,
				"z": -1.4920203769,
				"element": "H" 
			},
			{
				"x": 2.281663666,
				"y": 0.4401324384,
				"z": 1.5415503649,
				"element": "H" 
			},
			{
				"x": 1.9617574691,
				"y": -0.9926246626,
				"z": 0.5743716993,
				"element": "H" 
			},
			{
				"x": -1.0320221719,
				"y": 3.4216515879,
				"z": -0.7918907857,
				"element": "H" 
			},
			{
				"x": -3.0332147722,
				"y": 2.065746336,
				"z": -0.1931330595,
				"element": "H" 
			}
		],
		 "valence_orbital": [ 
			{
				"type": "occ",
				"energy": -0.28074,
				"method": "rhf"
			},
			{
				"type": "occ",
				"energy": -0.2766,
				"method": "rhf"
			},
			{
				"type": "occ",
				"energy": -0.25394,
				"method": "rhf"
			},
			{
				"type": "occ",
				"energy": -0.24826,
				"method": "rhf"
			},
			{
				"type": "occ",
				"energy": -0.2011,
				"method": "rhf"
			},
			{
				"type": "unocc",
				"energy": -0.012,
				"method": "rhf"
			},
			{
				"type": "unocc",
				"energy": -0.00139,
				"method": "rhf"
			},
			{
				"type": "unocc",
				"energy": 0.04265,
				"method": "rhf"
			},
			{
				"type": "unocc",
				"energy": 0.06718,
				"method": "rhf"
			},
			{
				"type": "unocc",
				"energy": 0.08727,
				"method": "rhf"
			}
		],
		"cosmo_sigma_profile": { 
			"-0.025": 0.0,
			"-0.024": 0.0,
			"-0.023": 0.0,
			"-0.022": 0.0,
			"-0.021": 0.0,
			"-0.02": 0.0,
			"-0.019": 0.0,
			"-0.018": 0.0,
			"-0.017": 0.0,
			"-0.016": 0.371203674536,
			"-0.015": 1.13690104098,
			"-0.014": 2.24235864564,
			"-0.013": 2.55552098327,
			"-0.012": 1.56827042815,
			"-0.011": 2.60132851524,
			"-0.01": 2.16649029857,
			"-0.009": 2.01400382481,
			"-0.008": 2.37946329841,
			"-0.007": 3.9238698073,
			"-0.006": 11.2557100834,
			"-0.005": 27.2529577021,
			"-0.004": 26.0427721422,
			"-0.003": 20.6946294156,
			"-0.002": 17.5324649206,
			"-0.001": 13.274966875,
			"0.0": 10.8058839366,
			"0.001": 9.9222325501,
			"0.002": 10.2682248001,
			"0.003": 11.1307684289,
			"0.004": 12.190957108,
			"0.005": 12.961452272,
			"0.006": 5.04787267327,
			"0.007": 3.91375069003,
			"0.008": 3.00176459833,
			"0.009": 3.46778986918,
			"0.01": 3.76158726057,
			"0.011": 2.90821034341,
			"0.012": 4.12784067249,
			"0.013": 7.62850190188,
			"0.014": 7.3162430685,
			"0.015": 1.70328403987,
			"0.016": 0.0,
			"0.017": 0.0,
			"0.018": 0.0,
			"0.019": 0.0,
			"0.02": 0.0,
			"0.021": 0.0,
			"0.022": 0.0,
			"0.023": 0.0,
			"0.024": 0.0,
			"0.025": 0.0
		}
	}
}
