{
	 "smiles": "OC(=O)CCCC=C", 
	 "Tm": 236.15, 
	 "num_atms": 18, 
	 "gaussian": { 
		 "optdone": 1, 
		 "sigma_profile": "yes", 
		 "theory": "DFT", 
		 "functional": "B3LYP", 
		 "basiset": "6-31G**", 
		 "properties": { 
			 "R2extent": 2301.4076, 
			 "electric_dipole_moment_norm": 4.49832246287, 
			 "electric_quadrupole_moment_norm": 15.9723353477, 
			 "total_energy": -385.101230901, 
			 "HOMO_LUMO_gap": 0.26524, 
			 "cosmo_polarized_energy": -13.73, 
			 "cosmo_cavitation_energy": 21.9, 
			 "cosmo_dispersion_energy": -15.32, 
			 "cosmo_repulsion_energy": 1.31, 
			 "cosmo_total_nonelectrostatic_energy": 7.89, 
			 "SMD_solvation_energy": 5.35 
		},
		"coords": [
			{
				"x": -3.3143901396,
				"y": -1.7636742879,
				"z": -0.0303656662,
				"element": "O" 
			},
			{
				"x": -2.0015566843,
				"y": -1.4838188714,
				"z": -0.2784878598,
				"element": "C" 
			},
			{
				"x": -1.249497598,
				"y": -2.3715058904,
				"z": -0.5918345684,
				"element": "O" 
			},
			{
				"x": -1.5990978575,
				"y": -0.0267840983,
				"z": -0.1073852775,
				"element": "C" 
			},
			{
				"x": -1.6823703015,
				"y": 0.4536514976,
				"z": 1.3550840278,
				"element": "C" 
			},
			{
				"x": -1.2956446858,
				"y": 1.9382892353,
				"z": 1.5200619166,
				"element": "C" 
			},
			{
				"x": -2.2721367736,
				"y": 2.8842416983,
				"z": 0.8742093191,
				"element": "C" 
			},
			{
				"x": -1.9908227769,
				"y": 3.724940375,
				"z": -0.1222974018,
				"element": "C" 
			},
			{
				"x": -3.7946992072,
				"y": -0.9510511045,
				"z": 0.1813849475,
				"element": "H" 
			},
			{
				"x": -2.2349331431,
				"y": 0.6066853285,
				"z": -0.7398758119,
				"element": "H" 
			},
			{
				"x": -0.5745806855,
				"y": 0.0657497065,
				"z": -0.4752793843,
				"element": "H" 
			},
			{
				"x": -2.697228897,
				"y": 0.3020388581,
				"z": 1.7487484237,
				"element": "H" 
			},
			{
				"x": -1.0209037776,
				"y": -0.1643014853,
				"z": 1.9726580292,
				"element": "H" 
			},
			{
				"x": -1.238509172,
				"y": 2.1567608684,
				"z": 2.5952788568,
				"element": "H" 
			},
			{
				"x": -0.2910943028,
				"y": 2.1032618224,
				"z": 1.1115690282,
				"element": "H" 
			},
			{
				"x": -3.2893034589,
				"y": 2.8566959957,
				"z": 1.2703853236,
				"element": "H" 
			},
			{
				"x": -0.9916811661,
				"y": 3.7910550438,
				"z": -0.5469660862,
				"element": "H" 
			},
			{
				"x": -2.7430493726,
				"y": 4.3855653081,
				"z": -0.5432878163,
				"element": "H" 
			}
		],
		 "valence_orbital": [ 
			{
				"type": "occ",
				"energy": -0.35596,
				"method": "rhf"
			},
			{
				"type": "occ",
				"energy": -0.34439,
				"method": "rhf"
			},
			{
				"type": "occ",
				"energy": -0.31099,
				"method": "rhf"
			},
			{
				"type": "occ",
				"energy": -0.26959,
				"method": "rhf"
			},
			{
				"type": "occ",
				"energy": -0.26392,
				"method": "rhf"
			},
			{
				"type": "unocc",
				"energy": 0.00132,
				"method": "rhf"
			},
			{
				"type": "unocc",
				"energy": 0.01719,
				"method": "rhf"
			},
			{
				"type": "unocc",
				"energy": 0.0495,
				"method": "rhf"
			},
			{
				"type": "unocc",
				"energy": 0.09768,
				"method": "rhf"
			},
			{
				"type": "unocc",
				"energy": 0.10408,
				"method": "rhf"
			}
		],
		"cosmo_sigma_profile": { 
			"-0.025": 0.0,
			"-0.024": 0.0,
			"-0.023": 0.0,
			"-0.022": 0.0,
			"-0.021": 0.0,
			"-0.02": 0.0,
			"-0.019": 0.0,
			"-0.018": 0.666698677591,
			"-0.017": 0.891136840503,
			"-0.016": 1.24032173501,
			"-0.015": 1.13771102217,
			"-0.014": 0.94156700689,
			"-0.013": 1.308651736,
			"-0.012": 0.879538042408,
			"-0.011": 1.2352100764,
			"-0.01": 1.01271894734,
			"-0.009": 0.934107654059,
			"-0.008": 1.44325274603,
			"-0.007": 1.441770301,
			"-0.006": 2.19746010603,
			"-0.005": 6.69947147041,
			"-0.004": 19.1004561201,
			"-0.003": 23.1727123571,
			"-0.002": 19.512589541,
			"-0.001": 14.4805163141,
			"0.0": 10.6821708246,
			"0.001": 6.8898284874,
			"0.002": 7.41641674627,
			"0.003": 5.74293512056,
			"0.004": 5.46585897393,
			"0.005": 4.78492591788,
			"0.006": 3.97265628448,
			"0.007": 2.74572560994,
			"0.008": 2.67041239761,
			"0.009": 3.03131126098,
			"0.01": 4.2732427186,
			"0.011": 5.70013979301,
			"0.012": 6.06111269346,
			"0.013": 3.40685569745,
			"0.014": 0.289883598692,
			"0.015": 0.0,
			"0.016": 0.0,
			"0.017": 0.0,
			"0.018": 0.0,
			"0.019": 0.0,
			"0.02": 0.0,
			"0.021": 0.0,
			"0.022": 0.0,
			"0.023": 0.0,
			"0.024": 0.0,
			"0.025": 0.0
		}
	}
}
