{
	 "smiles": "CCCCOC1=CC=C(CO)C=C1", 
	 "Tm": 303.65, 
	 "num_atms": 29, 
	 "gaussian": { 
		 "optdone": 1, 
		 "sigma_profile": "yes", 
		 "theory": "DFT", 
		 "functional": "B3LYP", 
		 "basiset": "6-31G**", 
		 "properties": { 
			 "R2extent": 3695.8847, 
			 "electric_dipole_moment_norm": 1.87445166916, 
			 "electric_quadrupole_moment_norm": 10.9943934203, 
			 "total_energy": -579.251890508, 
			 "HOMO_LUMO_gap": 0.2101, 
			 "cosmo_polarized_energy": -8.76, 
			 "cosmo_cavitation_energy": 31.31, 
			 "cosmo_dispersion_energy": -22.28, 
			 "cosmo_repulsion_energy": 1.8, 
			 "cosmo_total_nonelectrostatic_energy": 10.83, 
			 "SMD_solvation_energy": 5.37 
		},
		"coords": [
			{
				"x": -2.0081650875,
				"y": 1.4905407885,
				"z": -3.1575181168,
				"element": "C" 
			},
			{
				"x": -2.2111850741,
				"y": 2.7402932903,
				"z": -2.2923459281,
				"element": "C" 
			},
			{
				"x": -1.8205435493,
				"y": 2.5829125183,
				"z": -0.8126700982,
				"element": "C" 
			},
			{
				"x": -0.3188579611,
				"y": 2.4450262926,
				"z": -0.5401596021,
				"element": "C" 
			},
			{
				"x": 0.2478291199,
				"y": 1.2061768219,
				"z": -0.9782621412,
				"element": "O" 
			},
			{
				"x": 0.13115559,
				"y": 0.0893185197,
				"z": -0.1988815931,
				"element": "C" 
			},
			{
				"x": 0.7222188957,
				"y": -1.0715102913,
				"z": -0.720672316,
				"element": "C" 
			},
			{
				"x": 0.6741530059,
				"y": -2.263044644,
				"z": -0.007121162,
				"element": "C" 
			},
			{
				"x": 0.047731014,
				"y": -2.3346165665,
				"z": 1.2451422791,
				"element": "C" 
			},
			{
				"x": 0.0261961382,
				"y": -3.6243272017,
				"z": 2.0406433398,
				"element": "C" 
			},
			{
				"x": -1.1548109271,
				"y": -3.7964912151,
				"z": 2.8149405554,
				"element": "O" 
			},
			{
				"x": -0.5413751209,
				"y": -1.1736700925,
				"z": 1.7523832926,
				"element": "C" 
			},
			{
				"x": -0.5113061004,
				"y": 0.0307182528,
				"z": 1.0451298097,
				"element": "C" 
			},
			{
				"x": -0.9568613688,
				"y": 1.1963793822,
				"z": -3.1978725371,
				"element": "H" 
			},
			{
				"x": -2.3558439346,
				"y": 1.6668169678,
				"z": -4.1810356279,
				"element": "H" 
			},
			{
				"x": -2.5721158907,
				"y": 0.640461528,
				"z": -2.7565261743,
				"element": "H" 
			},
			{
				"x": -1.6469092281,
				"y": 3.5804836459,
				"z": -2.7209997223,
				"element": "H" 
			},
			{
				"x": -3.2672970116,
				"y": 3.0360841234,
				"z": -2.3344512583,
				"element": "H" 
			},
			{
				"x": -2.3524781779,
				"y": 1.7291248124,
				"z": -0.3750204097,
				"element": "H" 
			},
			{
				"x": -2.1591139911,
				"y": 3.4712491571,
				"z": -0.2618288539,
				"element": "H" 
			},
			{
				"x": 0.2325091701,
				"y": 3.2087731993,
				"z": -1.0987813384,
				"element": "H" 
			},
			{
				"x": -0.099740611,
				"y": 2.5977537356,
				"z": 0.5242376527,
				"element": "H" 
			},
			{
				"x": 1.2085912008,
				"y": -1.0131514922,
				"z": -1.6890569541,
				"element": "H" 
			},
			{
				"x": 1.1312775809,
				"y": -3.1542847366,
				"z": -0.4316911929,
				"element": "H" 
			},
			{
				"x": 0.8448481297,
				"y": -3.6392802217,
				"z": 2.7707497132,
				"element": "H" 
			},
			{
				"x": 0.1928728883,
				"y": -4.4771719125,
				"z": 1.3628287257,
				"element": "H" 
			},
			{
				"x": -1.9052943854,
				"y": -3.7254359343,
				"z": 2.2096847701,
				"element": "H" 
			},
			{
				"x": -1.0430908508,
				"y": -1.2175622614,
				"z": 2.7146326746,
				"element": "H" 
			},
			{
				"x": -0.9902934629,
				"y": 0.9044335339,
				"z": 1.4706222135,
				"element": "H" 
			}
		],
		 "valence_orbital": [ 
			{
				"type": "occ",
				"energy": -0.31194,
				"method": "rhf"
			},
			{
				"type": "occ",
				"energy": -0.30374,
				"method": "rhf"
			},
			{
				"type": "occ",
				"energy": -0.26979,
				"method": "rhf"
			},
			{
				"type": "occ",
				"energy": -0.24928,
				"method": "rhf"
			},
			{
				"type": "occ",
				"energy": -0.21192,
				"method": "rhf"
			},
			{
				"type": "unocc",
				"energy": -0.00182,
				"method": "rhf"
			},
			{
				"type": "unocc",
				"energy": 0.01004,
				"method": "rhf"
			},
			{
				"type": "unocc",
				"energy": 0.08756,
				"method": "rhf"
			},
			{
				"type": "unocc",
				"energy": 0.09161,
				"method": "rhf"
			},
			{
				"type": "unocc",
				"energy": 0.10081,
				"method": "rhf"
			}
		],
		"cosmo_sigma_profile": { 
			"-0.025": 0.0,
			"-0.024": 0.0,
			"-0.023": 0.0,
			"-0.022": 0.0,
			"-0.021": 0.0,
			"-0.02": 0.0,
			"-0.019": 0.0,
			"-0.018": 0.0,
			"-0.017": 0.0,
			"-0.016": 0.0371116222459,
			"-0.015": 0.792693415602,
			"-0.014": 0.842985410023,
			"-0.013": 0.633361808182,
			"-0.012": 0.946458350069,
			"-0.011": 1.01928454839,
			"-0.01": 0.457777361739,
			"-0.009": 0.199408751402,
			"-0.008": 0.894587755287,
			"-0.007": 1.27776173466,
			"-0.006": 5.19338926101,
			"-0.005": 13.1954948217,
			"-0.004": 20.1521619251,
			"-0.003": 24.8869131582,
			"-0.002": 27.5235176371,
			"-0.001": 24.8976759783,
			"0.0": 23.540299936,
			"0.001": 22.5364214971,
			"0.002": 16.3551047309,
			"0.003": 12.0032480001,
			"0.004": 12.2581034302,
			"0.005": 10.2778618491,
			"0.006": 9.65070547371,
			"0.007": 2.71196121066,
			"0.008": 2.11754360076,
			"0.009": 1.62439739107,
			"0.01": 1.80762317897,
			"0.011": 1.90303598989,
			"0.012": 1.1394032848,
			"0.013": 1.72145772375,
			"0.014": 2.0740220411,
			"0.015": 0.320211442936,
			"0.016": 0.0,
			"0.017": 0.0,
			"0.018": 0.0,
			"0.019": 0.0,
			"0.02": 0.0,
			"0.021": 0.0,
			"0.022": 0.0,
			"0.023": 0.0,
			"0.024": 0.0,
			"0.025": 0.0
		}
	}
}
