{
	 "smiles": "ClCC(Cl)(Cl)C(Cl)(Cl)Cl", 
	 "Tm": 299.15, 
	 "num_atms": 11, 
	 "gaussian": { 
		 "optdone": 1, 
		 "sigma_profile": "yes", 
		 "theory": "DFT", 
		 "functional": "B3LYP", 
		 "basiset": "6-31G**", 
		 "properties": { 
			 "R2extent": 3688.7385, 
			 "electric_dipole_moment_norm": 1.50808438093, 
			 "electric_quadrupole_moment_norm": 3.94263754865, 
			 "total_energy": -2876.64022103, 
			 "HOMO_LUMO_gap": 0.2503, 
			 "cosmo_polarized_energy": -4.67, 
			 "cosmo_cavitation_energy": 24.13, 
			 "cosmo_dispersion_energy": -18.29, 
			 "cosmo_repulsion_energy": 1.47, 
			 "cosmo_total_nonelectrostatic_energy": 7.32, 
			 "SMD_solvation_energy": 2.35 
		},
		"coords": [
			{
				"x": 1.2527082993,
				"y": 0.9532521163,
				"z": -2.3249327423,
				"element": "Cl" 
			},
			{
				"x": -0.2374125405,
				"y": 1.2593515636,
				"z": -1.3778300195,
				"element": "C" 
			},
			{
				"x": 0.0127267476,
				"y": 1.4729327539,
				"z": 0.1292244219,
				"element": "C" 
			},
			{
				"x": 0.7906466735,
				"y": 0.009232924,
				"z": 0.8310931335,
				"element": "Cl" 
			},
			{
				"x": 1.0930978027,
				"y": 2.8920277337,
				"z": 0.3724251062,
				"element": "Cl" 
			},
			{
				"x": -1.3561391509,
				"y": 1.7384187559,
				"z": 0.8947466898,
				"element": "C" 
			},
			{
				"x": -2.4656164575,
				"y": 0.3335512403,
				"z": 0.6707113068,
				"element": "Cl" 
			},
			{
				"x": -1.0901909628,
				"y": 1.9886066902,
				"z": 2.6433408341,
				"element": "Cl" 
			},
			{
				"x": -2.1644602535,
				"y": 3.2009231004,
				"z": 0.2146607542,
				"element": "Cl" 
			},
			{
				"x": -0.7060060817,
				"y": 2.1501509708,
				"z": -1.7921750235,
				"element": "H" 
			},
			{
				"x": -0.888854076,
				"y": 0.3979521508,
				"z": -1.5134644613,
				"element": "H" 
			}
		],
		 "valence_orbital": [ 
			{
				"type": "occ",
				"energy": -0.32502,
				"method": "rhf"
			},
			{
				"type": "occ",
				"energy": -0.3228,
				"method": "rhf"
			},
			{
				"type": "occ",
				"energy": -0.31985,
				"method": "rhf"
			},
			{
				"type": "occ",
				"energy": -0.31629,
				"method": "rhf"
			},
			{
				"type": "occ",
				"energy": -0.31235,
				"method": "rhf"
			},
			{
				"type": "unocc",
				"energy": -0.06205,
				"method": "rhf"
			},
			{
				"type": "unocc",
				"energy": -0.05247,
				"method": "rhf"
			},
			{
				"type": "unocc",
				"energy": -0.04585,
				"method": "rhf"
			},
			{
				"type": "unocc",
				"energy": -0.00395,
				"method": "rhf"
			},
			{
				"type": "unocc",
				"energy": 0.01525,
				"method": "rhf"
			}
		],
		"cosmo_sigma_profile": { 
			"-0.025": 0.0,
			"-0.024": 0.0,
			"-0.023": 0.0,
			"-0.022": 0.0,
			"-0.021": 0.0,
			"-0.02": 0.0,
			"-0.019": 0.0,
			"-0.018": 0.0,
			"-0.017": 0.0,
			"-0.016": 0.0,
			"-0.015": 0.0,
			"-0.014": 0.0,
			"-0.013": 0.0,
			"-0.012": 0.0,
			"-0.011": 0.0,
			"-0.01": 0.964895278696,
			"-0.009": 3.10226474685,
			"-0.008": 2.97342874832,
			"-0.007": 4.19901119236,
			"-0.006": 5.17049488159,
			"-0.005": 6.28395231437,
			"-0.004": 10.0120408922,
			"-0.003": 10.953853279,
			"-0.002": 14.1257716146,
			"-0.001": 15.5105330725,
			"0.0": 18.2677074186,
			"0.001": 25.4873957863,
			"0.002": 44.5492215375,
			"0.003": 23.4981544367,
			"0.004": 11.2449032426,
			"0.005": 8.29869622775,
			"0.006": 0.347267769001,
			"0.007": 0.0,
			"0.008": 0.0,
			"0.009": 0.0,
			"0.01": 0.0,
			"0.011": 0.0,
			"0.012": 0.0,
			"0.013": 0.0,
			"0.014": 0.0,
			"0.015": 0.0,
			"0.016": 0.0,
			"0.017": 0.0,
			"0.018": 0.0,
			"0.019": 0.0,
			"0.02": 0.0,
			"0.021": 0.0,
			"0.022": 0.0,
			"0.023": 0.0,
			"0.024": 0.0,
			"0.025": 0.0
		}
	}
}
