{
	 "smiles": "FC1=C(F)C=C(C=C1)C1=C2C=CC=CC2=C(Cl)N=N1", 
	 "Tm": 438.15, 
	 "num_atms": 26, 
	 "gaussian": { 
		 "optdone": 1, 
		 "sigma_profile": "yes", 
		 "theory": "DFT", 
		 "functional": "B3LYP", 
		 "basiset": "6-31G**", 
		 "properties": { 
			 "R2extent": 6442.22, 
			 "electric_dipole_moment_norm": 4.66596497844, 
			 "electric_quadrupole_moment_norm": 16.5734001505, 
			 "total_energy": -1307.03664461, 
			 "HOMO_LUMO_gap": 0.16254, 
			 "cosmo_polarized_energy": -12.23, 
			 "cosmo_cavitation_energy": 33.7, 
			 "cosmo_dispersion_energy": -24.52, 
			 "cosmo_repulsion_energy": 1.81, 
			 "cosmo_total_nonelectrostatic_energy": 10.99, 
			 "SMD_solvation_energy": 4.47 
		},
		"coords": [
			{
				"x": -2.3681337545,
				"y": 4.7732580289,
				"z": 1.2959984782,
				"element": "F" 
			},
			{
				"x": -1.7831275448,
				"y": 3.6622397651,
				"z": 0.8226852346,
				"element": "C" 
			},
			{
				"x": -0.9347006095,
				"y": 2.9346225142,
				"z": 1.656227729,
				"element": "C" 
			},
			{
				"x": -0.7112741663,
				"y": 3.3743569629,
				"z": 2.9063915936,
				"element": "F" 
			},
			{
				"x": -0.3191862895,
				"y": 1.7778317785,
				"z": 1.2022260849,
				"element": "C" 
			},
			{
				"x": -0.5505675537,
				"y": 1.3309570495,
				"z": -0.1097020963,
				"element": "C" 
			},
			{
				"x": -1.3904906584,
				"y": 2.0822663713,
				"z": -0.9462351493,
				"element": "C" 
			},
			{
				"x": -2.0107910784,
				"y": 3.2400464286,
				"z": -0.480734874,
				"element": "C" 
			},
			{
				"x": 0.1306220138,
				"y": 0.1255072588,
				"z": -0.6557358972,
				"element": "C" 
			},
			{
				"x": 0.2343954746,
				"y": -1.1179965525,
				"z": 0.064248627,
				"element": "C" 
			},
			{
				"x": -0.3958087568,
				"y": -1.3870218841,
				"z": 1.3052127006,
				"element": "C" 
			},
			{
				"x": -0.2322905509,
				"y": -2.6114278027,
				"z": 1.9202526364,
				"element": "C" 
			},
			{
				"x": 0.559403966,
				"y": -3.6159811242,
				"z": 1.3227538351,
				"element": "C" 
			},
			{
				"x": 1.1574442025,
				"y": -3.3975937055,
				"z": 0.0993357572,
				"element": "C" 
			},
			{
				"x": 0.9932396715,
				"y": -2.153933266,
				"z": -0.5534012799,
				"element": "C" 
			},
			{
				"x": 1.5031529775,
				"y": -1.8391275998,
				"z": -1.8506136095,
				"element": "C" 
			},
			{
				"x": 2.4533642242,
				"y": -3.0370106852,
				"z": -2.7192659638,
				"element": "Cl" 
			},
			{
				"x": 1.3039961537,
				"y": -0.7195811875,
				"z": -2.483877937,
				"element": "N" 
			},
			{
				"x": 0.6255437951,
				"y": 0.2851632879,
				"z": -1.8719209242,
				"element": "N" 
			},
			{
				"x": 0.3605772029,
				"y": 1.2614552526,
				"z": 1.8704851214,
				"element": "H" 
			},
			{
				"x": -1.5452641039,
				"y": 1.7528162929,
				"z": -1.9667949181,
				"element": "H" 
			},
			{
				"x": -2.6695058935,
				"y": 3.824989592,
				"z": -1.1134770196,
				"element": "H" 
			},
			{
				"x": -1.0229968842,
				"y": -0.6307396221,
				"z": 1.7607110925,
				"element": "H" 
			},
			{
				"x": -0.722725579,
				"y": -2.8072507062,
				"z": 2.8689808261,
				"element": "H" 
			},
			{
				"x": 0.683560617,
				"y": -4.5718783894,
				"z": 1.8223274134,
				"element": "H" 
			},
			{
				"x": 1.7451631244,
				"y": -4.1722680581,
				"z": -0.378377461,
				"element": "H" 
			}
		],
		 "valence_orbital": [ 
			{
				"type": "occ",
				"energy": -0.29256,
				"method": "rhf"
			},
			{
				"type": "occ",
				"energy": -0.27684,
				"method": "rhf"
			},
			{
				"type": "occ",
				"energy": -0.2642,
				"method": "rhf"
			},
			{
				"type": "occ",
				"energy": -0.24848,
				"method": "rhf"
			},
			{
				"type": "occ",
				"energy": -0.24325,
				"method": "rhf"
			},
			{
				"type": "unocc",
				"energy": -0.08071,
				"method": "rhf"
			},
			{
				"type": "unocc",
				"energy": -0.05972,
				"method": "rhf"
			},
			{
				"type": "unocc",
				"energy": -0.03044,
				"method": "rhf"
			},
			{
				"type": "unocc",
				"energy": -0.01845,
				"method": "rhf"
			},
			{
				"type": "unocc",
				"energy": 0.01574,
				"method": "rhf"
			}
		],
		"cosmo_sigma_profile": { 
			"-0.025": 0.0,
			"-0.024": 0.0,
			"-0.023": 0.0,
			"-0.022": 0.0,
			"-0.021": 0.0,
			"-0.02": 0.0,
			"-0.019": 0.0,
			"-0.018": 0.0,
			"-0.017": 0.0,
			"-0.016": 0.0,
			"-0.015": 0.0,
			"-0.014": 0.0,
			"-0.013": 0.0,
			"-0.012": 0.0,
			"-0.011": 0.0,
			"-0.01": 0.0,
			"-0.009": 0.183917693125,
			"-0.008": 4.65371093396,
			"-0.007": 12.5562579311,
			"-0.006": 16.7225154779,
			"-0.005": 12.0634546336,
			"-0.004": 12.8336985478,
			"-0.003": 17.06095646,
			"-0.002": 24.2498286147,
			"-0.001": 28.0669785867,
			"0.0": 27.8060925213,
			"0.001": 26.1200662738,
			"0.002": 22.6007573666,
			"0.003": 26.2291564909,
			"0.004": 19.2940841285,
			"0.005": 3.43498218945,
			"0.006": 2.98954282288,
			"0.007": 2.23051568133,
			"0.008": 2.53623816239,
			"0.009": 2.05147220433,
			"0.01": 2.26437556512,
			"0.011": 1.55248647742,
			"0.012": 2.99436633017,
			"0.013": 2.69527936009,
			"0.014": 1.9071443935,
			"0.015": 0.715629388306,
			"0.016": 0.0,
			"0.017": 0.0,
			"0.018": 0.0,
			"0.019": 0.0,
			"0.02": 0.0,
			"0.021": 0.0,
			"0.022": 0.0,
			"0.023": 0.0,
			"0.024": 0.0,
			"0.025": 0.0
		}
	}
}
