{
	 "smiles": "COCCNS(=O)(=O)C1=C(OC)C=CC(=C1)C(O)=O", 
	 "Tm": 457.15, 
	 "num_atms": 34, 
	 "gaussian": { 
		 "optdone": 1, 
		 "sigma_profile": "yes", 
		 "theory": "DFT", 
		 "functional": "B3LYP", 
		 "basiset": "6-31G**", 
		 "properties": { 
			 "R2extent": 7248.7735, 
			 "electric_dipole_moment_norm": 7.06037432011, 
			 "electric_quadrupole_moment_norm": 33.0586930573, 
			 "total_energy": -1332.39131898, 
			 "HOMO_LUMO_gap": 0.1904, 
			 "cosmo_polarized_energy": -27.01, 
			 "cosmo_cavitation_energy": 39.51, 
			 "cosmo_dispersion_energy": -28.24, 
			 "cosmo_repulsion_energy": 2.17, 
			 "cosmo_total_nonelectrostatic_energy": 13.45, 
			 "SMD_solvation_energy": 7.96 
		},
		"coords": [
			{
				"x": -2.4851742457,
				"y": -3.822799096,
				"z": 3.2551728382,
				"element": "C" 
			},
			{
				"x": -1.3996714798,
				"y": -4.3083365427,
				"z": 2.4852404197,
				"element": "O" 
			},
			{
				"x": -1.0586380476,
				"y": -3.4927831477,
				"z": 1.3832287581,
				"element": "C" 
			},
			{
				"x": -0.2285869313,
				"y": -2.2694586023,
				"z": 1.7995791589,
				"element": "C" 
			},
			{
				"x": 0.1667636882,
				"y": -1.530243579,
				"z": 0.5883512127,
				"element": "N" 
			},
			{
				"x": 0.6109828165,
				"y": 0.0863866259,
				"z": 0.7747040194,
				"element": "S" 
			},
			{
				"x": 2.053154321,
				"y": 0.2310135794,
				"z": 1.0206623155,
				"element": "O" 
			},
			{
				"x": -0.3532835933,
				"y": 0.6900896624,
				"z": 1.6972273455,
				"element": "O" 
			},
			{
				"x": 0.2834255373,
				"y": 0.7167095152,
				"z": -0.8771887899,
				"element": "C" 
			},
			{
				"x": 0.9985733822,
				"y": 0.2099928761,
				"z": -1.9739860162,
				"element": "C" 
			},
			{
				"x": 1.8288092023,
				"y": -0.8649171282,
				"z": -1.7949202886,
				"element": "O" 
			},
			{
				"x": 3.2406345239,
				"y": -0.5950592316,
				"z": -1.8991341584,
				"element": "C" 
			},
			{
				"x": 0.7939452054,
				"y": 0.7688587064,
				"z": -3.2373555846,
				"element": "C" 
			},
			{
				"x": -0.1218316794,
				"y": 1.8069314465,
				"z": -3.397115351,
				"element": "C" 
			},
			{
				"x": -0.85001338,
				"y": 2.2987245013,
				"z": -2.3046240609,
				"element": "C" 
			},
			{
				"x": -0.6282544324,
				"y": 1.7526708101,
				"z": -1.0333067924,
				"element": "C" 
			},
			{
				"x": -1.8374108083,
				"y": 3.4231217464,
				"z": -2.413987187,
				"element": "C" 
			},
			{
				"x": -2.3599669783,
				"y": 3.6603123198,
				"z": -3.6475478199,
				"element": "O" 
			},
			{
				"x": -2.1692027228,
				"y": 4.1034512156,
				"z": -1.473833634,
				"element": "O" 
			},
			{
				"x": -3.3829531506,
				"y": -3.6727105832,
				"z": 2.6361778867,
				"element": "H" 
			},
			{
				"x": -2.7005477329,
				"y": -4.5810105374,
				"z": 4.0116279387,
				"element": "H" 
			},
			{
				"x": -2.2555353774,
				"y": -2.8771793272,
				"z": 3.7665124674,
				"element": "H" 
			},
			{
				"x": -1.9521778572,
				"y": -3.1583143113,
				"z": 0.8339350801,
				"element": "H" 
			},
			{
				"x": -0.4702401753,
				"y": -4.1258966936,
				"z": 0.708317436,
				"element": "H" 
			},
			{
				"x": 0.6339514955,
				"y": -2.5973784277,
				"z": 2.3938820468,
				"element": "H" 
			},
			{
				"x": -0.8246538507,
				"y": -1.5908618985,
				"z": 2.4127865445,
				"element": "H" 
			},
			{
				"x": 0.8817749562,
				"y": -1.9908022723,
				"z": 0.0275228379,
				"element": "H" 
			},
			{
				"x": 3.7361956244,
				"y": -1.5653622947,
				"z": -1.8500602473,
				"element": "H" 
			},
			{
				"x": 3.5608725971,
				"y": 0.0317571273,
				"z": -1.0625604714,
				"element": "H" 
			},
			{
				"x": 3.4784435608,
				"y": -0.11280781,
				"z": -2.8532144771,
				"element": "H" 
			},
			{
				"x": 1.3436815989,
				"y": 0.3773689655,
				"z": -4.0870157974,
				"element": "H" 
			},
			{
				"x": -0.2401620029,
				"y": 2.2457442269,
				"z": -4.3846195039,
				"element": "H" 
			},
			{
				"x": -1.1652341038,
				"y": 2.1424591628,
				"z": -0.1756136797,
				"element": "H" 
			},
			{
				"x": -2.1511699599,
				"y": 2.932928996,
				"z": -4.2494444464,
				"element": "H" 
			}
		],
		 "valence_orbital": [ 
			{
				"type": "occ",
				"energy": -0.29099,
				"method": "rhf"
			},
			{
				"type": "occ",
				"energy": -0.28512,
				"method": "rhf"
			},
			{
				"type": "occ",
				"energy": -0.27492,
				"method": "rhf"
			},
			{
				"type": "occ",
				"energy": -0.26834,
				"method": "rhf"
			},
			{
				"type": "occ",
				"energy": -0.25739,
				"method": "rhf"
			},
			{
				"type": "unocc",
				"energy": -0.06699,
				"method": "rhf"
			},
			{
				"type": "unocc",
				"energy": -0.04881,
				"method": "rhf"
			},
			{
				"type": "unocc",
				"energy": 0.02499,
				"method": "rhf"
			},
			{
				"type": "unocc",
				"energy": 0.04365,
				"method": "rhf"
			},
			{
				"type": "unocc",
				"energy": 0.05791,
				"method": "rhf"
			}
		],
		"cosmo_sigma_profile": { 
			"-0.025": 0.0,
			"-0.024": 0.0,
			"-0.023": 0.0,
			"-0.022": 0.0,
			"-0.021": 0.0,
			"-0.02": 0.028432460474,
			"-0.019": 0.614783245894,
			"-0.018": 1.23910812592,
			"-0.017": 0.921708429177,
			"-0.016": 1.11148189145,
			"-0.015": 1.16479881984,
			"-0.014": 0.969435472544,
			"-0.013": 1.50304670041,
			"-0.012": 1.97754823451,
			"-0.011": 2.78261708555,
			"-0.01": 1.96441086055,
			"-0.009": 3.37740675096,
			"-0.008": 6.66444426636,
			"-0.007": 7.01608496098,
			"-0.006": 12.0389870825,
			"-0.005": 19.4754469037,
			"-0.004": 30.5994131795,
			"-0.003": 32.2590402642,
			"-0.002": 25.3267281498,
			"-0.001": 19.6066493863,
			"0.0": 23.1771484254,
			"0.001": 15.7094446392,
			"0.002": 9.32846259078,
			"0.003": 9.44425434768,
			"0.004": 7.89053216276,
			"0.005": 8.14000419205,
			"0.006": 7.06680041439,
			"0.007": 7.93276359293,
			"0.008": 9.19152922212,
			"0.009": 8.98198646886,
			"0.01": 12.4003362353,
			"0.011": 13.2432055804,
			"0.012": 7.32324459373,
			"0.013": 2.39527649366,
			"0.014": 0.172335687112,
			"0.015": 0.0,
			"0.016": 0.0,
			"0.017": 0.0,
			"0.018": 0.0,
			"0.019": 0.0,
			"0.02": 0.0,
			"0.021": 0.0,
			"0.022": 0.0,
			"0.023": 0.0,
			"0.024": 0.0,
			"0.025": 0.0
		}
	}
}
