{
	 "smiles": "NC1=NC=C(C=N1)[N+]([O-])=O", 
	 "Tm": 510.15, 
	 "num_atms": 14, 
	 "gaussian": { 
		 "optdone": 1, 
		 "sigma_profile": "yes", 
		 "theory": "DFT", 
		 "functional": "B3LYP", 
		 "basiset": "6-31G**", 
		 "properties": { 
			 "R2extent": 2687.7206, 
			 "electric_dipole_moment_norm": 5.37687911525, 
			 "electric_quadrupole_moment_norm": 13.4746526631, 
			 "total_energy": -524.194372284, 
			 "HOMO_LUMO_gap": 0.17118, 
			 "cosmo_polarized_energy": -12.97, 
			 "cosmo_cavitation_energy": 19.7, 
			 "cosmo_dispersion_energy": -14.92, 
			 "cosmo_repulsion_energy": 1.22, 
			 "cosmo_total_nonelectrostatic_energy": 5.99, 
			 "SMD_solvation_energy": 2.99 
		},
		"coords": [
			{
				"x": -2.7934589585,
				"y": 1.0671272479,
				"z": -1.9919261219,
				"element": "N" 
			},
			{
				"x": -2.3609674081,
				"y": 0.0959018446,
				"z": -1.1628154797,
				"element": "C" 
			},
			{
				"x": -3.3001375629,
				"y": -0.5107619832,
				"z": -0.3963595025,
				"element": "N" 
			},
			{
				"x": -2.8613799124,
				"y": -1.4630344398,
				"z": 0.4142782379,
				"element": "C" 
			},
			{
				"x": -1.5094552104,
				"y": -1.8152915575,
				"z": 0.4699920202,
				"element": "C" 
			},
			{
				"x": -0.620655153,
				"y": -1.1283046708,
				"z": -0.3624545371,
				"element": "C" 
			},
			{
				"x": -1.0322881248,
				"y": -0.1719846451,
				"z": -1.1825045911,
				"element": "N" 
			},
			{
				"x": -1.0450132739,
				"y": -2.8576918609,
				"z": 1.3605337446,
				"element": "N" 
			},
			{
				"x": -1.8849848437,
				"y": -3.4212683242,
				"z": 2.0659124397,
				"element": "O" 
			},
			{
				"x": 0.1609141421,
				"y": -3.115487165,
				"z": 1.3568352225,
				"element": "O" 
			},
			{
				"x": -2.1319456861,
				"y": 1.5443940634,
				"z": -2.581436606,
				"element": "H" 
			},
			{
				"x": -3.7725191977,
				"y": 1.2993241301,
				"z": -2.0127546316,
				"element": "H" 
			},
			{
				"x": -3.5851599818,
				"y": -1.9722185714,
				"z": 1.0442643983,
				"element": "H" 
			},
			{
				"x": 0.4380511711,
				"y": -1.3712040682,
				"z": -0.3503645932,
				"element": "H" 
			}
		],
		 "valence_orbital": [ 
			{
				"type": "occ",
				"energy": -0.30821,
				"method": "rhf"
			},
			{
				"type": "occ",
				"energy": -0.3029,
				"method": "rhf"
			},
			{
				"type": "occ",
				"energy": -0.29284,
				"method": "rhf"
			},
			{
				"type": "occ",
				"energy": -0.27289,
				"method": "rhf"
			},
			{
				"type": "occ",
				"energy": -0.25885,
				"method": "rhf"
			},
			{
				"type": "unocc",
				"energy": -0.08767,
				"method": "rhf"
			},
			{
				"type": "unocc",
				"energy": -0.05792,
				"method": "rhf"
			},
			{
				"type": "unocc",
				"energy": 0.00055,
				"method": "rhf"
			},
			{
				"type": "unocc",
				"energy": 0.06873,
				"method": "rhf"
			},
			{
				"type": "unocc",
				"energy": 0.10597,
				"method": "rhf"
			}
		],
		"cosmo_sigma_profile": { 
			"-0.025": 0.0,
			"-0.024": 0.0,
			"-0.023": 0.0,
			"-0.022": 0.0,
			"-0.021": 0.0,
			"-0.02": 0.0,
			"-0.019": 0.0,
			"-0.018": 0.0,
			"-0.017": 0.0,
			"-0.016": 0.201638586524,
			"-0.015": 2.0714294699,
			"-0.014": 2.14560385411,
			"-0.013": 2.01989372508,
			"-0.012": 1.89197118229,
			"-0.011": 3.27608370737,
			"-0.01": 1.27927576851,
			"-0.009": 2.35571876236,
			"-0.008": 3.60687530426,
			"-0.007": 4.07377416987,
			"-0.006": 5.7269160974,
			"-0.005": 7.63776157035,
			"-0.004": 11.562834953,
			"-0.003": 13.9188645451,
			"-0.002": 9.33558225219,
			"-0.001": 7.66393093862,
			"0.0": 7.86100934884,
			"0.001": 9.60862616619,
			"0.002": 6.51935393224,
			"0.003": 5.48031556379,
			"0.004": 4.32989847866,
			"0.005": 4.63555178468,
			"0.006": 5.8041329273,
			"0.007": 8.07260932397,
			"0.008": 10.399908023,
			"0.009": 6.27453565549,
			"0.01": 5.62286153028,
			"0.011": 1.83492750491,
			"0.012": 1.62004238391,
			"0.013": 1.32799859974,
			"0.014": 0.149717625117,
			"0.015": 0.0,
			"0.016": 0.0,
			"0.017": 0.0,
			"0.018": 0.0,
			"0.019": 0.0,
			"0.02": 0.0,
			"0.021": 0.0,
			"0.022": 0.0,
			"0.023": 0.0,
			"0.024": 0.0,
			"0.025": 0.0
		}
	}
}
