{
	 "smiles": "OC(=O)C1=CC(OC2=CC=C(Cl)C=C2)=CC=C1", 
	 "Tm": 438.15, 
	 "num_atms": 26, 
	 "gaussian": { 
		 "optdone": 1, 
		 "sigma_profile": "yes", 
		 "theory": "DFT", 
		 "functional": "B3LYP", 
		 "basiset": "6-31G**", 
		 "properties": { 
			 "R2extent": 6815.7094, 
			 "electric_dipole_moment_norm": 2.97687329425, 
			 "electric_quadrupole_moment_norm": 8.47656277981, 
			 "total_energy": -1186.6813898, 
			 "HOMO_LUMO_gap": 0.1728, 
			 "cosmo_polarized_energy": -11.27, 
			 "cosmo_cavitation_energy": 33.54, 
			 "cosmo_dispersion_energy": -24.17, 
			 "cosmo_repulsion_energy": 1.89, 
			 "cosmo_total_nonelectrostatic_energy": 11.26, 
			 "SMD_solvation_energy": 6.87 
		},
		"coords": [
			{
				"x": -4.0327262004,
				"y": -2.1830036154,
				"z": 2.6939170541,
				"element": "O" 
			},
			{
				"x": -2.9534413839,
				"y": -1.7503189513,
				"z": 1.9960542202,
				"element": "C" 
			},
			{
				"x": -2.9089716728,
				"y": -1.7944926588,
				"z": 0.7825766664,
				"element": "O" 
			},
			{
				"x": -1.8650613304,
				"y": -1.2303244547,
				"z": 2.8687043672,
				"element": "C" 
			},
			{
				"x": -0.702206258,
				"y": -0.7721460276,
				"z": 2.2361330837,
				"element": "C" 
			},
			{
				"x": 0.3436113673,
				"y": -0.2740495691,
				"z": 3.0110417892,
				"element": "C" 
			},
			{
				"x": 1.5485641053,
				"y": 0.136927504,
				"z": 2.4809395822,
				"element": "O" 
			},
			{
				"x": 1.6147293092,
				"y": 0.7327754418,
				"z": 1.2361212603,
				"element": "C" 
			},
			{
				"x": 2.6900086382,
				"y": 0.3722126319,
				"z": 0.4225712329,
				"element": "C" 
			},
			{
				"x": 2.8699326304,
				"y": 0.997187247,
				"z": -0.8101603813,
				"element": "C" 
			},
			{
				"x": 1.9636635596,
				"y": 1.9744578583,
				"z": -1.2208180154,
				"element": "C" 
			},
			{
				"x": 2.1815912037,
				"y": 2.7598713676,
				"z": -2.7783287458,
				"element": "Cl" 
			},
			{
				"x": 0.887285768,
				"y": 2.3388326802,
				"z": -0.4119320881,
				"element": "C" 
			},
			{
				"x": 0.7143747542,
				"y": 1.7198617844,
				"z": 0.8252742022,
				"element": "C" 
			},
			{
				"x": 0.2405191027,
				"y": -0.2420710063,
				"z": 4.406027668,
				"element": "C" 
			},
			{
				"x": -0.9177644045,
				"y": -0.7088660225,
				"z": 5.0249634489,
				"element": "C" 
			},
			{
				"x": -1.9784242527,
				"y": -1.2011624369,
				"z": 4.2645975911,
				"element": "C" 
			},
			{
				"x": -4.6682086199,
				"y": -2.4951770275,
				"z": 2.029066917,
				"element": "H" 
			},
			{
				"x": -0.6384439925,
				"y": -0.8172621329,
				"z": 1.1554027423,
				"element": "H" 
			},
			{
				"x": 3.3782226276,
				"y": -0.3922873202,
				"z": 0.7666992804,
				"element": "H" 
			},
			{
				"x": 3.7024831525,
				"y": 0.7238741959,
				"z": -1.4486855227,
				"element": "H" 
			},
			{
				"x": 0.1945491625,
				"y": 3.104968703,
				"z": -0.7418058182,
				"element": "H" 
			},
			{
				"x": -0.1133457424,
				"y": 2.0045576116,
				"z": 1.4654386558,
				"element": "H" 
			},
			{
				"x": 1.0743746287,
				"y": 0.1456755727,
				"z": 4.9818662641,
				"element": "H" 
			},
			{
				"x": -0.9932276774,
				"y": -0.6824841799,
				"z": 6.1077322286,
				"element": "H" 
			},
			{
				"x": -2.8832884749,
				"y": -1.5599571956,
				"z": 4.7399023169,
				"element": "H" 
			}
		],
		 "valence_orbital": [ 
			{
				"type": "occ",
				"energy": -0.28162,
				"method": "rhf"
			},
			{
				"type": "occ",
				"energy": -0.27195,
				"method": "rhf"
			},
			{
				"type": "occ",
				"energy": -0.26773,
				"method": "rhf"
			},
			{
				"type": "occ",
				"energy": -0.25768,
				"method": "rhf"
			},
			{
				"type": "occ",
				"energy": -0.22758,
				"method": "rhf"
			},
			{
				"type": "unocc",
				"energy": -0.05478,
				"method": "rhf"
			},
			{
				"type": "unocc",
				"energy": -0.02197,
				"method": "rhf"
			},
			{
				"type": "unocc",
				"energy": -0.01701,
				"method": "rhf"
			},
			{
				"type": "unocc",
				"energy": -0.00316,
				"method": "rhf"
			},
			{
				"type": "unocc",
				"energy": 0.02851,
				"method": "rhf"
			}
		],
		"cosmo_sigma_profile": { 
			"-0.025": 0.0,
			"-0.024": 0.0,
			"-0.023": 0.0,
			"-0.022": 0.0,
			"-0.021": 0.0,
			"-0.02": 0.0,
			"-0.019": 0.0273224694803,
			"-0.018": 0.939430606709,
			"-0.017": 0.68387469413,
			"-0.016": 1.06896882515,
			"-0.015": 0.477550139767,
			"-0.014": 1.12550575715,
			"-0.013": 0.690633844261,
			"-0.012": 0.584822296852,
			"-0.011": 0.636574244702,
			"-0.01": 0.445203092971,
			"-0.009": 0.780946652472,
			"-0.008": 2.45290997557,
			"-0.007": 11.540346678,
			"-0.006": 13.3710793633,
			"-0.005": 15.5517506502,
			"-0.004": 12.3354444065,
			"-0.003": 13.8230956985,
			"-0.002": 16.4325951537,
			"-0.001": 19.7362072435,
			"0.0": 20.0800717826,
			"0.001": 25.2114306634,
			"0.002": 34.5671525477,
			"0.003": 29.3912934529,
			"0.004": 15.7651191366,
			"0.005": 12.5288820754,
			"0.006": 3.79489203834,
			"0.007": 3.62736630572,
			"0.008": 2.86557850516,
			"0.009": 2.08954657267,
			"0.01": 1.83292192548,
			"0.011": 3.9846679424,
			"0.012": 3.46589128532,
			"0.013": 0.0439849694404,
			"0.014": 0.0,
			"0.015": 0.0,
			"0.016": 0.0,
			"0.017": 0.0,
			"0.018": 0.0,
			"0.019": 0.0,
			"0.02": 0.0,
			"0.021": 0.0,
			"0.022": 0.0,
			"0.023": 0.0,
			"0.024": 0.0,
			"0.025": 0.0
		}
	}
}
