{
	 "smiles": "OCC(O)=O", 
	 "Tm": 351.65, 
	 "num_atms": 9, 
	 "gaussian": { 
		 "optdone": 1, 
		 "sigma_profile": "yes", 
		 "theory": "DFT", 
		 "functional": "B3LYP", 
		 "basiset": "6-31G**", 
		 "properties": { 
			 "R2extent": 956.6543, 
			 "electric_dipole_moment_norm": 4.9885731878, 
			 "electric_quadrupole_moment_norm": 10.6750351751, 
			 "total_energy": -304.288589178, 
			 "HOMO_LUMO_gap": 0.28314, 
			 "cosmo_polarized_energy": -13.61, 
			 "cosmo_cavitation_energy": 13.02, 
			 "cosmo_dispersion_energy": -10.08, 
			 "cosmo_repulsion_energy": 0.93, 
			 "cosmo_total_nonelectrostatic_energy": 3.87, 
			 "SMD_solvation_energy": 4.12 
		},
		"coords": [
			{
				"x": 1.7437037856,
				"y": -2.9951206262,
				"z": -0.1136079534,
				"element": "O" 
			},
			{
				"x": 1.6318550673,
				"y": -1.6308709784,
				"z": 0.2710842061,
				"element": "C" 
			},
			{
				"x": 1.0352573495,
				"y": -0.8419738632,
				"z": -0.896282517,
				"element": "C" 
			},
			{
				"x": 0.7567371068,
				"y": -1.574788481,
				"z": -1.9865516855,
				"element": "O" 
			},
			{
				"x": 0.8357013202,
				"y": 0.3454001743,
				"z": -0.8288601121,
				"element": "O" 
			},
			{
				"x": 2.1180830441,
				"y": -3.5143829691,
				"z": 0.6072203195,
				"element": "H" 
			},
			{
				"x": 2.6048213197,
				"y": -1.1823908001,
				"z": 0.5119976011,
				"element": "H" 
			},
			{
				"x": 0.9711405987,
				"y": -1.49265617,
				"z": 1.1372245231,
				"element": "H" 
			},
			{
				"x": 1.0061004081,
				"y": -2.4975162863,
				"z": -1.7926243819,
				"element": "H" 
			}
		],
		 "valence_orbital": [ 
			{
				"type": "occ",
				"energy": -0.39462,
				"method": "rhf"
			},
			{
				"type": "occ",
				"energy": -0.37816,
				"method": "rhf"
			},
			{
				"type": "occ",
				"energy": -0.32239,
				"method": "rhf"
			},
			{
				"type": "occ",
				"energy": -0.30023,
				"method": "rhf"
			},
			{
				"type": "occ",
				"energy": -0.2698,
				"method": "rhf"
			},
			{
				"type": "unocc",
				"energy": 0.01334,
				"method": "rhf"
			},
			{
				"type": "unocc",
				"energy": 0.04147,
				"method": "rhf"
			},
			{
				"type": "unocc",
				"energy": 0.11329,
				"method": "rhf"
			},
			{
				"type": "unocc",
				"energy": 0.1267,
				"method": "rhf"
			},
			{
				"type": "unocc",
				"energy": 0.15808,
				"method": "rhf"
			}
		],
		"cosmo_sigma_profile": { 
			"-0.025": 0.0,
			"-0.024": 0.0,
			"-0.023": 0.0,
			"-0.022": 0.0,
			"-0.021": 0.0,
			"-0.02": 0.0,
			"-0.019": 0.0,
			"-0.018": 0.324302454942,
			"-0.017": 1.25161846195,
			"-0.016": 1.32537304974,
			"-0.015": 0.852387333012,
			"-0.014": 1.25501261685,
			"-0.013": 1.12029189574,
			"-0.012": 1.72703751315,
			"-0.011": 1.79600442506,
			"-0.01": 0.87976523642,
			"-0.009": 1.90138598723,
			"-0.008": 1.96118022154,
			"-0.007": 8.57567803005,
			"-0.006": 7.80193369236,
			"-0.005": 5.91733966505,
			"-0.004": 6.22514799248,
			"-0.003": 3.77623269713,
			"-0.002": 2.95867437706,
			"-0.001": 2.95875754003,
			"0.0": 2.85678966681,
			"0.001": 2.94273185779,
			"0.002": 2.69773122649,
			"0.003": 2.7080699527,
			"0.004": 3.78779396435,
			"0.005": 3.20859687411,
			"0.006": 3.30049587297,
			"0.007": 3.57496627958,
			"0.008": 2.94271583844,
			"0.009": 3.9650402253,
			"0.01": 5.30858199547,
			"0.011": 4.07985087502,
			"0.012": 5.86948763128,
			"0.013": 2.43305824791,
			"0.014": 0.192935817984,
			"0.015": 0.0,
			"0.016": 0.0,
			"0.017": 0.0,
			"0.018": 0.0,
			"0.019": 0.0,
			"0.02": 0.0,
			"0.021": 0.0,
			"0.022": 0.0,
			"0.023": 0.0,
			"0.024": 0.0,
			"0.025": 0.0
		}
	}
}
