{
	 "smiles": "FC1=CC=C(NN=C(C#N)C2=NC(=CS2)C2=CC=C(Cl)C=C2)C=C1", 
	 "Tm": 498.15, 
	 "num_atms": 34, 
	 "gaussian": { 
		 "optdone": 1, 
		 "sigma_profile": "yes", 
		 "theory": "DFT", 
		 "functional": "B3LYP", 
		 "basiset": "6-31G**", 
		 "properties": { 
			 "R2extent": 12782.0503, 
			 "electric_dipole_moment_norm": 6.78001068141, 
			 "electric_quadrupole_moment_norm": 26.7174063041, 
			 "total_energy": -1830.97702533, 
			 "HOMO_LUMO_gap": 0.13466, 
			 "cosmo_polarized_energy": -18.74, 
			 "cosmo_cavitation_energy": 44.8, 
			 "cosmo_dispersion_energy": -30.84, 
			 "cosmo_repulsion_energy": 2.29, 
			 "cosmo_total_nonelectrostatic_energy": 16.24, 
			 "SMD_solvation_energy": 7.2 
		},
		"coords": [
			{
				"x": -2.743461169,
				"y": 3.1448653334,
				"z": -1.9604382859,
				"element": "F" 
			},
			{
				"x": -1.7979881625,
				"y": 3.1673555956,
				"z": -1.0007415521,
				"element": "C" 
			},
			{
				"x": -0.5816008603,
				"y": 2.5347496381,
				"z": -1.2330435699,
				"element": "C" 
			},
			{
				"x": 0.3988744259,
				"y": 2.5585061761,
				"z": -0.2429366414,
				"element": "C" 
			},
			{
				"x": 0.1462235855,
				"y": 3.2002358867,
				"z": 0.9759318489,
				"element": "C" 
			},
			{
				"x": 1.1274710791,
				"y": 3.3193388331,
				"z": 2.0112547559,
				"element": "N" 
			},
			{
				"x": 2.2828888669,
				"y": 2.6273714527,
				"z": 2.1235185279,
				"element": "N" 
			},
			{
				"x": 2.3477308072,
				"y": 1.3327078425,
				"z": 1.993714727,
				"element": "C" 
			},
			{
				"x": 3.689963681,
				"y": 0.8086168609,
				"z": 2.0885605788,
				"element": "C" 
			},
			{
				"x": 4.772556715,
				"y": 0.3903372243,
				"z": 2.1537205862,
				"element": "N" 
			},
			{
				"x": 1.2975675794,
				"y": 0.3075330048,
				"z": 1.8684943015,
				"element": "C" 
			},
			{
				"x": 1.5581250343,
				"y": -0.8861759202,
				"z": 1.403215112,
				"element": "N" 
			},
			{
				"x": 0.4912945183,
				"y": -1.7438264258,
				"z": 1.5245023598,
				"element": "C" 
			},
			{
				"x": -0.6133251167,
				"y": -1.1803841081,
				"z": 2.1283010119,
				"element": "C" 
			},
			{
				"x": -0.3256839619,
				"y": 0.4671104657,
				"z": 2.534044748,
				"element": "S" 
			},
			{
				"x": 0.6214486808,
				"y": -3.1277002758,
				"z": 1.0299002619,
				"element": "C" 
			},
			{
				"x": -0.4787903673,
				"y": -3.9972771088,
				"z": 0.9627020913,
				"element": "C" 
			},
			{
				"x": -0.3358882059,
				"y": -5.3028571813,
				"z": 0.5018067703,
				"element": "C" 
			},
			{
				"x": 0.9231849111,
				"y": -5.7483577537,
				"z": 0.0980837739,
				"element": "C" 
			},
			{
				"x": 1.1099522785,
				"y": -7.3942161114,
				"z": -0.4864354394,
				"element": "Cl" 
			},
			{
				"x": 2.0321429122,
				"y": -4.9046112654,
				"z": 0.1494898085,
				"element": "C" 
			},
			{
				"x": 1.8763778204,
				"y": -3.6008933406,
				"z": 0.6132207539,
				"element": "C" 
			},
			{
				"x": -1.08798027,
				"y": 3.8273520353,
				"z": 1.1902863603,
				"element": "C" 
			},
			{
				"x": -2.0644681787,
				"y": 3.8215595536,
				"z": 0.1970425114,
				"element": "C" 
			},
			{
				"x": -0.406425554,
				"y": 2.0421262234,
				"z": -2.1830761729,
				"element": "H" 
			},
			{
				"x": 1.3563971375,
				"y": 2.0855948385,
				"z": -0.4272772015,
				"element": "H" 
			},
			{
				"x": 1.3055950126,
				"y": 4.2840057058,
				"z": 2.2631069759,
				"element": "H" 
			},
			{
				"x": -1.5664730419,
				"y": -1.6358366977,
				"z": 2.3541030608,
				"element": "H" 
			},
			{
				"x": -1.4656946837,
				"y": -3.6574240183,
				"z": 1.2615801115,
				"element": "H" 
			},
			{
				"x": -1.1906328459,
				"y": -5.9679924679,
				"z": 0.4505243943,
				"element": "H" 
			},
			{
				"x": 3.0046994836,
				"y": -5.2642926543,
				"z": -0.1675970546,
				"element": "H" 
			},
			{
				"x": 2.7304123066,
				"y": -2.934725326,
				"z": 0.6601223376,
				"element": "H" 
			},
			{
				"x": -1.2821138186,
				"y": 4.3156134563,
				"z": 2.1407718043,
				"element": "H" 
			},
			{
				"x": -3.0244805996,
				"y": 4.3034905287,
				"z": 0.3451463437,
				"element": "H" 
			}
		],
		 "valence_orbital": [ 
			{
				"type": "occ",
				"energy": -0.28349,
				"method": "rhf"
			},
			{
				"type": "occ",
				"energy": -0.27467,
				"method": "rhf"
			},
			{
				"type": "occ",
				"energy": -0.26748,
				"method": "rhf"
			},
			{
				"type": "occ",
				"energy": -0.23432,
				"method": "rhf"
			},
			{
				"type": "occ",
				"energy": -0.22512,
				"method": "rhf"
			},
			{
				"type": "unocc",
				"energy": -0.09046,
				"method": "rhf"
			},
			{
				"type": "unocc",
				"energy": -0.04735,
				"method": "rhf"
			},
			{
				"type": "unocc",
				"energy": -0.03598,
				"method": "rhf"
			},
			{
				"type": "unocc",
				"energy": -0.01987,
				"method": "rhf"
			},
			{
				"type": "unocc",
				"energy": -0.01471,
				"method": "rhf"
			}
		],
		"cosmo_sigma_profile": { 
			"-0.025": 0.0,
			"-0.024": 0.0,
			"-0.023": 0.0,
			"-0.022": 0.0,
			"-0.021": 0.0,
			"-0.02": 0.0,
			"-0.019": 0.0,
			"-0.018": 0.0,
			"-0.017": 0.0180205385768,
			"-0.016": 0.7676105576,
			"-0.015": 1.30012859648,
			"-0.014": 1.2586608253,
			"-0.013": 0.934129327262,
			"-0.012": 1.10230426095,
			"-0.011": 1.89985883763,
			"-0.01": 3.80187425951,
			"-0.009": 3.94280249018,
			"-0.008": 8.62132779712,
			"-0.007": 14.1027515917,
			"-0.006": 16.605888076,
			"-0.005": 17.2596065552,
			"-0.004": 14.7699293108,
			"-0.003": 16.1296962314,
			"-0.002": 18.7945528777,
			"-0.001": 21.3160846783,
			"0.0": 34.6854367562,
			"0.001": 38.9804388852,
			"0.002": 39.5359352239,
			"0.003": 37.1777428424,
			"0.004": 28.1365619552,
			"0.005": 13.0181267388,
			"0.006": 5.026214137,
			"0.007": 6.84504806243,
			"0.008": 6.15858291553,
			"0.009": 5.19833217861,
			"0.01": 3.48947937721,
			"0.011": 2.90806613959,
			"0.012": 2.32211149063,
			"0.013": 0.822228800799,
			"0.014": 0.0,
			"0.015": 0.0,
			"0.016": 0.0,
			"0.017": 0.0,
			"0.018": 0.0,
			"0.019": 0.0,
			"0.02": 0.0,
			"0.021": 0.0,
			"0.022": 0.0,
			"0.023": 0.0,
			"0.024": 0.0,
			"0.025": 0.0
		}
	}
}
