{
	 "smiles": "OC(=O)CN1CC(=O)OC2=C1C=CC=C2", 
	 "Tm": 450.15, 
	 "num_atms": 24, 
	 "gaussian": { 
		 "optdone": 1, 
		 "sigma_profile": "yes", 
		 "theory": "DFT", 
		 "functional": "B3LYP", 
		 "basiset": "6-31G**", 
		 "properties": { 
			 "R2extent": 3283.1707, 
			 "electric_dipole_moment_norm": 3.08740522931, 
			 "electric_quadrupole_moment_norm": 19.7993233417, 
			 "total_energy": -742.136809981, 
			 "HOMO_LUMO_gap": 0.20179, 
			 "cosmo_polarized_energy": -18.98, 
			 "cosmo_cavitation_energy": 28.1, 
			 "cosmo_dispersion_energy": -20.47, 
			 "cosmo_repulsion_energy": 1.6, 
			 "cosmo_total_nonelectrostatic_energy": 9.22, 
			 "SMD_solvation_energy": 7.02 
		},
		"coords": [
			{
				"x": 1.8102875749,
				"y": -0.6553689757,
				"z": -1.1846825842,
				"element": "O" 
			},
			{
				"x": 2.4067068885,
				"y": -0.3266701159,
				"z": -0.0261652067,
				"element": "C" 
			},
			{
				"x": 3.3478069183,
				"y": -0.9309636032,
				"z": 0.4238944452,
				"element": "O" 
			},
			{
				"x": 1.8278602675,
				"y": 0.9238672878,
				"z": 0.6553431946,
				"element": "C" 
			},
			{
				"x": 0.4431633516,
				"y": 1.1822298081,
				"z": 0.2706570399,
				"element": "N" 
			},
			{
				"x": 0.0731749856,
				"y": 2.5992330723,
				"z": 0.1980539587,
				"element": "C" 
			},
			{
				"x": -1.2835949141,
				"y": 2.7821340524,
				"z": -0.4633581495,
				"element": "C" 
			},
			{
				"x": -1.564468876,
				"y": 3.7057421513,
				"z": -1.1794655097,
				"element": "O" 
			},
			{
				"x": -2.2173695899,
				"y": 1.833783439,
				"z": -0.1681721649,
				"element": "O" 
			},
			{
				"x": -1.8980110644,
				"y": 0.7646829903,
				"z": 0.6631482866,
				"element": "C" 
			},
			{
				"x": -0.5618505173,
				"y": 0.3955614015,
				"z": 0.8907611753,
				"element": "C" 
			},
			{
				"x": -0.312920993,
				"y": -0.7365634417,
				"z": 1.677562996,
				"element": "C" 
			},
			{
				"x": -1.3748097065,
				"y": -1.4656387423,
				"z": 2.2175919538,
				"element": "C" 
			},
			{
				"x": -2.6939639199,
				"y": -1.0748972959,
				"z": 1.9912581505,
				"element": "C" 
			},
			{
				"x": -2.956118163,
				"y": 0.0493428477,
				"z": 1.207097804,
				"element": "C" 
			},
			{
				"x": 1.0518423109,
				"y": -0.0505026336,
				"z": -1.2990172058,
				"element": "H" 
			},
			{
				"x": 1.9740726778,
				"y": 0.8265178956,
				"z": 1.7381893996,
				"element": "H" 
			},
			{
				"x": 2.4367321423,
				"y": 1.7700214637,
				"z": 0.3200415044,
				"element": "H" 
			},
			{
				"x": 0.7994212436,
				"y": 3.1451909578,
				"z": -0.4051750751,
				"element": "H" 
			},
			{
				"x": 0.0321673928,
				"y": 3.069192265,
				"z": 1.1966641074,
				"element": "H" 
			},
			{
				"x": 0.7037864755,
				"y": -1.0628742031,
				"z": 1.8643102984,
				"element": "H" 
			},
			{
				"x": -1.1601694509,
				"y": -2.3418946119,
				"z": 2.8208311068,
				"element": "H" 
			},
			{
				"x": -3.5167322335,
				"y": -1.6412183193,
				"z": 2.4148389222,
				"element": "H" 
			},
			{
				"x": -3.967812801,
				"y": 0.3796923101,
				"z": 0.9974915526,
				"element": "H" 
			}
		],
		 "valence_orbital": [ 
			{
				"type": "occ",
				"energy": -0.32185,
				"method": "rhf"
			},
			{
				"type": "occ",
				"energy": -0.29661,
				"method": "rhf"
			},
			{
				"type": "occ",
				"energy": -0.27948,
				"method": "rhf"
			},
			{
				"type": "occ",
				"energy": -0.26272,
				"method": "rhf"
			},
			{
				"type": "occ",
				"energy": -0.23591,
				"method": "rhf"
			},
			{
				"type": "unocc",
				"energy": -0.03412,
				"method": "rhf"
			},
			{
				"type": "unocc",
				"energy": -0.02183,
				"method": "rhf"
			},
			{
				"type": "unocc",
				"energy": -0.00324,
				"method": "rhf"
			},
			{
				"type": "unocc",
				"energy": 0.00188,
				"method": "rhf"
			},
			{
				"type": "unocc",
				"energy": 0.06207,
				"method": "rhf"
			}
		],
		"cosmo_sigma_profile": { 
			"-0.025": 0.0,
			"-0.024": 0.0,
			"-0.023": 0.0,
			"-0.022": 0.0,
			"-0.021": 0.0,
			"-0.02": 0.0,
			"-0.019": 0.0,
			"-0.018": 0.0,
			"-0.017": 0.0,
			"-0.016": 0.0,
			"-0.015": 0.113539428247,
			"-0.014": 0.348107027545,
			"-0.013": 1.1920233461,
			"-0.012": 0.462234745413,
			"-0.011": 2.07028214025,
			"-0.01": 5.48731103893,
			"-0.009": 6.3096075623,
			"-0.008": 8.33120482785,
			"-0.007": 14.2016784828,
			"-0.006": 18.1689355286,
			"-0.005": 16.4295436684,
			"-0.004": 11.7447668973,
			"-0.003": 9.99158410843,
			"-0.002": 8.97216689206,
			"-0.001": 9.31484917264,
			"0.0": 9.53207723301,
			"0.001": 10.7999969054,
			"0.002": 11.0275463091,
			"0.003": 11.136114926,
			"0.004": 11.664838075,
			"0.005": 8.11194473039,
			"0.006": 4.77687235064,
			"0.007": 4.33849454416,
			"0.008": 5.8784917913,
			"0.009": 7.58521944293,
			"0.01": 8.81134631794,
			"0.011": 9.66641503314,
			"0.012": 6.54348941403,
			"0.013": 1.41644352417,
			"0.014": 0.0,
			"0.015": 0.0,
			"0.016": 0.0,
			"0.017": 0.0,
			"0.018": 0.0,
			"0.019": 0.0,
			"0.02": 0.0,
			"0.021": 0.0,
			"0.022": 0.0,
			"0.023": 0.0,
			"0.024": 0.0,
			"0.025": 0.0
		}
	}
}
