{
	 "smiles": "CC(C)(C)C1=NN=C(S)N1N", 
	 "Tm": 460.15, 
	 "num_atms": 23, 
	 "gaussian": { 
		 "optdone": 1, 
		 "sigma_profile": "yes", 
		 "theory": "DFT", 
		 "functional": "B3LYP", 
		 "basiset": "6-31G**", 
		 "properties": { 
			 "R2extent": 3022.7689, 
			 "electric_dipole_moment_norm": 6.8031286876, 
			 "electric_quadrupole_moment_norm": 15.6909929998, 
			 "total_energy": -853.011338612, 
			 "HOMO_LUMO_gap": 0.23896, 
			 "cosmo_polarized_energy": -20.88, 
			 "cosmo_cavitation_energy": 26.65, 
			 "cosmo_dispersion_energy": -19.79, 
			 "cosmo_repulsion_energy": 1.54, 
			 "cosmo_total_nonelectrostatic_energy": 8.4, 
			 "SMD_solvation_energy": 2.7 
		},
		"coords": [
			{
				"x": -0.3289678606,
				"y": -1.3376541951,
				"z": -0.9498005204,
				"element": "C" 
			},
			{
				"x": -0.6129603807,
				"y": -0.0885300316,
				"z": -0.0822322565,
				"element": "C" 
			},
			{
				"x": -1.8549230007,
				"y": 0.6593373127,
				"z": -0.6224157315,
				"element": "C" 
			},
			{
				"x": -0.9011073545,
				"y": -0.5455474521,
				"z": 1.3622156186,
				"element": "C" 
			},
			{
				"x": 0.5945145482,
				"y": 0.8294028581,
				"z": -0.0550052229,
				"element": "C" 
			},
			{
				"x": 1.26032386,
				"y": 1.1602451383,
				"z": 1.0220457369,
				"element": "N" 
			},
			{
				"x": 2.2998951577,
				"y": 2.01216784,
				"z": 0.6701559558,
				"element": "N" 
			},
			{
				"x": 2.2357021142,
				"y": 2.1763891509,
				"z": -0.6239464604,
				"element": "C" 
			},
			{
				"x": 3.3333253153,
				"y": 3.1719466668,
				"z": -1.5757318176,
				"element": "S" 
			},
			{
				"x": 1.1811167296,
				"y": 1.4583418772,
				"z": -1.1519074721,
				"element": "N" 
			},
			{
				"x": 0.8724352106,
				"y": 1.4464128255,
				"z": -2.5157618123,
				"element": "N" 
			},
			{
				"x": 0.5575850468,
				"y": -1.8697528984,
				"z": -0.5923933989,
				"element": "H" 
			},
			{
				"x": -0.1773289585,
				"y": -1.0910638865,
				"z": -2.0062679388,
				"element": "H" 
			},
			{
				"x": -1.179809673,
				"y": -2.0253311427,
				"z": -0.9021933141,
				"element": "H" 
			},
			{
				"x": -1.744072972,
				"y": 0.9579354397,
				"z": -1.6704941666,
				"element": "H" 
			},
			{
				"x": -2.7340485448,
				"y": 0.008776789,
				"z": -0.5678351338,
				"element": "H" 
			},
			{
				"x": -2.059889065,
				"y": 1.5566930843,
				"z": -0.0311458457,
				"element": "H" 
			},
			{
				"x": -1.7709456133,
				"y": -1.2108236575,
				"z": 1.3658844982,
				"element": "H" 
			},
			{
				"x": -0.0470731412,
				"y": -1.0790593378,
				"z": 1.7849869992,
				"element": "H" 
			},
			{
				"x": -1.1066218747,
				"y": 0.3075712025,
				"z": 2.0123673696,
				"element": "H" 
			},
			{
				"x": 2.7098372536,
				"y": 2.8844228953,
				"z": -2.7387468109,
				"element": "H" 
			},
			{
				"x": 0.9310882124,
				"y": 0.4982902764,
				"z": -2.8762368469,
				"element": "H" 
			},
			{
				"x": -0.0662750094,
				"y": 1.8067292449,
				"z": -2.6618414287,
				"element": "H" 
			}
		],
		 "valence_orbital": [ 
			{
				"type": "occ",
				"energy": -0.3035,
				"method": "rhf"
			},
			{
				"type": "occ",
				"energy": -0.30199,
				"method": "rhf"
			},
			{
				"type": "occ",
				"energy": -0.29169,
				"method": "rhf"
			},
			{
				"type": "occ",
				"energy": -0.24461,
				"method": "rhf"
			},
			{
				"type": "occ",
				"energy": -0.22381,
				"method": "rhf"
			},
			{
				"type": "unocc",
				"energy": 0.01515,
				"method": "rhf"
			},
			{
				"type": "unocc",
				"energy": 0.0215,
				"method": "rhf"
			},
			{
				"type": "unocc",
				"energy": 0.03079,
				"method": "rhf"
			},
			{
				"type": "unocc",
				"energy": 0.04858,
				"method": "rhf"
			},
			{
				"type": "unocc",
				"energy": 0.07595,
				"method": "rhf"
			}
		],
		"cosmo_sigma_profile": { 
			"-0.025": 0.0,
			"-0.024": 0.0,
			"-0.023": 0.0,
			"-0.022": 0.0,
			"-0.021": 0.0,
			"-0.02": 0.0,
			"-0.019": 0.0,
			"-0.018": 0.0,
			"-0.017": 0.0,
			"-0.016": 0.0,
			"-0.015": 0.0,
			"-0.014": 0.636909090732,
			"-0.013": 3.66097051227,
			"-0.012": 4.25857197393,
			"-0.011": 2.99908441694,
			"-0.01": 4.45595052344,
			"-0.009": 3.0272372384,
			"-0.008": 3.92593476574,
			"-0.007": 3.50188000377,
			"-0.006": 2.90804118472,
			"-0.005": 4.3786588863,
			"-0.004": 10.2972770699,
			"-0.003": 21.7391577441,
			"-0.002": 23.374144854,
			"-0.001": 18.9517817864,
			"0.0": 22.511433119,
			"0.001": 17.0639886717,
			"0.002": 9.21675488234,
			"0.003": 6.91023176903,
			"0.004": 7.56959280754,
			"0.005": 7.40874107818,
			"0.006": 4.59337745795,
			"0.007": 4.37799774603,
			"0.008": 2.8321489388,
			"0.009": 1.39544861338,
			"0.01": 2.51004486693,
			"0.011": 2.38117344433,
			"0.012": 2.56484134425,
			"0.013": 2.70040187448,
			"0.014": 3.02604663096,
			"0.015": 3.46616173598,
			"0.016": 2.17580196622,
			"0.017": 0.908104492593,
			"0.018": 0.000955899757575,
			"0.019": 0.0,
			"0.02": 0.0,
			"0.021": 0.0,
			"0.022": 0.0,
			"0.023": 0.0,
			"0.024": 0.0,
			"0.025": 0.0
		}
	}
}
