{
	 "smiles": "OC(=O)CCC1=NC2=C(N1)C(Cl)=CC=C2", 
	 "Tm": 483.15, 
	 "num_atms": 24, 
	 "gaussian": { 
		 "optdone": 1, 
		 "sigma_profile": "yes", 
		 "theory": "DFT", 
		 "functional": "B3LYP", 
		 "basiset": "6-31G**", 
		 "properties": { 
			 "R2extent": 4240.2385, 
			 "electric_dipole_moment_norm": 2.26512134333, 
			 "electric_quadrupole_moment_norm": 18.3861231354, 
			 "total_energy": -1106.66920483, 
			 "HOMO_LUMO_gap": 0.20274, 
			 "cosmo_polarized_energy": -15.93, 
			 "cosmo_cavitation_energy": 30.35, 
			 "cosmo_dispersion_energy": -22.05, 
			 "cosmo_repulsion_energy": 1.74, 
			 "cosmo_total_nonelectrostatic_energy": 10.04, 
			 "SMD_solvation_energy": 3.45 
		},
		"coords": [
			{
				"x": -3.2616989714,
				"y": -2.3164515095,
				"z": 0.4946324347,
				"element": "O" 
			},
			{
				"x": -2.6101040949,
				"y": -3.289978315,
				"z": -0.2103015041,
				"element": "C" 
			},
			{
				"x": -2.4435557959,
				"y": -4.3968899371,
				"z": 0.2428254054,
				"element": "O" 
			},
			{
				"x": -2.1847868422,
				"y": -2.850732012,
				"z": -1.5977299273,
				"element": "C" 
			},
			{
				"x": -2.1153417247,
				"y": -1.3372826392,
				"z": -1.8820647665,
				"element": "C" 
			},
			{
				"x": -1.012681828,
				"y": -0.6187730435,
				"z": -1.1646669348,
				"element": "C" 
			},
			{
				"x": 0.0986795709,
				"y": -0.1971039726,
				"z": -1.7239496571,
				"element": "N" 
			},
			{
				"x": 0.8227256187,
				"y": 0.394852421,
				"z": -0.6987643198,
				"element": "C" 
			},
			{
				"x": 0.0941568972,
				"y": 0.3111793963,
				"z": 0.5143165601,
				"element": "C" 
			},
			{
				"x": -1.0740996718,
				"y": -0.3385875182,
				"z": 0.1856985875,
				"element": "N" 
			},
			{
				"x": 0.5988698098,
				"y": 0.8321093805,
				"z": 1.703815298,
				"element": "C" 
			},
			{
				"x": -0.3393253218,
				"y": 0.7048584809,
				"z": 3.1873710214,
				"element": "Cl" 
			},
			{
				"x": 1.8461231469,
				"y": 1.4439232351,
				"z": 1.6805876447,
				"element": "C" 
			},
			{
				"x": 2.5726605051,
				"y": 1.5292834773,
				"z": 0.4758352447,
				"element": "C" 
			},
			{
				"x": 2.0792650415,
				"y": 1.0131665354,
				"z": -0.7181605555,
				"element": "C" 
			},
			{
				"x": -3.5273410285,
				"y": -2.7343024031,
				"z": 1.332237834,
				"element": "H" 
			},
			{
				"x": -2.9072573865,
				"y": -3.3102125491,
				"z": -2.2847644538,
				"element": "H" 
			},
			{
				"x": -1.2246519089,
				"y": -3.3334690801,
				"z": -1.800068833,
				"element": "H" 
			},
			{
				"x": -1.9326688772,
				"y": -1.1962785932,
				"z": -2.9496871967,
				"element": "H" 
			},
			{
				"x": -3.0803070946,
				"y": -0.8757299028,
				"z": -1.6467603107,
				"element": "H" 
			},
			{
				"x": -1.8303628569,
				"y": -0.5997763537,
				"z": 0.8016203067,
				"element": "H" 
			},
			{
				"x": 2.2546922305,
				"y": 1.8545667476,
				"z": 2.5972175888,
				"element": "H" 
			},
			{
				"x": 3.544182564,
				"y": 2.0134869774,
				"z": 0.4915784563,
				"element": "H" 
			},
			{
				"x": 2.6416280187,
				"y": 1.0805411777,
				"z": -1.6432179229,
				"element": "H" 
			}
		],
		 "valence_orbital": [ 
			{
				"type": "occ",
				"energy": -0.29866,
				"method": "rhf"
			},
			{
				"type": "occ",
				"energy": -0.29132,
				"method": "rhf"
			},
			{
				"type": "occ",
				"energy": -0.27586,
				"method": "rhf"
			},
			{
				"type": "occ",
				"energy": -0.23305,
				"method": "rhf"
			},
			{
				"type": "occ",
				"energy": -0.22628,
				"method": "rhf"
			},
			{
				"type": "unocc",
				"energy": -0.02354,
				"method": "rhf"
			},
			{
				"type": "unocc",
				"energy": -0.01118,
				"method": "rhf"
			},
			{
				"type": "unocc",
				"energy": 0.01371,
				"method": "rhf"
			},
			{
				"type": "unocc",
				"energy": 0.02711,
				"method": "rhf"
			},
			{
				"type": "unocc",
				"energy": 0.04472,
				"method": "rhf"
			}
		],
		"cosmo_sigma_profile": { 
			"-0.025": 0.0,
			"-0.024": 0.0,
			"-0.023": 0.0,
			"-0.022": 0.0,
			"-0.021": 0.0,
			"-0.02": 0.0,
			"-0.019": 0.169940240008,
			"-0.018": 0.835972397313,
			"-0.017": 0.780468582263,
			"-0.016": 1.35593394995,
			"-0.015": 0.732597476513,
			"-0.014": 0.517165587997,
			"-0.013": 0.435955230292,
			"-0.012": 0.940460047877,
			"-0.011": 0.976525580756,
			"-0.01": 1.87041141656,
			"-0.009": 2.38151964374,
			"-0.008": 3.97800531988,
			"-0.007": 7.79185629522,
			"-0.006": 16.1694903319,
			"-0.005": 18.6921291572,
			"-0.004": 18.420398322,
			"-0.003": 14.8552047881,
			"-0.002": 11.7271734899,
			"-0.001": 13.0021091229,
			"0.0": 12.6462646616,
			"0.001": 15.680837696,
			"0.002": 18.505643137,
			"0.003": 17.0453488369,
			"0.004": 21.0344703413,
			"0.005": 13.0239942879,
			"0.006": 3.65435323707,
			"0.007": 3.38698088763,
			"0.008": 2.63610518885,
			"0.009": 2.80054378157,
			"0.01": 3.31952718947,
			"0.011": 5.50351796151,
			"0.012": 4.5341086727,
			"0.013": 1.52649643834,
			"0.014": 0.954660351938,
			"0.015": 0.804762291136,
			"0.016": 0.831318195461,
			"0.017": 0.886755884871,
			"0.018": 0.032124117312,
			"0.019": 0.0,
			"0.02": 0.0,
			"0.021": 0.0,
			"0.022": 0.0,
			"0.023": 0.0,
			"0.024": 0.0,
			"0.025": 0.0
		}
	}
}
