{
	 "smiles": "CC(=O)NCC(O)C1=CC=CC=C1", 
	 "Tm": 393.15, 
	 "num_atms": 26, 
	 "gaussian": { 
		 "optdone": 1, 
		 "sigma_profile": "yes", 
		 "theory": "DFT", 
		 "functional": "B3LYP", 
		 "basiset": "6-31G**", 
		 "properties": { 
			 "R2extent": 3085.7903, 
			 "electric_dipole_moment_norm": 4.58570725843, 
			 "electric_quadrupole_moment_norm": 15.1773788043, 
			 "total_energy": -594.105755485, 
			 "HOMO_LUMO_gap": 0.22899, 
			 "cosmo_polarized_energy": -18.32, 
			 "cosmo_cavitation_energy": 29.19, 
			 "cosmo_dispersion_energy": -20.42, 
			 "cosmo_repulsion_energy": 1.63, 
			 "cosmo_total_nonelectrostatic_energy": 10.4, 
			 "SMD_solvation_energy": 5.33 
		},
		"coords": [
			{
				"x": 3.0333985363,
				"y": 0.5413235631,
				"z": 0.7193270034,
				"element": "C" 
			},
			{
				"x": 2.2057702493,
				"y": -0.5849083992,
				"z": 1.3198225801,
				"element": "C" 
			},
			{
				"x": 2.2414632915,
				"y": -0.8476115435,
				"z": 2.5143255191,
				"element": "O" 
			},
			{
				"x": 1.4308999962,
				"y": -1.3315809592,
				"z": 0.4610716118,
				"element": "N" 
			},
			{
				"x": 1.0758876351,
				"y": -1.0429404905,
				"z": -0.912757469,
				"element": "C" 
			},
			{
				"x": -0.2532130617,
				"y": -0.2579169151,
				"z": -1.0844847609,
				"element": "C" 
			},
			{
				"x": -0.1606754224,
				"y": 1.0382851111,
				"z": -0.5001870032,
				"element": "O" 
			},
			{
				"x": -1.4217612811,
				"y": -0.9931217743,
				"z": -0.4573479414,
				"element": "C" 
			},
			{
				"x": -1.8608108855,
				"y": -0.684122154,
				"z": 0.8356506083,
				"element": "C" 
			},
			{
				"x": -2.9064555918,
				"y": -1.4061266722,
				"z": 1.4146107896,
				"element": "C" 
			},
			{
				"x": -3.521947595,
				"y": -2.4435476475,
				"z": 0.7123229415,
				"element": "C" 
			},
			{
				"x": -3.0893088543,
				"y": -2.7557634251,
				"z": -0.5782254712,
				"element": "C" 
			},
			{
				"x": -2.0464981603,
				"y": -2.0329347079,
				"z": -1.158008654,
				"element": "C" 
			},
			{
				"x": 2.3796386038,
				"y": 1.3298336417,
				"z": 0.3363711218,
				"element": "H" 
			},
			{
				"x": 3.6684722381,
				"y": 0.1923484896,
				"z": -0.10182671,
				"element": "H" 
			},
			{
				"x": 3.661131226,
				"y": 0.9489034983,
				"z": 1.511007219,
				"element": "H" 
			},
			{
				"x": 0.8506137569,
				"y": -2.0009651032,
				"z": 0.9517573018,
				"element": "H" 
			},
			{
				"x": 0.9948464798,
				"y": -1.9869495181,
				"z": -1.4658152667,
				"element": "H" 
			},
			{
				"x": 1.8865572297,
				"y": -0.4759579705,
				"z": -1.3808708537,
				"element": "H" 
			},
			{
				"x": -0.4356996701,
				"y": -0.178620848,
				"z": -2.1686543785,
				"element": "H" 
			},
			{
				"x": 0.4093261141,
				"y": 1.5795397263,
				"z": -1.0599982121,
				"element": "H" 
			},
			{
				"x": -1.3880195225,
				"y": 0.1281979755,
				"z": 1.3757507137,
				"element": "H" 
			},
			{
				"x": -3.2398577884,
				"y": -1.1555698192,
				"z": 2.41765659,
				"element": "H" 
			},
			{
				"x": -4.3360640194,
				"y": -3.0023466606,
				"z": 1.1648340223,
				"element": "H" 
			},
			{
				"x": -3.5676728541,
				"y": -3.555702788,
				"z": -1.1362362423,
				"element": "H" 
			},
			{
				"x": -1.7218206504,
				"y": -2.2740446096,
				"z": -2.1681950596,
				"element": "H" 
			}
		],
		 "valence_orbital": [ 
			{
				"type": "occ",
				"energy": -0.29379,
				"method": "rhf"
			},
			{
				"type": "occ",
				"energy": -0.25394,
				"method": "rhf"
			},
			{
				"type": "occ",
				"energy": -0.24959,
				"method": "rhf"
			},
			{
				"type": "occ",
				"energy": -0.23943,
				"method": "rhf"
			},
			{
				"type": "occ",
				"energy": -0.23573,
				"method": "rhf"
			},
			{
				"type": "unocc",
				"energy": -0.00674,
				"method": "rhf"
			},
			{
				"type": "unocc",
				"energy": -0.0034,
				"method": "rhf"
			},
			{
				"type": "unocc",
				"energy": 0.0315,
				"method": "rhf"
			},
			{
				"type": "unocc",
				"energy": 0.05562,
				"method": "rhf"
			},
			{
				"type": "unocc",
				"energy": 0.09223,
				"method": "rhf"
			}
		],
		"cosmo_sigma_profile": { 
			"-0.025": 0.0,
			"-0.024": 0.0,
			"-0.023": 0.0,
			"-0.022": 0.0,
			"-0.021": 0.0,
			"-0.02": 0.0,
			"-0.019": 0.0,
			"-0.018": 0.0,
			"-0.017": 0.0,
			"-0.016": 0.463405157822,
			"-0.015": 1.13206346855,
			"-0.014": 0.963512790232,
			"-0.013": 1.47725616103,
			"-0.012": 1.44868359751,
			"-0.011": 2.2361819805,
			"-0.01": 1.98294003531,
			"-0.009": 1.983526546,
			"-0.008": 2.30319498977,
			"-0.007": 4.10859410207,
			"-0.006": 13.9076741167,
			"-0.005": 22.1567274978,
			"-0.004": 18.8679321819,
			"-0.003": 20.3594576944,
			"-0.002": 14.9862582685,
			"-0.001": 15.3230861969,
			"0.0": 12.5144518553,
			"0.001": 9.88762710345,
			"0.002": 10.8847155611,
			"0.003": 10.9584345034,
			"0.004": 11.3657167229,
			"0.005": 11.2721782017,
			"0.006": 10.7136025449,
			"0.007": 3.67024990269,
			"0.008": 1.99792072984,
			"0.009": 2.18139627292,
			"0.01": 3.21472164496,
			"0.011": 2.74885481268,
			"0.012": 2.46944613839,
			"0.013": 3.14235901464,
			"0.014": 5.71920388956,
			"0.015": 3.29028432167,
			"0.016": 0.14156663804,
			"0.017": 0.0,
			"0.018": 0.0,
			"0.019": 0.0,
			"0.02": 0.0,
			"0.021": 0.0,
			"0.022": 0.0,
			"0.023": 0.0,
			"0.024": 0.0,
			"0.025": 0.0
		}
	}
}
