{
	 "smiles": "OC(=O)C[C@H](NC(=O)OCC1=CC=CC=C1)C(O)=O", 
	 "Tm": 391.15, 
	 "num_atms": 32, 
	 "gaussian": { 
		 "optdone": 1, 
		 "sigma_profile": "yes", 
		 "theory": "DFT", 
		 "functional": "B3LYP", 
		 "basiset": "6-31G**", 
		 "properties": { 
			 "R2extent": 9337.4824, 
			 "electric_dipole_moment_norm": 8.52269024722, 
			 "electric_quadrupole_moment_norm": 28.8554285796, 
			 "total_energy": -971.251802966, 
			 "HOMO_LUMO_gap": 0.22731, 
			 "cosmo_polarized_energy": -27.21, 
			 "cosmo_cavitation_energy": 37.92, 
			 "cosmo_dispersion_energy": -26.7, 
			 "cosmo_repulsion_energy": 2.09, 
			 "cosmo_total_nonelectrostatic_energy": 13.32, 
			 "SMD_solvation_energy": 9.95 
		},
		"coords": [
			{
				"x": 2.588316767,
				"y": 5.9612423435,
				"z": -0.434202766,
				"element": "O" 
			},
			{
				"x": 1.4908833737,
				"y": 5.2550997537,
				"z": -0.7235424786,
				"element": "C" 
			},
			{
				"x": 0.7912296804,
				"y": 5.5141548762,
				"z": -1.6751156271,
				"element": "O" 
			},
			{
				"x": 1.1365025394,
				"y": 4.0979755038,
				"z": 0.2282635032,
				"element": "C" 
			},
			{
				"x": 2.2551112421,
				"y": 3.0572796694,
				"z": 0.4898868477,
				"element": "C" 
			},
			{
				"x": 1.7257130191,
				"y": 1.7337572931,
				"z": 0.8236849247,
				"element": "N" 
			},
			{
				"x": 1.7783660665,
				"y": 0.7257331647,
				"z": -0.1429495009,
				"element": "C" 
			},
			{
				"x": 2.5250564062,
				"y": 0.7316802692,
				"z": -1.0989292134,
				"element": "O" 
			},
			{
				"x": 0.9117154532,
				"y": -0.2498316104,
				"z": 0.1795613451,
				"element": "O" 
			},
			{
				"x": 0.9073648285,
				"y": -1.3993166071,
				"z": -0.7223660184,
				"element": "C" 
			},
			{
				"x": -0.1720559384,
				"y": -2.3399780632,
				"z": -0.2672704895,
				"element": "C" 
			},
			{
				"x": 0.1148413443,
				"y": -3.36359449,
				"z": 0.6440380351,
				"element": "C" 
			},
			{
				"x": -0.8908500092,
				"y": -4.2265026714,
				"z": 1.0800162108,
				"element": "C" 
			},
			{
				"x": -2.1956964981,
				"y": -4.0721365672,
				"z": 0.607427694,
				"element": "C" 
			},
			{
				"x": -2.491229267,
				"y": -3.0544568203,
				"z": -0.3022868872,
				"element": "C" 
			},
			{
				"x": -1.4834393004,
				"y": -2.1938106092,
				"z": -0.7369212025,
				"element": "C" 
			},
			{
				"x": 3.2385774758,
				"y": 3.516816666,
				"z": 1.5801241178,
				"element": "C" 
			},
			{
				"x": 3.6932459929,
				"y": 2.5679945465,
				"z": 2.3926850675,
				"element": "O" 
			},
			{
				"x": 3.6009256527,
				"y": 4.6747698266,
				"z": 1.6914607514,
				"element": "O" 
			},
			{
				"x": 3.0165954,
				"y": 5.6259727045,
				"z": 0.3901571429,
				"element": "H" 
			},
			{
				"x": 0.292599504,
				"y": 3.5891136404,
				"z": -0.239340872,
				"element": "H" 
			},
			{
				"x": 0.7919046267,
				"y": 4.5212390376,
				"z": 1.1803868223,
				"element": "H" 
			},
			{
				"x": 2.8484505944,
				"y": 2.9106054468,
				"z": -0.4215064396,
				"element": "H" 
			},
			{
				"x": 0.8850249372,
				"y": 1.7108909021,
				"z": 1.3909697037,
				"element": "H" 
			},
			{
				"x": 1.8971376694,
				"y": -1.8626355625,
				"z": -0.6891035541,
				"element": "H" 
			},
			{
				"x": 0.7366963015,
				"y": -1.0346277212,
				"z": -1.7382443601,
				"element": "H" 
			},
			{
				"x": 1.1311611913,
				"y": -3.4861868602,
				"z": 1.0100489559,
				"element": "H" 
			},
			{
				"x": -0.6562782302,
				"y": -5.0197882367,
				"z": 1.7836839376,
				"element": "H" 
			},
			{
				"x": -2.9788479852,
				"y": -4.7457379656,
				"z": 0.94299603,
				"element": "H" 
			},
			{
				"x": -3.5038655204,
				"y": -2.9346756218,
				"z": -0.6759932068,
				"element": "H" 
			},
			{
				"x": -1.7132808792,
				"y": -1.4044117854,
				"z": -1.4481429416,
				"element": "H" 
			},
			{
				"x": 3.2373235618,
				"y": 1.7393655481,
				"z": 2.1398244679,
				"element": "H" 
			}
		],
		 "valence_orbital": [ 
			{
				"type": "occ",
				"energy": -0.30201,
				"method": "rhf"
			},
			{
				"type": "occ",
				"energy": -0.29918,
				"method": "rhf"
			},
			{
				"type": "occ",
				"energy": -0.2686,
				"method": "rhf"
			},
			{
				"type": "occ",
				"energy": -0.26784,
				"method": "rhf"
			},
			{
				"type": "occ",
				"energy": -0.25792,
				"method": "rhf"
			},
			{
				"type": "unocc",
				"energy": -0.03061,
				"method": "rhf"
			},
			{
				"type": "unocc",
				"energy": -0.02529,
				"method": "rhf"
			},
			{
				"type": "unocc",
				"energy": -0.0199,
				"method": "rhf"
			},
			{
				"type": "unocc",
				"energy": 0.00717,
				"method": "rhf"
			},
			{
				"type": "unocc",
				"energy": 0.01803,
				"method": "rhf"
			}
		],
		"cosmo_sigma_profile": { 
			"-0.025": 0.0,
			"-0.024": 0.0,
			"-0.023": 0.0,
			"-0.022": 0.0,
			"-0.021": 0.0,
			"-0.02": 0.0,
			"-0.019": 0.0,
			"-0.018": 0.0,
			"-0.017": 0.0,
			"-0.016": 0.441413885823,
			"-0.015": 2.82358687981,
			"-0.014": 2.21533353627,
			"-0.013": 1.90716974519,
			"-0.012": 3.29228782428,
			"-0.011": 3.92547386357,
			"-0.01": 4.18534532361,
			"-0.009": 5.46710767819,
			"-0.008": 9.15273296986,
			"-0.007": 9.23758404008,
			"-0.006": 22.3386190371,
			"-0.005": 21.1139578059,
			"-0.004": 22.8723913877,
			"-0.003": 18.2355045546,
			"-0.002": 13.8008860843,
			"-0.001": 13.3462751081,
			"0.0": 10.6222853506,
			"0.001": 13.0955918561,
			"0.002": 13.0062428097,
			"0.003": 12.5409499585,
			"0.004": 14.7618675723,
			"0.005": 17.1174953401,
			"0.006": 10.196338681,
			"0.007": 7.32407207824,
			"0.008": 8.73412759678,
			"0.009": 8.36958112575,
			"0.01": 6.74693461569,
			"0.011": 9.93013893997,
			"0.012": 10.3835851572,
			"0.013": 3.77284432041,
			"0.014": 0.591109167398,
			"0.015": 0.0,
			"0.016": 0.0,
			"0.017": 0.0,
			"0.018": 0.0,
			"0.019": 0.0,
			"0.02": 0.0,
			"0.021": 0.0,
			"0.022": 0.0,
			"0.023": 0.0,
			"0.024": 0.0,
			"0.025": 0.0
		}
	}
}
