{
	 "smiles": "COC1=CC=C(N)C=C1Cl", 
	 "Tm": 324.35, 
	 "num_atms": 18, 
	 "gaussian": { 
		 "optdone": 1, 
		 "sigma_profile": "yes", 
		 "theory": "DFT", 
		 "functional": "B3LYP", 
		 "basiset": "6-31G**", 
		 "properties": { 
			 "R2extent": 2240.6447, 
			 "electric_dipole_moment_norm": 3.71916066069, 
			 "electric_quadrupole_moment_norm": 14.1166199237, 
			 "total_energy": -861.716937269, 
			 "HOMO_LUMO_gap": 0.19595, 
			 "cosmo_polarized_energy": -10.59, 
			 "cosmo_cavitation_energy": 23.56, 
			 "cosmo_dispersion_energy": -17.47, 
			 "cosmo_repulsion_energy": 1.43, 
			 "cosmo_total_nonelectrostatic_energy": 7.52, 
			 "SMD_solvation_energy": 4.53 
		},
		"coords": [
			{
				"x": -1.1822125598,
				"y": 2.0120762138,
				"z": -0.19440076,
				"element": "C" 
			},
			{
				"x": -0.2661913096,
				"y": 1.2934553219,
				"z": 0.6333525735,
				"element": "O" 
			},
			{
				"x": -0.2127348711,
				"y": -0.0585647411,
				"z": 0.3930495146,
				"element": "C" 
			},
			{
				"x": 0.7478049161,
				"y": -0.5801163052,
				"z": -0.4784071741,
				"element": "C" 
			},
			{
				"x": 0.8613668605,
				"y": -1.9483399531,
				"z": -0.7006610734,
				"element": "C" 
			},
			{
				"x": 0.0013404628,
				"y": -2.8490503396,
				"z": -0.0492149052,
				"element": "C" 
			},
			{
				"x": 0.1445574823,
				"y": -4.2281427478,
				"z": -0.2184732474,
				"element": "N" 
			},
			{
				"x": -0.9664378386,
				"y": -2.3361068913,
				"z": 0.8295629239,
				"element": "C" 
			},
			{
				"x": -1.0654507769,
				"y": -0.9633080265,
				"z": 1.0406409845,
				"element": "C" 
			},
			{
				"x": -2.2808280134,
				"y": -0.3640294144,
				"z": 2.1573972204,
				"element": "Cl" 
			},
			{
				"x": -0.9227607251,
				"y": 1.9080096473,
				"z": -1.2563209179,
				"element": "H" 
			},
			{
				"x": -1.1024780587,
				"y": 3.0617697967,
				"z": 0.0958096509,
				"element": "H" 
			},
			{
				"x": -2.2134120655,
				"y": 1.6724695049,
				"z": -0.0414559879,
				"element": "H" 
			},
			{
				"x": 1.4183571229,
				"y": 0.1163046573,
				"z": -0.9726022198,
				"element": "H" 
			},
			{
				"x": 1.6251597858,
				"y": -2.3260604753,
				"z": -1.3751524692,
				"element": "H" 
			},
			{
				"x": 0.5790705473,
				"y": -4.5086539862,
				"z": -1.0867824896,
				"element": "H" 
			},
			{
				"x": -0.6825479816,
				"y": -4.774136328,
				"z": -0.0203853951,
				"element": "H" 
			},
			{
				"x": -1.6379029774,
				"y": -3.0054759333,
				"z": 1.3577437719,
				"element": "H" 
			}
		],
		 "valence_orbital": [ 
			{
				"type": "occ",
				"energy": -0.30544,
				"method": "rhf"
			},
			{
				"type": "occ",
				"energy": -0.29263,
				"method": "rhf"
			},
			{
				"type": "occ",
				"energy": -0.26916,
				"method": "rhf"
			},
			{
				"type": "occ",
				"energy": -0.24491,
				"method": "rhf"
			},
			{
				"type": "occ",
				"energy": -0.20415,
				"method": "rhf"
			},
			{
				"type": "unocc",
				"energy": -0.0082,
				"method": "rhf"
			},
			{
				"type": "unocc",
				"energy": 0.01226,
				"method": "rhf"
			},
			{
				"type": "unocc",
				"energy": 0.03568,
				"method": "rhf"
			},
			{
				"type": "unocc",
				"energy": 0.07533,
				"method": "rhf"
			},
			{
				"type": "unocc",
				"energy": 0.11061,
				"method": "rhf"
			}
		],
		"cosmo_sigma_profile": { 
			"-0.025": 0.0,
			"-0.024": 0.0,
			"-0.023": 0.0,
			"-0.022": 0.0,
			"-0.021": 0.0,
			"-0.02": 0.0,
			"-0.019": 0.0,
			"-0.018": 0.0,
			"-0.017": 0.0,
			"-0.016": 0.0,
			"-0.015": 0.0,
			"-0.014": 0.0,
			"-0.013": 0.759113134215,
			"-0.012": 3.36935190223,
			"-0.011": 2.47668551158,
			"-0.01": 3.09949180471,
			"-0.009": 4.15551223858,
			"-0.008": 2.8875647391,
			"-0.007": 4.31779422475,
			"-0.006": 6.62982200737,
			"-0.005": 8.62565540651,
			"-0.004": 12.2173558772,
			"-0.003": 14.7247953138,
			"-0.002": 14.2716445753,
			"-0.001": 10.550988511,
			"0.0": 9.38259497666,
			"0.001": 9.82720098249,
			"0.002": 11.9548008691,
			"0.003": 15.5528635713,
			"0.004": 19.435045945,
			"0.005": 14.8393909191,
			"0.006": 4.02624593226,
			"0.007": 3.30598064173,
			"0.008": 2.50166761654,
			"0.009": 1.94182163438,
			"0.01": 2.57277073608,
			"0.011": 2.47941682864,
			"0.012": 1.72178199618,
			"0.013": 0.724288765913,
			"0.014": 0.786343982961,
			"0.015": 0.0145345034709,
			"0.016": 0.0,
			"0.017": 0.0,
			"0.018": 0.0,
			"0.019": 0.0,
			"0.02": 0.0,
			"0.021": 0.0,
			"0.022": 0.0,
			"0.023": 0.0,
			"0.024": 0.0,
			"0.025": 0.0
		}
	}
}
