{
	 "smiles": "O=C=NC1=CC=CC(=C1)C#N", 
	 "Tm": 326.15, 
	 "num_atms": 15, 
	 "gaussian": { 
		 "optdone": 1, 
		 "sigma_profile": "yes", 
		 "theory": "DFT", 
		 "functional": "B3LYP", 
		 "basiset": "6-31G**", 
		 "properties": { 
			 "R2extent": 2775.7897, 
			 "electric_dipole_moment_norm": 3.6340642991, 
			 "electric_quadrupole_moment_norm": 20.2891055641, 
			 "total_energy": -491.968905452, 
			 "HOMO_LUMO_gap": 0.19433, 
			 "cosmo_polarized_energy": -9.99, 
			 "cosmo_cavitation_energy": 22.52, 
			 "cosmo_dispersion_energy": -15.57, 
			 "cosmo_repulsion_energy": 1.26, 
			 "cosmo_total_nonelectrostatic_energy": 8.2, 
			 "SMD_solvation_energy": 7.68 
		},
		"coords": [
			{
				"x": 3.3053369566,
				"y": 1.5583777834,
				"z": -2.5016655485,
				"element": "O" 
			},
			{
				"x": 2.8168520238,
				"y": 0.7279311095,
				"z": -1.8265283395,
				"element": "C" 
			},
			{
				"x": 2.3746538047,
				"y": -0.2237111341,
				"z": -1.2213159584,
				"element": "N" 
			},
			{
				"x": 1.593582293,
				"y": -0.4952675882,
				"z": -0.0984065644,
				"element": "C" 
			},
			{
				"x": 1.066151192,
				"y": 0.525621544,
				"z": 0.708867419,
				"element": "C" 
			},
			{
				"x": 0.2911995991,
				"y": 0.202686796,
				"z": 1.8206220724,
				"element": "C" 
			},
			{
				"x": 0.0308577727,
				"y": -1.1272233528,
				"z": 2.1444156655,
				"element": "C" 
			},
			{
				"x": 0.5591998496,
				"y": -2.1469019638,
				"z": 1.3357251698,
				"element": "C" 
			},
			{
				"x": 1.3403886577,
				"y": -1.8337240469,
				"z": 0.2143566702,
				"element": "C" 
			},
			{
				"x": 0.2994945955,
				"y": -3.5215842011,
				"z": 1.6565427209,
				"element": "C" 
			},
			{
				"x": 0.0865446501,
				"y": -4.6340207758,
				"z": 1.9202168669,
				"element": "N" 
			},
			{
				"x": 1.2664867917,
				"y": 1.5632539042,
				"z": 0.4599771667,
				"element": "H" 
			},
			{
				"x": -0.1129949916,
				"y": 0.9973808179,
				"z": 2.4396112545,
				"element": "H" 
			},
			{
				"x": -0.5717146256,
				"y": -1.3825582858,
				"z": 3.0087641933,
				"element": "H" 
			},
			{
				"x": 1.7495614306,
				"y": -2.6175606064,
				"z": -0.4118827883,
				"element": "H" 
			}
		],
		 "valence_orbital": [ 
			{
				"type": "occ",
				"energy": -0.33922,
				"method": "rhf"
			},
			{
				"type": "occ",
				"energy": -0.33631,
				"method": "rhf"
			},
			{
				"type": "occ",
				"energy": -0.32639,
				"method": "rhf"
			},
			{
				"type": "occ",
				"energy": -0.28157,
				"method": "rhf"
			},
			{
				"type": "occ",
				"energy": -0.26003,
				"method": "rhf"
			},
			{
				"type": "unocc",
				"energy": -0.0657,
				"method": "rhf"
			},
			{
				"type": "unocc",
				"energy": -0.04273,
				"method": "rhf"
			},
			{
				"type": "unocc",
				"energy": -0.00614,
				"method": "rhf"
			},
			{
				"type": "unocc",
				"energy": 0.02902,
				"method": "rhf"
			},
			{
				"type": "unocc",
				"energy": 0.03794,
				"method": "rhf"
			}
		],
		"cosmo_sigma_profile": { 
			"-0.025": 0.0,
			"-0.024": 0.0,
			"-0.023": 0.0,
			"-0.022": 0.0,
			"-0.021": 0.0,
			"-0.02": 0.0,
			"-0.019": 0.0,
			"-0.018": 0.0,
			"-0.017": 0.0,
			"-0.016": 0.0,
			"-0.015": 0.0,
			"-0.014": 0.0,
			"-0.013": 0.0,
			"-0.012": 0.0,
			"-0.011": 0.0,
			"-0.01": 0.0764997140776,
			"-0.009": 3.4816805534,
			"-0.008": 7.53238237341,
			"-0.007": 9.96157911867,
			"-0.006": 10.306544334,
			"-0.005": 7.95723973436,
			"-0.004": 9.82220308874,
			"-0.003": 11.968763464,
			"-0.002": 13.3351624526,
			"-0.001": 14.4171298544,
			"0.0": 16.2089024934,
			"0.001": 19.1101541352,
			"0.002": 11.188438917,
			"0.003": 6.18062666282,
			"0.004": 4.74927129691,
			"0.005": 5.2968245655,
			"0.006": 6.17182766474,
			"0.007": 10.3659774929,
			"0.008": 3.71784824822,
			"0.009": 3.3883923191,
			"0.01": 2.85203031459,
			"0.011": 2.7904516451,
			"0.012": 2.385996604,
			"0.013": 1.06514511494,
			"0.014": 0.0,
			"0.015": 0.0,
			"0.016": 0.0,
			"0.017": 0.0,
			"0.018": 0.0,
			"0.019": 0.0,
			"0.02": 0.0,
			"0.021": 0.0,
			"0.022": 0.0,
			"0.023": 0.0,
			"0.024": 0.0,
			"0.025": 0.0
		}
	}
}
