{
	 "smiles": "CC(=O)N1CC(C1)C(O)=O", 
	 "Tm": 423.15, 
	 "num_atms": 19, 
	 "gaussian": { 
		 "optdone": 1, 
		 "sigma_profile": "yes", 
		 "theory": "DFT", 
		 "functional": "B3LYP", 
		 "basiset": "6-31G**", 
		 "properties": { 
			 "R2extent": 2598.9096, 
			 "electric_dipole_moment_norm": 4.01137421964, 
			 "electric_quadrupole_moment_norm": 24.3917130633, 
			 "total_energy": -514.472820753, 
			 "HOMO_LUMO_gap": 0.23563, 
			 "cosmo_polarized_energy": -21.23, 
			 "cosmo_cavitation_energy": 23.19, 
			 "cosmo_dispersion_energy": -16.59, 
			 "cosmo_repulsion_energy": 1.38, 
			 "cosmo_total_nonelectrostatic_energy": 7.98, 
			 "SMD_solvation_energy": 4.85 
		},
		"coords": [
			{
				"x": -0.2434937728,
				"y": -1.8680272404,
				"z": -0.30944833,
				"element": "C" 
			},
			{
				"x": -1.0391987493,
				"y": -0.6074305738,
				"z": -0.0195178379,
				"element": "C" 
			},
			{
				"x": -2.1619345328,
				"y": -0.6083499879,
				"z": 0.4692923237,
				"element": "O" 
			},
			{
				"x": -0.4118370406,
				"y": 0.5693044559,
				"z": -0.3339890181,
				"element": "N" 
			},
			{
				"x": 0.6766990546,
				"y": 0.8976506919,
				"z": -1.2711272961,
				"element": "C" 
			},
			{
				"x": 0.1293359886,
				"y": 2.3447824701,
				"z": -1.3375096697,
				"element": "C" 
			},
			{
				"x": -1.0697314124,
				"y": 1.8703457305,
				"z": -0.4405683669,
				"element": "C" 
			},
			{
				"x": -0.2471062981,
				"y": 2.8384436949,
				"z": -2.7229453352,
				"element": "C" 
			},
			{
				"x": -0.7696282553,
				"y": 4.0921208637,
				"z": -2.7646525665,
				"element": "O" 
			},
			{
				"x": -0.1303937191,
				"y": 2.1949384243,
				"z": -3.7353593367,
				"element": "O" 
			},
			{
				"x": -0.705744862,
				"y": -2.700384774,
				"z": 0.2212520194,
				"element": "H" 
			},
			{
				"x": 0.8034088112,
				"y": -1.7709613399,
				"z": -0.0057788258,
				"element": "H" 
			},
			{
				"x": -0.2602234981,
				"y": -2.0861616211,
				"z": -1.3837286098,
				"element": "H" 
			},
			{
				"x": 0.6185277885,
				"y": 0.3858726668,
				"z": -2.2373241077,
				"element": "H" 
			},
			{
				"x": 1.6831954291,
				"y": 0.7891822566,
				"z": -0.8534506711,
				"element": "H" 
			},
			{
				"x": 0.7676776538,
				"y": 3.0801313843,
				"z": -0.8372265101,
				"element": "H" 
			},
			{
				"x": -2.0418274897,
				"y": 1.8229004964,
				"z": -0.9452333256,
				"element": "H" 
			},
			{
				"x": -1.1903252344,
				"y": 2.3962430871,
				"z": 0.5120413721,
				"element": "H" 
			},
			{
				"x": -0.8023998614,
				"y": 4.4769993146,
				"z": -1.8770259077,
				"element": "H" 
			}
		],
		 "valence_orbital": [ 
			{
				"type": "occ",
				"energy": -0.35099,
				"method": "rhf"
			},
			{
				"type": "occ",
				"energy": -0.32924,
				"method": "rhf"
			},
			{
				"type": "occ",
				"energy": -0.28623,
				"method": "rhf"
			},
			{
				"type": "occ",
				"energy": -0.25235,
				"method": "rhf"
			},
			{
				"type": "occ",
				"energy": -0.24464,
				"method": "rhf"
			},
			{
				"type": "unocc",
				"energy": -0.00901,
				"method": "rhf"
			},
			{
				"type": "unocc",
				"energy": 0.02073,
				"method": "rhf"
			},
			{
				"type": "unocc",
				"energy": 0.0353,
				"method": "rhf"
			},
			{
				"type": "unocc",
				"energy": 0.07427,
				"method": "rhf"
			},
			{
				"type": "unocc",
				"energy": 0.0943,
				"method": "rhf"
			}
		],
		"cosmo_sigma_profile": { 
			"-0.025": 0.0,
			"-0.024": 0.0,
			"-0.023": 0.0,
			"-0.022": 0.0,
			"-0.021": 0.0,
			"-0.02": 0.092820609419,
			"-0.019": 0.739743186986,
			"-0.018": 1.40465386939,
			"-0.017": 1.10683865659,
			"-0.016": 0.687652126018,
			"-0.015": 1.37291338881,
			"-0.014": 1.12316179394,
			"-0.013": 1.34841248105,
			"-0.012": 1.0359422454,
			"-0.011": 1.11266335404,
			"-0.01": 1.19461612913,
			"-0.009": 1.72679985959,
			"-0.008": 3.52299118113,
			"-0.007": 5.3036765586,
			"-0.006": 14.9687900216,
			"-0.005": 19.2057772487,
			"-0.004": 14.2003982892,
			"-0.003": 14.7389503375,
			"-0.002": 11.301164136,
			"-0.001": 10.3188926958,
			"0.0": 7.32250136842,
			"0.001": 3.58537397676,
			"0.002": 4.15006038675,
			"0.003": 4.25055207408,
			"0.004": 4.8723129104,
			"0.005": 3.90806308866,
			"0.006": 4.28577220457,
			"0.007": 3.65527253176,
			"0.008": 4.49120729696,
			"0.009": 4.32176628266,
			"0.01": 6.65011564636,
			"0.011": 7.60373867229,
			"0.012": 5.45514875882,
			"0.013": 3.95041428796,
			"0.014": 5.67098449766,
			"0.015": 1.59322611887,
			"0.016": 0.0392736931939,
			"0.017": 0.0,
			"0.018": 0.0,
			"0.019": 0.0,
			"0.02": 0.0,
			"0.021": 0.0,
			"0.022": 0.0,
			"0.023": 0.0,
			"0.024": 0.0,
			"0.025": 0.0
		}
	}
}
