{
	 "smiles": "S=C=NC1=C(C=CC=C1)N=C=S", 
	 "Tm": 330.15, 
	 "num_atms": 16, 
	 "gaussian": { 
		 "optdone": 1, 
		 "sigma_profile": "yes", 
		 "theory": "DFT", 
		 "functional": "B3LYP", 
		 "basiset": "6-31G**", 
		 "properties": { 
			 "R2extent": 3616.4055, 
			 "electric_dipole_moment_norm": 5.46043770498, 
			 "electric_quadrupole_moment_norm": 3.43019858172, 
			 "total_energy": -1213.12510192, 
			 "HOMO_LUMO_gap": 0.16107, 
			 "cosmo_polarized_energy": -7.82, 
			 "cosmo_cavitation_energy": 27.47, 
			 "cosmo_dispersion_energy": -19.92, 
			 "cosmo_repulsion_energy": 1.54, 
			 "cosmo_total_nonelectrostatic_energy": 9.09, 
			 "SMD_solvation_energy": 5.89 
		},
		"coords": [
			{
				"x": -1.5319738845,
				"y": -4.3638004358,
				"z": 0.3552332144,
				"element": "S" 
			},
			{
				"x": -0.6939462208,
				"y": -3.0359861114,
				"z": 0.1090197861,
				"element": "C" 
			},
			{
				"x": -0.0589494691,
				"y": -2.0475626618,
				"z": -0.0739775211,
				"element": "N" 
			},
			{
				"x": 0.6631419988,
				"y": -0.912060672,
				"z": -0.2947806557,
				"element": "C" 
			},
			{
				"x": 0.0065016,
				"y": 0.3466119202,
				"z": -0.3507089983,
				"element": "C" 
			},
			{
				"x": 0.7605381219,
				"y": 1.508127493,
				"z": -0.5783698669,
				"element": "C" 
			},
			{
				"x": 2.1391230147,
				"y": 1.4290223256,
				"z": -0.7475540468,
				"element": "C" 
			},
			{
				"x": 2.7855262459,
				"y": 0.1900580493,
				"z": -0.692198479,
				"element": "C" 
			},
			{
				"x": 2.0545543868,
				"y": -0.9720778299,
				"z": -0.4675208924,
				"element": "C" 
			},
			{
				"x": -1.3450072076,
				"y": 0.4174506281,
				"z": -0.1837394235,
				"element": "N" 
			},
			{
				"x": -2.5233250031,
				"y": 0.4789629089,
				"z": -0.0370803502,
				"element": "C" 
			},
			{
				"x": -4.0979285997,
				"y": 0.5727187159,
				"z": 0.1576066831,
				"element": "S" 
			},
			{
				"x": 0.2437498227,
				"y": 2.4606932827,
				"z": -0.6183293126,
				"element": "H" 
			},
			{
				"x": 2.7093666617,
				"y": 2.335481543,
				"z": -0.9227838858,
				"element": "H" 
			},
			{
				"x": 3.860859666,
				"y": 0.1284492538,
				"z": -0.8241546971,
				"element": "H" 
			},
			{
				"x": 2.5400688665,
				"y": -1.9406884096,
				"z": -0.4215615541,
				"element": "H" 
			}
		],
		 "valence_orbital": [ 
			{
				"type": "occ",
				"energy": -0.30283,
				"method": "rhf"
			},
			{
				"type": "occ",
				"energy": -0.26067,
				"method": "rhf"
			},
			{
				"type": "occ",
				"energy": -0.26039,
				"method": "rhf"
			},
			{
				"type": "occ",
				"energy": -0.25503,
				"method": "rhf"
			},
			{
				"type": "occ",
				"energy": -0.23199,
				"method": "rhf"
			},
			{
				"type": "unocc",
				"energy": -0.07092,
				"method": "rhf"
			},
			{
				"type": "unocc",
				"energy": -0.04887,
				"method": "rhf"
			},
			{
				"type": "unocc",
				"energy": -0.00683,
				"method": "rhf"
			},
			{
				"type": "unocc",
				"energy": -0.00399,
				"method": "rhf"
			},
			{
				"type": "unocc",
				"energy": 0.0319,
				"method": "rhf"
			}
		],
		"cosmo_sigma_profile": { 
			"-0.025": 0.0,
			"-0.024": 0.0,
			"-0.023": 0.0,
			"-0.022": 0.0,
			"-0.021": 0.0,
			"-0.02": 0.0,
			"-0.019": 0.0,
			"-0.018": 0.0,
			"-0.017": 0.0,
			"-0.016": 0.0,
			"-0.015": 0.0,
			"-0.014": 0.0,
			"-0.013": 0.0,
			"-0.012": 0.0,
			"-0.011": 0.0,
			"-0.01": 0.0,
			"-0.009": 0.192259312315,
			"-0.008": 4.61787572711,
			"-0.007": 9.55091846013,
			"-0.006": 10.2791438127,
			"-0.005": 8.15487434591,
			"-0.004": 8.74684157553,
			"-0.003": 14.0397397656,
			"-0.002": 25.7382272485,
			"-0.001": 24.6667466017,
			"0.0": 19.9020972476,
			"0.001": 18.9831696696,
			"0.002": 20.6304234789,
			"0.003": 13.3407586395,
			"0.004": 13.7378573536,
			"0.005": 23.8938420624,
			"0.006": 13.9975382008,
			"0.007": 0.0,
			"0.008": 0.0,
			"0.009": 0.0,
			"0.01": 0.0,
			"0.011": 0.0,
			"0.012": 0.0,
			"0.013": 0.0,
			"0.014": 0.0,
			"0.015": 0.0,
			"0.016": 0.0,
			"0.017": 0.0,
			"0.018": 0.0,
			"0.019": 0.0,
			"0.02": 0.0,
			"0.021": 0.0,
			"0.022": 0.0,
			"0.023": 0.0,
			"0.024": 0.0,
			"0.025": 0.0
		}
	}
}
