{
	 "smiles": "OC(=O)C1=C2OCC(=O)NC2=CC=C1", 
	 "Tm": 585.15, 
	 "num_atms": 21, 
	 "gaussian": { 
		 "optdone": 1, 
		 "sigma_profile": "yes", 
		 "theory": "DFT", 
		 "functional": "B3LYP", 
		 "basiset": "6-31G**", 
		 "properties": { 
			 "R2extent": 2844.0962, 
			 "electric_dipole_moment_norm": 3.62454264563, 
			 "electric_quadrupole_moment_norm": 5.45368115313, 
			 "total_energy": -702.839103553, 
			 "HOMO_LUMO_gap": 0.17338, 
			 "cosmo_polarized_energy": -18.44, 
			 "cosmo_cavitation_energy": 25.88, 
			 "cosmo_dispersion_energy": -19.45, 
			 "cosmo_repulsion_energy": 1.52, 
			 "cosmo_total_nonelectrostatic_energy": 7.95, 
			 "SMD_solvation_energy": 6.52 
		},
		"coords": [
			{
				"x": 3.1969144866,
				"y": 2.4104745835,
				"z": 1.2885826078,
				"element": "O" 
			},
			{
				"x": 2.3414081952,
				"y": 1.8304669653,
				"z": 0.3999386146,
				"element": "C" 
			},
			{
				"x": 2.4942413227,
				"y": 1.956405679,
				"z": -0.796322087,
				"element": "O" 
			},
			{
				"x": 1.2530192632,
				"y": 1.0815665977,
				"z": 1.0880904594,
				"element": "C" 
			},
			{
				"x": 0.3329127416,
				"y": 0.3051465024,
				"z": 0.3582531013,
				"element": "C" 
			},
			{
				"x": 0.4661332579,
				"y": 0.1411125033,
				"z": -0.9844845564,
				"element": "O" 
			},
			{
				"x": -0.7385466561,
				"y": -0.0848728401,
				"z": -1.7196003201,
				"element": "C" 
			},
			{
				"x": -1.6607281204,
				"y": -1.1225144264,
				"z": -1.091687878,
				"element": "C" 
			},
			{
				"x": -2.4378613236,
				"y": -1.8006046791,
				"z": -1.7404297045,
				"element": "O" 
			},
			{
				"x": -1.5645675755,
				"y": -1.1797028429,
				"z": 0.2759239596,
				"element": "N" 
			},
			{
				"x": -0.7013749768,
				"y": -0.3720611677,
				"z": 1.0355664246,
				"element": "C" 
			},
			{
				"x": -0.8237517187,
				"y": -0.2692905517,
				"z": 2.4192564054,
				"element": "C" 
			},
			{
				"x": 0.0930335197,
				"y": 0.492534553,
				"z": 3.1459414578,
				"element": "C" 
			},
			{
				"x": 1.1210174255,
				"y": 1.1551378362,
				"z": 2.4876523071,
				"element": "C" 
			},
			{
				"x": 3.8480544907,
				"y": 2.8799172439,
				"z": 0.7422104697,
				"element": "H" 
			},
			{
				"x": -1.2948022852,
				"y": 0.8575507932,
				"z": -1.8344209613,
				"element": "H" 
			},
			{
				"x": -0.4398719529,
				"y": -0.4345494229,
				"z": -2.7073843472,
				"element": "H" 
			},
			{
				"x": -2.2006837837,
				"y": -1.8130461418,
				"z": 0.7433338089,
				"element": "H" 
			},
			{
				"x": -1.629474615,
				"y": -0.7965171511,
				"z": 2.9234740241,
				"element": "H" 
			},
			{
				"x": -0.0007323547,
				"y": 0.5646573552,
				"z": 4.2243512326,
				"element": "H" 
			},
			{
				"x": 1.8335606596,
				"y": 1.7511886109,
				"z": 3.0431549817,
				"element": "H" 
			}
		],
		 "valence_orbital": [ 
			{
				"type": "occ",
				"energy": -0.31503,
				"method": "rhf"
			},
			{
				"type": "occ",
				"energy": -0.2753,
				"method": "rhf"
			},
			{
				"type": "occ",
				"energy": -0.26592,
				"method": "rhf"
			},
			{
				"type": "occ",
				"energy": -0.25521,
				"method": "rhf"
			},
			{
				"type": "occ",
				"energy": -0.22651,
				"method": "rhf"
			},
			{
				"type": "unocc",
				"energy": -0.05313,
				"method": "rhf"
			},
			{
				"type": "unocc",
				"energy": -0.02267,
				"method": "rhf"
			},
			{
				"type": "unocc",
				"energy": 0.01884,
				"method": "rhf"
			},
			{
				"type": "unocc",
				"energy": 0.05623,
				"method": "rhf"
			},
			{
				"type": "unocc",
				"energy": 0.07141,
				"method": "rhf"
			}
		],
		"cosmo_sigma_profile": { 
			"-0.025": 0.0,
			"-0.024": 0.0,
			"-0.023": 0.0,
			"-0.022": 0.0,
			"-0.021": 0.0,
			"-0.02": 0.0,
			"-0.019": 0.0,
			"-0.018": 0.567978824963,
			"-0.017": 0.905927222253,
			"-0.016": 1.84316983868,
			"-0.015": 1.68453167913,
			"-0.014": 2.00949673431,
			"-0.013": 1.83213551355,
			"-0.012": 1.41239707325,
			"-0.011": 1.77497894864,
			"-0.01": 2.76673044442,
			"-0.009": 2.5928311735,
			"-0.008": 7.39268659846,
			"-0.007": 9.41531349265,
			"-0.006": 10.5319652596,
			"-0.005": 12.1219751048,
			"-0.004": 9.39720169787,
			"-0.003": 8.4747583404,
			"-0.002": 11.424943279,
			"-0.001": 12.665888161,
			"0.0": 14.75354724,
			"0.001": 13.9406087014,
			"0.002": 13.0446554824,
			"0.003": 11.0167064255,
			"0.004": 8.20239255456,
			"0.005": 4.11754756289,
			"0.006": 5.64194798388,
			"0.007": 4.15109354589,
			"0.008": 2.5443377123,
			"0.009": 3.38942288485,
			"0.01": 4.50683280004,
			"0.011": 4.60069701566,
			"0.012": 10.0423074295,
			"0.013": 6.17310018502,
			"0.014": 1.84635846404,
			"0.015": 0.277303547542,
			"0.016": 0.0,
			"0.017": 0.0,
			"0.018": 0.0,
			"0.019": 0.0,
			"0.02": 0.0,
			"0.021": 0.0,
			"0.022": 0.0,
			"0.023": 0.0,
			"0.024": 0.0,
			"0.025": 0.0
		}
	}
}
