{
	 "smiles": "NC(=O)C1=CNC(=N1)C1CC1", 
	 "Tm": 490.15, 
	 "num_atms": 20, 
	 "gaussian": { 
		 "optdone": 1, 
		 "sigma_profile": "yes", 
		 "theory": "DFT", 
		 "functional": "B3LYP", 
		 "basiset": "6-31G**", 
		 "properties": { 
			 "R2extent": 2137.1141, 
			 "electric_dipole_moment_norm": 4.89506016, 
			 "electric_quadrupole_moment_norm": 19.2835898427, 
			 "total_energy": -511.643734597, 
			 "HOMO_LUMO_gap": 0.22085, 
			 "cosmo_polarized_energy": -18.71, 
			 "cosmo_cavitation_energy": 24.38, 
			 "cosmo_dispersion_energy": -17.96, 
			 "cosmo_repulsion_energy": 1.48, 
			 "cosmo_total_nonelectrostatic_energy": 7.9, 
			 "SMD_solvation_energy": 3.78 
		},
		"coords": [
			{
				"x": 1.6220204992,
				"y": 2.8414463731,
				"z": 0.2388493194,
				"element": "N" 
			},
			{
				"x": 1.8942915358,
				"y": 1.9194071228,
				"z": 1.2051738299,
				"element": "C" 
			},
			{
				"x": 2.5802591502,
				"y": 2.1478969512,
				"z": 2.1980068902,
				"element": "O" 
			},
			{
				"x": 1.2830581467,
				"y": 0.5927138085,
				"z": 0.9512985189,
				"element": "C" 
			},
			{
				"x": 1.3958569719,
				"y": -0.5173805841,
				"z": 1.7507043637,
				"element": "C" 
			},
			{
				"x": 0.6650624269,
				"y": -1.4921194661,
				"z": 1.1093491272,
				"element": "N" 
			},
			{
				"x": 0.143320974,
				"y": -0.946282622,
				"z": -0.0390243126,
				"element": "C" 
			},
			{
				"x": 0.5032461634,
				"y": 0.3158583318,
				"z": -0.157163572,
				"element": "N" 
			},
			{
				"x": -0.6996680955,
				"y": -1.7106649269,
				"z": -0.9793382009,
				"element": "C" 
			},
			{
				"x": -0.6012889067,
				"y": -1.4191899147,
				"z": -2.4659424959,
				"element": "C" 
			},
			{
				"x": -1.8256071347,
				"y": -0.9998469582,
				"z": -1.7089329402,
				"element": "C" 
			},
			{
				"x": 1.9890303333,
				"y": 3.7736404516,
				"z": 0.3392305491,
				"element": "H" 
			},
			{
				"x": 1.0408854925,
				"y": 2.59026508,
				"z": -0.5461268926,
				"element": "H" 
			},
			{
				"x": 1.9149012743,
				"y": -0.6784762334,
				"z": 2.6813226852,
				"element": "H" 
			},
			{
				"x": 0.5372809227,
				"y": -2.4419051795,
				"z": 1.4246798905,
				"element": "H" 
			},
			{
				"x": -0.8762475991,
				"y": -2.7441055139,
				"z": -0.691998302,
				"element": "H" 
			},
			{
				"x": -0.6710633242,
				"y": -2.2599335596,
				"z": -3.1494077623,
				"element": "H" 
			},
			{
				"x": 0.1028517345,
				"y": -0.6454696246,
				"z": -2.7535140211,
				"element": "H" 
			},
			{
				"x": -1.9439854625,
				"y": 0.0556107172,
				"z": -1.4872216202,
				"element": "H" 
			},
			{
				"x": -2.7502051029,
				"y": -1.5475642531,
				"z": -1.8637450543,
				"element": "H" 
			}
		],
		 "valence_orbital": [ 
			{
				"type": "occ",
				"energy": -0.28339,
				"method": "rhf"
			},
			{
				"type": "occ",
				"energy": -0.28326,
				"method": "rhf"
			},
			{
				"type": "occ",
				"energy": -0.24768,
				"method": "rhf"
			},
			{
				"type": "occ",
				"energy": -0.23358,
				"method": "rhf"
			},
			{
				"type": "occ",
				"energy": -0.21875,
				"method": "rhf"
			},
			{
				"type": "unocc",
				"energy": 0.0021,
				"method": "rhf"
			},
			{
				"type": "unocc",
				"energy": 0.02451,
				"method": "rhf"
			},
			{
				"type": "unocc",
				"energy": 0.06262,
				"method": "rhf"
			},
			{
				"type": "unocc",
				"energy": 0.09205,
				"method": "rhf"
			},
			{
				"type": "unocc",
				"energy": 0.10801,
				"method": "rhf"
			}
		],
		"cosmo_sigma_profile": { 
			"-0.025": 0.0,
			"-0.024": 0.0,
			"-0.023": 0.0,
			"-0.022": 0.0,
			"-0.021": 0.0,
			"-0.02": 0.0,
			"-0.019": 0.0,
			"-0.018": 0.0,
			"-0.017": 0.710849298967,
			"-0.016": 1.77927293889,
			"-0.015": 1.67657957831,
			"-0.014": 1.3322130974,
			"-0.013": 2.62314080274,
			"-0.012": 2.58781788787,
			"-0.011": 4.19534918513,
			"-0.01": 2.76891225849,
			"-0.009": 3.76438752549,
			"-0.008": 4.37614519279,
			"-0.007": 5.04642571515,
			"-0.006": 5.41540636506,
			"-0.005": 9.57105476309,
			"-0.004": 11.1790641035,
			"-0.003": 9.40241087673,
			"-0.002": 9.01064230579,
			"-0.001": 10.4478518513,
			"0.0": 11.1331227617,
			"0.001": 12.5082080919,
			"0.002": 14.4284747096,
			"0.003": 18.4800109727,
			"0.004": 12.7157237227,
			"0.005": 6.33286749627,
			"0.006": 4.73293935552,
			"0.007": 3.8412859704,
			"0.008": 2.76907144697,
			"0.009": 3.46403629936,
			"0.01": 2.09794767026,
			"0.011": 1.43923113938,
			"0.012": 1.83393319954,
			"0.013": 1.88470627592,
			"0.014": 6.12682316469,
			"0.015": 3.33340862924,
			"0.016": 0.26290097606,
			"0.017": 0.0,
			"0.018": 0.0,
			"0.019": 0.0,
			"0.02": 0.0,
			"0.021": 0.0,
			"0.022": 0.0,
			"0.023": 0.0,
			"0.024": 0.0,
			"0.025": 0.0
		}
	}
}
