{
	 "smiles": "FC1=CC=C(C=C1)C(Cl)=O", 
	 "Tm": 282.65, 
	 "num_atms": 14, 
	 "gaussian": { 
		 "optdone": 1, 
		 "sigma_profile": "yes", 
		 "theory": "DFT", 
		 "functional": "B3LYP", 
		 "basiset": "6-31G**", 
		 "properties": { 
			 "R2extent": 2473.4781, 
			 "electric_dipole_moment_norm": 2.93722404661, 
			 "electric_quadrupole_moment_norm": 12.9151020453, 
			 "total_energy": -904.413642477, 
			 "HOMO_LUMO_gap": 0.19593, 
			 "cosmo_polarized_energy": -5.72, 
			 "cosmo_cavitation_energy": 21.23, 
			 "cosmo_dispersion_energy": -15.71, 
			 "cosmo_repulsion_energy": 1.24, 
			 "cosmo_total_nonelectrostatic_energy": 6.76, 
			 "SMD_solvation_energy": 4.84 
		},
		"coords": [
			{
				"x": -0.5883736679,
				"y": 2.8253411993,
				"z": 0.2792717431,
				"element": "F" 
			},
			{
				"x": -0.1176845269,
				"y": 1.6319290611,
				"z": -0.1156604041,
				"element": "C" 
			},
			{
				"x": -0.062381927,
				"y": 0.5918584582,
				"z": 0.8102518117,
				"element": "C" 
			},
			{
				"x": 0.4255775344,
				"y": -0.6394591606,
				"z": 0.3943660932,
				"element": "C" 
			},
			{
				"x": 0.8533612862,
				"y": -0.8272037846,
				"z": -0.9340166333,
				"element": "C" 
			},
			{
				"x": 0.7852605566,
				"y": 0.2396900569,
				"z": -1.8429126414,
				"element": "C" 
			},
			{
				"x": 0.2978295302,
				"y": 1.4770334905,
				"z": -1.4352739172,
				"element": "C" 
			},
			{
				"x": 1.355583219,
				"y": -2.1762243006,
				"z": -1.2737479592,
				"element": "C" 
			},
			{
				"x": 1.9045691823,
				"y": -2.3909444129,
				"z": -3.0098749448,
				"element": "Cl" 
			},
			{
				"x": 1.4298884526,
				"y": -3.108279378,
				"z": -0.5304189823,
				"element": "O" 
			},
			{
				"x": -0.3975548364,
				"y": 0.7606120851,
				"z": 1.8274677805,
				"element": "H" 
			},
			{
				"x": 0.4840307832,
				"y": -1.472681643,
				"z": 1.0855902338,
				"element": "H" 
			},
			{
				"x": 1.1134026511,
				"y": 0.0990630938,
				"z": -2.8653259246,
				"element": "H" 
			},
			{
				"x": 0.2351917626,
				"y": 2.3166652349,
				"z": -2.1182162555,
				"element": "H" 
			}
		],
		 "valence_orbital": [ 
			{
				"type": "occ",
				"energy": -0.32309,
				"method": "rhf"
			},
			{
				"type": "occ",
				"energy": -0.32221,
				"method": "rhf"
			},
			{
				"type": "occ",
				"energy": -0.29665,
				"method": "rhf"
			},
			{
				"type": "occ",
				"energy": -0.28804,
				"method": "rhf"
			},
			{
				"type": "occ",
				"energy": -0.27504,
				"method": "rhf"
			},
			{
				"type": "unocc",
				"energy": -0.07911,
				"method": "rhf"
			},
			{
				"type": "unocc",
				"energy": -0.03577,
				"method": "rhf"
			},
			{
				"type": "unocc",
				"energy": 0.01557,
				"method": "rhf"
			},
			{
				"type": "unocc",
				"energy": 0.02541,
				"method": "rhf"
			},
			{
				"type": "unocc",
				"energy": 0.07699,
				"method": "rhf"
			}
		],
		"cosmo_sigma_profile": { 
			"-0.025": 0.0,
			"-0.024": 0.0,
			"-0.023": 0.0,
			"-0.022": 0.0,
			"-0.021": 0.0,
			"-0.02": 0.0,
			"-0.019": 0.0,
			"-0.018": 0.0,
			"-0.017": 0.0,
			"-0.016": 0.0,
			"-0.015": 0.0,
			"-0.014": 0.0,
			"-0.013": 0.0,
			"-0.012": 0.0,
			"-0.011": 0.0,
			"-0.01": 0.0,
			"-0.009": 0.688466910276,
			"-0.008": 4.51640845246,
			"-0.007": 7.68649427892,
			"-0.006": 6.87141552862,
			"-0.005": 5.95460122931,
			"-0.004": 8.38881093332,
			"-0.003": 8.90056428525,
			"-0.002": 13.2572448586,
			"-0.001": 19.9169636911,
			"0.0": 18.9758019177,
			"0.001": 20.0982351929,
			"0.002": 11.0433807708,
			"0.003": 15.8475872903,
			"0.004": 11.8519381754,
			"0.005": 6.7010162055,
			"0.006": 2.99727484966,
			"0.007": 2.53001807515,
			"0.008": 4.00202456219,
			"0.009": 3.19572070786,
			"0.01": 0.549633084759,
			"0.011": 0.0,
			"0.012": 0.0,
			"0.013": 0.0,
			"0.014": 0.0,
			"0.015": 0.0,
			"0.016": 0.0,
			"0.017": 0.0,
			"0.018": 0.0,
			"0.019": 0.0,
			"0.02": 0.0,
			"0.021": 0.0,
			"0.022": 0.0,
			"0.023": 0.0,
			"0.024": 0.0,
			"0.025": 0.0
		}
	}
}
