{
	 "smiles": "CC(O)C1=CC=C(C=C1)N1C=CC=N1", 
	 "Tm": 366.15, 
	 "num_atms": 26, 
	 "gaussian": { 
		 "optdone": 1, 
		 "sigma_profile": "yes", 
		 "theory": "DFT", 
		 "functional": "B3LYP", 
		 "basiset": "6-31G**", 
		 "properties": { 
			 "R2extent": 4518.0696, 
			 "electric_dipole_moment_norm": 3.02466205385, 
			 "electric_quadrupole_moment_norm": 14.1582383134, 
			 "total_energy": -611.102053716, 
			 "HOMO_LUMO_gap": 0.19794, 
			 "cosmo_polarized_energy": -12.48, 
			 "cosmo_cavitation_energy": 29.67, 
			 "cosmo_dispersion_energy": -21.69, 
			 "cosmo_repulsion_energy": 1.69, 
			 "cosmo_total_nonelectrostatic_energy": 9.67, 
			 "SMD_solvation_energy": 4.95 
		},
		"coords": [
			{
				"x": 1.6940041241,
				"y": 0.5179966151,
				"z": 3.6043594982,
				"element": "C" 
			},
			{
				"x": 1.9904463963,
				"y": 0.3852883775,
				"z": 2.1030478854,
				"element": "C" 
			},
			{
				"x": 3.0037515255,
				"y": 1.3048642771,
				"z": 1.7027503567,
				"element": "O" 
			},
			{
				"x": 0.7544817641,
				"y": 0.6529710354,
				"z": 1.2645037826,
				"element": "C" 
			},
			{
				"x": -0.1796070366,
				"y": -0.3639354129,
				"z": 1.0415347408,
				"element": "C" 
			},
			{
				"x": -1.3489713156,
				"y": -0.1250617022,
				"z": 0.3228327663,
				"element": "C" 
			},
			{
				"x": -1.5868581452,
				"y": 1.1469572338,
				"z": -0.2085954517,
				"element": "C" 
			},
			{
				"x": -0.6601765303,
				"y": 2.1734439638,
				"z": 0.0015598271,
				"element": "C" 
			},
			{
				"x": 0.4953419674,
				"y": 1.9233537223,
				"z": 0.7367917239,
				"element": "C" 
			},
			{
				"x": -2.7598867617,
				"y": 1.4051263385,
				"z": -0.9660378756,
				"element": "N" 
			},
			{
				"x": -3.5492425526,
				"y": 0.508055471,
				"z": -1.6318113147,
				"element": "C" 
			},
			{
				"x": -4.5616627985,
				"y": 1.2280144738,
				"z": -2.228377722,
				"element": "C" 
			},
			{
				"x": -4.2980206156,
				"y": 2.5698666309,
				"z": -1.868604968,
				"element": "C" 
			},
			{
				"x": -3.2123070074,
				"y": 2.6779026873,
				"z": -1.1096196069,
				"element": "N" 
			},
			{
				"x": 0.9117104435,
				"y": -0.1805424929,
				"z": 3.916354327,
				"element": "H" 
			},
			{
				"x": 2.5915088731,
				"y": 0.3017849839,
				"z": 4.1978997356,
				"element": "H" 
			},
			{
				"x": 1.3609136964,
				"y": 1.5349046867,
				"z": 3.8325034524,
				"element": "H" 
			},
			{
				"x": 2.321068102,
				"y": -0.6482003571,
				"z": 1.9040713314,
				"element": "H" 
			},
			{
				"x": 3.738447563,
				"y": 1.2207521066,
				"z": 2.3233235457,
				"element": "H" 
			},
			{
				"x": -0.000412153,
				"y": -1.3594244487,
				"z": 1.4411069768,
				"element": "H" 
			},
			{
				"x": -2.0729788513,
				"y": -0.9221320004,
				"z": 0.1919254172,
				"element": "H" 
			},
			{
				"x": -0.8609371839,
				"y": 3.153048895,
				"z": -0.4144463859,
				"element": "H" 
			},
			{
				"x": 1.221506797,
				"y": 2.7136921796,
				"z": 0.8894582769,
				"element": "H" 
			},
			{
				"x": -3.3187069177,
				"y": -0.5455105094,
				"z": -1.6537291676,
				"element": "H" 
			},
			{
				"x": -5.3640947072,
				"y": 0.8429870377,
				"z": -2.8395061343,
				"element": "H" 
			},
			{
				"x": -4.8558186757,
				"y": 3.4596962077,
				"z": -2.1288950173,
				"element": "H" 
			}
		],
		 "valence_orbital": [ 
			{
				"type": "occ",
				"energy": -0.28441,
				"method": "rhf"
			},
			{
				"type": "occ",
				"energy": -0.26999,
				"method": "rhf"
			},
			{
				"type": "occ",
				"energy": -0.25327,
				"method": "rhf"
			},
			{
				"type": "occ",
				"energy": -0.2452,
				"method": "rhf"
			},
			{
				"type": "occ",
				"energy": -0.21744,
				"method": "rhf"
			},
			{
				"type": "unocc",
				"energy": -0.0195,
				"method": "rhf"
			},
			{
				"type": "unocc",
				"energy": -0.00428,
				"method": "rhf"
			},
			{
				"type": "unocc",
				"energy": 0.04125,
				"method": "rhf"
			},
			{
				"type": "unocc",
				"energy": 0.07019,
				"method": "rhf"
			},
			{
				"type": "unocc",
				"energy": 0.07351,
				"method": "rhf"
			}
		],
		"cosmo_sigma_profile": { 
			"-0.025": 0.0,
			"-0.024": 0.0,
			"-0.023": 0.0,
			"-0.022": 0.0,
			"-0.021": 0.0,
			"-0.02": 0.0,
			"-0.019": 0.0,
			"-0.018": 0.0,
			"-0.017": 0.0,
			"-0.016": 0.152631146404,
			"-0.015": 0.859672714054,
			"-0.014": 0.919447267638,
			"-0.013": 1.23481397743,
			"-0.012": 0.865348931802,
			"-0.011": 0.823823722797,
			"-0.01": 1.50976656911,
			"-0.009": 2.8412434127,
			"-0.008": 3.45627322824,
			"-0.007": 7.43970116207,
			"-0.006": 9.49363739816,
			"-0.005": 12.1327647823,
			"-0.004": 20.3434966564,
			"-0.003": 18.098907786,
			"-0.002": 14.7808363337,
			"-0.001": 16.7200643161,
			"0.0": 18.7682853657,
			"0.001": 14.9129264908,
			"0.002": 14.7448157446,
			"0.003": 14.008499975,
			"0.004": 19.8738097236,
			"0.005": 16.5178983336,
			"0.006": 4.7487595256,
			"0.007": 3.70269509769,
			"0.008": 3.16228036756,
			"0.009": 3.07236469725,
			"0.01": 3.11913252002,
			"0.011": 2.34695184433,
			"0.012": 2.04309720514,
			"0.013": 1.84501760975,
			"0.014": 1.46953563659,
			"0.015": 0.0442404690469,
			"0.016": 0.0,
			"0.017": 0.0,
			"0.018": 0.0,
			"0.019": 0.0,
			"0.02": 0.0,
			"0.021": 0.0,
			"0.022": 0.0,
			"0.023": 0.0,
			"0.024": 0.0,
			"0.025": 0.0
		}
	}
}
