{
	 "smiles": "CC(=O)NC1=C(Cl)C=C(C(F)=C1)S(Cl)(=O)=O", 
	 "Tm": 437.15, 
	 "num_atms": 22, 
	 "gaussian": { 
		 "optdone": 1, 
		 "sigma_profile": "yes", 
		 "theory": "DFT", 
		 "functional": "B3LYP", 
		 "basiset": "6-31G**", 
		 "properties": { 
			 "R2extent": 8506.0677, 
			 "electric_dipole_moment_norm": 3.40174133937, 
			 "electric_quadrupole_moment_norm": 26.7748503465, 
			 "total_energy": -2007.23287762, 
			 "HOMO_LUMO_gap": 0.16724, 
			 "cosmo_polarized_energy": -15.38, 
			 "cosmo_cavitation_energy": 32.6, 
			 "cosmo_dispersion_energy": -24.03, 
			 "cosmo_repulsion_energy": 1.82, 
			 "cosmo_total_nonelectrostatic_energy": 10.38, 
			 "SMD_solvation_energy": 5.27 
		},
		"coords": [
			{
				"x": 0.4480114454,
				"y": 2.107333753,
				"z": -1.5719513026,
				"element": "C" 
			},
			{
				"x": 1.6302288455,
				"y": 2.6193561326,
				"z": -0.7795393591,
				"element": "C" 
			},
			{
				"x": 2.1572079847,
				"y": 3.6906744454,
				"z": -1.0151036752,
				"element": "O" 
			},
			{
				"x": 2.1793640241,
				"y": 1.8375320142,
				"z": 0.248708616,
				"element": "N" 
			},
			{
				"x": 1.8596804068,
				"y": 0.6073079151,
				"z": 0.8007745194,
				"element": "C" 
			},
			{
				"x": 2.8626954961,
				"y": -0.1091327776,
				"z": 1.5063686381,
				"element": "C" 
			},
			{
				"x": 4.4790354588,
				"y": 0.557554526,
				"z": 1.6398798884,
				"element": "Cl" 
			},
			{
				"x": 2.6023194403,
				"y": -1.3353409178,
				"z": 2.0961367207,
				"element": "C" 
			},
			{
				"x": 1.3271554467,
				"y": -1.8978437169,
				"z": 1.997502638,
				"element": "C" 
			},
			{
				"x": 0.3248775263,
				"y": -1.19382628,
				"z": 1.3272816077,
				"element": "C" 
			},
			{
				"x": -0.9141690238,
				"y": -1.6870640426,
				"z": 1.2634878854,
				"element": "F" 
			},
			{
				"x": 0.5742751724,
				"y": 0.0390015794,
				"z": 0.7482721189,
				"element": "C" 
			},
			{
				"x": 1.0440923769,
				"y": -3.5057678317,
				"z": 2.7038108678,
				"element": "S" 
			},
			{
				"x": -0.1986443832,
				"y": -3.0266447443,
				"z": 4.3575123234,
				"element": "Cl" 
			},
			{
				"x": 0.2394002222,
				"y": -4.3146869542,
				"z": 1.8016095208,
				"element": "O" 
			},
			{
				"x": 2.3054044433,
				"y": -3.9802405923,
				"z": 3.2590028324,
				"element": "O" 
			},
			{
				"x": -0.4857064586,
				"y": 2.2688623818,
				"z": -1.022304896,
				"element": "H" 
			},
			{
				"x": 0.5293418411,
				"y": 1.0445128771,
				"z": -1.8127483176,
				"element": "H" 
			},
			{
				"x": 0.4025268982,
				"y": 2.6924015302,
				"z": -2.4903792971,
				"element": "H" 
			},
			{
				"x": 3.0448233531,
				"y": 2.2515740773,
				"z": 0.5793185463,
				"element": "H" 
			},
			{
				"x": 3.3835273097,
				"y": -1.8708614292,
				"z": 2.6220557362,
				"element": "H" 
			},
			{
				"x": -0.256047826,
				"y": 0.5522980546,
				"z": 0.2871043881,
				"element": "H" 
			}
		],
		 "valence_orbital": [ 
			{
				"type": "occ",
				"energy": -0.33412,
				"method": "rhf"
			},
			{
				"type": "occ",
				"energy": -0.32055,
				"method": "rhf"
			},
			{
				"type": "occ",
				"energy": -0.29207,
				"method": "rhf"
			},
			{
				"type": "occ",
				"energy": -0.28845,
				"method": "rhf"
			},
			{
				"type": "occ",
				"energy": -0.26502,
				"method": "rhf"
			},
			{
				"type": "unocc",
				"energy": -0.09778,
				"method": "rhf"
			},
			{
				"type": "unocc",
				"energy": -0.06594,
				"method": "rhf"
			},
			{
				"type": "unocc",
				"energy": -0.05353,
				"method": "rhf"
			},
			{
				"type": "unocc",
				"energy": -0.00985,
				"method": "rhf"
			},
			{
				"type": "unocc",
				"energy": -0.00277,
				"method": "rhf"
			}
		],
		"cosmo_sigma_profile": { 
			"-0.025": 0.0,
			"-0.024": 0.0,
			"-0.023": 0.0,
			"-0.022": 0.0,
			"-0.021": 0.0,
			"-0.02": 0.0,
			"-0.019": 0.0,
			"-0.018": 0.0,
			"-0.017": 0.0,
			"-0.016": 0.0,
			"-0.015": 0.0,
			"-0.014": 0.0,
			"-0.013": 0.0,
			"-0.012": 0.266294293041,
			"-0.011": 2.08147428398,
			"-0.01": 3.15207802487,
			"-0.009": 4.13031322719,
			"-0.008": 5.46115421862,
			"-0.007": 8.92991891717,
			"-0.006": 11.5783137028,
			"-0.005": 11.0551687969,
			"-0.004": 14.9311404712,
			"-0.003": 26.8281560933,
			"-0.002": 28.4229794699,
			"-0.001": 20.9806764416,
			"0.0": 12.5156180005,
			"0.001": 16.0950959403,
			"0.002": 24.6164334346,
			"0.003": 23.0619504238,
			"0.004": 7.36138794082,
			"0.005": 4.37933570125,
			"0.006": 6.22473907366,
			"0.007": 9.27011884641,
			"0.008": 10.3125830846,
			"0.009": 3.53145998868,
			"0.01": 1.88274867098,
			"0.011": 3.22371985277,
			"0.012": 5.02343575668,
			"0.013": 1.62816170123,
			"0.014": 0.0355763860216,
			"0.015": 0.0,
			"0.016": 0.0,
			"0.017": 0.0,
			"0.018": 0.0,
			"0.019": 0.0,
			"0.02": 0.0,
			"0.021": 0.0,
			"0.022": 0.0,
			"0.023": 0.0,
			"0.024": 0.0,
			"0.025": 0.0
		}
	}
}
