{
	 "smiles": "COC1=CC=C(CNC(=O)C2=CC=CC=C2)C=C1OCC1=CC=CC=C1", 
	 "Tm": 416.15, 
	 "num_atms": 47, 
	 "gaussian": { 
		 "optdone": 1, 
		 "sigma_profile": "yes", 
		 "theory": "DFT", 
		 "functional": "B3LYP", 
		 "basiset": "6-31G**", 
		 "properties": { 
			 "R2extent": 11594.9163, 
			 "electric_dipole_moment_norm": 1.81891520693, 
			 "electric_quadrupole_moment_norm": 22.3288343713, 
			 "total_energy": -1131.41644298, 
			 "HOMO_LUMO_gap": 0.17005, 
			 "cosmo_polarized_energy": -17.09, 
			 "cosmo_cavitation_energy": 50.85, 
			 "cosmo_dispersion_energy": -33.93, 
			 "cosmo_repulsion_energy": 2.57, 
			 "cosmo_total_nonelectrostatic_energy": 19.49, 
			 "SMD_solvation_energy": 9.04 
		},
		"coords": [
			{
				"x": -1.8990439922,
				"y": 2.6856351837,
				"z": 4.8700272918,
				"element": "C" 
			},
			{
				"x": -2.5089846705,
				"y": 1.4840718471,
				"z": 4.3956693714,
				"element": "O" 
			},
			{
				"x": -1.6887779703,
				"y": 0.6227851474,
				"z": 3.7078191872,
				"element": "C" 
			},
			{
				"x": -1.4323187863,
				"y": -0.6318476113,
				"z": 4.2522108784,
				"element": "C" 
			},
			{
				"x": -0.6673402372,
				"y": -1.5756475886,
				"z": 3.5594248923,
				"element": "C" 
			},
			{
				"x": -0.1327908414,
				"y": -1.2556815182,
				"z": 2.3122875742,
				"element": "C" 
			},
			{
				"x": 0.6952341899,
				"y": -2.2515276074,
				"z": 1.522624978,
				"element": "C" 
			},
			{
				"x": 0.0001872697,
				"y": -2.8140010616,
				"z": 0.3611409411,
				"element": "N" 
			},
			{
				"x": 0.0575665566,
				"y": -2.2270362489,
				"z": -0.8734945476,
				"element": "C" 
			},
			{
				"x": 0.737649034,
				"y": -1.2244454489,
				"z": -1.1007977901,
				"element": "O" 
			},
			{
				"x": -0.7533449974,
				"y": -2.8847463157,
				"z": -1.9560354396,
				"element": "C" 
			},
			{
				"x": -1.0773295053,
				"y": -2.1123742864,
				"z": -3.0794681166,
				"element": "C" 
			},
			{
				"x": -1.8291107539,
				"y": -2.6573523844,
				"z": -4.1176450322,
				"element": "C" 
			},
			{
				"x": -2.2544162692,
				"y": -3.9867379179,
				"z": -4.0511979794,
				"element": "C" 
			},
			{
				"x": -1.9183043334,
				"y": -4.7698741173,
				"z": -2.9453465341,
				"element": "C" 
			},
			{
				"x": -1.1707815907,
				"y": -4.2225977998,
				"z": -1.9023766605,
				"element": "C" 
			},
			{
				"x": -0.3792786466,
				"y": 0.0115567517,
				"z": 1.7610487336,
				"element": "C" 
			},
			{
				"x": -1.162760101,
				"y": 0.9479011116,
				"z": 2.4340359104,
				"element": "C" 
			},
			{
				"x": -1.4934703216,
				"y": 2.18025195,
				"z": 1.9411616041,
				"element": "O" 
			},
			{
				"x": -1.1343026618,
				"y": 2.5089101672,
				"z": 0.5909009615,
				"element": "C" 
			},
			{
				"x": 0.2995247902,
				"y": 2.9717039363,
				"z": 0.4289162988,
				"element": "C" 
			},
			{
				"x": 1.1492056314,
				"y": 2.3729355414,
				"z": -0.5082533287,
				"element": "C" 
			},
			{
				"x": 2.4562237696,
				"y": 2.8372861197,
				"z": -0.6762925599,
				"element": "C" 
			},
			{
				"x": 2.9269827625,
				"y": 3.899845062,
				"z": 0.0949241866,
				"element": "C" 
			},
			{
				"x": 2.0861151941,
				"y": 4.4986055316,
				"z": 1.0374799862,
				"element": "C" 
			},
			{
				"x": 0.7805723819,
				"y": 4.0388200007,
				"z": 1.2000597387,
				"element": "C" 
			},
			{
				"x": -2.6720246658,
				"y": 3.2188411314,
				"z": 5.427860363,
				"element": "H" 
			},
			{
				"x": -1.5464055562,
				"y": 3.3113178301,
				"z": 4.0451189495,
				"element": "H" 
			},
			{
				"x": -1.0603413795,
				"y": 2.4606703335,
				"z": 5.5421377145,
				"element": "H" 
			},
			{
				"x": -1.8584648722,
				"y": -0.8561190369,
				"z": 5.2250529336,
				"element": "H" 
			},
			{
				"x": -0.4813691527,
				"y": -2.5509780812,
				"z": 4.0020617867,
				"element": "H" 
			},
			{
				"x": 1.5980941329,
				"y": -1.7752567996,
				"z": 1.1338969275,
				"element": "H" 
			},
			{
				"x": 0.9994929445,
				"y": -3.083094116,
				"z": 2.1665593933,
				"element": "H" 
			},
			{
				"x": -0.7659484883,
				"y": -3.4450591166,
				"z": 0.5449772208,
				"element": "H" 
			},
			{
				"x": -0.7247465775,
				"y": -1.0873871449,
				"z": -3.1167106378,
				"element": "H" 
			},
			{
				"x": -2.0819810556,
				"y": -2.0478062177,
				"z": -4.9803315601,
				"element": "H" 
			},
			{
				"x": -2.8380592973,
				"y": -4.41336219,
				"z": -4.8619126365,
				"element": "H" 
			},
			{
				"x": -2.2296374385,
				"y": -5.8093347892,
				"z": -2.8984363034,
				"element": "H" 
			},
			{
				"x": -0.8847624192,
				"y": -4.8538814281,
				"z": -1.0659373798,
				"element": "H" 
			},
			{
				"x": 0.0585416888,
				"y": 0.2419503767,
				"z": 0.7996492358,
				"element": "H" 
			},
			{
				"x": -1.8228509106,
				"y": 3.32001769,
				"z": 0.3334764362,
				"element": "H" 
			},
			{
				"x": -1.3483522625,
				"y": 1.6641472329,
				"z": -0.0740184327,
				"element": "H" 
			},
			{
				"x": 0.8012961265,
				"y": 1.5271392992,
				"z": -1.09646806,
				"element": "H" 
			},
			{
				"x": 3.1061995163,
				"y": 2.3594912198,
				"z": -1.4035805644,
				"element": "H" 
			},
			{
				"x": 3.94416441,
				"y": 4.2591090788,
				"z": -0.0335027907,
				"element": "H" 
			},
			{
				"x": 2.4477305432,
				"y": 5.3259762476,
				"z": 1.6417746564,
				"element": "H" 
			},
			{
				"x": 0.126418813,
				"y": 4.5064800361,
				"z": 1.9312082022,
				"element": "H" 
			}
		],
		 "valence_orbital": [ 
			{
				"type": "occ",
				"energy": -0.24816,
				"method": "rhf"
			},
			{
				"type": "occ",
				"energy": -0.24618,
				"method": "rhf"
			},
			{
				"type": "occ",
				"energy": -0.24318,
				"method": "rhf"
			},
			{
				"type": "occ",
				"energy": -0.23092,
				"method": "rhf"
			},
			{
				"type": "occ",
				"energy": -0.20855,
				"method": "rhf"
			},
			{
				"type": "unocc",
				"energy": -0.0385,
				"method": "rhf"
			},
			{
				"type": "unocc",
				"energy": -0.0109,
				"method": "rhf"
			},
			{
				"type": "unocc",
				"energy": -0.00519,
				"method": "rhf"
			},
			{
				"type": "unocc",
				"energy": 0.00221,
				"method": "rhf"
			},
			{
				"type": "unocc",
				"energy": 0.00442,
				"method": "rhf"
			}
		],
		"cosmo_sigma_profile": { 
			"-0.025": 0.0,
			"-0.024": 0.0,
			"-0.023": 0.0,
			"-0.022": 0.0,
			"-0.021": 0.0,
			"-0.02": 0.0,
			"-0.019": 0.0,
			"-0.018": 0.0,
			"-0.017": 0.0,
			"-0.016": 0.0,
			"-0.015": 0.0158778781138,
			"-0.014": 0.614460030014,
			"-0.013": 1.18200830142,
			"-0.012": 0.908810097818,
			"-0.011": 1.04497633805,
			"-0.01": 1.62355835921,
			"-0.009": 1.71357805749,
			"-0.008": 1.69588332454,
			"-0.007": 2.98545942437,
			"-0.006": 20.6570765562,
			"-0.005": 32.9182700959,
			"-0.004": 38.3291567597,
			"-0.003": 36.7617577699,
			"-0.002": 32.2324103193,
			"-0.001": 26.5626587928,
			"0.0": 23.4600884328,
			"0.001": 24.9470335097,
			"0.002": 27.5044782279,
			"0.003": 31.5277882155,
			"0.004": 35.1572225609,
			"0.005": 28.7584808409,
			"0.006": 11.6310322361,
			"0.007": 4.0994040505,
			"0.008": 3.7704439006,
			"0.009": 3.00230116366,
			"0.01": 3.91152583779,
			"0.011": 3.51893297088,
			"0.012": 2.7933054249,
			"0.013": 1.79117925419,
			"0.014": 0.639661013808,
			"0.015": 0.0,
			"0.016": 0.0,
			"0.017": 0.0,
			"0.018": 0.0,
			"0.019": 0.0,
			"0.02": 0.0,
			"0.021": 0.0,
			"0.022": 0.0,
			"0.023": 0.0,
			"0.024": 0.0,
			"0.025": 0.0
		}
	}
}
