{
	 "smiles": "NC(=O)CC1=NC(=CS1)C1=CC=C(F)C=C1", 
	 "Tm": 455.15, 
	 "num_atms": 25, 
	 "gaussian": { 
		 "optdone": 1, 
		 "sigma_profile": "yes", 
		 "theory": "DFT", 
		 "functional": "B3LYP", 
		 "basiset": "6-31G**", 
		 "properties": { 
			 "R2extent": 6203.9819, 
			 "electric_dipole_moment_norm": 2.93767545178, 
			 "electric_quadrupole_moment_norm": 26.3346669001, 
			 "total_energy": -1107.36403849, 
			 "HOMO_LUMO_gap": 0.17785, 
			 "cosmo_polarized_energy": -13.5, 
			 "cosmo_cavitation_energy": 32.09, 
			 "cosmo_dispersion_energy": -23.56, 
			 "cosmo_repulsion_energy": 1.77, 
			 "cosmo_total_nonelectrostatic_energy": 10.3, 
			 "SMD_solvation_energy": 5.81 
		},
		"coords": [
			{
				"x": -2.6577052822,
				"y": 2.5910520384,
				"z": 1.4443687583,
				"element": "N" 
			},
			{
				"x": -3.2613279335,
				"y": 3.373295608,
				"z": 0.5131787441,
				"element": "C" 
			},
			{
				"x": -4.0365091243,
				"y": 4.280456086,
				"z": 0.7730732393,
				"element": "O" 
			},
			{
				"x": -2.9735352718,
				"y": 2.9867325788,
				"z": -0.9565424447,
				"element": "C" 
			},
			{
				"x": -1.5609893401,
				"y": 2.5907971546,
				"z": -1.2780064301,
				"element": "C" 
			},
			{
				"x": -0.9092493871,
				"y": 1.6292371289,
				"z": -0.6859220584,
				"element": "N" 
			},
			{
				"x": 0.380938577,
				"y": 1.4860298945,
				"z": -1.1699895771,
				"element": "C" 
			},
			{
				"x": 0.7038497974,
				"y": 2.3684543479,
				"z": -2.1716212552,
				"element": "C" 
			},
			{
				"x": -0.6273905852,
				"y": 3.4184622371,
				"z": -2.5105883926,
				"element": "S" 
			},
			{
				"x": 1.2528548619,
				"y": 0.4370358406,
				"z": -0.6082783686,
				"element": "C" 
			},
			{
				"x": 0.6939769982,
				"y": -0.625040511,
				"z": 0.1225051114,
				"element": "C" 
			},
			{
				"x": 1.495824749,
				"y": -1.6338386611,
				"z": 0.6508519063,
				"element": "C" 
			},
			{
				"x": 2.8693213555,
				"y": -1.5753928779,
				"z": 0.444510251,
				"element": "C" 
			},
			{
				"x": 3.6525121298,
				"y": -2.5480329287,
				"z": 0.9531917172,
				"element": "F" 
			},
			{
				"x": 3.4596725226,
				"y": -0.5368428603,
				"z": -0.2682878731,
				"element": "C" 
			},
			{
				"x": 2.646296625,
				"y": 0.4664715166,
				"z": -0.7876008656,
				"element": "C" 
			},
			{
				"x": -2.7911991642,
				"y": 2.8302843311,
				"z": 2.4150312797,
				"element": "H" 
			},
			{
				"x": -1.9400291191,
				"y": 1.9314450513,
				"z": 1.1697922665,
				"element": "H" 
			},
			{
				"x": -3.2916971435,
				"y": 3.8362938978,
				"z": -1.5619179123,
				"element": "H" 
			},
			{
				"x": -3.6361385148,
				"y": 2.145489617,
				"z": -1.1992354469,
				"element": "H" 
			},
			{
				"x": 1.621571466,
				"y": 2.4397797548,
				"z": -2.7361396009,
				"element": "H" 
			},
			{
				"x": -0.3801224129,
				"y": -0.6553988952,
				"z": 0.2662950314,
				"element": "H" 
			},
			{
				"x": 1.0729185325,
				"y": -2.4597574907,
				"z": 1.2125085912,
				"element": "H" 
			},
			{
				"x": 4.5363151038,
				"y": -0.5193894087,
				"z": -0.3975747875,
				"element": "H" 
			},
			{
				"x": 3.10724056,
				"y": 1.2911765505,
				"z": -1.3223018834,
				"element": "H" 
			}
		],
		 "valence_orbital": [ 
			{
				"type": "occ",
				"energy": -0.28691,
				"method": "rhf"
			},
			{
				"type": "occ",
				"energy": -0.2689,
				"method": "rhf"
			},
			{
				"type": "occ",
				"energy": -0.26398,
				"method": "rhf"
			},
			{
				"type": "occ",
				"energy": -0.24859,
				"method": "rhf"
			},
			{
				"type": "occ",
				"energy": -0.22521,
				"method": "rhf"
			},
			{
				"type": "unocc",
				"energy": -0.04736,
				"method": "rhf"
			},
			{
				"type": "unocc",
				"energy": -0.02313,
				"method": "rhf"
			},
			{
				"type": "unocc",
				"energy": -0.01623,
				"method": "rhf"
			},
			{
				"type": "unocc",
				"energy": 0.00318,
				"method": "rhf"
			},
			{
				"type": "unocc",
				"energy": 0.03016,
				"method": "rhf"
			}
		],
		"cosmo_sigma_profile": { 
			"-0.025": 0.0,
			"-0.024": 0.0,
			"-0.023": 0.0,
			"-0.022": 0.0,
			"-0.021": 0.0,
			"-0.02": 0.0,
			"-0.019": 0.0,
			"-0.018": 0.0,
			"-0.017": 0.0,
			"-0.016": 0.0,
			"-0.015": 0.0,
			"-0.014": 0.759039858067,
			"-0.013": 1.20416359248,
			"-0.012": 0.527778020396,
			"-0.011": 1.41649427395,
			"-0.01": 1.18623917872,
			"-0.009": 4.79003845859,
			"-0.008": 7.63169345112,
			"-0.007": 11.5868811633,
			"-0.006": 12.6652625258,
			"-0.005": 13.2068663298,
			"-0.004": 14.7593139988,
			"-0.003": 12.5120784488,
			"-0.002": 12.9697994555,
			"-0.001": 13.8564792099,
			"0.0": 19.8976298555,
			"0.001": 27.5112730247,
			"0.002": 29.2233633517,
			"0.003": 24.2076218826,
			"0.004": 22.1594821986,
			"0.005": 5.64462997184,
			"0.006": 2.45263945095,
			"0.007": 1.95792624089,
			"0.008": 1.34593231091,
			"0.009": 0.731678819095,
			"0.01": 1.50345540066,
			"0.011": 1.69131993618,
			"0.012": 1.8467238017,
			"0.013": 4.28089560449,
			"0.014": 5.26180756706,
			"0.015": 0.963396806858,
			"0.016": 0.0,
			"0.017": 0.0,
			"0.018": 0.0,
			"0.019": 0.0,
			"0.02": 0.0,
			"0.021": 0.0,
			"0.022": 0.0,
			"0.023": 0.0,
			"0.024": 0.0,
			"0.025": 0.0
		}
	}
}
