{
	 "smiles": "CC(C)(C)N(NC(=O)C1=CC=CC=C1)C(=O)C1=CC(F)=C(F)C(F)=C1F", 
	 "Tm": 431.15, 
	 "num_atms": 42, 
	 "gaussian": { 
		 "optdone": 1, 
		 "sigma_profile": "yes", 
		 "theory": "DFT", 
		 "functional": "B3LYP", 
		 "basiset": "6-31G**", 
		 "properties": { 
			 "R2extent": 11067.8083, 
			 "electric_dipole_moment_norm": 4.46654127486, 
			 "electric_quadrupole_moment_norm": 14.3157747904, 
			 "total_energy": -1354.81509654, 
			 "HOMO_LUMO_gap": 0.20548, 
			 "cosmo_polarized_energy": -14.69, 
			 "cosmo_cavitation_energy": 47.85, 
			 "cosmo_dispersion_energy": -30.83, 
			 "cosmo_repulsion_energy": 2.22, 
			 "cosmo_total_nonelectrostatic_energy": 19.24, 
			 "SMD_solvation_energy": 11.2 
		},
		"coords": [
			{
				"x": 2.7807741354,
				"y": 1.4561519082,
				"z": 0.6570071841,
				"element": "C" 
			},
			{
				"x": 1.4052875645,
				"y": 1.0353715482,
				"z": 1.2177295231,
				"element": "C" 
			},
			{
				"x": 0.7315281684,
				"y": 2.2278082202,
				"z": 1.9160383814,
				"element": "C" 
			},
			{
				"x": 1.6414595048,
				"y": -0.1066976797,
				"z": 2.2203845994,
				"element": "C" 
			},
			{
				"x": 0.558388356,
				"y": 0.5931752837,
				"z": 0.0524598955,
				"element": "N" 
			},
			{
				"x": 0.6057333603,
				"y": 1.4244532244,
				"z": -1.0674498671,
				"element": "N" 
			},
			{
				"x": -0.5542988878,
				"y": 2.1258227393,
				"z": -1.3958665063,
				"element": "C" 
			},
			{
				"x": -1.4113628583,
				"y": 2.3919292603,
				"z": -0.5666516268,
				"element": "O" 
			},
			{
				"x": -0.6214556318,
				"y": 2.5879604923,
				"z": -2.8178157764,
				"element": "C" 
			},
			{
				"x": -1.1874581946,
				"y": 3.8425443753,
				"z": -3.0812751456,
				"element": "C" 
			},
			{
				"x": -1.2851650016,
				"y": 4.3033015118,
				"z": -4.3917632535,
				"element": "C" 
			},
			{
				"x": -0.8401964584,
				"y": 3.5047774199,
				"z": -5.4495783132,
				"element": "C" 
			},
			{
				"x": -0.3050155261,
				"y": 2.2409306739,
				"z": -5.1944998222,
				"element": "C" 
			},
			{
				"x": -0.1921777431,
				"y": 1.7813559767,
				"z": -3.8819140146,
				"element": "C" 
			},
			{
				"x": -0.1200249661,
				"y": -0.5940040152,
				"z": -0.1886090819,
				"element": "C" 
			},
			{
				"x": -0.340144316,
				"y": -0.9827618345,
				"z": -1.3281633783,
				"element": "O" 
			},
			{
				"x": -0.7523100721,
				"y": -1.3108743137,
				"z": 0.9712498329,
				"element": "C" 
			},
			{
				"x": -1.8002138596,
				"y": -0.6858902273,
				"z": 1.6612894307,
				"element": "C" 
			},
			{
				"x": -2.5061421559,
				"y": -1.3936901383,
				"z": 2.6232160519,
				"element": "C" 
			},
			{
				"x": -3.5183433124,
				"y": -0.8213289777,
				"z": 3.2915520128,
				"element": "F" 
			},
			{
				"x": -2.1837486551,
				"y": -2.7190805842,
				"z": 2.9176827581,
				"element": "C" 
			},
			{
				"x": -2.8602611965,
				"y": -3.3936555146,
				"z": 3.8517093114,
				"element": "F" 
			},
			{
				"x": -1.1406333515,
				"y": -3.3399423942,
				"z": 2.2332219339,
				"element": "C" 
			},
			{
				"x": -0.8147184797,
				"y": -4.6035539698,
				"z": 2.5228482024,
				"element": "F" 
			},
			{
				"x": -0.440415333,
				"y": -2.6366660373,
				"z": 1.2555217635,
				"element": "C" 
			},
			{
				"x": 0.581305789,
				"y": -3.2461263617,
				"z": 0.634088907,
				"element": "F" 
			},
			{
				"x": 3.4243716403,
				"y": 1.7751839392,
				"z": 1.481886341,
				"element": "H" 
			},
			{
				"x": 3.2703962479,
				"y": 0.6176400998,
				"z": 0.1500751774,
				"element": "H" 
			},
			{
				"x": 2.6920823767,
				"y": 2.2869285716,
				"z": -0.0450697277,
				"element": "H" 
			},
			{
				"x": -0.2269726779,
				"y": 1.9344338677,
				"z": 2.3511120096,
				"element": "H" 
			},
			{
				"x": 1.3754799518,
				"y": 2.6030329771,
				"z": 2.7183168689,
				"element": "H" 
			},
			{
				"x": 0.5434023507,
				"y": 3.0407810613,
				"z": 1.211765334,
				"element": "H" 
			},
			{
				"x": 2.4088370109,
				"y": 0.2204982895,
				"z": 2.9278338119,
				"element": "H" 
			},
			{
				"x": 0.7504223079,
				"y": -0.3540495069,
				"z": 2.7969312114,
				"element": "H" 
			},
			{
				"x": 2.008412886,
				"y": -1.0125621946,
				"z": 1.7279429798,
				"element": "H" 
			},
			{
				"x": 1.1503949703,
				"y": 1.0577290188,
				"z": -1.8386310183,
				"element": "H" 
			},
			{
				"x": -1.5450810609,
				"y": 4.4393699483,
				"z": -2.2486095382,
				"element": "H" 
			},
			{
				"x": -1.7130618357,
				"y": 5.2813607923,
				"z": -4.5911404898,
				"element": "H" 
			},
			{
				"x": -0.9225353113,
				"y": 3.8627101182,
				"z": -6.4718123608,
				"element": "H" 
			},
			{
				"x": 0.0142008142,
				"y": 1.6076861353,
				"z": -6.0168989266,
				"element": "H" 
			},
			{
				"x": 0.1711990784,
				"y": 0.7752741026,
				"z": -3.6903860987,
				"element": "H" 
			},
			{
				"x": -2.0733396282,
				"y": 0.3377721935,
				"z": 1.4275714239,
				"element": "H" 
			}
		],
		 "valence_orbital": [ 
			{
				"type": "occ",
				"energy": -0.26862,
				"method": "rhf"
			},
			{
				"type": "occ",
				"energy": -0.26399,
				"method": "rhf"
			},
			{
				"type": "occ",
				"energy": -0.25918,
				"method": "rhf"
			},
			{
				"type": "occ",
				"energy": -0.25585,
				"method": "rhf"
			},
			{
				"type": "occ",
				"energy": -0.25219,
				"method": "rhf"
			},
			{
				"type": "unocc",
				"energy": -0.04671,
				"method": "rhf"
			},
			{
				"type": "unocc",
				"energy": -0.03625,
				"method": "rhf"
			},
			{
				"type": "unocc",
				"energy": -0.0192,
				"method": "rhf"
			},
			{
				"type": "unocc",
				"energy": -0.01488,
				"method": "rhf"
			},
			{
				"type": "unocc",
				"energy": 0.00954,
				"method": "rhf"
			}
		],
		"cosmo_sigma_profile": { 
			"-0.025": 0.0,
			"-0.024": 0.0,
			"-0.023": 0.0,
			"-0.022": 0.0,
			"-0.021": 0.0,
			"-0.02": 0.0,
			"-0.019": 0.0,
			"-0.018": 0.0,
			"-0.017": 0.0,
			"-0.016": 0.0,
			"-0.015": 0.0,
			"-0.014": 0.411951805836,
			"-0.013": 0.658145767695,
			"-0.012": 0.926297403811,
			"-0.011": 1.04879407966,
			"-0.01": 0.556991914369,
			"-0.009": 0.868064517243,
			"-0.008": 1.72115590739,
			"-0.007": 3.88034366214,
			"-0.006": 11.5798413362,
			"-0.005": 17.5834780861,
			"-0.004": 34.0504193144,
			"-0.003": 39.9721017228,
			"-0.002": 33.937586064,
			"-0.001": 36.1330658781,
			"0.0": 33.7243849579,
			"0.001": 28.2883590506,
			"0.002": 40.1791895238,
			"0.003": 43.5809605284,
			"0.004": 17.9103192479,
			"0.005": 5.88377209067,
			"0.006": 3.86860892928,
			"0.007": 2.90445566721,
			"0.008": 3.84453411952,
			"0.009": 3.43945389018,
			"0.01": 3.12026853579,
			"0.011": 3.99288408818,
			"0.012": 4.42166780452,
			"0.013": 2.61528996701,
			"0.014": 0.142881954388,
			"0.015": 0.0,
			"0.016": 0.0,
			"0.017": 0.0,
			"0.018": 0.0,
			"0.019": 0.0,
			"0.02": 0.0,
			"0.021": 0.0,
			"0.022": 0.0,
			"0.023": 0.0,
			"0.024": 0.0,
			"0.025": 0.0
		}
	}
}
