{
	 "smiles": "CC(C)C(O)C(C)(C)C", 
	 "Tm": 261.15, 
	 "num_atms": 27, 
	 "gaussian": { 
		 "optdone": 1, 
		 "sigma_profile": "yes", 
		 "theory": "DFT", 
		 "functional": "B3LYP", 
		 "basiset": "6-31G**", 
		 "properties": { 
			 "R2extent": 1561.4404, 
			 "electric_dipole_moment_norm": 1.49511944004, 
			 "electric_quadrupole_moment_norm": 3.054008962, 
			 "total_energy": -390.934782079, 
			 "HOMO_LUMO_gap": 0.31843, 
			 "cosmo_polarized_energy": -5.45, 
			 "cosmo_cavitation_energy": 26.09, 
			 "cosmo_dispersion_energy": -18.47, 
			 "cosmo_repulsion_energy": 1.48, 
			 "cosmo_total_nonelectrostatic_energy": 9.09, 
			 "SMD_solvation_energy": 4.64 
		},
		"coords": [
			{
				"x": 0.6742606656,
				"y": -2.1827143118,
				"z": -1.7327633798,
				"element": "C" 
			},
			{
				"x": 0.7332461599,
				"y": -1.388781946,
				"z": -0.4156068944,
				"element": "C" 
			},
			{
				"x": 2.198863081,
				"y": -1.079604195,
				"z": -0.0685307813,
				"element": "C" 
			},
			{
				"x": -0.1578842862,
				"y": -0.1006133524,
				"z": -0.5017654474,
				"element": "C" 
			},
			{
				"x": 0.5229958311,
				"y": 1.0772113205,
				"z": -0.0593615726,
				"element": "O" 
			},
			{
				"x": -1.5612287368,
				"y": -0.2104258926,
				"z": 0.1838016091,
				"element": "C" 
			},
			{
				"x": -1.4210325569,
				"y": -0.3307004758,
				"z": 1.7157763837,
				"element": "C" 
			},
			{
				"x": -2.357396071,
				"y": 1.0691377937,
				"z": -0.1446292368,
				"element": "C" 
			},
			{
				"x": -2.343952949,
				"y": -1.4256723244,
				"z": -0.3491400282,
				"element": "C" 
			},
			{
				"x": 1.2352887744,
				"y": -3.1201555209,
				"z": -1.6516576903,
				"element": "H" 
			},
			{
				"x": -0.3507767357,
				"y": -2.4330570369,
				"z": -2.0197320453,
				"element": "H" 
			},
			{
				"x": 1.1155296163,
				"y": -1.6010057718,
				"z": -2.5510522548,
				"element": "H" 
			},
			{
				"x": 0.342574155,
				"y": -2.0374310317,
				"z": 0.3797209119,
				"element": "H" 
			},
			{
				"x": 2.7823406627,
				"y": -2.0066494001,
				"z": -0.0592072386,
				"element": "H" 
			},
			{
				"x": 2.3085390409,
				"y": -0.6195803221,
				"z": 0.9188838947,
				"element": "H" 
			},
			{
				"x": 2.6464369393,
				"y": -0.3991899511,
				"z": -0.7987447874,
				"element": "H" 
			},
			{
				"x": -0.3392043081,
				"y": 0.1032405452,
				"z": -1.5650366008,
				"element": "H" 
			},
			{
				"x": 0.7318043079,
				"y": 0.9697544896,
				"z": 0.8772494709,
				"element": "H" 
			},
			{
				"x": -0.933827004,
				"y": 0.5503578066,
				"z": 2.1495519038,
				"element": "H" 
			},
			{
				"x": -0.8527242584,
				"y": -1.2183850095,
				"z": 2.0140161278,
				"element": "H" 
			},
			{
				"x": -2.4091925606,
				"y": -0.4049839677,
				"z": 2.1819346167,
				"element": "H" 
			},
			{
				"x": -3.3324612156,
				"y": 1.0596207132,
				"z": 0.3552472595,
				"element": "H" 
			},
			{
				"x": -2.5361066733,
				"y": 1.1527487438,
				"z": -1.2229526759,
				"element": "H" 
			},
			{
				"x": -1.8101484587,
				"y": 1.9600901795,
				"z": 0.1717376219,
				"element": "H" 
			},
			{
				"x": -1.8644130782,
				"y": -2.3765664367,
				"z": -0.0969244851,
				"element": "H" 
			},
			{
				"x": -3.3503306143,
				"y": -1.4428647393,
				"z": 0.0840271458,
				"element": "H" 
			},
			{
				"x": -2.4574997273,
				"y": -1.3801799064,
				"z": -1.4381418269,
				"element": "H" 
			}
		],
		 "valence_orbital": [ 
			{
				"type": "occ",
				"energy": -0.33025,
				"method": "rhf"
			},
			{
				"type": "occ",
				"energy": -0.32213,
				"method": "rhf"
			},
			{
				"type": "occ",
				"energy": -0.3177,
				"method": "rhf"
			},
			{
				"type": "occ",
				"energy": -0.29357,
				"method": "rhf"
			},
			{
				"type": "occ",
				"energy": -0.25572,
				"method": "rhf"
			},
			{
				"type": "unocc",
				"energy": 0.06271,
				"method": "rhf"
			},
			{
				"type": "unocc",
				"energy": 0.09358,
				"method": "rhf"
			},
			{
				"type": "unocc",
				"energy": 0.11273,
				"method": "rhf"
			},
			{
				"type": "unocc",
				"energy": 0.11579,
				"method": "rhf"
			},
			{
				"type": "unocc",
				"energy": 0.12831,
				"method": "rhf"
			}
		],
		"cosmo_sigma_profile": { 
			"-0.025": 0.0,
			"-0.024": 0.0,
			"-0.023": 0.0,
			"-0.022": 0.0,
			"-0.021": 0.0,
			"-0.02": 0.0,
			"-0.019": 0.0,
			"-0.018": 0.0,
			"-0.017": 0.0,
			"-0.016": 0.0,
			"-0.015": 0.0,
			"-0.014": 0.0813116323178,
			"-0.013": 0.558116188229,
			"-0.012": 0.568616037168,
			"-0.011": 1.16704851504,
			"-0.01": 1.08287656191,
			"-0.009": 1.21128552252,
			"-0.008": 1.21797898778,
			"-0.007": 1.20156113017,
			"-0.006": 1.20993058485,
			"-0.005": 2.10191759999,
			"-0.004": 1.85661127101,
			"-0.003": 11.716138131,
			"-0.002": 37.9665622199,
			"-0.001": 31.5115342894,
			"0.0": 29.8139340462,
			"0.001": 31.8181707871,
			"0.002": 25.5029110033,
			"0.003": 3.00303902571,
			"0.004": 1.78050068206,
			"0.005": 1.57106394077,
			"0.006": 1.50182860138,
			"0.007": 0.869211860689,
			"0.008": 1.33469338381,
			"0.009": 1.6680076522,
			"0.01": 1.27014478693,
			"0.011": 1.15415948412,
			"0.012": 0.381786162769,
			"0.013": 1.71771744251,
			"0.014": 1.15352685343,
			"0.015": 1.29258250131,
			"0.016": 0.0431538303738,
			"0.017": 0.0,
			"0.018": 0.0,
			"0.019": 0.0,
			"0.02": 0.0,
			"0.021": 0.0,
			"0.022": 0.0,
			"0.023": 0.0,
			"0.024": 0.0,
			"0.025": 0.0
		}
	}
}
