{
	 "smiles": "FC(F)(F)C1=C(Br)N=CC=C1", 
	 "Tm": 311.15, 
	 "num_atms": 14, 
	 "gaussian": { 
		 "optdone": 1, 
		 "sigma_profile": "yes", 
		 "theory": "DFT", 
		 "functional": "B3LYP", 
		 "basiset": "6-31G**", 
		 "properties": { 
			 "R2extent": 2307.7518, 
			 "electric_dipole_moment_norm": 3.53808315617, 
			 "electric_quadrupole_moment_norm": 11.3267348932, 
			 "total_energy": -3156.11517251, 
			 "HOMO_LUMO_gap": 0.2125, 
			 "cosmo_polarized_energy": -6.68, 
			 "cosmo_cavitation_energy": 21.98, 
			 "cosmo_dispersion_energy": -16.41, 
			 "cosmo_repulsion_energy": 1.25, 
			 "cosmo_total_nonelectrostatic_energy": 6.82, 
			 "SMD_solvation_energy": 2.6 
		},
		"coords": [
			{
				"x": -0.8466222986,
				"y": 1.1879555179,
				"z": -1.0061710087,
				"element": "F" 
			},
			{
				"x": -0.7975022691,
				"y": 1.4724669669,
				"z": 0.3088455091,
				"element": "C" 
			},
			{
				"x": -1.9443961197,
				"y": 2.1208606017,
				"z": 0.6182213932,
				"element": "F" 
			},
			{
				"x": 0.2125786611,
				"y": 2.3409217171,
				"z": 0.5042254729,
				"element": "F" 
			},
			{
				"x": -0.6417871224,
				"y": 0.2261511141,
				"z": 1.1511456489,
				"element": "C" 
			},
			{
				"x": 0.4545110888,
				"y": -0.6500721905,
				"z": 1.049962872,
				"element": "C" 
			},
			{
				"x": 1.8699239538,
				"y": -0.318194059,
				"z": -0.1985211449,
				"element": "Br" 
			},
			{
				"x": 0.596873308,
				"y": -1.738665375,
				"z": 1.7813930222,
				"element": "N" 
			},
			{
				"x": -0.3559057268,
				"y": -2.0334573564,
				"z": 2.6762173148,
				"element": "C" 
			},
			{
				"x": -1.4858853967,
				"y": -1.2446883946,
				"z": 2.8679270453,
				"element": "C" 
			},
			{
				"x": -1.6235100981,
				"y": -0.0979553305,
				"z": 2.0887258773,
				"element": "C" 
			},
			{
				"x": -0.1974108575,
				"y": -2.9392860884,
				"z": 3.2567044188,
				"element": "H" 
			},
			{
				"x": -2.2354521177,
				"y": -1.5170287342,
				"z": 3.602773364,
				"element": "H" 
			},
			{
				"x": -2.4848150051,
				"y": 0.5503916108,
				"z": 2.1988502152,
				"element": "H" 
			}
		],
		 "valence_orbital": [ 
			{
				"type": "occ",
				"energy": -0.33233,
				"method": "rhf"
			},
			{
				"type": "occ",
				"energy": -0.31347,
				"method": "rhf"
			},
			{
				"type": "occ",
				"energy": -0.29478,
				"method": "rhf"
			},
			{
				"type": "occ",
				"energy": -0.28319,
				"method": "rhf"
			},
			{
				"type": "occ",
				"energy": -0.26861,
				"method": "rhf"
			},
			{
				"type": "unocc",
				"energy": -0.05611,
				"method": "rhf"
			},
			{
				"type": "unocc",
				"energy": -0.04732,
				"method": "rhf"
			},
			{
				"type": "unocc",
				"energy": -0.00014,
				"method": "rhf"
			},
			{
				"type": "unocc",
				"energy": 0.09062,
				"method": "rhf"
			},
			{
				"type": "unocc",
				"energy": 0.09872,
				"method": "rhf"
			}
		],
		"cosmo_sigma_profile": { 
			"-0.025": 0.0,
			"-0.024": 0.0,
			"-0.023": 0.0,
			"-0.022": 0.0,
			"-0.021": 0.0,
			"-0.02": 0.0,
			"-0.019": 0.0,
			"-0.018": 0.0,
			"-0.017": 0.0,
			"-0.016": 0.0,
			"-0.015": 0.0,
			"-0.014": 0.0,
			"-0.013": 0.0,
			"-0.012": 0.0,
			"-0.011": 0.0,
			"-0.01": 0.0,
			"-0.009": 1.57476253446,
			"-0.008": 6.65524353298,
			"-0.007": 7.24035763228,
			"-0.006": 5.37606206955,
			"-0.005": 7.17995333172,
			"-0.004": 8.66413944337,
			"-0.003": 7.54793730909,
			"-0.002": 15.3584749374,
			"-0.001": 15.7749729563,
			"0.0": 16.4273610813,
			"0.001": 13.3159949931,
			"0.002": 26.9856106595,
			"0.003": 23.9572344639,
			"0.004": 12.0433568139,
			"0.005": 2.82882894908,
			"0.006": 2.29208494423,
			"0.007": 1.36016498975,
			"0.008": 1.10562204454,
			"0.009": 1.29524786638,
			"0.01": 1.27289460199,
			"0.011": 0.857927188405,
			"0.012": 0.59118605007,
			"0.013": 1.02294550079,
			"0.014": 0.148940832834,
			"0.015": 0.0,
			"0.016": 0.0,
			"0.017": 0.0,
			"0.018": 0.0,
			"0.019": 0.0,
			"0.02": 0.0,
			"0.021": 0.0,
			"0.022": 0.0,
			"0.023": 0.0,
			"0.024": 0.0,
			"0.025": 0.0
		}
	}
}
