{
	 "smiles": "CC(=O)O[C@]1(CC[C@H]2[C@@H]3C=C(Cl)C4=CC(=O)OC[C@]4(C)[C@H]3CC[C@]12C)C(C)=O", 
	 "Tm": 526.15, 
	 "num_atms": 55, 
	 "gaussian": { 
		 "optdone": 1, 
		 "sigma_profile": "yes", 
		 "theory": "DFT", 
		 "functional": "B3LYP", 
		 "basiset": "6-31G**", 
		 "properties": { 
			 "R2extent": 13834.2805, 
			 "electric_dipole_moment_norm": 6.36839321258, 
			 "electric_quadrupole_moment_norm": 38.0682450968, 
			 "total_energy": -1690.9212585, 
			 "HOMO_LUMO_gap": 0.17292, 
			 "cosmo_polarized_energy": -24.14, 
			 "cosmo_cavitation_energy": 51.54, 
			 "cosmo_dispersion_energy": -35.47, 
			 "cosmo_repulsion_energy": 2.59, 
			 "cosmo_total_nonelectrostatic_energy": 18.67, 
			 "SMD_solvation_energy": 10.26 
		},
		"coords": [
			{
				"x": -3.19483548,
				"y": -0.1538972657,
				"z": 4.8335323262,
				"element": "C" 
			},
			{
				"x": -2.4828662498,
				"y": -0.4024319022,
				"z": 3.5273220513,
				"element": "C" 
			},
			{
				"x": -2.472812109,
				"y": -1.454001785,
				"z": 2.9293295165,
				"element": "O" 
			},
			{
				"x": -1.8223728954,
				"y": 0.722602288,
				"z": 3.1374652604,
				"element": "O" 
			},
			{
				"x": -1.3992670508,
				"y": 0.9175158615,
				"z": 1.7724481349,
				"element": "C" 
			},
			{
				"x": -0.7537574017,
				"y": 2.3530983195,
				"z": 1.7727387546,
				"element": "C" 
			},
			{
				"x": 0.6063613957,
				"y": 2.2686888772,
				"z": 1.0358760989,
				"element": "C" 
			},
			{
				"x": 0.5437476252,
				"y": 0.9184371563,
				"z": 0.3082923915,
				"element": "C" 
			},
			{
				"x": 1.8400084369,
				"y": 0.2901585582,
				"z": -0.2381975469,
				"element": "C" 
			},
			{
				"x": 2.5972476938,
				"y": 1.222952549,
				"z": -1.1452017831,
				"element": "C" 
			},
			{
				"x": 3.2369973891,
				"y": 0.8022579848,
				"z": -2.249638293,
				"element": "C" 
			},
			{
				"x": 4.0524603683,
				"y": 1.9995698902,
				"z": -3.2621539187,
				"element": "Cl" 
			},
			{
				"x": 3.3070731071,
				"y": -0.6006120088,
				"z": -2.6566443812,
				"element": "C" 
			},
			{
				"x": 3.8744471859,
				"y": -1.023455821,
				"z": -3.8058309255,
				"element": "C" 
			},
			{
				"x": 4.0332639329,
				"y": -2.4521117634,
				"z": -4.1391134104,
				"element": "C" 
			},
			{
				"x": 4.7429676461,
				"y": -2.8525408736,
				"z": -5.0348045639,
				"element": "O" 
			},
			{
				"x": 3.3759083971,
				"y": -3.3502142939,
				"z": -3.3473881118,
				"element": "O" 
			},
			{
				"x": 2.3272012248,
				"y": -2.853228119,
				"z": -2.5034058664,
				"element": "C" 
			},
			{
				"x": 2.7442997521,
				"y": -1.6304008345,
				"z": -1.6699999449,
				"element": "C" 
			},
			{
				"x": 3.8554183332,
				"y": -2.0286291755,
				"z": -0.6694843087,
				"element": "C" 
			},
			{
				"x": 1.4876983742,
				"y": -1.0250154713,
				"z": -0.9757529995,
				"element": "C" 
			},
			{
				"x": 0.6998546405,
				"y": -1.98830295,
				"z": -0.0644358576,
				"element": "C" 
			},
			{
				"x": -0.5565105441,
				"y": -1.3324711572,
				"z": 0.5505515683,
				"element": "C" 
			},
			{
				"x": -0.2131060715,
				"y": -0.0228933046,
				"z": 1.2932355712,
				"element": "C" 
			},
			{
				"x": 0.6376096456,
				"y": -0.3522840696,
				"z": 2.5451619143,
				"element": "C" 
			},
			{
				"x": -2.7053073268,
				"y": 0.9440626144,
				"z": 0.9174130861,
				"element": "C" 
			},
			{
				"x": -2.6626239012,
				"y": 1.3160534888,
				"z": -0.5573870409,
				"element": "C" 
			},
			{
				"x": -3.7766411975,
				"y": 0.7467382645,
				"z": 1.4537466458,
				"element": "O" 
			},
			{
				"x": -4.0848841536,
				"y": 0.4494073709,
				"z": 4.6288300195,
				"element": "H" 
			},
			{
				"x": -3.4945124712,
				"y": -1.1046871774,
				"z": 5.2737320394,
				"element": "H" 
			},
			{
				"x": -2.5622193229,
				"y": 0.4083275554,
				"z": 5.5247217556,
				"element": "H" 
			},
			{
				"x": -0.6437137917,
				"y": 2.6633569087,
				"z": 2.8131036718,
				"element": "H" 
			},
			{
				"x": -1.4199348304,
				"y": 3.0822530823,
				"z": 1.3031469665,
				"element": "H" 
			},
			{
				"x": 1.4368820061,
				"y": 2.2903721904,
				"z": 1.7498051102,
				"element": "H" 
			},
			{
				"x": 0.7509113399,
				"y": 3.1107933335,
				"z": 0.3528414268,
				"element": "H" 
			},
			{
				"x": -0.1043736252,
				"y": 1.0559698004,
				"z": -0.5661952032,
				"element": "H" 
			},
			{
				"x": 2.496181366,
				"y": 0.0637840026,
				"z": 0.6155951656,
				"element": "H" 
			},
			{
				"x": 2.6287461643,
				"y": 2.2774434557,
				"z": -0.8887792544,
				"element": "H" 
			},
			{
				"x": 4.3224726045,
				"y": -0.3373643096,
				"z": -4.51359099,
				"element": "H" 
			},
			{
				"x": 2.063293608,
				"y": -3.697475394,
				"z": -1.8640653998,
				"element": "H" 
			},
			{
				"x": 1.4574019404,
				"y": -2.6023519359,
				"z": -3.1259965598,
				"element": "H" 
			},
			{
				"x": 4.2802940781,
				"y": -1.1555695469,
				"z": -0.1672870411,
				"element": "H" 
			},
			{
				"x": 4.6671026321,
				"y": -2.537455528,
				"z": -1.1949252061,
				"element": "H" 
			},
			{
				"x": 3.4707911537,
				"y": -2.7124261675,
				"z": 0.0933989981,
				"element": "H" 
			},
			{
				"x": 0.8077209597,
				"y": -0.7342566581,
				"z": -1.7924389159,
				"element": "H" 
			},
			{
				"x": 1.3465431002,
				"y": -2.3723703793,
				"z": 0.7320952082,
				"element": "H" 
			},
			{
				"x": 0.3751262895,
				"y": -2.8634939087,
				"z": -0.6371707603,
				"element": "H" 
			},
			{
				"x": -1.2652068452,
				"y": -1.1283816217,
				"z": -0.2606901119,
				"element": "H" 
			},
			{
				"x": -1.0554243449,
				"y": -2.0287021038,
				"z": 1.2250449298,
				"element": "H" 
			},
			{
				"x": 1.5937307229,
				"y": -0.8049116681,
				"z": 2.2759515457,
				"element": "H" 
			},
			{
				"x": 0.1056601277,
				"y": -1.0694601879,
				"z": 3.1727442147,
				"element": "H" 
			},
			{
				"x": 0.8504387866,
				"y": 0.5296715648,
				"z": 3.1534628914,
				"element": "H" 
			},
			{
				"x": -2.2461628831,
				"y": 0.5001320855,
				"z": -1.1554593664,
				"element": "H" 
			},
			{
				"x": -2.0562450424,
				"y": 2.2049379767,
				"z": -0.7499252786,
				"element": "H" 
			},
			{
				"x": -3.68808449,
				"y": 1.4960122026,
				"z": -0.8832242232,
				"element": "H" 
			}
		],
		 "valence_orbital": [ 
			{
				"type": "occ",
				"energy": -0.28989,
				"method": "rhf"
			},
			{
				"type": "occ",
				"energy": -0.27061,
				"method": "rhf"
			},
			{
				"type": "occ",
				"energy": -0.26562,
				"method": "rhf"
			},
			{
				"type": "occ",
				"energy": -0.2605,
				"method": "rhf"
			},
			{
				"type": "occ",
				"energy": -0.24924,
				"method": "rhf"
			},
			{
				"type": "unocc",
				"energy": -0.07632,
				"method": "rhf"
			},
			{
				"type": "unocc",
				"energy": -0.0329,
				"method": "rhf"
			},
			{
				"type": "unocc",
				"energy": 0.00707,
				"method": "rhf"
			},
			{
				"type": "unocc",
				"energy": 0.01607,
				"method": "rhf"
			},
			{
				"type": "unocc",
				"energy": 0.0217,
				"method": "rhf"
			}
		],
		"cosmo_sigma_profile": { 
			"-0.025": 0.0,
			"-0.024": 0.0,
			"-0.023": 0.0,
			"-0.022": 0.0,
			"-0.021": 0.0,
			"-0.02": 0.0,
			"-0.019": 0.0,
			"-0.018": 0.0,
			"-0.017": 0.0,
			"-0.016": 0.0,
			"-0.015": 0.0,
			"-0.014": 0.0,
			"-0.013": 0.0,
			"-0.012": 0.0,
			"-0.011": 0.0,
			"-0.01": 0.0,
			"-0.009": 0.0012129049949,
			"-0.008": 0.158044008555,
			"-0.007": 5.25588990853,
			"-0.006": 23.9967778374,
			"-0.005": 34.0305836872,
			"-0.004": 46.7434843468,
			"-0.003": 42.0677150502,
			"-0.002": 40.6563407238,
			"-0.001": 38.46850754,
			"0.0": 34.7740591333,
			"0.001": 26.3747441397,
			"0.002": 15.3683835267,
			"0.003": 12.3277736267,
			"0.004": 13.0431347777,
			"0.005": 12.5037687468,
			"0.006": 7.4052147154,
			"0.007": 6.20519023663,
			"0.008": 5.1830462176,
			"0.009": 7.60341308472,
			"0.01": 7.70322490507,
			"0.011": 8.90159636679,
			"0.012": 9.94837039215,
			"0.013": 5.56813317611,
			"0.014": 0.733926184177,
			"0.015": 0.0,
			"0.016": 0.0,
			"0.017": 0.0,
			"0.018": 0.0,
			"0.019": 0.0,
			"0.02": 0.0,
			"0.021": 0.0,
			"0.022": 0.0,
			"0.023": 0.0,
			"0.024": 0.0,
			"0.025": 0.0
		}
	}
}
