{
	 "smiles": "CCOC(=O)C#CC(=O)OCC", 
	 "Tm": 274.9, 
	 "num_atms": 22, 
	 "gaussian": { 
		 "optdone": 1, 
		 "sigma_profile": "yes", 
		 "theory": "DFT", 
		 "functional": "B3LYP", 
		 "basiset": "6-31G**", 
		 "properties": { 
			 "R2extent": 4017.0622, 
			 "electric_dipole_moment_norm": 2.85448551932, 
			 "electric_quadrupole_moment_norm": 20.4447325412, 
			 "total_energy": -611.716087068, 
			 "HOMO_LUMO_gap": 0.23369, 
			 "cosmo_polarized_energy": -9.52, 
			 "cosmo_cavitation_energy": 28.78, 
			 "cosmo_dispersion_energy": -20.52, 
			 "cosmo_repulsion_energy": 1.73, 
			 "cosmo_total_nonelectrostatic_energy": 9.99, 
			 "SMD_solvation_energy": 8.11 
		},
		"coords": [
			{
				"x": -3.0840677108,
				"y": -2.275562444,
				"z": -2.5915996292,
				"element": "C" 
			},
			{
				"x": -2.222354679,
				"y": -1.1276642759,
				"z": -3.0935828535,
				"element": "C" 
			},
			{
				"x": -1.1754999892,
				"y": -0.7989743318,
				"z": -2.1398791688,
				"element": "O" 
			},
			{
				"x": -1.5178349199,
				"y": 0.0422062,
				"z": -1.1497363481,
				"element": "C" 
			},
			{
				"x": -2.6101480234,
				"y": 0.5446438656,
				"z": -0.988122696,
				"element": "O" 
			},
			{
				"x": -0.3907662127,
				"y": 0.2900055756,
				"z": -0.2703430061,
				"element": "C" 
			},
			{
				"x": 0.5005833523,
				"y": 0.5330898676,
				"z": 0.5127657909,
				"element": "C" 
			},
			{
				"x": 1.6015758442,
				"y": 0.8866937221,
				"z": 1.3892507164,
				"element": "C" 
			},
			{
				"x": 2.3582643482,
				"y": 1.8094405887,
				"z": 1.1731954378,
				"element": "O" 
			},
			{
				"x": 1.6584846886,
				"y": 0.0623385984,
				"z": 2.4474513598,
				"element": "O" 
			},
			{
				"x": 2.7276784149,
				"y": 0.3308837799,
				"z": 3.3924153887,
				"element": "C" 
			},
			{
				"x": 2.6179028248,
				"y": -0.6964817307,
				"z": 4.5016359821,
				"element": "C" 
			},
			{
				"x": -3.633763738,
				"y": -1.9826035667,
				"z": -1.6939041918,
				"element": "H" 
			},
			{
				"x": -2.4710453105,
				"y": -3.1522138817,
				"z": -2.3637686905,
				"element": "H" 
			},
			{
				"x": -3.8100924348,
				"y": -2.554231156,
				"z": -3.3624310887,
				"element": "H" 
			},
			{
				"x": -1.6765297234,
				"y": -1.3976709178,
				"z": -3.9998907201,
				"element": "H" 
			},
			{
				"x": -2.819555902,
				"y": -0.2322553231,
				"z": -3.280004865,
				"element": "H" 
			},
			{
				"x": 2.616566389,
				"y": 1.3548544713,
				"z": 3.7619074814,
				"element": "H" 
			},
			{
				"x": 3.6835515767,
				"y": 0.2706882841,
				"z": 2.863129215,
				"element": "H" 
			},
			{
				"x": 2.7242469442,
				"y": -1.7109795559,
				"z": 4.1075574778,
				"element": "H" 
			},
			{
				"x": 1.6524449147,
				"y": -0.6221207775,
				"z": 5.009675129,
				"element": "H" 
			},
			{
				"x": 3.4093593458,
				"y": -0.5277869922,
				"z": 5.2382792789,
				"element": "H" 
			}
		],
		 "valence_orbital": [ 
			{
				"type": "occ",
				"energy": -0.31657,
				"method": "rhf"
			},
			{
				"type": "occ",
				"energy": -0.31366,
				"method": "rhf"
			},
			{
				"type": "occ",
				"energy": -0.31222,
				"method": "rhf"
			},
			{
				"type": "occ",
				"energy": -0.28696,
				"method": "rhf"
			},
			{
				"type": "occ",
				"energy": -0.28525,
				"method": "rhf"
			},
			{
				"type": "unocc",
				"energy": -0.05156,
				"method": "rhf"
			},
			{
				"type": "unocc",
				"energy": -0.04946,
				"method": "rhf"
			},
			{
				"type": "unocc",
				"energy": 0.09313,
				"method": "rhf"
			},
			{
				"type": "unocc",
				"energy": 0.09445,
				"method": "rhf"
			},
			{
				"type": "unocc",
				"energy": 0.09742,
				"method": "rhf"
			}
		],
		"cosmo_sigma_profile": { 
			"-0.025": 0.0,
			"-0.024": 0.0,
			"-0.023": 0.0,
			"-0.022": 0.0,
			"-0.021": 0.0,
			"-0.02": 0.0,
			"-0.019": 0.0,
			"-0.018": 0.0,
			"-0.017": 0.0,
			"-0.016": 0.0,
			"-0.015": 0.0,
			"-0.014": 0.0,
			"-0.013": 0.0,
			"-0.012": 0.0,
			"-0.011": 0.0,
			"-0.01": 0.0,
			"-0.009": 0.0,
			"-0.008": 0.0,
			"-0.007": 0.958273662144,
			"-0.006": 8.12758863432,
			"-0.005": 20.2395556586,
			"-0.004": 29.841084238,
			"-0.003": 25.5683802735,
			"-0.002": 19.0502454101,
			"-0.001": 23.3199365086,
			"0.0": 19.7232620175,
			"0.001": 17.1142525737,
			"0.002": 10.8033256996,
			"0.003": 8.03150707924,
			"0.004": 6.61335918344,
			"0.005": 5.0036646101,
			"0.006": 6.06964898126,
			"0.007": 4.9243282379,
			"0.008": 4.73564462774,
			"0.009": 4.35288374967,
			"0.01": 8.53588207763,
			"0.011": 5.63778617975,
			"0.012": 0.314813704994,
			"0.013": 0.0,
			"0.014": 0.0,
			"0.015": 0.0,
			"0.016": 0.0,
			"0.017": 0.0,
			"0.018": 0.0,
			"0.019": 0.0,
			"0.02": 0.0,
			"0.021": 0.0,
			"0.022": 0.0,
			"0.023": 0.0,
			"0.024": 0.0,
			"0.025": 0.0
		}
	}
}
