{
	 "smiles": "COC1=C(NS(=O)(=O)C2=CC(C(O)=O)=C(O)C=C2)C=CC=C1", 
	 "Tm": 446.15, 
	 "num_atms": 35, 
	 "gaussian": { 
		 "optdone": 1, 
		 "sigma_profile": "yes", 
		 "theory": "DFT", 
		 "functional": "B3LYP", 
		 "basiset": "6-31G**", 
		 "properties": { 
			 "R2extent": 7439.1936, 
			 "electric_dipole_moment_norm": 9.1604874379, 
			 "electric_quadrupole_moment_norm": 44.3872390879, 
			 "total_energy": -1445.53420961, 
			 "HOMO_LUMO_gap": 0.15663, 
			 "cosmo_polarized_energy": -30.51, 
			 "cosmo_cavitation_energy": 41.09, 
			 "cosmo_dispersion_energy": -28.41, 
			 "cosmo_repulsion_energy": 2.15, 
			 "cosmo_total_nonelectrostatic_energy": 14.83, 
			 "SMD_solvation_energy": 8.28 
		},
		"coords": [
			{
				"x": 0.9714229818,
				"y": -3.2588412419,
				"z": -0.3404136048,
				"element": "C" 
			},
			{
				"x": 1.354773608,
				"y": -1.8961508843,
				"z": -0.4543198664,
				"element": "O" 
			},
			{
				"x": 0.7179281639,
				"y": -1.1175898913,
				"z": -1.3867532003,
				"element": "C" 
			},
			{
				"x": 1.2118510272,
				"y": 0.2012380912,
				"z": -1.4999679417,
				"element": "C" 
			},
			{
				"x": 2.3178372749,
				"y": 0.56882318,
				"z": -0.6866789241,
				"element": "N" 
			},
			{
				"x": 2.3081618124,
				"y": 1.9297828119,
				"z": 0.3193099563,
				"element": "S" 
			},
			{
				"x": 3.5507688001,
				"y": 1.8162060878,
				"z": 1.0848996676,
				"element": "O" 
			},
			{
				"x": 1.9985455514,
				"y": 3.0884077547,
				"z": -0.5149277096,
				"element": "O" 
			},
			{
				"x": 0.9484258018,
				"y": 1.7242202913,
				"z": 1.4755219947,
				"element": "C" 
			},
			{
				"x": -0.3438555357,
				"y": 2.094081438,
				"z": 1.1137464004,
				"element": "C" 
			},
			{
				"x": -1.4131497451,
				"y": 1.9227286487,
				"z": 2.0015187053,
				"element": "C" 
			},
			{
				"x": -2.7716527917,
				"y": 2.3611974464,
				"z": 1.5038908754,
				"element": "C" 
			},
			{
				"x": -3.8231222956,
				"y": 2.2322702307,
				"z": 2.3344549683,
				"element": "O" 
			},
			{
				"x": -2.9168126593,
				"y": 2.8150856689,
				"z": 0.3915162547,
				"element": "O" 
			},
			{
				"x": -1.1383548953,
				"y": 1.3757268418,
				"z": 3.2702812023,
				"element": "C" 
			},
			{
				"x": -2.1810605378,
				"y": 1.208708271,
				"z": 4.1448648551,
				"element": "O" 
			},
			{
				"x": 0.1628232066,
				"y": 1.0146422489,
				"z": 3.6347976884,
				"element": "C" 
			},
			{
				"x": 1.2104652123,
				"y": 1.1853412176,
				"z": 2.738511238,
				"element": "C" 
			},
			{
				"x": 0.6448340299,
				"y": 1.0729182243,
				"z": -2.4309245318,
				"element": "C" 
			},
			{
				"x": -0.4249692912,
				"y": 0.6515738365,
				"z": -3.2240745473,
				"element": "C" 
			},
			{
				"x": -0.9064802694,
				"y": -0.6500165042,
				"z": -3.112720278,
				"element": "C" 
			},
			{
				"x": -0.3312922492,
				"y": -1.5421233662,
				"z": -2.2018046343,
				"element": "C" 
			},
			{
				"x": 1.119514393,
				"y": -3.7969948207,
				"z": -1.2846403347,
				"element": "H" 
			},
			{
				"x": 1.6155303664,
				"y": -3.6911143916,
				"z": 0.4266918335,
				"element": "H" 
			},
			{
				"x": -0.076431144,
				"y": -3.3562833545,
				"z": -0.0303652697,
				"element": "H" 
			},
			{
				"x": 2.7283792564,
				"y": -0.2192542609,
				"z": -0.1933380931,
				"element": "H" 
			},
			{
				"x": -0.5571136919,
				"y": 2.5370728835,
				"z": 0.1480204648,
				"element": "H" 
			},
			{
				"x": -3.5451502454,
				"y": 1.857786697,
				"z": 3.1882730898,
				"element": "H" 
			},
			{
				"x": -1.8686631895,
				"y": 0.8674866803,
				"z": 4.9927646132,
				"element": "H" 
			},
			{
				"x": 0.3517073757,
				"y": 0.6063075896,
				"z": 4.6250012181,
				"element": "H" 
			},
			{
				"x": 2.2267059113,
				"y": 0.9258847751,
				"z": 3.0139761385,
				"element": "H" 
			},
			{
				"x": 1.0470238717,
				"y": 2.0750149546,
				"z": -2.5193389168,
				"element": "H" 
			},
			{
				"x": -0.8680884916,
				"y": 1.341303575,
				"z": -3.9348772412,
				"element": "H" 
			},
			{
				"x": -1.7300511471,
				"y": -0.9850594914,
				"z": -3.7356810714,
				"element": "H" 
			},
			{
				"x": -0.7120504647,
				"y": -2.5537812377,
				"z": -2.1258149992,
				"element": "H" 
			}
		],
		 "valence_orbital": [ 
			{
				"type": "occ",
				"energy": -0.28492,
				"method": "rhf"
			},
			{
				"type": "occ",
				"energy": -0.27419,
				"method": "rhf"
			},
			{
				"type": "occ",
				"energy": -0.26719,
				"method": "rhf"
			},
			{
				"type": "occ",
				"energy": -0.24464,
				"method": "rhf"
			},
			{
				"type": "occ",
				"energy": -0.21965,
				"method": "rhf"
			},
			{
				"type": "unocc",
				"energy": -0.06302,
				"method": "rhf"
			},
			{
				"type": "unocc",
				"energy": -0.04294,
				"method": "rhf"
			},
			{
				"type": "unocc",
				"energy": -0.00938,
				"method": "rhf"
			},
			{
				"type": "unocc",
				"energy": 0.00467,
				"method": "rhf"
			},
			{
				"type": "unocc",
				"energy": 0.0248,
				"method": "rhf"
			}
		],
		"cosmo_sigma_profile": { 
			"-0.025": 0.0,
			"-0.024": 0.0,
			"-0.023": 0.0,
			"-0.022": 0.0,
			"-0.021": 0.0609778496246,
			"-0.02": 1.18011465457,
			"-0.019": 1.04450055198,
			"-0.018": 1.52212678346,
			"-0.017": 0.970934708296,
			"-0.016": 1.27977222129,
			"-0.015": 0.97020264851,
			"-0.014": 1.30145211653,
			"-0.013": 0.748664211545,
			"-0.012": 1.36742512462,
			"-0.011": 2.08271696092,
			"-0.01": 2.06425283929,
			"-0.009": 4.12433492022,
			"-0.008": 5.05999086526,
			"-0.007": 8.39918792506,
			"-0.006": 18.0469612799,
			"-0.005": 22.711464016,
			"-0.004": 23.2741440657,
			"-0.003": 21.888016888,
			"-0.002": 18.3379069767,
			"-0.001": 23.8019605826,
			"0.0": 24.9414797548,
			"0.001": 22.3545997955,
			"0.002": 17.8781676437,
			"0.003": 14.9957401874,
			"0.004": 15.9003311007,
			"0.005": 13.4187005582,
			"0.006": 7.83974199782,
			"0.007": 6.42115638034,
			"0.008": 6.4580565712,
			"0.009": 7.47893779072,
			"0.01": 11.631812846,
			"0.011": 12.5089749771,
			"0.012": 5.04589222822,
			"0.013": 1.81622616146,
			"0.014": 0.129302026657,
			"0.015": 0.0,
			"0.016": 0.0,
			"0.017": 0.0,
			"0.018": 0.0,
			"0.019": 0.0,
			"0.02": 0.0,
			"0.021": 0.0,
			"0.022": 0.0,
			"0.023": 0.0,
			"0.024": 0.0,
			"0.0": 0.0
		}
	}
}
