{
	 "smiles": "COC1=CC=C(C=C1)C(=O)C1=CC=C(C=C1)[N+]([O-])=O", 
	 "Tm": 399.15, 
	 "num_atms": 30, 
	 "gaussian": { 
		 "optdone": 1, 
		 "sigma_profile": "yes", 
		 "theory": "DFT", 
		 "functional": "B3LYP", 
		 "basiset": "6-31G**", 
		 "properties": { 
			 "R2extent": 7880.6406, 
			 "electric_dipole_moment_norm": 6.10077814545, 
			 "electric_quadrupole_moment_norm": 26.5841421443, 
			 "total_energy": -895.656318909, 
			 "HOMO_LUMO_gap": 0.13948, 
			 "cosmo_polarized_energy": -14.25, 
			 "cosmo_cavitation_energy": 35.78, 
			 "cosmo_dispersion_energy": -25.86, 
			 "cosmo_repulsion_energy": 1.96, 
			 "cosmo_total_nonelectrostatic_energy": 11.88, 
			 "SMD_solvation_energy": 9.58 
		},
		"coords": [
			{
				"x": -3.6790658049,
				"y": 3.7391857197,
				"z": 1.5078601158,
				"element": "C" 
			},
			{
				"x": -3.9236509197,
				"y": 2.7932832301,
				"z": 0.4742608621,
				"element": "O" 
			},
			{
				"x": -3.058666559,
				"y": 1.7601503556,
				"z": 0.3191617956,
				"element": "C" 
			},
			{
				"x": -1.9224091449,
				"y": 1.5463801605,
				"z": 1.1115834463,
				"element": "C" 
			},
			{
				"x": -1.0967610434,
				"y": 0.4530723536,
				"z": 0.8495216525,
				"element": "C" 
			},
			{
				"x": -1.3856443319,
				"y": -0.444885068,
				"z": -0.1877370282,
				"element": "C" 
			},
			{
				"x": -2.5478758218,
				"y": -0.2280016198,
				"z": -0.9565418858,
				"element": "C" 
			},
			{
				"x": -3.3657187368,
				"y": 0.8604989337,
				"z": -0.7193609095,
				"element": "C" 
			},
			{
				"x": -0.5819935965,
				"y": -1.6645519521,
				"z": -0.470959795,
				"element": "C" 
			},
			{
				"x": -1.071106656,
				"y": -2.6164439067,
				"z": -1.0712505339,
				"element": "O" 
			},
			{
				"x": 0.8576338564,
				"y": -1.7587462788,
				"z": -0.0278045668,
				"element": "C" 
			},
			{
				"x": 1.7309282341,
				"y": -0.6598588617,
				"z": -0.0334739821,
				"element": "C" 
			},
			{
				"x": 3.0716219421,
				"y": -0.818921798,
				"z": 0.3102657931,
				"element": "C" 
			},
			{
				"x": 3.5219616523,
				"y": -2.0865084156,
				"z": 0.6695475453,
				"element": "C" 
			},
			{
				"x": 2.6819324631,
				"y": -3.2001673501,
				"z": 0.6742132813,
				"element": "C" 
			},
			{
				"x": 1.3519381286,
				"y": -3.0291597245,
				"z": 0.3097723885,
				"element": "C" 
			},
			{
				"x": 4.9354448417,
				"y": -2.2572582787,
				"z": 1.049932239,
				"element": "N" 
			},
			{
				"x": 5.3088681495,
				"y": -3.3871504868,
				"z": 1.3609051395,
				"element": "O" 
			},
			{
				"x": 5.6544039788,
				"y": -1.258838907,
				"z": 1.0344923465,
				"element": "O" 
			},
			{
				"x": -2.7180539298,
				"y": 4.2488397222,
				"z": 1.366982763,
				"element": "H" 
			},
			{
				"x": -4.4868702287,
				"y": 4.4688526828,
				"z": 1.4423976647,
				"element": "H" 
			},
			{
				"x": -3.697139531,
				"y": 3.2667498002,
				"z": 2.4975721505,
				"element": "H" 
			},
			{
				"x": -1.6782893128,
				"y": 2.2133475749,
				"z": 1.9294252033,
				"element": "H" 
			},
			{
				"x": -0.2337244661,
				"y": 0.2897311566,
				"z": 1.4861296952,
				"element": "H" 
			},
			{
				"x": -2.7845344102,
				"y": -0.9380888101,
				"z": -1.7416886715,
				"element": "H" 
			},
			{
				"x": -4.2542556725,
				"y": 1.0436659959,
				"z": -1.3143774523,
				"element": "H" 
			},
			{
				"x": 1.3697122213,
				"y": 0.3185996534,
				"z": -0.3300686972,
				"element": "H" 
			},
			{
				"x": 3.766348244,
				"y": 0.011442245,
				"z": 0.3026123217,
				"element": "H" 
			},
			{
				"x": 3.0805466946,
				"y": -4.1676275919,
				"z": 0.9525117684,
				"element": "H" 
			},
			{
				"x": 0.6746197596,
				"y": -3.8752905343,
				"z": 0.2746153499,
				"element": "H" 
			}
		],
		 "valence_orbital": [ 
			{
				"type": "occ",
				"energy": -0.28601,
				"method": "rhf"
			},
			{
				"type": "occ",
				"energy": -0.28291,
				"method": "rhf"
			},
			{
				"type": "occ",
				"energy": -0.27145,
				"method": "rhf"
			},
			{
				"type": "occ",
				"energy": -0.25919,
				"method": "rhf"
			},
			{
				"type": "occ",
				"energy": -0.23971,
				"method": "rhf"
			},
			{
				"type": "unocc",
				"energy": -0.10023,
				"method": "rhf"
			},
			{
				"type": "unocc",
				"energy": -0.0577,
				"method": "rhf"
			},
			{
				"type": "unocc",
				"energy": -0.03269,
				"method": "rhf"
			},
			{
				"type": "unocc",
				"energy": -0.01947,
				"method": "rhf"
			},
			{
				"type": "unocc",
				"energy": -0.00664,
				"method": "rhf"
			}
		],
		"cosmo_sigma_profile": { 
			"-0.025": 0.0,
			"-0.024": 0.0,
			"-0.023": 0.0,
			"-0.022": 0.0,
			"-0.021": 0.0,
			"-0.02": 0.0,
			"-0.019": 0.0,
			"-0.018": 0.0,
			"-0.017": 0.0,
			"-0.016": 0.0,
			"-0.015": 0.0,
			"-0.014": 0.0,
			"-0.013": 0.0,
			"-0.012": 0.0,
			"-0.011": 0.0,
			"-0.01": 0.0,
			"-0.009": 0.0390355130402,
			"-0.008": 2.49803561727,
			"-0.007": 11.2243144621,
			"-0.006": 22.1150921134,
			"-0.005": 24.9028297126,
			"-0.004": 24.0706822314,
			"-0.003": 22.6086495523,
			"-0.002": 18.3664209566,
			"-0.001": 20.3689817052,
			"0.0": 22.359463762,
			"0.001": 19.2905642426,
			"0.002": 15.5393976162,
			"0.003": 19.6840443198,
			"0.004": 10.9054026207,
			"0.005": 6.16885055361,
			"0.006": 7.64904998802,
			"0.007": 11.6940990497,
			"0.008": 9.35279219111,
			"0.009": 7.51460006908,
			"0.01": 4.04811526085,
			"0.011": 3.15901725141,
			"0.012": 3.63005073878,
			"0.013": 0.245030040294,
			"0.014": 0.0,
			"0.015": 0.0,
			"0.016": 0.0,
			"0.017": 0.0,
			"0.018": 0.0,
			"0.019": 0.0,
			"0.02": 0.0,
			"0.021": 0.0,
			"0.022": 0.0,
			"0.023": 0.0,
			"0.024": 0.0,
			"0.025": 0.0
		}
	}
}
