{
	 "smiles": "[O-][N+](=O)C1=CC=C(OCCBr)C=C1", 
	 "Tm": 337.15, 
	 "num_atms": 21, 
	 "gaussian": { 
		 "optdone": 1, 
		 "sigma_profile": "yes", 
		 "theory": "DFT", 
		 "functional": "B3LYP", 
		 "basiset": "6-31G**", 
		 "properties": { 
			 "R2extent": 6483.0506, 
			 "electric_dipole_moment_norm": 4.40681194629, 
			 "electric_quadrupole_moment_norm": 14.8588404093, 
			 "total_energy": -3161.39362912, 
			 "HOMO_LUMO_gap": 0.17085, 
			 "cosmo_polarized_energy": -12.03, 
			 "cosmo_cavitation_energy": 28.32, 
			 "cosmo_dispersion_energy": -21.13, 
			 "cosmo_repulsion_energy": 1.69, 
			 "cosmo_total_nonelectrostatic_energy": 8.87, 
			 "SMD_solvation_energy": 6.14 
		},
		"coords": [
			{
				"x": -1.1145490843,
				"y": 0.3506480552,
				"z": -3.7199657981,
				"element": "O" 
			},
			{
				"x": -1.5985571254,
				"y": 0.867866247,
				"z": -2.7116797943,
				"element": "N" 
			},
			{
				"x": -2.4262502996,
				"y": 1.7804522,
				"z": -2.7224304887,
				"element": "O" 
			},
			{
				"x": -1.1603754508,
				"y": 0.3636593799,
				"z": -1.4099684191,
				"element": "C" 
			},
			{
				"x": -1.6863748209,
				"y": 0.9280796243,
				"z": -0.2444232479,
				"element": "C" 
			},
			{
				"x": -1.2669440226,
				"y": 0.4473812789,
				"z": 0.984727529,
				"element": "C" 
			},
			{
				"x": -0.3249368733,
				"y": -0.5948623729,
				"z": 1.0559537411,
				"element": "C" 
			},
			{
				"x": 0.0005568113,
				"y": -0.9894487551,
				"z": 2.3169775715,
				"element": "O" 
			},
			{
				"x": 0.9373931557,
				"y": -2.0498161443,
				"z": 2.5249579854,
				"element": "C" 
			},
			{
				"x": 2.3642845909,
				"y": -1.5164577408,
				"z": 2.464429171,
				"element": "C" 
			},
			{
				"x": 3.6297685786,
				"y": -2.989749809,
				"z": 2.7984565936,
				"element": "Br" 
			},
			{
				"x": 0.1975819785,
				"y": -1.1499456694,
				"z": -0.1233066448,
				"element": "C" 
			},
			{
				"x": -0.2262114351,
				"y": -0.6671082181,
				"z": -1.3585478874,
				"element": "C" 
			},
			{
				"x": -2.4117018255,
				"y": 1.7282179743,
				"z": -0.3221588719,
				"element": "H" 
			},
			{
				"x": -1.6545506996,
				"y": 0.8573886293,
				"z": 1.9107837502,
				"element": "H" 
			},
			{
				"x": 0.7835405827,
				"y": -2.8632539625,
				"z": 1.8092158836,
				"element": "H" 
			},
			{
				"x": 0.7219293395,
				"y": -2.4329780704,
				"z": 3.5242002973,
				"element": "H" 
			},
			{
				"x": 2.541649843,
				"y": -0.7679891588,
				"z": 3.2353708223,
				"element": "H" 
			},
			{
				"x": 2.6179909192,
				"y": -1.1074238539,
				"z": 1.4875047792,
				"element": "H" 
			},
			{
				"x": 0.9275052069,
				"y": -1.9497357291,
				"z": -0.0959812678,
				"element": "H" 
			},
			{
				"x": 0.1605506306,
				"y": -1.0777239046,
				"z": -2.2829157042,
				"element": "H" 
			}
		],
		 "valence_orbital": [ 
			{
				"type": "occ",
				"energy": -0.29575,
				"method": "rhf"
			},
			{
				"type": "occ",
				"energy": -0.29311,
				"method": "rhf"
			},
			{
				"type": "occ",
				"energy": -0.28714,
				"method": "rhf"
			},
			{
				"type": "occ",
				"energy": -0.2844,
				"method": "rhf"
			},
			{
				"type": "occ",
				"energy": -0.25545,
				"method": "rhf"
			},
			{
				"type": "unocc",
				"energy": -0.0846,
				"method": "rhf"
			},
			{
				"type": "unocc",
				"energy": -0.03446,
				"method": "rhf"
			},
			{
				"type": "unocc",
				"energy": -0.01896,
				"method": "rhf"
			},
			{
				"type": "unocc",
				"energy": 0.00785,
				"method": "rhf"
			},
			{
				"type": "unocc",
				"energy": 0.06375,
				"method": "rhf"
			}
		],
		"cosmo_sigma_profile": { 
			"-0.025": 0.0,
			"-0.024": 0.0,
			"-0.023": 0.0,
			"-0.022": 0.0,
			"-0.021": 0.0,
			"-0.02": 0.0,
			"-0.019": 0.0,
			"-0.018": 0.0,
			"-0.017": 0.0,
			"-0.016": 0.0,
			"-0.015": 0.0,
			"-0.014": 0.0,
			"-0.013": 0.0,
			"-0.012": 0.0,
			"-0.011": 0.0,
			"-0.01": 0.473823175017,
			"-0.009": 2.43058835637,
			"-0.008": 6.48526678923,
			"-0.007": 14.900396938,
			"-0.006": 14.7877657338,
			"-0.005": 14.241046783,
			"-0.004": 13.3532224402,
			"-0.003": 12.6504466403,
			"-0.002": 12.5569131237,
			"-0.001": 15.6287072332,
			"0.0": 15.990423826,
			"0.001": 22.0008539116,
			"0.002": 14.9156406077,
			"0.003": 8.67644896673,
			"0.004": 9.91980373943,
			"0.005": 13.5303890179,
			"0.006": 9.70945906196,
			"0.007": 6.30647576038,
			"0.008": 11.1088275164,
			"0.009": 5.11810507461,
			"0.01": 3.86241013022,
			"0.011": 1.01563370831,
			"0.012": 0.0,
			"0.013": 0.0,
			"0.014": 0.0,
			"0.015": 0.0,
			"0.016": 0.0,
			"0.017": 0.0,
			"0.018": 0.0,
			"0.019": 0.0,
			"0.02": 0.0,
			"0.021": 0.0,
			"0.022": 0.0,
			"0.023": 0.0,
			"0.024": 0.0,
			"0.025": 0.0
		}
	}
}
