{
	 "smiles": "CCN1CCN(CC(O)=O)C(=O)C1=O", 
	 "Tm": 474.15, 
	 "num_atms": 26, 
	 "gaussian": { 
		 "optdone": 1, 
		 "sigma_profile": "yes", 
		 "theory": "DFT", 
		 "functional": "B3LYP", 
		 "basiset": "6-31G**", 
		 "properties": { 
			 "R2extent": 3761.5365, 
			 "electric_dipole_moment_norm": 6.39813355753, 
			 "electric_quadrupole_moment_norm": 27.5087987649, 
			 "total_energy": -722.512089126, 
			 "HOMO_LUMO_gap": 0.21259, 
			 "cosmo_polarized_energy": -24.21, 
			 "cosmo_cavitation_energy": 29.8, 
			 "cosmo_dispersion_energy": -21.01, 
			 "cosmo_repulsion_energy": 1.67, 
			 "cosmo_total_nonelectrostatic_energy": 10.46, 
			 "SMD_solvation_energy": 7.17 
		},
		"coords": [
			{
				"x": -4.0655457959,
				"y": 0.0954765277,
				"z": -1.1156926747,
				"element": "C" 
			},
			{
				"x": -2.8299321072,
				"y": 0.7956193123,
				"z": -1.6870050916,
				"element": "C" 
			},
			{
				"x": -1.7361066673,
				"y": 0.9026629496,
				"z": -0.7170714642,
				"element": "N" 
			},
			{
				"x": -0.7907858849,
				"y": -0.2024785158,
				"z": -0.5874164685,
				"element": "C" 
			},
			{
				"x": -0.249261454,
				"y": -0.2698916326,
				"z": 0.8308341928,
				"element": "C" 
			},
			{
				"x": 0.3252568723,
				"y": 1.0208520845,
				"z": 1.2008228899,
				"element": "N" 
			},
			{
				"x": 1.4821371274,
				"y": 1.0726977902,
				"z": 2.0647472773,
				"element": "C" 
			},
			{
				"x": 2.738121176,
				"y": 0.5419741164,
				"z": 1.3877825184,
				"element": "C" 
			},
			{
				"x": 3.7991050739,
				"y": 0.6422857058,
				"z": 2.2164444672,
				"element": "O" 
			},
			{
				"x": 2.8030826431,
				"y": 0.0742957089,
				"z": 0.2731188066,
				"element": "O" 
			},
			{
				"x": -0.2647584107,
				"y": 2.2026774775,
				"z": 0.8146140677,
				"element": "C" 
			},
			{
				"x": 0.1555447087,
				"y": 3.3002634992,
				"z": 1.1387784123,
				"element": "O" 
			},
			{
				"x": -1.5338728399,
				"y": 2.0935456897,
				"z": -0.0704491811,
				"element": "C" 
			},
			{
				"x": -2.2762894378,
				"y": 3.0567743692,
				"z": -0.1735881938,
				"element": "O" 
			},
			{
				"x": -3.8350697645,
				"y": -0.9188486676,
				"z": -0.7714755213,
				"element": "H" 
			},
			{
				"x": -4.466128532,
				"y": 0.6633401273,
				"z": -0.2716468934,
				"element": "H" 
			},
			{
				"x": -4.8455697479,
				"y": 0.0197016585,
				"z": -1.8803484345,
				"element": "H" 
			},
			{
				"x": -2.4512524783,
				"y": 0.2583652482,
				"z": -2.5650657596,
				"element": "H" 
			},
			{
				"x": -3.083180954,
				"y": 1.812193999,
				"z": -1.9933336032,
				"element": "H" 
			},
			{
				"x": 0.0449619155,
				"y": -0.0977786914,
				"z": -1.293526117,
				"element": "H" 
			},
			{
				"x": -1.3140308764,
				"y": -1.1354631368,
				"z": -0.8176193571,
				"element": "H" 
			},
			{
				"x": 0.5388898095,
				"y": -1.0239139508,
				"z": 0.8732404671,
				"element": "H" 
			},
			{
				"x": -1.0463380142,
				"y": -0.5582169879,
				"z": 1.5321146752,
				"element": "H" 
			},
			{
				"x": 1.322497062,
				"y": 0.5030958441,
				"z": 2.9902750393,
				"element": "H" 
			},
			{
				"x": 1.6414357427,
				"y": 2.1175889629,
				"z": 2.3441796762,
				"element": "H" 
			},
			{
				"x": 4.565390834,
				"y": 0.2912805117,
				"z": 1.7320862699,
				"element": "H" 
			}
		],
		 "valence_orbital": [ 
			{
				"type": "occ",
				"energy": -0.29688,
				"method": "rhf"
			},
			{
				"type": "occ",
				"energy": -0.27424,
				"method": "rhf"
			},
			{
				"type": "occ",
				"energy": -0.2586,
				"method": "rhf"
			},
			{
				"type": "occ",
				"energy": -0.24583,
				"method": "rhf"
			},
			{
				"type": "occ",
				"energy": -0.24444,
				"method": "rhf"
			},
			{
				"type": "unocc",
				"energy": -0.03185,
				"method": "rhf"
			},
			{
				"type": "unocc",
				"energy": -0.0061,
				"method": "rhf"
			},
			{
				"type": "unocc",
				"energy": 0.06343,
				"method": "rhf"
			},
			{
				"type": "unocc",
				"energy": 0.07053,
				"method": "rhf"
			},
			{
				"type": "unocc",
				"energy": 0.0885,
				"method": "rhf"
			}
		],
		"cosmo_sigma_profile": { 
			"-0.025": 0.0,
			"-0.024": 0.0,
			"-0.023": 0.0,
			"-0.022": 0.0,
			"-0.021": 0.0,
			"-0.02": 0.0,
			"-0.019": 0.312688313364,
			"-0.018": 0.935042352327,
			"-0.017": 0.939695684282,
			"-0.016": 0.946109627076,
			"-0.015": 0.644050108677,
			"-0.014": 0.88777886644,
			"-0.013": 0.574545946422,
			"-0.012": 0.754062163799,
			"-0.011": 0.861646430856,
			"-0.01": 0.600277592743,
			"-0.009": 1.81970872937,
			"-0.008": 4.68380822202,
			"-0.007": 8.66445549828,
			"-0.006": 17.0227823605,
			"-0.005": 22.6353190928,
			"-0.004": 21.4274890623,
			"-0.003": 21.1411531985,
			"-0.002": 17.330076544,
			"-0.001": 13.9446945955,
			"0.0": 15.5730963538,
			"0.001": 9.60406631132,
			"0.002": 5.40709563031,
			"0.003": 5.3079680976,
			"0.004": 4.04569075313,
			"0.005": 5.5847283174,
			"0.006": 4.41005729858,
			"0.007": 5.30484793614,
			"0.008": 4.85349875225,
			"0.009": 4.45413550141,
			"0.01": 5.75960917882,
			"0.011": 6.60692814348,
			"0.012": 7.16058662963,
			"0.013": 7.18367783899,
			"0.014": 2.94947303826,
			"0.015": 1.871342548,
			"0.016": 1.62472029413,
			"0.017": 0.451028219474,
			"0.018": 0.0,
			"0.019": 0.0,
			"0.02": 0.0,
			"0.021": 0.0,
			"0.022": 0.0,
			"0.023": 0.0,
			"0.024": 0.0,
			"0.025": 0.0
		}
	}
}
