{
	 "smiles": "OC(=O)C1=CC(SCC(F)(F)F)=NC=C1", 
	 "Tm": 378.15, 
	 "num_atms": 21, 
	 "gaussian": { 
		 "optdone": 1, 
		 "sigma_profile": "yes", 
		 "theory": "DFT", 
		 "functional": "B3LYP", 
		 "basiset": "6-31G**", 
		 "properties": { 
			 "R2extent": 4261.0877, 
			 "electric_dipole_moment_norm": 2.89166724227, 
			 "electric_quadrupole_moment_norm": 25.1386898682, 
			 "total_energy": -1211.37788633, 
			 "HOMO_LUMO_gap": 0.16809, 
			 "cosmo_polarized_energy": -18.08, 
			 "cosmo_cavitation_energy": 29.04, 
			 "cosmo_dispersion_energy": -20.91, 
			 "cosmo_repulsion_energy": 1.54, 
			 "cosmo_total_nonelectrostatic_energy": 9.66, 
			 "SMD_solvation_energy": 5.58 
		},
		"coords": [
			{
				"x": -2.993852531,
				"y": -0.8120470761,
				"z": 2.4521434988,
				"element": "O" 
			},
			{
				"x": -2.1446843328,
				"y": -0.9198452418,
				"z": 1.4008997442,
				"element": "C" 
			},
			{
				"x": -2.5660395471,
				"y": -0.9428510545,
				"z": 0.270236537,
				"element": "O" 
			},
			{
				"x": -0.6771234427,
				"y": -1.0125620506,
				"z": 1.7259891573,
				"element": "C" 
			},
			{
				"x": 0.2279863154,
				"y": -0.6540848352,
				"z": 0.7251876814,
				"element": "C" 
			},
			{
				"x": 1.5955480063,
				"y": -0.7551421423,
				"z": 1.0049720904,
				"element": "C" 
			},
			{
				"x": 2.9253705388,
				"y": -0.3691220098,
				"z": -0.1230643254,
				"element": "S" 
			},
			{
				"x": 2.1203220148,
				"y": -0.2053449971,
				"z": -1.7526847121,
				"element": "C" 
			},
			{
				"x": 1.6683229012,
				"y": 1.1990692994,
				"z": -2.1171113342,
				"element": "C" 
			},
			{
				"x": 1.1607965413,
				"y": 1.2022177945,
				"z": -3.3683418876,
				"element": "F" 
			},
			{
				"x": 2.686675257,
				"y": 2.0760312868,
				"z": -2.0846590496,
				"element": "F" 
			},
			{
				"x": 0.7059876324,
				"y": 1.6584749623,
				"z": -1.2875542705,
				"element": "F" 
			},
			{
				"x": 2.0711785618,
				"y": -1.1584757178,
				"z": 2.1904937789,
				"element": "N" 
			},
			{
				"x": 1.1957199037,
				"y": -1.4982034625,
				"z": 3.1375879465,
				"element": "C" 
			},
			{
				"x": -0.1876483787,
				"y": -1.454827099,
				"z": 2.9598865148,
				"element": "C" 
			},
			{
				"x": -2.5022600682,
				"y": -0.6540237315,
				"z": 3.2704132166,
				"element": "H" 
			},
			{
				"x": -0.1570385099,
				"y": -0.2877633672,
				"z": -0.2159207901,
				"element": "H" 
			},
			{
				"x": 2.8752152354,
				"y": -0.5039028225,
				"z": -2.4839238738,
				"element": "H" 
			},
			{
				"x": 1.2773053506,
				"y": -0.8929824616,
				"z": -1.8460435758,
				"element": "H" 
			},
			{
				"x": 1.6198991186,
				"y": -1.8306527196,
				"z": 4.0826794058,
				"element": "H" 
			},
			{
				"x": -0.8427805671,
				"y": -1.7933625538,
				"z": 3.7571142475,
				"element": "H" 
			}
		],
		 "valence_orbital": [ 
			{
				"type": "occ",
				"energy": -0.32231,
				"method": "rhf"
			},
			{
				"type": "occ",
				"energy": -0.30795,
				"method": "rhf"
			},
			{
				"type": "occ",
				"energy": -0.29202,
				"method": "rhf"
			},
			{
				"type": "occ",
				"energy": -0.28264,
				"method": "rhf"
			},
			{
				"type": "occ",
				"energy": -0.2459,
				"method": "rhf"
			},
			{
				"type": "unocc",
				"energy": -0.07781,
				"method": "rhf"
			},
			{
				"type": "unocc",
				"energy": -0.04017,
				"method": "rhf"
			},
			{
				"type": "unocc",
				"energy": 0.01756,
				"method": "rhf"
			},
			{
				"type": "unocc",
				"energy": 0.02579,
				"method": "rhf"
			},
			{
				"type": "unocc",
				"energy": 0.05046,
				"method": "rhf"
			}
		],
		"cosmo_sigma_profile": { 
			"-0.025": 0.0,
			"-0.024": 0.0,
			"-0.023": 0.0,
			"-0.022": 0.0,
			"-0.021": 0.0,
			"-0.02": 0.113657452711,
			"-0.019": 0.672111279558,
			"-0.018": 1.03397561142,
			"-0.017": 0.861693772074,
			"-0.016": 1.32320001915,
			"-0.015": 1.00671170692,
			"-0.014": 1.39146592788,
			"-0.013": 0.851004809795,
			"-0.012": 1.59766576275,
			"-0.011": 2.0816957869,
			"-0.01": 5.44255116964,
			"-0.009": 6.4181946196,
			"-0.008": 7.35613778706,
			"-0.007": 8.755817169,
			"-0.006": 9.00047601238,
			"-0.005": 6.68723097319,
			"-0.004": 8.13355348762,
			"-0.003": 7.58441960207,
			"-0.002": 9.5583049633,
			"-0.001": 13.7242800546,
			"0.0": 18.3431344759,
			"0.001": 15.5072246882,
			"0.002": 27.3818400122,
			"0.003": 26.2231162542,
			"0.004": 10.1699779971,
			"0.005": 6.2540083985,
			"0.006": 6.61684079051,
			"0.007": 4.63696971326,
			"0.008": 5.24979946538,
			"0.009": 4.73536248143,
			"0.01": 6.64550216976,
			"0.011": 5.87332338091,
			"0.012": 2.66257366775,
			"0.013": 1.07149780269,
			"0.014": 0.295747144702,
			"0.015": 0.0,
			"0.016": 0.0,
			"0.017": 0.0,
			"0.018": 0.0,
			"0.019": 0.0,
			"0.02": 0.0,
			"0.021": 0.0,
			"0.022": 0.0,
			"0.023": 0.0,
			"0.024": 0.0,
			"0.025": 0.0
		}
	}
}
