{
	 "smiles": "CS(=O)(=O)CCCN=C=S", 
	 "Tm": 320.65, 
	 "num_atms": 19, 
	 "gaussian": { 
		 "optdone": 1, 
		 "sigma_profile": "yes", 
		 "theory": "DFT", 
		 "functional": "B3LYP", 
		 "basiset": "6-31G**", 
		 "properties": { 
			 "R2extent": 3948.9913, 
			 "electric_dipole_moment_norm": 7.10248593663, 
			 "electric_quadrupole_moment_norm": 6.32883009726, 
			 "total_energy": -1197.46374808, 
			 "HOMO_LUMO_gap": 0.23013, 
			 "cosmo_polarized_energy": -19.1, 
			 "cosmo_cavitation_energy": 26.88, 
			 "cosmo_dispersion_energy": -20.25, 
			 "cosmo_repulsion_energy": 1.58, 
			 "cosmo_total_nonelectrostatic_energy": 8.22, 
			 "SMD_solvation_energy": 3.75 
		},
		"coords": [
			{
				"x": -2.4243757075,
				"y": 2.0223694892,
				"z": 1.3769976546,
				"element": "C" 
			},
			{
				"x": -1.9254154961,
				"y": 0.4621029486,
				"z": 0.6131492024,
				"element": "S" 
			},
			{
				"x": -1.8322152428,
				"y": -0.5491045934,
				"z": 1.6817255335,
				"element": "O" 
			},
			{
				"x": -2.784843087,
				"y": 0.2288715232,
				"z": -0.5582444542,
				"element": "O" 
			},
			{
				"x": -0.2396186868,
				"y": 0.8065027177,
				"z": 0.0057172182,
				"element": "C" 
			},
			{
				"x": 0.3108916761,
				"y": -0.3526191982,
				"z": -0.8320771461,
				"element": "C" 
			},
			{
				"x": 0.6435248994,
				"y": -1.6093222377,
				"z": -0.0119257217,
				"element": "C" 
			},
			{
				"x": 1.2815588448,
				"y": -2.5888554683,
				"z": -0.8399189229,
				"element": "N" 
			},
			{
				"x": 1.7380008991,
				"y": -3.6739442644,
				"z": -1.0286321322,
				"element": "C" 
			},
			{
				"x": 2.3780677221,
				"y": -5.0880800907,
				"z": -1.3879072302,
				"element": "S" 
			},
			{
				"x": -2.4542977306,
				"y": 2.8076370968,
				"z": 0.6202838752,
				"element": "H" 
			},
			{
				"x": -3.4243090889,
				"y": 1.8497831006,
				"z": 1.7796041751,
				"element": "H" 
			},
			{
				"x": -1.7337386548,
				"y": 2.2696300462,
				"z": 2.184827426,
				"element": "H" 
			},
			{
				"x": -0.3132123574,
				"y": 1.7131054831,
				"z": -0.6017061453,
				"element": "H" 
			},
			{
				"x": 0.3788323599,
				"y": 1.0144825025,
				"z": 0.8847297029,
				"element": "H" 
			},
			{
				"x": -0.4052591064,
				"y": -0.6037394358,
				"z": -1.6205262555,
				"element": "H" 
			},
			{
				"x": 1.2239374946,
				"y": -0.003387498,
				"z": -1.3259893381,
				"element": "H" 
			},
			{
				"x": -0.2611748549,
				"y": -2.0369541902,
				"z": 0.4312813588,
				"element": "H" 
			},
			{
				"x": 1.3197461171,
				"y": -1.3512779311,
				"z": 0.8140111994,
				"element": "H" 
			}
		],
		 "valence_orbital": [ 
			{
				"type": "occ",
				"energy": -0.32251,
				"method": "rhf"
			},
			{
				"type": "occ",
				"energy": -0.30603,
				"method": "rhf"
			},
			{
				"type": "occ",
				"energy": -0.29813,
				"method": "rhf"
			},
			{
				"type": "occ",
				"energy": -0.24975,
				"method": "rhf"
			},
			{
				"type": "occ",
				"energy": -0.24289,
				"method": "rhf"
			},
			{
				"type": "unocc",
				"energy": -0.01276,
				"method": "rhf"
			},
			{
				"type": "unocc",
				"energy": 0.00924,
				"method": "rhf"
			},
			{
				"type": "unocc",
				"energy": 0.03933,
				"method": "rhf"
			},
			{
				"type": "unocc",
				"energy": 0.06004,
				"method": "rhf"
			},
			{
				"type": "unocc",
				"energy": 0.06942,
				"method": "rhf"
			}
		],
		"cosmo_sigma_profile": { 
			"-0.025": 0.0,
			"-0.024": 0.0,
			"-0.023": 0.0,
			"-0.022": 0.0,
			"-0.021": 0.0,
			"-0.02": 0.0,
			"-0.019": 0.0,
			"-0.018": 0.0,
			"-0.017": 0.0,
			"-0.016": 0.0,
			"-0.015": 0.0,
			"-0.014": 0.0,
			"-0.013": 0.0,
			"-0.012": 0.0128080712492,
			"-0.011": 0.92158660163,
			"-0.01": 2.61030478585,
			"-0.009": 7.01291967824,
			"-0.008": 12.0088682119,
			"-0.007": 11.9024974794,
			"-0.006": 16.990650841,
			"-0.005": 15.6147999778,
			"-0.004": 16.6105258267,
			"-0.003": 10.9148796418,
			"-0.002": 8.22498049883,
			"-0.001": 6.20158277246,
			"0.0": 8.29419151186,
			"0.001": 12.8745956701,
			"0.002": 10.4706998186,
			"0.003": 9.11291905728,
			"0.004": 8.44887908326,
			"0.005": 9.45535039031,
			"0.006": 14.3490038041,
			"0.007": 5.85700488725,
			"0.008": 2.08703382986,
			"0.009": 3.52527729716,
			"0.01": 3.39683684251,
			"0.011": 8.09543275756,
			"0.012": 9.18166246225,
			"0.013": 2.16229397593,
			"0.014": 0.0,
			"0.015": 0.0,
			"0.016": 0.0,
			"0.017": 0.0,
			"0.018": 0.0,
			"0.019": 0.0,
			"0.02": 0.0,
			"0.021": 0.0,
			"0.022": 0.0,
			"0.023": 0.0,
			"0.024": 0.0,
			"0.025": 0.0
		}
	}
}
