{
	 "smiles": "OC(=O)C1(CCC1)C1=CC=C(Cl)C=C1", 
	 "Tm": 358.15, 
	 "num_atms": 25, 
	 "gaussian": { 
		 "optdone": 1, 
		 "sigma_profile": "yes", 
		 "theory": "DFT", 
		 "functional": "B3LYP", 
		 "basiset": "6-31G**", 
		 "properties": { 
			 "R2extent": 4247.3024, 
			 "electric_dipole_moment_norm": 3.22706360334, 
			 "electric_quadrupole_moment_norm": 15.5198040716, 
			 "total_energy": -1036.42494484, 
			 "HOMO_LUMO_gap": 0.21438, 
			 "cosmo_polarized_energy": -12.31, 
			 "cosmo_cavitation_energy": 29.54, 
			 "cosmo_dispersion_energy": -21.36, 
			 "cosmo_repulsion_energy": 1.68, 
			 "cosmo_total_nonelectrostatic_energy": 9.87, 
			 "SMD_solvation_energy": 5.58 
		},
		"coords": [
			{
				"x": -2.0529486777,
				"y": 1.4737575174,
				"z": -1.1120303134,
				"element": "O" 
			},
			{
				"x": -0.7490663495,
				"y": 1.3624819978,
				"z": -1.4522456953,
				"element": "C" 
			},
			{
				"x": -0.1890745406,
				"y": 2.271513131,
				"z": -2.0178001744,
				"element": "O" 
			},
			{
				"x": -0.0473515304,
				"y": 0.0211306258,
				"z": -1.1485947237,
				"element": "C" 
			},
			{
				"x": 1.495764373,
				"y": 0.1698409168,
				"z": -0.9237477303,
				"element": "C" 
			},
			{
				"x": 1.7481749599,
				"y": -0.9667608247,
				"z": -1.9412311606,
				"element": "C" 
			},
			{
				"x": 0.3098206756,
				"y": -0.7633990977,
				"z": -2.4702672181,
				"element": "C" 
			},
			{
				"x": -0.7728405931,
				"y": -0.7931349508,
				"z": -0.0845829281,
				"element": "C" 
			},
			{
				"x": -1.7583480102,
				"y": -1.736880408,
				"z": -0.4181334148,
				"element": "C" 
			},
			{
				"x": -2.459244404,
				"y": -2.4405996641,
				"z": 0.5638474232,
				"element": "C" 
			},
			{
				"x": -2.1776960182,
				"y": -2.1974797191,
				"z": 1.9059789787,
				"element": "C" 
			},
			{
				"x": -3.0453189092,
				"y": -3.0807548316,
				"z": 3.1495618763,
				"element": "Cl" 
			},
			{
				"x": -1.215701316,
				"y": -1.2556380839,
				"z": 2.273062833,
				"element": "C" 
			},
			{
				"x": -0.5275892845,
				"y": -0.5621780475,
				"z": 1.2801027851,
				"element": "C" 
			},
			{
				"x": -2.3352099927,
				"y": 0.6760192556,
				"z": -0.6366813972,
				"element": "H" 
			},
			{
				"x": 1.8229880783,
				"y": 1.1405684375,
				"z": -1.299976555,
				"element": "H" 
			},
			{
				"x": 1.8656371423,
				"y": 0.0279609816,
				"z": 0.0943457739,
				"element": "H" 
			},
			{
				"x": 2.5649038542,
				"y": -0.8282371584,
				"z": -2.6539471719,
				"element": "H" 
			},
			{
				"x": 1.8688062847,
				"y": -1.9381215139,
				"z": -1.4526842191,
				"element": "H" 
			},
			{
				"x": 0.2829875087,
				"y": -0.0858685293,
				"z": -3.326526845,
				"element": "H" 
			},
			{
				"x": -0.2785594778,
				"y": -1.6542949382,
				"z": -2.7011534918,
				"element": "H" 
			},
			{
				"x": -1.9868494946,
				"y": -1.9374534007,
				"z": -1.4603084006,
				"element": "H" 
			},
			{
				"x": -3.211771885,
				"y": -3.1711809818,
				"z": 0.2884006473,
				"element": "H" 
			},
			{
				"x": -1.0110079823,
				"y": -1.0682096372,
				"z": 3.3213630849,
				"element": "H" 
			},
			{
				"x": 0.2124955891,
				"y": 0.1748189236,
				"z": 1.5763480367,
				"element": "H" 
			}
		],
		 "valence_orbital": [ 
			{
				"type": "occ",
				"energy": -0.31799,
				"method": "rhf"
			},
			{
				"type": "occ",
				"energy": -0.30995,
				"method": "rhf"
			},
			{
				"type": "occ",
				"energy": -0.28194,
				"method": "rhf"
			},
			{
				"type": "occ",
				"energy": -0.28029,
				"method": "rhf"
			},
			{
				"type": "occ",
				"energy": -0.2501,
				"method": "rhf"
			},
			{
				"type": "unocc",
				"energy": -0.03572,
				"method": "rhf"
			},
			{
				"type": "unocc",
				"energy": -0.03509,
				"method": "rhf"
			},
			{
				"type": "unocc",
				"energy": 0.00594,
				"method": "rhf"
			},
			{
				"type": "unocc",
				"energy": 0.01762,
				"method": "rhf"
			},
			{
				"type": "unocc",
				"energy": 0.08463,
				"method": "rhf"
			}
		],
		"cosmo_sigma_profile": { 
			"-0.025": 0.0,
			"-0.024": 0.0,
			"-0.023": 0.0,
			"-0.022": 0.0,
			"-0.021": 0.0,
			"-0.02": 0.0,
			"-0.019": 0.0,
			"-0.018": 0.0,
			"-0.017": 0.0,
			"-0.016": 0.0,
			"-0.015": 0.0,
			"-0.014": 0.162412750036,
			"-0.013": 0.638000834449,
			"-0.012": 0.438640602664,
			"-0.011": 0.944814041254,
			"-0.01": 1.02050823846,
			"-0.009": 1.71134651016,
			"-0.008": 2.95106105475,
			"-0.007": 9.81609961267,
			"-0.006": 13.1157371866,
			"-0.005": 10.9727861278,
			"-0.004": 12.9088941449,
			"-0.003": 18.4462401715,
			"-0.002": 21.0629354777,
			"-0.001": 23.2924584596,
			"0.0": 22.2943793394,
			"0.001": 20.5358700069,
			"0.002": 15.645705314,
			"0.003": 14.3598036416,
			"0.004": 12.585847348,
			"0.005": 7.63008437102,
			"0.006": 2.27393873558,
			"0.007": 1.79505052216,
			"0.008": 3.12639583699,
			"0.009": 3.10766576986,
			"0.01": 4.47708612377,
			"0.011": 4.28083556184,
			"0.012": 5.1640568408,
			"0.013": 2.04130587191,
			"0.014": 0.214498894554,
			"0.015": 0.0,
			"0.016": 0.0,
			"0.017": 0.0,
			"0.018": 0.0,
			"0.019": 0.0,
			"0.02": 0.0,
			"0.021": 0.0,
			"0.022": 0.0,
			"0.023": 0.0,
			"0.024": 0.0,
			"0.025": 0.0
		}
	}
}
