{
	 "smiles": "CC(C)(C)OC(=O)N1CCC[C@H]1CO", 
	 "Tm": 334.15, 
	 "num_atms": 33, 
	 "gaussian": { 
		 "optdone": 1, 
		 "sigma_profile": "yes", 
		 "theory": "DFT", 
		 "functional": "B3LYP", 
		 "basiset": "6-31G**", 
		 "properties": { 
			 "R2extent": 3561.683, 
			 "electric_dipole_moment_norm": 3.12665551828, 
			 "electric_quadrupole_moment_norm": 6.74238105642, 
			 "total_energy": -672.968678545, 
			 "HOMO_LUMO_gap": 0.28624, 
			 "cosmo_polarized_energy": -11.6, 
			 "cosmo_cavitation_energy": 33.31, 
			 "cosmo_dispersion_energy": -23.09, 
			 "cosmo_repulsion_energy": 1.86, 
			 "cosmo_total_nonelectrostatic_energy": 12.07, 
			 "SMD_solvation_energy": 6.27 
		},
		"coords": [
			{
				"x": 1.5730195441,
				"y": 2.6365788013,
				"z": -1.01322486,
				"element": "C" 
			},
			{
				"x": 0.767489498,
				"y": 1.9306662455,
				"z": 0.083765122,
				"element": "C" 
			},
			{
				"x": 1.6465496891,
				"y": 1.5088048225,
				"z": 1.266630046,
				"element": "C" 
			},
			{
				"x": -0.388113335,
				"y": 2.8170697252,
				"z": 0.5575772059,
				"element": "C" 
			},
			{
				"x": 0.0704254186,
				"y": 0.763215368,
				"z": -0.4711946794,
				"element": "O" 
			},
			{
				"x": 0.7731225404,
				"y": -0.2725158891,
				"z": -1.0139399364,
				"element": "C" 
			},
			{
				"x": 1.9933654208,
				"y": -0.342051722,
				"z": -1.0813786444,
				"element": "O" 
			},
			{
				"x": -0.0742097602,
				"y": -1.2322801072,
				"z": -1.4805300693,
				"element": "N" 
			},
			{
				"x": 0.4351709697,
				"y": -2.3667125454,
				"z": -2.2540368933,
				"element": "C" 
			},
			{
				"x": -0.6474282403,
				"y": -2.5527029844,
				"z": -3.3239814451,
				"element": "C" 
			},
			{
				"x": -1.9447921971,
				"y": -2.2202436751,
				"z": -2.5661096734,
				"element": "C" 
			},
			{
				"x": -1.5439711306,
				"y": -1.1345326611,
				"z": -1.5320160361,
				"element": "C" 
			},
			{
				"x": -2.2025354401,
				"y": -1.3482896078,
				"z": -0.1669391706,
				"element": "C" 
			},
			{
				"x": -1.9181109521,
				"y": -2.6689476139,
				"z": 0.2775819972,
				"element": "O" 
			},
			{
				"x": 0.9230921828,
				"y": 2.8898175374,
				"z": -1.8571721234,
				"element": "H" 
			},
			{
				"x": 1.9955652375,
				"y": 3.5668826843,
				"z": -0.6193999514,
				"element": "H" 
			},
			{
				"x": 2.3838872219,
				"y": 2.001089332,
				"z": -1.3689787417,
				"element": "H" 
			},
			{
				"x": 2.4560103034,
				"y": 0.8582741614,
				"z": 0.9357320353,
				"element": "H" 
			},
			{
				"x": 2.0744893571,
				"y": 2.3969996714,
				"z": 1.743233106,
				"element": "H" 
			},
			{
				"x": 1.0477219624,
				"y": 0.978125454,
				"z": 2.0140172072,
				"element": "H" 
			},
			{
				"x": -0.9845547296,
				"y": 2.3034649054,
				"z": 1.3177288759,
				"element": "H" 
			},
			{
				"x": -1.0441286166,
				"y": 3.0766275381,
				"z": -0.2786151099,
				"element": "H" 
			},
			{
				"x": 0.0010522634,
				"y": 3.742631993,
				"z": 0.9923234008,
				"element": "H" 
			},
			{
				"x": 1.424631615,
				"y": -2.1276925839,
				"z": -2.6461705428,
				"element": "H" 
			},
			{
				"x": 0.519267543,
				"y": -3.2565832955,
				"z": -1.616561495,
				"element": "H" 
			},
			{
				"x": -0.6518763146,
				"y": -3.5596817302,
				"z": -3.7509196785,
				"element": "H" 
			},
			{
				"x": -0.483508068,
				"y": -1.8401252863,
				"z": -4.1405826205,
				"element": "H" 
			},
			{
				"x": -2.3024466936,
				"y": -3.1047190132,
				"z": -2.0322158249,
				"element": "H" 
			},
			{
				"x": -2.7471678992,
				"y": -1.871796557,
				"z": -3.2223442106,
				"element": "H" 
			},
			{
				"x": -1.8247478781,
				"y": -0.1318866269,
				"z": -1.8753013834,
				"element": "H" 
			},
			{
				"x": -1.8180747634,
				"y": -0.5957592568,
				"z": 0.5322865757,
				"element": "H" 
			},
			{
				"x": -3.2883721371,
				"y": -1.1864442108,
				"z": -0.2784654323,
				"element": "H" 
			},
			{
				"x": -2.1906226116,
				"y": -2.7425828729,
				"z": 1.1994029502,
				"element": "H" 
			}
		],
		 "valence_orbital": [ 
			{
				"type": "occ",
				"energy": -0.32275,
				"method": "rhf"
			},
			{
				"type": "occ",
				"energy": -0.27983,
				"method": "rhf"
			},
			{
				"type": "occ",
				"energy": -0.26782,
				"method": "rhf"
			},
			{
				"type": "occ",
				"energy": -0.25016,
				"method": "rhf"
			},
			{
				"type": "occ",
				"energy": -0.22718,
				"method": "rhf"
			},
			{
				"type": "unocc",
				"energy": 0.05906,
				"method": "rhf"
			},
			{
				"type": "unocc",
				"energy": 0.07083,
				"method": "rhf"
			},
			{
				"type": "unocc",
				"energy": 0.08733,
				"method": "rhf"
			},
			{
				"type": "unocc",
				"energy": 0.10172,
				"method": "rhf"
			},
			{
				"type": "unocc",
				"energy": 0.10677,
				"method": "rhf"
			}
		],
		"cosmo_sigma_profile": { 
			"-0.025": 0.0,
			"-0.024": 0.0,
			"-0.023": 0.0,
			"-0.022": 0.0,
			"-0.021": 0.0,
			"-0.02": 0.0,
			"-0.019": 0.0,
			"-0.018": 0.0,
			"-0.017": 0.0,
			"-0.016": 0.579911084908,
			"-0.015": 1.01839655048,
			"-0.014": 0.963592882516,
			"-0.013": 1.07656395988,
			"-0.012": 0.703235253552,
			"-0.011": 0.51719259762,
			"-0.01": 0.953538520861,
			"-0.009": 0.89361186114,
			"-0.008": 0.898537325978,
			"-0.007": 0.98862466042,
			"-0.006": 1.25703843977,
			"-0.005": 1.06797365676,
			"-0.004": 19.2866604939,
			"-0.003": 36.8805441524,
			"-0.002": 36.8490281245,
			"-0.001": 32.6325535308,
			"0.0": 34.7234610906,
			"0.001": 26.9274862805,
			"0.002": 10.9937118998,
			"0.003": 7.16476863368,
			"0.004": 5.11657129932,
			"0.005": 6.56974803435,
			"0.006": 4.12011869481,
			"0.007": 3.44569161927,
			"0.008": 3.87512386659,
			"0.009": 2.57603864564,
			"0.01": 3.70698321678,
			"0.011": 3.62068990206,
			"0.012": 3.11962865146,
			"0.013": 2.17420543286,
			"0.014": 2.82652015925,
			"0.015": 0.0414763904608,
			"0.016": 0.0,
			"0.017": 0.0,
			"0.018": 0.0,
			"0.019": 0.0,
			"0.02": 0.0,
			"0.021": 0.0,
			"0.022": 0.0,
			"0.023": 0.0,
			"0.024": 0.0,
			"0.025": 0.0
		}
	}
}
