{
	 "smiles": "COC1=CC=C(C=C1)C1=C(C(=NO1)C(=O)C1=CC=C(C=C1)[N+]([O-])=O)S(=O)(=O)C1=CC=CC=C1", 
	 "Tm": 401.15, 
	 "num_atms": 49, 
	 "gaussian": { 
		 "optdone": 1, 
		 "sigma_profile": "yes", 
		 "theory": "DFT", 
		 "functional": "B3LYP", 
		 "basiset": "6-31G**", 
		 "properties": { 
			 "R2extent": 18183.0393, 
			 "electric_dipole_moment_norm": 8.92325871025, 
			 "electric_quadrupole_moment_norm": 19.5380319935, 
			 "total_energy": -1920.1019983, 
			 "HOMO_LUMO_gap": 0.12864, 
			 "cosmo_polarized_energy": -24.29, 
			 "cosmo_cavitation_energy": 57.06, 
			 "cosmo_dispersion_energy": -37.7, 
			 "cosmo_repulsion_energy": 2.77, 
			 "cosmo_total_nonelectrostatic_energy": 22.13, 
			 "SMD_solvation_energy": 12.16 
		},
		"coords": [
			{
				"x": -1.3705159184,
				"y": 6.4426542366,
				"z": -3.170987683,
				"element": "C" 
			},
			{
				"x": -2.1479461999,
				"y": 5.2598351597,
				"z": -3.3177261805,
				"element": "O" 
			},
			{
				"x": -1.6387205983,
				"y": 4.0867470392,
				"z": -2.8673973265,
				"element": "C" 
			},
			{
				"x": -0.3895083994,
				"y": 3.9438720189,
				"z": -2.2471824257,
				"element": "C" 
			},
			{
				"x": 0.0350985511,
				"y": 2.6871786717,
				"z": -1.8199322796,
				"element": "C" 
			},
			{
				"x": -0.7760970076,
				"y": 1.5558471437,
				"z": -1.9993125665,
				"element": "C" 
			},
			{
				"x": -2.0253219202,
				"y": 1.7103087143,
				"z": -2.6387508883,
				"element": "C" 
			},
			{
				"x": -2.4528741447,
				"y": 2.9560864035,
				"z": -3.0604620833,
				"element": "C" 
			},
			{
				"x": -0.3378701157,
				"y": 0.2237505882,
				"z": -1.5964921724,
				"element": "C" 
			},
			{
				"x": 0.462357921,
				"y": -0.3119764319,
				"z": -0.6019192986,
				"element": "C" 
			},
			{
				"x": 0.4385206387,
				"y": -1.7210288895,
				"z": -0.8465276548,
				"element": "C" 
			},
			{
				"x": -0.3211578602,
				"y": -2.0223211788,
				"z": -1.8703146139,
				"element": "N" 
			},
			{
				"x": -0.8098617911,
				"y": -0.7972926052,
				"z": -2.3438265874,
				"element": "O" 
			},
			{
				"x": 1.240887364,
				"y": -2.828469722,
				"z": -0.182219548,
				"element": "C" 
			},
			{
				"x": 2.3775460906,
				"y": -3.0288789115,
				"z": -0.5589809114,
				"element": "O" 
			},
			{
				"x": 0.5876847221,
				"y": -3.6548480712,
				"z": 0.8765501448,
				"element": "C" 
			},
			{
				"x": -0.7837575041,
				"y": -3.5608536212,
				"z": 1.1554127997,
				"element": "C" 
			},
			{
				"x": -1.3547675347,
				"y": -4.3586367987,
				"z": 2.1440394262,
				"element": "C" 
			},
			{
				"x": -0.5337141005,
				"y": -5.2395617157,
				"z": 2.8435937757,
				"element": "C" 
			},
			{
				"x": 0.8325213893,
				"y": -5.3561815473,
				"z": 2.5842416824,
				"element": "C" 
			},
			{
				"x": 1.3886298505,
				"y": -4.5590440668,
				"z": 1.592123459,
				"element": "C" 
			},
			{
				"x": -1.1327838401,
				"y": -6.0799775894,
				"z": 3.8982809683,
				"element": "N" 
			},
			{
				"x": -2.3347067124,
				"y": -5.9418433395,
				"z": 4.1209212981,
				"element": "O" 
			},
			{
				"x": -0.3926785125,
				"y": -6.8637298295,
				"z": 4.4890561835,
				"element": "O" 
			},
			{
				"x": 1.2387406065,
				"y": 0.4339117146,
				"z": 0.8163469868,
				"element": "S" 
			},
			{
				"x": 2.0018350543,
				"y": 1.6175805305,
				"z": 0.3935349798,
				"element": "O" 
			},
			{
				"x": 1.8891767798,
				"y": -0.681984706,
				"z": 1.5203273872,
				"element": "O" 
			},
			{
				"x": -0.1294720466,
				"y": 0.9961275196,
				"z": 1.8412521825,
				"element": "C" 
			},
			{
				"x": -0.5491158088,
				"y": 2.3255192659,
				"z": 1.7660212366,
				"element": "C" 
			},
			{
				"x": -1.6051614666,
				"y": 2.7449773137,
				"z": 2.5763768737,
				"element": "C" 
			},
			{
				"x": -2.2217007666,
				"y": 1.8448570423,
				"z": 3.4477743089,
				"element": "C" 
			},
			{
				"x": -1.7823574858,
				"y": 0.5200806905,
				"z": 3.5215129576,
				"element": "C" 
			},
			{
				"x": -0.7288521906,
				"y": 0.0870235341,
				"z": 2.717635452,
				"element": "C" 
			},
			{
				"x": -1.9688758835,
				"y": 7.2477618651,
				"z": -3.5985486099,
				"element": "H" 
			},
			{
				"x": -1.1683601591,
				"y": 6.6622517404,
				"z": -2.1155607114,
				"element": "H" 
			},
			{
				"x": -0.4207949485,
				"y": 6.3686708414,
				"z": -3.7142496916,
				"element": "H" 
			},
			{
				"x": 0.2643924147,
				"y": 4.7957687753,
				"z": -2.1058699291,
				"element": "H" 
			},
			{
				"x": 1.011466032,
				"y": 2.5824144151,
				"z": -1.3607998388,
				"element": "H" 
			},
			{
				"x": -2.6571716018,
				"y": 0.8428338918,
				"z": -2.7953829842,
				"element": "H" 
			},
			{
				"x": -3.4142465145,
				"y": 3.0872067174,
				"z": -3.5453033728,
				"element": "H" 
			},
			{
				"x": -1.4084667026,
				"y": -2.8790682297,
				"z": 0.5889677236,
				"element": "H" 
			},
			{
				"x": -2.4109518632,
				"y": -4.3143793986,
				"z": 2.3773673834,
				"element": "H" 
			},
			{
				"x": 1.4261577898,
				"y": -6.0574241625,
				"z": 3.1569437021,
				"element": "H" 
			},
			{
				"x": 2.4453100985,
				"y": -4.6145518723,
				"z": 1.3555797584,
				"element": "H" 
			},
			{
				"x": -0.0466465004,
				"y": 3.0155382548,
				"z": 1.0987926918,
				"element": "H" 
			},
			{
				"x": -1.9401998972,
				"y": 3.7766729437,
				"z": 2.531196154,
				"element": "H" 
			},
			{
				"x": -3.0409838016,
				"y": 2.1777991389,
				"z": 4.078067155,
				"element": "H" 
			},
			{
				"x": -2.2536870865,
				"y": -0.1733575607,
				"z": 4.2112478579,
				"element": "H" 
			},
			{
				"x": -0.3601984195,
				"y": -0.9310659231,
				"z": 2.7783828282,
				"element": "H" 
			}
		],
		 "valence_orbital": [ 
			{
				"type": "occ",
				"energy": -0.28136,
				"method": "rhf"
			},
			{
				"type": "occ",
				"energy": -0.2803,
				"method": "rhf"
			},
			{
				"type": "occ",
				"energy": -0.27744,
				"method": "rhf"
			},
			{
				"type": "occ",
				"energy": -0.27619,
				"method": "rhf"
			},
			{
				"type": "occ",
				"energy": -0.23845,
				"method": "rhf"
			},
			{
				"type": "unocc",
				"energy": -0.10981,
				"method": "rhf"
			},
			{
				"type": "unocc",
				"energy": -0.06916,
				"method": "rhf"
			},
			{
				"type": "unocc",
				"energy": -0.05585,
				"method": "rhf"
			},
			{
				"type": "unocc",
				"energy": -0.04968,
				"method": "rhf"
			},
			{
				"type": "unocc",
				"energy": -0.03734,
				"method": "rhf"
			}
		],
		"cosmo_sigma_profile": { 
			"-0.025": 0.0,
			"-0.024": 0.0,
			"-0.023": 0.0,
			"-0.022": 0.0,
			"-0.021": 0.0,
			"-0.02": 0.0,
			"-0.019": 0.0,
			"-0.018": 0.0,
			"-0.017": 0.0,
			"-0.016": 0.0,
			"-0.015": 0.0,
			"-0.014": 0.0,
			"-0.013": 0.0,
			"-0.012": 0.0,
			"-0.011": 0.0,
			"-0.01": 0.0,
			"-0.009": 1.12045170017,
			"-0.008": 6.89985313132,
			"-0.007": 21.647921882,
			"-0.006": 33.322217862,
			"-0.005": 32.5447981021,
			"-0.004": 32.5054358892,
			"-0.003": 36.4462432691,
			"-0.002": 34.8133694398,
			"-0.001": 33.3033801907,
			"0.0": 33.0120419576,
			"0.001": 29.8335997343,
			"0.002": 34.7844397821,
			"0.003": 28.3420226181,
			"0.004": 13.0783159505,
			"0.005": 12.1584369927,
			"0.006": 12.545222425,
			"0.007": 18.9761645483,
			"0.008": 13.7807406714,
			"0.009": 13.3046611272,
			"0.01": 10.835260546,
			"0.011": 6.34969601318,
			"0.012": 0.842033228076,
			"0.013": 0.0115118891811,
			"0.014": 0.0,
			"0.015": 0.0,
			"0.016": 0.0,
			"0.017": 0.0,
			"0.018": 0.0,
			"0.019": 0.0,
			"0.02": 0.0,
			"0.021": 0.0,
			"0.022": 0.0,
			"0.023": 0.0,
			"0.024": 0.0,
			"0.025": 0.0
		}
	}
}
