{
	 "smiles": "OC(=O)CSCC(=O)NC1=CC(Br)=CC=C1", 
	 "Tm": 337.15, 
	 "num_atms": 26, 
	 "gaussian": { 
		 "optdone": 1, 
		 "sigma_profile": "yes", 
		 "theory": "DFT", 
		 "functional": "B3LYP", 
		 "basiset": "6-31G**", 
		 "properties": { 
			 "R2extent": 10685.6204, 
			 "electric_dipole_moment_norm": 3.22098984475, 
			 "electric_quadrupole_moment_norm": 9.72774615006, 
			 "total_energy": -3637.12429883, 
			 "HOMO_LUMO_gap": 0.20428, 
			 "cosmo_polarized_energy": -19.33, 
			 "cosmo_cavitation_energy": 35.23, 
			 "cosmo_dispersion_energy": -25.55, 
			 "cosmo_repulsion_energy": 1.99, 
			 "cosmo_total_nonelectrostatic_energy": 11.66, 
			 "SMD_solvation_energy": 6.28 
		},
		"coords": [
			{
				"x": 2.0353210105,
				"y": 1.4376160006,
				"z": -3.6140752483,
				"element": "O" 
			},
			{
				"x": 2.0468163979,
				"y": 0.9875928219,
				"z": -2.3422387089,
				"element": "C" 
			},
			{
				"x": 2.4915672244,
				"y": 1.6275428159,
				"z": -1.4127383658,
				"element": "O" 
			},
			{
				"x": 1.4117413529,
				"y": -0.3796975307,
				"z": -2.216518848,
				"element": "C" 
			},
			{
				"x": -0.3440091613,
				"y": -0.2390052301,
				"z": -1.6878025443,
				"element": "S" 
			},
			{
				"x": -0.0931693746,
				"y": 0.348175096,
				"z": 0.0424362464,
				"element": "C" 
			},
			{
				"x": -1.4488959499,
				"y": 0.5955189176,
				"z": 0.6924656595,
				"element": "C" 
			},
			{
				"x": -2.1120283709,
				"y": 1.5846921015,
				"z": 0.4252825789,
				"element": "O" 
			},
			{
				"x": -1.9033768612,
				"y": -0.3036070166,
				"z": 1.6416893912,
				"element": "N" 
			},
			{
				"x": -1.3821002163,
				"y": -1.5302758643,
				"z": 2.1124526235,
				"element": "C" 
			},
			{
				"x": -1.4728831825,
				"y": -1.7984993407,
				"z": 3.4872444841,
				"element": "C" 
			},
			{
				"x": -1.0112088172,
				"y": -3.0147923362,
				"z": 3.9791329902,
				"element": "C" 
			},
			{
				"x": -1.1486280186,
				"y": -3.3683660088,
				"z": 5.8520572956,
				"element": "Br" 
			},
			{
				"x": -0.4407836227,
				"y": -3.9725817911,
				"z": 3.1420093579,
				"element": "C" 
			},
			{
				"x": -0.3573790046,
				"y": -3.6944438251,
				"z": 1.7775697638,
				"element": "C" 
			},
			{
				"x": -0.8368475985,
				"y": -2.4945210566,
				"z": 1.2527390796,
				"element": "C" 
			},
			{
				"x": 2.4068093993,
				"y": 2.3360901706,
				"z": -3.5926996325,
				"element": "H" 
			},
			{
				"x": 1.9743787638,
				"y": -0.9724984119,
				"z": -1.491746942,
				"element": "H" 
			},
			{
				"x": 1.389801305,
				"y": -0.8925395754,
				"z": -3.179539554,
				"element": "H" 
			},
			{
				"x": 0.4268411809,
				"y": 1.3067749173,
				"z": 0.0118557834,
				"element": "H" 
			},
			{
				"x": 0.5107486635,
				"y": -0.3796006366,
				"z": 0.5879442792,
				"element": "H" 
			},
			{
				"x": -2.7351651564,
				"y": 0.0439759599,
				"z": 2.1045710107,
				"element": "H" 
			},
			{
				"x": -1.8898990047,
				"y": -1.0576972534,
				"z": 4.1605030624,
				"element": "H" 
			},
			{
				"x": -0.0815602163,
				"y": -4.9115282173,
				"z": 3.545885228,
				"element": "H" 
			},
			{
				"x": 0.0661441947,
				"y": -4.4370027177,
				"z": 1.1078536226,
				"element": "H" 
			},
			{
				"x": -0.814334937,
				"y": -2.3172219889,
				"z": 0.182667387,
				"element": "H" 
			}
		],
		 "valence_orbital": [ 
			{
				"type": "occ",
				"energy": -0.29295,
				"method": "rhf"
			},
			{
				"type": "occ",
				"energy": -0.26539,
				"method": "rhf"
			},
			{
				"type": "occ",
				"energy": -0.25869,
				"method": "rhf"
			},
			{
				"type": "occ",
				"energy": -0.24365,
				"method": "rhf"
			},
			{
				"type": "occ",
				"energy": -0.23966,
				"method": "rhf"
			},
			{
				"type": "unocc",
				"energy": -0.03538,
				"method": "rhf"
			},
			{
				"type": "unocc",
				"energy": -0.02728,
				"method": "rhf"
			},
			{
				"type": "unocc",
				"energy": -0.02202,
				"method": "rhf"
			},
			{
				"type": "unocc",
				"energy": -0.00255,
				"method": "rhf"
			},
			{
				"type": "unocc",
				"energy": 0.00293,
				"method": "rhf"
			}
		],
		"cosmo_sigma_profile": { 
			"-0.025": 0.0,
			"-0.024": 0.0,
			"-0.023": 0.0,
			"-0.022": 0.0,
			"-0.021": 0.0,
			"-0.02": 0.0,
			"-0.019": 0.236609379606,
			"-0.018": 1.14581226275,
			"-0.017": 0.654003785637,
			"-0.016": 1.00123905389,
			"-0.015": 1.54620767189,
			"-0.014": 1.73717558369,
			"-0.013": 1.3043511243,
			"-0.012": 1.94570505024,
			"-0.011": 2.31796434148,
			"-0.01": 1.40020963285,
			"-0.009": 3.30843918249,
			"-0.008": 6.89895975751,
			"-0.007": 11.7347842364,
			"-0.006": 13.5726467357,
			"-0.005": 17.1959270514,
			"-0.004": 16.8013119469,
			"-0.003": 15.8424337119,
			"-0.002": 16.9209069857,
			"-0.001": 15.7875557935,
			"0.0": 15.6585631877,
			"0.001": 19.5004386217,
			"0.002": 23.4180057717,
			"0.003": 23.5758420063,
			"0.004": 20.7712728563,
			"0.005": 9.70994140703,
			"0.006": 4.4793356512,
			"0.007": 5.67754572212,
			"0.008": 5.67604829011,
			"0.009": 5.23271505408,
			"0.01": 3.10681808279,
			"0.011": 6.8730663346,
			"0.012": 5.17269105942,
			"0.013": 4.88982865371,
			"0.014": 0.912111579301,
			"0.015": 0.0,
			"0.016": 0.0,
			"0.017": 0.0,
			"0.018": 0.0,
			"0.019": 0.0,
			"0.02": 0.0,
			"0.021": 0.0,
			"0.022": 0.0,
			"0.023": 0.0,
			"0.024": 0.0,
			"0.025": 0.0
		}
	}
}
