{
	 "smiles": "CC1CC2C3CCC(OC(C)=O)(C(C)=O)C3(C)CC(O)C2(F)C2(C)C=CC(=O)C=C12", 
	 "Tm": 571.15, 
	 "num_atms": 61, 
	 "gaussian": { 
		 "optdone": 1, 
		 "sigma_profile": "yes", 
		 "theory": "DFT", 
		 "functional": "B3LYP", 
		 "basiset": "6-31G**", 
		 "properties": { 
			 "R2extent": 12911.0477, 
			 "electric_dipole_moment_norm": 4.11611282037, 
			 "electric_quadrupole_moment_norm": 39.2157271153, 
			 "total_energy": -1409.17482476, 
			 "HOMO_LUMO_gap": 0.17559, 
			 "cosmo_polarized_energy": -24.33, 
			 "cosmo_cavitation_energy": 54.03, 
			 "cosmo_dispersion_energy": -36.27, 
			 "cosmo_repulsion_energy": 2.63, 
			 "cosmo_total_nonelectrostatic_energy": 20.39, 
			 "SMD_solvation_energy": 10.92 
		},
		"coords": [
			{
				"x": -1.9899035214,
				"y": -2.7096232597,
				"z": 1.9411482241,
				"element": "C" 
			},
			{
				"x": -0.6740012698,
				"y": -2.071489662,
				"z": 2.4359923839,
				"element": "C" 
			},
			{
				"x": -0.6072514256,
				"y": -0.5619845007,
				"z": 2.0638052893,
				"element": "C" 
			},
			{
				"x": 0.3572920878,
				"y": -0.200522841,
				"z": 0.904482833,
				"element": "C" 
			},
			{
				"x": -0.0582355144,
				"y": 1.1713431676,
				"z": 0.2942168278,
				"element": "C" 
			},
			{
				"x": -1.5501873209,
				"y": 1.2981502784,
				"z": -0.1539589624,
				"element": "C" 
			},
			{
				"x": -1.5553073714,
				"y": 2.1095491442,
				"z": -1.4708945759,
				"element": "C" 
			},
			{
				"x": -0.1497091507,
				"y": 2.7198341139,
				"z": -1.5874686896,
				"element": "C" 
			},
			{
				"x": -0.0755383237,
				"y": 3.8774908335,
				"z": -0.7029811529,
				"element": "O" 
			},
			{
				"x": -0.6836114234,
				"y": 5.0150985535,
				"z": -1.1065801633,
				"element": "C" 
			},
			{
				"x": -0.4756673097,
				"y": 6.1236017842,
				"z": -0.1047759612,
				"element": "C" 
			},
			{
				"x": -1.2982868029,
				"y": 5.1176369547,
				"z": -2.1483098909,
				"element": "O" 
			},
			{
				"x": 0.3428973173,
				"y": 3.1523524524,
				"z": -2.9953682199,
				"element": "C" 
			},
			{
				"x": -0.4446085404,
				"y": 2.7438532432,
				"z": -4.2222282814,
				"element": "C" 
			},
			{
				"x": 1.3765137616,
				"y": 3.7875136798,
				"z": -3.0869129967,
				"element": "O" 
			},
			{
				"x": 0.7938859816,
				"y": 1.6450440196,
				"z": -0.9246262489,
				"element": "C" 
			},
			{
				"x": 2.1434460215,
				"y": 2.2507060986,
				"z": -0.4982030986,
				"element": "C" 
			},
			{
				"x": 0.9807708111,
				"y": 0.4628431956,
				"z": -1.9141189232,
				"element": "C" 
			},
			{
				"x": 1.4889042725,
				"y": -0.8336861016,
				"z": -1.2694029539,
				"element": "C" 
			},
			{
				"x": 2.7873611002,
				"y": -0.6798362415,
				"z": -0.7080219154,
				"element": "O" 
			},
			{
				"x": 0.5462275759,
				"y": -1.3144827533,
				"z": -0.1396105366,
				"element": "C" 
			},
			{
				"x": -0.699055025,
				"y": -1.4999299325,
				"z": -0.8033845766,
				"element": "F" 
			},
			{
				"x": 0.9544748637,
				"y": -2.725478195,
				"z": 0.4947280285,
				"element": "C" 
			},
			{
				"x": 0.1828716324,
				"y": -3.8708646684,
				"z": -0.2517097344,
				"element": "C" 
			},
			{
				"x": 2.4027466708,
				"y": -3.1154687129,
				"z": 0.2602132707,
				"element": "C" 
			},
			{
				"x": 3.2052545125,
				"y": -3.6549695924,
				"z": 1.1877933609,
				"element": "C" 
			},
			{
				"x": 2.7727060777,
				"y": -3.8153631289,
				"z": 2.5853170328,
				"element": "C" 
			},
			{
				"x": 3.4837273174,
				"y": -4.3344811661,
				"z": 3.4438803434,
				"element": "O" 
			},
			{
				"x": 1.4322241506,
				"y": -3.2863086799,
				"z": 2.8949317555,
				"element": "C" 
			},
			{
				"x": 0.6011841958,
				"y": -2.7494488487,
				"z": 1.9801136019,
				"element": "C" 
			},
			{
				"x": -2.8287455819,
				"y": -2.2760331934,
				"z": 2.4963058192,
				"element": "H" 
			},
			{
				"x": -2.001498798,
				"y": -3.7908883708,
				"z": 2.1097870224,
				"element": "H" 
			},
			{
				"x": -2.1633821598,
				"y": -2.5151568675,
				"z": 0.8810413041,
				"element": "H" 
			},
			{
				"x": -0.6855989072,
				"y": -2.1487124622,
				"z": 3.5282945087,
				"element": "H" 
			},
			{
				"x": -1.6187468457,
				"y": -0.2243549882,
				"z": 1.8252760443,
				"element": "H" 
			},
			{
				"x": -0.2913299394,
				"y": 0.0156108728,
				"z": 2.9391198721,
				"element": "H" 
			},
			{
				"x": 1.3597968335,
				"y": -0.0790175643,
				"z": 1.3331388314,
				"element": "H" 
			},
			{
				"x": 0.1049523316,
				"y": 1.9074622493,
				"z": 1.0895946982,
				"element": "H" 
			},
			{
				"x": -2.1343643374,
				"y": 1.8088124516,
				"z": 0.616551286,
				"element": "H" 
			},
			{
				"x": -2.008864951,
				"y": 0.3220986399,
				"z": -0.3102973616,
				"element": "H" 
			},
			{
				"x": -1.7489731659,
				"y": 1.4514984768,
				"z": -2.3213242304,
				"element": "H" 
			},
			{
				"x": -2.3207599236,
				"y": 2.8861530865,
				"z": -1.5023252799,
				"element": "H" 
			},
			{
				"x": 0.5722727468,
				"y": 6.4391945392,
				"z": -0.132397984,
				"element": "H" 
			},
			{
				"x": -0.6886660357,
				"y": 5.7756731859,
				"z": 0.9091461577,
				"element": "H" 
			},
			{
				"x": -1.1147270983,
				"y": 6.9681119068,
				"z": -0.3607676207,
				"element": "H" 
			},
			{
				"x": -0.5499536885,
				"y": 1.6561043865,
				"z": -4.2946676109,
				"element": "H" 
			},
			{
				"x": 0.0718676899,
				"y": 3.1182994779,
				"z": -5.107053588,
				"element": "H" 
			},
			{
				"x": -1.4488714374,
				"y": 3.1742137275,
				"z": -4.1705960861,
				"element": "H" 
			},
			{
				"x": 2.7291771141,
				"y": 1.5232023149,
				"z": 0.0639114333,
				"element": "H" 
			},
			{
				"x": 1.9833926953,
				"y": 3.1292261497,
				"z": 0.1284898658,
				"element": "H" 
			},
			{
				"x": 2.7203298077,
				"y": 2.5726713785,
				"z": -1.3695740361,
				"element": "H" 
			},
			{
				"x": 1.6806470055,
				"y": 0.7480107437,
				"z": -2.711329088,
				"element": "H" 
			},
			{
				"x": 0.0360324378,
				"y": 0.2134385284,
				"z": -2.4046352959,
				"element": "H" 
			},
			{
				"x": 1.4961018218,
				"y": -1.6170094399,
				"z": -2.045250271,
				"element": "H" 
			},
			{
				"x": 3.3563513963,
				"y": -0.2652342934,
				"z": -1.3693574169,
				"element": "H" 
			},
			{
				"x": 0.4574401773,
				"y": -3.882670667,
				"z": -1.3108370367,
				"element": "H" 
			},
			{
				"x": 0.4711889167,
				"y": -4.8288006008,
				"z": 0.1863944839,
				"element": "H" 
			},
			{
				"x": -0.8958826959,
				"y": -3.7609568656,
				"z": -0.186925064,
				"element": "H" 
			},
			{
				"x": 2.7442193005,
				"y": -3.0677329219,
				"z": -0.7673435374,
				"element": "H" 
			},
			{
				"x": 4.2024709581,
				"y": -4.0079092451,
				"z": 0.9421089843,
				"element": "H" 
			},
			{
				"x": 1.1558989815,
				"y": -3.3118838706,
				"z": 3.946455126,
				"element": "H" 
			}
		],
		 "valence_orbital": [ 
			{
				"type": "occ",
				"energy": -0.2785,
				"method": "rhf"
			},
			{
				"type": "occ",
				"energy": -0.25918,
				"method": "rhf"
			},
			{
				"type": "occ",
				"energy": -0.2529,
				"method": "rhf"
			},
			{
				"type": "occ",
				"energy": -0.24786,
				"method": "rhf"
			},
			{
				"type": "occ",
				"energy": -0.22895,
				"method": "rhf"
			},
			{
				"type": "unocc",
				"energy": -0.05336,
				"method": "rhf"
			},
			{
				"type": "unocc",
				"energy": -0.02657,
				"method": "rhf"
			},
			{
				"type": "unocc",
				"energy": 0.00418,
				"method": "rhf"
			},
			{
				"type": "unocc",
				"energy": 0.00728,
				"method": "rhf"
			},
			{
				"type": "unocc",
				"energy": 0.04928,
				"method": "rhf"
			}
		],
		"cosmo_sigma_profile": { 
			"-0.025": 0.0,
			"-0.024": 0.0,
			"-0.023": 0.0,
			"-0.022": 0.0,
			"-0.021": 0.0,
			"-0.02": 0.0,
			"-0.019": 0.0,
			"-0.018": 0.0,
			"-0.017": 0.0,
			"-0.016": 0.467502338225,
			"-0.015": 0.795181374048,
			"-0.014": 1.09881172745,
			"-0.013": 0.877307990643,
			"-0.012": 0.934814697012,
			"-0.011": 0.977739673053,
			"-0.01": 0.915310605404,
			"-0.009": 1.77414064234,
			"-0.008": 2.35853124035,
			"-0.007": 5.7975590967,
			"-0.006": 13.6810210117,
			"-0.005": 22.5328760003,
			"-0.004": 31.4707924148,
			"-0.003": 49.0625168628,
			"-0.002": 56.217365149,
			"-0.001": 49.1572138346,
			"0.0": 40.255085215,
			"0.001": 28.0848339236,
			"0.002": 20.3293640002,
			"0.003": 14.0332812317,
			"0.004": 10.6890688524,
			"0.005": 9.43089848788,
			"0.006": 7.15974101902,
			"0.007": 5.84719761168,
			"0.008": 7.31111888094,
			"0.009": 6.0294477666,
			"0.01": 5.14884984768,
			"0.011": 7.56412199858,
			"0.012": 7.83794478241,
			"0.013": 5.97168037586,
			"0.014": 4.14434239912,
			"0.015": 1.73999569211,
			"0.016": 0.0351836308738,
			"0.017": 0.0,
			"0.018": 0.0,
			"0.019": 0.0,
			"0.02": 0.0,
			"0.021": 0.0,
			"0.022": 0.0,
			"0.023": 0.0,
			"0.024": 0.0,
			"0.025": 0.0
		}
	}
}
