{
	 "smiles": "C1CN(CCN1)C1=CC=CC=C1", 
	 "Tm": 291.95, 
	 "num_atms": 26, 
	 "gaussian": { 
		 "optdone": 1, 
		 "sigma_profile": "yes", 
		 "theory": "DFT", 
		 "functional": "B3LYP", 
		 "basiset": "6-31G**", 
		 "properties": { 
			 "R2extent": 2766.5935, 
			 "electric_dipole_moment_norm": 1.53116407024, 
			 "electric_quadrupole_moment_norm": 7.93089777705, 
			 "total_energy": -498.991045085, 
			 "HOMO_LUMO_gap": 0.19969, 
			 "cosmo_polarized_energy": -7.23, 
			 "cosmo_cavitation_energy": 26.9, 
			 "cosmo_dispersion_energy": -20.38, 
			 "cosmo_repulsion_energy": 1.61, 
			 "cosmo_total_nonelectrostatic_energy": 8.13, 
			 "SMD_solvation_energy": 0.61 
		},
		"coords": [
			{
				"x": -0.1627857457,
				"y": 3.14732195,
				"z": -1.054787874,
				"element": "C" 
			},
			{
				"x": -1.1399941043,
				"y": 2.2161504087,
				"z": -0.334298266,
				"element": "C" 
			},
			{
				"x": -0.5057302256,
				"y": 0.9250652964,
				"z": -0.0768169199,
				"element": "N" 
			},
			{
				"x": 0.747876284,
				"y": 1.0728659871,
				"z": 0.6771724608,
				"element": "C" 
			},
			{
				"x": 1.7038623849,
				"y": 2.0124966272,
				"z": -0.0553452068,
				"element": "C" 
			},
			{
				"x": 1.0461819787,
				"y": 3.3035310084,
				"z": -0.2488279612,
				"element": "N" 
			},
			{
				"x": -1.3373993283,
				"y": -0.1655221154,
				"z": 0.2633140326,
				"element": "C" 
			},
			{
				"x": -2.7107472976,
				"y": -0.0151801046,
				"z": 0.5307434462,
				"element": "C" 
			},
			{
				"x": -3.509752709,
				"y": -1.1250077082,
				"z": 0.8150376251,
				"element": "C" 
			},
			{
				"x": -2.9659144497,
				"y": -2.4067039483,
				"z": 0.8573725971,
				"element": "C" 
			},
			{
				"x": -1.6013289041,
				"y": -2.5665616679,
				"z": 0.598207,
				"element": "C" 
			},
			{
				"x": -0.8006290946,
				"y": -1.4695082098,
				"z": 0.2996524423,
				"element": "C" 
			},
			{
				"x": 0.0397480113,
				"y": 2.7273649062,
				"z": -2.0578091411,
				"element": "H" 
			},
			{
				"x": -0.6338882225,
				"y": 4.1274433284,
				"z": -1.1882033606,
				"element": "H" 
			},
			{
				"x": -1.4778578687,
				"y": 2.7033492527,
				"z": 0.5980246788,
				"element": "H" 
			},
			{
				"x": -2.0145861862,
				"y": 2.0578457721,
				"z": -0.9714988935,
				"element": "H" 
			},
			{
				"x": 0.5489730353,
				"y": 1.4793130865,
				"z": 1.6842142345,
				"element": "H" 
			},
			{
				"x": 1.2185440001,
				"y": 0.0963482568,
				"z": 0.7990832488,
				"element": "H" 
			},
			{
				"x": 2.6045373468,
				"y": 2.1559830564,
				"z": 0.551873251,
				"element": "H" 
			},
			{
				"x": 2.0048887906,
				"y": 1.5346701992,
				"z": -1.0066101795,
				"element": "H" 
			},
			{
				"x": 1.6821712672,
				"y": 3.9577584402,
				"z": -0.6957680692,
				"element": "H" 
			},
			{
				"x": -3.1630534543,
				"y": 0.9695573173,
				"z": 0.5344806697,
				"element": "H" 
			},
			{
				"x": -4.5670628442,
				"y": -0.975233682,
				"z": 1.0174495241,
				"element": "H" 
			},
			{
				"x": -3.5898966771,
				"y": -3.265895926,
				"z": 1.083397469,
				"element": "H" 
			},
			{
				"x": -1.1571621455,
				"y": -3.5583463476,
				"z": 0.6128440041,
				"element": "H" 
			},
			{
				"x": 0.2468061585,
				"y": -1.624305184,
				"z": 0.0613991877,
				"element": "H" 
			}
		],
		 "valence_orbital": [ 
			{
				"type": "occ",
				"energy": -0.32518,
				"method": "rhf"
			},
			{
				"type": "occ",
				"energy": -0.26951,
				"method": "rhf"
			},
			{
				"type": "occ",
				"energy": -0.24017,
				"method": "rhf"
			},
			{
				"type": "occ",
				"energy": -0.22514,
				"method": "rhf"
			},
			{
				"type": "occ",
				"energy": -0.19167,
				"method": "rhf"
			},
			{
				"type": "unocc",
				"energy": 0.00802,
				"method": "rhf"
			},
			{
				"type": "unocc",
				"energy": 0.01722,
				"method": "rhf"
			},
			{
				"type": "unocc",
				"energy": 0.08292,
				"method": "rhf"
			},
			{
				"type": "unocc",
				"energy": 0.09811,
				"method": "rhf"
			},
			{
				"type": "unocc",
				"energy": 0.11853,
				"method": "rhf"
			}
		],
		"cosmo_sigma_profile": { 
			"-0.025": 0.0,
			"-0.024": 0.0,
			"-0.023": 0.0,
			"-0.022": 0.0,
			"-0.021": 0.0,
			"-0.02": 0.0,
			"-0.019": 0.0,
			"-0.018": 0.0,
			"-0.017": 0.0,
			"-0.016": 0.0,
			"-0.015": 0.0,
			"-0.014": 0.0,
			"-0.013": 0.0,
			"-0.012": 0.0,
			"-0.011": 0.0505173457911,
			"-0.01": 1.19399792227,
			"-0.009": 1.22257640182,
			"-0.008": 1.50493390598,
			"-0.007": 1.18486498784,
			"-0.006": 3.58063911553,
			"-0.005": 12.0238709351,
			"-0.004": 20.6812422739,
			"-0.003": 23.2592241058,
			"-0.002": 30.3772541473,
			"-0.001": 27.5720473794,
			"0.0": 15.186487055,
			"0.001": 9.33195346915,
			"0.002": 8.80285882768,
			"0.003": 7.93672301988,
			"0.004": 9.09582296385,
			"0.005": 9.0416248213,
			"0.006": 10.2119185929,
			"0.007": 9.27396491417,
			"0.008": 2.25300848715,
			"0.009": 1.03873080141,
			"0.01": 1.78122912267,
			"0.011": 0.774199995758,
			"0.012": 0.316216273526,
			"0.013": 0.634486098678,
			"0.014": 1.02277597056,
			"0.015": 0.312129257757,
			"0.016": 0.553715617642,
			"0.017": 0.290681496498,
			"0.018": 0.383712086848,
			"0.019": 0.0116698478628,
			"0.02": 0.0,
			"0.021": 0.0,
			"0.022": 0.0,
			"0.023": 0.0,
			"0.024": 0.0,
			"0.025": 0.0
		}
	}
}
