{
	 "smiles": "ClCCN(CCCl)C1=CC=C(C=C1)C#N", 
	 "Tm": 343.15, 
	 "num_atms": 27, 
	 "gaussian": { 
		 "optdone": 1, 
		 "sigma_profile": "yes", 
		 "theory": "DFT", 
		 "functional": "B3LYP", 
		 "basiset": "6-31G**", 
		 "properties": { 
			 "R2extent": 6349.3642, 
			 "electric_dipole_moment_norm": 7.07400234662, 
			 "electric_quadrupole_moment_norm": 38.0769842112, 
			 "total_energy": -1456.27560931, 
			 "HOMO_LUMO_gap": 0.18235, 
			 "cosmo_polarized_energy": -18.44, 
			 "cosmo_cavitation_energy": 33.93, 
			 "cosmo_dispersion_energy": -23.72, 
			 "cosmo_repulsion_energy": 1.88, 
			 "cosmo_total_nonelectrostatic_energy": 12.09, 
			 "SMD_solvation_energy": 6.16 
		},
		"coords": [
			{
				"x": 1.5369610013,
				"y": -3.8749461003,
				"z": -0.5111460711,
				"element": "Cl" 
			},
			{
				"x": 1.465897293,
				"y": -2.5978768249,
				"z": 0.773088314,
				"element": "C" 
			},
			{
				"x": 0.2613807778,
				"y": -1.6633329696,
				"z": 0.6498969436,
				"element": "C" 
			},
			{
				"x": 0.2556487803,
				"y": -0.7968496783,
				"z": -0.5242388295,
				"element": "N" 
			},
			{
				"x": 1.1005558766,
				"y": 0.3861394923,
				"z": -0.4535932829,
				"element": "C" 
			},
			{
				"x": 0.3926328406,
				"y": 1.6910786905,
				"z": -0.0735948707,
				"element": "C" 
			},
			{
				"x": -0.1637491957,
				"y": 1.7135437206,
				"z": 1.65720144,
				"element": "Cl" 
			},
			{
				"x": -0.5543242105,
				"y": -1.0278125891,
				"z": -1.6326608078,
				"element": "C" 
			},
			{
				"x": -1.3449181131,
				"y": -2.1964638302,
				"z": -1.7548063026,
				"element": "C" 
			},
			{
				"x": -2.1601403376,
				"y": -2.4043284692,
				"z": -2.8551071492,
				"element": "C" 
			},
			{
				"x": -2.2251681254,
				"y": -1.4656268146,
				"z": -3.8995353883,
				"element": "C" 
			},
			{
				"x": -1.4329760841,
				"y": -0.3118893291,
				"z": -3.8013936158,
				"element": "C" 
			},
			{
				"x": -0.6208417024,
				"y": -0.0952194455,
				"z": -2.6974219997,
				"element": "C" 
			},
			{
				"x": -3.068227248,
				"y": -1.6830666222,
				"z": -5.0331759686,
				"element": "C" 
			},
			{
				"x": -3.7558386177,
				"y": -1.8585451335,
				"z": -5.9564164999,
				"element": "N" 
			},
			{
				"x": 2.4080486193,
				"y": -2.0503130564,
				"z": 0.7084861484,
				"element": "H" 
			},
			{
				"x": 1.4297960225,
				"y": -3.1192619212,
				"z": 1.7319861231,
				"element": "H" 
			},
			{
				"x": 0.2676271429,
				"y": -1.0293847182,
				"z": 1.5441751402,
				"element": "H" 
			},
			{
				"x": -0.6651003839,
				"y": -2.235868901,
				"z": 0.6955790534,
				"element": "H" 
			},
			{
				"x": 1.5959187744,
				"y": 0.548245609,
				"z": -1.4189294,
				"element": "H" 
			},
			{
				"x": 1.9015564181,
				"y": 0.1976092534,
				"z": 0.2665618933,
				"element": "H" 
			},
			{
				"x": -0.4979750507,
				"y": 1.8619178696,
				"z": -0.6773722186,
				"element": "H" 
			},
			{
				"x": 1.0752916895,
				"y": 2.5358652224,
				"z": -0.1849667293,
				"element": "H" 
			},
			{
				"x": -1.2990165237,
				"y": -2.9742690233,
				"z": -1.0053629678,
				"element": "H" 
			},
			{
				"x": -2.7491129481,
				"y": -3.3135788788,
				"z": -2.9163943522,
				"element": "H" 
			},
			{
				"x": -1.4587329372,
				"y": 0.4251996697,
				"z": -4.597369382,
				"element": "H" 
			},
			{
				"x": -0.0368937584,
				"y": 0.8154347779,
				"z": -2.6764892198,
				"element": "H" 
			}
		],
		 "valence_orbital": [ 
			{
				"type": "occ",
				"energy": -0.31314,
				"method": "rhf"
			},
			{
				"type": "occ",
				"energy": -0.30822,
				"method": "rhf"
			},
			{
				"type": "occ",
				"energy": -0.29299,
				"method": "rhf"
			},
			{
				"type": "occ",
				"energy": -0.27028,
				"method": "rhf"
			},
			{
				"type": "occ",
				"energy": -0.21509,
				"method": "rhf"
			},
			{
				"type": "unocc",
				"energy": -0.03274,
				"method": "rhf"
			},
			{
				"type": "unocc",
				"energy": -0.02117,
				"method": "rhf"
			},
			{
				"type": "unocc",
				"energy": 0.00415,
				"method": "rhf"
			},
			{
				"type": "unocc",
				"energy": 0.01306,
				"method": "rhf"
			},
			{
				"type": "unocc",
				"energy": 0.04761,
				"method": "rhf"
			}
		],
		"cosmo_sigma_profile": { 
			"-0.025": 0.0,
			"-0.024": 0.0,
			"-0.023": 0.0,
			"-0.022": 0.0,
			"-0.021": 0.0,
			"-0.02": 0.0,
			"-0.019": 0.0,
			"-0.018": 0.0,
			"-0.017": 0.0,
			"-0.016": 0.0,
			"-0.015": 0.0,
			"-0.014": 0.0,
			"-0.013": 0.0,
			"-0.012": 0.0,
			"-0.011": 0.0,
			"-0.01": 0.297682184767,
			"-0.009": 2.7781820559,
			"-0.008": 10.508874042,
			"-0.007": 23.445772127,
			"-0.006": 22.2581538609,
			"-0.005": 20.0286190682,
			"-0.004": 15.1823408169,
			"-0.003": 11.3539586798,
			"-0.002": 10.5601867905,
			"-0.001": 11.0528881272,
			"0.0": 15.742377366,
			"0.001": 16.066132418,
			"0.002": 16.0201224742,
			"0.003": 20.1989059779,
			"0.004": 19.25490387,
			"0.005": 14.1228521145,
			"0.006": 18.2889400989,
			"0.007": 8.5628855253,
			"0.008": 2.46248202412,
			"0.009": 3.31922755932,
			"0.01": 3.85623562209,
			"0.011": 3.16273426127,
			"0.012": 2.91825753515,
			"0.013": 2.51987817109,
			"0.014": 1.18410045756,
			"0.015": 0.00168099142117,
			"0.016": 0.0,
			"0.017": 0.0,
			"0.018": 0.0,
			"0.019": 0.0,
			"0.02": 0.0,
			"0.021": 0.0,
			"0.022": 0.0,
			"0.023": 0.0,
			"0.024": 0.0,
			"0.025": 0.0
		}
	}
}
