{
	 "smiles": "ClC1=CC2=C(NC(=O)C=C2C2=CC=CC=C2)C=C1", 
	 "Tm": 531.15, 
	 "num_atms": 28, 
	 "gaussian": { 
		 "optdone": 1, 
		 "sigma_profile": "yes", 
		 "theory": "DFT", 
		 "functional": "B3LYP", 
		 "basiset": "6-31G**", 
		 "properties": { 
			 "R2extent": 6346.6479, 
			 "electric_dipole_moment_norm": 2.07110295736, 
			 "electric_quadrupole_moment_norm": 28.1855352387, 
			 "total_energy": -1167.81869049, 
			 "HOMO_LUMO_gap": 0.15992, 
			 "cosmo_polarized_energy": -13.95, 
			 "cosmo_cavitation_energy": 34.65, 
			 "cosmo_dispersion_energy": -24.68, 
			 "cosmo_repulsion_energy": 1.91, 
			 "cosmo_total_nonelectrostatic_energy": 11.88, 
			 "SMD_solvation_energy": 5.96 
		},
		"coords": [
			{
				"x": -1.9764235336,
				"y": -4.6781512732,
				"z": 0.5112718235,
				"element": "Cl" 
			},
			{
				"x": -2.2553608275,
				"y": -3.0646416117,
				"z": 1.1512358539,
				"element": "C" 
			},
			{
				"x": -1.4680089497,
				"y": -2.0096829911,
				"z": 0.7204917984,
				"element": "C" 
			},
			{
				"x": -1.682605617,
				"y": -0.7131984898,
				"z": 1.2263441478,
				"element": "C" 
			},
			{
				"x": -2.7144760136,
				"y": -0.5148561443,
				"z": 2.1785996963,
				"element": "C" 
			},
			{
				"x": -2.9274998845,
				"y": 0.7536937982,
				"z": 2.6762400225,
				"element": "N" 
			},
			{
				"x": -2.2097724038,
				"y": 1.9011574189,
				"z": 2.3291637754,
				"element": "C" 
			},
			{
				"x": -2.4809571457,
				"y": 2.9853875176,
				"z": 2.8326624421,
				"element": "O" 
			},
			{
				"x": -1.1534236017,
				"y": 1.6643299951,
				"z": 1.3460194134,
				"element": "C" 
			},
			{
				"x": -0.8915439105,
				"y": 0.439506731,
				"z": 0.8163121982,
				"element": "C" 
			},
			{
				"x": 0.2065614646,
				"y": 0.2735099468,
				"z": -0.1860234171,
				"element": "C" 
			},
			{
				"x": 1.5124779258,
				"y": -0.018501412,
				"z": 0.2325763857,
				"element": "C" 
			},
			{
				"x": 2.5393915291,
				"y": -0.1570118614,
				"z": -0.7023393464,
				"element": "C" 
			},
			{
				"x": 2.2726996121,
				"y": -0.0079035572,
				"z": -2.0644994994,
				"element": "C" 
			},
			{
				"x": 0.9745552742,
				"y": 0.2808169728,
				"z": -2.4891035606,
				"element": "C" 
			},
			{
				"x": -0.0538929171,
				"y": 0.4197506332,
				"z": -1.5559460636,
				"element": "C" 
			},
			{
				"x": -3.5012654518,
				"y": -1.5994645614,
				"z": 2.6015925578,
				"element": "C" 
			},
			{
				"x": -3.2753488563,
				"y": -2.8690833333,
				"z": 2.0923930496,
				"element": "C" 
			},
			{
				"x": -0.6831094055,
				"y": -2.175436619,
				"z": -0.0074381823,
				"element": "H" 
			},
			{
				"x": -3.6614945646,
				"y": 0.907620794,
				"z": 3.356753888,
				"element": "H" 
			},
			{
				"x": -0.5789068058,
				"y": 2.5368899165,
				"z": 1.0568926978,
				"element": "H" 
			},
			{
				"x": 1.7216040036,
				"y": -0.1312337577,
				"z": 1.2924900602,
				"element": "H" 
			},
			{
				"x": 3.5476988499,
				"y": -0.3791466632,
				"z": -0.3651541466,
				"element": "H" 
			},
			{
				"x": 3.0725811191,
				"y": -0.115147171,
				"z": -2.7912958014,
				"element": "H" 
			},
			{
				"x": 0.7608311994,
				"y": 0.4006122987,
				"z": -3.5472580615,
				"element": "H" 
			},
			{
				"x": -1.062976846,
				"y": 0.6478330197,
				"z": -1.8869810987,
				"element": "H" 
			},
			{
				"x": -4.2897992805,
				"y": -1.4389421187,
				"z": 3.3314568177,
				"element": "H" 
			},
			{
				"x": -3.8812349625,
				"y": -3.7074074775,
				"z": 2.4173425492,
				"element": "H" 
			}
		],
		 "valence_orbital": [ 
			{
				"type": "occ",
				"energy": -0.26368,
				"method": "rhf"
			},
			{
				"type": "occ",
				"energy": -0.26307,
				"method": "rhf"
			},
			{
				"type": "occ",
				"energy": -0.25364,
				"method": "rhf"
			},
			{
				"type": "occ",
				"energy": -0.25214,
				"method": "rhf"
			},
			{
				"type": "occ",
				"energy": -0.22316,
				"method": "rhf"
			},
			{
				"type": "unocc",
				"energy": -0.06324,
				"method": "rhf"
			},
			{
				"type": "unocc",
				"energy": -0.02228,
				"method": "rhf"
			},
			{
				"type": "unocc",
				"energy": -0.01502,
				"method": "rhf"
			},
			{
				"type": "unocc",
				"energy": -0.00767,
				"method": "rhf"
			},
			{
				"type": "unocc",
				"energy": 0.00215,
				"method": "rhf"
			}
		],
		"cosmo_sigma_profile": { 
			"-0.025": 0.0,
			"-0.024": 0.0,
			"-0.023": 0.0,
			"-0.022": 0.0,
			"-0.021": 0.0,
			"-0.02": 0.0,
			"-0.019": 0.0,
			"-0.018": 0.0,
			"-0.017": 0.0,
			"-0.016": 0.524557718858,
			"-0.015": 1.05034216379,
			"-0.014": 1.43630672103,
			"-0.013": 1.22085995307,
			"-0.012": 1.29971045379,
			"-0.011": 1.13903365785,
			"-0.01": 1.40662863224,
			"-0.009": 1.06810101482,
			"-0.008": 3.41151361558,
			"-0.007": 5.61070077904,
			"-0.006": 14.3287776865,
			"-0.005": 15.7346061218,
			"-0.004": 19.0702368978,
			"-0.003": 15.5877328866,
			"-0.002": 19.7930334875,
			"-0.001": 21.9039630422,
			"0.0": 29.477225419,
			"0.001": 27.7805733449,
			"0.002": 26.8210746469,
			"0.003": 18.6754772029,
			"0.004": 17.1275380329,
			"0.005": 15.5787790762,
			"0.006": 2.04306511147,
			"0.007": 1.13544102062,
			"0.008": 0.754764152632,
			"0.009": 1.11985659824,
			"0.01": 1.52252837615,
			"0.011": 1.83330430427,
			"0.012": 1.6283251079,
			"0.013": 4.0631675097,
			"0.014": 5.55171489579,
			"0.015": 1.2940243679,
			"0.016": 0.0,
			"0.017": 0.0,
			"0.018": 0.0,
			"0.019": 0.0,
			"0.02": 0.0,
			"0.021": 0.0,
			"0.022": 0.0,
			"0.023": 0.0,
			"0.024": 0.0,
			"0.025": 0.0
		}
	}
}
