{
	 "smiles": "ClCC(=O)NCCC1=CC=CS1", 
	 "Tm": 290.15, 
	 "num_atms": 22, 
	 "gaussian": { 
		 "optdone": 1, 
		 "sigma_profile": "yes", 
		 "theory": "DFT", 
		 "functional": "B3LYP", 
		 "basiset": "6-31G**", 
		 "properties": { 
			 "R2extent": 3619.4855, 
			 "electric_dipole_moment_norm": 1.90689908228, 
			 "electric_quadrupole_moment_norm": 5.80858884153, 
			 "total_energy": -1299.24090662, 
			 "HOMO_LUMO_gap": 0.21609, 
			 "cosmo_polarized_energy": -10.73, 
			 "cosmo_cavitation_energy": 29.35, 
			 "cosmo_dispersion_energy": -21.05, 
			 "cosmo_repulsion_energy": 1.67, 
			 "cosmo_total_nonelectrostatic_energy": 9.97, 
			 "SMD_solvation_energy": 4.62 
		},
		"coords": [
			{
				"x": 0.8361307143,
				"y": -1.6635605578,
				"z": 3.0241691006,
				"element": "Cl" 
			},
			{
				"x": 0.9976504481,
				"y": -3.1240547059,
				"z": 1.9542198598,
				"element": "C" 
			},
			{
				"x": 1.1345887212,
				"y": -2.8730628065,
				"z": 0.4498979282,
				"element": "C" 
			},
			{
				"x": 1.1780054735,
				"y": -3.8631617524,
				"z": -0.2715619296,
				"element": "O" 
			},
			{
				"x": 1.2146736562,
				"y": -1.5917534628,
				"z": 0.0216151329,
				"element": "N" 
			},
			{
				"x": 1.3242083292,
				"y": -1.2500878674,
				"z": -1.3870047674,
				"element": "C" 
			},
			{
				"x": 0.1366729444,
				"y": -0.3952653018,
				"z": -1.8781972146,
				"element": "C" 
			},
			{
				"x": 0.0086199778,
				"y": 0.9255167213,
				"z": -1.1704822077,
				"element": "C" 
			},
			{
				"x": -0.7928179617,
				"y": 1.2465442197,
				"z": -0.1040416348,
				"element": "C" 
			},
			{
				"x": -0.6220943968,
				"y": 2.588283757,
				"z": 0.3591306374,
				"element": "C" 
			},
			{
				"x": 0.312696682,
				"y": 3.279362511,
				"z": -0.3582809127,
				"element": "C" 
			},
			{
				"x": 0.9988354567,
				"y": 2.2987932442,
				"z": -1.6160200125,
				"element": "S" 
			},
			{
				"x": 0.1146979603,
				"y": -3.7416516538,
				"z": 2.1171437604,
				"element": "H" 
			},
			{
				"x": 1.8775439508,
				"y": -3.6718080841,
				"z": 2.2928689292,
				"element": "H" 
			},
			{
				"x": 1.138033468,
				"y": -0.8440420327,
				"z": 0.6982450361,
				"element": "H" 
			},
			{
				"x": 2.2644658651,
				"y": -0.7129697523,
				"z": -1.5630054082,
				"element": "H" 
			},
			{
				"x": 1.3636397675,
				"y": -2.194087014,
				"z": -1.93462853,
				"element": "H" 
			},
			{
				"x": -0.7893466065,
				"y": -0.9618018712,
				"z": -1.7320114943,
				"element": "H" 
			},
			{
				"x": 0.2505968084,
				"y": -0.2439681237,
				"z": -2.958251981,
				"element": "H" 
			},
			{
				"x": -1.4941453085,
				"y": 0.542962443,
				"z": 0.3321412123,
				"element": "H" 
			},
			{
				"x": -1.1758026929,
				"y": 3.0164844278,
				"z": 1.1869541723,
				"element": "H" 
			},
			{
				"x": 0.6357467427,
				"y": 4.3035276623,
				"z": -0.2337996764,
				"element": "H" 
			}
		],
		 "valence_orbital": [ 
			{
				"type": "occ",
				"energy": -0.31029,
				"method": "rhf"
			},
			{
				"type": "occ",
				"energy": -0.26262,
				"method": "rhf"
			},
			{
				"type": "occ",
				"energy": -0.25938,
				"method": "rhf"
			},
			{
				"type": "occ",
				"energy": -0.25575,
				"method": "rhf"
			},
			{
				"type": "occ",
				"energy": -0.23389,
				"method": "rhf"
			},
			{
				"type": "unocc",
				"energy": -0.0178,
				"method": "rhf"
			},
			{
				"type": "unocc",
				"energy": 0.01303,
				"method": "rhf"
			},
			{
				"type": "unocc",
				"energy": 0.01788,
				"method": "rhf"
			},
			{
				"type": "unocc",
				"energy": 0.02658,
				"method": "rhf"
			},
			{
				"type": "unocc",
				"energy": 0.05956,
				"method": "rhf"
			}
		],
		"cosmo_sigma_profile": { 
			"-0.025": 0.0,
			"-0.024": 0.0,
			"-0.023": 0.0,
			"-0.022": 0.0,
			"-0.021": 0.0,
			"-0.02": 0.0,
			"-0.019": 0.0,
			"-0.018": 0.0,
			"-0.017": 0.0,
			"-0.016": 0.0,
			"-0.015": 0.0,
			"-0.014": 0.0,
			"-0.013": 0.0,
			"-0.012": 0.0,
			"-0.011": 0.0,
			"-0.01": 0.0373040167909,
			"-0.009": 2.87591187954,
			"-0.008": 6.130819148,
			"-0.007": 6.68141757001,
			"-0.006": 11.0092616769,
			"-0.005": 19.8953337389,
			"-0.004": 20.2166463298,
			"-0.003": 22.1121998446,
			"-0.002": 17.5350844288,
			"-0.001": 16.0870453875,
			"0.0": 13.1904239386,
			"0.001": 13.6913123389,
			"0.002": 14.4889572297,
			"0.003": 13.6088613828,
			"0.004": 15.8091356537,
			"0.005": 17.9414291303,
			"0.006": 8.87337585501,
			"0.007": 2.03865686628,
			"0.008": 1.7976226468,
			"0.009": 0.754710131165,
			"0.01": 0.885794782163,
			"0.011": 1.76864406225,
			"0.012": 1.80193610019,
			"0.013": 5.54677780061,
			"0.014": 2.56062259198,
			"0.015": 0.0831757696586,
			"0.016": 0.0,
			"0.017": 0.0,
			"0.018": 0.0,
			"0.019": 0.0,
			"0.02": 0.0,
			"0.021": 0.0,
			"0.022": 0.0,
			"0.023": 0.0,
			"0.024": 0.0,
			"0.025": 0.0
		}
	}
}
