{
	 "smiles": "CC(N)C1=CC=C(C=C1)C1=CSC(C)=N1", 
	 "Tm": 348.15, 
	 "num_atms": 29, 
	 "gaussian": { 
		 "optdone": 1, 
		 "sigma_profile": "yes", 
		 "theory": "DFT", 
		 "functional": "B3LYP", 
		 "basiset": "6-31G**", 
		 "properties": { 
			 "R2extent": 5811.4929, 
			 "electric_dipole_moment_norm": 1.30268493121, 
			 "electric_quadrupole_moment_norm": 15.0236356715, 
			 "total_energy": -973.412168265, 
			 "HOMO_LUMO_gap": 0.17443, 
			 "cosmo_polarized_energy": -10.65, 
			 "cosmo_cavitation_energy": 33.58, 
			 "cosmo_dispersion_energy": -25.12, 
			 "cosmo_repulsion_energy": 1.92, 
			 "cosmo_total_nonelectrostatic_energy": 10.38, 
			 "SMD_solvation_energy": 3.63 
		},
		"coords": [
			{
				"x": 3.9959450352,
				"y": -0.3257438684,
				"z": -2.5348134618,
				"element": "C" 
			},
			{
				"x": 3.7037145688,
				"y": 0.3846779623,
				"z": -1.2021660204,
				"element": "C" 
			},
			{
				"x": 4.7606371664,
				"y": 0.1931141051,
				"z": -0.1935020313,
				"element": "N" 
			},
			{
				"x": 2.3523475286,
				"y": 0.0229740204,
				"z": -0.5853354123,
				"element": "C" 
			},
			{
				"x": 1.3315866507,
				"y": -0.6097888869,
				"z": -1.3080545048,
				"element": "C" 
			},
			{
				"x": 0.1010040158,
				"y": -0.8957180823,
				"z": -0.7203921013,
				"element": "C" 
			},
			{
				"x": -0.1582773109,
				"y": -0.559025437,
				"z": 0.6163345357,
				"element": "C" 
			},
			{
				"x": 0.8642091636,
				"y": 0.073783581,
				"z": 1.3431935413,
				"element": "C" 
			},
			{
				"x": 2.0916221527,
				"y": 0.3564812393,
				"z": 0.7528423775,
				"element": "C" 
			},
			{
				"x": -1.4529614356,
				"y": -0.8497035496,
				"z": 1.2617495242,
				"element": "C" 
			},
			{
				"x": -2.551586078,
				"y": -1.4302884511,
				"z": 0.6780536682,
				"element": "C" 
			},
			{
				"x": -3.8466671435,
				"y": -1.5737231885,
				"z": 1.8176136498,
				"element": "S" 
			},
			{
				"x": -2.8101934197,
				"y": -0.8273115063,
				"z": 3.0362626618,
				"element": "C" 
			},
			{
				"x": -3.2837799853,
				"y": -0.5878215273,
				"z": 4.4375615422,
				"element": "C" 
			},
			{
				"x": -1.6287299274,
				"y": -0.5183905514,
				"z": 2.5979837563,
				"element": "N" 
			},
			{
				"x": 3.277208184,
				"y": -0.0605841842,
				"z": -3.3173076402,
				"element": "H" 
			},
			{
				"x": 4.9892655039,
				"y": -0.0379352572,
				"z": -2.8954641352,
				"element": "H" 
			},
			{
				"x": 3.9820950425,
				"y": -1.4152299982,
				"z": -2.4139455552,
				"element": "H" 
			},
			{
				"x": 3.6854488885,
				"y": 1.4660792025,
				"z": -1.4077689392,
				"element": "H" 
			},
			{
				"x": 5.6560615905,
				"y": 0.4822336853,
				"z": -0.5812916991,
				"element": "H" 
			},
			{
				"x": 4.8441518032,
				"y": -0.7988640731,
				"z": 0.023478097,
				"element": "H" 
			},
			{
				"x": 1.4866247503,
				"y": -0.8911998726,
				"z": -2.3441686551,
				"element": "H" 
			},
			{
				"x": -0.6592709617,
				"y": -1.3921682837,
				"z": -1.3164921102,
				"element": "H" 
			},
			{
				"x": 0.6790456087,
				"y": 0.3377320973,
				"z": 2.3783565933,
				"element": "H" 
			},
			{
				"x": 2.8762121553,
				"y": 0.8334312973,
				"z": 1.3304682847,
				"element": "H" 
			},
			{
				"x": -2.6759517916,
				"y": -1.7737002915,
				"z": -0.3381011316,
				"element": "H" 
			},
			{
				"x": -3.5651792999,
				"y": -1.5234531861,
				"z": 4.9323289767,
				"element": "H" 
			},
			{
				"x": -4.1553174962,
				"y": 0.0750268162,
				"z": 4.4595152586,
				"element": "H" 
			},
			{
				"x": -2.473764959,
				"y": -0.1218838111,
				"z": 5.0015609301,
				"element": "H" 
			}
		],
		 "valence_orbital": [ 
			{
				"type": "occ",
				"energy": -0.26773,
				"method": "rhf"
			},
			{
				"type": "occ",
				"energy": -0.26482,
				"method": "rhf"
			},
			{
				"type": "occ",
				"energy": -0.24162,
				"method": "rhf"
			},
			{
				"type": "occ",
				"energy": -0.23453,
				"method": "rhf"
			},
			{
				"type": "occ",
				"energy": -0.20676,
				"method": "rhf"
			},
			{
				"type": "unocc",
				"energy": -0.03233,
				"method": "rhf"
			},
			{
				"type": "unocc",
				"energy": -0.00126,
				"method": "rhf"
			},
			{
				"type": "unocc",
				"energy": 0.01122,
				"method": "rhf"
			},
			{
				"type": "unocc",
				"energy": 0.0209,
				"method": "rhf"
			},
			{
				"type": "unocc",
				"energy": 0.07398,
				"method": "rhf"
			}
		],
		"cosmo_sigma_profile": { 
			"-0.025": 0.0,
			"-0.024": 0.0,
			"-0.023": 0.0,
			"-0.022": 0.0,
			"-0.021": 0.0,
			"-0.02": 0.0,
			"-0.019": 0.0,
			"-0.018": 0.0,
			"-0.017": 0.0,
			"-0.016": 0.0,
			"-0.015": 0.0,
			"-0.014": 0.0,
			"-0.013": 0.0,
			"-0.012": 0.0,
			"-0.011": 0.0,
			"-0.01": 0.442396986613,
			"-0.009": 4.48165607439,
			"-0.008": 4.47609902023,
			"-0.007": 5.80949107384,
			"-0.006": 8.64599719943,
			"-0.005": 15.2930919862,
			"-0.004": 20.3198427294,
			"-0.003": 24.9126221859,
			"-0.002": 23.7439053085,
			"-0.001": 24.0644692075,
			"0.0": 17.566230915,
			"0.001": 21.0222597638,
			"0.002": 17.9384237658,
			"0.003": 22.6383920006,
			"0.004": 18.3959565355,
			"0.005": 12.9869362147,
			"0.006": 10.4006155272,
			"0.007": 2.59669324405,
			"0.008": 2.29835118564,
			"0.009": 2.76087871563,
			"0.01": 1.69577651645,
			"0.011": 1.99823347203,
			"0.012": 1.09506480251,
			"0.013": 0.821499830339,
			"0.014": 0.562789736765,
			"0.015": 0.381605513173,
			"0.016": 0.393976744232,
			"0.017": 0.358141159625,
			"0.018": 0.0,
			"0.019": 0.0,
			"0.02": 0.0,
			"0.021": 0.0,
			"0.022": 0.0,
			"0.023": 0.0,
			"0.024": 0.0,
			"0.025": 0.0
		}
	}
}
