{
	 "smiles": "CC(CC(O)=O)C1CCC2C3CCC4CCCCC4(C)C3CCC12C", 
	 "Tm": 450.15, 
	 "num_atms": 63, 
	 "gaussian": { 
		 "optdone": 1, 
		 "sigma_profile": "yes", 
		 "theory": "DFT", 
		 "functional": "B3LYP", 
		 "basiset": "6-31G**", 
		 "properties": { 
			 "R2extent": 10327.3861, 
			 "electric_dipole_moment_norm": 1.54488041608, 
			 "electric_quadrupole_moment_norm": 12.7982021601, 
			 "total_energy": -1049.82640544, 
			 "HOMO_LUMO_gap": 0.27516, 
			 "cosmo_polarized_energy": -8.53, 
			 "cosmo_cavitation_energy": 51.47, 
			 "cosmo_dispersion_energy": -35.71, 
			 "cosmo_repulsion_energy": 2.63, 
			 "cosmo_total_nonelectrostatic_energy": 18.4, 
			 "SMD_solvation_energy": 7.93 
		},
		"coords": [
			{
				"x": -3.4994664576,
				"y": -2.7277831958,
				"z": 0.3914130853,
				"element": "C" 
			},
			{
				"x": -2.0606530745,
				"y": -2.9671751309,
				"z": 0.8850221712,
				"element": "C" 
			},
			{
				"x": -1.8072969735,
				"y": -2.2440174683,
				"z": 2.2203439252,
				"element": "C" 
			},
			{
				"x": -2.5951661778,
				"y": -2.8362125626,
				"z": 3.3723328092,
				"element": "C" 
			},
			{
				"x": -2.6597227396,
				"y": -1.9773279482,
				"z": 4.4206766741,
				"element": "O" 
			},
			{
				"x": -3.0938278779,
				"y": -3.9405171371,
				"z": 3.4129014586,
				"element": "O" 
			},
			{
				"x": -0.9700301434,
				"y": -2.8111787231,
				"z": -0.223729851,
				"element": "C" 
			},
			{
				"x": 0.4180310635,
				"y": -3.3274026629,
				"z": 0.2458639953,
				"element": "C" 
			},
			{
				"x": 1.241129911,
				"y": -2.0762568359,
				"z": 0.5729589179,
				"element": "C" 
			},
			{
				"x": 0.8472707188,
				"y": -1.0747088035,
				"z": -0.5270397566,
				"element": "C" 
			},
			{
				"x": 1.1197673354,
				"y": 0.4195773939,
				"z": -0.2120950967,
				"element": "C" 
			},
			{
				"x": 0.8057234118,
				"y": 0.8888750116,
				"z": 1.235188079,
				"element": "C" 
			},
			{
				"x": 0.5213308245,
				"y": 2.4036494295,
				"z": 1.3137793245,
				"element": "C" 
			},
			{
				"x": 1.3367531398,
				"y": 3.1903180587,
				"z": 0.2728716961,
				"element": "C" 
			},
			{
				"x": 1.2523731541,
				"y": 4.7139317212,
				"z": 0.47168562,
				"element": "C" 
			},
			{
				"x": -0.1664031025,
				"y": 5.2869952181,
				"z": 0.2731667779,
				"element": "C" 
			},
			{
				"x": -0.9443169992,
				"y": 4.5588625746,
				"z": -0.8505108024,
				"element": "C" 
			},
			{
				"x": -0.0086421912,
				"y": 3.8353362061,
				"z": -1.8342305193,
				"element": "C" 
			},
			{
				"x": 0.9705848726,
				"y": 2.7894794606,
				"z": -1.2050935852,
				"element": "C" 
			},
			{
				"x": 2.2658998544,
				"y": 2.8331835713,
				"z": -2.0486488869,
				"element": "C" 
			},
			{
				"x": 0.4287184639,
				"y": 1.3081448592,
				"z": -1.2714199817,
				"element": "C" 
			},
			{
				"x": -1.1136117056,
				"y": 1.1051580081,
				"z": -1.245164139,
				"element": "C" 
			},
			{
				"x": -1.5781792976,
				"y": -0.2458061957,
				"z": -0.6426418693,
				"element": "C" 
			},
			{
				"x": -0.6390964722,
				"y": -1.4316619595,
				"z": -0.9485615394,
				"element": "C" 
			},
			{
				"x": -0.6856521287,
				"y": -1.7052811874,
				"z": -2.4713843511,
				"element": "C" 
			},
			{
				"x": -3.7354931337,
				"y": -1.6664873788,
				"z": 0.2786962873,
				"element": "H" 
			},
			{
				"x": -3.6655455045,
				"y": -3.212363387,
				"z": -0.5767517273,
				"element": "H" 
			},
			{
				"x": -4.2138050397,
				"y": -3.1558891954,
				"z": 1.1006007557,
				"element": "H" 
			},
			{
				"x": -2.0118234562,
				"y": -4.0353688043,
				"z": 1.1338399831,
				"element": "H" 
			},
			{
				"x": -2.0309155704,
				"y": -1.1742670888,
				"z": 2.1760321751,
				"element": "H" 
			},
			{
				"x": -0.7548604993,
				"y": -2.3203659713,
				"z": 2.5180889474,
				"element": "H" 
			},
			{
				"x": -3.1438667459,
				"y": -2.4464599103,
				"z": 5.1212220028,
				"element": "H" 
			},
			{
				"x": -1.336007124,
				"y": -3.489459864,
				"z": -1.0037523355,
				"element": "H" 
			},
			{
				"x": 0.9020350114,
				"y": -3.8715156624,
				"z": -0.5746482104,
				"element": "H" 
			},
			{
				"x": 0.3442923948,
				"y": -4.0300088026,
				"z": 1.0837318399,
				"element": "H" 
			},
			{
				"x": 0.9758261953,
				"y": -1.6909087962,
				"z": 1.5627912795,
				"element": "H" 
			},
			{
				"x": 2.3198274344,
				"y": -2.2693730953,
				"z": 0.5919559096,
				"element": "H" 
			},
			{
				"x": 1.4730354503,
				"y": -1.3051563465,
				"z": -1.4005392801,
				"element": "H" 
			},
			{
				"x": 2.201056325,
				"y": 0.5560096906,
				"z": -0.3430909552,
				"element": "H" 
			},
			{
				"x": 1.6665831286,
				"y": 0.6498798237,
				"z": 1.8715868086,
				"element": "H" 
			},
			{
				"x": -0.0385932284,
				"y": 0.3409385873,
				"z": 1.6640162027,
				"element": "H" 
			},
			{
				"x": 0.7572330272,
				"y": 2.7721369931,
				"z": 2.3201146765,
				"element": "H" 
			},
			{
				"x": -0.5486928114,
				"y": 2.5901713108,
				"z": 1.171741051,
				"element": "H" 
			},
			{
				"x": 2.3884587744,
				"y": 2.9101655201,
				"z": 0.4322531582,
				"element": "H" 
			},
			{
				"x": 1.6256251056,
				"y": 4.9776998167,
				"z": 1.4690074199,
				"element": "H" 
			},
			{
				"x": 1.936809445,
				"y": 5.1935928097,
				"z": -0.2394932121,
				"element": "H" 
			},
			{
				"x": -0.7319561594,
				"y": 5.2217548569,
				"z": 1.2096641853,
				"element": "H" 
			},
			{
				"x": -0.0849237986,
				"y": 6.3565016039,
				"z": 0.0463512241,
				"element": "H" 
			},
			{
				"x": -1.5626375223,
				"y": 5.2737384082,
				"z": -1.4060169082,
				"element": "H" 
			},
			{
				"x": -1.6475121533,
				"y": 3.8472174856,
				"z": -0.407648605,
				"element": "H" 
			},
			{
				"x": -0.5951769646,
				"y": 3.3604521895,
				"z": -2.6289345908,
				"element": "H" 
			},
			{
				"x": 0.5930382752,
				"y": 4.6032872301,
				"z": -2.3380839017,
				"element": "H" 
			},
			{
				"x": 2.970560789,
				"y": 2.0481924467,
				"z": -1.7527482191,
				"element": "H" 
			},
			{
				"x": 2.7784007041,
				"y": 3.7954162544,
				"z": -1.9376293207,
				"element": "H" 
			},
			{
				"x": 2.0435020937,
				"y": 2.6979380377,
				"z": -3.1137006142,
				"element": "H" 
			},
			{
				"x": 0.7623920672,
				"y": 0.9235030332,
				"z": -2.2447212766,
				"element": "H" 
			},
			{
				"x": -1.4968062622,
				"y": 1.1946739684,
				"z": -2.2676167757,
				"element": "H" 
			},
			{
				"x": -1.6079046303,
				"y": 1.8965645884,
				"z": -0.6788648147,
				"element": "H" 
			},
			{
				"x": -2.5829574135,
				"y": -0.4596946363,
				"z": -1.0210061178,
				"element": "H" 
			},
			{
				"x": -1.6832708991,
				"y": -0.1269880563,
				"z": 0.4379960297,
				"element": "H" 
			},
			{
				"x": -0.3455985095,
				"y": -0.8445434669,
				"z": -3.0556606579,
				"element": "H" 
			},
			{
				"x": -1.7054027524,
				"y": -1.9458698734,
				"z": -2.7944687201,
				"element": "H" 
			},
			{
				"x": -0.0433434509,
				"y": -2.5525960212,
				"z": -2.737197849,
				"element": "H" 
			}
		],
		 "valence_orbital": [ 
			{
				"type": "occ",
				"energy": -0.28624,
				"method": "rhf"
			},
			{
				"type": "occ",
				"energy": -0.27245,
				"method": "rhf"
			},
			{
				"type": "occ",
				"energy": -0.26942,
				"method": "rhf"
			},
			{
				"type": "occ",
				"energy": -0.26554,
				"method": "rhf"
			},
			{
				"type": "occ",
				"energy": -0.26374,
				"method": "rhf"
			},
			{
				"type": "unocc",
				"energy": 0.01142,
				"method": "rhf"
			},
			{
				"type": "unocc",
				"energy": 0.05925,
				"method": "rhf"
			},
			{
				"type": "unocc",
				"energy": 0.06975,
				"method": "rhf"
			},
			{
				"type": "unocc",
				"energy": 0.07763,
				"method": "rhf"
			},
			{
				"type": "unocc",
				"energy": 0.08238,
				"method": "rhf"
			}
		],
		"cosmo_sigma_profile": { 
			"-0.025": 0.0,
			"-0.024": 0.0,
			"-0.023": 0.0,
			"-0.022": 0.0,
			"-0.021": 0.0,
			"-0.02": 0.0,
			"-0.019": 0.0,
			"-0.018": 0.384298969532,
			"-0.017": 0.956956711941,
			"-0.016": 1.07295921214,
			"-0.015": 0.493484027195,
			"-0.014": 0.663416535491,
			"-0.013": 0.496386051358,
			"-0.012": 1.03201505644,
			"-0.011": 0.934216475566,
			"-0.01": 0.749621770025,
			"-0.009": 0.477446332144,
			"-0.008": 0.290234309497,
			"-0.007": 0.708333166729,
			"-0.006": 3.12166121647,
			"-0.005": 5.47868101683,
			"-0.004": 7.54892833053,
			"-0.003": 12.805108373,
			"-0.002": 49.9127461808,
			"-0.001": 82.107809521,
			"0.0": 84.5114723011,
			"0.001": 65.6421471033,
			"0.002": 39.9302264708,
			"0.003": 5.62929654029,
			"0.004": 2.67370437128,
			"0.005": 2.48843123392,
			"0.006": 2.39075926404,
			"0.007": 3.50291558574,
			"0.008": 2.72625473007,
			"0.009": 3.05705863106,
			"0.01": 2.90310768527,
			"0.011": 2.81862364261,
			"0.012": 4.74088025358,
			"0.013": 0.750950307134,
			"0.014": 0.0,
			"0.015": 0.0,
			"0.016": 0.0,
			"0.017": 0.0,
			"0.018": 0.0,
			"0.019": 0.0,
			"0.02": 0.0,
			"0.021": 0.0,
			"0.022": 0.0,
			"0.023": 0.0,
			"0.024": 0.0,
			"0.025": 0.0
		}
	}
}
