{
	 "smiles": "CC1COC2=C3N1C=C(C(O)=O)C(=O)C3=CC(F)=C2N1CCN(C)CC1", 
	 "Tm": 526.65, 
	 "num_atms": 46, 
	 "gaussian": { 
		 "optdone": 1, 
		 "sigma_profile": "yes", 
		 "theory": "DFT", 
		 "functional": "B3LYP", 
		 "basiset": "6-31G**", 
		 "properties": { 
			 "R2extent": 12109.8604, 
			 "electric_dipole_moment_norm": 9.70317339328, 
			 "electric_quadrupole_moment_norm": 40.9245871173, 
			 "total_energy": -1262.94137348, 
			 "HOMO_LUMO_gap": 0.15379, 
			 "cosmo_polarized_energy": -29.2, 
			 "cosmo_cavitation_energy": 46.74, 
			 "cosmo_dispersion_energy": -33.19, 
			 "cosmo_repulsion_energy": 2.45, 
			 "cosmo_total_nonelectrostatic_energy": 16.0, 
			 "SMD_solvation_energy": 6.53 
		},
		"coords": [
			{
				"x": -3.7592077406,
				"y": -0.7059497607,
				"z": 2.3696086557,
				"element": "C" 
			},
			{
				"x": -3.5460694354,
				"y": -1.5618343602,
				"z": 1.1159105558,
				"element": "C" 
			},
			{
				"x": -2.235892252,
				"y": -2.3501975749,
				"z": 1.1525857725,
				"element": "C" 
			},
			{
				"x": -1.117741757,
				"y": -1.4671463646,
				"z": 1.1661085483,
				"element": "O" 
			},
			{
				"x": -1.1013437595,
				"y": -0.5750088065,
				"z": 0.1141886257,
				"element": "C" 
			},
			{
				"x": -2.293599498,
				"y": -0.2193880057,
				"z": -0.5453640879,
				"element": "C" 
			},
			{
				"x": -3.5186456205,
				"y": -0.7427558068,
				"z": -0.1089316707,
				"element": "N" 
			},
			{
				"x": -4.6623740197,
				"y": -0.4353074563,
				"z": -0.7648476392,
				"element": "C" 
			},
			{
				"x": -4.7319388453,
				"y": 0.3831457666,
				"z": -1.8662635592,
				"element": "C" 
			},
			{
				"x": -6.049106002,
				"y": 0.6218237839,
				"z": -2.4909975649,
				"element": "C" 
			},
			{
				"x": -7.0609455825,
				"y": -0.0435770781,
				"z": -1.8369695496,
				"element": "O" 
			},
			{
				"x": -6.2852778132,
				"y": 1.3072822555,
				"z": -3.4607111928,
				"element": "O" 
			},
			{
				"x": -3.5053484796,
				"y": 0.9997315716,
				"z": -2.4058849136,
				"element": "C" 
			},
			{
				"x": -3.4589524785,
				"y": 1.7501788405,
				"z": -3.3765719053,
				"element": "O" 
			},
			{
				"x": -2.2695032579,
				"y": 0.6304225298,
				"z": -1.6655992578,
				"element": "C" 
			},
			{
				"x": -1.0366328126,
				"y": 1.1462579332,
				"z": -2.0820600326,
				"element": "C" 
			},
			{
				"x": 0.1111032094,
				"y": 0.8323411979,
				"z": -1.3923741843,
				"element": "C" 
			},
			{
				"x": 1.2750138172,
				"y": 1.3945676292,
				"z": -1.8062771734,
				"element": "F" 
			},
			{
				"x": 0.1462481585,
				"y": -0.0408521563,
				"z": -0.2741537694,
				"element": "C" 
			},
			{
				"x": 1.3066279761,
				"y": -0.3802889842,
				"z": 0.4056225715,
				"element": "N" 
			},
			{
				"x": 1.349572815,
				"y": -0.3733221625,
				"z": 1.8750402824,
				"element": "C" 
			},
			{
				"x": 2.7175408377,
				"y": 0.137809439,
				"z": 2.3689278052,
				"element": "C" 
			},
			{
				"x": 3.1540562973,
				"y": 1.2424341223,
				"z": 1.529783823,
				"element": "N" 
			},
			{
				"x": 4.199972006,
				"y": 2.0595541956,
				"z": 2.1170914939,
				"element": "C" 
			},
			{
				"x": 3.5040510942,
				"y": 0.7850856698,
				"z": 0.1811721678,
				"element": "C" 
			},
			{
				"x": 2.6198066405,
				"y": -0.4125657041,
				"z": -0.2269696486,
				"element": "C" 
			},
			{
				"x": -2.9225237412,
				"y": -0.0186990257,
				"z": 2.51698306,
				"element": "H" 
			},
			{
				"x": -3.8388416925,
				"y": -1.3466215143,
				"z": 3.2538149108,
				"element": "H" 
			},
			{
				"x": -4.678931234,
				"y": -0.1207531061,
				"z": 2.2862205541,
				"element": "H" 
			},
			{
				"x": -4.3723018666,
				"y": -2.273554603,
				"z": 1.0075193946,
				"element": "H" 
			},
			{
				"x": -2.1738761417,
				"y": -3.0187998103,
				"z": 0.283333277,
				"element": "H" 
			},
			{
				"x": -2.1660158789,
				"y": -2.9438449788,
				"z": 2.0663717898,
				"element": "H" 
			},
			{
				"x": -5.560892399,
				"y": -0.8878752424,
				"z": -0.3616036357,
				"element": "H" 
			},
			{
				"x": -7.863178068,
				"y": 0.1881032926,
				"z": -2.3315302487,
				"element": "H" 
			},
			{
				"x": -1.0104578674,
				"y": 1.8195194805,
				"z": -2.9309792316,
				"element": "H" 
			},
			{
				"x": 0.5678289938,
				"y": 0.3000221683,
				"z": 2.2373243869,
				"element": "H" 
			},
			{
				"x": 1.1512175991,
				"y": -1.3686480686,
				"z": 2.2938374593,
				"element": "H" 
			},
			{
				"x": 2.6003279332,
				"y": 0.4926795611,
				"z": 3.3984182427,
				"element": "H" 
			},
			{
				"x": 3.4551581129,
				"y": -0.688814571,
				"z": 2.408703927,
				"element": "H" 
			},
			{
				"x": 4.4160521143,
				"y": 2.905689954,
				"z": 1.4559175538,
				"element": "H" 
			},
			{
				"x": 3.8661116893,
				"y": 2.4607768934,
				"z": 3.0797452667,
				"element": "H" 
			},
			{
				"x": 5.14913878,
				"y": 1.5125515126,
				"z": 2.2819055314,
				"element": "H" 
			},
			{
				"x": 4.5632140844,
				"y": 0.465397362,
				"z": 0.1180123301,
				"element": "H" 
			},
			{
				"x": 3.3682397416,
				"y": 1.6185844538,
				"z": -0.5153398958,
				"element": "H" 
			},
			{
				"x": 2.511346176,
				"y": -0.455463304,
				"z": -1.3090993197,
				"element": "H" 
			},
			{
				"x": 3.1093701669,
				"y": -1.3476911682,
				"z": 0.0780804948,
				"element": "H" 
			}
		],
		 "valence_orbital": [ 
			{
				"type": "occ",
				"energy": -0.25436,
				"method": "rhf"
			},
			{
				"type": "occ",
				"energy": -0.21974,
				"method": "rhf"
			},
			{
				"type": "occ",
				"energy": -0.21333,
				"method": "rhf"
			},
			{
				"type": "occ",
				"energy": -0.21271,
				"method": "rhf"
			},
			{
				"type": "occ",
				"energy": -0.19696,
				"method": "rhf"
			},
			{
				"type": "unocc",
				"energy": -0.04317,
				"method": "rhf"
			},
			{
				"type": "unocc",
				"energy": -0.03307,
				"method": "rhf"
			},
			{
				"type": "unocc",
				"energy": 0.01487,
				"method": "rhf"
			},
			{
				"type": "unocc",
				"energy": 0.04426,
				"method": "rhf"
			},
			{
				"type": "unocc",
				"energy": 0.05616,
				"method": "rhf"
			}
		],
		"cosmo_sigma_profile": { 
			"-0.025": 0.0,
			"-0.024": 0.0,
			"-0.023": 0.0,
			"-0.022": 0.0,
			"-0.021": 0.0,
			"-0.02": 0.0,
			"-0.019": 0.0,
			"-0.018": 0.209068287221,
			"-0.017": 0.657787896843,
			"-0.016": 0.793047152273,
			"-0.015": 0.776084816908,
			"-0.014": 1.00444839455,
			"-0.013": 0.676312992715,
			"-0.012": 0.830173273545,
			"-0.011": 1.3742571503,
			"-0.01": 2.39993451391,
			"-0.009": 2.77742776245,
			"-0.008": 5.78274251696,
			"-0.007": 10.3130387836,
			"-0.006": 12.9180868532,
			"-0.005": 14.2202894785,
			"-0.004": 26.7943311914,
			"-0.003": 31.9229141768,
			"-0.002": 45.3880141274,
			"-0.001": 44.817709673,
			"0.0": 37.7777780796,
			"0.001": 22.7372858825,
			"0.002": 16.3264124404,
			"0.003": 15.0771042291,
			"0.004": 13.9092617017,
			"0.005": 8.90217144597,
			"0.006": 5.36579985503,
			"0.007": 5.70017058365,
			"0.008": 4.92641419648,
			"0.009": 3.08859237434,
			"0.01": 2.89200218918,
			"0.011": 4.20495799474,
			"0.012": 6.83277395958,
			"0.013": 4.76634845946,
			"0.014": 4.97398498929,
			"0.015": 2.46852990556,
			"0.016": 1.57662247729,
			"0.017": 1.60432714459,
			"0.018": 1.0446197395,
			"0.019": 0.365661294464,
			"0.02": 0.0,
			"0.021": 0.0,
			"0.022": 0.0,
			"0.023": 0.0,
			"0.024": 0.0,
			"0.025": 0.0
		}
	}
}
