{
	 "smiles": "O=C(OC1=CC=CC=C1)C1=CC=CC=C1C(=O)OC1=CC=CC=C1", 
	 "Tm": 347.15, 
	 "num_atms": 38, 
	 "gaussian": { 
		 "optdone": 1, 
		 "sigma_profile": "yes", 
		 "theory": "DFT", 
		 "functional": "B3LYP", 
		 "basiset": "6-31G**", 
		 "properties": { 
			 "R2extent": 8889.6913, 
			 "electric_dipole_moment_norm": 3.2665060753, 
			 "electric_quadrupole_moment_norm": 19.5739181515, 
			 "total_energy": -1071.47095231, 
			 "HOMO_LUMO_gap": 0.17707, 
			 "cosmo_polarized_energy": -14.09, 
			 "cosmo_cavitation_energy": 44.13, 
			 "cosmo_dispersion_energy": -30.29, 
			 "cosmo_repulsion_energy": 2.31, 
			 "cosmo_total_nonelectrostatic_energy": 16.15, 
			 "SMD_solvation_energy": 8.9 
		},
		"coords": [
			{
				"x": 0.8300892484,
				"y": 0.212443186,
				"z": 1.1909133535,
				"element": "O" 
			},
			{
				"x": 0.9112947248,
				"y": -0.483164299,
				"z": 0.2046137683,
				"element": "C" 
			},
			{
				"x": 1.8794398249,
				"y": -0.3540412809,
				"z": -0.751275884,
				"element": "O" 
			},
			{
				"x": 2.8828641252,
				"y": 0.6122446469,
				"z": -0.623570879,
				"element": "C" 
			},
			{
				"x": 3.6299781941,
				"y": 0.7684200693,
				"z": 0.5437028169,
				"element": "C" 
			},
			{
				"x": 4.6664821626,
				"y": 1.7029968128,
				"z": 0.5547760717,
				"element": "C" 
			},
			{
				"x": 4.9534811957,
				"y": 2.4635411476,
				"z": -0.5807560726,
				"element": "C" 
			},
			{
				"x": 4.1970526701,
				"y": 2.2887967912,
				"z": -1.7411694211,
				"element": "C" 
			},
			{
				"x": 3.1555590581,
				"y": 1.3610156738,
				"z": -1.7664625842,
				"element": "C" 
			},
			{
				"x": 0.0043424074,
				"y": -1.6280006156,
				"z": -0.1113291948,
				"element": "C" 
			},
			{
				"x": 0.5221958214,
				"y": -2.7597715977,
				"z": -0.7545665522,
				"element": "C" 
			},
			{
				"x": -0.2580539548,
				"y": -3.9031725159,
				"z": -0.9216206211,
				"element": "C" 
			},
			{
				"x": -1.5654900386,
				"y": -3.929528986,
				"z": -0.4367713903,
				"element": "C" 
			},
			{
				"x": -2.0936565479,
				"y": -2.8049577949,
				"z": 0.1964520859,
				"element": "C" 
			},
			{
				"x": -1.3291691554,
				"y": -1.6444009368,
				"z": 0.348804781,
				"element": "C" 
			},
			{
				"x": -2.0282051835,
				"y": -0.4716134566,
				"z": 0.9719050206,
				"element": "C" 
			},
			{
				"x": -2.7767019506,
				"y": -0.5562159168,
				"z": 1.915955393,
				"element": "O" 
			},
			{
				"x": -1.7923592056,
				"y": 0.66937943,
				"z": 0.2672053453,
				"element": "O" 
			},
			{
				"x": -2.2916039619,
				"y": 1.8834075867,
				"z": 0.761470432,
				"element": "C" 
			},
			{
				"x": -1.3723928766,
				"y": 2.8025065117,
				"z": 1.2591759447,
				"element": "C" 
			},
			{
				"x": -1.8324724146,
				"y": 4.0513049107,
				"z": 1.6803797101,
				"element": "C" 
			},
			{
				"x": -3.1913432119,
				"y": 4.3648440235,
				"z": 1.605572859,
				"element": "C" 
			},
			{
				"x": -4.0966113538,
				"y": 3.4256998717,
				"z": 1.1061386519,
				"element": "C" 
			},
			{
				"x": -3.6503202526,
				"y": 2.1745928396,
				"z": 0.6782568933,
				"element": "C" 
			},
			{
				"x": 3.4005833192,
				"y": 0.1812316347,
				"z": 1.4237538296,
				"element": "H" 
			},
			{
				"x": 5.2522773722,
				"y": 1.8339572799,
				"z": 1.45980716,
				"element": "H" 
			},
			{
				"x": 5.7626080778,
				"y": 3.1872667988,
				"z": -0.5611023501,
				"element": "H" 
			},
			{
				"x": 4.4143544638,
				"y": 2.8741632295,
				"z": -2.6296238689,
				"element": "H" 
			},
			{
				"x": 2.5540927634,
				"y": 1.2059381006,
				"z": -2.6559659622,
				"element": "H" 
			},
			{
				"x": 1.5479957137,
				"y": -2.7415721668,
				"z": -1.1042761,
				"element": "H" 
			},
			{
				"x": 0.1601853613,
				"y": -4.7736109137,
				"z": -1.4179019864,
				"element": "H" 
			},
			{
				"x": -2.1749360376,
				"y": -4.8206944699,
				"z": -0.5525204466,
				"element": "H" 
			},
			{
				"x": -3.1107315061,
				"y": -2.8069243396,
				"z": 0.5738356709,
				"element": "H" 
			},
			{
				"x": -0.325029186,
				"y": 2.5261351024,
				"z": 1.3111539739,
				"element": "H" 
			},
			{
				"x": -1.1256178336,
				"y": 4.7782832184,
				"z": 2.0695440905,
				"element": "H" 
			},
			{
				"x": -3.5444049274,
				"y": 5.337400809,
				"z": 1.9354450996,
				"element": "H" 
			},
			{
				"x": -5.1543953628,
				"y": 3.6649658726,
				"z": 1.048100965,
				"element": "H" 
			},
			{
				"x": -4.3393815428,
				"y": 1.4345337428,
				"z": 0.2868493972,
				"element": "H" 
			}
		],
		 "valence_orbital": [ 
			{
				"type": "occ",
				"energy": -0.26416,
				"method": "rhf"
			},
			{
				"type": "occ",
				"energy": -0.25719,
				"method": "rhf"
			},
			{
				"type": "occ",
				"energy": -0.24768,
				"method": "rhf"
			},
			{
				"type": "occ",
				"energy": -0.24551,
				"method": "rhf"
			},
			{
				"type": "occ",
				"energy": -0.23999,
				"method": "rhf"
			},
			{
				"type": "unocc",
				"energy": -0.06292,
				"method": "rhf"
			},
			{
				"type": "unocc",
				"energy": -0.03308,
				"method": "rhf"
			},
			{
				"type": "unocc",
				"energy": -0.00829,
				"method": "rhf"
			},
			{
				"type": "unocc",
				"energy": -0.00383,
				"method": "rhf"
			},
			{
				"type": "unocc",
				"energy": 0.00113,
				"method": "rhf"
			}
		],
		"cosmo_sigma_profile": { 
			"-0.025": 0.0,
			"-0.024": 0.0,
			"-0.023": 0.0,
			"-0.022": 0.0,
			"-0.021": 0.0,
			"-0.02": 0.0,
			"-0.019": 0.0,
			"-0.018": 0.0,
			"-0.017": 0.0,
			"-0.016": 0.0,
			"-0.015": 0.0,
			"-0.014": 0.0,
			"-0.013": 0.0,
			"-0.012": 0.0,
			"-0.011": 0.0,
			"-0.01": 0.0,
			"-0.009": 0.0,
			"-0.008": 0.835088164104,
			"-0.007": 10.8857703752,
			"-0.006": 27.3484000873,
			"-0.005": 29.3685988006,
			"-0.004": 30.16791433,
			"-0.003": 22.0638278229,
			"-0.002": 21.0345079206,
			"-0.001": 19.9394436757,
			"0.0": 23.5182694768,
			"0.001": 28.7177105432,
			"0.002": 38.1990642752,
			"0.003": 28.9552456217,
			"0.004": 26.3681112384,
			"0.005": 19.5278191843,
			"0.006": 6.13148037218,
			"0.007": 3.21844045586,
			"0.008": 3.79896590153,
			"0.009": 4.65665059202,
			"0.01": 4.65165528289,
			"0.011": 5.36333484702,
			"0.012": 0.99546370747,
			"0.013": 0.0,
			"0.014": 0.0,
			"0.015": 0.0,
			"0.016": 0.0,
			"0.017": 0.0,
			"0.018": 0.0,
			"0.019": 0.0,
			"0.02": 0.0,
			"0.021": 0.0,
			"0.022": 0.0,
			"0.023": 0.0,
			"0.024": 0.0,
			"0.025": 0.0
		}
	}
}
