{
	 "smiles": "NC1=C(Br)C=C(Cl)C=C1Br", 
	 "Tm": 367.15, 
	 "num_atms": 14, 
	 "gaussian": { 
		 "optdone": 1, 
		 "sigma_profile": "yes", 
		 "theory": "DFT", 
		 "functional": "B3LYP", 
		 "basiset": "6-31G**", 
		 "properties": { 
			 "R2extent": 4620.6823, 
			 "electric_dipole_moment_norm": 2.13060162865, 
			 "electric_quadrupole_moment_norm": 4.70898855488, 
			 "total_energy": -5888.80484194, 
			 "HOMO_LUMO_gap": 0.18623, 
			 "cosmo_polarized_energy": -5.83, 
			 "cosmo_cavitation_energy": 24.35, 
			 "cosmo_dispersion_energy": -19.32, 
			 "cosmo_repulsion_energy": 1.56, 
			 "cosmo_total_nonelectrostatic_energy": 6.59, 
			 "SMD_solvation_energy": 1.6 
		},
		"coords": [
			{
				"x": -0.6879918708,
				"y": -1.0251896718,
				"z": -1.1730116944,
				"element": "N" 
			},
			{
				"x": 0.2921087958,
				"y": -0.1017916727,
				"z": -0.9089162849,
				"element": "C" 
			},
			{
				"x": 0.2693828128,
				"y": 1.2007499939,
				"z": -1.4550758611,
				"element": "C" 
			},
			{
				"x": -1.1376713425,
				"y": 1.6689078361,
				"z": -2.6659877266,
				"element": "Br" 
			},
			{
				"x": 1.2261932472,
				"y": 2.1629019709,
				"z": -1.1560858383,
				"element": "C" 
			},
			{
				"x": 2.2625093661,
				"y": 1.8393152108,
				"z": -0.2838698777,
				"element": "C" 
			},
			{
				"x": 3.4791995141,
				"y": 3.0420527231,
				"z": 0.1067467906,
				"element": "Cl" 
			},
			{
				"x": 2.3422038933,
				"y": 0.5679570076,
				"z": 0.2789012433,
				"element": "C" 
			},
			{
				"x": 1.3710011367,
				"y": -0.3736339718,
				"z": -0.038573404,
				"element": "C" 
			},
			{
				"x": 1.5114560455,
				"y": -2.1169280734,
				"z": 0.7401286259,
				"element": "Br" 
			},
			{
				"x": -0.4714011047,
				"y": -1.9891467586,
				"z": -0.9682176899,
				"element": "H" 
			},
			{
				"x": -1.2626822212,
				"y": -0.8583066278,
				"z": -1.9853828619,
				"element": "H" 
			},
			{
				"x": 1.1642034211,
				"y": 3.1483765474,
				"z": -1.5998109997,
				"element": "H" 
			},
			{
				"x": 3.1494883065,
				"y": 0.3111354862,
				"z": 0.9528555787,
				"element": "H" 
			}
		],
		 "valence_orbital": [ 
			{
				"type": "occ",
				"energy": -0.31053,
				"method": "rhf"
			},
			{
				"type": "occ",
				"energy": -0.30187,
				"method": "rhf"
			},
			{
				"type": "occ",
				"energy": -0.29794,
				"method": "rhf"
			},
			{
				"type": "occ",
				"energy": -0.25569,
				"method": "rhf"
			},
			{
				"type": "occ",
				"energy": -0.21912,
				"method": "rhf"
			},
			{
				"type": "unocc",
				"energy": -0.03289,
				"method": "rhf"
			},
			{
				"type": "unocc",
				"energy": -0.03178,
				"method": "rhf"
			},
			{
				"type": "unocc",
				"energy": -0.01227,
				"method": "rhf"
			},
			{
				"type": "unocc",
				"energy": 0.01701,
				"method": "rhf"
			},
			{
				"type": "unocc",
				"energy": 0.04149,
				"method": "rhf"
			}
		],
		"cosmo_sigma_profile": { 
			"-0.025": 0.0,
			"-0.024": 0.0,
			"-0.023": 0.0,
			"-0.022": 0.0,
			"-0.021": 0.0,
			"-0.02": 0.0,
			"-0.019": 0.0,
			"-0.018": 0.0,
			"-0.017": 0.0,
			"-0.016": 0.0,
			"-0.015": 0.0,
			"-0.014": 0.0,
			"-0.013": 0.297352702762,
			"-0.012": 1.72522912524,
			"-0.011": 1.78211524092,
			"-0.01": 1.87586210437,
			"-0.009": 2.20173576385,
			"-0.008": 4.21057915924,
			"-0.007": 4.99272886596,
			"-0.006": 4.58727138328,
			"-0.005": 7.00030634272,
			"-0.004": 8.4822790464,
			"-0.003": 9.74020908004,
			"-0.002": 10.3717582435,
			"-0.001": 14.2735626103,
			"0.0": 18.8675931877,
			"0.001": 28.0589487604,
			"0.002": 31.653635995,
			"0.003": 22.0888478224,
			"0.004": 22.2741379223,
			"0.005": 6.70361055816,
			"0.006": 0.363420854855,
			"0.007": 0.63318125982,
			"0.008": 1.06004585866,
			"0.009": 0.399308722761,
			"0.01": 0.588126466859,
			"0.011": 0.214960057438,
			"0.012": 0.0,
			"0.013": 0.0,
			"0.014": 0.0,
			"0.015": 0.0,
			"0.016": 0.0,
			"0.017": 0.0,
			"0.018": 0.0,
			"0.019": 0.0,
			"0.02": 0.0,
			"0.021": 0.0,
			"0.022": 0.0,
			"0.023": 0.0,
			"0.024": 0.0,
			"0.025": 0.0
		}
	}
}
