{
	 "smiles": "CCOC(=O)C(=CC1=NC=CC=C1)C1=CC=CC=C1", 
	 "Tm": 351.0, 
	 "num_atms": 34, 
	 "gaussian": { 
		 "optdone": 1, 
		 "sigma_profile": "yes", 
		 "theory": "DFT", 
		 "functional": "B3LYP", 
		 "basiset": "6-31G**", 
		 "properties": { 
			 "R2extent": 5842.5261, 
			 "electric_dipole_moment_norm": 2.19155481337, 
			 "electric_quadrupole_moment_norm": 13.2635061383, 
			 "total_energy": -823.939807469, 
			 "HOMO_LUMO_gap": 0.16089, 
			 "cosmo_polarized_energy": -11.5, 
			 "cosmo_cavitation_energy": 38.44, 
			 "cosmo_dispersion_energy": -26.66, 
			 "cosmo_repulsion_energy": 2.1, 
			 "cosmo_total_nonelectrostatic_energy": 13.88, 
			 "SMD_solvation_energy": 6.21 
		},
		"coords": [
			{
				"x": 0.8595142284,
				"y": -3.1169077015,
				"z": -3.5609527775,
				"element": "C" 
			},
			{
				"x": 0.4822304327,
				"y": -3.4568660422,
				"z": -2.1266950764,
				"element": "C" 
			},
			{
				"x": -0.076784071,
				"y": -2.3122373063,
				"z": -1.4418931266,
				"element": "O" 
			},
			{
				"x": 0.8066613618,
				"y": -1.4573662486,
				"z": -0.8756982172,
				"element": "C" 
			},
			{
				"x": 2.0117527263,
				"y": -1.6224957485,
				"z": -0.9159467947,
				"element": "O" 
			},
			{
				"x": 0.1492643283,
				"y": -0.2880919978,
				"z": -0.2022671349,
				"element": "C" 
			},
			{
				"x": -1.1832882356,
				"y": -0.1039716866,
				"z": -0.3561205935,
				"element": "C" 
			},
			{
				"x": -2.0535152453,
				"y": 0.9992484829,
				"z": 0.0862669527,
				"element": "C" 
			},
			{
				"x": -3.3636191755,
				"y": 0.6681514826,
				"z": 0.1312956098,
				"element": "N" 
			},
			{
				"x": -4.2417712859,
				"y": 1.60430006,
				"z": 0.4951583616,
				"element": "C" 
			},
			{
				"x": -3.8892970956,
				"y": 2.9190458758,
				"z": 0.8071969571,
				"element": "C" 
			},
			{
				"x": -2.5420835746,
				"y": 3.2708016236,
				"z": 0.7299460422,
				"element": "C" 
			},
			{
				"x": -1.6089625035,
				"y": 2.3034189694,
				"z": 0.3696832602,
				"element": "C" 
			},
			{
				"x": 1.0547333574,
				"y": 0.565878842,
				"z": 0.6175508115,
				"element": "C" 
			},
			{
				"x": 2.1707038699,
				"y": 1.2035313283,
				"z": 0.0534163023,
				"element": "C" 
			},
			{
				"x": 3.0029504953,
				"y": 2.0007781731,
				"z": 0.8390164404,
				"element": "C" 
			},
			{
				"x": 2.7445771376,
				"y": 2.159984393,
				"z": 2.2021009907,
				"element": "C" 
			},
			{
				"x": 1.6477888945,
				"y": 1.5151969952,
				"z": 2.7771708903,
				"element": "C" 
			},
			{
				"x": 0.8103300309,
				"y": 0.7244646751,
				"z": 1.9910760681,
				"element": "C" 
			},
			{
				"x": 1.6661358472,
				"y": -2.380144843,
				"z": -3.5807305878,
				"element": "H" 
			},
			{
				"x": 1.205571477,
				"y": -4.0185930528,
				"z": -4.0773896761,
				"element": "H" 
			},
			{
				"x": -0.0006738172,
				"y": -2.7174483372,
				"z": -4.1062928119,
				"element": "H" 
			},
			{
				"x": 1.3491448643,
				"y": -3.8143666553,
				"z": -1.5661555636,
				"element": "H" 
			},
			{
				"x": -0.3108940823,
				"y": -4.2074975152,
				"z": -2.0887386433,
				"element": "H" 
			},
			{
				"x": -1.7338368715,
				"y": -0.8723712106,
				"z": -0.8885452087,
				"element": "H" 
			},
			{
				"x": -5.2845919837,
				"y": 1.292345866,
				"z": 0.5289504283,
				"element": "H" 
			},
			{
				"x": -4.6491726957,
				"y": 3.6416207514,
				"z": 1.0874862586,
				"element": "H" 
			},
			{
				"x": -2.2203200995,
				"y": 4.2858911128,
				"z": 0.944438533,
				"element": "H" 
			},
			{
				"x": -0.5576969104,
				"y": 2.5506995257,
				"z": 0.2971995026,
				"element": "H" 
			},
			{
				"x": 2.3861019968,
				"y": 1.0679931052,
				"z": -1.0007368947,
				"element": "H" 
			},
			{
				"x": 3.8592852643,
				"y": 2.4923897663,
				"z": 0.3861631344,
				"element": "H" 
			},
			{
				"x": 3.3979793053,
				"y": 2.7761860857,
				"z": 2.8131733901,
				"element": "H" 
			},
			{
				"x": 1.4458857754,
				"y": 1.6232047492,
				"z": 3.8391121266,
				"element": "H" 
			},
			{
				"x": -0.0398037462,
				"y": 0.219326482,
				"z": 2.4398610467,
				"element": "H" 
			}
		],
		 "valence_orbital": [ 
			{
				"type": "occ",
				"energy": -0.27004,
				"method": "rhf"
			},
			{
				"type": "occ",
				"energy": -0.25951,
				"method": "rhf"
			},
			{
				"type": "occ",
				"energy": -0.25687,
				"method": "rhf"
			},
			{
				"type": "occ",
				"energy": -0.24722,
				"method": "rhf"
			},
			{
				"type": "occ",
				"energy": -0.2283,
				"method": "rhf"
			},
			{
				"type": "unocc",
				"energy": -0.06741,
				"method": "rhf"
			},
			{
				"type": "unocc",
				"energy": -0.02356,
				"method": "rhf"
			},
			{
				"type": "unocc",
				"energy": -0.00243,
				"method": "rhf"
			},
			{
				"type": "unocc",
				"energy": 0.00233,
				"method": "rhf"
			},
			{
				"type": "unocc",
				"energy": 0.01494,
				"method": "rhf"
			}
		],
		"cosmo_sigma_profile": { 
			"-0.025": 0.0,
			"-0.024": 0.0,
			"-0.023": 0.0,
			"-0.022": 0.0,
			"-0.021": 0.0,
			"-0.02": 0.0,
			"-0.019": 0.0,
			"-0.018": 0.0,
			"-0.017": 0.0,
			"-0.016": 0.0,
			"-0.015": 0.0,
			"-0.014": 0.0,
			"-0.013": 0.0,
			"-0.012": 0.0,
			"-0.011": 0.0,
			"-0.01": 0.0,
			"-0.009": 0.0,
			"-0.008": 0.389493178988,
			"-0.007": 4.72060367106,
			"-0.006": 13.1606699678,
			"-0.005": 24.1929713732,
			"-0.004": 27.2603468282,
			"-0.003": 29.4630640798,
			"-0.002": 27.4086651863,
			"-0.001": 27.3639406551,
			"0.0": 27.7332246367,
			"0.001": 27.4104168962,
			"0.002": 26.2535526288,
			"0.003": 17.9360963177,
			"0.004": 13.218891429,
			"0.005": 11.3468586118,
			"0.006": 6.17882971833,
			"0.007": 2.8106189908,
			"0.008": 3.43492303252,
			"0.009": 2.69300315654,
			"0.01": 2.76999595632,
			"0.011": 3.50444998759,
			"0.012": 4.953744676,
			"0.013": 1.37377425581,
			"0.014": 0.485237910739,
			"0.015": 0.809866172806,
			"0.016": 0.168163857853,
			"0.017": 0.0,
			"0.018": 0.0,
			"0.019": 0.0,
			"0.02": 0.0,
			"0.021": 0.0,
			"0.022": 0.0,
			"0.023": 0.0,
			"0.024": 0.0,
			"0.025": 0.0
		}
	}
}
