{
	 "smiles": "CC1=CC=C(C=C1)C(=O)N(NC(=O)C1=CC=CC=C1)C(C)(C)C", 
	 "Tm": 461.15, 
	 "num_atms": 45, 
	 "gaussian": { 
		 "optdone": 1, 
		 "sigma_profile": "yes", 
		 "theory": "DFT", 
		 "functional": "B3LYP", 
		 "basiset": "6-31G**", 
		 "properties": { 
			 "R2extent": 9767.588, 
			 "electric_dipole_moment_norm": 1.99554079387, 
			 "electric_quadrupole_moment_norm": 21.4723651774, 
			 "total_energy": -997.239385207, 
			 "HOMO_LUMO_gap": 0.19945, 
			 "cosmo_polarized_energy": -15.21, 
			 "cosmo_cavitation_energy": 47.33, 
			 "cosmo_dispersion_energy": -31.39, 
			 "cosmo_repulsion_energy": 2.37, 
			 "cosmo_total_nonelectrostatic_energy": 18.32, 
			 "SMD_solvation_energy": 9.52 
		},
		"coords": [
			{
				"x": 5.6923335208,
				"y": 0.2218120136,
				"z": 0.434481468,
				"element": "C" 
			},
			{
				"x": 4.2124636654,
				"y": -0.0647876827,
				"z": 0.5201610663,
				"element": "C" 
			},
			{
				"x": 3.6973413228,
				"y": -0.8782498907,
				"z": 1.5423292433,
				"element": "C" 
			},
			{
				"x": 2.3334218051,
				"y": -1.1337209014,
				"z": 1.636700103,
				"element": "C" 
			},
			{
				"x": 1.4428525828,
				"y": -0.5486866835,
				"z": 0.7261627568,
				"element": "C" 
			},
			{
				"x": 1.9457793341,
				"y": 0.2490144479,
				"z": -0.310483709,
				"element": "C" 
			},
			{
				"x": 3.3167674965,
				"y": 0.4796247414,
				"z": -0.410182279,
				"element": "C" 
			},
			{
				"x": 0.0002541585,
				"y": -0.917303822,
				"z": 0.7688354303,
				"element": "C" 
			},
			{
				"x": -0.3492402016,
				"y": -2.0697331954,
				"z": 1.0079063606,
				"element": "O" 
			},
			{
				"x": -0.9450359121,
				"y": 0.0568056924,
				"z": 0.3732057837,
				"element": "N" 
			},
			{
				"x": -2.1373827922,
				"y": -0.5542769707,
				"z": -0.0643265586,
				"element": "N" 
			},
			{
				"x": -2.3316785171,
				"y": -0.6137456797,
				"z": -1.4446873618,
				"element": "C" 
			},
			{
				"x": -1.6618367385,
				"y": 0.0281919148,
				"z": -2.2391575486,
				"element": "O" 
			},
			{
				"x": -3.467313003,
				"y": -1.4943176852,
				"z": -1.880131391,
				"element": "C" 
			},
			{
				"x": -4.4856195023,
				"y": -1.9282442777,
				"z": -1.0183475416,
				"element": "C" 
			},
			{
				"x": -5.5086065686,
				"y": -2.7470228666,
				"z": -1.4971149146,
				"element": "C" 
			},
			{
				"x": -5.5237259131,
				"y": -3.1379018623,
				"z": -2.8372666797,
				"element": "C" 
			},
			{
				"x": -4.5178859578,
				"y": -2.6992421305,
				"z": -3.7027505531,
				"element": "C" 
			},
			{
				"x": -3.4989773146,
				"y": -1.8773347043,
				"z": -3.2282417389,
				"element": "C" 
			},
			{
				"x": -1.217807325,
				"y": 1.3351107716,
				"z": 1.1416094136,
				"element": "C" 
			},
			{
				"x": -1.9469289427,
				"y": 2.3006438057,
				"z": 0.1931885155,
				"element": "C" 
			},
			{
				"x": 0.0720552349,
				"y": 2.0064294428,
				"z": 1.6346299498,
				"element": "C" 
			},
			{
				"x": -2.1032815967,
				"y": 1.0059005586,
				"z": 2.3614318635,
				"element": "C" 
			},
			{
				"x": 5.989725245,
				"y": 0.4924325515,
				"z": -0.5826286064,
				"element": "H" 
			},
			{
				"x": 5.9700800082,
				"y": 1.0571861111,
				"z": 1.0896610633,
				"element": "H" 
			},
			{
				"x": 6.2865807411,
				"y": -0.6431615535,
				"z": 0.7448678839,
				"element": "H" 
			},
			{
				"x": 4.3782318407,
				"y": -1.3252970716,
				"z": 2.2624385522,
				"element": "H" 
			},
			{
				"x": 1.9437971122,
				"y": -1.7894724428,
				"z": 2.408964849,
				"element": "H" 
			},
			{
				"x": 1.2571273345,
				"y": 0.6484140254,
				"z": -1.0485338443,
				"element": "H" 
			},
			{
				"x": 3.6989961194,
				"y": 1.084812797,
				"z": -1.2283246629,
				"element": "H" 
			},
			{
				"x": -2.3320107161,
				"y": -1.4102416251,
				"z": 0.4487438117,
				"element": "H" 
			},
			{
				"x": -4.5010748549,
				"y": -1.6065140385,
				"z": 0.018231719,
				"element": "H" 
			},
			{
				"x": -6.2970172572,
				"y": -3.073317035,
				"z": -0.8251622586,
				"element": "H" 
			},
			{
				"x": -6.3202558452,
				"y": -3.777001302,
				"z": -3.2076023119,
				"element": "H" 
			},
			{
				"x": -4.5303839648,
				"y": -2.9973251618,
				"z": -4.7471033542,
				"element": "H" 
			},
			{
				"x": -2.7130115194,
				"y": -1.5162403286,
				"z": -3.8827570382,
				"element": "H" 
			},
			{
				"x": -2.1214350503,
				"y": 3.2535739987,
				"z": 0.7028665696,
				"element": "H" 
			},
			{
				"x": -2.9151774607,
				"y": 1.9008753713,
				"z": -0.1151523671,
				"element": "H" 
			},
			{
				"x": -1.3517456417,
				"y": 2.4816949034,
				"z": -0.7047275894,
				"element": "H" 
			},
			{
				"x": 0.7322117387,
				"y": 2.2848564618,
				"z": 0.8118406856,
				"element": "H" 
			},
			{
				"x": 0.6353960357,
				"y": 1.3809547256,
				"z": 2.3306088407,
				"element": "H" 
			},
			{
				"x": -0.2116098883,
				"y": 2.9204191523,
				"z": 2.1652823147,
				"element": "H" 
			},
			{
				"x": -2.3472457742,
				"y": 1.9227989481,
				"z": 2.9074008997,
				"element": "H" 
			},
			{
				"x": -3.0417463509,
				"y": 0.5394611038,
				"z": 2.0516689871,
				"element": "H" 
			},
			{
				"x": -1.5877806875,
				"y": 0.3283253727,
				"z": 3.0505641779,
				"element": "H" 
			}
		],
		 "valence_orbital": [ 
			{
				"type": "occ",
				"energy": -0.2568,
				"method": "rhf"
			},
			{
				"type": "occ",
				"energy": -0.25389,
				"method": "rhf"
			},
			{
				"type": "occ",
				"energy": -0.24866,
				"method": "rhf"
			},
			{
				"type": "occ",
				"energy": -0.24394,
				"method": "rhf"
			},
			{
				"type": "occ",
				"energy": -0.2395,
				"method": "rhf"
			},
			{
				"type": "unocc",
				"energy": -0.04005,
				"method": "rhf"
			},
			{
				"type": "unocc",
				"energy": -0.03727,
				"method": "rhf"
			},
			{
				"type": "unocc",
				"energy": -0.00658,
				"method": "rhf"
			},
			{
				"type": "unocc",
				"energy": -0.00635,
				"method": "rhf"
			},
			{
				"type": "unocc",
				"energy": 0.03221,
				"method": "rhf"
			}
		],
		"cosmo_sigma_profile": { 
			"-0.025": 0.0,
			"-0.024": 0.0,
			"-0.023": 0.0,
			"-0.022": 0.0,
			"-0.021": 0.0,
			"-0.02": 0.0,
			"-0.019": 0.0,
			"-0.018": 0.0,
			"-0.017": 0.0,
			"-0.016": 0.0,
			"-0.015": 0.0,
			"-0.014": 0.0,
			"-0.013": 0.0,
			"-0.012": 0.025612197357,
			"-0.011": 0.720805783874,
			"-0.01": 0.607824934109,
			"-0.009": 1.07291136336,
			"-0.008": 1.10232987404,
			"-0.007": 2.69466109246,
			"-0.006": 13.2017067565,
			"-0.005": 22.2434913142,
			"-0.004": 37.8935826194,
			"-0.003": 35.8006804608,
			"-0.002": 35.8637930906,
			"-0.001": 39.0978538316,
			"0.0": 42.3306028785,
			"0.001": 31.5644909894,
			"0.002": 20.8057958586,
			"0.003": 19.6164778563,
			"0.004": 26.0080143524,
			"0.005": 8.57094500963,
			"0.006": 4.42084450041,
			"0.007": 3.60163697087,
			"0.008": 5.0083381774,
			"0.009": 4.04481147261,
			"0.01": 3.29329981055,
			"0.011": 4.84853368571,
			"0.012": 5.58509161397,
			"0.013": 3.72800964143,
			"0.014": 0.135455901845,
			"0.015": 0.0,
			"0.016": 0.0,
			"0.017": 0.0,
			"0.018": 0.0,
			"0.019": 0.0,
			"0.02": 0.0,
			"0.021": 0.0,
			"0.022": 0.0,
			"0.023": 0.0,
			"0.024": 0.0,
			"0.025": 0.0
		}
	}
}
