{
	 "smiles": "CC(C)SC1=CC=C(C=C1)C(O)=O", 
	 "Tm": 413.15, 
	 "num_atms": 25, 
	 "gaussian": { 
		 "optdone": 1, 
		 "sigma_profile": "yes", 
		 "theory": "DFT", 
		 "functional": "B3LYP", 
		 "basiset": "6-31G**", 
		 "properties": { 
			 "R2extent": 4808.1195, 
			 "electric_dipole_moment_norm": 3.43650662156, 
			 "electric_quadrupole_moment_norm": 8.58656480672, 
			 "total_energy": -936.961215035, 
			 "HOMO_LUMO_gap": 0.17143, 
			 "cosmo_polarized_energy": -10.81, 
			 "cosmo_cavitation_energy": 29.99, 
			 "cosmo_dispersion_energy": -22.15, 
			 "cosmo_repulsion_energy": 1.71, 
			 "cosmo_total_nonelectrostatic_energy": 9.55, 
			 "SMD_solvation_energy": 6.06 
		},
		"coords": [
			{
				"x": -0.3855505088,
				"y": -1.0028018522,
				"z": 2.0662425305,
				"element": "C" 
			},
			{
				"x": -1.2598913175,
				"y": 0.0006090832,
				"z": 1.3115317603,
				"element": "C" 
			},
			{
				"x": -2.7462772987,
				"y": -0.1540028416,
				"z": 1.6538552026,
				"element": "C" 
			},
			{
				"x": -1.128850215,
				"y": -0.1947687133,
				"z": -0.5270663188,
				"element": "S" 
			},
			{
				"x": 0.5461962834,
				"y": 0.2478085346,
				"z": -0.9313240488,
				"element": "C" 
			},
			{
				"x": 1.3720855281,
				"y": 1.0537640282,
				"z": -0.1313123622,
				"element": "C" 
			},
			{
				"x": 2.6570755149,
				"y": 1.383087601,
				"z": -0.5544283197,
				"element": "C" 
			},
			{
				"x": 3.1386019551,
				"y": 0.9278416698,
				"z": -1.7884362826,
				"element": "C" 
			},
			{
				"x": 2.3107377818,
				"y": 0.1305513683,
				"z": -2.5929063262,
				"element": "C" 
			},
			{
				"x": 1.0349810365,
				"y": -0.2120673776,
				"z": -2.1689306031,
				"element": "C" 
			},
			{
				"x": 4.4963606221,
				"y": 1.2535201957,
				"z": -2.2841912554,
				"element": "C" 
			},
			{
				"x": 5.2088381289,
				"y": 2.0261721514,
				"z": -1.4223871411,
				"element": "O" 
			},
			{
				"x": 4.9586669157,
				"y": 0.8847344638,
				"z": -3.3471160402,
				"element": "O" 
			},
			{
				"x": 0.6690269561,
				"y": -0.9093164685,
				"z": 1.7951954411,
				"element": "H" 
			},
			{
				"x": -0.4739941605,
				"y": -0.8359778976,
				"z": 3.146533251,
				"element": "H" 
			},
			{
				"x": -0.7023194395,
				"y": -2.0277325983,
				"z": 1.8503935045,
				"element": "H" 
			},
			{
				"x": -0.955030667,
				"y": 1.024381925,
				"z": 1.5520604831,
				"element": "H" 
			},
			{
				"x": -2.8879500776,
				"y": -0.0307434903,
				"z": 2.7326259595,
				"element": "H" 
			},
			{
				"x": -3.1131189285,
				"y": -1.1487381177,
				"z": 1.3796321891,
				"element": "H" 
			},
			{
				"x": -3.3589184843,
				"y": 0.5921577921,
				"z": 1.1404895642,
				"element": "H" 
			},
			{
				"x": 1.0186439078,
				"y": 1.4349983675,
				"z": 0.8198503673,
				"element": "H" 
			},
			{
				"x": 3.2887760083,
				"y": 2.0037519116,
				"z": 0.0712022509,
				"element": "H" 
			},
			{
				"x": 2.6936263961,
				"y": -0.220753161,
				"z": -3.5452214882,
				"element": "H" 
			},
			{
				"x": 0.4087546671,
				"y": -0.8447533744,
				"z": -2.7908090938,
				"element": "H" 
			},
			{
				"x": 6.0671293955,
				"y": 2.1714768003,
				"z": -1.852683224,
				"element": "H" 
			}
		],
		 "valence_orbital": [ 
			{
				"type": "occ",
				"energy": -0.31423,
				"method": "rhf"
			},
			{
				"type": "occ",
				"energy": -0.28852,
				"method": "rhf"
			},
			{
				"type": "occ",
				"energy": -0.27344,
				"method": "rhf"
			},
			{
				"type": "occ",
				"energy": -0.26283,
				"method": "rhf"
			},
			{
				"type": "occ",
				"energy": -0.21874,
				"method": "rhf"
			},
			{
				"type": "unocc",
				"energy": -0.04731,
				"method": "rhf"
			},
			{
				"type": "unocc",
				"energy": -0.01254,
				"method": "rhf"
			},
			{
				"type": "unocc",
				"energy": 0.03072,
				"method": "rhf"
			},
			{
				"type": "unocc",
				"energy": 0.05592,
				"method": "rhf"
			},
			{
				"type": "unocc",
				"energy": 0.0651,
				"method": "rhf"
			}
		],
		"cosmo_sigma_profile": { 
			"-0.025": 0.0,
			"-0.024": 0.0,
			"-0.023": 0.0,
			"-0.022": 0.0,
			"-0.021": 0.0,
			"-0.02": 0.0,
			"-0.019": 0.0,
			"-0.018": 0.610869464179,
			"-0.017": 0.976607673255,
			"-0.016": 0.913616256289,
			"-0.015": 0.893497675959,
			"-0.014": 0.466998933989,
			"-0.013": 0.11814527933,
			"-0.012": 1.07759977353,
			"-0.011": 0.795902933097,
			"-0.01": 0.681133813676,
			"-0.009": 0.85986442088,
			"-0.008": 1.5874978439,
			"-0.007": 4.56267916906,
			"-0.006": 8.10758546475,
			"-0.005": 10.0318807298,
			"-0.004": 15.8038574237,
			"-0.003": 21.2558736952,
			"-0.002": 23.1324786613,
			"-0.001": 22.1104990699,
			"0.0": 25.9347184446,
			"0.001": 17.9163124979,
			"0.002": 13.8918875656,
			"0.003": 20.4918910864,
			"0.004": 10.8035975979,
			"0.005": 7.88816595976,
			"0.006": 4.83958172396,
			"0.007": 6.48054008023,
			"0.008": 4.51311787379,
			"0.009": 2.03732489202,
			"0.01": 1.90659990952,
			"0.011": 3.15648329228,
			"0.012": 4.96570637725,
			"0.013": 0.323119171118,
			"0.014": 0.0,
			"0.015": 0.0,
			"0.016": 0.0,
			"0.017": 0.0,
			"0.018": 0.0,
			"0.019": 0.0,
			"0.02": 0.0,
			"0.021": 0.0,
			"0.022": 0.0,
			"0.023": 0.0,
			"0.024": 0.0,
			"0.025": 0.0
		}
	}
}
