{
	 "smiles": "ClC1=CC2=C(OC3=C(O2)C=C(Cl)C=C3)C=C1", 
	 "Tm": 424.15, 
	 "num_atms": 22, 
	 "gaussian": { 
		 "optdone": 1, 
		 "sigma_profile": "yes", 
		 "theory": "DFT", 
		 "functional": "B3LYP", 
		 "basiset": "6-31G**", 
		 "properties": { 
			 "R2extent": 6387.3492, 
			 "electric_dipole_moment_norm": 1.82856639201, 
			 "electric_quadrupole_moment_norm": 7.36023742824, 
			 "total_energy": -1531.70728591, 
			 "HOMO_LUMO_gap": 0.17735, 
			 "cosmo_polarized_energy": -5.67, 
			 "cosmo_cavitation_energy": 30.53, 
			 "cosmo_dispersion_energy": -23.4, 
			 "cosmo_repulsion_energy": 1.79, 
			 "cosmo_total_nonelectrostatic_energy": 8.92, 
			 "SMD_solvation_energy": 5.04 
		},
		"coords": [
			{
				"x": 5.6748959884,
				"y": 2.217810514,
				"z": 0.3011994341,
				"element": "Cl" 
			},
			{
				"x": 3.954015012,
				"y": 1.9222148154,
				"z": 0.4828245505,
				"element": "C" 
			},
			{
				"x": 3.3714662698,
				"y": 0.8647801664,
				"z": -0.2178250823,
				"element": "C" 
			},
			{
				"x": 2.0089701884,
				"y": 0.6311591286,
				"z": -0.0736754425,
				"element": "C" 
			},
			{
				"x": 1.2337857369,
				"y": 1.4442337788,
				"z": 0.7613948353,
				"element": "C" 
			},
			{
				"x": -0.1202299827,
				"y": 1.2376430327,
				"z": 0.9250511679,
				"element": "O" 
			},
			{
				"x": -0.6680946304,
				"y": 0.1858346596,
				"z": 0.2205240225,
				"element": "C" 
			},
			{
				"x": 0.1074827538,
				"y": -0.6269882851,
				"z": -0.6144257896,
				"element": "C" 
			},
			{
				"x": 1.4612588757,
				"y": -0.4204765384,
				"z": -0.7780986234,
				"element": "O" 
			},
			{
				"x": -0.4739641542,
				"y": -1.6795469075,
				"z": -1.3114213687,
				"element": "C" 
			},
			{
				"x": -1.842435844,
				"y": -1.9129571495,
				"z": -1.1656621865,
				"element": "C" 
			},
			{
				"x": -2.5774356553,
				"y": -3.242250083,
				"z": -2.0457426616,
				"element": "Cl" 
			},
			{
				"x": -2.6282413131,
				"y": -1.1134536744,
				"z": -0.3388441189,
				"element": "C" 
			},
			{
				"x": -2.029209316,
				"y": -0.0598543909,
				"z": 0.3547290718,
				"element": "C" 
			},
			{
				"x": 1.8290412317,
				"y": 2.4929206118,
				"z": 1.4520041717,
				"element": "C" 
			},
			{
				"x": 3.1967417979,
				"y": 2.7405755915,
				"z": 1.3177807504,
				"element": "C" 
			},
			{
				"x": 3.9536885084,
				"y": 0.2239455499,
				"z": -0.8690376827,
				"element": "H" 
			},
			{
				"x": 0.1437670202,
				"y": -2.2968866807,
				"z": -1.9525338402,
				"element": "H" 
			},
			{
				"x": -3.6892205074,
				"y": -1.3075911734,
				"z": -0.2363227748,
				"element": "H" 
			},
			{
				"x": -2.6104847981,
				"y": 0.5828742487,
				"z": 1.0072167942,
				"element": "H" 
			},
			{
				"x": 1.2088901842,
				"y": 3.1099046161,
				"z": 2.093458311,
				"element": "H" 
			},
			{
				"x": 3.663812634,
				"y": 3.5574081694,
				"z": 1.8549064618,
				"element": "H" 
			}
		],
		 "valence_orbital": [ 
			{
				"type": "occ",
				"energy": -0.31429,
				"method": "rhf"
			},
			{
				"type": "occ",
				"energy": -0.28283,
				"method": "rhf"
			},
			{
				"type": "occ",
				"energy": -0.26226,
				"method": "rhf"
			},
			{
				"type": "occ",
				"energy": -0.25304,
				"method": "rhf"
			},
			{
				"type": "occ",
				"energy": -0.21095,
				"method": "rhf"
			},
			{
				"type": "unocc",
				"energy": -0.0336,
				"method": "rhf"
			},
			{
				"type": "unocc",
				"energy": -0.02373,
				"method": "rhf"
			},
			{
				"type": "unocc",
				"energy": -0.02331,
				"method": "rhf"
			},
			{
				"type": "unocc",
				"energy": 0.00938,
				"method": "rhf"
			},
			{
				"type": "unocc",
				"energy": 0.01632,
				"method": "rhf"
			}
		],
		"cosmo_sigma_profile": { 
			"-0.025": 0.0,
			"-0.024": 0.0,
			"-0.023": 0.0,
			"-0.022": 0.0,
			"-0.021": 0.0,
			"-0.02": 0.0,
			"-0.019": 0.0,
			"-0.018": 0.0,
			"-0.017": 0.0,
			"-0.016": 0.0,
			"-0.015": 0.0,
			"-0.014": 0.0,
			"-0.013": 0.0,
			"-0.012": 0.0,
			"-0.011": 0.0,
			"-0.01": 0.0,
			"-0.009": 0.347040306725,
			"-0.008": 5.98056854787,
			"-0.007": 10.9016126263,
			"-0.006": 10.8565064171,
			"-0.005": 10.5270442923,
			"-0.004": 9.81349367117,
			"-0.003": 11.3107853858,
			"-0.002": 14.4197299798,
			"-0.001": 16.041772761,
			"0.0": 24.9391701241,
			"0.001": 37.9148312267,
			"0.002": 36.4601885276,
			"0.003": 23.8467233167,
			"0.004": 21.5120366664,
			"0.005": 11.8484793765,
			"0.006": 3.51228672061,
			"0.007": 1.53844167128,
			"0.008": 0.0,
			"0.009": 0.0,
			"0.01": 0.0,
			"0.011": 0.0,
			"0.012": 0.0,
			"0.013": 0.0,
			"0.014": 0.0,
			"0.015": 0.0,
			"0.016": 0.0,
			"0.017": 0.0,
			"0.018": 0.0,
			"0.019": 0.0,
			"0.02": 0.0,
			"0.021": 0.0,
			"0.022": 0.0,
			"0.023": 0.0,
			"0.024": 0.0,
			"0.025": 0.0
		}
	}
}
