{
	 "smiles": "SC1=NN=NN1C1=CC2=C(OCO2)C=C1", 
	 "Tm": 431.15, 
	 "num_atms": 21, 
	 "gaussian": { 
		 "optdone": 1, 
		 "sigma_profile": "yes", 
		 "theory": "DFT", 
		 "functional": "B3LYP", 
		 "basiset": "6-31G**", 
		 "properties": { 
			 "R2extent": 4668.8, 
			 "electric_dipole_moment_norm": 7.56962496495, 
			 "electric_quadrupole_moment_norm": 18.1069066425, 
			 "total_energy": -1076.00864264, 
			 "HOMO_LUMO_gap": 0.19231, 
			 "cosmo_polarized_energy": -16.75, 
			 "cosmo_cavitation_energy": 28.07, 
			 "cosmo_dispersion_energy": -21.28, 
			 "cosmo_repulsion_energy": 1.6, 
			 "cosmo_total_nonelectrostatic_energy": 8.39, 
			 "SMD_solvation_energy": 3.14 
		},
		"coords": [
			{
				"x": -3.1727723829,
				"y": -2.6928078158,
				"z": -0.4494664611,
				"element": "S" 
			},
			{
				"x": -2.006238243,
				"y": -2.8587760326,
				"z": 0.8550336319,
				"element": "C" 
			},
			{
				"x": -1.7783613342,
				"y": -4.0068688974,
				"z": 1.4657142115,
				"element": "N" 
			},
			{
				"x": -0.8459336341,
				"y": -3.7394711349,
				"z": 2.4192471984,
				"element": "N" 
			},
			{
				"x": -0.501853493,
				"y": -2.4999844241,
				"z": 2.4159584931,
				"element": "N" 
			},
			{
				"x": -1.2230066855,
				"y": -1.8983916176,
				"z": 1.4154476495,
				"element": "N" 
			},
			{
				"x": -1.0975574884,
				"y": -0.5036420071,
				"z": 1.148168749,
				"element": "C" 
			},
			{
				"x": -0.7440832585,
				"y": -0.0835616445,
				"z": -0.1523483069,
				"element": "C" 
			},
			{
				"x": -0.6274574905,
				"y": 1.2785203046,
				"z": -0.3384346256,
				"element": "C" 
			},
			{
				"x": -0.8264205415,
				"y": 2.189491357,
				"z": 0.7001034353,
				"element": "C" 
			},
			{
				"x": -0.6530271197,
				"y": 3.4639848718,
				"z": 0.2330595177,
				"element": "O" 
			},
			{
				"x": -0.2075851107,
				"y": 3.3324129412,
				"z": -1.1241116012,
				"element": "C" 
			},
			{
				"x": -0.318227076,
				"y": 1.9490644322,
				"z": -1.4905891305,
				"element": "O" 
			},
			{
				"x": -1.1568835234,
				"y": 1.7810965354,
				"z": 1.9778673406,
				"element": "C" 
			},
			{
				"x": -1.2985243316,
				"y": 0.3999720357,
				"z": 2.1913458123,
				"element": "C" 
			},
			{
				"x": -3.0982347391,
				"y": -1.3485815477,
				"z": -0.5228817271,
				"element": "H" 
			},
			{
				"x": -0.5502398168,
				"y": -0.7907426901,
				"z": -0.9498198137,
				"element": "H" 
			},
			{
				"x": 0.8412906018,
				"y": 3.6477471402,
				"z": -1.1982167028,
				"element": "H" 
			},
			{
				"x": -0.8462405341,
				"y": 3.934417458,
				"z": -1.7774443458,
				"element": "H" 
			},
			{
				"x": -1.3055229456,
				"y": 2.4959940409,
				"z": 2.778401339,
				"element": "H" 
			},
			{
				"x": -1.5541208534,
				"y": 0.0208266948,
				"z": 3.1736653364,
				"element": "H" 
			}
		],
		 "valence_orbital": [ 
			{
				"type": "occ",
				"energy": -0.29707,
				"method": "rhf"
			},
			{
				"type": "occ",
				"energy": -0.28759,
				"method": "rhf"
			},
			{
				"type": "occ",
				"energy": -0.27589,
				"method": "rhf"
			},
			{
				"type": "occ",
				"energy": -0.2586,
				"method": "rhf"
			},
			{
				"type": "occ",
				"energy": -0.23362,
				"method": "rhf"
			},
			{
				"type": "unocc",
				"energy": -0.04131,
				"method": "rhf"
			},
			{
				"type": "unocc",
				"energy": -0.03069,
				"method": "rhf"
			},
			{
				"type": "unocc",
				"energy": -0.00505,
				"method": "rhf"
			},
			{
				"type": "unocc",
				"energy": 0.00276,
				"method": "rhf"
			},
			{
				"type": "unocc",
				"energy": 0.02352,
				"method": "rhf"
			}
		],
		"cosmo_sigma_profile": { 
			"-0.025": 0.0,
			"-0.024": 0.0,
			"-0.023": 0.0,
			"-0.022": 0.0,
			"-0.021": 0.0,
			"-0.02": 0.0,
			"-0.019": 0.0,
			"-0.018": 0.0,
			"-0.017": 0.0,
			"-0.016": 0.0,
			"-0.015": 0.0,
			"-0.014": 0.0,
			"-0.013": 0.390167415838,
			"-0.012": 1.02186074441,
			"-0.011": 1.16056205082,
			"-0.01": 1.55988039991,
			"-0.009": 3.55357159739,
			"-0.008": 13.2891360149,
			"-0.007": 15.6460289781,
			"-0.006": 14.2011686167,
			"-0.005": 11.8755025066,
			"-0.004": 10.4682493352,
			"-0.003": 11.016666441,
			"-0.002": 10.9767822154,
			"-0.001": 12.5299693731,
			"0.0": 15.6088731601,
			"0.001": 19.1759619949,
			"0.002": 16.410454229,
			"0.003": 11.2193742175,
			"0.004": 7.83158584127,
			"0.005": 7.78218618024,
			"0.006": 6.59893230775,
			"0.007": 7.6671826719,
			"0.008": 7.50250947631,
			"0.009": 7.46412192678,
			"0.01": 4.17996020246,
			"0.011": 4.40499767377,
			"0.012": 2.36295764465,
			"0.013": 2.53786828639,
			"0.014": 0.943297670855,
			"0.015": 0.158412197586,
			"0.016": 0.0,
			"0.017": 0.0,
			"0.018": 0.0,
			"0.019": 0.0,
			"0.02": 0.0,
			"0.021": 0.0,
			"0.022": 0.0,
			"0.023": 0.0,
			"0.024": 0.0,
			"0.025": 0.0
		}
	}
}
