{
	 "smiles": "CN1C=C(Br)C2=C1C(=O)NC=C2", 
	 "Tm": 469.15, 
	 "num_atms": 19, 
	 "gaussian": { 
		 "optdone": 1, 
		 "sigma_profile": "yes", 
		 "theory": "DFT", 
		 "functional": "B3LYP", 
		 "basiset": "6-31G**", 
		 "properties": { 
			 "R2extent": 4419.9163, 
			 "electric_dipole_moment_norm": 0.303549584088, 
			 "electric_quadrupole_moment_norm": 18.2502131481, 
			 "total_energy": -3065.21228046, 
			 "HOMO_LUMO_gap": 0.18459, 
			 "cosmo_polarized_energy": -12.7, 
			 "cosmo_cavitation_energy": 25.39, 
			 "cosmo_dispersion_energy": -19.26, 
			 "cosmo_repulsion_energy": 1.52, 
			 "cosmo_total_nonelectrostatic_energy": 7.65, 
			 "SMD_solvation_energy": 4.22 
		},
		"coords": [
			{
				"x": 1.0631842085,
				"y": 1.5594032214,
				"z": -2.1169761006,
				"element": "C" 
			},
			{
				"x": -0.2302751206,
				"y": 1.130287408,
				"z": -1.5949234269,
				"element": "N" 
			},
			{
				"x": -1.4495054839,
				"y": 1.6234380785,
				"z": -1.9788096411,
				"element": "C" 
			},
			{
				"x": -2.441681689,
				"y": 0.9767066808,
				"z": -1.2685431989,
				"element": "C" 
			},
			{
				"x": -4.2946393557,
				"y": 1.2962199008,
				"z": -1.4320924581,
				"element": "Br" 
			},
			{
				"x": -1.8208213357,
				"y": 0.0388302939,
				"z": -0.4029915405,
				"element": "C" 
			},
			{
				"x": -0.4399189392,
				"y": 0.1641264371,
				"z": -0.6355000359,
				"element": "C" 
			},
			{
				"x": 0.5636165047,
				"y": -0.6155445623,
				"z": 0.0450523462,
				"element": "C" 
			},
			{
				"x": 1.7867879851,
				"y": -0.5618388009,
				"z": -0.1050618002,
				"element": "O" 
			},
			{
				"x": -0.0205781252,
				"y": -1.5041979283,
				"z": 0.9588832275,
				"element": "N" 
			},
			{
				"x": -1.3713291169,
				"y": -1.6523846719,
				"z": 1.2113714811,
				"element": "C" 
			},
			{
				"x": -2.2992679697,
				"y": -0.9062284621,
				"z": 0.5573828409,
				"element": "C" 
			},
			{
				"x": 1.5878668969,
				"y": 0.7193571637,
				"z": -2.575390227,
				"element": "H" 
			},
			{
				"x": 1.6887222878,
				"y": 1.9511587801,
				"z": -1.3130197316,
				"element": "H" 
			},
			{
				"x": 0.8904039081,
				"y": 2.3374817175,
				"z": -2.8624077583,
				"element": "H" 
			},
			{
				"x": -1.5311617879,
				"y": 2.3972208591,
				"z": -2.7272680896,
				"element": "H" 
			},
			{
				"x": 0.6497402783,
				"y": -2.072510779,
				"z": 1.459896506,
				"element": "H" 
			},
			{
				"x": -1.6261796544,
				"y": -2.3958734101,
				"z": 1.9572366415,
				"element": "H" 
			},
			{
				"x": -3.3563634913,
				"y": -1.0249519262,
				"z": 0.7576609653,
				"element": "H" 
			}
		],
		 "valence_orbital": [ 
			{
				"type": "occ",
				"energy": -0.28798,
				"method": "rhf"
			},
			{
				"type": "occ",
				"energy": -0.27679,
				"method": "rhf"
			},
			{
				"type": "occ",
				"energy": -0.25277,
				"method": "rhf"
			},
			{
				"type": "occ",
				"energy": -0.22482,
				"method": "rhf"
			},
			{
				"type": "occ",
				"energy": -0.20332,
				"method": "rhf"
			},
			{
				"type": "unocc",
				"energy": -0.01873,
				"method": "rhf"
			},
			{
				"type": "unocc",
				"energy": 0.00256,
				"method": "rhf"
			},
			{
				"type": "unocc",
				"energy": 0.01896,
				"method": "rhf"
			},
			{
				"type": "unocc",
				"energy": 0.0609,
				"method": "rhf"
			},
			{
				"type": "unocc",
				"energy": 0.07516,
				"method": "rhf"
			}
		],
		"cosmo_sigma_profile": { 
			"-0.025": 0.0,
			"-0.024": 0.0,
			"-0.023": 0.0,
			"-0.022": 0.0,
			"-0.021": 0.0,
			"-0.02": 0.0,
			"-0.019": 0.0,
			"-0.018": 0.0,
			"-0.017": 0.0,
			"-0.016": 0.104544685026,
			"-0.015": 1.5336714096,
			"-0.014": 1.12344171052,
			"-0.013": 1.23241760033,
			"-0.012": 1.22546690528,
			"-0.011": 1.22236514386,
			"-0.01": 1.61772301778,
			"-0.009": 5.33921352028,
			"-0.008": 5.49716304913,
			"-0.007": 5.62068155664,
			"-0.006": 8.20169435224,
			"-0.005": 10.2179939112,
			"-0.004": 11.6769294376,
			"-0.003": 15.0321726933,
			"-0.002": 10.4700841175,
			"-0.001": 9.87776139907,
			"0.0": 13.8383272559,
			"0.001": 16.5963063957,
			"0.002": 16.5818260938,
			"0.003": 20.5209347211,
			"0.004": 20.4601017897,
			"0.005": 10.3219959619,
			"0.006": 1.62209939505,
			"0.007": 1.20657448549,
			"0.008": 1.27543579484,
			"0.009": 1.314680609,
			"0.01": 1.2594550388,
			"0.011": 1.71019050688,
			"0.012": 0.763729365705,
			"0.013": 2.57837487844,
			"0.014": 4.61523567417,
			"0.015": 1.99151674412,
			"0.016": 0.00957015805924,
			"0.017": 0.0,
			"0.018": 0.0,
			"0.019": 0.0,
			"0.02": 0.0,
			"0.021": 0.0,
			"0.022": 0.0,
			"0.023": 0.0,
			"0.024": 0.0,
			"0.025": 0.0
		}
	}
}
