{
	 "smiles": "CC1=CC(=O)NN1", 
	 "Tm": 497.15, 
	 "num_atms": 13, 
	 "gaussian": { 
		 "optdone": 1, 
		 "sigma_profile": "yes", 
		 "theory": "DFT", 
		 "functional": "B3LYP", 
		 "basiset": "6-31G**", 
		 "properties": { 
			 "R2extent": 1314.7212, 
			 "electric_dipole_moment_norm": 5.2604053532, 
			 "electric_quadrupole_moment_norm": 16.8128714151, 
			 "total_energy": -340.740904154, 
			 "HOMO_LUMO_gap": 0.20598, 
			 "cosmo_polarized_energy": -15.98, 
			 "cosmo_cavitation_energy": 17.0, 
			 "cosmo_dispersion_energy": -12.87, 
			 "cosmo_repulsion_energy": 1.11, 
			 "cosmo_total_nonelectrostatic_energy": 5.23, 
			 "SMD_solvation_energy": 3.93 
		},
		"coords": [
			{
				"x": 1.9989206036,
				"y": 0.938953849,
				"z": 0.2530074334,
				"element": "C" 
			},
			{
				"x": 0.6832067173,
				"y": 1.2858964094,
				"z": -0.3649821593,
				"element": "C" 
			},
			{
				"x": 0.3804169865,
				"y": 2.1542216514,
				"z": -1.3607716137,
				"element": "C" 
			},
			{
				"x": -1.07040683,
				"y": 2.1566368749,
				"z": -1.5441196998,
				"element": "C" 
			},
			{
				"x": -1.7864505841,
				"y": 2.6851870617,
				"z": -2.3794322544,
				"element": "O" 
			},
			{
				"x": -1.5612935733,
				"y": 1.3377423375,
				"z": -0.489772341,
				"element": "N" 
			},
			{
				"x": -0.4712518974,
				"y": 0.6488635943,
				"z": 0.0974331746,
				"element": "N" 
			},
			{
				"x": 2.1856577357,
				"y": -0.1388106548,
				"z": 0.1985715852,
				"element": "H" 
			},
			{
				"x": 2.8091142685,
				"y": 1.4602956669,
				"z": -0.2595467638,
				"element": "H" 
			},
			{
				"x": 2.028841513,
				"y": 1.2260712475,
				"z": 1.3115109246,
				"element": "H" 
			},
			{
				"x": 1.0715425398,
				"y": 2.7212848669,
				"z": -1.9658166564,
				"element": "H" 
			},
			{
				"x": -2.3436582827,
				"y": 0.7384224448,
				"z": -0.7296067721,
				"element": "H" 
			},
			{
				"x": -0.5581391969,
				"y": 0.6048346505,
				"z": 1.1111251427,
				"element": "H" 
			}
		],
		 "valence_orbital": [ 
			{
				"type": "occ",
				"energy": -0.39062,
				"method": "rhf"
			},
			{
				"type": "occ",
				"energy": -0.34429,
				"method": "rhf"
			},
			{
				"type": "occ",
				"energy": -0.27614,
				"method": "rhf"
			},
			{
				"type": "occ",
				"energy": -0.23854,
				"method": "rhf"
			},
			{
				"type": "occ",
				"energy": -0.22038,
				"method": "rhf"
			},
			{
				"type": "unocc",
				"energy": -0.0144,
				"method": "rhf"
			},
			{
				"type": "unocc",
				"energy": 0.06661,
				"method": "rhf"
			},
			{
				"type": "unocc",
				"energy": 0.08329,
				"method": "rhf"
			},
			{
				"type": "unocc",
				"energy": 0.10941,
				"method": "rhf"
			},
			{
				"type": "unocc",
				"energy": 0.11892,
				"method": "rhf"
			}
		],
		"cosmo_sigma_profile": { 
			"-0.025": 0.0,
			"-0.024": 0.0,
			"-0.023": 0.0,
			"-0.022": 0.0,
			"-0.021": 0.0,
			"-0.02": 0.0,
			"-0.019": 0.0,
			"-0.018": 0.0,
			"-0.017": 0.0,
			"-0.016": 0.0405957620424,
			"-0.015": 1.449654063,
			"-0.014": 2.53190561071,
			"-0.013": 2.23683214195,
			"-0.012": 2.48841761663,
			"-0.011": 2.10411392505,
			"-0.01": 2.00784465603,
			"-0.009": 2.6895271251,
			"-0.008": 2.03995957703,
			"-0.007": 3.69173846448,
			"-0.006": 7.10299900768,
			"-0.005": 9.56365335198,
			"-0.004": 8.79716534931,
			"-0.003": 9.27793756938,
			"-0.002": 10.1038806133,
			"-0.001": 8.45906793174,
			"0.0": 4.52052788,
			"0.001": 4.55181844973,
			"0.002": 5.78866550566,
			"0.003": 6.35614677797,
			"0.004": 6.08443524363,
			"0.005": 3.62578085522,
			"0.006": 2.10486563157,
			"0.007": 3.10130208635,
			"0.008": 2.20778655558,
			"0.009": 2.7934994661,
			"0.01": 2.47340230654,
			"0.011": 0.915015191647,
			"0.012": 1.48535243916,
			"0.013": 2.14042586977,
			"0.014": 5.92486156948,
			"0.015": 5.04010981031,
			"0.016": 0.736940778859,
			"0.017": 0.0,
			"0.018": 0.0,
			"0.019": 0.0,
			"0.02": 0.0,
			"0.021": 0.0,
			"0.022": 0.0,
			"0.023": 0.0,
			"0.024": 0.0,
			"0.025": 0.0
		}
	}
}
