{
	 "smiles": "OCC1=C(F)C=CC(F)=C1F", 
	 "Tm": 319.15, 
	 "num_atms": 16, 
	 "gaussian": { 
		 "optdone": 1, 
		 "sigma_profile": "yes", 
		 "theory": "DFT", 
		 "functional": "B3LYP", 
		 "basiset": "6-31G**", 
		 "properties": { 
			 "R2extent": 2131.9165, 
			 "electric_dipole_moment_norm": 1.92742056386, 
			 "electric_quadrupole_moment_norm": 7.76454378827, 
			 "total_energy": -644.46379174, 
			 "HOMO_LUMO_gap": 0.22058, 
			 "cosmo_polarized_energy": -6.65, 
			 "cosmo_cavitation_energy": 21.49, 
			 "cosmo_dispersion_energy": -15.69, 
			 "cosmo_repulsion_energy": 1.2, 
			 "cosmo_total_nonelectrostatic_energy": 7.0, 
			 "SMD_solvation_energy": 5.04 
		},
		"coords": [
			{
				"x": 0.5255949678,
				"y": -4.0138605639,
				"z": 0.8715400323,
				"element": "O" 
			},
			{
				"x": 1.0044991964,
				"y": -3.0756160674,
				"z": -0.0772162465,
				"element": "C" 
			},
			{
				"x": 0.4223097079,
				"y": -1.6858640451,
				"z": 0.1070366887,
				"element": "C" 
			},
			{
				"x": -0.2770696464,
				"y": -1.0088392334,
				"z": -0.8948259846,
				"element": "C" 
			},
			{
				"x": -0.4294918576,
				"y": -1.6134211718,
				"z": -2.0929043389,
				"element": "F" 
			},
			{
				"x": -0.8163854672,
				"y": 0.2602241028,
				"z": -0.7173687242,
				"element": "C" 
			},
			{
				"x": -0.6628748873,
				"y": 0.8964240289,
				"z": 0.5151072048,
				"element": "C" 
			},
			{
				"x": 0.0254841492,
				"y": 0.2521044999,
				"z": 1.5350071206,
				"element": "C" 
			},
			{
				"x": 0.1902068712,
				"y": 0.8388360784,
				"z": 2.732778916,
				"element": "F" 
			},
			{
				"x": 0.5554344521,
				"y": -1.0169660013,
				"z": 1.3215943023,
				"element": "C" 
			},
			{
				"x": 1.222606512,
				"y": -1.6243349796,
				"z": 2.3314177743,
				"element": "F" 
			},
			{
				"x": 0.8323470793,
				"y": -3.7253538807,
				"z": 1.7411473872,
				"element": "H" 
			},
			{
				"x": 2.103338421,
				"y": -3.0085375133,
				"z": -0.0566429403,
				"element": "H" 
			},
			{
				"x": 0.7180532533,
				"y": -3.4509397832,
				"z": -1.0606353719,
				"element": "H" 
			},
			{
				"x": -1.3488469084,
				"y": 0.732946861,
				"z": -1.5344301316,
				"element": "H" 
			},
			{
				"x": -1.0702058432,
				"y": 1.8845976688,
				"z": 0.6966943118,
				"element": "H" 
			}
		],
		 "valence_orbital": [ 
			{
				"type": "occ",
				"energy": -0.36008,
				"method": "rhf"
			},
			{
				"type": "occ",
				"energy": -0.339,
				"method": "rhf"
			},
			{
				"type": "occ",
				"energy": -0.27881,
				"method": "rhf"
			},
			{
				"type": "occ",
				"energy": -0.26891,
				"method": "rhf"
			},
			{
				"type": "occ",
				"energy": -0.25097,
				"method": "rhf"
			},
			{
				"type": "unocc",
				"energy": -0.03039,
				"method": "rhf"
			},
			{
				"type": "unocc",
				"energy": -0.00749,
				"method": "rhf"
			},
			{
				"type": "unocc",
				"energy": 0.04929,
				"method": "rhf"
			},
			{
				"type": "unocc",
				"energy": 0.09426,
				"method": "rhf"
			},
			{
				"type": "unocc",
				"energy": 0.12047,
				"method": "rhf"
			}
		],
		"cosmo_sigma_profile": { 
			"-0.025": 0.0,
			"-0.024": 0.0,
			"-0.023": 0.0,
			"-0.022": 0.0,
			"-0.021": 0.0,
			"-0.02": 0.0,
			"-0.019": 0.0,
			"-0.018": 0.0,
			"-0.017": 0.0,
			"-0.016": 0.0,
			"-0.015": 0.0,
			"-0.014": 0.00667310973298,
			"-0.013": 0.609640932978,
			"-0.012": 0.477527207286,
			"-0.011": 0.822833082211,
			"-0.01": 0.841711149542,
			"-0.009": 1.32046932702,
			"-0.008": 4.57420120296,
			"-0.007": 4.90453342517,
			"-0.006": 6.75271103473,
			"-0.005": 9.26618127095,
			"-0.004": 8.32725374583,
			"-0.003": 9.83745452329,
			"-0.002": 12.40858779,
			"-0.001": 15.8245418967,
			"0.0": 18.5982068792,
			"0.001": 14.774076367,
			"0.002": 12.9357094751,
			"0.003": 20.2798194553,
			"0.004": 16.5971987871,
			"0.005": 1.07917314007,
			"0.006": 1.06999436196,
			"0.007": 0.985355319887,
			"0.008": 0.916945567153,
			"0.009": 1.04728622136,
			"0.01": 1.79025316783,
			"0.011": 1.60547621598,
			"0.012": 1.04475740785,
			"0.013": 2.48284935009,
			"0.014": 1.30259965171,
			"0.015": 0.0,
			"0.016": 0.0,
			"0.017": 0.0,
			"0.018": 0.0,
			"0.019": 0.0,
			"0.02": 0.0,
			"0.021": 0.0,
			"0.022": 0.0,
			"0.023": 0.0,
			"0.024": 0.0,
			"0.025": 0.0
		}
	}
}
