{
	 "smiles": "CC1=CSC2=NC(CO)=CC(=O)N12", 
	 "Tm": 428.15, 
	 "num_atms": 21, 
	 "gaussian": { 
		 "optdone": 1, 
		 "sigma_profile": "yes", 
		 "theory": "DFT", 
		 "functional": "B3LYP", 
		 "basiset": "6-31G**", 
		 "properties": { 
			 "R2extent": 2979.0302, 
			 "electric_dipole_moment_norm": 3.12938289923, 
			 "electric_quadrupole_moment_norm": 9.75265078632, 
			 "total_energy": -967.803664828, 
			 "HOMO_LUMO_gap": 0.17006, 
			 "cosmo_polarized_energy": -13.42, 
			 "cosmo_cavitation_energy": 26.59, 
			 "cosmo_dispersion_energy": -20.47, 
			 "cosmo_repulsion_energy": 1.56, 
			 "cosmo_total_nonelectrostatic_energy": 7.68, 
			 "SMD_solvation_energy": 3.72 
		},
		"coords": [
			{
				"x": 2.5626022051,
				"y": 0.0315003389,
				"z": -1.1649271831,
				"element": "C" 
			},
			{
				"x": 1.1280132384,
				"y": -0.4017214916,
				"z": -1.1475966358,
				"element": "C" 
			},
			{
				"x": 0.4706450163,
				"y": -0.9627018076,
				"z": -2.1853455964,
				"element": "C" 
			},
			{
				"x": -1.2002592665,
				"y": -1.3501135265,
				"z": -1.8314026442,
				"element": "S" 
			},
			{
				"x": -0.9990832888,
				"y": -0.7236031769,
				"z": -0.2037043576,
				"element": "C" 
			},
			{
				"x": -1.9585327072,
				"y": -0.7163945419,
				"z": 0.6765020743,
				"element": "N" 
			},
			{
				"x": -1.6394593305,
				"y": -0.1876916785,
				"z": 1.8970961922,
				"element": "C" 
			},
			{
				"x": -2.7819611163,
				"y": -0.1845878468,
				"z": 2.8919837493,
				"element": "C" 
			},
			{
				"x": -2.4075835906,
				"y": 0.15668066,
				"z": 4.2109743667,
				"element": "O" 
			},
			{
				"x": -0.400540921,
				"y": 0.3074995186,
				"z": 2.2088489649,
				"element": "C" 
			},
			{
				"x": 0.682691537,
				"y": 0.3033837368,
				"z": 1.2637092464,
				"element": "C" 
			},
			{
				"x": 1.8221378929,
				"y": 0.7110544047,
				"z": 1.4379248612,
				"element": "O" 
			},
			{
				"x": 0.2917621003,
				"y": -0.2636716151,
				"z": -0.0147335244,
				"element": "N" 
			},
			{
				"x": 2.9780715335,
				"y": -0.1843945818,
				"z": -2.1527896395,
				"element": "H" 
			},
			{
				"x": 3.1487010315,
				"y": -0.4899273385,
				"z": -0.4055211014,
				"element": "H" 
			},
			{
				"x": 2.661962091,
				"y": 1.0988108479,
				"z": -0.9574389692,
				"element": "H" 
			},
			{
				"x": 0.8863551686,
				"y": -1.1731382192,
				"z": -3.1595885057,
				"element": "H" 
			},
			{
				"x": -3.5171645663,
				"y": 0.5644030009,
				"z": 2.5748916188,
				"element": "H" 
			},
			{
				"x": -3.2874061118,
				"y": -1.1604670215,
				"z": 2.8328261493,
				"element": "H" 
			},
			{
				"x": -1.8390634817,
				"y": -0.5475688633,
				"z": 4.549439951,
				"element": "H" 
			},
			{
				"x": -0.2005874339,
				"y": 0.7364492013,
				"z": 3.1818509832,
				"element": "H" 
			}
		],
		 "valence_orbital": [ 
			{
				"type": "occ",
				"energy": -0.29648,
				"method": "rhf"
			},
			{
				"type": "occ",
				"energy": -0.28114,
				"method": "rhf"
			},
			{
				"type": "occ",
				"energy": -0.26636,
				"method": "rhf"
			},
			{
				"type": "occ",
				"energy": -0.26212,
				"method": "rhf"
			},
			{
				"type": "occ",
				"energy": -0.21829,
				"method": "rhf"
			},
			{
				"type": "unocc",
				"energy": -0.04823,
				"method": "rhf"
			},
			{
				"type": "unocc",
				"energy": -0.00732,
				"method": "rhf"
			},
			{
				"type": "unocc",
				"energy": -0.0011,
				"method": "rhf"
			},
			{
				"type": "unocc",
				"energy": 0.00941,
				"method": "rhf"
			},
			{
				"type": "unocc",
				"energy": 0.07349,
				"method": "rhf"
			}
		],
		"cosmo_sigma_profile": { 
			"-0.025": 0.0,
			"-0.024": 0.0,
			"-0.023": 0.0,
			"-0.022": 0.0,
			"-0.021": 0.0,
			"-0.02": 0.0,
			"-0.019": 0.0,
			"-0.018": 0.0,
			"-0.017": 0.0302356663005,
			"-0.016": 0.763376424494,
			"-0.015": 0.934135875907,
			"-0.014": 1.02369025057,
			"-0.013": 0.802419310399,
			"-0.012": 0.742131466914,
			"-0.011": 1.07709339182,
			"-0.01": 2.79735479078,
			"-0.009": 3.33354992622,
			"-0.008": 3.12623524554,
			"-0.007": 4.85841081331,
			"-0.006": 7.73794882163,
			"-0.005": 10.7254735999,
			"-0.004": 15.5637712286,
			"-0.003": 19.904411702,
			"-0.002": 17.8021943635,
			"-0.001": 20.4068418741,
			"0.0": 17.8252119699,
			"0.001": 17.5800632913,
			"0.002": 14.9674513075,
			"0.003": 8.94704773639,
			"0.004": 4.20206165438,
			"0.005": 4.10362608981,
			"0.006": 4.59338796205,
			"0.007": 3.33266246408,
			"0.008": 3.74258195549,
			"0.009": 2.74724763458,
			"0.01": 4.12875378096,
			"0.011": 3.42801632769,
			"0.012": 4.42956239223,
			"0.013": 5.98142019783,
			"0.014": 2.65237877007,
			"0.015": 0.08309557779,
			"0.016": 0.0,
			"0.017": 0.0,
			"0.018": 0.0,
			"0.019": 0.0,
			"0.02": 0.0,
			"0.021": 0.0,
			"0.022": 0.0,
			"0.023": 0.0,
			"0.024": 0.0,
			"0.025": 0.0
		}
	}
}
