{
	 "smiles": "ClC1=CC=CC(Cl)=C1OCC#C", 
	 "Tm": 316.65, 
	 "num_atms": 18, 
	 "gaussian": { 
		 "optdone": 1, 
		 "sigma_profile": "yes", 
		 "theory": "DFT", 
		 "functional": "B3LYP", 
		 "basiset": "6-31G**", 
		 "properties": { 
			 "R2extent": 4801.2581, 
			 "electric_dipole_moment_norm": 2.20794738388, 
			 "electric_quadrupole_moment_norm": 12.9072684841, 
			 "total_energy": -1342.08058881, 
			 "HOMO_LUMO_gap": 0.22723, 
			 "cosmo_polarized_energy": -8.43, 
			 "cosmo_cavitation_energy": 27.22, 
			 "cosmo_dispersion_energy": -19.08, 
			 "cosmo_repulsion_energy": 1.52, 
			 "cosmo_total_nonelectrostatic_energy": 9.66, 
			 "SMD_solvation_energy": 5.83 
		},
		"coords": [
			{
				"x": -4.1502089613,
				"y": 0.7890020059,
				"z": -0.9853244078,
				"element": "Cl" 
			},
			{
				"x": -2.8968167229,
				"y": -0.3674543563,
				"z": -0.5895886204,
				"element": "C" 
			},
			{
				"x": -2.986761743,
				"y": -1.098512941,
				"z": 0.5938132536,
				"element": "C" 
			},
			{
				"x": -1.9917733668,
				"y": -2.0242464256,
				"z": 0.9041188371,
				"element": "C" 
			},
			{
				"x": -0.9163040605,
				"y": -2.2233217569,
				"z": 0.0398326768,
				"element": "C" 
			},
			{
				"x": -0.8401915919,
				"y": -1.4848223834,
				"z": -1.1399121455,
				"element": "C" 
			},
			{
				"x": 0.5048849145,
				"y": -1.7404489137,
				"z": -2.2310529285,
				"element": "Cl" 
			},
			{
				"x": -1.8273627432,
				"y": -0.5455603258,
				"z": -1.4837753115,
				"element": "C" 
			},
			{
				"x": -1.783108602,
				"y": 0.1219038654,
				"z": -2.6728938119,
				"element": "O" 
			},
			{
				"x": -1.0836895805,
				"y": 1.3866449912,
				"z": -2.6316205882,
				"element": "C" 
			},
			{
				"x": -1.1126251212,
				"y": 1.9913399066,
				"z": -3.9564437425,
				"element": "C" 
			},
			{
				"x": -1.1172609352,
				"y": 2.5207218319,
				"z": -5.0401955659,
				"element": "C" 
			},
			{
				"x": -3.8294320989,
				"y": -0.9388338165,
				"z": 1.2567773091,
				"element": "H" 
			},
			{
				"x": -2.0573629997,
				"y": -2.5976496743,
				"z": 1.8231842016,
				"element": "H" 
			},
			{
				"x": -0.1393256584,
				"y": -2.9435406502,
				"z": 0.2694056218,
				"element": "H" 
			},
			{
				"x": -1.5671773451,
				"y": 2.0492583606,
				"z": -1.9019199181,
				"element": "H" 
			},
			{
				"x": -0.0461976171,
				"y": 1.2215117453,
				"z": -2.3128625856,
				"element": "H" 
			},
			{
				"x": -1.1278857667,
				"y": 2.9787085367,
				"z": -6.0022422742,
				"element": "H" 
			}
		],
		 "valence_orbital": [ 
			{
				"type": "occ",
				"energy": -0.3008,
				"method": "rhf"
			},
			{
				"type": "occ",
				"energy": -0.28448,
				"method": "rhf"
			},
			{
				"type": "occ",
				"energy": -0.2696,
				"method": "rhf"
			},
			{
				"type": "occ",
				"energy": -0.25563,
				"method": "rhf"
			},
			{
				"type": "occ",
				"energy": -0.25508,
				"method": "rhf"
			},
			{
				"type": "unocc",
				"energy": -0.02785,
				"method": "rhf"
			},
			{
				"type": "unocc",
				"energy": -0.02529,
				"method": "rhf"
			},
			{
				"type": "unocc",
				"energy": 0.00061,
				"method": "rhf"
			},
			{
				"type": "unocc",
				"energy": 0.02655,
				"method": "rhf"
			},
			{
				"type": "unocc",
				"energy": 0.0476,
				"method": "rhf"
			}
		],
		"cosmo_sigma_profile": { 
			"-0.025": 0.0,
			"-0.024": 0.0,
			"-0.023": 0.0,
			"-0.022": 0.0,
			"-0.021": 0.0,
			"-0.02": 0.0,
			"-0.019": 0.0,
			"-0.018": 0.0,
			"-0.017": 0.0,
			"-0.016": 0.0,
			"-0.015": 0.0,
			"-0.014": 0.0,
			"-0.013": 0.127281665611,
			"-0.012": 1.0292889777,
			"-0.011": 1.55925526907,
			"-0.01": 1.02859586203,
			"-0.009": 0.874841847723,
			"-0.008": 4.66019450885,
			"-0.007": 10.7411912291,
			"-0.006": 13.2401055038,
			"-0.005": 11.2597985247,
			"-0.004": 8.94124761417,
			"-0.003": 9.57225915758,
			"-0.002": 12.8458196991,
			"-0.001": 12.3050631408,
			"0.0": 18.4364823305,
			"0.001": 25.2241627258,
			"0.002": 24.4803807226,
			"0.003": 18.051574879,
			"0.004": 19.5856351996,
			"0.005": 11.2924839738,
			"0.006": 9.35596802038,
			"0.007": 4.14811906625,
			"0.008": 2.26866661425,
			"0.009": 2.05926448297,
			"0.01": 1.35502279894,
			"0.011": 0.0302914646592,
			"0.012": 0.0,
			"0.013": 0.0,
			"0.014": 0.0,
			"0.015": 0.0,
			"0.016": 0.0,
			"0.017": 0.0,
			"0.018": 0.0,
			"0.019": 0.0,
			"0.02": 0.0,
			"0.021": 0.0,
			"0.022": 0.0,
			"0.023": 0.0,
			"0.024": 0.0,
			"0.025": 0.0
		}
	}
}
