{
	 "smiles": "CC(=O)N1C(=O)N2CCC3=C(C=CC=C3)C2(C1=O)C1=CC=C(Cl)C=C1", 
	 "Tm": 409.15, 
	 "num_atms": 40, 
	 "gaussian": { 
		 "optdone": 1, 
		 "sigma_profile": "yes", 
		 "theory": "DFT", 
		 "functional": "B3LYP", 
		 "basiset": "6-31G**", 
		 "properties": { 
			 "R2extent": 8826.7112, 
			 "electric_dipole_moment_norm": 4.78614382254, 
			 "electric_quadrupole_moment_norm": 29.706829146, 
			 "total_energy": -1528.47391303, 
			 "HOMO_LUMO_gap": 0.20272, 
			 "cosmo_polarized_energy": -17.94, 
			 "cosmo_cavitation_energy": 44.56, 
			 "cosmo_dispersion_energy": -30.59, 
			 "cosmo_repulsion_energy": 2.31, 
			 "cosmo_total_nonelectrostatic_energy": 16.28, 
			 "SMD_solvation_energy": 9.1 
		},
		"coords": [
			{
				"x": -1.5298181073,
				"y": -2.3667462784,
				"z": -4.2094790918,
				"element": "C" 
			},
			{
				"x": -1.4149296901,
				"y": -3.0501860309,
				"z": -2.8695221701,
				"element": "C" 
			},
			{
				"x": -1.886397042,
				"y": -4.1313925182,
				"z": -2.6205929102,
				"element": "O" 
			},
			{
				"x": -0.6772279403,
				"y": -2.3385306004,
				"z": -1.8514384402,
				"element": "N" 
			},
			{
				"x": -0.1181753068,
				"y": -2.9971896853,
				"z": -0.6934151426,
				"element": "C" 
			},
			{
				"x": 0.001204542,
				"y": -4.188049672,
				"z": -0.5293397801,
				"element": "O" 
			},
			{
				"x": 0.3021575208,
				"y": -2.0067775038,
				"z": 0.1568124706,
				"element": "N" 
			},
			{
				"x": 1.2284603789,
				"y": -2.3408663905,
				"z": 1.2446203695,
				"element": "C" 
			},
			{
				"x": 2.0306668054,
				"y": -1.0970139293,
				"z": 1.6547063156,
				"element": "C" 
			},
			{
				"x": 2.5435176674,
				"y": -0.3529564973,
				"z": 0.445627125,
				"element": "C" 
			},
			{
				"x": 1.6500864325,
				"y": -0.116836755,
				"z": -0.6169622093,
				"element": "C" 
			},
			{
				"x": 2.0788128383,
				"y": 0.5778716754,
				"z": -1.7513344312,
				"element": "C" 
			},
			{
				"x": 3.395091876,
				"y": 1.0399626634,
				"z": -1.8318625901,
				"element": "C" 
			},
			{
				"x": 4.2854438182,
				"y": 0.8041294791,
				"z": -0.7854031759,
				"element": "C" 
			},
			{
				"x": 3.858177925,
				"y": 0.1068539607,
				"z": 0.3461880309,
				"element": "C" 
			},
			{
				"x": 0.2286571516,
				"y": -0.6661383938,
				"z": -0.434578328,
				"element": "C" 
			},
			{
				"x": -0.4681658739,
				"y": -0.9632720234,
				"z": -1.7837721442,
				"element": "C" 
			},
			{
				"x": -0.7964592011,
				"y": -0.1285462515,
				"z": -2.6009644205,
				"element": "O" 
			},
			{
				"x": -0.6798379699,
				"y": 0.2823915691,
				"z": 0.3706419164,
				"element": "C" 
			},
			{
				"x": -1.6239499022,
				"y": -0.2262353755,
				"z": 1.2700466284,
				"element": "C" 
			},
			{
				"x": -2.4815490238,
				"y": 0.6253287629,
				"z": 1.9668154492,
				"element": "C" 
			},
			{
				"x": -2.3973414223,
				"y": 1.9994276757,
				"z": 1.751348134,
				"element": "C" 
			},
			{
				"x": -3.4692494691,
				"y": 3.0809684333,
				"z": 2.6267610329,
				"element": "Cl" 
			},
			{
				"x": -1.4723311458,
				"y": 2.5280857702,
				"z": 0.8515826951,
				"element": "C" 
			},
			{
				"x": -0.6188183094,
				"y": 1.6660743693,
				"z": 0.1655274093,
				"element": "C" 
			},
			{
				"x": -1.9888175236,
				"y": -3.0757671105,
				"z": -4.8985586636,
				"element": "H" 
			},
			{
				"x": -2.1381404479,
				"y": -1.4626571474,
				"z": -4.1312268523,
				"element": "H" 
			},
			{
				"x": -0.5500208471,
				"y": -2.0521321159,
				"z": -4.5791186271,
				"element": "H" 
			},
			{
				"x": 0.6708546146,
				"y": -2.738681455,
				"z": 2.0992299522,
				"element": "H" 
			},
			{
				"x": 1.8944915632,
				"y": -3.1354316081,
				"z": 0.8923453757,
				"element": "H" 
			},
			{
				"x": 2.8544536479,
				"y": -1.4028072616,
				"z": 2.3059200282,
				"element": "H" 
			},
			{
				"x": 1.3869443467,
				"y": -0.4337338752,
				"z": 2.2467698522,
				"element": "H" 
			},
			{
				"x": 1.3875754698,
				"y": 0.7592925,
				"z": -2.5667730866,
				"element": "H" 
			},
			{
				"x": 3.7211442707,
				"y": 1.5788686849,
				"z": -2.7164577697,
				"element": "H" 
			},
			{
				"x": 5.3103602846,
				"y": 1.1575808789,
				"z": -0.8489996749,
				"element": "H" 
			},
			{
				"x": 4.5510799056,
				"y": -0.0824135415,
				"z": 1.1621140248,
				"element": "H" 
			},
			{
				"x": -1.6908758015,
				"y": -1.2968639592,
				"z": 1.4317595237,
				"element": "H" 
			},
			{
				"x": -3.2067817283,
				"y": 0.2263447687,
				"z": 2.6672536878,
				"element": "H" 
			},
			{
				"x": -1.4195781003,
				"y": 3.5992271898,
				"z": 0.6917799249,
				"element": "H" 
			},
			{
				"x": 0.1020837938,
				"y": 2.0795175986,
				"z": -0.5305504383,
				"element": "H" 
			}
		],
		 "valence_orbital": [ 
			{
				"type": "occ",
				"energy": -0.26963,
				"method": "rhf"
			},
			{
				"type": "occ",
				"energy": -0.26527,
				"method": "rhf"
			},
			{
				"type": "occ",
				"energy": -0.263,
				"method": "rhf"
			},
			{
				"type": "occ",
				"energy": -0.2563,
				"method": "rhf"
			},
			{
				"type": "occ",
				"energy": -0.25048,
				"method": "rhf"
			},
			{
				"type": "unocc",
				"energy": -0.04776,
				"method": "rhf"
			},
			{
				"type": "unocc",
				"energy": -0.03032,
				"method": "rhf"
			},
			{
				"type": "unocc",
				"energy": -0.02341,
				"method": "rhf"
			},
			{
				"type": "unocc",
				"energy": -0.02156,
				"method": "rhf"
			},
			{
				"type": "unocc",
				"energy": -0.01598,
				"method": "rhf"
			}
		],
		"cosmo_sigma_profile": { 
			"-0.025": 0.0,
			"-0.024": 0.0,
			"-0.023": 0.0,
			"-0.022": 0.0,
			"-0.021": 0.0,
			"-0.02": 0.0,
			"-0.019": 0.0,
			"-0.018": 0.0,
			"-0.017": 0.0,
			"-0.016": 0.0,
			"-0.015": 0.0,
			"-0.014": 0.0,
			"-0.013": 0.0,
			"-0.012": 0.0,
			"-0.011": 0.0,
			"-0.01": 0.0,
			"-0.009": 0.000182326159141,
			"-0.008": 1.43459711437,
			"-0.007": 10.121462614,
			"-0.006": 26.7892465855,
			"-0.005": 35.2413842249,
			"-0.004": 33.5524974218,
			"-0.003": 29.9415579156,
			"-0.002": 28.0123489846,
			"-0.001": 21.6585697326,
			"0.0": 20.1251812719,
			"0.001": 22.3723996938,
			"0.002": 25.294970988,
			"0.003": 25.0020011521,
			"0.004": 22.3337041274,
			"0.005": 15.1984304964,
			"0.006": 2.94215049485,
			"0.007": 5.16405587014,
			"0.008": 3.95631605726,
			"0.009": 5.27720266831,
			"0.01": 6.64416528158,
			"0.011": 7.08744488314,
			"0.012": 5.8751677781,
			"0.013": 2.32356162635,
			"0.014": 1.37066774599,
			"0.015": 0.864180742672,
			"0.016": 7.03714280965e-05,
			"0.017": 0.0,
			"0.018": 0.0,
			"0.019": 0.0,
			"0.02": 0.0,
			"0.021": 0.0,
			"0.022": 0.0,
			"0.023": 0.0,
			"0.024": 0.0,
			"0.025": 0.0
		}
	}
}
