{
	 "smiles": "CC(C)(C)C1=CC=C(C=C1)C1=CC=C(Br)C=C1", 
	 "Tm": 414.65, 
	 "num_atms": 34, 
	 "gaussian": { 
		 "optdone": 1, 
		 "sigma_profile": "yes", 
		 "theory": "DFT", 
		 "functional": "B3LYP", 
		 "basiset": "6-31G**", 
		 "properties": { 
			 "R2extent": 12868.9548, 
			 "electric_dipole_moment_norm": 2.60019727329, 
			 "electric_quadrupole_moment_norm": 10.0360784747, 
			 "total_energy": -3191.3773599, 
			 "HOMO_LUMO_gap": 0.18641, 
			 "cosmo_polarized_energy": -5.67, 
			 "cosmo_cavitation_energy": 38.22, 
			 "cosmo_dispersion_energy": -27.67, 
			 "cosmo_repulsion_energy": 2.12, 
			 "cosmo_total_nonelectrostatic_energy": 12.66, 
			 "SMD_solvation_energy": 5.18 
		},
		"coords": [
			{
				"x": 1.8182649741,
				"y": 4.5538065631,
				"z": -0.3748535647,
				"element": "C" 
			},
			{
				"x": 1.0670313021,
				"y": 3.3735864812,
				"z": -1.0196164855,
				"element": "C" 
			},
			{
				"x": -0.2675155357,
				"y": 3.9068784918,
				"z": -1.5936716994,
				"element": "C" 
			},
			{
				"x": 1.9364715522,
				"y": 2.8211980187,
				"z": -2.1744696549,
				"element": "C" 
			},
			{
				"x": 0.7762705941,
				"y": 2.2460462537,
				"z": -0.0133887182,
				"element": "C" 
			},
			{
				"x": 1.1544478491,
				"y": 2.3065628564,
				"z": 1.3346692347,
				"element": "C" 
			},
			{
				"x": 0.8742160185,
				"y": 1.2652769922,
				"z": 2.2202636186,
				"element": "C" 
			},
			{
				"x": 0.1996264504,
				"y": 0.1113802912,
				"z": 1.798078662,
				"element": "C" 
			},
			{
				"x": -0.1822263883,
				"y": 0.0454647211,
				"z": 0.4472693624,
				"element": "C" 
			},
			{
				"x": 0.1004713783,
				"y": 1.0861541523,
				"z": -0.4309901141,
				"element": "C" 
			},
			{
				"x": -0.0993996553,
				"y": -0.99668658,
				"z": 2.7382734167,
				"element": "C" 
			},
			{
				"x": -0.4572264258,
				"y": -0.7396974163,
				"z": 4.0727562852,
				"element": "C" 
			},
			{
				"x": -0.7379689369,
				"y": -1.7748998661,
				"z": 4.9624555092,
				"element": "C" 
			},
			{
				"x": -0.6643788712,
				"y": -3.0933795565,
				"z": 4.5172904273,
				"element": "C" 
			},
			{
				"x": -1.0494345714,
				"y": -4.5214948702,
				"z": 5.7291371042,
				"element": "Br" 
			},
			{
				"x": -0.3140724188,
				"y": -3.3843813308,
				"z": 3.2002822057,
				"element": "C" 
			},
			{
				"x": -0.0341208511,
				"y": -2.3378608652,
				"z": 2.3236217329,
				"element": "C" 
			},
			{
				"x": 2.0020680187,
				"y": 5.3282919316,
				"z": -1.1264878534,
				"element": "H" 
			},
			{
				"x": 2.7897464385,
				"y": 4.2481964465,
				"z": 0.0274668467,
				"element": "H" 
			},
			{
				"x": 1.2406143275,
				"y": 5.0114879939,
				"z": 0.4350034852,
				"element": "H" 
			},
			{
				"x": -0.8333296179,
				"y": 3.1226651776,
				"z": -2.1053038363,
				"element": "H" 
			},
			{
				"x": -0.0780482177,
				"y": 4.7072065408,
				"z": -2.3179456637,
				"element": "H" 
			},
			{
				"x": -0.9021318116,
				"y": 4.3115155873,
				"z": -0.7984189739,
				"element": "H" 
			},
			{
				"x": 1.4389322701,
				"y": 2.0031858787,
				"z": -2.7038448247,
				"element": "H" 
			},
			{
				"x": 2.8926643525,
				"y": 2.4427346314,
				"z": -1.7984597533,
				"element": "H" 
			},
			{
				"x": 2.1468162443,
				"y": 3.6108771277,
				"z": -2.9046543787,
				"element": "H" 
			},
			{
				"x": 1.6864469157,
				"y": 3.1716646145,
				"z": 1.7136798385,
				"element": "H" 
			},
			{
				"x": 1.2110977281,
				"y": 1.3426932294,
				"z": 3.2501362288,
				"element": "H" 
			},
			{
				"x": -0.7312405589,
				"y": -0.8198378851,
				"z": 0.0868748872,
				"element": "H" 
			},
			{
				"x": -0.2232824619,
				"y": 0.992449932,
				"z": -1.4635624769,
				"element": "H" 
			},
			{
				"x": -0.542547416,
				"y": 0.2867860142,
				"z": 4.4160800217,
				"element": "H" 
			},
			{
				"x": -1.02057627,
				"y": -1.559710282,
				"z": 5.9867721365,
				"element": "H" 
			},
			{
				"x": -0.2511738537,
				"y": -4.414141466,
				"z": 2.867056786,
				"element": "H" 
			},
			{
				"x": 0.2648874483,
				"y": -2.5700198092,
				"z": 1.306000208,
				"element": "H" 
			}
		],
		 "valence_orbital": [ 
			{
				"type": "occ",
				"energy": -0.28473,
				"method": "rhf"
			},
			{
				"type": "occ",
				"energy": -0.26187,
				"method": "rhf"
			},
			{
				"type": "occ",
				"energy": -0.25984,
				"method": "rhf"
			},
			{
				"type": "occ",
				"energy": -0.25124,
				"method": "rhf"
			},
			{
				"type": "occ",
				"energy": -0.21984,
				"method": "rhf"
			},
			{
				"type": "unocc",
				"energy": -0.03343,
				"method": "rhf"
			},
			{
				"type": "unocc",
				"energy": -0.01351,
				"method": "rhf"
			},
			{
				"type": "unocc",
				"energy": -0.00435,
				"method": "rhf"
			},
			{
				"type": "unocc",
				"energy": 0.01103,
				"method": "rhf"
			},
			{
				"type": "unocc",
				"energy": 0.02324,
				"method": "rhf"
			}
		],
		"cosmo_sigma_profile": { 
			"-0.025": 0.0,
			"-0.024": 0.0,
			"-0.023": 0.0,
			"-0.022": 0.0,
			"-0.021": 0.0,
			"-0.02": 0.0,
			"-0.019": 0.0,
			"-0.018": 0.0,
			"-0.017": 0.0,
			"-0.016": 0.0,
			"-0.015": 0.0,
			"-0.014": 0.0,
			"-0.013": 0.0,
			"-0.012": 0.0,
			"-0.011": 0.0,
			"-0.01": 0.0,
			"-0.009": 0.0,
			"-0.008": 0.0379755473954,
			"-0.007": 2.72107199657,
			"-0.006": 9.51024599021,
			"-0.005": 17.3324785058,
			"-0.004": 16.6739206555,
			"-0.003": 28.1527449587,
			"-0.002": 32.98324039,
			"-0.001": 28.4862910372,
			"0.0": 26.8326010254,
			"0.001": 36.4844759569,
			"0.002": 29.9425226228,
			"0.003": 26.4740100418,
			"0.004": 26.9655277034,
			"0.005": 15.896241619,
			"0.006": 6.99726810258,
			"0.007": 0.0977318477229,
			"0.008": 0.0,
			"0.009": 0.0,
			"0.01": 0.0,
			"0.011": 0.0,
			"0.012": 0.0,
			"0.013": 0.0,
			"0.014": 0.0,
			"0.015": 0.0,
			"0.016": 0.0,
			"0.017": 0.0,
			"0.018": 0.0,
			"0.019": 0.0,
			"0.02": 0.0,
			"0.021": 0.0,
			"0.022": 0.0,
			"0.023": 0.0,
			"0.024": 0.0,
			"0.025": 0.0
		}
	}
}
