{
	 "smiles": "CCC(COCCOC1=C(I)C=C(I)C(NC(C)=O)=C1I)C(O)=O", 
	 "Tm": 403.15, 
	 "num_atms": 42, 
	 "gaussian": { 
		 "optdone": 1, 
		 "sigma_profile": "no", 
		 "theory": "DFT", 
		 "functional": "B3LYP", 
		 "basiset": "6-31G**", 
		 "properties": { 
			 "R2extent": 12805.9083, 
			 "electric_dipole_moment_norm": 2.70477774503, 
			 "electric_quadrupole_moment_norm": 30.1434587871, 
			 "total_energy": -1047.46960641, 
			 "HOMO_LUMO_gap": 0.16956, 
			 "cosmo_polarized_energy": -247070.48, 
			 "cosmo_cavitation_energy": 55.22, 
			 "cosmo_dispersion_energy": -38.47, 
			 "cosmo_repulsion_energy": 2.93, 
			 "cosmo_total_nonelectrostatic_energy": 19.68, 
			 "SMD_solvation_energy": 9.18 
		},
		"coords": [
			{
				"x": 2.6344839369,
				"y": -4.4895531369,
				"z": 1.9936668166,
				"element": "C" 
			},
			{
				"x": 1.4763677481,
				"y": -4.66594265,
				"z": 1.0036523122,
				"element": "C" 
			},
			{
				"x": 0.1396414235,
				"y": -3.997227881,
				"z": 1.4214822652,
				"element": "C" 
			},
			{
				"x": 0.2614712236,
				"y": -2.4897585329,
				"z": 1.6191903066,
				"element": "C" 
			},
			{
				"x": -1.0625887785,
				"y": -1.9691157562,
				"z": 1.7214724628,
				"element": "O" 
			},
			{
				"x": -1.1882805056,
				"y": -0.7335555544,
				"z": 2.3919745248,
				"element": "C" 
			},
			{
				"x": -0.961440081,
				"y": 0.4829757996,
				"z": 1.5083212788,
				"element": "C" 
			},
			{
				"x": 0.4481724699,
				"y": 0.5712055271,
				"z": 1.185623105,
				"element": "O" 
			},
			{
				"x": 0.8500003592,
				"y": 1.7051567215,
				"z": 0.5483140488,
				"element": "C" 
			},
			{
				"x": 1.311667484,
				"y": 2.8121985468,
				"z": 1.28045014,
				"element": "C" 
			},
			{
				"x": 1.3469732977,
				"y": 2.7433940113,
				"z": 3.3921472255,
				"element": "I" 
			},
			{
				"x": 1.7879731034,
				"y": 3.955094808,
				"z": 0.6416126666,
				"element": "C" 
			},
			{
				"x": 1.8085845312,
				"y": 4.0070744261,
				"z": -0.7515037341,
				"element": "C" 
			},
			{
				"x": 2.5784429123,
				"y": 5.74670115,
				"z": -1.6748753723,
				"element": "I" 
			},
			{
				"x": 1.3583069756,
				"y": 2.9263203393,
				"z": -1.5328554194,
				"element": "C" 
			},
			{
				"x": 1.4089206034,
				"y": 2.9724232432,
				"z": -2.9455307553,
				"element": "N" 
			},
			{
				"x": 0.417347995,
				"y": 3.4084929684,
				"z": -3.8159357522,
				"element": "C" 
			},
			{
				"x": -0.8506097479,
				"y": 3.94407946,
				"z": -3.1803217034,
				"element": "C" 
			},
			{
				"x": 0.5930958577,
				"y": 3.3486154008,
				"z": -5.0202105414,
				"element": "O" 
			},
			{
				"x": 0.8948571731,
				"y": 1.7784239496,
				"z": -0.8560974317,
				"element": "C" 
			},
			{
				"x": 0.3071157642,
				"y": 0.0873479724,
				"z": -1.9787239882,
				"element": "I" 
			},
			{
				"x": -0.3992705132,
				"y": -4.6473958445,
				"z": 2.6851135798,
				"element": "C" 
			},
			{
				"x": -1.1161638965,
				"y": -5.7641205936,
				"z": 2.4097477022,
				"element": "O" 
			},
			{
				"x": -0.1954038997,
				"y": -4.2732222377,
				"z": 3.8207139312,
				"element": "O" 
			},
			{
				"x": 2.9275635659,
				"y": -3.4396096263,
				"z": 2.0933930536,
				"element": "H" 
			},
			{
				"x": 3.5137263267,
				"y": -5.0442751298,
				"z": 1.6513187363,
				"element": "H" 
			},
			{
				"x": 2.3723059718,
				"y": -4.8542366717,
				"z": 2.9913457813,
				"element": "H" 
			},
			{
				"x": 1.7602767383,
				"y": -4.2548975658,
				"z": 0.0271400638,
				"element": "H" 
			},
			{
				"x": 1.2855248483,
				"y": -5.7332283108,
				"z": 0.8445481695,
				"element": "H" 
			},
			{
				"x": -0.5885281256,
				"y": -4.1797444784,
				"z": 0.6238655781,
				"element": "H" 
			},
			{
				"x": 0.7937659029,
				"y": -2.037153262,
				"z": 0.7729273931,
				"element": "H" 
			},
			{
				"x": 0.8206268183,
				"y": -2.2738651231,
				"z": 2.5379286812,
				"element": "H" 
			},
			{
				"x": -0.5176703402,
				"y": -0.6843803431,
				"z": 3.2620728971,
				"element": "H" 
			},
			{
				"x": -2.2215439999,
				"y": -0.6821681362,
				"z": 2.7560770633,
				"element": "H" 
			},
			{
				"x": -1.5423472501,
				"y": 0.3949937077,
				"z": 0.5834681813,
				"element": "H" 
			},
			{
				"x": -1.2693915489,
				"y": 1.3890609147,
				"z": 2.0454876466,
				"element": "H" 
			},
			{
				"x": 2.1496903224,
				"y": 4.7922766442,
				"z": 1.2243352102,
				"element": "H" 
			},
			{
				"x": 2.2247473252,
				"y": 2.5945369414,
				"z": -3.4137501701,
				"element": "H" 
			},
			{
				"x": -1.5179595112,
				"y": 4.2643803887,
				"z": -3.9796252916,
				"element": "H" 
			},
			{
				"x": -1.3441840251,
				"y": 3.1709221239,
				"z": -2.5828634813,
				"element": "H" 
			},
			{
				"x": -0.6358022725,
				"y": 4.7915041042,
				"z": -2.5220698881,
				"element": "H" 
			},
			{
				"x": -1.3814661828,
				"y": -6.1323283143,
				"z": 3.2696727076,
				"element": "H" 
			}
		],
		 "valence_orbital": [ 
			{
				"type": "occ",
				"energy": -0.26523,
				"method": "rhf"
			},
			{
				"type": "occ",
				"energy": -0.26137,
				"method": "rhf"
			},
			{
				"type": "occ",
				"energy": -0.26002,
				"method": "rhf"
			},
			{
				"type": "occ",
				"energy": -0.25502,
				"method": "rhf"
			},
			{
				"type": "occ",
				"energy": -0.25131,
				"method": "rhf"
			},
			{
				"type": "unocc",
				"energy": -0.08175,
				"method": "rhf"
			},
			{
				"type": "unocc",
				"energy": -0.0562,
				"method": "rhf"
			},
			{
				"type": "unocc",
				"energy": -0.04831,
				"method": "rhf"
			},
			{
				"type": "unocc",
				"energy": -0.04078,
				"method": "rhf"
			},
			{
				"type": "unocc",
				"energy": -0.03873,
				"method": "rhf"
			}
		],
		"cosmo_sigma_profile": { 
			"0.0": 0.0,
			"0.0": 0.0,
			"0.0": 0.0,
			"0.0": 0.0,
			"0.0": 0.0,
			"0.0": 0.0,
			"0.0": 0.0,
			"0.0": 0.0,
			"0.0": 0.0,
			"0.0": 0.0,
			"0.0": 0.0,
			"0.0": 0.0,
			"0.0": 0.0,
			"0.0": 0.0,
			"0.0": 0.0,
			"0.0": 0.0,
			"0.0": 0.0,
			"0.0": 0.0,
			"0.0": 0.0,
			"0.0": 0.0,
			"0.0": 0.0,
			"0.0": 0.0,
			"0.0": 0.0,
			"0.0": 0.0,
			"0.0": 0.0,
			"0.0": 0.0,
			"0.0": 0.0,
			"0.0": 0.0,
			"0.0": 0.0,
			"0.0": 0.0,
			"0.0": 0.0,
			"0.0": 0.0,
			"0.0": 0.0,
			"0.0": 0.0,
			"0.0": 0.0,
			"0.0": 0.0,
			"0.0": 0.0,
			"0.0": 0.0,
			"0.0": 0.0,
			"0.0": 0.0,
			"0.0": 0.0,
			"0.0": 0.0,
			"0.0": 0.0,
			"0.0": 0.0,
			"0.0": 0.0,
			"0.0": 0.0,
			"0.0": 0.0,
			"0.0": 0.0,
			"0.0": 0.0,
			"0.0": 0.0,
			"0.0": 0.0
		}
	}
}
