{
	 "smiles": "CC1=C(CN2CCNCC2)N2CCCCC2=N1", 
	 "Tm": 385.15, 
	 "num_atms": 39, 
	 "gaussian": { 
		 "optdone": 1, 
		 "sigma_profile": "yes", 
		 "theory": "DFT", 
		 "functional": "B3LYP", 
		 "basiset": "6-31G**", 
		 "properties": { 
			 "R2extent": 5307.5246, 
			 "electric_dipole_moment_norm": 3.73028220916, 
			 "electric_quadrupole_moment_norm": 6.20724216943, 
			 "total_energy": -727.652013563, 
			 "HOMO_LUMO_gap": 0.22454, 
			 "cosmo_polarized_energy": -13.04, 
			 "cosmo_cavitation_energy": 37.57, 
			 "cosmo_dispersion_energy": -26.64, 
			 "cosmo_repulsion_energy": 2.08, 
			 "cosmo_total_nonelectrostatic_energy": 13.01, 
			 "SMD_solvation_energy": -0.36 
		},
		"coords": [
			{
				"x": -0.2616710017,
				"y": 3.2704908929,
				"z": 1.7018816515,
				"element": "C" 
			},
			{
				"x": -0.5635794078,
				"y": 1.804851093,
				"z": 1.6267791537,
				"element": "C" 
			},
			{
				"x": 0.3076906609,
				"y": 0.741903391,
				"z": 1.4869562597,
				"element": "C" 
			},
			{
				"x": 1.7982550328,
				"y": 0.6711318121,
				"z": 1.3884484018,
				"element": "C" 
			},
			{
				"x": 2.2668086444,
				"y": 0.0872185589,
				"z": 0.1149614216,
				"element": "N" 
			},
			{
				"x": 3.6924820328,
				"y": -0.269613617,
				"z": 0.119392226,
				"element": "C" 
			},
			{
				"x": 4.6325092684,
				"y": 0.9344012698,
				"z": -0.0752338175,
				"element": "C" 
			},
			{
				"x": 4.3026707772,
				"y": 1.732577064,
				"z": -1.2633223832,
				"element": "N" 
			},
			{
				"x": 2.8774372913,
				"y": 2.0927027337,
				"z": -1.2788986647,
				"element": "C" 
			},
			{
				"x": 1.9399725777,
				"y": 0.8882005475,
				"z": -1.0759412508,
				"element": "C" 
			},
			{
				"x": -0.5020697942,
				"y": -0.3913999015,
				"z": 1.4760532211,
				"element": "N" 
			},
			{
				"x": -0.066607084,
				"y": -1.7879771942,
				"z": 1.4384702085,
				"element": "C" 
			},
			{
				"x": -1.241985063,
				"y": -2.7018467995,
				"z": 1.0793820728,
				"element": "C" 
			},
			{
				"x": -2.4858314428,
				"y": -2.3559659926,
				"z": 1.9103577072,
				"element": "C" 
			},
			{
				"x": -2.9473951842,
				"y": -0.9203084547,
				"z": 1.6088054066,
				"element": "C" 
			},
			{
				"x": -1.7936211254,
				"y": 0.0392496281,
				"z": 1.6182239626,
				"element": "C" 
			},
			{
				"x": -1.8645774363,
				"y": 1.3535340422,
				"z": 1.7077656649,
				"element": "N" 
			},
			{
				"x": -0.7980077175,
				"y": 3.8189293338,
				"z": 0.9196275816,
				"element": "H" 
			},
			{
				"x": -0.5849924015,
				"y": 3.6880194339,
				"z": 2.662284844,
				"element": "H" 
			},
			{
				"x": 0.8067717437,
				"y": 3.4749604758,
				"z": 1.5886516079,
				"element": "H" 
			},
			{
				"x": 2.1948802645,
				"y": 1.6795990182,
				"z": 1.588603384,
				"element": "H" 
			},
			{
				"x": 2.2005425486,
				"y": 0.0293736487,
				"z": 2.1851440974,
				"element": "H" 
			},
			{
				"x": 3.8593163136,
				"y": -0.9803957175,
				"z": -0.7041707108,
				"element": "H" 
			},
			{
				"x": 3.9220106554,
				"y": -0.7991019322,
				"z": 1.0527673141,
				"element": "H" 
			},
			{
				"x": 4.5803035205,
				"y": 1.597493095,
				"z": 0.7989753662,
				"element": "H" 
			},
			{
				"x": 5.672902875,
				"y": 0.5967131223,
				"z": -0.1529107247,
				"element": "H" 
			},
			{
				"x": 4.5073806956,
				"y": 1.1782294941,
				"z": -2.0943646459,
				"element": "H" 
			},
			{
				"x": 2.6502021407,
				"y": 2.5934251382,
				"z": -2.2273450075,
				"element": "H" 
			},
			{
				"x": 2.7129764382,
				"y": 2.8346804937,
				"z": -0.486061135,
				"element": "H" 
			},
			{
				"x": 0.8963254163,
				"y": 1.2111792581,
				"z": -1.0030375968,
				"element": "H" 
			},
			{
				"x": 2.0176683778,
				"y": 0.2265486784,
				"z": -1.9515448045,
				"element": "H" 
			},
			{
				"x": 0.3319813847,
				"y": -2.0651273566,
				"z": 2.425028911,
				"element": "H" 
			},
			{
				"x": 0.7486349533,
				"y": -1.867102213,
				"z": 0.714688714,
				"element": "H" 
			},
			{
				"x": -1.4743120058,
				"y": -2.5971189328,
				"z": 0.011707291,
				"element": "H" 
			},
			{
				"x": -0.9381977666,
				"y": -3.7417968947,
				"z": 1.2406645,
				"element": "H" 
			},
			{
				"x": -2.2476603957,
				"y": -2.454278185,
				"z": 2.9778682065,
				"element": "H" 
			},
			{
				"x": -3.2959966507,
				"y": -3.0621486659,
				"z": 1.7004049114,
				"element": "H" 
			},
			{
				"x": -3.6993045541,
				"y": -0.5786823663,
				"z": 2.3267723852,
				"element": "H" 
			},
			{
				"x": -3.4308145821,
				"y": -0.8924480001,
				"z": 0.6216642692,
				"element": "H" 
			}
		],
		 "valence_orbital": [ 
			{
				"type": "occ",
				"energy": -0.24889,
				"method": "rhf"
			},
			{
				"type": "occ",
				"energy": -0.24591,
				"method": "rhf"
			},
			{
				"type": "occ",
				"energy": -0.24436,
				"method": "rhf"
			},
			{
				"type": "occ",
				"energy": -0.19799,
				"method": "rhf"
			},
			{
				"type": "occ",
				"energy": -0.18929,
				"method": "rhf"
			},
			{
				"type": "unocc",
				"energy": 0.03525,
				"method": "rhf"
			},
			{
				"type": "unocc",
				"energy": 0.06751,
				"method": "rhf"
			},
			{
				"type": "unocc",
				"energy": 0.07478,
				"method": "rhf"
			},
			{
				"type": "unocc",
				"energy": 0.08699,
				"method": "rhf"
			},
			{
				"type": "unocc",
				"energy": 0.09247,
				"method": "rhf"
			}
		],
		"cosmo_sigma_profile": { 
			"-0.025": 0.0,
			"-0.024": 0.0,
			"-0.023": 0.0,
			"-0.022": 0.0,
			"-0.021": 0.0,
			"-0.02": 0.0,
			"-0.019": 0.0,
			"-0.018": 0.0,
			"-0.017": 0.0,
			"-0.016": 0.0,
			"-0.015": 0.0,
			"-0.014": 0.0,
			"-0.013": 0.0,
			"-0.012": 0.0,
			"-0.011": 0.0,
			"-0.01": 0.0983604894448,
			"-0.009": 1.01277034571,
			"-0.008": 1.79072961377,
			"-0.007": 1.34228943495,
			"-0.006": 1.80966875607,
			"-0.005": 5.05561628482,
			"-0.004": 29.6853400502,
			"-0.003": 51.2140431009,
			"-0.002": 47.3723179465,
			"-0.001": 40.7371005407,
			"0.0": 30.9099382886,
			"0.001": 16.7514062339,
			"0.002": 8.74471729493,
			"0.003": 8.30522978875,
			"0.004": 7.23088641034,
			"0.005": 5.65777227107,
			"0.006": 4.38385048877,
			"0.007": 5.04808858331,
			"0.008": 3.37520571998,
			"0.009": 3.48867100364,
			"0.01": 2.85851741385,
			"0.011": 1.86695814631,
			"0.012": 0.981066856413,
			"0.013": 1.22105807138,
			"0.014": 2.60544139293,
			"0.015": 1.6121136367,
			"0.016": 1.76894975009,
			"0.017": 1.32715014587,
			"0.018": 1.1869029792,
			"0.019": 1.48762791111,
			"0.02": 0.180651658683,
			"0.021": 0.0,
			"0.022": 0.0,
			"0.023": 0.0,
			"0.024": 0.0,
			"0.025": 0.0
		}
	}
}
