{
	 "smiles": "COC(=O)C1=CC(=CC(CBr)=C1)C(=O)OC", 
	 "Tm": 413.15, 
	 "num_atms": 27, 
	 "gaussian": { 
		 "optdone": 1, 
		 "sigma_profile": "yes", 
		 "theory": "DFT", 
		 "functional": "B3LYP", 
		 "basiset": "6-31G**", 
		 "properties": { 
			 "R2extent": 6790.4065, 
			 "electric_dipole_moment_norm": 2.80566608134, 
			 "electric_quadrupole_moment_norm": 28.3354859432, 
			 "total_energy": -3298.12782233, 
			 "HOMO_LUMO_gap": 0.19873, 
			 "cosmo_polarized_energy": -13.9, 
			 "cosmo_cavitation_energy": 35.02, 
			 "cosmo_dispersion_energy": -25.12, 
			 "cosmo_repulsion_energy": 2.0, 
			 "cosmo_total_nonelectrostatic_energy": 11.91, 
			 "SMD_solvation_energy": 7.92 
		},
		"coords": [
			{
				"x": -1.6238404648,
				"y": -2.4811888635,
				"z": 3.2956037275,
				"element": "C" 
			},
			{
				"x": -0.8386236887,
				"y": -1.6463350225,
				"z": 2.4289257352,
				"element": "O" 
			},
			{
				"x": -1.4277741775,
				"y": -1.3189651396,
				"z": 1.2572048718,
				"element": "C" 
			},
			{
				"x": -2.5410859593,
				"y": -1.688359242,
				"z": 0.9432699097,
				"element": "O" 
			},
			{
				"x": -0.5548516747,
				"y": -0.4573696902,
				"z": 0.4049936601,
				"element": "C" 
			},
			{
				"x": -1.0545674844,
				"y": -0.0426527978,
				"z": -0.8324587389,
				"element": "C" 
			},
			{
				"x": -0.2759379447,
				"y": 0.767075506,
				"z": -1.6637574734,
				"element": "C" 
			},
			{
				"x": 1.0038068172,
				"y": 1.1604637194,
				"z": -1.2545555815,
				"element": "C" 
			},
			{
				"x": 1.5120711604,
				"y": 0.7519243396,
				"z": -0.0161428177,
				"element": "C" 
			},
			{
				"x": 2.8729484208,
				"y": 1.18770233,
				"z": 0.4252065884,
				"element": "C" 
			},
			{
				"x": 4.2999360423,
				"y": -0.098315988,
				"z": -0.1423654274,
				"element": "Br" 
			},
			{
				"x": 0.7256642975,
				"y": -0.0606905555,
				"z": 0.8085736193,
				"element": "C" 
			},
			{
				"x": -0.8571365455,
				"y": 1.1855164476,
				"z": -2.9743701184,
				"element": "C" 
			},
			{
				"x": -1.9595960179,
				"y": 0.8635091163,
				"z": -3.3685311431,
				"element": "O" 
			},
			{
				"x": -0.0145420181,
				"y": 1.9706881291,
				"z": -3.6820238851,
				"element": "O" 
			},
			{
				"x": -0.5106337822,
				"y": 2.404473871,
				"z": -4.9588917474,
				"element": "C" 
			},
			{
				"x": -2.5581820069,
				"y": -1.9828072265,
				"z": 3.565540921,
				"element": "H" 
			},
			{
				"x": -1.008122312,
				"y": -2.6486754941,
				"z": 4.1789549977,
				"element": "H" 
			},
			{
				"x": -1.8597617303,
				"y": -3.4287063955,
				"z": 2.8050497335,
				"element": "H" 
			},
			{
				"x": -2.0462105378,
				"y": -0.3473186381,
				"z": -1.1464626377,
				"element": "H" 
			},
			{
				"x": 1.6021673206,
				"y": 1.7855879443,
				"z": -1.9084348492,
				"element": "H" 
			},
			{
				"x": 3.1723923329,
				"y": 2.1362274341,
				"z": -0.016600737,
				"element": "H" 
			},
			{
				"x": 2.9665592753,
				"y": 1.2346275708,
				"z": 1.5085271367,
				"element": "H" 
			},
			{
				"x": 1.106451243,
				"y": -0.3910084722,
				"z": 1.7689235634,
				"element": "H" 
			},
			{
				"x": -0.7263931987,
				"y": 1.5452205363,
				"z": -5.5985935041,
				"element": "H" 
			},
			{
				"x": 0.2823600841,
				"y": 3.0150104188,
				"z": -5.3900242476,
				"element": "H" 
			},
			{
				"x": -1.4250974508,
				"y": 2.9901661622,
				"z": -4.8365615554,
				"element": "H" 
			}
		],
		 "valence_orbital": [ 
			{
				"type": "occ",
				"energy": -0.28081,
				"method": "rhf"
			},
			{
				"type": "occ",
				"energy": -0.28007,
				"method": "rhf"
			},
			{
				"type": "occ",
				"energy": -0.27878,
				"method": "rhf"
			},
			{
				"type": "occ",
				"energy": -0.27238,
				"method": "rhf"
			},
			{
				"type": "occ",
				"energy": -0.26313,
				"method": "rhf"
			},
			{
				"type": "unocc",
				"energy": -0.0644,
				"method": "rhf"
			},
			{
				"type": "unocc",
				"energy": -0.05638,
				"method": "rhf"
			},
			{
				"type": "unocc",
				"energy": -0.01526,
				"method": "rhf"
			},
			{
				"type": "unocc",
				"energy": 0.0416,
				"method": "rhf"
			},
			{
				"type": "unocc",
				"energy": 0.07375,
				"method": "rhf"
			}
		],
		"cosmo_sigma_profile": { 
			"-0.025": 0.0,
			"-0.024": 0.0,
			"-0.023": 0.0,
			"-0.022": 0.0,
			"-0.021": 0.0,
			"-0.02": 0.0,
			"-0.019": 0.0,
			"-0.018": 0.0,
			"-0.017": 0.0,
			"-0.016": 0.0,
			"-0.015": 0.0,
			"-0.014": 0.0,
			"-0.013": 0.0,
			"-0.012": 0.0,
			"-0.011": 0.0,
			"-0.01": 0.0,
			"-0.009": 2.03416654945,
			"-0.008": 6.91964225709,
			"-0.007": 7.54954404096,
			"-0.006": 16.4388421708,
			"-0.005": 19.5218672943,
			"-0.004": 23.4386293,
			"-0.003": 25.9108552708,
			"-0.002": 20.4820649591,
			"-0.001": 21.0004399219,
			"0.0": 23.6055500788,
			"0.001": 22.4852189832,
			"0.002": 13.5649794332,
			"0.003": 12.5352273217,
			"0.004": 12.1001463859,
			"0.005": 14.2146736156,
			"0.006": 13.5029498563,
			"0.007": 3.9204798436,
			"0.008": 3.31739451288,
			"0.009": 3.20369520721,
			"0.01": 3.84579327425,
			"0.011": 7.74320329431,
			"0.012": 5.23069149359,
			"0.013": 0.00134880594332,
			"0.014": 0.0,
			"0.015": 0.0,
			"0.016": 0.0,
			"0.017": 0.0,
			"0.018": 0.0,
			"0.019": 0.0,
			"0.02": 0.0,
			"0.021": 0.0,
			"0.022": 0.0,
			"0.023": 0.0,
			"0.024": 0.0,
			"0.025": 0.0
		}
	}
}
