{
	 "smiles": "CC(C)(C)NC(=S)NC(C)(C)C", 
	 "Tm": 443.15, 
	 "num_atms": 32, 
	 "gaussian": { 
		 "optdone": 1, 
		 "sigma_profile": "yes", 
		 "theory": "DFT", 
		 "functional": "B3LYP", 
		 "basiset": "6-31G**", 
		 "properties": { 
			 "R2extent": 2893.0581, 
			 "electric_dipole_moment_norm": 4.2950982352, 
			 "electric_quadrupole_moment_norm": 13.1017419056, 
			 "total_energy": -862.72354921, 
			 "HOMO_LUMO_gap": 0.16676, 
			 "cosmo_polarized_energy": -11.7, 
			 "cosmo_cavitation_energy": 32.96, 
			 "cosmo_dispersion_energy": -22.43, 
			 "cosmo_repulsion_energy": 1.72, 
			 "cosmo_total_nonelectrostatic_energy": 12.24, 
			 "SMD_solvation_energy": 4.75 
		},
		"coords": [
			{
				"x": 1.2335573977,
				"y": 0.5871198301,
				"z": 1.0737166895,
				"element": "C" 
			},
			{
				"x": 1.5319620686,
				"y": -0.8105262669,
				"z": 0.5212053677,
				"element": "C" 
			},
			{
				"x": 1.6559701948,
				"y": -1.7975141533,
				"z": 1.7023655599,
				"element": "C" 
			},
			{
				"x": 2.8391408605,
				"y": -0.7950113337,
				"z": -0.2879043762,
				"element": "C" 
			},
			{
				"x": 0.4643350768,
				"y": -1.3421893219,
				"z": -0.4012614907,
				"element": "N" 
			},
			{
				"x": -0.8986143444,
				"y": -1.1755146286,
				"z": -0.2467485512,
				"element": "C" 
			},
			{
				"x": -1.9171492168,
				"y": -2.489142244,
				"z": 0.0194463946,
				"element": "S" 
			},
			{
				"x": -1.3915566844,
				"y": 0.1132945007,
				"z": -0.3197759526,
				"element": "N" 
			},
			{
				"x": -1.3521975291,
				"y": 1.0092265622,
				"z": -1.5319704115,
				"element": "C" 
			},
			{
				"x": -0.0608697202,
				"y": 0.8906163336,
				"z": -2.3480974202,
				"element": "C" 
			},
			{
				"x": -1.5268757519,
				"y": 2.4474550783,
				"z": -1.0175571332,
				"element": "C" 
			},
			{
				"x": -2.5470273426,
				"y": 0.6233769897,
				"z": -2.430928693,
				"element": "C" 
			},
			{
				"x": 2.0606754361,
				"y": 0.8782452502,
				"z": 1.729253453,
				"element": "H" 
			},
			{
				"x": 1.1535200204,
				"y": 1.3371408949,
				"z": 0.2853337859,
				"element": "H" 
			},
			{
				"x": 0.3109323298,
				"y": 0.6073531685,
				"z": 1.6557889225,
				"element": "H" 
			},
			{
				"x": 0.7146146572,
				"y": -1.8627094889,
				"z": 2.2554265558,
				"element": "H" 
			},
			{
				"x": 1.9096976224,
				"y": -2.8038805469,
				"z": 1.350904033,
				"element": "H" 
			},
			{
				"x": 2.4434922527,
				"y": -1.4764655651,
				"z": 2.3922470768,
				"element": "H" 
			},
			{
				"x": 3.6796847983,
				"y": -0.5015196966,
				"z": 0.3491873212,
				"element": "H" 
			},
			{
				"x": 2.7762207138,
				"y": -0.0932892528,
				"z": -1.1241000076,
				"element": "H" 
			},
			{
				"x": 3.0599833898,
				"y": -1.7876661905,
				"z": -0.6957622523,
				"element": "H" 
			},
			{
				"x": 0.6380798835,
				"y": -2.3329997358,
				"z": -0.5377346453,
				"element": "H" 
			},
			{
				"x": -2.3474527769,
				"y": 0.0953359428,
				"z": 0.0214670748,
				"element": "H" 
			},
			{
				"x": -0.1324640599,
				"y": 1.5737662878,
				"z": -3.200611877,
				"element": "H" 
			},
			{
				"x": 0.0887372748,
				"y": -0.1203761911,
				"z": -2.7301894361,
				"element": "H" 
			},
			{
				"x": 0.8223772046,
				"y": 1.1690331738,
				"z": -1.7712420796,
				"element": "H" 
			},
			{
				"x": -2.4434195979,
				"y": 2.5435816976,
				"z": -0.4249530128,
				"element": "H" 
			},
			{
				"x": -0.6848329656,
				"y": 2.7449529277,
				"z": -0.3866809979,
				"element": "H" 
			},
			{
				"x": -1.5968220097,
				"y": 3.1476709772,
				"z": -1.856224698,
				"element": "H" 
			},
			{
				"x": -2.4665723517,
				"y": -0.4166474275,
				"z": -2.7597905556,
				"element": "H" 
			},
			{
				"x": -3.4962832476,
				"y": 0.7340702083,
				"z": -1.8948804643,
				"element": "H" 
			},
			{
				"x": -2.586843583,
				"y": 1.2664122203,
				"z": -3.3164281798,
				"element": "H" 
			}
		],
		 "valence_orbital": [ 
			{
				"type": "occ",
				"energy": -0.34143,
				"method": "rhf"
			},
			{
				"type": "occ",
				"energy": -0.32453,
				"method": "rhf"
			},
			{
				"type": "occ",
				"energy": -0.24361,
				"method": "rhf"
			},
			{
				"type": "occ",
				"energy": -0.22315,
				"method": "rhf"
			},
			{
				"type": "occ",
				"energy": -0.19473,
				"method": "rhf"
			},
			{
				"type": "unocc",
				"energy": -0.02797,
				"method": "rhf"
			},
			{
				"type": "unocc",
				"energy": 0.05405,
				"method": "rhf"
			},
			{
				"type": "unocc",
				"energy": 0.0844,
				"method": "rhf"
			},
			{
				"type": "unocc",
				"energy": 0.09115,
				"method": "rhf"
			},
			{
				"type": "unocc",
				"energy": 0.10245,
				"method": "rhf"
			}
		],
		"cosmo_sigma_profile": { 
			"-0.025": 0.0,
			"-0.024": 0.0,
			"-0.023": 0.0,
			"-0.022": 0.0,
			"-0.021": 0.0,
			"-0.02": 0.0,
			"-0.019": 0.0,
			"-0.018": 0.0,
			"-0.017": 0.0,
			"-0.016": 0.0,
			"-0.015": 0.0,
			"-0.014": 0.0,
			"-0.013": 0.0,
			"-0.012": 0.0439340973411,
			"-0.011": 1.03852004516,
			"-0.01": 2.75581422452,
			"-0.009": 2.13419139472,
			"-0.008": 1.80498865251,
			"-0.007": 2.91421088952,
			"-0.006": 3.26060641384,
			"-0.005": 4.24727253245,
			"-0.004": 20.3902711021,
			"-0.003": 32.6971779943,
			"-0.002": 29.893605611,
			"-0.001": 29.1309280768,
			"0.0": 39.5852811358,
			"0.001": 31.6683232719,
			"0.002": 6.42029029106,
			"0.003": 6.46326991371,
			"0.004": 6.21744093662,
			"0.005": 5.08330129454,
			"0.006": 3.71259249408,
			"0.007": 3.20688171303,
			"0.008": 4.92995599637,
			"0.009": 4.87798153927,
			"0.01": 6.52573831935,
			"0.011": 4.2707678377,
			"0.012": 2.61536935674,
			"0.013": 1.25132014063,
			"0.014": 0.0,
			"0.015": 0.0,
			"0.016": 0.0,
			"0.017": 0.0,
			"0.018": 0.0,
			"0.019": 0.0,
			"0.02": 0.0,
			"0.021": 0.0,
			"0.022": 0.0,
			"0.023": 0.0,
			"0.024": 0.0,
			"0.025": 0.0
		}
	}
}
