{
	 "smiles": "CC1=C(O)C=C(NC(=O)OC(C)(C)C)C=C1", 
	 "Tm": 383.15, 
	 "num_atms": 33, 
	 "gaussian": { 
		 "optdone": 1, 
		 "sigma_profile": "yes", 
		 "theory": "DFT", 
		 "functional": "B3LYP", 
		 "basiset": "6-31G**", 
		 "properties": { 
			 "R2extent": 5041.5782, 
			 "electric_dipole_moment_norm": 1.78626333165, 
			 "electric_quadrupole_moment_norm": 15.3066550546, 
			 "total_energy": -747.989975869, 
			 "HOMO_LUMO_gap": 0.20367, 
			 "cosmo_polarized_energy": -13.28, 
			 "cosmo_cavitation_energy": 35.56, 
			 "cosmo_dispersion_energy": -24.85, 
			 "cosmo_repulsion_energy": 1.93, 
			 "cosmo_total_nonelectrostatic_energy": 12.63, 
			 "SMD_solvation_energy": 7.47 
		},
		"coords": [
			{
				"x": 4.1899727694,
				"y": -2.4135313931,
				"z": -2.3204395028,
				"element": "C" 
			},
			{
				"x": 2.8723787918,
				"y": -1.9001681583,
				"z": -1.8008486958,
				"element": "C" 
			},
			{
				"x": 2.8256001013,
				"y": -0.7760674588,
				"z": -0.9591940401,
				"element": "C" 
			},
			{
				"x": 4.0254282455,
				"y": -0.1921284276,
				"z": -0.649575105,
				"element": "O" 
			},
			{
				"x": 1.6253033093,
				"y": -0.2691493368,
				"z": -0.4567314695,
				"element": "C" 
			},
			{
				"x": 0.4142945593,
				"y": -0.8890255806,
				"z": -0.7918846915,
				"element": "C" 
			},
			{
				"x": -0.852351088,
				"y": -0.4624919644,
				"z": -0.342276141,
				"element": "N" 
			},
			{
				"x": -1.3016128244,
				"y": 0.5618035233,
				"z": 0.4644988207,
				"element": "C" 
			},
			{
				"x": -2.492858818,
				"y": 0.7014166012,
				"z": 0.6927602053,
				"element": "O" 
			},
			{
				"x": -0.3053152717,
				"y": 1.3372766028,
				"z": 0.9353189144,
				"element": "O" 
			},
			{
				"x": -0.6024281307,
				"y": 2.4852372228,
				"z": 1.8165729252,
				"element": "C" 
			},
			{
				"x": -1.2567316199,
				"y": 1.9946761084,
				"z": 3.1118313484,
				"element": "C" 
			},
			{
				"x": -1.4692457449,
				"y": 3.5054009741,
				"z": 1.0720722568,
				"element": "C" 
			},
			{
				"x": 0.789748087,
				"y": 3.0577144162,
				"z": 2.0955680447,
				"element": "C" 
			},
			{
				"x": 0.4383889675,
				"y": -2.0131716085,
				"z": -1.6311107253,
				"element": "C" 
			},
			{
				"x": 1.6506845722,
				"y": -2.4966921499,
				"z": -2.1174496886,
				"element": "C" 
			},
			{
				"x": 4.7153187442,
				"y": -1.6496621639,
				"z": -2.9048777265,
				"element": "H" 
			},
			{
				"x": 4.8616835011,
				"y": -2.6946159823,
				"z": -1.5013835288,
				"element": "H" 
			},
			{
				"x": 4.0421134627,
				"y": -3.2898627111,
				"z": -2.9574690987,
				"element": "H" 
			},
			{
				"x": 3.8657996575,
				"y": 0.5639161437,
				"z": -0.0701698638,
				"element": "H" 
			},
			{
				"x": 1.6308063818,
				"y": 0.5988922713,
				"z": 0.1887633999,
				"element": "H" 
			},
			{
				"x": -1.6338106688,
				"y": -1.013053113,
				"z": -0.6692501775,
				"element": "H" 
			},
			{
				"x": -1.3636888225,
				"y": 2.8338319138,
				"z": 3.8068453155,
				"element": "H" 
			},
			{
				"x": -0.63041427,
				"y": 1.2351857896,
				"z": 3.5904168096,
				"element": "H" 
			},
			{
				"x": -2.241410389,
				"y": 1.5704706759,
				"z": 2.9161731048,
				"element": "H" 
			},
			{
				"x": -0.9904431245,
				"y": 3.7975042532,
				"z": 0.1320893909,
				"element": "H" 
			},
			{
				"x": -2.4557665212,
				"y": 3.0959729441,
				"z": 0.8553460725,
				"element": "H" 
			},
			{
				"x": -1.5852728865,
				"y": 4.4034329714,
				"z": 1.6874860857,
				"element": "H" 
			},
			{
				"x": 0.7107452347,
				"y": 3.93057119,
				"z": 2.7500932115,
				"element": "H" 
			},
			{
				"x": 1.4226549247,
				"y": 2.3143298386,
				"z": 2.5897360878,
				"element": "H" 
			},
			{
				"x": 1.2743873843,
				"y": 3.3690741284,
				"z": 1.1652109414,
				"element": "H" 
			},
			{
				"x": -0.491219264,
				"y": -2.506822398,
				"z": -1.9017201837,
				"element": "H" 
			},
			{
				"x": 1.6471607497,
				"y": -3.3688651225,
				"z": -2.7663022963,
				"element": "H" 
			}
		],
		 "valence_orbital": [ 
			{
				"type": "occ",
				"energy": -0.29793,
				"method": "rhf"
			},
			{
				"type": "occ",
				"energy": -0.28762,
				"method": "rhf"
			},
			{
				"type": "occ",
				"energy": -0.27036,
				"method": "rhf"
			},
			{
				"type": "occ",
				"energy": -0.23041,
				"method": "rhf"
			},
			{
				"type": "occ",
				"energy": -0.20299,
				"method": "rhf"
			},
			{
				"type": "unocc",
				"energy": 0.00068,
				"method": "rhf"
			},
			{
				"type": "unocc",
				"energy": 0.01339,
				"method": "rhf"
			},
			{
				"type": "unocc",
				"energy": 0.06406,
				"method": "rhf"
			},
			{
				"type": "unocc",
				"energy": 0.06651,
				"method": "rhf"
			},
			{
				"type": "unocc",
				"energy": 0.07809,
				"method": "rhf"
			}
		],
		"cosmo_sigma_profile": { 
			"-0.025": 0.0,
			"-0.024": 0.0,
			"-0.023": 0.0,
			"-0.022": 0.0,
			"-0.021": 0.0,
			"-0.02": 0.0,
			"-0.019": 0.0,
			"-0.018": 0.0481951977732,
			"-0.017": 0.778987265583,
			"-0.016": 0.881486628439,
			"-0.015": 1.28984156525,
			"-0.014": 1.75062621025,
			"-0.013": 2.31463117053,
			"-0.012": 1.99188840472,
			"-0.011": 1.36073131516,
			"-0.01": 1.60045542591,
			"-0.009": 2.49750466597,
			"-0.008": 2.04566524092,
			"-0.007": 2.28986823522,
			"-0.006": 2.49752305196,
			"-0.005": 7.51376154839,
			"-0.004": 20.5361049228,
			"-0.003": 26.0859584685,
			"-0.002": 23.5422306471,
			"-0.001": 28.1049411897,
			"0.0": 36.9208032448,
			"0.001": 26.7638354051,
			"0.002": 14.4081949598,
			"0.003": 14.1534509263,
			"0.004": 15.2846563562,
			"0.005": 12.2166432099,
			"0.006": 9.80324707641,
			"0.007": 4.48117018261,
			"0.008": 3.31805964644,
			"0.009": 2.27214745463,
			"0.01": 3.33987669372,
			"0.011": 2.60284285492,
			"0.012": 2.29964257745,
			"0.013": 3.48680384733,
			"0.014": 0.496178997219,
			"0.015": 0.0,
			"0.016": 0.0,
			"0.017": 0.0,
			"0.018": 0.0,
			"0.019": 0.0,
			"0.02": 0.0,
			"0.021": 0.0,
			"0.022": 0.0,
			"0.023": 0.0,
			"0.024": 0.0,
			"0.025": 0.0
		}
	}
}
