{
	 "smiles": "OC(=O)C1=CC(NC(=O)C2=CC3=C(NC=N3)C=C2)=CC=C1", 
	 "Tm": 579.15, 
	 "num_atms": 32, 
	 "gaussian": { 
		 "optdone": 1, 
		 "sigma_profile": "yes", 
		 "theory": "DFT", 
		 "functional": "B3LYP", 
		 "basiset": "6-31G**", 
		 "properties": { 
			 "R2extent": 10050.3185, 
			 "electric_dipole_moment_norm": 11.5725662686, 
			 "electric_quadrupole_moment_norm": 23.8306367592, 
			 "total_energy": -968.19018017, 
			 "HOMO_LUMO_gap": 0.18146, 
			 "cosmo_polarized_energy": -31.23, 
			 "cosmo_cavitation_energy": 37.77, 
			 "cosmo_dispersion_energy": -27.79, 
			 "cosmo_repulsion_energy": 2.06, 
			 "cosmo_total_nonelectrostatic_energy": 12.04, 
			 "SMD_solvation_energy": 6.09 
		},
		"coords": [
			{
				"x": 5.4784784415,
				"y": -2.1750494667,
				"z": -0.1037245489,
				"element": "O" 
			},
			{
				"x": 4.7888227422,
				"y": -3.0929315683,
				"z": -0.826988618,
				"element": "C" 
			},
			{
				"x": 5.3806348544,
				"y": -3.9744597069,
				"z": -1.4063228836,
				"element": "O" 
			},
			{
				"x": 3.2926952335,
				"y": -2.9552210142,
				"z": -0.8570430563,
				"element": "C" 
			},
			{
				"x": 2.651388242,
				"y": -1.7610870897,
				"z": -0.5070305107,
				"element": "C" 
			},
			{
				"x": 1.2514216759,
				"y": -1.6822318923,
				"z": -0.5500825059,
				"element": "C" 
			},
			{
				"x": 0.5379757271,
				"y": -0.5130574346,
				"z": -0.2270651508,
				"element": "N" 
			},
			{
				"x": 1.0186421165,
				"y": 0.6601745032,
				"z": 0.3269798487,
				"element": "C" 
			},
			{
				"x": 2.1945084785,
				"y": 0.8201949424,
				"z": 0.6399947309,
				"element": "O" 
			},
			{
				"x": -0.01022029,
				"y": 1.7301123739,
				"z": 0.5435724235,
				"element": "C" 
			},
			{
				"x": 0.2733690882,
				"y": 2.681855717,
				"z": 1.5266841843,
				"element": "C" 
			},
			{
				"x": -0.6592603569,
				"y": 3.6927726371,
				"z": 1.7628586733,
				"element": "C" 
			},
			{
				"x": -1.8520492706,
				"y": 3.7477355245,
				"z": 0.9972260891,
				"element": "C" 
			},
			{
				"x": -2.5237317298,
				"y": 4.8520065885,
				"z": 1.4822698582,
				"element": "N" 
			},
			{
				"x": -1.7357141743,
				"y": 5.390080546,
				"z": 2.4797138182,
				"element": "C" 
			},
			{
				"x": -0.6234140888,
				"y": 4.7361978623,
				"z": 2.6803999508,
				"element": "N" 
			},
			{
				"x": -2.1390087657,
				"y": 2.8202720893,
				"z": -0.006570103,
				"element": "C" 
			},
			{
				"x": -1.2028205731,
				"y": 1.8142912387,
				"z": -0.217338813,
				"element": "C" 
			},
			{
				"x": 0.5140303769,
				"y": -2.807757427,
				"z": -0.951482163,
				"element": "C" 
			},
			{
				"x": 1.1622431459,
				"y": -3.9869476793,
				"z": -1.3107636122,
				"element": "C" 
			},
			{
				"x": 2.5518751144,
				"y": -4.0677611078,
				"z": -1.2722160217,
				"element": "C" 
			},
			{
				"x": 4.8723197638,
				"y": -1.6130624818,
				"z": 0.3995239263,
				"element": "H" 
			},
			{
				"x": 3.1956705706,
				"y": -0.8706824769,
				"z": -0.2226631005,
				"element": "H" 
			},
			{
				"x": -0.4654709885,
				"y": -0.5909457667,
				"z": -0.3004171384,
				"element": "H" 
			},
			{
				"x": 1.200053128,
				"y": 2.6243789917,
				"z": 2.0856345304,
				"element": "H" 
			},
			{
				"x": -3.4152071463,
				"y": 5.2043922956,
				"z": 1.1697362815,
				"element": "H" 
			},
			{
				"x": -2.0467251652,
				"y": 6.2737172907,
				"z": 3.0224822996,
				"element": "H" 
			},
			{
				"x": -3.0393909209,
				"y": 2.8817098831,
				"z": -0.6097530748,
				"element": "H" 
			},
			{
				"x": -1.3812695654,
				"y": 1.1101323962,
				"z": -1.0247594649,
				"element": "H" 
			},
			{
				"x": -0.5719362828,
				"y": -2.7546117685,
				"z": -0.9853347086,
				"element": "H" 
			},
			{
				"x": 0.5747863966,
				"y": -4.8453046748,
				"z": -1.622312256,
				"element": "H" 
			},
			{
				"x": 3.0795042222,
				"y": -4.9719133248,
				"z": -1.5529088845,
				"element": "H" 
			}
		],
		 "valence_orbital": [ 
			{
				"type": "occ",
				"energy": -0.26851,
				"method": "rhf"
			},
			{
				"type": "occ",
				"energy": -0.26241,
				"method": "rhf"
			},
			{
				"type": "occ",
				"energy": -0.2514,
				"method": "rhf"
			},
			{
				"type": "occ",
				"energy": -0.2456,
				"method": "rhf"
			},
			{
				"type": "occ",
				"energy": -0.23172,
				"method": "rhf"
			},
			{
				"type": "unocc",
				"energy": -0.05026,
				"method": "rhf"
			},
			{
				"type": "unocc",
				"energy": -0.04268,
				"method": "rhf"
			},
			{
				"type": "unocc",
				"energy": -0.03316,
				"method": "rhf"
			},
			{
				"type": "unocc",
				"energy": -0.0036,
				"method": "rhf"
			},
			{
				"type": "unocc",
				"energy": 0.03307,
				"method": "rhf"
			}
		],
		"cosmo_sigma_profile": { 
			"-0.025": 0.0,
			"-0.024": 0.0,
			"-0.023": 0.0,
			"-0.022": 0.0,
			"-0.021": 0.0,
			"-0.02": 0.0,
			"-0.019": 0.0,
			"-0.018": 0.0588299022134,
			"-0.017": 1.94546611258,
			"-0.016": 3.02101645749,
			"-0.015": 2.82794382287,
			"-0.014": 3.52185452638,
			"-0.013": 3.74579572575,
			"-0.012": 4.17213266208,
			"-0.011": 3.87853656427,
			"-0.01": 5.43163172452,
			"-0.009": 6.04241087486,
			"-0.008": 7.07786294651,
			"-0.007": 9.96544239491,
			"-0.006": 11.5637080612,
			"-0.005": 14.5136729299,
			"-0.004": 11.8465337345,
			"-0.003": 12.816882745,
			"-0.002": 12.5416869512,
			"-0.001": 15.9350422218,
			"0.0": 20.5684718045,
			"0.001": 23.6340095157,
			"0.002": 22.8337255305,
			"0.003": 28.1876019748,
			"0.004": 16.1501807832,
			"0.005": 6.46952648628,
			"0.006": 5.71647850187,
			"0.007": 4.70849849603,
			"0.008": 6.55226778038,
			"0.009": 6.41566775987,
			"0.01": 6.26911162763,
			"0.011": 8.84292165599,
			"0.012": 8.78698995416,
			"0.013": 4.46012900955,
			"0.014": 1.06254411982,
			"0.015": 1.26023095288,
			"0.016": 0.955305913338,
			"0.017": 0.681619242945,
			"0.018": 0.0619001295275,
			"0.019": 0.0,
			"0.02": 0.0,
			"0.021": 0.0,
			"0.022": 0.0,
			"0.023": 0.0,
			"0.024": 0.0,
			"0.025": 0.0
		}
	}
}
