{
	 "smiles": "CC1=CC=C(C=C1)S(=O)(=O)NCCC(O)=O", 
	 "Tm": 422.15, 
	 "num_atms": 29, 
	 "gaussian": { 
		 "optdone": 1, 
		 "sigma_profile": "yes", 
		 "theory": "DFT", 
		 "functional": "B3LYP", 
		 "basiset": "6-31G**", 
		 "properties": { 
			 "R2extent": 6126.5652, 
			 "electric_dipole_moment_norm": 3.27973957808, 
			 "electric_quadrupole_moment_norm": 24.3144368107, 
			 "total_energy": -1142.68865472, 
			 "HOMO_LUMO_gap": 0.21793, 
			 "cosmo_polarized_energy": -19.42, 
			 "cosmo_cavitation_energy": 34.88, 
			 "cosmo_dispersion_energy": -25.04, 
			 "cosmo_repulsion_energy": 1.95, 
			 "cosmo_total_nonelectrostatic_energy": 11.79, 
			 "SMD_solvation_energy": 5.84 
		},
		"coords": [
			{
				"x": 3.5777637952,
				"y": -3.0007833517,
				"z": 3.5683991375,
				"element": "C" 
			},
			{
				"x": 2.8862390054,
				"y": -2.5866355464,
				"z": 2.2920550699,
				"element": "C" 
			},
			{
				"x": 1.6129165665,
				"y": -3.0924182144,
				"z": 1.9772683406,
				"element": "C" 
			},
			{
				"x": 0.9668947269,
				"y": -2.7331256908,
				"z": 0.8002667293,
				"element": "C" 
			},
			{
				"x": 1.5995969534,
				"y": -1.8493100483,
				"z": -0.0797012843,
				"element": "C" 
			},
			{
				"x": 2.8641194836,
				"y": -1.336903225,
				"z": 0.202017262,
				"element": "C" 
			},
			{
				"x": 3.4970745849,
				"y": -1.7083899504,
				"z": 1.3898815819,
				"element": "C" 
			},
			{
				"x": 0.7857826788,
				"y": -1.4000516444,
				"z": -1.6094802691,
				"element": "S" 
			},
			{
				"x": 1.7422673295,
				"y": -0.5966952618,
				"z": -2.3856633923,
				"element": "O" 
			},
			{
				"x": 0.1456606656,
				"y": -2.5851419302,
				"z": -2.1893963208,
				"element": "O" 
			},
			{
				"x": -0.5039010701,
				"y": -0.4494023072,
				"z": -1.074781469,
				"element": "N" 
			},
			{
				"x": -0.3039983241,
				"y": 0.9893610374,
				"z": -0.8639682724,
				"element": "C" 
			},
			{
				"x": -0.2790777317,
				"y": 1.8271504484,
				"z": -2.1482205574,
				"element": "C" 
			},
			{
				"x": -0.0762248536,
				"y": 3.2948536343,
				"z": -1.8533934803,
				"element": "C" 
			},
			{
				"x": -0.2042964483,
				"y": 4.0533280584,
				"z": -2.9669142186,
				"element": "O" 
			},
			{
				"x": 0.1786067005,
				"y": 3.766565847,
				"z": -0.7656090822,
				"element": "O" 
			},
			{
				"x": 2.9185963178,
				"y": -2.8807441647,
				"z": 4.4347560307,
				"element": "H" 
			},
			{
				"x": 3.871424713,
				"y": -4.0565728771,
				"z": 3.5314226657,
				"element": "H" 
			},
			{
				"x": 4.4806081649,
				"y": -2.4106349769,
				"z": 3.745228107,
				"element": "H" 
			},
			{
				"x": 1.1254677173,
				"y": -3.7785842845,
				"z": 2.6650624844,
				"element": "H" 
			},
			{
				"x": -0.0122708372,
				"y": -3.1328569845,
				"z": 0.5593882705,
				"element": "H" 
			},
			{
				"x": 3.340967996,
				"y": -0.6669083017,
				"z": -0.5045902731,
				"element": "H" 
			},
			{
				"x": 4.4825683333,
				"y": -1.3098251732,
				"z": 1.6147502561,
				"element": "H" 
			},
			{
				"x": -1.3233175039,
				"y": -0.7031307158,
				"z": -1.6211366037,
				"element": "H" 
			},
			{
				"x": 0.627462219,
				"y": 1.1273807513,
				"z": -0.309884585,
				"element": "H" 
			},
			{
				"x": -1.1033624639,
				"y": 1.3338882913,
				"z": -0.2010448576,
				"element": "H" 
			},
			{
				"x": 0.5299303818,
				"y": 1.4874149873,
				"z": -2.8037229207,
				"element": "H" 
			},
			{
				"x": -1.2088833423,
				"y": 1.7124660286,
				"z": -2.7188052755,
				"element": "H" 
			},
			{
				"x": -0.0409157582,
				"y": 4.9709055649,
				"z": -2.6901830735,
				"element": "H" 
			}
		],
		 "valence_orbital": [ 
			{
				"type": "occ",
				"energy": -0.29943,
				"method": "rhf"
			},
			{
				"type": "occ",
				"energy": -0.28353,
				"method": "rhf"
			},
			{
				"type": "occ",
				"energy": -0.27755,
				"method": "rhf"
			},
			{
				"type": "occ",
				"energy": -0.26791,
				"method": "rhf"
			},
			{
				"type": "occ",
				"energy": -0.25355,
				"method": "rhf"
			},
			{
				"type": "unocc",
				"energy": -0.03562,
				"method": "rhf"
			},
			{
				"type": "unocc",
				"energy": -0.0186,
				"method": "rhf"
			},
			{
				"type": "unocc",
				"energy": 0.00553,
				"method": "rhf"
			},
			{
				"type": "unocc",
				"energy": 0.0581,
				"method": "rhf"
			},
			{
				"type": "unocc",
				"energy": 0.07609,
				"method": "rhf"
			}
		],
		"cosmo_sigma_profile": { 
			"-0.025": 0.0,
			"-0.024": 0.0,
			"-0.023": 0.0,
			"-0.022": 0.0,
			"-0.021": 0.0,
			"-0.02": 0.0,
			"-0.019": 0.0584865150417,
			"-0.018": 0.608113792666,
			"-0.017": 1.18160482739,
			"-0.016": 0.683158930014,
			"-0.015": 0.552589772936,
			"-0.014": 1.85199774674,
			"-0.013": 2.19926971139,
			"-0.012": 1.93042748041,
			"-0.011": 1.95803852161,
			"-0.01": 1.54852825768,
			"-0.009": 2.32146010064,
			"-0.008": 1.80644085444,
			"-0.007": 7.18831049129,
			"-0.006": 16.764264088,
			"-0.005": 20.1330759778,
			"-0.004": 22.4145286672,
			"-0.003": 20.5845893544,
			"-0.002": 20.4846795604,
			"-0.001": 19.1622488648,
			"0.0": 17.2470548623,
			"0.001": 12.9809662959,
			"0.002": 15.0168344091,
			"0.003": 18.0806471804,
			"0.004": 10.8633550609,
			"0.005": 5.67077579516,
			"0.006": 4.79072136092,
			"0.007": 7.1773728289,
			"0.008": 5.99341564917,
			"0.009": 6.88895417222,
			"0.01": 8.54534319298,
			"0.011": 11.8079687233,
			"0.012": 7.35878796273,
			"0.013": 0.0828783702314,
			"0.014": 0.0,
			"0.015": 0.0,
			"0.016": 0.0,
			"0.017": 0.0,
			"0.018": 0.0,
			"0.019": 0.0,
			"0.02": 0.0,
			"0.021": 0.0,
			"0.022": 0.0,
			"0.023": 0.0,
			"0.024": 0.0,
			"0.025": 0.0
		}
	}
}
