{
	 "smiles": "NC1=NC2=C(O1)C(Cl)=CC(=C2)C1=CC=CC=C1", 
	 "Tm": 511.15, 
	 "num_atms": 26, 
	 "gaussian": { 
		 "optdone": 1, 
		 "sigma_profile": "yes", 
		 "theory": "DFT", 
		 "functional": "B3LYP", 
		 "basiset": "6-31G**", 
		 "properties": { 
			 "R2extent": 6053.8123, 
			 "electric_dipole_moment_norm": 2.18493524389, 
			 "electric_quadrupole_moment_norm": 25.782860391, 
			 "total_energy": -1145.73833006, 
			 "HOMO_LUMO_gap": 0.19057, 
			 "cosmo_polarized_energy": -12.76, 
			 "cosmo_cavitation_energy": 32.76, 
			 "cosmo_dispersion_energy": -24.39, 
			 "cosmo_repulsion_energy": 1.88, 
			 "cosmo_total_nonelectrostatic_energy": 10.25, 
			 "SMD_solvation_energy": 3.37 
		},
		"coords": [
			{
				"x": -2.4112558945,
				"y": 4.6052488791,
				"z": 2.7869220731,
				"element": "N" 
			},
			{
				"x": -1.9509733578,
				"y": 3.5563358766,
				"z": 2.0545744846,
				"element": "C" 
			},
			{
				"x": -1.9945694625,
				"y": 2.2926927706,
				"z": 2.3512093973,
				"element": "N" 
			},
			{
				"x": -1.447074302,
				"y": 1.671659215,
				"z": 1.2257463357,
				"element": "C" 
			},
			{
				"x": -1.0940827927,
				"y": 2.6582434098,
				"z": 0.292431585,
				"element": "C" 
			},
			{
				"x": -1.4205969654,
				"y": 3.8835843584,
				"z": 0.8289212777,
				"element": "O" 
			},
			{
				"x": -0.5245708855,
				"y": 2.3577438175,
				"z": -0.9307593257,
				"element": "C" 
			},
			{
				"x": -0.0837355598,
				"y": 3.6168937293,
				"z": -2.0621259578,
				"element": "Cl" 
			},
			{
				"x": -0.3051413037,
				"y": 1.0090886756,
				"z": -1.2201111129,
				"element": "C" 
			},
			{
				"x": -0.6541900049,
				"y": -0.0062575877,
				"z": -0.3035081311,
				"element": "C" 
			},
			{
				"x": -1.2319540108,
				"y": 0.3270099845,
				"z": 0.9345904259,
				"element": "C" 
			},
			{
				"x": -0.4046060018,
				"y": -1.4297467906,
				"z": -0.6553746303,
				"element": "C" 
			},
			{
				"x": -0.6227702098,
				"y": -1.9020831418,
				"z": -1.9606442274,
				"element": "C" 
			},
			{
				"x": -0.3882889265,
				"y": -3.2370312401,
				"z": -2.2877130017,
				"element": "C" 
			},
			{
				"x": 0.066658924,
				"y": -4.1301025434,
				"z": -1.3158662548,
				"element": "C" 
			},
			{
				"x": 0.2858985656,
				"y": -3.6753889622,
				"z": -0.0141864772,
				"element": "C" 
			},
			{
				"x": 0.0542188087,
				"y": -2.3398067041,
				"z": 0.3119799501,
				"element": "C" 
			},
			{
				"x": -2.5872023767,
				"y": 4.40221459,
				"z": 3.7592234281,
				"element": "H" 
			},
			{
				"x": -2.0187259145,
				"y": 5.5118110362,
				"z": 2.5817671941,
				"element": "H" 
			},
			{
				"x": 0.1680137211,
				"y": 0.7489852839,
				"z": -2.1596553125,
				"element": "H" 
			},
			{
				"x": -1.5303642245,
				"y": -0.4412143589,
				"z": 1.6385419994,
				"element": "H" 
			},
			{
				"x": -1.0037832798,
				"y": -1.2226173424,
				"z": -2.7174258585,
				"element": "H" 
			},
			{
				"x": -0.5710654102,
				"y": -3.5816574656,
				"z": -3.3016560602,
				"element": "H" 
			},
			{
				"x": 0.2482693445,
				"y": -5.1702634715,
				"z": -1.5703115725,
				"element": "H" 
			},
			{
				"x": 0.6475622954,
				"y": -4.3595675865,
				"z": 0.7483000486,
				"element": "H" 
			},
			{
				"x": 0.2532292243,
				"y": -1.9901744318,
				"z": 1.3207297229,
				"element": "H" 
			}
		],
		 "valence_orbital": [ 
			{
				"type": "occ",
				"energy": -0.29167,
				"method": "rhf"
			},
			{
				"type": "occ",
				"energy": -0.26066,
				"method": "rhf"
			},
			{
				"type": "occ",
				"energy": -0.25023,
				"method": "rhf"
			},
			{
				"type": "occ",
				"energy": -0.22728,
				"method": "rhf"
			},
			{
				"type": "occ",
				"energy": -0.21637,
				"method": "rhf"
			},
			{
				"type": "unocc",
				"energy": -0.0258,
				"method": "rhf"
			},
			{
				"type": "unocc",
				"energy": -0.01606,
				"method": "rhf"
			},
			{
				"type": "unocc",
				"energy": -0.00181,
				"method": "rhf"
			},
			{
				"type": "unocc",
				"energy": 0.02623,
				"method": "rhf"
			},
			{
				"type": "unocc",
				"energy": 0.03143,
				"method": "rhf"
			}
		],
		"cosmo_sigma_profile": { 
			"-0.025": 0.0,
			"-0.024": 0.0,
			"-0.023": 0.0,
			"-0.022": 0.0,
			"-0.021": 0.0,
			"-0.02": 0.0,
			"-0.019": 0.0,
			"-0.018": 0.0,
			"-0.017": 0.0,
			"-0.016": 0.336656387034,
			"-0.015": 2.384433035,
			"-0.014": 2.53734623547,
			"-0.013": 2.5414498791,
			"-0.012": 2.03282387631,
			"-0.011": 2.76845615637,
			"-0.01": 1.45892063884,
			"-0.009": 1.73989292609,
			"-0.008": 1.83380374201,
			"-0.007": 1.90491780165,
			"-0.006": 10.224594106,
			"-0.005": 16.9997524654,
			"-0.004": 14.7840564809,
			"-0.003": 17.8615146682,
			"-0.002": 16.0340596901,
			"-0.001": 15.8224095571,
			"0.0": 16.778787297,
			"0.001": 20.787905937,
			"0.002": 24.185203289,
			"0.003": 29.3640390759,
			"0.004": 24.2788602049,
			"0.005": 17.5030001256,
			"0.006": 8.79434899896,
			"0.007": 3.26202734709,
			"0.008": 2.06786399612,
			"0.009": 1.14634718932,
			"0.01": 0.79774670238,
			"0.011": 0.189565359638,
			"0.012": 1.85613666795,
			"0.013": 1.04544103482,
			"0.014": 1.03659546803,
			"0.015": 0.871060854173,
			"0.016": 0.609683808686,
			"0.017": 8.79769163511e-05,
			"0.018": 0.0,
			"0.019": 0.0,
			"0.02": 0.0,
			"0.021": 0.0,
			"0.022": 0.0,
			"0.023": 0.0,
			"0.024": 0.0,
			"0.025": 0.0
		}
	}
}
