{
	 "smiles": "O=S(=O)(N1C=CC2=C1C=CC=C2)C1=CC=CC=C1", 
	 "Tm": 352.15, 
	 "num_atms": 29, 
	 "gaussian": { 
		 "optdone": 1, 
		 "sigma_profile": "yes", 
		 "theory": "DFT", 
		 "functional": "B3LYP", 
		 "basiset": "6-31G**", 
		 "properties": { 
			 "R2extent": 4507.8635, 
			 "electric_dipole_moment_norm": 4.83699763696, 
			 "electric_quadrupole_moment_norm": 15.6473851614, 
			 "total_energy": -1143.43022591, 
			 "HOMO_LUMO_gap": 0.16647, 
			 "cosmo_polarized_energy": -11.64, 
			 "cosmo_cavitation_energy": 34.18, 
			 "cosmo_dispersion_energy": -24.68, 
			 "cosmo_repulsion_energy": 1.84, 
			 "cosmo_total_nonelectrostatic_energy": 11.34, 
			 "SMD_solvation_energy": 5.08 
		},
		"coords": [
			{
				"x": -1.0965208669,
				"y": 3.0573976704,
				"z": -0.5039890334,
				"element": "O" 
			},
			{
				"x": -1.2263320586,
				"y": 1.6184297638,
				"z": -0.7189101469,
				"element": "S" 
			},
			{
				"x": -2.4774337125,
				"y": 0.9931840093,
				"z": -1.1376932777,
				"element": "O" 
			},
			{
				"x": -0.8139156351,
				"y": 0.9097993839,
				"z": 0.7840352599,
				"element": "N" 
			},
			{
				"x": 0.0835538412,
				"y": 1.5205414921,
				"z": 1.6763082476,
				"element": "C" 
			},
			{
				"x": 0.4888644654,
				"y": 0.6126909166,
				"z": 2.603546052,
				"element": "C" 
			},
			{
				"x": -0.1428812329,
				"y": -0.6463698377,
				"z": 2.2931086672,
				"element": "C" 
			},
			{
				"x": -0.9482255708,
				"y": -0.445608728,
				"z": 1.1423273406,
				"element": "C" 
			},
			{
				"x": -1.7170989582,
				"y": -1.4694209806,
				"z": 0.5828338911,
				"element": "C" 
			},
			{
				"x": -1.6520137536,
				"y": -2.72032071,
				"z": 1.1915131955,
				"element": "C" 
			},
			{
				"x": -0.8571729385,
				"y": -2.9434806535,
				"z": 2.3308174174,
				"element": "C" 
			},
			{
				"x": -0.1077916766,
				"y": -1.9156729595,
				"z": 2.8908342163,
				"element": "C" 
			},
			{
				"x": 0.0741104659,
				"y": 1.0932404021,
				"z": -1.8345654862,
				"element": "C" 
			},
			{
				"x": 1.2317818975,
				"y": 1.8690943639,
				"z": -1.9350913898,
				"element": "C" 
			},
			{
				"x": 2.2485458856,
				"y": 1.4509716601,
				"z": -2.7924602404,
				"element": "C" 
			},
			{
				"x": 2.1017499852,
				"y": 0.276029747,
				"z": -3.5343638332,
				"element": "C" 
			},
			{
				"x": 0.9346087669,
				"y": -0.4838220443,
				"z": -3.4296697635,
				"element": "C" 
			},
			{
				"x": -0.0919259037,
				"y": -0.0781457169,
				"z": -2.5767566224,
				"element": "C" 
			},
			{
				"x": 0.3050302697,
				"y": 2.5703663487,
				"z": 1.5640440416,
				"element": "H" 
			},
			{
				"x": 1.1480594654,
				"y": 0.8150891655,
				"z": 3.4362074201,
				"element": "H" 
			},
			{
				"x": -2.3569657816,
				"y": -1.2885170209,
				"z": -0.2718102963,
				"element": "H" 
			},
			{
				"x": -2.2391308363,
				"y": -3.5371273824,
				"z": 0.7823454301,
				"element": "H" 
			},
			{
				"x": -0.8381221449,
				"y": -3.9311154544,
				"z": 2.7820501276,
				"element": "H" 
			},
			{
				"x": 0.4959146416,
				"y": -2.0871600563,
				"z": 3.7774610966,
				"element": "H" 
			},
			{
				"x": 1.319425056,
				"y": 2.788374971,
				"z": -1.3669408108,
				"element": "H" 
			},
			{
				"x": 3.1518466969,
				"y": 2.0459048161,
				"z": -2.8854924119,
				"element": "H" 
			},
			{
				"x": 2.8965625705,
				"y": -0.0441122473,
				"z": -4.2014820243,
				"element": "H" 
			},
			{
				"x": 0.8190047384,
				"y": -1.3903159629,
				"z": -4.0156450103,
				"element": "H" 
			},
			{
				"x": -1.0118276759,
				"y": -0.6454249557,
				"z": -2.4977620565,
				"element": "H" 
			}
		],
		 "valence_orbital": [ 
			{
				"type": "occ",
				"energy": -0.29219,
				"method": "rhf"
			},
			{
				"type": "occ",
				"energy": -0.27885,
				"method": "rhf"
			},
			{
				"type": "occ",
				"energy": -0.27648,
				"method": "rhf"
			},
			{
				"type": "occ",
				"energy": -0.23372,
				"method": "rhf"
			},
			{
				"type": "occ",
				"energy": -0.21771,
				"method": "rhf"
			},
			{
				"type": "unocc",
				"energy": -0.05124,
				"method": "rhf"
			},
			{
				"type": "unocc",
				"energy": -0.02821,
				"method": "rhf"
			},
			{
				"type": "unocc",
				"energy": -0.01793,
				"method": "rhf"
			},
			{
				"type": "unocc",
				"energy": 0.00794,
				"method": "rhf"
			},
			{
				"type": "unocc",
				"energy": 0.04477,
				"method": "rhf"
			}
		],
		"cosmo_sigma_profile": { 
			"-0.025": 0.0,
			"-0.024": 0.0,
			"-0.023": 0.0,
			"-0.022": 0.0,
			"-0.021": 0.0,
			"-0.02": 0.0,
			"-0.019": 0.0,
			"-0.018": 0.0,
			"-0.017": 0.0,
			"-0.016": 0.0,
			"-0.015": 0.0,
			"-0.014": 0.0,
			"-0.013": 0.0,
			"-0.012": 0.0,
			"-0.011": 0.0,
			"-0.01": 0.0,
			"-0.009": 0.336636637441,
			"-0.008": 2.23403926981,
			"-0.007": 11.9647474773,
			"-0.006": 19.0859759307,
			"-0.005": 22.8831955654,
			"-0.004": 19.9922197871,
			"-0.003": 18.8839049399,
			"-0.002": 14.3707317432,
			"-0.001": 16.5737613686,
			"0.0": 17.5418994984,
			"0.001": 23.3433423204,
			"0.002": 25.7736177733,
			"0.003": 24.1703021307,
			"0.004": 16.2677902145,
			"0.005": 13.7326324444,
			"0.006": 6.96303576321,
			"0.007": 3.41534304354,
			"0.008": 3.41975317407,
			"0.009": 6.20765058507,
			"0.01": 7.38822075106,
			"0.011": 1.17859788785,
			"0.012": 0.0,
			"0.013": 0.0,
			"0.014": 0.0,
			"0.015": 0.0,
			"0.016": 0.0,
			"0.017": 0.0,
			"0.018": 0.0,
			"0.019": 0.0,
			"0.02": 0.0,
			"0.021": 0.0,
			"0.022": 0.0,
			"0.023": 0.0,
			"0.024": 0.0,
			"0.025": 0.0
		}
	}
}
