{
	 "smiles": "CC1=CC=CC=C1C1=CC=CC=C1C", 
	 "Tm": 291.95, 
	 "num_atms": 28, 
	 "gaussian": { 
		 "optdone": 1, 
		 "sigma_profile": "yes", 
		 "theory": "DFT", 
		 "functional": "B3LYP", 
		 "basiset": "6-31G**", 
		 "properties": { 
			 "R2extent": 3109.6476, 
			 "electric_dipole_moment_norm": 0.325230303016, 
			 "electric_quadrupole_moment_norm": 2.37360795626, 
			 "total_energy": -541.945493617, 
			 "HOMO_LUMO_gap": 0.23396, 
			 "cosmo_polarized_energy": -4.57, 
			 "cosmo_cavitation_energy": 30.79, 
			 "cosmo_dispersion_energy": -21.29, 
			 "cosmo_repulsion_energy": 1.67, 
			 "cosmo_total_nonelectrostatic_energy": 11.18, 
			 "SMD_solvation_energy": 5.22 
		},
		"coords": [
			{
				"x": 2.8519184633,
				"y": 1.7177387049,
				"z": -0.8269375131,
				"element": "C" 
			},
			{
				"x": 2.3725257187,
				"y": 0.3040230204,
				"z": -1.0663188694,
				"element": "C" 
			},
			{
				"x": 3.066049356,
				"y": -0.5362633849,
				"z": -1.9464639967,
				"element": "C" 
			},
			{
				"x": 2.6545047042,
				"y": -1.8490679145,
				"z": -2.1793442539,
				"element": "C" 
			},
			{
				"x": 1.5293537699,
				"y": -2.3466326805,
				"z": -1.5241207459,
				"element": "C" 
			},
			{
				"x": 0.8267251729,
				"y": -1.5223584439,
				"z": -0.6442594301,
				"element": "C" 
			},
			{
				"x": 1.2306387629,
				"y": -0.2014952244,
				"z": -0.4064903671,
				"element": "C" 
			},
			{
				"x": 0.4509473147,
				"y": 0.6442546952,
				"z": 0.5548469275,
				"element": "C" 
			},
			{
				"x": 0.7935186028,
				"y": 0.6342202614,
				"z": 1.9138433603,
				"element": "C" 
			},
			{
				"x": 0.0879018418,
				"y": 1.3990583637,
				"z": 2.8435752292,
				"element": "C" 
			},
			{
				"x": -0.9781870687,
				"y": 2.1880021016,
				"z": 2.4147565906,
				"element": "C" 
			},
			{
				"x": -1.3285626852,
				"y": 2.2019382219,
				"z": 1.0641529604,
				"element": "C" 
			},
			{
				"x": -0.6311833955,
				"y": 1.4400151385,
				"z": 0.1181966217,
				"element": "C" 
			},
			{
				"x": -1.0439302179,
				"y": 1.4681820088,
				"z": -1.3359360989,
				"element": "C" 
			},
			{
				"x": 3.1215361951,
				"y": 1.8775930212,
				"z": 0.2227504793,
				"element": "H" 
			},
			{
				"x": 2.0765021051,
				"y": 2.4548620709,
				"z": -1.0631686649,
				"element": "H" 
			},
			{
				"x": 3.7292003653,
				"y": 1.9424710993,
				"z": -1.4396366395,
				"element": "H" 
			},
			{
				"x": 3.946623351,
				"y": -0.1519531249,
				"z": -2.4557001907,
				"element": "H" 
			},
			{
				"x": 3.2124254231,
				"y": -2.4780620442,
				"z": -2.8674101888,
				"element": "H" 
			},
			{
				"x": 1.1998208975,
				"y": -3.3678313279,
				"z": -1.6932484608,
				"element": "H" 
			},
			{
				"x": -0.04967841,
				"y": -1.9031202749,
				"z": -0.1265199111,
				"element": "H" 
			},
			{
				"x": 1.6239027281,
				"y": 0.013535898,
				"z": 2.2399232099,
				"element": "H" 
			},
			{
				"x": 0.3692719026,
				"y": 1.3758988016,
				"z": 3.8925457675,
				"element": "H" 
			},
			{
				"x": -1.5375876882,
				"y": 2.7891654989,
				"z": 3.1261061316,
				"element": "H" 
			},
			{
				"x": -2.1632984303,
				"y": 2.8150722109,
				"z": 0.7329327147,
				"element": "H" 
			},
			{
				"x": -1.8795596313,
				"y": 2.1557967712,
				"z": -1.4922688417,
				"element": "H" 
			},
			{
				"x": -1.3511546828,
				"y": 0.4762820047,
				"z": -1.6849636751,
				"element": "H" 
			},
			{
				"x": -0.2201244652,
				"y": 1.7836745269,
				"z": -1.985742145,
				"element": "H" 
			}
		],
		 "valence_orbital": [ 
			{
				"type": "occ",
				"energy": -0.3189,
				"method": "rhf"
			},
			{
				"type": "occ",
				"energy": -0.24335,
				"method": "rhf"
			},
			{
				"type": "occ",
				"energy": -0.24198,
				"method": "rhf"
			},
			{
				"type": "occ",
				"energy": -0.23616,
				"method": "rhf"
			},
			{
				"type": "occ",
				"energy": -0.23433,
				"method": "rhf"
			},
			{
				"type": "unocc",
				"energy": -0.00037,
				"method": "rhf"
			},
			{
				"type": "unocc",
				"energy": 0.0014,
				"method": "rhf"
			},
			{
				"type": "unocc",
				"energy": 0.003,
				"method": "rhf"
			},
			{
				"type": "unocc",
				"energy": 0.00985,
				"method": "rhf"
			},
			{
				"type": "unocc",
				"energy": 0.09781,
				"method": "rhf"
			}
		],
		"cosmo_sigma_profile": { 
			"-0.025": 0.0,
			"-0.024": 0.0,
			"-0.023": 0.0,
			"-0.022": 0.0,
			"-0.021": 0.0,
			"-0.02": 0.0,
			"-0.019": 0.0,
			"-0.018": 0.0,
			"-0.017": 0.0,
			"-0.016": 0.0,
			"-0.015": 0.0,
			"-0.014": 0.0,
			"-0.013": 0.0,
			"-0.012": 0.0,
			"-0.011": 0.0,
			"-0.01": 0.0,
			"-0.009": 0.0,
			"-0.008": 0.0,
			"-0.007": 0.0,
			"-0.006": 2.23701026578,
			"-0.005": 16.06338158,
			"-0.004": 22.2146344722,
			"-0.003": 27.5628333189,
			"-0.002": 24.2277669971,
			"-0.001": 27.1652047025,
			"0.0": 26.4033535243,
			"0.001": 22.7540189943,
			"0.002": 15.9253003371,
			"0.003": 14.0688427687,
			"0.004": 14.7931982445,
			"0.005": 13.1951626592,
			"0.006": 13.8855715753,
			"0.007": 3.94567917618,
			"0.008": 0.0,
			"0.009": 0.0,
			"0.01": 0.0,
			"0.011": 0.0,
			"0.012": 0.0,
			"0.013": 0.0,
			"0.014": 0.0,
			"0.015": 0.0,
			"0.016": 0.0,
			"0.017": 0.0,
			"0.018": 0.0,
			"0.019": 0.0,
			"0.02": 0.0,
			"0.021": 0.0,
			"0.022": 0.0,
			"0.023": 0.0,
			"0.024": 0.0,
			"0.025": 0.0
		}
	}
}
