{
	 "smiles": "CSC(S)=NC1=CC=C(N)C=C1", 
	 "Tm": 462.15, 
	 "num_atms": 22, 
	 "gaussian": { 
		 "optdone": 1, 
		 "sigma_profile": "yes", 
		 "theory": "DFT", 
		 "functional": "B3LYP", 
		 "basiset": "6-31G**", 
		 "properties": { 
			 "R2extent": 4492.2514, 
			 "electric_dipole_moment_norm": 3.34830953169, 
			 "electric_quadrupole_moment_norm": 14.2594598029, 
			 "total_energy": -1216.73900913, 
			 "HOMO_LUMO_gap": 0.15881, 
			 "cosmo_polarized_energy": -12.27, 
			 "cosmo_cavitation_energy": 28.96, 
			 "cosmo_dispersion_energy": -21.71, 
			 "cosmo_repulsion_energy": 1.67, 
			 "cosmo_total_nonelectrostatic_energy": 8.91, 
			 "SMD_solvation_energy": 3.26 
		},
		"coords": [
			{
				"x": -0.473706685,
				"y": 2.8849536604,
				"z": 0.5125035297,
				"element": "C" 
			},
			{
				"x": -1.5879024981,
				"y": 2.9457426203,
				"z": 1.9658524296,
				"element": "S" 
			},
			{
				"x": -1.4227553393,
				"y": 1.2856849538,
				"z": 2.6850292195,
				"element": "C" 
			},
			{
				"x": -1.600402959,
				"y": 1.2838323764,
				"z": 4.4694167409,
				"element": "S" 
			},
			{
				"x": -1.2461066101,
				"y": 0.1535262693,
				"z": 2.1443297853,
				"element": "N" 
			},
			{
				"x": -1.3562763359,
				"y": -0.1858270263,
				"z": 0.7874740452,
				"element": "C" 
			},
			{
				"x": -2.4167594527,
				"y": 0.2400507849,
				"z": -0.0308747109,
				"element": "C" 
			},
			{
				"x": -2.5262009149,
				"y": -0.2068170445,
				"z": -1.344313441,
				"element": "C" 
			},
			{
				"x": -1.5762431306,
				"y": -1.0868968063,
				"z": -1.8909785669,
				"element": "C" 
			},
			{
				"x": -1.6483844368,
				"y": -1.4798221269,
				"z": -3.2300280664,
				"element": "N" 
			},
			{
				"x": -0.5238742195,
				"y": -1.5228632656,
				"z": -1.0660539089,
				"element": "C" 
			},
			{
				"x": -0.4299659149,
				"y": -1.0961692492,
				"z": 0.2526748549,
				"element": "C" 
			},
			{
				"x": -0.9447750454,
				"y": 2.3996367471,
				"z": -0.3415137539,
				"element": "H" 
			},
			{
				"x": 0.4536627516,
				"y": 2.3718929264,
				"z": 0.7699007061,
				"element": "H" 
			},
			{
				"x": -0.252233142,
				"y": 3.928445459,
				"z": 0.2778132977,
				"element": "H" 
			},
			{
				"x": -1.3450657786,
				"y": 2.5941032277,
				"z": 4.6579879295,
				"element": "H" 
			},
			{
				"x": -3.1701314595,
				"y": 0.9081239506,
				"z": 0.3742573585,
				"element": "H" 
			},
			{
				"x": -3.3598150851,
				"y": 0.1287085456,
				"z": -1.9568859678,
				"element": "H" 
			},
			{
				"x": -1.1835765448,
				"y": -2.3517755873,
				"z": -3.4440683899,
				"element": "H" 
			},
			{
				"x": -2.5732715597,
				"y": -1.442179425,
				"z": -3.6365685625,
				"element": "H" 
			},
			{
				"x": 0.2169919493,
				"y": -2.2126611015,
				"z": -1.4631295588,
				"element": "H" 
			},
			{
				"x": 0.3692924111,
				"y": -1.4591898887,
				"z": 0.8911750301,
				"element": "H" 
			}
		],
		 "valence_orbital": [ 
			{
				"type": "occ",
				"energy": -0.26106,
				"method": "rhf"
			},
			{
				"type": "occ",
				"energy": -0.25172,
				"method": "rhf"
			},
			{
				"type": "occ",
				"energy": -0.25038,
				"method": "rhf"
			},
			{
				"type": "occ",
				"energy": -0.24096,
				"method": "rhf"
			},
			{
				"type": "occ",
				"energy": -0.18917,
				"method": "rhf"
			},
			{
				"type": "unocc",
				"energy": -0.03036,
				"method": "rhf"
			},
			{
				"type": "unocc",
				"energy": -0.00125,
				"method": "rhf"
			},
			{
				"type": "unocc",
				"energy": 0.00866,
				"method": "rhf"
			},
			{
				"type": "unocc",
				"energy": 0.0364,
				"method": "rhf"
			},
			{
				"type": "unocc",
				"energy": 0.04431,
				"method": "rhf"
			}
		],
		"cosmo_sigma_profile": { 
			"-0.025": 0.0,
			"-0.024": 0.0,
			"-0.023": 0.0,
			"-0.022": 0.0,
			"-0.021": 0.0,
			"-0.02": 0.0,
			"-0.019": 0.0,
			"-0.018": 0.0,
			"-0.017": 0.0,
			"-0.016": 0.0,
			"-0.015": 0.0,
			"-0.014": 0.0,
			"-0.013": 0.260507008068,
			"-0.012": 2.39211353868,
			"-0.011": 3.65607627766,
			"-0.01": 4.40573355292,
			"-0.009": 4.61465697407,
			"-0.008": 3.86683565071,
			"-0.007": 6.59941042702,
			"-0.006": 10.1255538434,
			"-0.005": 11.9602107602,
			"-0.004": 13.5708793371,
			"-0.003": 16.7306159489,
			"-0.002": 17.2741302046,
			"-0.001": 14.5809812978,
			"0.0": 13.4516951385,
			"0.001": 13.5863806,
			"0.002": 14.9129457085,
			"0.003": 15.2518056998,
			"0.004": 15.9965672789,
			"0.005": 16.7496354193,
			"0.006": 13.785157642,
			"0.007": 8.3941339016,
			"0.008": 3.63416829942,
			"0.009": 2.19748192535,
			"0.01": 1.28396945175,
			"0.011": 1.66960261159,
			"0.012": 1.89344079385,
			"0.013": 0.850052099544,
			"0.014": 0.484712509488,
			"0.015": 0.315581195372,
			"0.016": 0.0,
			"0.017": 0.0,
			"0.018": 0.0,
			"0.019": 0.0,
			"0.02": 0.0,
			"0.021": 0.0,
			"0.022": 0.0,
			"0.023": 0.0,
			"0.024": 0.0,
			"0.025": 0.0
		}
	}
}
