{
	 "smiles": "BrC1=CC2=C(OC(=C2)C(=O)C2=CC=CS2)C=C1", 
	 "Tm": 362.15, 
	 "num_atms": 24, 
	 "gaussian": { 
		 "optdone": 1, 
		 "sigma_profile": "yes", 
		 "theory": "DFT", 
		 "functional": "B3LYP", 
		 "basiset": "6-31G**", 
		 "properties": { 
			 "R2extent": 10620.3871, 
			 "electric_dipole_moment_norm": 3.35236275185, 
			 "electric_quadrupole_moment_norm": 9.09965487148, 
			 "total_energy": -3619.61760666, 
			 "HOMO_LUMO_gap": 0.1537, 
			 "cosmo_polarized_energy": -10.1, 
			 "cosmo_cavitation_energy": 33.55, 
			 "cosmo_dispersion_energy": -25.6, 
			 "cosmo_repulsion_energy": 1.9, 
			 "cosmo_total_nonelectrostatic_energy": 9.85, 
			 "SMD_solvation_energy": 5.22 
		},
		"coords": [
			{
				"x": 1.4100485305,
				"y": -3.5230562001,
				"z": 5.6144891598,
				"element": "Br" 
			},
			{
				"x": 0.8555102248,
				"y": -2.4604243662,
				"z": 4.1234054061,
				"element": "C" 
			},
			{
				"x": 1.8107367376,
				"y": -1.761037474,
				"z": 3.400105622,
				"element": "C" 
			},
			{
				"x": 1.3639002876,
				"y": -0.9918003953,
				"z": 2.3119188535,
				"element": "C" 
			},
			{
				"x": -0.0118706321,
				"y": -0.9641512494,
				"z": 2.0070700455,
				"element": "C" 
			},
			{
				"x": -0.2425763885,
				"y": -0.166424936,
				"z": 0.9241672698,
				"element": "O" 
			},
			{
				"x": 0.9899780607,
				"y": 0.3210713124,
				"z": 0.5307930665,
				"element": "C" 
			},
			{
				"x": 1.9888729758,
				"y": -0.1475637409,
				"z": 1.3356463468,
				"element": "C" 
			},
			{
				"x": 1.1222279882,
				"y": 1.2313128232,
				"z": -0.6273723783,
				"element": "C" 
			},
			{
				"x": 2.2519435472,
				"y": 1.6261956611,
				"z": -0.9204725644,
				"element": "O" 
			},
			{
				"x": -0.0485838133,
				"y": 1.6542480074,
				"z": -1.4059178752,
				"element": "C" 
			},
			{
				"x": -1.3977639708,
				"y": 1.3710258383,
				"z": -1.3008661107,
				"element": "C" 
			},
			{
				"x": -2.1776849913,
				"y": 2.0177080863,
				"z": -2.2939865565,
				"element": "C" 
			},
			{
				"x": -1.4152616416,
				"y": 2.7841239088,
				"z": -3.141824305,
				"element": "C" 
			},
			{
				"x": 0.2618744635,
				"y": 2.7337633832,
				"z": -2.7490908297,
				"element": "S" 
			},
			{
				"x": -0.9717840371,
				"y": -1.6638100666,
				"z": 2.729732104,
				"element": "C" 
			},
			{
				"x": -0.5160976713,
				"y": -2.4216621525,
				"z": 3.8048540635,
				"element": "C" 
			},
			{
				"x": 2.8596058745,
				"y": -1.8093109397,
				"z": 3.667888998,
				"element": "H" 
			},
			{
				"x": 3.0345366513,
				"y": 0.0957855844,
				"z": 1.2234018242,
				"element": "H" 
			},
			{
				"x": -1.8050420483,
				"y": 0.7230174622,
				"z": -0.5376721111,
				"element": "H" 
			},
			{
				"x": -3.2539417309,
				"y": 1.9199507984,
				"z": -2.3768715516,
				"element": "H" 
			},
			{
				"x": -1.7554935681,
				"y": 3.3776780807,
				"z": -3.9800212911,
				"element": "H" 
			},
			{
				"x": -2.0234991667,
				"y": -1.6218275629,
				"z": 2.4695270836,
				"element": "H" 
			},
			{
				"x": -1.2172356815,
				"y": -2.9887118629,
				"z": 4.4055957304,
				"element": "H" 
			}
		],
		 "valence_orbital": [ 
			{
				"type": "occ",
				"energy": -0.2666,
				"method": "rhf"
			},
			{
				"type": "occ",
				"energy": -0.26445,
				"method": "rhf"
			},
			{
				"type": "occ",
				"energy": -0.25022,
				"method": "rhf"
			},
			{
				"type": "occ",
				"energy": -0.24495,
				"method": "rhf"
			},
			{
				"type": "occ",
				"energy": -0.24143,
				"method": "rhf"
			},
			{
				"type": "unocc",
				"energy": -0.08773,
				"method": "rhf"
			},
			{
				"type": "unocc",
				"energy": -0.03436,
				"method": "rhf"
			},
			{
				"type": "unocc",
				"energy": -0.01212,
				"method": "rhf"
			},
			{
				"type": "unocc",
				"energy": 0.00051,
				"method": "rhf"
			},
			{
				"type": "unocc",
				"energy": 0.01278,
				"method": "rhf"
			}
		],
		"cosmo_sigma_profile": { 
			"-0.025": 0.0,
			"-0.024": 0.0,
			"-0.023": 0.0,
			"-0.022": 0.0,
			"-0.021": 0.0,
			"-0.02": 0.0,
			"-0.019": 0.0,
			"-0.018": 0.0,
			"-0.017": 0.0,
			"-0.016": 0.0,
			"-0.015": 0.0,
			"-0.014": 0.0,
			"-0.013": 0.0,
			"-0.012": 0.0,
			"-0.011": 0.0,
			"-0.01": 0.333461636479,
			"-0.009": 2.94034777333,
			"-0.008": 7.29342677877,
			"-0.007": 11.4551162975,
			"-0.006": 13.2587372441,
			"-0.005": 11.7543539935,
			"-0.004": 12.2296547903,
			"-0.003": 14.3417269843,
			"-0.002": 17.0834392676,
			"-0.001": 20.239534449,
			"0.0": 26.6991005102,
			"0.001": 33.9971021163,
			"0.002": 38.2629378955,
			"0.003": 27.2935886514,
			"0.004": 15.7866351998,
			"0.005": 7.75799795926,
			"0.006": 1.82149647982,
			"0.007": 1.84285084798,
			"0.008": 2.12329076233,
			"0.009": 1.5352007692,
			"0.01": 2.22768669277,
			"0.011": 3.4522697817,
			"0.012": 3.66178661386,
			"0.013": 0.0331762949715,
			"0.014": 0.0,
			"0.015": 0.0,
			"0.016": 0.0,
			"0.017": 0.0,
			"0.018": 0.0,
			"0.019": 0.0,
			"0.02": 0.0,
			"0.021": 0.0,
			"0.022": 0.0,
			"0.023": 0.0,
			"0.024": 0.0,
			"0.025": 0.0
		}
	}
}
