{
	 "smiles": "COC1=C(C=C(C=C1)C(O)=O)C1=CC=CC=C1", 
	 "Tm": 494.15, 
	 "num_atms": 29, 
	 "gaussian": { 
		 "optdone": 1, 
		 "sigma_profile": "yes", 
		 "theory": "DFT", 
		 "functional": "B3LYP", 
		 "basiset": "6-31G**", 
		 "properties": { 
			 "R2extent": 4796.3099, 
			 "electric_dipole_moment_norm": 5.7420938559, 
			 "electric_quadrupole_moment_norm": 26.0980571384, 
			 "total_energy": -766.391903419, 
			 "HOMO_LUMO_gap": 0.1884, 
			 "cosmo_polarized_energy": -15.74, 
			 "cosmo_cavitation_energy": 33.3, 
			 "cosmo_dispersion_energy": -23.53, 
			 "cosmo_repulsion_energy": 1.82, 
			 "cosmo_total_nonelectrostatic_energy": 11.6, 
			 "SMD_solvation_energy": 7.39 
		},
		"coords": [
			{
				"x": -2.7017599955,
				"y": 0.454262954,
				"z": -1.8913141947,
				"element": "C" 
			},
			{
				"x": -2.4686959142,
				"y": 1.2825163349,
				"z": -0.7477538211,
				"element": "O" 
			},
			{
				"x": -1.9691343962,
				"y": 0.627808018,
				"z": 0.3543055493,
				"element": "C" 
			},
			{
				"x": -0.5992364164,
				"y": 0.2996718984,
				"z": 0.4573938259,
				"element": "C" 
			},
			{
				"x": -0.1789390334,
				"y": -0.3484470807,
				"z": 1.6286304756,
				"element": "C" 
			},
			{
				"x": -1.0643378777,
				"y": -0.6629499342,
				"z": 2.6670555956,
				"element": "C" 
			},
			{
				"x": -2.4109191986,
				"y": -0.2957402403,
				"z": 2.5491378651,
				"element": "C" 
			},
			{
				"x": -2.856796699,
				"y": 0.3341225541,
				"z": 1.3942454495,
				"element": "C" 
			},
			{
				"x": -0.6343188054,
				"y": -1.3335264,
				"z": 3.9356694432,
				"element": "C" 
			},
			{
				"x": 0.5502876174,
				"y": -2.0035154892,
				"z": 3.9071257671,
				"element": "O" 
			},
			{
				"x": -1.2846912934,
				"y": -1.3065937132,
				"z": 4.954391838,
				"element": "O" 
			},
			{
				"x": 0.3926147337,
				"y": 0.6360089153,
				"z": -0.5999490166,
				"element": "C" 
			},
			{
				"x": 1.3585889627,
				"y": -0.3082982073,
				"z": -0.9873891539,
				"element": "C" 
			},
			{
				"x": 2.3245200501,
				"y": 0.0047533363,
				"z": -1.9436808105,
				"element": "C" 
			},
			{
				"x": 2.3422255736,
				"y": 1.2701292238,
				"z": -2.5317409145,
				"element": "C" 
			},
			{
				"x": 1.3854194077,
				"y": 2.2167782194,
				"z": -2.1584067182,
				"element": "C" 
			},
			{
				"x": 0.4182251802,
				"y": 1.9053070421,
				"z": -1.2041517306,
				"element": "C" 
			},
			{
				"x": -3.4424636936,
				"y": -0.3229964513,
				"z": -1.6646950896,
				"element": "H" 
			},
			{
				"x": -3.091761096,
				"y": 1.1104904577,
				"z": -2.6713153882,
				"element": "H" 
			},
			{
				"x": -1.7768337101,
				"y": -0.0165870788,
				"z": -2.2424971444,
				"element": "H" 
			},
			{
				"x": 0.8857861194,
				"y": -0.542007375,
				"z": 1.735519413,
				"element": "H" 
			},
			{
				"x": -3.0849334753,
				"y": -0.5153532437,
				"z": 3.3697383445,
				"element": "H" 
			},
			{
				"x": -3.8972584165,
				"y": 0.6183209107,
				"z": 1.2740951876,
				"element": "H" 
			},
			{
				"x": 0.8734842797,
				"y": -2.0703054506,
				"z": 2.9983319005,
				"element": "H" 
			},
			{
				"x": 1.3393863513,
				"y": -1.3019977802,
				"z": -0.5483070421,
				"element": "H" 
			},
			{
				"x": 3.0584471912,
				"y": -0.7421956611,
				"z": -2.2324261215,
				"element": "H" 
			},
			{
				"x": 3.0934360622,
				"y": 1.5163101124,
				"z": -3.276504913,
				"element": "H" 
			},
			{
				"x": 1.3947709122,
				"y": 3.2055143729,
				"z": -2.6082630988,
				"element": "H" 
			},
			{
				"x": -0.32151242,
				"y": 2.6446197554,
				"z": -0.9193454973,
				"element": "H" 
			}
		],
		 "valence_orbital": [ 
			{
				"type": "occ",
				"energy": -0.28281,
				"method": "rhf"
			},
			{
				"type": "occ",
				"energy": -0.27159,
				"method": "rhf"
			},
			{
				"type": "occ",
				"energy": -0.26101,
				"method": "rhf"
			},
			{
				"type": "occ",
				"energy": -0.25967,
				"method": "rhf"
			},
			{
				"type": "occ",
				"energy": -0.23805,
				"method": "rhf"
			},
			{
				"type": "unocc",
				"energy": -0.04965,
				"method": "rhf"
			},
			{
				"type": "unocc",
				"energy": -0.03897,
				"method": "rhf"
			},
			{
				"type": "unocc",
				"energy": -0.01149,
				"method": "rhf"
			},
			{
				"type": "unocc",
				"energy": 0.00437,
				"method": "rhf"
			},
			{
				"type": "unocc",
				"energy": 0.05204,
				"method": "rhf"
			}
		],
		"cosmo_sigma_profile": { 
			"-0.025": 0.0,
			"-0.024": 0.0,
			"-0.023": 0.0,
			"-0.022": 0.0,
			"-0.021": 0.0,
			"-0.02": 0.0,
			"-0.019": 0.0673821046345,
			"-0.018": 0.584103267598,
			"-0.017": 1.18405532148,
			"-0.016": 0.738675323156,
			"-0.015": 1.2338894622,
			"-0.014": 1.07685055876,
			"-0.013": 0.884876326881,
			"-0.012": 0.958164104705,
			"-0.011": 1.32059207961,
			"-0.01": 1.03457017809,
			"-0.009": 0.615254824381,
			"-0.008": 1.9006109454,
			"-0.007": 4.07659783596,
			"-0.006": 11.4798474537,
			"-0.005": 18.0074172176,
			"-0.004": 23.6818700035,
			"-0.003": 25.3491588141,
			"-0.002": 19.5769997545,
			"-0.001": 17.7698184538,
			"0.0": 16.2268194321,
			"0.001": 18.9056313879,
			"0.002": 21.718123207,
			"0.003": 18.6532612347,
			"0.004": 11.916487278,
			"0.005": 11.5315100702,
			"0.006": 6.63424937734,
			"0.007": 2.68268910702,
			"0.008": 3.75949199577,
			"0.009": 4.37067767282,
			"0.01": 4.90075244534,
			"0.011": 6.7310132418,
			"0.012": 4.91116465446,
			"0.013": 1.80289242592,
			"0.014": 0.118575055474,
			"0.015": 0.0,
			"0.016": 0.0,
			"0.017": 0.0,
			"0.018": 0.0,
			"0.019": 0.0,
			"0.02": 0.0,
			"0.021": 0.0,
			"0.022": 0.0,
			"0.023": 0.0,
			"0.024": 0.0,
			"0.025": 0.0
		}
	}
}
