{
	 "smiles": "COC1=CC=C2C(CC3(CCC(=O)CC3)C2=O)=C1", 
	 "Tm": 366.15, 
	 "num_atms": 34, 
	 "gaussian": { 
		 "optdone": 1, 
		 "sigma_profile": "yes", 
		 "theory": "DFT", 
		 "functional": "B3LYP", 
		 "basiset": "6-31G**", 
		 "properties": { 
			 "R2extent": 6435.0047, 
			 "electric_dipole_moment_norm": 6.7048241446, 
			 "electric_quadrupole_moment_norm": 18.9935538531, 
			 "total_energy": -806.911888825, 
			 "HOMO_LUMO_gap": 0.17899, 
			 "cosmo_polarized_energy": -15.63, 
			 "cosmo_cavitation_energy": 35.83, 
			 "cosmo_dispersion_energy": -25.82, 
			 "cosmo_repulsion_energy": 1.97, 
			 "cosmo_total_nonelectrostatic_energy": 11.98, 
			 "SMD_solvation_energy": 7.07 
		},
		"coords": [
			{
				"x": 4.5696429055,
				"y": -2.0754365839,
				"z": 1.9241793109,
				"element": "C" 
			},
			{
				"x": 3.7964482085,
				"y": -0.8863283927,
				"z": 1.8230915755,
				"element": "O" 
			},
			{
				"x": 2.5127624017,
				"y": -0.9712041489,
				"z": 1.3874611698,
				"element": "C" 
			},
			{
				"x": 1.8837988943,
				"y": -2.18065873,
				"z": 1.0228640681,
				"element": "C" 
			},
			{
				"x": 0.5619056318,
				"y": -2.1666093388,
				"z": 0.5906747677,
				"element": "C" 
			},
			{
				"x": -0.1213790202,
				"y": -0.9503765985,
				"z": 0.527070983,
				"element": "C" 
			},
			{
				"x": 0.5054390465,
				"y": 0.2524997414,
				"z": 0.8831879129,
				"element": "C" 
			},
			{
				"x": -0.4270489531,
				"y": 1.4303422774,
				"z": 0.6863305052,
				"element": "C" 
			},
			{
				"x": -1.8098257209,
				"y": 0.812430973,
				"z": 0.3172201418,
				"element": "C" 
			},
			{
				"x": -2.8523192119,
				"y": 0.940157611,
				"z": 1.4718198503,
				"element": "C" 
			},
			{
				"x": -3.775847037,
				"y": 2.1568758178,
				"z": 1.3149815013,
				"element": "C" 
			},
			{
				"x": -4.588855065,
				"y": 2.068191557,
				"z": 0.0246803769,
				"element": "C" 
			},
			{
				"x": -5.6863903705,
				"y": 2.5775931296,
				"z": -0.0903365558,
				"element": "O" 
			},
			{
				"x": -3.909782457,
				"y": 1.2966465978,
				"z": -1.0989023696,
				"element": "C" 
			},
			{
				"x": -2.3817244011,
				"y": 1.4111701394,
				"z": -1.0018179306,
				"element": "C" 
			},
			{
				"x": -1.5136370105,
				"y": -0.6988018773,
				"z": 0.129883152,
				"element": "C" 
			},
			{
				"x": -2.330440068,
				"y": -1.5187754957,
				"z": -0.2618356978,
				"element": "O" 
			},
			{
				"x": 1.8228137312,
				"y": 0.2520943053,
				"z": 1.316183754,
				"element": "C" 
			},
			{
				"x": 4.1283803239,
				"y": -2.7839949572,
				"z": 2.6357148925,
				"element": "H" 
			},
			{
				"x": 5.549375648,
				"y": -1.7635623373,
				"z": 2.2880489803,
				"element": "H" 
			},
			{
				"x": 4.6849950566,
				"y": -2.5654502073,
				"z": 0.9496894107,
				"element": "H" 
			},
			{
				"x": 2.4211593428,
				"y": -3.1193624855,
				"z": 1.0800581925,
				"element": "H" 
			},
			{
				"x": 0.0562779258,
				"y": -3.0854484967,
				"z": 0.308659368,
				"element": "H" 
			},
			{
				"x": -0.4808653732,
				"y": 2.0629948707,
				"z": 1.5802247919,
				"element": "H" 
			},
			{
				"x": -0.0501404852,
				"y": 2.0698566078,
				"z": -0.1217087236,
				"element": "H" 
			},
			{
				"x": -3.4726734611,
				"y": 0.0367787555,
				"z": 1.4786443564,
				"element": "H" 
			},
			{
				"x": -2.3363197779,
				"y": 0.9689891439,
				"z": 2.4375363408,
				"element": "H" 
			},
			{
				"x": -4.4686320016,
				"y": 2.2603683136,
				"z": 2.1552619701,
				"element": "H" 
			},
			{
				"x": -3.189091639,
				"y": 3.0866566292,
				"z": 1.275784965,
				"element": "H" 
			},
			{
				"x": -4.1970074936,
				"y": 0.240018985,
				"z": -1.0149687191,
				"element": "H" 
			},
			{
				"x": -4.2943110391,
				"y": 1.662545424,
				"z": -2.0552274763,
				"element": "H" 
			},
			{
				"x": -2.101001689,
				"y": 2.4705501967,
				"z": -1.0581703292,
				"element": "H" 
			},
			{
				"x": -1.9125314255,
				"y": 0.92482607,
				"z": -1.8638971517,
				"element": "H" 
			},
			{
				"x": 2.3456245836,
				"y": 1.1599225036,
				"z": 1.601012616,
				"element": "H" 
			}
		],
		 "valence_orbital": [ 
			{
				"type": "occ",
				"energy": -0.31472,
				"method": "rhf"
			},
			{
				"type": "occ",
				"energy": -0.26165,
				"method": "rhf"
			},
			{
				"type": "occ",
				"energy": -0.2393,
				"method": "rhf"
			},
			{
				"type": "occ",
				"energy": -0.23604,
				"method": "rhf"
			},
			{
				"type": "occ",
				"energy": -0.23117,
				"method": "rhf"
			},
			{
				"type": "unocc",
				"energy": -0.05218,
				"method": "rhf"
			},
			{
				"type": "unocc",
				"energy": -0.01571,
				"method": "rhf"
			},
			{
				"type": "unocc",
				"energy": -0.0059,
				"method": "rhf"
			},
			{
				"type": "unocc",
				"energy": 0.04958,
				"method": "rhf"
			},
			{
				"type": "unocc",
				"energy": 0.08104,
				"method": "rhf"
			}
		],
		"cosmo_sigma_profile": { 
			"-0.025": 0.0,
			"-0.024": 0.0,
			"-0.023": 0.0,
			"-0.022": 0.0,
			"-0.021": 0.0,
			"-0.02": 0.0,
			"-0.019": 0.0,
			"-0.018": 0.0,
			"-0.017": 0.0,
			"-0.016": 0.0,
			"-0.015": 0.0,
			"-0.014": 0.0,
			"-0.013": 0.0,
			"-0.012": 0.0,
			"-0.011": 0.0,
			"-0.01": 0.0,
			"-0.009": 0.0,
			"-0.008": 0.0209881504906,
			"-0.007": 3.12139609346,
			"-0.006": 15.7891748348,
			"-0.005": 27.8552511838,
			"-0.004": 38.3422777833,
			"-0.003": 33.311956862,
			"-0.002": 27.7620296281,
			"-0.001": 21.5487522799,
			"0.0": 12.1418815354,
			"0.001": 10.9980184622,
			"0.002": 14.786692104,
			"0.003": 17.3408496738,
			"0.004": 11.862015622,
			"0.005": 5.27572115867,
			"0.006": 5.20787475296,
			"0.007": 3.54944138541,
			"0.008": 4.23885901144,
			"0.009": 4.39494700023,
			"0.01": 5.14643701979,
			"0.011": 4.15158786707,
			"0.012": 8.17034460511,
			"0.013": 6.24158873319,
			"0.014": 0.955633784819,
			"0.015": 0.0,
			"0.016": 0.0,
			"0.017": 0.0,
			"0.018": 0.0,
			"0.019": 0.0,
			"0.02": 0.0,
			"0.021": 0.0,
			"0.022": 0.0,
			"0.023": 0.0,
			"0.024": 0.0,
			"0.025": 0.0
		}
	}
}
