{
	 "smiles": "CCN1CCN(CC1)C1=NC=C(C=C1)C#N", 
	 "Tm": 343.15, 
	 "num_atms": 32, 
	 "gaussian": { 
		 "optdone": 1, 
		 "sigma_profile": "yes", 
		 "theory": "DFT", 
		 "functional": "B3LYP", 
		 "basiset": "6-31G**", 
		 "properties": { 
			 "R2extent": 6237.7509, 
			 "electric_dipole_moment_norm": 7.04983901518, 
			 "electric_quadrupole_moment_norm": 41.9620406787, 
			 "total_energy": -685.898928124, 
			 "HOMO_LUMO_gap": 0.17914, 
			 "cosmo_polarized_energy": -13.23, 
			 "cosmo_cavitation_energy": 34.48, 
			 "cosmo_dispersion_energy": -24.76, 
			 "cosmo_repulsion_energy": 1.93, 
			 "cosmo_total_nonelectrostatic_energy": 11.64, 
			 "SMD_solvation_energy": 3.04 
		},
		"coords": [
			{
				"x": 0.4211934061,
				"y": -0.8066352527,
				"z": -4.5812521522,
				"element": "C" 
			},
			{
				"x": 0.202317561,
				"y": 0.2480189569,
				"z": -3.4957944923,
				"element": "C" 
			},
			{
				"x": 1.1665495018,
				"y": 0.1551111241,
				"z": -2.3984428015,
				"element": "N" 
			},
			{
				"x": 1.2903730849,
				"y": 1.420268013,
				"z": -1.6649413315,
				"element": "C" 
			},
			{
				"x": 1.9238681673,
				"y": 1.2110662615,
				"z": -0.2927731828,
				"element": "C" 
			},
			{
				"x": 1.0491416645,
				"y": 0.363292546,
				"z": 0.5276751768,
				"element": "N" 
			},
			{
				"x": 0.2960737878,
				"y": -0.6735762338,
				"z": -0.1771804277,
				"element": "C" 
			},
			{
				"x": 0.9884327113,
				"y": -0.9992947271,
				"z": -1.508271295,
				"element": "C" 
			},
			{
				"x": 0.8684662518,
				"y": 0.6075419235,
				"z": 1.8599135742,
				"element": "C" 
			},
			{
				"x": 1.6569164602,
				"y": 1.5545339237,
				"z": 2.4187087349,
				"element": "N" 
			},
			{
				"x": 1.5276774246,
				"y": 1.8148388263,
				"z": 3.7132018992,
				"element": "C" 
			},
			{
				"x": 0.6185775013,
				"y": 1.1608720558,
				"z": 4.5607911122,
				"element": "C" 
			},
			{
				"x": -0.2128615653,
				"y": 0.1844661018,
				"z": 3.9754307848,
				"element": "C" 
			},
			{
				"x": -0.1007748765,
				"y": -0.0949651521,
				"z": 2.629157506,
				"element": "C" 
			},
			{
				"x": 0.5412029534,
				"y": 1.4847002684,
				"z": 5.947713512,
				"element": "C" 
			},
			{
				"x": 0.4796594716,
				"y": 1.7511059746,
				"z": 7.0799022112,
				"element": "N" 
			},
			{
				"x": 0.2772153634,
				"y": -1.8251399228,
				"z": -4.2059587714,
				"element": "H" 
			},
			{
				"x": 1.4373067247,
				"y": -0.7366044223,
				"z": -4.9800556797,
				"element": "H" 
			},
			{
				"x": -0.2885880565,
				"y": -0.6587816295,
				"z": -5.4018223158,
				"element": "H" 
			},
			{
				"x": -0.8450545196,
				"y": 0.2082980738,
				"z": -3.1351965416,
				"element": "H" 
			},
			{
				"x": 0.327923606,
				"y": 1.2398089463,
				"z": -3.9455289809,
				"element": "H" 
			},
			{
				"x": 0.309416857,
				"y": 1.9098314304,
				"z": -1.5152780153,
				"element": "H" 
			},
			{
				"x": 1.9076045824,
				"y": 2.1169030324,
				"z": -2.2465941112,
				"element": "H" 
			},
			{
				"x": 2.0539472554,
				"y": 2.1630345046,
				"z": 0.2207065279,
				"element": "H" 
			},
			{
				"x": 2.9195837641,
				"y": 0.7585659456,
				"z": -0.3974256625,
				"element": "H" 
			},
			{
				"x": -0.7449022866,
				"y": -0.3578120187,
				"z": -0.3497670222,
				"element": "H" 
			},
			{
				"x": 0.2631221787,
				"y": -1.5854285435,
				"z": 0.4303895185,
				"element": "H" 
			},
			{
				"x": 1.9648958522,
				"y": -1.4488961603,
				"z": -1.2835950126,
				"element": "H" 
			},
			{
				"x": 0.405371637,
				"y": -1.7690636699,
				"z": -2.0206481558,
				"element": "H" 
			},
			{
				"x": 2.181209383,
				"y": 2.5856385853,
				"z": 4.1175083922,
				"element": "H" 
			},
			{
				"x": -0.944519608,
				"y": -0.3374874872,
				"z": 4.583918953,
				"element": "H" 
			},
			{
				"x": -0.7567462391,
				"y": -0.8260112742,
				"z": 2.1748080491,
				"element": "H" 
			}
		],
		 "valence_orbital": [ 
			{
				"type": "occ",
				"energy": -0.29532,
				"method": "rhf"
			},
			{
				"type": "occ",
				"energy": -0.29333,
				"method": "rhf"
			},
			{
				"type": "occ",
				"energy": -0.26808,
				"method": "rhf"
			},
			{
				"type": "occ",
				"energy": -0.21766,
				"method": "rhf"
			},
			{
				"type": "occ",
				"energy": -0.21392,
				"method": "rhf"
			},
			{
				"type": "unocc",
				"energy": -0.03478,
				"method": "rhf"
			},
			{
				"type": "unocc",
				"energy": -0.0287,
				"method": "rhf"
			},
			{
				"type": "unocc",
				"energy": 0.04361,
				"method": "rhf"
			},
			{
				"type": "unocc",
				"energy": 0.06153,
				"method": "rhf"
			},
			{
				"type": "unocc",
				"energy": 0.08449,
				"method": "rhf"
			}
		],
		"cosmo_sigma_profile": { 
			"-0.025": 0.0,
			"-0.024": 0.0,
			"-0.023": 0.0,
			"-0.022": 0.0,
			"-0.021": 0.0,
			"-0.02": 0.0,
			"-0.019": 0.0,
			"-0.018": 0.0,
			"-0.017": 0.0,
			"-0.016": 0.0,
			"-0.015": 0.0,
			"-0.014": 0.0,
			"-0.013": 0.0,
			"-0.012": 0.0,
			"-0.011": 0.0,
			"-0.01": 0.0,
			"-0.009": 0.0658590359893,
			"-0.008": 3.09955098951,
			"-0.007": 7.5298101751,
			"-0.006": 8.5435479546,
			"-0.005": 12.8261158775,
			"-0.004": 24.5993127417,
			"-0.003": 33.4895770502,
			"-0.002": 31.8167669419,
			"-0.001": 28.1841690128,
			"0.0": 26.0043041853,
			"0.001": 26.5756810833,
			"0.002": 13.6958940142,
			"0.003": 7.37101382498,
			"0.004": 5.48499554838,
			"0.005": 4.78345888524,
			"0.006": 4.87252265014,
			"0.007": 5.7045721295,
			"0.008": 4.44449765185,
			"0.009": 5.27444652838,
			"0.01": 4.70628363765,
			"0.011": 4.70452608451,
			"0.012": 4.00327328697,
			"0.013": 2.93648641683,
			"0.014": 1.20459519494,
			"0.015": 0.311479556371,
			"0.016": 0.141267017121,
			"0.017": 0.0,
			"0.018": 0.0,
			"0.019": 0.0,
			"0.02": 0.0,
			"0.021": 0.0,
			"0.022": 0.0,
			"0.023": 0.0,
			"0.024": 0.0,
			"0.025": 0.0
		}
	}
}
