{
	 "smiles": "CC1=CC=CN2C=C(N=C12)C1=CC=C(N)C=C1", 
	 "Tm": 435.15, 
	 "num_atms": 30, 
	 "gaussian": { 
		 "optdone": 1, 
		 "sigma_profile": "yes", 
		 "theory": "DFT", 
		 "functional": "B3LYP", 
		 "basiset": "6-31G**", 
		 "properties": { 
			 "R2extent": 5920.6989, 
			 "electric_dipole_moment_norm": 2.03580235534, 
			 "electric_quadrupole_moment_norm": 22.5112800833, 
			 "total_energy": -705.595634829, 
			 "HOMO_LUMO_gap": 0.15444, 
			 "cosmo_polarized_energy": -15.8, 
			 "cosmo_cavitation_energy": 33.86, 
			 "cosmo_dispersion_energy": -24.92, 
			 "cosmo_repulsion_energy": 1.9, 
			 "cosmo_total_nonelectrostatic_energy": 10.84, 
			 "SMD_solvation_energy": 4.82 
		},
		"coords": [
			{
				"x": -3.6828957287,
				"y": 0.5758997274,
				"z": 2.0561777897,
				"element": "C" 
			},
			{
				"x": -2.9313284596,
				"y": 1.506443265,
				"z": 1.1463302213,
				"element": "C" 
			},
			{
				"x": -3.1402883208,
				"y": 2.8682983214,
				"z": 1.1033470241,
				"element": "C" 
			},
			{
				"x": -2.3994853536,
				"y": 3.7035676889,
				"z": 0.2209838442,
				"element": "C" 
			},
			{
				"x": -1.4557166275,
				"y": 3.169706088,
				"z": -0.6107426473,
				"element": "C" 
			},
			{
				"x": -1.2349373745,
				"y": 1.814206084,
				"z": -0.5801377444,
				"element": "N" 
			},
			{
				"x": -0.3655810709,
				"y": 1.0163666695,
				"z": -1.2910323332,
				"element": "C" 
			},
			{
				"x": -0.5815599298,
				"y": -0.2810616327,
				"z": -0.8415579535,
				"element": "C" 
			},
			{
				"x": -1.5570405473,
				"y": -0.3026750464,
				"z": 0.1232471567,
				"element": "N" 
			},
			{
				"x": -1.9477334726,
				"y": 0.9573115242,
				"z": 0.2779077534,
				"element": "C" 
			},
			{
				"x": 0.0867527631,
				"y": -1.5124571462,
				"z": -1.27679091,
				"element": "C" 
			},
			{
				"x": -0.285817795,
				"y": -2.7490158677,
				"z": -0.72372201,
				"element": "C" 
			},
			{
				"x": 0.3310884849,
				"y": -3.9300467581,
				"z": -1.1155357167,
				"element": "C" 
			},
			{
				"x": 1.3518890252,
				"y": -3.9221539783,
				"z": -2.0823655847,
				"element": "C" 
			},
			{
				"x": 1.9348212532,
				"y": -5.1132475181,
				"z": -2.5196230381,
				"element": "N" 
			},
			{
				"x": 1.7296684988,
				"y": -2.6878920601,
				"z": -2.6400105682,
				"element": "C" 
			},
			{
				"x": 1.1070628258,
				"y": -1.5110274251,
				"z": -2.2420848918,
				"element": "C" 
			},
			{
				"x": -4.2149462039,
				"y": -0.1873863012,
				"z": 1.4783232607,
				"element": "H" 
			},
			{
				"x": -4.4057016129,
				"y": 1.1217665582,
				"z": 2.6679434633,
				"element": "H" 
			},
			{
				"x": -2.9948147164,
				"y": 0.0389961755,
				"z": 2.7179219066,
				"element": "H" 
			},
			{
				"x": -3.885252222,
				"y": 3.3147459729,
				"z": 1.7553606192,
				"element": "H" 
			},
			{
				"x": -2.5757270988,
				"y": 4.7730105224,
				"z": 0.1987666922,
				"element": "H" 
			},
			{
				"x": -0.8568300027,
				"y": 3.7451954471,
				"z": -1.3060049876,
				"element": "H" 
			},
			{
				"x": 0.3016136641,
				"y": 1.4320975445,
				"z": -2.0290763476,
				"element": "H" 
			},
			{
				"x": -1.0706741201,
				"y": -2.7627796722,
				"z": 0.0247878715,
				"element": "H" 
			},
			{
				"x": 0.0211127007,
				"y": -4.8745705027,
				"z": -0.6741445593,
				"element": "H" 
			},
			{
				"x": 1.883256005,
				"y": -5.8806331829,
				"z": -1.8635899816,
				"element": "H" 
			},
			{
				"x": 2.8605822838,
				"y": -5.0185670028,
				"z": -2.9144297875,
				"element": "H" 
			},
			{
				"x": 2.514514059,
				"y": -2.6579217503,
				"z": -3.3921872891,
				"element": "H" 
			},
			{
				"x": 1.4283690932,
				"y": -0.5752757441,
				"z": -2.6914612523,
				"element": "H" 
			}
		],
		 "valence_orbital": [ 
			{
				"type": "occ",
				"energy": -0.26052,
				"method": "rhf"
			},
			{
				"type": "occ",
				"energy": -0.24133,
				"method": "rhf"
			},
			{
				"type": "occ",
				"energy": -0.23957,
				"method": "rhf"
			},
			{
				"type": "occ",
				"energy": -0.20305,
				"method": "rhf"
			},
			{
				"type": "occ",
				"energy": -0.18121,
				"method": "rhf"
			},
			{
				"type": "unocc",
				"energy": -0.02677,
				"method": "rhf"
			},
			{
				"type": "unocc",
				"energy": 0.0007,
				"method": "rhf"
			},
			{
				"type": "unocc",
				"energy": 0.01343,
				"method": "rhf"
			},
			{
				"type": "unocc",
				"energy": 0.02533,
				"method": "rhf"
			},
			{
				"type": "unocc",
				"energy": 0.08219,
				"method": "rhf"
			}
		],
		"cosmo_sigma_profile": { 
			"-0.025": 0.0,
			"-0.024": 0.0,
			"-0.023": 0.0,
			"-0.022": 0.0,
			"-0.021": 0.0,
			"-0.02": 0.0,
			"-0.019": 0.0,
			"-0.018": 0.0,
			"-0.017": 0.0,
			"-0.016": 0.0,
			"-0.015": 0.0,
			"-0.014": 0.0,
			"-0.013": 0.304352851812,
			"-0.012": 2.30276546658,
			"-0.011": 2.92070115736,
			"-0.01": 3.53333334593,
			"-0.009": 5.52252842871,
			"-0.008": 8.06627763312,
			"-0.007": 8.40905114652,
			"-0.006": 12.3338130517,
			"-0.005": 14.2655695243,
			"-0.004": 17.4759252368,
			"-0.003": 17.1801976306,
			"-0.002": 15.4898543025,
			"-0.001": 15.0294742902,
			"0.0": 18.5984552002,
			"0.001": 20.5849735771,
			"0.002": 16.261533562,
			"0.003": 16.6474880186,
			"0.004": 18.9493192825,
			"0.005": 17.5925805423,
			"0.006": 15.1239305002,
			"0.007": 7.50026055467,
			"0.008": 3.57093563232,
			"0.009": 2.49846223776,
			"0.01": 2.49067724174,
			"0.011": 1.75969841701,
			"0.012": 2.10982032848,
			"0.013": 2.50843439873,
			"0.014": 1.17063905518,
			"0.015": 0.194464671073,
			"0.016": 0.0,
			"0.017": 0.0,
			"0.018": 0.0,
			"0.019": 0.0,
			"0.02": 0.0,
			"0.021": 0.0,
			"0.022": 0.0,
			"0.023": 0.0,
			"0.024": 0.0,
			"0.025": 0.0
		}
	}
}
