{
	 "smiles": "OC1=CC2=C(NC=C2)C=C1", 
	 "Tm": 381.15, 
	 "num_atms": 17, 
	 "gaussian": { 
		 "optdone": 1, 
		 "sigma_profile": "yes", 
		 "theory": "DFT", 
		 "functional": "B3LYP", 
		 "basiset": "6-31G**", 
		 "properties": { 
			 "R2extent": 1630.2801, 
			 "electric_dipole_moment_norm": 2.97734884251, 
			 "electric_quadrupole_moment_norm": 9.92169807241, 
			 "total_energy": -439.03867449, 
			 "HOMO_LUMO_gap": 0.18564, 
			 "cosmo_polarized_energy": -12.92, 
			 "cosmo_cavitation_energy": 20.82, 
			 "cosmo_dispersion_energy": -15.98, 
			 "cosmo_repulsion_energy": 1.28, 
			 "cosmo_total_nonelectrostatic_energy": 6.12, 
			 "SMD_solvation_energy": 3.83 
		},
		"coords": [
			{
				"x": 2.0289534035,
				"y": -2.342434776,
				"z": -1.4051843317,
				"element": "O" 
			},
			{
				"x": 1.1243224636,
				"y": -1.8160745862,
				"z": -0.5141398475,
				"element": "C" 
			},
			{
				"x": 0.1111710345,
				"y": -1.014608028,
				"z": -1.0270481321,
				"element": "C" 
			},
			{
				"x": -0.828433475,
				"y": -0.4624082437,
				"z": -0.1402947491,
				"element": "C" 
			},
			{
				"x": -0.7179543647,
				"y": -0.737343526,
				"z": 1.2523294712,
				"element": "C" 
			},
			{
				"x": -1.7573696975,
				"y": -0.0776189794,
				"z": 1.8857121214,
				"element": "N" 
			},
			{
				"x": -2.5071890509,
				"y": 0.5949370583,
				"z": 0.9413791116,
				"element": "C" 
			},
			{
				"x": -1.9754967175,
				"y": 0.3868401038,
				"z": -0.305220326,
				"element": "C" 
			},
			{
				"x": 0.3001297552,
				"y": -1.5425552385,
				"z": 1.7662573656,
				"element": "C" 
			},
			{
				"x": 1.2189822747,
				"y": -2.078484823,
				"z": 0.8703659271,
				"element": "C" 
			},
			{
				"x": 2.6718314184,
				"y": -2.8733509788,
				"z": -0.9191013843,
				"element": "H" 
			},
			{
				"x": 0.0659456452,
				"y": -0.8321077846,
				"z": -2.0956618408,
				"element": "H" 
			},
			{
				"x": -1.9383874461,
				"y": -0.0860308532,
				"z": 2.8754953216,
				"element": "H" 
			},
			{
				"x": -3.3696784366,
				"y": 1.1744285499,
				"z": 1.2389374828,
				"element": "H" 
			},
			{
				"x": -2.3562857102,
				"y": 0.7911385669,
				"z": -1.2321327755,
				"element": "H" 
			},
			{
				"x": 0.3807452924,
				"y": -1.7497905724,
				"z": 2.8295855038,
				"element": "H" 
			},
			{
				"x": 2.024113611,
				"y": -2.710135889,
				"z": 1.2400210818,
				"element": "H" 
			}
		],
		 "valence_orbital": [ 
			{
				"type": "occ",
				"energy": -0.32711,
				"method": "rhf"
			},
			{
				"type": "occ",
				"energy": -0.299,
				"method": "rhf"
			},
			{
				"type": "occ",
				"energy": -0.27002,
				"method": "rhf"
			},
			{
				"type": "occ",
				"energy": -0.2032,
				"method": "rhf"
			},
			{
				"type": "occ",
				"energy": -0.19085,
				"method": "rhf"
			},
			{
				"type": "unocc",
				"energy": -0.00521,
				"method": "rhf"
			},
			{
				"type": "unocc",
				"energy": 0.04556,
				"method": "rhf"
			},
			{
				"type": "unocc",
				"energy": 0.07655,
				"method": "rhf"
			},
			{
				"type": "unocc",
				"energy": 0.079,
				"method": "rhf"
			},
			{
				"type": "unocc",
				"energy": 0.08352,
				"method": "rhf"
			}
		],
		"cosmo_sigma_profile": { 
			"-0.025": 0.0,
			"-0.024": 0.0,
			"-0.023": 0.0,
			"-0.022": 0.0,
			"-0.021": 0.0,
			"-0.02": 0.0,
			"-0.019": 0.0,
			"-0.018": 0.0,
			"-0.017": 0.682678628596,
			"-0.016": 1.3479806891,
			"-0.015": 2.42080470646,
			"-0.014": 2.32970702303,
			"-0.013": 2.13165110577,
			"-0.012": 1.90841532091,
			"-0.011": 1.35274193267,
			"-0.01": 2.64208150439,
			"-0.009": 3.0623547379,
			"-0.008": 3.86305587998,
			"-0.007": 5.34015410995,
			"-0.006": 6.67363006146,
			"-0.005": 7.87739788818,
			"-0.004": 8.29393404502,
			"-0.003": 8.4285534577,
			"-0.002": 8.62870868008,
			"-0.001": 7.03459520801,
			"0.0": 6.98018402876,
			"0.001": 6.47822400816,
			"0.002": 6.84088393387,
			"0.003": 8.20164638673,
			"0.004": 9.13487106843,
			"0.005": 14.2730672227,
			"0.006": 17.6682115397,
			"0.007": 12.7937634787,
			"0.008": 2.49320697564,
			"0.009": 1.92008945288,
			"0.01": 1.09677601794,
			"0.011": 1.50629369197,
			"0.012": 2.57154598302,
			"0.013": 0.450791290311,
			"0.014": 0.0,
			"0.015": 0.0,
			"0.016": 0.0,
			"0.017": 0.0,
			"0.018": 0.0,
			"0.019": 0.0,
			"0.02": 0.0,
			"0.021": 0.0,
			"0.022": 0.0,
			"0.023": 0.0,
			"0.024": 0.0,
			"0.025": 0.0
		}
	}
}
