{
	 "smiles": "CCC(=O)OC1=CC=C(OC(=O)CC)C=C1", 
	 "Tm": 386.15, 
	 "num_atms": 30, 
	 "gaussian": { 
		 "optdone": 1, 
		 "sigma_profile": "yes", 
		 "theory": "DFT", 
		 "functional": "B3LYP", 
		 "basiset": "6-31G**", 
		 "properties": { 
			 "R2extent": 6135.5485, 
			 "electric_dipole_moment_norm": 4.59795894175, 
			 "electric_quadrupole_moment_norm": 11.2168360615, 
			 "total_energy": -766.629020958, 
			 "HOMO_LUMO_gap": 0.21972, 
			 "cosmo_polarized_energy": -13.51, 
			 "cosmo_cavitation_energy": 34.9, 
			 "cosmo_dispersion_energy": -24.41, 
			 "cosmo_repulsion_energy": 1.97, 
			 "cosmo_total_nonelectrostatic_energy": 12.46, 
			 "SMD_solvation_energy": 8.17 
		},
		"coords": [
			{
				"x": -4.1389388428,
				"y": 1.4162028604,
				"z": 3.4037070366,
				"element": "C" 
			},
			{
				"x": -2.9978635136,
				"y": 1.1004569446,
				"z": 2.4383869001,
				"element": "C" 
			},
			{
				"x": -2.6607490995,
				"y": 2.2836782483,
				"z": 1.5482436671,
				"element": "C" 
			},
			{
				"x": -3.2126787627,
				"y": 3.3521532414,
				"z": 1.5890242128,
				"element": "O" 
			},
			{
				"x": -1.646643958,
				"y": 2.1167409704,
				"z": 0.6249492767,
				"element": "O" 
			},
			{
				"x": -0.9440856689,
				"y": 0.9237345654,
				"z": 0.4978776742,
				"element": "C" 
			},
			{
				"x": 0.2277989353,
				"y": 0.7313033916,
				"z": 1.2302395804,
				"element": "C" 
			},
			{
				"x": 0.9780877873,
				"y": -0.4310372656,
				"z": 1.0557733765,
				"element": "C" 
			},
			{
				"x": 0.5406298268,
				"y": -1.3905163302,
				"z": 0.1406558617,
				"element": "C" 
			},
			{
				"x": 1.2610849665,
				"y": -2.5468933192,
				"z": -0.1521625757,
				"element": "O" 
			},
			{
				"x": 1.8089932932,
				"y": -3.3169452449,
				"z": 0.8460859151,
				"element": "C" 
			},
			{
				"x": 1.7163252807,
				"y": -3.0651871005,
				"z": 2.0222335468,
				"element": "O" 
			},
			{
				"x": 2.5287003496,
				"y": -4.5035996393,
				"z": 0.2421201268,
				"element": "C" 
			},
			{
				"x": 3.6898818964,
				"y": -4.0988983444,
				"z": -0.6811109549,
				"element": "C" 
			},
			{
				"x": -0.621284697,
				"y": -1.1927231416,
				"z": -0.6049175691,
				"element": "C" 
			},
			{
				"x": -1.3665652521,
				"y": -0.0280694761,
				"z": -0.4303090143,
				"element": "C" 
			},
			{
				"x": -4.3565637619,
				"y": 0.54667882,
				"z": 4.0305022921,
				"element": "H" 
			},
			{
				"x": -5.0469376202,
				"y": 1.6897949936,
				"z": 2.8606578397,
				"element": "H" 
			},
			{
				"x": -3.8810956021,
				"y": 2.256849317,
				"z": 4.0524824371,
				"element": "H" 
			},
			{
				"x": -2.0914450946,
				"y": 0.8019281998,
				"z": 2.978764257,
				"element": "H" 
			},
			{
				"x": -3.2427846574,
				"y": 0.2433422231,
				"z": 1.7994484454,
				"element": "H" 
			},
			{
				"x": 0.553091201,
				"y": 1.4985715292,
				"z": 1.925277472,
				"element": "H" 
			},
			{
				"x": 1.8831203619,
				"y": -0.5901987011,
				"z": 1.62647076,
				"element": "H" 
			},
			{
				"x": 2.8813905435,
				"y": -5.1146062796,
				"z": 1.0758070029,
				"element": "H" 
			},
			{
				"x": 1.7965562501,
				"y": -5.0910548833,
				"z": -0.3244988617,
				"element": "H" 
			},
			{
				"x": 3.3317392876,
				"y": -3.5000756886,
				"z": -1.5218401863,
				"element": "H" 
			},
			{
				"x": 4.1823043814,
				"y": -4.9907421087,
				"z": -1.0787438729,
				"element": "H" 
			},
			{
				"x": 4.4399946139,
				"y": -3.514944723,
				"z": -0.138884875,
				"element": "H" 
			},
			{
				"x": -0.9247673054,
				"y": -1.9491226582,
				"z": -1.3207719975,
				"element": "H" 
			},
			{
				"x": -2.264295139,
				"y": 0.1527795995,
				"z": -1.0122677735,
				"element": "H" 
			}
		],
		 "valence_orbital": [ 
			{
				"type": "occ",
				"energy": -0.30581,
				"method": "rhf"
			},
			{
				"type": "occ",
				"energy": -0.28506,
				"method": "rhf"
			},
			{
				"type": "occ",
				"energy": -0.27817,
				"method": "rhf"
			},
			{
				"type": "occ",
				"energy": -0.26907,
				"method": "rhf"
			},
			{
				"type": "occ",
				"energy": -0.24313,
				"method": "rhf"
			},
			{
				"type": "unocc",
				"energy": -0.02341,
				"method": "rhf"
			},
			{
				"type": "unocc",
				"energy": -0.0223,
				"method": "rhf"
			},
			{
				"type": "unocc",
				"energy": 0.00719,
				"method": "rhf"
			},
			{
				"type": "unocc",
				"energy": 0.00907,
				"method": "rhf"
			},
			{
				"type": "unocc",
				"energy": 0.07753,
				"method": "rhf"
			}
		],
		"cosmo_sigma_profile": { 
			"-0.025": 0.0,
			"-0.024": 0.0,
			"-0.023": 0.0,
			"-0.022": 0.0,
			"-0.021": 0.0,
			"-0.02": 0.0,
			"-0.019": 0.0,
			"-0.018": 0.0,
			"-0.017": 0.0,
			"-0.016": 0.0,
			"-0.015": 0.0,
			"-0.014": 0.0,
			"-0.013": 0.0,
			"-0.012": 0.0,
			"-0.011": 0.0,
			"-0.01": 0.0,
			"-0.009": 0.0,
			"-0.008": 1.1065413454,
			"-0.007": 9.55053082405,
			"-0.006": 15.9969129023,
			"-0.005": 18.9085538025,
			"-0.004": 25.350084911,
			"-0.003": 29.2708471745,
			"-0.002": 29.4374990123,
			"-0.001": 21.4832437511,
			"0.0": 23.1506764155,
			"0.001": 18.4435836408,
			"0.002": 17.630267534,
			"0.003": 12.6662412056,
			"0.004": 6.55313065685,
			"0.005": 5.75658897822,
			"0.006": 4.12245957937,
			"0.007": 4.16208747368,
			"0.008": 5.0033344286,
			"0.009": 4.83374384421,
			"0.01": 6.69609914405,
			"0.011": 9.51486786896,
			"0.012": 5.88017878066,
			"0.013": 0.840248088324,
			"0.014": 0.0,
			"0.015": 0.0,
			"0.016": 0.0,
			"0.017": 0.0,
			"0.018": 0.0,
			"0.019": 0.0,
			"0.02": 0.0,
			"0.021": 0.0,
			"0.022": 0.0,
			"0.023": 0.0,
			"0.024": 0.0,
			"0.025": 0.0
		}
	}
}
