{
	 "smiles": "CC(C)OCCO", 
	 "Tm": 213.15, 
	 "num_atms": 19, 
	 "gaussian": { 
		 "optdone": 1, 
		 "sigma_profile": "yes", 
		 "theory": "DFT", 
		 "functional": "B3LYP", 
		 "basiset": "6-31G**", 
		 "properties": { 
			 "R2extent": 1911.8065, 
			 "electric_dipole_moment_norm": 1.93567048849, 
			 "electric_quadrupole_moment_norm": 10.784653873, 
			 "total_energy": -348.196591798, 
			 "HOMO_LUMO_gap": 0.32281, 
			 "cosmo_polarized_energy": -7.97, 
			 "cosmo_cavitation_energy": 21.37, 
			 "cosmo_dispersion_energy": -15.64, 
			 "cosmo_repulsion_energy": 1.37, 
			 "cosmo_total_nonelectrostatic_energy": 7.1, 
			 "SMD_solvation_energy": 3.95 
		},
		"coords": [
			{
				"x": -0.5589447984,
				"y": -1.2276734562,
				"z": 1.1038647503,
				"element": "C" 
			},
			{
				"x": -1.0552888381,
				"y": -0.51359185,
				"z": -0.1571861943,
				"element": "C" 
			},
			{
				"x": -0.0890437884,
				"y": -0.6717071757,
				"z": -1.3267757996,
				"element": "C" 
			},
			{
				"x": -1.2019764909,
				"y": 0.8927447194,
				"z": 0.0515421314,
				"element": "O" 
			},
			{
				"x": -2.3099958126,
				"y": 1.2819553199,
				"z": 0.8371530365,
				"element": "C" 
			},
			{
				"x": -2.4549464282,
				"y": 2.7981480202,
				"z": 0.7178265232,
				"element": "C" 
			},
			{
				"x": -3.5439799035,
				"y": 3.2847149583,
				"z": 1.4884106705,
				"element": "O" 
			},
			{
				"x": 0.4064429077,
				"y": -0.8150952878,
				"z": 1.4154192419,
				"element": "H" 
			},
			{
				"x": -0.4319698977,
				"y": -2.2985888884,
				"z": 0.9139600183,
				"element": "H" 
			},
			{
				"x": -1.2620943975,
				"y": -1.121267818,
				"z": 1.9354691972,
				"element": "H" 
			},
			{
				"x": -2.036769881,
				"y": -0.9312893023,
				"z": -0.4411358555,
				"element": "H" 
			},
			{
				"x": 0.0472731189,
				"y": -1.7281985068,
				"z": -1.5777057636,
				"element": "H" 
			},
			{
				"x": 0.8875273389,
				"y": -0.2477454378,
				"z": -1.0710830178,
				"element": "H" 
			},
			{
				"x": -0.4685243862,
				"y": -0.1480704433,
				"z": -2.2083693282,
				"element": "H" 
			},
			{
				"x": -2.174553901,
				"y": 1.0105288012,
				"z": 1.8989457038,
				"element": "H" 
			},
			{
				"x": -3.2366206925,
				"y": 0.7954323668,
				"z": 0.4922740278,
				"element": "H" 
			},
			{
				"x": -1.5025362074,
				"y": 3.2758642217,
				"z": 0.9920841584,
				"element": "H" 
			},
			{
				"x": -2.665779957,
				"y": 3.0627917171,
				"z": -0.3221725712,
				"element": "H" 
			},
			{
				"x": -3.318417985,
				"y": 3.1770480418,
				"z": 2.4212790708,
				"element": "H" 
			}
		],
		 "valence_orbital": [ 
			{
				"type": "occ",
				"energy": -0.34413,
				"method": "rhf"
			},
			{
				"type": "occ",
				"energy": -0.32455,
				"method": "rhf"
			},
			{
				"type": "occ",
				"energy": -0.30807,
				"method": "rhf"
			},
			{
				"type": "occ",
				"energy": -0.26838,
				"method": "rhf"
			},
			{
				"type": "occ",
				"energy": -0.25169,
				"method": "rhf"
			},
			{
				"type": "unocc",
				"energy": 0.07112,
				"method": "rhf"
			},
			{
				"type": "unocc",
				"energy": 0.08419,
				"method": "rhf"
			},
			{
				"type": "unocc",
				"energy": 0.11831,
				"method": "rhf"
			},
			{
				"type": "unocc",
				"energy": 0.1316,
				"method": "rhf"
			},
			{
				"type": "unocc",
				"energy": 0.13615,
				"method": "rhf"
			}
		],
		"cosmo_sigma_profile": { 
			"-0.025": 0.0,
			"-0.024": 0.0,
			"-0.023": 0.0,
			"-0.022": 0.0,
			"-0.021": 0.0,
			"-0.02": 0.0,
			"-0.019": 0.0,
			"-0.018": 0.0,
			"-0.017": 0.0,
			"-0.016": 0.352003349104,
			"-0.015": 0.927447357092,
			"-0.014": 1.05165773214,
			"-0.013": 0.837933953312,
			"-0.012": 1.25201129512,
			"-0.011": 0.588031346677,
			"-0.01": 1.01692300555,
			"-0.009": 1.172098944,
			"-0.008": 0.913918705183,
			"-0.007": 1.12020073254,
			"-0.006": 1.83893970274,
			"-0.005": 1.30570525386,
			"-0.004": 8.51132268503,
			"-0.003": 25.7082745427,
			"-0.002": 23.4686571117,
			"-0.001": 20.9687191329,
			"0.0": 18.008593626,
			"0.001": 16.723868008,
			"0.002": 6.35895960689,
			"0.003": 3.81407796396,
			"0.004": 2.84354991994,
			"0.005": 2.22313883943,
			"0.006": 2.50214592657,
			"0.007": 2.90776370923,
			"0.008": 3.53440715813,
			"0.009": 1.85417464862,
			"0.01": 2.62028391232,
			"0.011": 1.97812908251,
			"0.012": 2.94779369756,
			"0.013": 2.55663423818,
			"0.014": 2.04127461899,
			"0.015": 0.669184790001,
			"0.016": 0.0,
			"0.017": 0.0,
			"0.018": 0.0,
			"0.019": 0.0,
			"0.02": 0.0,
			"0.021": 0.0,
			"0.022": 0.0,
			"0.023": 0.0,
			"0.024": 0.0,
			"0.025": 0.0
		}
	}
}
