{
	 "smiles": "ClC1=NC=C(C=C1)C(=O)NCC=C", 
	 "Tm": 379.15, 
	 "num_atms": 22, 
	 "gaussian": { 
		 "optdone": 1, 
		 "sigma_profile": "yes", 
		 "theory": "DFT", 
		 "functional": "B3LYP", 
		 "basiset": "6-31G**", 
		 "properties": { 
			 "R2extent": 3369.1738, 
			 "electric_dipole_moment_norm": 3.44162104393, 
			 "electric_quadrupole_moment_norm": 12.9848891566, 
			 "total_energy": -993.280256902, 
			 "HOMO_LUMO_gap": 0.20063, 
			 "cosmo_polarized_energy": -13.16, 
			 "cosmo_cavitation_energy": 29.05, 
			 "cosmo_dispersion_energy": -20.13, 
			 "cosmo_repulsion_energy": 1.63, 
			 "cosmo_total_nonelectrostatic_energy": 10.55, 
			 "SMD_solvation_energy": 3.81 
		},
		"coords": [
			{
				"x": 3.8109815509,
				"y": 1.8503115807,
				"z": 0.1942752089,
				"element": "Cl" 
			},
			{
				"x": 2.0954155711,
				"y": 1.5042311252,
				"z": 0.0081286914,
				"element": "C" 
			},
			{
				"x": 1.7652937975,
				"y": 0.624453291,
				"z": -0.9192688746,
				"element": "N" 
			},
			{
				"x": 0.4635360799,
				"y": 0.3346380227,
				"z": -1.0549368312,
				"element": "C" 
			},
			{
				"x": -0.5432430186,
				"y": 0.9098751571,
				"z": -0.2740633821,
				"element": "C" 
			},
			{
				"x": -0.1600298018,
				"y": 1.8726932118,
				"z": 0.6703061601,
				"element": "C" 
			},
			{
				"x": 1.1847035257,
				"y": 2.1748436454,
				"z": 0.8329550607,
				"element": "C" 
			},
			{
				"x": -2.0074302056,
				"y": 0.6552437195,
				"z": -0.4857546401,
				"element": "C" 
			},
			{
				"x": -2.8087217404,
				"y": 1.5809246828,
				"z": -0.4220426912,
				"element": "O" 
			},
			{
				"x": -2.4094548374,
				"y": -0.6218654232,
				"z": -0.8202252679,
				"element": "N" 
			},
			{
				"x": -1.8303555332,
				"y": -1.8735677367,
				"z": -0.3050888919,
				"element": "C" 
			},
			{
				"x": -2.1709084357,
				"y": -2.1417715171,
				"z": 1.1405667336,
				"element": "C" 
			},
			{
				"x": -1.266112748,
				"y": -2.3449890357,
				"z": 2.0974576493,
				"element": "C" 
			},
			{
				"x": 0.2169268804,
				"y": -0.3683323971,
				"z": -1.8470177161,
				"element": "H" 
			},
			{
				"x": -0.9236486829,
				"y": 2.3733320295,
				"z": 1.256437349,
				"element": "H" 
			},
			{
				"x": 1.5258932269,
				"y": 2.9035784962,
				"z": 1.5582495068,
				"element": "H" 
			},
			{
				"x": -3.4163494356,
				"y": -0.6416950212,
				"z": -0.9451494276,
				"element": "H" 
			},
			{
				"x": -2.2133524108,
				"y": -2.6794710773,
				"z": -0.9427620299,
				"element": "H" 
			},
			{
				"x": -0.7473485748,
				"y": -1.8575242095,
				"z": -0.4346936077,
				"element": "H" 
			},
			{
				"x": -3.2333505253,
				"y": -2.1610844285,
				"z": 1.384664768,
				"element": "H" 
			},
			{
				"x": -0.1991768387,
				"y": -2.3274603495,
				"z": 1.8872202622,
				"element": "H" 
			},
			{
				"x": -1.5563678435,
				"y": -2.5414637663,
				"z": 3.1251419703,
				"element": "H" 
			}
		],
		 "valence_orbital": [ 
			{
				"type": "occ",
				"energy": -0.29299,
				"method": "rhf"
			},
			{
				"type": "occ",
				"energy": -0.28284,
				"method": "rhf"
			},
			{
				"type": "occ",
				"energy": -0.26914,
				"method": "rhf"
			},
			{
				"type": "occ",
				"energy": -0.26528,
				"method": "rhf"
			},
			{
				"type": "occ",
				"energy": -0.25425,
				"method": "rhf"
			},
			{
				"type": "unocc",
				"energy": -0.05362,
				"method": "rhf"
			},
			{
				"type": "unocc",
				"energy": -0.04271,
				"method": "rhf"
			},
			{
				"type": "unocc",
				"energy": -0.00218,
				"method": "rhf"
			},
			{
				"type": "unocc",
				"energy": 0.02731,
				"method": "rhf"
			},
			{
				"type": "unocc",
				"energy": 0.03199,
				"method": "rhf"
			}
		],
		"cosmo_sigma_profile": { 
			"-0.025": 0.0,
			"-0.024": 0.0,
			"-0.023": 0.0,
			"-0.022": 0.0,
			"-0.021": 0.0,
			"-0.02": 0.0,
			"-0.019": 0.0,
			"-0.018": 0.0,
			"-0.017": 0.0,
			"-0.016": 0.0,
			"-0.015": 0.0,
			"-0.014": 0.288145132226,
			"-0.013": 1.12352939203,
			"-0.012": 1.17447263484,
			"-0.011": 1.24268704461,
			"-0.01": 0.959772701478,
			"-0.009": 1.81426964609,
			"-0.008": 6.50863033347,
			"-0.007": 8.42537932472,
			"-0.006": 11.7649336698,
			"-0.005": 15.2273202605,
			"-0.004": 14.0001594822,
			"-0.003": 15.3464547825,
			"-0.002": 16.3487624389,
			"-0.001": 22.1892634008,
			"0.0": 21.8525935273,
			"0.001": 16.4189451111,
			"0.002": 12.3703216413,
			"0.003": 12.9095535124,
			"0.004": 15.7123160465,
			"0.005": 8.07630387502,
			"0.006": 5.7332177389,
			"0.007": 3.44025756057,
			"0.008": 2.42249850561,
			"0.009": 2.59930119437,
			"0.01": 2.52552087645,
			"0.011": 2.57913557974,
			"0.012": 3.69904985764,
			"0.013": 6.38653727904,
			"0.014": 1.43976944993,
			"0.015": 0.0,
			"0.016": 0.0,
			"0.017": 0.0,
			"0.018": 0.0,
			"0.019": 0.0,
			"0.02": 0.0,
			"0.021": 0.0,
			"0.022": 0.0,
			"0.023": 0.0,
			"0.024": 0.0,
			"0.025": 0.0
		}
	}
}
