{
	 "smiles": "NC1=C2C=CC=CC2=C(Br)C=C1", 
	 "Tm": 376.15, 
	 "num_atms": 20, 
	 "gaussian": { 
		 "optdone": 1, 
		 "sigma_profile": "yes", 
		 "theory": "DFT", 
		 "functional": "B3LYP", 
		 "basiset": "6-31G**", 
		 "properties": { 
			 "R2extent": 3609.0107, 
			 "electric_dipole_moment_norm": 3.29963612085, 
			 "electric_quadrupole_moment_norm": 11.4743767548, 
			 "total_energy": -3012.05395503, 
			 "HOMO_LUMO_gap": 0.15607, 
			 "cosmo_polarized_energy": -9.47, 
			 "cosmo_cavitation_energy": 25.39, 
			 "cosmo_dispersion_energy": -19.67, 
			 "cosmo_repulsion_energy": 1.53, 
			 "cosmo_total_nonelectrostatic_energy": 7.25, 
			 "SMD_solvation_energy": 2.92 
		},
		"coords": [
			{
				"x": 0.7416647444,
				"y": 2.2997399977,
				"z": -1.3816824407,
				"element": "N" 
			},
			{
				"x": 0.9841902601,
				"y": 1.2599927541,
				"z": -0.4798466556,
				"element": "C" 
			},
			{
				"x": -0.0983998551,
				"y": 0.7187681226,
				"z": 0.295343334,
				"element": "C" 
			},
			{
				"x": -1.4254747579,
				"y": 1.2065796857,
				"z": 0.1639012774,
				"element": "C" 
			},
			{
				"x": -2.454911828,
				"y": 0.703838109,
				"z": 0.9285178195,
				"element": "C" 
			},
			{
				"x": -2.2001828719,
				"y": -0.322729851,
				"z": 1.8639499797,
				"element": "C" 
			},
			{
				"x": -0.9313572738,
				"y": -0.8392979567,
				"z": 2.0005775878,
				"element": "C" 
			},
			{
				"x": 0.1524294666,
				"y": -0.3511003887,
				"z": 1.2233758698,
				"element": "C" 
			},
			{
				"x": 1.4764177708,
				"y": -0.8709332392,
				"z": 1.3059721724,
				"element": "C" 
			},
			{
				"x": 1.8925486481,
				"y": -2.3028866779,
				"z": 2.5129219143,
				"element": "Br" 
			},
			{
				"x": 2.4890468573,
				"y": -0.3677051996,
				"z": 0.5259332628,
				"element": "C" 
			},
			{
				"x": 2.2458740505,
				"y": 0.7024611472,
				"z": -0.3574483734,
				"element": "C" 
			},
			{
				"x": 1.5826902,
				"y": 2.7257090034,
				"z": -1.7479337991,
				"element": "H" 
			},
			{
				"x": 0.0925724442,
				"y": 3.0045820019,
				"z": -1.0584641984,
				"element": "H" 
			},
			{
				"x": -1.6412239001,
				"y": 1.9667683399,
				"z": -0.5798610298,
				"element": "H" 
			},
			{
				"x": -3.4626758506,
				"y": 1.0890871554,
				"z": 0.8049002678,
				"element": "H" 
			},
			{
				"x": -3.0111293986,
				"y": -0.7156391328,
				"z": 2.4702046987,
				"element": "H" 
			},
			{
				"x": -0.7402338844,
				"y": -1.6385733923,
				"z": 2.7071124612,
				"element": "H" 
			},
			{
				"x": 3.4883177746,
				"y": -0.7811295655,
				"z": 0.6018321321,
				"element": "H" 
			},
			{
				"x": 3.0703374035,
				"y": 1.1009690871,
				"z": -0.9430062806,
				"element": "H" 
			}
		],
		 "valence_orbital": [ 
			{
				"type": "occ",
				"energy": -0.27871,
				"method": "rhf"
			},
			{
				"type": "occ",
				"energy": -0.27659,
				"method": "rhf"
			},
			{
				"type": "occ",
				"energy": -0.25724,
				"method": "rhf"
			},
			{
				"type": "occ",
				"energy": -0.24817,
				"method": "rhf"
			},
			{
				"type": "occ",
				"energy": -0.19476,
				"method": "rhf"
			},
			{
				"type": "unocc",
				"energy": -0.03869,
				"method": "rhf"
			},
			{
				"type": "unocc",
				"energy": -0.01374,
				"method": "rhf"
			},
			{
				"type": "unocc",
				"energy": 0.01689,
				"method": "rhf"
			},
			{
				"type": "unocc",
				"energy": 0.0383,
				"method": "rhf"
			},
			{
				"type": "unocc",
				"energy": 0.07015,
				"method": "rhf"
			}
		],
		"cosmo_sigma_profile": { 
			"-0.025": 0.0,
			"-0.024": 0.0,
			"-0.023": 0.0,
			"-0.022": 0.0,
			"-0.021": 0.0,
			"-0.02": 0.0,
			"-0.019": 0.0,
			"-0.018": 0.0,
			"-0.017": 0.0,
			"-0.016": 0.0,
			"-0.015": 0.0,
			"-0.014": 0.0,
			"-0.013": 1.04189599744,
			"-0.012": 3.26676537412,
			"-0.011": 2.56971075198,
			"-0.01": 2.9975472872,
			"-0.009": 2.82316878872,
			"-0.008": 3.76117168252,
			"-0.007": 3.74187807263,
			"-0.006": 8.78854899235,
			"-0.005": 11.2711376699,
			"-0.004": 12.9404895256,
			"-0.003": 11.026628165,
			"-0.002": 10.0680936952,
			"-0.001": 9.97126669599,
			"0.0": 10.2670198332,
			"0.001": 11.0448231559,
			"0.002": 17.5361286277,
			"0.003": 24.8247633726,
			"0.004": 30.2918441,
			"0.005": 20.3509354998,
			"0.006": 2.62782039037,
			"0.007": 0.869137826425,
			"0.008": 1.22438850986,
			"0.009": 0.742106092571,
			"0.01": 0.559594352012,
			"0.011": 0.655738823495,
			"0.012": 0.293750027528,
			"0.013": 0.831680063912,
			"0.014": 0.329914441823,
			"0.015": 0.0,
			"0.016": 0.0,
			"0.017": 0.0,
			"0.018": 0.0,
			"0.019": 0.0,
			"0.02": 0.0,
			"0.021": 0.0,
			"0.022": 0.0,
			"0.023": 0.0,
			"0.024": 0.0,
			"0.025": 0.0
		}
	}
}
