{
	 "smiles": "NC(=O)NNC(N)=O", 
	 "Tm": 521.15, 
	 "num_atms": 14, 
	 "gaussian": { 
		 "optdone": 1, 
		 "sigma_profile": "yes", 
		 "theory": "DFT", 
		 "functional": "B3LYP", 
		 "basiset": "6-31G**", 
		 "properties": { 
			 "R2extent": 1349.5396, 
			 "electric_dipole_moment_norm": 1.4004515736, 
			 "electric_quadrupole_moment_norm": 18.1279172119, 
			 "total_energy": -449.302750863, 
			 "HOMO_LUMO_gap": 0.29915, 
			 "cosmo_polarized_energy": -21.58, 
			 "cosmo_cavitation_energy": 18.96, 
			 "cosmo_dispersion_energy": -14.06, 
			 "cosmo_repulsion_energy": 1.24, 
			 "cosmo_total_nonelectrostatic_energy": 6.14, 
			 "SMD_solvation_energy": 6.36 
		},
		"coords": [
			{
				"x": 0.7686251367,
				"y": 1.9213926332,
				"z": 0.1441690125,
				"element": "N" 
			},
			{
				"x": 0.1372171696,
				"y": 1.030433366,
				"z": 0.958027541,
				"element": "C" 
			},
			{
				"x": -0.743396495,
				"y": 1.305590225,
				"z": 1.7572051639,
				"element": "O" 
			},
			{
				"x": 0.5584919922,
				"y": -0.3074670536,
				"z": 0.8047951099,
				"element": "N" 
			},
			{
				"x": 1.7588009418,
				"y": -0.5931721817,
				"z": 0.1615733762,
				"element": "N" 
			},
			{
				"x": 1.8081033663,
				"y": -1.5876836717,
				"z": -0.8381499069,
				"element": "C" 
			},
			{
				"x": 0.5955291131,
				"y": -1.9417703714,
				"z": -1.3472071364,
				"element": "N" 
			},
			{
				"x": 2.8832643478,
				"y": -2.0427419173,
				"z": -1.1942746886,
				"element": "O" 
			},
			{
				"x": 0.4097723168,
				"y": 2.8609464482,
				"z": 0.1269325781,
				"element": "H" 
			},
			{
				"x": 1.4338373262,
				"y": 1.6113973547,
				"z": -0.545825138,
				"element": "H" 
			},
			{
				"x": 0.310352303,
				"y": -0.8749061885,
				"z": 1.6102844337,
				"element": "H" 
			},
			{
				"x": 2.6066542862,
				"y": -0.5796729764,
				"z": 0.7213387548,
				"element": "H" 
			},
			{
				"x": -0.2456236632,
				"y": -1.4689788527,
				"z": -1.0580229145,
				"element": "H" 
			},
			{
				"x": 0.5944718585,
				"y": -2.5488668137,
				"z": -2.1492461856,
				"element": "H" 
			}
		],
		 "valence_orbital": [ 
			{
				"type": "occ",
				"energy": -0.28444,
				"method": "rhf"
			},
			{
				"type": "occ",
				"energy": -0.27421,
				"method": "rhf"
			},
			{
				"type": "occ",
				"energy": -0.27351,
				"method": "rhf"
			},
			{
				"type": "occ",
				"energy": -0.27074,
				"method": "rhf"
			},
			{
				"type": "occ",
				"energy": -0.25469,
				"method": "rhf"
			},
			{
				"type": "unocc",
				"energy": 0.04446,
				"method": "rhf"
			},
			{
				"type": "unocc",
				"energy": 0.0472,
				"method": "rhf"
			},
			{
				"type": "unocc",
				"energy": 0.07002,
				"method": "rhf"
			},
			{
				"type": "unocc",
				"energy": 0.09293,
				"method": "rhf"
			},
			{
				"type": "unocc",
				"energy": 0.10243,
				"method": "rhf"
			}
		],
		"cosmo_sigma_profile": { 
			"-0.025": 0.0,
			"-0.024": 0.0,
			"-0.023": 0.0,
			"-0.022": 0.0,
			"-0.021": 0.0,
			"-0.02": 0.0,
			"-0.019": 0.0,
			"-0.018": 0.0,
			"-0.017": 0.0,
			"-0.016": 0.0,
			"-0.015": 0.221806032219,
			"-0.014": 3.65354603702,
			"-0.013": 5.40781272703,
			"-0.012": 6.24785930539,
			"-0.011": 6.36457209177,
			"-0.01": 6.22550586367,
			"-0.009": 4.9210665862,
			"-0.008": 4.78396130246,
			"-0.007": 5.14946500461,
			"-0.006": 5.93531413908,
			"-0.005": 4.57346814549,
			"-0.004": 5.95658973735,
			"-0.003": 6.81173743315,
			"-0.002": 5.32043728227,
			"-0.001": 4.54001880339,
			"0.0": 4.55570625405,
			"0.001": 6.03588739019,
			"0.002": 6.14186842741,
			"0.003": 5.20379830043,
			"0.004": 4.71869734875,
			"0.005": 3.46475121002,
			"0.006": 3.35574283496,
			"0.007": 3.20619463842,
			"0.008": 1.8611716919,
			"0.009": 1.96771075967,
			"0.01": 2.66262861846,
			"0.011": 3.55152541385,
			"0.012": 2.90381313604,
			"0.013": 6.13902205954,
			"0.014": 13.3467479827,
			"0.015": 3.55547136148,
			"0.016": 0.0,
			"0.017": 0.0,
			"0.018": 0.0,
			"0.019": 0.0,
			"0.02": 0.0,
			"0.021": 0.0,
			"0.022": 0.0,
			"0.023": 0.0,
			"0.024": 0.0,
			"0.025": 0.0
		}
	}
}
