{
	 "smiles": "CC(C)NC(=O)C1=C(N)NN=C1", 
	 "Tm": 453.15, 
	 "num_atms": 24, 
	 "gaussian": { 
		 "optdone": 1, 
		 "sigma_profile": "yes", 
		 "theory": "DFT", 
		 "functional": "B3LYP", 
		 "basiset": "6-31G**", 
		 "properties": { 
			 "R2extent": 2629.1712, 
			 "electric_dipole_moment_norm": 0.604627050338, 
			 "electric_quadrupole_moment_norm": 17.0961947389, 
			 "total_energy": -568.222274671, 
			 "HOMO_LUMO_gap": 0.21381, 
			 "cosmo_polarized_energy": -18.1, 
			 "cosmo_cavitation_energy": 27.48, 
			 "cosmo_dispersion_energy": -20.07, 
			 "cosmo_repulsion_energy": 1.63, 
			 "cosmo_total_nonelectrostatic_energy": 9.04, 
			 "SMD_solvation_energy": 3.92 
		},
		"coords": [
			{
				"x": 2.6029466432,
				"y": -0.3616463167,
				"z": -2.5260822546,
				"element": "C" 
			},
			{
				"x": 2.3083375904,
				"y": -0.2344844369,
				"z": -1.0291639744,
				"element": "C" 
			},
			{
				"x": 3.2642717068,
				"y": 0.7397521649,
				"z": -0.325223095,
				"element": "C" 
			},
			{
				"x": 0.9093067555,
				"y": 0.1529613248,
				"z": -0.8389657634,
				"element": "N" 
			},
			{
				"x": 0.1957680049,
				"y": -0.2014532449,
				"z": 0.2724831219,
				"element": "C" 
			},
			{
				"x": 0.6765296039,
				"y": -0.9526163708,
				"z": 1.1395406763,
				"element": "O" 
			},
			{
				"x": -1.1682343647,
				"y": 0.3203658789,
				"z": 0.3863560141,
				"element": "C" 
			},
			{
				"x": -1.9940547416,
				"y": 0.034458934,
				"z": 1.4828172868,
				"element": "C" 
			},
			{
				"x": -1.6924846268,
				"y": -0.645125983,
				"z": 2.6362779261,
				"element": "N" 
			},
			{
				"x": -3.1811950256,
				"y": 0.6337805464,
				"z": 1.2238045324,
				"element": "N" 
			},
			{
				"x": -3.202960924,
				"y": 1.3018933892,
				"z": 0.0236881478,
				"element": "N" 
			},
			{
				"x": -1.9918087342,
				"y": 1.1079223889,
				"z": -0.4679250239,
				"element": "C" 
			},
			{
				"x": 2.4831220004,
				"y": 0.60268027,
				"z": -3.0365381578,
				"element": "H" 
			},
			{
				"x": 1.9325685405,
				"y": -1.0847817669,
				"z": -2.9997897624,
				"element": "H" 
			},
			{
				"x": 3.634213597,
				"y": -0.6899076087,
				"z": -2.6868799931,
				"element": "H" 
			},
			{
				"x": 2.4047528336,
				"y": -1.2144161871,
				"z": -0.5531373241,
				"element": "H" 
			},
			{
				"x": 3.1807274103,
				"y": 1.747743231,
				"z": -0.7486079906,
				"element": "H" 
			},
			{
				"x": 3.0315225259,
				"y": 0.7902600835,
				"z": 0.7414783331,
				"element": "H" 
			},
			{
				"x": 4.3035619537,
				"y": 0.4115762659,
				"z": -0.4357040337,
				"element": "H" 
			},
			{
				"x": 0.5363867357,
				"y": 0.8751363321,
				"z": -1.4382294161,
				"element": "H" 
			},
			{
				"x": -2.4283265651,
				"y": -1.2145386521,
				"z": 3.0321366534,
				"element": "H" 
			},
			{
				"x": -0.7937163732,
				"y": -1.1153204236,
				"z": 2.533074085,
				"element": "H" 
			},
			{
				"x": -3.9905854396,
				"y": 0.6790329779,
				"z": 1.822315883,
				"element": "H" 
			},
			{
				"x": -1.7488491069,
				"y": 1.5314272034,
				"z": -1.4350258709,
				"element": "H" 
			}
		],
		 "valence_orbital": [ 
			{
				"type": "occ",
				"energy": -0.29029,
				"method": "rhf"
			},
			{
				"type": "occ",
				"energy": -0.25769,
				"method": "rhf"
			},
			{
				"type": "occ",
				"energy": -0.25042,
				"method": "rhf"
			},
			{
				"type": "occ",
				"energy": -0.24262,
				"method": "rhf"
			},
			{
				"type": "occ",
				"energy": -0.20769,
				"method": "rhf"
			},
			{
				"type": "unocc",
				"energy": 0.00612,
				"method": "rhf"
			},
			{
				"type": "unocc",
				"energy": 0.03167,
				"method": "rhf"
			},
			{
				"type": "unocc",
				"energy": 0.07032,
				"method": "rhf"
			},
			{
				"type": "unocc",
				"energy": 0.08274,
				"method": "rhf"
			},
			{
				"type": "unocc",
				"energy": 0.10002,
				"method": "rhf"
			}
		],
		"cosmo_sigma_profile": { 
			"-0.025": 0.0,
			"-0.024": 0.0,
			"-0.023": 0.0,
			"-0.022": 0.0,
			"-0.021": 0.0,
			"-0.02": 0.0,
			"-0.019": 0.0,
			"-0.018": 0.0,
			"-0.017": 0.315233643847,
			"-0.016": 1.99505318721,
			"-0.015": 2.03846556728,
			"-0.014": 2.8512009729,
			"-0.013": 2.99736177707,
			"-0.012": 3.50897553225,
			"-0.011": 3.35618843394,
			"-0.01": 3.60999968489,
			"-0.009": 4.1874377253,
			"-0.008": 4.51386873071,
			"-0.007": 3.75603812279,
			"-0.006": 4.03957203254,
			"-0.005": 4.81044976545,
			"-0.004": 7.95986665453,
			"-0.003": 15.7729730134,
			"-0.002": 16.4596023666,
			"-0.001": 17.3478378953,
			"0.0": 19.9615850242,
			"0.001": 17.6112960503,
			"0.002": 11.0245642027,
			"0.003": 11.605903778,
			"0.004": 11.6052003668,
			"0.005": 7.22864406781,
			"0.006": 5.37470829242,
			"0.007": 4.11374606849,
			"0.008": 3.39462521778,
			"0.009": 4.13773198095,
			"0.01": 2.76913071271,
			"0.011": 4.19762016009,
			"0.012": 3.90260032934,
			"0.013": 3.27858660082,
			"0.014": 3.3138993312,
			"0.015": 1.73404906131,
			"0.016": 0.97692337442,
			"0.017": 0.133569253683,
			"0.018": 0.0,
			"0.019": 0.0,
			"0.02": 0.0,
			"0.021": 0.0,
			"0.022": 0.0,
			"0.023": 0.0,
			"0.024": 0.0,
			"0.025": 0.0
		}
	}
}
