{
	 "smiles": "OC1=CC(Cl)=C(Cl)C=C1", 
	 "Tm": 340.15, 
	 "num_atms": 13, 
	 "gaussian": { 
		 "optdone": 1, 
		 "sigma_profile": "yes", 
		 "theory": "DFT", 
		 "functional": "B3LYP", 
		 "basiset": "6-31G**", 
		 "properties": { 
			 "R2extent": 1851.4243, 
			 "electric_dipole_moment_norm": 2.62599658416, 
			 "electric_quadrupole_moment_norm": 9.73805629322, 
			 "total_energy": -1226.64879301, 
			 "HOMO_LUMO_gap": 0.20628, 
			 "cosmo_polarized_energy": -8.8, 
			 "cosmo_cavitation_energy": 20.92, 
			 "cosmo_dispersion_energy": -16.01, 
			 "cosmo_repulsion_energy": 1.31, 
			 "cosmo_total_nonelectrostatic_energy": 6.22, 
			 "SMD_solvation_energy": 3.49 
		},
		"coords": [
			{
				"x": 2.3291314651,
				"y": -0.3226220147,
				"z": -1.9479980622,
				"element": "O" 
			},
			{
				"x": 1.3521255716,
				"y": -0.1314937649,
				"z": -1.017822537,
				"element": "C" 
			},
			{
				"x": 1.4133851573,
				"y": -0.6859645426,
				"z": 0.2626613336,
				"element": "C" 
			},
			{
				"x": 0.3813710866,
				"y": -0.4557235542,
				"z": 1.1752429586,
				"element": "C" 
			},
			{
				"x": 0.5083642259,
				"y": -1.1730563513,
				"z": 2.7632591002,
				"element": "Cl" 
			},
			{
				"x": -0.7184291802,
				"y": 0.3302704045,
				"z": 0.8135624033,
				"element": "C" 
			},
			{
				"x": -2.0320220411,
				"y": 0.6443577812,
				"z": 1.9233589812,
				"element": "Cl" 
			},
			{
				"x": -0.7672231238,
				"y": 0.8794493707,
				"z": -0.4717838429,
				"element": "C" 
			},
			{
				"x": 0.254514418,
				"y": 0.6555943911,
				"z": -1.3853860137,
				"element": "C" 
			},
			{
				"x": 3.0267846385,
				"y": -0.8784859292,
				"z": -1.5771752699,
				"element": "H" 
			},
			{
				"x": 2.2574133161,
				"y": -1.2989116222,
				"z": 0.5642228052,
				"element": "H" 
			},
			{
				"x": -1.6212514201,
				"y": 1.4879448394,
				"z": -0.7480888183,
				"element": "H" 
			},
			{
				"x": 0.2174358862,
				"y": 1.0809409921,
				"z": -2.3819530379,
				"element": "H" 
			}
		],
		 "valence_orbital": [ 
			{
				"type": "occ",
				"energy": -0.32794,
				"method": "rhf"
			},
			{
				"type": "occ",
				"energy": -0.31535,
				"method": "rhf"
			},
			{
				"type": "occ",
				"energy": -0.30913,
				"method": "rhf"
			},
			{
				"type": "occ",
				"energy": -0.26333,
				"method": "rhf"
			},
			{
				"type": "occ",
				"energy": -0.23247,
				"method": "rhf"
			},
			{
				"type": "unocc",
				"energy": -0.02619,
				"method": "rhf"
			},
			{
				"type": "unocc",
				"energy": -0.01017,
				"method": "rhf"
			},
			{
				"type": "unocc",
				"energy": 0.00119,
				"method": "rhf"
			},
			{
				"type": "unocc",
				"energy": 0.05492,
				"method": "rhf"
			},
			{
				"type": "unocc",
				"energy": 0.06356,
				"method": "rhf"
			}
		],
		"cosmo_sigma_profile": { 
			"-0.025": 0.0,
			"-0.024": 0.0,
			"-0.023": 0.0,
			"-0.022": 0.0,
			"-0.021": 0.0,
			"-0.02": 0.0,
			"-0.019": 0.235384139274,
			"-0.018": 1.24961503216,
			"-0.017": 1.43854629633,
			"-0.016": 0.911216658263,
			"-0.015": 1.17087342352,
			"-0.014": 1.05304191237,
			"-0.013": 0.832281836007,
			"-0.012": 0.88261953169,
			"-0.011": 1.39597100865,
			"-0.01": 1.31815771541,
			"-0.009": 0.952465306576,
			"-0.008": 2.77595678356,
			"-0.007": 4.82852308239,
			"-0.006": 5.24027728983,
			"-0.005": 5.54384650373,
			"-0.004": 4.71034462151,
			"-0.003": 5.99581772705,
			"-0.002": 8.15632153765,
			"-0.001": 7.45988474234,
			"0.0": 12.9811582308,
			"0.001": 19.752306798,
			"0.002": 26.552671446,
			"0.003": 19.3767436281,
			"0.004": 18.654076279,
			"0.005": 9.56601971607,
			"0.006": 2.21880333449,
			"0.007": 0.930312507,
			"0.008": 1.94704453098,
			"0.009": 1.62234164251,
			"0.01": 1.502088098,
			"0.011": 1.05881715669,
			"0.012": 0.0,
			"0.013": 0.0,
			"0.014": 0.0,
			"0.015": 0.0,
			"0.016": 0.0,
			"0.017": 0.0,
			"0.018": 0.0,
			"0.019": 0.0,
			"0.02": 0.0,
			"0.021": 0.0,
			"0.022": 0.0,
			"0.023": 0.0,
			"0.024": 0.0,
			"0.025": 0.0
		}
	}
}
