{
	 "smiles": "O1C=CC=C1C=NC(N=CC1=CC=CO1)C1=CC=CO1", 
	 "Tm": 390.15, 
	 "num_atms": 32, 
	 "gaussian": { 
		 "optdone": 1, 
		 "sigma_profile": "yes", 
		 "theory": "DFT", 
		 "functional": "B3LYP", 
		 "basiset": "6-31G**", 
		 "properties": { 
			 "R2extent": 7683.5805, 
			 "electric_dipole_moment_norm": 2.59885650431, 
			 "electric_quadrupole_moment_norm": 14.6740928827, 
			 "total_energy": -913.882951567, 
			 "HOMO_LUMO_gap": 0.16298, 
			 "cosmo_polarized_energy": -14.4, 
			 "cosmo_cavitation_energy": 39.39, 
			 "cosmo_dispersion_energy": -27.38, 
			 "cosmo_repulsion_energy": 2.12, 
			 "cosmo_total_nonelectrostatic_energy": 14.12, 
			 "SMD_solvation_energy": 6.26 
		},
		"coords": [
			{
				"x": 3.2349642127,
				"y": -1.0915763562,
				"z": -2.137529536,
				"element": "O" 
			},
			{
				"x": 3.8857130405,
				"y": -2.2811520893,
				"z": -2.1322953273,
				"element": "C" 
			},
			{
				"x": 3.4624773208,
				"y": -3.0585368697,
				"z": -1.0910592383,
				"element": "C" 
			},
			{
				"x": 2.4776995768,
				"y": -2.2939489932,
				"z": -0.4009491983,
				"element": "C" 
			},
			{
				"x": 2.3683083538,
				"y": -1.1018356863,
				"z": -1.0719762528,
				"element": "C" 
			},
			{
				"x": 1.5634084612,
				"y": 0.087437308,
				"z": -0.8874713262,
				"element": "C" 
			},
			{
				"x": 0.6896497596,
				"y": 0.1762892552,
				"z": 0.041140547,
				"element": "N" 
			},
			{
				"x": -0.0315078685,
				"y": 1.4427612437,
				"z": 0.1547594833,
				"element": "C" 
			},
			{
				"x": -1.4669061941,
				"y": 1.3168109703,
				"z": 0.3495910061,
				"element": "N" 
			},
			{
				"x": -1.990773801,
				"y": 0.150677159,
				"z": 0.3475467927,
				"element": "C" 
			},
			{
				"x": -3.4116561747,
				"y": -0.0642877604,
				"z": 0.5271561513,
				"element": "C" 
			},
			{
				"x": -4.1430527983,
				"y": -1.2270972587,
				"z": 0.5452888158,
				"element": "C" 
			},
			{
				"x": -5.5027570525,
				"y": -0.8521303236,
				"z": 0.758822922,
				"element": "C" 
			},
			{
				"x": -5.5008404239,
				"y": 0.5097780965,
				"z": 0.8552016049,
				"element": "C" 
			},
			{
				"x": -4.2455633572,
				"y": 1.0040158253,
				"z": 0.717818653,
				"element": "O" 
			},
			{
				"x": 0.5262994436,
				"y": 2.2325857158,
				"z": 1.30901137,
				"element": "C" 
			},
			{
				"x": -0.0026488365,
				"y": 2.6952116467,
				"z": 2.4758078778,
				"element": "C" 
			},
			{
				"x": 1.0556659871,
				"y": 3.3922989041,
				"z": 3.1486625623,
				"element": "C" 
			},
			{
				"x": 2.1455423216,
				"y": 3.2998076097,
				"z": 2.339266529,
				"element": "C" 
			},
			{
				"x": 1.8409687805,
				"y": 2.596362031,
				"z": 1.2096317211,
				"element": "O" 
			},
			{
				"x": 4.6101983618,
				"y": -2.4263464214,
				"z": -2.9188816935,
				"element": "H" 
			},
			{
				"x": 3.8131175029,
				"y": -4.0510724555,
				"z": -0.8475317835,
				"element": "H" 
			},
			{
				"x": 1.9173499134,
				"y": -2.568145708,
				"z": 0.4802963626,
				"element": "H" 
			},
			{
				"x": 1.7668331621,
				"y": 0.8999464129,
				"z": -1.6013487931,
				"element": "H" 
			},
			{
				"x": 0.103251429,
				"y": 2.0468917032,
				"z": -0.7627431268,
				"element": "H" 
			},
			{
				"x": -1.4031422614,
				"y": -0.7638738935,
				"z": 0.2150304218,
				"element": "H" 
			},
			{
				"x": -3.7482328896,
				"y": -2.2255333324,
				"z": 0.4204281206,
				"element": "H" 
			},
			{
				"x": -6.3626330954,
				"y": -1.5021044711,
				"z": 0.8308153018,
				"element": "H" 
			},
			{
				"x": -6.2787841771,
				"y": 1.2410253378,
				"z": 1.0138440552,
				"element": "H" 
			},
			{
				"x": -1.0237392704,
				"y": 2.5637744247,
				"z": 2.7990217617,
				"element": "H" 
			},
			{
				"x": 1.0059805583,
				"y": 3.8935591546,
				"z": 4.1047727954,
				"element": "H" 
			},
			{
				"x": 3.1611100149,
				"y": 3.6573088208,
				"z": 2.4100714204,
				"element": "H" 
			}
		],
		 "valence_orbital": [ 
			{
				"type": "occ",
				"energy": -0.26565,
				"method": "rhf"
			},
			{
				"type": "occ",
				"energy": -0.24824,
				"method": "rhf"
			},
			{
				"type": "occ",
				"energy": -0.22862,
				"method": "rhf"
			},
			{
				"type": "occ",
				"energy": -0.22079,
				"method": "rhf"
			},
			{
				"type": "occ",
				"energy": -0.21084,
				"method": "rhf"
			},
			{
				"type": "unocc",
				"energy": -0.04786,
				"method": "rhf"
			},
			{
				"type": "unocc",
				"energy": -0.03702,
				"method": "rhf"
			},
			{
				"type": "unocc",
				"energy": 0.0219,
				"method": "rhf"
			},
			{
				"type": "unocc",
				"energy": 0.0383,
				"method": "rhf"
			},
			{
				"type": "unocc",
				"energy": 0.04765,
				"method": "rhf"
			}
		],
		"cosmo_sigma_profile": { 
			"-0.025": 0.0,
			"-0.024": 0.0,
			"-0.023": 0.0,
			"-0.022": 0.0,
			"-0.021": 0.0,
			"-0.02": 0.0,
			"-0.019": 0.0,
			"-0.018": 0.0,
			"-0.017": 0.0,
			"-0.016": 0.0,
			"-0.015": 0.0,
			"-0.014": 0.0,
			"-0.013": 0.0,
			"-0.012": 0.0,
			"-0.011": 0.0,
			"-0.01": 1.08476406083,
			"-0.009": 4.49138536962,
			"-0.008": 8.51606204163,
			"-0.007": 18.1739051989,
			"-0.006": 18.4232869836,
			"-0.005": 17.0372964132,
			"-0.004": 19.9766126925,
			"-0.003": 18.3800777646,
			"-0.002": 16.8846585277,
			"-0.001": 17.4261865188,
			"0.0": 20.0742307173,
			"0.001": 25.7967262532,
			"0.002": 28.0413798698,
			"0.003": 29.0367154748,
			"0.004": 25.027523245,
			"0.005": 14.9804233813,
			"0.006": 12.5924077252,
			"0.007": 6.28509334,
			"0.008": 4.14789993316,
			"0.009": 2.00413351047,
			"0.01": 2.3506391531,
			"0.011": 1.89693852688,
			"0.012": 1.95080354284,
			"0.013": 1.59230575561,
			"0.014": 0.493522260546,
			"0.015": 0.956699328103,
			"0.016": 0.382866889364,
			"0.017": 0.0,
			"0.018": 0.0,
			"0.019": 0.0,
			"0.02": 0.0,
			"0.021": 0.0,
			"0.022": 0.0,
			"0.023": 0.0,
			"0.024": 0.0,
			"0.025": 0.0
		}
	}
}
