{
	 "smiles": "OC1=C(F)C(F)=CC=C1", 
	 "Tm": 309.15, 
	 "num_atms": 13, 
	 "gaussian": { 
		 "optdone": 1, 
		 "sigma_profile": "yes", 
		 "theory": "DFT", 
		 "functional": "B3LYP", 
		 "basiset": "6-31G**", 
		 "properties": { 
			 "R2extent": 1773.9842, 
			 "electric_dipole_moment_norm": 3.59293728306, 
			 "electric_quadrupole_moment_norm": 10.7149216269, 
			 "total_energy": -505.922188723, 
			 "HOMO_LUMO_gap": 0.2286, 
			 "cosmo_polarized_energy": -8.92, 
			 "cosmo_cavitation_energy": 18.4, 
			 "cosmo_dispersion_energy": -13.59, 
			 "cosmo_repulsion_energy": 1.08, 
			 "cosmo_total_nonelectrostatic_energy": 5.89, 
			 "SMD_solvation_energy": 4.65 
		},
		"coords": [
			{
				"x": 2.0571355166,
				"y": -0.8395472581,
				"z": -3.2237754193,
				"element": "O" 
			},
			{
				"x": 1.3277689868,
				"y": -0.4839761683,
				"z": -2.1309681703,
				"element": "C" 
			},
			{
				"x": 0.7261348281,
				"y": 0.7801018795,
				"z": -2.1561453673,
				"element": "C" 
			},
			{
				"x": 0.8833892592,
				"y": 1.5763597321,
				"z": -3.2248485034,
				"element": "F" 
			},
			{
				"x": -0.0342053962,
				"y": 1.210171016,
				"z": -1.0737293551,
				"element": "C" 
			},
			{
				"x": -0.595036618,
				"y": 2.4299132571,
				"z": -1.1366386924,
				"element": "F" 
			},
			{
				"x": -0.2165006182,
				"y": 0.4091496358,
				"z": 0.0486700377,
				"element": "C" 
			},
			{
				"x": 0.3835766422,
				"y": -0.8492685504,
				"z": 0.071554181,
				"element": "C" 
			},
			{
				"x": 1.1498242434,
				"y": -1.2965706563,
				"z": -1.0059942095,
				"element": "C" 
			},
			{
				"x": 2.4167765011,
				"y": -1.7251030698,
				"z": -3.0849340328,
				"element": "H" 
			},
			{
				"x": -0.8161282095,
				"y": 0.7804476902,
				"z": 0.8715973145,
				"element": "H" 
			},
			{
				"x": 0.2542045389,
				"y": -1.4903459096,
				"z": 0.9374139284,
				"element": "H" 
			},
			{
				"x": 1.6145603258,
				"y": -2.2791315983,
				"z": -0.9807017116,
				"element": "H" 
			}
		],
		 "valence_orbital": [ 
			{
				"type": "occ",
				"energy": -0.36928,
				"method": "rhf"
			},
			{
				"type": "occ",
				"energy": -0.3614,
				"method": "rhf"
			},
			{
				"type": "occ",
				"energy": -0.33826,
				"method": "rhf"
			},
			{
				"type": "occ",
				"energy": -0.24735,
				"method": "rhf"
			},
			{
				"type": "occ",
				"energy": -0.23335,
				"method": "rhf"
			},
			{
				"type": "unocc",
				"energy": -0.00475,
				"method": "rhf"
			},
			{
				"type": "unocc",
				"energy": 0.00103,
				"method": "rhf"
			},
			{
				"type": "unocc",
				"energy": 0.05236,
				"method": "rhf"
			},
			{
				"type": "unocc",
				"energy": 0.06858,
				"method": "rhf"
			},
			{
				"type": "unocc",
				"energy": 0.13867,
				"method": "rhf"
			}
		],
		"cosmo_sigma_profile": { 
			"-0.025": 0.0,
			"-0.024": 0.0,
			"-0.023": 0.0,
			"-0.022": 0.0,
			"-0.021": 0.0,
			"-0.02": 0.0,
			"-0.019": 0.209181188879,
			"-0.018": 0.919272652318,
			"-0.017": 1.24683697008,
			"-0.016": 1.54110364841,
			"-0.015": 1.04872353461,
			"-0.014": 0.446629965253,
			"-0.013": 0.615056916094,
			"-0.012": 1.26233009943,
			"-0.011": 1.6907917932,
			"-0.01": 0.792455614208,
			"-0.009": 0.633308988038,
			"-0.008": 1.87618804883,
			"-0.007": 4.91577737703,
			"-0.006": 5.73814411799,
			"-0.005": 7.12332483865,
			"-0.004": 4.74678165286,
			"-0.003": 4.09994278694,
			"-0.002": 4.2434867038,
			"-0.001": 6.2045449251,
			"0.0": 12.8055753505,
			"0.001": 14.4576406061,
			"0.002": 12.6209318741,
			"0.003": 17.1016739537,
			"0.004": 25.6209983217,
			"0.005": 5.3903088664,
			"0.006": 1.87652678651,
			"0.007": 1.61659601142,
			"0.008": 2.60344937234,
			"0.009": 1.51414155116,
			"0.01": 2.27668150152,
			"0.011": 0.680647416693,
			"0.012": 0.0,
			"0.013": 0.0,
			"0.014": 0.0,
			"0.015": 0.0,
			"0.016": 0.0,
			"0.017": 0.0,
			"0.018": 0.0,
			"0.019": 0.0,
			"0.02": 0.0,
			"0.021": 0.0,
			"0.022": 0.0,
			"0.023": 0.0,
			"0.024": 0.0,
			"0.025": 0.0
		}
	}
}
