{
	 "smiles": "NC(=S)C(NC(=O)C1=CC=CC=C1)C1CC1", 
	 "Tm": 473.15, 
	 "num_atms": 30, 
	 "gaussian": { 
		 "optdone": 1, 
		 "sigma_profile": "yes", 
		 "theory": "DFT", 
		 "functional": "B3LYP", 
		 "basiset": "6-31G**", 
		 "properties": { 
			 "R2extent": 4542.1357, 
			 "electric_dipole_moment_norm": 7.10561079852, 
			 "electric_quadrupole_moment_norm": 13.723797735, 
			 "total_energy": -1048.61467496, 
			 "HOMO_LUMO_gap": 0.18037, 
			 "cosmo_polarized_energy": -23.33, 
			 "cosmo_cavitation_energy": 34.84, 
			 "cosmo_dispersion_energy": -24.22, 
			 "cosmo_repulsion_energy": 1.88, 
			 "cosmo_total_nonelectrostatic_energy": 12.49, 
			 "SMD_solvation_energy": 5.34 
		},
		"coords": [
			{
				"x": -0.154490951,
				"y": -1.4963793954,
				"z": 2.8499477329,
				"element": "N" 
			},
			{
				"x": 0.4182137423,
				"y": -1.8196298119,
				"z": 1.6760202901,
				"element": "C" 
			},
			{
				"x": 1.371492056,
				"y": -3.1654740143,
				"z": 1.4794385789,
				"element": "S" 
			},
			{
				"x": 0.0405692284,
				"y": -0.8643556978,
				"z": 0.5258972991,
				"element": "C" 
			},
			{
				"x": 1.0916047643,
				"y": -0.7941520929,
				"z": -0.4728580825,
				"element": "N" 
			},
			{
				"x": 1.9450555842,
				"y": 0.2716149749,
				"z": -0.7075189675,
				"element": "C" 
			},
			{
				"x": 3.0573298653,
				"y": 0.0756202424,
				"z": -1.182108374,
				"element": "O" 
			},
			{
				"x": 1.4812853259,
				"y": 1.6738739388,
				"z": -0.4136813771,
				"element": "C" 
			},
			{
				"x": 2.4665551304,
				"y": 2.5937380117,
				"z": -0.0245826108,
				"element": "C" 
			},
			{
				"x": 2.1350149293,
				"y": 3.9241149886,
				"z": 0.218935301,
				"element": "C" 
			},
			{
				"x": 0.8177874061,
				"y": 4.3601279598,
				"z": 0.0498968624,
				"element": "C" 
			},
			{
				"x": -0.1635275352,
				"y": 3.4587614887,
				"z": -0.3646846979,
				"element": "C" 
			},
			{
				"x": 0.1632859272,
				"y": 2.1201921695,
				"z": -0.5917604865,
				"element": "C" 
			},
			{
				"x": -1.3137483654,
				"y": -1.3155784714,
				"z": -0.0471392207,
				"element": "C" 
			},
			{
				"x": -1.4128225272,
				"y": -2.4505367308,
				"z": -1.031309218,
				"element": "C" 
			},
			{
				"x": -1.7045172303,
				"y": -1.0409654892,
				"z": -1.4807315768,
				"element": "C" 
			},
			{
				"x": -0.0037898147,
				"y": -2.0906250973,
				"z": 3.6528190943,
				"element": "H" 
			},
			{
				"x": -0.6802113533,
				"y": -0.642711313,
				"z": 2.9720503155,
				"element": "H" 
			},
			{
				"x": -0.0836559172,
				"y": 0.1364868979,
				"z": 0.9515495618,
				"element": "H" 
			},
			{
				"x": 1.575431103,
				"y": -1.6803894949,
				"z": -0.6091617857,
				"element": "H" 
			},
			{
				"x": 3.4890225755,
				"y": 2.2444634579,
				"z": 0.0716101732,
				"element": "H" 
			},
			{
				"x": 2.9043986272,
				"y": 4.6244203725,
				"z": 0.5309685455,
				"element": "H" 
			},
			{
				"x": 0.5603344572,
				"y": 5.3998503209,
				"z": 0.2309756151,
				"element": "H" 
			},
			{
				"x": -1.1840397739,
				"y": 3.7973100445,
				"z": -0.5197116956,
				"element": "H" 
			},
			{
				"x": -0.6036016014,
				"y": 1.4331436113,
				"z": -0.9331586357,
				"element": "H" 
			},
			{
				"x": -2.1155241255,
				"y": -1.2558109514,
				"z": 0.6863138325,
				"element": "H" 
			},
			{
				"x": -2.23564257,
				"y": -3.1494785864,
				"z": -0.919531171,
				"element": "H" 
			},
			{
				"x": -0.488714839,
				"y": -2.9027596934,
				"z": -1.3769068037,
				"element": "H" 
			},
			{
				"x": -0.9644705956,
				"y": -0.5736379951,
				"z": -2.1222737654,
				"element": "H" 
			},
			{
				"x": -2.7324235226,
				"y": -0.7536336443,
				"z": -1.6813047337,
				"element": "H" 
			}
		],
		 "valence_orbital": [ 
			{
				"type": "occ",
				"energy": -0.2614,
				"method": "rhf"
			},
			{
				"type": "occ",
				"energy": -0.25969,
				"method": "rhf"
			},
			{
				"type": "occ",
				"energy": -0.24189,
				"method": "rhf"
			},
			{
				"type": "occ",
				"energy": -0.2404,
				"method": "rhf"
			},
			{
				"type": "occ",
				"energy": -0.2224,
				"method": "rhf"
			},
			{
				"type": "unocc",
				"energy": -0.04203,
				"method": "rhf"
			},
			{
				"type": "unocc",
				"energy": -0.03476,
				"method": "rhf"
			},
			{
				"type": "unocc",
				"energy": -0.01095,
				"method": "rhf"
			},
			{
				"type": "unocc",
				"energy": 0.04574,
				"method": "rhf"
			},
			{
				"type": "unocc",
				"energy": 0.05259,
				"method": "rhf"
			}
		],
		"cosmo_sigma_profile": { 
			"-0.025": 0.0,
			"-0.024": 0.0,
			"-0.023": 0.0,
			"-0.022": 0.0,
			"-0.021": 0.0,
			"-0.02": 0.0,
			"-0.019": 0.0,
			"-0.018": 0.0,
			"-0.017": 0.213143904021,
			"-0.016": 1.44858436534,
			"-0.015": 2.84155725048,
			"-0.014": 2.63719005399,
			"-0.013": 3.15716811589,
			"-0.012": 3.01859118548,
			"-0.011": 1.97147691472,
			"-0.01": 1.98593929971,
			"-0.009": 2.21648340384,
			"-0.008": 2.20162442138,
			"-0.007": 3.75616380598,
			"-0.006": 11.0602439252,
			"-0.005": 16.9686904203,
			"-0.004": 25.1763226785,
			"-0.003": 20.5756605405,
			"-0.002": 18.1726532347,
			"-0.001": 18.9730757977,
			"0.0": 16.5391738392,
			"0.001": 16.8641823563,
			"0.002": 15.8564533415,
			"0.003": 16.3296244954,
			"0.004": 19.0911884962,
			"0.005": 12.1554679039,
			"0.006": 5.87827443985,
			"0.007": 8.803251652,
			"0.008": 8.54570792286,
			"0.009": 5.26748044867,
			"0.01": 3.65056992342,
			"0.011": 3.08685866645,
			"0.012": 2.51993809772,
			"0.013": 5.31405697374,
			"0.014": 2.76513564596,
			"0.015": 0.0153718241516,
			"0.016": 0.0,
			"0.017": 0.0,
			"0.018": 0.0,
			"0.019": 0.0,
			"0.02": 0.0,
			"0.021": 0.0,
			"0.022": 0.0,
			"0.023": 0.0,
			"0.024": 0.0,
			"0.025": 0.0
		}
	}
}
