{
	 "smiles": "CC(C)C[C@H](NC(=O)[C@H](C)NC(=O)C[C@H](O)[C@H](CC(C)C)NC(=O)[C@@H](NC(=O)[C@@H](NC(=O)CC(C)C)C(C)C)C(C)C)[C@@H](O)CC(O)=O", 
	 "Tm": 506.15, 
	 "num_atms": 111, 
	 "gaussian": { 
		 "optdone": 1, 
		 "sigma_profile": "yes", 
		 "theory": "DFT", 
		 "functional": "B3LYP", 
		 "basiset": "6-31G**", 
		 "properties": { 
			 "R2extent": 45076.9155, 
			 "electric_dipole_moment_norm": 7.20975816793, 
			 "electric_quadrupole_moment_norm": 28.9600659362, 
			 "total_energy": -2284.51572608, 
			 "HOMO_LUMO_gap": 0.23088, 
			 "cosmo_polarized_energy": -43.22, 
			 "cosmo_cavitation_energy": 101.0, 
			 "cosmo_dispersion_energy": -58.1, 
			 "cosmo_repulsion_energy": 4.33, 
			 "cosmo_total_nonelectrostatic_energy": 47.23, 
			 "SMD_solvation_energy": 17.78 
		},
		"coords": [
			{
				"x": 2.721529491,
				"y": 4.8816190429,
				"z": -2.775607607,
				"element": "C" 
			},
			{
				"x": 3.9599610402,
				"y": 4.4836541066,
				"z": -3.5958389964,
				"element": "C" 
			},
			{
				"x": 4.3490222914,
				"y": 5.5823092346,
				"z": -4.596835182,
				"element": "C" 
			},
			{
				"x": 3.8680804303,
				"y": 3.0748065564,
				"z": -4.2412950177,
				"element": "C" 
			},
			{
				"x": 3.0374347763,
				"y": 2.9322622542,
				"z": -5.5328621556,
				"element": "C" 
			},
			{
				"x": 1.589693329,
				"y": 3.2270666145,
				"z": -5.3850650523,
				"element": "N" 
			},
			{
				"x": 0.6337453631,
				"y": 2.7049582975,
				"z": -4.5390280387,
				"element": "C" 
			},
			{
				"x": -0.4088981182,
				"y": 3.3163250253,
				"z": -4.33340873,
				"element": "O" 
			},
			{
				"x": 0.8215497598,
				"y": 1.29963196,
				"z": -3.9394377006,
				"element": "C" 
			},
			{
				"x": 0.1453473933,
				"y": 0.2595318541,
				"z": -4.8498708259,
				"element": "C" 
			},
			{
				"x": 0.235760402,
				"y": 1.2801956871,
				"z": -2.6085957196,
				"element": "N" 
			},
			{
				"x": 0.9985638169,
				"y": 1.4025562097,
				"z": -1.4795107662,
				"element": "C" 
			},
			{
				"x": 2.2305646416,
				"y": 1.389402563,
				"z": -1.5065268666,
				"element": "O" 
			},
			{
				"x": 0.2107732855,
				"y": 1.5514234786,
				"z": -0.1839690474,
				"element": "C" 
			},
			{
				"x": -0.7431780722,
				"y": 0.393236209,
				"z": 0.1799621109,
				"element": "C" 
			},
			{
				"x": -1.7644662338,
				"y": 0.9811297092,
				"z": 0.9879282905,
				"element": "O" 
			},
			{
				"x": -0.0488361256,
				"y": -0.7363870267,
				"z": 0.9927419198,
				"element": "C" 
			},
			{
				"x": 1.240536398,
				"y": -1.352449669,
				"z": 0.3992381028,
				"element": "C" 
			},
			{
				"x": 1.1761977025,
				"y": -2.241340112,
				"z": -0.8704029931,
				"element": "C" 
			},
			{
				"x": 2.488703655,
				"y": -2.1129681207,
				"z": -1.6635482247,
				"element": "C" 
			},
			{
				"x": 0.9285543349,
				"y": -3.7206978664,
				"z": -0.5331755894,
				"element": "C" 
			},
			{
				"x": -1.0434926082,
				"y": -1.7259031511,
				"z": 1.4568484776,
				"element": "N" 
			},
			{
				"x": -1.987282823,
				"y": -2.3146075581,
				"z": 0.6735148275,
				"element": "C" 
			},
			{
				"x": -2.0154961191,
				"y": -2.2307223584,
				"z": -0.550606404,
				"element": "O" 
			},
			{
				"x": -3.0170431561,
				"y": -3.1842269359,
				"z": 1.4604507521,
				"element": "C" 
			},
			{
				"x": -3.5333553836,
				"y": -2.4349991393,
				"z": 2.6165214214,
				"element": "N" 
			},
			{
				"x": -4.0100040707,
				"y": -1.1710146177,
				"z": 2.5264541485,
				"element": "C" 
			},
			{
				"x": -4.1445752151,
				"y": -0.5746311982,
				"z": 1.4540334282,
				"element": "O" 
			},
			{
				"x": -4.3494934796,
				"y": -0.4845517775,
				"z": 3.865036009,
				"element": "C" 
			},
			{
				"x": -3.3912749377,
				"y": 0.5956739306,
				"z": 4.0898025999,
				"element": "N" 
			},
			{
				"x": -2.066143774,
				"y": 0.3488000718,
				"z": 4.3085130718,
				"element": "C" 
			},
			{
				"x": -1.6473491775,
				"y": -0.8080993453,
				"z": 4.436122436,
				"element": "O" 
			},
			{
				"x": -1.1844566587,
				"y": 1.5883862453,
				"z": 4.3673039708,
				"element": "C" 
			},
			{
				"x": -0.0073011125,
				"y": 1.5356315407,
				"z": 5.3676988036,
				"element": "C" 
			},
			{
				"x": 1.1094624852,
				"y": 0.5723171519,
				"z": 4.937157939,
				"element": "C" 
			},
			{
				"x": -0.4863951276,
				"y": 1.2405129796,
				"z": 6.797369222,
				"element": "C" 
			},
			{
				"x": -5.7917930266,
				"y": 0.0667092487,
				"z": 3.8650989272,
				"element": "C" 
			},
			{
				"x": -6.8078698896,
				"y": -1.0403920668,
				"z": 3.5491938784,
				"element": "C" 
			},
			{
				"x": -6.1305453928,
				"y": 0.7500218941,
				"z": 5.1984699326,
				"element": "C" 
			},
			{
				"x": -4.1233652144,
				"y": -3.7735184014,
				"z": 0.5509121034,
				"element": "C" 
			},
			{
				"x": -3.5365835792,
				"y": -4.8322639801,
				"z": -0.3977757907,
				"element": "C" 
			},
			{
				"x": -5.2616219184,
				"y": -4.3912417639,
				"z": 1.3764463977,
				"element": "C" 
			},
			{
				"x": 3.2269541053,
				"y": 1.5722967644,
				"z": -6.261011816,
				"element": "C" 
			},
			{
				"x": 2.3461230213,
				"y": 1.4870931369,
				"z": -7.3731904056,
				"element": "O" 
			},
			{
				"x": 4.6427685766,
				"y": 1.3917408013,
				"z": -6.8215008202,
				"element": "C" 
			},
			{
				"x": 4.7954260019,
				"y": 0.1142520096,
				"z": -7.6236881182,
				"element": "C" 
			},
			{
				"x": 4.3852768676,
				"y": -0.9716942204,
				"z": -6.9225301733,
				"element": "O" 
			},
			{
				"x": 5.2600024096,
				"y": 0.0355179384,
				"z": -8.737299084,
				"element": "O" 
			},
			{
				"x": 2.9165223647,
				"y": 5.8066496261,
				"z": -2.2213899496,
				"element": "H" 
			},
			{
				"x": 2.4716318981,
				"y": 4.1014996371,
				"z": -2.0501187602,
				"element": "H" 
			},
			{
				"x": 1.8398075979,
				"y": 5.0566668409,
				"z": -3.3997219257,
				"element": "H" 
			},
			{
				"x": 4.7875964858,
				"y": 4.3997277938,
				"z": -2.8776739593,
				"element": "H" 
			},
			{
				"x": 4.5736172565,
				"y": 6.5176584272,
				"z": -4.0738008934,
				"element": "H" 
			},
			{
				"x": 5.2353554312,
				"y": 5.3073933451,
				"z": -5.1804826748,
				"element": "H" 
			},
			{
				"x": 3.5381847532,
				"y": 5.8002142427,
				"z": -5.3027478257,
				"element": "H" 
			},
			{
				"x": 4.8913822889,
				"y": 2.7741135272,
				"z": -4.4957508675,
				"element": "H" 
			},
			{
				"x": 3.5220148489,
				"y": 2.3660211553,
				"z": -3.4809235136,
				"element": "H" 
			},
			{
				"x": 3.3745785245,
				"y": 3.6906858483,
				"z": -6.2476650774,
				"element": "H" 
			},
			{
				"x": 1.3066060019,
				"y": 4.1510765674,
				"z": -5.6907999501,
				"element": "H" 
			},
			{
				"x": 1.8742395223,
				"y": 1.0564028994,
				"z": -3.8094994473,
				"element": "H" 
			},
			{
				"x": 0.2327250688,
				"y": -0.7333916797,
				"z": -4.4020854856,
				"element": "H" 
			},
			{
				"x": -0.9162679152,
				"y": 0.4960360759,
				"z": -4.9730422884,
				"element": "H" 
			},
			{
				"x": 0.6123362237,
				"y": 0.2392596462,
				"z": -5.8388093168,
				"element": "H" 
			},
			{
				"x": -0.7375678862,
				"y": 1.5526388391,
				"z": -2.5596356149,
				"element": "H" 
			},
			{
				"x": 0.9336970575,
				"y": 1.7404849811,
				"z": 0.6139394514,
				"element": "H" 
			},
			{
				"x": -0.4234192042,
				"y": 2.4409838559,
				"z": -0.2715278206,
				"element": "H" 
			},
			{
				"x": -1.1810446586,
				"y": -0.0286889067,
				"z": -0.7293151721,
				"element": "H" 
			},
			{
				"x": -2.5635525243,
				"y": 0.4260608426,
				"z": 0.9578967813,
				"element": "H" 
			},
			{
				"x": 0.2692137382,
				"y": -0.2410649507,
				"z": 1.9176452579,
				"element": "H" 
			},
			{
				"x": 1.7147286628,
				"y": -1.9320977944,
				"z": 1.2032312094,
				"element": "H" 
			},
			{
				"x": 1.9181589176,
				"y": -0.5131844608,
				"z": 0.2063749976,
				"element": "H" 
			},
			{
				"x": 0.3509083932,
				"y": -1.8966226143,
				"z": -1.5033568116,
				"element": "H" 
			},
			{
				"x": 2.4641653113,
				"y": -2.7330474171,
				"z": -2.5671640163,
				"element": "H" 
			},
			{
				"x": 3.3413492899,
				"y": -2.4495781232,
				"z": -1.0595526989,
				"element": "H" 
			},
			{
				"x": 2.6822820699,
				"y": -1.0772453442,
				"z": -1.9572652139,
				"element": "H" 
			},
			{
				"x": 0.0091251754,
				"y": -3.870619162,
				"z": 0.034264819,
				"element": "H" 
			},
			{
				"x": 0.8561005166,
				"y": -4.3211897441,
				"z": -1.4467974886,
				"element": "H" 
			},
			{
				"x": 1.7605741217,
				"y": -4.1209775401,
				"z": 0.0605959332,
				"element": "H" 
			},
			{
				"x": -1.198466659,
				"y": -1.7332129528,
				"z": 2.4588263094,
				"element": "H" 
			},
			{
				"x": -2.4549842709,
				"y": -4.0220267575,
				"z": 1.8937058104,
				"element": "H" 
			},
			{
				"x": -3.3028123279,
				"y": -2.7673844261,
				"z": 3.5416586858,
				"element": "H" 
			},
			{
				"x": -4.2335154319,
				"y": -1.198725343,
				"z": 4.6887340537,
				"element": "H" 
			},
			{
				"x": -3.6547564804,
				"y": 1.5192901928,
				"z": 3.7755426873,
				"element": "H" 
			},
			{
				"x": -0.8180942743,
				"y": 1.7389348404,
				"z": 3.3435878337,
				"element": "H" 
			},
			{
				"x": -1.8125158495,
				"y": 2.4575524759,
				"z": 4.5988716729,
				"element": "H" 
			},
			{
				"x": 0.4163767951,
				"y": 2.549845768,
				"z": 5.3634429566,
				"element": "H" 
			},
			{
				"x": 1.9563133364,
				"y": 0.6345655952,
				"z": 5.6294611629,
				"element": "H" 
			},
			{
				"x": 0.7502065879,
				"y": -0.4587451137,
				"z": 4.9204385937,
				"element": "H" 
			},
			{
				"x": 1.4823846724,
				"y": 0.8217890985,
				"z": 3.9370200417,
				"element": "H" 
			},
			{
				"x": -0.903189594,
				"y": 0.2307990298,
				"z": 6.868446636,
				"element": "H" 
			},
			{
				"x": -1.2569592618,
				"y": 1.9514296935,
				"z": 7.1177247708,
				"element": "H" 
			},
			{
				"x": 0.344667403,
				"y": 1.3099492949,
				"z": 7.5069540918,
				"element": "H" 
			},
			{
				"x": -5.8416673927,
				"y": 0.806358773,
				"z": 3.0540077277,
				"element": "H" 
			},
			{
				"x": -6.6459561114,
				"y": -1.4673871873,
				"z": 2.5559039731,
				"element": "H" 
			},
			{
				"x": -7.8250896578,
				"y": -0.6379581569,
				"z": 3.573405801,
				"element": "H" 
			},
			{
				"x": -6.756052982,
				"y": -1.8494733385,
				"z": 4.2878760754,
				"element": "H" 
			},
			{
				"x": -6.1142581496,
				"y": 0.0265887153,
				"z": 6.0222220029,
				"element": "H" 
			},
			{
				"x": -5.4283246938,
				"y": 1.5500001934,
				"z": 5.4487672378,
				"element": "H" 
			},
			{
				"x": -7.1342550432,
				"y": 1.1845378603,
				"z": 5.1580495349,
				"element": "H" 
			},
			{
				"x": -4.5203391408,
				"y": -2.9480490149,
				"z": -0.0490975887,
				"element": "H" 
			},
			{
				"x": -3.1190015705,
				"y": -5.6751976403,
				"z": 0.1689703546,
				"element": "H" 
			},
			{
				"x": -4.3232706473,
				"y": -5.2335678225,
				"z": -1.0452694921,
				"element": "H" 
			},
			{
				"x": -2.7550949522,
				"y": -4.4104477422,
				"z": -1.0294288187,
				"element": "H" 
			},
			{
				"x": -5.7528675847,
				"y": -3.661826335,
				"z": 2.0248210754,
				"element": "H" 
			},
			{
				"x": -6.020846029,
				"y": -4.8114604995,
				"z": 0.7091297429,
				"element": "H" 
			},
			{
				"x": -4.8947352477,
				"y": -5.2096132469,
				"z": 2.0096472921,
				"element": "H" 
			},
			{
				"x": 3.0321155551,
				"y": 0.7470484312,
				"z": -5.5615572564,
				"element": "H" 
			},
			{
				"x": 1.5416826606,
				"y": 1.9678381765,
				"z": -7.1252570153,
				"element": "H" 
			},
			{
				"x": 4.9016957526,
				"y": 2.2208600208,
				"z": -7.4841783798,
				"element": "H" 
			},
			{
				"x": 5.3699905696,
				"y": 1.3514994733,
				"z": -6.0036452413,
				"element": "H" 
			},
			{
				"x": 4.5150603237,
				"y": -1.7349316769,
				"z": -7.5098416553,
				"element": "H" 
			}
		],
		 "valence_orbital": [ 
			{
				"type": "occ",
				"energy": -0.25629,
				"method": "rhf"
			},
			{
				"type": "occ",
				"energy": -0.25602,
				"method": "rhf"
			},
			{
				"type": "occ",
				"energy": -0.24811,
				"method": "rhf"
			},
			{
				"type": "occ",
				"energy": -0.24165,
				"method": "rhf"
			},
			{
				"type": "occ",
				"energy": -0.23787,
				"method": "rhf"
			},
			{
				"type": "unocc",
				"energy": -0.00699,
				"method": "rhf"
			},
			{
				"type": "unocc",
				"energy": 0.00448,
				"method": "rhf"
			},
			{
				"type": "unocc",
				"energy": 0.00513,
				"method": "rhf"
			},
			{
				"type": "unocc",
				"energy": 0.01354,
				"method": "rhf"
			},
			{
				"type": "unocc",
				"energy": 0.01758,
				"method": "rhf"
			}
		],
		"cosmo_sigma_profile": { 
			"-0.025": 0.0,
			"-0.024": 0.0,
			"-0.023": 0.0,
			"-0.022": 0.0,
			"-0.021": 0.0,
			"-0.02": 0.0,
			"-0.019": 0.0325240131643,
			"-0.018": 0.537084240558,
			"-0.017": 0.928998573373,
			"-0.016": 0.865475999764,
			"-0.015": 1.11842228298,
			"-0.014": 2.1387530129,
			"-0.013": 4.65877750301,
			"-0.012": 4.4491853349,
			"-0.011": 5.19470749786,
			"-0.01": 8.19823650387,
			"-0.009": 7.96162068149,
			"-0.008": 8.25904352421,
			"-0.007": 15.4473881595,
			"-0.006": 18.8053945011,
			"-0.005": 22.209148812,
			"-0.004": 32.5577686785,
			"-0.003": 61.7328917015,
			"-0.002": 90.8802384777,
			"-0.001": 97.3004481739,
			"0.0": 90.6390720972,
			"0.001": 88.5458957049,
			"0.002": 60.9487315694,
			"0.003": 22.8734414586,
			"0.004": 16.0404979596,
			"0.005": 12.7786303228,
			"0.006": 14.7893082256,
			"0.007": 12.7358678843,
			"0.008": 11.6080227288,
			"0.009": 12.4304635398,
			"0.01": 10.9771484955,
			"0.011": 11.8543227335,
			"0.012": 15.5791156877,
			"0.013": 10.0393222087,
			"0.014": 3.39279721357,
			"0.015": 0.300187348886,
			"0.016": 0.0,
			"0.017": 0.0,
			"0.018": 0.0,
			"0.019": 0.0,
			"0.02": 0.0,
			"0.021": 0.0,
			"0.022": 0.0,
			"0.023": 0.0,
			"0.024": 0.0,
			"0.025": 0.0
		}
	}
}
