{
	 "smiles": "BrC1=CC=CC2=C1C=CC=C2C(=O)NC1=CC=CC=C1", 
	 "Tm": 490.15, 
	 "num_atms": 32, 
	 "gaussian": { 
		 "optdone": 1, 
		 "sigma_profile": "yes", 
		 "theory": "DFT", 
		 "functional": "B3LYP", 
		 "basiset": "6-31G**", 
		 "properties": { 
			 "R2extent": 9281.8386, 
			 "electric_dipole_moment_norm": 3.0813440152, 
			 "electric_quadrupole_moment_norm": 14.6902729856, 
			 "total_energy": -3356.44085743, 
			 "HOMO_LUMO_gap": 0.16354, 
			 "cosmo_polarized_energy": -12.77, 
			 "cosmo_cavitation_energy": 38.05, 
			 "cosmo_dispersion_energy": -26.71, 
			 "cosmo_repulsion_energy": 2.05, 
			 "cosmo_total_nonelectrostatic_energy": 13.39, 
			 "SMD_solvation_energy": 5.77 
		},
		"coords": [
			{
				"x": -3.4782253021,
				"y": 4.6324899668,
				"z": -0.9758730612,
				"element": "Br" 
			},
			{
				"x": -2.8299085643,
				"y": 3.1767040775,
				"z": 0.0914439632,
				"element": "C" 
			},
			{
				"x": -3.7619095348,
				"y": 2.3800920363,
				"z": 0.7118047301,
				"element": "C" 
			},
			{
				"x": -3.331150433,
				"y": 1.3023914635,
				"z": 1.516997508,
				"element": "C" 
			},
			{
				"x": -1.9919461791,
				"y": 1.0351879644,
				"z": 1.6742611717,
				"element": "C" 
			},
			{
				"x": -1.0069869765,
				"y": 1.8358382088,
				"z": 1.0343542657,
				"element": "C" 
			},
			{
				"x": -1.4277131531,
				"y": 2.9532485227,
				"z": 0.2277827949,
				"element": "C" 
			},
			{
				"x": -0.4459157011,
				"y": 3.7818964235,
				"z": -0.3756558937,
				"element": "C" 
			},
			{
				"x": 0.8947400667,
				"y": 3.5476933374,
				"z": -0.1754659507,
				"element": "C" 
			},
			{
				"x": 1.3164691496,
				"y": 2.4644725542,
				"z": 0.6225785372,
				"element": "C" 
			},
			{
				"x": 0.3982993696,
				"y": 1.5997329969,
				"z": 1.187857179,
				"element": "C" 
			},
			{
				"x": 0.9672979391,
				"y": 0.4977457031,
				"z": 2.0434895555,
				"element": "C" 
			},
			{
				"x": 1.7493567336,
				"y": 0.7536672903,
				"z": 2.9513834134,
				"element": "O" 
			},
			{
				"x": 0.6068520834,
				"y": -0.8169763737,
				"z": 1.80752325,
				"element": "N" 
			},
			{
				"x": -0.0062607386,
				"y": -1.45495016,
				"z": 0.7010933982,
				"element": "C" 
			},
			{
				"x": 0.1010362824,
				"y": -0.9737501216,
				"z": -0.61093579,
				"element": "C" 
			},
			{
				"x": -0.5109330134,
				"y": -1.6660767079,
				"z": -1.6555046421,
				"element": "C" 
			},
			{
				"x": -1.2075153349,
				"y": -2.8518006842,
				"z": -1.4175137999,
				"element": "C" 
			},
			{
				"x": -1.2933903498,
				"y": -3.3435504555,
				"z": -0.1137125776,
				"element": "C" 
			},
			{
				"x": -0.7053357655,
				"y": -2.6476722012,
				"z": 0.9401996462,
				"element": "C" 
			},
			{
				"x": -4.8193435566,
				"y": 2.5827538911,
				"z": 0.5882484952,
				"element": "H" 
			},
			{
				"x": -4.0727949066,
				"y": 0.684498119,
				"z": 2.013809067,
				"element": "H" 
			},
			{
				"x": -1.6770870323,
				"y": 0.2086075042,
				"z": 2.2993780834,
				"element": "H" 
			},
			{
				"x": -0.7715563461,
				"y": 4.6144051791,
				"z": -0.9879138504,
				"element": "H" 
			},
			{
				"x": 1.634317467,
				"y": 4.2007082474,
				"z": -0.6285058526,
				"element": "H" 
			},
			{
				"x": 2.3739108611,
				"y": 2.2946052818,
				"z": 0.7975803432,
				"element": "H" 
			},
			{
				"x": 0.9907960668,
				"y": -1.4291019585,
				"z": 2.5183105938,
				"element": "H" 
			},
			{
				"x": 0.6640085583,
				"y": -0.0711269643,
				"z": -0.8144076621,
				"element": "H" 
			},
			{
				"x": -0.4247219821,
				"y": -1.2796801793,
				"z": -2.6669298759,
				"element": "H" 
			},
			{
				"x": -1.6722663516,
				"y": -3.3891351562,
				"z": -2.2383187012,
				"element": "H" 
			},
			{
				"x": -1.8273913293,
				"y": -4.2675105947,
				"z": 0.0884186582,
				"element": "H" 
			},
			{
				"x": -0.7873320266,
				"y": -3.0225072112,
				"z": 1.9572230036,
				"element": "H" 
			}
		],
		 "valence_orbital": [ 
			{
				"type": "occ",
				"energy": -0.26222,
				"method": "rhf"
			},
			{
				"type": "occ",
				"energy": -0.25792,
				"method": "rhf"
			},
			{
				"type": "occ",
				"energy": -0.25562,
				"method": "rhf"
			},
			{
				"type": "occ",
				"energy": -0.22882,
				"method": "rhf"
			},
			{
				"type": "occ",
				"energy": -0.2228,
				"method": "rhf"
			},
			{
				"type": "unocc",
				"energy": -0.05926,
				"method": "rhf"
			},
			{
				"type": "unocc",
				"energy": -0.02586,
				"method": "rhf"
			},
			{
				"type": "unocc",
				"energy": -0.02266,
				"method": "rhf"
			},
			{
				"type": "unocc",
				"energy": -0.00991,
				"method": "rhf"
			},
			{
				"type": "unocc",
				"energy": 0.00479,
				"method": "rhf"
			}
		],
		"cosmo_sigma_profile": { 
			"-0.025": 0.0,
			"-0.024": 0.0,
			"-0.023": 0.0,
			"-0.022": 0.0,
			"-0.021": 0.0,
			"-0.02": 0.0,
			"-0.019": 0.0,
			"-0.018": 0.0,
			"-0.017": 0.0,
			"-0.016": 0.0,
			"-0.015": 0.11492105653,
			"-0.014": 1.08627292076,
			"-0.013": 0.965953691164,
			"-0.012": 0.720559548305,
			"-0.011": 1.5753615268,
			"-0.01": 0.939283788207,
			"-0.009": 1.2169718299,
			"-0.008": 0.925267789462,
			"-0.007": 7.26424714922,
			"-0.006": 16.1687179028,
			"-0.005": 24.1282141588,
			"-0.004": 25.5476218327,
			"-0.003": 20.3059268587,
			"-0.002": 19.1886340354,
			"-0.001": 18.8084565266,
			"0.0": 20.6333622203,
			"0.001": 25.5084769136,
			"0.002": 35.396368859,
			"0.003": 29.8844608148,
			"0.004": 22.3108650038,
			"0.005": 14.5847202328,
			"0.006": 4.06885789349,
			"0.007": 1.74000598525,
			"0.008": 1.49409448418,
			"0.009": 0.900997586243,
			"0.01": 1.72972956178,
			"0.011": 2.04240974067,
			"0.012": 3.29869889089,
			"0.013": 5.19778255062,
			"0.014": 1.36142714137,
			"0.015": 0.0,
			"0.016": 0.0,
			"0.017": 0.0,
			"0.018": 0.0,
			"0.019": 0.0,
			"0.02": 0.0,
			"0.021": 0.0,
			"0.022": 0.0,
			"0.023": 0.0,
			"0.024": 0.0,
			"0.025": 0.0
		}
	}
}
