{
	 "smiles": "CCOC(=O)C1=CN=C(C=C1)N1CC(N)C1", 
	 "Tm": 346.15, 
	 "num_atms": 31, 
	 "gaussian": { 
		 "optdone": 1, 
		 "sigma_profile": "yes", 
		 "theory": "DFT", 
		 "functional": "B3LYP", 
		 "basiset": "6-31G**", 
		 "properties": { 
			 "R2extent": 6660.8702, 
			 "electric_dipole_moment_norm": 3.36908482232, 
			 "electric_quadrupole_moment_norm": 19.190185292, 
			 "total_energy": -742.901810641, 
			 "HOMO_LUMO_gap": 0.17591, 
			 "cosmo_polarized_energy": -15.0, 
			 "cosmo_cavitation_energy": 34.76, 
			 "cosmo_dispersion_energy": -25.25, 
			 "cosmo_repulsion_energy": 2.01, 
			 "cosmo_total_nonelectrostatic_energy": 11.52, 
			 "SMD_solvation_energy": 3.57 
		},
		"coords": [
			{
				"x": 1.4682908127,
				"y": 1.8994928316,
				"z": -5.5443925042,
				"element": "C" 
			},
			{
				"x": 0.4456287197,
				"y": 0.7727286867,
				"z": -5.5711600754,
				"element": "C" 
			},
			{
				"x": -0.0503701828,
				"y": 0.4784756946,
				"z": -4.2466251154,
				"element": "O" 
			},
			{
				"x": 0.6911873863,
				"y": -0.3843826711,
				"z": -3.5027194355,
				"element": "C" 
			},
			{
				"x": 1.7183156256,
				"y": -0.9017582824,
				"z": -3.9061056322,
				"element": "O" 
			},
			{
				"x": 0.102816478,
				"y": -0.6151457388,
				"z": -2.1683149811,
				"element": "C" 
			},
			{
				"x": 0.7540081209,
				"y": -1.4854410147,
				"z": -1.2834683793,
				"element": "C" 
			},
			{
				"x": 0.3243632805,
				"y": -1.7733676246,
				"z": -0.0570025984,
				"element": "N" 
			},
			{
				"x": -0.8190207515,
				"y": -1.1851877318,
				"z": 0.3582279688,
				"element": "C" 
			},
			{
				"x": -1.5592810654,
				"y": -0.2883769174,
				"z": -0.4535930346,
				"element": "C" 
			},
			{
				"x": -1.0860481365,
				"y": -0.0090432972,
				"z": -1.7202057101,
				"element": "C" 
			},
			{
				"x": -1.236063856,
				"y": -1.5111343419,
				"z": 1.6097083706,
				"element": "N" 
			},
			{
				"x": -2.1946421844,
				"y": -0.8587689976,
				"z": 2.501627303,
				"element": "C" 
			},
			{
				"x": -1.5031944606,
				"y": -1.563322992,
				"z": 3.7059810011,
				"element": "C" 
			},
			{
				"x": -2.3807920423,
				"y": -2.4092652582,
				"z": 4.487148412,
				"element": "N" 
			},
			{
				"x": -0.4930145666,
				"y": -2.185195486,
				"z": 2.6742650214,
				"element": "C" 
			},
			{
				"x": 1.7703300321,
				"y": 2.1534117766,
				"z": -6.5661594523,
				"element": "H" 
			},
			{
				"x": 1.0492012718,
				"y": 2.7957585732,
				"z": -5.0771865832,
				"element": "H" 
			},
			{
				"x": 2.3582962498,
				"y": 1.5935960729,
				"z": -4.9893457779,
				"element": "H" 
			},
			{
				"x": 0.8763312614,
				"y": -0.1364983102,
				"z": -5.9972770769,
				"element": "H" 
			},
			{
				"x": -0.4443506608,
				"y": 1.0543490348,
				"z": -6.1399087837,
				"element": "H" 
			},
			{
				"x": 1.6754704217,
				"y": -1.9656543659,
				"z": -1.6046486827,
				"element": "H" 
			},
			{
				"x": -2.4767300121,
				"y": 0.1584162195,
				"z": -0.0856874234,
				"element": "H" 
			},
			{
				"x": -1.6215089131,
				"y": 0.6717235627,
				"z": -2.372772963,
				"element": "H" 
			},
			{
				"x": -2.14036747,
				"y": 0.238154622,
				"z": 2.4999674703,
				"element": "H" 
			},
			{
				"x": -3.2392509856,
				"y": -1.1600445994,
				"z": 2.3476154567,
				"element": "H" 
			},
			{
				"x": -1.0180575272,
				"y": -0.8563613769,
				"z": 4.3840589095,
				"element": "H" 
			},
			{
				"x": -2.7739321864,
				"y": -3.1488515531,
				"z": 3.9086919244,
				"element": "H" 
			},
			{
				"x": -1.8677378386,
				"y": -2.8631033494,
				"z": 5.2384323248,
				"element": "H" 
			},
			{
				"x": -0.5135129236,
				"y": -3.2806274927,
				"z": 2.608203959,
				"element": "H" 
			},
			{
				"x": 0.5503361028,
				"y": -1.859075673,
				"z": 2.7573460877,
				"element": "H" 
			}
		],
		 "valence_orbital": [ 
			{
				"type": "occ",
				"energy": -0.27885,
				"method": "rhf"
			},
			{
				"type": "occ",
				"energy": -0.26634,
				"method": "rhf"
			},
			{
				"type": "occ",
				"energy": -0.25234,
				"method": "rhf"
			},
			{
				"type": "occ",
				"energy": -0.24642,
				"method": "rhf"
			},
			{
				"type": "occ",
				"energy": -0.2052,
				"method": "rhf"
			},
			{
				"type": "unocc",
				"energy": -0.02929,
				"method": "rhf"
			},
			{
				"type": "unocc",
				"energy": -0.0132,
				"method": "rhf"
			},
			{
				"type": "unocc",
				"energy": 0.06245,
				"method": "rhf"
			},
			{
				"type": "unocc",
				"energy": 0.07388,
				"method": "rhf"
			},
			{
				"type": "unocc",
				"energy": 0.09508,
				"method": "rhf"
			}
		],
		"cosmo_sigma_profile": { 
			"-0.025": 0.0,
			"-0.024": 0.0,
			"-0.023": 0.0,
			"-0.022": 0.0,
			"-0.021": 0.0,
			"-0.02": 0.0,
			"-0.019": 0.0,
			"-0.018": 0.0,
			"-0.017": 0.0,
			"-0.016": 0.0,
			"-0.015": 0.0,
			"-0.014": 0.0,
			"-0.013": 0.0,
			"-0.012": 0.0,
			"-0.011": 0.301881875477,
			"-0.01": 2.45062194555,
			"-0.009": 3.51056942666,
			"-0.008": 2.45901189161,
			"-0.007": 4.59004322807,
			"-0.006": 8.63584062873,
			"-0.005": 21.1899784621,
			"-0.004": 31.8439012334,
			"-0.003": 28.111612477,
			"-0.002": 23.6851747839,
			"-0.001": 19.1168147029,
			"0.0": 20.5523107423,
			"0.001": 19.6038856238,
			"0.002": 20.0416294907,
			"0.003": 14.4245892128,
			"0.004": 9.09698996515,
			"0.005": 7.2688873568,
			"0.006": 5.50928616471,
			"0.007": 4.32822682869,
			"0.008": 3.41868478163,
			"0.009": 4.00485955961,
			"0.01": 3.28347843609,
			"0.011": 3.84918150729,
			"0.012": 5.10938756674,
			"0.013": 3.43292594195,
			"0.014": 1.01539803128,
			"0.015": 0.959059717766,
			"0.016": 0.84228804067,
			"0.017": 0.507242735702,
			"0.018": 0.600539625054,
			"0.019": 0.252094914781,
			"0.02": 0.0,
			"0.021": 0.0,
			"0.022": 0.0,
			"0.023": 0.0,
			"0.024": 0.0,
			"0.025": 0.0
		}
	}
}
