{
	 "smiles": "FC(F)(F)COC1=CC=C(OCC(F)(F)F)C=C1", 
	 "Tm": 349.15, 
	 "num_atms": 26, 
	 "gaussian": { 
		 "optdone": 1, 
		 "sigma_profile": "yes", 
		 "theory": "DFT", 
		 "functional": "B3LYP", 
		 "basiset": "6-31G**", 
		 "properties": { 
			 "R2extent": 8303.8324, 
			 "electric_dipole_moment_norm": 2.22809895875, 
			 "electric_quadrupole_moment_norm": 13.2843252569, 
			 "total_energy": -1135.35781211, 
			 "HOMO_LUMO_gap": 0.2026, 
			 "cosmo_polarized_energy": -9.56, 
			 "cosmo_cavitation_energy": 33.81, 
			 "cosmo_dispersion_energy": -23.55, 
			 "cosmo_repulsion_energy": 1.71, 
			 "cosmo_total_nonelectrostatic_energy": 11.97, 
			 "SMD_solvation_energy": 8.47 
		},
		"coords": [
			{
				"x": -4.8573563954,
				"y": -1.4807642721,
				"z": -0.3253149673,
				"element": "F" 
			},
			{
				"x": -4.6658981818,
				"y": -0.2292019426,
				"z": -0.7757737024,
				"element": "C" 
			},
			{
				"x": -5.5957607099,
				"y": 0.5680058206,
				"z": -0.2037532427,
				"element": "F" 
			},
			{
				"x": -4.8759672727,
				"y": -0.2275070697,
				"z": -2.1028533446,
				"element": "F" 
			},
			{
				"x": -3.2861099399,
				"y": 0.2952967468,
				"z": -0.4198786664,
				"element": "C" 
			},
			{
				"x": -2.3409349634,
				"y": -0.5508722901,
				"z": -1.0272121771,
				"element": "O" 
			},
			{
				"x": -1.0093026366,
				"y": -0.2756014747,
				"z": -0.8319393772,
				"element": "C" 
			},
			{
				"x": -0.519751953,
				"y": 0.7858361253,
				"z": -0.0713563646,
				"element": "C" 
			},
			{
				"x": 0.8624001542,
				"y": 0.978336656,
				"z": 0.0597348469,
				"element": "C" 
			},
			{
				"x": 1.7498248764,
				"y": 0.0991595633,
				"z": -0.5567173313,
				"element": "C" 
			},
			{
				"x": 3.1267383726,
				"y": 0.1919004248,
				"z": -0.4959366498,
				"element": "O" 
			},
			{
				"x": 3.7378211301,
				"y": 0.8203058822,
				"z": 0.6069801582,
				"element": "C" 
			},
			{
				"x": 4.1901920366,
				"y": 2.2397408759,
				"z": 0.2879229279,
				"element": "C" 
			},
			{
				"x": 3.1549984561,
				"y": 3.0690935256,
				"z": 0.0315934983,
				"element": "F" 
			},
			{
				"x": 5.0094539614,
				"y": 2.2723229807,
				"z": -0.7746834314,
				"element": "F" 
			},
			{
				"x": 4.8593653764,
				"y": 2.7377696559,
				"z": 1.3517231823,
				"element": "F" 
			},
			{
				"x": 1.2542824506,
				"y": -0.9647835962,
				"z": -1.3234314731,
				"element": "C" 
			},
			{
				"x": -0.1123899479,
				"y": -1.1481441676,
				"z": -1.4648470268,
				"element": "C" 
			},
			{
				"x": -3.2105052874,
				"y": 1.3283812637,
				"z": -0.7837646287,
				"element": "H" 
			},
			{
				"x": -3.195871617,
				"y": 0.2982028116,
				"z": 0.6743310709,
				"element": "H" 
			},
			{
				"x": -1.1883008058,
				"y": 1.4854167734,
				"z": 0.4166624843,
				"element": "H" 
			},
			{
				"x": 1.2221399063,
				"y": 1.8353862921,
				"z": 0.6146258988,
				"element": "H" 
			},
			{
				"x": 4.6386056995,
				"y": 0.2492429588,
				"z": 0.8522027259,
				"element": "H" 
			},
			{
				"x": 3.0886937753,
				"y": 0.8485511694,
				"z": 1.4885831251,
				"element": "H" 
			},
			{
				"x": 1.9596247521,
				"y": -1.6382157339,
				"z": -1.798585901,
				"element": "H" 
			},
			{
				"x": -0.509891237,
				"y": -1.9676589791,
				"z": -2.0540116343,
				"element": "H" 
			}
		],
		 "valence_orbital": [ 
			{
				"type": "occ",
				"energy": -0.35071,
				"method": "rhf"
			},
			{
				"type": "occ",
				"energy": -0.33845,
				"method": "rhf"
			},
			{
				"type": "occ",
				"energy": -0.30666,
				"method": "rhf"
			},
			{
				"type": "occ",
				"energy": -0.26489,
				"method": "rhf"
			},
			{
				"type": "occ",
				"energy": -0.21957,
				"method": "rhf"
			},
			{
				"type": "unocc",
				"energy": -0.01697,
				"method": "rhf"
			},
			{
				"type": "unocc",
				"energy": 0.00753,
				"method": "rhf"
			},
			{
				"type": "unocc",
				"energy": 0.07648,
				"method": "rhf"
			},
			{
				"type": "unocc",
				"energy": 0.08056,
				"method": "rhf"
			},
			{
				"type": "unocc",
				"energy": 0.0884,
				"method": "rhf"
			}
		],
		"cosmo_sigma_profile": { 
			"-0.025": 0.0,
			"-0.024": 0.0,
			"-0.023": 0.0,
			"-0.022": 0.0,
			"-0.021": 0.0,
			"-0.02": 0.0,
			"-0.019": 0.0,
			"-0.018": 0.0,
			"-0.017": 0.0,
			"-0.016": 0.0,
			"-0.015": 0.0,
			"-0.014": 0.0,
			"-0.013": 0.0,
			"-0.012": 0.0,
			"-0.011": 0.0,
			"-0.01": 0.0823534161824,
			"-0.009": 4.75803985902,
			"-0.008": 13.8338459175,
			"-0.007": 12.2211275739,
			"-0.006": 13.7094963771,
			"-0.005": 11.5542927168,
			"-0.004": 10.7652346704,
			"-0.003": 9.56469760408,
			"-0.002": 8.1548405566,
			"-0.001": 9.68963184569,
			"0.0": 13.3138862663,
			"0.001": 17.877212629,
			"0.002": 51.8282386043,
			"0.003": 56.9843843399,
			"0.004": 18.4688130607,
			"0.005": 7.71682868119,
			"0.006": 3.93421049181,
			"0.007": 3.31103693239,
			"0.008": 1.50651458422,
			"0.009": 0.953400836903,
			"0.01": 0.137310682983,
			"0.011": 0.0,
			"0.012": 0.0,
			"0.013": 0.0,
			"0.014": 0.0,
			"0.015": 0.0,
			"0.016": 0.0,
			"0.017": 0.0,
			"0.018": 0.0,
			"0.019": 0.0,
			"0.02": 0.0,
			"0.021": 0.0,
			"0.022": 0.0,
			"0.023": 0.0,
			"0.024": 0.0,
			"0.025": 0.0
		}
	}
}
