{
	 "smiles": "NC1=NN(CC1)C1=CC=CC=C1", 
	 "Tm": 442.15, 
	 "num_atms": 23, 
	 "gaussian": { 
		 "optdone": 1, 
		 "sigma_profile": "yes", 
		 "theory": "DFT", 
		 "functional": "B3LYP", 
		 "basiset": "6-31G**", 
		 "properties": { 
			 "R2extent": 2988.7027, 
			 "electric_dipole_moment_norm": 4.12806566082, 
			 "electric_quadrupole_moment_norm": 16.8892803147, 
			 "total_energy": -513.810747636, 
			 "HOMO_LUMO_gap": 0.18297, 
			 "cosmo_polarized_energy": -13.18, 
			 "cosmo_cavitation_energy": 26.0, 
			 "cosmo_dispersion_energy": -19.65, 
			 "cosmo_repulsion_energy": 1.58, 
			 "cosmo_total_nonelectrostatic_energy": 7.93, 
			 "SMD_solvation_energy": 2.84 
		},
		"coords": [
			{
				"x": 3.9372170568,
				"y": -1.6314514959,
				"z": -1.1690813406,
				"element": "N" 
			},
			{
				"x": 2.8473725999,
				"y": -1.4188301806,
				"z": -0.3431712633,
				"element": "C" 
			},
			{
				"x": 2.5712675907,
				"y": -0.2791274035,
				"z": 0.1822918546,
				"element": "N" 
			},
			{
				"x": 1.3758941614,
				"y": -0.4076666693,
				"z": 0.9073475233,
				"element": "N" 
			},
			{
				"x": 0.7048858298,
				"y": -1.6762675049,
				"z": 0.5766922001,
				"element": "C" 
			},
			{
				"x": 1.850043105,
				"y": -2.5114890333,
				"z": -0.0227296434,
				"element": "C" 
			},
			{
				"x": 0.6633287057,
				"y": 0.7501864813,
				"z": 1.2147865961,
				"element": "C" 
			},
			{
				"x": 1.2681986583,
				"y": 2.019960193,
				"z": 1.123514366,
				"element": "C" 
			},
			{
				"x": 0.555716126,
				"y": 3.1597440698,
				"z": 1.4809903239,
				"element": "C" 
			},
			{
				"x": -0.7646731749,
				"y": 3.0764938755,
				"z": 1.9339258755,
				"element": "C" 
			},
			{
				"x": -1.364616253,
				"y": 1.8207295518,
				"z": 2.02297135,
				"element": "C" 
			},
			{
				"x": -0.667498666,
				"y": 0.6658847815,
				"z": 1.6685542139,
				"element": "C" 
			},
			{
				"x": 4.3730273574,
				"y": -2.5401059573,
				"z": -1.0749843958,
				"element": "H" 
			},
			{
				"x": 4.611499432,
				"y": -0.8761057031,
				"z": -1.1406432793,
				"element": "H" 
			},
			{
				"x": 0.2654200172,
				"y": -2.1337225617,
				"z": 1.4668404486,
				"element": "H" 
			},
			{
				"x": -0.0991710598,
				"y": -1.510903326,
				"z": -0.1570857379,
				"element": "H" 
			},
			{
				"x": 2.2757853056,
				"y": -3.2142358031,
				"z": 0.7061540792,
				"element": "H" 
			},
			{
				"x": 1.5536038854,
				"y": -3.084870225,
				"z": -0.9052132493,
				"element": "H" 
			},
			{
				"x": 2.2878873797,
				"y": 2.0874467608,
				"z": 0.7664281454,
				"element": "H" 
			},
			{
				"x": 1.0406405257,
				"y": 4.1293285559,
				"z": 1.4004403615,
				"element": "H" 
			},
			{
				"x": -1.3126376848,
				"y": 3.9720437159,
				"z": 2.21006417,
				"element": "H" 
			},
			{
				"x": -2.390684789,
				"y": 1.7303440057,
				"z": 2.3700499762,
				"element": "H" 
			},
			{
				"x": -1.1580061091,
				"y": -0.2979861274,
				"z": 1.7530574254,
				"element": "H" 
			}
		],
		 "valence_orbital": [ 
			{
				"type": "occ",
				"energy": -0.30167,
				"method": "rhf"
			},
			{
				"type": "occ",
				"energy": -0.27985,
				"method": "rhf"
			},
			{
				"type": "occ",
				"energy": -0.24072,
				"method": "rhf"
			},
			{
				"type": "occ",
				"energy": -0.23099,
				"method": "rhf"
			},
			{
				"type": "occ",
				"energy": -0.16832,
				"method": "rhf"
			},
			{
				"type": "unocc",
				"energy": 0.01465,
				"method": "rhf"
			},
			{
				"type": "unocc",
				"energy": 0.02187,
				"method": "rhf"
			},
			{
				"type": "unocc",
				"energy": 0.03975,
				"method": "rhf"
			},
			{
				"type": "unocc",
				"energy": 0.07069,
				"method": "rhf"
			},
			{
				"type": "unocc",
				"energy": 0.09344,
				"method": "rhf"
			}
		],
		"cosmo_sigma_profile": { 
			"-0.025": 0.0,
			"-0.024": 0.0,
			"-0.023": 0.0,
			"-0.022": 0.0,
			"-0.021": 0.0,
			"-0.02": 0.0,
			"-0.019": 0.0,
			"-0.018": 0.0,
			"-0.017": 0.0,
			"-0.016": 0.0,
			"-0.015": 0.0,
			"-0.014": 0.157591503864,
			"-0.013": 1.73623210248,
			"-0.012": 2.55891680978,
			"-0.011": 2.32469295326,
			"-0.01": 3.48020862068,
			"-0.009": 2.61762226584,
			"-0.008": 1.38888907594,
			"-0.007": 1.9257848685,
			"-0.006": 8.35903863537,
			"-0.005": 16.4175778938,
			"-0.004": 21.0397811757,
			"-0.003": 18.9450402592,
			"-0.002": 18.0487531638,
			"-0.001": 9.63901576613,
			"0.0": 8.9088004918,
			"0.001": 8.25389910057,
			"0.002": 8.13308221929,
			"0.003": 8.44660721699,
			"0.004": 8.58926800695,
			"0.005": 10.9318140789,
			"0.006": 13.0774780966,
			"0.007": 11.4376964935,
			"0.008": 7.82761295667,
			"0.009": 3.74152327029,
			"0.01": 3.14019538821,
			"0.011": 1.97774193425,
			"0.012": 1.60486854573,
			"0.013": 1.18135277044,
			"0.014": 0.0150230514102,
			"0.015": 0.0,
			"0.016": 0.0,
			"0.017": 0.0,
			"0.018": 0.0,
			"0.019": 0.0,
			"0.02": 0.0,
			"0.021": 0.0,
			"0.022": 0.0,
			"0.023": 0.0,
			"0.024": 0.0,
			"0.025": 0.0
		}
	}
}
