{
	 "smiles": "CC(C)C1=CC(=C(C)C=C1O)C1(OS(=O)(=O)C2=CC=CC=C12)C1=CC(C(C)C)=C(O)C=C1C", 
	 "Tm": 494.15, 
	 "num_atms": 63, 
	 "gaussian": { 
		 "optdone": 1, 
		 "sigma_profile": "yes", 
		 "theory": "DFT", 
		 "functional": "B3LYP", 
		 "basiset": "6-31G**", 
		 "properties": { 
			 "R2extent": 14918.4497, 
			 "electric_dipole_moment_norm": 4.74891171112, 
			 "electric_quadrupole_moment_norm": 32.8945717083, 
			 "total_energy": -1821.210722, 
			 "HOMO_LUMO_gap": 0.17505, 
			 "cosmo_polarized_energy": -23.68, 
			 "cosmo_cavitation_energy": 62.65, 
			 "cosmo_dispersion_energy": -39.67, 
			 "cosmo_repulsion_energy": 3.02, 
			 "cosmo_total_nonelectrostatic_energy": 25.99, 
			 "SMD_solvation_energy": 10.42 
		},
		"coords": [
			{
				"x": -4.5699495132,
				"y": 1.580234098,
				"z": -1.7968463539,
				"element": "C" 
			},
			{
				"x": -4.1119497447,
				"y": 0.8819161665,
				"z": -0.5009486212,
				"element": "C" 
			},
			{
				"x": -5.3111107999,
				"y": 0.5346480005,
				"z": 0.4034900881,
				"element": "C" 
			},
			{
				"x": -3.2196538261,
				"y": -0.3222351753,
				"z": -0.7735757038,
				"element": "C" 
			},
			{
				"x": -1.8906101566,
				"y": -0.3257006411,
				"z": -0.3411241797,
				"element": "C" 
			},
			{
				"x": -0.9932990641,
				"y": -1.3847342147,
				"z": -0.5471466183,
				"element": "C" 
			},
			{
				"x": -1.4590423565,
				"y": -2.5412216669,
				"z": -1.2180193549,
				"element": "C" 
			},
			{
				"x": -0.634115151,
				"y": -3.7813328916,
				"z": -1.4820639046,
				"element": "C" 
			},
			{
				"x": -2.7839659671,
				"y": -2.5392766208,
				"z": -1.665553414,
				"element": "C" 
			},
			{
				"x": -3.6542143737,
				"y": -1.4669871107,
				"z": -1.4600268359,
				"element": "C" 
			},
			{
				"x": -4.9459748847,
				"y": -1.5090857403,
				"z": -1.9146946172,
				"element": "O" 
			},
			{
				"x": 0.4171171797,
				"y": -1.269935169,
				"z": 0.0560495747,
				"element": "C" 
			},
			{
				"x": 1.3810582767,
				"y": -1.8028040334,
				"z": -0.9360654479,
				"element": "O" 
			},
			{
				"x": 2.6512955188,
				"y": -2.6110457979,
				"z": -0.2537853969,
				"element": "S" 
			},
			{
				"x": 3.7558882178,
				"y": -1.6947500686,
				"z": 0.0100754081,
				"element": "O" 
			},
			{
				"x": 2.8789849295,
				"y": -3.8056164703,
				"z": -1.0604086277,
				"element": "O" 
			},
			{
				"x": 1.7372627909,
				"y": -2.9679860507,
				"z": 1.2296920721,
				"element": "C" 
			},
			{
				"x": 2.0789558879,
				"y": -3.8818231872,
				"z": 2.2216023796,
				"element": "C" 
			},
			{
				"x": 1.190824308,
				"y": -4.0372332486,
				"z": 3.2864704623,
				"element": "C" 
			},
			{
				"x": 0.0007435024,
				"y": -3.2998682097,
				"z": 3.3271754748,
				"element": "C" 
			},
			{
				"x": -0.3202900639,
				"y": -2.3914137711,
				"z": 2.315428922,
				"element": "C" 
			},
			{
				"x": 0.5711816049,
				"y": -2.2143428248,
				"z": 1.2565672526,
				"element": "C" 
			},
			{
				"x": 0.8436100502,
				"y": 0.1750693119,
				"z": 0.3750558606,
				"element": "C" 
			},
			{
				"x": 0.9685929094,
				"y": 0.6075779375,
				"z": 1.7015560931,
				"element": "C" 
			},
			{
				"x": 1.3409606673,
				"y": 1.9024165933,
				"z": 2.075292968,
				"element": "C" 
			},
			{
				"x": 1.4536211881,
				"y": 2.2727384556,
				"z": 3.5485651294,
				"element": "C" 
			},
			{
				"x": 2.8935024552,
				"y": 2.6476969089,
				"z": 3.9520410046,
				"element": "C" 
			},
			{
				"x": 0.4506043752,
				"y": 3.3687346148,
				"z": 3.9601894803,
				"element": "C" 
			},
			{
				"x": 1.603142713,
				"y": 2.8025845464,
				"z": 1.0308890667,
				"element": "C" 
			},
			{
				"x": 1.972722642,
				"y": 4.0837378603,
				"z": 1.3462360233,
				"element": "O" 
			},
			{
				"x": 1.4842914445,
				"y": 2.3952689502,
				"z": -0.2995465906,
				"element": "C" 
			},
			{
				"x": 1.1126303785,
				"y": 1.0985176516,
				"z": -0.662545374,
				"element": "C" 
			},
			{
				"x": 1.0476409786,
				"y": 0.767298303,
				"z": -2.136872334,
				"element": "C" 
			},
			{
				"x": -5.2082646595,
				"y": 0.9239793043,
				"z": -2.3936119374,
				"element": "H" 
			},
			{
				"x": -5.138646825,
				"y": 2.4860956918,
				"z": -1.5588499292,
				"element": "H" 
			},
			{
				"x": -3.7113015299,
				"y": 1.8717325406,
				"z": -2.4103060224,
				"element": "H" 
			},
			{
				"x": -3.4897405759,
				"y": 1.5998331565,
				"z": 0.0494663793,
				"element": "H" 
			},
			{
				"x": -4.9769326342,
				"y": 0.0882394891,
				"z": 1.3459094699,
				"element": "H" 
			},
			{
				"x": -5.8807814919,
				"y": 1.4396407197,
				"z": 0.64224696,
				"element": "H" 
			},
			{
				"x": -5.9842600445,
				"y": -0.171897937,
				"z": -0.0883499065,
				"element": "H" 
			},
			{
				"x": -1.5358711649,
				"y": 0.5552005502,
				"z": 0.1824527922,
				"element": "H" 
			},
			{
				"x": -0.1977597725,
				"y": -4.1864844755,
				"z": -0.5646199205,
				"element": "H" 
			},
			{
				"x": -1.261403875,
				"y": -4.5628048677,
				"z": -1.9195121102,
				"element": "H" 
			},
			{
				"x": 0.197169373,
				"y": -3.5858926824,
				"z": -2.1621523074,
				"element": "H" 
			},
			{
				"x": -3.1546121368,
				"y": -3.417098012,
				"z": -2.1933537217,
				"element": "H" 
			},
			{
				"x": -5.0914103858,
				"y": -2.3487318895,
				"z": -2.3699655177,
				"element": "H" 
			},
			{
				"x": 2.9933284973,
				"y": -4.4625167845,
				"z": 2.1576893766,
				"element": "H" 
			},
			{
				"x": 1.4172002949,
				"y": -4.7441329413,
				"z": 4.0784684792,
				"element": "H" 
			},
			{
				"x": -0.6896067642,
				"y": -3.4437192359,
				"z": 4.1529410209,
				"element": "H" 
			},
			{
				"x": -1.2539038322,
				"y": -1.8385904504,
				"z": 2.3415897881,
				"element": "H" 
			},
			{
				"x": 0.7743667442,
				"y": -0.0941857761,
				"z": 2.5047043849,
				"element": "H" 
			},
			{
				"x": 1.1883249378,
				"y": 1.3661436628,
				"z": 4.108839928,
				"element": "H" 
			},
			{
				"x": 2.9507844494,
				"y": 2.8247592476,
				"z": 5.0319711417,
				"element": "H" 
			},
			{
				"x": 3.5928127794,
				"y": 1.8434544502,
				"z": 3.7025310627,
				"element": "H" 
			},
			{
				"x": 3.2216495652,
				"y": 3.5555506945,
				"z": 3.4399664085,
				"element": "H" 
			},
			{
				"x": -0.5761986405,
				"y": 3.0733105878,
				"z": 3.7200999545,
				"element": "H" 
			},
			{
				"x": 0.6629575699,
				"y": 4.309598091,
				"z": 3.4465398015,
				"element": "H" 
			},
			{
				"x": 0.5067017886,
				"y": 3.5487653964,
				"z": 5.0396266786,
				"element": "H" 
			},
			{
				"x": 2.1445190696,
				"y": 4.5704401321,
				"z": 0.5295683131,
				"element": "H" 
			},
			{
				"x": 1.6957006869,
				"y": 3.1166522223,
				"z": -1.087972971,
				"element": "H" 
			},
			{
				"x": 1.93676618,
				"y": 0.212248543,
				"z": -2.4496403781,
				"element": "H" 
			},
			{
				"x": 0.9924992427,
				"y": 1.685298142,
				"z": -2.7290288926,
				"element": "H" 
			},
			{
				"x": 0.1830570371,
				"y": 0.1486659249,
				"z": -2.3857022105,
				"element": "H" 
			}
		],
		 "valence_orbital": [ 
			{
				"type": "occ",
				"energy": -0.27079,
				"method": "rhf"
			},
			{
				"type": "occ",
				"energy": -0.24577,
				"method": "rhf"
			},
			{
				"type": "occ",
				"energy": -0.24116,
				"method": "rhf"
			},
			{
				"type": "occ",
				"energy": -0.22107,
				"method": "rhf"
			},
			{
				"type": "occ",
				"energy": -0.21727,
				"method": "rhf"
			},
			{
				"type": "unocc",
				"energy": -0.04222,
				"method": "rhf"
			},
			{
				"type": "unocc",
				"energy": -0.03278,
				"method": "rhf"
			},
			{
				"type": "unocc",
				"energy": -0.0101,
				"method": "rhf"
			},
			{
				"type": "unocc",
				"energy": -0.00471,
				"method": "rhf"
			},
			{
				"type": "unocc",
				"energy": 0.00201,
				"method": "rhf"
			}
		],
		"cosmo_sigma_profile": { 
			"-0.025": 0.0,
			"-0.024": 0.0,
			"-0.023": 0.0,
			"-0.022": 0.0,
			"-0.021": 0.0,
			"-0.02": 0.0,
			"-0.019": 0.0,
			"-0.018": 0.383978772162,
			"-0.017": 2.39348464861,
			"-0.016": 2.27491645695,
			"-0.015": 2.00877196282,
			"-0.014": 2.17681829363,
			"-0.013": 2.04221270361,
			"-0.012": 1.64457371265,
			"-0.011": 1.22873513425,
			"-0.01": 2.67170783554,
			"-0.009": 3.91021533312,
			"-0.008": 5.67656035375,
			"-0.007": 9.93981970456,
			"-0.006": 14.2312907585,
			"-0.005": 14.5093336284,
			"-0.004": 17.758326311,
			"-0.003": 28.4730448585,
			"-0.002": 42.7232690294,
			"-0.001": 49.7399877312,
			"0.0": 59.8868699334,
			"0.001": 61.2868347271,
			"0.002": 50.6815054608,
			"0.003": 27.1979605663,
			"0.004": 23.9986929618,
			"0.005": 16.8533442859,
			"0.006": 13.4812294816,
			"0.007": 7.6404660065,
			"0.008": 5.75872400185,
			"0.009": 8.05205241857,
			"0.01": 11.6793189683,
			"0.011": 3.37623477927,
			"0.012": 0.0,
			"0.013": 0.0,
			"0.014": 0.0,
			"0.015": 0.0,
			"0.016": 0.0,
			"0.017": 0.0,
			"0.018": 0.0,
			"0.019": 0.0,
			"0.02": 0.0,
			"0.021": 0.0,
			"0.022": 0.0,
			"0.023": 0.0,
			"0.024": 0.0,
			"0.025": 0.0
		}
	}
}
