{
	 "smiles": "CC(C)C1=CC(O)=C(C=C1)C(O)=O", 
	 "Tm": 367.15, 
	 "num_atms": 25, 
	 "gaussian": { 
		 "optdone": 1, 
		 "sigma_profile": "yes", 
		 "theory": "DFT", 
		 "functional": "B3LYP", 
		 "basiset": "6-31G**", 
		 "properties": { 
			 "R2extent": 3264.9691, 
			 "electric_dipole_moment_norm": 3.72688582734, 
			 "electric_quadrupole_moment_norm": 6.81811288848, 
			 "total_energy": -613.99221122, 
			 "HOMO_LUMO_gap": 0.19043, 
			 "cosmo_polarized_energy": -14.97, 
			 "cosmo_cavitation_energy": 28.55, 
			 "cosmo_dispersion_energy": -20.6, 
			 "cosmo_repulsion_energy": 1.65, 
			 "cosmo_total_nonelectrostatic_energy": 9.6, 
			 "SMD_solvation_energy": 6.62 
		},
		"coords": [
			{
				"x": -1.0924140949,
				"y": 1.9515991724,
				"z": 2.4670357762,
				"element": "C" 
			},
			{
				"x": -0.3352800521,
				"y": 0.6499487488,
				"z": 2.1418189641,
				"element": "C" 
			},
			{
				"x": 1.0658708252,
				"y": 0.6471620479,
				"z": 2.7821008872,
				"element": "C" 
			},
			{
				"x": -0.2743382204,
				"y": 0.389397166,
				"z": 0.6433229947,
				"element": "C" 
			},
			{
				"x": 0.3857863434,
				"y": 1.2706806575,
				"z": -0.2167603742,
				"element": "C" 
			},
			{
				"x": 0.4533940507,
				"y": 1.0498128559,
				"z": -1.5987145483,
				"element": "C" 
			},
			{
				"x": 1.1041576106,
				"y": 1.9284043389,
				"z": -2.404844249,
				"element": "O" 
			},
			{
				"x": -0.1609398992,
				"y": -0.0959249693,
				"z": -2.1535540515,
				"element": "C" 
			},
			{
				"x": -0.8214416062,
				"y": -0.9742753927,
				"z": -1.2796490359,
				"element": "C" 
			},
			{
				"x": -0.8822668857,
				"y": -0.7459962713,
				"z": 0.0877234944,
				"element": "C" 
			},
			{
				"x": -0.1802803317,
				"y": -0.4734416338,
				"z": -3.5916451649,
				"element": "C" 
			},
			{
				"x": 0.4597580572,
				"y": 0.3814180578,
				"z": -4.4197129535,
				"element": "O" 
			},
			{
				"x": -0.7275932075,
				"y": -1.4767500766,
				"z": -4.0160727156,
				"element": "O" 
			},
			{
				"x": -1.1830658488,
				"y": 2.0823560252,
				"z": 3.5506972359,
				"element": "H" 
			},
			{
				"x": -0.5682379871,
				"y": 2.8280323254,
				"z": 2.0702108353,
				"element": "H" 
			},
			{
				"x": -2.0993615676,
				"y": 1.9428247615,
				"z": 2.0388954922,
				"element": "H" 
			},
			{
				"x": -0.9012283658,
				"y": -0.1795081134,
				"z": 2.5845930174,
				"element": "H" 
			},
			{
				"x": 1.5940007728,
				"y": -0.2891057526,
				"z": 2.5776288284,
				"element": "H" 
			},
			{
				"x": 1.6814801525,
				"y": 1.4685874576,
				"z": 2.399144984,
				"element": "H" 
			},
			{
				"x": 0.9916814873,
				"y": 0.7674163663,
				"z": 3.8682213285,
				"element": "H" 
			},
			{
				"x": 0.866921539,
				"y": 2.1606477956,
				"z": 0.1860314089,
				"element": "H" 
			},
			{
				"x": 1.4578981568,
				"y": 2.6426253616,
				"z": -1.8580415594,
				"element": "H" 
			},
			{
				"x": -1.2877606035,
				"y": -1.8485354045,
				"z": -1.7206438142,
				"element": "H" 
			},
			{
				"x": -1.4026201608,
				"y": -1.4485742741,
				"z": 0.732150601,
				"element": "H" 
			},
			{
				"x": 0.3538798356,
				"y": -0.0057012499,
				"z": -5.3050373818,
				"element": "H" 
			}
		],
		 "valence_orbital": [ 
			{
				"type": "occ",
				"energy": -0.32841,
				"method": "rhf"
			},
			{
				"type": "occ",
				"energy": -0.304,
				"method": "rhf"
			},
			{
				"type": "occ",
				"energy": -0.26664,
				"method": "rhf"
			},
			{
				"type": "occ",
				"energy": -0.25217,
				"method": "rhf"
			},
			{
				"type": "occ",
				"energy": -0.22975,
				"method": "rhf"
			},
			{
				"type": "unocc",
				"energy": -0.03932,
				"method": "rhf"
			},
			{
				"type": "unocc",
				"energy": 0.00396,
				"method": "rhf"
			},
			{
				"type": "unocc",
				"energy": 0.06212,
				"method": "rhf"
			},
			{
				"type": "unocc",
				"energy": 0.06334,
				"method": "rhf"
			},
			{
				"type": "unocc",
				"energy": 0.08163,
				"method": "rhf"
			}
		],
		"cosmo_sigma_profile": { 
			"-0.025": 0.0,
			"-0.024": 0.0,
			"-0.023": 0.0,
			"-0.022": 0.0,
			"-0.021": 0.0,
			"-0.02": 0.0,
			"-0.019": 0.0,
			"-0.018": 1.32912226522,
			"-0.017": 1.86435369173,
			"-0.016": 1.72877339155,
			"-0.015": 2.19468392563,
			"-0.014": 1.17113064655,
			"-0.013": 1.35301796543,
			"-0.012": 1.73487972092,
			"-0.011": 2.34803121615,
			"-0.01": 1.78590760179,
			"-0.009": 1.35442723924,
			"-0.008": 1.68403006312,
			"-0.007": 1.620722853,
			"-0.006": 4.14969997964,
			"-0.005": 8.51037715694,
			"-0.004": 10.2625123189,
			"-0.003": 16.822382654,
			"-0.002": 20.0418650643,
			"-0.001": 23.2504449407,
			"0.0": 20.9894023113,
			"0.001": 24.7153161472,
			"0.002": 15.2208574992,
			"0.003": 12.6401087104,
			"0.004": 11.6667398714,
			"0.005": 5.83523393409,
			"0.006": 2.90095455179,
			"0.007": 3.47510193285,
			"0.008": 2.91608469144,
			"0.009": 2.68445743311,
			"0.01": 3.46733041574,
			"0.011": 3.83770812576,
			"0.012": 6.24730086213,
			"0.013": 3.10879147909,
			"0.014": 1.43007857757,
			"0.015": 0.281634711094,
			"0.016": 0.0,
			"0.017": 0.0,
			"0.018": 0.0,
			"0.019": 0.0,
			"0.02": 0.0,
			"0.021": 0.0,
			"0.022": 0.0,
			"0.023": 0.0,
			"0.024": 0.0,
			"0.025": 0.0
		}
	}
}
