{
	 "smiles": "CP(C)CCP(C)C", 
	 "Tm": 452.65, 
	 "num_atms": 24, 
	 "gaussian": { 
		 "optdone": 1, 
		 "sigma_profile": "yes", 
		 "theory": "DFT", 
		 "functional": "B3LYP", 
		 "basiset": "6-31G**", 
		 "properties": { 
			 "R2extent": 2394.5643, 
			 "electric_dipole_moment_norm": 1.90650076056, 
			 "electric_quadrupole_moment_norm": 5.39017110211, 
			 "total_energy": -921.00521152, 
			 "HOMO_LUMO_gap": 0.26445, 
			 "cosmo_polarized_energy": -6.44, 
			 "cosmo_cavitation_energy": 28.13, 
			 "cosmo_dispersion_energy": -21.27, 
			 "cosmo_repulsion_energy": 2.11, 
			 "cosmo_total_nonelectrostatic_energy": 8.97, 
			 "SMD_solvation_energy": 6.43 
		},
		"coords": [
			{
				"x": 0.9788366989,
				"y": -2.9839305439,
				"z": -0.8151629659,
				"element": "C" 
			},
			{
				"x": -0.3534913462,
				"y": -1.7394924121,
				"z": -0.4147878412,
				"element": "P" 
			},
			{
				"x": -0.5406916579,
				"y": -2.0834229626,
				"z": 1.4110123639,
				"element": "C" 
			},
			{
				"x": 0.704470157,
				"y": -0.1887050512,
				"z": -0.354370749,
				"element": "C" 
			},
			{
				"x": -0.0903605673,
				"y": 1.0696064022,
				"z": 0.0255841169,
				"element": "C" 
			},
			{
				"x": 0.9244438319,
				"y": 2.6460962541,
				"z": -0.0870187317,
				"element": "P" 
			},
			{
				"x": 1.9432544033,
				"y": 2.4957902391,
				"z": 1.4706063677,
				"element": "C" 
			},
			{
				"x": -0.3592717936,
				"y": 3.8601208952,
				"z": 0.514984133,
				"element": "C" 
			},
			{
				"x": 1.3199443732,
				"y": -2.8359095627,
				"z": -1.8443062605,
				"element": "H" 
			},
			{
				"x": 0.5651357575,
				"y": -3.9946273219,
				"z": -0.7452131207,
				"element": "H" 
			},
			{
				"x": 1.8426605463,
				"y": -2.9116721763,
				"z": -0.144266531,
				"element": "H" 
			},
			{
				"x": -1.2080417635,
				"y": -1.3437465674,
				"z": 1.8628211601,
				"element": "H" 
			},
			{
				"x": -1.0012203537,
				"y": -3.0668989815,
				"z": 1.5468306238,
				"element": "H" 
			},
			{
				"x": 0.417123361,
				"y": -2.067805067,
				"z": 1.9442714582,
				"element": "H" 
			},
			{
				"x": 1.5460484166,
				"y": -0.3433018105,
				"z": 0.3343531245,
				"element": "H" 
			},
			{
				"x": 1.1331430589,
				"y": -0.0634881065,
				"z": -1.3564937449,
				"element": "H" 
			},
			{
				"x": -0.9353049533,
				"y": 1.1920042007,
				"z": -0.6634678978,
				"element": "H" 
			},
			{
				"x": -0.5141277848,
				"y": 0.9754111204,
				"z": 1.0345705725,
				"element": "H" 
			},
			{
				"x": 1.3339001723,
				"y": 2.2715746639,
				"z": 2.3540257508,
				"element": "H" 
			},
			{
				"x": 2.6933388911,
				"y": 1.7086745479,
				"z": 1.3504431696,
				"element": "H" 
			},
			{
				"x": 2.4780677171,
				"y": 3.4349243856,
				"z": 1.6430999845,
				"element": "H" 
			},
			{
				"x": -0.8263939927,
				"y": 3.5514783791,
				"z": 1.4573522337,
				"element": "H" 
			},
			{
				"x": 0.1063337367,
				"y": 4.8398191955,
				"z": 0.659736089,
				"element": "H" 
			},
			{
				"x": -1.1397969089,
				"y": 3.9729002801,
				"z": -0.2436033056,
				"element": "H" 
			}
		],
		 "valence_orbital": [ 
			{
				"type": "occ",
				"energy": -0.32013,
				"method": "rhf"
			},
			{
				"type": "occ",
				"energy": -0.31849,
				"method": "rhf"
			},
			{
				"type": "occ",
				"energy": -0.28806,
				"method": "rhf"
			},
			{
				"type": "occ",
				"energy": -0.22237,
				"method": "rhf"
			},
			{
				"type": "occ",
				"energy": -0.21979,
				"method": "rhf"
			},
			{
				"type": "unocc",
				"energy": 0.04466,
				"method": "rhf"
			},
			{
				"type": "unocc",
				"energy": 0.0529,
				"method": "rhf"
			},
			{
				"type": "unocc",
				"energy": 0.06701,
				"method": "rhf"
			},
			{
				"type": "unocc",
				"energy": 0.0733,
				"method": "rhf"
			},
			{
				"type": "unocc",
				"energy": 0.08077,
				"method": "rhf"
			}
		],
		"cosmo_sigma_profile": { 
			"-0.025": 0.0,
			"-0.024": 0.0,
			"-0.023": 0.0,
			"-0.022": 0.0,
			"-0.021": 0.0,
			"-0.02": 0.0,
			"-0.019": 0.0,
			"-0.018": 0.0,
			"-0.017": 0.0,
			"-0.016": 0.0,
			"-0.015": 0.0,
			"-0.014": 0.0,
			"-0.013": 0.0,
			"-0.012": 0.0,
			"-0.011": 0.0,
			"-0.01": 0.0,
			"-0.009": 0.0,
			"-0.008": 0.0,
			"-0.007": 0.0,
			"-0.006": 0.0,
			"-0.005": 0.621440258534,
			"-0.004": 20.3818901786,
			"-0.003": 43.1254476585,
			"-0.002": 27.6905261067,
			"-0.001": 29.3072965644,
			"0.0": 31.83695017,
			"0.001": 29.4951463123,
			"0.002": 9.89219177995,
			"0.003": 3.83756779388,
			"0.004": 2.74041210319,
			"0.005": 2.91558289838,
			"0.006": 2.41177007491,
			"0.007": 2.41368620358,
			"0.008": 1.20084128781,
			"0.009": 1.6412038934,
			"0.01": 1.94565942461,
			"0.011": 1.37075230119,
			"0.012": 2.05971822391,
			"0.013": 1.59187228089,
			"0.014": 1.01779623625,
			"0.015": 1.63202928791,
			"0.016": 1.48154727355,
			"0.017": 0.694472963307,
			"0.018": 0.00455771822513,
			"0.019": 0.0,
			"0.02": 0.0,
			"0.021": 0.0,
			"0.022": 0.0,
			"0.023": 0.0,
			"0.024": 0.0,
			"0.025": 0.0
		}
	}
}
