{
	 "smiles": "OC(=O)C1=CC(Cl)=CC=C1O", 
	 "Tm": 445.15, 
	 "num_atms": 16, 
	 "gaussian": { 
		 "optdone": 1, 
		 "sigma_profile": "yes", 
		 "theory": "DFT", 
		 "functional": "B3LYP", 
		 "basiset": "6-31G**", 
		 "properties": { 
			 "R2extent": 3057.4502, 
			 "electric_dipole_moment_norm": 2.33986189977, 
			 "electric_quadrupole_moment_norm": 12.665463423, 
			 "total_energy": -955.637191578, 
			 "HOMO_LUMO_gap": 0.16833, 
			 "cosmo_polarized_energy": -12.61, 
			 "cosmo_cavitation_energy": 22.28, 
			 "cosmo_dispersion_energy": -17.21, 
			 "cosmo_repulsion_energy": 1.37, 
			 "cosmo_total_nonelectrostatic_energy": 6.44, 
			 "SMD_solvation_energy": 5.02 
		},
		"coords": [
			{
				"x": 0.8877466603,
				"y": -3.9819243007,
				"z": -1.3619092295,
				"element": "O" 
			},
			{
				"x": 1.1872881492,
				"y": -2.6698883347,
				"z": -1.3201610796,
				"element": "C" 
			},
			{
				"x": 2.3310953972,
				"y": -2.330175681,
				"z": -1.6054492274,
				"element": "O" 
			},
			{
				"x": 0.1431048341,
				"y": -1.6962668864,
				"z": -0.9295313558,
				"element": "C" 
			},
			{
				"x": -1.2045310126,
				"y": -2.0555417638,
				"z": -0.7311310156,
				"element": "C" 
			},
			{
				"x": -2.1372224393,
				"y": -1.1086036759,
				"z": -0.3459784418,
				"element": "C" 
			},
			{
				"x": -3.8130750899,
				"y": -1.5772585783,
				"z": -0.1082244628,
				"element": "Cl" 
			},
			{
				"x": -1.7542059912,
				"y": 0.226316281,
				"z": -0.1502128118,
				"element": "C" 
			},
			{
				"x": -0.4379517336,
				"y": 0.6025505032,
				"z": -0.3551448863,
				"element": "C" 
			},
			{
				"x": 0.5280608704,
				"y": -0.3387286109,
				"z": -0.7567446784,
				"element": "C" 
			},
			{
				"x": 1.7766982357,
				"y": 0.0925933941,
				"z": -0.9553466252,
				"element": "O" 
			},
			{
				"x": -0.0003378634,
				"y": -4.1504357248,
				"z": -1.0198441524,
				"element": "H" 
			},
			{
				"x": -1.5504440125,
				"y": -3.0715153294,
				"z": -0.8984001944,
				"element": "H" 
			},
			{
				"x": -2.4936919431,
				"y": 0.9589964074,
				"z": 0.1541463555,
				"element": "H" 
			},
			{
				"x": -0.1213724598,
				"y": 1.6307445493,
				"z": -0.2187101519,
				"element": "H" 
			},
			{
				"x": 2.3030383985,
				"y": -0.6886622491,
				"z": -1.2652580427,
				"element": "H" 
			}
		],
		 "valence_orbital": [ 
			{
				"type": "occ",
				"energy": -0.32851,
				"method": "rhf"
			},
			{
				"type": "occ",
				"energy": -0.32671,
				"method": "rhf"
			},
			{
				"type": "occ",
				"energy": -0.29919,
				"method": "rhf"
			},
			{
				"type": "occ",
				"energy": -0.28884,
				"method": "rhf"
			},
			{
				"type": "occ",
				"energy": -0.23913,
				"method": "rhf"
			},
			{
				"type": "unocc",
				"energy": -0.0708,
				"method": "rhf"
			},
			{
				"type": "unocc",
				"energy": -0.02057,
				"method": "rhf"
			},
			{
				"type": "unocc",
				"energy": 0.01091,
				"method": "rhf"
			},
			{
				"type": "unocc",
				"energy": 0.03127,
				"method": "rhf"
			},
			{
				"type": "unocc",
				"energy": 0.04621,
				"method": "rhf"
			}
		],
		"cosmo_sigma_profile": { 
			"-0.025": 0.0,
			"-0.024": 0.0,
			"-0.023": 0.0,
			"-0.022": 0.0,
			"-0.021": 0.090470695907,
			"-0.02": 1.09714897313,
			"-0.019": 0.72394603295,
			"-0.018": 1.0920917203,
			"-0.017": 0.805487708087,
			"-0.016": 1.18068627583,
			"-0.015": 0.932987113115,
			"-0.014": 0.777817512537,
			"-0.013": 1.35334414739,
			"-0.012": 1.0234843365,
			"-0.011": 0.664064495358,
			"-0.01": 1.10520174835,
			"-0.009": 1.56277868515,
			"-0.008": 4.1487213385,
			"-0.007": 5.85590663084,
			"-0.006": 6.08358331388,
			"-0.005": 6.70051460343,
			"-0.004": 8.45426539741,
			"-0.003": 9.46989462118,
			"-0.002": 9.82691596245,
			"-0.001": 10.8711833726,
			"0.0": 13.8795511272,
			"0.001": 20.5795354416,
			"0.002": 16.3808476985,
			"0.003": 9.92973050967,
			"0.004": 12.0327753572,
			"0.005": 8.37822934544,
			"0.006": 3.11333411066,
			"0.007": 3.43733953993,
			"0.008": 4.69215547391,
			"0.009": 5.60163219691,
			"0.01": 5.18801431147,
			"0.011": 3.05933676718,
			"0.012": 1.47093776808,
			"0.013": 0.0966537853687,
			"0.014": 0.0,
			"0.015": 0.0,
			"0.016": 0.0,
			"0.017": 0.0,
			"0.018": 0.0,
			"0.019": 0.0,
			"0.02": 0.0,
			"0.021": 0.0,
			"0.022": 0.0,
			"0.023": 0.0,
			"0.024": 0.0,
			"0.025": 0.0
		}
	}
}
