{
	 "smiles": "CCOC1=CC=C(C=C1)S(=O)(=O)NC1=CC=C(C=C1)C(O)=O", 
	 "Tm": 500.15, 
	 "num_atms": 37, 
	 "gaussian": { 
		 "optdone": 1, 
		 "sigma_profile": "yes", 
		 "theory": "DFT", 
		 "functional": "B3LYP", 
		 "basiset": "6-31G**", 
		 "properties": { 
			 "R2extent": 10595.8881, 
			 "electric_dipole_moment_norm": 7.41785307619, 
			 "electric_quadrupole_moment_norm": 26.7268746603, 
			 "total_energy": -1409.64240685, 
			 "HOMO_LUMO_gap": 0.18182, 
			 "cosmo_polarized_energy": -22.59, 
			 "cosmo_cavitation_energy": 43.14, 
			 "cosmo_dispersion_energy": -30.65, 
			 "cosmo_repulsion_energy": 2.32, 
			 "cosmo_total_nonelectrostatic_energy": 14.81, 
			 "SMD_solvation_energy": 8.12 
		},
		"coords": [
			{
				"x": 4.2991251229,
				"y": -0.9192941909,
				"z": 1.3808631555,
				"element": "C" 
			},
			{
				"x": 4.6847022121,
				"y": -0.2054954962,
				"z": 0.0904020083,
				"element": "C" 
			},
			{
				"x": 3.6032771235,
				"y": -0.1540007053,
				"z": -0.8506460756,
				"element": "O" 
			},
			{
				"x": 2.6358397969,
				"y": 0.7890963298,
				"z": -0.7353759509,
				"element": "C" 
			},
			{
				"x": 2.5951385151,
				"y": 1.79025466,
				"z": 0.2488873172,
				"element": "C" 
			},
			{
				"x": 1.5540610585,
				"y": 2.7165221117,
				"z": 0.2502120997,
				"element": "C" 
			},
			{
				"x": 0.5565443206,
				"y": 2.6481238427,
				"z": -0.7231603642,
				"element": "C" 
			},
			{
				"x": 0.5936528289,
				"y": 1.6568866827,
				"z": -1.7133640795,
				"element": "C" 
			},
			{
				"x": 1.6270440044,
				"y": 0.7330248592,
				"z": -1.7142901181,
				"element": "C" 
			},
			{
				"x": -0.7816654691,
				"y": 3.8267870193,
				"z": -0.6862898591,
				"element": "S" 
			},
			{
				"x": -1.3109568078,
				"y": 3.9499725401,
				"z": -2.0433203606,
				"element": "O" 
			},
			{
				"x": -0.3576085817,
				"y": 4.9826045918,
				"z": 0.1041019982,
				"element": "O" 
			},
			{
				"x": -2.013832455,
				"y": 3.1405461761,
				"z": 0.2753107182,
				"element": "N" 
			},
			{
				"x": -2.6834124623,
				"y": 1.9275419967,
				"z": 0.010295688,
				"element": "C" 
			},
			{
				"x": -3.138457003,
				"y": 1.6001714249,
				"z": -1.2791387867,
				"element": "C" 
			},
			{
				"x": -3.8225599603,
				"y": 0.4086743293,
				"z": -1.4816542653,
				"element": "C" 
			},
			{
				"x": -4.0890117948,
				"y": -0.4636562574,
				"z": -0.4167299233,
				"element": "C" 
			},
			{
				"x": -3.6512916009,
				"y": -0.1233156939,
				"z": 0.8707327097,
				"element": "C" 
			},
			{
				"x": -2.9460079769,
				"y": 1.055022584,
				"z": 1.0799902007,
				"element": "C" 
			},
			{
				"x": -4.8325053745,
				"y": -1.7135626177,
				"z": -0.7004767628,
				"element": "C" 
			},
			{
				"x": -5.0448334658,
				"y": -2.4710436082,
				"z": 0.4079324116,
				"element": "O" 
			},
			{
				"x": -5.2259956359,
				"y": -2.0585817802,
				"z": -1.7982238496,
				"element": "O" 
			},
			{
				"x": 5.1719668211,
				"y": -0.999029024,
				"z": 2.0371475169,
				"element": "H" 
			},
			{
				"x": 3.9391969934,
				"y": -1.9284605169,
				"z": 1.1623154052,
				"element": "H" 
			},
			{
				"x": 3.5129826595,
				"y": -0.3862805908,
				"z": 1.9225305309,
				"element": "H" 
			},
			{
				"x": 5.4676070469,
				"y": -0.7605293082,
				"z": -0.4327668666,
				"element": "H" 
			},
			{
				"x": 5.0686437013,
				"y": 0.8041226886,
				"z": 0.2801342346,
				"element": "H" 
			},
			{
				"x": 3.3639105763,
				"y": 1.8619196344,
				"z": 1.0081401344,
				"element": "H" 
			},
			{
				"x": 1.5267364889,
				"y": 3.5057513076,
				"z": 0.9939492502,
				"element": "H" 
			},
			{
				"x": -0.1698313131,
				"y": 1.628653088,
				"z": -2.4819853866,
				"element": "H" 
			},
			{
				"x": 1.6874560435,
				"y": -0.0404509752,
				"z": -2.4722023437,
				"element": "H" 
			},
			{
				"x": -1.819794677,
				"y": 3.3274523046,
				"z": 1.2533523258,
				"element": "H" 
			},
			{
				"x": -2.9661235085,
				"y": 2.2877691113,
				"z": -2.0977135599,
				"element": "H" 
			},
			{
				"x": -4.179613632,
				"y": 0.1408855483,
				"z": -2.4704407643,
				"element": "H" 
			},
			{
				"x": -3.8538360944,
				"y": -0.7895019708,
				"z": 1.7015225754,
				"element": "H" 
			},
			{
				"x": -2.5940275284,
				"y": 1.3062774916,
				"z": 2.0773093297,
				"element": "H" 
			},
			{
				"x": -5.5342199723,
				"y": -3.2511575872,
				"z": 0.0998497065,
				"element": "H" 
			}
		],
		 "valence_orbital": [ 
			{
				"type": "occ",
				"energy": -0.27686,
				"method": "rhf"
			},
			{
				"type": "occ",
				"energy": -0.27535,
				"method": "rhf"
			},
			{
				"type": "occ",
				"energy": -0.26635,
				"method": "rhf"
			},
			{
				"type": "occ",
				"energy": -0.24922,
				"method": "rhf"
			},
			{
				"type": "occ",
				"energy": -0.23313,
				"method": "rhf"
			},
			{
				"type": "unocc",
				"energy": -0.05131,
				"method": "rhf"
			},
			{
				"type": "unocc",
				"energy": -0.03142,
				"method": "rhf"
			},
			{
				"type": "unocc",
				"energy": -0.02604,
				"method": "rhf"
			},
			{
				"type": "unocc",
				"energy": -0.01469,
				"method": "rhf"
			},
			{
				"type": "unocc",
				"energy": 0.04355,
				"method": "rhf"
			}
		],
		"cosmo_sigma_profile": { 
			"-0.025": 0.0,
			"-0.024": 0.0,
			"-0.023": 0.0,
			"-0.022": 0.0,
			"-0.021": 0.0,
			"-0.02": 0.0,
			"-0.019": 0.0,
			"-0.018": 0.597511340814,
			"-0.017": 1.05870899853,
			"-0.016": 1.3441450417,
			"-0.015": 2.05894019375,
			"-0.014": 1.79104370426,
			"-0.013": 1.94472784865,
			"-0.012": 2.03954386589,
			"-0.011": 2.08911507575,
			"-0.01": 2.70646122895,
			"-0.009": 1.44926181795,
			"-0.008": 3.61341538959,
			"-0.007": 11.7056453737,
			"-0.006": 17.0451532278,
			"-0.005": 18.3301172406,
			"-0.004": 24.0246524136,
			"-0.003": 21.3401630324,
			"-0.002": 22.959749866,
			"-0.001": 22.1482490275,
			"0.0": 25.5873464795,
			"0.001": 27.2280387291,
			"0.002": 32.5078117719,
			"0.003": 27.4815879789,
			"0.004": 9.62963652578,
			"0.005": 9.53688778132,
			"0.006": 6.82066494948,
			"0.007": 8.42584046906,
			"0.008": 6.78502887208,
			"0.009": 6.75275646052,
			"0.01": 10.0992541567,
			"0.011": 9.54923544918,
			"0.012": 5.39613355671,
			"0.013": 0.273715770352,
			"0.014": 0.0,
			"0.015": 0.0,
			"0.016": 0.0,
			"0.017": 0.0,
			"0.018": 0.0,
			"0.019": 0.0,
			"0.02": 0.0,
			"0.021": 0.0,
			"0.022": 0.0,
			"0.023": 0.0,
			"0.024": 0.0,
			"0.0": 0.0
		}
	}
}
