{
	 "smiles": "CC(N1C(C)=CC(O)=CC1=O)C(O)=O", 
	 "Tm": 532.15, 
	 "num_atms": 25, 
	 "gaussian": { 
		 "optdone": 1, 
		 "sigma_profile": "yes", 
		 "theory": "DFT", 
		 "functional": "B3LYP", 
		 "basiset": "6-31G**", 
		 "properties": { 
			 "R2extent": 2862.6286, 
			 "electric_dipole_moment_norm": 3.06563328694, 
			 "electric_quadrupole_moment_norm": 10.0625211235, 
			 "total_energy": -705.256017343, 
			 "HOMO_LUMO_gap": 0.18429, 
			 "cosmo_polarized_energy": -19.53, 
			 "cosmo_cavitation_energy": 28.33, 
			 "cosmo_dispersion_energy": -20.26, 
			 "cosmo_repulsion_energy": 1.58, 
			 "cosmo_total_nonelectrostatic_energy": 9.65, 
			 "SMD_solvation_energy": 7.31 
		},
		"coords": [
			{
				"x": -1.6864663682,
				"y": -2.0693668644,
				"z": -0.4933060433,
				"element": "C" 
			},
			{
				"x": -1.3944654205,
				"y": -0.7068143827,
				"z": -1.126778914,
				"element": "C" 
			},
			{
				"x": -0.1650861873,
				"y": -0.0717428588,
				"z": -0.6185307602,
				"element": "N" 
			},
			{
				"x": -0.0725847899,
				"y": 0.5504613253,
				"z": 0.6098705655,
				"element": "C" 
			},
			{
				"x": -1.3057881382,
				"y": 0.743387051,
				"z": 1.4537974596,
				"element": "C" 
			},
			{
				"x": 1.1299907124,
				"y": 1.0392492116,
				"z": 1.0447872876,
				"element": "C" 
			},
			{
				"x": 2.2847219702,
				"y": 0.9156973912,
				"z": 0.2262668217,
				"element": "C" 
			},
			{
				"x": 3.4288197777,
				"y": 1.4324616871,
				"z": 0.7388444318,
				"element": "O" 
			},
			{
				"x": 2.2068089464,
				"y": 0.3060760055,
				"z": -0.9982031386,
				"element": "C" 
			},
			{
				"x": 0.971667309,
				"y": -0.2341388411,
				"z": -1.4869595318,
				"element": "C" 
			},
			{
				"x": 0.8352488423,
				"y": -0.8178329435,
				"z": -2.5648545805,
				"element": "O" 
			},
			{
				"x": -2.6069271856,
				"y": 0.209065016,
				"z": -1.166708778,
				"element": "C" 
			},
			{
				"x": -2.29130446,
				"y": 1.4712318243,
				"z": -1.5413006003,
				"element": "O" 
			},
			{
				"x": -3.7463334407,
				"y": -0.1489507381,
				"z": -0.9657794093,
				"element": "O" 
			},
			{
				"x": -2.574495275,
				"y": -2.5043445934,
				"z": -0.9560575898,
				"element": "H" 
			},
			{
				"x": -0.8354669423,
				"y": -2.731765247,
				"z": -0.6678655496,
				"element": "H" 
			},
			{
				"x": -1.8658755276,
				"y": -2.0081995905,
				"z": 0.5827229289,
				"element": "H" 
			},
			{
				"x": -1.1439496543,
				"y": -0.88620225,
				"z": -2.1818401033,
				"element": "H" 
			},
			{
				"x": -1.9129208911,
				"y": -0.1595744046,
				"z": 1.5425964605,
				"element": "H" 
			},
			{
				"x": -1.0114530409,
				"y": 1.0531647133,
				"z": 2.4578491876,
				"element": "H" 
			},
			{
				"x": -1.9405533958,
				"y": 1.5299229828,
				"z": 1.0336513905,
				"element": "H" 
			},
			{
				"x": 1.2079207512,
				"y": 1.5327216867,
				"z": 2.0046102092,
				"element": "H" 
			},
			{
				"x": 4.1482644378,
				"y": 1.3003690735,
				"z": 0.1061325016,
				"element": "H" 
			},
			{
				"x": 3.0683836033,
				"y": 0.1903478109,
				"z": -1.6471149212,
				"element": "H" 
			},
			{
				"x": -3.1358556328,
				"y": 1.9471769349,
				"z": -1.6142293246,
				"element": "H" 
			}
		],
		 "valence_orbital": [ 
			{
				"type": "occ",
				"energy": -0.3232,
				"method": "rhf"
			},
			{
				"type": "occ",
				"energy": -0.28765,
				"method": "rhf"
			},
			{
				"type": "occ",
				"energy": -0.26031,
				"method": "rhf"
			},
			{
				"type": "occ",
				"energy": -0.24959,
				"method": "rhf"
			},
			{
				"type": "occ",
				"energy": -0.21266,
				"method": "rhf"
			},
			{
				"type": "unocc",
				"energy": -0.02837,
				"method": "rhf"
			},
			{
				"type": "unocc",
				"energy": -0.00317,
				"method": "rhf"
			},
			{
				"type": "unocc",
				"energy": 0.02105,
				"method": "rhf"
			},
			{
				"type": "unocc",
				"energy": 0.06281,
				"method": "rhf"
			},
			{
				"type": "unocc",
				"energy": 0.06516,
				"method": "rhf"
			}
		],
		"cosmo_sigma_profile": { 
			"-0.025": 0.0,
			"-0.024": 0.0,
			"-0.023": 0.0,
			"-0.022": 0.0,
			"-0.021": 0.0,
			"-0.02": 0.0,
			"-0.019": 0.54342262549,
			"-0.018": 2.45069465073,
			"-0.017": 1.6882047801,
			"-0.016": 1.82754899949,
			"-0.015": 1.96952422461,
			"-0.014": 1.04455227659,
			"-0.013": 1.17277360419,
			"-0.012": 2.10833406866,
			"-0.011": 2.0961709868,
			"-0.01": 1.55603291733,
			"-0.009": 1.30135390955,
			"-0.008": 2.92257124453,
			"-0.007": 8.52667092741,
			"-0.006": 9.83930525952,
			"-0.005": 10.0510662511,
			"-0.004": 14.1688333675,
			"-0.003": 15.7395016202,
			"-0.002": 16.5865268432,
			"-0.001": 16.8879728492,
			"0.0": 12.3642385905,
			"0.001": 11.7978838578,
			"0.002": 14.6610331632,
			"0.003": 13.0057784177,
			"0.004": 8.47457092904,
			"0.005": 5.79043432241,
			"0.006": 5.19300386435,
			"0.007": 5.9597827025,
			"0.008": 4.93732594287,
			"0.009": 4.99148195339,
			"0.01": 5.64102588354,
			"0.011": 5.99807210662,
			"0.012": 3.37991871407,
			"0.013": 2.43696500415,
			"0.014": 4.02430340455,
			"0.015": 2.34205615635,
			"0.016": 0.259648490627,
			"0.017": 0.0,
			"0.018": 0.0,
			"0.019": 0.0,
			"0.02": 0.0,
			"0.021": 0.0,
			"0.022": 0.0,
			"0.023": 0.0,
			"0.024": 0.0,
			"0.025": 0.0
		}
	}
}
