{
	 "smiles": "ClC1=CC(=C2OCCC2=C1)S(Cl)(=O)=O", 
	 "Tm": 379.15, 
	 "num_atms": 20, 
	 "gaussian": { 
		 "optdone": 1, 
		 "sigma_profile": "yes", 
		 "theory": "DFT", 
		 "functional": "B3LYP", 
		 "basiset": "6-31G**", 
		 "properties": { 
			 "R2extent": 4989.3995, 
			 "electric_dipole_moment_norm": 6.81917433345, 
			 "electric_quadrupole_moment_norm": 9.12842181322, 
			 "total_energy": -1852.62897354, 
			 "HOMO_LUMO_gap": 0.15825, 
			 "cosmo_polarized_energy": -12.45, 
			 "cosmo_cavitation_energy": 29.35, 
			 "cosmo_dispersion_energy": -22.22, 
			 "cosmo_repulsion_energy": 1.73, 
			 "cosmo_total_nonelectrostatic_energy": 8.86, 
			 "SMD_solvation_energy": 3.47 
		},
		"coords": [
			{
				"x": -3.4203123627,
				"y": 2.9407492796,
				"z": -1.5871783223,
				"element": "Cl" 
			},
			{
				"x": -2.3624941845,
				"y": 1.6521705794,
				"z": -1.0424019922,
				"element": "C" 
			},
			{
				"x": -1.9718372579,
				"y": 0.6651688203,
				"z": -1.9393305266,
				"element": "C" 
			},
			{
				"x": -1.1355086219,
				"y": -0.3715263513,
				"z": -1.4970934299,
				"element": "C" 
			},
			{
				"x": -0.6993669576,
				"y": -0.3909371602,
				"z": -0.1707604016,
				"element": "C" 
			},
			{
				"x": 0.1229923091,
				"y": -1.3056560652,
				"z": 0.3746767895,
				"element": "O" 
			},
			{
				"x": 0.1987246575,
				"y": -1.0455512284,
				"z": 1.8077530017,
				"element": "C" 
			},
			{
				"x": -0.4262877474,
				"y": 0.3518415915,
				"z": 2.0448430417,
				"element": "C" 
			},
			{
				"x": -1.0996355711,
				"y": 0.6175475266,
				"z": 0.7163899593,
				"element": "C" 
			},
			{
				"x": -1.9288530763,
				"y": 1.6423767628,
				"z": 0.2934190658,
				"element": "C" 
			},
			{
				"x": -0.7032301716,
				"y": -1.6579640028,
				"z": -2.649334434,
				"element": "S" 
			},
			{
				"x": 1.3613844636,
				"y": -1.2492611966,
				"z": -2.9792232923,
				"element": "Cl" 
			},
			{
				"x": -1.3794978653,
				"y": -1.390656339,
				"z": -3.9131091813,
				"element": "O" 
			},
			{
				"x": -0.7665269541,
				"y": -2.9589461854,
				"z": -2.000310909,
				"element": "O" 
			},
			{
				"x": -2.3092075734,
				"y": 0.676149759,
				"z": -2.9683518026,
				"element": "H" 
			},
			{
				"x": 1.2500187084,
				"y": -1.1134253809,
				"z": 2.091189398,
				"element": "H" 
			},
			{
				"x": -0.3608267734,
				"y": -1.8399923827,
				"z": 2.3107424418,
				"element": "H" 
			},
			{
				"x": 0.3379607263,
				"y": 1.1085886148,
				"z": 2.2560900597,
				"element": "H" 
			},
			{
				"x": -1.1263973662,
				"y": 0.3465474992,
				"z": 2.8852905903,
				"element": "H" 
			},
			{
				"x": -2.2420983814,
				"y": 2.4309758594,
				"z": 0.969299944,
				"element": "H" 
			}
		],
		 "valence_orbital": [ 
			{
				"type": "occ",
				"energy": -0.32558,
				"method": "rhf"
			},
			{
				"type": "occ",
				"energy": -0.32241,
				"method": "rhf"
			},
			{
				"type": "occ",
				"energy": -0.30951,
				"method": "rhf"
			},
			{
				"type": "occ",
				"energy": -0.29225,
				"method": "rhf"
			},
			{
				"type": "occ",
				"energy": -0.2449,
				"method": "rhf"
			},
			{
				"type": "unocc",
				"energy": -0.08665,
				"method": "rhf"
			},
			{
				"type": "unocc",
				"energy": -0.05107,
				"method": "rhf"
			},
			{
				"type": "unocc",
				"energy": -0.02931,
				"method": "rhf"
			},
			{
				"type": "unocc",
				"energy": 0.01179,
				"method": "rhf"
			},
			{
				"type": "unocc",
				"energy": 0.04985,
				"method": "rhf"
			}
		],
		"cosmo_sigma_profile": { 
			"-0.025": 0.0,
			"-0.024": 0.0,
			"-0.023": 0.0,
			"-0.022": 0.0,
			"-0.021": 0.0,
			"-0.02": 0.0,
			"-0.019": 0.0,
			"-0.018": 0.0,
			"-0.017": 0.0,
			"-0.016": 0.0,
			"-0.015": 0.0,
			"-0.014": 0.0,
			"-0.013": 0.0,
			"-0.012": 0.0,
			"-0.011": 0.0,
			"-0.01": 0.0,
			"-0.009": 0.99863682404,
			"-0.008": 2.8509714746,
			"-0.007": 10.6344992782,
			"-0.006": 19.802295152,
			"-0.005": 17.2323294883,
			"-0.004": 14.1106216177,
			"-0.003": 13.5336291406,
			"-0.002": 14.7107645926,
			"-0.001": 17.3783758197,
			"0.0": 20.3963938859,
			"0.001": 16.2159451951,
			"0.002": 15.290286109,
			"0.003": 20.9732196059,
			"0.004": 19.5239268239,
			"0.005": 6.77303026181,
			"0.006": 4.04100740164,
			"0.007": 7.16533497508,
			"0.008": 11.3227051443,
			"0.009": 6.1189611129,
			"0.01": 1.25630153392,
			"0.011": 0.0581737608402,
			"0.012": 0.0,
			"0.013": 0.0,
			"0.014": 0.0,
			"0.015": 0.0,
			"0.016": 0.0,
			"0.017": 0.0,
			"0.018": 0.0,
			"0.019": 0.0,
			"0.02": 0.0,
			"0.021": 0.0,
			"0.022": 0.0,
			"0.023": 0.0,
			"0.024": 0.0,
			"0.025": 0.0
		}
	}
}
