{
	 "smiles": "CC(CCC#N)C#N", 
	 "Tm": 228.15, 
	 "num_atms": 16, 
	 "gaussian": { 
		 "optdone": 1, 
		 "sigma_profile": "yes", 
		 "theory": "DFT", 
		 "functional": "B3LYP", 
		 "basiset": "6-31G**", 
		 "properties": { 
			 "R2extent": 1411.1371, 
			 "electric_dipole_moment_norm": 2.83784142792, 
			 "electric_quadrupole_moment_norm": 21.3461452202, 
			 "total_energy": -342.932646247, 
			 "HOMO_LUMO_gap": 0.33582, 
			 "cosmo_polarized_energy": -15.71, 
			 "cosmo_cavitation_energy": 21.04, 
			 "cosmo_dispersion_energy": -14.04, 
			 "cosmo_repulsion_energy": 1.2, 
			 "cosmo_total_nonelectrostatic_energy": 8.2, 
			 "SMD_solvation_energy": 6.33 
		},
		"coords": [
			{
				"x": 1.3563907141,
				"y": 1.4199369201,
				"z": 1.1996915129,
				"element": "C" 
			},
			{
				"x": 0.1896148249,
				"y": 0.6306171391,
				"z": 1.8303614663,
				"element": "C" 
			},
			{
				"x": -0.8287360906,
				"y": 0.0533801996,
				"z": 0.8122589008,
				"element": "C" 
			},
			{
				"x": -0.3178159926,
				"y": -1.148654664,
				"z": -0.0131073988,
				"element": "C" 
			},
			{
				"x": 0.6574350141,
				"y": -0.8227982285,
				"z": -1.0583448817,
				"element": "C" 
			},
			{
				"x": 1.4215630836,
				"y": -0.5688002951,
				"z": -1.8944304358,
				"element": "N" 
			},
			{
				"x": -0.5314119516,
				"y": 1.4838672552,
				"z": 2.7899098017,
				"element": "C" 
			},
			{
				"x": -1.1070851429,
				"y": 2.1621267231,
				"z": 3.5356865381,
				"element": "N" 
			},
			{
				"x": 1.9499136045,
				"y": 0.7798235085,
				"z": 0.5449978699,
				"element": "H" 
			},
			{
				"x": 0.9785766966,
				"y": 2.2585092239,
				"z": 0.6078588621,
				"element": "H" 
			},
			{
				"x": 2.0106353036,
				"y": 1.8191646344,
				"z": 1.978799068,
				"element": "H" 
			},
			{
				"x": 0.6030431883,
				"y": -0.205905394,
				"z": 2.4115545163,
				"element": "H" 
			},
			{
				"x": -1.1673179805,
				"y": 0.8499365408,
				"z": 0.1417731886,
				"element": "H" 
			},
			{
				"x": -1.7091267747,
				"y": -0.2927564048,
				"z": 1.3624373443,
				"element": "H" 
			},
			{
				"x": -1.1725709565,
				"y": -1.6276090161,
				"z": -0.5043528527,
				"element": "H" 
			},
			{
				"x": 0.1230924595,
				"y": -1.9050381422,
				"z": 0.6480064999,
				"element": "H" 
			}
		],
		 "valence_orbital": [ 
			{
				"type": "occ",
				"energy": -0.36161,
				"method": "rhf"
			},
			{
				"type": "occ",
				"energy": -0.33772,
				"method": "rhf"
			},
			{
				"type": "occ",
				"energy": -0.3361,
				"method": "rhf"
			},
			{
				"type": "occ",
				"energy": -0.32929,
				"method": "rhf"
			},
			{
				"type": "occ",
				"energy": -0.32654,
				"method": "rhf"
			},
			{
				"type": "unocc",
				"energy": 0.00928,
				"method": "rhf"
			},
			{
				"type": "unocc",
				"energy": 0.02259,
				"method": "rhf"
			},
			{
				"type": "unocc",
				"energy": 0.02758,
				"method": "rhf"
			},
			{
				"type": "unocc",
				"energy": 0.035,
				"method": "rhf"
			},
			{
				"type": "unocc",
				"energy": 0.07059,
				"method": "rhf"
			}
		],
		"cosmo_sigma_profile": { 
			"-0.025": 0.0,
			"-0.024": 0.0,
			"-0.023": 0.0,
			"-0.022": 0.0,
			"-0.021": 0.0,
			"-0.02": 0.0,
			"-0.019": 0.0,
			"-0.018": 0.0,
			"-0.017": 0.0,
			"-0.016": 0.0,
			"-0.015": 0.0,
			"-0.014": 0.0,
			"-0.013": 0.0,
			"-0.012": 0.0,
			"-0.011": 0.0,
			"-0.01": 0.198781979113,
			"-0.009": 4.54144459808,
			"-0.008": 10.3688155868,
			"-0.007": 10.7679493174,
			"-0.006": 17.3796399553,
			"-0.005": 15.011239837,
			"-0.004": 11.0420393085,
			"-0.003": 10.7455860115,
			"-0.002": 8.13629345599,
			"-0.001": 10.3026948158,
			"0.0": 5.56337173606,
			"0.001": 3.79867471624,
			"0.002": 2.65685634809,
			"0.003": 4.56345545371,
			"0.004": 4.71598513351,
			"0.005": 2.87377653156,
			"0.006": 5.76509666405,
			"0.007": 4.37102485306,
			"0.008": 5.99293986512,
			"0.009": 6.88430633414,
			"0.01": 6.21348447637,
			"0.011": 5.86912240055,
			"0.012": 4.82336473522,
			"0.013": 4.18273856757,
			"0.014": 0.743810506315,
			"0.015": 0.0,
			"0.016": 0.0,
			"0.017": 0.0,
			"0.018": 0.0,
			"0.019": 0.0,
			"0.02": 0.0,
			"0.021": 0.0,
			"0.022": 0.0,
			"0.023": 0.0,
			"0.024": 0.0,
			"0.025": 0.0
		}
	}
}
