{
	 "smiles": "NC1=CC(=O)NN1", 
	 "Tm": 478.15, 
	 "num_atms": 12, 
	 "gaussian": { 
		 "optdone": 1, 
		 "sigma_profile": "yes", 
		 "theory": "DFT", 
		 "functional": "B3LYP", 
		 "basiset": "6-31G**", 
		 "properties": { 
			 "R2extent": 1065.5919, 
			 "electric_dipole_moment_norm": 5.98664540958, 
			 "electric_quadrupole_moment_norm": 15.3162772197, 
			 "total_energy": -356.780725989, 
			 "HOMO_LUMO_gap": 0.22071, 
			 "cosmo_polarized_energy": -20.15, 
			 "cosmo_cavitation_energy": 16.3, 
			 "cosmo_dispersion_energy": -12.51, 
			 "cosmo_repulsion_energy": 1.09, 
			 "cosmo_total_nonelectrostatic_energy": 4.87, 
			 "SMD_solvation_energy": 3.69 
		},
		"coords": [
			{
				"x": 1.64167626,
				"y": -1.711798512,
				"z": 0.9039056275,
				"element": "N" 
			},
			{
				"x": 0.3974950406,
				"y": -1.5281003841,
				"z": 0.3420303319,
				"element": "C" 
			},
			{
				"x": -0.8317388847,
				"y": -1.3760294019,
				"z": 0.9038931207,
				"element": "C" 
			},
			{
				"x": -1.7703503315,
				"y": -1.0756734437,
				"z": -0.166323678,
				"element": "C" 
			},
			{
				"x": -2.9866862045,
				"y": -0.9802663871,
				"z": -0.1785844482,
				"element": "O" 
			},
			{
				"x": -0.9683176524,
				"y": -0.9302474339,
				"z": -1.3433849402,
				"element": "N" 
			},
			{
				"x": 0.3478126875,
				"y": -1.3950837773,
				"z": -1.0529712507,
				"element": "N" 
			},
			{
				"x": 2.2627774246,
				"y": -2.3146161594,
				"z": 0.3784825754,
				"element": "H" 
			},
			{
				"x": 1.6306976061,
				"y": -1.9301083461,
				"z": 1.8901687101,
				"element": "H" 
			},
			{
				"x": -1.106424581,
				"y": -1.5148485185,
				"z": 1.9381578887,
				"element": "H" 
			},
			{
				"x": -1.3654669369,
				"y": -1.3794834904,
				"z": -2.1626907888,
				"element": "H" 
			},
			{
				"x": 1.0394255721,
				"y": -0.7311441455,
				"z": -1.3984831483,
				"element": "H" 
			}
		],
		 "valence_orbital": [ 
			{
				"type": "occ",
				"energy": -0.36439,
				"method": "rhf"
			},
			{
				"type": "occ",
				"energy": -0.32581,
				"method": "rhf"
			},
			{
				"type": "occ",
				"energy": -0.24561,
				"method": "rhf"
			},
			{
				"type": "occ",
				"energy": -0.23455,
				"method": "rhf"
			},
			{
				"type": "occ",
				"energy": -0.21835,
				"method": "rhf"
			},
			{
				"type": "unocc",
				"energy": 0.00236,
				"method": "rhf"
			},
			{
				"type": "unocc",
				"energy": 0.05519,
				"method": "rhf"
			},
			{
				"type": "unocc",
				"energy": 0.08415,
				"method": "rhf"
			},
			{
				"type": "unocc",
				"energy": 0.09792,
				"method": "rhf"
			},
			{
				"type": "unocc",
				"energy": 0.11119,
				"method": "rhf"
			}
		],
		"cosmo_sigma_profile": { 
			"-0.025": 0.0,
			"-0.024": 0.0,
			"-0.023": 0.0,
			"-0.022": 0.0,
			"-0.021": 0.0,
			"-0.02": 0.0,
			"-0.019": 0.0,
			"-0.018": 0.0,
			"-0.017": 0.0,
			"-0.016": 0.0,
			"-0.015": 0.399129366362,
			"-0.014": 4.30237050726,
			"-0.013": 5.46346167794,
			"-0.012": 4.57700006268,
			"-0.011": 4.70559481426,
			"-0.01": 4.09995679074,
			"-0.009": 4.77573654975,
			"-0.008": 3.56497899056,
			"-0.007": 4.95516028738,
			"-0.006": 5.27662349537,
			"-0.005": 4.64233184166,
			"-0.004": 3.61691922788,
			"-0.003": 3.69036433944,
			"-0.002": 2.81541116422,
			"-0.001": 4.43211134831,
			"0.0": 4.4772191644,
			"0.001": 3.89457027019,
			"0.002": 4.77181818985,
			"0.003": 6.21483368501,
			"0.004": 6.42112268514,
			"0.005": 6.0443377342,
			"0.006": 3.46944723001,
			"0.007": 3.87768835303,
			"0.008": 3.09000187256,
			"0.009": 3.16808678719,
			"0.01": 3.72657067955,
			"0.011": 2.43862756985,
			"0.012": 1.27487393945,
			"0.013": 2.49308151507,
			"0.014": 5.18992612673,
			"0.015": 5.77588042505,
			"0.016": 1.08237925689,
			"0.017": 0.0,
			"0.018": 0.0,
			"0.019": 0.0,
			"0.02": 0.0,
			"0.021": 0.0,
			"0.022": 0.0,
			"0.023": 0.0,
			"0.024": 0.0,
			"0.025": 0.0
		}
	}
}
