{
	 "smiles": "FC(F)(F)C1=C(C=CC=C1)C(=O)CSC#N", 
	 "Tm": 323.15, 
	 "num_atms": 22, 
	 "gaussian": { 
		 "optdone": 1, 
		 "sigma_profile": "yes", 
		 "theory": "DFT", 
		 "functional": "B3LYP", 
		 "basiset": "6-31G**", 
		 "properties": { 
			 "R2extent": 4873.4889, 
			 "electric_dipole_moment_norm": 6.48101158462, 
			 "electric_quadrupole_moment_norm": 21.9509785969, 
			 "total_energy": -1212.32630708, 
			 "HOMO_LUMO_gap": 0.18843, 
			 "cosmo_polarized_energy": -15.43, 
			 "cosmo_cavitation_energy": 31.1, 
			 "cosmo_dispersion_energy": -21.6, 
			 "cosmo_repulsion_energy": 1.59, 
			 "cosmo_total_nonelectrostatic_energy": 11.08, 
			 "SMD_solvation_energy": 8.49 
		},
		"coords": [
			{
				"x": -2.7887384754,
				"y": 1.4765050073,
				"z": 0.9609930227,
				"element": "F" 
			},
			{
				"x": -1.9565430229,
				"y": 0.4218443154,
				"z": 1.1129421801,
				"element": "C" 
			},
			{
				"x": -0.9230660419,
				"y": 0.8424855072,
				"z": 1.8800115285,
				"element": "F" 
			},
			{
				"x": -2.6262656909,
				"y": -0.5138584709,
				"z": 1.8058119598,
				"element": "F" 
			},
			{
				"x": -1.4713567251,
				"y": -0.0882198943,
				"z": -0.2282276234,
				"element": "C" 
			},
			{
				"x": -0.3274809386,
				"y": -0.9054462488,
				"z": -0.3376472505,
				"element": "C" 
			},
			{
				"x": 0.0986367878,
				"y": -1.3103321028,
				"z": -1.6087548178,
				"element": "C" 
			},
			{
				"x": -0.6094434778,
				"y": -0.9420084508,
				"z": -2.7531417152,
				"element": "C" 
			},
			{
				"x": -1.7408939307,
				"y": -0.1384037781,
				"z": -2.637359874,
				"element": "C" 
			},
			{
				"x": -2.1618214555,
				"y": 0.2934409038,
				"z": -1.3786001015,
				"element": "C" 
			},
			{
				"x": 0.4180031786,
				"y": -1.4058563741,
				"z": 0.8724027151,
				"element": "C" 
			},
			{
				"x": -0.1350002174,
				"y": -1.9789530554,
				"z": 1.7892092429,
				"element": "O" 
			},
			{
				"x": 1.9168764024,
				"y": -1.1475528806,
				"z": 0.8999862682,
				"element": "C" 
			},
			{
				"x": 2.6091262069,
				"y": -1.9892226181,
				"z": 2.3909583909,
				"element": "S" 
			},
			{
				"x": 4.2476545677,
				"y": -1.614110817,
				"z": 2.1067215399,
				"element": "C" 
			},
			{
				"x": 5.3794505966,
				"y": -1.3815929098,
				"z": 1.9468954279,
				"element": "N" 
			},
			{
				"x": 0.9744083526,
				"y": -1.9445036606,
				"z": -1.706747476,
				"element": "H" 
			},
			{
				"x": -0.2731592753,
				"y": -1.2807295237,
				"z": -3.7280755714,
				"element": "H" 
			},
			{
				"x": -2.2929081294,
				"y": 0.1622801125,
				"z": -3.5222134876,
				"element": "H" 
			},
			{
				"x": -3.0260712529,
				"y": 0.9402870928,
				"z": -1.2853487871,
				"element": "H" 
			},
			{
				"x": 2.0889358285,
				"y": -0.0680325367,
				"z": 0.965897096,
				"element": "H" 
			},
			{
				"x": 2.4147567127,
				"y": -1.5126196173,
				"z": -0.0016126677,
				"element": "H" 
			}
		],
		 "valence_orbital": [ 
			{
				"type": "occ",
				"energy": -0.3347,
				"method": "rhf"
			},
			{
				"type": "occ",
				"energy": -0.29524,
				"method": "rhf"
			},
			{
				"type": "occ",
				"energy": -0.29318,
				"method": "rhf"
			},
			{
				"type": "occ",
				"energy": -0.2858,
				"method": "rhf"
			},
			{
				"type": "occ",
				"energy": -0.26671,
				"method": "rhf"
			},
			{
				"type": "unocc",
				"energy": -0.07828,
				"method": "rhf"
			},
			{
				"type": "unocc",
				"energy": -0.04759,
				"method": "rhf"
			},
			{
				"type": "unocc",
				"energy": -0.02801,
				"method": "rhf"
			},
			{
				"type": "unocc",
				"energy": -0.01999,
				"method": "rhf"
			},
			{
				"type": "unocc",
				"energy": 0.03856,
				"method": "rhf"
			}
		],
		"cosmo_sigma_profile": { 
			"-0.025": 0.0,
			"-0.024": 0.0,
			"-0.023": 0.0,
			"-0.022": 0.0,
			"-0.021": 0.0,
			"-0.02": 0.0,
			"-0.019": 0.0,
			"-0.018": 0.0,
			"-0.017": 0.0,
			"-0.016": 0.0,
			"-0.015": 0.0,
			"-0.014": 0.0,
			"-0.013": 0.0249666000259,
			"-0.012": 0.927893645042,
			"-0.011": 2.6796494245,
			"-0.01": 4.52012555381,
			"-0.009": 4.72602230393,
			"-0.008": 7.55828631572,
			"-0.007": 12.5665722855,
			"-0.006": 12.9621120925,
			"-0.005": 11.5724158511,
			"-0.004": 10.4340120135,
			"-0.003": 10.9958280778,
			"-0.002": 11.6080013496,
			"-0.001": 15.3610609675,
			"0.0": 17.5623630355,
			"0.001": 22.8938365806,
			"0.002": 33.0740415466,
			"0.003": 24.9908981487,
			"0.004": 8.20727890171,
			"0.005": 6.60799803859,
			"0.006": 4.47627249591,
			"0.007": 5.95526205511,
			"0.008": 6.270995703,
			"0.009": 6.97768950174,
			"0.01": 4.8454428898,
			"0.011": 2.7445007532,
			"0.012": 2.32542707274,
			"0.013": 0.397894351442,
			"0.014": 0.0,
			"0.015": 0.0,
			"0.016": 0.0,
			"0.017": 0.0,
			"0.018": 0.0,
			"0.019": 0.0,
			"0.02": 0.0,
			"0.021": 0.0,
			"0.022": 0.0,
			"0.023": 0.0,
			"0.024": 0.0,
			"0.025": 0.0
		}
	}
}
