{
	 "smiles": "OCC1=CN=C(C=C1)N1C=CN=C1", 
	 "Tm": 402.15, 
	 "num_atms": 22, 
	 "gaussian": { 
		 "optdone": 1, 
		 "sigma_profile": "yes", 
		 "theory": "DFT", 
		 "functional": "B3LYP", 
		 "basiset": "6-31G**", 
		 "properties": { 
			 "R2extent": 3200.4953, 
			 "electric_dipole_moment_norm": 3.59906680266, 
			 "electric_quadrupole_moment_norm": 16.3615661625, 
			 "total_energy": -587.836813005, 
			 "HOMO_LUMO_gap": 0.18338, 
			 "cosmo_polarized_energy": -14.8, 
			 "cosmo_cavitation_energy": 26.46, 
			 "cosmo_dispersion_energy": -19.66, 
			 "cosmo_repulsion_energy": 1.53, 
			 "cosmo_total_nonelectrostatic_energy": 8.33, 
			 "SMD_solvation_energy": 2.81 
		},
		"coords": [
			{
				"x": 0.9074173779,
				"y": 3.5581059787,
				"z": 1.7858021885,
				"element": "O" 
			},
			{
				"x": 0.1305239961,
				"y": 3.3571079237,
				"z": 0.613345186,
				"element": "C" 
			},
			{
				"x": 0.0749905294,
				"y": 1.9091002131,
				"z": 0.1755203182,
				"element": "C" 
			},
			{
				"x": 0.0516446343,
				"y": 1.5444861142,
				"z": -1.171420396,
				"element": "C" 
			},
			{
				"x": -0.0250967726,
				"y": 0.2835414033,
				"z": -1.6096709757,
				"element": "N" 
			},
			{
				"x": -0.0753244648,
				"y": -0.6920751316,
				"z": -0.7021388468,
				"element": "C" 
			},
			{
				"x": -0.0441059732,
				"y": -0.4504516195,
				"z": 0.6805836364,
				"element": "C" 
			},
			{
				"x": 0.03135367,
				"y": 0.8669504551,
				"z": 1.1108908812,
				"element": "C" 
			},
			{
				"x": -0.1555549582,
				"y": -2.0042411924,
				"z": -1.2196756239,
				"element": "N" 
			},
			{
				"x": -0.189699251,
				"y": -2.3405641503,
				"z": -2.5684703455,
				"element": "C" 
			},
			{
				"x": -0.2681693856,
				"y": -3.704338047,
				"z": -2.6036584892,
				"element": "C" 
			},
			{
				"x": -0.2840606999,
				"y": -4.2332710957,
				"z": -1.3251810438,
				"element": "N" 
			},
			{
				"x": -0.2160848186,
				"y": -3.1987000769,
				"z": -0.5261002179,
				"element": "C" 
			},
			{
				"x": 1.8133592283,
				"y": 3.2845894343,
				"z": 1.5883924104,
				"element": "H" 
			},
			{
				"x": -0.8739691934,
				"y": 3.7102284789,
				"z": 0.8748412521,
				"element": "H" 
			},
			{
				"x": 0.4786458102,
				"y": 3.9834277634,
				"z": -0.2226838901,
				"element": "H" 
			},
			{
				"x": 0.1002404232,
				"y": 2.3094576743,
				"z": -1.9460544804,
				"element": "H" 
			},
			{
				"x": -0.0766321431,
				"y": -1.2607641823,
				"z": 1.3986521606,
				"element": "H" 
			},
			{
				"x": 0.0681708945,
				"y": 1.0998601281,
				"z": 2.1707050725,
				"element": "H" 
			},
			{
				"x": -0.1544915418,
				"y": -1.5779904487,
				"z": -3.3271774375,
				"element": "H" 
			},
			{
				"x": -0.3144902266,
				"y": -4.3425210972,
				"z": -3.4750093292,
				"element": "H" 
			},
			{
				"x": -0.2072671352,
				"y": -3.2458385254,
				"z": 0.5526079701,
				"element": "H" 
			}
		],
		 "valence_orbital": [ 
			{
				"type": "occ",
				"energy": -0.29213,
				"method": "rhf"
			},
			{
				"type": "occ",
				"energy": -0.27983,
				"method": "rhf"
			},
			{
				"type": "occ",
				"energy": -0.26436,
				"method": "rhf"
			},
			{
				"type": "occ",
				"energy": -0.24695,
				"method": "rhf"
			},
			{
				"type": "occ",
				"energy": -0.22713,
				"method": "rhf"
			},
			{
				"type": "unocc",
				"energy": -0.04375,
				"method": "rhf"
			},
			{
				"type": "unocc",
				"energy": -0.03525,
				"method": "rhf"
			},
			{
				"type": "unocc",
				"energy": 0.03806,
				"method": "rhf"
			},
			{
				"type": "unocc",
				"energy": 0.07183,
				"method": "rhf"
			},
			{
				"type": "unocc",
				"energy": 0.07308,
				"method": "rhf"
			}
		],
		"cosmo_sigma_profile": { 
			"-0.025": 0.0,
			"-0.024": 0.0,
			"-0.023": 0.0,
			"-0.022": 0.0,
			"-0.021": 0.0,
			"-0.02": 0.0,
			"-0.019": 0.0,
			"-0.018": 0.0,
			"-0.017": 0.0,
			"-0.016": 0.602078836559,
			"-0.015": 0.851770286807,
			"-0.014": 0.990947662673,
			"-0.013": 1.12641774783,
			"-0.012": 0.708927658251,
			"-0.011": 2.02345597453,
			"-0.01": 2.97486037661,
			"-0.009": 2.54395143585,
			"-0.008": 3.49103915175,
			"-0.007": 8.63260223403,
			"-0.006": 12.4096618038,
			"-0.005": 15.7084083354,
			"-0.004": 12.7009102965,
			"-0.003": 13.3133293561,
			"-0.002": 12.7189532147,
			"-0.001": 12.8190115853,
			"0.0": 15.3825090876,
			"0.001": 16.7575748473,
			"0.002": 15.4384021059,
			"0.003": 9.09020969727,
			"0.004": 8.67738283829,
			"0.005": 8.83267888552,
			"0.006": 4.34871312996,
			"0.007": 4.53191807995,
			"0.008": 3.86556925301,
			"0.009": 4.05913401239,
			"0.01": 3.17523738885,
			"0.011": 2.75943671549,
			"0.012": 2.48180592175,
			"0.013": 2.84375743442,
			"0.014": 2.60106377108,
			"0.015": 1.098507279,
			"0.016": 1.2483705734,
			"0.017": 0.972698756865,
			"0.018": 0.292578789255,
			"0.019": 0.0,
			"0.02": 0.0,
			"0.021": 0.0,
			"0.022": 0.0,
			"0.023": 0.0,
			"0.024": 0.0,
			"0.025": 0.0
		}
	}
}
