{
	 "smiles": "N[C@@H](CC1=CC(I)=C(OC2=CC(I)=C(O)C=C2)C(I)=C1)C(O)=O", 
	 "Tm": 509.65, 
	 "num_atms": 35, 
	 "gaussian": { 
		 "optdone": 1, 
		 "sigma_profile": "no", 
		 "theory": "DFT", 
		 "functional": "B3LYP", 
		 "basiset": "6-31G**", 
		 "properties": { 
			 "R2extent": 11122.5407, 
			 "electric_dipole_moment_norm": 2.11323249313, 
			 "electric_quadrupole_moment_norm": 20.7220390823, 
			 "total_energy": -968.617182798, 
			 "HOMO_LUMO_gap": 0.15601, 
			 "cosmo_polarized_energy": -282391.37, 
			 "cosmo_cavitation_energy": 49.55, 
			 "cosmo_dispersion_energy": -36.61, 
			 "cosmo_repulsion_energy": 2.82, 
			 "cosmo_total_nonelectrostatic_energy": 15.76, 
			 "SMD_solvation_energy": 6.23 
		},
		"coords": [
			{
				"x": -5.5271310249,
				"y": -1.4692448233,
				"z": -1.8371739764,
				"element": "N" 
			},
			{
				"x": -4.2559788474,
				"y": -1.6280320134,
				"z": -1.1418311475,
				"element": "C" 
			},
			{
				"x": -3.5169512435,
				"y": -0.2605749778,
				"z": -1.0980892361,
				"element": "C" 
			},
			{
				"x": -2.0286034189,
				"y": -0.3133399531,
				"z": -0.8237245582,
				"element": "C" 
			},
			{
				"x": -1.4947446928,
				"y": 0.1573243807,
				"z": 0.3798023691,
				"element": "C" 
			},
			{
				"x": -0.1210555101,
				"y": 0.1161869973,
				"z": 0.6140109544,
				"element": "C" 
			},
			{
				"x": 0.6211962616,
				"y": 0.7893633083,
				"z": 2.4757339831,
				"element": "I" 
			},
			{
				"x": 0.7630293494,
				"y": -0.3905506328,
				"z": -0.3510149205,
				"element": "C" 
			},
			{
				"x": 2.1035467634,
				"y": -0.5046618708,
				"z": -0.0896690354,
				"element": "O" 
			},
			{
				"x": 2.9687575038,
				"y": 0.5347554763,
				"z": -0.4089064354,
				"element": "C" 
			},
			{
				"x": 2.5619829547,
				"y": 1.7188075126,
				"z": -1.0209771695,
				"element": "C" 
			},
			{
				"x": 3.5091607869,
				"y": 2.7050750286,
				"z": -1.3048596942,
				"element": "C" 
			},
			{
				"x": 2.8834595863,
				"y": 4.4971549954,
				"z": -2.2326193229,
				"element": "I" 
			},
			{
				"x": 4.8600765602,
				"y": 2.5215563967,
				"z": -0.9843896105,
				"element": "C" 
			},
			{
				"x": 5.7518115152,
				"y": 3.5085515525,
				"z": -1.278545735,
				"element": "O" 
			},
			{
				"x": 5.241434447,
				"y": 1.3208007555,
				"z": -0.3697075571,
				"element": "C" 
			},
			{
				"x": 4.3085460033,
				"y": 0.3311731906,
				"z": -0.0812495272,
				"element": "C" 
			},
			{
				"x": 0.2205545011,
				"y": -0.8741071505,
				"z": -1.5518471148,
				"element": "C" 
			},
			{
				"x": 1.4903820356,
				"y": -1.7084451376,
				"z": -3.0222828881,
				"element": "I" 
			},
			{
				"x": -1.1527606699,
				"y": -0.8282837701,
				"z": -1.7872964481,
				"element": "C" 
			},
			{
				"x": -4.5538076117,
				"y": -2.222266819,
				"z": 0.2330787584,
				"element": "C" 
			},
			{
				"x": -3.5366395063,
				"y": -2.0752129084,
				"z": 1.1065500377,
				"element": "O" 
			},
			{
				"x": -5.5773360894,
				"y": -2.8075495286,
				"z": 0.5144156591,
				"element": "O" 
			},
			{
				"x": -5.3971520726,
				"y": -1.5382039876,
				"z": -2.8412611981,
				"element": "H" 
			},
			{
				"x": -6.1672149785,
				"y": -2.2017614484,
				"z": -1.5429353068,
				"element": "H" 
			},
			{
				"x": -3.5757690932,
				"y": -2.3612351038,
				"z": -1.6160053359,
				"element": "H" 
			},
			{
				"x": -3.6784375643,
				"y": 0.1940596595,
				"z": -2.0820546844,
				"element": "H" 
			},
			{
				"x": -4.0200421038,
				"y": 0.3911184306,
				"z": -0.3781187018,
				"element": "H" 
			},
			{
				"x": -2.1579095415,
				"y": 0.5435812405,
				"z": 1.1447303925,
				"element": "H" 
			},
			{
				"x": 1.5219339785,
				"y": 1.8775966651,
				"z": -1.2762119641,
				"element": "H" 
			},
			{
				"x": 6.6337092493,
				"y": 3.2328893091,
				"z": -0.99768934,
				"element": "H" 
			},
			{
				"x": 6.2870362372,
				"y": 1.1629301642,
				"z": -0.1143664402,
				"element": "H" 
			},
			{
				"x": 4.6043083305,
				"y": -0.5970956258,
				"z": 0.3946248878,
				"element": "H" 
			},
			{
				"x": -1.5418646559,
				"y": -1.1957647506,
				"z": -2.731282575,
				"element": "H" 
			},
			{
				"x": -3.8110274394,
				"y": -2.5224945618,
				"z": 1.9253628811,
				"element": "H" 
			}
		],
		 "valence_orbital": [ 
			{
				"type": "occ",
				"energy": -0.25141,
				"method": "rhf"
			},
			{
				"type": "occ",
				"energy": -0.2482,
				"method": "rhf"
			},
			{
				"type": "occ",
				"energy": -0.24578,
				"method": "rhf"
			},
			{
				"type": "occ",
				"energy": -0.24263,
				"method": "rhf"
			},
			{
				"type": "occ",
				"energy": -0.21539,
				"method": "rhf"
			},
			{
				"type": "unocc",
				"energy": -0.05938,
				"method": "rhf"
			},
			{
				"type": "unocc",
				"energy": -0.03727,
				"method": "rhf"
			},
			{
				"type": "unocc",
				"energy": -0.03465,
				"method": "rhf"
			},
			{
				"type": "unocc",
				"energy": -0.03014,
				"method": "rhf"
			},
			{
				"type": "unocc",
				"energy": -0.02714,
				"method": "rhf"
			}
		],
		"cosmo_sigma_profile": { 
			"0.0": 0.0,
			"0.0": 0.0,
			"0.0": 0.0,
			"0.0": 0.0,
			"0.0": 0.0,
			"0.0": 0.0,
			"0.0": 0.0,
			"0.0": 0.0,
			"0.0": 0.0,
			"0.0": 0.0,
			"0.0": 0.0,
			"0.0": 0.0,
			"0.0": 0.0,
			"0.0": 0.0,
			"0.0": 0.0,
			"0.0": 0.0,
			"0.0": 0.0,
			"0.0": 0.0,
			"0.0": 0.0,
			"0.0": 0.0,
			"0.0": 0.0,
			"0.0": 0.0,
			"0.0": 0.0,
			"0.0": 0.0,
			"0.0": 0.0,
			"0.0": 0.0,
			"0.0": 0.0,
			"0.0": 0.0,
			"0.0": 0.0,
			"0.0": 0.0,
			"0.0": 0.0,
			"0.0": 0.0,
			"0.0": 0.0,
			"0.0": 0.0,
			"0.0": 0.0,
			"0.0": 0.0,
			"0.0": 0.0,
			"0.0": 0.0,
			"0.0": 0.0,
			"0.0": 0.0,
			"0.0": 0.0,
			"0.0": 0.0,
			"0.0": 0.0,
			"0.0": 0.0,
			"0.0": 0.0,
			"0.0": 0.0,
			"0.0": 0.0,
			"0.0": 0.0,
			"0.0": 0.0,
			"0.0": 0.0,
			"0.0": 0.0
		}
	}
}
