{
	 "smiles": "ClC1=C(C=CC=N1)C1=CC=C(Br)N=C1", 
	 "Tm": 434.15, 
	 "num_atms": 20, 
	 "gaussian": { 
		 "optdone": 1, 
		 "sigma_profile": "yes", 
		 "theory": "DFT", 
		 "functional": "B3LYP", 
		 "basiset": "6-31G**", 
		 "properties": { 
			 "R2extent": 6181.6327, 
			 "electric_dipole_moment_norm": 5.02713156084, 
			 "electric_quadrupole_moment_norm": 10.3852661978, 
			 "total_energy": -3525.77026202, 
			 "HOMO_LUMO_gap": 0.1911, 
			 "cosmo_polarized_energy": -11.73, 
			 "cosmo_cavitation_energy": 29.16, 
			 "cosmo_dispersion_energy": -21.81, 
			 "cosmo_repulsion_energy": 1.72, 
			 "cosmo_total_nonelectrostatic_energy": 9.07, 
			 "SMD_solvation_energy": 0.63 
		},
		"coords": [
			{
				"x": 1.8872950013,
				"y": -0.6828940261,
				"z": -2.6085124935,
				"element": "Cl" 
			},
			{
				"x": 0.7946658154,
				"y": -1.7361359909,
				"z": -1.7079525975,
				"element": "C" 
			},
			{
				"x": -0.2236399807,
				"y": -1.1769200373,
				"z": -0.9060605002,
				"element": "C" 
			},
			{
				"x": -1.0718895338,
				"y": -2.1032120474,
				"z": -0.2815358933,
				"element": "C" 
			},
			{
				"x": -0.8800566806,
				"y": -3.4716891293,
				"z": -0.4545959621,
				"element": "C" 
			},
			{
				"x": 0.1764884356,
				"y": -3.886966509,
				"z": -1.2599531259,
				"element": "C" 
			},
			{
				"x": 0.9958441584,
				"y": -3.0286780967,
				"z": -1.880314288,
				"element": "N" 
			},
			{
				"x": -0.4454190734,
				"y": 0.2769662902,
				"z": -0.7062598036,
				"element": "C" 
			},
			{
				"x": -1.7051174771,
				"y": 0.8507940228,
				"z": -0.9371753092,
				"element": "C" 
			},
			{
				"x": -1.9057380133,
				"y": 2.2058860637,
				"z": -0.6975394928,
				"element": "C" 
			},
			{
				"x": -0.8157975726,
				"y": 2.9369415725,
				"z": -0.2213915891,
				"element": "C" 
			},
			{
				"x": -1.0499113323,
				"y": 4.8113991316,
				"z": 0.1217715221,
				"element": "Br" 
			},
			{
				"x": 0.3789832286,
				"y": 2.4301428007,
				"z": 0.0177753427,
				"element": "N" 
			},
			{
				"x": 0.5600141289,
				"y": 1.1265188413,
				"z": -0.2221819107,
				"element": "C" 
			},
			{
				"x": -1.8716990317,
				"y": -1.7357617731,
				"z": 0.3548340319,
				"element": "H" 
			},
			{
				"x": -1.5272110037,
				"y": -4.1954161613,
				"z": 0.0292702472,
				"element": "H" 
			},
			{
				"x": 0.380141886,
				"y": -4.9426675949,
				"z": -1.4231991997,
				"element": "H" 
			},
			{
				"x": -2.5192761554,
				"y": 0.2407683958,
				"z": -1.3179944368,
				"element": "H" 
			},
			{
				"x": -2.8623660161,
				"y": 2.6818851072,
				"z": -0.874132197,
				"element": "H" 
			},
			{
				"x": 1.5518892165,
				"y": 0.7381391402,
				"z": -0.0082523443,
				"element": "H" 
			}
		],
		 "valence_orbital": [ 
			{
				"type": "occ",
				"energy": -0.2905,
				"method": "rhf"
			},
			{
				"type": "occ",
				"energy": -0.28429,
				"method": "rhf"
			},
			{
				"type": "occ",
				"energy": -0.27987,
				"method": "rhf"
			},
			{
				"type": "occ",
				"energy": -0.27147,
				"method": "rhf"
			},
			{
				"type": "occ",
				"energy": -0.24964,
				"method": "rhf"
			},
			{
				"type": "unocc",
				"energy": -0.05854,
				"method": "rhf"
			},
			{
				"type": "unocc",
				"energy": -0.04646,
				"method": "rhf"
			},
			{
				"type": "unocc",
				"energy": -0.03987,
				"method": "rhf"
			},
			{
				"type": "unocc",
				"energy": -0.0167,
				"method": "rhf"
			},
			{
				"type": "unocc",
				"energy": 0.00599,
				"method": "rhf"
			}
		],
		"cosmo_sigma_profile": { 
			"-0.025": 0.0,
			"-0.024": 0.0,
			"-0.023": 0.0,
			"-0.022": 0.0,
			"-0.021": 0.0,
			"-0.02": 0.0,
			"-0.019": 0.0,
			"-0.018": 0.0,
			"-0.017": 0.0,
			"-0.016": 0.0,
			"-0.015": 0.0,
			"-0.014": 0.0,
			"-0.013": 0.0,
			"-0.012": 0.0,
			"-0.011": 0.0,
			"-0.01": 0.0,
			"-0.009": 0.624177540932,
			"-0.008": 8.16323965777,
			"-0.007": 14.8960369223,
			"-0.006": 13.6286261362,
			"-0.005": 10.5005664525,
			"-0.004": 10.9473786068,
			"-0.003": 10.828146548,
			"-0.002": 14.6341905957,
			"-0.001": 24.3045528094,
			"0.0": 25.5455794082,
			"0.001": 23.85304721,
			"0.002": 15.6852043078,
			"0.003": 15.5270100137,
			"0.004": 18.5209301121,
			"0.005": 10.6622251248,
			"0.006": 4.86390332187,
			"0.007": 3.39697759949,
			"0.008": 3.3048707943,
			"0.009": 2.35894885626,
			"0.01": 2.16920331377,
			"0.011": 1.67970196271,
			"0.012": 1.98612817275,
			"0.013": 1.79610069613,
			"0.014": 1.3255678002,
			"0.015": 0.126857214415,
			"0.016": 0.0,
			"0.017": 0.0,
			"0.018": 0.0,
			"0.019": 0.0,
			"0.02": 0.0,
			"0.021": 0.0,
			"0.022": 0.0,
			"0.023": 0.0,
			"0.024": 0.0,
			"0.025": 0.0
		}
	}
}
