{
	 "smiles": "CC1=C(C=C(F)C=C1)C#N", 
	 "Tm": 317.15, 
	 "num_atms": 16, 
	 "gaussian": { 
		 "optdone": 1, 
		 "sigma_profile": "yes", 
		 "theory": "DFT", 
		 "functional": "B3LYP", 
		 "basiset": "6-31G**", 
		 "properties": { 
			 "R2extent": 1758.5615, 
			 "electric_dipole_moment_norm": 3.81522479154, 
			 "electric_quadrupole_moment_norm": 9.66301287643, 
			 "total_energy": -463.042325652, 
			 "HOMO_LUMO_gap": 0.19886, 
			 "cosmo_polarized_energy": -7.86, 
			 "cosmo_cavitation_energy": 21.67, 
			 "cosmo_dispersion_energy": -15.14, 
			 "cosmo_repulsion_energy": 1.2, 
			 "cosmo_total_nonelectrostatic_energy": 7.73, 
			 "SMD_solvation_energy": 5.59 
		},
		"coords": [
			{
				"x": 1.1225086066,
				"y": -2.517137332,
				"z": 0.3727981113,
				"element": "C" 
			},
			{
				"x": -0.119154079,
				"y": -1.7447887995,
				"z": 0.0037219647,
				"element": "C" 
			},
			{
				"x": -0.2005586471,
				"y": -0.3485004029,
				"z": 0.2123835442,
				"element": "C" 
			},
			{
				"x": -1.3527886935,
				"y": 0.3778126327,
				"z": -0.1284518624,
				"element": "C" 
			},
			{
				"x": -2.4267549064,
				"y": -0.3029292288,
				"z": -0.6810557591,
				"element": "C" 
			},
			{
				"x": -3.5359919011,
				"y": 0.3855644634,
				"z": -1.011043177,
				"element": "F" 
			},
			{
				"x": -2.3867736155,
				"y": -1.6746051353,
				"z": -0.9021977151,
				"element": "C" 
			},
			{
				"x": -1.2329281674,
				"y": -2.3786898881,
				"z": -0.5568857462,
				"element": "C" 
			},
			{
				"x": 0.9133453027,
				"y": 0.3517539289,
				"z": 0.7845737457,
				"element": "C" 
			},
			{
				"x": 1.8225468623,
				"y": 0.9096167802,
				"z": 1.2490343395,
				"element": "N" 
			},
			{
				"x": 1.0044058782,
				"y": -3.5782436152,
				"z": 0.1412580946,
				"element": "H" 
			},
			{
				"x": 1.9993614857,
				"y": -2.1454107418,
				"z": -0.1683289458,
				"element": "H" 
			},
			{
				"x": 1.3477837369,
				"y": -2.4240113299,
				"z": 1.4407177657,
				"element": "H" 
			},
			{
				"x": -1.4094233526,
				"y": 1.4477428622,
				"z": 0.0337548352,
				"element": "H" 
			},
			{
				"x": -3.2470288779,
				"y": -2.1721643513,
				"z": -1.336557133,
				"element": "H" 
			},
			{
				"x": -1.1972496318,
				"y": -3.4506098425,
				"z": -0.7279220622,
				"element": "H" 
			}
		],
		 "valence_orbital": [ 
			{
				"type": "occ",
				"energy": -0.35891,
				"method": "rhf"
			},
			{
				"type": "occ",
				"energy": -0.34629,
				"method": "rhf"
			},
			{
				"type": "occ",
				"energy": -0.33535,
				"method": "rhf"
			},
			{
				"type": "occ",
				"energy": -0.27636,
				"method": "rhf"
			},
			{
				"type": "occ",
				"energy": -0.25783,
				"method": "rhf"
			},
			{
				"type": "unocc",
				"energy": -0.05897,
				"method": "rhf"
			},
			{
				"type": "unocc",
				"energy": -0.02025,
				"method": "rhf"
			},
			{
				"type": "unocc",
				"energy": 0.03142,
				"method": "rhf"
			},
			{
				"type": "unocc",
				"energy": 0.07192,
				"method": "rhf"
			},
			{
				"type": "unocc",
				"energy": 0.07641,
				"method": "rhf"
			}
		],
		"cosmo_sigma_profile": { 
			"-0.025": 0.0,
			"-0.024": 0.0,
			"-0.023": 0.0,
			"-0.022": 0.0,
			"-0.021": 0.0,
			"-0.02": 0.0,
			"-0.019": 0.0,
			"-0.018": 0.0,
			"-0.017": 0.0,
			"-0.016": 0.0,
			"-0.015": 0.0,
			"-0.014": 0.0,
			"-0.013": 0.0,
			"-0.012": 0.0,
			"-0.011": 0.0,
			"-0.01": 0.0584870568431,
			"-0.009": 1.48620729412,
			"-0.008": 3.29112663865,
			"-0.007": 6.72671573618,
			"-0.006": 8.1424075347,
			"-0.005": 10.9435046203,
			"-0.004": 10.1997531566,
			"-0.003": 12.434361355,
			"-0.002": 13.3664777385,
			"-0.001": 20.8649479587,
			"0.0": 18.2018136046,
			"0.001": 15.671227844,
			"0.002": 10.9261873608,
			"0.003": 7.63873562633,
			"0.004": 11.1202607637,
			"0.005": 2.22543616863,
			"0.006": 2.45349506741,
			"0.007": 2.92825340305,
			"0.008": 2.96151395676,
			"0.009": 3.66745235958,
			"0.01": 2.74571476637,
			"0.011": 3.0280008951,
			"0.012": 2.22241359333,
			"0.013": 1.3978159788,
			"0.014": 0.0230923609387,
			"0.015": 0.0,
			"0.016": 0.0,
			"0.017": 0.0,
			"0.018": 0.0,
			"0.019": 0.0,
			"0.02": 0.0,
			"0.021": 0.0,
			"0.022": 0.0,
			"0.023": 0.0,
			"0.024": 0.0,
			"0.025": 0.0
		}
	}
}
