{
	 "smiles": "CC1=C(C)C2=C(C=C1)C(CCl)=CC(=O)O2", 
	 "Tm": 448.15, 
	 "num_atms": 26, 
	 "gaussian": { 
		 "optdone": 1, 
		 "sigma_profile": "yes", 
		 "theory": "DFT", 
		 "functional": "B3LYP", 
		 "basiset": "6-31G**", 
		 "properties": { 
			 "R2extent": 5570.346, 
			 "electric_dipole_moment_norm": 5.85440426175, 
			 "electric_quadrupole_moment_norm": 10.6465904073, 
			 "total_energy": -1074.56765819, 
			 "HOMO_LUMO_gap": 0.16849, 
			 "cosmo_polarized_energy": -12.86, 
			 "cosmo_cavitation_energy": 30.97, 
			 "cosmo_dispersion_energy": -22.88, 
			 "cosmo_repulsion_energy": 1.77, 
			 "cosmo_total_nonelectrostatic_energy": 9.87, 
			 "SMD_solvation_energy": 5.99 
		},
		"coords": [
			{
				"x": -1.7212244921,
				"y": 1.798563235,
				"z": 1.8009736983,
				"element": "C" 
			},
			{
				"x": -1.0074840991,
				"y": 0.5143417668,
				"z": 1.4577064931,
				"element": "C" 
			},
			{
				"x": -0.3299152434,
				"y": 0.3839284579,
				"z": 0.2326080105,
				"element": "C" 
			},
			{
				"x": -0.2960844883,
				"y": 1.5139214058,
				"z": -0.7673838443,
				"element": "C" 
			},
			{
				"x": 0.3191274381,
				"y": -0.8326035484,
				"z": -0.0394706695,
				"element": "C" 
			},
			{
				"x": 0.3148727646,
				"y": -1.915975238,
				"z": 0.8638822379,
				"element": "C" 
			},
			{
				"x": -0.3726029468,
				"y": -1.750204183,
				"z": 2.079370593,
				"element": "C" 
			},
			{
				"x": -1.0184919232,
				"y": -0.5578922055,
				"z": 2.3649877961,
				"element": "C" 
			},
			{
				"x": 1.0221022584,
				"y": -3.1301328802,
				"z": 0.4755945789,
				"element": "C" 
			},
			{
				"x": 1.0054214815,
				"y": -4.2777822038,
				"z": 1.4571048286,
				"element": "C" 
			},
			{
				"x": 1.8929359314,
				"y": -5.7576632995,
				"z": 0.9332873127,
				"element": "Cl" 
			},
			{
				"x": 1.6517950287,
				"y": -3.181850738,
				"z": -0.7207871672,
				"element": "C" 
			},
			{
				"x": 1.6540869414,
				"y": -2.0615478276,
				"z": -1.6509064344,
				"element": "C" 
			},
			{
				"x": 2.1930419506,
				"y": -2.0362640702,
				"z": -2.732256342,
				"element": "O" 
			},
			{
				"x": 0.9671194246,
				"y": -0.9229100422,
				"z": -1.2399539988,
				"element": "O" 
			},
			{
				"x": -2.4993078407,
				"y": 2.0353686964,
				"z": 1.0656888657,
				"element": "H" 
			},
			{
				"x": -2.1954563857,
				"y": 1.7354719253,
				"z": 2.7833171257,
				"element": "H" 
			},
			{
				"x": -1.0317535823,
				"y": 2.6509922415,
				"z": 1.8137736408,
				"element": "H" 
			},
			{
				"x": 0.1583316719,
				"y": 2.4111504793,
				"z": -0.3312280389,
				"element": "H" 
			},
			{
				"x": 0.2726470739,
				"y": 1.241819289,
				"z": -1.6553639011,
				"element": "H" 
			},
			{
				"x": -1.3091618359,
				"y": 1.7912448667,
				"z": -1.0813650075,
				"element": "H" 
			},
			{
				"x": -0.403010486,
				"y": -2.5560521113,
				"z": 2.8048534089,
				"element": "H" 
			},
			{
				"x": -1.5447809244,
				"y": -0.4469006916,
				"z": 3.3085556338,
				"element": "H" 
			},
			{
				"x": -0.0221590684,
				"y": -4.5919617452,
				"z": 1.6545937421,
				"element": "H" 
			},
			{
				"x": 1.4547427559,
				"y": -3.9717936531,
				"z": 2.4048020963,
				"element": "H" 
			},
			{
				"x": 2.1885085952,
				"y": -4.0616679263,
				"z": -1.0498846589,
				"element": "H" 
			}
		],
		 "valence_orbital": [ 
			{
				"type": "occ",
				"energy": -0.31449,
				"method": "rhf"
			},
			{
				"type": "occ",
				"energy": -0.30241,
				"method": "rhf"
			},
			{
				"type": "occ",
				"energy": -0.27306,
				"method": "rhf"
			},
			{
				"type": "occ",
				"energy": -0.24901,
				"method": "rhf"
			},
			{
				"type": "occ",
				"energy": -0.23635,
				"method": "rhf"
			},
			{
				"type": "unocc",
				"energy": -0.06786,
				"method": "rhf"
			},
			{
				"type": "unocc",
				"energy": -0.01269,
				"method": "rhf"
			},
			{
				"type": "unocc",
				"energy": -0.00073,
				"method": "rhf"
			},
			{
				"type": "unocc",
				"energy": 0.00978,
				"method": "rhf"
			},
			{
				"type": "unocc",
				"energy": 0.0814,
				"method": "rhf"
			}
		],
		"cosmo_sigma_profile": { 
			"-0.025": 0.0,
			"-0.024": 0.0,
			"-0.023": 0.0,
			"-0.022": 0.0,
			"-0.021": 0.0,
			"-0.02": 0.0,
			"-0.019": 0.0,
			"-0.018": 0.0,
			"-0.017": 0.0,
			"-0.016": 0.0,
			"-0.015": 0.0,
			"-0.014": 0.0,
			"-0.013": 0.0,
			"-0.012": 0.0,
			"-0.011": 0.0,
			"-0.01": 0.0433517071187,
			"-0.009": 4.25619851009,
			"-0.008": 7.44856718003,
			"-0.007": 5.73056464972,
			"-0.006": 7.25855501731,
			"-0.005": 13.4835970537,
			"-0.004": 19.624054064,
			"-0.003": 18.2459612374,
			"-0.002": 20.5247149626,
			"-0.001": 24.7835256379,
			"0.0": 30.3318641131,
			"0.001": 19.3608684093,
			"0.002": 15.7412566435,
			"0.003": 14.6064264726,
			"0.004": 11.0966420817,
			"0.005": 10.0487184922,
			"0.006": 5.9343740116,
			"0.007": 1.65783268056,
			"0.008": 1.91452206062,
			"0.009": 1.44016886981,
			"0.01": 2.46370272285,
			"0.011": 3.2400865143,
			"0.012": 6.20156626029,
			"0.013": 3.28789485965,
			"0.014": 0.23276158292,
			"0.015": 0.0,
			"0.016": 0.0,
			"0.017": 0.0,
			"0.018": 0.0,
			"0.019": 0.0,
			"0.02": 0.0,
			"0.021": 0.0,
			"0.022": 0.0,
			"0.023": 0.0,
			"0.024": 0.0,
			"0.025": 0.0
		}
	}
}
