{
	 "smiles": "[O-][N+](=O)C1=CC(F)=C(NCC2CCCO2)C=C1", 
	 "Tm": 342.15, 
	 "num_atms": 30, 
	 "gaussian": { 
		 "optdone": 1, 
		 "sigma_profile": "yes", 
		 "theory": "DFT", 
		 "functional": "B3LYP", 
		 "basiset": "6-31G**", 
		 "properties": { 
			 "R2extent": 6114.2534, 
			 "electric_dipole_moment_norm": 7.91259460923, 
			 "electric_quadrupole_moment_norm": 24.0058536451, 
			 "total_energy": -861.904526378, 
			 "HOMO_LUMO_gap": 0.14488, 
			 "cosmo_polarized_energy": -16.67, 
			 "cosmo_cavitation_energy": 33.84, 
			 "cosmo_dispersion_energy": -24.54, 
			 "cosmo_repulsion_energy": 1.89, 
			 "cosmo_total_nonelectrostatic_energy": 11.18, 
			 "SMD_solvation_energy": 7.33 
		},
		"coords": [
			{
				"x": 5.039174715,
				"y": 2.0065038147,
				"z": 1.9059308002,
				"element": "O" 
			},
			{
				"x": 4.549411379,
				"y": 1.0085261547,
				"z": 1.36925442,
				"element": "N" 
			},
			{
				"x": 5.2066865941,
				"y": 0.1055709615,
				"z": 0.8440122654,
				"element": "O" 
			},
			{
				"x": 3.1006821362,
				"y": 0.8901254874,
				"z": 1.3549269756,
				"element": "C" 
			},
			{
				"x": 2.5119360824,
				"y": -0.2224974554,
				"z": 0.7508131254,
				"element": "C" 
			},
			{
				"x": 1.1377050475,
				"y": -0.3278797441,
				"z": 0.7435674563,
				"element": "C" 
			},
			{
				"x": 0.5861132228,
				"y": -1.4102963368,
				"z": 0.1373307894,
				"element": "F" 
			},
			{
				"x": 0.2894651191,
				"y": 0.6470197119,
				"z": 1.3208374351,
				"element": "C" 
			},
			{
				"x": -1.0789071265,
				"y": 0.5709965628,
				"z": 1.350666852,
				"element": "N" 
			},
			{
				"x": -1.9586756715,
				"y": -0.4380116682,
				"z": 0.7708624225,
				"element": "C" 
			},
			{
				"x": -2.1884649596,
				"y": -0.2887649895,
				"z": -0.744230372,
				"element": "C" 
			},
			{
				"x": -3.0026585053,
				"y": 0.9605455429,
				"z": -1.1518672367,
				"element": "C" 
			},
			{
				"x": -4.4170068962,
				"y": 0.3993067838,
				"z": -1.3784166537,
				"element": "C" 
			},
			{
				"x": -4.0996095181,
				"y": -1.0037676202,
				"z": -1.8970596324,
				"element": "C" 
			},
			{
				"x": -2.9577867601,
				"y": -1.4289039579,
				"z": -1.1525952891,
				"element": "O" 
			},
			{
				"x": 0.9366730721,
				"y": 1.7583540884,
				"z": 1.9160555432,
				"element": "C" 
			},
			{
				"x": 2.314595434,
				"y": 1.8856260699,
				"z": 1.9377519748,
				"element": "C" 
			},
			{
				"x": 3.1207039212,
				"y": -0.9915797948,
				"z": 0.2932144594,
				"element": "H" 
			},
			{
				"x": -1.5336001052,
				"y": 1.3823591153,
				"z": 1.7393288981,
				"element": "H" 
			},
			{
				"x": -1.56849752,
				"y": -1.4371275765,
				"z": 0.9649901514,
				"element": "H" 
			},
			{
				"x": -2.9217516759,
				"y": -0.3595366949,
				"z": 1.2858115426,
				"element": "H" 
			},
			{
				"x": -1.2139622286,
				"y": -0.3118516991,
				"z": -1.2474372795,
				"element": "H" 
			},
			{
				"x": -2.6084191848,
				"y": 1.3838685593,
				"z": -2.0812434222,
				"element": "H" 
			},
			{
				"x": -2.9651564923,
				"y": 1.75092457,
				"z": -0.3956747952,
				"element": "H" 
			},
			{
				"x": -4.969270482,
				"y": 0.3358652716,
				"z": -0.43418771,
				"element": "H" 
			},
			{
				"x": -5.0102355281,
				"y": 0.9944593634,
				"z": -2.0781004405,
				"element": "H" 
			},
			{
				"x": -3.8701840669,
				"y": -0.9800970829,
				"z": -2.9744630467,
				"element": "H" 
			},
			{
				"x": -4.8995512444,
				"y": -1.7321842057,
				"z": -1.7334398958,
				"element": "H" 
			},
			{
				"x": 0.3214175736,
				"y": 2.5300105102,
				"z": 2.371185394,
				"element": "H" 
			},
			{
				"x": 2.7946736683,
				"y": 2.7397362581,
				"z": 2.3979752681,
				"element": "H" 
			}
		],
		 "valence_orbital": [ 
			{
				"type": "occ",
				"energy": -0.29504,
				"method": "rhf"
			},
			{
				"type": "occ",
				"energy": -0.27666,
				"method": "rhf"
			},
			{
				"type": "occ",
				"energy": -0.27018,
				"method": "rhf"
			},
			{
				"type": "occ",
				"energy": -0.26043,
				"method": "rhf"
			},
			{
				"type": "occ",
				"energy": -0.22005,
				"method": "rhf"
			},
			{
				"type": "unocc",
				"energy": -0.07517,
				"method": "rhf"
			},
			{
				"type": "unocc",
				"energy": -0.01941,
				"method": "rhf"
			},
			{
				"type": "unocc",
				"energy": 0.01853,
				"method": "rhf"
			},
			{
				"type": "unocc",
				"energy": 0.04659,
				"method": "rhf"
			},
			{
				"type": "unocc",
				"energy": 0.07316,
				"method": "rhf"
			}
		],
		"cosmo_sigma_profile": { 
			"-0.025": 0.0,
			"-0.024": 0.0,
			"-0.023": 0.0,
			"-0.022": 0.0,
			"-0.021": 0.0,
			"-0.02": 0.0,
			"-0.019": 0.0,
			"-0.018": 0.0,
			"-0.017": 0.0,
			"-0.016": 0.0,
			"-0.015": 0.237613876179,
			"-0.014": 1.44256663321,
			"-0.013": 1.80387163072,
			"-0.012": 1.47363135645,
			"-0.011": 1.350795408,
			"-0.01": 1.91990716922,
			"-0.009": 2.13482711048,
			"-0.008": 3.47722838509,
			"-0.007": 4.9435895892,
			"-0.006": 7.07935688754,
			"-0.005": 8.77069856832,
			"-0.004": 17.8601694029,
			"-0.003": 30.3943754114,
			"-0.002": 28.6471040693,
			"-0.001": 25.2082504428,
			"0.0": 29.2877915257,
			"0.001": 21.4558532013,
			"0.002": 13.3792493365,
			"0.003": 12.8700913116,
			"0.004": 8.98819830629,
			"0.005": 3.62002279305,
			"0.006": 3.89450534099,
			"0.007": 4.71200044478,
			"0.008": 9.37536168748,
			"0.009": 9.46392593592,
			"0.01": 5.02769677018,
			"0.011": 4.80784355666,
			"0.012": 1.89597727099,
			"0.013": 1.15098897149,
			"0.014": 0.826602040167,
			"0.015": 0.0,
			"0.016": 0.0,
			"0.017": 0.0,
			"0.018": 0.0,
			"0.019": 0.0,
			"0.02": 0.0,
			"0.021": 0.0,
			"0.022": 0.0,
			"0.023": 0.0,
			"0.024": 0.0,
			"0.025": 0.0
		}
	}
}
