{
	 "smiles": "O=C(CC1CCCC1)NC1=CC=C(C=C1)C#N", 
	 "Tm": 419.15, 
	 "num_atms": 33, 
	 "gaussian": { 
		 "optdone": 1, 
		 "sigma_profile": "yes", 
		 "theory": "DFT", 
		 "functional": "B3LYP", 
		 "basiset": "6-31G**", 
		 "properties": { 
			 "R2extent": 6668.5554, 
			 "electric_dipole_moment_norm": 2.44169731949, 
			 "electric_quadrupole_moment_norm": 30.9421349071, 
			 "total_energy": -727.867853665, 
			 "HOMO_LUMO_gap": 0.18413, 
			 "cosmo_polarized_energy": -15.75, 
			 "cosmo_cavitation_energy": 36.01, 
			 "cosmo_dispersion_energy": -25.66, 
			 "cosmo_repulsion_energy": 2.0, 
			 "cosmo_total_nonelectrostatic_energy": 12.34, 
			 "SMD_solvation_energy": 7.08 
		},
		"coords": [
			{
				"x": -0.7102679064,
				"y": 0.7647686657,
				"z": 2.9815609974,
				"element": "O" 
			},
			{
				"x": -0.4299820977,
				"y": 0.3498300126,
				"z": 1.8657885209,
				"element": "C" 
			},
			{
				"x": -0.6093249051,
				"y": 1.1675685696,
				"z": 0.5960132095,
				"element": "C" 
			},
			{
				"x": -1.5291022166,
				"y": 2.3927103097,
				"z": 0.7367568451,
				"element": "C" 
			},
			{
				"x": -2.9838486116,
				"y": 2.0744280278,
				"z": 1.1682039122,
				"element": "C" 
			},
			{
				"x": -3.4614630698,
				"y": 3.3665193249,
				"z": 1.8496131616,
				"element": "C" 
			},
			{
				"x": -2.2253570867,
				"y": 3.810182252,
				"z": 2.6511895188,
				"element": "C" 
			},
			{
				"x": -1.0301575962,
				"y": 3.5027017002,
				"z": 1.7201181485,
				"element": "C" 
			},
			{
				"x": 0.0619031355,
				"y": -0.9528424643,
				"z": 1.7691735931,
				"element": "N" 
			},
			{
				"x": 0.4237487536,
				"y": -1.786510508,
				"z": 0.7007682836,
				"element": "C" 
			},
			{
				"x": 0.9836341103,
				"y": -1.3232369364,
				"z": -0.5027277256,
				"element": "C" 
			},
			{
				"x": 1.3338654067,
				"y": -2.2197894805,
				"z": -1.5057131384,
				"element": "C" 
			},
			{
				"x": 1.1585312127,
				"y": -3.6012146027,
				"z": -1.3281835163,
				"element": "C" 
			},
			{
				"x": 0.6246772367,
				"y": -4.0702036907,
				"z": -0.1148464335,
				"element": "C" 
			},
			{
				"x": 0.2615318022,
				"y": -3.1745813882,
				"z": 0.8787380159,
				"element": "C" 
			},
			{
				"x": 1.5268625833,
				"y": -4.5192531529,
				"z": -2.3632003766,
				"element": "C" 
			},
			{
				"x": 1.8255556793,
				"y": -5.2657672927,
				"z": -3.2044829076,
				"element": "N" 
			},
			{
				"x": -0.9767446295,
				"y": 0.510733336,
				"z": -0.201571223,
				"element": "H" 
			},
			{
				"x": 0.3862086373,
				"y": 1.5038310408,
				"z": 0.2744951194,
				"element": "H" 
			},
			{
				"x": -1.5726013337,
				"y": 2.8312896574,
				"z": -0.2682849018,
				"element": "H" 
			},
			{
				"x": -2.9910337701,
				"y": 1.2592362064,
				"z": 1.8990170875,
				"element": "H" 
			},
			{
				"x": -3.6102719366,
				"y": 1.7710117302,
				"z": 0.3220368713,
				"element": "H" 
			},
			{
				"x": -4.3500308716,
				"y": 3.219072957,
				"z": 2.4721390237,
				"element": "H" 
			},
			{
				"x": -3.7146353923,
				"y": 4.1209301826,
				"z": 1.0923882271,
				"element": "H" 
			},
			{
				"x": -2.1434186738,
				"y": 3.1997979515,
				"z": 3.5564932093,
				"element": "H" 
			},
			{
				"x": -2.2654608448,
				"y": 4.8600498385,
				"z": 2.9589283987,
				"element": "H" 
			},
			{
				"x": -0.7416608749,
				"y": 4.3947218362,
				"z": 1.1523531434,
				"element": "H" 
			},
			{
				"x": -0.155697389,
				"y": 3.1825117721,
				"z": 2.2902870026,
				"element": "H" 
			},
			{
				"x": 0.0198623291,
				"y": -1.4016621404,
				"z": 2.6772622886,
				"element": "H" 
			},
			{
				"x": 1.1726804031,
				"y": -0.2693290556,
				"z": -0.6525900066,
				"element": "H" 
			},
			{
				"x": 1.7649774688,
				"y": -1.850008775,
				"z": -2.4299822754,
				"element": "H" 
			},
			{
				"x": 0.4892525486,
				"y": -5.1356731487,
				"z": 0.0370842971,
				"element": "H" 
			},
			{
				"x": -0.1658321006,
				"y": -3.545122735,
				"z": 1.8062736292,
				"element": "H" 
			}
		],
		 "valence_orbital": [ 
			{
				"type": "occ",
				"energy": -0.31362,
				"method": "rhf"
			},
			{
				"type": "occ",
				"energy": -0.3081,
				"method": "rhf"
			},
			{
				"type": "occ",
				"energy": -0.28609,
				"method": "rhf"
			},
			{
				"type": "occ",
				"energy": -0.26975,
				"method": "rhf"
			},
			{
				"type": "occ",
				"energy": -0.24279,
				"method": "rhf"
			},
			{
				"type": "unocc",
				"energy": -0.05866,
				"method": "rhf"
			},
			{
				"type": "unocc",
				"energy": -0.03496,
				"method": "rhf"
			},
			{
				"type": "unocc",
				"energy": 0.00719,
				"method": "rhf"
			},
			{
				"type": "unocc",
				"energy": 0.03381,
				"method": "rhf"
			},
			{
				"type": "unocc",
				"energy": 0.06207,
				"method": "rhf"
			}
		],
		"cosmo_sigma_profile": { 
			"-0.025": 0.0,
			"-0.024": 0.0,
			"-0.023": 0.0,
			"-0.022": 0.0,
			"-0.021": 0.0,
			"-0.02": 0.0,
			"-0.019": 0.0,
			"-0.018": 0.0,
			"-0.017": 0.0,
			"-0.016": 0.0,
			"-0.015": 0.174413332221,
			"-0.014": 1.1341065945,
			"-0.013": 1.24194958601,
			"-0.012": 1.5924851644,
			"-0.011": 0.823026273539,
			"-0.01": 1.40543249125,
			"-0.009": 2.48938920439,
			"-0.008": 7.45909286486,
			"-0.007": 9.7468877197,
			"-0.006": 10.5662443769,
			"-0.005": 10.528389201,
			"-0.004": 11.2593526222,
			"-0.003": 13.8117486035,
			"-0.002": 29.9303125206,
			"-0.001": 33.6253160531,
			"0.0": 34.1900578678,
			"0.001": 31.1771598601,
			"0.002": 29.418537733,
			"0.003": 7.24479356092,
			"0.004": 4.68988438103,
			"0.005": 3.38572981075,
			"0.006": 5.03020470756,
			"0.007": 3.5807804329,
			"0.008": 5.37044421599,
			"0.009": 5.58614257588,
			"0.01": 5.27065190077,
			"0.011": 4.18085634598,
			"0.012": 5.05861199352,
			"0.013": 4.40266080685,
			"0.014": 0.503896732835,
			"0.015": 0.0,
			"0.016": 0.0,
			"0.017": 0.0,
			"0.018": 0.0,
			"0.019": 0.0,
			"0.02": 0.0,
			"0.021": 0.0,
			"0.022": 0.0,
			"0.023": 0.0,
			"0.024": 0.0,
			"0.025": 0.0
		}
	}
}
