{
	 "smiles": "CC(=O)OC1CCC2(C)C(CCC3C4CC=C(C=CC5=CC=CC=C5)C4(C)CCC23)C1", 
	 "Tm": 392.15, 
	 "num_atms": 69, 
	 "gaussian": { 
		 "optdone": 1, 
		 "sigma_profile": "yes", 
		 "theory": "DFT", 
		 "functional": "B3LYP", 
		 "basiset": "6-31G**", 
		 "properties": { 
			 "R2extent": 23802.1639, 
			 "electric_dipole_moment_norm": 1.98570627486, 
			 "electric_quadrupole_moment_norm": 20.1450523985, 
			 "total_energy": -1278.4465078, 
			 "HOMO_LUMO_gap": 0.15505, 
			 "cosmo_polarized_energy": -11.23, 
			 "cosmo_cavitation_energy": 62.64, 
			 "cosmo_dispersion_energy": -42.98, 
			 "cosmo_repulsion_energy": 3.17, 
			 "cosmo_total_nonelectrostatic_energy": 22.83, 
			 "SMD_solvation_energy": 9.97 
		},
		"coords": [
			{
				"x": -1.0726118506,
				"y": -7.5467551707,
				"z": -3.0369764632,
				"element": "C" 
			},
			{
				"x": -1.1051588004,
				"y": -6.0511519372,
				"z": -3.2559479697,
				"element": "C" 
			},
			{
				"x": -1.7817547678,
				"y": -5.482341858,
				"z": -4.086270805,
				"element": "O" 
			},
			{
				"x": -0.2670182371,
				"y": -5.4254622752,
				"z": -2.3981738236,
				"element": "O" 
			},
			{
				"x": -0.1763597462,
				"y": -3.9720023883,
				"z": -2.4954975094,
				"element": "C" 
			},
			{
				"x": -1.2912160721,
				"y": -3.3167751135,
				"z": -1.664836506,
				"element": "C" 
			},
			{
				"x": -0.9319470321,
				"y": -3.2684829301,
				"z": -0.1745197967,
				"element": "C" 
			},
			{
				"x": 0.3687842365,
				"y": -2.4511222985,
				"z": 0.1445115777,
				"element": "C" 
			},
			{
				"x": 1.1351419426,
				"y": -3.2630102585,
				"z": 1.217589989,
				"element": "C" 
			},
			{
				"x": 1.204270683,
				"y": -2.3008820808,
				"z": -1.1630328689,
				"element": "C" 
			},
			{
				"x": 2.6096066557,
				"y": -1.7370711067,
				"z": -0.8842855901,
				"element": "C" 
			},
			{
				"x": 2.5786348916,
				"y": -0.5652357628,
				"z": 0.1319088018,
				"element": "C" 
			},
			{
				"x": 1.1732568318,
				"y": 0.0410116672,
				"z": 0.2637997505,
				"element": "C" 
			},
			{
				"x": 1.141175267,
				"y": 1.2586682128,
				"z": 1.2102964605,
				"element": "C" 
			},
			{
				"x": 1.9087182372,
				"y": 2.4950666656,
				"z": 0.6589504748,
				"element": "C" 
			},
			{
				"x": 0.9719589849,
				"y": 3.6466940588,
				"z": 0.8808588192,
				"element": "C" 
			},
			{
				"x": -0.2273125532,
				"y": 3.2760094299,
				"z": 1.364077167,
				"element": "C" 
			},
			{
				"x": -1.3546594366,
				"y": 4.153411973,
				"z": 1.6749744639,
				"element": "C" 
			},
			{
				"x": -1.25965446,
				"y": 5.4565910452,
				"z": 2.0138185241,
				"element": "C" 
			},
			{
				"x": -2.3605798774,
				"y": 6.3814073575,
				"z": 2.2996269614,
				"element": "C" 
			},
			{
				"x": -3.7155255289,
				"y": 6.0697233951,
				"z": 2.0689427476,
				"element": "C" 
			},
			{
				"x": -4.7212912047,
				"y": 6.9822781313,
				"z": 2.3718392848,
				"element": "C" 
			},
			{
				"x": -4.4047539439,
				"y": 8.2354281793,
				"z": 2.9059851311,
				"element": "C" 
			},
			{
				"x": -3.0677689811,
				"y": 8.566084536,
				"z": 3.1311559187,
				"element": "C" 
			},
			{
				"x": -2.0611212028,
				"y": 7.6506989877,
				"z": 2.8298300642,
				"element": "C" 
			},
			{
				"x": -0.3222368468,
				"y": 1.7553230767,
				"z": 1.5402164794,
				"element": "C" 
			},
			{
				"x": -0.7391592412,
				"y": 1.4105976819,
				"z": 2.9853619467,
				"element": "C" 
			},
			{
				"x": -1.3205760388,
				"y": 1.1487159784,
				"z": 0.523048943,
				"element": "C" 
			},
			{
				"x": -1.2963940778,
				"y": -0.3982300221,
				"z": 0.4674832244,
				"element": "C" 
			},
			{
				"x": 0.1119560595,
				"y": -0.9988333711,
				"z": 0.7207206435,
				"element": "C" 
			},
			{
				"x": 1.2299425645,
				"y": -3.5959967069,
				"z": -1.9875994739,
				"element": "C" 
			},
			{
				"x": -1.7542747259,
				"y": -8.0306543155,
				"z": -3.7357626435,
				"element": "H" 
			},
			{
				"x": -1.3626600531,
				"y": -7.7820934014,
				"z": -2.0086591299,
				"element": "H" 
			},
			{
				"x": -0.0566968594,
				"y": -7.925660681,
				"z": -3.1827966906,
				"element": "H" 
			},
			{
				"x": -0.3101664867,
				"y": -3.7131336283,
				"z": -3.5482171372,
				"element": "H" 
			},
			{
				"x": -1.4627112378,
				"y": -2.308167525,
				"z": -2.0586842624,
				"element": "H" 
			},
			{
				"x": -2.2239062389,
				"y": -3.8648911164,
				"z": -1.8285510013,
				"element": "H" 
			},
			{
				"x": -0.778359434,
				"y": -4.303631381,
				"z": 0.1531322114,
				"element": "H" 
			},
			{
				"x": -1.7795938464,
				"y": -2.899231418,
				"z": 0.4094108462,
				"element": "H" 
			},
			{
				"x": 0.4794483857,
				"y": -3.4408572012,
				"z": 2.0779734923,
				"element": "H" 
			},
			{
				"x": 2.0246112178,
				"y": -2.7503273908,
				"z": 1.5907430901,
				"element": "H" 
			},
			{
				"x": 1.4460695819,
				"y": -4.2428694189,
				"z": 0.8399197374,
				"element": "H" 
			},
			{
				"x": 0.6857069986,
				"y": -1.5519194905,
				"z": -1.7779005981,
				"element": "H" 
			},
			{
				"x": 3.2690442157,
				"y": -2.5343420725,
				"z": -0.5204698794,
				"element": "H" 
			},
			{
				"x": 3.040724595,
				"y": -1.4010122248,
				"z": -1.8352884777,
				"element": "H" 
			},
			{
				"x": 2.9116104789,
				"y": -0.9032205232,
				"z": 1.1212304497,
				"element": "H" 
			},
			{
				"x": 3.2909237866,
				"y": 0.2106423522,
				"z": -0.170473434,
				"element": "H" 
			},
			{
				"x": 0.8859572701,
				"y": 0.3998923589,
				"z": -0.7363941504,
				"element": "H" 
			},
			{
				"x": 1.6089157175,
				"y": 0.9503348723,
				"z": 2.1550787547,
				"element": "H" 
			},
			{
				"x": 2.8755508844,
				"y": 2.6439876963,
				"z": 1.158660431,
				"element": "H" 
			},
			{
				"x": 2.1442020487,
				"y": 2.3832749354,
				"z": -0.4109699678,
				"element": "H" 
			},
			{
				"x": 1.2390926947,
				"y": 4.6684441239,
				"z": 0.6249661972,
				"element": "H" 
			},
			{
				"x": -2.3397865826,
				"y": 3.6897687852,
				"z": 1.6474859421,
				"element": "H" 
			},
			{
				"x": -0.2632077071,
				"y": 5.8856661459,
				"z": 2.1138642981,
				"element": "H" 
			},
			{
				"x": -3.9827281436,
				"y": 5.1101295425,
				"z": 1.6369417096,
				"element": "H" 
			},
			{
				"x": -5.7586193371,
				"y": 6.7192231083,
				"z": 2.1837908989,
				"element": "H" 
			},
			{
				"x": -5.1924329456,
				"y": 8.9464558157,
				"z": 3.1374595572,
				"element": "H" 
			},
			{
				"x": -2.807681862,
				"y": 9.5378755648,
				"z": 3.5414600731,
				"element": "H" 
			},
			{
				"x": -1.0217132185,
				"y": 7.9141798628,
				"z": 3.0098460022,
				"element": "H" 
			},
			{
				"x": -0.783625893,
				"y": 0.3300912292,
				"z": 3.1525312872,
				"element": "H" 
			},
			{
				"x": -0.0271927468,
				"y": 1.8314387938,
				"z": 3.7031874778,
				"element": "H" 
			},
			{
				"x": -1.7273950664,
				"y": 1.8217546051,
				"z": 3.2200370685,
				"element": "H" 
			},
			{
				"x": -1.0791011905,
				"y": 1.5521783544,
				"z": -0.4669218326,
				"element": "H" 
			},
			{
				"x": -2.3404138195,
				"y": 1.4870771534,
				"z": 0.7428270414,
				"element": "H" 
			},
			{
				"x": -1.6704099808,
				"y": -0.7005392092,
				"z": -0.5169534562,
				"element": "H" 
			},
			{
				"x": -2.0046055205,
				"y": -0.8061905823,
				"z": 1.1969370915,
				"element": "H" 
			},
			{
				"x": 0.2269240403,
				"y": -1.0869809461,
				"z": 1.8094624927,
				"element": "H" 
			},
			{
				"x": 1.9219372193,
				"y": -3.4971129411,
				"z": -2.8319021235,
				"element": "H" 
			},
			{
				"x": 1.6078173059,
				"y": -4.422836929,
				"z": -1.3760579327,
				"element": "H" 
			}
		],
		 "valence_orbital": [ 
			{
				"type": "occ",
				"energy": -0.26938,
				"method": "rhf"
			},
			{
				"type": "occ",
				"energy": -0.26256,
				"method": "rhf"
			},
			{
				"type": "occ",
				"energy": -0.25196,
				"method": "rhf"
			},
			{
				"type": "occ",
				"energy": -0.24832,
				"method": "rhf"
			},
			{
				"type": "occ",
				"energy": -0.19873,
				"method": "rhf"
			},
			{
				"type": "unocc",
				"energy": -0.04368,
				"method": "rhf"
			},
			{
				"type": "unocc",
				"energy": 0.00229,
				"method": "rhf"
			},
			{
				"type": "unocc",
				"energy": 0.01751,
				"method": "rhf"
			},
			{
				"type": "unocc",
				"energy": 0.02973,
				"method": "rhf"
			},
			{
				"type": "unocc",
				"energy": 0.0728,
				"method": "rhf"
			}
		],
		"cosmo_sigma_profile": { 
			"-0.025": 0.0,
			"-0.024": 0.0,
			"-0.023": 0.0,
			"-0.022": 0.0,
			"-0.021": 0.0,
			"-0.02": 0.0,
			"-0.019": 0.0,
			"-0.018": 0.0,
			"-0.017": 0.0,
			"-0.016": 0.0,
			"-0.015": 0.0,
			"-0.014": 0.0,
			"-0.013": 0.0,
			"-0.012": 0.0,
			"-0.011": 0.0,
			"-0.01": 0.0,
			"-0.009": 0.0,
			"-0.008": 0.0,
			"-0.007": 0.73485049423,
			"-0.006": 9.166223596,
			"-0.005": 19.5052190044,
			"-0.004": 28.9565578668,
			"-0.003": 45.4982275628,
			"-0.002": 66.8548009904,
			"-0.001": 81.5365288545,
			"0.0": 64.552898177,
			"0.001": 47.7899719378,
			"0.002": 30.126959095,
			"0.003": 18.4343661326,
			"0.004": 18.0735040098,
			"0.005": 19.8139700001,
			"0.006": 17.190786705,
			"0.007": 3.34753862329,
			"0.008": 2.50997294648,
			"0.009": 1.5454141955,
			"0.01": 1.63672746892,
			"0.011": 2.63906442286,
			"0.012": 4.23827200531,
			"0.013": 2.44302383799,
			"0.014": 0.193554730283,
			"0.015": 0.0,
			"0.016": 0.0,
			"0.017": 0.0,
			"0.018": 0.0,
			"0.019": 0.0,
			"0.02": 0.0,
			"0.021": 0.0,
			"0.022": 0.0,
			"0.023": 0.0,
			"0.024": 0.0,
			"0.025": 0.0
		}
	}
}
