{
	 "smiles": "CN(C)C(=O)NC1=CC(Cl)=C(Cl)C=C1", 
	 "Tm": 431.15, 
	 "num_atms": 24, 
	 "gaussian": { 
		 "optdone": 1, 
		 "sigma_profile": "yes", 
		 "theory": "DFT", 
		 "functional": "B3LYP", 
		 "basiset": "6-31G**", 
		 "properties": { 
			 "R2extent": 5419.4853, 
			 "electric_dipole_moment_norm": 3.05595599772, 
			 "electric_quadrupole_moment_norm": 14.4921570223, 
			 "total_energy": -1454.10838925, 
			 "HOMO_LUMO_gap": 0.19823, 
			 "cosmo_polarized_energy": -11.95, 
			 "cosmo_cavitation_energy": 31.13, 
			 "cosmo_dispersion_energy": -22.62, 
			 "cosmo_repulsion_energy": 1.79, 
			 "cosmo_total_nonelectrostatic_energy": 10.3, 
			 "SMD_solvation_energy": 6.11 
		},
		"coords": [
			{
				"x": 0.514711468,
				"y": -1.1530962249,
				"z": 2.3427298873,
				"element": "C" 
			},
			{
				"x": 1.354942585,
				"y": -1.5651302351,
				"z": 1.2221784565,
				"element": "N" 
			},
			{
				"x": 2.7612063336,
				"y": -1.7756156655,
				"z": 1.547852369,
				"element": "C" 
			},
			{
				"x": 0.87084208,
				"y": -2.2340951046,
				"z": 0.1188587515,
				"element": "C" 
			},
			{
				"x": 1.5304134029,
				"y": -3.0421363428,
				"z": -0.5233663287,
				"element": "O" 
			},
			{
				"x": -0.4643334072,
				"y": -1.9711403796,
				"z": -0.2508452016,
				"element": "N" 
			},
			{
				"x": -1.112562484,
				"y": -0.7266231626,
				"z": -0.3894926617,
				"element": "C" 
			},
			{
				"x": -2.4707036616,
				"y": -0.7384446406,
				"z": -0.7400673895,
				"element": "C" 
			},
			{
				"x": -3.1718431771,
				"y": 0.4514151363,
				"z": -0.9230641156,
				"element": "C" 
			},
			{
				"x": -4.8593419362,
				"y": 0.35962843,
				"z": -1.3666318668,
				"element": "Cl" 
			},
			{
				"x": -2.5306298149,
				"y": 1.6837138797,
				"z": -0.7408384512,
				"element": "C" 
			},
			{
				"x": -3.3704270629,
				"y": 3.2015739113,
				"z": -0.9464676129,
				"element": "Cl" 
			},
			{
				"x": -1.1803688161,
				"y": 1.6931469285,
				"z": -0.38733013,
				"element": "C" 
			},
			{
				"x": -0.4698335145,
				"y": 0.5091518431,
				"z": -0.2187831012,
				"element": "C" 
			},
			{
				"x": 0.7035852953,
				"y": -0.1079065875,
				"z": 2.6131882794,
				"element": "H" 
			},
			{
				"x": -0.5391021872,
				"y": -1.2635642813,
				"z": 2.0963491421,
				"element": "H" 
			},
			{
				"x": 0.7297894615,
				"y": -1.778409669,
				"z": 3.2195954138,
				"element": "H" 
			},
			{
				"x": 3.3192461426,
				"y": -1.9649806988,
				"z": 0.6323928688,
				"element": "H" 
			},
			{
				"x": 2.897019284,
				"y": -2.6347041709,
				"z": 2.2193130059,
				"element": "H" 
			},
			{
				"x": 3.1526898155,
				"y": -0.881144029,
				"z": 2.0427651843,
				"element": "H" 
			},
			{
				"x": -0.759575722,
				"y": -2.6708102335,
				"z": -0.9201708143,
				"element": "H" 
			},
			{
				"x": -2.9910146276,
				"y": -1.6817584943,
				"z": -0.8674785885,
				"element": "H" 
			},
			{
				"x": -0.679989013,
				"y": 2.6466919819,
				"z": -0.2585854418,
				"element": "H" 
			},
			{
				"x": 0.5829795557,
				"y": 0.543837809,
				"z": 0.0323983453,
				"element": "H" 
			}
		],
		 "valence_orbital": [ 
			{
				"type": "occ",
				"energy": -0.30173,
				"method": "rhf"
			},
			{
				"type": "occ",
				"energy": -0.27434,
				"method": "rhf"
			},
			{
				"type": "occ",
				"energy": -0.26315,
				"method": "rhf"
			},
			{
				"type": "occ",
				"energy": -0.24855,
				"method": "rhf"
			},
			{
				"type": "occ",
				"energy": -0.22745,
				"method": "rhf"
			},
			{
				"type": "unocc",
				"energy": -0.02922,
				"method": "rhf"
			},
			{
				"type": "unocc",
				"energy": -0.0241,
				"method": "rhf"
			},
			{
				"type": "unocc",
				"energy": 0.00028,
				"method": "rhf"
			},
			{
				"type": "unocc",
				"energy": 0.03591,
				"method": "rhf"
			},
			{
				"type": "unocc",
				"energy": 0.06028,
				"method": "rhf"
			}
		],
		"cosmo_sigma_profile": { 
			"-0.025": 0.0,
			"-0.024": 0.0,
			"-0.023": 0.0,
			"-0.022": 0.0,
			"-0.021": 0.0,
			"-0.02": 0.0,
			"-0.019": 0.0,
			"-0.018": 0.0,
			"-0.017": 0.0,
			"-0.016": 0.0,
			"-0.015": 0.0248705311415,
			"-0.014": 0.981762702024,
			"-0.013": 1.07518723965,
			"-0.012": 1.0819813065,
			"-0.011": 1.60509069448,
			"-0.01": 1.1844052276,
			"-0.009": 1.76299190241,
			"-0.008": 2.63191417389,
			"-0.007": 3.82233004782,
			"-0.006": 5.42677292758,
			"-0.005": 12.7375280982,
			"-0.004": 21.1127833963,
			"-0.003": 22.4119702582,
			"-0.002": 26.966022381,
			"-0.001": 19.247879616,
			"0.0": 19.4565900795,
			"0.001": 22.8717137503,
			"0.002": 23.2097790322,
			"0.003": 17.8525861899,
			"0.004": 18.0656981842,
			"0.005": 9.10001539225,
			"0.006": 2.00883582393,
			"0.007": 1.21537866144,
			"0.008": 1.93696252607,
			"0.009": 1.03275988859,
			"0.01": 1.38163280634,
			"0.011": 1.15198067212,
			"0.012": 2.08707242111,
			"0.013": 4.1139783976,
			"0.014": 4.32437545167,
			"0.015": 0.128112057027,
			"0.016": 0.0,
			"0.017": 0.0,
			"0.018": 0.0,
			"0.019": 0.0,
			"0.02": 0.0,
			"0.021": 0.0,
			"0.022": 0.0,
			"0.023": 0.0,
			"0.024": 0.0,
			"0.025": 0.0
		}
	}
}
