{
	 "smiles": "FC1=C(C=CC(Cl)=C1)S(Cl)(=O)=O", 
	 "Tm": 309.15, 
	 "num_atms": 15, 
	 "gaussian": { 
		 "optdone": 1, 
		 "sigma_profile": "yes", 
		 "theory": "DFT", 
		 "functional": "B3LYP", 
		 "basiset": "6-31G**", 
		 "properties": { 
			 "R2extent": 3935.356, 
			 "electric_dipole_moment_norm": 4.22728526835, 
			 "electric_quadrupole_moment_norm": 12.9131347499, 
			 "total_energy": -1799.22138622, 
			 "HOMO_LUMO_gap": 0.19077, 
			 "cosmo_polarized_energy": -8.53, 
			 "cosmo_cavitation_energy": 25.54, 
			 "cosmo_dispersion_energy": -19.38, 
			 "cosmo_repulsion_energy": 1.48, 
			 "cosmo_total_nonelectrostatic_energy": 7.64, 
			 "SMD_solvation_energy": 3.29 
		},
		"coords": [
			{
				"x": 0.1181164371,
				"y": -1.3663069143,
				"z": -1.8740593451,
				"element": "F" 
			},
			{
				"x": 0.2069403785,
				"y": -0.5114006541,
				"z": -0.8535721628,
				"element": "C" 
			},
			{
				"x": 1.3807668552,
				"y": 0.2202845611,
				"z": -0.6484338842,
				"element": "C" 
			},
			{
				"x": 1.4570647586,
				"y": 1.130898312,
				"z": 0.4087224952,
				"element": "C" 
			},
			{
				"x": 0.3703113991,
				"y": 1.3018082815,
				"z": 1.2609660242,
				"element": "C" 
			},
			{
				"x": -0.7909752338,
				"y": 0.5565296939,
				"z": 1.0389399955,
				"element": "C" 
			},
			{
				"x": -2.1598501258,
				"y": 0.7652951966,
				"z": 2.1017582995,
				"element": "Cl" 
			},
			{
				"x": -0.8884919331,
				"y": -0.3522686073,
				"z": -0.0153162264,
				"element": "C" 
			},
			{
				"x": 2.8184427536,
				"y": -0.0165493819,
				"z": -1.679620651,
				"element": "S" 
			},
			{
				"x": 2.1615759998,
				"y": 0.8382915343,
				"z": -3.5068413162,
				"element": "Cl" 
			},
			{
				"x": 3.8789572708,
				"y": 0.8471466521,
				"z": -1.1761987921,
				"element": "O" 
			},
			{
				"x": 3.0277841872,
				"y": -1.4336935989,
				"z": -1.9311672588,
				"element": "O" 
			},
			{
				"x": 2.372186114,
				"y": 1.6934362059,
				"z": 0.553837892,
				"element": "H" 
			},
			{
				"x": 0.4202285431,
				"y": 2.0014801368,
				"z": 2.0864915686,
				"element": "H" 
			},
			{
				"x": -1.7881574044,
				"y": -0.9283514176,
				"z": -0.1936066385,
				"element": "H" 
			}
		],
		 "valence_orbital": [ 
			{
				"type": "occ",
				"energy": -0.34452,
				"method": "rhf"
			},
			{
				"type": "occ",
				"energy": -0.33924,
				"method": "rhf"
			},
			{
				"type": "occ",
				"energy": -0.32041,
				"method": "rhf"
			},
			{
				"type": "occ",
				"energy": -0.29953,
				"method": "rhf"
			},
			{
				"type": "occ",
				"energy": -0.28746,
				"method": "rhf"
			},
			{
				"type": "unocc",
				"energy": -0.09669,
				"method": "rhf"
			},
			{
				"type": "unocc",
				"energy": -0.06214,
				"method": "rhf"
			},
			{
				"type": "unocc",
				"energy": -0.04902,
				"method": "rhf"
			},
			{
				"type": "unocc",
				"energy": -0.00402,
				"method": "rhf"
			},
			{
				"type": "unocc",
				"energy": 0.04001,
				"method": "rhf"
			}
		],
		"cosmo_sigma_profile": { 
			"-0.025": 0.0,
			"-0.024": 0.0,
			"-0.023": 0.0,
			"-0.022": 0.0,
			"-0.021": 0.0,
			"-0.02": 0.0,
			"-0.019": 0.0,
			"-0.018": 0.0,
			"-0.017": 0.0,
			"-0.016": 0.0,
			"-0.015": 0.0,
			"-0.014": 0.0,
			"-0.013": 0.0,
			"-0.012": 0.0,
			"-0.011": 0.106356264822,
			"-0.01": 1.87903330873,
			"-0.009": 4.80957804711,
			"-0.008": 5.12044083428,
			"-0.007": 4.94087869674,
			"-0.006": 5.93488604573,
			"-0.005": 6.10447386649,
			"-0.004": 10.2813693369,
			"-0.003": 17.03731278,
			"-0.002": 19.5180782219,
			"-0.001": 22.0894589613,
			"0.0": 15.1529810676,
			"0.001": 15.3017738756,
			"0.002": 25.3500552156,
			"0.003": 24.4036659055,
			"0.004": 6.3370912315,
			"0.005": 3.01922043595,
			"0.006": 4.91088834976,
			"0.007": 7.98445194991,
			"0.008": 9.29322910997,
			"0.009": 1.82471457967,
			"0.01": 0.0,
			"0.011": 0.0,
			"0.012": 0.0,
			"0.013": 0.0,
			"0.014": 0.0,
			"0.015": 0.0,
			"0.016": 0.0,
			"0.017": 0.0,
			"0.018": 0.0,
			"0.019": 0.0,
			"0.02": 0.0,
			"0.021": 0.0,
			"0.022": 0.0,
			"0.023": 0.0,
			"0.024": 0.0,
			"0.025": 0.0
		}
	}
}
