{
	 "smiles": "OC(=O)C1=CC(=CC=C1)C1=COC=C1", 
	 "Tm": 418.15, 
	 "num_atms": 22, 
	 "gaussian": { 
		 "optdone": 1, 
		 "sigma_profile": "yes", 
		 "theory": "DFT", 
		 "functional": "B3LYP", 
		 "basiset": "6-31G**", 
		 "properties": { 
			 "R2extent": 3837.1103, 
			 "electric_dipole_moment_norm": 1.70061512695, 
			 "electric_quadrupole_moment_norm": 11.7144673178, 
			 "total_energy": -649.65685843, 
			 "HOMO_LUMO_gap": 0.17183, 
			 "cosmo_polarized_energy": -11.05, 
			 "cosmo_cavitation_energy": 27.35, 
			 "cosmo_dispersion_energy": -20.01, 
			 "cosmo_repulsion_energy": 1.54, 
			 "cosmo_total_nonelectrostatic_energy": 8.89, 
			 "SMD_solvation_energy": 7.14 
		},
		"coords": [
			{
				"x": -3.5010395949,
				"y": 0.3272374674,
				"z": 0.9182327,
				"element": "O" 
			},
			{
				"x": -2.8438894735,
				"y": 0.5355176508,
				"z": -0.2513294797,
				"element": "C" 
			},
			{
				"x": -3.4028060481,
				"y": 0.9910543736,
				"z": -1.22971699,
				"element": "O" 
			},
			{
				"x": -1.4075267467,
				"y": 0.1535270181,
				"z": -0.1928658616,
				"element": "C" 
			},
			{
				"x": -0.8288706309,
				"y": -0.3747448046,
				"z": 0.9667679614,
				"element": "C" 
			},
			{
				"x": 0.5284878685,
				"y": -0.7266835933,
				"z": 0.9954391523,
				"element": "C" 
			},
			{
				"x": 1.2906816114,
				"y": -0.530149783,
				"z": -0.1704548197,
				"element": "C" 
			},
			{
				"x": 0.7132625901,
				"y": -0.0137866109,
				"z": -1.3296999368,
				"element": "C" 
			},
			{
				"x": -0.6354728528,
				"y": 0.3322937871,
				"z": -1.3478496485,
				"element": "C" 
			},
			{
				"x": 1.1323163541,
				"y": -1.2875187972,
				"z": 2.2139119329,
				"element": "C" 
			},
			{
				"x": 2.2255129255,
				"y": -2.1084088009,
				"z": 2.297768201,
				"element": "C" 
			},
			{
				"x": 2.4938834682,
				"y": -2.4325164905,
				"z": 3.5912920677,
				"element": "O" 
			},
			{
				"x": 1.5543773913,
				"y": -1.8077509398,
				"z": 4.3579792184,
				"element": "C" 
			},
			{
				"x": 0.6967106538,
				"y": -1.1009410209,
				"z": 3.5774050596,
				"element": "C" 
			},
			{
				"x": -4.4165655624,
				"y": 0.6084491306,
				"z": 0.7572089392,
				"element": "H" 
			},
			{
				"x": -1.4468942332,
				"y": -0.5254033769,
				"z": 1.8441226144,
				"element": "H" 
			},
			{
				"x": 2.3506926647,
				"y": -0.7669597229,
				"z": -0.1594293454,
				"element": "H" 
			},
			{
				"x": 1.3226152199,
				"y": 0.1294997057,
				"z": -2.2170497772,
				"element": "H" 
			},
			{
				"x": -1.1065249691,
				"y": 0.7425404535,
				"z": -2.2342260473,
				"element": "H" 
			},
			{
				"x": 2.8713132271,
				"y": -2.5556196268,
				"z": 1.5582643745,
				"element": "H" 
			},
			{
				"x": 1.638821717,
				"y": -1.9598639639,
				"z": 5.4226700454,
				"element": "H" 
			},
			{
				"x": -0.1305855798,
				"y": -0.4955720552,
				"z": 3.9184596395,
				"element": "H" 
			}
		],
		 "valence_orbital": [ 
			{
				"type": "occ",
				"energy": -0.3014,
				"method": "rhf"
			},
			{
				"type": "occ",
				"energy": -0.27682,
				"method": "rhf"
			},
			{
				"type": "occ",
				"energy": -0.26397,
				"method": "rhf"
			},
			{
				"type": "occ",
				"energy": -0.25416,
				"method": "rhf"
			},
			{
				"type": "occ",
				"energy": -0.22227,
				"method": "rhf"
			},
			{
				"type": "unocc",
				"energy": -0.05044,
				"method": "rhf"
			},
			{
				"type": "unocc",
				"energy": -0.02324,
				"method": "rhf"
			},
			{
				"type": "unocc",
				"energy": 0.01325,
				"method": "rhf"
			},
			{
				"type": "unocc",
				"energy": 0.04781,
				"method": "rhf"
			},
			{
				"type": "unocc",
				"energy": 0.07698,
				"method": "rhf"
			}
		],
		"cosmo_sigma_profile": { 
			"-0.025": 0.0,
			"-0.024": 0.0,
			"-0.023": 0.0,
			"-0.022": 0.0,
			"-0.021": 0.0,
			"-0.02": 0.0,
			"-0.019": 0.0329236927283,
			"-0.018": 0.802136266461,
			"-0.017": 0.752621986893,
			"-0.016": 1.07070281235,
			"-0.015": 0.647922631972,
			"-0.014": 0.380215239288,
			"-0.013": 0.373994660225,
			"-0.012": 0.918518040487,
			"-0.011": 1.33350556664,
			"-0.01": 0.902832607014,
			"-0.009": 2.9005147507,
			"-0.008": 4.83496779136,
			"-0.007": 8.34979492,
			"-0.006": 12.5892968116,
			"-0.005": 11.6647924551,
			"-0.004": 11.1952790486,
			"-0.003": 10.1609005624,
			"-0.002": 11.8296262662,
			"-0.001": 12.4682113458,
			"0.0": 13.252571584,
			"0.001": 16.3634821812,
			"0.002": 20.5533425074,
			"0.003": 27.2310404874,
			"0.004": 16.3908069673,
			"0.005": 7.50392040449,
			"0.006": 5.4460030744,
			"0.007": 4.93437012638,
			"0.008": 3.39173258148,
			"0.009": 1.96640590573,
			"0.01": 2.01901670718,
			"0.011": 3.74728745804,
			"0.012": 4.02701277299,
			"0.013": 0.0957491823297,
			"0.014": 0.0,
			"0.015": 0.0,
			"0.016": 0.0,
			"0.017": 0.0,
			"0.018": 0.0,
			"0.019": 0.0,
			"0.02": 0.0,
			"0.021": 0.0,
			"0.022": 0.0,
			"0.023": 0.0,
			"0.024": 0.0,
			"0.025": 0.0
		}
	}
}
