{
	 "smiles": "NC1=CC=CC=C1I", 
	 "Tm": 329.65, 
	 "num_atms": 14, 
	 "gaussian": { 
		 "optdone": 1, 
		 "sigma_profile": "no", 
		 "theory": "DFT", 
		 "functional": "B3LYP", 
		 "basiset": "6-31G**", 
		 "properties": { 
			 "R2extent": 2191.8929, 
			 "electric_dipole_moment_norm": 2.0450345156, 
			 "electric_quadrupole_moment_norm": 12.594720586, 
			 "total_energy": -298.394581554, 
			 "HOMO_LUMO_gap": 0.17411, 
			 "cosmo_polarized_energy": -88147.25, 
			 "cosmo_cavitation_energy": 20.5, 
			 "cosmo_dispersion_energy": -16.98, 
			 "cosmo_repulsion_energy": 1.36, 
			 "cosmo_total_nonelectrostatic_energy": 4.88, 
			 "SMD_solvation_energy": 2.61 
		},
		"coords": [
			{
				"x": -1.0802098912,
				"y": -2.1675181156,
				"z": 2.4494118666,
				"element": "N" 
			},
			{
				"x": -0.9512834104,
				"y": -2.0429376405,
				"z": 1.0751535274,
				"element": "C" 
			},
			{
				"x": -0.7924394587,
				"y": -0.7664650421,
				"z": 0.4950568099,
				"element": "C" 
			},
			{
				"x": -0.7173452108,
				"y": -0.5980874355,
				"z": -0.8813972634,
				"element": "C" 
			},
			{
				"x": -0.7960524889,
				"y": -1.700086179,
				"z": -1.7364706338,
				"element": "C" 
			},
			{
				"x": -0.9501704769,
				"y": -2.9731581216,
				"z": -1.1901239763,
				"element": "C" 
			},
			{
				"x": -1.0259266784,
				"y": -3.1396229535,
				"z": 0.1930540317,
				"element": "C" 
			},
			{
				"x": -1.2482733892,
				"y": -5.1140255242,
				"z": 0.9588001987,
				"element": "I" 
			},
			{
				"x": -0.6973349066,
				"y": -1.407828337,
				"z": 2.993082286,
				"element": "H" 
			},
			{
				"x": -0.8827071558,
				"y": -3.0793181828,
				"z": 2.8383425587,
				"element": "H" 
			},
			{
				"x": -0.7363014448,
				"y": 0.0967424719,
				"z": 1.1539286747,
				"element": "H" 
			},
			{
				"x": -0.5950184302,
				"y": 0.4014227583,
				"z": -1.288542473,
				"element": "H" 
			},
			{
				"x": -0.7376171324,
				"y": -1.5758775449,
				"z": -2.8128276612,
				"element": "H" 
			},
			{
				"x": -1.0097199257,
				"y": -3.8410401534,
				"z": -1.8375679462,
				"element": "H" 
			}
		],
		 "valence_orbital": [ 
			{
				"type": "occ",
				"energy": -0.3171,
				"method": "rhf"
			},
			{
				"type": "occ",
				"energy": -0.29148,
				"method": "rhf"
			},
			{
				"type": "occ",
				"energy": -0.2698,
				"method": "rhf"
			},
			{
				"type": "occ",
				"energy": -0.24016,
				"method": "rhf"
			},
			{
				"type": "occ",
				"energy": -0.20911,
				"method": "rhf"
			},
			{
				"type": "unocc",
				"energy": -0.035,
				"method": "rhf"
			},
			{
				"type": "unocc",
				"energy": -0.00929,
				"method": "rhf"
			},
			{
				"type": "unocc",
				"energy": 0.00859,
				"method": "rhf"
			},
			{
				"type": "unocc",
				"energy": 0.0386,
				"method": "rhf"
			},
			{
				"type": "unocc",
				"energy": 0.05314,
				"method": "rhf"
			}
		],
		"cosmo_sigma_profile": { 
			"0.0": 0.0,
			"0.0": 0.0,
			"0.0": 0.0,
			"0.0": 0.0,
			"0.0": 0.0,
			"0.0": 0.0,
			"0.0": 0.0,
			"0.0": 0.0,
			"0.0": 0.0,
			"0.0": 0.0,
			"0.0": 0.0,
			"0.0": 0.0,
			"0.0": 0.0,
			"0.0": 0.0,
			"0.0": 0.0,
			"0.0": 0.0,
			"0.0": 0.0,
			"0.0": 0.0,
			"0.0": 0.0,
			"0.0": 0.0,
			"0.0": 0.0,
			"0.0": 0.0,
			"0.0": 0.0,
			"0.0": 0.0,
			"0.0": 0.0,
			"0.0": 0.0,
			"0.0": 0.0,
			"0.0": 0.0,
			"0.0": 0.0,
			"0.0": 0.0,
			"0.0": 0.0,
			"0.0": 0.0,
			"0.0": 0.0,
			"0.0": 0.0,
			"0.0": 0.0,
			"0.0": 0.0,
			"0.0": 0.0,
			"0.0": 0.0,
			"0.0": 0.0,
			"0.0": 0.0,
			"0.0": 0.0,
			"0.0": 0.0,
			"0.0": 0.0,
			"0.0": 0.0,
			"0.0": 0.0,
			"0.0": 0.0,
			"0.0": 0.0,
			"0.0": 0.0,
			"0.0": 0.0,
			"0.0": 0.0,
			"0.0": 0.0
		}
	}
}
