{
	 "smiles": "CC(C)N1NC(=CC1=O)C1=CC=C(F)C=C1", 
	 "Tm": 430.15, 
	 "num_atms": 29, 
	 "gaussian": { 
		 "optdone": 1, 
		 "sigma_profile": "yes", 
		 "theory": "DFT", 
		 "functional": "B3LYP", 
		 "basiset": "6-31G**", 
		 "properties": { 
			 "R2extent": 5122.6941, 
			 "electric_dipole_moment_norm": 4.14023599086, 
			 "electric_quadrupole_moment_norm": 21.1369313918, 
			 "total_energy": -749.662972194, 
			 "HOMO_LUMO_gap": 0.16667, 
			 "cosmo_polarized_energy": -15.46, 
			 "cosmo_cavitation_energy": 33.32, 
			 "cosmo_dispersion_energy": -23.26, 
			 "cosmo_repulsion_energy": 1.78, 
			 "cosmo_total_nonelectrostatic_energy": 11.84, 
			 "SMD_solvation_energy": 6.5 
		},
		"coords": [
			{
				"x": 1.8511018781,
				"y": -0.8280057864,
				"z": 2.9420690757,
				"element": "C" 
			},
			{
				"x": 2.4673504692,
				"y": -1.5808564903,
				"z": 1.7554250818,
				"element": "C" 
			},
			{
				"x": 3.7246191952,
				"y": -0.8981229787,
				"z": 1.2097346582,
				"element": "C" 
			},
			{
				"x": 1.49281707,
				"y": -1.8070907587,
				"z": 0.6802557087,
				"element": "N" 
			},
			{
				"x": 0.9162820129,
				"y": -0.6881841313,
				"z": 0.0411249688,
				"element": "N" 
			},
			{
				"x": -0.3074690389,
				"y": -1.1203700133,
				"z": -0.4851335256,
				"element": "C" 
			},
			{
				"x": -0.5909881669,
				"y": -2.3737212227,
				"z": -0.0394564771,
				"element": "C" 
			},
			{
				"x": 0.5269523317,
				"y": -2.8318737757,
				"z": 0.7811810083,
				"element": "C" 
			},
			{
				"x": 0.6720095837,
				"y": -3.840243414,
				"z": 1.4628200764,
				"element": "O" 
			},
			{
				"x": -1.0586919021,
				"y": -0.2256194426,
				"z": -1.3719117706,
				"element": "C" 
			},
			{
				"x": -0.8905619251,
				"y": 1.1682174538,
				"z": -1.2969900616,
				"element": "C" 
			},
			{
				"x": -1.601429324,
				"y": 2.0205023432,
				"z": -2.138392861,
				"element": "C" 
			},
			{
				"x": -2.4907559872,
				"y": 1.4670604437,
				"z": -3.0531944779,
				"element": "C" 
			},
			{
				"x": -3.1833278857,
				"y": 2.2850498198,
				"z": -3.8685438251,
				"element": "F" 
			},
			{
				"x": -2.6862269293,
				"y": 0.0924702889,
				"z": -3.1520766987,
				"element": "C" 
			},
			{
				"x": -1.9636080417,
				"y": -0.7487510657,
				"z": -2.3118017131,
				"element": "C" 
			},
			{
				"x": 0.9954410987,
				"y": -1.3798455577,
				"z": 3.3406810345,
				"element": "H" 
			},
			{
				"x": 1.5137784638,
				"y": 0.1682615447,
				"z": 2.6391096406,
				"element": "H" 
			},
			{
				"x": 2.5867624529,
				"y": -0.7131429613,
				"z": 3.7446581818,
				"element": "H" 
			},
			{
				"x": 2.7150112633,
				"y": -2.598572077,
				"z": 2.0721276476,
				"element": "H" 
			},
			{
				"x": 3.5143631945,
				"y": 0.1274684595,
				"z": 0.8830533526,
				"element": "H" 
			},
			{
				"x": 4.1397466945,
				"y": -1.4558410794,
				"z": 0.3648736541,
				"element": "H" 
			},
			{
				"x": 4.4895115943,
				"y": -0.8382179688,
				"z": 1.9896823968,
				"element": "H" 
			},
			{
				"x": 1.5463186162,
				"y": -0.2817738452,
				"z": -0.6479961585,
				"element": "H" 
			},
			{
				"x": -1.5064460869,
				"y": -2.9290625771,
				"z": -0.1751866207,
				"element": "H" 
			},
			{
				"x": -0.2172606951,
				"y": 1.5851375842,
				"z": -0.5546210947,
				"element": "H" 
			},
			{
				"x": -1.4863197655,
				"y": 3.0976212211,
				"z": -2.0869308016,
				"element": "H" 
			},
			{
				"x": -3.3847007484,
				"y": -0.2978949607,
				"z": -3.8840363979,
				"element": "H" 
			},
			{
				"x": -2.0861794222,
				"y": -1.8238990522,
				"z": -2.3936240016,
				"element": "H" 
			}
		],
		 "valence_orbital": [ 
			{
				"type": "occ",
				"energy": -0.28912,
				"method": "rhf"
			},
			{
				"type": "occ",
				"energy": -0.27754,
				"method": "rhf"
			},
			{
				"type": "occ",
				"energy": -0.24064,
				"method": "rhf"
			},
			{
				"type": "occ",
				"energy": -0.23591,
				"method": "rhf"
			},
			{
				"type": "occ",
				"energy": -0.21599,
				"method": "rhf"
			},
			{
				"type": "unocc",
				"energy": -0.04932,
				"method": "rhf"
			},
			{
				"type": "unocc",
				"energy": -0.02757,
				"method": "rhf"
			},
			{
				"type": "unocc",
				"energy": 0.02608,
				"method": "rhf"
			},
			{
				"type": "unocc",
				"energy": 0.06166,
				"method": "rhf"
			},
			{
				"type": "unocc",
				"energy": 0.08114,
				"method": "rhf"
			}
		],
		"cosmo_sigma_profile": { 
			"-0.025": 0.0,
			"-0.024": 0.0,
			"-0.023": 0.0,
			"-0.022": 0.0,
			"-0.021": 0.0,
			"-0.02": 0.0,
			"-0.019": 0.0,
			"-0.018": 0.0,
			"-0.017": 0.0,
			"-0.016": 0.0,
			"-0.015": 0.319009152057,
			"-0.014": 0.878326638027,
			"-0.013": 0.960352833453,
			"-0.012": 1.04526710329,
			"-0.011": 0.786751903999,
			"-0.01": 2.02826241129,
			"-0.009": 1.3933577697,
			"-0.008": 2.98877946148,
			"-0.007": 10.0825935131,
			"-0.006": 10.4472869484,
			"-0.005": 11.4166997048,
			"-0.004": 15.6044251394,
			"-0.003": 21.731910967,
			"-0.002": 21.7102761702,
			"-0.001": 21.0923730921,
			"0.0": 30.2635524456,
			"0.001": 24.2890764977,
			"0.002": 22.1601222036,
			"0.003": 21.8658923219,
			"0.004": 16.007639275,
			"0.005": 4.517187917,
			"0.006": 1.7444850403,
			"0.007": 2.06338007983,
			"0.008": 1.15861595363,
			"0.009": 1.21239215047,
			"0.01": 1.69212666225,
			"0.011": 1.41376729657,
			"0.012": 1.74991582301,
			"0.013": 1.13955479613,
			"0.014": 4.73901765508,
			"0.015": 5.00734097626,
			"0.016": 0.9134535075,
			"0.017": 0.0,
			"0.018": 0.0,
			"0.019": 0.0,
			"0.02": 0.0,
			"0.021": 0.0,
			"0.022": 0.0,
			"0.023": 0.0,
			"0.024": 0.0,
			"0.025": 0.0
		}
	}
}
