{
	 "smiles": "COC(=O)C1=CC(=CC(=C1)[N+]([O-])=O)C(O)=O", 
	 "Tm": 456.15, 
	 "num_atms": 23, 
	 "gaussian": { 
		 "optdone": 1, 
		 "sigma_profile": "yes", 
		 "theory": "DFT", 
		 "functional": "B3LYP", 
		 "basiset": "6-31G**", 
		 "properties": { 
			 "R2extent": 5023.9599, 
			 "electric_dipole_moment_norm": 3.2673762027, 
			 "electric_quadrupole_moment_norm": 25.3344306218, 
			 "total_energy": -853.183819665, 
			 "HOMO_LUMO_gap": 0.17888, 
			 "cosmo_polarized_energy": -19.92, 
			 "cosmo_cavitation_energy": 29.99, 
			 "cosmo_dispersion_energy": -21.56, 
			 "cosmo_repulsion_energy": 1.68, 
			 "cosmo_total_nonelectrostatic_energy": 10.12, 
			 "SMD_solvation_energy": 10.32 
		},
		"coords": [
			{
				"x": 2.8967286963,
				"y": -2.064591776,
				"z": 3.649394125,
				"element": "C" 
			},
			{
				"x": 2.3925603541,
				"y": -1.0573198955,
				"z": 2.7524488799,
				"element": "O" 
			},
			{
				"x": 2.198044435,
				"y": -1.461015863,
				"z": 1.482907703,
				"element": "C" 
			},
			{
				"x": 2.4185782122,
				"y": -2.5855314187,
				"z": 1.0848988443,
				"element": "O" 
			},
			{
				"x": 1.6752865716,
				"y": -0.3575691882,
				"z": 0.6155362891,
				"element": "C" 
			},
			{
				"x": 1.4448122482,
				"y": -0.6388166219,
				"z": -0.7338136455,
				"element": "C" 
			},
			{
				"x": 0.9407392733,
				"y": 0.3452413169,
				"z": -1.5935641273,
				"element": "C" 
			},
			{
				"x": 0.6964132131,
				"y": 1.6301693086,
				"z": -1.1000533024,
				"element": "C" 
			},
			{
				"x": 0.9425883066,
				"y": 1.8929545977,
				"z": 0.2452102013,
				"element": "C" 
			},
			{
				"x": 1.4232153742,
				"y": 0.9240569225,
				"z": 1.1179164005,
				"element": "C" 
			},
			{
				"x": 0.685037269,
				"y": 3.2524825197,
				"z": 0.7573314468,
				"element": "N" 
			},
			{
				"x": 0.9124415288,
				"y": 3.463773702,
				"z": 1.9454347704,
				"element": "O" 
			},
			{
				"x": 0.255642142,
				"y": 4.0844309246,
				"z": -0.0407356826,
				"element": "O" 
			},
			{
				"x": 0.7336570313,
				"y": -0.0290537991,
				"z": -3.0369392602,
				"element": "C" 
			},
			{
				"x": -0.0950372936,
				"y": 0.7590437525,
				"z": -3.7651300048,
				"element": "O" 
			},
			{
				"x": 1.2754862716,
				"y": -0.9806215226,
				"z": -3.5435506722,
				"element": "O" 
			},
			{
				"x": 2.9937263957,
				"y": -1.572232588,
				"z": 4.6161724227,
				"element": "H" 
			},
			{
				"x": 2.1994417304,
				"y": -2.9033014081,
				"z": 3.7101691784,
				"element": "H" 
			},
			{
				"x": 3.8654136112,
				"y": -2.4318203069,
				"z": 3.3029199705,
				"element": "H" 
			},
			{
				"x": 1.6580546232,
				"y": -1.6290870592,
				"z": -1.1203002543,
				"element": "H" 
			},
			{
				"x": 0.3527112888,
				"y": 2.4483839273,
				"z": -1.7230693252,
				"element": "H" 
			},
			{
				"x": 1.5984484433,
				"y": 1.1687501853,
				"z": 2.1568065326,
				"element": "H" 
			},
			{
				"x": -0.5772897265,
				"y": 1.37737429,
				"z": -3.1990904901,
				"element": "H" 
			}
		],
		 "valence_orbital": [ 
			{
				"type": "occ",
				"energy": -0.31323,
				"method": "rhf"
			},
			{
				"type": "occ",
				"energy": -0.30707,
				"method": "rhf"
			},
			{
				"type": "occ",
				"energy": -0.30602,
				"method": "rhf"
			},
			{
				"type": "occ",
				"energy": -0.29925,
				"method": "rhf"
			},
			{
				"type": "occ",
				"energy": -0.29104,
				"method": "rhf"
			},
			{
				"type": "unocc",
				"energy": -0.11216,
				"method": "rhf"
			},
			{
				"type": "unocc",
				"energy": -0.08911,
				"method": "rhf"
			},
			{
				"type": "unocc",
				"energy": -0.05271,
				"method": "rhf"
			},
			{
				"type": "unocc",
				"energy": 0.01414,
				"method": "rhf"
			},
			{
				"type": "unocc",
				"energy": 0.04218,
				"method": "rhf"
			}
		],
		"cosmo_sigma_profile": { 
			"-0.025": 0.0,
			"-0.024": 0.0,
			"-0.023": 0.0,
			"-0.022": 0.0,
			"-0.021": 0.000769075312495,
			"-0.02": 0.611354437871,
			"-0.019": 1.24151894751,
			"-0.018": 1.34065377551,
			"-0.017": 1.02125296981,
			"-0.016": 0.580460610079,
			"-0.015": 0.861051600361,
			"-0.014": 1.25819545662,
			"-0.013": 1.53998100175,
			"-0.012": 1.17168030402,
			"-0.011": 0.834279874715,
			"-0.01": 0.871817032598,
			"-0.009": 1.79277038037,
			"-0.008": 2.37201451094,
			"-0.007": 5.98252895069,
			"-0.006": 13.0356461434,
			"-0.005": 15.9910734837,
			"-0.004": 22.632155407,
			"-0.003": 25.7410572034,
			"-0.002": 24.487558639,
			"-0.001": 11.3188691271,
			"0.0": 7.65668105528,
			"0.001": 7.68198227081,
			"0.002": 7.19542912576,
			"0.003": 8.28754545207,
			"0.004": 8.52721158146,
			"0.005": 6.05882691862,
			"0.006": 10.1439386191,
			"0.007": 12.0047017045,
			"0.008": 9.69802436056,
			"0.009": 9.44221385566,
			"0.01": 7.32996558775,
			"0.011": 9.57654534229,
			"0.012": 2.47266548996,
			"0.013": 0.167063052431,
			"0.014": 0.0,
			"0.015": 0.0,
			"0.016": 0.0,
			"0.017": 0.0,
			"0.018": 0.0,
			"0.019": 0.0,
			"0.02": 0.0,
			"0.021": 0.0,
			"0.022": 0.0,
			"0.023": 0.0,
			"0.024": 0.0,
			"0.025": 0.0
		}
	}
}
