{
	 "smiles": "CC(C)(C)OC(=O)NN1CCCC1C(O)=O", 
	 "Tm": 409.15, 
	 "num_atms": 34, 
	 "gaussian": { 
		 "optdone": 1, 
		 "sigma_profile": "yes", 
		 "theory": "DFT", 
		 "functional": "B3LYP", 
		 "basiset": "6-31G**", 
		 "properties": { 
			 "R2extent": 4970.6888, 
			 "electric_dipole_moment_norm": 5.38803279964, 
			 "electric_quadrupole_moment_norm": 12.318996384, 
			 "total_energy": -802.316800144, 
			 "HOMO_LUMO_gap": 0.22633, 
			 "cosmo_polarized_energy": -19.61, 
			 "cosmo_cavitation_energy": 35.97, 
			 "cosmo_dispersion_energy": -24.43, 
			 "cosmo_repulsion_energy": 1.95, 
			 "cosmo_total_nonelectrostatic_energy": 13.49, 
			 "SMD_solvation_energy": 7.6 
		},
		"coords": [
			{
				"x": 0.8319163559,
				"y": 3.4625735721,
				"z": -1.2763254977,
				"element": "C" 
			},
			{
				"x": 1.2398012854,
				"y": 2.2342409559,
				"z": -2.0973283212,
				"element": "C" 
			},
			{
				"x": 2.6664989875,
				"y": 2.3506820752,
				"z": -2.6451417789,
				"element": "C" 
			},
			{
				"x": 0.2422912656,
				"y": 1.9847657695,
				"z": -3.2318508015,
				"element": "C" 
			},
			{
				"x": 1.1068875864,
				"y": 1.0152008919,
				"z": -1.2852999606,
				"element": "O" 
			},
			{
				"x": 1.8430331167,
				"y": 0.8579479245,
				"z": -0.1690272951,
				"element": "C" 
			},
			{
				"x": 2.6591447955,
				"y": 1.641751238,
				"z": 0.2878093305,
				"element": "O" 
			},
			{
				"x": 1.5604184374,
				"y": -0.3314074525,
				"z": 0.4694796851,
				"element": "N" 
			},
			{
				"x": 0.7904985199,
				"y": -1.3378876455,
				"z": -0.088998993,
				"element": "N" 
			},
			{
				"x": 1.5284053013,
				"y": -2.4801023453,
				"z": -0.6715322697,
				"element": "C" 
			},
			{
				"x": 0.5333229673,
				"y": -3.6610187382,
				"z": -0.5995442425,
				"element": "C" 
			},
			{
				"x": -0.7849219941,
				"y": -3.0437805155,
				"z": -0.0743714752,
				"element": "C" 
			},
			{
				"x": -0.30076007,
				"y": -1.8254317999,
				"z": 0.7388342377,
				"element": "C" 
			},
			{
				"x": 0.1427884205,
				"y": -2.2456307087,
				"z": 2.1502418799,
				"element": "C" 
			},
			{
				"x": -0.8562867628,
				"y": -2.4567314831,
				"z": 3.0447875036,
				"element": "O" 
			},
			{
				"x": 1.2953307204,
				"y": -2.4079737652,
				"z": 2.4757514701,
				"element": "O" 
			},
			{
				"x": -0.1746820705,
				"y": 3.3280649053,
				"z": -0.867349294,
				"element": "H" 
			},
			{
				"x": 0.820842644,
				"y": 4.3481316023,
				"z": -1.9202440047,
				"element": "H" 
			},
			{
				"x": 1.5282432869,
				"y": 3.6310254039,
				"z": -0.4547392118,
				"element": "H" 
			},
			{
				"x": 3.382470495,
				"y": 2.5073593046,
				"z": -1.8382413743,
				"element": "H" 
			},
			{
				"x": 2.9385431687,
				"y": 1.4411808473,
				"z": -3.1904847224,
				"element": "H" 
			},
			{
				"x": 2.7255314398,
				"y": 3.1938466085,
				"z": -3.3412115489,
				"element": "H" 
			},
			{
				"x": 0.2399829421,
				"y": 2.8318247703,
				"z": -3.9243868202,
				"element": "H" 
			},
			{
				"x": -0.769096755,
				"y": 1.8575660837,
				"z": -2.8349510961,
				"element": "H" 
			},
			{
				"x": 0.5092260252,
				"y": 1.0815488312,
				"z": -3.7881795345,
				"element": "H" 
			},
			{
				"x": 2.1789829511,
				"y": -0.566742512,
				"z": 1.2410010717,
				"element": "H" 
			},
			{
				"x": 1.8218226315,
				"y": -2.2288636279,
				"z": -1.6964208177,
				"element": "H" 
			},
			{
				"x": 2.4380511913,
				"y": -2.6952503777,
				"z": -0.0971125754,
				"element": "H" 
			},
			{
				"x": 0.8998055993,
				"y": -4.4169674226,
				"z": 0.1000717934,
				"element": "H" 
			},
			{
				"x": 0.3907492001,
				"y": -4.1499391482,
				"z": -1.5662697602,
				"element": "H" 
			},
			{
				"x": -1.3781572072,
				"y": -3.748819544,
				"z": 0.5153392603,
				"element": "H" 
			},
			{
				"x": -1.4042208945,
				"y": -2.6842773311,
				"z": -0.9007117223,
				"element": "H" 
			},
			{
				"x": -1.0733202355,
				"y": -1.0495443971,
				"z": 0.8278975804,
				"element": "H" 
			},
			{
				"x": -1.7146433451,
				"y": -2.2616419697,
				"z": 2.6412093053,
				"element": "H" 
			}
		],
		 "valence_orbital": [ 
			{
				"type": "occ",
				"energy": -0.28836,
				"method": "rhf"
			},
			{
				"type": "occ",
				"energy": -0.2832,
				"method": "rhf"
			},
			{
				"type": "occ",
				"energy": -0.26147,
				"method": "rhf"
			},
			{
				"type": "occ",
				"energy": -0.25152,
				"method": "rhf"
			},
			{
				"type": "occ",
				"energy": -0.23172,
				"method": "rhf"
			},
			{
				"type": "unocc",
				"energy": -0.00539,
				"method": "rhf"
			},
			{
				"type": "unocc",
				"energy": 0.0431,
				"method": "rhf"
			},
			{
				"type": "unocc",
				"energy": 0.05975,
				"method": "rhf"
			},
			{
				"type": "unocc",
				"energy": 0.08279,
				"method": "rhf"
			},
			{
				"type": "unocc",
				"energy": 0.09061,
				"method": "rhf"
			}
		],
		"cosmo_sigma_profile": { 
			"-0.025": 0.0,
			"-0.024": 0.0,
			"-0.023": 0.0,
			"-0.022": 0.0,
			"-0.021": 0.0,
			"-0.02": 0.039360536772,
			"-0.019": 0.767905278842,
			"-0.018": 1.14055441755,
			"-0.017": 0.991216574281,
			"-0.016": 1.30555970507,
			"-0.015": 1.21668092156,
			"-0.014": 0.629269926366,
			"-0.013": 0.99356903165,
			"-0.012": 1.54581885306,
			"-0.011": 1.51302522937,
			"-0.01": 1.42985719605,
			"-0.009": 1.61800488382,
			"-0.008": 2.05800871594,
			"-0.007": 3.85180416476,
			"-0.006": 3.94250507647,
			"-0.005": 7.46230368561,
			"-0.004": 23.0968434134,
			"-0.003": 33.3890818803,
			"-0.002": 31.8789219646,
			"-0.001": 34.5024042791,
			"0.0": 29.5564557981,
			"0.001": 22.5473504157,
			"0.002": 9.01982088117,
			"0.003": 7.11407180748,
			"0.004": 5.702961246,
			"0.005": 5.63428033297,
			"0.006": 4.89546277189,
			"0.007": 4.91821804763,
			"0.008": 5.23603688411,
			"0.009": 6.11903218871,
			"0.01": 6.82184507343,
			"0.011": 5.50902612328,
			"0.012": 5.15414240787,
			"0.013": 4.75280495186,
			"0.014": 2.69358734579,
			"0.015": 0.423277685991,
			"0.016": 0.156498632503,
			"0.017": 0.0,
			"0.018": 0.0,
			"0.019": 0.0,
			"0.02": 0.0,
			"0.021": 0.0,
			"0.022": 0.0,
			"0.023": 0.0,
			"0.024": 0.0,
			"0.025": 0.0
		}
	}
}
