{
	 "smiles": "CC1=NNC(=O)C(=C1)C1=NC=CN1", 
	 "Tm": 528.15, 
	 "num_atms": 21, 
	 "gaussian": { 
		 "optdone": 1, 
		 "sigma_profile": "yes", 
		 "theory": "DFT", 
		 "functional": "B3LYP", 
		 "basiset": "6-31G**", 
		 "properties": { 
			 "R2extent": 2633.7307, 
			 "electric_dipole_moment_norm": 0.550563474996, 
			 "electric_quadrupole_moment_norm": 9.32477515654, 
			 "total_energy": -603.900773067, 
			 "HOMO_LUMO_gap": 0.13881, 
			 "cosmo_polarized_energy": -12.54, 
			 "cosmo_cavitation_energy": 25.48, 
			 "cosmo_dispersion_energy": -19.39, 
			 "cosmo_repulsion_energy": 1.52, 
			 "cosmo_total_nonelectrostatic_energy": 7.61, 
			 "SMD_solvation_energy": 2.95 
		},
		"coords": [
			{
				"x": 2.0284580883,
				"y": -1.5059157204,
				"z": -2.6474960787,
				"element": "C" 
			},
			{
				"x": 0.9933225757,
				"y": -0.7582781921,
				"z": -1.8421719411,
				"element": "C" 
			},
			{
				"x": 0.4024946321,
				"y": 0.253697836,
				"z": -2.4390437458,
				"element": "N" 
			},
			{
				"x": -0.5193762996,
				"y": 0.9148124132,
				"z": -1.7138780865,
				"element": "N" 
			},
			{
				"x": -0.9446035377,
				"y": 0.6871946249,
				"z": -0.4180692799,
				"element": "C" 
			},
			{
				"x": -1.8158085042,
				"y": 1.410192919,
				"z": 0.089801,
				"element": "O" 
			},
			{
				"x": -0.2695610248,
				"y": -0.4439787352,
				"z": 0.2183947356,
				"element": "C" 
			},
			{
				"x": 0.6744727078,
				"y": -1.1319157213,
				"z": -0.504399446,
				"element": "C" 
			},
			{
				"x": -0.616850168,
				"y": -0.7983071724,
				"z": 1.5799917832,
				"element": "C" 
			},
			{
				"x": -0.0926906215,
				"y": -1.7962247906,
				"z": 2.2890878224,
				"element": "N" 
			},
			{
				"x": -0.7205085858,
				"y": -1.7431972503,
				"z": 3.4991430508,
				"element": "C" 
			},
			{
				"x": -1.6360818078,
				"y": -0.7054177004,
				"z": 3.5324829024,
				"element": "C" 
			},
			{
				"x": -1.5573555744,
				"y": -0.114720831,
				"z": 2.3038407768,
				"element": "N" 
			},
			{
				"x": 1.5856585026,
				"y": -1.9232146765,
				"z": -3.5569309809,
				"element": "H" 
			},
			{
				"x": 2.458913178,
				"y": -2.3247287958,
				"z": -2.0669661357,
				"element": "H" 
			},
			{
				"x": 2.8385192877,
				"y": -0.8375122409,
				"z": -2.954609814,
				"element": "H" 
			},
			{
				"x": -0.9629571833,
				"y": 1.6909946729,
				"z": -2.1915716745,
				"element": "H" 
			},
			{
				"x": 1.1786873664,
				"y": -1.9719827491,
				"z": -0.0376153468,
				"element": "H" 
			},
			{
				"x": -0.4904743045,
				"y": -2.4461574409,
				"z": 4.2879649693,
				"element": "H" 
			},
			{
				"x": -2.3081700328,
				"y": -0.3563820041,
				"z": 4.3010898169,
				"element": "H" 
			},
			{
				"x": -2.0547886942,
				"y": 0.6794415548,
				"z": 1.9064556726,
				"element": "H" 
			}
		],
		 "valence_orbital": [ 
			{
				"type": "occ",
				"energy": -0.28381,
				"method": "rhf"
			},
			{
				"type": "occ",
				"energy": -0.27428,
				"method": "rhf"
			},
			{
				"type": "occ",
				"energy": -0.26358,
				"method": "rhf"
			},
			{
				"type": "occ",
				"energy": -0.25366,
				"method": "rhf"
			},
			{
				"type": "occ",
				"energy": -0.21293,
				"method": "rhf"
			},
			{
				"type": "unocc",
				"energy": -0.07412,
				"method": "rhf"
			},
			{
				"type": "unocc",
				"energy": -0.00405,
				"method": "rhf"
			},
			{
				"type": "unocc",
				"energy": 0.03909,
				"method": "rhf"
			},
			{
				"type": "unocc",
				"energy": 0.06466,
				"method": "rhf"
			},
			{
				"type": "unocc",
				"energy": 0.08943,
				"method": "rhf"
			}
		],
		"cosmo_sigma_profile": { 
			"-0.025": 0.0,
			"-0.024": 0.0,
			"-0.023": 0.0,
			"-0.022": 0.0,
			"-0.021": 0.0,
			"-0.02": 0.0,
			"-0.019": 0.0,
			"-0.018": 0.0,
			"-0.017": 0.072062832961,
			"-0.016": 0.99834815387,
			"-0.015": 1.30774725014,
			"-0.014": 0.822806849057,
			"-0.013": 0.813761952524,
			"-0.012": 1.69343285846,
			"-0.011": 1.31888281141,
			"-0.01": 1.06040641527,
			"-0.009": 2.66767119053,
			"-0.008": 5.48067515403,
			"-0.007": 5.9991714362,
			"-0.006": 6.71972314394,
			"-0.005": 10.5842675193,
			"-0.004": 11.5637056102,
			"-0.003": 16.6408392434,
			"-0.002": 19.2358363582,
			"-0.001": 23.102418103,
			"0.0": 14.8728542411,
			"0.001": 11.2162636872,
			"0.002": 9.32428820559,
			"0.003": 9.45165438891,
			"0.004": 8.65199580019,
			"0.005": 7.15893672146,
			"0.006": 4.98042738485,
			"0.007": 3.21650112685,
			"0.008": 3.58968386753,
			"0.009": 3.78090953012,
			"0.01": 2.75930988669,
			"0.011": 4.4137084394,
			"0.012": 3.76311463919,
			"0.013": 3.79793576615,
			"0.014": 2.01569760917,
			"0.015": 0.844811298203,
			"0.016": 0.518134517858,
			"0.017": 0.0027903310365,
			"0.018": 0.0,
			"0.019": 0.0,
			"0.02": 0.0,
			"0.021": 0.0,
			"0.022": 0.0,
			"0.023": 0.0,
			"0.024": 0.0,
			"0.025": 0.0
		}
	}
}
