{
	 "smiles": "FC1=CC=CC=C1C1=NN=NN1", 
	 "Tm": 431.15, 
	 "num_atms": 17, 
	 "gaussian": { 
		 "optdone": 1, 
		 "sigma_profile": "yes", 
		 "theory": "DFT", 
		 "functional": "B3LYP", 
		 "basiset": "6-31G**", 
		 "properties": { 
			 "R2extent": 2057.4853, 
			 "electric_dipole_moment_norm": 6.02213327069, 
			 "electric_quadrupole_moment_norm": 11.9101603029, 
			 "total_energy": -588.54937146, 
			 "HOMO_LUMO_gap": 0.19823, 
			 "cosmo_polarized_energy": -14.03, 
			 "cosmo_cavitation_energy": 22.34, 
			 "cosmo_dispersion_energy": -16.87, 
			 "cosmo_repulsion_energy": 1.3, 
			 "cosmo_total_nonelectrostatic_energy": 6.76, 
			 "SMD_solvation_energy": 2.4 
		},
		"coords": [
			{
				"x": -0.4636796763,
				"y": -1.5243502712,
				"z": 0.4779462553,
				"element": "F" 
			},
			{
				"x": 0.40679633,
				"y": -0.5747369147,
				"z": 0.9184457271,
				"element": "C" 
			},
			{
				"x": 1.1716235765,
				"y": -0.8548974194,
				"z": 2.0402184554,
				"element": "C" 
			},
			{
				"x": 2.0656151262,
				"y": 0.113885398,
				"z": 2.4969209172,
				"element": "C" 
			},
			{
				"x": 2.1784304374,
				"y": 1.3371598206,
				"z": 1.8287035615,
				"element": "C" 
			},
			{
				"x": 1.4003886973,
				"y": 1.5958542252,
				"z": 0.7049055202,
				"element": "C" 
			},
			{
				"x": 0.4919382459,
				"y": 0.6364180307,
				"z": 0.2243920524,
				"element": "C" 
			},
			{
				"x": -0.3158494234,
				"y": 0.9276604974,
				"z": -0.9570853048,
				"element": "C" 
			},
			{
				"x": -0.2845544358,
				"y": 2.0521494564,
				"z": -1.6604909651,
				"element": "N" 
			},
			{
				"x": -1.1846867166,
				"y": 1.9015671321,
				"z": -2.6635520612,
				"element": "N" 
			},
			{
				"x": -1.7623731725,
				"y": 0.7438451106,
				"z": -2.607090848,
				"element": "N" 
			},
			{
				"x": -1.2284762497,
				"y": 0.1155409074,
				"z": -1.5388283154,
				"element": "N" 
			},
			{
				"x": 1.0579227697,
				"y": -1.8139199726,
				"z": 2.5331393409,
				"element": "H" 
			},
			{
				"x": 2.6721316153,
				"y": -0.0891412152,
				"z": 3.3739180386,
				"element": "H" 
			},
			{
				"x": 2.87430663,
				"y": 2.0894523093,
				"z": 2.1853672502,
				"element": "H" 
			},
			{
				"x": 1.4737301097,
				"y": 2.538281077,
				"z": 0.1735193839,
				"element": "H" 
			},
			{
				"x": -1.5130638635,
				"y": -0.8156681714,
				"z": -1.2729290084,
				"element": "H" 
			}
		],
		 "valence_orbital": [ 
			{
				"type": "occ",
				"energy": -0.32488,
				"method": "rhf"
			},
			{
				"type": "occ",
				"energy": -0.29852,
				"method": "rhf"
			},
			{
				"type": "occ",
				"energy": -0.28427,
				"method": "rhf"
			},
			{
				"type": "occ",
				"energy": -0.27519,
				"method": "rhf"
			},
			{
				"type": "occ",
				"energy": -0.25956,
				"method": "rhf"
			},
			{
				"type": "unocc",
				"energy": -0.06133,
				"method": "rhf"
			},
			{
				"type": "unocc",
				"energy": -0.02612,
				"method": "rhf"
			},
			{
				"type": "unocc",
				"energy": -2e-05,
				"method": "rhf"
			},
			{
				"type": "unocc",
				"energy": 0.04697,
				"method": "rhf"
			},
			{
				"type": "unocc",
				"energy": 0.0629,
				"method": "rhf"
			}
		],
		"cosmo_sigma_profile": { 
			"-0.025": 0.0,
			"-0.024": 0.0,
			"-0.023": 0.0,
			"-0.022": 0.0,
			"-0.021": 0.0,
			"-0.02": 0.0,
			"-0.019": 0.0,
			"-0.018": 0.529175508963,
			"-0.017": 0.946167538322,
			"-0.016": 0.486592670154,
			"-0.015": 0.586133662914,
			"-0.014": 1.1214656558,
			"-0.013": 0.428406236169,
			"-0.012": 1.14539752684,
			"-0.011": 0.92629999353,
			"-0.01": 0.913450169028,
			"-0.009": 1.36100338101,
			"-0.008": 4.21772990598,
			"-0.007": 8.13819670501,
			"-0.006": 10.0859724741,
			"-0.005": 10.7020218209,
			"-0.004": 11.1871782204,
			"-0.003": 10.2920095819,
			"-0.002": 10.4241520397,
			"-0.001": 12.5286787035,
			"0.0": 14.6780858062,
			"0.001": 14.1683048024,
			"0.002": 15.1364117823,
			"0.003": 12.1006605857,
			"0.004": 3.59662611031,
			"0.005": 2.67735106231,
			"0.006": 3.17101848787,
			"0.007": 3.46269140135,
			"0.008": 5.14417956525,
			"0.009": 4.96873924823,
			"0.01": 4.99961429556,
			"0.011": 4.32802921819,
			"0.012": 3.27968370395,
			"0.013": 2.54218989756,
			"0.014": 0.881137625356,
			"0.015": 0.00150218314176,
			"0.016": 0.0,
			"0.017": 0.0,
			"0.018": 0.0,
			"0.019": 0.0,
			"0.02": 0.0,
			"0.021": 0.0,
			"0.022": 0.0,
			"0.023": 0.0,
			"0.024": 0.0,
			"0.025": 0.0
		}
	}
}
