{
	 "smiles": "COC(=O)C1C2CCC(N2)C1C(=O)OC", 
	 "Tm": 351.15, 
	 "num_atms": 30, 
	 "gaussian": { 
		 "optdone": 1, 
		 "sigma_profile": "yes", 
		 "theory": "DFT", 
		 "functional": "B3LYP", 
		 "basiset": "6-31G**", 
		 "properties": { 
			 "R2extent": 3906.5496, 
			 "electric_dipole_moment_norm": 0.629958458948, 
			 "electric_quadrupole_moment_norm": 12.4224073504, 
			 "total_energy": -745.753193962, 
			 "HOMO_LUMO_gap": 0.23051, 
			 "cosmo_polarized_energy": -12.78, 
			 "cosmo_cavitation_energy": 31.49, 
			 "cosmo_dispersion_energy": -22.46, 
			 "cosmo_repulsion_energy": 1.78, 
			 "cosmo_total_nonelectrostatic_energy": 10.81, 
			 "SMD_solvation_energy": 4.5 
		},
		"coords": [
			{
				"x": 3.1224253008,
				"y": 0.4029315656,
				"z": -2.1678619148,
				"element": "C" 
			},
			{
				"x": 1.8098575803,
				"y": 0.8940833757,
				"z": -1.8418827582,
				"element": "O" 
			},
			{
				"x": 1.6124210097,
				"y": 1.1958030703,
				"z": -0.5467223154,
				"element": "C" 
			},
			{
				"x": 2.4818558255,
				"y": 1.1087811572,
				"z": 0.3026268471,
				"element": "O" 
			},
			{
				"x": 0.214455717,
				"y": 1.7106044269,
				"z": -0.28574821,
				"element": "C" 
			},
			{
				"x": 0.2969001191,
				"y": 3.1651420344,
				"z": 0.3159265584,
				"element": "C" 
			},
			{
				"x": -1.1112564451,
				"y": 3.7937413146,
				"z": 0.2640609729,
				"element": "C" 
			},
			{
				"x": -1.8335026664,
				"y": 3.0412668086,
				"z": 1.4256180687,
				"element": "C" 
			},
			{
				"x": -0.7200222096,
				"y": 2.0976129091,
				"z": 1.9299691651,
				"element": "C" 
			},
			{
				"x": 0.4661332473,
				"y": 2.9609998913,
				"z": 1.7627499711,
				"element": "N" 
			},
			{
				"x": -0.5336777256,
				"y": 0.956464928,
				"z": 0.8822647733,
				"element": "C" 
			},
			{
				"x": 0.210278648,
				"y": -0.2866039203,
				"z": 1.3537934612,
				"element": "C" 
			},
			{
				"x": 0.3944369487,
				"y": -1.2583269657,
				"z": 0.650844706,
				"element": "O" 
			},
			{
				"x": 0.627473362,
				"y": -0.2041033798,
				"z": 2.6323915869,
				"element": "O" 
			},
			{
				"x": 1.3908491253,
				"y": -1.3293477022,
				"z": 3.1006854137,
				"element": "C" 
			},
			{
				"x": 3.8836782437,
				"y": 1.1486134837,
				"z": -1.9258236653,
				"element": "H" 
			},
			{
				"x": 3.3320920102,
				"y": -0.5133424993,
				"z": -1.6113155845,
				"element": "H" 
			},
			{
				"x": 3.1038755923,
				"y": 0.206144057,
				"z": -3.239472335,
				"element": "H" 
			},
			{
				"x": -0.3533869804,
				"y": 1.67467073,
				"z": -1.2168144731,
				"element": "H" 
			},
			{
				"x": 1.0870519624,
				"y": 3.7743944511,
				"z": -0.1282086531,
				"element": "H" 
			},
			{
				"x": -1.5935030889,
				"y": 3.6561975415,
				"z": -0.7080352169,
				"element": "H" 
			},
			{
				"x": -1.0516196466,
				"y": 4.8665086128,
				"z": 0.4629260462,
				"element": "H" 
			},
			{
				"x": -2.7259099611,
				"y": 2.4990445727,
				"z": 1.0993275821,
				"element": "H" 
			},
			{
				"x": -2.1288499475,
				"y": 3.7320845222,
				"z": 2.2188478215,
				"element": "H" 
			},
			{
				"x": -0.8487235356,
				"y": 1.7394723549,
				"z": 2.9506796775,
				"element": "H" 
			},
			{
				"x": 1.321393744,
				"y": 2.4333033824,
				"z": 1.9401517278,
				"element": "H" 
			},
			{
				"x": -1.4908088328,
				"y": 0.5811633735,
				"z": 0.5049532295,
				"element": "H" 
			},
			{
				"x": 1.6372472132,
				"y": -1.1057141264,
				"z": 4.1384731104,
				"element": "H" 
			},
			{
				"x": 0.8036869593,
				"y": -2.2481260162,
				"z": 3.0321719359,
				"element": "H" 
			},
			{
				"x": 2.2989484311,
				"y": -1.4398639536,
				"z": 2.5037224712,
				"element": "H" 
			}
		],
		 "valence_orbital": [ 
			{
				"type": "occ",
				"energy": -0.30462,
				"method": "rhf"
			},
			{
				"type": "occ",
				"energy": -0.29893,
				"method": "rhf"
			},
			{
				"type": "occ",
				"energy": -0.27562,
				"method": "rhf"
			},
			{
				"type": "occ",
				"energy": -0.26437,
				"method": "rhf"
			},
			{
				"type": "occ",
				"energy": -0.23183,
				"method": "rhf"
			},
			{
				"type": "unocc",
				"energy": -0.00132,
				"method": "rhf"
			},
			{
				"type": "unocc",
				"energy": 0.02102,
				"method": "rhf"
			},
			{
				"type": "unocc",
				"energy": 0.07574,
				"method": "rhf"
			},
			{
				"type": "unocc",
				"energy": 0.09268,
				"method": "rhf"
			},
			{
				"type": "unocc",
				"energy": 0.11297,
				"method": "rhf"
			}
		],
		"cosmo_sigma_profile": { 
			"-0.025": 0.0,
			"-0.024": 0.0,
			"-0.023": 0.0,
			"-0.022": 0.0,
			"-0.021": 0.0,
			"-0.02": 0.0,
			"-0.019": 0.0,
			"-0.018": 0.0,
			"-0.017": 0.0,
			"-0.016": 0.0,
			"-0.015": 0.0,
			"-0.014": 0.0,
			"-0.013": 0.0,
			"-0.012": 0.0,
			"-0.011": 0.0,
			"-0.01": 0.0,
			"-0.009": 0.0,
			"-0.008": 0.0,
			"-0.007": 2.02534292337,
			"-0.006": 16.660332992,
			"-0.005": 23.7257431353,
			"-0.004": 28.4190559322,
			"-0.003": 30.870317203,
			"-0.002": 23.1392701437,
			"-0.001": 19.74183826,
			"0.0": 16.2197125238,
			"0.001": 13.2600967895,
			"0.002": 8.20628851231,
			"0.003": 8.52156029315,
			"0.004": 7.30526651457,
			"0.005": 7.70912196171,
			"0.006": 6.02815809168,
			"0.007": 6.36940977199,
			"0.008": 4.28254485277,
			"0.009": 3.77088132208,
			"0.01": 4.31094518018,
			"0.011": 4.64319054724,
			"0.012": 6.03460119438,
			"0.013": 1.77954112955,
			"0.014": 0.695494936783,
			"0.015": 0.582274137822,
			"0.016": 0.438908844791,
			"0.017": 0.589979484998,
			"0.018": 0.514491974981,
			"0.019": 0.0,
			"0.02": 0.0,
			"0.021": 0.0,
			"0.022": 0.0,
			"0.023": 0.0,
			"0.024": 0.0,
			"0.025": 0.0
		}
	}
}
