{
	 "smiles": "COC1=C(C)C=C(C=C1)C(=O)C1=CC=C(Cl)C=C1", 
	 "Tm": 395.15, 
	 "num_atms": 31, 
	 "gaussian": { 
		 "optdone": 1, 
		 "sigma_profile": "yes", 
		 "theory": "DFT", 
		 "functional": "B3LYP", 
		 "basiset": "6-31G**", 
		 "properties": { 
			 "R2extent": 8312.0993, 
			 "electric_dipole_moment_norm": 4.22702001178, 
			 "electric_quadrupole_moment_norm": 10.8772238053, 
			 "total_energy": -1190.07310079, 
			 "HOMO_LUMO_gap": 0.16451, 
			 "cosmo_polarized_energy": -10.8, 
			 "cosmo_cavitation_energy": 37.03, 
			 "cosmo_dispersion_energy": -26.63, 
			 "cosmo_repulsion_energy": 2.06, 
			 "cosmo_total_nonelectrostatic_energy": 12.46, 
			 "SMD_solvation_energy": 7.17 
		},
		"coords": [
			{
				"x": -0.1566316742,
				"y": -2.7960972154,
				"z": -3.8475935231,
				"element": "C" 
			},
			{
				"x": -0.9616141874,
				"y": -2.2170332991,
				"z": -2.8296400845,
				"element": "O" 
			},
			{
				"x": -0.3651541678,
				"y": -1.4355103744,
				"z": -1.8877526713,
				"element": "C" 
			},
			{
				"x": -1.2337589716,
				"y": -0.9125165806,
				"z": -0.9036911638,
				"element": "C" 
			},
			{
				"x": -2.7013841252,
				"y": -1.254192653,
				"z": -0.9391820944,
				"element": "C" 
			},
			{
				"x": -0.6902614203,
				"y": -0.0928766521,
				"z": 0.0810374547,
				"element": "C" 
			},
			{
				"x": 0.6832461675,
				"y": 0.212686325,
				"z": 0.1264853113,
				"element": "C" 
			},
			{
				"x": 1.521883849,
				"y": -0.3453050014,
				"z": -0.8466793547,
				"element": "C" 
			},
			{
				"x": 1.007128854,
				"y": -1.1521753606,
				"z": -1.8558842451,
				"element": "C" 
			},
			{
				"x": 1.3136250214,
				"y": 1.030243822,
				"z": 1.2037614919,
				"element": "C" 
			},
			{
				"x": 2.4996106002,
				"y": 0.8779908902,
				"z": 1.4845977438,
				"element": "O" 
			},
			{
				"x": 0.5127313283,
				"y": 2.0545169899,
				"z": 1.9589095092,
				"element": "C" 
			},
			{
				"x": -0.547615539,
				"y": 2.7763450506,
				"z": 1.3913340691,
				"element": "C" 
			},
			{
				"x": -1.2054368782,
				"y": 3.7693445202,
				"z": 2.1170779621,
				"element": "C" 
			},
			{
				"x": -0.8029393265,
				"y": 4.03149968,
				"z": 3.4258157913,
				"element": "C" 
			},
			{
				"x": -1.6372110237,
				"y": 5.2681972332,
				"z": 4.3522713215,
				"element": "Cl" 
			},
			{
				"x": 0.2565506862,
				"y": 3.3345811647,
				"z": 4.0114717841,
				"element": "C" 
			},
			{
				"x": 0.9152653015,
				"y": 2.3611812846,
				"z": 3.2681911939,
				"element": "C" 
			},
			{
				"x": 0.6035672234,
				"y": -3.4660477263,
				"z": -3.4275293492,
				"element": "H" 
			},
			{
				"x": 0.336115037,
				"y": -2.0285127946,
				"z": -4.456998507,
				"element": "H" 
			},
			{
				"x": -0.8371070616,
				"y": -3.3724138679,
				"z": -4.4758595458,
				"element": "H" 
			},
			{
				"x": -3.2314622984,
				"y": -0.7807179083,
				"z": -0.1088593527,
				"element": "H" 
			},
			{
				"x": -3.163429377,
				"y": -0.9260432391,
				"z": -1.8767527354,
				"element": "H" 
			},
			{
				"x": -2.8589881456,
				"y": -2.3364556554,
				"z": -0.8775720984,
				"element": "H" 
			},
			{
				"x": -1.3519477732,
				"y": 0.2920214958,
				"z": 0.8507012461,
				"element": "H" 
			},
			{
				"x": 2.5848171372,
				"y": -0.1344306411,
				"z": -0.7973146182,
				"element": "H" 
			},
			{
				"x": 1.674149507,
				"y": -1.5591090119,
				"z": -2.6064318551,
				"element": "H" 
			},
			{
				"x": -0.8488042801,
				"y": 2.5840529491,
				"z": 0.3672575091,
				"element": "H" 
			},
			{
				"x": -2.0164116017,
				"y": 4.3362022166,
				"z": 1.673536896,
				"element": "H" 
			},
			{
				"x": 0.558925659,
				"y": 3.5600553975,
				"z": 5.0281366671,
				"element": "H" 
			},
			{
				"x": 1.7579414797,
				"y": 1.8230189619,
				"z": 3.6890552474,
				"element": "H" 
			}
		],
		 "valence_orbital": [ 
			{
				"type": "occ",
				"energy": -0.26849,
				"method": "rhf"
			},
			{
				"type": "occ",
				"energy": -0.25603,
				"method": "rhf"
			},
			{
				"type": "occ",
				"energy": -0.25496,
				"method": "rhf"
			},
			{
				"type": "occ",
				"energy": -0.24387,
				"method": "rhf"
			},
			{
				"type": "occ",
				"energy": -0.22612,
				"method": "rhf"
			},
			{
				"type": "unocc",
				"energy": -0.06161,
				"method": "rhf"
			},
			{
				"type": "unocc",
				"energy": -0.01913,
				"method": "rhf"
			},
			{
				"type": "unocc",
				"energy": -0.01092,
				"method": "rhf"
			},
			{
				"type": "unocc",
				"energy": -0.00604,
				"method": "rhf"
			},
			{
				"type": "unocc",
				"energy": 0.0279,
				"method": "rhf"
			}
		],
		"cosmo_sigma_profile": { 
			"-0.025": 0.0,
			"-0.024": 0.0,
			"-0.023": 0.0,
			"-0.022": 0.0,
			"-0.021": 0.0,
			"-0.02": 0.0,
			"-0.019": 0.0,
			"-0.018": 0.0,
			"-0.017": 0.0,
			"-0.016": 0.0,
			"-0.015": 0.0,
			"-0.014": 0.0,
			"-0.013": 0.0,
			"-0.012": 0.0,
			"-0.011": 0.0,
			"-0.01": 0.0,
			"-0.009": 0.0,
			"-0.008": 1.21267098374,
			"-0.007": 6.42359038374,
			"-0.006": 17.1551337419,
			"-0.005": 21.8430452828,
			"-0.004": 24.1361249094,
			"-0.003": 24.2323077369,
			"-0.002": 20.9683897431,
			"-0.001": 22.0651333516,
			"0.0": 26.0639578826,
			"0.001": 25.9405707641,
			"0.002": 30.1781693985,
			"0.003": 24.4540423347,
			"0.004": 22.9677282886,
			"0.005": 8.5596382676,
			"0.006": 3.25565173889,
			"0.007": 3.33578433988,
			"0.008": 3.07082553925,
			"0.009": 2.04028284333,
			"0.01": 1.98217679819,
			"0.011": 2.36472793422,
			"0.012": 4.1950510183,
			"0.013": 1.79144327759,
			"0.014": 0.0,
			"0.015": 0.0,
			"0.016": 0.0,
			"0.017": 0.0,
			"0.018": 0.0,
			"0.019": 0.0,
			"0.02": 0.0,
			"0.021": 0.0,
			"0.022": 0.0,
			"0.023": 0.0,
			"0.024": 0.0,
			"0.025": 0.0
		}
	}
}
