{
	 "smiles": "NC1=CC(Cl)=CC=C1S", 
	 "Tm": 371.15, 
	 "num_atms": 15, 
	 "gaussian": { 
		 "optdone": 1, 
		 "sigma_profile": "yes", 
		 "theory": "DFT", 
		 "functional": "B3LYP", 
		 "basiset": "6-31G**", 
		 "properties": { 
			 "R2extent": 2310.3181, 
			 "electric_dipole_moment_norm": 2.10170933052, 
			 "electric_quadrupole_moment_norm": 13.6000072853, 
			 "total_energy": -1145.38888855, 
			 "HOMO_LUMO_gap": 0.19664, 
			 "cosmo_polarized_energy": -8.13, 
			 "cosmo_cavitation_energy": 22.22, 
			 "cosmo_dispersion_energy": -17.35, 
			 "cosmo_repulsion_energy": 1.38, 
			 "cosmo_total_nonelectrostatic_energy": 6.25, 
			 "SMD_solvation_energy": 3.08 
		},
		"coords": [
			{
				"x": 2.8347598475,
				"y": -1.9532319697,
				"z": 0.8472225911,
				"element": "N" 
			},
			{
				"x": 1.8202497714,
				"y": -1.1581857478,
				"z": 0.3414498403,
				"element": "C" 
			},
			{
				"x": 1.9711415046,
				"y": -0.5155548679,
				"z": -0.9014547044,
				"element": "C" 
			},
			{
				"x": 0.9319441474,
				"y": 0.2456512398,
				"z": -1.421368199,
				"element": "C" 
			},
			{
				"x": 1.1615981677,
				"y": 1.0397018143,
				"z": -2.9743048046,
				"element": "Cl" 
			},
			{
				"x": -0.2800168828,
				"y": 0.4009473103,
				"z": -0.7491239465,
				"element": "C" 
			},
			{
				"x": -0.4335937929,
				"y": -0.2456091678,
				"z": 0.4759076233,
				"element": "C" 
			},
			{
				"x": 0.5893293542,
				"y": -1.0202357104,
				"z": 1.0280726552,
				"element": "C" 
			},
			{
				"x": 0.3590162802,
				"y": -1.7536217399,
				"z": 2.651133998,
				"element": "S" 
			},
			{
				"x": 3.759384914,
				"y": -1.7677918363,
				"z": 0.4853186273,
				"element": "H" 
			},
			{
				"x": 2.8098922392,
				"y": -2.0807014776,
				"z": 1.8518757446,
				"element": "H" 
			},
			{
				"x": 2.9012226439,
				"y": -0.6127743287,
				"z": -1.4518064884,
				"element": "H" 
			},
			{
				"x": -1.0767486198,
				"y": 1.0000087953,
				"z": -1.1728683119,
				"element": "H" 
			},
			{
				"x": -1.3677074251,
				"y": -0.1513171098,
				"z": 1.0202401604,
				"element": "H" 
			},
			{
				"x": 0.3580278504,
				"y": -3.0523852039,
				"z": 2.2733052145,
				"element": "H" 
			}
		],
		 "valence_orbital": [ 
			{
				"type": "occ",
				"energy": -0.31237,
				"method": "rhf"
			},
			{
				"type": "occ",
				"energy": -0.30905,
				"method": "rhf"
			},
			{
				"type": "occ",
				"energy": -0.26719,
				"method": "rhf"
			},
			{
				"type": "occ",
				"energy": -0.24478,
				"method": "rhf"
			},
			{
				"type": "occ",
				"energy": -0.21663,
				"method": "rhf"
			},
			{
				"type": "unocc",
				"energy": -0.01999,
				"method": "rhf"
			},
			{
				"type": "unocc",
				"energy": -0.00226,
				"method": "rhf"
			},
			{
				"type": "unocc",
				"energy": 0.0247,
				"method": "rhf"
			},
			{
				"type": "unocc",
				"energy": 0.03776,
				"method": "rhf"
			},
			{
				"type": "unocc",
				"energy": 0.06372,
				"method": "rhf"
			}
		],
		"cosmo_sigma_profile": { 
			"-0.025": 0.0,
			"-0.024": 0.0,
			"-0.023": 0.0,
			"-0.022": 0.0,
			"-0.021": 0.0,
			"-0.02": 0.0,
			"-0.019": 0.0,
			"-0.018": 0.0,
			"-0.017": 0.0,
			"-0.016": 0.0,
			"-0.015": 0.0,
			"-0.014": 0.0448018411728,
			"-0.013": 1.30252900842,
			"-0.012": 1.76759942344,
			"-0.011": 1.58958511936,
			"-0.01": 3.71677922002,
			"-0.009": 5.27766396175,
			"-0.008": 3.95826017043,
			"-0.007": 5.01244657465,
			"-0.006": 8.27828319169,
			"-0.005": 7.73761991903,
			"-0.004": 7.04485182179,
			"-0.003": 6.80257792156,
			"-0.002": 8.9465956032,
			"-0.001": 9.16774172387,
			"0.0": 10.6921788672,
			"0.001": 13.1420187215,
			"0.002": 18.1447142563,
			"0.003": 18.473690437,
			"0.004": 24.5061636425,
			"0.005": 14.5812239169,
			"0.006": 3.74215420112,
			"0.007": 2.79494658521,
			"0.008": 1.80461252528,
			"0.009": 1.30693150915,
			"0.01": 0.741482601354,
			"0.011": 0.457524378042,
			"0.012": 0.623525225268,
			"0.013": 0.313805413768,
			"0.014": 0.0,
			"0.015": 0.0,
			"0.016": 0.0,
			"0.017": 0.0,
			"0.018": 0.0,
			"0.019": 0.0,
			"0.02": 0.0,
			"0.021": 0.0,
			"0.022": 0.0,
			"0.023": 0.0,
			"0.024": 0.0,
			"0.025": 0.0
		}
	}
}
