{
	 "smiles": "OC(=O)C1=C(F)C(F)=C(F)C(Cl)=C1F", 
	 "Tm": 363.15, 
	 "num_atms": 15, 
	 "gaussian": { 
		 "optdone": 1, 
		 "sigma_profile": "yes", 
		 "theory": "DFT", 
		 "functional": "B3LYP", 
		 "basiset": "6-31G**", 
		 "properties": { 
			 "R2extent": 2986.3742, 
			 "electric_dipole_moment_norm": 1.41932735125, 
			 "electric_quadrupole_moment_norm": 11.6237410901, 
			 "total_energy": -1277.30172585, 
			 "HOMO_LUMO_gap": 0.19719, 
			 "cosmo_polarized_energy": -8.94, 
			 "cosmo_cavitation_energy": 24.65, 
			 "cosmo_dispersion_energy": -17.8, 
			 "cosmo_repulsion_energy": 1.33, 
			 "cosmo_total_nonelectrostatic_energy": 8.18, 
			 "SMD_solvation_energy": 7.14 
		},
		"coords": [
			{
				"x": 0.6638230415,
				"y": 1.4869624245,
				"z": -2.9118635723,
				"element": "O" 
			},
			{
				"x": 1.3326305538,
				"y": 1.3201162324,
				"z": -1.7514324194,
				"element": "C" 
			},
			{
				"x": 2.4311941149,
				"y": 1.7843382219,
				"z": -1.5468483889,
				"element": "O" 
			},
			{
				"x": 0.567645463,
				"y": 0.4919377207,
				"z": -0.768190979,
				"element": "C" 
			},
			{
				"x": -0.833514632,
				"y": 0.482315129,
				"z": -0.7039743248,
				"element": "C" 
			},
			{
				"x": -1.5711361203,
				"y": 1.2202994507,
				"z": -1.5336695883,
				"element": "F" 
			},
			{
				"x": -1.5125403048,
				"y": -0.2724144554,
				"z": 0.2480207079,
				"element": "C" 
			},
			{
				"x": -2.8478486995,
				"y": -0.2526014177,
				"z": 0.2964702547,
				"element": "F" 
			},
			{
				"x": -0.7952425274,
				"y": -1.0449138663,
				"z": 1.1567486835,
				"element": "C" 
			},
			{
				"x": -1.4617094471,
				"y": -1.7626107504,
				"z": 2.0568084162,
				"element": "F" 
			},
			{
				"x": 0.6006881363,
				"y": -1.0666413362,
				"z": 1.1245297775,
				"element": "C" 
			},
			{
				"x": 1.485103025,
				"y": -2.0413040241,
				"z": 2.2483999914,
				"element": "Cl" 
			},
			{
				"x": 1.2615094077,
				"y": -0.2927402597,
				"z": 0.1680426544,
				"element": "C" 
			},
			{
				"x": 2.5902306986,
				"y": -0.3391816249,
				"z": 0.1381420051,
				"element": "F" 
			},
			{
				"x": 1.2320672903,
				"y": 2.0474385555,
				"z": -3.4674832179,
				"element": "H" 
			}
		],
		 "valence_orbital": [ 
			{
				"type": "occ",
				"energy": -0.34149,
				"method": "rhf"
			},
			{
				"type": "occ",
				"energy": -0.33526,
				"method": "rhf"
			},
			{
				"type": "occ",
				"energy": -0.29954,
				"method": "rhf"
			},
			{
				"type": "occ",
				"energy": -0.28077,
				"method": "rhf"
			},
			{
				"type": "occ",
				"energy": -0.26731,
				"method": "rhf"
			},
			{
				"type": "unocc",
				"energy": -0.07012,
				"method": "rhf"
			},
			{
				"type": "unocc",
				"energy": -0.03616,
				"method": "rhf"
			},
			{
				"type": "unocc",
				"energy": -0.01609,
				"method": "rhf"
			},
			{
				"type": "unocc",
				"energy": 0.01949,
				"method": "rhf"
			},
			{
				"type": "unocc",
				"energy": 0.05721,
				"method": "rhf"
			}
		],
		"cosmo_sigma_profile": { 
			"-0.025": 0.0,
			"-0.024": 0.0,
			"-0.023": 0.0,
			"-0.022": 0.0,
			"-0.021": 0.0,
			"-0.02": 0.0,
			"-0.019": 0.726725739735,
			"-0.018": 0.911888136998,
			"-0.017": 0.958915547607,
			"-0.016": 1.01597503791,
			"-0.015": 0.607965837812,
			"-0.014": 0.313600460762,
			"-0.013": 0.621211676253,
			"-0.012": 1.13897672713,
			"-0.011": 0.764780899245,
			"-0.01": 0.24813102902,
			"-0.009": 0.781395092318,
			"-0.008": 0.953222789052,
			"-0.007": 1.25749070745,
			"-0.006": 4.10609402875,
			"-0.005": 13.076796873,
			"-0.004": 19.5656542019,
			"-0.003": 14.3214693376,
			"-0.002": 11.3989375279,
			"-0.001": 9.43205509479,
			"0.0": 11.5922357124,
			"0.001": 18.052453934,
			"0.002": 39.5036031979,
			"0.003": 22.0529097293,
			"0.004": 5.12222279528,
			"0.005": 3.21305009069,
			"0.006": 3.2426114711,
			"0.007": 3.45272841871,
			"0.008": 3.1910390579,
			"0.009": 2.41749048625,
			"0.01": 4.21484008303,
			"0.011": 3.97704947939,
			"0.012": 0.0985681888089,
			"0.013": 0.0,
			"0.014": 0.0,
			"0.015": 0.0,
			"0.016": 0.0,
			"0.017": 0.0,
			"0.018": 0.0,
			"0.019": 0.0,
			"0.02": 0.0,
			"0.021": 0.0,
			"0.022": 0.0,
			"0.023": 0.0,
			"0.024": 0.0,
			"0.025": 0.0
		}
	}
}
