{
	 "smiles": "COC(=O)C=C(/N(NC1=CC=CC=C1N=NC1=CC=CC=C1)C1=CC=CC=C1)C(=O)OC", 
	 "Tm": 427.15, 
	 "num_atms": 54, 
	 "gaussian": { 
		 "optdone": 1, 
		 "sigma_profile": "yes", 
		 "theory": "DFT", 
		 "functional": "B3LYP", 
		 "basiset": "6-31G**", 
		 "properties": { 
			 "R2extent": 15244.1507, 
			 "electric_dipole_moment_norm": 3.45455793699, 
			 "electric_quadrupole_moment_norm": 8.93336981995, 
			 "total_energy": -1447.63505846, 
			 "HOMO_LUMO_gap": 0.11771, 
			 "cosmo_polarized_energy": -16.52, 
			 "cosmo_cavitation_energy": 59.4, 
			 "cosmo_dispersion_energy": -38.37, 
			 "cosmo_repulsion_energy": 2.93, 
			 "cosmo_total_nonelectrostatic_energy": 23.97, 
			 "SMD_solvation_energy": 11.97 
		},
		"coords": [
			{
				"x": 0.4761372743,
				"y": 4.9696894897,
				"z": -3.7117512426,
				"element": "C" 
			},
			{
				"x": -0.2681307291,
				"y": 4.3310728088,
				"z": -2.6641474595,
				"element": "O" 
			},
			{
				"x": 0.1619600303,
				"y": 3.0881963277,
				"z": -2.3282796588,
				"element": "C" 
			},
			{
				"x": 1.1032916732,
				"y": 2.5430033516,
				"z": -2.8765819843,
				"element": "O" 
			},
			{
				"x": -0.6365773236,
				"y": 2.5688621548,
				"z": -1.2069812862,
				"element": "C" 
			},
			{
				"x": -0.586872109,
				"y": 1.3062960568,
				"z": -0.7101456667,
				"element": "C" 
			},
			{
				"x": 0.0781097623,
				"y": 0.2172767525,
				"z": -1.2703835324,
				"element": "N" 
			},
			{
				"x": 0.7556419195,
				"y": -0.6387068716,
				"z": -0.398655213,
				"element": "N" 
			},
			{
				"x": 1.8998701748,
				"y": -0.173249115,
				"z": 0.2497793246,
				"element": "C" 
			},
			{
				"x": 2.7356036073,
				"y": 0.8012015214,
				"z": -0.3224502445,
				"element": "C" 
			},
			{
				"x": 3.9098717691,
				"y": 1.165370158,
				"z": 0.3257765799,
				"element": "C" 
			},
			{
				"x": 4.2821972514,
				"y": 0.5769751552,
				"z": 1.5456827951,
				"element": "C" 
			},
			{
				"x": 3.4564524399,
				"y": -0.3735994018,
				"z": 2.1245222961,
				"element": "C" 
			},
			{
				"x": 2.2558759158,
				"y": -0.7514791058,
				"z": 1.4964795654,
				"element": "C" 
			},
			{
				"x": 1.3153076336,
				"y": -1.644361084,
				"z": 2.0348097619,
				"element": "N" 
			},
			{
				"x": 1.670845662,
				"y": -2.2711549557,
				"z": 3.0724469908,
				"element": "N" 
			},
			{
				"x": 0.6679383271,
				"y": -3.0978488204,
				"z": 3.635114747,
				"element": "C" 
			},
			{
				"x": 1.1070681654,
				"y": -3.9967250428,
				"z": 4.6178906008,
				"element": "C" 
			},
			{
				"x": 0.2024922894,
				"y": -4.8557354137,
				"z": 5.23880465,
				"element": "C" 
			},
			{
				"x": -1.149871275,
				"y": -4.8094670542,
				"z": 4.8936706663,
				"element": "C" 
			},
			{
				"x": -1.59367248,
				"y": -3.8992935144,
				"z": 3.9261472168,
				"element": "C" 
			},
			{
				"x": -0.6963051229,
				"y": -3.0441280507,
				"z": 3.2953841087,
				"element": "C" 
			},
			{
				"x": -0.008103398,
				"y": -0.1936548034,
				"z": -2.6282060791,
				"element": "C" 
			},
			{
				"x": -1.096522248,
				"y": 0.1795758106,
				"z": -3.4292582856,
				"element": "C" 
			},
			{
				"x": -1.1809758751,
				"y": -0.270854739,
				"z": -4.744469895,
				"element": "C" 
			},
			{
				"x": -0.1964405981,
				"y": -1.1050878498,
				"z": -5.2775857031,
				"element": "C" 
			},
			{
				"x": 0.8795309049,
				"y": -1.4830926908,
				"z": -4.4735796076,
				"element": "C" 
			},
			{
				"x": 0.9806642552,
				"y": -1.0324640729,
				"z": -3.1587080518,
				"element": "C" 
			},
			{
				"x": -1.3918660139,
				"y": 0.9768149471,
				"z": 0.5288620076,
				"element": "C" 
			},
			{
				"x": -1.7481253843,
				"y": -0.1484131745,
				"z": 0.8210601451,
				"element": "O" 
			},
			{
				"x": -1.6890436387,
				"y": 2.0645369834,
				"z": 1.2582638559,
				"element": "O" 
			},
			{
				"x": -2.4986400933,
				"y": 1.8213201044,
				"z": 2.4234685517,
				"element": "C" 
			},
			{
				"x": 0.4457705813,
				"y": 4.371988118,
				"z": -4.6263295306,
				"element": "H" 
			},
			{
				"x": 1.5203136958,
				"y": 5.1043404864,
				"z": -3.4168923418,
				"element": "H" 
			},
			{
				"x": -0.0042683145,
				"y": 5.9356071856,
				"z": -3.8677088736,
				"element": "H" 
			},
			{
				"x": -1.287658478,
				"y": 3.2813359159,
				"z": -0.7181689283,
				"element": "H" 
			},
			{
				"x": 0.1464690015,
				"y": -1.2151186797,
				"z": 0.1756170674,
				"element": "H" 
			},
			{
				"x": 2.4520235282,
				"y": 1.2603600993,
				"z": -1.2639364926,
				"element": "H" 
			},
			{
				"x": 4.5487104453,
				"y": 1.9189124476,
				"z": -0.1265238944,
				"element": "H" 
			},
			{
				"x": 5.2039768801,
				"y": 0.8733931935,
				"z": 2.0366549561,
				"element": "H" 
			},
			{
				"x": 3.6959963524,
				"y": -0.8355706004,
				"z": 3.0757724543,
				"element": "H" 
			},
			{
				"x": 2.1630412409,
				"y": -4.0058009417,
				"z": 4.8691543739,
				"element": "H" 
			},
			{
				"x": 0.5499476845,
				"y": -5.5559587525,
				"z": 5.9928550483,
				"element": "H" 
			},
			{
				"x": -1.8590930279,
				"y": -5.4724821026,
				"z": 5.3809613112,
				"element": "H" 
			},
			{
				"x": -2.6482519367,
				"y": -3.8561488745,
				"z": 3.6681920347,
				"element": "H" 
			},
			{
				"x": -1.0311173361,
				"y": -2.3250097006,
				"z": 2.5557955641,
				"element": "H" 
			},
			{
				"x": -1.8782574686,
				"y": 0.8130165029,
				"z": -3.0248212694,
				"element": "H" 
			},
			{
				"x": -2.0328887919,
				"y": 0.0242184245,
				"z": -5.3507567411,
				"element": "H" 
			},
			{
				"x": -0.2688211248,
				"y": -1.4562843866,
				"z": -6.3023236064,
				"element": "H" 
			},
			{
				"x": 1.6550928526,
				"y": -2.1319384909,
				"z": -4.8705848479,
				"element": "H" 
			},
			{
				"x": 1.8158120684,
				"y": -1.3302946566,
				"z": -2.536876142,
				"element": "H" 
			},
			{
				"x": -3.461261862,
				"y": 1.3902901218,
				"z": 2.1380187782,
				"element": "H" 
			},
			{
				"x": -2.6356845518,
				"y": 2.7956034997,
				"z": 2.8909974818,
				"element": "H" 
			},
			{
				"x": -1.9881642051,
				"y": 1.1346653295,
				"z": 3.1024236444,
				"element": "H" 
			}
		],
		 "valence_orbital": [ 
			{
				"type": "occ",
				"energy": -0.2445,
				"method": "rhf"
			},
			{
				"type": "occ",
				"energy": -0.23178,
				"method": "rhf"
			},
			{
				"type": "occ",
				"energy": -0.22388,
				"method": "rhf"
			},
			{
				"type": "occ",
				"energy": -0.20935,
				"method": "rhf"
			},
			{
				"type": "occ",
				"energy": -0.19799,
				"method": "rhf"
			},
			{
				"type": "unocc",
				"energy": -0.08028,
				"method": "rhf"
			},
			{
				"type": "unocc",
				"energy": -0.07567,
				"method": "rhf"
			},
			{
				"type": "unocc",
				"energy": 0.00066,
				"method": "rhf"
			},
			{
				"type": "unocc",
				"energy": 0.00474,
				"method": "rhf"
			},
			{
				"type": "unocc",
				"energy": 0.00602,
				"method": "rhf"
			}
		],
		"cosmo_sigma_profile": { 
			"-0.025": 0.0,
			"-0.024": 0.0,
			"-0.023": 0.0,
			"-0.022": 0.0,
			"-0.021": 0.0,
			"-0.02": 0.0,
			"-0.019": 0.0,
			"-0.018": 0.0,
			"-0.017": 0.0,
			"-0.016": 0.0,
			"-0.015": 0.0,
			"-0.014": 0.0,
			"-0.013": 0.0,
			"-0.012": 0.0,
			"-0.011": 0.0,
			"-0.01": 0.0,
			"-0.009": 0.0,
			"-0.008": 0.0703861051991,
			"-0.007": 4.41445905423,
			"-0.006": 27.9485505731,
			"-0.005": 40.7376024121,
			"-0.004": 49.0701810921,
			"-0.003": 43.8146406069,
			"-0.002": 30.8301608754,
			"-0.001": 28.4799270786,
			"0.0": 29.8099877627,
			"0.001": 37.4217609458,
			"0.002": 40.2723429549,
			"0.003": 39.707660036,
			"0.004": 40.6512514865,
			"0.005": 24.7669965153,
			"0.006": 11.7247987338,
			"0.007": 7.06839704332,
			"0.008": 5.66501692281,
			"0.009": 5.13484147941,
			"0.01": 4.48869036936,
			"0.011": 2.40023151184,
			"0.012": 1.6021562183,
			"0.013": 0.0367728102165,
			"0.014": 0.0,
			"0.015": 0.0,
			"0.016": 0.0,
			"0.017": 0.0,
			"0.018": 0.0,
			"0.019": 0.0,
			"0.02": 0.0,
			"0.021": 0.0,
			"0.022": 0.0,
			"0.023": 0.0,
			"0.024": 0.0,
			"0.025": 0.0
		}
	}
}
