{
	 "smiles": "COC1=CC=C(CN2C=C(C=N2)C(O)=O)C=C1", 
	 "Tm": 406.15, 
	 "num_atms": 29, 
	 "gaussian": { 
		 "optdone": 1, 
		 "sigma_profile": "yes", 
		 "theory": "DFT", 
		 "functional": "B3LYP", 
		 "basiset": "6-31G**", 
		 "properties": { 
			 "R2extent": 6460.0644, 
			 "electric_dipole_moment_norm": 4.87352585404, 
			 "electric_quadrupole_moment_norm": 27.8218119899, 
			 "total_energy": -799.659181824, 
			 "HOMO_LUMO_gap": 0.20488, 
			 "cosmo_polarized_energy": -20.37, 
			 "cosmo_cavitation_energy": 34.4, 
			 "cosmo_dispersion_energy": -24.48, 
			 "cosmo_repulsion_energy": 1.9, 
			 "cosmo_total_nonelectrostatic_energy": 11.81, 
			 "SMD_solvation_energy": 7.2 
		},
		"coords": [
			{
				"x": 1.6334905696,
				"y": -0.532862566,
				"z": 4.5146028033,
				"element": "C" 
			},
			{
				"x": 0.3744132147,
				"y": -0.8674321882,
				"z": 3.9510581789,
				"element": "O" 
			},
			{
				"x": -0.001491474,
				"y": -0.2499698848,
				"z": 2.7960967139,
				"element": "C" 
			},
			{
				"x": 0.7622211274,
				"y": 0.705072936,
				"z": 2.117178155,
				"element": "C" 
			},
			{
				"x": 0.2670544912,
				"y": 1.2671127436,
				"z": 0.9358730818,
				"element": "C" 
			},
			{
				"x": -0.9758052369,
				"y": 0.9009711093,
				"z": 0.4205847988,
				"element": "C" 
			},
			{
				"x": -1.504214137,
				"y": 1.5261871926,
				"z": -0.8531465294,
				"element": "C" 
			},
			{
				"x": -1.6993090705,
				"y": 0.5628706497,
				"z": -1.9416167504,
				"element": "N" 
			},
			{
				"x": -0.7847196293,
				"y": 0.1029922947,
				"z": -2.8184287872,
				"element": "C" 
			},
			{
				"x": -1.416635154,
				"y": -0.8562205375,
				"z": -3.6008529372,
				"element": "C" 
			},
			{
				"x": -2.7395542132,
				"y": -0.8966256273,
				"z": -3.0885560847,
				"element": "C" 
			},
			{
				"x": -2.907223183,
				"y": -0.0408116942,
				"z": -2.0860228516,
				"element": "N" 
			},
			{
				"x": -0.7542326863,
				"y": -1.5843025079,
				"z": -4.6985683586,
				"element": "C" 
			},
			{
				"x": -1.4955127702,
				"y": -2.5314964106,
				"z": -5.3389587329,
				"element": "O" 
			},
			{
				"x": 0.3880721565,
				"y": -1.3797974583,
				"z": -5.0423542918,
				"element": "O" 
			},
			{
				"x": -1.7329508355,
				"y": -0.0578373561,
				"z": 1.1151995968,
				"element": "C" 
			},
			{
				"x": -1.2546008963,
				"y": -0.6287046043,
				"z": 2.2845686896,
				"element": "C" 
			},
			{
				"x": 2.4586904452,
				"y": -0.7715701142,
				"z": 3.8315160531,
				"element": "H" 
			},
			{
				"x": 1.6866821603,
				"y": 0.5297469323,
				"z": 4.784367322,
				"element": "H" 
			},
			{
				"x": 1.7293187256,
				"y": -1.1371973897,
				"z": 5.4177485066,
				"element": "H" 
			},
			{
				"x": 1.7317193905,
				"y": 1.0146202716,
				"z": 2.4884534144,
				"element": "H" 
			},
			{
				"x": 0.869813229,
				"y": 2.008008803,
				"z": 0.4155726311,
				"element": "H" 
			},
			{
				"x": -2.4826079921,
				"y": 1.9875151375,
				"z": -0.6968730149,
				"element": "H" 
			},
			{
				"x": -0.8195037525,
				"y": 2.2990482214,
				"z": -1.212905984,
				"element": "H" 
			},
			{
				"x": 0.23342997,
				"y": 0.4604994718,
				"z": -2.8494881475,
				"element": "H" 
			},
			{
				"x": -3.5840759059,
				"y": -1.49559857,
				"z": -3.4087313895,
				"element": "H" 
			},
			{
				"x": -2.3731173415,
				"y": -2.60480512,
				"z": -4.9398824107,
				"element": "H" 
			},
			{
				"x": -2.6994415133,
				"y": -0.3606411968,
				"z": 0.7222998379,
				"element": "H" 
			},
			{
				"x": -1.8307096887,
				"y": -1.3708725376,
				"z": 2.8273664871,
				"element": "H" 
			}
		],
		 "valence_orbital": [ 
			{
				"type": "occ",
				"energy": -0.27161,
				"method": "rhf"
			},
			{
				"type": "occ",
				"energy": -0.26434,
				"method": "rhf"
			},
			{
				"type": "occ",
				"energy": -0.26162,
				"method": "rhf"
			},
			{
				"type": "occ",
				"energy": -0.25832,
				"method": "rhf"
			},
			{
				"type": "occ",
				"energy": -0.22743,
				"method": "rhf"
			},
			{
				"type": "unocc",
				"energy": -0.02255,
				"method": "rhf"
			},
			{
				"type": "unocc",
				"energy": -0.0115,
				"method": "rhf"
			},
			{
				"type": "unocc",
				"energy": -0.00652,
				"method": "rhf"
			},
			{
				"type": "unocc",
				"energy": 0.01094,
				"method": "rhf"
			},
			{
				"type": "unocc",
				"energy": 0.05961,
				"method": "rhf"
			}
		],
		"cosmo_sigma_profile": { 
			"-0.025": 0.0,
			"-0.024": 0.0,
			"-0.023": 0.0,
			"-0.022": 0.0,
			"-0.021": 0.0,
			"-0.02": 0.0,
			"-0.019": 0.264911412609,
			"-0.018": 1.15534425007,
			"-0.017": 1.33522624259,
			"-0.016": 0.890002097743,
			"-0.015": 0.999452080713,
			"-0.014": 0.751299266984,
			"-0.013": 1.00517116043,
			"-0.012": 1.50416016458,
			"-0.011": 1.39074384549,
			"-0.01": 2.60689810397,
			"-0.009": 3.96196785061,
			"-0.008": 4.60225083097,
			"-0.007": 8.46068410273,
			"-0.006": 16.0162755519,
			"-0.005": 21.0349739988,
			"-0.004": 20.6407876816,
			"-0.003": 20.2109372642,
			"-0.002": 14.1506399819,
			"-0.001": 12.6797015227,
			"0.0": 14.1322837866,
			"0.001": 17.1259924225,
			"0.002": 18.5663567614,
			"0.003": 15.3652500805,
			"0.004": 14.5001902837,
			"0.005": 14.3393934093,
			"0.006": 7.67999586849,
			"0.007": 5.32338334842,
			"0.008": 4.74715303817,
			"0.009": 4.66717329826,
			"0.01": 6.48040068349,
			"0.011": 6.21662210731,
			"0.012": 7.20972909763,
			"0.013": 3.45161506882,
			"0.014": 1.07882223559,
			"0.015": 0.0514962453705,
			"0.016": 0.0,
			"0.017": 0.0,
			"0.018": 0.0,
			"0.019": 0.0,
			"0.02": 0.0,
			"0.021": 0.0,
			"0.022": 0.0,
			"0.023": 0.0,
			"0.024": 0.0,
			"0.025": 0.0
		}
	}
}
