{
	 "smiles": "ClC1=CC=C(C=C1)C1C2CCC3=C(C=CC=C3)C2=NN1C1=CC=CC=C1", 
	 "Tm": 442.15, 
	 "num_atms": 45, 
	 "gaussian": { 
		 "optdone": 1, 
		 "sigma_profile": "yes", 
		 "theory": "DFT", 
		 "functional": "B3LYP", 
		 "basiset": "6-31G**", 
		 "properties": { 
			 "R2extent": 11628.5786, 
			 "electric_dipole_moment_norm": 2.99319965756, 
			 "electric_quadrupole_moment_norm": 16.8064813578, 
			 "total_energy": -1457.58519882, 
			 "HOMO_LUMO_gap": 0.13484, 
			 "cosmo_polarized_energy": -11.59, 
			 "cosmo_cavitation_energy": 48.46, 
			 "cosmo_dispersion_energy": -33.67, 
			 "cosmo_repulsion_energy": 2.54, 
			 "cosmo_total_nonelectrostatic_energy": 17.33, 
			 "SMD_solvation_energy": 6.02 
		},
		"coords": [
			{
				"x": 1.3166176017,
				"y": 5.7962140985,
				"z": -0.8558611002,
				"element": "Cl" 
			},
			{
				"x": 1.4600396221,
				"y": 4.0750128082,
				"z": -0.5278996253,
				"element": "C" 
			},
			{
				"x": 1.0101875717,
				"y": 3.1550934355,
				"z": -1.474898055,
				"element": "C" 
			},
			{
				"x": 1.1289462867,
				"y": 1.7911878945,
				"z": -1.2106711474,
				"element": "C" 
			},
			{
				"x": 1.6911427412,
				"y": 1.337424376,
				"z": -0.0110069646,
				"element": "C" 
			},
			{
				"x": 2.1404868444,
				"y": 2.2823725253,
				"z": 0.9191095055,
				"element": "C" 
			},
			{
				"x": 2.028849161,
				"y": 3.6506490109,
				"z": 0.6717063153,
				"element": "C" 
			},
			{
				"x": 1.785716568,
				"y": -0.1476116826,
				"z": 0.3173408588,
				"element": "C" 
			},
			{
				"x": 0.4929179077,
				"y": -0.7705925613,
				"z": 0.9288511583,
				"element": "C" 
			},
			{
				"x": -0.5675899448,
				"y": 0.1181787547,
				"z": 1.5823771451,
				"element": "C" 
			},
			{
				"x": -1.7856654614,
				"y": -0.7548867525,
				"z": 1.9356480511,
				"element": "C" 
			},
			{
				"x": -2.3100219256,
				"y": -1.5697167764,
				"z": 0.7639819424,
				"element": "C" 
			},
			{
				"x": -1.4612878993,
				"y": -1.941675519,
				"z": -0.3050648921,
				"element": "C" 
			},
			{
				"x": -1.9719609399,
				"y": -2.7039926869,
				"z": -1.3723711734,
				"element": "C" 
			},
			{
				"x": -3.3014382593,
				"y": -3.1048745205,
				"z": -1.3802641224,
				"element": "C" 
			},
			{
				"x": -4.1453672885,
				"y": -2.7412025863,
				"z": -0.324444148,
				"element": "C" 
			},
			{
				"x": -3.6481468931,
				"y": -1.978029408,
				"z": 0.7304255952,
				"element": "C" 
			},
			{
				"x": -0.0763414826,
				"y": -1.4928710256,
				"z": -0.2750417037,
				"element": "C" 
			},
			{
				"x": 0.7779118665,
				"y": -1.6309343591,
				"z": -1.2359474512,
				"element": "N" 
			},
			{
				"x": 1.9461008223,
				"y": -1.000583138,
				"z": -0.8799451852,
				"element": "N" 
			},
			{
				"x": 3.0625199713,
				"y": -1.0452534828,
				"z": -1.7151022526,
				"element": "C" 
			},
			{
				"x": 4.2206021097,
				"y": -0.3094259621,
				"z": -1.4016686484,
				"element": "C" 
			},
			{
				"x": 5.3407413269,
				"y": -0.3825301558,
				"z": -2.2287696407,
				"element": "C" 
			},
			{
				"x": 5.3365739556,
				"y": -1.1772034216,
				"z": -3.3748437055,
				"element": "C" 
			},
			{
				"x": 4.1842241639,
				"y": -1.905300584,
				"z": -3.6851247764,
				"element": "C" 
			},
			{
				"x": 3.0570393755,
				"y": -1.8490006021,
				"z": -2.872094395,
				"element": "C" 
			},
			{
				"x": 0.5777580642,
				"y": 3.5022167956,
				"z": -2.4067845963,
				"element": "H" 
			},
			{
				"x": 0.7913169731,
				"y": 1.0727920388,
				"z": -1.9509209958,
				"element": "H" 
			},
			{
				"x": 2.5907580033,
				"y": 1.9494763596,
				"z": 1.8514948077,
				"element": "H" 
			},
			{
				"x": 2.3838908392,
				"y": 4.3774671068,
				"z": 1.3939380368,
				"element": "H" 
			},
			{
				"x": 2.6312289717,
				"y": -0.3019139588,
				"z": 0.9946638451,
				"element": "H" 
			},
			{
				"x": 0.7976306618,
				"y": -1.5347153843,
				"z": 1.6609810098,
				"element": "H" 
			},
			{
				"x": -0.1804507516,
				"y": 0.6068517065,
				"z": 2.4830783047,
				"element": "H" 
			},
			{
				"x": -0.8674178067,
				"y": 0.9110404385,
				"z": 0.8890552605,
				"element": "H" 
			},
			{
				"x": -1.506377684,
				"y": -1.4388978634,
				"z": 2.7512743739,
				"element": "H" 
			},
			{
				"x": -2.5917885392,
				"y": -0.1283602584,
				"z": 2.3330299793,
				"element": "H" 
			},
			{
				"x": -1.3051792803,
				"y": -2.9713655821,
				"z": -2.1857270349,
				"element": "H" 
			},
			{
				"x": -3.6845805635,
				"y": -3.6965007544,
				"z": -2.2066322591,
				"element": "H" 
			},
			{
				"x": -5.1878546329,
				"y": -3.0461674615,
				"z": -0.3283485047,
				"element": "H" 
			},
			{
				"x": -4.3091991178,
				"y": -1.6887165915,
				"z": 1.5441061321,
				"element": "H" 
			},
			{
				"x": 4.2465613414,
				"y": 0.3289515691,
				"z": -0.5262295052,
				"element": "H" 
			},
			{
				"x": 6.2235621844,
				"y": 0.195485452,
				"z": -1.9694249456,
				"element": "H" 
			},
			{
				"x": 6.2118820101,
				"y": -1.228431133,
				"z": -4.0147225155,
				"element": "H" 
			},
			{
				"x": 4.160376213,
				"y": -2.5310094756,
				"z": -4.5734024739,
				"element": "H" 
			},
			{
				"x": 2.167785312,
				"y": -2.4180506829,
				"z": -3.1114505034,
				"element": "H" 
			}
		],
		 "valence_orbital": [ 
			{
				"type": "occ",
				"energy": -0.24992,
				"method": "rhf"
			},
			{
				"type": "occ",
				"energy": -0.24662,
				"method": "rhf"
			},
			{
				"type": "occ",
				"energy": -0.2424,
				"method": "rhf"
			},
			{
				"type": "occ",
				"energy": -0.23958,
				"method": "rhf"
			},
			{
				"type": "occ",
				"energy": -0.1794,
				"method": "rhf"
			},
			{
				"type": "unocc",
				"energy": -0.04456,
				"method": "rhf"
			},
			{
				"type": "unocc",
				"energy": -0.02034,
				"method": "rhf"
			},
			{
				"type": "unocc",
				"energy": -0.01924,
				"method": "rhf"
			},
			{
				"type": "unocc",
				"energy": -0.00396,
				"method": "rhf"
			},
			{
				"type": "unocc",
				"energy": 0.00977,
				"method": "rhf"
			}
		],
		"cosmo_sigma_profile": { 
			"-0.025": 0.0,
			"-0.024": 0.0,
			"-0.023": 0.0,
			"-0.022": 0.0,
			"-0.021": 0.0,
			"-0.02": 0.0,
			"-0.019": 0.0,
			"-0.018": 0.0,
			"-0.017": 0.0,
			"-0.016": 0.0,
			"-0.015": 0.0,
			"-0.014": 0.0,
			"-0.013": 0.0,
			"-0.012": 0.0,
			"-0.011": 0.0,
			"-0.01": 0.0,
			"-0.009": 0.0,
			"-0.008": 0.433434004116,
			"-0.007": 7.85049021342,
			"-0.006": 14.4216318786,
			"-0.005": 30.2837692771,
			"-0.004": 35.002886201,
			"-0.003": 36.1643929778,
			"-0.002": 32.3852170601,
			"-0.001": 29.2628910128,
			"0.0": 24.8273619324,
			"0.001": 25.1193823559,
			"0.002": 29.2953729063,
			"0.003": 33.9933734215,
			"0.004": 35.3971945687,
			"0.005": 29.1016044408,
			"0.006": 14.8249202134,
			"0.007": 8.24269609344,
			"0.008": 1.37469383091,
			"0.009": 0.806098901517,
			"0.01": 0.21735518718,
			"0.011": 0.0,
			"0.012": 0.0,
			"0.013": 0.0,
			"0.014": 0.0,
			"0.015": 0.0,
			"0.016": 0.0,
			"0.017": 0.0,
			"0.018": 0.0,
			"0.019": 0.0,
			"0.02": 0.0,
			"0.021": 0.0,
			"0.022": 0.0,
			"0.023": 0.0,
			"0.024": 0.0,
			"0.025": 0.0
		}
	}
}
