{
	 "smiles": "COC1=CC=C(OCC2=CC=CC=C2)C=C1", 
	 "Tm": 345.15, 
	 "num_atms": 30, 
	 "gaussian": { 
		 "optdone": 1, 
		 "sigma_profile": "yes", 
		 "theory": "DFT", 
		 "functional": "B3LYP", 
		 "basiset": "6-31G**", 
		 "properties": { 
			 "R2extent": 5008.0184, 
			 "electric_dipole_moment_norm": 0.11917764052, 
			 "electric_quadrupole_moment_norm": 14.1213013742, 
			 "total_energy": -692.351153382, 
			 "HOMO_LUMO_gap": 0.18888, 
			 "cosmo_polarized_energy": -8.85, 
			 "cosmo_cavitation_energy": 33.6, 
			 "cosmo_dispersion_energy": -24.22, 
			 "cosmo_repulsion_energy": 1.89, 
			 "cosmo_total_nonelectrostatic_energy": 11.28, 
			 "SMD_solvation_energy": 6.53 
		},
		"coords": [
			{
				"x": 3.8061265957,
				"y": -0.3713608071,
				"z": 3.860731675,
				"element": "C" 
			},
			{
				"x": 3.6825380525,
				"y": -0.3495721246,
				"z": 2.4504283789,
				"element": "O" 
			},
			{
				"x": 2.4438365359,
				"y": -0.5779940896,
				"z": 1.9104589145,
				"element": "C" 
			},
			{
				"x": 1.2834662803,
				"y": -0.8356706073,
				"z": 2.6513783608,
				"element": "C" 
			},
			{
				"x": 0.0739207012,
				"y": -1.0578912193,
				"z": 1.993402088,
				"element": "C" 
			},
			{
				"x": -0.0002116919,
				"y": -1.023712492,
				"z": 0.5987966224,
				"element": "C" 
			},
			{
				"x": -1.2443163037,
				"y": -1.2625773979,
				"z": 0.0613469676,
				"element": "O" 
			},
			{
				"x": -1.3628913802,
				"y": -1.4493773213,
				"z": -1.343814576,
				"element": "C" 
			},
			{
				"x": -1.3752397894,
				"y": -0.162235473,
				"z": -2.1486911569,
				"element": "C" 
			},
			{
				"x": -1.8638745092,
				"y": 1.0258623238,
				"z": -1.5937177491,
				"element": "C" 
			},
			{
				"x": -1.9212132515,
				"y": 2.1906388367,
				"z": -2.3595601637,
				"element": "C" 
			},
			{
				"x": -1.4985043035,
				"y": 2.1798914476,
				"z": -3.6906303666,
				"element": "C" 
			},
			{
				"x": -1.01205181,
				"y": 0.9975615005,
				"z": -4.2510603206,
				"element": "C" 
			},
			{
				"x": -0.9474858413,
				"y": -0.1653297023,
				"z": -3.4816088009,
				"element": "C" 
			},
			{
				"x": 1.158305833,
				"y": -0.7574775235,
				"z": -0.1430191886,
				"element": "C" 
			},
			{
				"x": 2.3674623691,
				"y": -0.5407493353,
				"z": 0.5141554799,
				"element": "C" 
			},
			{
				"x": 3.1855789644,
				"y": 0.3998320815,
				"z": 4.3369566873,
				"element": "H" 
			},
			{
				"x": 3.5377100163,
				"y": -1.3508888269,
				"z": 4.2791902752,
				"element": "H" 
			},
			{
				"x": 4.8563393041,
				"y": -0.1673436274,
				"z": 4.0768397738,
				"element": "H" 
			},
			{
				"x": 1.3069068132,
				"y": -0.8710744333,
				"z": 3.7341902147,
				"element": "H" 
			},
			{
				"x": -0.8301310503,
				"y": -1.2665048267,
				"z": 2.5564322189,
				"element": "H" 
			},
			{
				"x": -0.5775504158,
				"y": -2.1243187342,
				"z": -1.7110448932,
				"element": "H" 
			},
			{
				"x": -2.3204567962,
				"y": -1.9690175464,
				"z": -1.4650004594,
				"element": "H" 
			},
			{
				"x": -2.1874449795,
				"y": 1.0311843451,
				"z": -0.5576562339,
				"element": "H" 
			},
			{
				"x": -2.2966566537,
				"y": 3.1086557534,
				"z": -1.9160583747,
				"element": "H" 
			},
			{
				"x": -1.5437466695,
				"y": 3.0875614179,
				"z": -4.2855716212,
				"element": "H" 
			},
			{
				"x": -0.6750213907,
				"y": 0.9814523906,
				"z": -5.283753749,
				"element": "H" 
			},
			{
				"x": -0.5599524689,
				"y": -1.0822273989,
				"z": -3.9210105202,
				"element": "H" 
			},
			{
				"x": 1.126982461,
				"y": -0.6947174787,
				"z": -1.2239536447,
				"element": "H" 
			},
			{
				"x": 3.2712753783,
				"y": -0.3306991315,
				"z": -0.0485558382,
				"element": "H" 
			}
		],
		 "valence_orbital": [ 
			{
				"type": "occ",
				"energy": -0.28367,
				"method": "rhf"
			},
			{
				"type": "occ",
				"energy": -0.25019,
				"method": "rhf"
			},
			{
				"type": "occ",
				"energy": -0.24841,
				"method": "rhf"
			},
			{
				"type": "occ",
				"energy": -0.24179,
				"method": "rhf"
			},
			{
				"type": "occ",
				"energy": -0.19471,
				"method": "rhf"
			},
			{
				"type": "unocc",
				"energy": -0.00583,
				"method": "rhf"
			},
			{
				"type": "unocc",
				"energy": -0.00239,
				"method": "rhf"
			},
			{
				"type": "unocc",
				"energy": 0.00503,
				"method": "rhf"
			},
			{
				"type": "unocc",
				"energy": 0.03014,
				"method": "rhf"
			},
			{
				"type": "unocc",
				"energy": 0.09437,
				"method": "rhf"
			}
		],
		"cosmo_sigma_profile": { 
			"-0.025": 0.0,
			"-0.024": 0.0,
			"-0.023": 0.0,
			"-0.022": 0.0,
			"-0.021": 0.0,
			"-0.02": 0.0,
			"-0.019": 0.0,
			"-0.018": 0.0,
			"-0.017": 0.0,
			"-0.016": 0.0,
			"-0.015": 0.0,
			"-0.014": 0.0,
			"-0.013": 0.0,
			"-0.012": 0.0,
			"-0.011": 0.0,
			"-0.01": 0.0,
			"-0.009": 0.0,
			"-0.008": 0.0,
			"-0.007": 0.442616491136,
			"-0.006": 14.6735160126,
			"-0.005": 28.9817336141,
			"-0.004": 30.2966510825,
			"-0.003": 28.1268768931,
			"-0.002": 17.8754543475,
			"-0.001": 15.5065918944,
			"0.0": 13.5542450426,
			"0.001": 15.4450960855,
			"0.002": 13.5992475199,
			"0.003": 17.882597652,
			"0.004": 21.5208916301,
			"0.005": 23.2977067748,
			"0.006": 15.411990042,
			"0.007": 2.39561241858,
			"0.008": 1.63507827123,
			"0.009": 2.34812186848,
			"0.01": 3.21163371311,
			"0.011": 1.46275363346,
			"0.012": 0.0,
			"0.013": 0.0,
			"0.014": 0.0,
			"0.015": 0.0,
			"0.016": 0.0,
			"0.017": 0.0,
			"0.018": 0.0,
			"0.019": 0.0,
			"0.02": 0.0,
			"0.021": 0.0,
			"0.022": 0.0,
			"0.023": 0.0,
			"0.024": 0.0,
			"0.025": 0.0
		}
	}
}
