{
	 "smiles": "OC(=O)C1=C(COC2=CC=CC=C2)C=CC=C1", 
	 "Tm": 400.15, 
	 "num_atms": 29, 
	 "gaussian": { 
		 "optdone": 1, 
		 "sigma_profile": "yes", 
		 "theory": "DFT", 
		 "functional": "B3LYP", 
		 "basiset": "6-31G**", 
		 "properties": { 
			 "R2extent": 5575.0177, 
			 "electric_dipole_moment_norm": 5.26143754691, 
			 "electric_quadrupole_moment_norm": 18.4581598205, 
			 "total_energy": -766.397039738, 
			 "HOMO_LUMO_gap": 0.18944, 
			 "cosmo_polarized_energy": -14.64, 
			 "cosmo_cavitation_energy": 33.21, 
			 "cosmo_dispersion_energy": -23.91, 
			 "cosmo_repulsion_energy": 1.83, 
			 "cosmo_total_nonelectrostatic_energy": 11.13, 
			 "SMD_solvation_energy": 6.65 
		},
		"coords": [
			{
				"x": -1.9764450193,
				"y": -1.4311569567,
				"z": 0.9997947963,
				"element": "O" 
			},
			{
				"x": -1.5685942552,
				"y": -2.3253494811,
				"z": 0.0785638705,
				"element": "C" 
			},
			{
				"x": -1.5684166308,
				"y": -3.5099452056,
				"z": 0.3324065852,
				"element": "O" 
			},
			{
				"x": -1.134581785,
				"y": -1.8076185765,
				"z": -1.2739932058,
				"element": "C" 
			},
			{
				"x": -0.5353239822,
				"y": -0.5513416663,
				"z": -1.5190677284,
				"element": "C" 
			},
			{
				"x": -0.230733773,
				"y": 0.4479253269,
				"z": -0.4279015766,
				"element": "C" 
			},
			{
				"x": -1.4720069499,
				"y": 1.046880395,
				"z": -0.0021041088,
				"element": "O" 
			},
			{
				"x": -1.4237994089,
				"y": 2.0911208233,
				"z": 0.9037586498,
				"element": "C" 
			},
			{
				"x": -0.2521522699,
				"y": 2.5494126613,
				"z": 1.5107474385,
				"element": "C" 
			},
			{
				"x": -0.3259004427,
				"y": 3.6159331318,
				"z": 2.4133925324,
				"element": "C" 
			},
			{
				"x": -1.5463173335,
				"y": 4.2172277954,
				"z": 2.7114649325,
				"element": "C" 
			},
			{
				"x": -2.711621949,
				"y": 3.7459727199,
				"z": 2.0976682313,
				"element": "C" 
			},
			{
				"x": -2.65574894,
				"y": 2.6884724602,
				"z": 1.1956575049,
				"element": "C" 
			},
			{
				"x": -0.1671906367,
				"y": -0.2251832525,
				"z": -2.8299531838,
				"element": "C" 
			},
			{
				"x": -0.3798946478,
				"y": -1.1091243385,
				"z": -3.8868430584,
				"element": "C" 
			},
			{
				"x": -0.9587505202,
				"y": -2.3536143241,
				"z": -3.639155407,
				"element": "C" 
			},
			{
				"x": -1.3213491749,
				"y": -2.6981209425,
				"z": -2.3399931064,
				"element": "C" 
			},
			{
				"x": -2.048314467,
				"y": -0.5282039626,
				"z": 0.6286899458,
				"element": "H" 
			},
			{
				"x": 0.2548546243,
				"y": -0.0279989444,
				"z": 0.4331291948,
				"element": "H" 
			},
			{
				"x": 0.4329939864,
				"y": 1.229273369,
				"z": -0.8117953452,
				"element": "H" 
			},
			{
				"x": 0.7070376225,
				"y": 2.0913431767,
				"z": 1.3015920383,
				"element": "H" 
			},
			{
				"x": 0.5859312155,
				"y": 3.9700694562,
				"z": 2.8854351483,
				"element": "H" 
			},
			{
				"x": -1.5928388638,
				"y": 5.0430602774,
				"z": 3.4142467874,
				"element": "H" 
			},
			{
				"x": -3.6700440579,
				"y": 4.2053756406,
				"z": 2.3209694231,
				"element": "H" 
			},
			{
				"x": -3.54883071,
				"y": 2.3137293971,
				"z": 0.7060770065,
				"element": "H" 
			},
			{
				"x": 0.2998900938,
				"y": 0.7373388305,
				"z": -3.0208260318,
				"element": "H" 
			},
			{
				"x": -0.0882902077,
				"y": -0.8283192952,
				"z": -4.8944973864,
				"element": "H" 
			},
			{
				"x": -1.121604668,
				"y": -3.0550966569,
				"z": -4.4518303497,
				"element": "H" 
			},
			{
				"x": -1.7524568491,
				"y": -3.6682618584,
				"z": -2.1187335972,
				"element": "H" 
			}
		],
		 "valence_orbital": [ 
			{
				"type": "occ",
				"energy": -0.27336,
				"method": "rhf"
			},
			{
				"type": "occ",
				"energy": -0.26887,
				"method": "rhf"
			},
			{
				"type": "occ",
				"energy": -0.26217,
				"method": "rhf"
			},
			{
				"type": "occ",
				"energy": -0.25647,
				"method": "rhf"
			},
			{
				"type": "occ",
				"energy": -0.2377,
				"method": "rhf"
			},
			{
				"type": "unocc",
				"energy": -0.04826,
				"method": "rhf"
			},
			{
				"type": "unocc",
				"energy": -0.02214,
				"method": "rhf"
			},
			{
				"type": "unocc",
				"energy": -0.01322,
				"method": "rhf"
			},
			{
				"type": "unocc",
				"energy": -0.00113,
				"method": "rhf"
			},
			{
				"type": "unocc",
				"energy": 0.04988,
				"method": "rhf"
			}
		],
		"cosmo_sigma_profile": { 
			"-0.025": 0.0,
			"-0.024": 0.0,
			"-0.023": 0.0,
			"-0.022": 0.0,
			"-0.021": 0.0,
			"-0.02": 0.0,
			"-0.019": 0.0,
			"-0.018": 0.0,
			"-0.017": 0.0,
			"-0.016": 0.0,
			"-0.015": 0.0,
			"-0.014": 0.0,
			"-0.013": 0.0,
			"-0.012": 0.0,
			"-0.011": 0.0,
			"-0.01": 0.0,
			"-0.009": 0.0763210897501,
			"-0.008": 2.81621551131,
			"-0.007": 14.944299443,
			"-0.006": 21.1389527681,
			"-0.005": 24.3439860022,
			"-0.004": 23.4417148321,
			"-0.003": 17.7745338186,
			"-0.002": 15.6462731438,
			"-0.001": 12.6487846798,
			"0.0": 14.5914141689,
			"0.001": 15.995220537,
			"0.002": 17.1536321767,
			"0.003": 23.3215023916,
			"0.004": 16.1536818391,
			"0.005": 13.0817759518,
			"0.006": 5.95024706865,
			"0.007": 3.63160375165,
			"0.008": 2.87193216248,
			"0.009": 3.09265890167,
			"0.01": 3.57234082994,
			"0.011": 5.19229778627,
			"0.012": 6.08543606794,
			"0.013": 2.33308384026,
			"0.014": 0.40437817328,
			"0.015": 0.0,
			"0.016": 0.0,
			"0.017": 0.0,
			"0.018": 0.0,
			"0.019": 0.0,
			"0.02": 0.0,
			"0.021": 0.0,
			"0.022": 0.0,
			"0.023": 0.0,
			"0.024": 0.0,
			"0.025": 0.0
		}
	}
}
