{
	 "smiles": "BrC1=CC2=C(NC=N2)C=C1", 
	 "Tm": 403.15, 
	 "num_atms": 15, 
	 "gaussian": { 
		 "optdone": 1, 
		 "sigma_profile": "yes", 
		 "theory": "DFT", 
		 "functional": "B3LYP", 
		 "basiset": "6-31G**", 
		 "properties": { 
			 "R2extent": 3532.9904, 
			 "electric_dipole_moment_norm": 5.00096600568, 
			 "electric_quadrupole_moment_norm": 11.5566962533, 
			 "total_energy": -2950.67065899, 
			 "HOMO_LUMO_gap": 0.1997, 
			 "cosmo_polarized_energy": -13.42, 
			 "cosmo_cavitation_energy": 21.6, 
			 "cosmo_dispersion_energy": -16.91, 
			 "cosmo_repulsion_energy": 1.35, 
			 "cosmo_total_nonelectrostatic_energy": 6.04, 
			 "SMD_solvation_energy": 0.79 
		},
		"coords": [
			{
				"x": -2.0362112525,
				"y": -1.2801811538,
				"z": -3.4497498687,
				"element": "Br" 
			},
			{
				"x": -0.6403165884,
				"y": -1.1816290333,
				"z": -2.140513869,
				"element": "C" 
			},
			{
				"x": -0.3646803022,
				"y": 0.0384250553,
				"z": -1.5397334816,
				"element": "C" 
			},
			{
				"x": 0.6637804803,
				"y": 0.0644916855,
				"z": -0.588315771,
				"element": "C" 
			},
			{
				"x": 1.3719792123,
				"y": -1.1222454984,
				"z": -0.2765910436,
				"element": "C" 
			},
			{
				"x": 2.2928283057,
				"y": -0.7315466136,
				"z": 0.6800604568,
				"element": "N" 
			},
			{
				"x": 2.1011439085,
				"y": 0.6160030421,
				"z": 0.8882900769,
				"element": "C" 
			},
			{
				"x": 1.1458265648,
				"y": 1.1309817341,
				"z": 0.1582265814,
				"element": "N" 
			},
			{
				"x": 1.0872425045,
				"y": -2.3450704716,
				"z": -0.8865514439,
				"element": "C" 
			},
			{
				"x": 0.0642616625,
				"y": -2.3603468503,
				"z": -1.8298388704,
				"element": "C" 
			},
			{
				"x": -0.9153724315,
				"y": 0.937210551,
				"z": -1.7889820575,
				"element": "H" 
			},
			{
				"x": 2.9738524338,
				"y": -1.3164443406,
				"z": 1.1384647585,
				"element": "H" 
			},
			{
				"x": 2.7050117523,
				"y": 1.1654861627,
				"z": 1.5992539088,
				"element": "H" 
			},
			{
				"x": 1.6313111688,
				"y": -3.2531505796,
				"z": -0.6460457796,
				"element": "H" 
			},
			{
				"x": -0.1969574189,
				"y": -3.2838836896,
				"z": -2.332873597,
				"element": "H" 
			}
		],
		 "valence_orbital": [ 
			{
				"type": "occ",
				"energy": -0.29545,
				"method": "rhf"
			},
			{
				"type": "occ",
				"energy": -0.28063,
				"method": "rhf"
			},
			{
				"type": "occ",
				"energy": -0.28014,
				"method": "rhf"
			},
			{
				"type": "occ",
				"energy": -0.23729,
				"method": "rhf"
			},
			{
				"type": "occ",
				"energy": -0.22716,
				"method": "rhf"
			},
			{
				"type": "unocc",
				"energy": -0.02746,
				"method": "rhf"
			},
			{
				"type": "unocc",
				"energy": 0.00795,
				"method": "rhf"
			},
			{
				"type": "unocc",
				"energy": 0.01213,
				"method": "rhf"
			},
			{
				"type": "unocc",
				"energy": 0.04455,
				"method": "rhf"
			},
			{
				"type": "unocc",
				"energy": 0.06654,
				"method": "rhf"
			}
		],
		"cosmo_sigma_profile": { 
			"-0.025": 0.0,
			"-0.024": 0.0,
			"-0.023": 0.0,
			"-0.022": 0.0,
			"-0.021": 0.0,
			"-0.02": 0.0,
			"-0.019": 0.0,
			"-0.018": 0.0,
			"-0.017": 0.837801315709,
			"-0.016": 2.36031342665,
			"-0.015": 1.41161150094,
			"-0.014": 1.02169881301,
			"-0.013": 1.69154446324,
			"-0.012": 1.33211487236,
			"-0.011": 1.01607402423,
			"-0.01": 2.86888123192,
			"-0.009": 3.90485043738,
			"-0.008": 3.54538415217,
			"-0.007": 6.31860533168,
			"-0.006": 6.61320748218,
			"-0.005": 6.02680638677,
			"-0.004": 6.92764998832,
			"-0.003": 7.65417533467,
			"-0.002": 7.33190415167,
			"-0.001": 7.7213005315,
			"0.0": 9.81664843226,
			"0.001": 15.3043732648,
			"0.002": 14.3193908327,
			"0.003": 23.1223862644,
			"0.004": 17.9799253422,
			"0.005": 13.0352790097,
			"0.006": 2.68606217301,
			"0.007": 1.78941439358,
			"0.008": 1.20539283332,
			"0.009": 0.792920040766,
			"0.01": 1.52952443941,
			"0.011": 1.06812715389,
			"0.012": 1.18534676839,
			"0.013": 0.839173218335,
			"0.014": 1.3414337335,
			"0.015": 1.14635137457,
			"0.016": 0.763542007822,
			"0.017": 1.00809601774,
			"0.018": 0.0307815761813,
			"0.019": 0.0,
			"0.02": 0.0,
			"0.021": 0.0,
			"0.022": 0.0,
			"0.023": 0.0,
			"0.024": 0.0,
			"0.025": 0.0
		}
	}
}
