{
	 "smiles": "COC(=O)CCCCCCCC(=O)OC", 
	 "Tm": 291.15, 
	 "num_atms": 35, 
	 "gaussian": { 
		 "optdone": 1, 
		 "sigma_profile": "yes", 
		 "theory": "DFT", 
		 "functional": "B3LYP", 
		 "basiset": "6-31G**", 
		 "properties": { 
			 "R2extent": 4111.2082, 
			 "electric_dipole_moment_norm": 2.68212718006, 
			 "electric_quadrupole_moment_norm": 10.1607551796, 
			 "total_energy": -732.155936673, 
			 "HOMO_LUMO_gap": 0.2743, 
			 "cosmo_polarized_energy": -10.92, 
			 "cosmo_cavitation_energy": 36.19, 
			 "cosmo_dispersion_energy": -23.96, 
			 "cosmo_repulsion_energy": 1.89, 
			 "cosmo_total_nonelectrostatic_energy": 14.12, 
			 "SMD_solvation_energy": 7.67 
		},
		"coords": [
			{
				"x": 0.7447562065,
				"y": 1.3494672495,
				"z": 3.1757703998,
				"element": "C" 
			},
			{
				"x": 0.5405131756,
				"y": 0.0786620086,
				"z": 2.5211467494,
				"element": "O" 
			},
			{
				"x": -0.7384034279,
				"y": -0.3623111641,
				"z": 2.4947488854,
				"element": "C" 
			},
			{
				"x": -1.6610513076,
				"y": 0.2350821941,
				"z": 3.0070096547,
				"element": "O" 
			},
			{
				"x": -0.8548536264,
				"y": -1.7068027607,
				"z": 1.7968790425,
				"element": "C" 
			},
			{
				"x": -2.21039519,
				"y": -1.9032817611,
				"z": 1.0967677723,
				"element": "C" 
			},
			{
				"x": -2.314719562,
				"y": -1.2758290774,
				"z": -0.3046025206,
				"element": "C" 
			},
			{
				"x": -1.999166346,
				"y": 0.2255104484,
				"z": -0.3751718426,
				"element": "C" 
			},
			{
				"x": -2.3375923281,
				"y": 0.8403703962,
				"z": -1.7416081631,
				"element": "C" 
			},
			{
				"x": -1.9590445075,
				"y": 2.3244849218,
				"z": -1.9064940618,
				"element": "C" 
			},
			{
				"x": -0.4698899345,
				"y": 2.5900600748,
				"z": -2.1988585749,
				"element": "C" 
			},
			{
				"x": 0.4404299671,
				"y": 2.3998946833,
				"z": -1.0016509447,
				"element": "C" 
			},
			{
				"x": 0.2474779856,
				"y": 2.8708540905,
				"z": 0.1013521827,
				"element": "O" 
			},
			{
				"x": 1.5230409607,
				"y": 1.6563961296,
				"z": -1.3175478988,
				"element": "O" 
			},
			{
				"x": 2.4659030122,
				"y": 1.4364472275,
				"z": -0.2532675951,
				"element": "C" 
			},
			{
				"x": 0.4088493415,
				"y": 2.1555380869,
				"z": 2.5201496112,
				"element": "H" 
			},
			{
				"x": 1.8197122375,
				"y": 1.4216754037,
				"z": 3.3453801784,
				"element": "H" 
			},
			{
				"x": 0.2009391111,
				"y": 1.3836889975,
				"z": 4.1212314395,
				"element": "H" 
			},
			{
				"x": -0.7353460778,
				"y": -2.4630327223,
				"z": 2.5843378493,
				"element": "H" 
			},
			{
				"x": -0.011496252,
				"y": -1.8398925599,
				"z": 1.111830425,
				"element": "H" 
			},
			{
				"x": -2.9863428294,
				"y": -1.4886255518,
				"z": 1.7494523177,
				"element": "H" 
			},
			{
				"x": -2.408393343,
				"y": -2.9779873042,
				"z": 1.0113543664,
				"element": "H" 
			},
			{
				"x": -1.6453694821,
				"y": -1.812676768,
				"z": -0.9926604187,
				"element": "H" 
			},
			{
				"x": -3.3327430876,
				"y": -1.4492956958,
				"z": -0.67955432,
				"element": "H" 
			},
			{
				"x": -2.5520009688,
				"y": 0.7603367738,
				"z": 0.406636787,
				"element": "H" 
			},
			{
				"x": -0.9377539126,
				"y": 0.3778426045,
				"z": -0.1489093055,
				"element": "H" 
			},
			{
				"x": -1.8600013465,
				"y": 0.2555560148,
				"z": -2.541420867,
				"element": "H" 
			},
			{
				"x": -3.4189965796,
				"y": 0.7385093262,
				"z": -1.9034828739,
				"element": "H" 
			},
			{
				"x": -2.2489886851,
				"y": 2.889640722,
				"z": -1.0130126394,
				"element": "H" 
			},
			{
				"x": -2.5322268163,
				"y": 2.7424626362,
				"z": -2.7421772892,
				"element": "H" 
			},
			{
				"x": -0.3496074657,
				"y": 3.6377813241,
				"z": -2.503267187,
				"element": "H" 
			},
			{
				"x": -0.1146281732,
				"y": 1.9701065905,
				"z": -3.0268287207,
				"element": "H" 
			},
			{
				"x": 2.0240419927,
				"y": 0.8048668999,
				"z": 0.5214114544,
				"element": "H" 
			},
			{
				"x": 3.3167357369,
				"y": 0.9348766687,
				"z": -0.7147846504,
				"element": "H" 
			},
			{
				"x": 2.7745115219,
				"y": 2.3864238922,
				"z": 0.1897407578,
				"element": "H" 
			}
		],
		 "valence_orbital": [ 
			{
				"type": "occ",
				"energy": -0.30716,
				"method": "rhf"
			},
			{
				"type": "occ",
				"energy": -0.29997,
				"method": "rhf"
			},
			{
				"type": "occ",
				"energy": -0.29316,
				"method": "rhf"
			},
			{
				"type": "occ",
				"energy": -0.26996,
				"method": "rhf"
			},
			{
				"type": "occ",
				"energy": -0.26478,
				"method": "rhf"
			},
			{
				"type": "unocc",
				"energy": 0.00952,
				"method": "rhf"
			},
			{
				"type": "unocc",
				"energy": 0.01906,
				"method": "rhf"
			},
			{
				"type": "unocc",
				"energy": 0.07823,
				"method": "rhf"
			},
			{
				"type": "unocc",
				"energy": 0.09982,
				"method": "rhf"
			},
			{
				"type": "unocc",
				"energy": 0.10456,
				"method": "rhf"
			}
		],
		"cosmo_sigma_profile": { 
			"-0.025": 0.0,
			"-0.024": 0.0,
			"-0.023": 0.0,
			"-0.022": 0.0,
			"-0.021": 0.0,
			"-0.02": 0.0,
			"-0.019": 0.0,
			"-0.018": 0.0,
			"-0.017": 0.0,
			"-0.016": 0.0,
			"-0.015": 0.0,
			"-0.014": 0.0,
			"-0.013": 0.0,
			"-0.012": 0.0,
			"-0.011": 0.0,
			"-0.01": 0.0,
			"-0.009": 0.0,
			"-0.008": 0.0,
			"-0.007": 0.864754631162,
			"-0.006": 9.12467290149,
			"-0.005": 13.6941194668,
			"-0.004": 19.413160143,
			"-0.003": 37.3538181618,
			"-0.002": 43.1898564629,
			"-0.001": 41.1818375547,
			"0.0": 30.1001805807,
			"0.001": 17.1708350203,
			"0.002": 9.61289020795,
			"0.003": 9.13971419079,
			"0.004": 7.81539985447,
			"0.005": 6.69308128753,
			"0.006": 6.86258129574,
			"0.007": 5.33796235666,
			"0.008": 5.17109572325,
			"0.009": 3.75576720246,
			"0.01": 2.80992154179,
			"0.011": 4.29018428796,
			"0.012": 5.63884210546,
			"0.013": 1.81599209207,
			"0.014": 0.00582735595735,
			"0.015": 0.0,
			"0.016": 0.0,
			"0.017": 0.0,
			"0.018": 0.0,
			"0.019": 0.0,
			"0.02": 0.0,
			"0.021": 0.0,
			"0.022": 0.0,
			"0.023": 0.0,
			"0.024": 0.0,
			"0.025": 0.0
		}
	}
}
