{
	 "smiles": "OC(=O)CC1=CC(F)=CC(Cl)=C1", 
	 "Tm": 357.15, 
	 "num_atms": 18, 
	 "gaussian": { 
		 "optdone": 1, 
		 "sigma_profile": "yes", 
		 "theory": "DFT", 
		 "functional": "B3LYP", 
		 "basiset": "6-31G**", 
		 "properties": { 
			 "R2extent": 3026.3483, 
			 "electric_dipole_moment_norm": 2.31287452535, 
			 "electric_quadrupole_moment_norm": 12.3250509354, 
			 "total_energy": -1018.9582355, 
			 "HOMO_LUMO_gap": 0.22229, 
			 "cosmo_polarized_energy": -9.77, 
			 "cosmo_cavitation_energy": 25.43, 
			 "cosmo_dispersion_energy": -18.46, 
			 "cosmo_repulsion_energy": 1.47, 
			 "cosmo_total_nonelectrostatic_energy": 8.43, 
			 "SMD_solvation_energy": 5.73 
		},
		"coords": [
			{
				"x": 0.2930342405,
				"y": 4.3442315296,
				"z": -0.1856152703,
				"element": "O" 
			},
			{
				"x": 0.9576378581,
				"y": 3.1694756891,
				"z": -0.244927568,
				"element": "C" 
			},
			{
				"x": 1.9725092943,
				"y": 2.9565519297,
				"z": 0.3809068036,
				"element": "O" 
			},
			{
				"x": 0.290060786,
				"y": 2.1855707984,
				"z": -1.193584471,
				"element": "C" 
			},
			{
				"x": -0.1096387251,
				"y": 0.8823974878,
				"z": -0.5207495277,
				"element": "C" 
			},
			{
				"x": 0.8326320167,
				"y": 0.1169250291,
				"z": 0.177416824,
				"element": "C" 
			},
			{
				"x": 0.4254753943,
				"y": -1.0771686926,
				"z": 0.7561477095,
				"element": "C" 
			},
			{
				"x": 1.3290635553,
				"y": -1.8144852482,
				"z": 1.4300661406,
				"element": "F" 
			},
			{
				"x": -0.8794958861,
				"y": -1.552947211,
				"z": 0.6707566862,
				"element": "C" 
			},
			{
				"x": -1.7967523662,
				"y": -0.7740676934,
				"z": -0.028854531,
				"element": "C" 
			},
			{
				"x": -3.4579649853,
				"y": -1.3281810487,
				"z": -0.1643704447,
				"element": "Cl" 
			},
			{
				"x": -1.4316198132,
				"y": 0.4344954155,
				"z": -0.6228563353,
				"element": "C" 
			},
			{
				"x": 0.7933554854,
				"y": 4.9105377012,
				"z": 0.4272051445,
				"element": "H" 
			},
			{
				"x": 1.0244201971,
				"y": 1.978585575,
				"z": -1.9821729052,
				"element": "H" 
			},
			{
				"x": -0.5770762551,
				"y": 2.6571185703,
				"z": -1.6578806894,
				"element": "H" 
			},
			{
				"x": 1.855957038,
				"y": 0.45363067,
				"z": 0.2898191012,
				"element": "H" 
			},
			{
				"x": -1.1568085046,
				"y": -2.4912637874,
				"z": 1.1345807516,
				"element": "H" 
			},
			{
				"x": -2.1725893299,
				"y": 1.0159932856,
				"z": -1.1598874185,
				"element": "H" 
			}
		],
		 "valence_orbital": [ 
			{
				"type": "occ",
				"energy": -0.3296,
				"method": "rhf"
			},
			{
				"type": "occ",
				"energy": -0.31943,
				"method": "rhf"
			},
			{
				"type": "occ",
				"energy": -0.28981,
				"method": "rhf"
			},
			{
				"type": "occ",
				"energy": -0.26052,
				"method": "rhf"
			},
			{
				"type": "occ",
				"energy": -0.25148,
				"method": "rhf"
			},
			{
				"type": "unocc",
				"energy": -0.02919,
				"method": "rhf"
			},
			{
				"type": "unocc",
				"energy": -0.01361,
				"method": "rhf"
			},
			{
				"type": "unocc",
				"energy": -0.00072,
				"method": "rhf"
			},
			{
				"type": "unocc",
				"energy": 0.02274,
				"method": "rhf"
			},
			{
				"type": "unocc",
				"energy": 0.06936,
				"method": "rhf"
			}
		],
		"cosmo_sigma_profile": { 
			"-0.025": 0.0,
			"-0.024": 0.0,
			"-0.023": 0.0,
			"-0.022": 0.0,
			"-0.021": 0.0,
			"-0.02": 0.0,
			"-0.019": 0.122978073707,
			"-0.018": 1.08602920503,
			"-0.017": 0.915052965995,
			"-0.016": 0.570140046985,
			"-0.015": 0.844631797109,
			"-0.014": 0.483077249786,
			"-0.013": 0.4900012105,
			"-0.012": 1.0755767587,
			"-0.011": 1.03035998419,
			"-0.01": 0.880292644756,
			"-0.009": 0.779216397578,
			"-0.008": 5.37194937116,
			"-0.007": 8.41909306929,
			"-0.006": 7.93580180958,
			"-0.005": 8.11360634518,
			"-0.004": 8.7760320051,
			"-0.003": 12.0835249215,
			"-0.002": 10.8771858655,
			"-0.001": 12.156177626,
			"0.0": 14.8972735809,
			"0.001": 23.5284772337,
			"0.002": 22.6423668321,
			"0.003": 14.5057678118,
			"0.004": 22.5550172865,
			"0.005": 7.62638012393,
			"0.006": 2.16920889123,
			"0.007": 1.67123453981,
			"0.008": 3.54588036384,
			"0.009": 2.88363970905,
			"0.01": 2.08351245435,
			"0.011": 4.10050323225,
			"0.012": 1.53504535283,
			"0.013": 0.0,
			"0.014": 0.0,
			"0.015": 0.0,
			"0.016": 0.0,
			"0.017": 0.0,
			"0.018": 0.0,
			"0.019": 0.0,
			"0.02": 0.0,
			"0.021": 0.0,
			"0.022": 0.0,
			"0.023": 0.0,
			"0.024": 0.0,
			"0.025": 0.0
		}
	}
}
