{
	 "smiles": "CC1=CC=C(Cl)C(O)=C1", 
	 "Tm": 319.15, 
	 "num_atms": 16, 
	 "gaussian": { 
		 "optdone": 1, 
		 "sigma_profile": "yes", 
		 "theory": "DFT", 
		 "functional": "B3LYP", 
		 "basiset": "6-31G**", 
		 "properties": { 
			 "R2extent": 2225.7168, 
			 "electric_dipole_moment_norm": 1.24198397333, 
			 "electric_quadrupole_moment_norm": 3.82142266178, 
			 "total_energy": -806.385509568, 
			 "HOMO_LUMO_gap": 0.215, 
			 "cosmo_polarized_energy": -5.37, 
			 "cosmo_cavitation_energy": 21.33, 
			 "cosmo_dispersion_energy": -16.23, 
			 "cosmo_repulsion_energy": 1.33, 
			 "cosmo_total_nonelectrostatic_energy": 6.43, 
			 "SMD_solvation_energy": 3.84 
		},
		"coords": [
			{
				"x": -1.3299036435,
				"y": 1.6955588254,
				"z": 0.4574138599,
				"element": "C" 
			},
			{
				"x": -0.6374993953,
				"y": 0.6165740421,
				"z": -0.3415246632,
				"element": "C" 
			},
			{
				"x": 0.6010290842,
				"y": 0.8594940999,
				"z": -0.9543843408,
				"element": "C" 
			},
			{
				"x": 1.2223996346,
				"y": -0.1271695146,
				"z": -1.7160961383,
				"element": "C" 
			},
			{
				"x": 0.6095516524,
				"y": -1.3672036853,
				"z": -1.8692094134,
				"element": "C" 
			},
			{
				"x": 1.379189512,
				"y": -2.6363842151,
				"z": -2.8254108846,
				"element": "Cl" 
			},
			{
				"x": -0.6269139024,
				"y": -1.6405666274,
				"z": -1.2657299421,
				"element": "C" 
			},
			{
				"x": -1.2639779786,
				"y": -2.8326780823,
				"z": -1.3794449047,
				"element": "O" 
			},
			{
				"x": -1.234106237,
				"y": -0.6354610908,
				"z": -0.5048312806,
				"element": "C" 
			},
			{
				"x": -1.9845414607,
				"y": 2.3009280704,
				"z": -0.1820698513,
				"element": "H" 
			},
			{
				"x": -0.6077766338,
				"y": 2.37555264,
				"z": 0.918769772,
				"element": "H" 
			},
			{
				"x": -1.9527203491,
				"y": 1.2704860149,
				"z": 1.2497326725,
				"element": "H" 
			},
			{
				"x": 1.0850508458,
				"y": 1.8244075407,
				"z": -0.8352255961,
				"element": "H" 
			},
			{
				"x": 2.1811417656,
				"y": 0.0552868262,
				"z": -2.1896842909,
				"element": "H" 
			},
			{
				"x": -0.7258549872,
				"y": -3.4235096024,
				"z": -1.9280974165,
				"element": "H" 
			},
			{
				"x": -2.1892679071,
				"y": -0.8651152417,
				"z": -0.0421075819,
				"element": "H" 
			}
		],
		 "valence_orbital": [ 
			{
				"type": "occ",
				"energy": -0.34882,
				"method": "rhf"
			},
			{
				"type": "occ",
				"energy": -0.3273,
				"method": "rhf"
			},
			{
				"type": "occ",
				"energy": -0.32355,
				"method": "rhf"
			},
			{
				"type": "occ",
				"energy": -0.24676,
				"method": "rhf"
			},
			{
				"type": "occ",
				"energy": -0.22514,
				"method": "rhf"
			},
			{
				"type": "unocc",
				"energy": -0.01014,
				"method": "rhf"
			},
			{
				"type": "unocc",
				"energy": 0.00452,
				"method": "rhf"
			},
			{
				"type": "unocc",
				"energy": 0.02213,
				"method": "rhf"
			},
			{
				"type": "unocc",
				"energy": 0.09141,
				"method": "rhf"
			},
			{
				"type": "unocc",
				"energy": 0.10986,
				"method": "rhf"
			}
		],
		"cosmo_sigma_profile": { 
			"-0.025": 0.0,
			"-0.024": 0.0,
			"-0.023": 0.0,
			"-0.022": 0.0,
			"-0.021": 0.0,
			"-0.02": 0.0,
			"-0.019": 0.0,
			"-0.018": 0.0,
			"-0.017": 0.0,
			"-0.016": 0.0,
			"-0.015": 0.464330183066,
			"-0.014": 0.382771584431,
			"-0.013": 0.53292703903,
			"-0.012": 0.723124880069,
			"-0.011": 0.655485825839,
			"-0.01": 1.35282103343,
			"-0.009": 0.812837963771,
			"-0.008": 0.935704501612,
			"-0.007": 2.77571532402,
			"-0.006": 4.78833787313,
			"-0.005": 8.51369767852,
			"-0.004": 14.0845464486,
			"-0.003": 12.7716035299,
			"-0.002": 12.0376389991,
			"-0.001": 15.347104779,
			"0.0": 16.3284532432,
			"0.001": 13.1417056115,
			"0.002": 14.0751797761,
			"0.003": 16.3319209812,
			"0.004": 17.4894247021,
			"0.005": 9.11070069371,
			"0.006": 2.06706648238,
			"0.007": 1.43448890441,
			"0.008": 1.41156042891,
			"0.009": 1.24612680388,
			"0.01": 1.96567706333,
			"0.011": 1.26755143764,
			"0.012": 0.0,
			"0.013": 0.0,
			"0.014": 0.0,
			"0.015": 0.0,
			"0.016": 0.0,
			"0.017": 0.0,
			"0.018": 0.0,
			"0.019": 0.0,
			"0.02": 0.0,
			"0.021": 0.0,
			"0.022": 0.0,
			"0.023": 0.0,
			"0.024": 0.0,
			"0.025": 0.0
		}
	}
}
