{
	 "smiles": "CN1C2=C(C=CC=C2)N2C(S)=NN=C12", 
	 "Tm": 544.15, 
	 "num_atms": 22, 
	 "gaussian": { 
		 "optdone": 1, 
		 "sigma_profile": "yes", 
		 "theory": "DFT", 
		 "functional": "B3LYP", 
		 "basiset": "6-31G**", 
		 "properties": { 
			 "R2extent": 3566.6465, 
			 "electric_dipole_moment_norm": 4.57017166527, 
			 "electric_quadrupole_moment_norm": 13.6027741388, 
			 "total_energy": -964.935898036, 
			 "HOMO_LUMO_gap": 0.17641, 
			 "cosmo_polarized_energy": -15.39, 
			 "cosmo_cavitation_energy": 27.92, 
			 "cosmo_dispersion_energy": -21.08, 
			 "cosmo_repulsion_energy": 1.57, 
			 "cosmo_total_nonelectrostatic_energy": 8.41, 
			 "SMD_solvation_energy": 2.18 
		},
		"coords": [
			{
				"x": -2.3919807566,
				"y": 1.2999387725,
				"z": -0.6320431953,
				"element": "C" 
			},
			{
				"x": -0.9718373911,
				"y": 1.0213575492,
				"z": -0.7152677872,
				"element": "N" 
			},
			{
				"x": 0.0819452621,
				"y": 1.8938528008,
				"z": -0.4410270868,
				"element": "C" 
			},
			{
				"x": 1.3106063014,
				"y": 1.2142946873,
				"z": -0.6498733058,
				"element": "C" 
			},
			{
				"x": 2.5347827904,
				"y": 1.8367483389,
				"z": -0.4532846496,
				"element": "C" 
			},
			{
				"x": 2.5175439766,
				"y": 3.1727593628,
				"z": -0.0372361956,
				"element": "C" 
			},
			{
				"x": 1.3092195882,
				"y": 3.8494775621,
				"z": 0.1707457197,
				"element": "C" 
			},
			{
				"x": 0.074061909,
				"y": 3.2237263279,
				"z": -0.0269329136,
				"element": "C" 
			},
			{
				"x": 0.9520335752,
				"y": -0.0791199067,
				"z": -1.0536820972,
				"element": "N" 
			},
			{
				"x": 1.374390193,
				"y": -1.3354588348,
				"z": -1.4436600073,
				"element": "C" 
			},
			{
				"x": 3.0784805148,
				"y": -1.7725834736,
				"z": -1.5756471265,
				"element": "S" 
			},
			{
				"x": 0.3365376604,
				"y": -2.1027029891,
				"z": -1.6850700286,
				"element": "N" 
			},
			{
				"x": -0.8356169482,
				"y": -1.368802143,
				"z": -1.4593433891,
				"element": "N" 
			},
			{
				"x": -0.4221226725,
				"y": -0.185323236,
				"z": -1.089942722,
				"element": "C" 
			},
			{
				"x": -2.6758205265,
				"y": 1.5801063576,
				"z": 0.3880780825,
				"element": "H" 
			},
			{
				"x": -2.9301540067,
				"y": 0.3941050398,
				"z": -0.9134783093,
				"element": "H" 
			},
			{
				"x": -2.6724889502,
				"y": 2.107729848,
				"z": -1.3165278818,
				"element": "H" 
			},
			{
				"x": 3.4677770948,
				"y": 1.3079604102,
				"z": -0.6158096032,
				"element": "H" 
			},
			{
				"x": 3.4574362832,
				"y": 3.6897140421,
				"z": 0.1259205305,
				"element": "H" 
			},
			{
				"x": 1.3281138864,
				"y": 4.8857974651,
				"z": 0.4935279223,
				"element": "H" 
			},
			{
				"x": -0.8565492758,
				"y": 3.7567270165,
				"z": 0.1368500261,
				"element": "H" 
			},
			{
				"x": 2.7988414923,
				"y": -3.0309049974,
				"z": -1.9647959824,
				"element": "H" 
			}
		],
		 "valence_orbital": [ 
			{
				"type": "occ",
				"energy": -0.29942,
				"method": "rhf"
			},
			{
				"type": "occ",
				"energy": -0.25781,
				"method": "rhf"
			},
			{
				"type": "occ",
				"energy": -0.25721,
				"method": "rhf"
			},
			{
				"type": "occ",
				"energy": -0.2414,
				"method": "rhf"
			},
			{
				"type": "occ",
				"energy": -0.20265,
				"method": "rhf"
			},
			{
				"type": "unocc",
				"energy": -0.02624,
				"method": "rhf"
			},
			{
				"type": "unocc",
				"energy": -0.00565,
				"method": "rhf"
			},
			{
				"type": "unocc",
				"energy": 0.00587,
				"method": "rhf"
			},
			{
				"type": "unocc",
				"energy": 0.04629,
				"method": "rhf"
			},
			{
				"type": "unocc",
				"energy": 0.06059,
				"method": "rhf"
			}
		],
		"cosmo_sigma_profile": { 
			"-0.025": 0.0,
			"-0.024": 0.0,
			"-0.023": 0.0,
			"-0.022": 0.0,
			"-0.021": 0.0,
			"-0.02": 0.0,
			"-0.019": 0.0,
			"-0.018": 0.0,
			"-0.017": 0.0,
			"-0.016": 0.0,
			"-0.015": 0.0,
			"-0.014": 0.0,
			"-0.013": 0.134849490954,
			"-0.012": 1.27279930393,
			"-0.011": 1.49612109892,
			"-0.01": 1.54682249597,
			"-0.009": 0.72206266798,
			"-0.008": 1.30889160794,
			"-0.007": 6.21399096402,
			"-0.006": 18.6538553659,
			"-0.005": 20.9349108082,
			"-0.004": 18.8614589997,
			"-0.003": 20.388405265,
			"-0.002": 18.6533239065,
			"-0.001": 12.9967882218,
			"0.0": 12.4002405804,
			"0.001": 13.2538333098,
			"0.002": 13.5581414403,
			"0.003": 13.0930740501,
			"0.004": 13.0217069846,
			"0.005": 8.94736331475,
			"0.006": 4.75290001835,
			"0.007": 2.83645156331,
			"0.008": 1.09441798092,
			"0.009": 1.41627312116,
			"0.01": 2.10431620272,
			"0.011": 2.07491198469,
			"0.012": 3.0873193278,
			"0.013": 2.86984038678,
			"0.014": 3.77065785287,
			"0.015": 3.02711847927,
			"0.016": 2.18778728185,
			"0.017": 0.604107705461,
			"0.018": 0.0,
			"0.019": 0.0,
			"0.02": 0.0,
			"0.021": 0.0,
			"0.022": 0.0,
			"0.023": 0.0,
			"0.024": 0.0,
			"0.025": 0.0
		}
	}
}
