{
	 "smiles": "CN1N=C(C=C1C=O)C1=CC=CS1", 
	 "Tm": 349.65, 
	 "num_atms": 21, 
	 "gaussian": { 
		 "optdone": 1, 
		 "sigma_profile": "yes", 
		 "theory": "DFT", 
		 "functional": "B3LYP", 
		 "basiset": "6-31G**", 
		 "properties": { 
			 "R2extent": 3781.8596, 
			 "electric_dipole_moment_norm": 1.61335069033, 
			 "electric_quadrupole_moment_norm": 6.32367100109, 
			 "total_energy": -930.654132399, 
			 "HOMO_LUMO_gap": 0.1471, 
			 "cosmo_polarized_energy": -10.48, 
			 "cosmo_cavitation_energy": 27.62, 
			 "cosmo_dispersion_energy": -20.6, 
			 "cosmo_repulsion_energy": 1.56, 
			 "cosmo_total_nonelectrostatic_energy": 8.58, 
			 "SMD_solvation_energy": 4.85 
		},
		"coords": [
			{
				"x": 2.5925134794,
				"y": 0.1748485654,
				"z": -3.2079549971,
				"element": "C" 
			},
			{
				"x": 1.667941132,
				"y": -0.0489313569,
				"z": -2.1036691233,
				"element": "N" 
			},
			{
				"x": 1.9211015456,
				"y": 0.4948286529,
				"z": -0.910564892,
				"element": "N" 
			},
			{
				"x": 0.9085706468,
				"y": 0.1206839861,
				"z": -0.1020188172,
				"element": "C" 
			},
			{
				"x": -0.0100775552,
				"y": -0.6830437554,
				"z": -0.8073701085,
				"element": "C" 
			},
			{
				"x": 0.504870191,
				"y": -0.7762320645,
				"z": -2.0970739764,
				"element": "C" 
			},
			{
				"x": -0.0323573153,
				"y": -1.4856797461,
				"z": -3.2515378928,
				"element": "C" 
			},
			{
				"x": 0.4837544058,
				"y": -1.5188982572,
				"z": -4.3575854843,
				"element": "O" 
			},
			{
				"x": 0.8726085613,
				"y": 0.5467129502,
				"z": 1.288325873,
				"element": "C" 
			},
			{
				"x": -0.0742301508,
				"y": 0.2624634682,
				"z": 2.2455332399,
				"element": "C" 
			},
			{
				"x": 0.2111171972,
				"y": 0.849780592,
				"z": 3.5119419408,
				"element": "C" 
			},
			{
				"x": 1.3715023255,
				"y": 1.5747877126,
				"z": 3.5062873264,
				"element": "C" 
			},
			{
				"x": 2.1390608216,
				"y": 1.5540761927,
				"z": 1.9517105767,
				"element": "S" 
			},
			{
				"x": 2.0834876808,
				"y": 0.671130487,
				"z": -4.0362717027,
				"element": "H" 
			},
			{
				"x": 3.3938938069,
				"y": 0.8025690958,
				"z": -2.8207022042,
				"element": "H" 
			},
			{
				"x": 2.9907354766,
				"y": -0.7749013281,
				"z": -3.5697638049,
				"element": "H" 
			},
			{
				"x": -0.9204560098,
				"y": -1.1369743469,
				"z": -0.4445863006,
				"element": "H" 
			},
			{
				"x": -0.9848954113,
				"y": -2.0158765856,
				"z": -3.0432908405,
				"element": "H" 
			},
			{
				"x": -0.9485591807,
				"y": -0.348292763,
				"z": 2.049822038,
				"element": "H" 
			},
			{
				"x": -0.4205030615,
				"y": 0.7360266976,
				"z": 4.3855505571,
				"element": "H" 
			},
			{
				"x": 1.8237214141,
				"y": 2.121321803,
				"z": 4.3223185927,
				"element": "H" 
			}
		],
		 "valence_orbital": [ 
			{
				"type": "occ",
				"energy": -0.29008,
				"method": "rhf"
			},
			{
				"type": "occ",
				"energy": -0.26881,
				"method": "rhf"
			},
			{
				"type": "occ",
				"energy": -0.26664,
				"method": "rhf"
			},
			{
				"type": "occ",
				"energy": -0.25036,
				"method": "rhf"
			},
			{
				"type": "occ",
				"energy": -0.21326,
				"method": "rhf"
			},
			{
				"type": "unocc",
				"energy": -0.06616,
				"method": "rhf"
			},
			{
				"type": "unocc",
				"energy": -0.03245,
				"method": "rhf"
			},
			{
				"type": "unocc",
				"energy": 0.03664,
				"method": "rhf"
			},
			{
				"type": "unocc",
				"energy": 0.04646,
				"method": "rhf"
			},
			{
				"type": "unocc",
				"energy": 0.07048,
				"method": "rhf"
			}
		],
		"cosmo_sigma_profile": { 
			"-0.025": 0.0,
			"-0.024": 0.0,
			"-0.023": 0.0,
			"-0.022": 0.0,
			"-0.021": 0.0,
			"-0.02": 0.0,
			"-0.019": 0.0,
			"-0.018": 0.0,
			"-0.017": 0.0,
			"-0.016": 0.0,
			"-0.015": 0.0,
			"-0.014": 0.0,
			"-0.013": 0.0,
			"-0.012": 0.0,
			"-0.011": 0.0,
			"-0.01": 0.0,
			"-0.009": 0.900820986102,
			"-0.008": 7.23077956755,
			"-0.007": 12.2198473247,
			"-0.006": 14.5397965639,
			"-0.005": 14.6092394522,
			"-0.004": 16.2317142161,
			"-0.003": 19.1173194154,
			"-0.002": 12.6325258177,
			"-0.001": 9.82298287992,
			"0.0": 11.5459107122,
			"0.001": 11.4679593433,
			"0.002": 16.1116936022,
			"0.003": 19.0520829684,
			"0.004": 20.6078686486,
			"0.005": 13.3686743667,
			"0.006": 4.52601449406,
			"0.007": 3.50948169845,
			"0.008": 2.62748670484,
			"0.009": 3.55609898667,
			"0.01": 3.88076816532,
			"0.011": 3.84215642872,
			"0.012": 2.21448352143,
			"0.013": 0.463693607258,
			"0.014": 0.0,
			"0.015": 0.0,
			"0.016": 0.0,
			"0.017": 0.0,
			"0.018": 0.0,
			"0.019": 0.0,
			"0.02": 0.0,
			"0.021": 0.0,
			"0.022": 0.0,
			"0.023": 0.0,
			"0.024": 0.0,
			"0.025": 0.0
		}
	}
}
