{
	 "smiles": "CC(C)(C(O)C1=CC=C(Br)C=C1)[N+]([O-])=O", 
	 "Tm": 380.15, 
	 "num_atms": 27, 
	 "gaussian": { 
		 "optdone": 1, 
		 "sigma_profile": "yes", 
		 "theory": "DFT", 
		 "functional": "B3LYP", 
		 "basiset": "6-31G**", 
		 "properties": { 
			 "R2extent": 6520.7786, 
			 "electric_dipole_moment_norm": 3.61109788015, 
			 "electric_quadrupole_moment_norm": 5.85566292233, 
			 "total_energy": -3240.02919919, 
			 "HOMO_LUMO_gap": 0.17704, 
			 "cosmo_polarized_energy": -11.11, 
			 "cosmo_cavitation_energy": 32.26, 
			 "cosmo_dispersion_energy": -22.87, 
			 "cosmo_repulsion_energy": 1.78, 
			 "cosmo_total_nonelectrostatic_energy": 11.17, 
			 "SMD_solvation_energy": 6.44 
		},
		"coords": [
			{
				"x": 1.3542503204,
				"y": 0.1652704005,
				"z": -2.9758300764,
				"element": "C" 
			},
			{
				"x": 0.8127160954,
				"y": 0.7130713106,
				"z": -1.6473465212,
				"element": "C" 
			},
			{
				"x": -0.5032816399,
				"y": 1.4574499416,
				"z": -1.8343908967,
				"element": "C" 
			},
			{
				"x": 0.7218878957,
				"y": -0.4378058678,
				"z": -0.5898074889,
				"element": "C" 
			},
			{
				"x": -0.1870782207,
				"y": -1.3746369058,
				"z": -1.1589907679,
				"element": "O" 
			},
			{
				"x": 0.2895911005,
				"y": 0.0020502882,
				"z": 0.8035768211,
				"element": "C" 
			},
			{
				"x": -1.0594776901,
				"y": -0.0377409838,
				"z": 1.1801023781,
				"element": "C" 
			},
			{
				"x": -1.460554185,
				"y": 0.3487473036,
				"z": 2.4588693066,
				"element": "C" 
			},
			{
				"x": -0.4990633888,
				"y": 0.7797941104,
				"z": 3.3707925277,
				"element": "C" 
			},
			{
				"x": -1.0376785043,
				"y": 1.3063072761,
				"z": 5.1268322183,
				"element": "Br" 
			},
			{
				"x": 0.850158528,
				"y": 0.8244767345,
				"z": 3.0238376804,
				"element": "C" 
			},
			{
				"x": 1.237310695,
				"y": 0.4306782879,
				"z": 1.7433702248,
				"element": "C" 
			},
			{
				"x": 1.8849780843,
				"y": 1.6882692301,
				"z": -1.1202413552,
				"element": "N" 
			},
			{
				"x": 2.9942084667,
				"y": 1.2093797165,
				"z": -0.8784500455,
				"element": "O" 
			},
			{
				"x": 1.5909686484,
				"y": 2.8680308861,
				"z": -0.984876944,
				"element": "O" 
			},
			{
				"x": 1.4679398554,
				"y": 0.9737506638,
				"z": -3.7040270036,
				"element": "H" 
			},
			{
				"x": 2.3230892993,
				"y": -0.3168509323,
				"z": -2.8311194375,
				"element": "H" 
			},
			{
				"x": 0.647105531,
				"y": -0.5668436848,
				"z": -3.3680010257,
				"element": "H" 
			},
			{
				"x": -1.2566919384,
				"y": 0.7386479526,
				"z": -2.1648321246,
				"element": "H" 
			},
			{
				"x": -0.8404827588,
				"y": 1.9248192933,
				"z": -0.9087113577,
				"element": "H" 
			},
			{
				"x": -0.4008197168,
				"y": 2.2362790461,
				"z": -2.5924548667,
				"element": "H" 
			},
			{
				"x": 1.7289375312,
				"y": -0.8687829891,
				"z": -0.5223013258,
				"element": "H" 
			},
			{
				"x": -0.2402642651,
				"y": -2.1306071948,
				"z": -0.5596673503,
				"element": "H" 
			},
			{
				"x": -1.8002407396,
				"y": -0.3835929027,
				"z": 0.4666410372,
				"element": "H" 
			},
			{
				"x": -2.5060742785,
				"y": 0.3139567983,
				"z": 2.743525802,
				"element": "H" 
			},
			{
				"x": 1.5888704791,
				"y": 1.155728487,
				"z": 3.7446332198,
				"element": "H" 
			},
			{
				"x": 2.2887947959,
				"y": 0.4633537338,
				"z": 1.4739673713,
				"element": "H" 
			}
		],
		 "valence_orbital": [ 
			{
				"type": "occ",
				"energy": -0.29527,
				"method": "rhf"
			},
			{
				"type": "occ",
				"energy": -0.29139,
				"method": "rhf"
			},
			{
				"type": "occ",
				"energy": -0.28972,
				"method": "rhf"
			},
			{
				"type": "occ",
				"energy": -0.26996,
				"method": "rhf"
			},
			{
				"type": "occ",
				"energy": -0.24573,
				"method": "rhf"
			},
			{
				"type": "unocc",
				"energy": -0.06869,
				"method": "rhf"
			},
			{
				"type": "unocc",
				"energy": -0.02621,
				"method": "rhf"
			},
			{
				"type": "unocc",
				"energy": -0.02178,
				"method": "rhf"
			},
			{
				"type": "unocc",
				"energy": 0.00425,
				"method": "rhf"
			},
			{
				"type": "unocc",
				"energy": 0.05692,
				"method": "rhf"
			}
		],
		"cosmo_sigma_profile": { 
			"-0.025": 0.0,
			"-0.024": 0.0,
			"-0.023": 0.0,
			"-0.022": 0.0,
			"-0.021": 0.0,
			"-0.02": 0.0,
			"-0.019": 0.0,
			"-0.018": 0.0,
			"-0.017": 0.391647936317,
			"-0.016": 0.809348711056,
			"-0.015": 0.998999872419,
			"-0.014": 1.10027542077,
			"-0.013": 0.769143394437,
			"-0.012": 0.305749805035,
			"-0.011": 0.785891700213,
			"-0.01": 0.671399018966,
			"-0.009": 1.29378923785,
			"-0.008": 1.49898224374,
			"-0.007": 5.38078374,
			"-0.006": 9.16407825405,
			"-0.005": 15.2481641826,
			"-0.004": 19.1338015783,
			"-0.003": 20.0940010551,
			"-0.002": 20.4849930248,
			"-0.001": 25.0825404398,
			"0.0": 19.5119260219,
			"0.001": 16.2107875579,
			"0.002": 19.4921463608,
			"0.003": 21.6504905051,
			"0.004": 16.5611226177,
			"0.005": 11.5523701601,
			"0.006": 4.14576877282,
			"0.007": 9.67353144069,
			"0.008": 7.75150578339,
			"0.009": 5.37949770615,
			"0.01": 2.57149867463,
			"0.011": 0.163424071486,
			"0.012": 0.0,
			"0.013": 0.0,
			"0.014": 0.0,
			"0.015": 0.0,
			"0.016": 0.0,
			"0.017": 0.0,
			"0.018": 0.0,
			"0.019": 0.0,
			"0.02": 0.0,
			"0.021": 0.0,
			"0.022": 0.0,
			"0.023": 0.0,
			"0.024": 0.0,
			"0.025": 0.0
		}
	}
}
