{
	 "smiles": "NC1=NN2C(NC(=O)C=C2C(F)(F)F)=C1N=NC1=CC=CC(F)=C1", 
	 "Tm": 579.15, 
	 "num_atms": 32, 
	 "gaussian": { 
		 "optdone": 1, 
		 "sigma_profile": "yes", 
		 "theory": "DFT", 
		 "functional": "B3LYP", 
		 "basiset": "6-31G**", 
		 "properties": { 
			 "R2extent": 11650.662, 
			 "electric_dipole_moment_norm": 2.00287844114, 
			 "electric_quadrupole_moment_norm": 11.0461086288, 
			 "total_energy": -1303.24601913, 
			 "HOMO_LUMO_gap": 0.13277, 
			 "cosmo_polarized_energy": -16.24, 
			 "cosmo_cavitation_energy": 40.65, 
			 "cosmo_dispersion_energy": -28.85, 
			 "cosmo_repulsion_energy": 2.09, 
			 "cosmo_total_nonelectrostatic_energy": 13.89, 
			 "SMD_solvation_energy": 7.49 
		},
		"coords": [
			{
				"x": 0.8768378018,
				"y": 2.2348726864,
				"z": -2.3944992798,
				"element": "N" 
			},
			{
				"x": 0.3041921317,
				"y": 1.9265955314,
				"z": -1.2111378788,
				"element": "C" 
			},
			{
				"x": -0.3496108764,
				"y": 2.8121973634,
				"z": -0.4668868443,
				"element": "N" 
			},
			{
				"x": -0.7891131491,
				"y": 2.0701209748,
				"z": 0.6247346191,
				"element": "N" 
			},
			{
				"x": -0.4126816222,
				"y": 0.7580879939,
				"z": 0.5581275395,
				"element": "C" 
			},
			{
				"x": -0.7687797135,
				"y": -0.088835403,
				"z": 1.5589077734,
				"element": "N" 
			},
			{
				"x": -1.5190447695,
				"y": 0.297024062,
				"z": 2.6917953736,
				"element": "C" 
			},
			{
				"x": -1.805331317,
				"y": -0.515790449,
				"z": 3.5548644895,
				"element": "O" 
			},
			{
				"x": -1.8831628612,
				"y": 1.714194285,
				"z": 2.690190223,
				"element": "C" 
			},
			{
				"x": -1.5202509108,
				"y": 2.5498988429,
				"z": 1.6833496006,
				"element": "C" 
			},
			{
				"x": -1.8901153033,
				"y": 4.0214506249,
				"z": 1.6688486582,
				"element": "C" 
			},
			{
				"x": -2.6384634561,
				"y": 4.324541598,
				"z": 0.5976828554,
				"element": "F" 
			},
			{
				"x": -2.6025688643,
				"y": 4.3267881725,
				"z": 2.7709832655,
				"element": "F" 
			},
			{
				"x": -0.7958868027,
				"y": 4.7976890598,
				"z": 1.6580468247,
				"element": "F" 
			},
			{
				"x": 0.3118997178,
				"y": 0.5983325815,
				"z": -0.6229274018,
				"element": "C" 
			},
			{
				"x": 0.8640102796,
				"y": -0.5880522745,
				"z": -1.0131256727,
				"element": "N" 
			},
			{
				"x": 1.5152178756,
				"y": -0.5548732858,
				"z": -2.1091248891,
				"element": "N" 
			},
			{
				"x": 2.0827362368,
				"y": -1.7908992682,
				"z": -2.4987338145,
				"element": "C" 
			},
			{
				"x": 1.9630224091,
				"y": -2.993243216,
				"z": -1.7785238831,
				"element": "C" 
			},
			{
				"x": 2.566680624,
				"y": -4.1487850373,
				"z": -2.2625115374,
				"element": "C" 
			},
			{
				"x": 3.29394827,
				"y": -4.1366046936,
				"z": -3.4580990262,
				"element": "C" 
			},
			{
				"x": 3.3983459722,
				"y": -2.9371997181,
				"z": -4.1528978683,
				"element": "C" 
			},
			{
				"x": 4.0954561482,
				"y": -2.9072235396,
				"z": -5.3074908473,
				"element": "F" 
			},
			{
				"x": 2.8082886694,
				"y": -1.7661233202,
				"z": -3.6984212708,
				"element": "C" 
			},
			{
				"x": 0.9321963942,
				"y": 3.197972253,
				"z": -2.6836931945,
				"element": "H" 
			},
			{
				"x": 1.4347413636,
				"y": 1.5135053416,
				"z": -2.8295509182,
				"element": "H" 
			},
			{
				"x": -0.4836008117,
				"y": -1.0592801243,
				"z": 1.4977512709,
				"element": "H" 
			},
			{
				"x": -2.4584145391,
				"y": 2.0791332035,
				"z": 3.528100831,
				"element": "H" 
			},
			{
				"x": 1.3993468362,
				"y": -2.9994786479,
				"z": -0.8539595517,
				"element": "H" 
			},
			{
				"x": 2.474402317,
				"y": -5.0772199414,
				"z": -1.7068002219,
				"element": "H" 
			},
			{
				"x": 3.7706411004,
				"y": -5.0284386518,
				"z": -3.8494221536,
				"element": "H" 
			},
			{
				"x": 2.9052608495,
				"y": -0.844957004,
				"z": -4.2613770704,
				"element": "H" 
			}
		],
		 "valence_orbital": [ 
			{
				"type": "occ",
				"energy": -0.28142,
				"method": "rhf"
			},
			{
				"type": "occ",
				"energy": -0.25668,
				"method": "rhf"
			},
			{
				"type": "occ",
				"energy": -0.24786,
				"method": "rhf"
			},
			{
				"type": "occ",
				"energy": -0.22984,
				"method": "rhf"
			},
			{
				"type": "occ",
				"energy": -0.22256,
				"method": "rhf"
			},
			{
				"type": "unocc",
				"energy": -0.08979,
				"method": "rhf"
			},
			{
				"type": "unocc",
				"energy": -0.06735,
				"method": "rhf"
			},
			{
				"type": "unocc",
				"energy": -0.01179,
				"method": "rhf"
			},
			{
				"type": "unocc",
				"energy": -0.00337,
				"method": "rhf"
			},
			{
				"type": "unocc",
				"energy": 0.01988,
				"method": "rhf"
			}
		],
		"cosmo_sigma_profile": { 
			"-0.025": 0.0,
			"-0.024": 0.0,
			"-0.023": 0.0,
			"-0.022": 0.0,
			"-0.021": 0.0,
			"-0.02": 0.0,
			"-0.019": 0.0,
			"-0.018": 0.0,
			"-0.017": 0.154645416964,
			"-0.016": 0.790048943371,
			"-0.015": 1.20537523857,
			"-0.014": 2.04233138009,
			"-0.013": 1.75789797815,
			"-0.012": 1.99792279176,
			"-0.011": 1.77601504188,
			"-0.01": 2.00655134061,
			"-0.009": 3.85015844253,
			"-0.008": 5.51511377933,
			"-0.007": 8.93203831977,
			"-0.006": 12.1529509278,
			"-0.005": 16.781767535,
			"-0.004": 19.6004355556,
			"-0.003": 19.170340985,
			"-0.002": 17.994517527,
			"-0.001": 18.3213627459,
			"0.0": 23.0846347347,
			"0.001": 35.0912369866,
			"0.002": 47.2109204208,
			"0.003": 27.4762226539,
			"0.004": 22.294530578,
			"0.005": 8.32241750444,
			"0.006": 5.0170473981,
			"0.007": 3.48815253619,
			"0.008": 2.20425765648,
			"0.009": 2.61321057058,
			"0.01": 4.24649610089,
			"0.011": 3.83970944853,
			"0.012": 6.19949662595,
			"0.013": 3.00013574165,
			"0.014": 0.112771207783,
			"0.015": 0.0,
			"0.016": 0.0,
			"0.017": 0.0,
			"0.018": 0.0,
			"0.019": 0.0,
			"0.02": 0.0,
			"0.021": 0.0,
			"0.022": 0.0,
			"0.023": 0.0,
			"0.024": 0.0,
			"0.025": 0.0
		}
	}
}
