{
	 "smiles": "COC(=O)C1=CC=C(C=C1)C1=NOC(CC(C)(C)C)=N1", 
	 "Tm": 388.15, 
	 "num_atms": 38, 
	 "gaussian": { 
		 "optdone": 1, 
		 "sigma_profile": "yes", 
		 "theory": "DFT", 
		 "functional": "B3LYP", 
		 "basiset": "6-31G**", 
		 "properties": { 
			 "R2extent": 9985.1973, 
			 "electric_dipole_moment_norm": 3.66140977357, 
			 "electric_quadrupole_moment_norm": 14.5725997389, 
			 "total_energy": -917.620474341, 
			 "HOMO_LUMO_gap": 0.18347, 
			 "cosmo_polarized_energy": -11.04, 
			 "cosmo_cavitation_energy": 41.88, 
			 "cosmo_dispersion_energy": -29.4, 
			 "cosmo_repulsion_energy": 2.23, 
			 "cosmo_total_nonelectrostatic_energy": 14.72, 
			 "SMD_solvation_energy": 7.18 
		},
		"coords": [
			{
				"x": 0.2390934204,
				"y": 6.7424093205,
				"z": 2.5858428103,
				"element": "C" 
			},
			{
				"x": 0.1070509532,
				"y": 5.3639771185,
				"z": 2.2068871924,
				"element": "O" 
			},
			{
				"x": -0.159649825,
				"y": 5.1503300426,
				"z": 0.8978688564,
				"element": "C" 
			},
			{
				"x": -0.280989273,
				"y": 6.0507946474,
				"z": 0.089945127,
				"element": "O" 
			},
			{
				"x": -0.2847880422,
				"y": 3.7014134485,
				"z": 0.5705079464,
				"element": "C" 
			},
			{
				"x": -0.1371007683,
				"y": 2.695925589,
				"z": 1.5353259533,
				"element": "C" 
			},
			{
				"x": -0.2642994408,
				"y": 1.3580777954,
				"z": 1.1737076735,
				"element": "C" 
			},
			{
				"x": -0.5406643526,
				"y": 1.0098983388,
				"z": -0.1563730416,
				"element": "C" 
			},
			{
				"x": -0.6887547917,
				"y": 2.0186815012,
				"z": -1.1231866909,
				"element": "C" 
			},
			{
				"x": -0.5613863715,
				"y": 3.3525472307,
				"z": -0.7598867414,
				"element": "C" 
			},
			{
				"x": -0.6714469546,
				"y": -0.4069029244,
				"z": -0.5234471302,
				"element": "C" 
			},
			{
				"x": -0.9310837236,
				"y": -0.8032019114,
				"z": -1.750726525,
				"element": "N" 
			},
			{
				"x": -0.9679317039,
				"y": -2.1986722788,
				"z": -1.6381776656,
				"element": "O" 
			},
			{
				"x": -0.7243852413,
				"y": -2.4961033529,
				"z": -0.3454322026,
				"element": "C" 
			},
			{
				"x": -0.6948357421,
				"y": -3.9335128686,
				"z": 0.0515722241,
				"element": "C" 
			},
			{
				"x": 0.7185399354,
				"y": -4.6008105409,
				"z": 0.0469840335,
				"element": "C" 
			},
			{
				"x": 1.6277326579,
				"y": -3.9337640224,
				"z": 1.0949322046,
				"element": "C" 
			},
			{
				"x": 0.5204930409,
				"y": -6.0850020892,
				"z": 0.4093696067,
				"element": "C" 
			},
			{
				"x": 1.3574898262,
				"y": -4.4952052621,
				"z": -1.3501136361,
				"element": "C" 
			},
			{
				"x": -0.5363775449,
				"y": -1.4367344784,
				"z": 0.3877894081,
				"element": "N" 
			},
			{
				"x": 1.0565249036,
				"y": 7.2161890687,
				"z": 2.0364508693,
				"element": "H" 
			},
			{
				"x": -0.6848923316,
				"y": 7.2885693275,
				"z": 2.3798099782,
				"element": "H" 
			},
			{
				"x": 0.4496099761,
				"y": 6.7347230206,
				"z": 3.6552358812,
				"element": "H" 
			},
			{
				"x": 0.0762796235,
				"y": 2.9669780671,
				"z": 2.5626608928,
				"element": "H" 
			},
			{
				"x": -0.1525425812,
				"y": 0.571231618,
				"z": 1.9113495965,
				"element": "H" 
			},
			{
				"x": -0.9026956508,
				"y": 1.7448760066,
				"z": -2.1507519247,
				"element": "H" 
			},
			{
				"x": -0.6723064119,
				"y": 4.1454978528,
				"z": -1.491435733,
				"element": "H" 
			},
			{
				"x": -1.1185835577,
				"y": -4.0040038484,
				"z": 1.0582302071,
				"element": "H" 
			},
			{
				"x": -1.3518378481,
				"y": -4.484948863,
				"z": -0.629089199,
				"element": "H" 
			},
			{
				"x": 1.2050042969,
				"y": -4.0258117191,
				"z": 2.101610152,
				"element": "H" 
			},
			{
				"x": 1.7672244236,
				"y": -2.8683939657,
				"z": 0.8912378761,
				"element": "H" 
			},
			{
				"x": 2.613781057,
				"y": -4.4107002855,
				"z": 1.1004605549,
				"element": "H" 
			},
			{
				"x": 1.484041469,
				"y": -6.6046076052,
				"z": 0.4389799099,
				"element": "H" 
			},
			{
				"x": -0.1116264749,
				"y": -6.5952160342,
				"z": -0.3261800633,
				"element": "H" 
			},
			{
				"x": 0.0512994052,
				"y": -6.1963396913,
				"z": 1.3934059821,
				"element": "H" 
			},
			{
				"x": 1.5413658455,
				"y": -3.4551645864,
				"z": -1.6371704587,
				"element": "H" 
			},
			{
				"x": 2.3192236078,
				"y": -5.0188288121,
				"z": -1.3676247259,
				"element": "H" 
			},
			{
				"x": 0.7174241894,
				"y": -4.9442948542,
				"z": -2.1175691981,
				"element": "H" 
			}
		],
		 "valence_orbital": [ 
			{
				"type": "occ",
				"energy": -0.29755,
				"method": "rhf"
			},
			{
				"type": "occ",
				"energy": -0.29353,
				"method": "rhf"
			},
			{
				"type": "occ",
				"energy": -0.27464,
				"method": "rhf"
			},
			{
				"type": "occ",
				"energy": -0.26217,
				"method": "rhf"
			},
			{
				"type": "occ",
				"energy": -0.24884,
				"method": "rhf"
			},
			{
				"type": "unocc",
				"energy": -0.06537,
				"method": "rhf"
			},
			{
				"type": "unocc",
				"energy": -0.02033,
				"method": "rhf"
			},
			{
				"type": "unocc",
				"energy": -0.00748,
				"method": "rhf"
			},
			{
				"type": "unocc",
				"energy": 0.02576,
				"method": "rhf"
			},
			{
				"type": "unocc",
				"energy": 0.06814,
				"method": "rhf"
			}
		],
		"cosmo_sigma_profile": { 
			"-0.025": 0.0,
			"-0.024": 0.0,
			"-0.023": 0.0,
			"-0.022": 0.0,
			"-0.021": 0.0,
			"-0.02": 0.0,
			"-0.019": 0.0,
			"-0.018": 0.0,
			"-0.017": 0.0,
			"-0.016": 0.0,
			"-0.015": 0.0,
			"-0.014": 0.0,
			"-0.013": 0.0,
			"-0.012": 0.0,
			"-0.011": 0.0,
			"-0.01": 0.0,
			"-0.009": 0.0,
			"-0.008": 0.0,
			"-0.007": 2.12019627969,
			"-0.006": 13.2136866873,
			"-0.005": 19.4843720147,
			"-0.004": 27.5902086829,
			"-0.003": 38.72205652,
			"-0.002": 32.6804891499,
			"-0.001": 29.6831257466,
			"0.0": 33.5376866986,
			"0.001": 43.4552314707,
			"0.002": 26.1731689314,
			"0.003": 13.5737697324,
			"0.004": 7.16189838519,
			"0.005": 8.12868188294,
			"0.006": 7.03757510126,
			"0.007": 5.85921404509,
			"0.008": 4.75387590952,
			"0.009": 3.74241877319,
			"0.01": 4.21396123733,
			"0.011": 5.08264481822,
			"0.012": 4.67289679204,
			"0.013": 0.103659764923,
			"0.014": 0.0,
			"0.015": 0.0,
			"0.016": 0.0,
			"0.017": 0.0,
			"0.018": 0.0,
			"0.019": 0.0,
			"0.02": 0.0,
			"0.021": 0.0,
			"0.022": 0.0,
			"0.023": 0.0,
			"0.024": 0.0,
			"0.025": 0.0
		}
	}
}
