{
	 "smiles": "CC1=C(C(Cl)=O)C(=NO1)C1=CC=C(F)C=C1", 
	 "Tm": 326.15, 
	 "num_atms": 23, 
	 "gaussian": { 
		 "optdone": 1, 
		 "sigma_profile": "yes", 
		 "theory": "DFT", 
		 "functional": "B3LYP", 
		 "basiset": "6-31G**", 
		 "properties": { 
			 "R2extent": 6015.2055, 
			 "electric_dipole_moment_norm": 1.62725443923, 
			 "electric_quadrupole_moment_norm": 17.4536364944, 
			 "total_energy": -1188.57515372, 
			 "HOMO_LUMO_gap": 0.18073, 
			 "cosmo_polarized_energy": -9.44, 
			 "cosmo_cavitation_energy": 30.71, 
			 "cosmo_dispersion_energy": -21.81, 
			 "cosmo_repulsion_energy": 1.67, 
			 "cosmo_total_nonelectrostatic_energy": 10.57, 
			 "SMD_solvation_energy": 6.32 
		},
		"coords": [
			{
				"x": -2.3970412017,
				"y": -0.0013932617,
				"z": -4.4194856954,
				"element": "C" 
			},
			{
				"x": -1.8442929177,
				"y": 0.0041278976,
				"z": -3.0396541441,
				"element": "C" 
			},
			{
				"x": -2.266976981,
				"y": -0.5487227251,
				"z": -1.8440088518,
				"element": "C" 
			},
			{
				"x": -3.5459661266,
				"y": -1.2450090102,
				"z": -1.7543444724,
				"element": "C" 
			},
			{
				"x": -4.2834444649,
				"y": -1.3243471797,
				"z": -0.0969256893,
				"element": "Cl" 
			},
			{
				"x": -4.1557419537,
				"y": -1.6948676369,
				"z": -2.684471352,
				"element": "O" 
			},
			{
				"x": -1.2481519551,
				"y": -0.1542220494,
				"z": -0.8974267952,
				"element": "C" 
			},
			{
				"x": -0.3211059835,
				"y": 0.5672743663,
				"z": -1.4898696795,
				"element": "N" 
			},
			{
				"x": -0.7143983557,
				"y": 0.679281386,
				"z": -2.8370695807,
				"element": "O" 
			},
			{
				"x": -1.0632589787,
				"y": -0.4558186299,
				"z": 0.537480608,
				"element": "C" 
			},
			{
				"x": -1.2091155702,
				"y": -1.7598485168,
				"z": 1.0337784149,
				"element": "C" 
			},
			{
				"x": -0.9642520099,
				"y": -2.0399527607,
				"z": 2.3751050074,
				"element": "C" 
			},
			{
				"x": -0.5704187214,
				"y": -1.0021071125,
				"z": 3.2137271261,
				"element": "C" 
			},
			{
				"x": -0.3373064071,
				"y": -1.2677282842,
				"z": 4.5131653902,
				"element": "F" 
			},
			{
				"x": -0.4079256575,
				"y": 0.299355576,
				"z": 2.7518362333,
				"element": "C" 
			},
			{
				"x": -0.652135742,
				"y": 0.5661290213,
				"z": 1.4070443811,
				"element": "C" 
			},
			{
				"x": -2.1500625238,
				"y": -0.9425423186,
				"z": -4.9227380264,
				"element": "H" 
			},
			{
				"x": -1.9746556274,
				"y": 0.8257938504,
				"z": -4.9932249625,
				"element": "H" 
			},
			{
				"x": -3.4861561103,
				"y": 0.0691004668,
				"z": -4.3955362088,
				"element": "H" 
			},
			{
				"x": -1.5057740802,
				"y": -2.5638411697,
				"z": 0.368970812,
				"element": "H" 
			},
			{
				"x": -1.0699174244,
				"y": -3.0423603872,
				"z": 2.7746107308,
				"element": "H" 
			},
			{
				"x": -0.0979856327,
				"y": 1.078640907,
				"z": 3.439161827,
				"element": "H" 
			},
			{
				"x": -0.5275155744,
				"y": 1.572257571,
				"z": 1.0219749272,
				"element": "H" 
			}
		],
		 "valence_orbital": [ 
			{
				"type": "occ",
				"energy": -0.32151,
				"method": "rhf"
			},
			{
				"type": "occ",
				"energy": -0.3003,
				"method": "rhf"
			},
			{
				"type": "occ",
				"energy": -0.28368,
				"method": "rhf"
			},
			{
				"type": "occ",
				"energy": -0.27085,
				"method": "rhf"
			},
			{
				"type": "occ",
				"energy": -0.25051,
				"method": "rhf"
			},
			{
				"type": "unocc",
				"energy": -0.06978,
				"method": "rhf"
			},
			{
				"type": "unocc",
				"energy": -0.04387,
				"method": "rhf"
			},
			{
				"type": "unocc",
				"energy": -0.02176,
				"method": "rhf"
			},
			{
				"type": "unocc",
				"energy": -0.00348,
				"method": "rhf"
			},
			{
				"type": "unocc",
				"energy": 0.01787,
				"method": "rhf"
			}
		],
		"cosmo_sigma_profile": { 
			"-0.025": 0.0,
			"-0.024": 0.0,
			"-0.023": 0.0,
			"-0.022": 0.0,
			"-0.021": 0.0,
			"-0.02": 0.0,
			"-0.019": 0.0,
			"-0.018": 0.0,
			"-0.017": 0.0,
			"-0.016": 0.0,
			"-0.015": 0.0,
			"-0.014": 0.0,
			"-0.013": 0.0,
			"-0.012": 0.0,
			"-0.011": 0.0,
			"-0.01": 0.00165986301535,
			"-0.009": 0.428228298361,
			"-0.008": 4.05684779644,
			"-0.007": 12.6685348011,
			"-0.006": 14.31082148,
			"-0.005": 16.7792482253,
			"-0.004": 17.2034274723,
			"-0.003": 19.602399919,
			"-0.002": 15.8232144141,
			"-0.001": 13.6318454849,
			"0.0": 16.870077473,
			"0.001": 17.1387376318,
			"0.002": 19.5782466939,
			"0.003": 23.6972964155,
			"0.004": 23.5667506508,
			"0.005": 8.31947508201,
			"0.006": 8.01451409466,
			"0.007": 4.45269492472,
			"0.008": 4.70706400464,
			"0.009": 4.09308204904,
			"0.01": 1.78419461046,
			"0.011": 1.43471325196,
			"0.012": 0.720573161371,
			"0.013": 0.595203574629,
			"0.014": 0.0,
			"0.015": 0.0,
			"0.016": 0.0,
			"0.017": 0.0,
			"0.018": 0.0,
			"0.019": 0.0,
			"0.02": 0.0,
			"0.021": 0.0,
			"0.022": 0.0,
			"0.023": 0.0,
			"0.024": 0.0,
			"0.025": 0.0
		}
	}
}
