{
	 "smiles": "NC1=NC2=C(C=N1)C=C(C=C2)C#N", 
	 "Tm": 618.15, 
	 "num_atms": 19, 
	 "gaussian": { 
		 "optdone": 1, 
		 "sigma_profile": "yes", 
		 "theory": "DFT", 
		 "functional": "B3LYP", 
		 "basiset": "6-31G**", 
		 "properties": { 
			 "R2extent": 3213.0778, 
			 "electric_dipole_moment_norm": 5.31237115232, 
			 "electric_quadrupole_moment_norm": 14.3075428345, 
			 "total_energy": -565.584403091, 
			 "HOMO_LUMO_gap": 0.15461, 
			 "cosmo_polarized_energy": -14.57, 
			 "cosmo_cavitation_energy": 25.07, 
			 "cosmo_dispersion_energy": -18.32, 
			 "cosmo_repulsion_energy": 1.44, 
			 "cosmo_total_nonelectrostatic_energy": 8.19, 
			 "SMD_solvation_energy": 2.62 
		},
		"coords": [
			{
				"x": 2.4935145453,
				"y": 1.8820993357,
				"z": 2.9732099374,
				"element": "N" 
			},
			{
				"x": 2.2688462424,
				"y": 1.0457725945,
				"z": 1.9304197462,
				"element": "C" 
			},
			{
				"x": 1.057646445,
				"y": 1.0341307322,
				"z": 1.3846307796,
				"element": "N" 
			},
			{
				"x": 0.8782116059,
				"y": 0.2017791502,
				"z": 0.3310347395,
				"element": "C" 
			},
			{
				"x": 1.9377702821,
				"y": -0.62073857,
				"z": -0.1612345438,
				"element": "C" 
			},
			{
				"x": 3.1760147082,
				"y": -0.504427824,
				"z": 0.5300846699,
				"element": "C" 
			},
			{
				"x": 3.3602669332,
				"y": 0.2978490223,
				"z": 1.5481320022,
				"element": "N" 
			},
			{
				"x": 1.7308081621,
				"y": -1.4804397854,
				"z": -1.2577214612,
				"element": "C" 
			},
			{
				"x": 0.4857758409,
				"y": -1.5313701058,
				"z": -1.8692536241,
				"element": "C" 
			},
			{
				"x": -0.5771357317,
				"y": -0.7122073855,
				"z": -1.381922323,
				"element": "C" 
			},
			{
				"x": -0.3880481414,
				"y": 0.1298667193,
				"z": -0.3131610108,
				"element": "C" 
			},
			{
				"x": 0.2606748336,
				"y": -2.4003432425,
				"z": -2.985080477,
				"element": "C" 
			},
			{
				"x": 0.0719912161,
				"y": -3.1047344922,
				"z": -3.8921236226,
				"element": "N" 
			},
			{
				"x": 1.7207092063,
				"y": 2.3943370738,
				"z": 3.3641957317,
				"element": "H" 
			},
			{
				"x": 3.3743956132,
				"y": 1.8317044865,
				"z": 3.4564048668,
				"element": "H" 
			},
			{
				"x": 4.029748984,
				"y": -1.1060208624,
				"z": 0.214012182,
				"element": "H" 
			},
			{
				"x": 2.5452571645,
				"y": -2.1003806823,
				"z": -1.6213358434,
				"element": "H" 
			},
			{
				"x": -1.5431454831,
				"y": -0.7662273384,
				"z": -1.8732770613,
				"element": "H" 
			},
			{
				"x": -1.1898024265,
				"y": 0.755751174,
				"z": 0.0633853118,
				"element": "H" 
			}
		],
		 "valence_orbital": [ 
			{
				"type": "occ",
				"energy": -0.32353,
				"method": "rhf"
			},
			{
				"type": "occ",
				"energy": -0.30068,
				"method": "rhf"
			},
			{
				"type": "occ",
				"energy": -0.27411,
				"method": "rhf"
			},
			{
				"type": "occ",
				"energy": -0.26079,
				"method": "rhf"
			},
			{
				"type": "occ",
				"energy": -0.23031,
				"method": "rhf"
			},
			{
				"type": "unocc",
				"energy": -0.0757,
				"method": "rhf"
			},
			{
				"type": "unocc",
				"energy": -0.04799,
				"method": "rhf"
			},
			{
				"type": "unocc",
				"energy": 0.00249,
				"method": "rhf"
			},
			{
				"type": "unocc",
				"energy": 0.03683,
				"method": "rhf"
			},
			{
				"type": "unocc",
				"energy": 0.04634,
				"method": "rhf"
			}
		],
		"cosmo_sigma_profile": { 
			"-0.025": 0.0,
			"-0.024": 0.0,
			"-0.023": 0.0,
			"-0.022": 0.0,
			"-0.021": 0.0,
			"-0.02": 0.0,
			"-0.019": 0.0,
			"-0.018": 0.0,
			"-0.017": 0.0,
			"-0.016": 0.0,
			"-0.015": 0.285240470547,
			"-0.014": 2.07257396627,
			"-0.013": 1.7988377023,
			"-0.012": 2.45714984388,
			"-0.011": 1.87636992232,
			"-0.01": 2.13060212207,
			"-0.009": 5.46117338303,
			"-0.008": 8.28785192617,
			"-0.007": 7.88279762172,
			"-0.006": 9.33252884835,
			"-0.005": 7.92058084241,
			"-0.004": 7.64677814058,
			"-0.003": 9.20703641096,
			"-0.002": 12.130733302,
			"-0.001": 16.0193007975,
			"0.0": 19.4684709178,
			"0.001": 17.0811628635,
			"0.002": 13.4287844478,
			"0.003": 7.24982455637,
			"0.004": 5.85425440687,
			"0.005": 5.45866144335,
			"0.006": 5.91260257705,
			"0.007": 5.4550508656,
			"0.008": 5.13764927668,
			"0.009": 5.19398485123,
			"0.01": 4.85102358198,
			"0.011": 4.86785888945,
			"0.012": 4.32960572741,
			"0.013": 2.81314556463,
			"0.014": 1.38930808771,
			"0.015": 0.0958245634399,
			"0.016": 0.0,
			"0.017": 0.0,
			"0.018": 0.0,
			"0.019": 0.0,
			"0.02": 0.0,
			"0.021": 0.0,
			"0.022": 0.0,
			"0.023": 0.0,
			"0.024": 0.0,
			"0.025": 0.0
		}
	}
}
