{
	 "smiles": "ClC1=CC(NC(=O)C2=CN=C(Cl)C=C2)=CC=C1", 
	 "Tm": 451.15, 
	 "num_atms": 25, 
	 "gaussian": { 
		 "optdone": 1, 
		 "sigma_profile": "yes", 
		 "theory": "DFT", 
		 "functional": "B3LYP", 
		 "basiset": "6-31G**", 
		 "properties": { 
			 "R2extent": 9762.2007, 
			 "electric_dipole_moment_norm": 1.16306009303, 
			 "electric_quadrupole_moment_norm": 5.59632883773, 
			 "total_energy": -1567.22588707, 
			 "HOMO_LUMO_gap": 0.16771, 
			 "cosmo_polarized_energy": -14.44, 
			 "cosmo_cavitation_energy": 34.18, 
			 "cosmo_dispersion_energy": -25.45, 
			 "cosmo_repulsion_energy": 1.95, 
			 "cosmo_total_nonelectrostatic_energy": 10.68, 
			 "SMD_solvation_energy": 4.17 
		},
		"coords": [
			{
				"x": 5.6618983703,
				"y": -2.8424658746,
				"z": -2.3034032353,
				"element": "Cl" 
			},
			{
				"x": 3.9414001934,
				"y": -2.4859012596,
				"z": -2.3655453478,
				"element": "C" 
			},
			{
				"x": 3.3028543219,
				"y": -2.0605444898,
				"z": -1.2061309095,
				"element": "C" 
			},
			{
				"x": 1.9288887216,
				"y": -1.7722644932,
				"z": -1.2381071203,
				"element": "C" 
			},
			{
				"x": 1.3457454048,
				"y": -1.3364309316,
				"z": -0.029677446,
				"element": "N" 
			},
			{
				"x": 0.0245881623,
				"y": -1.0481398173,
				"z": 0.2313993738,
				"element": "C" 
			},
			{
				"x": -0.8812618198,
				"y": -1.1703830741,
				"z": -0.5850804053,
				"element": "O" 
			},
			{
				"x": -0.2602414092,
				"y": -0.5715024249,
				"z": 1.6279237858,
				"element": "C" 
			},
			{
				"x": 0.6762191132,
				"y": 0.0318440527,
				"z": 2.4731778762,
				"element": "C" 
			},
			{
				"x": 0.3941935849,
				"y": 0.4620406535,
				"z": 3.7095774631,
				"element": "N" 
			},
			{
				"x": -0.8459116707,
				"y": 0.3064514281,
				"z": 4.1370689247,
				"element": "C" 
			},
			{
				"x": -1.1936275944,
				"y": 0.8577417868,
				"z": 5.7681740805,
				"element": "Cl" 
			},
			{
				"x": -1.884120968,
				"y": -0.2531708964,
				"z": 3.3819050993,
				"element": "C" 
			},
			{
				"x": -1.5752069973,
				"y": -0.6907852282,
				"z": 2.1028348455,
				"element": "C" 
			},
			{
				"x": 1.2132448108,
				"y": -1.9142934355,
				"z": -2.4370105074,
				"element": "C" 
			},
			{
				"x": 1.8864999907,
				"y": -2.341835072,
				"z": -3.580738689,
				"element": "C" 
			},
			{
				"x": 3.2506018872,
				"y": -2.6332934792,
				"z": -3.5671069612,
				"element": "C" 
			},
			{
				"x": 3.870829859,
				"y": -1.9541436475,
				"z": -0.2868861571,
				"element": "H" 
			},
			{
				"x": 1.9740710349,
				"y": -1.3139837283,
				"z": 0.7600464067,
				"element": "H" 
			},
			{
				"x": 1.6987299704,
				"y": 0.2164270775,
				"z": 2.1477147617,
				"element": "H" 
			},
			{
				"x": -2.8843610807,
				"y": -0.3341333991,
				"z": 3.7898960057,
				"element": "H" 
			},
			{
				"x": -2.3284862973,
				"y": -1.1231014245,
				"z": 1.4528560604,
				"element": "H" 
			},
			{
				"x": 0.1555208922,
				"y": -1.6977971002,
				"z": -2.4560657504,
				"element": "H" 
			},
			{
				"x": 1.3304380464,
				"y": -2.451331587,
				"z": -4.5070240733,
				"element": "H" 
			},
			{
				"x": 3.7668934735,
				"y": -2.966003636,
				"z": -4.459898081,
				"element": "H" 
			}
		],
		 "valence_orbital": [ 
			{
				"type": "occ",
				"energy": -0.29798,
				"method": "rhf"
			},
			{
				"type": "occ",
				"energy": -0.27892,
				"method": "rhf"
			},
			{
				"type": "occ",
				"energy": -0.27213,
				"method": "rhf"
			},
			{
				"type": "occ",
				"energy": -0.25841,
				"method": "rhf"
			},
			{
				"type": "occ",
				"energy": -0.23791,
				"method": "rhf"
			},
			{
				"type": "unocc",
				"energy": -0.0702,
				"method": "rhf"
			},
			{
				"type": "unocc",
				"energy": -0.05234,
				"method": "rhf"
			},
			{
				"type": "unocc",
				"energy": -0.02021,
				"method": "rhf"
			},
			{
				"type": "unocc",
				"energy": -0.01483,
				"method": "rhf"
			},
			{
				"type": "unocc",
				"energy": 0.02121,
				"method": "rhf"
			}
		],
		"cosmo_sigma_profile": { 
			"-0.025": 0.0,
			"-0.024": 0.0,
			"-0.023": 0.0,
			"-0.022": 0.0,
			"-0.021": 0.0,
			"-0.02": 0.0,
			"-0.019": 0.0,
			"-0.018": 0.0,
			"-0.017": 0.151302417367,
			"-0.016": 1.10794527644,
			"-0.015": 1.92111351782,
			"-0.014": 1.4198942044,
			"-0.013": 1.23263931894,
			"-0.012": 1.70255678281,
			"-0.011": 1.81709880268,
			"-0.01": 1.78115717878,
			"-0.009": 3.52877349545,
			"-0.008": 5.72163714752,
			"-0.007": 8.62360346708,
			"-0.006": 9.4488045825,
			"-0.005": 11.5095618823,
			"-0.004": 11.7728179624,
			"-0.003": 13.8432258827,
			"-0.002": 18.6059280427,
			"-0.001": 25.5888165957,
			"0.0": 22.8674848327,
			"0.001": 21.8475483195,
			"0.002": 25.6449381618,
			"0.003": 28.0198377771,
			"0.004": 27.3881760962,
			"0.005": 12.1147602929,
			"0.006": 3.98204339414,
			"0.007": 2.68826123401,
			"0.008": 2.52261405805,
			"0.009": 2.32441910447,
			"0.01": 3.5816277228,
			"0.011": 2.81531357588,
			"0.012": 3.62401514621,
			"0.013": 1.06761721874,
			"0.014": 0.45115958597,
			"0.015": 0.0,
			"0.016": 0.0,
			"0.017": 0.0,
			"0.018": 0.0,
			"0.019": 0.0,
			"0.02": 0.0,
			"0.021": 0.0,
			"0.022": 0.0,
			"0.023": 0.0,
			"0.024": 0.0,
			"0.025": 0.0
		}
	}
}
