{
	 "smiles": "CN1CCN(C)C(=O)C2=C1C=C(N)C=C2", 
	 "Tm": 462.15, 
	 "num_atms": 30, 
	 "gaussian": { 
		 "optdone": 1, 
		 "sigma_profile": "yes", 
		 "theory": "DFT", 
		 "functional": "B3LYP", 
		 "basiset": "6-31G**", 
		 "properties": { 
			 "R2extent": 3368.3301, 
			 "electric_dipole_moment_norm": 5.4624305515, 
			 "electric_quadrupole_moment_norm": 17.2474343608, 
			 "total_energy": -667.696872753, 
			 "HOMO_LUMO_gap": 0.18437, 
			 "cosmo_polarized_energy": -18.1, 
			 "cosmo_cavitation_energy": 31.28, 
			 "cosmo_dispersion_energy": -22.92, 
			 "cosmo_repulsion_energy": 1.78, 
			 "cosmo_total_nonelectrostatic_energy": 10.14, 
			 "SMD_solvation_energy": 4.61 
		},
		"coords": [
			{
				"x": 1.5061496976,
				"y": 1.5074284415,
				"z": 2.0404185916,
				"element": "C" 
			},
			{
				"x": 0.8007711113,
				"y": 0.4996905483,
				"z": 1.2690057299,
				"element": "N" 
			},
			{
				"x": -0.3936589127,
				"y": 0.0190948605,
				"z": 1.9631614632,
				"element": "C" 
			},
			{
				"x": -1.2121285549,
				"y": -0.96159524,
				"z": 1.1345186424,
				"element": "C" 
			},
			{
				"x": -0.4236557008,
				"y": -2.0796264431,
				"z": 0.6387779892,
				"element": "N" 
			},
			{
				"x": -0.6730545674,
				"y": -3.4096015849,
				"z": 1.1721936246,
				"element": "C" 
			},
			{
				"x": 0.3691931047,
				"y": -1.9363768087,
				"z": -0.4784830973,
				"element": "C" 
			},
			{
				"x": 0.8399658737,
				"y": -2.9092059036,
				"z": -1.0690346998,
				"element": "O" 
			},
			{
				"x": 0.6114951253,
				"y": -0.5413315628,
				"z": -0.9649389414,
				"element": "C" 
			},
			{
				"x": 0.8163082916,
				"y": 0.600538399,
				"z": -0.1396164884,
				"element": "C" 
			},
			{
				"x": 1.1446418377,
				"y": 1.8204650097,
				"z": -0.7516898842,
				"element": "C" 
			},
			{
				"x": 1.2870490386,
				"y": 1.942074675,
				"z": -2.1424221471,
				"element": "C" 
			},
			{
				"x": 1.6618347134,
				"y": 3.1585085383,
				"z": -2.7062526096,
				"element": "N" 
			},
			{
				"x": 1.0928118339,
				"y": 0.8075421612,
				"z": -2.9479045974,
				"element": "C" 
			},
			{
				"x": 0.7736032776,
				"y": -0.401274492,
				"z": -2.3500193559,
				"element": "C" 
			},
			{
				"x": 1.663249559,
				"y": 1.1239548715,
				"z": 3.0544691804,
				"element": "H" 
			},
			{
				"x": 0.9607301859,
				"y": 2.4642342216,
				"z": 2.131456358,
				"element": "H" 
			},
			{
				"x": 2.4840460489,
				"y": 1.7058574973,
				"z": 1.5962696101,
				"element": "H" 
			},
			{
				"x": -0.0707500959,
				"y": -0.4637600565,
				"z": 2.8953842698,
				"element": "H" 
			},
			{
				"x": -1.0519079768,
				"y": 0.8622143152,
				"z": 2.2499768604,
				"element": "H" 
			},
			{
				"x": -2.0204489159,
				"y": -1.355083197,
				"z": 1.7580100542,
				"element": "H" 
			},
			{
				"x": -1.6849054964,
				"y": -0.436667218,
				"z": 0.2964691993,
				"element": "H" 
			},
			{
				"x": -0.5609147784,
				"y": -3.4125430177,
				"z": 2.262510013,
				"element": "H" 
			},
			{
				"x": 0.0502918738,
				"y": -4.0914877557,
				"z": 0.7271688824,
				"element": "H" 
			},
			{
				"x": -1.6839905652,
				"y": -3.7620558951,
				"z": 0.92504024,
				"element": "H" 
			},
			{
				"x": 1.2948793575,
				"y": 2.7037392348,
				"z": -0.1399908192,
				"element": "H" 
			},
			{
				"x": 1.4201162052,
				"y": 3.279379804,
				"z": -3.6796776303,
				"element": "H" 
			},
			{
				"x": 1.4612213861,
				"y": 3.9804380359,
				"z": -2.1542140532,
				"element": "H" 
			},
			{
				"x": 1.2134451133,
				"y": 0.8762907244,
				"z": -4.0255441961,
				"element": "H" 
			},
			{
				"x": 0.6614119292,
				"y": -1.2956421633,
				"z": -2.9539421887,
				"element": "H" 
			}
		],
		 "valence_orbital": [ 
			{
				"type": "occ",
				"energy": -0.2636,
				"method": "rhf"
			},
			{
				"type": "occ",
				"energy": -0.23634,
				"method": "rhf"
			},
			{
				"type": "occ",
				"energy": -0.22308,
				"method": "rhf"
			},
			{
				"type": "occ",
				"energy": -0.20917,
				"method": "rhf"
			},
			{
				"type": "occ",
				"energy": -0.1904,
				"method": "rhf"
			},
			{
				"type": "unocc",
				"energy": -0.00603,
				"method": "rhf"
			},
			{
				"type": "unocc",
				"energy": 0.01181,
				"method": "rhf"
			},
			{
				"type": "unocc",
				"energy": 0.06858,
				"method": "rhf"
			},
			{
				"type": "unocc",
				"energy": 0.08247,
				"method": "rhf"
			},
			{
				"type": "unocc",
				"energy": 0.08486,
				"method": "rhf"
			}
		],
		"cosmo_sigma_profile": { 
			"-0.025": 0.0,
			"-0.024": 0.0,
			"-0.023": 0.0,
			"-0.022": 0.0,
			"-0.021": 0.0,
			"-0.02": 0.0,
			"-0.019": 0.0,
			"-0.018": 0.0,
			"-0.017": 0.0,
			"-0.016": 0.0,
			"-0.015": 0.0,
			"-0.014": 0.0,
			"-0.013": 0.738714015803,
			"-0.012": 2.88065420514,
			"-0.011": 2.09457022679,
			"-0.01": 2.96145145615,
			"-0.009": 3.67375623771,
			"-0.008": 2.52323182878,
			"-0.007": 2.5216760174,
			"-0.006": 7.01239979558,
			"-0.005": 13.9611013355,
			"-0.004": 27.3860236988,
			"-0.003": 30.9170775693,
			"-0.002": 26.5595143133,
			"-0.001": 22.3725082859,
			"0.0": 11.4959180746,
			"0.001": 8.59943657639,
			"0.002": 8.07720313414,
			"0.003": 6.93178336742,
			"0.004": 9.8785933733,
			"0.005": 9.91373516238,
			"0.006": 13.1177698276,
			"0.007": 6.2908821135,
			"0.008": 3.78204648156,
			"0.009": 3.48693163229,
			"0.01": 2.26612441942,
			"0.011": 2.94140631935,
			"0.012": 2.35228154565,
			"0.013": 2.32465807489,
			"0.014": 4.54050480494,
			"0.015": 3.55478414937,
			"0.016": 0.369110011143,
			"0.017": 0.0,
			"0.018": 0.0,
			"0.019": 0.0,
			"0.02": 0.0,
			"0.021": 0.0,
			"0.022": 0.0,
			"0.023": 0.0,
			"0.024": 0.0,
			"0.025": 0.0
		}
	}
}
