{
	 "smiles": "CN1C(S)=NN=C1CC#N", 
	 "Tm": 461.15, 
	 "num_atms": 16, 
	 "gaussian": { 
		 "optdone": 1, 
		 "sigma_profile": "yes", 
		 "theory": "DFT", 
		 "functional": "B3LYP", 
		 "basiset": "6-31G**", 
		 "properties": { 
			 "R2extent": 2009.5949, 
			 "electric_dipole_moment_norm": 3.86689521968, 
			 "electric_quadrupole_moment_norm": 14.6182342422, 
			 "total_energy": -811.290343057, 
			 "HOMO_LUMO_gap": 0.23539, 
			 "cosmo_polarized_energy": -19.05, 
			 "cosmo_cavitation_energy": 22.99, 
			 "cosmo_dispersion_energy": -16.75, 
			 "cosmo_repulsion_energy": 1.32, 
			 "cosmo_total_nonelectrostatic_energy": 7.56, 
			 "SMD_solvation_energy": 3.01 
		},
		"coords": [
			{
				"x": -0.7575450353,
				"y": 0.0137813415,
				"z": -0.9146028962,
				"element": "C" 
			},
			{
				"x": -0.025753527,
				"y": -0.2049278238,
				"z": 0.3280618915,
				"element": "N" 
			},
			{
				"x": 1.2342827926,
				"y": -0.7296844548,
				"z": 0.4724727616,
				"element": "C" 
			},
			{
				"x": 2.1990187081,
				"y": -1.2730140965,
				"z": -0.9035652438,
				"element": "S" 
			},
			{
				"x": 1.5964066165,
				"y": -0.7645901826,
				"z": 1.734649128,
				"element": "N" 
			},
			{
				"x": 0.5461925334,
				"y": -0.2471142436,
				"z": 2.4647556457,
				"element": "N" 
			},
			{
				"x": -0.4011090097,
				"y": 0.0843738917,
				"z": 1.6231424067,
				"element": "C" 
			},
			{
				"x": -1.6914186071,
				"y": 0.7279289567,
				"z": 2.0414185244,
				"element": "C" 
			},
			{
				"x": -2.8913128755,
				"y": -0.0217993699,
				"z": 1.6448100684,
				"element": "C" 
			},
			{
				"x": -3.8316943187,
				"y": -0.6061514808,
				"z": 1.2970303887,
				"element": "N" 
			},
			{
				"x": -0.5367412842,
				"y": -0.7982924558,
				"z": -1.6109633384,
				"element": "H" 
			},
			{
				"x": -1.8293060586,
				"y": 0.0058063381,
				"z": -0.7148170467,
				"element": "H" 
			},
			{
				"x": -0.4761283795,
				"y": 0.9662903232,
				"z": -1.3743869814,
				"element": "H" 
			},
			{
				"x": 3.1660338504,
				"y": -1.7709981955,
				"z": -0.1103485105,
				"element": "H" 
			},
			{
				"x": -1.7789413944,
				"y": 1.7483631655,
				"z": 1.6453470406,
				"element": "H" 
			},
			{
				"x": -1.6567840111,
				"y": 0.8054282866,
				"z": 3.1322961614,
				"element": "H" 
			}
		],
		 "valence_orbital": [ 
			{
				"type": "occ",
				"energy": -0.32401,
				"method": "rhf"
			},
			{
				"type": "occ",
				"energy": -0.31928,
				"method": "rhf"
			},
			{
				"type": "occ",
				"energy": -0.30414,
				"method": "rhf"
			},
			{
				"type": "occ",
				"energy": -0.26889,
				"method": "rhf"
			},
			{
				"type": "occ",
				"energy": -0.24332,
				"method": "rhf"
			},
			{
				"type": "unocc",
				"energy": -0.00793,
				"method": "rhf"
			},
			{
				"type": "unocc",
				"energy": -0.0043,
				"method": "rhf"
			},
			{
				"type": "unocc",
				"energy": 0.01681,
				"method": "rhf"
			},
			{
				"type": "unocc",
				"energy": 0.02104,
				"method": "rhf"
			},
			{
				"type": "unocc",
				"energy": 0.03716,
				"method": "rhf"
			}
		],
		"cosmo_sigma_profile": { 
			"-0.025": 0.0,
			"-0.024": 0.0,
			"-0.023": 0.0,
			"-0.022": 0.0,
			"-0.021": 0.0,
			"-0.02": 0.0,
			"-0.019": 0.0,
			"-0.018": 0.0,
			"-0.017": 0.0,
			"-0.016": 0.0,
			"-0.015": 0.0,
			"-0.014": 0.0,
			"-0.013": 0.202453306751,
			"-0.012": 1.52842086136,
			"-0.011": 2.95436306257,
			"-0.01": 7.52054567424,
			"-0.009": 5.77616464994,
			"-0.008": 6.73758838829,
			"-0.007": 13.1001910257,
			"-0.006": 12.8913510727,
			"-0.005": 14.0607706517,
			"-0.004": 12.0425513115,
			"-0.003": 8.12509879809,
			"-0.002": 7.7768364846,
			"-0.001": 6.84808912759,
			"0.0": 6.63599773876,
			"0.001": 9.05530138763,
			"0.002": 7.56169730212,
			"0.003": 7.24252906004,
			"0.004": 5.25536928326,
			"0.005": 6.58837060851,
			"0.006": 5.76090124872,
			"0.007": 4.50380778362,
			"0.008": 5.29819106465,
			"0.009": 4.58016040669,
			"0.01": 5.03735148375,
			"0.011": 4.40454397026,
			"0.012": 5.47677290136,
			"0.013": 4.11090678339,
			"0.014": 2.47840102018,
			"0.015": 2.38945532314,
			"0.016": 1.48422418438,
			"0.017": 0.0985646155056,
			"0.018": 0.0,
			"0.019": 0.0,
			"0.02": 0.0,
			"0.021": 0.0,
			"0.022": 0.0,
			"0.023": 0.0,
			"0.024": 0.0,
			"0.025": 0.0
		}
	}
}
