{
	 "smiles": "[O-][N+](=O)C1=CC=C(C=C1)S(F)(F)(F)(F)F", 
	 "Tm": 311.15, 
	 "num_atms": 19, 
	 "gaussian": { 
		 "optdone": 1, 
		 "sigma_profile": "yes", 
		 "theory": "DFT", 
		 "functional": "B3LYP", 
		 "basiset": "6-31G**", 
		 "properties": { 
			 "R2extent": 4387.9583, 
			 "electric_dipole_moment_norm": 1.84095874478, 
			 "electric_quadrupole_moment_norm": 16.664303001, 
			 "total_energy": -1333.27317654, 
			 "HOMO_LUMO_gap": 0.14727, 
			 "cosmo_polarized_energy": -9.03, 
			 "cosmo_cavitation_energy": 28.97, 
			 "cosmo_dispersion_energy": -20.06, 
			 "cosmo_repulsion_energy": 1.46, 
			 "cosmo_total_nonelectrostatic_energy": 10.36, 
			 "SMD_solvation_energy": 9.05 
		},
		"coords": [
			{
				"x": -4.5748309324,
				"y": 1.7842925262,
				"z": 1.1671272223,
				"element": "O" 
			},
			{
				"x": -3.9037858443,
				"y": 1.6843560669,
				"z": 0.1426667034,
				"element": "N" 
			},
			{
				"x": -4.2103496264,
				"y": 2.1488565193,
				"z": -0.952891193,
				"element": "O" 
			},
			{
				"x": -2.6266963371,
				"y": 0.9472031326,
				"z": 0.2356892816,
				"element": "C" 
			},
			{
				"x": -2.2479161068,
				"y": 0.4149858489,
				"z": 1.4660475942,
				"element": "C" 
			},
			{
				"x": -1.0376897048,
				"y": -0.2649862782,
				"z": 1.5572062847,
				"element": "C" 
			},
			{
				"x": -0.253590204,
				"y": -0.4201655475,
				"z": 0.4095929052,
				"element": "C" 
			},
			{
				"x": -0.6471626297,
				"y": 0.1090914788,
				"z": -0.8235652139,
				"element": "C" 
			},
			{
				"x": -1.8458583658,
				"y": 0.8134080486,
				"z": -0.9082814122,
				"element": "C" 
			},
			{
				"x": 1.3223439651,
				"y": -1.3067548977,
				"z": 0.5098345094,
				"element": "S" 
			},
			{
				"x": 0.8551750902,
				"y": -2.7742402061,
				"z": 1.0029444922,
				"element": "F" 
			},
			{
				"x": 2.2482408185,
				"y": 0.2987693799,
				"z": -2.7275767894,
				"element": "F" 
			},
			{
				"x": 2.619760424,
				"y": 0.8797567761,
				"z": -1.5009934493,
				"element": "F" 
			},
			{
				"x": 1.0961719317,
				"y": -1.8716733639,
				"z": -1.0931474534,
				"element": "F" 
			},
			{
				"x": 1.4460876058,
				"y": -0.9055336209,
				"z": 2.1736188493,
				"element": "F" 
			},
			{
				"x": -2.8915681689,
				"y": 0.5443796262,
				"z": 2.3268301588,
				"element": "H" 
			},
			{
				"x": -0.6969297317,
				"y": -0.665232552,
				"z": 2.5020363454,
				"element": "H" 
			},
			{
				"x": -0.0314775001,
				"y": -0.0309635529,
				"z": -1.7005412753,
				"element": "H" 
			},
			{
				"x": -2.1832246833,
				"y": 1.2468506156,
				"z": -1.8410975602,
				"element": "H" 
			}
		],
		 "valence_orbital": [ 
			{
				"type": "occ",
				"energy": -0.32387,
				"method": "rhf"
			},
			{
				"type": "occ",
				"energy": -0.31999,
				"method": "rhf"
			},
			{
				"type": "occ",
				"energy": -0.3084,
				"method": "rhf"
			},
			{
				"type": "occ",
				"energy": -0.30537,
				"method": "rhf"
			},
			{
				"type": "occ",
				"energy": -0.30007,
				"method": "rhf"
			},
			{
				"type": "unocc",
				"energy": -0.1528,
				"method": "rhf"
			},
			{
				"type": "unocc",
				"energy": -0.11623,
				"method": "rhf"
			},
			{
				"type": "unocc",
				"energy": -0.06458,
				"method": "rhf"
			},
			{
				"type": "unocc",
				"energy": -0.04856,
				"method": "rhf"
			},
			{
				"type": "unocc",
				"energy": -0.01264,
				"method": "rhf"
			}
		],
		"cosmo_sigma_profile": { 
			"-0.025": 0.0,
			"-0.024": 0.0,
			"-0.023": 0.0,
			"-0.022": 0.0,
			"-0.021": 0.0,
			"-0.02": 0.0,
			"-0.019": 0.0,
			"-0.018": 0.0,
			"-0.017": 0.0,
			"-0.016": 0.0,
			"-0.015": 0.0,
			"-0.014": 0.0,
			"-0.013": 0.0,
			"-0.012": 0.0,
			"-0.011": 0.0,
			"-0.01": 0.00468449536215,
			"-0.009": 2.12895737514,
			"-0.008": 6.965647632,
			"-0.007": 8.47430027312,
			"-0.006": 8.05935706072,
			"-0.005": 11.3554471638,
			"-0.004": 12.3912307835,
			"-0.003": 17.6498103581,
			"-0.002": 23.0639723684,
			"-0.001": 25.3016165678,
			"0.0": 26.6649886932,
			"0.001": 14.2584513765,
			"0.002": 12.9668947022,
			"0.003": 8.03783510053,
			"0.004": 9.7888153255,
			"0.005": 9.70140748117,
			"0.006": 16.4020094568,
			"0.007": 13.1222083232,
			"0.008": 4.74295373989,
			"0.009": 3.27879955086,
			"0.01": 0.499600549128,
			"0.011": 0.0,
			"0.012": 0.0,
			"0.013": 0.0,
			"0.014": 0.0,
			"0.015": 0.0,
			"0.016": 0.0,
			"0.017": 0.0,
			"0.018": 0.0,
			"0.019": 0.0,
			"0.02": 0.0,
			"0.021": 0.0,
			"0.022": 0.0,
			"0.023": 0.0,
			"0.024": 0.0,
			"0.025": 0.0
		}
	}
}
