{
	 "smiles": "OC(=O)C(OC1CCOCC1)C1=CC=CC=C1", 
	 "Tm": 361.15, 
	 "num_atms": 33, 
	 "gaussian": { 
		 "optdone": 1, 
		 "sigma_profile": "yes", 
		 "theory": "DFT", 
		 "functional": "B3LYP", 
		 "basiset": "6-31G**", 
		 "properties": { 
			 "R2extent": 5136.4474, 
			 "electric_dipole_moment_norm": 5.71648033234, 
			 "electric_quadrupole_moment_norm": 19.4556678888, 
			 "total_energy": -805.908919279, 
			 "HOMO_LUMO_gap": 0.20912, 
			 "cosmo_polarized_energy": -16.09, 
			 "cosmo_cavitation_energy": 34.76, 
			 "cosmo_dispersion_energy": -24.5, 
			 "cosmo_repulsion_energy": 1.9, 
			 "cosmo_total_nonelectrostatic_energy": 12.16, 
			 "SMD_solvation_energy": 6.45 
		},
		"coords": [
			{
				"x": -2.4691015602,
				"y": -3.2149417302,
				"z": 0.1864404483,
				"element": "O" 
			},
			{
				"x": -1.2233629976,
				"y": -2.7013136231,
				"z": 0.125013155,
				"element": "C" 
			},
			{
				"x": -0.2527149334,
				"y": -3.4135403229,
				"z": 0.1702750938,
				"element": "O" 
			},
			{
				"x": -1.1157772468,
				"y": -1.1602441718,
				"z": -0.088729226,
				"element": "C" 
			},
			{
				"x": 0.0253351102,
				"y": -0.6984223403,
				"z": 0.5916611645,
				"element": "O" 
			},
			{
				"x": 1.0271303472,
				"y": -0.0435718261,
				"z": -0.2111351126,
				"element": "C" 
			},
			{
				"x": 1.9096787458,
				"y": -1.0658521439,
				"z": -0.9450753607,
				"element": "C" 
			},
			{
				"x": 2.7842856384,
				"y": -1.8393763276,
				"z": 0.0463719985,
				"element": "C" 
			},
			{
				"x": 3.5699909645,
				"y": -0.9566603418,
				"z": 0.8455360101,
				"element": "O" 
			},
			{
				"x": 2.7537214313,
				"y": -0.0998007905,
				"z": 1.6310564987,
				"element": "C" 
			},
			{
				"x": 1.877204182,
				"y": 0.7953758796,
				"z": 0.7477802371,
				"element": "C" 
			},
			{
				"x": -2.3622286539,
				"y": -0.3918617422,
				"z": 0.333030492,
				"element": "C" 
			},
			{
				"x": -3.443136561,
				"y": -0.2543342306,
				"z": -0.5508681548,
				"element": "C" 
			},
			{
				"x": -4.6062466459,
				"y": 0.4110957167,
				"z": -0.1533438209,
				"element": "C" 
			},
			{
				"x": -4.6962040098,
				"y": 0.9501043905,
				"z": 1.1300759824,
				"element": "C" 
			},
			{
				"x": -3.6193744525,
				"y": 0.8234085458,
				"z": 2.0123576142,
				"element": "C" 
			},
			{
				"x": -2.4602538629,
				"y": 0.1560095022,
				"z": 1.6192393646,
				"element": "C" 
			},
			{
				"x": -3.1204128857,
				"y": -2.4941099597,
				"z": 0.2147679889,
				"element": "H" 
			},
			{
				"x": -0.9964789603,
				"y": -1.0477605577,
				"z": -1.1781901415,
				"element": "H" 
			},
			{
				"x": 0.5207900815,
				"y": 0.6149957078,
				"z": -0.9332661493,
				"element": "H" 
			},
			{
				"x": 2.5477029692,
				"y": -0.525336071,
				"z": -1.6555017841,
				"element": "H" 
			},
			{
				"x": 1.2939696399,
				"y": -1.7678079953,
				"z": -1.517967786,
				"element": "H" 
			},
			{
				"x": 2.1449770676,
				"y": -2.4698814502,
				"z": 0.678784785,
				"element": "H" 
			},
			{
				"x": 3.4922955554,
				"y": -2.4844798841,
				"z": -0.4815916504,
				"element": "H" 
			},
			{
				"x": 2.1186820152,
				"y": -0.6914037755,
				"z": 2.3091517006,
				"element": "H" 
			},
			{
				"x": 3.433883406,
				"y": 0.5035244055,
				"z": 2.2401283855,
				"element": "H" 
			},
			{
				"x": 2.5230296878,
				"y": 1.4524540883,
				"z": 0.1536787866,
				"element": "H" 
			},
			{
				"x": 1.2261549005,
				"y": 1.4270074855,
				"z": 1.3622767086,
				"element": "H" 
			},
			{
				"x": -3.369635846,
				"y": -0.6525784312,
				"z": -1.5610453118,
				"element": "H" 
			},
			{
				"x": -5.4322191564,
				"y": 0.5169343276,
				"z": -0.8505246472,
				"element": "H" 
			},
			{
				"x": -5.5968270442,
				"y": 1.4716478039,
				"z": 1.4401281595,
				"element": "H" 
			},
			{
				"x": -3.683684503,
				"y": 1.2466329037,
				"z": 3.0106541897,
				"element": "H" 
			},
			{
				"x": -1.6155724227,
				"y": 0.0640869585,
				"z": 2.2932303819,
				"element": "H" 
			}
		],
		 "valence_orbital": [ 
			{
				"type": "occ",
				"energy": -0.28753,
				"method": "rhf"
			},
			{
				"type": "occ",
				"energy": -0.27288,
				"method": "rhf"
			},
			{
				"type": "occ",
				"energy": -0.26502,
				"method": "rhf"
			},
			{
				"type": "occ",
				"energy": -0.25615,
				"method": "rhf"
			},
			{
				"type": "occ",
				"energy": -0.23622,
				"method": "rhf"
			},
			{
				"type": "unocc",
				"energy": -0.0271,
				"method": "rhf"
			},
			{
				"type": "unocc",
				"energy": -0.02607,
				"method": "rhf"
			},
			{
				"type": "unocc",
				"energy": 0.00432,
				"method": "rhf"
			},
			{
				"type": "unocc",
				"energy": 0.07702,
				"method": "rhf"
			},
			{
				"type": "unocc",
				"energy": 0.08316,
				"method": "rhf"
			}
		],
		"cosmo_sigma_profile": { 
			"-0.025": 0.0,
			"-0.024": 0.0,
			"-0.023": 0.0,
			"-0.022": 0.0,
			"-0.021": 0.0,
			"-0.02": 0.0,
			"-0.019": 0.0,
			"-0.018": 0.0,
			"-0.017": 0.0,
			"-0.016": 0.0,
			"-0.015": 0.0,
			"-0.014": 0.20561320231,
			"-0.013": 0.296894873806,
			"-0.012": 0.41044901815,
			"-0.011": 1.19950272443,
			"-0.01": 2.39230046898,
			"-0.009": 3.2337907901,
			"-0.008": 4.40177254514,
			"-0.007": 6.38200682365,
			"-0.006": 10.828721958,
			"-0.005": 15.4600470613,
			"-0.004": 27.8272916122,
			"-0.003": 27.9623411966,
			"-0.002": 28.5703573634,
			"-0.001": 22.8062909468,
			"0.0": 16.7291776911,
			"0.001": 12.7334573554,
			"0.002": 12.0231285161,
			"0.003": 13.8245264114,
			"0.004": 14.7277546286,
			"0.005": 10.570486872,
			"0.006": 5.18402701927,
			"0.007": 4.6458115199,
			"0.008": 6.17643260174,
			"0.009": 6.03467380438,
			"0.01": 6.65804162123,
			"0.011": 3.87639821899,
			"0.012": 3.89853632171,
			"0.013": 2.87825094329,
			"0.014": 1.53784562682,
			"0.015": 0.039577994415,
			"0.016": 0.0,
			"0.017": 0.0,
			"0.018": 0.0,
			"0.019": 0.0,
			"0.02": 0.0,
			"0.021": 0.0,
			"0.022": 0.0,
			"0.023": 0.0,
			"0.024": 0.0,
			"0.025": 0.0
		}
	}
}
