{
	 "smiles": "NC(=O)C1=CC(=CC=C1)C(N)=O", 
	 "Tm": 553.15, 
	 "num_atms": 20, 
	 "gaussian": { 
		 "optdone": 1, 
		 "sigma_profile": "yes", 
		 "theory": "DFT", 
		 "functional": "B3LYP", 
		 "basiset": "6-31G**", 
		 "properties": { 
			 "R2extent": 3192.6931, 
			 "electric_dipole_moment_norm": 4.11481934111, 
			 "electric_quadrupole_moment_norm": 20.7579004114, 
			 "total_energy": -569.661872701, 
			 "HOMO_LUMO_gap": 0.1998, 
			 "cosmo_polarized_energy": -20.93, 
			 "cosmo_cavitation_energy": 24.81, 
			 "cosmo_dispersion_energy": -18.39, 
			 "cosmo_repulsion_energy": 1.48, 
			 "cosmo_total_nonelectrostatic_energy": 7.89, 
			 "SMD_solvation_energy": 5.83 
		},
		"coords": [
			{
				"x": 0.7758793763,
				"y": 3.7365962858,
				"z": -0.4082047951,
				"element": "N" 
			},
			{
				"x": -0.1709167937,
				"y": 2.8939902494,
				"z": 0.1200018485,
				"element": "C" 
			},
			{
				"x": -1.3658121726,
				"y": 3.0433150787,
				"z": -0.1079466596,
				"element": "O" 
			},
			{
				"x": 0.3322822752,
				"y": 1.7905470034,
				"z": 1.0095799321,
				"element": "C" 
			},
			{
				"x": -0.5668545718,
				"y": 0.7598545263,
				"z": 1.307107345,
				"element": "C" 
			},
			{
				"x": -0.186075226,
				"y": -0.3111053916,
				"z": 2.1191897296,
				"element": "C" 
			},
			{
				"x": 1.1060455258,
				"y": -0.3313415975,
				"z": 2.6632027652,
				"element": "C" 
			},
			{
				"x": 2.0016440715,
				"y": 0.6982491906,
				"z": 2.3871808157,
				"element": "C" 
			},
			{
				"x": 1.619648541,
				"y": 1.757274404,
				"z": 1.5616271089,
				"element": "C" 
			},
			{
				"x": -1.0960807546,
				"y": -1.4575825842,
				"z": 2.4753545217,
				"element": "C" 
			},
			{
				"x": -2.2632874954,
				"y": -1.5582534144,
				"z": 1.7675743813,
				"element": "N" 
			},
			{
				"x": -0.8089136568,
				"y": -2.2499441726,
				"z": 3.3654595313,
				"element": "O" 
			},
			{
				"x": 1.7368379276,
				"y": 3.4455809296,
				"z": -0.4928319329,
				"element": "H" 
			},
			{
				"x": 0.4346735116,
				"y": 4.3967085888,
				"z": -1.091955554,
				"element": "H" 
			},
			{
				"x": -1.5687416376,
				"y": 0.8556628802,
				"z": 0.9016302739,
				"element": "H" 
			},
			{
				"x": 1.3756748737,
				"y": -1.1616810198,
				"z": 3.3067989878,
				"element": "H" 
			},
			{
				"x": 2.9965503466,
				"y": 0.683580456,
				"z": 2.8219803157,
				"element": "H" 
			},
			{
				"x": 2.3172327561,
				"y": 2.5707208657,
				"z": 1.384516723,
				"element": "H" 
			},
			{
				"x": -2.4061992549,
				"y": -1.0705460065,
				"z": 0.8986038408,
				"element": "H" 
			},
			{
				"x": -2.8269876421,
				"y": -2.3747262718,
				"z": 1.9504308212,
				"element": "H" 
			}
		],
		 "valence_orbital": [ 
			{
				"type": "occ",
				"energy": -0.27246,
				"method": "rhf"
			},
			{
				"type": "occ",
				"energy": -0.26772,
				"method": "rhf"
			},
			{
				"type": "occ",
				"energy": -0.26473,
				"method": "rhf"
			},
			{
				"type": "occ",
				"energy": -0.25817,
				"method": "rhf"
			},
			{
				"type": "occ",
				"energy": -0.25086,
				"method": "rhf"
			},
			{
				"type": "unocc",
				"energy": -0.05106,
				"method": "rhf"
			},
			{
				"type": "unocc",
				"energy": -0.03551,
				"method": "rhf"
			},
			{
				"type": "unocc",
				"energy": 0.03338,
				"method": "rhf"
			},
			{
				"type": "unocc",
				"energy": 0.06554,
				"method": "rhf"
			},
			{
				"type": "unocc",
				"energy": 0.07327,
				"method": "rhf"
			}
		],
		"cosmo_sigma_profile": { 
			"-0.025": 0.0,
			"-0.024": 0.0,
			"-0.023": 0.0,
			"-0.022": 0.0,
			"-0.021": 0.0,
			"-0.02": 0.0,
			"-0.019": 0.0,
			"-0.018": 0.0,
			"-0.017": 0.0,
			"-0.016": 0.0,
			"-0.015": 0.893353985673,
			"-0.014": 3.92917357481,
			"-0.013": 4.84582084759,
			"-0.012": 4.39205995901,
			"-0.011": 5.56573967865,
			"-0.01": 5.06368648403,
			"-0.009": 4.70559802703,
			"-0.008": 3.57098036009,
			"-0.007": 4.60446720354,
			"-0.006": 9.43846660074,
			"-0.005": 8.15813649731,
			"-0.004": 7.83530552946,
			"-0.003": 7.62494751679,
			"-0.002": 7.85453320073,
			"-0.001": 10.8714878272,
			"0.0": 13.739434849,
			"0.001": 12.4844771856,
			"0.002": 15.875006048,
			"0.003": 14.6436014267,
			"0.004": 6.29623664369,
			"0.005": 4.72549908945,
			"0.006": 3.9116091885,
			"0.007": 4.10343231084,
			"0.008": 4.08360202408,
			"0.009": 2.04880968927,
			"0.01": 2.27357089701,
			"0.011": 3.4202916956,
			"0.012": 4.76099454831,
			"0.013": 9.01217198774,
			"0.014": 6.52413385472,
			"0.015": 0.459328512767,
			"0.016": 0.0,
			"0.017": 0.0,
			"0.018": 0.0,
			"0.019": 0.0,
			"0.02": 0.0,
			"0.021": 0.0,
			"0.022": 0.0,
			"0.023": 0.0,
			"0.024": 0.0,
			"0.025": 0.0
		}
	}
}
