{
	 "smiles": "OC(=O)CCNC(=O)C1CC1", 
	 "Tm": 381.15, 
	 "num_atms": 22, 
	 "gaussian": { 
		 "optdone": 1, 
		 "sigma_profile": "yes", 
		 "theory": "DFT", 
		 "functional": "B3LYP", 
		 "basiset": "6-31G**", 
		 "properties": { 
			 "R2extent": 2495.4234, 
			 "electric_dipole_moment_norm": 4.51967911914, 
			 "electric_quadrupole_moment_norm": 9.5551752773, 
			 "total_energy": -553.801539525, 
			 "HOMO_LUMO_gap": 0.23582, 
			 "cosmo_polarized_energy": -16.6, 
			 "cosmo_cavitation_energy": 25.99, 
			 "cosmo_dispersion_energy": -18.52, 
			 "cosmo_repulsion_energy": 1.53, 
			 "cosmo_total_nonelectrostatic_energy": 9.0, 
			 "SMD_solvation_energy": 5.32 
		},
		"coords": [
			{
				"x": 0.9486396212,
				"y": -1.1635653753,
				"z": -3.8851042913,
				"element": "O" 
			},
			{
				"x": -0.1227769853,
				"y": -1.0249294416,
				"z": -3.0743261511,
				"element": "C" 
			},
			{
				"x": -1.0231421327,
				"y": -1.8374536273,
				"z": -3.0324860814,
				"element": "O" 
			},
			{
				"x": -0.0516143456,
				"y": 0.2489241017,
				"z": -2.2588632624,
				"element": "C" 
			},
			{
				"x": -1.2392500912,
				"y": 0.3792965556,
				"z": -1.2950421775,
				"element": "C" 
			},
			{
				"x": -1.2875090528,
				"y": -0.6627801184,
				"z": -0.2848849688,
				"element": "N" 
			},
			{
				"x": -0.7064486073,
				"y": -0.701787504,
				"z": 0.9587244839,
				"element": "C" 
			},
			{
				"x": -0.7200181718,
				"y": -1.7385748479,
				"z": 1.618813003,
				"element": "O" 
			},
			{
				"x": -0.078015009,
				"y": 0.5484978423,
				"z": 1.4980368297,
				"element": "C" 
			},
			{
				"x": 1.1348679768,
				"y": 0.354999398,
				"z": 2.3956698689,
				"element": "C" 
			},
			{
				"x": -0.1705900119,
				"y": 0.7526285461,
				"z": 3.0013120549,
				"element": "C" 
			},
			{
				"x": 0.8234134617,
				"y": -1.9995052077,
				"z": -4.3658128304,
				"element": "H" 
			},
			{
				"x": -0.0194893678,
				"y": 1.0953792342,
				"z": -2.9568404932,
				"element": "H" 
			},
			{
				"x": 0.9007015814,
				"y": 0.2604821616,
				"z": -1.7165923891,
				"element": "H" 
			},
			{
				"x": -1.2143973639,
				"y": 1.3597363597,
				"z": -0.815874539,
				"element": "H" 
			},
			{
				"x": -2.1703217951,
				"y": 0.3320702992,
				"z": -1.868035952,
				"element": "H" 
			},
			{
				"x": -1.6072671393,
				"y": -1.5691581002,
				"z": -0.6039757423,
				"element": "H" 
			},
			{
				"x": -0.089465437,
				"y": 1.4423265006,
				"z": 0.8847100121,
				"element": "H" 
			},
			{
				"x": 1.4538313332,
				"y": -0.6721286106,
				"z": 2.5363475952,
				"element": "H" 
			},
			{
				"x": 1.928990527,
				"y": 1.0918831676,
				"z": 2.325326589,
				"element": "H" 
			},
			{
				"x": -0.2977549415,
				"y": 1.7701441592,
				"z": 3.3574812251,
				"element": "H" 
			},
			{
				"x": -0.7182840489,
				"y": -0.0103854928,
				"z": 3.5436172168,
				"element": "H" 
			}
		],
		 "valence_orbital": [ 
			{
				"type": "occ",
				"energy": -0.30316,
				"method": "rhf"
			},
			{
				"type": "occ",
				"energy": -0.29051,
				"method": "rhf"
			},
			{
				"type": "occ",
				"energy": -0.28656,
				"method": "rhf"
			},
			{
				"type": "occ",
				"energy": -0.24534,
				"method": "rhf"
			},
			{
				"type": "occ",
				"energy": -0.2404,
				"method": "rhf"
			},
			{
				"type": "unocc",
				"energy": -0.00458,
				"method": "rhf"
			},
			{
				"type": "unocc",
				"energy": 0.02971,
				"method": "rhf"
			},
			{
				"type": "unocc",
				"energy": 0.06935,
				"method": "rhf"
			},
			{
				"type": "unocc",
				"energy": 0.07834,
				"method": "rhf"
			},
			{
				"type": "unocc",
				"energy": 0.1003,
				"method": "rhf"
			}
		],
		"cosmo_sigma_profile": { 
			"-0.025": 0.0,
			"-0.024": 0.0,
			"-0.023": 0.0,
			"-0.022": 0.0,
			"-0.021": 0.0,
			"-0.02": 0.0,
			"-0.019": 0.0260611546441,
			"-0.018": 0.738871859068,
			"-0.017": 1.0979015329,
			"-0.016": 0.613677308481,
			"-0.015": 0.702205324823,
			"-0.014": 0.978607481616,
			"-0.013": 0.709379913253,
			"-0.012": 0.575026887538,
			"-0.011": 0.99075500106,
			"-0.01": 1.08240926302,
			"-0.009": 1.33631281189,
			"-0.008": 2.30700926137,
			"-0.007": 6.19840314762,
			"-0.006": 11.1720251043,
			"-0.005": 18.7293724717,
			"-0.004": 19.0242615283,
			"-0.003": 17.3150256106,
			"-0.002": 13.7852061322,
			"-0.001": 12.5463190322,
			"0.0": 11.9858843364,
			"0.001": 11.7626778963,
			"0.002": 11.538564962,
			"0.003": 8.70183687719,
			"0.004": 6.70089597103,
			"0.005": 5.68034266842,
			"0.006": 3.84932155579,
			"0.007": 4.89942821733,
			"0.008": 3.3732849608,
			"0.009": 4.35526927613,
			"0.01": 3.41219408391,
			"0.011": 4.64982842535,
			"0.012": 4.03484607743,
			"0.013": 1.3854217572,
			"0.014": 4.8745781117,
			"0.015": 2.94514847188,
			"0.016": 0.0446731714333,
			"0.017": 0.0,
			"0.018": 0.0,
			"0.019": 0.0,
			"0.02": 0.0,
			"0.021": 0.0,
			"0.022": 0.0,
			"0.023": 0.0,
			"0.024": 0.0,
			"0.025": 0.0
		}
	}
}
