{
	 "smiles": "OC1=CC=CC=C1", 
	 "Tm": 314.65, 
	 "num_atms": 13, 
	 "gaussian": { 
		 "optdone": 1, 
		 "sigma_profile": "yes", 
		 "theory": "DFT", 
		 "functional": "B3LYP", 
		 "basiset": "6-31G**", 
		 "properties": { 
			 "R2extent": 1187.764, 
			 "electric_dipole_moment_norm": 1.33501304113, 
			 "electric_quadrupole_moment_norm": 7.58116794696, 
			 "total_energy": -307.47244171, 
			 "HOMO_LUMO_gap": 0.21968, 
			 "cosmo_polarized_energy": -7.57, 
			 "cosmo_cavitation_energy": 16.66, 
			 "cosmo_dispersion_energy": -12.72, 
			 "cosmo_repulsion_energy": 1.07, 
			 "cosmo_total_nonelectrostatic_energy": 5.01, 
			 "SMD_solvation_energy": 3.3 
		},
		"coords": [
			{
				"x": -0.9931577643,
				"y": 0.0651388067,
				"z": -2.5002408399,
				"element": "O" 
			},
			{
				"x": -1.3972506998,
				"y": -0.0408307505,
				"z": -1.1975460152,
				"element": "C" 
			},
			{
				"x": -1.6034043,
				"y": 1.0751323986,
				"z": -0.3786722944,
				"element": "C" 
			},
			{
				"x": -2.0161723771,
				"y": 0.898430952,
				"z": 0.9428353562,
				"element": "C" 
			},
			{
				"x": -2.2252432166,
				"y": -0.3827326359,
				"z": 1.4550314629,
				"element": "C" 
			},
			{
				"x": -2.0167426113,
				"y": -1.4913500702,
				"z": 0.6295088423,
				"element": "C" 
			},
			{
				"x": -1.6047102309,
				"y": -1.3288143068,
				"z": -0.6914838008,
				"element": "C" 
			},
			{
				"x": -0.8874850896,
				"y": 0.9991711633,
				"z": -2.7212468214,
				"element": "H" 
			},
			{
				"x": -1.4416515258,
				"y": 2.0764878541,
				"z": -0.7736040913,
				"element": "H" 
			},
			{
				"x": -2.1739007373,
				"y": 1.7699963683,
				"z": 1.5717487995,
				"element": "H" 
			},
			{
				"x": -2.5462232262,
				"y": -0.5162777004,
				"z": 2.4832994857,
				"element": "H" 
			},
			{
				"x": -2.1759414039,
				"y": -2.4940758033,
				"z": 1.0160220023,
				"element": "H" 
			},
			{
				"x": -1.4394168173,
				"y": -2.1809762761,
				"z": -1.3424520859,
				"element": "H" 
			}
		],
		 "valence_orbital": [ 
			{
				"type": "occ",
				"energy": -0.35733,
				"method": "rhf"
			},
			{
				"type": "occ",
				"energy": -0.33599,
				"method": "rhf"
			},
			{
				"type": "occ",
				"energy": -0.33084,
				"method": "rhf"
			},
			{
				"type": "occ",
				"energy": -0.24915,
				"method": "rhf"
			},
			{
				"type": "occ",
				"energy": -0.21913,
				"method": "rhf"
			},
			{
				"type": "unocc",
				"energy": 0.00055,
				"method": "rhf"
			},
			{
				"type": "unocc",
				"energy": 0.01642,
				"method": "rhf"
			},
			{
				"type": "unocc",
				"energy": 0.07221,
				"method": "rhf"
			},
			{
				"type": "unocc",
				"energy": 0.09443,
				"method": "rhf"
			},
			{
				"type": "unocc",
				"energy": 0.14548,
				"method": "rhf"
			}
		],
		"cosmo_sigma_profile": { 
			"-0.025": 0.0,
			"-0.024": 0.0,
			"-0.023": 0.0,
			"-0.022": 0.0,
			"-0.021": 0.0,
			"-0.02": 0.0,
			"-0.019": 0.0,
			"-0.018": 0.238559604433,
			"-0.017": 0.907097531762,
			"-0.016": 1.21161304769,
			"-0.015": 1.07032389505,
			"-0.014": 1.1634519353,
			"-0.013": 0.867148176296,
			"-0.012": 0.92617003188,
			"-0.011": 0.607582799859,
			"-0.01": 1.17250631358,
			"-0.009": 1.22969577834,
			"-0.008": 0.980844789734,
			"-0.007": 1.44535510227,
			"-0.006": 4.28969168294,
			"-0.005": 10.3464040799,
			"-0.004": 8.94679475213,
			"-0.003": 10.9973608685,
			"-0.002": 7.05941485383,
			"-0.001": 8.12356418581,
			"0.0": 5.74874636885,
			"0.001": 6.68639149707,
			"0.002": 6.6448287618,
			"0.003": 8.46957231088,
			"0.004": 11.7999967957,
			"0.005": 9.92506814898,
			"0.006": 10.4591255052,
			"0.007": 3.7749169939,
			"0.008": 2.0432065647,
			"0.009": 1.06357602785,
			"0.01": 1.75768753891,
			"0.011": 1.87624804749,
			"0.012": 1.0479029673,
			"0.013": 0.0,
			"0.014": 0.0,
			"0.015": 0.0,
			"0.016": 0.0,
			"0.017": 0.0,
			"0.018": 0.0,
			"0.019": 0.0,
			"0.02": 0.0,
			"0.021": 0.0,
			"0.022": 0.0,
			"0.023": 0.0,
			"0.024": 0.0,
			"0.025": 0.0
		}
	}
}
