{
	 "smiles": "CCCCC(CC)C=O", 
	 "Tm": 197.15, 
	 "num_atms": 25, 
	 "gaussian": { 
		 "optdone": 1, 
		 "sigma_profile": "yes", 
		 "theory": "DFT", 
		 "functional": "B3LYP", 
		 "basiset": "6-31G**", 
		 "properties": { 
			 "R2extent": 1586.8653, 
			 "electric_dipole_moment_norm": 2.53236759575, 
			 "electric_quadrupole_moment_norm": 6.1938176967, 
			 "total_energy": -389.723089802, 
			 "HOMO_LUMO_gap": 0.22764, 
			 "cosmo_polarized_energy": -5.97, 
			 "cosmo_cavitation_energy": 25.92, 
			 "cosmo_dispersion_energy": -18.11, 
			 "cosmo_repulsion_energy": 1.5, 
			 "cosmo_total_nonelectrostatic_energy": 9.31, 
			 "SMD_solvation_energy": 4.95 
		},
		"coords": [
			{
				"x": 2.1512784187,
				"y": -0.2479996989,
				"z": -2.1715936013,
				"element": "C" 
			},
			{
				"x": 0.7807220805,
				"y": -0.7332916623,
				"z": -1.6837357779,
				"element": "C" 
			},
			{
				"x": -0.2304279256,
				"y": 0.3940478194,
				"z": -1.4066873844,
				"element": "C" 
			},
			{
				"x": 0.0987217747,
				"y": 1.3502418739,
				"z": -0.2448280349,
				"element": "C" 
			},
			{
				"x": 0.0723953795,
				"y": 0.7492298295,
				"z": 1.1870226544,
				"element": "C" 
			},
			{
				"x": -1.2095087954,
				"y": -0.0014924203,
				"z": 1.5773480592,
				"element": "C" 
			},
			{
				"x": -2.4733549156,
				"y": 0.8639011588,
				"z": 1.5479907806,
				"element": "C" 
			},
			{
				"x": 1.3182040615,
				"y": -0.0705003787,
				"z": 1.4734812918,
				"element": "C" 
			},
			{
				"x": 1.3383515729,
				"y": -1.1527438538,
				"z": 2.0190328049,
				"element": "O" 
			},
			{
				"x": 2.0542771681,
				"y": 0.3537461891,
				"z": -3.082910159,
				"element": "H" 
			},
			{
				"x": 2.8084744398,
				"y": -1.0932999603,
				"z": -2.3993910353,
				"element": "H" 
			},
			{
				"x": 2.6630972842,
				"y": 0.3680565854,
				"z": -1.4245576421,
				"element": "H" 
			},
			{
				"x": 0.3497296588,
				"y": -1.3936545101,
				"z": -2.4469496625,
				"element": "H" 
			},
			{
				"x": 0.9061656182,
				"y": -1.358696409,
				"z": -0.7915134176,
				"element": "H" 
			},
			{
				"x": -0.3308117632,
				"y": 1.0009050759,
				"z": -2.3170491083,
				"element": "H" 
			},
			{
				"x": -1.2189753549,
				"y": -0.0497520027,
				"z": -1.2372198356,
				"element": "H" 
			},
			{
				"x": -0.6175149315,
				"y": 2.1788737054,
				"z": -0.2723361388,
				"element": "H" 
			},
			{
				"x": 1.0818611349,
				"y": 1.8114660077,
				"z": -0.4088250505,
				"element": "H" 
			},
			{
				"x": 0.1838287452,
				"y": 1.6162831928,
				"z": 1.8641070772,
				"element": "H" 
			},
			{
				"x": -1.3354251061,
				"y": -0.8725232901,
				"z": 0.9239119432,
				"element": "H" 
			},
			{
				"x": -1.0653475496,
				"y": -0.413518196,
				"z": 2.5814561654,
				"element": "H" 
			},
			{
				"x": -2.7029232666,
				"y": 1.2272630105,
				"z": 0.5407368307,
				"element": "H" 
			},
			{
				"x": -2.3715904255,
				"y": 1.7397769591,
				"z": 2.1997152188,
				"element": "H" 
			},
			{
				"x": -3.3411819706,
				"y": 0.2942347766,
				"z": 1.8952681339,
				"element": "H" 
			},
			{
				"x": 2.2700546674,
				"y": 0.4224461981,
				"z": 1.1623258883,
				"element": "H" 
			}
		],
		 "valence_orbital": [ 
			{
				"type": "occ",
				"energy": -0.33752,
				"method": "rhf"
			},
			{
				"type": "occ",
				"energy": -0.32548,
				"method": "rhf"
			},
			{
				"type": "occ",
				"energy": -0.31513,
				"method": "rhf"
			},
			{
				"type": "occ",
				"energy": -0.31178,
				"method": "rhf"
			},
			{
				"type": "occ",
				"energy": -0.24767,
				"method": "rhf"
			},
			{
				"type": "unocc",
				"energy": -0.02003,
				"method": "rhf"
			},
			{
				"type": "unocc",
				"energy": 0.07411,
				"method": "rhf"
			},
			{
				"type": "unocc",
				"energy": 0.09189,
				"method": "rhf"
			},
			{
				"type": "unocc",
				"energy": 0.11022,
				"method": "rhf"
			},
			{
				"type": "unocc",
				"energy": 0.12466,
				"method": "rhf"
			}
		],
		"cosmo_sigma_profile": { 
			"-0.025": 0.0,
			"-0.024": 0.0,
			"-0.023": 0.0,
			"-0.022": 0.0,
			"-0.021": 0.0,
			"-0.02": 0.0,
			"-0.019": 0.0,
			"-0.018": 0.0,
			"-0.017": 0.0,
			"-0.016": 0.0,
			"-0.015": 0.0,
			"-0.014": 0.0,
			"-0.013": 0.0,
			"-0.012": 0.0,
			"-0.011": 0.0,
			"-0.01": 0.0,
			"-0.009": 0.0,
			"-0.008": 0.0,
			"-0.007": 0.0,
			"-0.006": 3.02238488209,
			"-0.005": 9.43997969144,
			"-0.004": 7.22124237996,
			"-0.003": 16.5861739509,
			"-0.002": 33.9505805708,
			"-0.001": 33.9823866352,
			"0.0": 34.7537591579,
			"0.001": 27.3123326034,
			"0.002": 9.82790290669,
			"0.003": 2.30855846132,
			"0.004": 1.74994740193,
			"0.005": 1.32649374964,
			"0.006": 1.84182684174,
			"0.007": 1.90075701278,
			"0.008": 1.35141104231,
			"0.009": 1.84450967119,
			"0.01": 2.49448017273,
			"0.011": 3.88742222081,
			"0.012": 3.76703209072,
			"0.013": 1.05453708237,
			"0.014": 0.0,
			"0.015": 0.0,
			"0.016": 0.0,
			"0.017": 0.0,
			"0.018": 0.0,
			"0.019": 0.0,
			"0.02": 0.0,
			"0.021": 0.0,
			"0.022": 0.0,
			"0.023": 0.0,
			"0.024": 0.0,
			"0.025": 0.0
		}
	}
}
