{
	 "smiles": "FC1=C(Cl)C=CC(=C1)C#N", 
	 "Tm": 353.15, 
	 "num_atms": 13, 
	 "gaussian": { 
		 "optdone": 1, 
		 "sigma_profile": "yes", 
		 "theory": "DFT", 
		 "functional": "B3LYP", 
		 "basiset": "6-31G**", 
		 "properties": { 
			 "R2extent": 2265.869, 
			 "electric_dipole_moment_norm": 2.54962492143, 
			 "electric_quadrupole_moment_norm": 15.1735996705, 
			 "total_energy": -883.307562503, 
			 "HOMO_LUMO_gap": 0.19851, 
			 "cosmo_polarized_energy": -8.1, 
			 "cosmo_cavitation_energy": 21.26, 
			 "cosmo_dispersion_energy": -15.16, 
			 "cosmo_repulsion_energy": 1.21, 
			 "cosmo_total_nonelectrostatic_energy": 7.31, 
			 "SMD_solvation_energy": 5.37 
		},
		"coords": [
			{
				"x": 0.3439692249,
				"y": -1.334642229,
				"z": -2.7352954803,
				"element": "F" 
			},
			{
				"x": -0.2456906732,
				"y": -1.0359275639,
				"z": -1.5718274328,
				"element": "C" 
			},
			{
				"x": -0.8483815589,
				"y": 0.2147350812,
				"z": -1.4016483537,
				"element": "C" 
			},
			{
				"x": -0.823642282,
				"y": 1.3659525182,
				"z": -2.7047722137,
				"element": "Cl" 
			},
			{
				"x": -1.4622910803,
				"y": 0.521477402,
				"z": -0.1857991969,
				"element": "C" 
			},
			{
				"x": -1.4732838577,
				"y": -0.41090868,
				"z": 0.8468732396,
				"element": "C" 
			},
			{
				"x": -0.8652289322,
				"y": -1.6644738032,
				"z": 0.6662587346,
				"element": "C" 
			},
			{
				"x": -0.246708967,
				"y": -1.9779021748,
				"z": -0.5539838613,
				"element": "C" 
			},
			{
				"x": -0.8743084924,
				"y": -2.6281920002,
				"z": 1.7277520008,
				"element": "C" 
			},
			{
				"x": -0.8844020356,
				"y": -3.4064652266,
				"z": 2.5918950779,
				"element": "N" 
			},
			{
				"x": -1.9280729038,
				"y": 1.4921555987,
				"z": -0.0586731132,
				"element": "H" 
			},
			{
				"x": -1.9496230814,
				"y": -0.1738161132,
				"z": 1.7912567676,
				"element": "H" 
			},
			{
				"x": 0.2290646395,
				"y": -2.9375928091,
				"z": -0.7181361686,
				"element": "H" 
			}
		],
		 "valence_orbital": [ 
			{
				"type": "occ",
				"energy": -0.34463,
				"method": "rhf"
			},
			{
				"type": "occ",
				"energy": -0.33981,
				"method": "rhf"
			},
			{
				"type": "occ",
				"energy": -0.33746,
				"method": "rhf"
			},
			{
				"type": "occ",
				"energy": -0.28951,
				"method": "rhf"
			},
			{
				"type": "occ",
				"energy": -0.26943,
				"method": "rhf"
			},
			{
				"type": "unocc",
				"energy": -0.07092,
				"method": "rhf"
			},
			{
				"type": "unocc",
				"energy": -0.03916,
				"method": "rhf"
			},
			{
				"type": "unocc",
				"energy": 0.0024,
				"method": "rhf"
			},
			{
				"type": "unocc",
				"energy": 0.02322,
				"method": "rhf"
			},
			{
				"type": "unocc",
				"energy": 0.06241,
				"method": "rhf"
			}
		],
		"cosmo_sigma_profile": { 
			"-0.025": 0.0,
			"-0.024": 0.0,
			"-0.023": 0.0,
			"-0.022": 0.0,
			"-0.021": 0.0,
			"-0.02": 0.0,
			"-0.019": 0.0,
			"-0.018": 0.0,
			"-0.017": 0.0,
			"-0.016": 0.0,
			"-0.015": 0.0,
			"-0.014": 0.0,
			"-0.013": 0.0,
			"-0.012": 0.0,
			"-0.011": 0.0150154828416,
			"-0.01": 1.20620143215,
			"-0.009": 5.04318978369,
			"-0.008": 6.33474525027,
			"-0.007": 6.10070344179,
			"-0.006": 5.66184287795,
			"-0.005": 5.47225744249,
			"-0.004": 5.87536339363,
			"-0.003": 10.8857449966,
			"-0.002": 19.942640054,
			"-0.001": 19.4491758482,
			"0.0": 16.3443241051,
			"0.001": 10.6289865468,
			"0.002": 11.1489838968,
			"0.003": 19.683082256,
			"0.004": 8.03519426069,
			"0.005": 3.4584186374,
			"0.006": 1.96423013371,
			"0.007": 3.16071759512,
			"0.008": 3.32750422427,
			"0.009": 3.26580190125,
			"0.01": 2.91917452358,
			"0.011": 2.76407354824,
			"0.012": 2.08454265458,
			"0.013": 0.7217553498,
			"0.014": 0.0,
			"0.015": 0.0,
			"0.016": 0.0,
			"0.017": 0.0,
			"0.018": 0.0,
			"0.019": 0.0,
			"0.02": 0.0,
			"0.021": 0.0,
			"0.022": 0.0,
			"0.023": 0.0,
			"0.024": 0.0,
			"0.025": 0.0
		}
	}
}
