{
	 "smiles": "CC1=CC=C(O1)C1CS(=O)(=O)CCN1", 
	 "Tm": 385.15, 
	 "num_atms": 27, 
	 "gaussian": { 
		 "optdone": 1, 
		 "sigma_profile": "yes", 
		 "theory": "DFT", 
		 "functional": "B3LYP", 
		 "basiset": "6-31G**", 
		 "properties": { 
			 "R2extent": 4593.5969, 
			 "electric_dipole_moment_norm": 5.50349193149, 
			 "electric_quadrupole_moment_norm": 16.9090612578, 
			 "total_energy": -1029.30910048, 
			 "HOMO_LUMO_gap": 0.22595, 
			 "cosmo_polarized_energy": -18.25, 
			 "cosmo_cavitation_energy": 30.94, 
			 "cosmo_dispersion_energy": -23.04, 
			 "cosmo_repulsion_energy": 1.77, 
			 "cosmo_total_nonelectrostatic_energy": 9.67, 
			 "SMD_solvation_energy": 2.38 
		},
		"coords": [
			{
				"x": 0.9879717363,
				"y": -3.9261593477,
				"z": 1.4073769729,
				"element": "C" 
			},
			{
				"x": 0.1557686278,
				"y": -2.921716366,
				"z": 0.6907033523,
				"element": "C" 
			},
			{
				"x": -0.5563571342,
				"y": -2.943366547,
				"z": -0.4732126034,
				"element": "C" 
			},
			{
				"x": -1.1407030595,
				"y": -1.6430711442,
				"z": -0.6217349996,
				"element": "C" 
			},
			{
				"x": -0.7442031691,
				"y": -0.9140978881,
				"z": 0.462270708,
				"element": "C" 
			},
			{
				"x": 0.0463809036,
				"y": -1.6872369688,
				"z": 1.2707066412,
				"element": "O" 
			},
			{
				"x": -1.025738099,
				"y": 0.476218244,
				"z": 0.9388136484,
				"element": "C" 
			},
			{
				"x": -1.1044414869,
				"y": 1.4576102833,
				"z": -0.2482666914,
				"element": "C" 
			},
			{
				"x": -1.1656904712,
				"y": 3.1791527279,
				"z": 0.3663766782,
				"element": "S" 
			},
			{
				"x": -2.0535342862,
				"y": 3.9521567208,
				"z": -0.5184747306,
				"element": "O" 
			},
			{
				"x": 0.2122096131,
				"y": 3.625463556,
				"z": 0.6282478847,
				"element": "O" 
			},
			{
				"x": -2.013635021,
				"y": 2.9442325922,
				"z": 1.9684516866,
				"element": "C" 
			},
			{
				"x": -2.9687450945,
				"y": 1.7571952978,
				"z": 1.8817104833,
				"element": "C" 
			},
			{
				"x": -2.2299492308,
				"y": 0.4891985734,
				"z": 1.8049360446,
				"element": "N" 
			},
			{
				"x": 2.0226232899,
				"y": -3.5824585414,
				"z": 1.5188913274,
				"element": "H" 
			},
			{
				"x": 0.5980035282,
				"y": -4.1256741171,
				"z": 2.4119409626,
				"element": "H" 
			},
			{
				"x": 0.9971031307,
				"y": -4.8655553262,
				"z": 0.8501010229,
				"element": "H" 
			},
			{
				"x": -0.6490918325,
				"y": -3.7820207819,
				"z": -1.1483816006,
				"element": "H" 
			},
			{
				"x": -1.7649761939,
				"y": -1.3003099062,
				"z": -1.4350589003,
				"element": "H" 
			},
			{
				"x": -0.1640444552,
				"y": 0.7766635828,
				"z": 1.549810212,
				"element": "H" 
			},
			{
				"x": -0.2097867251,
				"y": 1.4130109483,
				"z": -0.8735554604,
				"element": "H" 
			},
			{
				"x": -1.9929330309,
				"y": 1.3009982477,
				"z": -0.8644300953,
				"element": "H" 
			},
			{
				"x": -2.542307496,
				"y": 3.8832943092,
				"z": 2.1475042884,
				"element": "H" 
			},
			{
				"x": -1.2464540208,
				"y": 2.7985048705,
				"z": 2.7321491531,
				"element": "H" 
			},
			{
				"x": -3.5912896415,
				"y": 1.7401982596,
				"z": 2.7837331702,
				"element": "H" 
			},
			{
				"x": -3.6517316531,
				"y": 1.9264082639,
				"z": 1.0316841126,
				"element": "H" 
			},
			{
				"x": -2.8554487282,
				"y": -0.2527395429,
				"z": 1.5069067323,
				"element": "H" 
			}
		],
		 "valence_orbital": [ 
			{
				"type": "occ",
				"energy": -0.29179,
				"method": "rhf"
			},
			{
				"type": "occ",
				"energy": -0.28689,
				"method": "rhf"
			},
			{
				"type": "occ",
				"energy": -0.27916,
				"method": "rhf"
			},
			{
				"type": "occ",
				"energy": -0.24077,
				"method": "rhf"
			},
			{
				"type": "occ",
				"energy": -0.22584,
				"method": "rhf"
			},
			{
				"type": "unocc",
				"energy": 0.00011,
				"method": "rhf"
			},
			{
				"type": "unocc",
				"energy": 0.05708,
				"method": "rhf"
			},
			{
				"type": "unocc",
				"energy": 0.05783,
				"method": "rhf"
			},
			{
				"type": "unocc",
				"energy": 0.06811,
				"method": "rhf"
			},
			{
				"type": "unocc",
				"energy": 0.0766,
				"method": "rhf"
			}
		],
		"cosmo_sigma_profile": { 
			"-0.025": 0.0,
			"-0.024": 0.0,
			"-0.023": 0.0,
			"-0.022": 0.0,
			"-0.021": 0.0,
			"-0.02": 0.0,
			"-0.019": 0.0,
			"-0.018": 0.0,
			"-0.017": 0.0,
			"-0.016": 0.0,
			"-0.015": 0.0,
			"-0.014": 0.0,
			"-0.013": 0.0,
			"-0.012": 0.0,
			"-0.011": 0.210503720884,
			"-0.01": 0.907431598492,
			"-0.009": 2.10545945366,
			"-0.008": 9.81972097489,
			"-0.007": 13.9462245357,
			"-0.006": 16.2629774287,
			"-0.005": 23.8172439893,
			"-0.004": 24.4321747,
			"-0.003": 17.3542010518,
			"-0.002": 15.8279087816,
			"-0.001": 14.9297696452,
			"0.0": 11.7156251169,
			"0.001": 8.20766749965,
			"0.002": 9.27888407871,
			"0.003": 9.2450982662,
			"0.004": 8.81782853636,
			"0.005": 7.17830051093,
			"0.006": 6.70175878748,
			"0.007": 5.01014071076,
			"0.008": 3.85678455193,
			"0.009": 3.82902841353,
			"0.01": 3.95398600483,
			"0.011": 9.87574571963,
			"0.012": 11.7452970336,
			"0.013": 2.74603188682,
			"0.014": 0.570272884673,
			"0.015": 0.499192466605,
			"0.016": 0.3724175827,
			"0.017": 0.210968746493,
			"0.018": 0.0,
			"0.019": 0.0,
			"0.02": 0.0,
			"0.021": 0.0,
			"0.022": 0.0,
			"0.023": 0.0,
			"0.024": 0.0,
			"0.025": 0.0
		}
	}
}
