{
	 "smiles": "CCC1=C(O)C(=O)C=CO1", 
	 "Tm": 435.15, 
	 "num_atms": 18, 
	 "gaussian": { 
		 "optdone": 1, 
		 "sigma_profile": "yes", 
		 "theory": "DFT", 
		 "functional": "B3LYP", 
		 "basiset": "6-31G**", 
		 "properties": { 
			 "R2extent": 2465.4607, 
			 "electric_dipole_moment_norm": 5.36077883148, 
			 "electric_quadrupole_moment_norm": 18.2652626546, 
			 "total_energy": -497.201321902, 
			 "HOMO_LUMO_gap": 0.19033, 
			 "cosmo_polarized_energy": -17.86, 
			 "cosmo_cavitation_energy": 22.09, 
			 "cosmo_dispersion_energy": -16.29, 
			 "cosmo_repulsion_energy": 1.34, 
			 "cosmo_total_nonelectrostatic_energy": 7.13, 
			 "SMD_solvation_energy": 5.77 
		},
		"coords": [
			{
				"x": -1.2314032907,
				"y": -0.9475139962,
				"z": -1.8964965363,
				"element": "C" 
			},
			{
				"x": 0.1497449452,
				"y": -0.9938737029,
				"z": -1.2173122856,
				"element": "C" 
			},
			{
				"x": 0.9419452465,
				"y": 0.2707995528,
				"z": -1.3852939466,
				"element": "C" 
			},
			{
				"x": 1.1498156121,
				"y": 1.2478131155,
				"z": -0.4616969291,
				"element": "C" 
			},
			{
				"x": 0.6647121176,
				"y": 1.2202536432,
				"z": 0.8078491249,
				"element": "O" 
			},
			{
				"x": 1.9530242867,
				"y": 2.4532668529,
				"z": -0.774956707,
				"element": "C" 
			},
			{
				"x": 2.1644902069,
				"y": 3.3409147331,
				"z": 0.0460059592,
				"element": "O" 
			},
			{
				"x": 2.4511418526,
				"y": 2.4656834005,
				"z": -2.1492109871,
				"element": "C" 
			},
			{
				"x": 2.1822767844,
				"y": 1.4561411212,
				"z": -2.9989954407,
				"element": "C" 
			},
			{
				"x": 1.4524586664,
				"y": 0.3727176065,
				"z": -2.658687826,
				"element": "O" 
			},
			{
				"x": -1.1251955145,
				"y": -0.7458092976,
				"z": -2.965939548,
				"element": "H" 
			},
			{
				"x": -1.8578783531,
				"y": -0.1605168378,
				"z": -1.4655835995,
				"element": "H" 
			},
			{
				"x": -1.7516920033,
				"y": -1.9030090372,
				"z": -1.7798865652,
				"element": "H" 
			},
			{
				"x": 0.0373424828,
				"y": -1.2251036347,
				"z": -0.150978545,
				"element": "H" 
			},
			{
				"x": 0.7381064765,
				"y": -1.8183586986,
				"z": -1.6374633953,
				"element": "H" 
			},
			{
				"x": 0.1228203276,
				"y": 0.4319352095,
				"z": 0.9388966729,
				"element": "H" 
			},
			{
				"x": 3.0450777876,
				"y": 3.3120268587,
				"z": -2.4735129789,
				"element": "H" 
			},
			{
				"x": 2.5166123686,
				"y": 1.397733111,
				"z": -4.0284364668,
				"element": "H" 
			}
		],
		 "valence_orbital": [ 
			{
				"type": "occ",
				"energy": -0.35586,
				"method": "rhf"
			},
			{
				"type": "occ",
				"energy": -0.35281,
				"method": "rhf"
			},
			{
				"type": "occ",
				"energy": -0.269,
				"method": "rhf"
			},
			{
				"type": "occ",
				"energy": -0.23324,
				"method": "rhf"
			},
			{
				"type": "occ",
				"energy": -0.22452,
				"method": "rhf"
			},
			{
				"type": "unocc",
				"energy": -0.03419,
				"method": "rhf"
			},
			{
				"type": "unocc",
				"energy": -0.00172,
				"method": "rhf"
			},
			{
				"type": "unocc",
				"energy": 0.04508,
				"method": "rhf"
			},
			{
				"type": "unocc",
				"energy": 0.09682,
				"method": "rhf"
			},
			{
				"type": "unocc",
				"energy": 0.10848,
				"method": "rhf"
			}
		],
		"cosmo_sigma_profile": { 
			"-0.025": 0.0,
			"-0.024": 0.0,
			"-0.023": 0.0,
			"-0.022": 0.0,
			"-0.021": 0.0,
			"-0.02": 0.0,
			"-0.019": 0.0,
			"-0.018": 0.298869606655,
			"-0.017": 0.905204899259,
			"-0.016": 0.969049253894,
			"-0.015": 0.99347897111,
			"-0.014": 0.868075698125,
			"-0.013": 0.988009480925,
			"-0.012": 1.23170904021,
			"-0.011": 1.3723078295,
			"-0.01": 2.23758903269,
			"-0.009": 3.54159970656,
			"-0.008": 3.32918369999,
			"-0.007": 4.77381516076,
			"-0.006": 6.60418092675,
			"-0.005": 5.59558009976,
			"-0.004": 11.3508506634,
			"-0.003": 13.6238969807,
			"-0.002": 18.2311105116,
			"-0.001": 19.4774941659,
			"0.0": 18.6784748656,
			"0.001": 11.7360872597,
			"0.002": 6.76037367671,
			"0.003": 3.72116132519,
			"0.004": 3.09226908468,
			"0.005": 3.78890767576,
			"0.006": 2.0672075185,
			"0.007": 2.10931034132,
			"0.008": 2.2143128412,
			"0.009": 2.31678590609,
			"0.01": 1.74899595634,
			"0.011": 2.82172353249,
			"0.012": 2.51612976666,
			"0.013": 4.60925764025,
			"0.014": 5.65504646407,
			"0.015": 3.2606998114,
			"0.016": 1.52309273516,
			"0.017": 0.308545286058,
			"0.018": 0.0,
			"0.019": 0.0,
			"0.02": 0.0,
			"0.021": 0.0,
			"0.022": 0.0,
			"0.023": 0.0,
			"0.024": 0.0,
			"0.025": 0.0
		}
	}
}
