{
	 "smiles": "CC1=CC=C(O1)C1=C(CCC(C)(O)C2=CC=CC=C2)OC2=C1C=C(C)C=C2", 
	 "Tm": 358.15, 
	 "num_atms": 51, 
	 "gaussian": { 
		 "optdone": 1, 
		 "sigma_profile": "yes", 
		 "theory": "DFT", 
		 "functional": "B3LYP", 
		 "basiset": "6-31G**", 
		 "properties": { 
			 "R2extent": 9645.9397, 
			 "electric_dipole_moment_norm": 1.23883831875, 
			 "electric_quadrupole_moment_norm": 17.7099332384, 
			 "total_energy": -1154.68849944, 
			 "HOMO_LUMO_gap": 0.16635, 
			 "cosmo_polarized_energy": -14.53, 
			 "cosmo_cavitation_energy": 53.05, 
			 "cosmo_dispersion_energy": -33.36, 
			 "cosmo_repulsion_energy": 2.56, 
			 "cosmo_total_nonelectrostatic_energy": 22.25, 
			 "SMD_solvation_energy": 9.17 
		},
		"coords": [
			{
				"x": 2.3404558216,
				"y": 4.7393868386,
				"z": 1.0114334791,
				"element": "C" 
			},
			{
				"x": 2.2125563805,
				"y": 3.3513855567,
				"z": 0.4912896447,
				"element": "C" 
			},
			{
				"x": 3.1032727429,
				"y": 2.3503088876,
				"z": 0.2381862327,
				"element": "C" 
			},
			{
				"x": 2.3483212431,
				"y": 1.2384700649,
				"z": -0.2539737103,
				"element": "C" 
			},
			{
				"x": 1.0355383324,
				"y": 1.6301559375,
				"z": -0.2740223265,
				"element": "C" 
			},
			{
				"x": 0.9477329935,
				"y": 2.9269117764,
				"z": 0.1785302283,
				"element": "O" 
			},
			{
				"x": -0.1880115606,
				"y": 0.9591505095,
				"z": -0.6622759701,
				"element": "C" 
			},
			{
				"x": -1.4722762327,
				"y": 1.242505556,
				"z": -0.2673484066,
				"element": "C" 
			},
			{
				"x": -2.0755498214,
				"y": 2.2992719861,
				"z": 0.596753503,
				"element": "C" 
			},
			{
				"x": -3.0823709048,
				"y": 1.7931963068,
				"z": 1.6526979195,
				"element": "C" 
			},
			{
				"x": -2.4525747116,
				"y": 1.3147763109,
				"z": 2.9862431404,
				"element": "C" 
			},
			{
				"x": -3.566144071,
				"y": 0.9724220254,
				"z": 3.995294605,
				"element": "C" 
			},
			{
				"x": -1.6505696041,
				"y": 2.3741556767,
				"z": 3.5293729585,
				"element": "O" 
			},
			{
				"x": -1.5296987176,
				"y": 0.1082823583,
				"z": 2.8033068727,
				"element": "C" 
			},
			{
				"x": -0.1894484816,
				"y": 0.1537354068,
				"z": 3.2040325404,
				"element": "C" 
			},
			{
				"x": 0.6343880613,
				"y": -0.9645517522,
				"z": 3.0572824416,
				"element": "C" 
			},
			{
				"x": 0.1324229972,
				"y": -2.1456026512,
				"z": 2.5123262836,
				"element": "C" 
			},
			{
				"x": -1.2044381912,
				"y": -2.2017485558,
				"z": 2.112498115,
				"element": "C" 
			},
			{
				"x": -2.0266929573,
				"y": -1.0858217447,
				"z": 2.2592614736,
				"element": "C" 
			},
			{
				"x": -2.3750605396,
				"y": 0.377815142,
				"z": -0.8511868808,
				"element": "O" 
			},
			{
				"x": -1.653300272,
				"y": -0.4894784063,
				"z": -1.625634654,
				"element": "C" 
			},
			{
				"x": -0.2874237008,
				"y": -0.1797783284,
				"z": -1.5610495443,
				"element": "C" 
			},
			{
				"x": 0.6117832716,
				"y": -0.9392202788,
				"z": -2.3245203836,
				"element": "C" 
			},
			{
				"x": 0.1328854673,
				"y": -1.9895485797,
				"z": -3.1106414737,
				"element": "C" 
			},
			{
				"x": 1.08045316,
				"y": -2.8275820496,
				"z": -3.93991574,
				"element": "C" 
			},
			{
				"x": -1.2512897658,
				"y": -2.2714424076,
				"z": -3.131409629,
				"element": "C" 
			},
			{
				"x": -2.1680759319,
				"y": -1.5250177089,
				"z": -2.3944640165,
				"element": "C" 
			},
			{
				"x": 3.3900020869,
				"y": 4.9627169015,
				"z": 1.2169160239,
				"element": "H" 
			},
			{
				"x": 1.9684198279,
				"y": 5.4768291793,
				"z": 0.2902081472,
				"element": "H" 
			},
			{
				"x": 1.7735688451,
				"y": 4.8741413055,
				"z": 1.94034086,
				"element": "H" 
			},
			{
				"x": 4.1725675942,
				"y": 2.39767069,
				"z": 0.3890440133,
				"element": "H" 
			},
			{
				"x": 2.7254764821,
				"y": 0.2628294178,
				"z": -0.5207383549,
				"element": "H" 
			},
			{
				"x": -1.2737834122,
				"y": 2.8524218289,
				"z": 1.0876918197,
				"element": "H" 
			},
			{
				"x": -2.5983381582,
				"y": 3.0121659478,
				"z": -0.0568983636,
				"element": "H" 
			},
			{
				"x": -3.7105611069,
				"y": 1.0049785573,
				"z": 1.2268371482,
				"element": "H" 
			},
			{
				"x": -3.7615145883,
				"y": 2.6207933809,
				"z": 1.9001850601,
				"element": "H" 
			},
			{
				"x": -4.1925734401,
				"y": 0.1477002154,
				"z": 3.6441143361,
				"element": "H" 
			},
			{
				"x": -4.2181097538,
				"y": 1.8406397543,
				"z": 4.1566156035,
				"element": "H" 
			},
			{
				"x": -3.12344756,
				"y": 0.6865953392,
				"z": 4.9530094105,
				"element": "H" 
			},
			{
				"x": -2.2464628064,
				"y": 3.1061662392,
				"z": 3.7350362396,
				"element": "H" 
			},
			{
				"x": 0.2029331183,
				"y": 1.0699183425,
				"z": 3.6272399804,
				"element": "H" 
			},
			{
				"x": 1.6735672838,
				"y": -0.9073506841,
				"z": 3.3694976919,
				"element": "H" 
			},
			{
				"x": 0.7746724394,
				"y": -3.0141123936,
				"z": 2.3968252089,
				"element": "H" 
			},
			{
				"x": -1.6080438956,
				"y": -3.1141126524,
				"z": 1.6825715275,
				"element": "H" 
			},
			{
				"x": -3.0623330319,
				"y": -1.1484396717,
				"z": 1.9369706816,
				"element": "H" 
			},
			{
				"x": 1.6719614711,
				"y": -0.706510501,
				"z": -2.3231744884,
				"element": "H" 
			},
			{
				"x": 0.7966248334,
				"y": -2.8258586157,
				"z": -4.9986983525,
				"element": "H" 
			},
			{
				"x": 2.1064349359,
				"y": -2.455599777,
				"z": -3.8701863202,
				"element": "H" 
			},
			{
				"x": 1.0839058863,
				"y": -3.8737299705,
				"z": -3.6108508719,
				"element": "H" 
			},
			{
				"x": -1.6117006844,
				"y": -3.0915217756,
				"z": -3.747231206,
				"element": "H" 
			},
			{
				"x": -3.232451374,
				"y": -1.7330689348,
				"z": -2.4205924975,
				"element": "H" 
			}
		],
		 "valence_orbital": [ 
			{
				"type": "occ",
				"energy": -0.23743,
				"method": "rhf"
			},
			{
				"type": "occ",
				"energy": -0.23333,
				"method": "rhf"
			},
			{
				"type": "occ",
				"energy": -0.22986,
				"method": "rhf"
			},
			{
				"type": "occ",
				"energy": -0.21586,
				"method": "rhf"
			},
			{
				"type": "occ",
				"energy": -0.18218,
				"method": "rhf"
			},
			{
				"type": "unocc",
				"energy": -0.01583,
				"method": "rhf"
			},
			{
				"type": "unocc",
				"energy": 0.00841,
				"method": "rhf"
			},
			{
				"type": "unocc",
				"energy": 0.01064,
				"method": "rhf"
			},
			{
				"type": "unocc",
				"energy": 0.01527,
				"method": "rhf"
			},
			{
				"type": "unocc",
				"energy": 0.02265,
				"method": "rhf"
			}
		],
		"cosmo_sigma_profile": { 
			"-0.025": 0.0,
			"-0.024": 0.0,
			"-0.023": 0.0,
			"-0.022": 0.0,
			"-0.021": 0.0,
			"-0.02": 0.0,
			"-0.019": 0.0,
			"-0.018": 0.0,
			"-0.017": 0.0,
			"-0.016": 0.0220857535248,
			"-0.015": 0.637798505259,
			"-0.014": 0.92691270537,
			"-0.013": 1.05633756439,
			"-0.012": 0.597847821576,
			"-0.011": 1.32114655034,
			"-0.01": 1.04211607582,
			"-0.009": 1.53948889022,
			"-0.008": 0.607174132303,
			"-0.007": 3.47271096236,
			"-0.006": 10.96883468,
			"-0.005": 25.6146472442,
			"-0.004": 38.2915004065,
			"-0.003": 39.9722296207,
			"-0.002": 36.5583885637,
			"-0.001": 38.6820893867,
			"0.0": 37.2060177786,
			"0.001": 27.1617909274,
			"0.002": 23.5463158918,
			"0.003": 33.3145217947,
			"0.004": 32.6703099513,
			"0.005": 30.6604622809,
			"0.006": 20.6915769673,
			"0.007": 6.34031130687,
			"0.008": 2.82773163177,
			"0.009": 1.34005375901,
			"0.01": 1.77627960505,
			"0.011": 0.928617602593,
			"0.012": 0.383378168894,
			"0.013": 0.0,
			"0.014": 0.0,
			"0.015": 0.0,
			"0.016": 0.0,
			"0.017": 0.0,
			"0.018": 0.0,
			"0.019": 0.0,
			"0.02": 0.0,
			"0.021": 0.0,
			"0.022": 0.0,
			"0.023": 0.0,
			"0.024": 0.0,
			"0.025": 0.0
		}
	}
}
