{
	 "smiles": "[O-][N+](=O)C1=CC(=CC=C1)C1=NC=CS1", 
	 "Tm": 512.15, 
	 "num_atms": 20, 
	 "gaussian": { 
		 "optdone": 1, 
		 "sigma_profile": "yes", 
		 "theory": "DFT", 
		 "functional": "B3LYP", 
		 "basiset": "6-31G**", 
		 "properties": { 
			 "R2extent": 4095.5898, 
			 "electric_dipole_moment_norm": 4.15285278092, 
			 "electric_quadrupole_moment_norm": 17.1084115002, 
			 "total_energy": -1004.6050467, 
			 "HOMO_LUMO_gap": 0.14901, 
			 "cosmo_polarized_energy": -9.4, 
			 "cosmo_cavitation_energy": 27.16, 
			 "cosmo_dispersion_energy": -20.61, 
			 "cosmo_repulsion_energy": 1.55, 
			 "cosmo_total_nonelectrostatic_energy": 8.09, 
			 "SMD_solvation_energy": 5.76 
		},
		"coords": [
			{
				"x": 3.3896091149,
				"y": 1.9774175524,
				"z": 0.0356344445,
				"element": "O" 
			},
			{
				"x": 2.2488760625,
				"y": 2.4135432991,
				"z": -0.1152629183,
				"element": "N" 
			},
			{
				"x": 1.9663238651,
				"y": 3.5999285768,
				"z": -0.2758978539,
				"element": "O" 
			},
			{
				"x": 1.1387262431,
				"y": 1.4436546618,
				"z": -0.102507359,
				"element": "C" 
			},
			{
				"x": 1.4356473979,
				"y": 0.0966263035,
				"z": 0.0778391967,
				"element": "C" 
			},
			{
				"x": 0.3900827731,
				"y": -0.8350770972,
				"z": 0.0918480504,
				"element": "C" 
			},
			{
				"x": -0.9313706657,
				"y": -0.3790022628,
				"z": -0.0772629668,
				"element": "C" 
			},
			{
				"x": -1.2001785771,
				"y": 0.9757270204,
				"z": -0.2559708928,
				"element": "C" 
			},
			{
				"x": -0.1636527691,
				"y": 1.9086746734,
				"z": -0.2709366634,
				"element": "C" 
			},
			{
				"x": 0.6286772191,
				"y": -2.2736998694,
				"z": 0.2775770701,
				"element": "C" 
			},
			{
				"x": -0.3270798796,
				"y": -3.1677396397,
				"z": 0.2955477302,
				"element": "N" 
			},
			{
				"x": 0.1686421917,
				"y": -4.4305256424,
				"z": 0.4839194598,
				"element": "C" 
			},
			{
				"x": 1.525901582,
				"y": -4.5275775523,
				"z": 0.6148685805,
				"element": "C" 
			},
			{
				"x": 2.2412251157,
				"y": -2.9566470397,
				"z": 0.4985262133,
				"element": "S" 
			},
			{
				"x": 2.4722085021,
				"y": -0.193490139,
				"z": 0.2028078674,
				"element": "H" 
			},
			{
				"x": -1.7324818656,
				"y": -1.1095520329,
				"z": -0.0646219297,
				"element": "H" 
			},
			{
				"x": -2.2250558719,
				"y": 1.3092271647,
				"z": -0.3848074853,
				"element": "H" 
			},
			{
				"x": -0.3400592283,
				"y": 2.967992318,
				"z": -0.4076996364,
				"element": "H" 
			},
			{
				"x": -0.5165795319,
				"y": -5.2693681548,
				"z": 0.5193974341,
				"element": "H" 
			},
			{
				"x": 2.130738322,
				"y": -5.4095121398,
				"z": 0.7692016586,
				"element": "H" 
			}
		],
		 "valence_orbital": [ 
			{
				"type": "occ",
				"energy": -0.29506,
				"method": "rhf"
			},
			{
				"type": "occ",
				"energy": -0.29441,
				"method": "rhf"
			},
			{
				"type": "occ",
				"energy": -0.289,
				"method": "rhf"
			},
			{
				"type": "occ",
				"energy": -0.28521,
				"method": "rhf"
			},
			{
				"type": "occ",
				"energy": -0.24168,
				"method": "rhf"
			},
			{
				"type": "unocc",
				"energy": -0.09267,
				"method": "rhf"
			},
			{
				"type": "unocc",
				"energy": -0.07049,
				"method": "rhf"
			},
			{
				"type": "unocc",
				"energy": -0.01128,
				"method": "rhf"
			},
			{
				"type": "unocc",
				"energy": 0.00726,
				"method": "rhf"
			},
			{
				"type": "unocc",
				"energy": 0.00728,
				"method": "rhf"
			}
		],
		"cosmo_sigma_profile": { 
			"-0.025": 0.0,
			"-0.024": 0.0,
			"-0.023": 0.0,
			"-0.022": 0.0,
			"-0.021": 0.0,
			"-0.02": 0.0,
			"-0.019": 0.0,
			"-0.018": 0.0,
			"-0.017": 0.0,
			"-0.016": 0.0,
			"-0.015": 0.0,
			"-0.014": 0.0,
			"-0.013": 0.0,
			"-0.012": 0.0,
			"-0.011": 0.0,
			"-0.01": 0.646461803621,
			"-0.009": 2.10970143712,
			"-0.008": 4.69016634165,
			"-0.007": 11.1762302369,
			"-0.006": 13.5823952841,
			"-0.005": 10.0385794807,
			"-0.004": 11.9665620366,
			"-0.003": 13.5507914378,
			"-0.002": 14.6953920981,
			"-0.001": 16.1049400019,
			"0.0": 25.3746715063,
			"0.001": 25.2476282401,
			"0.002": 18.4520740813,
			"0.003": 9.60979713077,
			"0.004": 6.68481882053,
			"0.005": 4.54369369924,
			"0.006": 5.66707189007,
			"0.007": 9.93279293582,
			"0.008": 7.95634365139,
			"0.009": 5.21276168807,
			"0.01": 3.11695182921,
			"0.011": 1.17007108913,
			"0.012": 0.479445670639,
			"0.013": 0.0,
			"0.014": 0.0,
			"0.015": 0.0,
			"0.016": 0.0,
			"0.017": 0.0,
			"0.018": 0.0,
			"0.019": 0.0,
			"0.02": 0.0,
			"0.021": 0.0,
			"0.022": 0.0,
			"0.023": 0.0,
			"0.024": 0.0,
			"0.025": 0.0
		}
	}
}
