{
	 "smiles": "CSC1=NC=CC(=C1)C(O)=O", 
	 "Tm": 492.15, 
	 "num_atms": 18, 
	 "gaussian": { 
		 "optdone": 1, 
		 "sigma_profile": "yes", 
		 "theory": "DFT", 
		 "functional": "B3LYP", 
		 "basiset": "6-31G**", 
		 "properties": { 
			 "R2extent": 3334.8764, 
			 "electric_dipole_moment_norm": 3.58348499927, 
			 "electric_quadrupole_moment_norm": 16.5928745527, 
			 "total_energy": -874.353251284, 
			 "HOMO_LUMO_gap": 0.16226, 
			 "cosmo_polarized_energy": -14.29, 
			 "cosmo_cavitation_energy": 24.4, 
			 "cosmo_dispersion_energy": -18.5, 
			 "cosmo_repulsion_energy": 1.44, 
			 "cosmo_total_nonelectrostatic_energy": 7.34, 
			 "SMD_solvation_energy": 4.68 
		},
		"coords": [
			{
				"x": 1.1759399123,
				"y": 2.3910937873,
				"z": -1.0809603259,
				"element": "C" 
			},
			{
				"x": -0.3439280738,
				"y": 1.8099903131,
				"z": -1.9033249379,
				"element": "S" 
			},
			{
				"x": -0.5882899659,
				"y": 0.2335043652,
				"z": -1.1152728169,
				"element": "C" 
			},
			{
				"x": 0.2844364498,
				"y": -0.1762727101,
				"z": -0.1947814502,
				"element": "N" 
			},
			{
				"x": 0.063356116,
				"y": -1.3620631147,
				"z": 0.3963673267,
				"element": "C" 
			},
			{
				"x": -1.0149507709,
				"y": -2.184745968,
				"z": 0.0997895502,
				"element": "C" 
			},
			{
				"x": -1.9169258943,
				"y": -1.7604916455,
				"z": -0.8870512588,
				"element": "C" 
			},
			{
				"x": -1.7090233007,
				"y": -0.5277981053,
				"z": -1.4999634839,
				"element": "C" 
			},
			{
				"x": -3.0895020192,
				"y": -2.6481540238,
				"z": -1.207306577,
				"element": "C" 
			},
			{
				"x": -3.6695288478,
				"y": -2.4780242262,
				"z": -2.4219075842,
				"element": "O" 
			},
			{
				"x": -3.5109043753,
				"y": -3.4765710096,
				"z": -0.437503498,
				"element": "O" 
			},
			{
				"x": 2.000568525,
				"y": 1.7032862382,
				"z": -1.268203058,
				"element": "H" 
			},
			{
				"x": 1.0173735491,
				"y": 2.4871029124,
				"z": -0.006769151,
				"element": "H" 
			},
			{
				"x": 1.3923897392,
				"y": 3.3676066752,
				"z": -1.5188581365,
				"element": "H" 
			},
			{
				"x": 0.7935674365,
				"y": -1.65847492,
				"z": 1.1463419331,
				"element": "H" 
			},
			{
				"x": -1.1714605936,
				"y": -3.1303568526,
				"z": 0.6047091036,
				"element": "H" 
			},
			{
				"x": -2.4043333316,
				"y": -0.1231533612,
				"z": -2.2306066739,
				"element": "H" 
			},
			{
				"x": -3.130184555,
				"y": -1.8965783543,
				"z": -2.9761989615,
				"element": "H" 
			}
		],
		 "valence_orbital": [ 
			{
				"type": "occ",
				"energy": -0.31144,
				"method": "rhf"
			},
			{
				"type": "occ",
				"energy": -0.30429,
				"method": "rhf"
			},
			{
				"type": "occ",
				"energy": -0.28724,
				"method": "rhf"
			},
			{
				"type": "occ",
				"energy": -0.2765,
				"method": "rhf"
			},
			{
				"type": "occ",
				"energy": -0.23299,
				"method": "rhf"
			},
			{
				"type": "unocc",
				"energy": -0.07073,
				"method": "rhf"
			},
			{
				"type": "unocc",
				"energy": -0.03251,
				"method": "rhf"
			},
			{
				"type": "unocc",
				"energy": 0.02013,
				"method": "rhf"
			},
			{
				"type": "unocc",
				"energy": 0.03258,
				"method": "rhf"
			},
			{
				"type": "unocc",
				"energy": 0.05525,
				"method": "rhf"
			}
		],
		"cosmo_sigma_profile": { 
			"-0.025": 0.0,
			"-0.024": 0.0,
			"-0.023": 0.0,
			"-0.022": 0.0,
			"-0.021": 0.0,
			"-0.02": 0.0200476922993,
			"-0.019": 0.680713720271,
			"-0.018": 1.2620950183,
			"-0.017": 1.05485144437,
			"-0.016": 1.25408219344,
			"-0.015": 0.189819493437,
			"-0.014": 1.08543445136,
			"-0.013": 1.72424489031,
			"-0.012": 1.60803273206,
			"-0.011": 1.13496420382,
			"-0.01": 1.14980906802,
			"-0.009": 1.74933145178,
			"-0.008": 1.59740774383,
			"-0.007": 7.82899375803,
			"-0.006": 9.64417054439,
			"-0.005": 10.8024423342,
			"-0.004": 10.6662385822,
			"-0.003": 11.8538052138,
			"-0.002": 14.0606704004,
			"-0.001": 13.4981476433,
			"0.0": 15.9162741076,
			"0.001": 16.4586649901,
			"0.002": 9.29309780207,
			"0.003": 9.18849085901,
			"0.004": 6.97566829693,
			"0.005": 6.96380559921,
			"0.006": 7.1062735392,
			"0.007": 6.01470563,
			"0.008": 6.63947077415,
			"0.009": 4.59430309171,
			"0.01": 6.31516805159,
			"0.011": 6.13121530059,
			"0.012": 2.54328244289,
			"0.013": 0.292307296491,
			"0.014": 0.0,
			"0.015": 0.0,
			"0.016": 0.0,
			"0.017": 0.0,
			"0.018": 0.0,
			"0.019": 0.0,
			"0.02": 0.0,
			"0.021": 0.0,
			"0.022": 0.0,
			"0.023": 0.0,
			"0.024": 0.0,
			"0.025": 0.0
		}
	}
}
