{
	 "smiles": "OC(=O)C1=CC(OC(F)(F)F)=C(F)C=C1", 
	 "Tm": 361.15, 
	 "num_atms": 19, 
	 "gaussian": { 
		 "optdone": 1, 
		 "sigma_profile": "yes", 
		 "theory": "DFT", 
		 "functional": "B3LYP", 
		 "basiset": "6-31G**", 
		 "properties": { 
			 "R2extent": 4671.6762, 
			 "electric_dipole_moment_norm": 4.30446387254, 
			 "electric_quadrupole_moment_norm": 17.2292147143, 
			 "total_energy": -932.287426594, 
			 "HOMO_LUMO_gap": 0.21028, 
			 "cosmo_polarized_energy": -14.08, 
			 "cosmo_cavitation_energy": 26.44, 
			 "cosmo_dispersion_energy": -18.88, 
			 "cosmo_repulsion_energy": 1.4, 
			 "cosmo_total_nonelectrostatic_energy": 8.96, 
			 "SMD_solvation_energy": 7.65 
		},
		"coords": [
			{
				"x": -3.1873720036,
				"y": 2.2630610981,
				"z": -1.38035592,
				"element": "O" 
			},
			{
				"x": -1.8319753937,
				"y": 2.3563237763,
				"z": -1.4083174496,
				"element": "C" 
			},
			{
				"x": -1.2987815746,
				"y": 3.4389624627,
				"z": -1.4534344017,
				"element": "O" 
			},
			{
				"x": -1.0645606657,
				"y": 1.067244058,
				"z": -1.3780605676,
				"element": "C" 
			},
			{
				"x": 0.2692224807,
				"y": 1.108450669,
				"z": -1.8047442512,
				"element": "C" 
			},
			{
				"x": 1.0434101647,
				"y": -0.0426155606,
				"z": -1.800576609,
				"element": "C" 
			},
			{
				"x": 2.3219846257,
				"y": 0.0405766558,
				"z": -2.3299709306,
				"element": "O" 
			},
			{
				"x": 3.4058984005,
				"y": -0.4432244352,
				"z": -1.6452608382,
				"element": "C" 
			},
			{
				"x": 3.1863553344,
				"y": -0.5024134039,
				"z": -0.3231979911,
				"element": "F" 
			},
			{
				"x": 3.7523792104,
				"y": -1.6646497339,
				"z": -2.0702440607,
				"element": "F" 
			},
			{
				"x": 4.4311249702,
				"y": 0.3783171221,
				"z": -1.8787194366,
				"element": "F" 
			},
			{
				"x": 0.484023522,
				"y": -1.2447890832,
				"z": -1.3510545548,
				"element": "C" 
			},
			{
				"x": 1.2287482072,
				"y": -2.3587885801,
				"z": -1.3537973693,
				"element": "F" 
			},
			{
				"x": -0.8244216439,
				"y": -1.2955584081,
				"z": -0.8892860872,
				"element": "C" 
			},
			{
				"x": -1.6009684894,
				"y": -0.1384580828,
				"z": -0.9063974714,
				"element": "C" 
			},
			{
				"x": -3.4681378779,
				"y": 1.3495982994,
				"z": -1.5280783386,
				"element": "H" 
			},
			{
				"x": 0.6964417853,
				"y": 2.0445555084,
				"z": -2.1453580779,
				"element": "H" 
			},
			{
				"x": -1.2125474239,
				"y": -2.2399317347,
				"z": -0.5243365372,
				"element": "H" 
			},
			{
				"x": -2.6116236284,
				"y": -0.1857606273,
				"z": -0.5108091073,
				"element": "H" 
			}
		],
		 "valence_orbital": [ 
			{
				"type": "occ",
				"energy": -0.36069,
				"method": "rhf"
			},
			{
				"type": "occ",
				"energy": -0.32824,
				"method": "rhf"
			},
			{
				"type": "occ",
				"energy": -0.29197,
				"method": "rhf"
			},
			{
				"type": "occ",
				"energy": -0.28313,
				"method": "rhf"
			},
			{
				"type": "occ",
				"energy": -0.2748,
				"method": "rhf"
			},
			{
				"type": "unocc",
				"energy": -0.06452,
				"method": "rhf"
			},
			{
				"type": "unocc",
				"energy": -0.04351,
				"method": "rhf"
			},
			{
				"type": "unocc",
				"energy": 0.03351,
				"method": "rhf"
			},
			{
				"type": "unocc",
				"energy": 0.04309,
				"method": "rhf"
			},
			{
				"type": "unocc",
				"energy": 0.07006,
				"method": "rhf"
			}
		],
		"cosmo_sigma_profile": { 
			"-0.025": 0.0,
			"-0.024": 0.0,
			"-0.023": 0.0,
			"-0.022": 0.0,
			"-0.021": 0.0,
			"-0.02": 0.0,
			"-0.019": 0.640379938041,
			"-0.018": 1.00551662882,
			"-0.017": 1.2324363203,
			"-0.016": 1.25130723226,
			"-0.015": 0.80280584665,
			"-0.014": 0.854102612994,
			"-0.013": 1.05147606746,
			"-0.012": 1.04874079285,
			"-0.011": 1.61334739822,
			"-0.01": 1.40696752174,
			"-0.009": 3.50213265297,
			"-0.008": 4.52717143736,
			"-0.007": 5.54243866891,
			"-0.006": 4.692227711,
			"-0.005": 5.24849471538,
			"-0.004": 7.26347943133,
			"-0.003": 9.52477623126,
			"-0.002": 14.6342084099,
			"-0.001": 18.4995486223,
			"0.0": 21.2277837156,
			"0.001": 29.426221647,
			"0.002": 30.8890453285,
			"0.003": 13.5766276184,
			"0.004": 3.74808807004,
			"0.005": 3.38402876038,
			"0.006": 3.33307642755,
			"0.007": 2.41185118562,
			"0.008": 2.9192604743,
			"0.009": 3.61548840104,
			"0.01": 4.84931924998,
			"0.011": 5.61671889466,
			"0.012": 3.18484402892,
			"0.013": 0.820047851245,
			"0.014": 0.0,
			"0.015": 0.0,
			"0.016": 0.0,
			"0.017": 0.0,
			"0.018": 0.0,
			"0.019": 0.0,
			"0.02": 0.0,
			"0.021": 0.0,
			"0.022": 0.0,
			"0.023": 0.0,
			"0.024": 0.0,
			"0.025": 0.0
		}
	}
}
