{
	 "smiles": "CC(C)(C)C1=C(C=C(C=C1)C(O)=O)[N+]([O-])=O", 
	 "Tm": 430.15, 
	 "num_atms": 29, 
	 "gaussian": { 
		 "optdone": 1, 
		 "sigma_profile": "yes", 
		 "theory": "DFT", 
		 "functional": "B3LYP", 
		 "basiset": "6-31G**", 
		 "properties": { 
			 "R2extent": 4060.4189, 
			 "electric_dipole_moment_norm": 6.56790396245, 
			 "electric_quadrupole_moment_norm": 11.4009063587, 
			 "total_energy": -782.55849784, 
			 "HOMO_LUMO_gap": 0.18625, 
			 "cosmo_polarized_energy": -17.84, 
			 "cosmo_cavitation_energy": 32.0, 
			 "cosmo_dispersion_energy": -22.6, 
			 "cosmo_repulsion_energy": 1.73, 
			 "cosmo_total_nonelectrostatic_energy": 11.13, 
			 "SMD_solvation_energy": 9.04 
		},
		"coords": [
			{
				"x": -1.0334128363,
				"y": -2.57249271,
				"z": 1.4680375349,
				"element": "C" 
			},
			{
				"x": 0.251859351,
				"y": -1.759160223,
				"z": 1.1708362924,
				"element": "C" 
			},
			{
				"x": 1.051018975,
				"y": -1.6432571905,
				"z": 2.491125479,
				"element": "C" 
			},
			{
				"x": 1.157972435,
				"y": -2.5260404041,
				"z": 0.1749398233,
				"element": "C" 
			},
			{
				"x": -0.1368256325,
				"y": -0.3576239695,
				"z": 0.6380202776,
				"element": "C" 
			},
			{
				"x": -0.4821698013,
				"y": -0.0388469226,
				"z": -0.6951841934,
				"element": "C" 
			},
			{
				"x": -0.7563202507,
				"y": 1.2536174589,
				"z": -1.1302714826,
				"element": "C" 
			},
			{
				"x": -0.7432468749,
				"y": 2.3180254313,
				"z": -0.2295370239,
				"element": "C" 
			},
			{
				"x": -0.4495875992,
				"y": 2.0413597666,
				"z": 1.1083893782,
				"element": "C" 
			},
			{
				"x": -0.1455229488,
				"y": 0.7441791373,
				"z": 1.5128690811,
				"element": "C" 
			},
			{
				"x": -1.0817622873,
				"y": 3.6821968576,
				"z": -0.7545102909,
				"element": "C" 
			},
			{
				"x": -0.6941137983,
				"y": 4.7416714751,
				"z": 0.0019924669,
				"element": "O" 
			},
			{
				"x": -1.6717155632,
				"y": 3.8586595478,
				"z": -1.7930394783,
				"element": "O" 
			},
			{
				"x": -0.5988963226,
				"y": -1.0469242476,
				"z": -1.7722654542,
				"element": "N" 
			},
			{
				"x": 0.0605026248,
				"y": -0.8503291884,
				"z": -2.7881904662,
				"element": "O" 
			},
			{
				"x": -1.3792754646,
				"y": -1.9829126427,
				"z": -1.6060281423,
				"element": "O" 
			},
			{
				"x": -1.6457734982,
				"y": -2.0661815668,
				"z": 2.2218158886,
				"element": "H" 
			},
			{
				"x": -0.7610340616,
				"y": -3.5575747508,
				"z": 1.8625494216,
				"element": "H" 
			},
			{
				"x": -1.6349404182,
				"y": -2.7107224936,
				"z": 0.5700235866,
				"element": "H" 
			},
			{
				"x": 0.4499379535,
				"y": -1.2509108766,
				"z": 3.3166269555,
				"element": "H" 
			},
			{
				"x": 1.941911708,
				"y": -1.0163029439,
				"z": 2.3796543495,
				"element": "H" 
			},
			{
				"x": 1.381290506,
				"y": -2.6418577018,
				"z": 2.7906275723,
				"element": "H" 
			},
			{
				"x": 1.5355188609,
				"y": -3.429770066,
				"z": 0.6629727683,
				"element": "H" 
			},
			{
				"x": 0.632590071,
				"y": -2.8511189178,
				"z": -0.7220382371,
				"element": "H" 
			},
			{
				"x": 2.0232082878,
				"y": -1.9237713461,
				"z": -0.1211073712,
				"element": "H" 
			},
			{
				"x": -0.9917772232,
				"y": 1.4401880144,
				"z": -2.1713515312,
				"element": "H" 
			},
			{
				"x": -0.4752289266,
				"y": 2.8243277146,
				"z": 1.8623935671,
				"element": "H" 
			},
			{
				"x": 0.0965270453,
				"y": 0.5878584503,
				"z": 2.5552593526,
				"element": "H" 
			},
			{
				"x": -0.0947343108,
				"y": 4.456514308,
				"z": 0.705289876,
				"element": "H" 
			}
		],
		 "valence_orbital": [ 
			{
				"type": "occ",
				"energy": -0.31677,
				"method": "rhf"
			},
			{
				"type": "occ",
				"energy": -0.31344,
				"method": "rhf"
			},
			{
				"type": "occ",
				"energy": -0.2901,
				"method": "rhf"
			},
			{
				"type": "occ",
				"energy": -0.28123,
				"method": "rhf"
			},
			{
				"type": "occ",
				"energy": -0.27747,
				"method": "rhf"
			},
			{
				"type": "unocc",
				"energy": -0.09122,
				"method": "rhf"
			},
			{
				"type": "unocc",
				"energy": -0.06471,
				"method": "rhf"
			},
			{
				"type": "unocc",
				"energy": -0.0376,
				"method": "rhf"
			},
			{
				"type": "unocc",
				"energy": 0.02925,
				"method": "rhf"
			},
			{
				"type": "unocc",
				"energy": 0.04742,
				"method": "rhf"
			}
		],
		"cosmo_sigma_profile": { 
			"-0.025": 0.0,
			"-0.024": 0.0,
			"-0.023": 0.0,
			"-0.022": 0.0,
			"-0.021": 0.0,
			"-0.02": 0.000566161384867,
			"-0.019": 0.803574494793,
			"-0.018": 0.885681585543,
			"-0.017": 1.09038306205,
			"-0.016": 0.752736734769,
			"-0.015": 1.27232209581,
			"-0.014": 1.2499650994,
			"-0.013": 0.925262084315,
			"-0.012": 1.27171132655,
			"-0.011": 1.31611694961,
			"-0.01": 1.4844603751,
			"-0.009": 1.8501169372,
			"-0.008": 4.0867000843,
			"-0.007": 5.91007994848,
			"-0.006": 6.66582621915,
			"-0.005": 5.62720972162,
			"-0.004": 15.7241758673,
			"-0.003": 26.3865368385,
			"-0.002": 22.7509591524,
			"-0.001": 21.024078424,
			"0.0": 32.5843454222,
			"0.001": 26.7794979701,
			"0.002": 7.72476307601,
			"0.003": 5.23977713117,
			"0.004": 6.11233666976,
			"0.005": 5.95297124395,
			"0.006": 6.84502526626,
			"0.007": 10.5665295389,
			"0.008": 8.54196298292,
			"0.009": 7.1155128702,
			"0.01": 5.24554208658,
			"0.011": 5.4194468251,
			"0.012": 3.16946334928,
			"0.013": 0.655005788165,
			"0.014": 0.0,
			"0.015": 0.0,
			"0.016": 0.0,
			"0.017": 0.0,
			"0.018": 0.0,
			"0.019": 0.0,
			"0.02": 0.0,
			"0.021": 0.0,
			"0.022": 0.0,
			"0.023": 0.0,
			"0.024": 0.0,
			"0.025": 0.0
		}
	}
}
