{
	 "smiles": "COC1=C(Br)C=C(N)C=C1", 
	 "Tm": 332.15, 
	 "num_atms": 18, 
	 "gaussian": { 
		 "optdone": 1, 
		 "sigma_profile": "yes", 
		 "theory": "DFT", 
		 "functional": "B3LYP", 
		 "basiset": "6-31G**", 
		 "properties": { 
			 "R2extent": 3919.7008, 
			 "electric_dipole_moment_norm": 3.30557700107, 
			 "electric_quadrupole_moment_norm": 14.0955590457, 
			 "total_energy": -2972.93046127, 
			 "HOMO_LUMO_gap": 0.18441, 
			 "cosmo_polarized_energy": -11.3, 
			 "cosmo_cavitation_energy": 23.97, 
			 "cosmo_dispersion_energy": -18.3, 
			 "cosmo_repulsion_energy": 1.5, 
			 "cosmo_total_nonelectrostatic_energy": 7.17, 
			 "SMD_solvation_energy": 3.76 
		},
		"coords": [
			{
				"x": 1.0355952163,
				"y": -1.259658079,
				"z": 4.0278170827,
				"element": "C" 
			},
			{
				"x": 1.2937003579,
				"y": -0.0312644849,
				"z": 3.3713988666,
				"element": "O" 
			},
			{
				"x": 0.9415906735,
				"y": 0.0804778075,
				"z": 2.0584975043,
				"element": "C" 
			},
			{
				"x": 1.1963469867,
				"y": 1.3048535326,
				"z": 1.4181678498,
				"element": "C" 
			},
			{
				"x": 2.0093458893,
				"y": 2.7273024312,
				"z": 2.396240301,
				"element": "Br" 
			},
			{
				"x": 0.873486913,
				"y": 1.5094592819,
				"z": 0.0831363267,
				"element": "C" 
			},
			{
				"x": 0.2770696631,
				"y": 0.4874310347,
				"z": -0.6742572385,
				"element": "C" 
			},
			{
				"x": -0.1043318962,
				"y": 0.715797319,
				"z": -2.003912653,
				"element": "N" 
			},
			{
				"x": 0.021150914,
				"y": -0.7356359372,
				"z": -0.0424921962,
				"element": "C" 
			},
			{
				"x": 0.3476758892,
				"y": -0.9338994166,
				"z": 1.2995018121,
				"element": "C" 
			},
			{
				"x": 1.5808530142,
				"y": -2.0920304476,
				"z": 3.5631399083,
				"element": "H" 
			},
			{
				"x": -0.0365211834,
				"y": -1.4969356936,
				"z": 4.0403314444,
				"element": "H" 
			},
			{
				"x": 1.3857698631,
				"y": -1.1306339754,
				"z": 5.0530566678,
				"element": "H" 
			},
			{
				"x": 1.0833466951,
				"y": 2.4730233953,
				"z": -0.3694459236,
				"element": "H" 
			},
			{
				"x": 0.4284781565,
				"y": 1.4355790783,
				"z": -2.4739758435,
				"element": "H" 
			},
			{
				"x": -0.1605522825,
				"y": -0.1204689899,
				"z": -2.5699496729,
				"element": "H" 
			},
			{
				"x": -0.4438874431,
				"y": -1.5438524613,
				"z": -0.6008436186,
				"element": "H" 
			},
			{
				"x": 0.1348825732,
				"y": -1.8955443949,
				"z": 1.7514893824,
				"element": "H" 
			}
		],
		 "valence_orbital": [ 
			{
				"type": "occ",
				"energy": -0.30621,
				"method": "rhf"
			},
			{
				"type": "occ",
				"energy": -0.27751,
				"method": "rhf"
			},
			{
				"type": "occ",
				"energy": -0.27172,
				"method": "rhf"
			},
			{
				"type": "occ",
				"energy": -0.23689,
				"method": "rhf"
			},
			{
				"type": "occ",
				"energy": -0.19135,
				"method": "rhf"
			},
			{
				"type": "unocc",
				"energy": -0.00694,
				"method": "rhf"
			},
			{
				"type": "unocc",
				"energy": 0.01812,
				"method": "rhf"
			},
			{
				"type": "unocc",
				"energy": 0.02265,
				"method": "rhf"
			},
			{
				"type": "unocc",
				"energy": 0.07953,
				"method": "rhf"
			},
			{
				"type": "unocc",
				"energy": 0.09885,
				"method": "rhf"
			}
		],
		"cosmo_sigma_profile": { 
			"-0.025": 0.0,
			"-0.024": 0.0,
			"-0.023": 0.0,
			"-0.022": 0.0,
			"-0.021": 0.0,
			"-0.02": 0.0,
			"-0.019": 0.0,
			"-0.018": 0.0,
			"-0.017": 0.0,
			"-0.016": 0.0,
			"-0.015": 0.0,
			"-0.014": 0.0,
			"-0.013": 0.156892118252,
			"-0.012": 2.67889265921,
			"-0.011": 2.75422149335,
			"-0.01": 3.51146778747,
			"-0.009": 3.62853519931,
			"-0.008": 2.801126219,
			"-0.007": 4.21953404457,
			"-0.006": 9.564384555,
			"-0.005": 15.7012856178,
			"-0.004": 13.3959812052,
			"-0.003": 14.6083460439,
			"-0.002": 9.31947732609,
			"-0.001": 8.48779235039,
			"0.0": 8.15745818418,
			"0.001": 7.70489793337,
			"0.002": 8.83786351197,
			"0.003": 16.9904089637,
			"0.004": 18.3665577515,
			"0.005": 19.9497580176,
			"0.006": 6.73409371595,
			"0.007": 3.30469948184,
			"0.008": 2.32518887295,
			"0.009": 3.3829633234,
			"0.01": 2.22779971264,
			"0.011": 2.1420090364,
			"0.012": 0.858475989386,
			"0.013": 0.377082099734,
			"0.014": 0.901867090504,
			"0.015": 0.4407580284,
			"0.016": 0.0,
			"0.017": 0.0,
			"0.018": 0.0,
			"0.019": 0.0,
			"0.02": 0.0,
			"0.021": 0.0,
			"0.022": 0.0,
			"0.023": 0.0,
			"0.024": 0.0,
			"0.025": 0.0
		}
	}
}
