{
	 "smiles": "OC1=CC=C(Br)C=C1N(=O)=O", 
	 "Tm": 365.15, 
	 "num_atms": 15, 
	 "gaussian": { 
		 "optdone": 1, 
		 "sigma_profile": "yes", 
		 "theory": "DFT", 
		 "functional": "B3LYP", 
		 "basiset": "6-31G**", 
		 "properties": { 
			 "R2extent": 3335.0509, 
			 "electric_dipole_moment_norm": 2.66460865044, 
			 "electric_quadrupole_moment_norm": 7.14402326354, 
			 "total_energy": -3082.77718949, 
			 "HOMO_LUMO_gap": 0.13887, 
			 "cosmo_polarized_energy": -7.31, 
			 "cosmo_cavitation_energy": 22.4, 
			 "cosmo_dispersion_energy": -17.42, 
			 "cosmo_repulsion_energy": 1.39, 
			 "cosmo_total_nonelectrostatic_energy": 6.37, 
			 "SMD_solvation_energy": 5.19 
		},
		"coords": [
			{
				"x": 1.3408606943,
				"y": -3.3482442729,
				"z": 1.8473184541,
				"element": "O" 
			},
			{
				"x": 0.5109616406,
				"y": -2.3425776962,
				"z": 1.5665292742,
				"element": "C" 
			},
			{
				"x": -0.856120808,
				"y": -2.5043073226,
				"z": 1.8624279495,
				"element": "C" 
			},
			{
				"x": -1.7687997776,
				"y": -1.4992332573,
				"z": 1.5957922116,
				"element": "C" 
			},
			{
				"x": -1.3427117024,
				"y": -0.2898752974,
				"z": 1.0202072481,
				"element": "C" 
			},
			{
				"x": -2.617958717,
				"y": 1.0802191389,
				"z": 0.6620618099,
				"element": "Br" 
			},
			{
				"x": -0.0111120303,
				"y": -0.0918210353,
				"z": 0.7150221225,
				"element": "C" 
			},
			{
				"x": 0.9118949797,
				"y": -1.1137939802,
				"z": 0.9870111209,
				"element": "C" 
			},
			{
				"x": 2.3005254875,
				"y": -0.8728139121,
				"z": 0.6544579184,
				"element": "N" 
			},
			{
				"x": 2.6190980033,
				"y": 0.1981914448,
				"z": 0.1543190912,
				"element": "O" 
			},
			{
				"x": 3.1287728311,
				"y": -1.7819044653,
				"z": 0.8954575307,
				"element": "O" 
			},
			{
				"x": 2.2414916657,
				"y": -3.049726154,
				"z": 1.5724309667,
				"element": "H" 
			},
			{
				"x": -1.1680982845,
				"y": -3.4432228821,
				"z": 2.3061579441,
				"element": "H" 
			},
			{
				"x": -2.81751211,
				"y": -1.6424946235,
				"z": 1.830837467,
				"element": "H" 
			},
			{
				"x": 0.3458081275,
				"y": 0.8281043153,
				"z": 0.2716688912,
				"element": "H" 
			}
		],
		 "valence_orbital": [ 
			{
				"type": "occ",
				"energy": -0.316,
				"method": "rhf"
			},
			{
				"type": "occ",
				"energy": -0.31517,
				"method": "rhf"
			},
			{
				"type": "occ",
				"energy": -0.30343,
				"method": "rhf"
			},
			{
				"type": "occ",
				"energy": -0.29865,
				"method": "rhf"
			},
			{
				"type": "occ",
				"energy": -0.24827,
				"method": "rhf"
			},
			{
				"type": "unocc",
				"energy": -0.1094,
				"method": "rhf"
			},
			{
				"type": "unocc",
				"energy": -0.03106,
				"method": "rhf"
			},
			{
				"type": "unocc",
				"energy": -0.01539,
				"method": "rhf"
			},
			{
				"type": "unocc",
				"energy": -0.01108,
				"method": "rhf"
			},
			{
				"type": "unocc",
				"energy": 0.08911,
				"method": "rhf"
			}
		],
		"cosmo_sigma_profile": { 
			"-0.025": 0.0,
			"-0.024": 0.0,
			"-0.023": 0.0,
			"-0.022": 0.0,
			"-0.021": 0.0,
			"-0.02": 0.0,
			"-0.019": 0.0,
			"-0.018": 0.0,
			"-0.017": 0.0,
			"-0.016": 0.0,
			"-0.015": 0.0,
			"-0.014": 0.0,
			"-0.013": 0.0,
			"-0.012": 0.0,
			"-0.011": 0.0,
			"-0.01": 0.508832244385,
			"-0.009": 2.08170184981,
			"-0.008": 6.45136978304,
			"-0.007": 9.5600877042,
			"-0.006": 8.00655197973,
			"-0.005": 8.98322904757,
			"-0.004": 9.30231622486,
			"-0.003": 10.3900661333,
			"-0.002": 13.4244385126,
			"-0.001": 14.9881887937,
			"0.0": 19.1927534612,
			"0.001": 16.0476153562,
			"0.002": 9.23960937319,
			"0.003": 11.9919612234,
			"0.004": 12.5388936839,
			"0.005": 5.8073441124,
			"0.006": 6.49287179595,
			"0.007": 6.92859891187,
			"0.008": 5.71662013527,
			"0.009": 5.16788817342,
			"0.01": 1.21946330307,
			"0.011": 0.0,
			"0.012": 0.0,
			"0.013": 0.0,
			"0.014": 0.0,
			"0.015": 0.0,
			"0.016": 0.0,
			"0.017": 0.0,
			"0.018": 0.0,
			"0.019": 0.0,
			"0.02": 0.0,
			"0.021": 0.0,
			"0.022": 0.0,
			"0.023": 0.0,
			"0.024": 0.0,
			"0.025": 0.0
		}
	}
}
