{
	 "smiles": "SC1=NNC(=O)N1C1CCCCC1", 
	 "Tm": 465.15, 
	 "num_atms": 26, 
	 "gaussian": { 
		 "optdone": 1, 
		 "sigma_profile": "yes", 
		 "theory": "DFT", 
		 "functional": "B3LYP", 
		 "basiset": "6-31G**", 
		 "properties": { 
			 "R2extent": 3542.4987, 
			 "electric_dipole_moment_norm": 1.94774068346, 
			 "electric_quadrupole_moment_norm": 4.75108749972, 
			 "total_energy": -950.353671414, 
			 "HOMO_LUMO_gap": 0.21329, 
			 "cosmo_polarized_energy": -11.83, 
			 "cosmo_cavitation_energy": 28.68, 
			 "cosmo_dispersion_energy": -21.73, 
			 "cosmo_repulsion_energy": 1.69, 
			 "cosmo_total_nonelectrostatic_energy": 8.64, 
			 "SMD_solvation_energy": 3.58 
		},
		"coords": [
			{
				"x": 0.8122293563,
				"y": 3.8039851415,
				"z": 0.4685298781,
				"element": "S" 
			},
			{
				"x": 1.7663253151,
				"y": 2.3145634309,
				"z": 0.3900947381,
				"element": "C" 
			},
			{
				"x": 2.9333280093,
				"y": 2.165144109,
				"z": 0.9461130219,
				"element": "N" 
			},
			{
				"x": 3.2766569978,
				"y": 0.8654452711,
				"z": 0.6202654501,
				"element": "N" 
			},
			{
				"x": 2.3359615352,
				"y": 0.2088581224,
				"z": -0.1339026678,
				"element": "C" 
			},
			{
				"x": 2.349591693,
				"y": -0.93328861,
				"z": -0.5733731266,
				"element": "O" 
			},
			{
				"x": 1.3336636693,
				"y": 1.1903471685,
				"z": -0.2788425504,
				"element": "N" 
			},
			{
				"x": 0.0638656932,
				"y": 0.9932738939,
				"z": -1.000879617,
				"element": "C" 
			},
			{
				"x": -0.7836879151,
				"y": -0.1096657985,
				"z": -0.3331553971,
				"element": "C" 
			},
			{
				"x": -1.9424878043,
				"y": -0.5068047555,
				"z": -1.258120764,
				"element": "C" 
			},
			{
				"x": -1.4302953068,
				"y": -1.1592171557,
				"z": -2.5682309966,
				"element": "C" 
			},
			{
				"x": 0.0115809233,
				"y": -0.725479999,
				"z": -2.9139810605,
				"element": "C" 
			},
			{
				"x": 0.2727904728,
				"y": 0.7355822236,
				"z": -2.5234462869,
				"element": "C" 
			},
			{
				"x": 1.731404746,
				"y": 4.4316583659,
				"z": 1.2261446744,
				"element": "H" 
			},
			{
				"x": 4.1518379872,
				"y": 0.4771046945,
				"z": 0.9309848238,
				"element": "H" 
			},
			{
				"x": -0.4695673864,
				"y": 1.9430248247,
				"z": -0.8898916223,
				"element": "H" 
			},
			{
				"x": -0.1470278155,
				"y": -0.9774033518,
				"z": -0.1354500438,
				"element": "H" 
			},
			{
				"x": -1.152588599,
				"y": 0.2519930865,
				"z": 0.6328831557,
				"element": "H" 
			},
			{
				"x": -2.6236927271,
				"y": -1.184777765,
				"z": -0.7334974831,
				"element": "H" 
			},
			{
				"x": -2.5316893462,
				"y": 0.3907576655,
				"z": -1.4909305431,
				"element": "H" 
			},
			{
				"x": -1.4610332946,
				"y": -2.2509825484,
				"z": -2.4779090459,
				"element": "H" 
			},
			{
				"x": -2.109297661,
				"y": -0.900325534,
				"z": -3.3895229789,
				"element": "H" 
			},
			{
				"x": 0.7340170464,
				"y": -1.3536600842,
				"z": -2.3856895296,
				"element": "H" 
			},
			{
				"x": 0.1979863037,
				"y": -0.8595287811,
				"z": -3.9854361124,
				"element": "H" 
			},
			{
				"x": 1.2856270202,
				"y": 1.0374935622,
				"z": -2.8066476837,
				"element": "H" 
			},
			{
				"x": -0.411598913,
				"y": 1.3899028229,
				"z": -3.0779082326,
				"element": "H" 
			}
		],
		 "valence_orbital": [ 
			{
				"type": "occ",
				"energy": -0.30677,
				"method": "rhf"
			},
			{
				"type": "occ",
				"energy": -0.30317,
				"method": "rhf"
			},
			{
				"type": "occ",
				"energy": -0.27172,
				"method": "rhf"
			},
			{
				"type": "occ",
				"energy": -0.26218,
				"method": "rhf"
			},
			{
				"type": "occ",
				"energy": -0.21621,
				"method": "rhf"
			},
			{
				"type": "unocc",
				"energy": -0.00292,
				"method": "rhf"
			},
			{
				"type": "unocc",
				"energy": 0.01945,
				"method": "rhf"
			},
			{
				"type": "unocc",
				"energy": 0.05067,
				"method": "rhf"
			},
			{
				"type": "unocc",
				"energy": 0.05636,
				"method": "rhf"
			},
			{
				"type": "unocc",
				"energy": 0.07963,
				"method": "rhf"
			}
		],
		"cosmo_sigma_profile": { 
			"-0.025": 0.0,
			"-0.024": 0.0,
			"-0.023": 0.0,
			"-0.022": 0.0,
			"-0.021": 0.0,
			"-0.02": 0.0,
			"-0.019": 0.0,
			"-0.018": 0.0,
			"-0.017": 0.467387576074,
			"-0.016": 1.50546622578,
			"-0.015": 0.910923002238,
			"-0.014": 1.29194363269,
			"-0.013": 0.644409416986,
			"-0.012": 2.09835632922,
			"-0.011": 2.50220953763,
			"-0.01": 2.66378192064,
			"-0.009": 1.14888478582,
			"-0.008": 1.83463808632,
			"-0.007": 1.98090061271,
			"-0.006": 3.86800830887,
			"-0.005": 5.85589313622,
			"-0.004": 9.87600908841,
			"-0.003": 19.5307987405,
			"-0.002": 25.5613697285,
			"-0.001": 31.6821637438,
			"0.0": 30.3375701716,
			"0.001": 22.7087813107,
			"0.002": 12.0239839783,
			"0.003": 5.81630814473,
			"0.004": 6.42159627748,
			"0.005": 5.77475114548,
			"0.006": 5.29686577817,
			"0.007": 3.86013968423,
			"0.008": 3.69758191224,
			"0.009": 2.44570889212,
			"0.01": 1.52505650114,
			"0.011": 2.53773013509,
			"0.012": 3.59384862592,
			"0.013": 3.44509825033,
			"0.014": 3.83903681423,
			"0.015": 0.37277276073,
			"0.016": 0.0,
			"0.017": 0.0,
			"0.018": 0.0,
			"0.019": 0.0,
			"0.02": 0.0,
			"0.021": 0.0,
			"0.022": 0.0,
			"0.023": 0.0,
			"0.024": 0.0,
			"0.025": 0.0
		}
	}
}
