{
	 "smiles": "CN1CCN(CC1)S(=O)(=O)C1=CN=C(Cl)C=C1", 
	 "Tm": 403.15, 
	 "num_atms": 31, 
	 "gaussian": { 
		 "optdone": 1, 
		 "sigma_profile": "yes", 
		 "theory": "DFT", 
		 "functional": "B3LYP", 
		 "basiset": "6-31G**", 
		 "properties": { 
			 "R2extent": 6054.0523, 
			 "electric_dipole_moment_norm": 5.3845167694, 
			 "electric_quadrupole_moment_norm": 18.6101113753, 
			 "total_energy": -1562.48420294, 
			 "HOMO_LUMO_gap": 0.17428, 
			 "cosmo_polarized_energy": -15.49, 
			 "cosmo_cavitation_energy": 35.62, 
			 "cosmo_dispersion_energy": -25.2, 
			 "cosmo_repulsion_energy": 1.9, 
			 "cosmo_total_nonelectrostatic_energy": 12.33, 
			 "SMD_solvation_energy": 1.26 
		},
		"coords": [
			{
				"x": 1.5289966411,
				"y": 1.2643600292,
				"z": 1.0763521296,
				"element": "C" 
			},
			{
				"x": 0.9275285837,
				"y": -0.0327072425,
				"z": 0.8114908664,
				"element": "N" 
			},
			{
				"x": 1.6473394254,
				"y": -0.8302526466,
				"z": -0.1722228005,
				"element": "C" 
			},
			{
				"x": 0.7138854736,
				"y": -1.9380495504,
				"z": -0.707108359,
				"element": "C" 
			},
			{
				"x": -0.1860647955,
				"y": -2.416647087,
				"z": 0.3579602576,
				"element": "N" 
			},
			{
				"x": 0.3436817756,
				"y": -2.261474724,
				"z": 1.7146232365,
				"element": "C" 
			},
			{
				"x": 0.7018145402,
				"y": -0.7916218176,
				"z": 2.0430248301,
				"element": "C" 
			},
			{
				"x": -1.8397478503,
				"y": -2.4025953245,
				"z": 0.1062026893,
				"element": "S" 
			},
			{
				"x": -2.4270758495,
				"y": -3.1399228528,
				"z": 1.2267545879,
				"element": "O" 
			},
			{
				"x": -2.0392983152,
				"y": -2.787974416,
				"z": -1.2922503279,
				"element": "O" 
			},
			{
				"x": -2.4460535994,
				"y": -0.7128839943,
				"z": 0.2461640822,
				"element": "C" 
			},
			{
				"x": -2.8597250591,
				"y": -0.2133618091,
				"z": 1.4813143701,
				"element": "C" 
			},
			{
				"x": -3.294249458,
				"y": 1.0430382636,
				"z": 1.6439082327,
				"element": "N" 
			},
			{
				"x": -3.3366807156,
				"y": 1.8155866797,
				"z": 0.5719223624,
				"element": "C" 
			},
			{
				"x": -3.8965941374,
				"y": 3.4645029315,
				"z": 0.8117494058,
				"element": "Cl" 
			},
			{
				"x": -2.9820885264,
				"y": 1.4126335677,
				"z": -0.7203067562,
				"element": "C" 
			},
			{
				"x": -2.5240778282,
				"y": 0.1104103585,
				"z": -0.8800616356,
				"element": "C" 
			},
			{
				"x": 2.5396664758,
				"y": 1.1972053161,
				"z": 1.5217361939,
				"element": "H" 
			},
			{
				"x": 0.8947002971,
				"y": 1.8252815109,
				"z": 1.7706162159,
				"element": "H" 
			},
			{
				"x": 1.6025967169,
				"y": 1.8376564402,
				"z": 0.1468076859,
				"element": "H" 
			},
			{
				"x": 1.9510765771,
				"y": -0.186953415,
				"z": -1.0041712104,
				"element": "H" 
			},
			{
				"x": 2.5767752723,
				"y": -1.2704454869,
				"z": 0.2391274953,
				"element": "H" 
			},
			{
				"x": 0.109935097,
				"y": -1.5643578088,
				"z": -1.5349302766,
				"element": "H" 
			},
			{
				"x": 1.2999100051,
				"y": -2.7824714507,
				"z": -1.0910630984,
				"element": "H" 
			},
			{
				"x": -0.3754734367,
				"y": -2.6736059659,
				"z": 2.4228719695,
				"element": "H" 
			},
			{
				"x": 1.2391903013,
				"y": -2.8908435392,
				"z": 1.7715339578,
				"element": "H" 
			},
			{
				"x": 1.5939904693,
				"y": -0.7901434851,
				"z": 2.6994696206,
				"element": "H" 
			},
			{
				"x": -0.1055839398,
				"y": -0.3041790751,
				"z": 2.6019594398,
				"element": "H" 
			},
			{
				"x": -2.860417579,
				"y": -0.8489019968,
				"z": 2.3621222263,
				"element": "H" 
			},
			{
				"x": -3.0706856907,
				"y": 2.093802734,
				"z": -1.5579045651,
				"element": "H" 
			},
			{
				"x": -2.2568708706,
				"y": -0.274784143,
				"z": -1.8579928259,
				"element": "H" 
			}
		],
		 "valence_orbital": [ 
			{
				"type": "occ",
				"energy": -0.30737,
				"method": "rhf"
			},
			{
				"type": "occ",
				"energy": -0.2877,
				"method": "rhf"
			},
			{
				"type": "occ",
				"energy": -0.27968,
				"method": "rhf"
			},
			{
				"type": "occ",
				"energy": -0.25337,
				"method": "rhf"
			},
			{
				"type": "occ",
				"energy": -0.23023,
				"method": "rhf"
			},
			{
				"type": "unocc",
				"energy": -0.05595,
				"method": "rhf"
			},
			{
				"type": "unocc",
				"energy": -0.04939,
				"method": "rhf"
			},
			{
				"type": "unocc",
				"energy": 0.02319,
				"method": "rhf"
			},
			{
				"type": "unocc",
				"energy": 0.04661,
				"method": "rhf"
			},
			{
				"type": "unocc",
				"energy": 0.06254,
				"method": "rhf"
			}
		],
		"cosmo_sigma_profile": { 
			"-0.025": 0.0,
			"-0.024": 0.0,
			"-0.023": 0.0,
			"-0.022": 0.0,
			"-0.021": 0.0,
			"-0.02": 0.0,
			"-0.019": 0.0,
			"-0.018": 0.0,
			"-0.017": 0.0,
			"-0.016": 0.0,
			"-0.015": 0.0,
			"-0.014": 0.0,
			"-0.013": 0.0,
			"-0.012": 0.0,
			"-0.011": 0.0,
			"-0.01": 0.0919895198328,
			"-0.009": 2.85826027505,
			"-0.008": 5.77003330125,
			"-0.007": 6.85553702565,
			"-0.006": 9.63650408116,
			"-0.005": 20.0004444031,
			"-0.004": 23.4665346514,
			"-0.003": 30.3247056147,
			"-0.002": 33.0640062589,
			"-0.001": 30.375026568,
			"0.0": 20.8023612774,
			"0.001": 10.8139256533,
			"0.002": 10.1579897959,
			"0.003": 13.4234763044,
			"0.004": 12.9020114233,
			"0.005": 9.37546771621,
			"0.006": 6.98065097242,
			"0.007": 6.17594517708,
			"0.008": 5.39004137646,
			"0.009": 5.40877131498,
			"0.01": 8.0872248967,
			"0.011": 8.25956247339,
			"0.012": 2.58445899826,
			"0.013": 0.865570936417,
			"0.014": 0.114799661663,
			"0.015": 0.0,
			"0.016": 0.0,
			"0.017": 0.0,
			"0.018": 0.0,
			"0.019": 0.0,
			"0.02": 0.0,
			"0.021": 0.0,
			"0.022": 0.0,
			"0.023": 0.0,
			"0.024": 0.0,
			"0.025": 0.0
		}
	}
}
