{
	 "smiles": "CCCCCCCCCCCCCCCCCCNC", 
	 "Tm": 317.15, 
	 "num_atms": 61, 
	 "gaussian": { 
		 "optdone": 1, 
		 "sigma_profile": "yes", 
		 "theory": "DFT", 
		 "functional": "B3LYP", 
		 "basiset": "6-31G**", 
		 "properties": { 
			 "R2extent": 15865.5045, 
			 "electric_dipole_moment_norm": 0.96060248282, 
			 "electric_quadrupole_moment_norm": 9.80211591086, 
			 "total_energy": -803.51893181, 
			 "HOMO_LUMO_gap": 0.28873, 
			 "cosmo_polarized_energy": -4.18, 
			 "cosmo_cavitation_energy": 57.32, 
			 "cosmo_dispersion_energy": -38.48, 
			 "cosmo_repulsion_energy": 3.11, 
			 "cosmo_total_nonelectrostatic_energy": 21.95, 
			 "SMD_solvation_energy": 5.7 
		},
		"coords": [
			{
				"x": 1.5362990817,
				"y": -1.7748941524,
				"z": 3.6519974093,
				"element": "C" 
			},
			{
				"x": 2.1403486539,
				"y": -0.961543203,
				"z": 4.8025283574,
				"element": "C" 
			},
			{
				"x": 1.9894909697,
				"y": 0.5662394044,
				"z": 4.6879095045,
				"element": "C" 
			},
			{
				"x": 0.5341597205,
				"y": 1.0901834805,
				"z": 4.7145982447,
				"element": "C" 
			},
			{
				"x": -0.1228388976,
				"y": 1.3231801988,
				"z": 3.3394702138,
				"element": "C" 
			},
			{
				"x": 0.4200496545,
				"y": 2.5538686411,
				"z": 2.596218136,
				"element": "C" 
			},
			{
				"x": -0.1588076318,
				"y": 2.7592628314,
				"z": 1.1858350525,
				"element": "C" 
			},
			{
				"x": -1.6572052144,
				"y": 3.1059811681,
				"z": 1.1581055008,
				"element": "C" 
			},
			{
				"x": -2.235089684,
				"y": 3.4350749152,
				"z": -0.2364603273,
				"element": "C" 
			},
			{
				"x": -2.8129648379,
				"y": 2.2471106673,
				"z": -1.0313523871,
				"element": "C" 
			},
			{
				"x": -1.8393665799,
				"y": 1.142508918,
				"z": -1.4796929163,
				"element": "C" 
			},
			{
				"x": -0.7590840322,
				"y": 1.6087881226,
				"z": -2.466724258,
				"element": "C" 
			},
			{
				"x": 0.2084302312,
				"y": 0.5049705869,
				"z": -2.9305880201,
				"element": "C" 
			},
			{
				"x": -0.4329915892,
				"y": -0.5855278165,
				"z": -3.8024948397,
				"element": "C" 
			},
			{
				"x": 0.5359375731,
				"y": -1.6880054872,
				"z": -4.2666402262,
				"element": "C" 
			},
			{
				"x": 1.6202329407,
				"y": -1.2175662013,
				"z": -5.2482187484,
				"element": "C" 
			},
			{
				"x": 2.5612845135,
				"y": -2.3288064357,
				"z": -5.7407951949,
				"element": "C" 
			},
			{
				"x": 1.9292607113,
				"y": -3.3977804243,
				"z": -6.6488803704,
				"element": "C" 
			},
			{
				"x": 1.3940580538,
				"y": -2.846489162,
				"z": -7.9030102688,
				"element": "N" 
			},
			{
				"x": -0.0600735323,
				"y": -2.7506415658,
				"z": -7.9672539128,
				"element": "C" 
			},
			{
				"x": 1.7411760067,
				"y": -2.8434022093,
				"z": 3.7790440739,
				"element": "H" 
			},
			{
				"x": 0.4495626695,
				"y": -1.6560635303,
				"z": 3.5948314128,
				"element": "H" 
			},
			{
				"x": 1.9554284972,
				"y": -1.4698407868,
				"z": 2.6859674765,
				"element": "H" 
			},
			{
				"x": 1.6909536151,
				"y": -1.2903182678,
				"z": 5.7499808119,
				"element": "H" 
			},
			{
				"x": 3.2098388777,
				"y": -1.1979616237,
				"z": 4.8793215399,
				"element": "H" 
			},
			{
				"x": 2.5453828369,
				"y": 1.0162221958,
				"z": 5.5198696364,
				"element": "H" 
			},
			{
				"x": 2.4951198287,
				"y": 0.9110747553,
				"z": 3.7756428553,
				"element": "H" 
			},
			{
				"x": -0.0822478481,
				"y": 0.3910166571,
				"z": 5.2958501629,
				"element": "H" 
			},
			{
				"x": 0.5017790331,
				"y": 2.03875197,
				"z": 5.2670170061,
				"element": "H" 
			},
			{
				"x": -1.2039110501,
				"y": 1.4382680927,
				"z": 3.4867355852,
				"element": "H" 
			},
			{
				"x": 0.0044066712,
				"y": 0.4358650414,
				"z": 2.7059497236,
				"element": "H" 
			},
			{
				"x": 1.5119334377,
				"y": 2.4758275622,
				"z": 2.5142004161,
				"element": "H" 
			},
			{
				"x": 0.2271600932,
				"y": 3.4516138461,
				"z": 3.2019431452,
				"element": "H" 
			},
			{
				"x": 0.0375424754,
				"y": 1.8617214272,
				"z": 0.585995578,
				"element": "H" 
			},
			{
				"x": 0.391726947,
				"y": 3.5746555085,
				"z": 0.6967643067,
				"element": "H" 
			},
			{
				"x": -1.8066556604,
				"y": 3.9749245148,
				"z": 1.8138044244,
				"element": "H" 
			},
			{
				"x": -2.2437794991,
				"y": 2.2924011109,
				"z": 1.6052519943,
				"element": "H" 
			},
			{
				"x": -3.0527132801,
				"y": 4.1558853142,
				"z": -0.108887517,
				"element": "H" 
			},
			{
				"x": -1.4757034146,
				"y": 3.9588254696,
				"z": -0.832399465,
				"element": "H" 
			},
			{
				"x": -3.3144260958,
				"y": 2.6465241847,
				"z": -1.9242387863,
				"element": "H" 
			},
			{
				"x": -3.6054359212,
				"y": 1.7859207873,
				"z": -0.4257316941,
				"element": "H" 
			},
			{
				"x": -1.3600356578,
				"y": 0.6852450709,
				"z": -0.6038672752,
				"element": "H" 
			},
			{
				"x": -2.4335119888,
				"y": 0.3440372043,
				"z": -1.9416145072,
				"element": "H" 
			},
			{
				"x": -0.1703451877,
				"y": 2.4117438644,
				"z": -2.0063915512,
				"element": "H" 
			},
			{
				"x": -1.2445301212,
				"y": 2.0572712725,
				"z": -3.3460461252,
				"element": "H" 
			},
			{
				"x": 1.0282792622,
				"y": 0.9771946382,
				"z": -3.4854535843,
				"element": "H" 
			},
			{
				"x": 0.6706669337,
				"y": 0.0353228671,
				"z": -2.0496409584,
				"element": "H" 
			},
			{
				"x": -1.2532953102,
				"y": -1.0583259754,
				"z": -3.2484281146,
				"element": "H" 
			},
			{
				"x": -0.894144298,
				"y": -0.1153900681,
				"z": -4.6837242334,
				"element": "H" 
			},
			{
				"x": -0.0527309862,
				"y": -2.4899707597,
				"z": -4.7301576723,
				"element": "H" 
			},
			{
				"x": 1.0169536037,
				"y": -2.1402419637,
				"z": -3.3868671726,
				"element": "H" 
			},
			{
				"x": 1.1531585768,
				"y": -0.7367390539,
				"z": -6.1177222014,
				"element": "H" 
			},
			{
				"x": 2.2316392867,
				"y": -0.442813958,
				"z": -4.7695598272,
				"element": "H" 
			},
			{
				"x": 3.0116182159,
				"y": -2.8359317853,
				"z": -4.8747693538,
				"element": "H" 
			},
			{
				"x": 3.3854258429,
				"y": -1.8679227006,
				"z": -6.2987255262,
				"element": "H" 
			},
			{
				"x": 2.7109634464,
				"y": -4.1282620449,
				"z": -6.8922980996,
				"element": "H" 
			},
			{
				"x": 1.1545948124,
				"y": -3.9587201616,
				"z": -6.0999383758,
				"element": "H" 
			},
			{
				"x": 1.7168916197,
				"y": -3.4087669563,
				"z": -8.6825404047,
				"element": "H" 
			},
			{
				"x": -0.5890638186,
				"y": -3.6988162801,
				"z": -7.7564891284,
				"element": "H" 
			},
			{
				"x": -0.423575329,
				"y": -2.0086244863,
				"z": -7.2493907501,
				"element": "H" 
			},
			{
				"x": -0.3586272274,
				"y": -2.4107152295,
				"z": -8.9643387744,
				"element": "H" 
			}
		],
		 "valence_orbital": [ 
			{
				"type": "occ",
				"energy": -0.29938,
				"method": "rhf"
			},
			{
				"type": "occ",
				"energy": -0.29666,
				"method": "rhf"
			},
			{
				"type": "occ",
				"energy": -0.29477,
				"method": "rhf"
			},
			{
				"type": "occ",
				"energy": -0.28897,
				"method": "rhf"
			},
			{
				"type": "occ",
				"energy": -0.21227,
				"method": "rhf"
			},
			{
				"type": "unocc",
				"energy": 0.07646,
				"method": "rhf"
			},
			{
				"type": "unocc",
				"energy": 0.08213,
				"method": "rhf"
			},
			{
				"type": "unocc",
				"energy": 0.08875,
				"method": "rhf"
			},
			{
				"type": "unocc",
				"energy": 0.10063,
				"method": "rhf"
			},
			{
				"type": "unocc",
				"energy": 0.1022,
				"method": "rhf"
			}
		],
		"cosmo_sigma_profile": { 
			"-0.025": 0.0,
			"-0.024": 0.0,
			"-0.023": 0.0,
			"-0.022": 0.0,
			"-0.021": 0.0,
			"-0.02": 0.0,
			"-0.019": 0.0,
			"-0.018": 0.0,
			"-0.017": 0.0,
			"-0.016": 0.0,
			"-0.015": 0.0,
			"-0.014": 0.0,
			"-0.013": 0.0,
			"-0.012": 0.0,
			"-0.011": 0.0,
			"-0.01": 0.453147141304,
			"-0.009": 1.32609972076,
			"-0.008": 1.22719053934,
			"-0.007": 1.24563020644,
			"-0.006": 1.41394646678,
			"-0.005": 1.52433610358,
			"-0.004": 3.51994142557,
			"-0.003": 6.8610110304,
			"-0.002": 47.2117152009,
			"-0.001": 106.630203709,
			"0.0": 116.965523736,
			"0.001": 95.2588745175,
			"0.002": 40.7916770637,
			"0.003": 1.85393711744,
			"0.004": 1.14299328861,
			"0.005": 1.43051537549,
			"0.006": 0.929847801881,
			"0.007": 0.956409797012,
			"0.008": 0.543562424575,
			"0.009": 0.645929251664,
			"0.01": 1.05494294193,
			"0.011": 0.575689611161,
			"0.012": 0.667470008072,
			"0.013": 0.7305535326,
			"0.014": 0.523354813155,
			"0.015": 0.307423748022,
			"0.016": 0.39959095742,
			"0.017": 0.534647588838,
			"0.018": 0.426935559721,
			"0.019": 0.0,
			"0.02": 0.0,
			"0.021": 0.0,
			"0.022": 0.0,
			"0.023": 0.0,
			"0.024": 0.0,
			"0.025": 0.0
		}
	}
}
