{
	 "smiles": "OC1CCN(CC1)C1=NC(=CC=N1)C(F)(F)F", 
	 "Tm": 372.65, 
	 "num_atms": 29, 
	 "gaussian": { 
		 "optdone": 1, 
		 "sigma_profile": "yes", 
		 "theory": "DFT", 
		 "functional": "B3LYP", 
		 "basiset": "6-31G**", 
		 "properties": { 
			 "R2extent": 5908.2812, 
			 "electric_dipole_moment_norm": 2.01647371666, 
			 "electric_quadrupole_moment_norm": 13.0423860708, 
			 "total_energy": -927.305178402, 
			 "HOMO_LUMO_gap": 0.17048, 
			 "cosmo_polarized_energy": -10.58, 
			 "cosmo_cavitation_energy": 32.99, 
			 "cosmo_dispersion_energy": -23.56, 
			 "cosmo_repulsion_energy": 1.78, 
			 "cosmo_total_nonelectrostatic_energy": 11.21, 
			 "SMD_solvation_energy": 4.15 
		},
		"coords": [
			{
				"x": 3.2610507035,
				"y": -1.077011927,
				"z": 1.9205918638,
				"element": "O" 
			},
			{
				"x": 1.8641150955,
				"y": -1.1484907811,
				"z": 1.663597061,
				"element": "C" 
			},
			{
				"x": 1.5453337355,
				"y": -1.134817528,
				"z": 0.163314056,
				"element": "C" 
			},
			{
				"x": 0.0323756788,
				"y": -1.2054405106,
				"z": -0.0914504151,
				"element": "C" 
			},
			{
				"x": -0.6647572034,
				"y": -0.1505059068,
				"z": 0.6442964847,
				"element": "N" 
			},
			{
				"x": -0.4225078184,
				"y": -0.1341981081,
				"z": 2.0866133835,
				"element": "C" 
			},
			{
				"x": 1.0817225242,
				"y": -0.0419905925,
				"z": 2.3823672309,
				"element": "C" 
			},
			{
				"x": -1.5230748894,
				"y": 0.7188009426,
				"z": 0.0366738944,
				"element": "C" 
			},
			{
				"x": -1.694456535,
				"y": 0.6003496578,
				"z": -1.2991560607,
				"element": "N" 
			},
			{
				"x": -2.5287042578,
				"y": 1.4627184313,
				"z": -1.8687044382,
				"element": "C" 
			},
			{
				"x": -3.2154865269,
				"y": 2.4521659467,
				"z": -1.1733866741,
				"element": "C" 
			},
			{
				"x": -2.9641660742,
				"y": 2.4829414265,
				"z": 0.2015807671,
				"element": "C" 
			},
			{
				"x": -2.1395413626,
				"y": 1.6435571333,
				"z": 0.8158454918,
				"element": "N" 
			},
			{
				"x": -2.6887412486,
				"y": 1.2936762568,
				"z": -3.3699076498,
				"element": "C" 
			},
			{
				"x": -3.5488054168,
				"y": 2.2029899979,
				"z": -3.8784695611,
				"element": "F" 
			},
			{
				"x": -3.1607889486,
				"y": 0.0706305829,
				"z": -3.6740746236,
				"element": "F" 
			},
			{
				"x": -1.5111791199,
				"y": 1.44678974,
				"z": -4.0040345441,
				"element": "F" 
			},
			{
				"x": 3.5808983164,
				"y": -0.2364359618,
				"z": 1.5648587266,
				"element": "H" 
			},
			{
				"x": 1.5569411809,
				"y": -2.1187316088,
				"z": 2.0775151594,
				"element": "H" 
			},
			{
				"x": 2.046953074,
				"y": -1.9741034792,
				"z": -0.3302428661,
				"element": "H" 
			},
			{
				"x": 1.939299485,
				"y": -0.2090747081,
				"z": -0.279608416,
				"element": "H" 
			},
			{
				"x": -0.3523580566,
				"y": -2.1815269093,
				"z": 0.2427754856,
				"element": "H" 
			},
			{
				"x": -0.1997056286,
				"y": -1.1001951802,
				"z": -1.1493090578,
				"element": "H" 
			},
			{
				"x": -0.8269684278,
				"y": -1.0609217863,
				"z": 2.5227874502,
				"element": "H" 
			},
			{
				"x": -0.9672920324,
				"y": 0.7032781923,
				"z": 2.5176879966,
				"element": "H" 
			},
			{
				"x": 1.4528282235,
				"y": 0.9367921615,
				"z": 2.0467258211,
				"element": "H" 
			},
			{
				"x": 1.2553978704,
				"y": -0.1064781245,
				"z": 3.4619227965,
				"element": "H" 
			},
			{
				"x": -3.8918180333,
				"y": 3.1416471222,
				"z": -1.6587302699,
				"element": "H" 
			},
			{
				"x": -3.4534643073,
				"y": 3.2211855206,
				"z": 0.8358209074,
				"element": "H" 
			}
		],
		 "valence_orbital": [ 
			{
				"type": "occ",
				"energy": -0.31736,
				"method": "rhf"
			},
			{
				"type": "occ",
				"energy": -0.31135,
				"method": "rhf"
			},
			{
				"type": "occ",
				"energy": -0.27102,
				"method": "rhf"
			},
			{
				"type": "occ",
				"energy": -0.25356,
				"method": "rhf"
			},
			{
				"type": "occ",
				"energy": -0.22245,
				"method": "rhf"
			},
			{
				"type": "unocc",
				"energy": -0.05197,
				"method": "rhf"
			},
			{
				"type": "unocc",
				"energy": -0.01132,
				"method": "rhf"
			},
			{
				"type": "unocc",
				"energy": 0.07227,
				"method": "rhf"
			},
			{
				"type": "unocc",
				"energy": 0.08922,
				"method": "rhf"
			},
			{
				"type": "unocc",
				"energy": 0.10673,
				"method": "rhf"
			}
		],
		"cosmo_sigma_profile": { 
			"-0.025": 0.0,
			"-0.024": 0.0,
			"-0.023": 0.0,
			"-0.022": 0.0,
			"-0.021": 0.0,
			"-0.02": 0.0,
			"-0.019": 0.0,
			"-0.018": 0.0,
			"-0.017": 0.0,
			"-0.016": 0.0,
			"-0.015": 0.451655434441,
			"-0.014": 1.14947279605,
			"-0.013": 0.711728807346,
			"-0.012": 1.01536169636,
			"-0.011": 1.32348577299,
			"-0.01": 0.712310221394,
			"-0.009": 1.18010359294,
			"-0.008": 2.3981826181,
			"-0.007": 5.52446550077,
			"-0.006": 5.71239455957,
			"-0.005": 9.1220528488,
			"-0.004": 21.167600484,
			"-0.003": 26.4407706846,
			"-0.002": 25.986927135,
			"-0.001": 23.287925797,
			"0.0": 23.1841814244,
			"0.001": 19.0147516669,
			"0.002": 26.7040022086,
			"0.003": 24.9252161155,
			"0.004": 7.19500103496,
			"0.005": 5.89694690607,
			"0.006": 4.94987602878,
			"0.007": 6.24416734765,
			"0.008": 3.70785492869,
			"0.009": 2.06622844673,
			"0.01": 2.65983934391,
			"0.011": 1.46485315784,
			"0.012": 1.60738751818,
			"0.013": 1.57227570329,
			"0.014": 2.46098858262,
			"0.015": 0.747488571447,
			"0.016": 0.0,
			"0.017": 0.0,
			"0.018": 0.0,
			"0.019": 0.0,
			"0.02": 0.0,
			"0.021": 0.0,
			"0.022": 0.0,
			"0.023": 0.0,
			"0.024": 0.0,
			"0.025": 0.0
		}
	}
}
