{
	 "smiles": "CC(C)OCC1=CC=C(C=C1)C(O)=O", 
	 "Tm": 388.15, 
	 "num_atms": 28, 
	 "gaussian": { 
		 "optdone": 1, 
		 "sigma_profile": "yes", 
		 "theory": "DFT", 
		 "functional": "B3LYP", 
		 "basiset": "6-31G**", 
		 "properties": { 
			 "R2extent": 5019.2006, 
			 "electric_dipole_moment_norm": 3.23783544363, 
			 "electric_quadrupole_moment_norm": 14.6708632943, 
			 "total_energy": -653.296816323, 
			 "HOMO_LUMO_gap": 0.20296, 
			 "cosmo_polarized_energy": -11.02, 
			 "cosmo_cavitation_energy": 31.53, 
			 "cosmo_dispersion_energy": -22.78, 
			 "cosmo_repulsion_energy": 1.81, 
			 "cosmo_total_nonelectrostatic_energy": 10.56, 
			 "SMD_solvation_energy": 6.58 
		},
		"coords": [
			{
				"x": 1.9025923668,
				"y": -3.3204342276,
				"z": -0.7292713245,
				"element": "C" 
			},
			{
				"x": 2.2606352844,
				"y": -1.9045054764,
				"z": -0.2670745355,
				"element": "C" 
			},
			{
				"x": 2.8967099734,
				"y": -1.8796483282,
				"z": 1.1266664426,
				"element": "C" 
			},
			{
				"x": 1.1582155418,
				"y": -0.9935453709,
				"z": -0.3816397967,
				"element": "O" 
			},
			{
				"x": 0.0098693905,
				"y": -1.2639005891,
				"z": 0.393821515,
				"element": "C" 
			},
			{
				"x": -1.004937761,
				"y": -0.1550641906,
				"z": 0.2121997124,
				"element": "C" 
			},
			{
				"x": -2.2699387213,
				"y": -0.2824326278,
				"z": 0.8060492007,
				"element": "C" 
			},
			{
				"x": -3.2198525917,
				"y": 0.7216796931,
				"z": 0.6718390852,
				"element": "C" 
			},
			{
				"x": -2.9217206321,
				"y": 1.8774441093,
				"z": -0.0653456542,
				"element": "C" 
			},
			{
				"x": -1.6613134266,
				"y": 2.0079632006,
				"z": -0.6617089994,
				"element": "C" 
			},
			{
				"x": -0.7104295857,
				"y": 0.9980061308,
				"z": -0.522040608,
				"element": "C" 
			},
			{
				"x": -3.9705797719,
				"y": 2.9208358542,
				"z": -0.1813250106,
				"element": "C" 
			},
			{
				"x": -3.5786472226,
				"y": 3.9946730865,
				"z": -0.9152694566,
				"element": "O" 
			},
			{
				"x": -5.0785710302,
				"y": 2.8557626008,
				"z": 0.316343454,
				"element": "O" 
			},
			{
				"x": 1.4106962869,
				"y": -3.2911335826,
				"z": -1.7060149276,
				"element": "H" 
			},
			{
				"x": 2.8104536016,
				"y": -3.9253430564,
				"z": -0.8206599735,
				"element": "H" 
			},
			{
				"x": 1.2401033121,
				"y": -3.8302643605,
				"z": -0.0217619958,
				"element": "H" 
			},
			{
				"x": 2.9845345147,
				"y": -1.4883856985,
				"z": -0.9774181914,
				"element": "H" 
			},
			{
				"x": 3.0960304442,
				"y": -0.8497251805,
				"z": 1.4366795828,
				"element": "H" 
			},
			{
				"x": 3.8461865151,
				"y": -2.4245896686,
				"z": 1.1147763728,
				"element": "H" 
			},
			{
				"x": 2.2590583104,
				"y": -2.3520831934,
				"z": 1.8812470222,
				"element": "H" 
			},
			{
				"x": -0.4532762291,
				"y": -2.2213536251,
				"z": 0.1063955149,
				"element": "H" 
			},
			{
				"x": 0.2578703576,
				"y": -1.3439625202,
				"z": 1.4646716979,
				"element": "H" 
			},
			{
				"x": -2.5102862622,
				"y": -1.1769520847,
				"z": 1.3764482841,
				"element": "H" 
			},
			{
				"x": -4.2007838071,
				"y": 0.6334570301,
				"z": 1.1265015786,
				"element": "H" 
			},
			{
				"x": -1.4294921733,
				"y": 2.8998837103,
				"z": -1.2330249255,
				"element": "H" 
			},
			{
				"x": 0.266062595,
				"y": 1.0912574236,
				"z": -0.9816894679,
				"element": "H" 
			},
			{
				"x": -4.3391892798,
				"y": 4.598460942,
				"z": -0.9181945959,
				"element": "H" 
			}
		],
		 "valence_orbital": [ 
			{
				"type": "occ",
				"energy": -0.30626,
				"method": "rhf"
			},
			{
				"type": "occ",
				"energy": -0.27049,
				"method": "rhf"
			},
			{
				"type": "occ",
				"energy": -0.26641,
				"method": "rhf"
			},
			{
				"type": "occ",
				"energy": -0.25331,
				"method": "rhf"
			},
			{
				"type": "occ",
				"energy": -0.24461,
				"method": "rhf"
			},
			{
				"type": "unocc",
				"energy": -0.04165,
				"method": "rhf"
			},
			{
				"type": "unocc",
				"energy": -0.00359,
				"method": "rhf"
			},
			{
				"type": "unocc",
				"energy": 0.06037,
				"method": "rhf"
			},
			{
				"type": "unocc",
				"energy": 0.07846,
				"method": "rhf"
			},
			{
				"type": "unocc",
				"energy": 0.08333,
				"method": "rhf"
			}
		],
		"cosmo_sigma_profile": { 
			"-0.025": 0.0,
			"-0.024": 0.0,
			"-0.023": 0.0,
			"-0.022": 0.0,
			"-0.021": 0.0,
			"-0.02": 0.0,
			"-0.019": 0.0,
			"-0.018": 0.538660000079,
			"-0.017": 0.921453489767,
			"-0.016": 0.901341702905,
			"-0.015": 0.961232028136,
			"-0.014": 0.759352043474,
			"-0.013": 0.358508209827,
			"-0.012": 0.36442472393,
			"-0.011": 0.976663955591,
			"-0.01": 1.02439393353,
			"-0.009": 0.464278999954,
			"-0.008": 0.283372739246,
			"-0.007": 1.4644782917,
			"-0.006": 5.93306879411,
			"-0.005": 11.7511152228,
			"-0.004": 23.5073505709,
			"-0.003": 25.766743729,
			"-0.002": 22.4033573656,
			"-0.001": 23.3824536145,
			"0.0": 23.6395401993,
			"0.001": 22.3146345528,
			"0.002": 15.0866476729,
			"0.003": 14.8912625745,
			"0.004": 15.9797521439,
			"0.005": 5.69595747979,
			"0.006": 5.37141082547,
			"0.007": 4.43488828919,
			"0.008": 4.77342950832,
			"0.009": 3.30475892625,
			"0.01": 2.24981368663,
			"0.011": 3.23440625637,
			"0.012": 5.23051079799,
			"0.013": 0.356690268593,
			"0.014": 0.0,
			"0.015": 0.0,
			"0.016": 0.0,
			"0.017": 0.0,
			"0.018": 0.0,
			"0.019": 0.0,
			"0.02": 0.0,
			"0.021": 0.0,
			"0.022": 0.0,
			"0.023": 0.0,
			"0.024": 0.0,
			"0.025": 0.0
		}
	}
}
