{
	 "smiles": "CC(C)COC(N)=O", 
	 "Tm": 340.15, 
	 "num_atms": 19, 
	 "gaussian": { 
		 "optdone": 1, 
		 "sigma_profile": "yes", 
		 "theory": "DFT", 
		 "functional": "B3LYP", 
		 "basiset": "6-31G**", 
		 "properties": { 
			 "R2extent": 1425.0401, 
			 "electric_dipole_moment_norm": 2.51514768552, 
			 "electric_quadrupole_moment_norm": 11.2963897458, 
			 "total_energy": -402.395861398, 
			 "HOMO_LUMO_gap": 0.3287, 
			 "cosmo_polarized_energy": -10.3, 
			 "cosmo_cavitation_energy": 22.12, 
			 "cosmo_dispersion_energy": -15.89, 
			 "cosmo_repulsion_energy": 1.37, 
			 "cosmo_total_nonelectrostatic_energy": 7.59, 
			 "SMD_solvation_energy": 5.35 
		},
		"coords": [
			{
				"x": 1.3056487448,
				"y": -2.3198413535,
				"z": 0.0528286895,
				"element": "C" 
			},
			{
				"x": 1.2410859608,
				"y": -1.5208221288,
				"z": 1.3631216311,
				"element": "C" 
			},
			{
				"x": 2.3714919421,
				"y": -0.4847479975,
				"z": 1.4533343165,
				"element": "C" 
			},
			{
				"x": -0.1315183849,
				"y": -0.8818906813,
				"z": 1.5704407592,
				"element": "C" 
			},
			{
				"x": -0.3607542122,
				"y": 0.0637504375,
				"z": 0.5058119874,
				"element": "O" 
			},
			{
				"x": -1.5530524169,
				"y": 0.7153585862,
				"z": 0.5577927077,
				"element": "C" 
			},
			{
				"x": -1.6583804525,
				"y": 1.5791778953,
				"z": -0.4919168917,
				"element": "N" 
			},
			{
				"x": -2.3973995364,
				"y": 0.5496113086,
				"z": 1.4173018319,
				"element": "O" 
			},
			{
				"x": 1.1674833157,
				"y": -1.6618890897,
				"z": -0.8106728947,
				"element": "H" 
			},
			{
				"x": 2.2746567987,
				"y": -2.8183801581,
				"z": -0.0529524181,
				"element": "H" 
			},
			{
				"x": 0.5262260011,
				"y": -3.0889024293,
				"z": 0.016342036,
				"element": "H" 
			},
			{
				"x": 1.3568570099,
				"y": -2.2261534531,
				"z": 2.1992146322,
				"element": "H" 
			},
			{
				"x": 2.3481611653,
				"y": 0.0480024693,
				"z": 2.4103711624,
				"element": "H" 
			},
			{
				"x": 3.3504607823,
				"y": -0.9661401842,
				"z": 1.3606755532,
				"element": "H" 
			},
			{
				"x": 2.2825728568,
				"y": 0.2579521336,
				"z": 0.6545060911,
				"element": "H" 
			},
			{
				"x": -0.1872062101,
				"y": -0.3572332571,
				"z": 2.5303043034,
				"element": "H" 
			},
			{
				"x": -0.9282934846,
				"y": -1.6333165126,
				"z": 1.5563648217,
				"element": "H" 
			},
			{
				"x": -2.4965705519,
				"y": 2.1277128172,
				"z": -0.5726748701,
				"element": "H" 
			},
			{
				"x": -0.920869328,
				"y": 1.6688515975,
				"z": -1.1695934487,
				"element": "H" 
			}
		],
		 "valence_orbital": [ 
			{
				"type": "occ",
				"energy": -0.33199,
				"method": "rhf"
			},
			{
				"type": "occ",
				"energy": -0.32575,
				"method": "rhf"
			},
			{
				"type": "occ",
				"energy": -0.28736,
				"method": "rhf"
			},
			{
				"type": "occ",
				"energy": -0.26734,
				"method": "rhf"
			},
			{
				"type": "occ",
				"energy": -0.26536,
				"method": "rhf"
			},
			{
				"type": "unocc",
				"energy": 0.06334,
				"method": "rhf"
			},
			{
				"type": "unocc",
				"energy": 0.07675,
				"method": "rhf"
			},
			{
				"type": "unocc",
				"energy": 0.08954,
				"method": "rhf"
			},
			{
				"type": "unocc",
				"energy": 0.12882,
				"method": "rhf"
			},
			{
				"type": "unocc",
				"energy": 0.13484,
				"method": "rhf"
			}
		],
		"cosmo_sigma_profile": { 
			"-0.025": 0.0,
			"-0.024": 0.0,
			"-0.023": 0.0,
			"-0.022": 0.0,
			"-0.021": 0.0,
			"-0.02": 0.0,
			"-0.019": 0.0,
			"-0.018": 0.0,
			"-0.017": 0.0,
			"-0.016": 0.0,
			"-0.015": 0.262103760721,
			"-0.014": 1.96349932513,
			"-0.013": 2.59356913575,
			"-0.012": 1.50865935096,
			"-0.011": 1.77195858891,
			"-0.01": 2.60983467004,
			"-0.009": 1.74078576509,
			"-0.008": 1.46447383841,
			"-0.007": 1.90553213238,
			"-0.006": 1.29438507191,
			"-0.005": 1.770262186,
			"-0.004": 7.83151639907,
			"-0.003": 20.2288944755,
			"-0.002": 18.406167539,
			"-0.001": 18.1652421576,
			"0.0": 16.9621661377,
			"0.001": 20.3088511659,
			"0.002": 12.4027643951,
			"0.003": 7.00800734883,
			"0.004": 5.91028764666,
			"0.005": 5.80377106569,
			"0.006": 2.16931608165,
			"0.007": 1.04453017135,
			"0.008": 0.977792454499,
			"0.009": 1.13870400853,
			"0.01": 2.01530421762,
			"0.011": 1.16051690275,
			"0.012": 1.71635671765,
			"0.013": 4.91217530214,
			"0.014": 4.27604381187,
			"0.015": 0.100041213582,
			"0.016": 0.0,
			"0.017": 0.0,
			"0.018": 0.0,
			"0.019": 0.0,
			"0.02": 0.0,
			"0.021": 0.0,
			"0.022": 0.0,
			"0.023": 0.0,
			"0.024": 0.0,
			"0.025": 0.0
		}
	}
}
