{
	 "smiles": "OC(=O)C1=CC(OC2CCCC2)=CC=C1", 
	 "Tm": 353.15, 
	 "num_atms": 29, 
	 "gaussian": { 
		 "optdone": 1, 
		 "sigma_profile": "yes", 
		 "theory": "DFT", 
		 "functional": "B3LYP", 
		 "basiset": "6-31G**", 
		 "properties": { 
			 "R2extent": 4281.435, 
			 "electric_dipole_moment_norm": 3.65739098676, 
			 "electric_quadrupole_moment_norm": 20.6148143053, 
			 "total_energy": -691.395236183, 
			 "HOMO_LUMO_gap": 0.1852, 
			 "cosmo_polarized_energy": -13.75, 
			 "cosmo_cavitation_energy": 31.69, 
			 "cosmo_dispersion_energy": -23.16, 
			 "cosmo_repulsion_energy": 1.83, 
			 "cosmo_total_nonelectrostatic_energy": 10.36, 
			 "SMD_solvation_energy": 6.07 
		},
		"coords": [
			{
				"x": 2.9502413269,
				"y": 2.2963167849,
				"z": 2.0907639373,
				"element": "O" 
			},
			{
				"x": 1.9234399492,
				"y": 1.955603066,
				"z": 1.2669356744,
				"element": "C" 
			},
			{
				"x": 1.3561606064,
				"y": 2.8098750935,
				"z": 0.6259148711,
				"element": "O" 
			},
			{
				"x": 1.5630906136,
				"y": 0.5002191986,
				"z": 1.2077785422,
				"element": "C" 
			},
			{
				"x": 0.8263244604,
				"y": 0.0791475869,
				"z": 0.0917825835,
				"element": "C" 
			},
			{
				"x": 0.4533777223,
				"y": -1.2615328524,
				"z": -0.0331249135,
				"element": "C" 
			},
			{
				"x": -0.2391991516,
				"y": -1.7869616925,
				"z": -1.0781661808,
				"element": "O" 
			},
			{
				"x": -0.6295951379,
				"y": -0.9557726191,
				"z": -2.1776302623,
				"element": "C" 
			},
			{
				"x": -1.8945692055,
				"y": -0.1195179447,
				"z": -1.9201533809,
				"element": "C" 
			},
			{
				"x": -2.4384723981,
				"y": 0.1866383479,
				"z": -3.3352360588,
				"element": "C" 
			},
			{
				"x": -1.8440029696,
				"y": -0.9135163439,
				"z": -4.2720598869,
				"element": "C" 
			},
			{
				"x": -1.0281802586,
				"y": -1.8488735632,
				"z": -3.3556157413,
				"element": "C" 
			},
			{
				"x": 0.8068317945,
				"y": -2.1741732959,
				"z": 0.9771193415,
				"element": "C" 
			},
			{
				"x": 1.5161095871,
				"y": -1.745507877,
				"z": 2.0917127171,
				"element": "C" 
			},
			{
				"x": 1.9026637986,
				"y": -0.4079144591,
				"z": 2.2168012931,
				"element": "C" 
			},
			{
				"x": 3.3982294448,
				"y": 1.4986698381,
				"z": 2.4050209815,
				"element": "H" 
			},
			{
				"x": 0.5606565217,
				"y": 0.8256425781,
				"z": -0.6449071181,
				"element": "H" 
			},
			{
				"x": 0.2142678066,
				"y": -0.3122403543,
				"z": -2.4628027079,
				"element": "H" 
			},
			{
				"x": -1.7149250597,
				"y": 0.7801799978,
				"z": -1.3259421849,
				"element": "H" 
			},
			{
				"x": -2.5946544939,
				"y": -0.7497810515,
				"z": -1.3592118796,
				"element": "H" 
			},
			{
				"x": -2.1200392066,
				"y": 1.1805574059,
				"z": -3.6648169395,
				"element": "H" 
			},
			{
				"x": -3.5319749249,
				"y": 0.1906769152,
				"z": -3.3460493605,
				"element": "H" 
			},
			{
				"x": -2.6192383182,
				"y": -1.4593784209,
				"z": -4.8167780122,
				"element": "H" 
			},
			{
				"x": -1.1943790985,
				"y": -0.4572405201,
				"z": -5.0262493022,
				"element": "H" 
			},
			{
				"x": -0.167049708,
				"y": -2.3061541372,
				"z": -3.8508594018,
				"element": "H" 
			},
			{
				"x": -1.6535040759,
				"y": -2.6594861827,
				"z": -2.9634988652,
				"element": "H" 
			},
			{
				"x": 0.5057147122,
				"y": -3.2103356834,
				"z": 0.8631914171,
				"element": "H" 
			},
			{
				"x": 1.7658580833,
				"y": -2.4564667774,
				"z": 2.8735592405,
				"element": "H" 
			},
			{
				"x": 2.4160175793,
				"y": -0.0843730379,
				"z": 3.1183215974,
				"element": "H" 
			}
		],
		 "valence_orbital": [ 
			{
				"type": "occ",
				"energy": -0.31674,
				"method": "rhf"
			},
			{
				"type": "occ",
				"energy": -0.31076,
				"method": "rhf"
			},
			{
				"type": "occ",
				"energy": -0.27401,
				"method": "rhf"
			},
			{
				"type": "occ",
				"energy": -0.26153,
				"method": "rhf"
			},
			{
				"type": "occ",
				"energy": -0.23179,
				"method": "rhf"
			},
			{
				"type": "unocc",
				"energy": -0.04659,
				"method": "rhf"
			},
			{
				"type": "unocc",
				"energy": -0.00725,
				"method": "rhf"
			},
			{
				"type": "unocc",
				"energy": 0.05524,
				"method": "rhf"
			},
			{
				"type": "unocc",
				"energy": 0.06502,
				"method": "rhf"
			},
			{
				"type": "unocc",
				"energy": 0.07469,
				"method": "rhf"
			}
		],
		"cosmo_sigma_profile": { 
			"-0.025": 0.0,
			"-0.024": 0.0,
			"-0.023": 0.0,
			"-0.022": 0.0,
			"-0.021": 0.0,
			"-0.02": 0.0,
			"-0.019": 0.00221616295978,
			"-0.018": 0.718898591311,
			"-0.017": 0.947070680433,
			"-0.016": 0.63596880578,
			"-0.015": 1.14870342357,
			"-0.014": 0.853087786056,
			"-0.013": 1.08017360177,
			"-0.012": 1.197288815,
			"-0.011": 1.49772718931,
			"-0.01": 0.885273180568,
			"-0.009": 1.00062017106,
			"-0.008": 1.46456207569,
			"-0.007": 4.23377698398,
			"-0.006": 8.14479242218,
			"-0.005": 10.2947017463,
			"-0.004": 12.813507611,
			"-0.003": 23.8448986458,
			"-0.002": 29.0200850806,
			"-0.001": 27.3007643443,
			"0.0": 21.3811484362,
			"0.001": 23.012631614,
			"0.002": 14.4449699265,
			"0.003": 16.3641406743,
			"0.004": 10.031546732,
			"0.005": 3.99415743624,
			"0.006": 3.67956090268,
			"0.007": 4.37592533487,
			"0.008": 3.30125740461,
			"0.009": 5.41718761198,
			"0.01": 4.99975253562,
			"0.011": 4.81146716253,
			"0.012": 5.07664423402,
			"0.013": 1.80712511482,
			"0.014": 0.103405106051,
			"0.015": 0.0,
			"0.016": 0.0,
			"0.017": 0.0,
			"0.018": 0.0,
			"0.019": 0.0,
			"0.02": 0.0,
			"0.021": 0.0,
			"0.022": 0.0,
			"0.023": 0.0,
			"0.024": 0.0,
			"0.025": 0.0
		}
	}
}
