{
	 "smiles": "CC(C)CC1=CC=C(C=C1)C(=O)C=CC1=CC(=CC=C1)[N+]([O-])=O", 
	 "Tm": 379.15, 
	 "num_atms": 42, 
	 "gaussian": { 
		 "optdone": 1, 
		 "sigma_profile": "yes", 
		 "theory": "DFT", 
		 "functional": "B3LYP", 
		 "basiset": "6-31G**", 
		 "properties": { 
			 "R2extent": 14612.2004, 
			 "electric_dipole_moment_norm": 7.10775027839, 
			 "electric_quadrupole_moment_norm": 26.2279548389, 
			 "total_energy": -1015.80190656, 
			 "HOMO_LUMO_gap": 0.15104, 
			 "cosmo_polarized_energy": -15.65, 
			 "cosmo_cavitation_energy": 47.0, 
			 "cosmo_dispersion_energy": -32.38, 
			 "cosmo_repulsion_energy": 2.47, 
			 "cosmo_total_nonelectrostatic_energy": 17.08, 
			 "SMD_solvation_energy": 10.52 
		},
		"coords": [
			{
				"x": 1.8364124912,
				"y": -4.6855442606,
				"z": 1.0061845901,
				"element": "C" 
			},
			{
				"x": 2.8818149441,
				"y": -3.8061548465,
				"z": 0.3071717407,
				"element": "C" 
			},
			{
				"x": 4.2859589063,
				"y": -4.4132887205,
				"z": 0.4350365328,
				"element": "C" 
			},
			{
				"x": 2.5358502297,
				"y": -3.5645916116,
				"z": -1.1850997636,
				"element": "C" 
			},
			{
				"x": 1.2525469292,
				"y": -2.7978161172,
				"z": -1.4153654403,
				"element": "C" 
			},
			{
				"x": 1.2060158559,
				"y": -1.4104414943,
				"z": -1.2137183267,
				"element": "C" 
			},
			{
				"x": 0.0252600426,
				"y": -0.693672944,
				"z": -1.3956367341,
				"element": "C" 
			},
			{
				"x": -1.1493919084,
				"y": -1.3489488662,
				"z": -1.7988921693,
				"element": "C" 
			},
			{
				"x": -1.1008412397,
				"y": -2.7318802682,
				"z": -2.032387561,
				"element": "C" 
			},
			{
				"x": 0.0772075967,
				"y": -3.4431530948,
				"z": -1.8313522926,
				"element": "C" 
			},
			{
				"x": -2.437310377,
				"y": -0.6373895071,
				"z": -2.077099298,
				"element": "C" 
			},
			{
				"x": -3.2408100929,
				"y": -1.0962991226,
				"z": -2.8842857136,
				"element": "O" 
			},
			{
				"x": -2.7937716039,
				"y": 0.623755453,
				"z": -1.3717151097,
				"element": "C" 
			},
			{
				"x": -2.3994974081,
				"y": 0.9610475865,
				"z": -0.1290409615,
				"element": "C" 
			},
			{
				"x": -2.8342468846,
				"y": 2.1302038165,
				"z": 0.6458744058,
				"element": "C" 
			},
			{
				"x": -3.6705045774,
				"y": 3.1285870792,
				"z": 0.1180133935,
				"element": "C" 
			},
			{
				"x": -4.0324003801,
				"y": 4.2049293419,
				"z": 0.9163019517,
				"element": "C" 
			},
			{
				"x": -3.6001317119,
				"y": 4.3454572574,
				"z": 2.2354464476,
				"element": "C" 
			},
			{
				"x": -2.7697516383,
				"y": 3.3584488726,
				"z": 2.7597611896,
				"element": "C" 
			},
			{
				"x": -2.3918828098,
				"y": 2.2688782127,
				"z": 1.9751645593,
				"element": "C" 
			},
			{
				"x": -4.9087460346,
				"y": 5.2454476774,
				"z": 0.3436778377,
				"element": "N" 
			},
			{
				"x": -5.2725787071,
				"y": 5.1072723308,
				"z": -0.8227308999,
				"element": "O" 
			},
			{
				"x": -5.2203318193,
				"y": 6.1875546886,
				"z": 1.0703378429,
				"element": "O" 
			},
			{
				"x": 1.7988296909,
				"y": -5.6830583976,
				"z": 0.5507837303,
				"element": "H" 
			},
			{
				"x": 0.8339421941,
				"y": -4.2519890765,
				"z": 0.9432611018,
				"element": "H" 
			},
			{
				"x": 2.0812280942,
				"y": -4.8155485545,
				"z": 2.0657310141,
				"element": "H" 
			},
			{
				"x": 2.8883231633,
				"y": -2.8254986271,
				"z": 0.8048366152,
				"element": "H" 
			},
			{
				"x": 4.3365245358,
				"y": -5.3910970873,
				"z": -0.0593078733,
				"element": "H" 
			},
			{
				"x": 5.0458054186,
				"y": -3.7697029916,
				"z": -0.0217534599,
				"element": "H" 
			},
			{
				"x": 4.5577826597,
				"y": -4.5600578991,
				"z": 1.4857396324,
				"element": "H" 
			},
			{
				"x": 3.3668144146,
				"y": -3.0154534808,
				"z": -1.6461701902,
				"element": "H" 
			},
			{
				"x": 2.4819889762,
				"y": -4.5345633248,
				"z": -1.6958490926,
				"element": "H" 
			},
			{
				"x": 2.1111785675,
				"y": -0.8827746259,
				"z": -0.9226643304,
				"element": "H" 
			},
			{
				"x": 0.0265491483,
				"y": 0.3828970342,
				"z": -1.2610964856,
				"element": "H" 
			},
			{
				"x": -2.0019373558,
				"y": -3.2290204048,
				"z": -2.3761626381,
				"element": "H" 
			},
			{
				"x": 0.0936725923,
				"y": -4.5154484697,
				"z": -2.0087107385,
				"element": "H" 
			},
			{
				"x": -3.5397827268,
				"y": 1.2073082579,
				"z": -1.9055614241,
				"element": "H" 
			},
			{
				"x": -1.705521606,
				"y": 0.3036037382,
				"z": 0.3897658149,
				"element": "H" 
			},
			{
				"x": -4.0416747389,
				"y": 3.0881522721,
				"z": -0.8979363826,
				"element": "H" 
			},
			{
				"x": -3.9135294134,
				"y": 5.2057924578,
				"z": 2.8126926342,
				"element": "H" 
			},
			{
				"x": -2.4156636995,
				"y": 3.4389046755,
				"z": 3.782473752,
				"element": "H" 
			},
			{
				"x": -1.7432997179,
				"y": 1.5052530409,
				"z": 2.3958820992,
				"element": "H" 
			}
		],
		 "valence_orbital": [ 
			{
				"type": "occ",
				"energy": -0.29005,
				"method": "rhf"
			},
			{
				"type": "occ",
				"energy": -0.26276,
				"method": "rhf"
			},
			{
				"type": "occ",
				"energy": -0.25983,
				"method": "rhf"
			},
			{
				"type": "occ",
				"energy": -0.25419,
				"method": "rhf"
			},
			{
				"type": "occ",
				"energy": -0.24591,
				"method": "rhf"
			},
			{
				"type": "unocc",
				"energy": -0.09487,
				"method": "rhf"
			},
			{
				"type": "unocc",
				"energy": -0.08456,
				"method": "rhf"
			},
			{
				"type": "unocc",
				"energy": -0.03931,
				"method": "rhf"
			},
			{
				"type": "unocc",
				"energy": -0.01386,
				"method": "rhf"
			},
			{
				"type": "unocc",
				"energy": -0.01142,
				"method": "rhf"
			}
		],
		"cosmo_sigma_profile": { 
			"-0.025": 0.0,
			"-0.024": 0.0,
			"-0.023": 0.0,
			"-0.022": 0.0,
			"-0.021": 0.0,
			"-0.02": 0.0,
			"-0.019": 0.0,
			"-0.018": 0.0,
			"-0.017": 0.0,
			"-0.016": 0.0,
			"-0.015": 0.0,
			"-0.014": 0.0,
			"-0.013": 0.0,
			"-0.012": 0.0,
			"-0.011": 0.0,
			"-0.01": 0.438294513661,
			"-0.009": 2.0599686955,
			"-0.008": 6.3318967654,
			"-0.007": 9.77908733506,
			"-0.006": 13.933678812,
			"-0.005": 17.6316027495,
			"-0.004": 20.5452744467,
			"-0.003": 30.6060622673,
			"-0.002": 42.6558813246,
			"-0.001": 38.6878522727,
			"0.0": 42.9838175477,
			"0.001": 44.3395921585,
			"0.002": 25.7527669693,
			"0.003": 11.9812058229,
			"0.004": 14.2124753606,
			"0.005": 7.11600971548,
			"0.006": 5.49628233478,
			"0.007": 10.9737998464,
			"0.008": 8.78352728762,
			"0.009": 4.81228356028,
			"0.01": 4.14636052255,
			"0.011": 2.53386397301,
			"0.012": 4.33688695837,
			"0.013": 2.8735712043,
			"0.014": 0.314997236764,
			"0.015": 0.0,
			"0.016": 0.0,
			"0.017": 0.0,
			"0.018": 0.0,
			"0.019": 0.0,
			"0.02": 0.0,
			"0.021": 0.0,
			"0.022": 0.0,
			"0.023": 0.0,
			"0.024": 0.0,
			"0.025": 0.0
		}
	}
}
