{
	 "smiles": "CC1CN(NC1=O)C1=CC=CC=C1", 
	 "Tm": 407.15, 
	 "num_atms": 25, 
	 "gaussian": { 
		 "optdone": 1, 
		 "sigma_profile": "yes", 
		 "theory": "DFT", 
		 "functional": "B3LYP", 
		 "basiset": "6-31G**", 
		 "properties": { 
			 "R2extent": 2930.8079, 
			 "electric_dipole_moment_norm": 2.74515234004, 
			 "electric_quadrupole_moment_norm": 9.70005808745, 
			 "total_energy": -572.999522112, 
			 "HOMO_LUMO_gap": 0.1993, 
			 "cosmo_polarized_energy": -11.74, 
			 "cosmo_cavitation_energy": 27.74, 
			 "cosmo_dispersion_energy": -20.01, 
			 "cosmo_repulsion_energy": 1.59, 
			 "cosmo_total_nonelectrostatic_energy": 9.32, 
			 "SMD_solvation_energy": 4.67 
		},
		"coords": [
			{
				"x": -0.3646300709,
				"y": -1.0426507034,
				"z": -1.6036349457,
				"element": "C" 
			},
			{
				"x": 0.4374506377,
				"y": 0.2271598991,
				"z": -1.9312498457,
				"element": "C" 
			},
			{
				"x": -0.3015908795,
				"y": 1.5511900418,
				"z": -1.6610297587,
				"element": "C" 
			},
			{
				"x": 0.0664608198,
				"y": 1.9286034504,
				"z": -0.2660684116,
				"element": "N" 
			},
			{
				"x": 1.2984663619,
				"y": 1.269957275,
				"z": -0.0239741614,
				"element": "N" 
			},
			{
				"x": 1.6560724576,
				"y": 0.3699302381,
				"z": -1.0081170885,
				"element": "C" 
			},
			{
				"x": 2.738504889,
				"y": -0.1772967269,
				"z": -1.0983279039,
				"element": "O" 
			},
			{
				"x": -0.9147226149,
				"y": 1.7495449925,
				"z": 0.7531067481,
				"element": "C" 
			},
			{
				"x": -0.655780985,
				"y": 1.0388605779,
				"z": 1.9337714489,
				"element": "C" 
			},
			{
				"x": -1.6347710502,
				"y": 0.9488775576,
				"z": 2.9250934517,
				"element": "C" 
			},
			{
				"x": -2.8788031784,
				"y": 1.5571567391,
				"z": 2.7610689892,
				"element": "C" 
			},
			{
				"x": -3.1329654414,
				"y": 2.2742185302,
				"z": 1.5889143108,
				"element": "C" 
			},
			{
				"x": -2.1611440885,
				"y": 2.3815537941,
				"z": 0.5978090845,
				"element": "C" 
			},
			{
				"x": 0.2724243438,
				"y": -1.9270171757,
				"z": -1.6957207709,
				"element": "H" 
			},
			{
				"x": -0.7595519,
				"y": -1.010470037,
				"z": -0.5835894044,
				"element": "H" 
			},
			{
				"x": -1.2085198745,
				"y": -1.153833326,
				"z": -2.2919034398,
				"element": "H" 
			},
			{
				"x": 0.8050367711,
				"y": 0.1758030228,
				"z": -2.9597797173,
				"element": "H" 
			},
			{
				"x": 0.0465868444,
				"y": 2.3359148095,
				"z": -2.3421876016,
				"element": "H" 
			},
			{
				"x": -1.3858605741,
				"y": 1.4698231661,
				"z": -1.7460497826,
				"element": "H" 
			},
			{
				"x": 2.0138234108,
				"y": 1.8042671264,
				"z": 0.453455627,
				"element": "H" 
			},
			{
				"x": 0.3038973772,
				"y": 0.5534554527,
				"z": 2.0663634672,
				"element": "H" 
			},
			{
				"x": -1.4179776748,
				"y": 0.3895447631,
				"z": 3.8310944904,
				"element": "H" 
			},
			{
				"x": -3.635605003,
				"y": 1.4825662046,
				"z": 3.5357271807,
				"element": "H" 
			},
			{
				"x": -4.0910700899,
				"y": 2.76682747,
				"z": 1.4481765962,
				"element": "H" 
			},
			{
				"x": -2.3572304881,
				"y": 2.973312858,
				"z": -0.2912485624,
				"element": "H" 
			}
		],
		 "valence_orbital": [ 
			{
				"type": "occ",
				"energy": -0.31507,
				"method": "rhf"
			},
			{
				"type": "occ",
				"energy": -0.26355,
				"method": "rhf"
			},
			{
				"type": "occ",
				"energy": -0.25386,
				"method": "rhf"
			},
			{
				"type": "occ",
				"energy": -0.25009,
				"method": "rhf"
			},
			{
				"type": "occ",
				"energy": -0.20396,
				"method": "rhf"
			},
			{
				"type": "unocc",
				"energy": -0.00466,
				"method": "rhf"
			},
			{
				"type": "unocc",
				"energy": 0.00437,
				"method": "rhf"
			},
			{
				"type": "unocc",
				"energy": 0.01419,
				"method": "rhf"
			},
			{
				"type": "unocc",
				"energy": 0.08138,
				"method": "rhf"
			},
			{
				"type": "unocc",
				"energy": 0.09654,
				"method": "rhf"
			}
		],
		"cosmo_sigma_profile": { 
			"-0.025": 0.0,
			"-0.024": 0.0,
			"-0.023": 0.0,
			"-0.022": 0.0,
			"-0.021": 0.0,
			"-0.02": 0.0,
			"-0.019": 0.0,
			"-0.018": 0.0,
			"-0.017": 0.0,
			"-0.016": 0.0127691365769,
			"-0.015": 1.03440233763,
			"-0.014": 1.03367133964,
			"-0.013": 1.34754262799,
			"-0.012": 0.857194542198,
			"-0.011": 0.726835515625,
			"-0.01": 0.345605451184,
			"-0.009": 0.892427021701,
			"-0.008": 1.34052281471,
			"-0.007": 0.834760077048,
			"-0.006": 8.05792837464,
			"-0.005": 20.3048546865,
			"-0.004": 22.0906928479,
			"-0.003": 24.2132708344,
			"-0.002": 18.5626710738,
			"-0.001": 20.0042815439,
			"0.0": 16.0937775057,
			"0.001": 10.3904253336,
			"0.002": 9.30982076959,
			"0.003": 8.63501306651,
			"0.004": 8.68836479233,
			"0.005": 10.5187307603,
			"0.006": 10.217517674,
			"0.007": 4.53314617905,
			"0.008": 1.54115684254,
			"0.009": 1.95264299365,
			"0.01": 1.75338968709,
			"0.011": 2.17047451885,
			"0.012": 3.10396239568,
			"0.013": 5.81878629629,
			"0.014": 2.86570568717,
			"0.015": 0.109045628255,
			"0.016": 0.0,
			"0.017": 0.0,
			"0.018": 0.0,
			"0.019": 0.0,
			"0.02": 0.0,
			"0.021": 0.0,
			"0.022": 0.0,
			"0.023": 0.0,
			"0.024": 0.0,
			"0.025": 0.0
		}
	}
}
