{
	 "smiles": "CCCCCCCOO", 
	 "Tm": 308.65, 
	 "num_atms": 25, 
	 "gaussian": { 
		 "optdone": 1, 
		 "sigma_profile": "yes", 
		 "theory": "DFT", 
		 "functional": "B3LYP", 
		 "basiset": "6-31G**", 
		 "properties": { 
			 "R2extent": 2193.028, 
			 "electric_dipole_moment_norm": 1.78785414114, 
			 "electric_quadrupole_moment_norm": 7.73968888522, 
			 "total_energy": -426.746961409, 
			 "HOMO_LUMO_gap": 0.28073, 
			 "cosmo_polarized_energy": -6.48, 
			 "cosmo_cavitation_energy": 26.06, 
			 "cosmo_dispersion_energy": -18.64, 
			 "cosmo_repulsion_energy": 1.58, 
			 "cosmo_total_nonelectrostatic_energy": 9.0, 
			 "SMD_solvation_energy": 3.86 
		},
		"coords": [
			{
				"x": -2.9635855905,
				"y": 0.1549674594,
				"z": 0.0987664465,
				"element": "C" 
			},
			{
				"x": -1.5363871313,
				"y": -0.2918654459,
				"z": -0.2375797939,
				"element": "C" 
			},
			{
				"x": -1.1436268978,
				"y": -1.5943580973,
				"z": 0.4754618108,
				"element": "C" 
			},
			{
				"x": 0.1886192092,
				"y": -2.2380383534,
				"z": 0.04946159,
				"element": "C" 
			},
			{
				"x": 1.4685735233,
				"y": -1.4314918086,
				"z": 0.3659658338,
				"element": "C" 
			},
			{
				"x": 1.9155174569,
				"y": -0.3744841369,
				"z": -0.6627188597,
				"element": "C" 
			},
			{
				"x": 2.4633819282,
				"y": -0.9245309911,
				"z": -1.9799724689,
				"element": "C" 
			},
			{
				"x": 1.5005573027,
				"y": -1.5663639048,
				"z": -2.8175619856,
				"element": "O" 
			},
			{
				"x": 0.5733958197,
				"y": -0.5323148299,
				"z": -3.2646047672,
				"element": "O" 
			},
			{
				"x": -3.221015801,
				"y": 1.0923909664,
				"z": -0.4057262389,
				"element": "H" 
			},
			{
				"x": -3.6971154278,
				"y": -0.5998663229,
				"z": -0.2078939729,
				"element": "H" 
			},
			{
				"x": -3.0875566337,
				"y": 0.3135046202,
				"z": 1.1766661839,
				"element": "H" 
			},
			{
				"x": -0.8403751957,
				"y": 0.5095110229,
				"z": 0.0403294875,
				"element": "H" 
			},
			{
				"x": -1.4325841165,
				"y": -0.4233559699,
				"z": -1.3220040506,
				"element": "H" 
			},
			{
				"x": -1.9405953406,
				"y": -2.3325096311,
				"z": 0.3061218207,
				"element": "H" 
			},
			{
				"x": -1.1281934134,
				"y": -1.4176687421,
				"z": 1.5615469688,
				"element": "H" 
			},
			{
				"x": 0.2634121275,
				"y": -3.2002508862,
				"z": 0.5729483425,
				"element": "H" 
			},
			{
				"x": 0.1602410196,
				"y": -2.4731483621,
				"z": -1.019242797,
				"element": "H" 
			},
			{
				"x": 1.3448745398,
				"y": -0.938213169,
				"z": 1.3401942532,
				"element": "H" 
			},
			{
				"x": 2.3019700859,
				"y": -2.1359051889,
				"z": 0.4990696404,
				"element": "H" 
			},
			{
				"x": 1.1092878345,
				"y": 0.3269729658,
				"z": -0.893601948,
				"element": "H" 
			},
			{
				"x": 2.723659655,
				"y": 0.2231786118,
				"z": -0.2182364596,
				"element": "H" 
			},
			{
				"x": 3.191426487,
				"y": -1.726913841,
				"z": -1.7989803971,
				"element": "H" 
			},
			{
				"x": 2.961881545,
				"y": -0.1289234353,
				"z": -2.551340408,
				"element": "H" 
			},
			{
				"x": 0.7513370143,
				"y": -0.5580225302,
				"z": -4.2184682307,
				"element": "H" 
			}
		],
		 "valence_orbital": [ 
			{
				"type": "occ",
				"energy": -0.30796,
				"method": "rhf"
			},
			{
				"type": "occ",
				"energy": -0.30005,
				"method": "rhf"
			},
			{
				"type": "occ",
				"energy": -0.29781,
				"method": "rhf"
			},
			{
				"type": "occ",
				"energy": -0.29372,
				"method": "rhf"
			},
			{
				"type": "occ",
				"energy": -0.25545,
				"method": "rhf"
			},
			{
				"type": "unocc",
				"energy": 0.02528,
				"method": "rhf"
			},
			{
				"type": "unocc",
				"energy": 0.07991,
				"method": "rhf"
			},
			{
				"type": "unocc",
				"energy": 0.09891,
				"method": "rhf"
			},
			{
				"type": "unocc",
				"energy": 0.11239,
				"method": "rhf"
			},
			{
				"type": "unocc",
				"energy": 0.12394,
				"method": "rhf"
			}
		],
		"cosmo_sigma_profile": { 
			"-0.025": 0.0,
			"-0.024": 0.0,
			"-0.023": 0.0,
			"-0.022": 0.0,
			"-0.021": 0.0,
			"-0.02": 0.0,
			"-0.019": 0.0,
			"-0.018": 0.00520673891066,
			"-0.017": 0.706274105588,
			"-0.016": 1.19578846002,
			"-0.015": 0.584490065917,
			"-0.014": 0.880403212821,
			"-0.013": 1.08969953016,
			"-0.012": 0.774778675675,
			"-0.011": 0.947178875623,
			"-0.01": 0.410930046732,
			"-0.009": 0.926635887956,
			"-0.008": 0.469883666833,
			"-0.007": 0.647633314488,
			"-0.006": 0.937826822597,
			"-0.005": 3.18456165204,
			"-0.004": 6.42060178518,
			"-0.003": 13.7636939544,
			"-0.002": 22.7099385939,
			"-0.001": 29.138038327,
			"0.0": 33.3993773577,
			"0.001": 31.9337723409,
			"0.002": 17.6798125933,
			"0.003": 4.77695984033,
			"0.004": 2.74755360982,
			"0.005": 4.46295071753,
			"0.006": 5.16059393257,
			"0.007": 5.31572160745,
			"0.008": 3.69056603885,
			"0.009": 2.89027035339,
			"0.01": 2.69811383991,
			"0.011": 0.557268378319,
			"0.012": 0.0,
			"0.013": 0.0,
			"0.014": 0.0,
			"0.015": 0.0,
			"0.016": 0.0,
			"0.017": 0.0,
			"0.018": 0.0,
			"0.019": 0.0,
			"0.02": 0.0,
			"0.021": 0.0,
			"0.022": 0.0,
			"0.023": 0.0,
			"0.024": 0.0,
			"0.025": 0.0
		}
	}
}
