{
	 "smiles": "CN(C(=S)C(=O)C1=CC=CC=C1)C1=CC=CC=C1", 
	 "Tm": 382.15, 
	 "num_atms": 31, 
	 "gaussian": { 
		 "optdone": 1, 
		 "sigma_profile": "yes", 
		 "theory": "DFT", 
		 "functional": "B3LYP", 
		 "basiset": "6-31G**", 
		 "properties": { 
			 "R2extent": 5322.0866, 
			 "electric_dipole_moment_norm": 5.64013164208, 
			 "electric_quadrupole_moment_norm": 20.3853028386, 
			 "total_energy": -1107.5848976, 
			 "HOMO_LUMO_gap": 0.14679, 
			 "cosmo_polarized_energy": -14.57, 
			 "cosmo_cavitation_energy": 36.98, 
			 "cosmo_dispersion_energy": -25.01, 
			 "cosmo_repulsion_energy": 1.92, 
			 "cosmo_total_nonelectrostatic_energy": 13.89, 
			 "SMD_solvation_energy": 5.83 
		},
		"coords": [
			{
				"x": 2.2996925403,
				"y": -1.76667244,
				"z": -2.2921027829,
				"element": "C" 
			},
			{
				"x": 1.9299634859,
				"y": -0.9294912105,
				"z": -1.1410510111,
				"element": "N" 
			},
			{
				"x": 2.3397315433,
				"y": -1.2899378314,
				"z": 0.0928307049,
				"element": "C" 
			},
			{
				"x": 3.2462431601,
				"y": -2.640898061,
				"z": 0.4518411245,
				"element": "S" 
			},
			{
				"x": 1.9922698999,
				"y": -0.3834847439,
				"z": 1.2704997197,
				"element": "C" 
			},
			{
				"x": 2.726931075,
				"y": 0.5611495251,
				"z": 1.5216219882,
				"element": "O" 
			},
			{
				"x": 0.7984292711,
				"y": -0.7116989759,
				"z": 2.0998801121,
				"element": "C" 
			},
			{
				"x": 0.5034239385,
				"y": 0.1313969288,
				"z": 3.1832303075,
				"element": "C" 
			},
			{
				"x": -0.6181271715,
				"y": -0.1064731499,
				"z": 3.9710648316,
				"element": "C" 
			},
			{
				"x": -1.4578871506,
				"y": -1.1870579179,
				"z": 3.6828067436,
				"element": "C" 
			},
			{
				"x": -1.1712207449,
				"y": -2.0292994266,
				"z": 2.6060648872,
				"element": "C" 
			},
			{
				"x": -0.0470763292,
				"y": -1.7945200442,
				"z": 1.816115518,
				"element": "C" 
			},
			{
				"x": 1.1363306563,
				"y": 0.248046235,
				"z": -1.397640704,
				"element": "C" 
			},
			{
				"x": -0.1551949839,
				"y": 0.0971480984,
				"z": -1.9161532467,
				"element": "C" 
			},
			{
				"x": -0.9176565156,
				"y": 1.2251534775,
				"z": -2.2160299908,
				"element": "C" 
			},
			{
				"x": -0.3966853373,
				"y": 2.5021413551,
				"z": -1.9953181118,
				"element": "C" 
			},
			{
				"x": 0.8906739519,
				"y": 2.6470535645,
				"z": -1.4762384569,
				"element": "C" 
			},
			{
				"x": 1.6657803712,
				"y": 1.5241652845,
				"z": -1.1827318837,
				"element": "C" 
			},
			{
				"x": 3.3885024544,
				"y": -1.8429674247,
				"z": -2.3603944815,
				"element": "H" 
			},
			{
				"x": 1.9029292912,
				"y": -2.7794669545,
				"z": -2.1745970025,
				"element": "H" 
			},
			{
				"x": 1.9003387054,
				"y": -1.3052597835,
				"z": -3.1943511172,
				"element": "H" 
			},
			{
				"x": 1.1695382885,
				"y": 0.9638051402,
				"z": 3.3837089588,
				"element": "H" 
			},
			{
				"x": -0.8408976625,
				"y": 0.5470478372,
				"z": 4.809418981,
				"element": "H" 
			},
			{
				"x": -2.3334234549,
				"y": -1.3732864864,
				"z": 4.2984286624,
				"element": "H" 
			},
			{
				"x": -1.8200119246,
				"y": -2.8718989075,
				"z": 2.3861161489,
				"element": "H" 
			},
			{
				"x": 0.1849160894,
				"y": -2.4625645648,
				"z": 0.9931678138,
				"element": "H" 
			},
			{
				"x": -0.5579567178,
				"y": -0.8987397086,
				"z": -2.0744378262,
				"element": "H" 
			},
			{
				"x": -1.9206270929,
				"y": 1.1051379769,
				"z": -2.6144970607,
				"element": "H" 
			},
			{
				"x": -0.992798193,
				"y": 3.3799015294,
				"z": -2.2261591112,
				"element": "H" 
			},
			{
				"x": 1.3010607152,
				"y": 3.6373527538,
				"z": -1.3035931895,
				"element": "H" 
			},
			{
				"x": 2.6634078413,
				"y": 1.626117925,
				"z": -0.7724005257,
				"element": "H" 
			}
		],
		 "valence_orbital": [ 
			{
				"type": "occ",
				"energy": -0.26331,
				"method": "rhf"
			},
			{
				"type": "occ",
				"energy": -0.26069,
				"method": "rhf"
			},
			{
				"type": "occ",
				"energy": -0.25865,
				"method": "rhf"
			},
			{
				"type": "occ",
				"energy": -0.22957,
				"method": "rhf"
			},
			{
				"type": "occ",
				"energy": -0.20941,
				"method": "rhf"
			},
			{
				"type": "unocc",
				"energy": -0.06262,
				"method": "rhf"
			},
			{
				"type": "unocc",
				"energy": -0.04256,
				"method": "rhf"
			},
			{
				"type": "unocc",
				"energy": -0.01841,
				"method": "rhf"
			},
			{
				"type": "unocc",
				"energy": -0.01453,
				"method": "rhf"
			},
			{
				"type": "unocc",
				"energy": -0.00811,
				"method": "rhf"
			}
		],
		"cosmo_sigma_profile": { 
			"-0.025": 0.0,
			"-0.024": 0.0,
			"-0.023": 0.0,
			"-0.022": 0.0,
			"-0.021": 0.0,
			"-0.02": 0.0,
			"-0.019": 0.0,
			"-0.018": 0.0,
			"-0.017": 0.0,
			"-0.016": 0.0,
			"-0.015": 0.0,
			"-0.014": 0.0,
			"-0.013": 0.0,
			"-0.012": 0.0,
			"-0.011": 0.0,
			"-0.01": 0.0,
			"-0.009": 0.0,
			"-0.008": 0.10758085204,
			"-0.007": 7.28163770267,
			"-0.006": 22.7581667065,
			"-0.005": 31.713114782,
			"-0.004": 28.7553897603,
			"-0.003": 23.9767721369,
			"-0.002": 17.9843399802,
			"-0.001": 13.790587771,
			"0.0": 15.5531859907,
			"0.001": 18.4277373494,
			"0.002": 21.8665359548,
			"0.003": 27.016576112,
			"0.004": 23.0459158267,
			"0.005": 8.02766358883,
			"0.006": 7.34610129205,
			"0.007": 9.07934962834,
			"0.008": 8.28846652473,
			"0.009": 5.48898379884,
			"0.01": 4.53370476593,
			"0.011": 3.53141653803,
			"0.012": 0.308213285,
			"0.013": 0.0,
			"0.014": 0.0,
			"0.015": 0.0,
			"0.016": 0.0,
			"0.017": 0.0,
			"0.018": 0.0,
			"0.019": 0.0,
			"0.02": 0.0,
			"0.021": 0.0,
			"0.022": 0.0,
			"0.023": 0.0,
			"0.024": 0.0,
			"0.025": 0.0
		}
	}
}
