{
	 "smiles": "COC1=C(F)C=CC(C=CC(O)=O)=C1", 
	 "Tm": 485.15, 
	 "num_atms": 23, 
	 "gaussian": { 
		 "optdone": 1, 
		 "sigma_profile": "yes", 
		 "theory": "DFT", 
		 "functional": "B3LYP", 
		 "basiset": "6-31G**", 
		 "properties": { 
			 "R2extent": 3360.1212, 
			 "electric_dipole_moment_norm": 0.843963743297, 
			 "electric_quadrupole_moment_norm": 19.9683907534, 
			 "total_energy": -711.969240674, 
			 "HOMO_LUMO_gap": 0.15546, 
			 "cosmo_polarized_energy": -12.45, 
			 "cosmo_cavitation_energy": 28.46, 
			 "cosmo_dispersion_energy": -20.2, 
			 "cosmo_repulsion_energy": 1.56, 
			 "cosmo_total_nonelectrostatic_energy": 9.83, 
			 "SMD_solvation_energy": 7.55 
		},
		"coords": [
			{
				"x": 1.5510360389,
				"y": -0.3043867986,
				"z": -2.8941669794,
				"element": "C" 
			},
			{
				"x": 0.3621813154,
				"y": 0.4579004417,
				"z": -3.0476181997,
				"element": "O" 
			},
			{
				"x": -0.3213252981,
				"y": 0.797977347,
				"z": -1.923467215,
				"element": "C" 
			},
			{
				"x": -1.496194549,
				"y": 1.5468324523,
				"z": -2.1263639579,
				"element": "C" 
			},
			{
				"x": -1.8486966907,
				"y": 1.8562944415,
				"z": -3.3849053089,
				"element": "F" 
			},
			{
				"x": -2.274910172,
				"y": 1.9722863292,
				"z": -1.0650604594,
				"element": "C" 
			},
			{
				"x": -1.8881396657,
				"y": 1.6523055946,
				"z": 0.2355813628,
				"element": "C" 
			},
			{
				"x": -0.7369553889,
				"y": 0.8822296997,
				"z": 0.4790155899,
				"element": "C" 
			},
			{
				"x": -0.4129857077,
				"y": 0.6182023138,
				"z": 1.8851776863,
				"element": "C" 
			},
			{
				"x": 0.3646882509,
				"y": -0.2623205169,
				"z": 2.5583731502,
				"element": "C" 
			},
			{
				"x": 1.1754773806,
				"y": -1.427898848,
				"z": 2.1652273242,
				"element": "C" 
			},
			{
				"x": 1.0728797839,
				"y": -1.8386546124,
				"z": 0.8711193059,
				"element": "O" 
			},
			{
				"x": 1.8771782272,
				"y": -2.0307406009,
				"z": 2.9567491569,
				"element": "O" 
			},
			{
				"x": 0.0474794691,
				"y": 0.4728723092,
				"z": -0.6203425235,
				"element": "C" 
			},
			{
				"x": 1.3533294401,
				"y": -1.2623531735,
				"z": -2.397429119,
				"element": "H" 
			},
			{
				"x": 2.3109849397,
				"y": 0.2451029789,
				"z": -2.3241834174,
				"element": "H" 
			},
			{
				"x": 1.9200679226,
				"y": -0.4877364006,
				"z": -3.9040198381,
				"element": "H" 
			},
			{
				"x": -3.1664570824,
				"y": 2.5551362919,
				"z": -1.2692428116,
				"element": "H" 
			},
			{
				"x": -2.4916716613,
				"y": 1.9948350685,
				"z": 1.0705817107,
				"element": "H" 
			},
			{
				"x": -0.9326888762,
				"y": 1.3104157234,
				"z": 2.5480486807,
				"element": "H" 
			},
			{
				"x": 0.4085050818,
				"y": -0.139058937,
				"z": 3.6360124971,
				"element": "H" 
			},
			{
				"x": 1.6344841704,
				"y": -2.6303797487,
				"z": 0.8185417591,
				"element": "H" 
			},
			{
				"x": 0.9415330714,
				"y": -0.1031613549,
				"z": -0.4425283938,
				"element": "H" 
			}
		],
		 "valence_orbital": [ 
			{
				"type": "occ",
				"energy": -0.3205,
				"method": "rhf"
			},
			{
				"type": "occ",
				"energy": -0.29549,
				"method": "rhf"
			},
			{
				"type": "occ",
				"energy": -0.27619,
				"method": "rhf"
			},
			{
				"type": "occ",
				"energy": -0.24852,
				"method": "rhf"
			},
			{
				"type": "occ",
				"energy": -0.22422,
				"method": "rhf"
			},
			{
				"type": "unocc",
				"energy": -0.06876,
				"method": "rhf"
			},
			{
				"type": "unocc",
				"energy": -0.00485,
				"method": "rhf"
			},
			{
				"type": "unocc",
				"energy": 0.01584,
				"method": "rhf"
			},
			{
				"type": "unocc",
				"energy": 0.06661,
				"method": "rhf"
			},
			{
				"type": "unocc",
				"energy": 0.08048,
				"method": "rhf"
			}
		],
		"cosmo_sigma_profile": { 
			"-0.025": 0.0,
			"-0.024": 0.0,
			"-0.023": 0.0,
			"-0.022": 0.0,
			"-0.021": 0.0,
			"-0.02": 0.0,
			"-0.019": 0.0,
			"-0.018": 0.475594332507,
			"-0.017": 0.995805628329,
			"-0.016": 0.684759825693,
			"-0.015": 0.76281463086,
			"-0.014": 0.368807975679,
			"-0.013": 1.0938760204,
			"-0.012": 0.614508705032,
			"-0.011": 0.471801124762,
			"-0.01": 0.793196545279,
			"-0.009": 0.600633335932,
			"-0.008": 2.16040495483,
			"-0.007": 8.40374491472,
			"-0.006": 12.2689008202,
			"-0.005": 16.4011254549,
			"-0.004": 15.7111251822,
			"-0.003": 15.9779059274,
			"-0.002": 13.0227415254,
			"-0.001": 13.5136091534,
			"0.0": 16.5470801652,
			"0.001": 17.7461539493,
			"0.002": 18.7377497236,
			"0.003": 19.1915884639,
			"0.004": 15.5872904137,
			"0.005": 6.4004739888,
			"0.006": 4.78414869451,
			"0.007": 3.38399099646,
			"0.008": 3.69091454515,
			"0.009": 3.92642163754,
			"0.01": 3.29531199609,
			"0.011": 2.58470359762,
			"0.012": 5.39681288153,
			"0.013": 1.95454784024,
			"0.014": 0.0292076387017,
			"0.015": 0.0,
			"0.016": 0.0,
			"0.017": 0.0,
			"0.018": 0.0,
			"0.019": 0.0,
			"0.02": 0.0,
			"0.021": 0.0,
			"0.022": 0.0,
			"0.023": 0.0,
			"0.024": 0.0,
			"0.025": 0.0
		}
	}
}
