{
	 "smiles": "NC1=C(NC(=O)C2=CC=CS2)C=CC=C1", 
	 "Tm": 384.15, 
	 "num_atms": 25, 
	 "gaussian": { 
		 "optdone": 1, 
		 "sigma_profile": "yes", 
		 "theory": "DFT", 
		 "functional": "B3LYP", 
		 "basiset": "6-31G**", 
		 "properties": { 
			 "R2extent": 3582.7927, 
			 "electric_dipole_moment_norm": 3.41991658524, 
			 "electric_quadrupole_moment_norm": 8.1927975393, 
			 "total_energy": -1008.111601, 
			 "HOMO_LUMO_gap": 0.16496, 
			 "cosmo_polarized_energy": -14.4, 
			 "cosmo_cavitation_energy": 30.69, 
			 "cosmo_dispersion_energy": -22.2, 
			 "cosmo_repulsion_energy": 1.71, 
			 "cosmo_total_nonelectrostatic_energy": 10.2, 
			 "SMD_solvation_energy": 6.23 
		},
		"coords": [
			{
				"x": -1.4721543422,
				"y": 0.0735786628,
				"z": -2.3517039192,
				"element": "N" 
			},
			{
				"x": -1.2562124128,
				"y": -1.1360895671,
				"z": -1.7060687266,
				"element": "C" 
			},
			{
				"x": 0.0316128419,
				"y": -1.4605575575,
				"z": -1.2207469996,
				"element": "C" 
			},
			{
				"x": 1.0818028842,
				"y": -0.5052689895,
				"z": -1.3966182677,
				"element": "N" 
			},
			{
				"x": 1.8839873453,
				"y": 0.0961988615,
				"z": -0.440958348,
				"element": "C" 
			},
			{
				"x": 2.9559455694,
				"y": 0.5940858952,
				"z": -0.773193957,
				"element": "O" 
			},
			{
				"x": 1.4211268416,
				"y": 0.2053354545,
				"z": 0.9675335331,
				"element": "C" 
			},
			{
				"x": 2.2122961145,
				"y": 0.7733110296,
				"z": 1.9419944686,
				"element": "C" 
			},
			{
				"x": 1.5739186494,
				"y": 0.8764810047,
				"z": 3.2054686405,
				"element": "C" 
			},
			{
				"x": 0.2903010306,
				"y": 0.3955292638,
				"z": 3.1821053475,
				"element": "C" 
			},
			{
				"x": -0.1500358956,
				"y": -0.2092744681,
				"z": 1.6237040407,
				"element": "S" 
			},
			{
				"x": 0.2719598257,
				"y": -2.7086182271,
				"z": -0.637682488,
				"element": "C" 
			},
			{
				"x": -0.7546704045,
				"y": -3.6383759652,
				"z": -0.4920869098,
				"element": "C" 
			},
			{
				"x": -2.0319343836,
				"y": -3.3170998186,
				"z": -0.9613886417,
				"element": "C" 
			},
			{
				"x": -2.2815209527,
				"y": -2.0880346091,
				"z": -1.5634752547,
				"element": "C" 
			},
			{
				"x": -0.8033444938,
				"y": 0.7959656969,
				"z": -2.118763501,
				"element": "H" 
			},
			{
				"x": -2.4279170938,
				"y": 0.4001476716,
				"z": -2.3588721577,
				"element": "H" 
			},
			{
				"x": 1.5295867116,
				"y": -0.4742370663,
				"z": -2.3073750102,
				"element": "H" 
			},
			{
				"x": 3.216977179,
				"y": 1.1096999157,
				"z": 1.7188242111,
				"element": "H" 
			},
			{
				"x": 2.0430852144,
				"y": 1.2900489472,
				"z": 4.0906724488,
				"element": "H" 
			},
			{
				"x": -0.419874955,
				"y": 0.3456811223,
				"z": 3.9968674432,
				"element": "H" 
			},
			{
				"x": 1.2767686812,
				"y": -2.9326416952,
				"z": -0.2917151282,
				"element": "H" 
			},
			{
				"x": -0.5607079599,
				"y": -4.6002141522,
				"z": -0.0290434483,
				"element": "H" 
			},
			{
				"x": -2.8435489267,
				"y": -4.0321325383,
				"z": -0.8597661913,
				"element": "H" 
			},
			{
				"x": -3.2766470682,
				"y": -1.8521188714,
				"z": -1.9320111844,
				"element": "H" 
			}
		],
		 "valence_orbital": [ 
			{
				"type": "occ",
				"energy": -0.25794,
				"method": "rhf"
			},
			{
				"type": "occ",
				"energy": -0.25289,
				"method": "rhf"
			},
			{
				"type": "occ",
				"energy": -0.24355,
				"method": "rhf"
			},
			{
				"type": "occ",
				"energy": -0.23653,
				"method": "rhf"
			},
			{
				"type": "occ",
				"energy": -0.20911,
				"method": "rhf"
			},
			{
				"type": "unocc",
				"energy": -0.04415,
				"method": "rhf"
			},
			{
				"type": "unocc",
				"energy": -0.00989,
				"method": "rhf"
			},
			{
				"type": "unocc",
				"energy": 0.00817,
				"method": "rhf"
			},
			{
				"type": "unocc",
				"energy": 0.03787,
				"method": "rhf"
			},
			{
				"type": "unocc",
				"energy": 0.04247,
				"method": "rhf"
			}
		],
		"cosmo_sigma_profile": { 
			"-0.025": 0.0,
			"-0.024": 0.0,
			"-0.023": 0.0,
			"-0.022": 0.0,
			"-0.021": 0.0,
			"-0.02": 0.0,
			"-0.019": 0.0,
			"-0.018": 0.0,
			"-0.017": 0.0,
			"-0.016": 0.0,
			"-0.015": 0.0,
			"-0.014": 0.404044891819,
			"-0.013": 1.34200991332,
			"-0.012": 2.69395730924,
			"-0.011": 2.63760420634,
			"-0.01": 2.84767962951,
			"-0.009": 4.98973447087,
			"-0.008": 5.53943021735,
			"-0.007": 8.77630868209,
			"-0.006": 11.1767290052,
			"-0.005": 16.1298116653,
			"-0.004": 18.1455978949,
			"-0.003": 15.692916778,
			"-0.002": 13.3845125511,
			"-0.001": 12.2972173426,
			"0.0": 13.4197412057,
			"0.001": 12.918364785,
			"0.002": 15.8935156658,
			"0.003": 22.2445706419,
			"0.004": 19.9615690962,
			"0.005": 14.0397576302,
			"0.006": 9.7191849476,
			"0.007": 2.23592105309,
			"0.008": 2.74077121247,
			"0.009": 2.15379686746,
			"0.01": 1.50891748875,
			"0.011": 2.3371283057,
			"0.012": 2.92470894699,
			"0.013": 5.719952081,
			"0.014": 3.01646929648,
			"0.015": 0.0,
			"0.016": 0.0,
			"0.017": 0.0,
			"0.018": 0.0,
			"0.019": 0.0,
			"0.02": 0.0,
			"0.021": 0.0,
			"0.022": 0.0,
			"0.023": 0.0,
			"0.024": 0.0,
			"0.025": 0.0
		}
	}
}
