{
	 "smiles": "COC1C(OC2OC3(CCCCC3)OC12)C(O)CO", 
	 "Tm": 373.15, 
	 "num_atms": 41, 
	 "gaussian": { 
		 "optdone": 1, 
		 "sigma_profile": "yes", 
		 "theory": "DFT", 
		 "functional": "B3LYP", 
		 "basiset": "6-31G**", 
		 "properties": { 
			 "R2extent": 5114.471, 
			 "electric_dipole_moment_norm": 3.96145971455, 
			 "electric_quadrupole_moment_norm": 15.6004376256, 
			 "total_energy": -959.938114678, 
			 "HOMO_LUMO_gap": 0.29692, 
			 "cosmo_polarized_energy": -18.08, 
			 "cosmo_cavitation_energy": 39.11, 
			 "cosmo_dispersion_energy": -27.27, 
			 "cosmo_repulsion_energy": 2.11, 
			 "cosmo_total_nonelectrostatic_energy": 13.96, 
			 "SMD_solvation_energy": 5.86 
		},
		"coords": [
			{
				"x": 2.7547731244,
				"y": 2.2036239402,
				"z": -0.2668362941,
				"element": "C" 
			},
			{
				"x": 2.0246120112,
				"y": 1.6810157776,
				"z": 0.8273412423,
				"element": "O" 
			},
			{
				"x": 0.7194072599,
				"y": 2.1719729676,
				"z": 0.9332517489,
				"element": "C" 
			},
			{
				"x": 0.0320130656,
				"y": 1.6612876676,
				"z": 2.2218025363,
				"element": "C" 
			},
			{
				"x": -1.3707390533,
				"y": 1.7588627499,
				"z": 1.9107450114,
				"element": "O" 
			},
			{
				"x": -1.5956296801,
				"y": 1.5281872715,
				"z": 0.546483897,
				"element": "C" 
			},
			{
				"x": -1.9317057777,
				"y": 0.1714972062,
				"z": 0.2795692444,
				"element": "O" 
			},
			{
				"x": -1.1313147446,
				"y": -0.2943176282,
				"z": -0.8072539673,
				"element": "C" 
			},
			{
				"x": -1.8249588302,
				"y": -0.0464684936,
				"z": -2.1535743718,
				"element": "C" 
			},
			{
				"x": -0.9314831573,
				"y": -0.4596995166,
				"z": -3.3461011756,
				"element": "C" 
			},
			{
				"x": -0.0181669738,
				"y": -1.6634069421,
				"z": -3.0106281806,
				"element": "C" 
			},
			{
				"x": -0.656516798,
				"y": -2.5549289747,
				"z": -1.9375234195,
				"element": "C" 
			},
			{
				"x": -0.8157344477,
				"y": -1.7852121315,
				"z": -0.6085529146,
				"element": "C" 
			},
			{
				"x": 0.0802474992,
				"y": 0.4669853195,
				"z": -0.7184076268,
				"element": "O" 
			},
			{
				"x": -0.2552976017,
				"y": 1.7437685497,
				"z": -0.1975131073,
				"element": "C" 
			},
			{
				"x": 0.4515742037,
				"y": 0.2575170601,
				"z": 2.6934566449,
				"element": "C" 
			},
			{
				"x": 1.5773282967,
				"y": 0.4261046233,
				"z": 3.5408728716,
				"element": "O" 
			},
			{
				"x": -0.6645839909,
				"y": -0.4423933786,
				"z": 3.480165081,
				"element": "C" 
			},
			{
				"x": -0.126511081,
				"y": -1.6036126951,
				"z": 4.127273367,
				"element": "O" 
			},
			{
				"x": 2.7844541591,
				"y": 3.3044097204,
				"z": -0.245106716,
				"element": "H" 
			},
			{
				"x": 2.3386846,
				"y": 1.8775428685,
				"z": -1.2296019887,
				"element": "H" 
			},
			{
				"x": 3.7741651334,
				"y": 1.8225078374,
				"z": -0.1754908219,
				"element": "H" 
			},
			{
				"x": 0.7190418195,
				"y": 3.2755175769,
				"z": 0.9586801266,
				"element": "H" 
			},
			{
				"x": 0.20921031,
				"y": 2.3342025344,
				"z": 3.0653952134,
				"element": "H" 
			},
			{
				"x": -2.4228731202,
				"y": 2.1788358732,
				"z": 0.2461110699,
				"element": "H" 
			},
			{
				"x": -2.1189598783,
				"y": 1.0056635661,
				"z": -2.2346569664,
				"element": "H" 
			},
			{
				"x": -2.7552053322,
				"y": -0.6260126101,
				"z": -2.1476410418,
				"element": "H" 
			},
			{
				"x": -0.3147462314,
				"y": 0.3889451397,
				"z": -3.6583216037,
				"element": "H" 
			},
			{
				"x": -1.5781873757,
				"y": -0.7038272709,
				"z": -4.1966603643,
				"element": "H" 
			},
			{
				"x": 0.1951378227,
				"y": -2.2402611188,
				"z": -3.9170388824,
				"element": "H" 
			},
			{
				"x": 0.9439569028,
				"y": -1.2977448955,
				"z": -2.6336510821,
				"element": "H" 
			},
			{
				"x": -1.6364660404,
				"y": -2.9031341009,
				"z": -2.2894114051,
				"element": "H" 
			},
			{
				"x": -0.055137225,
				"y": -3.4548444754,
				"z": -1.769769934,
				"element": "H" 
			},
			{
				"x": -1.6230003665,
				"y": -2.215838592,
				"z": -0.0082072728,
				"element": "H" 
			},
			{
				"x": 0.1044264191,
				"y": -1.8429925185,
				"z": -0.0187564457,
				"element": "H" 
			},
			{
				"x": -0.3259864946,
				"y": 2.4892484492,
				"z": -0.9989630322,
				"element": "H" 
			},
			{
				"x": 0.7189414877,
				"y": -0.3642292576,
				"z": 1.8244375169,
				"element": "H" 
			},
			{
				"x": 1.5936968463,
				"y": -0.3764395996,
				"z": 4.0871897563,
				"element": "H" 
			},
			{
				"x": -1.0194636286,
				"y": 0.2073653306,
				"z": 4.2856129336,
				"element": "H" 
			},
			{
				"x": -1.5109132439,
				"y": -0.6880601356,
				"z": 2.8321076936,
				"element": "H" 
			},
			{
				"x": 0.008610112,
				"y": -2.2790376942,
				"z": 3.4489726596,
				"element": "H" 
			}
		],
		 "valence_orbital": [ 
			{
				"type": "occ",
				"energy": -0.28371,
				"method": "rhf"
			},
			{
				"type": "occ",
				"energy": -0.26634,
				"method": "rhf"
			},
			{
				"type": "occ",
				"energy": -0.26305,
				"method": "rhf"
			},
			{
				"type": "occ",
				"energy": -0.25807,
				"method": "rhf"
			},
			{
				"type": "occ",
				"energy": -0.24256,
				"method": "rhf"
			},
			{
				"type": "unocc",
				"energy": 0.05436,
				"method": "rhf"
			},
			{
				"type": "unocc",
				"energy": 0.06362,
				"method": "rhf"
			},
			{
				"type": "unocc",
				"energy": 0.07556,
				"method": "rhf"
			},
			{
				"type": "unocc",
				"energy": 0.08741,
				"method": "rhf"
			},
			{
				"type": "unocc",
				"energy": 0.10442,
				"method": "rhf"
			}
		],
		"cosmo_sigma_profile": { 
			"-0.025": 0.0,
			"-0.024": 0.0,
			"-0.023": 0.0,
			"-0.022": 0.0,
			"-0.021": 0.0,
			"-0.02": 0.0,
			"-0.019": 0.0,
			"-0.018": 0.0,
			"-0.017": 0.0,
			"-0.016": 0.268443181123,
			"-0.015": 1.01527761269,
			"-0.014": 1.11123859221,
			"-0.013": 0.923364080074,
			"-0.012": 0.909993879488,
			"-0.011": 1.09426117316,
			"-0.01": 1.69919101091,
			"-0.009": 1.16798205217,
			"-0.008": 1.9223630347,
			"-0.007": 4.86319357365,
			"-0.006": 13.4439248568,
			"-0.005": 18.627378139,
			"-0.004": 22.1035499303,
			"-0.003": 32.0160793181,
			"-0.002": 37.8360996834,
			"-0.001": 31.3108149009,
			"0.0": 30.1939968806,
			"0.001": 20.3672861344,
			"0.002": 9.44025942141,
			"0.003": 7.52277419359,
			"0.004": 6.45481730349,
			"0.005": 6.52940884423,
			"0.006": 7.02008093766,
			"0.007": 7.32631052445,
			"0.008": 5.71392749118,
			"0.009": 5.16973332952,
			"0.01": 4.93451784824,
			"0.011": 6.15905967968,
			"0.012": 4.82325082007,
			"0.013": 3.61622824316,
			"0.014": 2.12247102916,
			"0.015": 1.77387638689,
			"0.016": 1.45702585982,
			"0.017": 0.514501653712,
			"0.018": 0.0,
			"0.019": 0.0,
			"0.02": 0.0,
			"0.021": 0.0,
			"0.022": 0.0,
			"0.023": 0.0,
			"0.024": 0.0,
			"0.025": 0.0
		}
	}
}
