{
	 "smiles": "COC1=CC(NC2=C(C=CC=C2)C(O)=O)=CC=C1", 
	 "Tm": 409.15, 
	 "num_atms": 31, 
	 "gaussian": { 
		 "optdone": 1, 
		 "sigma_profile": "yes", 
		 "theory": "DFT", 
		 "functional": "B3LYP", 
		 "basiset": "6-31G**", 
		 "properties": { 
			 "R2extent": 6717.0361, 
			 "electric_dipole_moment_norm": 3.56592098342, 
			 "electric_quadrupole_moment_norm": 11.6805737903, 
			 "total_energy": -821.758979306, 
			 "HOMO_LUMO_gap": 0.15185, 
			 "cosmo_polarized_energy": -12.85, 
			 "cosmo_cavitation_energy": 35.03, 
			 "cosmo_dispersion_energy": -25.73, 
			 "cosmo_repulsion_energy": 1.97, 
			 "cosmo_total_nonelectrostatic_energy": 11.27, 
			 "SMD_solvation_energy": 7.53 
		},
		"coords": [
			{
				"x": 2.0566025552,
				"y": -4.1993799379,
				"z": -1.627512854,
				"element": "C" 
			},
			{
				"x": 1.7666419811,
				"y": -3.186260116,
				"z": -0.6777727341,
				"element": "O" 
			},
			{
				"x": 0.5899740503,
				"y": -2.5048484044,
				"z": -0.7997607215,
				"element": "C" 
			},
			{
				"x": 0.3774667014,
				"y": -1.505843439,
				"z": 0.1575948349,
				"element": "C" 
			},
			{
				"x": -0.7933194623,
				"y": -0.7406567909,
				"z": 0.1448621414,
				"element": "C" 
			},
			{
				"x": -0.9741154767,
				"y": 0.1924474234,
				"z": 1.1825407192,
				"element": "N" 
			},
			{
				"x": -1.6390386359,
				"y": 1.4040213828,
				"z": 1.1571171837,
				"element": "C" 
			},
			{
				"x": -2.019048417,
				"y": 2.0787853686,
				"z": 2.3585250144,
				"element": "C" 
			},
			{
				"x": -2.6943121674,
				"y": 3.3123451085,
				"z": 2.2736942374,
				"element": "C" 
			},
			{
				"x": -2.9950421091,
				"y": 3.9046406615,
				"z": 1.0593805119,
				"element": "C" 
			},
			{
				"x": -2.5958373504,
				"y": 3.2567434911,
				"z": -0.1165436332,
				"element": "C" 
			},
			{
				"x": -1.9322273134,
				"y": 2.0408675685,
				"z": -0.0711973118,
				"element": "C" 
			},
			{
				"x": -1.7736430296,
				"y": 1.6105503577,
				"z": 3.7410841229,
				"element": "C" 
			},
			{
				"x": -0.9980627765,
				"y": 0.4846670506,
				"z": 3.8446852063,
				"element": "O" 
			},
			{
				"x": -2.1890880893,
				"y": 2.1497992544,
				"z": 4.7490550605,
				"element": "O" 
			},
			{
				"x": -1.764890723,
				"y": -0.9852348513,
				"z": -0.8448672224,
				"element": "C" 
			},
			{
				"x": -1.5306036037,
				"y": -1.9673090886,
				"z": -1.8008340599,
				"element": "C" 
			},
			{
				"x": -0.3635787339,
				"y": -2.7370189501,
				"z": -1.7983460887,
				"element": "C" 
			},
			{
				"x": 1.3114987746,
				"y": -5.0049648554,
				"z": -1.6018431774,
				"element": "H" 
			},
			{
				"x": 2.1122200869,
				"y": -3.7959982077,
				"z": -2.6468133197,
				"element": "H" 
			},
			{
				"x": 3.0309215773,
				"y": -4.6037342863,
				"z": -1.3486206473,
				"element": "H" 
			},
			{
				"x": 1.1458200977,
				"y": -1.3305462234,
				"z": 0.9039157925,
				"element": "H" 
			},
			{
				"x": -0.5972221585,
				"y": -0.074778888,
				"z": 2.0806822761,
				"element": "H" 
			},
			{
				"x": -2.9707056478,
				"y": 3.7851199007,
				"z": 3.2096482184,
				"element": "H" 
			},
			{
				"x": -3.5169109159,
				"y": 4.8549756489,
				"z": 1.02212232,
				"element": "H" 
			},
			{
				"x": -2.7924579957,
				"y": 3.7121244969,
				"z": -1.0835187712,
				"element": "H" 
			},
			{
				"x": -1.6059243658,
				"y": 1.5741442164,
				"z": -0.9920393178,
				"element": "H" 
			},
			{
				"x": -0.9278405879,
				"y": 0.3071322266,
				"z": 4.7972191558,
				"element": "H" 
			},
			{
				"x": -2.698217877,
				"y": -0.435635157,
				"z": -0.8424150039,
				"element": "H" 
			},
			{
				"x": -2.2836543807,
				"y": -2.1555085037,
				"z": -2.5610291812,
				"element": "H" 
			},
			{
				"x": -0.216104007,
				"y": -3.4979464568,
				"z": -2.5544127512,
				"element": "H" 
			}
		],
		 "valence_orbital": [ 
			{
				"type": "occ",
				"energy": -0.27749,
				"method": "rhf"
			},
			{
				"type": "occ",
				"energy": -0.25649,
				"method": "rhf"
			},
			{
				"type": "occ",
				"energy": -0.25417,
				"method": "rhf"
			},
			{
				"type": "occ",
				"energy": -0.22346,
				"method": "rhf"
			},
			{
				"type": "occ",
				"energy": -0.19489,
				"method": "rhf"
			},
			{
				"type": "unocc",
				"energy": -0.04304,
				"method": "rhf"
			},
			{
				"type": "unocc",
				"energy": -0.00904,
				"method": "rhf"
			},
			{
				"type": "unocc",
				"energy": 0.0034,
				"method": "rhf"
			},
			{
				"type": "unocc",
				"energy": 0.02972,
				"method": "rhf"
			},
			{
				"type": "unocc",
				"energy": 0.05928,
				"method": "rhf"
			}
		],
		"cosmo_sigma_profile": { 
			"-0.025": 0.0,
			"-0.024": 0.0,
			"-0.023": 0.0,
			"-0.022": 0.0,
			"-0.021": 0.0,
			"-0.02": 0.0,
			"-0.019": 0.0278814069779,
			"-0.018": 0.583831293566,
			"-0.017": 1.13122938553,
			"-0.016": 0.580314518666,
			"-0.015": 1.03931242184,
			"-0.014": 0.600473239998,
			"-0.013": 0.65634811465,
			"-0.012": 0.580008348457,
			"-0.011": 0.876707358588,
			"-0.01": 0.692914358592,
			"-0.009": 1.3478358673,
			"-0.008": 1.80154134789,
			"-0.007": 2.58438049021,
			"-0.006": 12.4162823641,
			"-0.005": 23.2587502275,
			"-0.004": 24.4331769258,
			"-0.003": 23.6538879025,
			"-0.002": 20.1995908217,
			"-0.001": 18.979433314,
			"0.0": 15.0112441526,
			"0.001": 18.1635276793,
			"0.002": 19.3523410542,
			"0.003": 22.6185906959,
			"0.004": 22.9295608238,
			"0.005": 18.7287264848,
			"0.006": 7.462697085,
			"0.007": 2.87044896684,
			"0.008": 2.83800590121,
			"0.009": 2.74082462525,
			"0.01": 3.22925252538,
			"0.011": 3.61970808131,
			"0.012": 4.86154788084,
			"0.013": 0.183514535626,
			"0.014": 0.0,
			"0.015": 0.0,
			"0.016": 0.0,
			"0.017": 0.0,
			"0.018": 0.0,
			"0.019": 0.0,
			"0.02": 0.0,
			"0.021": 0.0,
			"0.022": 0.0,
			"0.023": 0.0,
			"0.024": 0.0,
			"0.025": 0.0
		}
	}
}
