{
	 "smiles": "ClC=C(Cl)/C(/Cl)=C/Cl", 
	 "Tm": 269.15, 
	 "num_atms": 10, 
	 "gaussian": { 
		 "optdone": 1, 
		 "sigma_profile": "yes", 
		 "theory": "DFT", 
		 "functional": "B3LYP", 
		 "basiset": "6-31G**", 
		 "properties": { 
			 "R2extent": 2997.0503, 
			 "electric_dipole_moment_norm": 1.77268937211, 
			 "electric_quadrupole_moment_norm": 4.17147352023, 
			 "total_energy": -1994.34492531, 
			 "HOMO_LUMO_gap": 0.19892, 
			 "cosmo_polarized_energy": -4.49, 
			 "cosmo_cavitation_energy": 22.24, 
			 "cosmo_dispersion_energy": -16.3, 
			 "cosmo_repulsion_energy": 1.4, 
			 "cosmo_total_nonelectrostatic_energy": 7.34, 
			 "SMD_solvation_energy": 3.5 
		},
		"coords": [
			{
				"x": 1.10477926,
				"y": -1.0932593195,
				"z": 1.2476498729,
				"element": "Cl" 
			},
			{
				"x": -0.3098999318,
				"y": -1.0145283181,
				"z": 0.2450350621,
				"element": "C" 
			},
			{
				"x": -0.3161330204,
				"y": -0.6173789663,
				"z": -1.0341787934,
				"element": "C" 
			},
			{
				"x": -1.8794926527,
				"y": -0.5548390533,
				"z": -1.848188821,
				"element": "Cl" 
			},
			{
				"x": 0.8462717966,
				"y": -0.2270119226,
				"z": -1.8476334684,
				"element": "C" 
			},
			{
				"x": 0.8533553324,
				"y": 1.4089305707,
				"z": -2.4574933297,
				"element": "Cl" 
			},
			{
				"x": 1.830874851,
				"y": -1.0983155496,
				"z": -2.1017237918,
				"element": "C" 
			},
			{
				"x": 3.2560342072,
				"y": -0.7564119196,
				"z": -3.012252633,
				"element": "Cl" 
			},
			{
				"x": -1.2186728315,
				"y": -1.3082585393,
				"z": 0.7550189537,
				"element": "H" 
			},
			{
				"x": 1.7794829894,
				"y": -2.1112269824,
				"z": -1.7220330515,
				"element": "H" 
			}
		],
		 "valence_orbital": [ 
			{
				"type": "occ",
				"energy": -0.33782,
				"method": "rhf"
			},
			{
				"type": "occ",
				"energy": -0.33082,
				"method": "rhf"
			},
			{
				"type": "occ",
				"energy": -0.32304,
				"method": "rhf"
			},
			{
				"type": "occ",
				"energy": -0.27875,
				"method": "rhf"
			},
			{
				"type": "occ",
				"energy": -0.25994,
				"method": "rhf"
			},
			{
				"type": "unocc",
				"energy": -0.06102,
				"method": "rhf"
			},
			{
				"type": "unocc",
				"energy": -0.03706,
				"method": "rhf"
			},
			{
				"type": "unocc",
				"energy": 0.0017,
				"method": "rhf"
			},
			{
				"type": "unocc",
				"energy": 0.02485,
				"method": "rhf"
			},
			{
				"type": "unocc",
				"energy": 0.04487,
				"method": "rhf"
			}
		],
		"cosmo_sigma_profile": { 
			"-0.025": 0.0,
			"-0.024": 0.0,
			"-0.023": 0.0,
			"-0.022": 0.0,
			"-0.021": 0.0,
			"-0.02": 0.0,
			"-0.019": 0.0,
			"-0.018": 0.0,
			"-0.017": 0.0,
			"-0.016": 0.0,
			"-0.015": 0.0,
			"-0.014": 0.0,
			"-0.013": 0.0,
			"-0.012": 0.0,
			"-0.011": 1.62155240402,
			"-0.01": 3.25061073692,
			"-0.009": 2.78383725712,
			"-0.008": 2.91639000963,
			"-0.007": 3.16576648227,
			"-0.006": 3.69520907917,
			"-0.005": 2.45480386908,
			"-0.004": 5.83357883891,
			"-0.003": 10.0572693546,
			"-0.002": 12.3696522071,
			"-0.001": 18.2175693053,
			"0.0": 23.6254319407,
			"0.001": 19.8751269894,
			"0.002": 23.148644106,
			"0.003": 36.5501425644,
			"0.004": 17.2075578234,
			"0.005": 1.24437962499,
			"0.006": 0.0,
			"0.007": 0.0,
			"0.008": 0.0,
			"0.009": 0.0,
			"0.01": 0.0,
			"0.011": 0.0,
			"0.012": 0.0,
			"0.013": 0.0,
			"0.014": 0.0,
			"0.015": 0.0,
			"0.016": 0.0,
			"0.017": 0.0,
			"0.018": 0.0,
			"0.019": 0.0,
			"0.02": 0.0,
			"0.021": 0.0,
			"0.022": 0.0,
			"0.023": 0.0,
			"0.024": 0.0,
			"0.025": 0.0
		}
	}
}
