{
	 "smiles": "CSC1=C(Br)C(C2=CC=C(Cl)C=C2)=C(C#N)C(NS(=O)(=O)C2=CC=C(C)C=C2)=N1", 
	 "Tm": 491.15, 
	 "num_atms": 44, 
	 "gaussian": { 
		 "optdone": 1, 
		 "sigma_profile": "yes", 
		 "theory": "DFT", 
		 "functional": "B3LYP", 
		 "basiset": "6-31G**", 
		 "properties": { 
			 "R2extent": 21086.707, 
			 "electric_dipole_moment_norm": 4.56324883937, 
			 "electric_quadrupole_moment_norm": 22.1280882844, 
			 "total_energy": -4913.76527669, 
			 "HOMO_LUMO_gap": 0.16422, 
			 "cosmo_polarized_energy": -19.27, 
			 "cosmo_cavitation_energy": 56.2, 
			 "cosmo_dispersion_energy": -38.94, 
			 "cosmo_repulsion_energy": 2.86, 
			 "cosmo_total_nonelectrostatic_energy": 20.13, 
			 "SMD_solvation_energy": 7.47 
		},
		"coords": [
			{
				"x": -5.364659242,
				"y": 1.7236488417,
				"z": -0.2848052165,
				"element": "C" 
			},
			{
				"x": -5.2893635841,
				"y": 0.5724547287,
				"z": 1.1281702051,
				"element": "S" 
			},
			{
				"x": -3.5738730942,
				"y": 0.1389867452,
				"z": 1.1112993715,
				"element": "C" 
			},
			{
				"x": -3.0536569539,
				"y": -0.7378826248,
				"z": 2.0895251663,
				"element": "C" 
			},
			{
				"x": -4.2092325612,
				"y": -1.3574440665,
				"z": 3.4697084674,
				"element": "Br" 
			},
			{
				"x": -1.7107037479,
				"y": -1.1165188291,
				"z": 2.0419522694,
				"element": "C" 
			},
			{
				"x": -1.0930526071,
				"y": -2.0523804118,
				"z": 3.0211401213,
				"element": "C" 
			},
			{
				"x": -1.5323872602,
				"y": -3.3791731623,
				"z": 3.131629654,
				"element": "C" 
			},
			{
				"x": -0.9312314201,
				"y": -4.2545299044,
				"z": 4.0324294499,
				"element": "C" 
			},
			{
				"x": 0.1112743083,
				"y": -3.7931858464,
				"z": 4.8366111205,
				"element": "C" 
			},
			{
				"x": 0.8653282844,
				"y": -4.8892426966,
				"z": 5.9812489824,
				"element": "Cl" 
			},
			{
				"x": 0.5652647212,
				"y": -2.4783748266,
				"z": 4.7451164501,
				"element": "C" 
			},
			{
				"x": -0.0350965316,
				"y": -1.6153003128,
				"z": 3.8306211472,
				"element": "C" 
			},
			{
				"x": -0.9162048154,
				"y": -0.5736380294,
				"z": 0.9979625978,
				"element": "C" 
			},
			{
				"x": 0.4181846125,
				"y": -1.036224087,
				"z": 0.7881917777,
				"element": "C" 
			},
			{
				"x": 1.4882024243,
				"y": -1.4455041899,
				"z": 0.5839938669,
				"element": "N" 
			},
			{
				"x": -1.5004183769,
				"y": 0.3606652147,
				"z": 0.1195653111,
				"element": "C" 
			},
			{
				"x": -0.7726309725,
				"y": 0.9632859108,
				"z": -0.9281630041,
				"element": "N" 
			},
			{
				"x": 0.4084402986,
				"y": 2.2021399754,
				"z": -0.5515824675,
				"element": "S" 
			},
			{
				"x": -0.2206131067,
				"y": 3.4770767179,
				"z": -0.9095321418,
				"element": "O" 
			},
			{
				"x": 0.8814376338,
				"y": 1.9284722988,
				"z": 0.803488746,
				"element": "O" 
			},
			{
				"x": 1.7083411364,
				"y": 1.8846178726,
				"z": -1.7333544908,
				"element": "C" 
			},
			{
				"x": 1.7416599058,
				"y": 2.6383023724,
				"z": -2.9078654885,
				"element": "C" 
			},
			{
				"x": 2.765358555,
				"y": 2.4098367285,
				"z": -3.8256079929,
				"element": "C" 
			},
			{
				"x": 3.7522797932,
				"y": 1.4444336359,
				"z": -3.5846416512,
				"element": "C" 
			},
			{
				"x": 4.8449355072,
				"y": 1.1826827759,
				"z": -4.5923331388,
				"element": "C" 
			},
			{
				"x": 3.6958485589,
				"y": 0.7128713926,
				"z": -2.3879881986,
				"element": "C" 
			},
			{
				"x": 2.683709619,
				"y": 0.9232315458,
				"z": -1.4559679382,
				"element": "C" 
			},
			{
				"x": -2.7936631433,
				"y": 0.6783506748,
				"z": 0.1744317872,
				"element": "N" 
			},
			{
				"x": -6.4023996797,
				"y": 2.0618628522,
				"z": -0.3219630354,
				"element": "H" 
			},
			{
				"x": -5.1043395527,
				"y": 1.2175142464,
				"z": -1.2146889498,
				"element": "H" 
			},
			{
				"x": -4.6988053304,
				"y": 2.5722749818,
				"z": -0.1274161026,
				"element": "H" 
			},
			{
				"x": -2.343469092,
				"y": -3.7343035734,
				"z": 2.5046680315,
				"element": "H" 
			},
			{
				"x": -1.2656211535,
				"y": -5.2827800676,
				"z": 4.1109438768,
				"element": "H" 
			},
			{
				"x": 1.3781482213,
				"y": -2.1363468655,
				"z": 5.375423654,
				"element": "H" 
			},
			{
				"x": 0.3184557928,
				"y": -0.5920984949,
				"z": 3.7509826361,
				"element": "H" 
			},
			{
				"x": -1.4354777347,
				"y": 1.3977097314,
				"z": -1.5694321925,
				"element": "H" 
			},
			{
				"x": 0.9906976205,
				"y": 3.3999516209,
				"z": -3.0851371461,
				"element": "H" 
			},
			{
				"x": 2.8014649001,
				"y": 2.9969235093,
				"z": -4.7391808924,
				"element": "H" 
			},
			{
				"x": 4.6336399248,
				"y": 0.2740589627,
				"z": -5.1693472651,
				"element": "H" 
			},
			{
				"x": 4.9436386166,
				"y": 2.0085321166,
				"z": -5.3018434055,
				"element": "H" 
			},
			{
				"x": 5.8122042928,
				"y": 1.0352883496,
				"z": -4.1021175019,
				"element": "H" 
			},
			{
				"x": 4.4585855222,
				"y": -0.032237792,
				"z": -2.1788667547,
				"element": "H" 
			},
			{
				"x": 2.6518997104,
				"y": 0.3506919787,
				"z": -0.5362697153,
				"element": "H" 
			}
		],
		 "valence_orbital": [ 
			{
				"type": "occ",
				"energy": -0.27053,
				"method": "rhf"
			},
			{
				"type": "occ",
				"energy": -0.26964,
				"method": "rhf"
			},
			{
				"type": "occ",
				"energy": -0.26209,
				"method": "rhf"
			},
			{
				"type": "occ",
				"energy": -0.25102,
				"method": "rhf"
			},
			{
				"type": "occ",
				"energy": -0.23514,
				"method": "rhf"
			},
			{
				"type": "unocc",
				"energy": -0.07092,
				"method": "rhf"
			},
			{
				"type": "unocc",
				"energy": -0.05942,
				"method": "rhf"
			},
			{
				"type": "unocc",
				"energy": -0.04084,
				"method": "rhf"
			},
			{
				"type": "unocc",
				"energy": -0.02274,
				"method": "rhf"
			},
			{
				"type": "unocc",
				"energy": -0.02037,
				"method": "rhf"
			}
		],
		"cosmo_sigma_profile": { 
			"-0.025": 0.0,
			"-0.024": 0.0,
			"-0.023": 0.0,
			"-0.022": 0.0,
			"-0.021": 0.0,
			"-0.02": 0.0,
			"-0.019": 0.0,
			"-0.018": 0.0,
			"-0.017": 0.0,
			"-0.016": 0.0238123407224,
			"-0.015": 0.730719458806,
			"-0.014": 0.924659438464,
			"-0.013": 0.487760133027,
			"-0.012": 0.447380748047,
			"-0.011": 1.09766993983,
			"-0.01": 1.02597925563,
			"-0.009": 0.414771125551,
			"-0.008": 4.47155953487,
			"-0.007": 15.168274899,
			"-0.006": 23.2521226707,
			"-0.005": 28.3811874988,
			"-0.004": 29.0962069433,
			"-0.003": 37.063464519,
			"-0.002": 38.5764599039,
			"-0.001": 34.235590841,
			"0.0": 33.6221656516,
			"0.001": 35.2676851221,
			"0.002": 42.7079022522,
			"0.003": 44.0908976766,
			"0.004": 26.647057966,
			"0.005": 14.1360386861,
			"0.006": 9.55123965947,
			"0.007": 7.78339423244,
			"0.008": 5.23946897546,
			"0.009": 8.91944482033,
			"0.01": 9.3843424106,
			"0.011": 4.5923260338,
			"0.012": 1.35507283426,
			"0.013": 0.162666599241,
			"0.014": 0.0,
			"0.015": 0.0,
			"0.016": 0.0,
			"0.017": 0.0,
			"0.018": 0.0,
			"0.019": 0.0,
			"0.02": 0.0,
			"0.021": 0.0,
			"0.022": 0.0,
			"0.023": 0.0,
			"0.024": 0.0,
			"0.025": 0.0
		}
	}
}
