{
	 "smiles": "CC1=CC(C)=C(C(=O)N1)[N+]([O-])=O", 
	 "Tm": 453.15, 
	 "num_atms": 20, 
	 "gaussian": { 
		 "optdone": 1, 
		 "sigma_profile": "yes", 
		 "theory": "DFT", 
		 "functional": "B3LYP", 
		 "basiset": "6-31G**", 
		 "properties": { 
			 "R2extent": 3126.5043, 
			 "electric_dipole_moment_norm": 8.02416709509, 
			 "electric_quadrupole_moment_norm": 26.0302101465, 
			 "total_energy": -606.647915676, 
			 "HOMO_LUMO_gap": 0.16628, 
			 "cosmo_polarized_energy": -19.34, 
			 "cosmo_cavitation_energy": 25.24, 
			 "cosmo_dispersion_energy": -17.82, 
			 "cosmo_repulsion_energy": 1.43, 
			 "cosmo_total_nonelectrostatic_energy": 8.85, 
			 "SMD_solvation_energy": 7.93 
		},
		"coords": [
			{
				"x": -1.3223018627,
				"y": -1.6705903292,
				"z": 0.4157160233,
				"element": "C" 
			},
			{
				"x": -0.5021834317,
				"y": -0.6803856894,
				"z": -0.3590765798,
				"element": "C" 
			},
			{
				"x": 0.0298601682,
				"y": 0.4634007991,
				"z": 0.1677648567,
				"element": "C" 
			},
			{
				"x": 0.8011466955,
				"y": 1.3522564394,
				"z": -0.6479821116,
				"element": "C" 
			},
			{
				"x": 1.3710875204,
				"y": 2.6032866333,
				"z": -0.0308660536,
				"element": "C" 
			},
			{
				"x": 0.9849054415,
				"y": 1.0191966403,
				"z": -1.9610740764,
				"element": "C" 
			},
			{
				"x": 0.4507345558,
				"y": -0.1768692022,
				"z": -2.5879544529,
				"element": "C" 
			},
			{
				"x": 0.5880382136,
				"y": -0.5164004859,
				"z": -3.7555345723,
				"element": "O" 
			},
			{
				"x": -0.2842840979,
				"y": -0.9614350432,
				"z": -1.6822106179,
				"element": "N" 
			},
			{
				"x": 1.7668139544,
				"y": 1.8859982288,
				"z": -2.8589281297,
				"element": "N" 
			},
			{
				"x": 1.1546321513,
				"y": 2.7639925061,
				"z": -3.4577717117,
				"element": "O" 
			},
			{
				"x": 2.9728815152,
				"y": 1.6737806435,
				"z": -2.9268833841,
				"element": "O" 
			},
			{
				"x": -0.8511449512,
				"y": -2.6604229798,
				"z": 0.4110704772,
				"element": "H" 
			},
			{
				"x": -2.3229902671,
				"y": -1.7778201283,
				"z": -0.0189124564,
				"element": "H" 
			},
			{
				"x": -1.4332915626,
				"y": -1.3504222167,
				"z": 1.4528085568,
				"element": "H" 
			},
			{
				"x": -0.1339513239,
				"y": 0.6990409644,
				"z": 1.2125181421,
				"element": "H" 
			},
			{
				"x": 0.5638281098,
				"y": 3.2229944241,
				"z": 0.3740143885,
				"element": "H" 
			},
			{
				"x": 1.9399825619,
				"y": 3.2055187066,
				"z": -0.7396492759,
				"element": "H" 
			},
			{
				"x": 2.0309454702,
				"y": 2.342702931,
				"z": 0.8035860955,
				"element": "H" 
			},
			{
				"x": -0.6689088606,
				"y": -1.8036228417,
				"z": -2.0944351178,
				"element": "H" 
			}
		],
		 "valence_orbital": [ 
			{
				"type": "occ",
				"energy": -0.30624,
				"method": "rhf"
			},
			{
				"type": "occ",
				"energy": -0.29936,
				"method": "rhf"
			},
			{
				"type": "occ",
				"energy": -0.28533,
				"method": "rhf"
			},
			{
				"type": "occ",
				"energy": -0.26738,
				"method": "rhf"
			},
			{
				"type": "occ",
				"energy": -0.23064,
				"method": "rhf"
			},
			{
				"type": "unocc",
				"energy": -0.06436,
				"method": "rhf"
			},
			{
				"type": "unocc",
				"energy": -0.05465,
				"method": "rhf"
			},
			{
				"type": "unocc",
				"energy": -0.00329,
				"method": "rhf"
			},
			{
				"type": "unocc",
				"energy": 0.05662,
				"method": "rhf"
			},
			{
				"type": "unocc",
				"energy": 0.09769,
				"method": "rhf"
			}
		],
		"cosmo_sigma_profile": { 
			"-0.025": 0.0,
			"-0.024": 0.0,
			"-0.023": 0.0,
			"-0.022": 0.0,
			"-0.021": 0.0,
			"-0.02": 0.0,
			"-0.019": 0.0,
			"-0.018": 0.0,
			"-0.017": 0.0125495711602,
			"-0.016": 0.765505105814,
			"-0.015": 1.36766177487,
			"-0.014": 1.06042591235,
			"-0.013": 0.842370279629,
			"-0.012": 1.13667712028,
			"-0.011": 1.25768185753,
			"-0.01": 0.860054782887,
			"-0.009": 1.33468542717,
			"-0.008": 2.54592805339,
			"-0.007": 7.24687130277,
			"-0.006": 15.5272991546,
			"-0.005": 13.9724290359,
			"-0.004": 15.2810953151,
			"-0.003": 14.1122929597,
			"-0.002": 22.2053470429,
			"-0.001": 15.7920160506,
			"0.0": 8.73856055932,
			"0.001": 6.38047560196,
			"0.002": 7.0421861436,
			"0.003": 4.51327846305,
			"0.004": 5.58906726639,
			"0.005": 5.95565968162,
			"0.006": 7.02910408872,
			"0.007": 12.3933032063,
			"0.008": 8.43411587132,
			"0.009": 5.10715273495,
			"0.01": 2.45352097472,
			"0.011": 1.39025203835,
			"0.012": 2.0996529606,
			"0.013": 6.12781997904,
			"0.014": 1.90306617441,
			"0.015": 0.0,
			"0.016": 0.0,
			"0.017": 0.0,
			"0.018": 0.0,
			"0.019": 0.0,
			"0.02": 0.0,
			"0.021": 0.0,
			"0.022": 0.0,
			"0.023": 0.0,
			"0.024": 0.0,
			"0.025": 0.0
		}
	}
}
