{
	 "smiles": "CC1=C(OC2=C1C(C)=CC=C2C)C(O)=O", 
	 "Tm": 513.15, 
	 "num_atms": 27, 
	 "gaussian": { 
		 "optdone": 1, 
		 "sigma_profile": "yes", 
		 "theory": "DFT", 
		 "functional": "B3LYP", 
		 "basiset": "6-31G**", 
		 "properties": { 
			 "R2extent": 3839.0443, 
			 "electric_dipole_moment_norm": 5.41461884254, 
			 "electric_quadrupole_moment_norm": 20.1989400066, 
			 "total_energy": -690.196743241, 
			 "HOMO_LUMO_gap": 0.17178, 
			 "cosmo_polarized_energy": -15.34, 
			 "cosmo_cavitation_energy": 30.45, 
			 "cosmo_dispersion_energy": -22.04, 
			 "cosmo_repulsion_energy": 1.71, 
			 "cosmo_total_nonelectrostatic_energy": 10.12, 
			 "SMD_solvation_energy": 6.61 
		},
		"coords": [
			{
				"x": -1.4763391141,
				"y": 0.6502256662,
				"z": -1.7848356567,
				"element": "C" 
			},
			{
				"x": -0.951748292,
				"y": -0.3911146245,
				"z": -0.8358998746,
				"element": "C" 
			},
			{
				"x": -1.6473832674,
				"y": -1.4281609304,
				"z": -0.2612494665,
				"element": "C" 
			},
			{
				"x": -0.8326009305,
				"y": -2.2326695356,
				"z": 0.4981483656,
				"element": "O" 
			},
			{
				"x": 0.414692554,
				"y": -1.6914511592,
				"z": 0.4314327766,
				"element": "C" 
			},
			{
				"x": 0.416378465,
				"y": -0.5443193634,
				"z": -0.3823922815,
				"element": "C" 
			},
			{
				"x": 1.6291992083,
				"y": 0.1637083617,
				"z": -0.5772736455,
				"element": "C" 
			},
			{
				"x": 1.7313075049,
				"y": 1.4015315654,
				"z": -1.4350580233,
				"element": "C" 
			},
			{
				"x": 2.7494012083,
				"y": -0.3457129135,
				"z": 0.0734943974,
				"element": "C" 
			},
			{
				"x": 2.7050138447,
				"y": -1.4995990676,
				"z": 0.8818903125,
				"element": "C" 
			},
			{
				"x": 1.5301881386,
				"y": -2.2162349478,
				"z": 1.0920313052,
				"element": "C" 
			},
			{
				"x": 1.4374424206,
				"y": -3.4513043083,
				"z": 1.946979141,
				"element": "C" 
			},
			{
				"x": -3.049606117,
				"y": -1.8966700683,
				"z": -0.3508651376,
				"element": "C" 
			},
			{
				"x": -3.9729220552,
				"y": -0.9401595004,
				"z": -0.6612204729,
				"element": "O" 
			},
			{
				"x": -3.3856193397,
				"y": -3.0416164337,
				"z": -0.1779517564,
				"element": "O" 
			},
			{
				"x": -1.5548982962,
				"y": 1.6356283229,
				"z": -1.3092032385,
				"element": "H" 
			},
			{
				"x": -0.8069615486,
				"y": 0.764884492,
				"z": -2.6411757057,
				"element": "H" 
			},
			{
				"x": -2.4576675339,
				"y": 0.3799897881,
				"z": -2.1818731672,
				"element": "H" 
			},
			{
				"x": 1.0090624732,
				"y": 2.1689853739,
				"z": -1.1365562547,
				"element": "H" 
			},
			{
				"x": 2.7300928196,
				"y": 1.8392317407,
				"z": -1.3593706744,
				"element": "H" 
			},
			{
				"x": 1.5502035493,
				"y": 1.1809479723,
				"z": -2.4936963139,
				"element": "H" 
			},
			{
				"x": 3.6997054899,
				"y": 0.1682724749,
				"z": -0.0445008987,
				"element": "H" 
			},
			{
				"x": 3.6197487198,
				"y": -1.8419844118,
				"z": 1.3586707646,
				"element": "H" 
			},
			{
				"x": 2.4137497563,
				"y": -3.7096498371,
				"z": 2.3646179437,
				"element": "H" 
			},
			{
				"x": 1.0721962441,
				"y": -4.3073438066,
				"z": 1.3691884959,
				"element": "H" 
			},
			{
				"x": 0.7357395503,
				"y": -3.3090333669,
				"z": 2.7763676892,
				"element": "H" 
			},
			{
				"x": -3.5869754522,
				"y": -0.0605814827,
				"z": -0.5486986235,
				"element": "H" 
			}
		],
		 "valence_orbital": [ 
			{
				"type": "occ",
				"energy": -0.31701,
				"method": "rhf"
			},
			{
				"type": "occ",
				"energy": -0.2888,
				"method": "rhf"
			},
			{
				"type": "occ",
				"energy": -0.27625,
				"method": "rhf"
			},
			{
				"type": "occ",
				"energy": -0.24124,
				"method": "rhf"
			},
			{
				"type": "occ",
				"energy": -0.22487,
				"method": "rhf"
			},
			{
				"type": "unocc",
				"energy": -0.05309,
				"method": "rhf"
			},
			{
				"type": "unocc",
				"energy": 0.004,
				"method": "rhf"
			},
			{
				"type": "unocc",
				"energy": 0.01234,
				"method": "rhf"
			},
			{
				"type": "unocc",
				"energy": 0.0553,
				"method": "rhf"
			},
			{
				"type": "unocc",
				"energy": 0.08011,
				"method": "rhf"
			}
		],
		"cosmo_sigma_profile": { 
			"-0.025": 0.0,
			"-0.024": 0.0,
			"-0.023": 0.0,
			"-0.022": 0.0,
			"-0.021": 0.0,
			"-0.02": 0.0,
			"-0.019": 0.0,
			"-0.018": 0.342955836133,
			"-0.017": 0.749608284693,
			"-0.016": 0.760060350454,
			"-0.015": 0.771220711088,
			"-0.014": 0.906412425524,
			"-0.013": 1.02620344119,
			"-0.012": 1.08657916898,
			"-0.011": 0.831882808178,
			"-0.01": 0.845544474637,
			"-0.009": 0.88680891705,
			"-0.008": 1.44075411819,
			"-0.007": 1.78113639071,
			"-0.006": 5.21014920531,
			"-0.005": 19.8924975224,
			"-0.004": 24.3575428146,
			"-0.003": 20.1766392745,
			"-0.002": 21.4553713255,
			"-0.001": 22.3234572181,
			"0.0": 24.64025038,
			"0.001": 16.6540782242,
			"0.002": 11.7625596941,
			"0.003": 10.8332692947,
			"0.004": 10.0501353422,
			"0.005": 9.72826844739,
			"0.006": 3.24783656101,
			"0.007": 3.19013012265,
			"0.008": 3.56561527222,
			"0.009": 4.38699303642,
			"0.01": 5.28210374145,
			"0.011": 6.6619072515,
			"0.012": 5.46557000171,
			"0.013": 1.48962723918,
			"0.014": 0.0,
			"0.015": 0.0,
			"0.016": 0.0,
			"0.017": 0.0,
			"0.018": 0.0,
			"0.019": 0.0,
			"0.02": 0.0,
			"0.021": 0.0,
			"0.022": 0.0,
			"0.023": 0.0,
			"0.024": 0.0,
			"0.025": 0.0
		}
	}
}
