{
	 "smiles": "OC1=CC(F)=CC(F)=C1", 
	 "Tm": 326.15, 
	 "num_atms": 13, 
	 "gaussian": { 
		 "optdone": 1, 
		 "sigma_profile": "yes", 
		 "theory": "DFT", 
		 "functional": "B3LYP", 
		 "basiset": "6-31G**", 
		 "properties": { 
			 "R2extent": 2225.4995, 
			 "electric_dipole_moment_norm": 2.02702400084, 
			 "electric_quadrupole_moment_norm": 5.99978368693, 
			 "total_energy": -505.934169804, 
			 "HOMO_LUMO_gap": 0.23382, 
			 "cosmo_polarized_energy": -7.65, 
			 "cosmo_cavitation_energy": 18.51, 
			 "cosmo_dispersion_energy": -13.62, 
			 "cosmo_repulsion_energy": 1.07, 
			 "cosmo_total_nonelectrostatic_energy": 5.96, 
			 "SMD_solvation_energy": 4.7 
		},
		"coords": [
			{
				"x": 1.4202069813,
				"y": 3.1639911231,
				"z": -0.3477969939,
				"element": "O" 
			},
			{
				"x": 1.1620404022,
				"y": 2.173143693,
				"z": 0.5495168496,
				"element": "C" 
			},
			{
				"x": 0.2350050725,
				"y": 1.1551694392,
				"z": 0.2943676663,
				"element": "C" 
			},
			{
				"x": 0.0372173165,
				"y": 0.1849618158,
				"z": 1.2707887656,
				"element": "C" 
			},
			{
				"x": -0.8544740633,
				"y": -0.794273404,
				"z": 1.0254674672,
				"element": "F" 
			},
			{
				"x": 0.7148370812,
				"y": 0.1796501947,
				"z": 2.4832154741,
				"element": "C" 
			},
			{
				"x": 1.6257801056,
				"y": 1.212475022,
				"z": 2.6893883895,
				"element": "C" 
			},
			{
				"x": 2.3030856047,
				"y": 1.2426819255,
				"z": 3.8526495504,
				"element": "F" 
			},
			{
				"x": 1.8695728068,
				"y": 2.2104479468,
				"z": 1.7567736433,
				"element": "C" 
			},
			{
				"x": 0.8768597843,
				"y": 3.0335154336,
				"z": -1.1356065526,
				"element": "H" 
			},
			{
				"x": -0.3247987482,
				"y": 1.106071617,
				"z": -0.6339760168,
				"element": "H" 
			},
			{
				"x": 0.5438529959,
				"y": -0.5864541565,
				"z": 3.227991987,
				"element": "H" 
			},
			{
				"x": 2.5864146604,
				"y": 2.9973193499,
				"z": 1.9544197702,
				"element": "H" 
			}
		],
		 "valence_orbital": [ 
			{
				"type": "occ",
				"energy": -0.37491,
				"method": "rhf"
			},
			{
				"type": "occ",
				"energy": -0.36581,
				"method": "rhf"
			},
			{
				"type": "occ",
				"energy": -0.32873,
				"method": "rhf"
			},
			{
				"type": "occ",
				"energy": -0.25066,
				"method": "rhf"
			},
			{
				"type": "occ",
				"energy": -0.2371,
				"method": "rhf"
			},
			{
				"type": "unocc",
				"energy": -0.00328,
				"method": "rhf"
			},
			{
				"type": "unocc",
				"energy": 0.00048,
				"method": "rhf"
			},
			{
				"type": "unocc",
				"energy": 0.05884,
				"method": "rhf"
			},
			{
				"type": "unocc",
				"energy": 0.08077,
				"method": "rhf"
			},
			{
				"type": "unocc",
				"energy": 0.13765,
				"method": "rhf"
			}
		],
		"cosmo_sigma_profile": { 
			"-0.025": 0.0,
			"-0.024": 0.0,
			"-0.023": 0.0,
			"-0.022": 0.0,
			"-0.021": 0.0,
			"-0.02": 0.0,
			"-0.019": 0.13358224704,
			"-0.018": 1.1184747209,
			"-0.017": 1.18771682475,
			"-0.016": 1.30535621596,
			"-0.015": 0.782006335213,
			"-0.014": 1.12010828912,
			"-0.013": 1.20366880062,
			"-0.012": 0.634723178819,
			"-0.011": 1.13887406971,
			"-0.01": 0.946906946337,
			"-0.009": 1.45912779334,
			"-0.008": 3.53639255156,
			"-0.007": 4.97986689316,
			"-0.006": 3.12967047405,
			"-0.005": 4.56489863377,
			"-0.004": 3.92383304853,
			"-0.003": 3.86855472774,
			"-0.002": 5.17227047155,
			"-0.001": 5.63075539166,
			"0.0": 10.5270040826,
			"0.001": 18.2086941092,
			"0.002": 22.3007916897,
			"0.003": 17.7518603699,
			"0.004": 21.6294986299,
			"0.005": 4.15748637424,
			"0.006": 0.941934901649,
			"0.007": 1.80992268856,
			"0.008": 1.12188543067,
			"0.009": 1.48721251935,
			"0.01": 1.9141647173,
			"0.011": 1.06713492108,
			"0.012": 0.0,
			"0.013": 0.0,
			"0.014": 0.0,
			"0.015": 0.0,
			"0.016": 0.0,
			"0.017": 0.0,
			"0.018": 0.0,
			"0.019": 0.0,
			"0.02": 0.0,
			"0.021": 0.0,
			"0.022": 0.0,
			"0.023": 0.0,
			"0.024": 0.0,
			"0.025": 0.0
		}
	}
}
