{
	 "smiles": "COC(=O)N(C)C1=CC=C(O)C=C1", 
	 "Tm": 373.15, 
	 "num_atms": 24, 
	 "gaussian": { 
		 "optdone": 1, 
		 "sigma_profile": "yes", 
		 "theory": "DFT", 
		 "functional": "B3LYP", 
		 "basiset": "6-31G**", 
		 "properties": { 
			 "R2extent": 3736.7923, 
			 "electric_dipole_moment_norm": 1.61426482028, 
			 "electric_quadrupole_moment_norm": 11.5624175201, 
			 "total_energy": -630.015988753, 
			 "HOMO_LUMO_gap": 0.20107, 
			 "cosmo_polarized_energy": -13.35, 
			 "cosmo_cavitation_energy": 27.8, 
			 "cosmo_dispersion_energy": -20.49, 
			 "cosmo_repulsion_energy": 1.63, 
			 "cosmo_total_nonelectrostatic_energy": 8.94, 
			 "SMD_solvation_energy": 6.74 
		},
		"coords": [
			{
				"x": 1.2172981529,
				"y": -1.3834480409,
				"z": -5.3524775185,
				"element": "C" 
			},
			{
				"x": 1.7920693667,
				"y": -1.3235126648,
				"z": -4.0408259396,
				"element": "O" 
			},
			{
				"x": 0.9845534679,
				"y": -0.7593577471,
				"z": -3.0997078511,
				"element": "C" 
			},
			{
				"x": -0.140236953,
				"y": -0.3597509324,
				"z": -3.3440097586,
				"element": "O" 
			},
			{
				"x": 1.6189804912,
				"y": -0.7053885322,
				"z": -1.8769750476,
				"element": "N" 
			},
			{
				"x": 2.9673085521,
				"y": -1.2555659828,
				"z": -1.7107631232,
				"element": "C" 
			},
			{
				"x": 0.9093606728,
				"y": -0.2713657552,
				"z": -0.7135155624,
				"element": "C" 
			},
			{
				"x": 0.0439520129,
				"y": 0.830258622,
				"z": -0.7487613173,
				"element": "C" 
			},
			{
				"x": -0.6089236922,
				"y": 1.2502564905,
				"z": 0.4073003549,
				"element": "C" 
			},
			{
				"x": -0.4002672885,
				"y": 0.5909998446,
				"z": 1.6229616033,
				"element": "C" 
			},
			{
				"x": -1.0102942333,
				"y": 0.9684320421,
				"z": 2.7877770038,
				"element": "O" 
			},
			{
				"x": 0.4664859687,
				"y": -0.5032458443,
				"z": 1.6680562591,
				"element": "C" 
			},
			{
				"x": 1.1067156976,
				"y": -0.9314169887,
				"z": 0.5080126107,
				"element": "C" 
			},
			{
				"x": 0.2989139762,
				"y": -1.9754613718,
				"z": -5.3474176945,
				"element": "H" 
			},
			{
				"x": 1.9733608686,
				"y": -1.856886714,
				"z": -5.9797182908,
				"element": "H" 
			},
			{
				"x": 0.9862071814,
				"y": -0.3814511003,
				"z": -5.7230549028,
				"element": "H" 
			},
			{
				"x": 2.9593716959,
				"y": -2.3379695505,
				"z": -1.5314152209,
				"element": "H" 
			},
			{
				"x": 3.5538937801,
				"y": -1.063355883,
				"z": -2.6074228763,
				"element": "H" 
			},
			{
				"x": 3.4411706585,
				"y": -0.760565604,
				"z": -0.8613664247,
				"element": "H" 
			},
			{
				"x": -0.131180032,
				"y": 1.3448458794,
				"z": -1.6835623595,
				"element": "H" 
			},
			{
				"x": -1.2806199781,
				"y": 2.1051959565,
				"z": 0.3606935918,
				"element": "H" 
			},
			{
				"x": -1.583850049,
				"y": 1.7251157922,
				"z": 2.6110914111,
				"element": "H" 
			},
			{
				"x": 0.6215285502,
				"y": -1.0154364679,
				"z": 2.6117450016,
				"element": "H" 
			},
			{
				"x": 1.7595011324,
				"y": -1.7963254476,
				"z": 0.5597560517,
				"element": "H" 
			}
		],
		 "valence_orbital": [ 
			{
				"type": "occ",
				"energy": -0.29506,
				"method": "rhf"
			},
			{
				"type": "occ",
				"energy": -0.2688,
				"method": "rhf"
			},
			{
				"type": "occ",
				"energy": -0.26596,
				"method": "rhf"
			},
			{
				"type": "occ",
				"energy": -0.24872,
				"method": "rhf"
			},
			{
				"type": "occ",
				"energy": -0.20128,
				"method": "rhf"
			},
			{
				"type": "unocc",
				"energy": -0.00021,
				"method": "rhf"
			},
			{
				"type": "unocc",
				"energy": 0.01142,
				"method": "rhf"
			},
			{
				"type": "unocc",
				"energy": 0.05961,
				"method": "rhf"
			},
			{
				"type": "unocc",
				"energy": 0.0731,
				"method": "rhf"
			},
			{
				"type": "unocc",
				"energy": 0.09502,
				"method": "rhf"
			}
		],
		"cosmo_sigma_profile": { 
			"-0.025": 0.0,
			"-0.024": 0.0,
			"-0.023": 0.0,
			"-0.022": 0.0,
			"-0.021": 0.0,
			"-0.02": 0.0,
			"-0.019": 0.0,
			"-0.018": 0.184665263179,
			"-0.017": 1.08219389101,
			"-0.016": 1.12050245562,
			"-0.015": 1.22797664277,
			"-0.014": 1.11049894756,
			"-0.013": 0.813266606643,
			"-0.012": 1.0041571499,
			"-0.011": 0.937183715636,
			"-0.01": 0.900436976103,
			"-0.009": 1.16381226163,
			"-0.008": 1.04455322276,
			"-0.007": 1.7284418677,
			"-0.006": 9.99726617672,
			"-0.005": 18.8080821967,
			"-0.004": 21.0875354177,
			"-0.003": 20.2763150919,
			"-0.002": 18.497340853,
			"-0.001": 14.279663474,
			"0.0": 11.600119712,
			"0.001": 10.7055998585,
			"0.002": 9.88522924326,
			"0.003": 12.0952352163,
			"0.004": 13.4594086197,
			"0.005": 14.734936465,
			"0.006": 6.81837051567,
			"0.007": 4.23233612946,
			"0.008": 3.61515774605,
			"0.009": 2.21686937904,
			"0.01": 3.90039744089,
			"0.011": 3.99061370091,
			"0.012": 3.38381205735,
			"0.013": 4.23794467915,
			"0.014": 0.290616086171,
			"0.015": 0.0,
			"0.016": 0.0,
			"0.017": 0.0,
			"0.018": 0.0,
			"0.019": 0.0,
			"0.02": 0.0,
			"0.021": 0.0,
			"0.022": 0.0,
			"0.023": 0.0,
			"0.024": 0.0,
			"0.025": 0.0
		}
	}
}
