{
	 "smiles": "CC1=CC=C(NN=C(C#N)C2=NC(=CS2)C2=CC=C(Cl)C=C2)C=C1", 
	 "Tm": 481.15, 
	 "num_atms": 37, 
	 "gaussian": { 
		 "optdone": 1, 
		 "sigma_profile": "yes", 
		 "theory": "DFT", 
		 "functional": "B3LYP", 
		 "basiset": "6-31G**", 
		 "properties": { 
			 "R2extent": 13103.96, 
			 "electric_dipole_moment_norm": 8.05580302949, 
			 "electric_quadrupole_moment_norm": 10.2180470781, 
			 "total_energy": -1771.06761634, 
			 "HOMO_LUMO_gap": 0.13349, 
			 "cosmo_polarized_energy": -18.3, 
			 "cosmo_cavitation_energy": 46.62, 
			 "cosmo_dispersion_energy": -32.23, 
			 "cosmo_repulsion_energy": 2.43, 
			 "cosmo_total_nonelectrostatic_energy": 16.82, 
			 "SMD_solvation_energy": 7.04 
		},
		"coords": [
			{
				"x": 1.4928879144,
				"y": 3.5333793826,
				"z": 3.6972435294,
				"element": "C" 
			},
			{
				"x": 0.4748177795,
				"y": 2.552967665,
				"z": 3.1659764141,
				"element": "C" 
			},
			{
				"x": -0.1127019511,
				"y": 1.5925010361,
				"z": 4.0002154842,
				"element": "C" 
			},
			{
				"x": -1.0214430842,
				"y": 0.6614793082,
				"z": 3.5037393948,
				"element": "C" 
			},
			{
				"x": -1.3795148952,
				"y": 0.6814201182,
				"z": 2.1506477435,
				"element": "C" 
			},
			{
				"x": -2.3807426033,
				"y": -0.2484035996,
				"z": 1.7259249993,
				"element": "N" 
			},
			{
				"x": -2.7565882933,
				"y": -0.5248133277,
				"z": 0.4580496978,
				"element": "N" 
			},
			{
				"x": -1.9008428735,
				"y": -0.7910820496,
				"z": -0.4882896531,
				"element": "C" 
			},
			{
				"x": -2.51316385,
				"y": -0.9909047931,
				"z": -1.7808465135,
				"element": "C" 
			},
			{
				"x": -3.0096255918,
				"y": -1.1385523817,
				"z": -2.8215160173,
				"element": "N" 
			},
			{
				"x": -0.4487649392,
				"y": -1.029308919,
				"z": -0.4552805907,
				"element": "C" 
			},
			{
				"x": 0.2756859013,
				"y": -0.9861980702,
				"z": -1.543425678,
				"element": "N" 
			},
			{
				"x": 1.5667430196,
				"y": -1.4060464027,
				"z": -1.3341790214,
				"element": "C" 
			},
			{
				"x": 1.8224538384,
				"y": -1.8046007292,
				"z": -0.0387019494,
				"element": "C" 
			},
			{
				"x": 0.4264100931,
				"y": -1.6281447024,
				"z": 0.9515360275,
				"element": "S" 
			},
			{
				"x": 2.51597229,
				"y": -1.4012021832,
				"z": -2.4637506853,
				"element": "C" 
			},
			{
				"x": 3.8832668696,
				"y": -1.6652160192,
				"z": -2.2847556445,
				"element": "C" 
			},
			{
				"x": 4.7630379109,
				"y": -1.6641580856,
				"z": -3.3634151215,
				"element": "C" 
			},
			{
				"x": 4.2731267533,
				"y": -1.3925300968,
				"z": -4.6412171498,
				"element": "C" 
			},
			{
				"x": 5.3786583964,
				"y": -1.3875422917,
				"z": -6.0066759945,
				"element": "Cl" 
			},
			{
				"x": 2.9207689163,
				"y": -1.1227333333,
				"z": -4.8475045423,
				"element": "C" 
			},
			{
				"x": 2.0506638893,
				"y": -1.1275246767,
				"z": -3.7603255923,
				"element": "C" 
			},
			{
				"x": -0.8153232287,
				"y": 1.6413584346,
				"z": 1.303537439,
				"element": "C" 
			},
			{
				"x": 0.102406131,
				"y": 2.5568108255,
				"z": 1.8150891704,
				"element": "C" 
			},
			{
				"x": 1.4532799282,
				"y": 4.4835758128,
				"z": 3.1562105891,
				"element": "H" 
			},
			{
				"x": 2.5130357686,
				"y": 3.142915452,
				"z": 3.5926061522,
				"element": "H" 
			},
			{
				"x": 1.3322054048,
				"y": 3.7415031273,
				"z": 4.7591768524,
				"element": "H" 
			},
			{
				"x": 0.1494046469,
				"y": 1.5656474806,
				"z": 5.0547709175,
				"element": "H" 
			},
			{
				"x": -1.4569541251,
				"y": -0.0852840995,
				"z": 4.1621591446,
				"element": "H" 
			},
			{
				"x": -3.2099104305,
				"y": -0.2091964339,
				"z": 2.3061161693,
				"element": "H" 
			},
			{
				"x": 2.7417096231,
				"y": -2.1841159825,
				"z": 0.3830465698,
				"element": "H" 
			},
			{
				"x": 4.2779065661,
				"y": -1.8661876366,
				"z": -1.2934506948,
				"element": "H" 
			},
			{
				"x": 5.8180435674,
				"y": -1.8671078343,
				"z": -3.2169562255,
				"element": "H" 
			},
			{
				"x": 2.5537734966,
				"y": -0.9134930136,
				"z": -5.8461783992,
				"element": "H" 
			},
			{
				"x": 0.9964023379,
				"y": -0.9211927254,
				"z": -3.9063030216,
				"element": "H" 
			},
			{
				"x": -1.0980246828,
				"y": 1.6879582895,
				"z": 0.2581159318,
				"element": "H" 
			},
			{
				"x": 0.5288395059,
				"y": 3.2996224554,
				"z": 1.145810268,
				"element": "H" 
			}
		],
		 "valence_orbital": [ 
			{
				"type": "occ",
				"energy": -0.27216,
				"method": "rhf"
			},
			{
				"type": "occ",
				"energy": -0.26817,
				"method": "rhf"
			},
			{
				"type": "occ",
				"energy": -0.26559,
				"method": "rhf"
			},
			{
				"type": "occ",
				"energy": -0.22975,
				"method": "rhf"
			},
			{
				"type": "occ",
				"energy": -0.22025,
				"method": "rhf"
			},
			{
				"type": "unocc",
				"energy": -0.08676,
				"method": "rhf"
			},
			{
				"type": "unocc",
				"energy": -0.04459,
				"method": "rhf"
			},
			{
				"type": "unocc",
				"energy": -0.02447,
				"method": "rhf"
			},
			{
				"type": "unocc",
				"energy": -0.01619,
				"method": "rhf"
			},
			{
				"type": "unocc",
				"energy": -0.01117,
				"method": "rhf"
			}
		],
		"cosmo_sigma_profile": { 
			"-0.025": 0.0,
			"-0.024": 0.0,
			"-0.023": 0.0,
			"-0.022": 0.0,
			"-0.021": 0.0,
			"-0.02": 0.0,
			"-0.019": 0.0,
			"-0.018": 0.0,
			"-0.017": 0.0,
			"-0.016": 0.47281036942,
			"-0.015": 1.29871213697,
			"-0.014": 1.30004948632,
			"-0.013": 1.18384010592,
			"-0.012": 0.856356899883,
			"-0.011": 1.75591321111,
			"-0.01": 3.37009705792,
			"-0.009": 4.15011122743,
			"-0.008": 5.03912195253,
			"-0.007": 9.40672908252,
			"-0.006": 14.4645105965,
			"-0.005": 19.62020688,
			"-0.004": 22.7368980523,
			"-0.003": 24.1183336439,
			"-0.002": 24.0579347988,
			"-0.001": 27.3968416212,
			"0.0": 34.5760916489,
			"0.001": 38.2938775891,
			"0.002": 34.2778255384,
			"0.003": 32.6773836976,
			"0.004": 28.5716165205,
			"0.005": 16.6519973777,
			"0.006": 5.09788221949,
			"0.007": 6.72740333523,
			"0.008": 6.34919726722,
			"0.009": 5.5575040724,
			"0.01": 3.34062809534,
			"0.011": 3.13655366292,
			"0.012": 2.32470394305,
			"0.013": 0.94653312737,
			"0.014": 0.0,
			"0.015": 0.0,
			"0.016": 0.0,
			"0.017": 0.0,
			"0.018": 0.0,
			"0.019": 0.0,
			"0.02": 0.0,
			"0.021": 0.0,
			"0.022": 0.0,
			"0.023": 0.0,
			"0.024": 0.0,
			"0.025": 0.0
		}
	}
}
