{
	 "smiles": "OC(=O)C=CC1=CC(OC2CCCCC2)=CC=C1", 
	 "Tm": 370.15, 
	 "num_atms": 36, 
	 "gaussian": { 
		 "optdone": 1, 
		 "sigma_profile": "yes", 
		 "theory": "DFT", 
		 "functional": "B3LYP", 
		 "basiset": "6-31G**", 
		 "properties": { 
			 "R2extent": 6970.492, 
			 "electric_dipole_moment_norm": 6.39797848152, 
			 "electric_quadrupole_moment_norm": 33.1087886369, 
			 "total_energy": -808.103352639, 
			 "HOMO_LUMO_gap": 0.16892, 
			 "cosmo_polarized_energy": -17.29, 
			 "cosmo_cavitation_energy": 37.9, 
			 "cosmo_dispersion_energy": -26.87, 
			 "cosmo_repulsion_energy": 2.09, 
			 "cosmo_total_nonelectrostatic_energy": 13.12, 
			 "SMD_solvation_energy": 6.82 
		},
		"coords": [
			{
				"x": 3.8021249869,
				"y": -0.4782921446,
				"z": -5.2427827155,
				"element": "O" 
			},
			{
				"x": 3.5608906128,
				"y": 0.6825293135,
				"z": -4.5678063481,
				"element": "C" 
			},
			{
				"x": 3.9487095786,
				"y": 1.7357673505,
				"z": -5.0186053729,
				"element": "O" 
			},
			{
				"x": 2.8283528626,
				"y": 0.5884083524,
				"z": -3.2795602959,
				"element": "C" 
			},
			{
				"x": 2.757919533,
				"y": -0.5152261221,
				"z": -2.5117485011,
				"element": "C" 
			},
			{
				"x": 2.1030204327,
				"y": -0.6592619753,
				"z": -1.2080016253,
				"element": "C" 
			},
			{
				"x": 1.4017925364,
				"y": 0.3909872201,
				"z": -0.5885817017,
				"element": "C" 
			},
			{
				"x": 0.7876913229,
				"y": 0.2095678329,
				"z": 0.6516495554,
				"element": "C" 
			},
			{
				"x": 0.1885072359,
				"y": 1.2781000606,
				"z": 1.2735119899,
				"element": "O" 
			},
			{
				"x": -1.2381032278,
				"y": 1.5228709239,
				"z": 1.1248120167,
				"element": "C" 
			},
			{
				"x": -1.6529288127,
				"y": 1.7269373593,
				"z": -0.3416245567,
				"element": "C" 
			},
			{
				"x": -3.1811680861,
				"y": 1.6474430351,
				"z": -0.477349525,
				"element": "C" 
			},
			{
				"x": -3.7015646389,
				"y": 0.225494021,
				"z": -0.1478993043,
				"element": "C" 
			},
			{
				"x": -2.7778386258,
				"y": -0.5162688655,
				"z": 0.8471815121,
				"element": "C" 
			},
			{
				"x": -2.1278023669,
				"y": 0.4675270849,
				"z": 1.8295650378,
				"element": "C" 
			},
			{
				"x": 0.8922469008,
				"y": -1.028734539,
				"z": 1.3052348591,
				"element": "C" 
			},
			{
				"x": 1.5825213687,
				"y": -2.0764999112,
				"z": 0.6978266494,
				"element": "C" 
			},
			{
				"x": 2.1782770454,
				"y": -1.8991600862,
				"z": -0.5492649694,
				"element": "C" 
			},
			{
				"x": 3.279140667,
				"y": -1.1957768511,
				"z": -4.8595591578,
				"element": "H" 
			},
			{
				"x": 2.4141545977,
				"y": 1.5373084184,
				"z": -2.9548173117,
				"element": "H" 
			},
			{
				"x": 3.2576462122,
				"y": -1.4219303753,
				"z": -2.8560730315,
				"element": "H" 
			},
			{
				"x": 1.3368814168,
				"y": 1.3693905478,
				"z": -1.0510174489,
				"element": "H" 
			},
			{
				"x": -1.3461267408,
				"y": 2.4729646786,
				"z": 1.6565065925,
				"element": "H" 
			},
			{
				"x": -1.1992539118,
				"y": 0.9475080763,
				"z": -0.9647402831,
				"element": "H" 
			},
			{
				"x": -1.2672417957,
				"y": 2.6856290471,
				"z": -0.7044509493,
				"element": "H" 
			},
			{
				"x": -3.4865193001,
				"y": 1.9403195239,
				"z": -1.4872455663,
				"element": "H" 
			},
			{
				"x": -3.6376830858,
				"y": 2.3809588391,
				"z": 0.2002310421,
				"element": "H" 
			},
			{
				"x": -4.7143837574,
				"y": 0.2972581218,
				"z": 0.2654069953,
				"element": "H" 
			},
			{
				"x": -3.7873754041,
				"y": -0.3631302431,
				"z": -1.0685933662,
				"element": "H" 
			},
			{
				"x": -3.3435286784,
				"y": -1.2796386623,
				"z": 1.3927934167,
				"element": "H" 
			},
			{
				"x": -1.9931325089,
				"y": -1.0525625361,
				"z": 0.3011545521,
				"element": "H" 
			},
			{
				"x": -2.9195233966,
				"y": 0.9986831465,
				"z": 2.3735397179,
				"element": "H" 
			},
			{
				"x": -1.5372960737,
				"y": -0.0488727852,
				"z": 2.59175473,
				"element": "H" 
			},
			{
				"x": 0.4529044369,
				"y": -1.1491600482,
				"z": 2.2891020031,
				"element": "H" 
			},
			{
				"x": 1.6644762465,
				"y": -3.0331122969,
				"z": 1.2052917858,
				"element": "H" 
			},
			{
				"x": 2.7189124177,
				"y": -2.7195255118,
				"z": -1.0135404255,
				"element": "H" 
			}
		],
		 "valence_orbital": [ 
			{
				"type": "occ",
				"energy": -0.30368,
				"method": "rhf"
			},
			{
				"type": "occ",
				"energy": -0.27096,
				"method": "rhf"
			},
			{
				"type": "occ",
				"energy": -0.2676,
				"method": "rhf"
			},
			{
				"type": "occ",
				"energy": -0.25359,
				"method": "rhf"
			},
			{
				"type": "occ",
				"energy": -0.24137,
				"method": "rhf"
			},
			{
				"type": "unocc",
				"energy": -0.07245,
				"method": "rhf"
			},
			{
				"type": "unocc",
				"energy": -0.01348,
				"method": "rhf"
			},
			{
				"type": "unocc",
				"energy": 0.01256,
				"method": "rhf"
			},
			{
				"type": "unocc",
				"energy": 0.06109,
				"method": "rhf"
			},
			{
				"type": "unocc",
				"energy": 0.06714,
				"method": "rhf"
			}
		],
		"cosmo_sigma_profile": { 
			"-0.025": 0.0,
			"-0.024": 0.0,
			"-0.023": 0.0,
			"-0.022": 0.0,
			"-0.021": 0.0,
			"-0.02": 0.0,
			"-0.019": 0.140317701053,
			"-0.018": 0.618412335492,
			"-0.017": 0.996161929465,
			"-0.016": 0.997425485172,
			"-0.015": 0.791854427427,
			"-0.014": 1.09407757372,
			"-0.013": 1.2997666121,
			"-0.012": 1.05103442595,
			"-0.011": 1.1586089505,
			"-0.01": 1.09911855675,
			"-0.009": 1.74321558144,
			"-0.008": 4.64228719024,
			"-0.007": 6.7852791547,
			"-0.006": 9.15680741931,
			"-0.005": 9.8492592769,
			"-0.004": 13.5938215147,
			"-0.003": 23.1495947517,
			"-0.002": 35.0079979586,
			"-0.001": 37.067791757,
			"0.0": 32.8006715411,
			"0.001": 28.9298124337,
			"0.002": 16.9185188461,
			"0.003": 14.7956540076,
			"0.004": 11.1653697955,
			"0.005": 4.9447294258,
			"0.006": 2.82928974979,
			"0.007": 4.22693980702,
			"0.008": 3.88032929935,
			"0.009": 3.94542366494,
			"0.01": 5.11964225531,
			"0.011": 6.3414244168,
			"0.012": 7.73804517695,
			"0.013": 3.75118689936,
			"0.014": 0.410999562431,
			"0.015": 0.0,
			"0.016": 0.0,
			"0.017": 0.0,
			"0.018": 0.0,
			"0.019": 0.0,
			"0.02": 0.0,
			"0.021": 0.0,
			"0.022": 0.0,
			"0.023": 0.0,
			"0.024": 0.0,
			"0.025": 0.0
		}
	}
}
