{
	 "smiles": "OC(=O)CCCCNC(=O)C1=CC2=C(NN=N2)C=C1", 
	 "Tm": 463.15, 
	 "num_atms": 33, 
	 "gaussian": { 
		 "optdone": 1, 
		 "sigma_profile": "yes", 
		 "theory": "DFT", 
		 "functional": "B3LYP", 
		 "basiset": "6-31G**", 
		 "properties": { 
			 "R2extent": 6964.606, 
			 "electric_dipole_moment_norm": 2.42878860957, 
			 "electric_quadrupole_moment_norm": 36.3586896029, 
			 "total_energy": -910.39069943, 
			 "HOMO_LUMO_gap": 0.18762, 
			 "cosmo_polarized_energy": -25.5, 
			 "cosmo_cavitation_energy": 36.77, 
			 "cosmo_dispersion_energy": -26.08, 
			 "cosmo_repulsion_energy": 2.02, 
			 "cosmo_total_nonelectrostatic_energy": 12.71, 
			 "SMD_solvation_energy": 5.1 
		},
		"coords": [
			{
				"x": 3.2712460432,
				"y": 1.6877161066,
				"z": 2.77554812,
				"element": "O" 
			},
			{
				"x": 2.36461419,
				"y": 1.8857611971,
				"z": 3.7773806011,
				"element": "C" 
			},
			{
				"x": 2.6620457356,
				"y": 2.4596750451,
				"z": 4.7996941761,
				"element": "O" 
			},
			{
				"x": 0.9983847697,
				"y": 1.3478575266,
				"z": 3.4176188532,
				"element": "C" 
			},
			{
				"x": 0.1298287297,
				"y": 2.406159725,
				"z": 2.6882807046,
				"element": "C" 
			},
			{
				"x": 0.6726022103,
				"y": 2.9861146161,
				"z": 1.3681540904,
				"element": "C" 
			},
			{
				"x": 0.6250089522,
				"y": 2.0644507693,
				"z": 0.1391032174,
				"element": "C" 
			},
			{
				"x": 1.4927539183,
				"y": 0.892064591,
				"z": 0.2700264241,
				"element": "N" 
			},
			{
				"x": 1.1343769726,
				"y": -0.4319399866,
				"z": 0.1927432567,
				"element": "C" 
			},
			{
				"x": 1.7508362474,
				"y": -1.2904905185,
				"z": 0.8240662567,
				"element": "O" 
			},
			{
				"x": -0.0013230909,
				"y": -0.825879597,
				"z": -0.7103878713,
				"element": "C" 
			},
			{
				"x": -0.2915737911,
				"y": -0.1558926896,
				"z": -1.8947483129,
				"element": "C" 
			},
			{
				"x": -1.3201603895,
				"y": -0.6673193226,
				"z": -2.6991913316,
				"element": "C" 
			},
			{
				"x": -2.0311767202,
				"y": -1.822288571,
				"z": -2.3140638935,
				"element": "C" 
			},
			{
				"x": -2.9226066779,
				"y": -1.9857938684,
				"z": -3.3318275899,
				"element": "N" 
			},
			{
				"x": -2.77229976,
				"y": -1.0078678578,
				"z": -4.2765550516,
				"element": "N" 
			},
			{
				"x": -1.8198278955,
				"y": -0.2201498184,
				"z": -3.907674465,
				"element": "N" 
			},
			{
				"x": -1.7384507095,
				"y": -2.5168022127,
				"z": -1.1289655926,
				"element": "C" 
			},
			{
				"x": -0.7138101155,
				"y": -2.0048789343,
				"z": -0.3537565748,
				"element": "C" 
			},
			{
				"x": 4.1093353928,
				"y": 2.0741654306,
				"z": 3.0819998985,
				"element": "H" 
			},
			{
				"x": 1.1129635817,
				"y": 0.4386337772,
				"z": 2.8235680189,
				"element": "H" 
			},
			{
				"x": 0.5071579795,
				"y": 1.0876559963,
				"z": 4.3587229715,
				"element": "H" 
			},
			{
				"x": -0.8574609398,
				"y": 1.9616619648,
				"z": 2.5104550752,
				"element": "H" 
			},
			{
				"x": -0.02869212,
				"y": 3.2375815567,
				"z": 3.3848004574,
				"element": "H" 
			},
			{
				"x": 1.6977764262,
				"y": 3.3502139171,
				"z": 1.5072776629,
				"element": "H" 
			},
			{
				"x": 0.0742590679,
				"y": 3.8709900734,
				"z": 1.1179396932,
				"element": "H" 
			},
			{
				"x": -0.4010229056,
				"y": 1.7239567888,
				"z": -0.0238922043,
				"element": "H" 
			},
			{
				"x": 0.9089081439,
				"y": 2.6532967931,
				"z": -0.7444640908,
				"element": "H" 
			},
			{
				"x": 2.3131378837,
				"y": 1.0188727209,
				"z": 0.8554256381,
				"element": "H" 
			},
			{
				"x": 0.2651044275,
				"y": 0.7179117887,
				"z": -2.2131466913,
				"element": "H" 
			},
			{
				"x": -3.6262755142,
				"y": -2.6949730768,
				"z": -3.4712674777,
				"element": "H" 
			},
			{
				"x": -2.2745948744,
				"y": -3.4136248764,
				"z": -0.8366597896,
				"element": "H" 
			},
			{
				"x": -0.4123651681,
				"y": -2.5089390543,
				"z": 0.557895821,
				"element": "H" 
			}
		],
		 "valence_orbital": [ 
			{
				"type": "occ",
				"energy": -0.27711,
				"method": "rhf"
			},
			{
				"type": "occ",
				"energy": -0.26497,
				"method": "rhf"
			},
			{
				"type": "occ",
				"energy": -0.25617,
				"method": "rhf"
			},
			{
				"type": "occ",
				"energy": -0.25065,
				"method": "rhf"
			},
			{
				"type": "occ",
				"energy": -0.24244,
				"method": "rhf"
			},
			{
				"type": "unocc",
				"energy": -0.05482,
				"method": "rhf"
			},
			{
				"type": "unocc",
				"energy": -0.02695,
				"method": "rhf"
			},
			{
				"type": "unocc",
				"energy": -0.00078,
				"method": "rhf"
			},
			{
				"type": "unocc",
				"energy": 0.02476,
				"method": "rhf"
			},
			{
				"type": "unocc",
				"energy": 0.0586,
				"method": "rhf"
			}
		],
		"cosmo_sigma_profile": { 
			"-0.025": 0.0,
			"-0.024": 0.0,
			"-0.023": 0.0,
			"-0.022": 0.0,
			"-0.021": 0.0,
			"-0.02": 0.0,
			"-0.019": 0.129568085582,
			"-0.018": 1.73407552939,
			"-0.017": 3.21348824514,
			"-0.016": 2.12488371183,
			"-0.015": 2.11693701448,
			"-0.014": 1.6624170726,
			"-0.013": 1.32760375153,
			"-0.012": 1.69814174594,
			"-0.011": 1.67234096885,
			"-0.01": 2.12658387534,
			"-0.009": 1.48993483619,
			"-0.008": 3.7925656575,
			"-0.007": 5.22673934151,
			"-0.006": 6.57820389793,
			"-0.005": 15.0423032459,
			"-0.004": 28.0769916756,
			"-0.003": 32.9437078942,
			"-0.002": 26.0132346796,
			"-0.001": 23.4104852932,
			"0.0": 16.6113273038,
			"0.001": 16.5042027439,
			"0.002": 15.5941019022,
			"0.003": 12.1275669307,
			"0.004": 6.48137083225,
			"0.005": 5.84301769865,
			"0.006": 5.16287145233,
			"0.007": 5.0974654818,
			"0.008": 6.05725550822,
			"0.009": 5.36428377133,
			"0.01": 6.47305234337,
			"0.011": 9.42936586021,
			"0.012": 8.3526991879,
			"0.013": 5.67680040981,
			"0.014": 5.29680046377,
			"0.015": 1.04683188113,
			"0.016": 0.0765414861358,
			"0.017": 0.0,
			"0.018": 0.0,
			"0.019": 0.0,
			"0.02": 0.0,
			"0.021": 0.0,
			"0.022": 0.0,
			"0.023": 0.0,
			"0.024": 0.0,
			"0.025": 0.0
		}
	}
}
