{
	 "smiles": "CC1=C(F)C=CC(=C1)S(=O)(=O)NC1=C(C=CC=C1)C(O)=O", 
	 "Tm": 339.65, 
	 "num_atms": 33, 
	 "gaussian": { 
		 "optdone": 1, 
		 "sigma_profile": "yes", 
		 "theory": "DFT", 
		 "functional": "B3LYP", 
		 "basiset": "6-31G**", 
		 "properties": { 
			 "R2extent": 6283.7296, 
			 "electric_dipole_moment_norm": 3.51117514374, 
			 "electric_quadrupole_moment_norm": 19.4809156597, 
			 "total_energy": -1394.34881066, 
			 "HOMO_LUMO_gap": 0.17711, 
			 "cosmo_polarized_energy": -17.34, 
			 "cosmo_cavitation_energy": 39.47, 
			 "cosmo_dispersion_energy": -27.09, 
			 "cosmo_repulsion_energy": 2.03, 
			 "cosmo_total_nonelectrostatic_energy": 14.41, 
			 "SMD_solvation_energy": 7.4 
		},
		"coords": [
			{
				"x": -2.1375844733,
				"y": 0.1876289195,
				"z": 3.6121036345,
				"element": "C" 
			},
			{
				"x": -2.0051690188,
				"y": -0.3692320973,
				"z": 2.2185827788,
				"element": "C" 
			},
			{
				"x": -2.3035386877,
				"y": -1.7113406761,
				"z": 1.9614643334,
				"element": "C" 
			},
			{
				"x": -2.7037846992,
				"y": -2.478624053,
				"z": 2.9956041122,
				"element": "F" 
			},
			{
				"x": -2.2194840872,
				"y": -2.2898003444,
				"z": 0.7001496416,
				"element": "C" 
			},
			{
				"x": -1.8073843162,
				"y": -1.5039498346,
				"z": -0.3732555552,
				"element": "C" 
			},
			{
				"x": -1.4956154988,
				"y": -0.1617623935,
				"z": -0.1449606288,
				"element": "C" 
			},
			{
				"x": -1.5955666587,
				"y": 0.404395988,
				"z": 1.1293117872,
				"element": "C" 
			},
			{
				"x": -0.934802095,
				"y": 0.8447805251,
				"z": -1.5177776499,
				"element": "S" 
			},
			{
				"x": -1.1687767494,
				"y": 2.2447130564,
				"z": -1.1644044936,
				"element": "O" 
			},
			{
				"x": -1.443919646,
				"y": 0.2551321674,
				"z": -2.7553141618,
				"element": "O" 
			},
			{
				"x": 0.742978486,
				"y": 0.5956802829,
				"z": -1.6335744441,
				"element": "N" 
			},
			{
				"x": 1.6765373473,
				"y": 0.8740687476,
				"z": -0.6141160419,
				"element": "C" 
			},
			{
				"x": 2.7169836211,
				"y": -0.0347601399,
				"z": -0.2790013982,
				"element": "C" 
			},
			{
				"x": 3.6400318609,
				"y": 0.3230927758,
				"z": 0.7213013461,
				"element": "C" 
			},
			{
				"x": 3.5513413237,
				"y": 1.5306640305,
				"z": 1.3961534511,
				"element": "C" 
			},
			{
				"x": 2.5274996148,
				"y": 2.4208813523,
				"z": 1.0584969653,
				"element": "C" 
			},
			{
				"x": 1.6114155476,
				"y": 2.1056923979,
				"z": 0.0621336786,
				"element": "C" 
			},
			{
				"x": 2.9556642581,
				"y": -1.3691769591,
				"z": -0.8896946273,
				"element": "C" 
			},
			{
				"x": 2.1181183173,
				"y": -1.6904862998,
				"z": -1.9221631347,
				"element": "O" 
			},
			{
				"x": 3.8194454758,
				"y": -2.1469259574,
				"z": -0.5397775837,
				"element": "O" 
			},
			{
				"x": -3.1600361354,
				"y": 0.0742918896,
				"z": 3.98728288,
				"element": "H" 
			},
			{
				"x": -1.4812843813,
				"y": -0.3400006521,
				"z": 4.3122492709,
				"element": "H" 
			},
			{
				"x": -1.8798047482,
				"y": 1.2487007418,
				"z": 3.6331765957,
				"element": "H" 
			},
			{
				"x": -2.4822644226,
				"y": -3.3344101962,
				"z": 0.5751923327,
				"element": "H" 
			},
			{
				"x": -1.7497102773,
				"y": -1.9146670891,
				"z": -1.3749659795,
				"element": "H" 
			},
			{
				"x": -1.3728382752,
				"y": 1.4567381199,
				"z": 1.2662031954,
				"element": "H" 
			},
			{
				"x": 0.9216434935,
				"y": -0.2560521041,
				"z": -2.158385652,
				"element": "H" 
			},
			{
				"x": 4.4249635984,
				"y": -0.3893664837,
				"z": 0.9489186205,
				"element": "H" 
			},
			{
				"x": 4.2738006787,
				"y": 1.7825493535,
				"z": 2.1655727679,
				"element": "H" 
			},
			{
				"x": 2.4510571763,
				"y": 3.3808781019,
				"z": 1.5611707275,
				"element": "H" 
			},
			{
				"x": 0.8412538269,
				"y": 2.8116364217,
				"z": -0.2214768026,
				"element": "H" 
			},
			{
				"x": 2.3958295437,
				"y": -2.5705695916,
				"z": -2.226499966,
				"element": "H" 
			}
		],
		 "valence_orbital": [ 
			{
				"type": "occ",
				"energy": -0.29426,
				"method": "rhf"
			},
			{
				"type": "occ",
				"energy": -0.27763,
				"method": "rhf"
			},
			{
				"type": "occ",
				"energy": -0.27084,
				"method": "rhf"
			},
			{
				"type": "occ",
				"energy": -0.26676,
				"method": "rhf"
			},
			{
				"type": "occ",
				"energy": -0.23899,
				"method": "rhf"
			},
			{
				"type": "unocc",
				"energy": -0.06188,
				"method": "rhf"
			},
			{
				"type": "unocc",
				"energy": -0.04179,
				"method": "rhf"
			},
			{
				"type": "unocc",
				"energy": -0.02934,
				"method": "rhf"
			},
			{
				"type": "unocc",
				"energy": -0.01672,
				"method": "rhf"
			},
			{
				"type": "unocc",
				"energy": 0.04314,
				"method": "rhf"
			}
		],
		"cosmo_sigma_profile": { 
			"-0.025": 0.0,
			"-0.024": 0.0,
			"-0.023": 0.0,
			"-0.022": 0.0,
			"-0.021": 0.0,
			"-0.02": 0.0,
			"-0.019": 0.574256110858,
			"-0.018": 0.817421269802,
			"-0.017": 1.03183068962,
			"-0.016": 0.78160320751,
			"-0.015": 0.946354295066,
			"-0.014": 0.43874822154,
			"-0.013": 0.36708726223,
			"-0.012": 0.734643548523,
			"-0.011": 1.12318696018,
			"-0.01": 0.31501232035,
			"-0.009": 0.901314298638,
			"-0.008": 3.5981390476,
			"-0.007": 9.53189971399,
			"-0.006": 14.6419117109,
			"-0.005": 18.8494089187,
			"-0.004": 22.3573725198,
			"-0.003": 21.8062467537,
			"-0.002": 23.6672806095,
			"-0.001": 28.2452003142,
			"0.0": 27.6026990256,
			"0.001": 29.3859403045,
			"0.002": 25.1454117663,
			"0.003": 20.1271087783,
			"0.004": 15.1965566087,
			"0.005": 5.67993080943,
			"0.006": 4.63087250107,
			"0.007": 4.74508914283,
			"0.008": 4.9631451237,
			"0.009": 6.18192137387,
			"0.01": 10.1844055046,
			"0.011": 10.6410627821,
			"0.012": 1.4417211192,
			"0.013": 0.0,
			"0.014": 0.0,
			"0.015": 0.0,
			"0.016": 0.0,
			"0.017": 0.0,
			"0.018": 0.0,
			"0.019": 0.0,
			"0.02": 0.0,
			"0.021": 0.0,
			"0.022": 0.0,
			"0.023": 0.0,
			"0.024": 0.0,
			"0.0": 0.0
		}
	}
}
