{
	 "smiles": "CCOC1=CC=CC(NC(C)=O)=C1", 
	 "Tm": 370.15, 
	 "num_atms": 26, 
	 "gaussian": { 
		 "optdone": 1, 
		 "sigma_profile": "yes", 
		 "theory": "DFT", 
		 "functional": "B3LYP", 
		 "basiset": "6-31G**", 
		 "properties": { 
			 "R2extent": 3736.3061, 
			 "electric_dipole_moment_norm": 3.13412359361, 
			 "electric_quadrupole_moment_norm": 23.7332648133, 
			 "total_energy": -594.11166085, 
			 "HOMO_LUMO_gap": 0.20362, 
			 "cosmo_polarized_energy": -12.62, 
			 "cosmo_cavitation_energy": 29.63, 
			 "cosmo_dispersion_energy": -21.21, 
			 "cosmo_repulsion_energy": 1.71, 
			 "cosmo_total_nonelectrostatic_energy": 10.13, 
			 "SMD_solvation_energy": 6.33 
		},
		"coords": [
			{
				"x": -0.1363946239,
				"y": -1.2936269854,
				"z": -3.6424457112,
				"element": "C" 
			},
			{
				"x": 0.547254485,
				"y": -0.7452107771,
				"z": -2.4021707453,
				"element": "C" 
			},
			{
				"x": -0.2459085438,
				"y": -1.1157392737,
				"z": -1.2749187005,
				"element": "O" 
			},
			{
				"x": 0.1418522639,
				"y": -0.7178239042,
				"z": -0.0304366366,
				"element": "C" 
			},
			{
				"x": -0.6882974561,
				"y": -1.126494696,
				"z": 1.024096759,
				"element": "C" 
			},
			{
				"x": -0.3561210112,
				"y": -0.780117584,
				"z": 2.3281445613,
				"element": "C" 
			},
			{
				"x": 0.7783187416,
				"y": -0.0139704106,
				"z": 2.6020767423,
				"element": "C" 
			},
			{
				"x": 1.6035963222,
				"y": 0.3990224623,
				"z": 1.5497242718,
				"element": "C" 
			},
			{
				"x": 2.771382386,
				"y": 1.1353693681,
				"z": 1.858272251,
				"element": "N" 
			},
			{
				"x": 3.3522841863,
				"y": 2.2435903287,
				"z": 1.2640869072,
				"element": "C" 
			},
			{
				"x": 2.6964477098,
				"y": 2.8425371898,
				"z": 0.0335925128,
				"element": "C" 
			},
			{
				"x": 4.3673749433,
				"y": 2.7217986119,
				"z": 1.7504865391,
				"element": "O" 
			},
			{
				"x": 1.2968008406,
				"y": 0.028996548,
				"z": 0.2299926186,
				"element": "C" 
			},
			{
				"x": -1.1420019697,
				"y": -0.8764240699,
				"z": -3.7444702822,
				"element": "H" 
			},
			{
				"x": 0.4403600192,
				"y": -1.0339613502,
				"z": -4.5353718385,
				"element": "H" 
			},
			{
				"x": -0.2190529728,
				"y": -2.3825575667,
				"z": -3.5868497112,
				"element": "H" 
			},
			{
				"x": 0.6346013099,
				"y": 0.3494284083,
				"z": -2.4544990707,
				"element": "H" 
			},
			{
				"x": 1.5605444559,
				"y": -1.1590524569,
				"z": -2.2994756262,
				"element": "H" 
			},
			{
				"x": -1.5711499119,
				"y": -1.7131304285,
				"z": 0.795177394,
				"element": "H" 
			},
			{
				"x": -0.9956171899,
				"y": -1.0995997326,
				"z": 3.1457983099,
				"element": "H" 
			},
			{
				"x": 1.01851177,
				"y": 0.276079217,
				"z": 3.6204432504,
				"element": "H" 
			},
			{
				"x": 3.2241896078,
				"y": 0.9124751075,
				"z": 2.7364604171,
				"element": "H" 
			},
			{
				"x": 1.6094436024,
				"y": 2.7395202699,
				"z": 0.0334368139,
				"element": "H" 
			},
			{
				"x": 3.0856103912,
				"y": 2.3656879894,
				"z": -0.8724955001,
				"element": "H" 
			},
			{
				"x": 2.9765629647,
				"y": 3.8960897612,
				"z": 0.0006708721,
				"element": "H" 
			},
			{
				"x": 1.9744076796,
				"y": 0.2970139738,
				"z": -0.5681263979,
				"element": "H" 
			}
		],
		 "valence_orbital": [ 
			{
				"type": "occ",
				"energy": -0.32729,
				"method": "rhf"
			},
			{
				"type": "occ",
				"energy": -0.28645,
				"method": "rhf"
			},
			{
				"type": "occ",
				"energy": -0.25012,
				"method": "rhf"
			},
			{
				"type": "occ",
				"energy": -0.23928,
				"method": "rhf"
			},
			{
				"type": "occ",
				"energy": -0.21683,
				"method": "rhf"
			},
			{
				"type": "unocc",
				"energy": -0.01321,
				"method": "rhf"
			},
			{
				"type": "unocc",
				"energy": 0.00186,
				"method": "rhf"
			},
			{
				"type": "unocc",
				"energy": 0.03678,
				"method": "rhf"
			},
			{
				"type": "unocc",
				"energy": 0.07882,
				"method": "rhf"
			},
			{
				"type": "unocc",
				"energy": 0.09273,
				"method": "rhf"
			}
		],
		"cosmo_sigma_profile": { 
			"-0.025": 0.0,
			"-0.024": 0.0,
			"-0.023": 0.0,
			"-0.022": 0.0,
			"-0.021": 0.0,
			"-0.02": 0.0,
			"-0.019": 0.0,
			"-0.018": 0.0,
			"-0.017": 0.0,
			"-0.016": 0.0,
			"-0.015": 0.0,
			"-0.014": 0.251217414195,
			"-0.013": 1.36990386928,
			"-0.012": 0.610950104093,
			"-0.011": 1.24085411499,
			"-0.01": 1.2315324328,
			"-0.009": 0.85392566144,
			"-0.008": 2.08638621283,
			"-0.007": 5.24984367769,
			"-0.006": 8.95164265299,
			"-0.005": 15.8929635653,
			"-0.004": 23.2018697291,
			"-0.003": 24.2650192424,
			"-0.002": 23.1993269701,
			"-0.001": 20.35754087,
			"0.0": 16.8636836626,
			"0.001": 11.9791064719,
			"0.002": 9.78626240536,
			"0.003": 11.1818891588,
			"0.004": 13.9829722774,
			"0.005": 12.3234661118,
			"0.006": 4.41757094292,
			"0.007": 2.804353937,
			"0.008": 3.40242508754,
			"0.009": 2.62937989627,
			"0.01": 2.40339734182,
			"0.011": 1.23140739049,
			"0.012": 1.86295789496,
			"0.013": 5.24636998233,
			"0.014": 4.34367554678,
			"0.015": 0.753275747717,
			"0.016": 0.0,
			"0.017": 0.0,
			"0.018": 0.0,
			"0.019": 0.0,
			"0.02": 0.0,
			"0.021": 0.0,
			"0.022": 0.0,
			"0.023": 0.0,
			"0.024": 0.0,
			"0.025": 0.0
		}
	}
}
