{
	 "smiles": "CC(C)(C)CCCC(O)=O", 
	 "Tm": 310.15, 
	 "num_atms": 26, 
	 "gaussian": { 
		 "optdone": 1, 
		 "sigma_profile": "yes", 
		 "theory": "DFT", 
		 "functional": "B3LYP", 
		 "basiset": "6-31G**", 
		 "properties": { 
			 "R2extent": 2163.7716, 
			 "electric_dipole_moment_norm": 1.75625828112, 
			 "electric_quadrupole_moment_norm": 8.60903818728, 
			 "total_energy": -464.979758519, 
			 "HOMO_LUMO_gap": 0.27929, 
			 "cosmo_polarized_energy": -8.12, 
			 "cosmo_cavitation_energy": 27.54, 
			 "cosmo_dispersion_energy": -19.04, 
			 "cosmo_repulsion_energy": 1.57, 
			 "cosmo_total_nonelectrostatic_energy": 10.07, 
			 "SMD_solvation_energy": 5.76 
		},
		"coords": [
			{
				"x": 1.1807753444,
				"y": -1.9696786641,
				"z": 1.6233360065,
				"element": "C" 
			},
			{
				"x": 0.488988986,
				"y": -0.5994724652,
				"z": 1.7703869697,
				"element": "C" 
			},
			{
				"x": 1.5604495423,
				"y": 0.4702624274,
				"z": 2.0601295101,
				"element": "C" 
			},
			{
				"x": -0.5031372447,
				"y": -0.6686466683,
				"z": 2.9483064554,
				"element": "C" 
			},
			{
				"x": -0.2502885629,
				"y": -0.2963584355,
				"z": 0.4396455766,
				"element": "C" 
			},
			{
				"x": -1.0062057815,
				"y": 1.0374774985,
				"z": 0.3535573897,
				"element": "C" 
			},
			{
				"x": -1.7428286727,
				"y": 1.2206259528,
				"z": -0.9872831191,
				"element": "C" 
			},
			{
				"x": -0.8350637234,
				"y": 1.2668326545,
				"z": -2.1981091075,
				"element": "C" 
			},
			{
				"x": 0.1640989427,
				"y": 2.1759935005,
				"z": -2.0499935822,
				"element": "O" 
			},
			{
				"x": -0.9584793602,
				"y": 0.6049511317,
				"z": -3.2049187927,
				"element": "O" 
			},
			{
				"x": 1.9035073438,
				"y": -1.9625582597,
				"z": 0.79939536,
				"element": "H" 
			},
			{
				"x": 0.4517210025,
				"y": -2.7626070247,
				"z": 1.4206949749,
				"element": "H" 
			},
			{
				"x": 1.720317595,
				"y": -2.2378922393,
				"z": 2.538661574,
				"element": "H" 
			},
			{
				"x": 2.2675460283,
				"y": 0.5582517777,
				"z": 1.2271879192,
				"element": "H" 
			},
			{
				"x": 1.1187893935,
				"y": 1.4574855229,
				"z": 2.2299293099,
				"element": "H" 
			},
			{
				"x": 2.1334135282,
				"y": 0.2096692168,
				"z": 2.9571602168,
				"element": "H" 
			},
			{
				"x": -0.9875189578,
				"y": 0.2954231747,
				"z": 3.1346644564,
				"element": "H" 
			},
			{
				"x": 0.0126906476,
				"y": -0.9576557777,
				"z": 3.8709224489,
				"element": "H" 
			},
			{
				"x": -1.2891822794,
				"y": -1.409627489,
				"z": 2.7613664501,
				"element": "H" 
			},
			{
				"x": -0.9585234641,
				"y": -1.1144533304,
				"z": 0.2454341644,
				"element": "H" 
			},
			{
				"x": 0.487244136,
				"y": -0.3368491626,
				"z": -0.3742042479,
				"element": "H" 
			},
			{
				"x": -0.3186298528,
				"y": 1.8774561087,
				"z": 0.4924702606,
				"element": "H" 
			},
			{
				"x": -1.7522726884,
				"y": 1.1024568772,
				"z": 1.1533836317,
				"element": "H" 
			},
			{
				"x": -2.4598932172,
				"y": 0.4142628954,
				"z": -1.1614469646,
				"element": "H" 
			},
			{
				"x": -2.3024094092,
				"y": 2.1646057527,
				"z": -0.9675175441,
				"element": "H" 
			},
			{
				"x": 0.6798907241,
				"y": 2.1393450252,
				"z": -2.8729593172,
				"element": "H" 
			}
		],
		 "valence_orbital": [ 
			{
				"type": "occ",
				"energy": -0.31671,
				"method": "rhf"
			},
			{
				"type": "occ",
				"energy": -0.31621,
				"method": "rhf"
			},
			{
				"type": "occ",
				"energy": -0.31315,
				"method": "rhf"
			},
			{
				"type": "occ",
				"energy": -0.30743,
				"method": "rhf"
			},
			{
				"type": "occ",
				"energy": -0.26866,
				"method": "rhf"
			},
			{
				"type": "unocc",
				"energy": 0.01063,
				"method": "rhf"
			},
			{
				"type": "unocc",
				"energy": 0.07005,
				"method": "rhf"
			},
			{
				"type": "unocc",
				"energy": 0.08241,
				"method": "rhf"
			},
			{
				"type": "unocc",
				"energy": 0.11315,
				"method": "rhf"
			},
			{
				"type": "unocc",
				"energy": 0.12208,
				"method": "rhf"
			}
		],
		"cosmo_sigma_profile": { 
			"-0.025": 0.0,
			"-0.024": 0.0,
			"-0.023": 0.0,
			"-0.022": 0.0,
			"-0.021": 0.0,
			"-0.02": 0.0,
			"-0.019": 0.0,
			"-0.018": 0.293911812668,
			"-0.017": 1.2834057482,
			"-0.016": 0.465783390181,
			"-0.015": 0.94633072363,
			"-0.014": 0.912173724532,
			"-0.013": 0.359447586216,
			"-0.012": 0.41633184119,
			"-0.011": 0.673531560059,
			"-0.01": 0.925364863079,
			"-0.009": 0.984196750536,
			"-0.008": 0.490466039605,
			"-0.007": 0.829759667657,
			"-0.006": 2.76802746087,
			"-0.005": 3.94643140692,
			"-0.004": 5.14178940075,
			"-0.003": 15.9376553398,
			"-0.002": 39.2832481284,
			"-0.001": 33.9808229135,
			"0.0": 25.5609987986,
			"0.001": 24.4599909041,
			"0.002": 19.9417615801,
			"0.003": 3.59539433626,
			"0.004": 2.19406110653,
			"0.005": 3.88392637367,
			"0.006": 2.4507925691,
			"0.007": 2.33445381558,
			"0.008": 2.55534070757,
			"0.009": 2.67383165653,
			"0.01": 2.57599950224,
			"0.011": 2.66108843749,
			"0.012": 5.38072669209,
			"0.013": 1.86020541893,
			"0.014": 0.0951477595393,
			"0.015": 0.0,
			"0.016": 0.0,
			"0.017": 0.0,
			"0.018": 0.0,
			"0.019": 0.0,
			"0.02": 0.0,
			"0.021": 0.0,
			"0.022": 0.0,
			"0.023": 0.0,
			"0.024": 0.0,
			"0.025": 0.0
		}
	}
}
