{
	 "smiles": "CC(Cl)C(=O)NC1CCOC2=C1C=CC=C2", 
	 "Tm": 403.15, 
	 "num_atms": 30, 
	 "gaussian": { 
		 "optdone": 1, 
		 "sigma_profile": "yes", 
		 "theory": "DFT", 
		 "functional": "B3LYP", 
		 "basiset": "6-31G**", 
		 "properties": { 
			 "R2extent": 4962.4687, 
			 "electric_dipole_moment_norm": 2.35775455466, 
			 "electric_quadrupole_moment_norm": 6.61923813516, 
			 "total_energy": -1131.12622016, 
			 "HOMO_LUMO_gap": 0.21014, 
			 "cosmo_polarized_energy": -14.11, 
			 "cosmo_cavitation_energy": 33.83, 
			 "cosmo_dispersion_energy": -24.25, 
			 "cosmo_repulsion_energy": 1.92, 
			 "cosmo_total_nonelectrostatic_energy": 11.49, 
			 "SMD_solvation_energy": 5.51 
		},
		"coords": [
			{
				"x": -1.4375025277,
				"y": 3.8851225551,
				"z": -1.405026805,
				"element": "C" 
			},
			{
				"x": -0.3258636494,
				"y": 2.9856040566,
				"z": -1.9346475504,
				"element": "C" 
			},
			{
				"x": 1.2185434805,
				"y": 3.9638333318,
				"z": -2.1544967741,
				"element": "Cl" 
			},
			{
				"x": -0.1644704482,
				"y": 1.7276800784,
				"z": -1.0577961044,
				"element": "C" 
			},
			{
				"x": -1.1436323404,
				"y": 0.9976932472,
				"z": -0.9554304837,
				"element": "O" 
			},
			{
				"x": 1.0288284906,
				"y": 1.5165888081,
				"z": -0.4520290557,
				"element": "N" 
			},
			{
				"x": 1.3366123935,
				"y": 0.3433945027,
				"z": 0.3737701114,
				"element": "C" 
			},
			{
				"x": 0.4143287398,
				"y": 0.2231060343,
				"z": 1.5975174078,
				"element": "C" 
			},
			{
				"x": 0.7152231097,
				"y": -1.0829274774,
				"z": 2.3192625971,
				"element": "C" 
			},
			{
				"x": 0.4592867423,
				"y": -2.2207051344,
				"z": 1.492744701,
				"element": "O" 
			},
			{
				"x": 0.9149780612,
				"y": -2.1572883272,
				"z": 0.2033524011,
				"element": "C" 
			},
			{
				"x": 1.3426322935,
				"y": -0.9669175471,
				"z": -0.410590285,
				"element": "C" 
			},
			{
				"x": 1.7928681487,
				"y": -1.0301181456,
				"z": -1.7343275766,
				"element": "C" 
			},
			{
				"x": 1.8086083407,
				"y": -2.2282732945,
				"z": -2.4436766885,
				"element": "C" 
			},
			{
				"x": 1.3634685866,
				"y": -3.3991518535,
				"z": -1.8228035152,
				"element": "C" 
			},
			{
				"x": 0.9204745594,
				"y": -3.3651417685,
				"z": -0.5054101899,
				"element": "C" 
			},
			{
				"x": -2.3410381464,
				"y": 3.2800145163,
				"z": -1.2968507684,
				"element": "H" 
			},
			{
				"x": -1.6326769124,
				"y": 4.7075975026,
				"z": -2.0962279569,
				"element": "H" 
			},
			{
				"x": -1.1719336107,
				"y": 4.3007351184,
				"z": -0.4290770627,
				"element": "H" 
			},
			{
				"x": -0.5653301053,
				"y": 2.6309735626,
				"z": -2.9387060271,
				"element": "H" 
			},
			{
				"x": 1.7643385009,
				"y": 2.1843778534,
				"z": -0.6305250965,
				"element": "H" 
			},
			{
				"x": 2.3558651877,
				"y": 0.5281666972,
				"z": 0.7386001132,
				"element": "H" 
			},
			{
				"x": -0.6262622309,
				"y": 0.2295258128,
				"z": 1.2655623054,
				"element": "H" 
			},
			{
				"x": 0.5691882991,
				"y": 1.0712528255,
				"z": 2.2731847287,
				"element": "H" 
			},
			{
				"x": 0.0771464846,
				"y": -1.2102372668,
				"z": 3.1969816279,
				"element": "H" 
			},
			{
				"x": 1.7641285181,
				"y": -1.1116480965,
				"z": 2.6538391682,
				"element": "H" 
			},
			{
				"x": 2.1208162163,
				"y": -0.1137051804,
				"z": -2.2174054699,
				"element": "H" 
			},
			{
				"x": 2.1585768641,
				"y": -2.2484211307,
				"z": -3.4710915953,
				"element": "H" 
			},
			{
				"x": 1.3649475514,
				"y": -4.340878865,
				"z": -2.3641247823,
				"element": "H" 
			},
			{
				"x": 0.5727494026,
				"y": -4.2590524154,
				"z": 0.0020286259,
				"element": "H" 
			}
		],
		 "valence_orbital": [ 
			{
				"type": "occ",
				"energy": -0.30689,
				"method": "rhf"
			},
			{
				"type": "occ",
				"energy": -0.26656,
				"method": "rhf"
			},
			{
				"type": "occ",
				"energy": -0.25931,
				"method": "rhf"
			},
			{
				"type": "occ",
				"energy": -0.23998,
				"method": "rhf"
			},
			{
				"type": "occ",
				"energy": -0.21315,
				"method": "rhf"
			},
			{
				"type": "unocc",
				"energy": -0.00301,
				"method": "rhf"
			},
			{
				"type": "unocc",
				"energy": 0.00827,
				"method": "rhf"
			},
			{
				"type": "unocc",
				"energy": 0.01279,
				"method": "rhf"
			},
			{
				"type": "unocc",
				"energy": 0.01663,
				"method": "rhf"
			},
			{
				"type": "unocc",
				"energy": 0.07808,
				"method": "rhf"
			}
		],
		"cosmo_sigma_profile": { 
			"-0.025": 0.0,
			"-0.024": 0.0,
			"-0.023": 0.0,
			"-0.022": 0.0,
			"-0.021": 0.0,
			"-0.02": 0.0,
			"-0.019": 0.0,
			"-0.018": 0.0,
			"-0.017": 0.0,
			"-0.016": 0.0,
			"-0.015": 0.0,
			"-0.014": 0.067615379035,
			"-0.013": 0.695356074256,
			"-0.012": 0.774183800828,
			"-0.011": 1.09555253486,
			"-0.01": 1.30658700589,
			"-0.009": 1.37376215199,
			"-0.008": 3.28301004237,
			"-0.007": 4.94867064444,
			"-0.006": 10.8223033054,
			"-0.005": 24.8275485579,
			"-0.004": 29.2934195693,
			"-0.003": 24.7333652913,
			"-0.002": 20.3738616505,
			"-0.001": 19.3019111305,
			"0.0": 14.3722342577,
			"0.001": 14.9395288124,
			"0.002": 12.850513859,
			"0.003": 12.0077401028,
			"0.004": 15.400503192,
			"0.005": 17.4208986378,
			"0.006": 15.9167397178,
			"0.007": 3.77454118541,
			"0.008": 2.66866986227,
			"0.009": 3.70818648157,
			"0.01": 3.32172655125,
			"0.011": 3.02482816843,
			"0.012": 2.4123378935,
			"0.013": 3.60208547062,
			"0.014": 0.905183111852,
			"0.015": 0.0,
			"0.016": 0.0,
			"0.017": 0.0,
			"0.018": 0.0,
			"0.019": 0.0,
			"0.02": 0.0,
			"0.021": 0.0,
			"0.022": 0.0,
			"0.023": 0.0,
			"0.024": 0.0,
			"0.025": 0.0
		}
	}
}
