{
	 "smiles": "ClCC(=O)NC1CCN(CC1)C(=O)CCC1=CC=CC=C1", 
	 "Tm": 391.15, 
	 "num_atms": 42, 
	 "gaussian": { 
		 "optdone": 1, 
		 "sigma_profile": "yes", 
		 "theory": "DFT", 
		 "functional": "B3LYP", 
		 "basiset": "6-31G**", 
		 "properties": { 
			 "R2extent": 6880.2715, 
			 "electric_dipole_moment_norm": 2.11580148643, 
			 "electric_quadrupole_moment_norm": 25.2532610278, 
			 "total_energy": -1342.53611815, 
			 "HOMO_LUMO_gap": 0.21817, 
			 "cosmo_polarized_energy": -20.02, 
			 "cosmo_cavitation_energy": 44.94, 
			 "cosmo_dispersion_energy": -28.34, 
			 "cosmo_repulsion_energy": 2.14, 
			 "cosmo_total_nonelectrostatic_energy": 18.74, 
			 "SMD_solvation_energy": 6.59 
		},
		"coords": [
			{
				"x": -1.9612607013,
				"y": -1.8575339769,
				"z": -1.0456381282,
				"element": "Cl" 
			},
			{
				"x": -1.9653600823,
				"y": -1.8787742215,
				"z": 0.7733545579,
				"element": "C" 
			},
			{
				"x": -3.0349574706,
				"y": -0.954475873,
				"z": 1.3583240491,
				"element": "C" 
			},
			{
				"x": -4.0413609847,
				"y": -1.432654851,
				"z": 1.8645980024,
				"element": "O" 
			},
			{
				"x": -2.8156830227,
				"y": 0.3939570518,
				"z": 1.3249127699,
				"element": "N" 
			},
			{
				"x": -1.7076357688,
				"y": 1.1592186308,
				"z": 0.7640538897,
				"element": "C" 
			},
			{
				"x": -2.0423892418,
				"y": 1.8120486498,
				"z": -0.5885396883,
				"element": "C" 
			},
			{
				"x": -0.7585456499,
				"y": 2.392221836,
				"z": -1.2080501222,
				"element": "C" 
			},
			{
				"x": 0.0543024173,
				"y": 3.0701080063,
				"z": -0.1838083099,
				"element": "N" 
			},
			{
				"x": -0.654744024,
				"y": 3.4717294385,
				"z": 1.0325423153,
				"element": "C" 
			},
			{
				"x": -1.2360601972,
				"y": 2.2460326493,
				"z": 1.7643555623,
				"element": "C" 
			},
			{
				"x": 1.4049573738,
				"y": 3.3049715545,
				"z": -0.2649586416,
				"element": "C" 
			},
			{
				"x": 2.0290946283,
				"y": 3.8364240662,
				"z": 0.6539976926,
				"element": "O" 
			},
			{
				"x": 2.1570059096,
				"y": 2.8897970259,
				"z": -1.5283408594,
				"element": "C" 
			},
			{
				"x": 3.3295994851,
				"y": 1.9445150156,
				"z": -1.1745197298,
				"element": "C" 
			},
			{
				"x": 2.8756528975,
				"y": 0.624879307,
				"z": -0.5837714232,
				"element": "C" 
			},
			{
				"x": 2.7276150369,
				"y": 0.4759317568,
				"z": 0.8037978787,
				"element": "C" 
			},
			{
				"x": 2.2879037744,
				"y": -0.7319079616,
				"z": 1.3499334444,
				"element": "C" 
			},
			{
				"x": 1.9849689844,
				"y": -1.8119708809,
				"z": 0.5163084442,
				"element": "C" 
			},
			{
				"x": 2.1231344705,
				"y": -1.6744744066,
				"z": -0.8671756734,
				"element": "C" 
			},
			{
				"x": 2.5667292011,
				"y": -0.4667421505,
				"z": -1.4083909743,
				"element": "C" 
			},
			{
				"x": -2.2233640064,
				"y": -2.8915021194,
				"z": 1.0738818526,
				"element": "H" 
			},
			{
				"x": -0.9501402608,
				"y": -1.632408624,
				"z": 1.0890747557,
				"element": "H" 
			},
			{
				"x": -3.5901197083,
				"y": 0.9176986757,
				"z": 1.7158828858,
				"element": "H" 
			},
			{
				"x": -0.8810101414,
				"y": 0.4643073174,
				"z": 0.5934246873,
				"element": "H" 
			},
			{
				"x": -2.8021545349,
				"y": 2.5905267084,
				"z": -0.4475869693,
				"element": "H" 
			},
			{
				"x": -2.4621696213,
				"y": 1.0704803391,
				"z": -1.2724241663,
				"element": "H" 
			},
			{
				"x": -1.012304451,
				"y": 3.0769673491,
				"z": -2.0293894999,
				"element": "H" 
			},
			{
				"x": -0.1859644641,
				"y": 1.5628625011,
				"z": -1.6305002645,
				"element": "H" 
			},
			{
				"x": 0.0578015118,
				"y": 4.0081704345,
				"z": 1.657159959,
				"element": "H" 
			},
			{
				"x": -1.4577216889,
				"y": 4.1691096046,
				"z": 0.7617990127,
				"element": "H" 
			},
			{
				"x": -2.0834922846,
				"y": 2.5736073721,
				"z": 2.3797354752,
				"element": "H" 
			},
			{
				"x": -0.4955486584,
				"y": 1.8181787919,
				"z": 2.4469391831,
				"element": "H" 
			},
			{
				"x": 2.5655038824,
				"y": 3.8122148042,
				"z": -1.9571701258,
				"element": "H" 
			},
			{
				"x": 1.5201393228,
				"y": 2.4355031779,
				"z": -2.2891567995,
				"element": "H" 
			},
			{
				"x": 3.9153916233,
				"y": 1.7640928829,
				"z": -2.08265841,
				"element": "H" 
			},
			{
				"x": 3.9745772898,
				"y": 2.4685366696,
				"z": -0.4639541588,
				"element": "H" 
			},
			{
				"x": 2.9589909759,
				"y": 1.3162167031,
				"z": 1.452164928,
				"element": "H" 
			},
			{
				"x": 2.1963622128,
				"y": -0.8336278724,
				"z": 2.4281561536,
				"element": "H" 
			},
			{
				"x": 1.660481213,
				"y": -2.7581310982,
				"z": 0.9407715671,
				"element": "H" 
			},
			{
				"x": 1.8932169359,
				"y": -2.5093339755,
				"z": -1.5227082602,
				"element": "H" 
			},
			{
				"x": 2.6849578167,
				"y": -0.3723703089,
				"z": -2.4857268622,
				"element": "H" 
			}
		],
		 "valence_orbital": [ 
			{
				"type": "occ",
				"energy": -0.25764,
				"method": "rhf"
			},
			{
				"type": "occ",
				"energy": -0.25385,
				"method": "rhf"
			},
			{
				"type": "occ",
				"energy": -0.24803,
				"method": "rhf"
			},
			{
				"type": "occ",
				"energy": -0.24598,
				"method": "rhf"
			},
			{
				"type": "occ",
				"energy": -0.23969,
				"method": "rhf"
			},
			{
				"type": "unocc",
				"energy": -0.02152,
				"method": "rhf"
			},
			{
				"type": "unocc",
				"energy": -0.00813,
				"method": "rhf"
			},
			{
				"type": "unocc",
				"energy": -0.00711,
				"method": "rhf"
			},
			{
				"type": "unocc",
				"energy": 0.0189,
				"method": "rhf"
			},
			{
				"type": "unocc",
				"energy": 0.05293,
				"method": "rhf"
			}
		],
		"cosmo_sigma_profile": { 
			"-0.025": 0.0,
			"-0.024": 0.0,
			"-0.023": 0.0,
			"-0.022": 0.0,
			"-0.021": 0.0,
			"-0.02": 0.0,
			"-0.019": 0.0,
			"-0.018": 0.0,
			"-0.017": 0.0,
			"-0.016": 0.0,
			"-0.015": 0.0,
			"-0.014": 0.206651853684,
			"-0.013": 1.20866581472,
			"-0.012": 1.15854585415,
			"-0.011": 1.13273892231,
			"-0.01": 0.815793910004,
			"-0.009": 1.53624895956,
			"-0.008": 3.20083750966,
			"-0.007": 4.21437067197,
			"-0.006": 7.85653708776,
			"-0.005": 26.1285750216,
			"-0.004": 38.0945305297,
			"-0.003": 42.2937359916,
			"-0.002": 38.1091781366,
			"-0.001": 32.950878869,
			"0.0": 24.1461465689,
			"0.001": 23.0425191247,
			"0.002": 20.0191993083,
			"0.003": 15.4126019136,
			"0.004": 15.7245148032,
			"0.005": 13.9888446344,
			"0.006": 9.82684621794,
			"0.007": 2.67955192687,
			"0.008": 3.00968268545,
			"0.009": 2.96181074412,
			"0.01": 2.01209722173,
			"0.011": 3.309663856,
			"0.012": 3.79500469772,
			"0.013": 7.02131614307,
			"0.014": 6.9239745561,
			"0.015": 2.27984910982,
			"0.016": 0.0265010767688,
			"0.017": 0.0,
			"0.018": 0.0,
			"0.019": 0.0,
			"0.02": 0.0,
			"0.021": 0.0,
			"0.022": 0.0,
			"0.023": 0.0,
			"0.024": 0.0,
			"0.025": 0.0
		}
	}
}
