{
	 "smiles": "CC1=CC=C(C)C2=C1C=CC=C2", 
	 "Tm": 280.75, 
	 "num_atms": 24, 
	 "gaussian": { 
		 "optdone": 1, 
		 "sigma_profile": "yes", 
		 "theory": "DFT", 
		 "functional": "B3LYP", 
		 "basiset": "6-31G**", 
		 "properties": { 
			 "R2extent": 2448.4536, 
			 "electric_dipole_moment_norm": 0.0366215783385, 
			 "electric_quadrupole_moment_norm": 7.61332203837, 
			 "total_energy": -464.534532408, 
			 "HOMO_LUMO_gap": 0.17126, 
			 "cosmo_polarized_energy": -4.41, 
			 "cosmo_cavitation_energy": 26.15, 
			 "cosmo_dispersion_energy": -19.44, 
			 "cosmo_repulsion_energy": 1.51, 
			 "cosmo_total_nonelectrostatic_energy": 8.22, 
			 "SMD_solvation_energy": 4.2 
		},
		"coords": [
			{
				"x": 2.0522791668,
				"y": -1.7519982691,
				"z": 1.2334454293,
				"element": "C" 
			},
			{
				"x": 1.0804975922,
				"y": -1.6077752994,
				"z": 0.0868694797,
				"element": "C" 
			},
			{
				"x": 1.4178163221,
				"y": -2.0463210354,
				"z": -1.1752975973,
				"element": "C" 
			},
			{
				"x": 0.5286380198,
				"y": -1.9245401943,
				"z": -2.2678408592,
				"element": "C" 
			},
			{
				"x": -0.7210346752,
				"y": -1.361027166,
				"z": -2.1266789969,
				"element": "C" 
			},
			{
				"x": -1.6479240003,
				"y": -1.2451119836,
				"z": -3.3129502938,
				"element": "C" 
			},
			{
				"x": -1.1150170449,
				"y": -0.890504843,
				"z": -0.8303612435,
				"element": "C" 
			},
			{
				"x": -0.21075147,
				"y": -1.0143404402,
				"z": 0.2807183089,
				"element": "C" 
			},
			{
				"x": -0.6317837993,
				"y": -0.53812995,
				"z": 1.5522139869,
				"element": "C" 
			},
			{
				"x": -1.8734266072,
				"y": 0.031257916,
				"z": 1.7335181362,
				"element": "C" 
			},
			{
				"x": -2.7612855874,
				"y": 0.1527961612,
				"z": 0.642625306,
				"element": "C" 
			},
			{
				"x": -2.3872265011,
				"y": -0.2977961322,
				"z": -0.6046877608,
				"element": "C" 
			},
			{
				"x": 1.6407346012,
				"y": -2.367136901,
				"z": 2.0426638935,
				"element": "H" 
			},
			{
				"x": 2.9786891618,
				"y": -2.2240535472,
				"z": 0.8962372542,
				"element": "H" 
			},
			{
				"x": 2.3137563613,
				"y": -0.7813692345,
				"z": 1.6717398086,
				"element": "H" 
			},
			{
				"x": 2.392911735,
				"y": -2.4985407508,
				"z": -1.3390667654,
				"element": "H" 
			},
			{
				"x": 0.8425964143,
				"y": -2.2862384795,
				"z": -3.2439236158,
				"element": "H" 
			},
			{
				"x": -1.1778659242,
				"y": -1.6549040723,
				"z": -4.2106683572,
				"element": "H" 
			},
			{
				"x": -2.587187776,
				"y": -1.787717593,
				"z": -3.151856006,
				"element": "H" 
			},
			{
				"x": -1.9138257155,
				"y": -0.2021677458,
				"z": -3.5230876834,
				"element": "H" 
			},
			{
				"x": 0.0418212772,
				"y": -0.6261059533,
				"z": 2.3981422228,
				"element": "H" 
			},
			{
				"x": -2.1698946329,
				"y": 0.3870136072,
				"z": 2.7162012154,
				"element": "H" 
			},
			{
				"x": -3.7398034901,
				"y": 0.601898404,
				"z": 0.7872985584,
				"element": "H" 
			},
			{
				"x": -3.0781134277,
				"y": -0.1989864978,
				"z": -1.4353544206,
				"element": "H" 
			}
		],
		 "valence_orbital": [ 
			{
				"type": "occ",
				"energy": -0.31778,
				"method": "rhf"
			},
			{
				"type": "occ",
				"energy": -0.31419,
				"method": "rhf"
			},
			{
				"type": "occ",
				"energy": -0.26578,
				"method": "rhf"
			},
			{
				"type": "occ",
				"energy": -0.23664,
				"method": "rhf"
			},
			{
				"type": "occ",
				"energy": -0.20452,
				"method": "rhf"
			},
			{
				"type": "unocc",
				"energy": -0.03326,
				"method": "rhf"
			},
			{
				"type": "unocc",
				"energy": -0.00322,
				"method": "rhf"
			},
			{
				"type": "unocc",
				"energy": 0.04277,
				"method": "rhf"
			},
			{
				"type": "unocc",
				"energy": 0.09516,
				"method": "rhf"
			},
			{
				"type": "unocc",
				"energy": 0.10092,
				"method": "rhf"
			}
		],
		"cosmo_sigma_profile": { 
			"-0.025": 0.0,
			"-0.024": 0.0,
			"-0.023": 0.0,
			"-0.022": 0.0,
			"-0.021": 0.0,
			"-0.02": 0.0,
			"-0.019": 0.0,
			"-0.018": 0.0,
			"-0.017": 0.0,
			"-0.016": 0.0,
			"-0.015": 0.0,
			"-0.014": 0.0,
			"-0.013": 0.0,
			"-0.012": 0.0,
			"-0.011": 0.0,
			"-0.01": 0.0,
			"-0.009": 0.0,
			"-0.008": 0.0,
			"-0.007": 0.0,
			"-0.006": 1.40557301834,
			"-0.005": 11.1995151255,
			"-0.004": 26.8340958984,
			"-0.003": 24.9363175165,
			"-0.002": 19.6708536634,
			"-0.001": 17.8544012196,
			"0.0": 20.8946157033,
			"0.001": 15.6107060857,
			"0.002": 11.4249896081,
			"0.003": 11.3109279035,
			"0.004": 14.4201244481,
			"0.005": 20.8932848919,
			"0.006": 11.0896454596,
			"0.007": 0.0794620361515,
			"0.008": 0.0,
			"0.009": 0.0,
			"0.01": 0.0,
			"0.011": 0.0,
			"0.012": 0.0,
			"0.013": 0.0,
			"0.014": 0.0,
			"0.015": 0.0,
			"0.016": 0.0,
			"0.017": 0.0,
			"0.018": 0.0,
			"0.019": 0.0,
			"0.02": 0.0,
			"0.021": 0.0,
			"0.022": 0.0,
			"0.023": 0.0,
			"0.024": 0.0,
			"0.025": 0.0
		}
	}
}
