{
	 "smiles": "COC1=CC=C(NS(=O)(=O)C2=C(F)C=CC(=C2)C(O)=O)C=C1", 
	 "Tm": 483.15, 
	 "num_atms": 34, 
	 "gaussian": { 
		 "optdone": 1, 
		 "sigma_profile": "yes", 
		 "theory": "DFT", 
		 "functional": "B3LYP", 
		 "basiset": "6-31G**", 
		 "properties": { 
			 "R2extent": 7839.5172, 
			 "electric_dipole_moment_norm": 5.67850222682, 
			 "electric_quadrupole_moment_norm": 19.7799623096, 
			 "total_energy": -1469.54687067, 
			 "HOMO_LUMO_gap": 0.15217, 
			 "cosmo_polarized_energy": -21.39, 
			 "cosmo_cavitation_energy": 40.97, 
			 "cosmo_dispersion_energy": -28.84, 
			 "cosmo_repulsion_energy": 2.15, 
			 "cosmo_total_nonelectrostatic_energy": 14.28, 
			 "SMD_solvation_energy": 8.4 
		},
		"coords": [
			{
				"x": -0.5793412142,
				"y": 4.9809217566,
				"z": 1.9502298592,
				"element": "C" 
			},
			{
				"x": 0.4619564646,
				"y": 4.4743230045,
				"z": 1.1304146295,
				"element": "O" 
			},
			{
				"x": 0.7447907562,
				"y": 3.1420364548,
				"z": 1.1944945928,
				"element": "C" 
			},
			{
				"x": 0.0782609445,
				"y": 2.2240102409,
				"z": 2.0140564463,
				"element": "C" 
			},
			{
				"x": 0.4495116048,
				"y": 0.8772861176,
				"z": 1.9855303665,
				"element": "C" 
			},
			{
				"x": 1.4998645258,
				"y": 0.4426222558,
				"z": 1.1753463707,
				"element": "C" 
			},
			{
				"x": 1.9140458804,
				"y": -0.9261773425,
				"z": 1.2016014875,
				"element": "N" 
			},
			{
				"x": 1.7260478862,
				"y": -1.9256381405,
				"z": -0.1453653981,
				"element": "S" 
			},
			{
				"x": 2.4169011674,
				"y": -1.3039381607,
				"z": -1.2729172257,
				"element": "O" 
			},
			{
				"x": 2.0607896003,
				"y": -3.266915241,
				"z": 0.3268524637,
				"element": "O" 
			},
			{
				"x": -0.030388835,
				"y": -1.8893832952,
				"z": -0.5591593755,
				"element": "C" 
			},
			{
				"x": -1.0065118424,
				"y": -2.1883142264,
				"z": 0.3930259717,
				"element": "C" 
			},
			{
				"x": -0.6346708534,
				"y": -2.4345727764,
				"z": 1.6657877478,
				"element": "F" 
			},
			{
				"x": -2.3585299657,
				"y": -2.2157434589,
				"z": 0.0749396192,
				"element": "C" 
			},
			{
				"x": -2.7408793873,
				"y": -1.9406997126,
				"z": -1.2341927405,
				"element": "C" 
			},
			{
				"x": -1.7798120227,
				"y": -1.6326466934,
				"z": -2.2068972114,
				"element": "C" 
			},
			{
				"x": -0.4221701555,
				"y": -1.6054169422,
				"z": -1.8657423822,
				"element": "C" 
			},
			{
				"x": -2.2553507403,
				"y": -1.3393230901,
				"z": -3.5865785421,
				"element": "C" 
			},
			{
				"x": -1.2460475166,
				"y": -1.0607581448,
				"z": -4.4425527849,
				"element": "O" 
			},
			{
				"x": -3.4216011227,
				"y": -1.3445604974,
				"z": -3.9259837622,
				"element": "O" 
			},
			{
				"x": 2.1745941314,
				"y": 1.3679815953,
				"z": 0.3645886779,
				"element": "C" 
			},
			{
				"x": 1.7889977432,
				"y": 2.7003250914,
				"z": 0.3656959431,
				"element": "C" 
			},
			{
				"x": -0.3665643638,
				"y": 4.827733886,
				"z": 3.0161981024,
				"element": "H" 
			},
			{
				"x": -0.6306729376,
				"y": 6.0512044538,
				"z": 1.7453831293,
				"element": "H" 
			},
			{
				"x": -1.546185431,
				"y": 4.521003487,
				"z": 1.7078112581,
				"element": "H" 
			},
			{
				"x": -0.7305506883,
				"y": 2.5358608448,
				"z": 2.6636843479,
				"element": "H" 
			},
			{
				"x": -0.0851593386,
				"y": 0.1602551031,
				"z": 2.602918043,
				"element": "H" 
			},
			{
				"x": 1.6289831762,
				"y": -1.442010386,
				"z": 2.028704126,
				"element": "H" 
			},
			{
				"x": -3.0813892626,
				"y": -2.4500715605,
				"z": 0.8484121213,
				"element": "H" 
			},
			{
				"x": -3.7858657649,
				"y": -1.9545827446,
				"z": -1.5238134542,
				"element": "H" 
			},
			{
				"x": 0.3348570797,
				"y": -1.3631921619,
				"z": -2.6017959949,
				"element": "H" 
			},
			{
				"x": -1.6601478961,
				"y": -0.8871066307,
				"z": -5.3038297528,
				"element": "H" 
			},
			{
				"x": 2.9921963011,
				"y": 1.0289711446,
				"z": -0.2605560896,
				"element": "H" 
			},
			{
				"x": 2.2970420768,
				"y": 3.4290157694,
				"z": -0.2570905897,
				"element": "H" 
			}
		],
		 "valence_orbital": [ 
			{
				"type": "occ",
				"energy": -0.2906,
				"method": "rhf"
			},
			{
				"type": "occ",
				"energy": -0.28632,
				"method": "rhf"
			},
			{
				"type": "occ",
				"energy": -0.27793,
				"method": "rhf"
			},
			{
				"type": "occ",
				"energy": -0.26208,
				"method": "rhf"
			},
			{
				"type": "occ",
				"energy": -0.22008,
				"method": "rhf"
			},
			{
				"type": "unocc",
				"energy": -0.06791,
				"method": "rhf"
			},
			{
				"type": "unocc",
				"energy": -0.04916,
				"method": "rhf"
			},
			{
				"type": "unocc",
				"energy": -0.01476,
				"method": "rhf"
			},
			{
				"type": "unocc",
				"energy": -0.00612,
				"method": "rhf"
			},
			{
				"type": "unocc",
				"energy": 0.02881,
				"method": "rhf"
			}
		],
		"cosmo_sigma_profile": { 
			"-0.025": 0.0,
			"-0.024": 0.0,
			"-0.023": 0.0,
			"-0.022": 0.0,
			"-0.021": 0.0,
			"-0.02": 0.0,
			"-0.019": 0.472695979442,
			"-0.018": 0.936977797407,
			"-0.017": 0.752732539892,
			"-0.016": 1.12142010307,
			"-0.015": 1.08327048458,
			"-0.014": 1.09643724401,
			"-0.013": 1.27302552187,
			"-0.012": 2.15773279079,
			"-0.011": 1.75899175166,
			"-0.01": 1.93596268528,
			"-0.009": 3.53592887184,
			"-0.008": 5.14918517664,
			"-0.007": 7.5179804671,
			"-0.006": 16.1183414812,
			"-0.005": 19.3310985203,
			"-0.004": 23.2728999057,
			"-0.003": 25.5911277653,
			"-0.002": 23.919616157,
			"-0.001": 28.3085294709,
			"0.0": 21.9197749777,
			"0.001": 16.2822480987,
			"0.002": 17.9990735083,
			"0.003": 20.4348817271,
			"0.004": 20.9728321916,
			"0.005": 11.3874796964,
			"0.006": 7.82829366347,
			"0.007": 6.11577174349,
			"0.008": 8.19963573319,
			"0.009": 8.50867144279,
			"0.01": 12.4759680593,
			"0.011": 9.40633480228,
			"0.012": 1.47000507071,
			"0.013": 0.0,
			"0.014": 0.0,
			"0.015": 0.0,
			"0.016": 0.0,
			"0.017": 0.0,
			"0.018": 0.0,
			"0.019": 0.0,
			"0.02": 0.0,
			"0.021": 0.0,
			"0.022": 0.0,
			"0.023": 0.0,
			"0.024": 0.0,
			"0.0": 0.0
		}
	}
}
