{
	 "smiles": "OC1=CC=C2C=CC=C(Cl)C2=C1", 
	 "Tm": 374.15, 
	 "num_atms": 19, 
	 "gaussian": { 
		 "optdone": 1, 
		 "sigma_profile": "yes", 
		 "theory": "DFT", 
		 "functional": "B3LYP", 
		 "basiset": "6-31G**", 
		 "properties": { 
			 "R2extent": 2684.9913, 
			 "electric_dipole_moment_norm": 0.800769336326, 
			 "electric_quadrupole_moment_norm": 10.3444090116, 
			 "total_energy": -920.707519736, 
			 "HOMO_LUMO_gap": 0.16717, 
			 "cosmo_polarized_energy": -8.54, 
			 "cosmo_cavitation_energy": 24.59, 
			 "cosmo_dispersion_energy": -18.67, 
			 "cosmo_repulsion_energy": 1.46, 
			 "cosmo_total_nonelectrostatic_energy": 7.38, 
			 "SMD_solvation_energy": 4.03 
		},
		"coords": [
			{
				"x": 1.3962647964,
				"y": 0.6062350478,
				"z": 2.5244260527,
				"element": "O" 
			},
			{
				"x": 0.5122174187,
				"y": -0.0809504491,
				"z": 1.7465632991,
				"element": "C" 
			},
			{
				"x": 0.3069496781,
				"y": -1.4423139054,
				"z": 2.0902944951,
				"element": "C" 
			},
			{
				"x": -0.5669964332,
				"y": -2.2037515998,
				"z": 1.3571655291,
				"element": "C" 
			},
			{
				"x": -1.2806796725,
				"y": -1.663019315,
				"z": 0.2512935806,
				"element": "C" 
			},
			{
				"x": -2.1845885835,
				"y": -2.4484784903,
				"z": -0.507832876,
				"element": "C" 
			},
			{
				"x": -2.8652265643,
				"y": -1.906344593,
				"z": -1.5740184912,
				"element": "C" 
			},
			{
				"x": -2.6691020117,
				"y": -0.5516151789,
				"z": -1.9259837359,
				"element": "C" 
			},
			{
				"x": -1.7956318748,
				"y": 0.227253576,
				"z": -1.2010823436,
				"element": "C" 
			},
			{
				"x": -1.5852106495,
				"y": 1.9126071345,
				"z": -1.6798614567,
				"element": "Cl" 
			},
			{
				"x": -1.0659156528,
				"y": -0.2839076751,
				"z": -0.0886140999,
				"element": "C" 
			},
			{
				"x": -0.1580282797,
				"y": 0.4861454836,
				"z": 0.6820959804,
				"element": "C" 
			},
			{
				"x": 1.4596116702,
				"y": 1.5161529914,
				"z": 2.2047548061,
				"element": "H" 
			},
			{
				"x": 0.8527119792,
				"y": -1.851192579,
				"z": 2.9339782125,
				"element": "H" 
			},
			{
				"x": -0.7272053506,
				"y": -3.2467018623,
				"z": 1.616931783,
				"element": "H" 
			},
			{
				"x": -2.3301886432,
				"y": -3.4891952052,
				"z": -0.2312681187,
				"element": "H" 
			},
			{
				"x": -3.5566827002,
				"y": -2.5099423175,
				"z": -2.1535038118,
				"element": "H" 
			},
			{
				"x": -3.2031524497,
				"y": -0.1199937556,
				"z": -2.765226412,
				"element": "H" 
			},
			{
				"x": 0.0038533233,
				"y": 1.5282126925,
				"z": 0.4247876072,
				"element": "H" 
			}
		],
		 "valence_orbital": [ 
			{
				"type": "occ",
				"energy": -0.31155,
				"method": "rhf"
			},
			{
				"type": "occ",
				"energy": -0.30855,
				"method": "rhf"
			},
			{
				"type": "occ",
				"energy": -0.27689,
				"method": "rhf"
			},
			{
				"type": "occ",
				"energy": -0.23909,
				"method": "rhf"
			},
			{
				"type": "occ",
				"energy": -0.21204,
				"method": "rhf"
			},
			{
				"type": "unocc",
				"energy": -0.04487,
				"method": "rhf"
			},
			{
				"type": "unocc",
				"energy": -0.01095,
				"method": "rhf"
			},
			{
				"type": "unocc",
				"energy": 0.02741,
				"method": "rhf"
			},
			{
				"type": "unocc",
				"energy": 0.03278,
				"method": "rhf"
			},
			{
				"type": "unocc",
				"energy": 0.06775,
				"method": "rhf"
			}
		],
		"cosmo_sigma_profile": { 
			"-0.025": 0.0,
			"-0.024": 0.0,
			"-0.023": 0.0,
			"-0.022": 0.0,
			"-0.021": 0.0,
			"-0.02": 0.0,
			"-0.019": 0.0065488285227,
			"-0.018": 0.823052123726,
			"-0.017": 0.972667752496,
			"-0.016": 0.962726709457,
			"-0.015": 1.14777981446,
			"-0.014": 0.771794625157,
			"-0.013": 0.953813148078,
			"-0.012": 0.852596985327,
			"-0.011": 1.54550239695,
			"-0.01": 0.806859256303,
			"-0.009": 0.793642177834,
			"-0.008": 1.01213331468,
			"-0.007": 4.74022784535,
			"-0.006": 12.2589548814,
			"-0.005": 10.517658475,
			"-0.004": 10.2374481956,
			"-0.003": 8.86287371456,
			"-0.002": 8.91388813825,
			"-0.001": 9.76410638854,
			"0.0": 9.72019188495,
			"0.001": 13.6202815487,
			"0.002": 22.2815128289,
			"0.003": 33.6791763238,
			"0.004": 24.9441910026,
			"0.005": 10.3772277058,
			"0.006": 1.7053895768,
			"0.007": 1.12110070869,
			"0.008": 1.19345823519,
			"0.009": 1.65639213582,
			"0.01": 1.62930818721,
			"0.011": 1.73746042125,
			"0.012": 0.0391326016392,
			"0.013": 0.0,
			"0.014": 0.0,
			"0.015": 0.0,
			"0.016": 0.0,
			"0.017": 0.0,
			"0.018": 0.0,
			"0.019": 0.0,
			"0.02": 0.0,
			"0.021": 0.0,
			"0.022": 0.0,
			"0.023": 0.0,
			"0.024": 0.0,
			"0.025": 0.0
		}
	}
}
