{
	 "smiles": "CC(C)CCOC(=O)C1=CC(=CC(=C1)[N+]([O-])=O)[N+]([O-])=O", 
	 "Tm": 334.15, 
	 "num_atms": 34, 
	 "gaussian": { 
		 "optdone": 1, 
		 "sigma_profile": "yes", 
		 "theory": "DFT", 
		 "functional": "B3LYP", 
		 "basiset": "6-31G**", 
		 "properties": { 
			 "R2extent": 9457.3239, 
			 "electric_dipole_moment_norm": 4.85762546415, 
			 "electric_quadrupole_moment_norm": 19.5944582275, 
			 "total_energy": -1026.38058135, 
			 "HOMO_LUMO_gap": 0.18464, 
			 "cosmo_polarized_energy": -13.19, 
			 "cosmo_cavitation_energy": 39.85, 
			 "cosmo_dispersion_energy": -27.05, 
			 "cosmo_repulsion_energy": 2.09, 
			 "cosmo_total_nonelectrostatic_energy": 14.89, 
			 "SMD_solvation_energy": 12.15 
		},
		"coords": [
			{
				"x": -0.5388904845,
				"y": 1.1139097994,
				"z": 1.8784201647,
				"element": "C" 
			},
			{
				"x": 0.2943666347,
				"y": 0.794679199,
				"z": 3.129784618,
				"element": "C" 
			},
			{
				"x": 1.554792375,
				"y": 1.671498864,
				"z": 3.1939406352,
				"element": "C" 
			},
			{
				"x": 0.6102144772,
				"y": -0.7097767712,
				"z": 3.2942228617,
				"element": "C" 
			},
			{
				"x": 1.5653076132,
				"y": -1.3549680211,
				"z": 2.2917677797,
				"element": "C" 
			},
			{
				"x": 1.0071768686,
				"y": -1.4536214036,
				"z": 0.9502634622,
				"element": "O" 
			},
			{
				"x": 0.242527951,
				"y": -2.5276404059,
				"z": 0.6926943836,
				"element": "C" 
			},
			{
				"x": -0.0200213176,
				"y": -3.4032347936,
				"z": 1.4920634336,
				"element": "O" 
			},
			{
				"x": -0.2588245157,
				"y": -2.5339047754,
				"z": -0.7206835553,
				"element": "C" 
			},
			{
				"x": 0.0858944582,
				"y": -1.5389222613,
				"z": -1.6411345405,
				"element": "C" 
			},
			{
				"x": -0.4190336958,
				"y": -1.6186963396,
				"z": -2.9362210596,
				"element": "C" 
			},
			{
				"x": -1.2537496493,
				"y": -2.6498708986,
				"z": -3.3518697312,
				"element": "C" 
			},
			{
				"x": -1.5752072605,
				"y": -3.6228553604,
				"z": -2.4111109061,
				"element": "C" 
			},
			{
				"x": -1.0952751875,
				"y": -3.5870424956,
				"z": -1.1065117592,
				"element": "C" 
			},
			{
				"x": -2.4602441314,
				"y": -4.7338614747,
				"z": -2.8195297455,
				"element": "N" 
			},
			{
				"x": -2.8641299593,
				"y": -4.7335758724,
				"z": -3.9794329433,
				"element": "O" 
			},
			{
				"x": -2.7299849976,
				"y": -5.5791983004,
				"z": -1.971070823,
				"element": "O" 
			},
			{
				"x": -0.0549643485,
				"y": -0.5684183498,
				"z": -3.9096294108,
				"element": "N" 
			},
			{
				"x": -0.5178820788,
				"y": -0.6654110179,
				"z": -5.0427405131,
				"element": "O" 
			},
			{
				"x": 0.6859971731,
				"y": 0.3297648398,
				"z": -3.5178121694,
				"element": "O" 
			},
			{
				"x": -0.849130156,
				"y": 2.1643076603,
				"z": 1.8810776999,
				"element": "H" 
			},
			{
				"x": 0.0300657692,
				"y": 0.9376099504,
				"z": 0.960618675,
				"element": "H" 
			},
			{
				"x": -1.4450704775,
				"y": 0.4995631967,
				"z": 1.8342810155,
				"element": "H" 
			},
			{
				"x": -0.323473267,
				"y": 1.0531688074,
				"z": 4.0016052659,
				"element": "H" 
			},
			{
				"x": 1.2863952224,
				"y": 2.7326718525,
				"z": 3.2178610986,
				"element": "H" 
			},
			{
				"x": 2.1496422402,
				"y": 1.458641369,
				"z": 4.0894411889,
				"element": "H" 
			},
			{
				"x": 2.1988380061,
				"y": 1.5237867614,
				"z": 2.3193005751,
				"element": "H" 
			},
			{
				"x": 1.0705770031,
				"y": -0.8592532796,
				"z": 4.2807049692,
				"element": "H" 
			},
			{
				"x": -0.3199471429,
				"y": -1.289217349,
				"z": 3.3051695511,
				"element": "H" 
			},
			{
				"x": 1.8272801256,
				"y": -2.3628532034,
				"z": 2.6207151299,
				"element": "H" 
			},
			{
				"x": 2.4772106774,
				"y": -0.7707268425,
				"z": 2.1557448284,
				"element": "H" 
			},
			{
				"x": 0.7340361387,
				"y": -0.718256208,
				"z": -1.3652117805,
				"element": "H" 
			},
			{
				"x": -1.6362483485,
				"y": -2.6941105851,
				"z": -4.3625032933,
				"element": "H" 
			},
			{
				"x": -1.3612457156,
				"y": -4.3599862909,
				"z": -0.3963151056,
				"element": "H" 
			}
		],
		 "valence_orbital": [ 
			{
				"type": "occ",
				"energy": -0.3138,
				"method": "rhf"
			},
			{
				"type": "occ",
				"energy": -0.31164,
				"method": "rhf"
			},
			{
				"type": "occ",
				"energy": -0.31125,
				"method": "rhf"
			},
			{
				"type": "occ",
				"energy": -0.30961,
				"method": "rhf"
			},
			{
				"type": "occ",
				"energy": -0.3013,
				"method": "rhf"
			},
			{
				"type": "unocc",
				"energy": -0.11666,
				"method": "rhf"
			},
			{
				"type": "unocc",
				"energy": -0.10986,
				"method": "rhf"
			},
			{
				"type": "unocc",
				"energy": -0.07334,
				"method": "rhf"
			},
			{
				"type": "unocc",
				"energy": -0.01355,
				"method": "rhf"
			},
			{
				"type": "unocc",
				"energy": 0.03125,
				"method": "rhf"
			}
		],
		"cosmo_sigma_profile": { 
			"-0.025": 0.0,
			"-0.024": 0.0,
			"-0.023": 0.0,
			"-0.022": 0.0,
			"-0.021": 0.0,
			"-0.02": 0.0,
			"-0.019": 0.0,
			"-0.018": 0.0,
			"-0.017": 0.0,
			"-0.016": 0.0,
			"-0.015": 0.0,
			"-0.014": 0.0,
			"-0.013": 0.0,
			"-0.012": 0.0,
			"-0.011": 0.0,
			"-0.01": 0.0,
			"-0.009": 0.720282836855,
			"-0.008": 3.48575133022,
			"-0.007": 4.95810579197,
			"-0.006": 9.41038078192,
			"-0.005": 18.3061593905,
			"-0.004": 33.9714111764,
			"-0.003": 38.6531077625,
			"-0.002": 36.4091757732,
			"-0.001": 30.1926528122,
			"0.0": 24.5097909283,
			"0.001": 21.2814989847,
			"0.002": 14.6048147672,
			"0.003": 7.59561532757,
			"0.004": 7.50727811551,
			"0.005": 8.00373165545,
			"0.006": 15.6657992909,
			"0.007": 16.8622202143,
			"0.008": 10.390461151,
			"0.009": 6.88678641965,
			"0.01": 2.75068359214,
			"0.011": 3.50203193139,
			"0.012": 0.267502014207,
			"0.013": 0.0,
			"0.014": 0.0,
			"0.015": 0.0,
			"0.016": 0.0,
			"0.017": 0.0,
			"0.018": 0.0,
			"0.019": 0.0,
			"0.02": 0.0,
			"0.021": 0.0,
			"0.022": 0.0,
			"0.023": 0.0,
			"0.024": 0.0,
			"0.025": 0.0
		}
	}
}
