{
	 "smiles": "ClC1=CC=C(CNC2=CC(=O)C3=CC=CC=C3C2=O)C=C1", 
	 "Tm": 503.15, 
	 "num_atms": 33, 
	 "gaussian": { 
		 "optdone": 1, 
		 "sigma_profile": "yes", 
		 "theory": "DFT", 
		 "functional": "B3LYP", 
		 "basiset": "6-31G**", 
		 "properties": { 
			 "R2extent": 8918.7711, 
			 "electric_dipole_moment_norm": 2.23264622142, 
			 "electric_quadrupole_moment_norm": 28.962307575, 
			 "total_energy": -1320.43087225, 
			 "HOMO_LUMO_gap": 0.11692, 
			 "cosmo_polarized_energy": -15.49, 
			 "cosmo_cavitation_energy": 39.54, 
			 "cosmo_dispersion_energy": -28.37, 
			 "cosmo_repulsion_energy": 2.13, 
			 "cosmo_total_nonelectrostatic_energy": 13.3, 
			 "SMD_solvation_energy": 6.21 
		},
		"coords": [
			{
				"x": -0.5983560252,
				"y": -2.6841266271,
				"z": 5.1968334662,
				"element": "Cl" 
			},
			{
				"x": -1.294746359,
				"y": -1.9880364995,
				"z": 3.7404078244,
				"element": "C" 
			},
			{
				"x": -2.3794732738,
				"y": -2.6173184475,
				"z": 3.1315363305,
				"element": "C" 
			},
			{
				"x": -2.9256104735,
				"y": -2.0539303519,
				"z": 1.9782352794,
				"element": "C" 
			},
			{
				"x": -2.4036436399,
				"y": -0.8776758689,
				"z": 1.4262319657,
				"element": "C" 
			},
			{
				"x": -2.9903969239,
				"y": -0.2965261006,
				"z": 0.150632366,
				"element": "C" 
			},
			{
				"x": -2.3771711132,
				"y": -0.8282306154,
				"z": -1.0779539685,
				"element": "N" 
			},
			{
				"x": -1.2087584303,
				"y": -0.4780430573,
				"z": -1.6994347735,
				"element": "C" 
			},
			{
				"x": -0.6053654481,
				"y": -1.3332234101,
				"z": -2.5851091501,
				"element": "C" 
			},
			{
				"x": 0.5749149681,
				"y": -1.0109347866,
				"z": -3.3667219899,
				"element": "C" 
			},
			{
				"x": 1.0745740658,
				"y": -1.8159391887,
				"z": -4.1548176218,
				"element": "O" 
			},
			{
				"x": 1.1754482103,
				"y": 0.3462241456,
				"z": -3.1738846954,
				"element": "C" 
			},
			{
				"x": 2.3114076506,
				"y": 0.7140892593,
				"z": -3.8957695864,
				"element": "C" 
			},
			{
				"x": 2.8742178398,
				"y": 1.9775562184,
				"z": -3.714565646,
				"element": "C" 
			},
			{
				"x": 2.3037806198,
				"y": 2.8787964963,
				"z": -2.8091501363,
				"element": "C" 
			},
			{
				"x": 1.1707379281,
				"y": 2.5166572723,
				"z": -2.0839811323,
				"element": "C" 
			},
			{
				"x": 0.6009530873,
				"y": 1.2493847433,
				"z": -2.2631578099,
				"element": "C" 
			},
			{
				"x": -0.6100983049,
				"y": 0.8905676423,
				"z": -1.4774512757,
				"element": "C" 
			},
			{
				"x": -1.0967198377,
				"y": 1.6856739753,
				"z": -0.6775349847,
				"element": "O" 
			},
			{
				"x": -1.316588982,
				"y": -0.263654165,
				"z": 2.0629607188,
				"element": "C" 
			},
			{
				"x": -0.7582652165,
				"y": -0.811609031,
				"z": 3.2173449446,
				"element": "C" 
			},
			{
				"x": -2.7906542886,
				"y": -3.5263789569,
				"z": 3.5563395134,
				"element": "H" 
			},
			{
				"x": -3.779111885,
				"y": -2.5383982458,
				"z": 1.5088189087,
				"element": "H" 
			},
			{
				"x": -2.8979853175,
				"y": 0.7854816304,
				"z": 0.140397343,
				"element": "H" 
			},
			{
				"x": -4.0536695202,
				"y": -0.5507323091,
				"z": 0.0890276642,
				"element": "H" 
			},
			{
				"x": -2.6527300248,
				"y": -1.7810403126,
				"z": -1.2803986174,
				"element": "H" 
			},
			{
				"x": -1.0128749594,
				"y": -2.327388319,
				"z": -2.7517668744,
				"element": "H" 
			},
			{
				"x": 2.7323140394,
				"y": -0.0064568953,
				"z": -4.5890312552,
				"element": "H" 
			},
			{
				"x": 3.7580479671,
				"y": 2.2622156205,
				"z": -4.2781757469,
				"element": "H" 
			},
			{
				"x": 2.7432777715,
				"y": 3.8620983795,
				"z": -2.6705240613,
				"element": "H" 
			},
			{
				"x": 0.7106416656,
				"y": 3.1983260702,
				"z": -1.3768157844,
				"element": "H" 
			},
			{
				"x": -0.9082279987,
				"y": 0.6552122817,
				"z": 1.6536288366,
				"element": "H" 
			},
			{
				"x": 0.0798322089,
				"y": -0.3311405467,
				"z": 3.7101499485,
				"element": "H" 
			}
		],
		 "valence_orbital": [ 
			{
				"type": "occ",
				"energy": -0.26869,
				"method": "rhf"
			},
			{
				"type": "occ",
				"energy": -0.26553,
				"method": "rhf"
			},
			{
				"type": "occ",
				"energy": -0.25153,
				"method": "rhf"
			},
			{
				"type": "occ",
				"energy": -0.24794,
				"method": "rhf"
			},
			{
				"type": "occ",
				"energy": -0.22427,
				"method": "rhf"
			},
			{
				"type": "unocc",
				"energy": -0.10735,
				"method": "rhf"
			},
			{
				"type": "unocc",
				"energy": -0.03643,
				"method": "rhf"
			},
			{
				"type": "unocc",
				"energy": -0.02292,
				"method": "rhf"
			},
			{
				"type": "unocc",
				"energy": -0.02051,
				"method": "rhf"
			},
			{
				"type": "unocc",
				"energy": -0.00887,
				"method": "rhf"
			}
		],
		"cosmo_sigma_profile": { 
			"-0.025": 0.0,
			"-0.024": 0.0,
			"-0.023": 0.0,
			"-0.022": 0.0,
			"-0.021": 0.0,
			"-0.02": 0.0,
			"-0.019": 0.0,
			"-0.018": 0.0,
			"-0.017": 0.0,
			"-0.016": 0.0,
			"-0.015": 0.0519130506025,
			"-0.014": 1.18747337298,
			"-0.013": 1.37972009728,
			"-0.012": 1.43517002852,
			"-0.011": 1.76308227808,
			"-0.01": 1.89056436645,
			"-0.009": 1.44176425835,
			"-0.008": 2.8873483452,
			"-0.007": 11.5920085436,
			"-0.006": 15.8905658589,
			"-0.005": 20.1809820431,
			"-0.004": 18.8319228947,
			"-0.003": 20.1671097649,
			"-0.002": 20.6825581347,
			"-0.001": 20.5778983462,
			"0.0": 25.0425506608,
			"0.001": 29.0523919519,
			"0.002": 35.9113312108,
			"0.003": 29.8713963234,
			"0.004": 22.1177575647,
			"0.005": 11.7681985483,
			"0.006": 3.30078415215,
			"0.007": 2.95585392714,
			"0.008": 2.52778869434,
			"0.009": 3.24586498214,
			"0.01": 2.91305035575,
			"0.011": 2.31752550338,
			"0.012": 3.65288912675,
			"0.013": 4.05048183783,
			"0.014": 1.48770271381,
			"0.015": 0.0674965660732,
			"0.016": 0.0,
			"0.017": 0.0,
			"0.018": 0.0,
			"0.019": 0.0,
			"0.02": 0.0,
			"0.021": 0.0,
			"0.022": 0.0,
			"0.023": 0.0,
			"0.024": 0.0,
			"0.025": 0.0
		}
	}
}
