{
	 "smiles": "CC1=C2C(=NO1)C(=O)NN=C2C", 
	 "Tm": 487.15, 
	 "num_atms": 19, 
	 "gaussian": { 
		 "optdone": 1, 
		 "sigma_profile": "yes", 
		 "theory": "DFT", 
		 "functional": "B3LYP", 
		 "basiset": "6-31G**", 
		 "properties": { 
			 "R2extent": 3168.4588, 
			 "electric_dipole_moment_norm": 6.08639851636, 
			 "electric_quadrupole_moment_norm": 26.7291520866, 
			 "total_energy": -585.602937582, 
			 "HOMO_LUMO_gap": 0.17157, 
			 "cosmo_polarized_energy": -16.71, 
			 "cosmo_cavitation_energy": 23.81, 
			 "cosmo_dispersion_energy": -17.63, 
			 "cosmo_repulsion_energy": 1.4, 
			 "cosmo_total_nonelectrostatic_energy": 7.57, 
			 "SMD_solvation_energy": 4.04 
		},
		"coords": [
			{
				"x": -2.2663849615,
				"y": 0.3913105074,
				"z": -0.0489387769,
				"element": "C" 
			},
			{
				"x": -1.2897787391,
				"y": 1.4385213241,
				"z": -0.4629891598,
				"element": "C" 
			},
			{
				"x": 0.0761746727,
				"y": 1.4911308876,
				"z": -0.6364721918,
				"element": "C" 
			},
			{
				"x": 0.3059063505,
				"y": 2.8374654697,
				"z": -1.0498633822,
				"element": "C" 
			},
			{
				"x": -0.7975091383,
				"y": 3.548612579,
				"z": -1.1264283596,
				"element": "N" 
			},
			{
				"x": -1.7999055025,
				"y": 2.6527455672,
				"z": -0.7526343829,
				"element": "O" 
			},
			{
				"x": 1.6721234655,
				"y": 3.3069094012,
				"z": -1.3429930797,
				"element": "C" 
			},
			{
				"x": 2.0191149664,
				"y": 4.4187710555,
				"z": -1.7029316349,
				"element": "O" 
			},
			{
				"x": 2.5864993666,
				"y": 2.2711785742,
				"z": -1.1516919584,
				"element": "N" 
			},
			{
				"x": 2.3960874829,
				"y": 0.9755438004,
				"z": -0.757422857,
				"element": "N" 
			},
			{
				"x": 1.1857220897,
				"y": 0.5745437327,
				"z": -0.5017926,
				"element": "C" 
			},
			{
				"x": 1.0059738067,
				"y": -0.8538723275,
				"z": -0.0705566306,
				"element": "C" 
			},
			{
				"x": -2.045942037,
				"y": 0.0217926572,
				"z": 0.9574544519,
				"element": "H" 
			},
			{
				"x": -3.275309179,
				"y": 0.8080261295,
				"z": -0.0524004566,
				"element": "H" 
			},
			{
				"x": -2.2407800543,
				"y": -0.4641147618,
				"z": -0.731250591,
				"element": "H" 
			},
			{
				"x": 3.5540452561,
				"y": 2.5070799328,
				"z": -1.3318052667,
				"element": "H" 
			},
			{
				"x": 1.9773045506,
				"y": -1.3496208098,
				"z": -0.0406232658,
				"element": "H" 
			},
			{
				"x": 0.5499781499,
				"y": -0.9141058534,
				"z": 0.9245230955,
				"element": "H" 
			},
			{
				"x": 0.3544794542,
				"y": -1.399117866,
				"z": -0.7633829534,
				"element": "H" 
			}
		],
		 "valence_orbital": [ 
			{
				"type": "occ",
				"energy": -0.32373,
				"method": "rhf"
			},
			{
				"type": "occ",
				"energy": -0.31436,
				"method": "rhf"
			},
			{
				"type": "occ",
				"energy": -0.28791,
				"method": "rhf"
			},
			{
				"type": "occ",
				"energy": -0.26133,
				"method": "rhf"
			},
			{
				"type": "occ",
				"energy": -0.2363,
				"method": "rhf"
			},
			{
				"type": "unocc",
				"energy": -0.06473,
				"method": "rhf"
			},
			{
				"type": "unocc",
				"energy": -0.02858,
				"method": "rhf"
			},
			{
				"type": "unocc",
				"energy": 0.02492,
				"method": "rhf"
			},
			{
				"type": "unocc",
				"energy": 0.06366,
				"method": "rhf"
			},
			{
				"type": "unocc",
				"energy": 0.08856,
				"method": "rhf"
			}
		],
		"cosmo_sigma_profile": { 
			"-0.025": 0.0,
			"-0.024": 0.0,
			"-0.023": 0.0,
			"-0.022": 0.0,
			"-0.021": 0.0,
			"-0.02": 0.0,
			"-0.019": 0.0,
			"-0.018": 0.0,
			"-0.017": 0.0,
			"-0.016": 0.721606278319,
			"-0.015": 0.831460270504,
			"-0.014": 0.997849739395,
			"-0.013": 0.898888721175,
			"-0.012": 0.903979280607,
			"-0.011": 0.339689187323,
			"-0.01": 0.794581073816,
			"-0.009": 1.16820933735,
			"-0.008": 1.05967205161,
			"-0.007": 8.51715781228,
			"-0.006": 12.1289835392,
			"-0.005": 15.6805786271,
			"-0.004": 16.4739977832,
			"-0.003": 22.5807697111,
			"-0.002": 17.48941952,
			"-0.001": 15.2523036576,
			"0.0": 6.91125645075,
			"0.001": 5.09643082823,
			"0.002": 4.57572464694,
			"0.003": 5.04774087807,
			"0.004": 4.73655308424,
			"0.005": 5.66795084887,
			"0.006": 6.16760726259,
			"0.007": 5.74083317115,
			"0.008": 3.72659502263,
			"0.009": 3.46582032175,
			"0.01": 4.9937579753,
			"0.011": 4.91722698854,
			"0.012": 8.07632133801,
			"0.013": 4.97950325352,
			"0.014": 0.184023306952,
			"0.015": 0.0,
			"0.016": 0.0,
			"0.017": 0.0,
			"0.018": 0.0,
			"0.019": 0.0,
			"0.02": 0.0,
			"0.021": 0.0,
			"0.022": 0.0,
			"0.023": 0.0,
			"0.024": 0.0,
			"0.025": 0.0
		}
	}
}
