{
	 "smiles": "CC1=NN(C(=O)C1C1C(C)=NN(C1=O)C1=CC=CC=C1)C1=CC=CC=C1", 
	 "Tm": 628.15, 
	 "num_atms": 44, 
	 "gaussian": { 
		 "optdone": 1, 
		 "sigma_profile": "yes", 
		 "theory": "DFT", 
		 "functional": "B3LYP", 
		 "basiset": "6-31G**", 
		 "properties": { 
			 "R2extent": 10623.0119, 
			 "electric_dipole_moment_norm": 3.61515552639, 
			 "electric_quadrupole_moment_norm": 7.94958617728, 
			 "total_energy": -1142.40607331, 
			 "HOMO_LUMO_gap": 0.16653, 
			 "cosmo_polarized_energy": -18.7, 
			 "cosmo_cavitation_energy": 47.47, 
			 "cosmo_dispersion_energy": -33.15, 
			 "cosmo_repulsion_energy": 2.49, 
			 "cosmo_total_nonelectrostatic_energy": 16.81, 
			 "SMD_solvation_energy": 7.47 
		},
		"coords": [
			{
				"x": -2.2504513416,
				"y": -0.3647648724,
				"z": -2.5196599737,
				"element": "C" 
			},
			{
				"x": -0.8666595495,
				"y": -0.0766029872,
				"z": -2.0430183099,
				"element": "C" 
			},
			{
				"x": 0.1651482065,
				"y": -0.5991609157,
				"z": -2.6043081934,
				"element": "N" 
			},
			{
				"x": 1.3191679594,
				"y": -0.171460256,
				"z": -1.925665627,
				"element": "N" 
			},
			{
				"x": 1.0282926579,
				"y": 0.6683003578,
				"z": -0.8665430105,
				"element": "C" 
			},
			{
				"x": 1.8013438982,
				"y": 1.1853777557,
				"z": -0.073983832,
				"element": "O" 
			},
			{
				"x": -0.4935585232,
				"y": 0.8523281981,
				"z": -0.9126993656,
				"element": "C" 
			},
			{
				"x": -1.2114042265,
				"y": 0.653100282,
				"z": 0.4360925376,
				"element": "C" 
			},
			{
				"x": -0.6950222648,
				"y": 1.4336416922,
				"z": 1.6209330948,
				"element": "C" 
			},
			{
				"x": -0.4556193175,
				"y": 2.9053855706,
				"z": 1.6633348079,
				"element": "C" 
			},
			{
				"x": -0.4991183906,
				"y": 0.6860582205,
				"z": 2.6482972369,
				"element": "N" 
			},
			{
				"x": -0.7774638591,
				"y": -0.6472632132,
				"z": 2.301837321,
				"element": "N" 
			},
			{
				"x": -1.1705257663,
				"y": -0.7791769302,
				"z": 0.982882715,
				"element": "C" 
			},
			{
				"x": -1.4562503436,
				"y": -1.7999303479,
				"z": 0.3749705773,
				"element": "O" 
			},
			{
				"x": -0.6024686053,
				"y": -1.6557294508,
				"z": 3.2871270547,
				"element": "C" 
			},
			{
				"x": -0.1852937387,
				"y": -1.2867606742,
				"z": 4.5744037246,
				"element": "C" 
			},
			{
				"x": -0.0148984768,
				"y": -2.2658785788,
				"z": 5.5505588804,
				"element": "C" 
			},
			{
				"x": -0.2545911867,
				"y": -3.6104276067,
				"z": 5.262381781,
				"element": "C" 
			},
			{
				"x": -0.6683060812,
				"y": -3.9676104385,
				"z": 3.978768478,
				"element": "C" 
			},
			{
				"x": -0.8453781704,
				"y": -3.0047886656,
				"z": 2.9855665448,
				"element": "C" 
			},
			{
				"x": 2.5822813247,
				"y": -0.6511670707,
				"z": -2.3648231027,
				"element": "C" 
			},
			{
				"x": 3.7631996647,
				"y": -0.2703587103,
				"z": -1.7088396375,
				"element": "C" 
			},
			{
				"x": 4.9861316321,
				"y": -0.7565581148,
				"z": -2.1702277777,
				"element": "C" 
			},
			{
				"x": 5.0520721115,
				"y": -1.6127497736,
				"z": -3.2697678987,
				"element": "C" 
			},
			{
				"x": 3.8710920646,
				"y": -1.9856209531,
				"z": -3.9136354907,
				"element": "C" 
			},
			{
				"x": 2.6381318036,
				"y": -1.5122761299,
				"z": -3.4705450999,
				"element": "C" 
			},
			{
				"x": -2.8021889687,
				"y": 0.559249916,
				"z": -2.729529263,
				"element": "H" 
			},
			{
				"x": -2.2097429091,
				"y": -0.9688290062,
				"z": -3.4280573523,
				"element": "H" 
			},
			{
				"x": -2.7954757138,
				"y": -0.9231575884,
				"z": -1.7511427269,
				"element": "H" 
			},
			{
				"x": -0.6781666273,
				"y": 1.8875667638,
				"z": -1.2363459145,
				"element": "H" 
			},
			{
				"x": -2.271903087,
				"y": 0.9056658873,
				"z": 0.2873354336,
				"element": "H" 
			},
			{
				"x": 0.3825741708,
				"y": 3.1609552892,
				"z": 1.0063628542,
				"element": "H" 
			},
			{
				"x": -1.3375867196,
				"y": 3.4642122253,
				"z": 1.3285211936,
				"element": "H" 
			},
			{
				"x": -0.2071451845,
				"y": 3.2098501373,
				"z": 2.6818134009,
				"element": "H" 
			},
			{
				"x": 0.0015191834,
				"y": -0.2438534543,
				"z": 4.7934620056,
				"element": "H" 
			},
			{
				"x": 0.3093220739,
				"y": -1.9699350391,
				"z": 6.544219766,
				"element": "H" 
			},
			{
				"x": -0.1194347542,
				"y": -4.3690184982,
				"z": 6.0274187286,
				"element": "H" 
			},
			{
				"x": -0.8569871075,
				"y": -5.0098993019,
				"z": 3.7378259911,
				"element": "H" 
			},
			{
				"x": -1.1628486239,
				"y": -3.2856718186,
				"z": 1.9912984594,
				"element": "H" 
			},
			{
				"x": 3.7157421535,
				"y": 0.3900541322,
				"z": -0.8545243283,
				"element": "H" 
			},
			{
				"x": 5.8958957693,
				"y": -0.4585665568,
				"z": -1.656858566,
				"element": "H" 
			},
			{
				"x": 6.0100264621,
				"y": -1.9855276976,
				"z": -3.6195800654,
				"element": "H" 
			},
			{
				"x": 3.90358819,
				"y": -2.6527741566,
				"z": -4.7703228174,
				"element": "H" 
			},
			{
				"x": 1.7204602113,
				"y": -1.8007276208,
				"z": -3.9657342338,
				"element": "H" 
			}
		],
		 "valence_orbital": [ 
			{
				"type": "occ",
				"energy": -0.26152,
				"method": "rhf"
			},
			{
				"type": "occ",
				"energy": -0.24652,
				"method": "rhf"
			},
			{
				"type": "occ",
				"energy": -0.24649,
				"method": "rhf"
			},
			{
				"type": "occ",
				"energy": -0.21607,
				"method": "rhf"
			},
			{
				"type": "occ",
				"energy": -0.21326,
				"method": "rhf"
			},
			{
				"type": "unocc",
				"energy": -0.04673,
				"method": "rhf"
			},
			{
				"type": "unocc",
				"energy": -0.02964,
				"method": "rhf"
			},
			{
				"type": "unocc",
				"energy": -0.01093,
				"method": "rhf"
			},
			{
				"type": "unocc",
				"energy": -0.00897,
				"method": "rhf"
			},
			{
				"type": "unocc",
				"energy": 0.0045,
				"method": "rhf"
			}
		],
		"cosmo_sigma_profile": { 
			"-0.025": 0.0,
			"-0.024": 0.0,
			"-0.023": 0.0,
			"-0.022": 0.0,
			"-0.021": 0.0,
			"-0.02": 0.0,
			"-0.019": 0.0,
			"-0.018": 0.0,
			"-0.017": 0.0,
			"-0.016": 0.0,
			"-0.015": 0.0,
			"-0.014": 0.0,
			"-0.013": 0.0,
			"-0.012": 0.0,
			"-0.011": 0.0,
			"-0.01": 4.96815652411,
			"-0.009": 8.85306930856,
			"-0.008": 5.69280438082,
			"-0.007": 5.02997328643,
			"-0.006": 16.4223897573,
			"-0.005": 24.4579134219,
			"-0.004": 32.3585645599,
			"-0.003": 31.5230757705,
			"-0.002": 27.9002699954,
			"-0.001": 29.2275066154,
			"0.0": 19.7921384953,
			"0.001": 21.5921438216,
			"0.002": 27.8679360155,
			"0.003": 26.789425835,
			"0.004": 26.0135595588,
			"0.005": 27.8483792059,
			"0.006": 14.4016360249,
			"0.007": 7.03496342215,
			"0.008": 7.06316755529,
			"0.009": 5.96849860882,
			"0.01": 4.15833507322,
			"0.011": 4.51878858376,
			"0.012": 0.461660106258,
			"0.013": 0.0,
			"0.014": 0.0,
			"0.015": 0.0,
			"0.016": 0.0,
			"0.017": 0.0,
			"0.018": 0.0,
			"0.019": 0.0,
			"0.02": 0.0,
			"0.021": 0.0,
			"0.022": 0.0,
			"0.023": 0.0,
			"0.024": 0.0,
			"0.025": 0.0
		}
	}
}
