{
	 "smiles": "[O-][N+](=O)C1=C(NC2=CC=CC=C2)C=C(Cl)C=C1", 
	 "Tm": 385.15, 
	 "num_atms": 26, 
	 "gaussian": { 
		 "optdone": 1, 
		 "sigma_profile": "yes", 
		 "theory": "DFT", 
		 "functional": "B3LYP", 
		 "basiset": "6-31G**", 
		 "properties": { 
			 "R2extent": 6065.5046, 
			 "electric_dipole_moment_norm": 3.20165880756, 
			 "electric_quadrupole_moment_norm": 13.0717099612, 
			 "total_energy": -1182.73542637, 
			 "HOMO_LUMO_gap": 0.13076, 
			 "cosmo_polarized_energy": -14.22, 
			 "cosmo_cavitation_energy": 32.62, 
			 "cosmo_dispersion_energy": -23.47, 
			 "cosmo_repulsion_energy": 1.81, 
			 "cosmo_total_nonelectrostatic_energy": 10.96, 
			 "SMD_solvation_energy": 7.24 
		},
		"coords": [
			{
				"x": -0.0438717829,
				"y": -2.5167358369,
				"z": 2.3993690593,
				"element": "O" 
			},
			{
				"x": 0.4833206965,
				"y": -2.0650367817,
				"z": 1.3788724858,
				"element": "N" 
			},
			{
				"x": 0.1075559175,
				"y": -2.3087897638,
				"z": 0.2336388941,
				"element": "O" 
			},
			{
				"x": 1.6649884969,
				"y": -1.2183268193,
				"z": 1.5470961081,
				"element": "C" 
			},
			{
				"x": 2.086591269,
				"y": -0.2801153584,
				"z": 0.570933566,
				"element": "C" 
			},
			{
				"x": 1.3930419942,
				"y": 0.0942196985,
				"z": -0.5651771409,
				"element": "N" 
			},
			{
				"x": 0.0107817974,
				"y": 0.328313473,
				"z": -0.7415383955,
				"element": "C" 
			},
			{
				"x": -0.4769788615,
				"y": 0.3982446263,
				"z": -2.054104914,
				"element": "C" 
			},
			{
				"x": -1.8170475,
				"y": 0.6943792965,
				"z": -2.2900898924,
				"element": "C" 
			},
			{
				"x": -2.6915133602,
				"y": 0.9118990709,
				"z": -1.2235107626,
				"element": "C" 
			},
			{
				"x": -2.2051543617,
				"y": 0.8405204769,
				"z": 0.0828019266,
				"element": "C" 
			},
			{
				"x": -0.8622049837,
				"y": 0.5611762024,
				"z": 0.329439559,
				"element": "C" 
			},
			{
				"x": 3.3476169658,
				"y": 0.3233198869,
				"z": 0.7817899317,
				"element": "C" 
			},
			{
				"x": 4.113465916,
				"y": 0.0239327601,
				"z": 1.8964567995,
				"element": "C" 
			},
			{
				"x": 5.6700687315,
				"y": 0.8045320398,
				"z": 2.0914318671,
				"element": "Cl" 
			},
			{
				"x": 3.6610371854,
				"y": -0.8584172436,
				"z": 2.8839701568,
				"element": "C" 
			},
			{
				"x": 2.4310236267,
				"y": -1.465218997,
				"z": 2.6925943945,
				"element": "C" 
			},
			{
				"x": 1.9723537604,
				"y": 0.5289683519,
				"z": -1.2691230255,
				"element": "H" 
			},
			{
				"x": 0.1971177494,
				"y": 0.2066260079,
				"z": -2.8849276999,
				"element": "H" 
			},
			{
				"x": -2.1795269059,
				"y": 0.7444208509,
				"z": -3.3127118146,
				"element": "H" 
			},
			{
				"x": -3.738040952,
				"y": 1.1330873299,
				"z": -1.4079120854,
				"element": "H" 
			},
			{
				"x": -2.8718552476,
				"y": 1.0133048665,
				"z": 0.9225362404,
				"element": "H" 
			},
			{
				"x": -0.4955929934,
				"y": 0.5361160872,
				"z": 1.3505125881,
				"element": "H" 
			},
			{
				"x": 3.7043819753,
				"y": 1.0578303551,
				"z": 0.0673701185,
				"element": "H" 
			},
			{
				"x": 4.2625579568,
				"y": -1.0686869394,
				"z": 3.75948966,
				"element": "H" 
			},
			{
				"x": 2.04178291,
				"y": -2.1745636406,
				"z": 3.4123923753,
				"element": "H" 
			}
		],
		 "valence_orbital": [ 
			{
				"type": "occ",
				"energy": -0.2903,
				"method": "rhf"
			},
			{
				"type": "occ",
				"energy": -0.27186,
				"method": "rhf"
			},
			{
				"type": "occ",
				"energy": -0.26654,
				"method": "rhf"
			},
			{
				"type": "occ",
				"energy": -0.25604,
				"method": "rhf"
			},
			{
				"type": "occ",
				"energy": -0.21487,
				"method": "rhf"
			},
			{
				"type": "unocc",
				"energy": -0.08411,
				"method": "rhf"
			},
			{
				"type": "unocc",
				"energy": -0.0342,
				"method": "rhf"
			},
			{
				"type": "unocc",
				"energy": -0.01062,
				"method": "rhf"
			},
			{
				"type": "unocc",
				"energy": -0.00723,
				"method": "rhf"
			},
			{
				"type": "unocc",
				"energy": 0.0105,
				"method": "rhf"
			}
		],
		"cosmo_sigma_profile": { 
			"-0.025": 0.0,
			"-0.024": 0.0,
			"-0.023": 0.0,
			"-0.022": 0.0,
			"-0.021": 0.0,
			"-0.02": 0.0,
			"-0.019": 0.0,
			"-0.018": 0.0,
			"-0.017": 0.0,
			"-0.016": 0.152602432858,
			"-0.015": 1.43143878412,
			"-0.014": 1.57793902714,
			"-0.013": 1.64809500485,
			"-0.012": 0.811462764263,
			"-0.011": 1.90598281993,
			"-0.01": 2.21725927709,
			"-0.009": 1.72342545825,
			"-0.008": 4.40214270778,
			"-0.007": 6.67701746149,
			"-0.006": 12.7215749441,
			"-0.005": 16.347153092,
			"-0.004": 16.2956963055,
			"-0.003": 15.9918845475,
			"-0.002": 15.8902160507,
			"-0.001": 16.4882320841,
			"0.0": 23.5392210713,
			"0.001": 23.2452494943,
			"0.002": 18.6320024409,
			"0.003": 16.7475903978,
			"0.004": 17.7693418711,
			"0.005": 9.66507131874,
			"0.006": 8.27715887952,
			"0.007": 6.71867841374,
			"0.008": 10.958491955,
			"0.009": 7.31380086495,
			"0.01": 4.32968305081,
			"0.011": 0.847148425162,
			"0.012": 0.0,
			"0.013": 0.0,
			"0.014": 0.0,
			"0.015": 0.0,
			"0.016": 0.0,
			"0.017": 0.0,
			"0.018": 0.0,
			"0.019": 0.0,
			"0.02": 0.0,
			"0.021": 0.0,
			"0.022": 0.0,
			"0.023": 0.0,
			"0.024": 0.0,
			"0.025": 0.0
		}
	}
}
