{
	 "smiles": "OC[C@H]1O[C@H](C[C@@H]1O)N1C=C(F)C(=O)NC1=O", 
	 "Tm": 423.15, 
	 "num_atms": 28, 
	 "gaussian": { 
		 "optdone": 1, 
		 "sigma_profile": "yes", 
		 "theory": "DFT", 
		 "functional": "B3LYP", 
		 "basiset": "6-31G**", 
		 "properties": { 
			 "R2extent": 5791.7069, 
			 "electric_dipole_moment_norm": 5.76219340269, 
			 "electric_quadrupole_moment_norm": 9.25007158729, 
			 "total_energy": -935.035006947, 
			 "HOMO_LUMO_gap": 0.19428, 
			 "cosmo_polarized_energy": -23.12, 
			 "cosmo_cavitation_energy": 32.24, 
			 "cosmo_dispersion_energy": -23.04, 
			 "cosmo_repulsion_energy": 1.77, 
			 "cosmo_total_nonelectrostatic_energy": 10.97, 
			 "SMD_solvation_energy": 7.14 
		},
		"coords": [
			{
				"x": 1.0501082083,
				"y": 3.1260622815,
				"z": 0.0152771012,
				"element": "O" 
			},
			{
				"x": 1.092453536,
				"y": 1.69830526,
				"z": 0.0862953312,
				"element": "C" 
			},
			{
				"x": 0.5170722212,
				"y": 1.1113254694,
				"z": -1.1969854051,
				"element": "C" 
			},
			{
				"x": 0.4772253392,
				"y": -0.3219984548,
				"z": -1.1187903828,
				"element": "O" 
			},
			{
				"x": -0.618213314,
				"y": -0.8126361743,
				"z": -1.8762070454,
				"element": "C" 
			},
			{
				"x": -1.3773396859,
				"y": 0.4120044563,
				"z": -2.4222732261,
				"element": "C" 
			},
			{
				"x": -0.929090996,
				"y": 1.5370702754,
				"z": -1.4903427277,
				"element": "C" 
			},
			{
				"x": -1.0326448761,
				"y": 2.8017560424,
				"z": -2.1008250627,
				"element": "O" 
			},
			{
				"x": -1.4545903581,
				"y": -1.6753334645,
				"z": -0.993387332,
				"element": "N" 
			},
			{
				"x": -1.3105969676,
				"y": -1.695565596,
				"z": 0.3791223009,
				"element": "C" 
			},
			{
				"x": -2.0679395953,
				"y": -2.4907049004,
				"z": 1.1611936969,
				"element": "C" 
			},
			{
				"x": -1.9117714511,
				"y": -2.497482474,
				"z": 2.4931730484,
				"element": "F" 
			},
			{
				"x": -3.0735606329,
				"y": -3.3891063344,
				"z": 0.6039634672,
				"element": "C" 
			},
			{
				"x": -3.8011515068,
				"y": -4.1418194286,
				"z": 1.2255808965,
				"element": "O" 
			},
			{
				"x": -3.1187613353,
				"y": -3.3001030814,
				"z": -0.8001995576,
				"element": "N" 
			},
			{
				"x": -2.3677697181,
				"y": -2.498610672,
				"z": -1.647800863,
				"element": "C" 
			},
			{
				"x": -2.4961667292,
				"y": -2.5043764213,
				"z": -2.8634101511,
				"element": "O" 
			},
			{
				"x": 1.7930445807,
				"y": 3.4223440039,
				"z": -0.5268748654,
				"element": "H" 
			},
			{
				"x": 2.1079319171,
				"y": 1.3272872737,
				"z": 0.2753329871,
				"element": "H" 
			},
			{
				"x": 0.4678291867,
				"y": 1.4142010193,
				"z": 0.9395230465,
				"element": "H" 
			},
			{
				"x": 1.1404438156,
				"y": 1.4179605127,
				"z": -2.0527968948,
				"element": "H" 
			},
			{
				"x": -0.2641322781,
				"y": -1.4664001642,
				"z": -2.6764462019,
				"element": "H" 
			},
			{
				"x": -2.4546973446,
				"y": 0.2524488983,
				"z": -2.460443707,
				"element": "H" 
			},
			{
				"x": -1.0314940832,
				"y": 0.6404533564,
				"z": -3.4353595314,
				"element": "H" 
			},
			{
				"x": -1.5049472494,
				"y": 1.5012664869,
				"z": -0.5496135092,
				"element": "H" 
			},
			{
				"x": -0.6354976407,
				"y": 3.4267331283,
				"z": -1.4745094402,
				"element": "H" 
			},
			{
				"x": -0.5408148011,
				"y": -1.0547642811,
				"z": 0.7844165572,
				"element": "H" 
			},
			{
				"x": -3.7915282412,
				"y": -3.9013170172,
				"z": -1.2614125297,
				"element": "H" 
			}
		],
		 "valence_orbital": [ 
			{
				"type": "occ",
				"energy": -0.29426,
				"method": "rhf"
			},
			{
				"type": "occ",
				"energy": -0.2905,
				"method": "rhf"
			},
			{
				"type": "occ",
				"energy": -0.28023,
				"method": "rhf"
			},
			{
				"type": "occ",
				"energy": -0.26916,
				"method": "rhf"
			},
			{
				"type": "occ",
				"energy": -0.23775,
				"method": "rhf"
			},
			{
				"type": "unocc",
				"energy": -0.04347,
				"method": "rhf"
			},
			{
				"type": "unocc",
				"energy": 0.00601,
				"method": "rhf"
			},
			{
				"type": "unocc",
				"energy": 0.03083,
				"method": "rhf"
			},
			{
				"type": "unocc",
				"energy": 0.06571,
				"method": "rhf"
			},
			{
				"type": "unocc",
				"energy": 0.06923,
				"method": "rhf"
			}
		],
		"cosmo_sigma_profile": { 
			"-0.025": 0.0,
			"-0.024": 0.0,
			"-0.023": 0.0,
			"-0.022": 0.0,
			"-0.021": 0.0,
			"-0.02": 0.0,
			"-0.019": 0.0,
			"-0.018": 0.0,
			"-0.017": 0.351033152351,
			"-0.016": 2.1645246121,
			"-0.015": 1.94247083079,
			"-0.014": 2.00441617315,
			"-0.013": 1.47024753321,
			"-0.012": 2.25848070316,
			"-0.011": 1.85834527788,
			"-0.01": 2.35028718495,
			"-0.009": 2.6534532302,
			"-0.008": 6.0180092056,
			"-0.007": 9.79877922192,
			"-0.006": 16.7081897868,
			"-0.005": 23.4351754552,
			"-0.004": 20.1624644747,
			"-0.003": 16.5309998387,
			"-0.002": 18.0867413384,
			"-0.001": 14.1339891151,
			"0.0": 8.75175242644,
			"0.001": 6.92540547544,
			"0.002": 9.24017955314,
			"0.003": 11.2825747508,
			"0.004": 11.2434287494,
			"0.005": 6.58430231891,
			"0.006": 4.9596617394,
			"0.007": 5.64431074375,
			"0.008": 6.82415072284,
			"0.009": 5.14439575339,
			"0.01": 6.11180172381,
			"0.011": 7.97584564353,
			"0.012": 13.1444771686,
			"0.013": 7.27757813182,
			"0.014": 1.06051210039,
			"0.015": 0.0,
			"0.016": 0.0,
			"0.017": 0.0,
			"0.018": 0.0,
			"0.019": 0.0,
			"0.02": 0.0,
			"0.021": 0.0,
			"0.022": 0.0,
			"0.023": 0.0,
			"0.024": 0.0,
			"0.025": 0.0
		}
	}
}
