{
	 "smiles": "OC(=O)C=CC1=CC=C(O)C=C1", 
	 "Tm": 487.15, 
	 "num_atms": 20, 
	 "gaussian": { 
		 "optdone": 1, 
		 "sigma_profile": "yes", 
		 "theory": "DFT", 
		 "functional": "B3LYP", 
		 "basiset": "6-31G**", 
		 "properties": { 
			 "R2extent": 3550.634, 
			 "electric_dipole_moment_norm": 6.91346873067, 
			 "electric_quadrupole_moment_norm": 24.92350019, 
			 "total_energy": -573.434312456, 
			 "HOMO_LUMO_gap": 0.17023, 
			 "cosmo_polarized_energy": -17.72, 
			 "cosmo_cavitation_energy": 24.79, 
			 "cosmo_dispersion_energy": -18.12, 
			 "cosmo_repulsion_energy": 1.45, 
			 "cosmo_total_nonelectrostatic_energy": 8.11, 
			 "SMD_solvation_energy": 5.82 
		},
		"coords": [
			{
				"x": -1.6917591016,
				"y": -1.7827542007,
				"z": -3.3056712784,
				"element": "O" 
			},
			{
				"x": -1.0344750756,
				"y": -0.8279732574,
				"z": -4.0150216347,
				"element": "C" 
			},
			{
				"x": -1.5671750971,
				"y": -0.3187975222,
				"z": -4.975270183,
				"element": "O" 
			},
			{
				"x": 0.3585774996,
				"y": -0.4740154576,
				"z": -3.6194940299,
				"element": "C" 
			},
			{
				"x": 1.009444107,
				"y": -0.6243593135,
				"z": -2.4480072281,
				"element": "C" 
			},
			{
				"x": 0.5402548725,
				"y": -1.1041464971,
				"z": -1.1361546202,
				"element": "C" 
			},
			{
				"x": 1.4346410165,
				"y": -1.8185148796,
				"z": -0.3167820199,
				"element": "C" 
			},
			{
				"x": 1.0595974884,
				"y": -2.2803933769,
				"z": 0.9395574217,
				"element": "C" 
			},
			{
				"x": -0.2275314566,
				"y": -2.0136346102,
				"z": 1.4246624678,
				"element": "C" 
			},
			{
				"x": -0.6568388531,
				"y": -2.4285807357,
				"z": 2.6468698044,
				"element": "O" 
			},
			{
				"x": -1.1241325605,
				"y": -1.2753365807,
				"z": 0.6420867154,
				"element": "C" 
			},
			{
				"x": -0.7417259472,
				"y": -0.8263010175,
				"z": -0.6161039673,
				"element": "C" 
			},
			{
				"x": -1.1302675282,
				"y": -2.1211674467,
				"z": -2.5915872738,
				"element": "H" 
			},
			{
				"x": 0.8963520417,
				"y": -0.0197379595,
				"z": -4.4460303784,
				"element": "H" 
			},
			{
				"x": 2.0634015026,
				"y": -0.3461900804,
				"z": -2.4613283239,
				"element": "H" 
			},
			{
				"x": 2.4387599426,
				"y": -2.0233520332,
				"z": -0.6784470242,
				"element": "H" 
			},
			{
				"x": 1.7662786834,
				"y": -2.8405549402,
				"z": 1.5479712392,
				"element": "H" 
			},
			{
				"x": 0.0498111125,
				"y": -2.9163557291,
				"z": 3.0901241316,
				"element": "H" 
			},
			{
				"x": -2.1073777422,
				"y": -1.0513553399,
				"z": 1.0416009793,
				"element": "H" 
			},
			{
				"x": -1.4395349046,
				"y": -0.2294790216,
				"z": -1.1933747977,
				"element": "H" 
			}
		],
		 "valence_orbital": [ 
			{
				"type": "occ",
				"energy": -0.30897,
				"method": "rhf"
			},
			{
				"type": "occ",
				"energy": -0.29324,
				"method": "rhf"
			},
			{
				"type": "occ",
				"energy": -0.27582,
				"method": "rhf"
			},
			{
				"type": "occ",
				"energy": -0.26414,
				"method": "rhf"
			},
			{
				"type": "occ",
				"energy": -0.2326,
				"method": "rhf"
			},
			{
				"type": "unocc",
				"energy": -0.06237,
				"method": "rhf"
			},
			{
				"type": "unocc",
				"energy": -0.02661,
				"method": "rhf"
			},
			{
				"type": "unocc",
				"energy": 0.00899,
				"method": "rhf"
			},
			{
				"type": "unocc",
				"energy": 0.05332,
				"method": "rhf"
			},
			{
				"type": "unocc",
				"energy": 0.07458,
				"method": "rhf"
			}
		],
		"cosmo_sigma_profile": { 
			"-0.025": 0.0,
			"-0.024": 0.0,
			"-0.023": 0.0,
			"-0.022": 0.0,
			"-0.021": 0.0,
			"-0.02": 0.0,
			"-0.019": 0.00410881685015,
			"-0.018": 0.894595479829,
			"-0.017": 1.17137428024,
			"-0.016": 1.27688650754,
			"-0.015": 0.98854043557,
			"-0.014": 1.29457693538,
			"-0.013": 1.65993654442,
			"-0.012": 1.58686405743,
			"-0.011": 1.997982865,
			"-0.01": 1.83455051178,
			"-0.009": 2.32859484158,
			"-0.008": 2.44958294394,
			"-0.007": 9.61726043315,
			"-0.006": 13.8767431793,
			"-0.005": 11.8851847187,
			"-0.004": 10.6616429001,
			"-0.003": 9.71339820628,
			"-0.002": 9.81834318587,
			"-0.001": 10.4002812174,
			"0.0": 10.4652298658,
			"0.001": 12.6912448761,
			"0.002": 16.0123869179,
			"0.003": 13.8745577374,
			"0.004": 10.0868523463,
			"0.005": 3.97167515852,
			"0.006": 3.3905719973,
			"0.007": 3.1983987178,
			"0.008": 3.99303381695,
			"0.009": 4.49976423561,
			"0.01": 5.54508939621,
			"0.011": 6.57427887468,
			"0.012": 6.15869344394,
			"0.013": 3.65730840888,
			"0.014": 0.464194646205,
			"0.015": 0.0,
			"0.016": 0.0,
			"0.017": 0.0,
			"0.018": 0.0,
			"0.019": 0.0,
			"0.02": 0.0,
			"0.021": 0.0,
			"0.022": 0.0,
			"0.023": 0.0,
			"0.024": 0.0,
			"0.025": 0.0
		}
	}
}
