{
	 "smiles": "COC1=CC=C(OCCCC(O)=O)C=C1", 
	 "Tm": 376.15, 
	 "num_atms": 29, 
	 "gaussian": { 
		 "optdone": 1, 
		 "sigma_profile": "yes", 
		 "theory": "DFT", 
		 "functional": "B3LYP", 
		 "basiset": "6-31G**", 
		 "properties": { 
			 "R2extent": 5661.3441, 
			 "electric_dipole_moment_norm": 7.5109335698, 
			 "electric_quadrupole_moment_norm": 29.8153874, 
			 "total_energy": -728.49726432, 
			 "HOMO_LUMO_gap": 0.2003, 
			 "cosmo_polarized_energy": -17.15, 
			 "cosmo_cavitation_energy": 32.54, 
			 "cosmo_dispersion_energy": -23.53, 
			 "cosmo_repulsion_energy": 1.84, 
			 "cosmo_total_nonelectrostatic_energy": 10.84, 
			 "SMD_solvation_energy": 7.31 
		},
		"coords": [
			{
				"x": -2.0018254278,
				"y": -2.3703188387,
				"z": -3.361650335,
				"element": "C" 
			},
			{
				"x": -1.4599459701,
				"y": -1.0651148709,
				"z": -3.2499280029,
				"element": "O" 
			},
			{
				"x": -1.0529202258,
				"y": -0.641250795,
				"z": -2.0165878514,
				"element": "C" 
			},
			{
				"x": -1.1275156918,
				"y": -1.3967110898,
				"z": -0.8452970496,
				"element": "C" 
			},
			{
				"x": -0.6794240061,
				"y": -0.8610463628,
				"z": 0.370991581,
				"element": "C" 
			},
			{
				"x": -0.1586261324,
				"y": 0.429274494,
				"z": 0.4128669368,
				"element": "C" 
			},
			{
				"x": 0.3132238066,
				"y": 1.0384359573,
				"z": 1.5610521015,
				"element": "O" 
			},
			{
				"x": 0.1859718772,
				"y": 0.3630767934,
				"z": 2.8149022449,
				"element": "C" 
			},
			{
				"x": 0.6953113891,
				"y": 1.2798712252,
				"z": 3.9212130323,
				"element": "C" 
			},
			{
				"x": -0.094724305,
				"y": 2.5979227766,
				"z": 4.1062953409,
				"element": "C" 
			},
			{
				"x": 0.4549576626,
				"y": 3.8339763929,
				"z": 3.3852035195,
				"element": "C" 
			},
			{
				"x": 0.8229306449,
				"y": 3.6740492374,
				"z": 2.0993556496,
				"element": "O" 
			},
			{
				"x": 0.5449208147,
				"y": 4.9094879918,
				"z": 3.9299217417,
				"element": "O" 
			},
			{
				"x": -0.0827039433,
				"y": 1.1904966757,
				"z": -0.7622820501,
				"element": "C" 
			},
			{
				"x": -0.5250839658,
				"y": 0.6598675245,
				"z": -1.9630687501,
				"element": "C" 
			},
			{
				"x": -2.9081178647,
				"y": -2.4870277462,
				"z": -2.7527106474,
				"element": "H" 
			},
			{
				"x": -2.2584452404,
				"y": -2.5024351312,
				"z": -4.4138191561,
				"element": "H" 
			},
			{
				"x": -1.273639944,
				"y": -3.1385800531,
				"z": -3.0695601604,
				"element": "H" 
			},
			{
				"x": -1.5291029189,
				"y": -2.4028306819,
				"z": -0.8536184329,
				"element": "H" 
			},
			{
				"x": -0.7458920374,
				"y": -1.4695986346,
				"z": 1.2648934186,
				"element": "H" 
			},
			{
				"x": -0.8689994857,
				"y": 0.1048006017,
				"z": 2.9847278496,
				"element": "H" 
			},
			{
				"x": 0.7680109446,
				"y": -0.5677594542,
				"z": 2.7909088879,
				"element": "H" 
			},
			{
				"x": 0.6360356291,
				"y": 0.7021601902,
				"z": 4.8504007838,
				"element": "H" 
			},
			{
				"x": 1.7590407085,
				"y": 1.4881245142,
				"z": 3.7585948576,
				"element": "H" 
			},
			{
				"x": -0.1292230257,
				"y": 2.8740467986,
				"z": 5.1614503385,
				"element": "H" 
			},
			{
				"x": -1.13598195,
				"y": 2.4564140128,
				"z": 3.784504439,
				"element": "H" 
			},
			{
				"x": 0.6564955771,
				"y": 2.7559201031,
				"z": 1.8027749325,
				"element": "H" 
			},
			{
				"x": 0.3236548879,
				"y": 2.1962050607,
				"z": -0.718742482,
				"element": "H" 
			},
			{
				"x": -0.4735818076,
				"y": 1.2373433083,
				"z": -2.8799927378,
				"element": "H" 
			}
		],
		 "valence_orbital": [ 
			{
				"type": "occ",
				"energy": -0.30528,
				"method": "rhf"
			},
			{
				"type": "occ",
				"energy": -0.29192,
				"method": "rhf"
			},
			{
				"type": "occ",
				"energy": -0.26346,
				"method": "rhf"
			},
			{
				"type": "occ",
				"energy": -0.24935,
				"method": "rhf"
			},
			{
				"type": "occ",
				"energy": -0.21526,
				"method": "rhf"
			},
			{
				"type": "unocc",
				"energy": -0.01496,
				"method": "rhf"
			},
			{
				"type": "unocc",
				"energy": 0.01116,
				"method": "rhf"
			},
			{
				"type": "unocc",
				"energy": 0.0265,
				"method": "rhf"
			},
			{
				"type": "unocc",
				"energy": 0.07386,
				"method": "rhf"
			},
			{
				"type": "unocc",
				"energy": 0.07804,
				"method": "rhf"
			}
		],
		"cosmo_sigma_profile": { 
			"-0.025": 0.0,
			"-0.024": 0.0,
			"-0.023": 0.0,
			"-0.022": 0.0,
			"-0.021": 0.0,
			"-0.02": 0.0,
			"-0.019": 0.0,
			"-0.018": 0.0,
			"-0.017": 0.0,
			"-0.016": 0.0,
			"-0.015": 0.0,
			"-0.014": 0.0,
			"-0.013": 0.0,
			"-0.012": 0.0,
			"-0.011": 0.0,
			"-0.01": 0.0,
			"-0.009": 0.0,
			"-0.008": 0.0749261388579,
			"-0.007": 4.47083141219,
			"-0.006": 23.5539562762,
			"-0.005": 36.5066747445,
			"-0.004": 31.0551081674,
			"-0.003": 24.9282285334,
			"-0.002": 16.5087519306,
			"-0.001": 11.4428291627,
			"0.0": 8.82330729242,
			"0.001": 8.83241663354,
			"0.002": 10.2036464101,
			"0.003": 11.8290655161,
			"0.004": 15.0496778873,
			"0.005": 14.6747478205,
			"0.006": 4.96334903327,
			"0.007": 3.27586911415,
			"0.008": 2.79470977656,
			"0.009": 4.6602658157,
			"0.01": 4.71689734897,
			"0.011": 5.47603406759,
			"0.012": 6.36411769882,
			"0.013": 5.12306034789,
			"0.014": 1.83393117152,
			"0.015": 0.0653728458729,
			"0.016": 0.0,
			"0.017": 0.0,
			"0.018": 0.0,
			"0.019": 0.0,
			"0.02": 0.0,
			"0.021": 0.0,
			"0.022": 0.0,
			"0.023": 0.0,
			"0.024": 0.0,
			"0.025": 0.0
		}
	}
}
