{
	 "smiles": "NC(CC1CCCCC1)C(O)=O", 
	 "Tm": 598.15, 
	 "num_atms": 29, 
	 "gaussian": { 
		 "optdone": 1, 
		 "sigma_profile": "yes", 
		 "theory": "DFT", 
		 "functional": "B3LYP", 
		 "basiset": "6-31G**", 
		 "properties": { 
			 "R2extent": 3214.9636, 
			 "electric_dipole_moment_norm": 1.51216369815, 
			 "electric_quadrupole_moment_norm": 9.44609554207, 
			 "total_energy": -558.423374386, 
			 "HOMO_LUMO_gap": 0.24194, 
			 "cosmo_polarized_energy": -10.99, 
			 "cosmo_cavitation_energy": 29.44, 
			 "cosmo_dispersion_energy": -21.01, 
			 "cosmo_repulsion_energy": 1.7, 
			 "cosmo_total_nonelectrostatic_energy": 10.13, 
			 "SMD_solvation_energy": 3.88 
		},
		"coords": [
			{
				"x": -3.2382212421,
				"y": 0.8125156121,
				"z": -2.5387674529,
				"element": "N" 
			},
			{
				"x": -1.8285430536,
				"y": 0.4595245143,
				"z": -2.3551602237,
				"element": "C" 
			},
			{
				"x": -1.5645469049,
				"y": 0.1900162235,
				"z": -0.8576165986,
				"element": "C" 
			},
			{
				"x": -0.1031200869,
				"y": -0.1374866228,
				"z": -0.480698686,
				"element": "C" 
			},
			{
				"x": 0.2333220988,
				"y": -1.6578545606,
				"z": -0.5852627845,
				"element": "C" 
			},
			{
				"x": 0.1902122327,
				"y": -2.3532503359,
				"z": 0.783118133,
				"element": "C" 
			},
			{
				"x": 1.2540723276,
				"y": -1.7773386832,
				"z": 1.7438016735,
				"element": "C" 
			},
			{
				"x": 1.4729538223,
				"y": -0.2604528755,
				"z": 1.518649206,
				"element": "C" 
			},
			{
				"x": 0.2153551886,
				"y": 0.3970186868,
				"z": 0.9379390713,
				"element": "C" 
			},
			{
				"x": -1.3511228098,
				"y": -0.6912722737,
				"z": -3.2398278105,
				"element": "C" 
			},
			{
				"x": -2.228816449,
				"y": -1.732047535,
				"z": -3.2490423492,
				"element": "O" 
			},
			{
				"x": -0.3200683827,
				"y": -0.7126111931,
				"z": -3.8757256033,
				"element": "O" 
			},
			{
				"x": -3.8174610289,
				"y": -0.0037314018,
				"z": -2.3546748089,
				"element": "H" 
			},
			{
				"x": -3.4125586665,
				"y": 1.0742742729,
				"z": -3.5063580113,
				"element": "H" 
			},
			{
				"x": -1.2186679004,
				"y": 1.3167865283,
				"z": -2.6588544378,
				"element": "H" 
			},
			{
				"x": -1.896077997,
				"y": 1.0981276925,
				"z": -0.3419067589,
				"element": "H" 
			},
			{
				"x": -2.2280521053,
				"y": -0.6169533264,
				"z": -0.5162766446,
				"element": "H" 
			},
			{
				"x": 0.551127191,
				"y": 0.394393528,
				"z": -1.1843124958,
				"element": "H" 
			},
			{
				"x": 1.232834179,
				"y": -1.7849125773,
				"z": -1.018511301,
				"element": "H" 
			},
			{
				"x": -0.4585096296,
				"y": -2.1561748939,
				"z": -1.271791468,
				"element": "H" 
			},
			{
				"x": -0.8101011551,
				"y": -2.2268295801,
				"z": 1.2178137361,
				"element": "H" 
			},
			{
				"x": 0.3317874757,
				"y": -3.4336929385,
				"z": 0.6657471619,
				"element": "H" 
			},
			{
				"x": 0.9449870606,
				"y": -1.9625962293,
				"z": 2.779502927,
				"element": "H" 
			},
			{
				"x": 2.2038942019,
				"y": -2.3082538294,
				"z": 1.6080396366,
				"element": "H" 
			},
			{
				"x": 1.7656339419,
				"y": 0.2255168403,
				"z": 2.456035123,
				"element": "H" 
			},
			{
				"x": 2.305579996,
				"y": -0.1016242337,
				"z": 0.8207652302,
				"element": "H" 
			},
			{
				"x": -0.6353711682,
				"y": 0.2020259922,
				"z": 1.6062286182,
				"element": "H" 
			},
			{
				"x": 0.3256670964,
				"y": 1.487210258,
				"z": 0.8988925856,
				"element": "H" 
			},
			{
				"x": -1.8350882325,
				"y": -2.4088270589,
				"z": -3.8249456676,
				"element": "H" 
			}
		],
		 "valence_orbital": [ 
			{
				"type": "occ",
				"energy": -0.29712,
				"method": "rhf"
			},
			{
				"type": "occ",
				"energy": -0.29347,
				"method": "rhf"
			},
			{
				"type": "occ",
				"energy": -0.29195,
				"method": "rhf"
			},
			{
				"type": "occ",
				"energy": -0.28811,
				"method": "rhf"
			},
			{
				"type": "occ",
				"energy": -0.23721,
				"method": "rhf"
			},
			{
				"type": "unocc",
				"energy": 0.00473,
				"method": "rhf"
			},
			{
				"type": "unocc",
				"energy": 0.06288,
				"method": "rhf"
			},
			{
				"type": "unocc",
				"energy": 0.08284,
				"method": "rhf"
			},
			{
				"type": "unocc",
				"energy": 0.10041,
				"method": "rhf"
			},
			{
				"type": "unocc",
				"energy": 0.10345,
				"method": "rhf"
			}
		],
		"cosmo_sigma_profile": { 
			"-0.025": 0.0,
			"-0.024": 0.0,
			"-0.023": 0.0,
			"-0.022": 0.0,
			"-0.021": 0.0,
			"-0.02": 0.0,
			"-0.019": 0.0,
			"-0.018": 0.391740660911,
			"-0.017": 1.09530762896,
			"-0.016": 0.940832151216,
			"-0.015": 0.547796564003,
			"-0.014": 0.384222570098,
			"-0.013": 0.653865635798,
			"-0.012": 0.98848095794,
			"-0.011": 1.94858140995,
			"-0.01": 2.08796583068,
			"-0.009": 3.44400325863,
			"-0.008": 2.37024442142,
			"-0.007": 4.0985650675,
			"-0.006": 3.51116219644,
			"-0.005": 5.38234988533,
			"-0.004": 5.82911145578,
			"-0.003": 8.60315419672,
			"-0.002": 29.5553544364,
			"-0.001": 38.4830955456,
			"0.0": 35.289074621,
			"0.001": 27.252256944,
			"0.002": 12.1462703708,
			"0.003": 4.37032986414,
			"0.004": 3.6419879045,
			"0.005": 3.98694906009,
			"0.006": 2.87547032294,
			"0.007": 4.06717940303,
			"0.008": 3.08953722507,
			"0.009": 2.05002149627,
			"0.01": 2.87332383261,
			"0.011": 3.44512148281,
			"0.012": 5.49094154934,
			"0.013": 2.00654564221,
			"0.014": 0.493618583147,
			"0.015": 0.383186284863,
			"0.016": 0.835854862157,
			"0.017": 0.548133974972,
			"0.018": 0.453385639825,
			"0.019": 0.108510787855,
			"0.02": 0.0,
			"0.021": 0.0,
			"0.022": 0.0,
			"0.023": 0.0,
			"0.024": 0.0,
			"0.025": 0.0
		}
	}
}
