{
	 "smiles": "ClS(=O)(=O)N1CC2CCC1C2", 
	 "Tm": 321.15, 
	 "num_atms": 21, 
	 "gaussian": { 
		 "optdone": 1, 
		 "sigma_profile": "yes", 
		 "theory": "DFT", 
		 "functional": "B3LYP", 
		 "basiset": "6-31G**", 
		 "properties": { 
			 "R2extent": 2474.5722, 
			 "electric_dipole_moment_norm": 5.96215516152, 
			 "electric_quadrupole_moment_norm": 9.59704815399, 
			 "total_energy": -1298.16864706, 
			 "HOMO_LUMO_gap": 0.20212, 
			 "cosmo_polarized_energy": -9.7, 
			 "cosmo_cavitation_energy": 25.12, 
			 "cosmo_dispersion_energy": -19.46, 
			 "cosmo_repulsion_energy": 1.5, 
			 "cosmo_total_nonelectrostatic_energy": 7.16, 
			 "SMD_solvation_energy": 1.42 
		},
		"coords": [
			{
				"x": 2.366225223,
				"y": 1.4916140159,
				"z": -1.352752742,
				"element": "Cl" 
			},
			{
				"x": 0.3431343228,
				"y": 1.2305715937,
				"z": -2.094151373,
				"element": "S" 
			},
			{
				"x": 0.4962723386,
				"y": 0.6784182607,
				"z": -3.4303573573,
				"element": "O" 
			},
			{
				"x": -0.2918357857,
				"y": 2.5077967356,
				"z": -1.8139176678,
				"element": "O" 
			},
			{
				"x": -0.3327240892,
				"y": 0.0992250942,
				"z": -1.1372213029,
				"element": "N" 
			},
			{
				"x": -0.615862294,
				"y": 0.3687000022,
				"z": 0.302897467,
				"element": "C" 
			},
			{
				"x": -0.637401282,
				"y": -1.07072203,
				"z": 0.858189767,
				"element": "C" 
			},
			{
				"x": 0.8158792988,
				"y": -1.6113047651,
				"z": 0.8900380539,
				"element": "C" 
			},
			{
				"x": 1.1499779008,
				"y": -1.833818499,
				"z": -0.6224446213,
				"element": "C" 
			},
			{
				"x": -0.1469455381,
				"y": -1.3711801707,
				"z": -1.3200327254,
				"element": "C" 
			},
			{
				"x": -1.2326756045,
				"y": -1.8493151683,
				"z": -0.3380825631,
				"element": "C" 
			},
			{
				"x": 0.1658335431,
				"y": 0.9867621397,
				"z": 0.7561799266,
				"element": "H" 
			},
			{
				"x": -1.5746890236,
				"y": 0.8873073943,
				"z": 0.3949477301,
				"element": "H" 
			},
			{
				"x": -1.1731981676,
				"y": -1.1479931217,
				"z": 1.8063995993,
				"element": "H" 
			},
			{
				"x": 0.8617934309,
				"y": -2.5503247264,
				"z": 1.4497042809,
				"element": "H" 
			},
			{
				"x": 1.5037342459,
				"y": -0.9093580037,
				"z": 1.3702785875,
				"element": "H" 
			},
			{
				"x": 1.3297219894,
				"y": -2.8898921319,
				"z": -0.8478943182,
				"element": "H" 
			},
			{
				"x": 2.0233220413,
				"y": -1.2716506403,
				"z": -0.9560834635,
				"element": "H" 
			},
			{
				"x": -0.253693075,
				"y": -1.6331534839,
				"z": -2.3711913615,
				"element": "H" 
			},
			{
				"x": -1.2125418315,
				"y": -2.93366727,
				"z": -0.1979100922,
				"element": "H" 
			},
			{
				"x": -2.2391276434,
				"y": -1.5326152253,
				"z": -0.6238958242,
				"element": "H" 
			}
		],
		 "valence_orbital": [ 
			{
				"type": "occ",
				"energy": -0.33413,
				"method": "rhf"
			},
			{
				"type": "occ",
				"energy": -0.33187,
				"method": "rhf"
			},
			{
				"type": "occ",
				"energy": -0.32159,
				"method": "rhf"
			},
			{
				"type": "occ",
				"energy": -0.30493,
				"method": "rhf"
			},
			{
				"type": "occ",
				"energy": -0.27552,
				"method": "rhf"
			},
			{
				"type": "unocc",
				"energy": -0.0734,
				"method": "rhf"
			},
			{
				"type": "unocc",
				"energy": 0.05382,
				"method": "rhf"
			},
			{
				"type": "unocc",
				"energy": 0.06799,
				"method": "rhf"
			},
			{
				"type": "unocc",
				"energy": 0.0735,
				"method": "rhf"
			},
			{
				"type": "unocc",
				"energy": 0.08393,
				"method": "rhf"
			}
		],
		"cosmo_sigma_profile": { 
			"-0.025": 0.0,
			"-0.024": 0.0,
			"-0.023": 0.0,
			"-0.022": 0.0,
			"-0.021": 0.0,
			"-0.02": 0.0,
			"-0.019": 0.0,
			"-0.018": 0.0,
			"-0.017": 0.0,
			"-0.016": 0.0,
			"-0.015": 0.0,
			"-0.014": 0.0,
			"-0.013": 0.0,
			"-0.012": 0.0,
			"-0.011": 0.0,
			"-0.01": 0.0,
			"-0.009": 0.0,
			"-0.008": 0.0,
			"-0.007": 0.792278691205,
			"-0.006": 6.02563872896,
			"-0.005": 17.2465405627,
			"-0.004": 25.003515953,
			"-0.003": 21.2848893844,
			"-0.002": 20.990791842,
			"-0.001": 19.5097859023,
			"0.0": 15.3480373092,
			"0.001": 9.14981779027,
			"0.002": 9.08633028406,
			"0.003": 8.41103346959,
			"0.004": 9.09804486714,
			"0.005": 10.9175767234,
			"0.006": 3.31226644005,
			"0.007": 3.97618248737,
			"0.008": 11.0773016163,
			"0.009": 8.02545160628,
			"0.01": 0.399148886905,
			"0.011": 0.0,
			"0.012": 0.0,
			"0.013": 0.0,
			"0.014": 0.0,
			"0.015": 0.0,
			"0.016": 0.0,
			"0.017": 0.0,
			"0.018": 0.0,
			"0.019": 0.0,
			"0.02": 0.0,
			"0.021": 0.0,
			"0.022": 0.0,
			"0.023": 0.0,
			"0.024": 0.0,
			"0.025": 0.0
		}
	}
}
