{
	 "smiles": "C(N(CC1=CC=CC=C1)C1=CC=CC=C1)C1=NCCN1", 
	 "Tm": 393.15, 
	 "num_atms": 39, 
	 "gaussian": { 
		 "optdone": 1, 
		 "sigma_profile": "yes", 
		 "theory": "DFT", 
		 "functional": "B3LYP", 
		 "basiset": "6-31G**", 
		 "properties": { 
			 "R2extent": 6476.3418, 
			 "electric_dipole_moment_norm": 2.17542836931, 
			 "electric_quadrupole_moment_norm": 9.24700413918, 
			 "total_energy": -823.496541294, 
			 "HOMO_LUMO_gap": 0.18757, 
			 "cosmo_polarized_energy": -12.85, 
			 "cosmo_cavitation_energy": 40.68, 
			 "cosmo_dispersion_energy": -27.56, 
			 "cosmo_repulsion_energy": 2.11, 
			 "cosmo_total_nonelectrostatic_energy": 15.23, 
			 "SMD_solvation_energy": 1.71 
		},
		"coords": [
			{
				"x": 0.3075844483,
				"y": 0.4776077331,
				"z": -0.7314752515,
				"element": "C" 
			},
			{
				"x": -1.086881603,
				"y": 0.0179495865,
				"z": -0.8091541548,
				"element": "N" 
			},
			{
				"x": -2.0558583624,
				"y": 1.060235551,
				"z": -1.1596240202,
				"element": "C" 
			},
			{
				"x": -2.1273917383,
				"y": 2.1742553928,
				"z": -0.1299350442,
				"element": "C" 
			},
			{
				"x": -2.7063744219,
				"y": 1.9329387197,
				"z": 1.1248666133,
				"element": "C" 
			},
			{
				"x": -2.7918812978,
				"y": 2.9470796475,
				"z": 2.0776255622,
				"element": "C" 
			},
			{
				"x": -2.3006588429,
				"y": 4.2236406897,
				"z": 1.7864086705,
				"element": "C" 
			},
			{
				"x": -1.7289390632,
				"y": 4.4758732764,
				"z": 0.5400063612,
				"element": "C" 
			},
			{
				"x": -1.6447270543,
				"y": 3.4557078526,
				"z": -0.4109680753,
				"element": "C" 
			},
			{
				"x": -1.3093288111,
				"y": -1.3038016367,
				"z": -1.2638562762,
				"element": "C" 
			},
			{
				"x": -2.2718034831,
				"y": -1.6257795701,
				"z": -2.2378150597,
				"element": "C" 
			},
			{
				"x": -2.4739777465,
				"y": -2.9518156801,
				"z": -2.6264345321,
				"element": "C" 
			},
			{
				"x": -1.7168398866,
				"y": -3.9838025786,
				"z": -2.075298159,
				"element": "C" 
			},
			{
				"x": -0.7519653658,
				"y": -3.6712399735,
				"z": -1.1139908794,
				"element": "C" 
			},
			{
				"x": -0.5541313479,
				"y": -2.3558545609,
				"z": -0.7049437515,
				"element": "C" 
			},
			{
				"x": 0.7737561405,
				"y": 0.851845124,
				"z": 0.6544206732,
				"element": "C" 
			},
			{
				"x": 1.660651764,
				"y": 1.7494132371,
				"z": 0.8805958092,
				"element": "N" 
			},
			{
				"x": 1.9045904397,
				"y": 1.7172135962,
				"z": 2.3345460655,
				"element": "C" 
			},
			{
				"x": 0.7439416941,
				"y": 0.8771283197,
				"z": 2.9357470901,
				"element": "C" 
			},
			{
				"x": 0.3117820942,
				"y": 0.1216741149,
				"z": 1.7490460706,
				"element": "N" 
			},
			{
				"x": 0.4685470455,
				"y": 1.3470974524,
				"z": -1.3796784761,
				"element": "H" 
			},
			{
				"x": 0.9575816991,
				"y": -0.3191101839,
				"z": -1.1064692073,
				"element": "H" 
			},
			{
				"x": -1.8421528218,
				"y": 1.494242045,
				"z": -2.1513338638,
				"element": "H" 
			},
			{
				"x": -3.0389244248,
				"y": 0.5867358364,
				"z": -1.2196899448,
				"element": "H" 
			},
			{
				"x": -3.1012218553,
				"y": 0.9441775723,
				"z": 1.3478951176,
				"element": "H" 
			},
			{
				"x": -3.251378683,
				"y": 2.7473204459,
				"z": 3.0417741697,
				"element": "H" 
			},
			{
				"x": -2.3687959259,
				"y": 5.0157581895,
				"z": 2.5265181944,
				"element": "H" 
			},
			{
				"x": -1.3448834023,
				"y": 5.4644805811,
				"z": 0.3059632887,
				"element": "H" 
			},
			{
				"x": -1.1964812798,
				"y": 3.6579619984,
				"z": -1.3804705186,
				"element": "H" 
			},
			{
				"x": -2.8520478303,
				"y": -0.8465835557,
				"z": -2.7185925041,
				"element": "H" 
			},
			{
				"x": -3.2228850287,
				"y": -3.1701530186,
				"z": -3.3830626156,
				"element": "H" 
			},
			{
				"x": -1.8749396774,
				"y": -5.0119363788,
				"z": -2.3858160802,
				"element": "H" 
			},
			{
				"x": -0.1571276607,
				"y": -4.460593991,
				"z": -0.6623826088,
				"element": "H" 
			},
			{
				"x": 0.1670221554,
				"y": -2.1353619228,
				"z": 0.0763642873,
				"element": "H" 
			},
			{
				"x": 1.952376902,
				"y": 2.730660126,
				"z": 2.7448701574,
				"element": "H" 
			},
			{
				"x": 2.8764532008,
				"y": 1.2411538509,
				"z": 2.5260146031,
				"element": "H" 
			},
			{
				"x": -0.0649709764,
				"y": 1.5207317173,
				"z": 3.3096514361,
				"element": "H" 
			},
			{
				"x": 1.0630553153,
				"y": 0.2119843084,
				"z": 3.7432716162,
				"element": "H" 
			},
			{
				"x": -0.6585743075,
				"y": -0.1640339138,
				"z": 1.6923052368,
				"element": "H" 
			}
		],
		 "valence_orbital": [ 
			{
				"type": "occ",
				"energy": -0.25004,
				"method": "rhf"
			},
			{
				"type": "occ",
				"energy": -0.24853,
				"method": "rhf"
			},
			{
				"type": "occ",
				"energy": -0.24547,
				"method": "rhf"
			},
			{
				"type": "occ",
				"energy": -0.21067,
				"method": "rhf"
			},
			{
				"type": "occ",
				"energy": -0.20042,
				"method": "rhf"
			},
			{
				"type": "unocc",
				"energy": -0.01285,
				"method": "rhf"
			},
			{
				"type": "unocc",
				"energy": -0.00589,
				"method": "rhf"
			},
			{
				"type": "unocc",
				"energy": 0.00191,
				"method": "rhf"
			},
			{
				"type": "unocc",
				"energy": 0.01279,
				"method": "rhf"
			},
			{
				"type": "unocc",
				"energy": 0.03797,
				"method": "rhf"
			}
		],
		"cosmo_sigma_profile": { 
			"-0.025": 0.0,
			"-0.024": 0.0,
			"-0.023": 0.0,
			"-0.022": 0.0,
			"-0.021": 0.0,
			"-0.02": 0.0,
			"-0.019": 0.0,
			"-0.018": 0.0,
			"-0.017": 0.0,
			"-0.016": 0.0,
			"-0.015": 0.0,
			"-0.014": 0.0,
			"-0.013": 0.0,
			"-0.012": 0.0,
			"-0.011": 0.0,
			"-0.01": 0.544692649579,
			"-0.009": 0.785706383792,
			"-0.008": 0.654763785365,
			"-0.007": 0.929458667692,
			"-0.006": 10.9108403357,
			"-0.005": 27.9338481254,
			"-0.004": 35.9425504286,
			"-0.003": 41.0628568136,
			"-0.002": 32.2314281076,
			"-0.001": 28.1356829788,
			"0.0": 19.2497416981,
			"0.001": 17.3004069974,
			"0.002": 17.7328208273,
			"0.003": 15.8198736795,
			"0.004": 17.2711602489,
			"0.005": 16.4096757215,
			"0.006": 15.1611002598,
			"0.007": 8.40752044716,
			"0.008": 3.51151229946,
			"0.009": 2.1694685604,
			"0.01": 1.63019131878,
			"0.011": 1.48105853639,
			"0.012": 0.668561648665,
			"0.013": 0.928265563073,
			"0.014": 1.28083453449,
			"0.015": 0.819222738638,
			"0.016": 0.755808055149,
			"0.017": 1.09778659558,
			"0.018": 0.857648275651,
			"0.019": 0.595618385903,
			"0.02": 0.00303140492609,
			"0.021": 0.0,
			"0.022": 0.0,
			"0.023": 0.0,
			"0.024": 0.0,
			"0.025": 0.0
		}
	}
}
