{
	 "smiles": "IC1=CC=C(NC(=S)C(=O)C2=CC=CC=C2)C=C1", 
	 "Tm": 412.15, 
	 "num_atms": 28, 
	 "gaussian": { 
		 "optdone": 1, 
		 "sigma_profile": "no", 
		 "theory": "DFT", 
		 "functional": "B3LYP", 
		 "basiset": "6-31G**", 
		 "properties": { 
			 "R2extent": 8248.0081, 
			 "electric_dipole_moment_norm": 2.5622196393, 
			 "electric_quadrupole_moment_norm": 13.1138369317, 
			 "total_energy": -1079.06508372, 
			 "HOMO_LUMO_gap": 0.11822, 
			 "cosmo_polarized_energy": -104010.88, 
			 "cosmo_cavitation_energy": 37.76, 
			 "cosmo_dispersion_energy": -29.28, 
			 "cosmo_repulsion_energy": 2.17, 
			 "cosmo_total_nonelectrostatic_energy": 10.66, 
			 "SMD_solvation_energy": 5.02 
		},
		"coords": [
			{
				"x": 5.3464711735,
				"y": 5.1706333202,
				"z": -2.520316363,
				"element": "I" 
			},
			{
				"x": 3.7781897409,
				"y": 3.8318224788,
				"z": -2.0380825708,
				"element": "C" 
			},
			{
				"x": 3.1433986341,
				"y": 3.9270632105,
				"z": -0.7961760236,
				"element": "C" 
			},
			{
				"x": 2.1160366066,
				"y": 3.0446710596,
				"z": -0.4873351564,
				"element": "C" 
			},
			{
				"x": 1.7054851328,
				"y": 2.0615149294,
				"z": -1.4068788255,
				"element": "C" 
			},
			{
				"x": 0.6645116861,
				"y": 1.2203351679,
				"z": -0.9832934791,
				"element": "N" 
			},
			{
				"x": -0.0212178137,
				"y": 0.2107488902,
				"z": -1.5592105935,
				"element": "C" 
			},
			{
				"x": 0.1105589188,
				"y": -0.3838025859,
				"z": -3.1071873954,
				"element": "S" 
			},
			{
				"x": -1.0935296199,
				"y": -0.2773381233,
				"z": -0.5559986035,
				"element": "C" 
			},
			{
				"x": -1.3655617909,
				"y": 0.4761477493,
				"z": 0.375893086,
				"element": "O" 
			},
			{
				"x": -1.7926981008,
				"y": -1.5798284717,
				"z": -0.6980595116,
				"element": "C" 
			},
			{
				"x": -3.0856073142,
				"y": -1.6661268736,
				"z": -0.150337392,
				"element": "C" 
			},
			{
				"x": -3.7868926678,
				"y": -2.866465914,
				"z": -0.1834308795,
				"element": "C" 
			},
			{
				"x": -3.1926053935,
				"y": -4.0055528099,
				"z": -0.7346064091,
				"element": "C" 
			},
			{
				"x": -1.8977142421,
				"y": -3.937067851,
				"z": -1.2520037728,
				"element": "C" 
			},
			{
				"x": -1.1997357063,
				"y": -2.7306697786,
				"z": -1.2442610748,
				"element": "C" 
			},
			{
				"x": 2.3495265349,
				"y": 1.9760426736,
				"z": -2.6507875077,
				"element": "C" 
			},
			{
				"x": 3.38306711,
				"y": 2.8614047697,
				"z": -2.9583273129,
				"element": "C" 
			},
			{
				"x": 3.4440770646,
				"y": 4.6783723646,
				"z": -0.0750728978,
				"element": "H" 
			},
			{
				"x": 1.6248508907,
				"y": 3.1168905771,
				"z": 0.479915661,
				"element": "H" 
			},
			{
				"x": 0.2675409516,
				"y": 1.4470993492,
				"z": -0.0694012393,
				"element": "H" 
			},
			{
				"x": -3.5241382008,
				"y": -0.7781702099,
				"z": 0.2920347049,
				"element": "H" 
			},
			{
				"x": -4.7917043,
				"y": -2.9180528501,
				"z": 0.2248845965,
				"element": "H" 
			},
			{
				"x": -3.7363738447,
				"y": -4.9457398659,
				"z": -0.7553510215,
				"element": "H" 
			},
			{
				"x": -1.4291042947,
				"y": -4.8244498177,
				"z": -1.6664402072,
				"element": "H" 
			},
			{
				"x": -0.196600121,
				"y": -2.6850885311,
				"z": -1.6470924392,
				"element": "H" 
			},
			{
				"x": 2.0401112636,
				"y": 1.2292650096,
				"z": -3.3680098914,
				"element": "H" 
			},
			{
				"x": 3.8727577021,
				"y": 2.786142133,
				"z": -3.9226674807,
				"element": "H" 
			}
		],
		 "valence_orbital": [ 
			{
				"type": "occ",
				"energy": -0.27007,
				"method": "rhf"
			},
			{
				"type": "occ",
				"energy": -0.26658,
				"method": "rhf"
			},
			{
				"type": "occ",
				"energy": -0.26322,
				"method": "rhf"
			},
			{
				"type": "occ",
				"energy": -0.22666,
				"method": "rhf"
			},
			{
				"type": "occ",
				"energy": -0.22021,
				"method": "rhf"
			},
			{
				"type": "unocc",
				"energy": -0.10199,
				"method": "rhf"
			},
			{
				"type": "unocc",
				"energy": -0.04422,
				"method": "rhf"
			},
			{
				"type": "unocc",
				"energy": -0.04226,
				"method": "rhf"
			},
			{
				"type": "unocc",
				"energy": -0.02382,
				"method": "rhf"
			},
			{
				"type": "unocc",
				"energy": -0.01271,
				"method": "rhf"
			}
		],
		"cosmo_sigma_profile": { 
			"0.0": 0.0,
			"0.0": 0.0,
			"0.0": 0.0,
			"0.0": 0.0,
			"0.0": 0.0,
			"0.0": 0.0,
			"0.0": 0.0,
			"0.0": 0.0,
			"0.0": 0.0,
			"0.0": 0.0,
			"0.0": 0.0,
			"0.0": 0.0,
			"0.0": 0.0,
			"0.0": 0.0,
			"0.0": 0.0,
			"0.0": 0.0,
			"0.0": 0.0,
			"0.0": 0.0,
			"0.0": 0.0,
			"0.0": 0.0,
			"0.0": 0.0,
			"0.0": 0.0,
			"0.0": 0.0,
			"0.0": 0.0,
			"0.0": 0.0,
			"0.0": 0.0,
			"0.0": 0.0,
			"0.0": 0.0,
			"0.0": 0.0,
			"0.0": 0.0,
			"0.0": 0.0,
			"0.0": 0.0,
			"0.0": 0.0,
			"0.0": 0.0,
			"0.0": 0.0,
			"0.0": 0.0,
			"0.0": 0.0,
			"0.0": 0.0,
			"0.0": 0.0,
			"0.0": 0.0,
			"0.0": 0.0,
			"0.0": 0.0,
			"0.0": 0.0,
			"0.0": 0.0,
			"0.0": 0.0,
			"0.0": 0.0,
			"0.0": 0.0,
			"0.0": 0.0,
			"0.0": 0.0,
			"0.0": 0.0,
			"0.0": 0.0
		}
	}
}
