{
	 "smiles": "ClC1=CC(Cl)=C(C=C1)S(=O)(=O)CC#N", 
	 "Tm": 393.15, 
	 "num_atms": 19, 
	 "gaussian": { 
		 "optdone": 1, 
		 "sigma_profile": "yes", 
		 "theory": "DFT", 
		 "functional": "B3LYP", 
		 "basiset": "6-31G**", 
		 "properties": { 
			 "R2extent": 5317.7971, 
			 "electric_dipole_moment_norm": 6.63781302915, 
			 "electric_quadrupole_moment_norm": 26.9883923176, 
			 "total_energy": -1831.52835776, 
			 "HOMO_LUMO_gap": 0.21112, 
			 "cosmo_polarized_energy": -18.43, 
			 "cosmo_cavitation_energy": 29.76, 
			 "cosmo_dispersion_energy": -21.54, 
			 "cosmo_repulsion_energy": 1.65, 
			 "cosmo_total_nonelectrostatic_energy": 9.87, 
			 "SMD_solvation_energy": 5.47 
		},
		"coords": [
			{
				"x": 0.7683189258,
				"y": 2.5653083667,
				"z": -2.250486496,
				"element": "Cl" 
			},
			{
				"x": 0.0485562892,
				"y": 1.3402292949,
				"z": -1.2352363829,
				"element": "C" 
			},
			{
				"x": 0.1148197423,
				"y": 1.4878824004,
				"z": 0.1503444189,
				"element": "C" 
			},
			{
				"x": -0.4552734859,
				"y": 0.5123600467,
				"z": 0.9679434037,
				"element": "C" 
			},
			{
				"x": -0.3464214782,
				"y": 0.7548399269,
				"z": 2.6968208817,
				"element": "Cl" 
			},
			{
				"x": -1.095627975,
				"y": -0.5997818833,
				"z": 0.3991561647,
				"element": "C" 
			},
			{
				"x": -1.149702139,
				"y": -0.7229178725,
				"z": -0.9934200964,
				"element": "C" 
			},
			{
				"x": -0.5794528123,
				"y": 0.2403832923,
				"z": -1.8196055817,
				"element": "C" 
			},
			{
				"x": -1.8123469142,
				"y": -1.9729932048,
				"z": 1.3420366319,
				"element": "S" 
			},
			{
				"x": -2.3577407961,
				"y": -2.9139310506,
				"z": 0.3582813192,
				"element": "O" 
			},
			{
				"x": -0.8736120606,
				"y": -2.4079839933,
				"z": 2.3751266923,
				"element": "O" 
			},
			{
				"x": -3.2601578875,
				"y": -1.1623956429,
				"z": 2.167352128,
				"element": "C" 
			},
			{
				"x": -4.0051011277,
				"y": -2.121440927,
				"z": 2.9670540122,
				"element": "C" 
			},
			{
				"x": -4.6059901719,
				"y": -2.8791288421,
				"z": 3.6077691873,
				"element": "N" 
			},
			{
				"x": 0.6054993947,
				"y": 2.3465331433,
				"z": 0.5917512258,
				"element": "H" 
			},
			{
				"x": -1.6402283983,
				"y": -1.5931613415,
				"z": -1.4153432581,
				"element": "H" 
			},
			{
				"x": -0.6197540099,
				"y": 0.1405003636,
				"z": -2.8978259569,
				"element": "H" 
			},
			{
				"x": -2.8727717262,
				"y": -0.3539953962,
				"z": 2.7924474588,
				"element": "H" 
			},
			{
				"x": -3.8871133693,
				"y": -0.7536066807,
				"z": 1.3700342476,
				"element": "H" 
			}
		],
		 "valence_orbital": [ 
			{
				"type": "occ",
				"energy": -0.33892,
				"method": "rhf"
			},
			{
				"type": "occ",
				"energy": -0.32315,
				"method": "rhf"
			},
			{
				"type": "occ",
				"energy": -0.31608,
				"method": "rhf"
			},
			{
				"type": "occ",
				"energy": -0.29691,
				"method": "rhf"
			},
			{
				"type": "occ",
				"energy": -0.2888,
				"method": "rhf"
			},
			{
				"type": "unocc",
				"energy": -0.07768,
				"method": "rhf"
			},
			{
				"type": "unocc",
				"energy": -0.05911,
				"method": "rhf"
			},
			{
				"type": "unocc",
				"energy": -0.03154,
				"method": "rhf"
			},
			{
				"type": "unocc",
				"energy": -0.0124,
				"method": "rhf"
			},
			{
				"type": "unocc",
				"energy": 0.01644,
				"method": "rhf"
			}
		],
		"cosmo_sigma_profile": { 
			"-0.025": 0.0,
			"-0.024": 0.0,
			"-0.023": 0.0,
			"-0.022": 0.0,
			"-0.021": 0.0,
			"-0.02": 0.0,
			"-0.019": 0.0,
			"-0.018": 0.0,
			"-0.017": 0.0,
			"-0.016": 0.0,
			"-0.015": 0.0,
			"-0.014": 0.0,
			"-0.013": 1.3285589605,
			"-0.012": 2.9578417865,
			"-0.011": 3.45025361516,
			"-0.01": 4.49357367173,
			"-0.009": 8.47593492416,
			"-0.008": 9.03444823486,
			"-0.007": 7.19030493891,
			"-0.006": 6.35801037761,
			"-0.005": 7.45025876724,
			"-0.004": 10.4695282143,
			"-0.003": 13.2331833381,
			"-0.002": 21.2212530367,
			"-0.001": 24.6007349783,
			"0.0": 18.1740882765,
			"0.001": 13.537996971,
			"0.002": 16.3803063944,
			"0.003": 17.0580505599,
			"0.004": 8.19214720778,
			"0.005": 5.40049528065,
			"0.006": 6.45057820883,
			"0.007": 6.17733165333,
			"0.008": 7.47510988118,
			"0.009": 11.6503152737,
			"0.01": 10.3132311442,
			"0.011": 3.33778155988,
			"0.012": 1.05090000756,
			"0.013": 0.0,
			"0.014": 0.0,
			"0.015": 0.0,
			"0.016": 0.0,
			"0.017": 0.0,
			"0.018": 0.0,
			"0.019": 0.0,
			"0.02": 0.0,
			"0.021": 0.0,
			"0.022": 0.0,
			"0.023": 0.0,
			"0.024": 0.0,
			"0.025": 0.0
		}
	}
}
