{
	 "smiles": "NC1=C(C(O)=O)C2=C(CSCC2)S1", 
	 "Tm": 443.15, 
	 "num_atms": 22, 
	 "gaussian": { 
		 "optdone": 1, 
		 "sigma_profile": "yes", 
		 "theory": "DFT", 
		 "functional": "B3LYP", 
		 "basiset": "6-31G**", 
		 "properties": { 
			 "R2extent": 3591.3326, 
			 "electric_dipole_moment_norm": 1.92102299049, 
			 "electric_quadrupole_moment_norm": 11.7630795878, 
			 "total_energy": -1311.86909464, 
			 "HOMO_LUMO_gap": 0.17574, 
			 "cosmo_polarized_energy": -12.76, 
			 "cosmo_cavitation_energy": 27.49, 
			 "cosmo_dispersion_energy": -22.04, 
			 "cosmo_repulsion_energy": 1.65, 
			 "cosmo_total_nonelectrostatic_energy": 7.09, 
			 "SMD_solvation_energy": 4.24 
		},
		"coords": [
			{
				"x": -1.6858305949,
				"y": -0.3581535134,
				"z": -3.7892791353,
				"element": "N" 
			},
			{
				"x": -0.9880446771,
				"y": -0.4418896306,
				"z": -2.6331936307,
				"element": "C" 
			},
			{
				"x": -0.3337432424,
				"y": 0.5979453556,
				"z": -1.9640072313,
				"element": "C" 
			},
			{
				"x": -0.423930572,
				"y": 1.9389958852,
				"z": -2.511520025,
				"element": "C" 
			},
			{
				"x": 0.2702286895,
				"y": 2.8916333456,
				"z": -1.8351029575,
				"element": "O" 
			},
			{
				"x": -1.0657063891,
				"y": 2.2510928142,
				"z": -3.5172213456,
				"element": "O" 
			},
			{
				"x": 0.3552699815,
				"y": 0.1398340958,
				"z": -0.7641468065,
				"element": "C" 
			},
			{
				"x": 0.228903813,
				"y": -1.2007307025,
				"z": -0.5601191082,
				"element": "C" 
			},
			{
				"x": 0.7793425385,
				"y": -2.0586981827,
				"z": 0.5416862962,
				"element": "C" 
			},
			{
				"x": 2.1893652198,
				"y": -1.2578539898,
				"z": 1.3985326684,
				"element": "S" 
			},
			{
				"x": 1.4305636446,
				"y": 0.4052600122,
				"z": 1.5322018704,
				"element": "C" 
			},
			{
				"x": 1.1346191616,
				"y": 1.0388940847,
				"z": 0.1712484444,
				"element": "C" 
			},
			{
				"x": -0.7551540681,
				"y": -1.9680816414,
				"z": -1.8197970028,
				"element": "S" 
			},
			{
				"x": -2.2888136129,
				"y": -1.1096093126,
				"z": -4.0804150784,
				"element": "H" 
			},
			{
				"x": -1.8392185294,
				"y": 0.5884294922,
				"z": -4.1267680111,
				"element": "H" 
			},
			{
				"x": 0.1068476705,
				"y": 3.7151960757,
				"z": -2.3239519885,
				"element": "H" 
			},
			{
				"x": 0.0062010319,
				"y": -2.3128700057,
				"z": 1.278441182,
				"element": "H" 
			},
			{
				"x": 1.17205962,
				"y": -3.001679276,
				"z": 0.1472350231,
				"element": "H" 
			},
			{
				"x": 2.1423814831,
				"y": 1.0170543037,
				"z": 2.0924275141,
				"element": "H" 
			},
			{
				"x": 0.5177734847,
				"y": 0.3239887398,
				"z": 2.132321919,
				"element": "H" 
			},
			{
				"x": 0.5738999988,
				"y": 1.9646200238,
				"z": 0.3338156106,
				"element": "H" 
			},
			{
				"x": 2.0718853483,
				"y": 1.3391220264,
				"z": -0.3128882074,
				"element": "H" 
			}
		],
		 "valence_orbital": [ 
			{
				"type": "occ",
				"energy": -0.30389,
				"method": "rhf"
			},
			{
				"type": "occ",
				"energy": -0.27651,
				"method": "rhf"
			},
			{
				"type": "occ",
				"energy": -0.25208,
				"method": "rhf"
			},
			{
				"type": "occ",
				"energy": -0.22093,
				"method": "rhf"
			},
			{
				"type": "occ",
				"energy": -0.198,
				"method": "rhf"
			},
			{
				"type": "unocc",
				"energy": -0.02226,
				"method": "rhf"
			},
			{
				"type": "unocc",
				"energy": 0.00351,
				"method": "rhf"
			},
			{
				"type": "unocc",
				"energy": 0.00998,
				"method": "rhf"
			},
			{
				"type": "unocc",
				"energy": 0.03616,
				"method": "rhf"
			},
			{
				"type": "unocc",
				"energy": 0.07396,
				"method": "rhf"
			}
		],
		"cosmo_sigma_profile": { 
			"-0.025": 0.0,
			"-0.024": 0.0,
			"-0.023": 0.0,
			"-0.022": 0.0,
			"-0.021": 0.0,
			"-0.02": 0.0,
			"-0.019": 0.0,
			"-0.018": 0.198147455664,
			"-0.017": 0.71383924105,
			"-0.016": 0.845182568339,
			"-0.015": 1.51826437955,
			"-0.014": 2.65286882182,
			"-0.013": 1.54973207413,
			"-0.012": 1.69314961509,
			"-0.011": 2.39495570972,
			"-0.01": 3.0845882371,
			"-0.009": 2.30253014652,
			"-0.008": 1.27823120732,
			"-0.007": 3.48078978752,
			"-0.006": 9.06456669906,
			"-0.005": 12.5818579563,
			"-0.004": 14.446963234,
			"-0.003": 16.9520529248,
			"-0.002": 11.3961011974,
			"-0.001": 12.6076105654,
			"0.0": 13.046881068,
			"0.001": 14.6104231345,
			"0.002": 17.5839591103,
			"0.003": 18.5074648243,
			"0.004": 14.8897737986,
			"0.005": 10.9574461768,
			"0.006": 8.62131523901,
			"0.007": 6.6202538974,
			"0.008": 3.90141880648,
			"0.009": 3.82193504336,
			"0.01": 3.75911861762,
			"0.011": 2.94230600359,
			"0.012": 2.43586091235,
			"0.013": 1.26714211913,
			"0.014": 0.0,
			"0.015": 0.0,
			"0.016": 0.0,
			"0.017": 0.0,
			"0.018": 0.0,
			"0.019": 0.0,
			"0.02": 0.0,
			"0.021": 0.0,
			"0.022": 0.0,
			"0.023": 0.0,
			"0.024": 0.0,
			"0.025": 0.0
		}
	}
}
