{
	 "smiles": "O=C1C2=CC=CC=C2C(=O)C2=CC=CC=C12", 
	 "Tm": 558.15, 
	 "num_atms": 24, 
	 "gaussian": { 
		 "optdone": 1, 
		 "sigma_profile": "yes", 
		 "theory": "DFT", 
		 "functional": "B3LYP", 
		 "basiset": "6-31G**", 
		 "properties": { 
			 "R2extent": 3381.9199, 
			 "electric_dipole_moment_norm": 0.000374165738677, 
			 "electric_quadrupole_moment_norm": 18.5014865692, 
			 "total_energy": -688.777827057, 
			 "HOMO_LUMO_gap": 0.15431, 
			 "cosmo_polarized_energy": -9.42, 
			 "cosmo_cavitation_energy": 28.41, 
			 "cosmo_dispersion_energy": -21.2, 
			 "cosmo_repulsion_energy": 1.57, 
			 "cosmo_total_nonelectrostatic_energy": 8.78, 
			 "SMD_solvation_energy": 5.42 
		},
		"coords": [
			{
				"x": 0.9912217832,
				"y": -1.3441107149,
				"z": -1.8391143169,
				"element": "O" 
			},
			{
				"x": 0.4258474348,
				"y": -0.5728904904,
				"z": -1.0709185459,
				"element": "C" 
			},
			{
				"x": 0.8530137829,
				"y": 0.8513512297,
				"z": -0.9502149365,
				"element": "C" 
			},
			{
				"x": 1.9205396926,
				"y": 1.3083242161,
				"z": -1.7317344313,
				"element": "C" 
			},
			{
				"x": 2.339071848,
				"y": 2.6331777408,
				"z": -1.6380371216,
				"element": "C" 
			},
			{
				"x": 1.6935239723,
				"y": 3.5135103017,
				"z": -0.7614980236,
				"element": "C" 
			},
			{
				"x": 0.6306015903,
				"y": 3.067386158,
				"z": 0.0197522769,
				"element": "C" 
			},
			{
				"x": 0.2032877209,
				"y": 1.7373850393,
				"z": -0.0680015364,
				"element": "C" 
			},
			{
				"x": -0.937859237,
				"y": 1.2867686558,
				"z": 0.7806677515,
				"element": "C" 
			},
			{
				"x": -1.5036285908,
				"y": 2.0581458037,
				"z": 1.5484150755,
				"element": "O" 
			},
			{
				"x": -1.3652613032,
				"y": -0.1373797809,
				"z": 0.659695466,
				"element": "C" 
			},
			{
				"x": -2.4329900413,
				"y": -0.5942727668,
				"z": 1.4409868391,
				"element": "C" 
			},
			{
				"x": -2.8517211035,
				"y": -1.919046594,
				"z": 1.347063089,
				"element": "C" 
			},
			{
				"x": -2.2061727299,
				"y": -2.7993798494,
				"z": 0.4705226998,
				"element": "C" 
			},
			{
				"x": -1.1430522009,
				"y": -2.35333492,
				"z": -0.310500543,
				"element": "C" 
			},
			{
				"x": -0.7155358799,
				"y": -1.0234131541,
				"z": -0.2225169779,
				"element": "C" 
			},
			{
				"x": 2.4030193851,
				"y": 0.6053517822,
				"z": -2.4025160865,
				"element": "H" 
			},
			{
				"x": 3.1678581265,
				"y": 2.9833965768,
				"z": -2.2463231257,
				"element": "H" 
			},
			{
				"x": 2.0217372771,
				"y": 4.5463383943,
				"z": -0.6901331702,
				"element": "H" 
			},
			{
				"x": 0.1129137375,
				"y": 3.7282354675,
				"z": 0.7069061779,
				"element": "H" 
			},
			{
				"x": -2.9154569928,
				"y": 0.1086959,
				"z": 2.1117819364,
				"element": "H" 
			},
			{
				"x": -3.6806618286,
				"y": -2.2692050499,
				"z": 1.9551727384,
				"element": "H" 
			},
			{
				"x": -2.5345447154,
				"y": -3.8321454034,
				"z": 0.3989855086,
				"element": "H" 
			},
			{
				"x": -0.6253517279,
				"y": -3.0141885421,
				"z": -0.9976407436,
				"element": "H" 
			}
		],
		 "valence_orbital": [ 
			{
				"type": "occ",
				"energy": -0.27008,
				"method": "rhf"
			},
			{
				"type": "occ",
				"energy": -0.26871,
				"method": "rhf"
			},
			{
				"type": "occ",
				"energy": -0.26687,
				"method": "rhf"
			},
			{
				"type": "occ",
				"energy": -0.26584,
				"method": "rhf"
			},
			{
				"type": "occ",
				"energy": -0.25711,
				"method": "rhf"
			},
			{
				"type": "unocc",
				"energy": -0.1028,
				"method": "rhf"
			},
			{
				"type": "unocc",
				"energy": -0.0578,
				"method": "rhf"
			},
			{
				"type": "unocc",
				"energy": -0.02321,
				"method": "rhf"
			},
			{
				"type": "unocc",
				"energy": -0.01211,
				"method": "rhf"
			},
			{
				"type": "unocc",
				"energy": 0.05301,
				"method": "rhf"
			}
		],
		"cosmo_sigma_profile": { 
			"-0.025": 0.0,
			"-0.024": 0.0,
			"-0.023": 0.0,
			"-0.022": 0.0,
			"-0.021": 0.0,
			"-0.02": 0.0,
			"-0.019": 0.0,
			"-0.018": 0.0,
			"-0.017": 0.0,
			"-0.016": 0.0,
			"-0.015": 0.0,
			"-0.014": 0.0,
			"-0.013": 0.0,
			"-0.012": 0.0,
			"-0.011": 0.0,
			"-0.01": 0.0,
			"-0.009": 0.0,
			"-0.008": 0.617613609962,
			"-0.007": 8.92250290035,
			"-0.006": 16.9486167924,
			"-0.005": 18.6219154978,
			"-0.004": 15.8593187869,
			"-0.003": 13.2869057457,
			"-0.002": 15.2914028667,
			"-0.001": 15.8513499458,
			"0.0": 19.3977876228,
			"0.001": 28.404642452,
			"0.002": 30.6252938561,
			"0.003": 10.4030605268,
			"0.004": 4.49162625649,
			"0.005": 4.56855774677,
			"0.006": 2.18530704671,
			"0.007": 2.7192397565,
			"0.008": 3.29436912551,
			"0.009": 3.52729915379,
			"0.01": 5.23521533406,
			"0.011": 7.62760128178,
			"0.012": 2.15856833312,
			"0.013": 0.0,
			"0.014": 0.0,
			"0.015": 0.0,
			"0.016": 0.0,
			"0.017": 0.0,
			"0.018": 0.0,
			"0.019": 0.0,
			"0.02": 0.0,
			"0.021": 0.0,
			"0.022": 0.0,
			"0.023": 0.0,
			"0.024": 0.0,
			"0.025": 0.0
		}
	}
}
