{
	 "smiles": "CCOC1=C(OCC)C=C(CC(O)=O)C(Br)=C1", 
	 "Tm": 401.15, 
	 "num_atms": 32, 
	 "gaussian": { 
		 "optdone": 1, 
		 "sigma_profile": "yes", 
		 "theory": "DFT", 
		 "functional": "B3LYP", 
		 "basiset": "6-31G**", 
		 "properties": { 
			 "R2extent": 8095.0479, 
			 "electric_dipole_moment_norm": 4.51668784288, 
			 "electric_quadrupole_moment_norm": 14.106460007, 
			 "total_energy": -3338.61911728, 
			 "HOMO_LUMO_gap": 0.20493, 
			 "cosmo_polarized_energy": -14.93, 
			 "cosmo_cavitation_energy": 38.35, 
			 "cosmo_dispersion_energy": -26.65, 
			 "cosmo_repulsion_energy": 2.16, 
			 "cosmo_total_nonelectrostatic_energy": 13.85, 
			 "SMD_solvation_energy": 7.31 
		},
		"coords": [
			{
				"x": -4.8265856112,
				"y": 1.8238981689,
				"z": 1.1359949419,
				"element": "C" 
			},
			{
				"x": -3.4676219341,
				"y": 1.2624083197,
				"z": 1.511526076,
				"element": "C" 
			},
			{
				"x": -2.4896362783,
				"y": 1.897402745,
				"z": 0.6661568762,
				"element": "O" 
			},
			{
				"x": -1.1859581855,
				"y": 1.5270923661,
				"z": 0.8627800822,
				"element": "C" 
			},
			{
				"x": -0.7102616278,
				"y": 0.2499901259,
				"z": 0.4874266916,
				"element": "C" 
			},
			{
				"x": -1.6329918677,
				"y": -0.6064828628,
				"z": -0.0350056057,
				"element": "O" 
			},
			{
				"x": -1.1987300706,
				"y": -1.8857421967,
				"z": -0.4996814471,
				"element": "C" 
			},
			{
				"x": -2.4089965678,
				"y": -2.5987552657,
				"z": -1.0763126239,
				"element": "C" 
			},
			{
				"x": 0.6419912397,
				"y": -0.0486584527,
				"z": 0.6640750344,
				"element": "C" 
			},
			{
				"x": 1.5510077012,
				"y": 0.8848252587,
				"z": 1.1881526216,
				"element": "C" 
			},
			{
				"x": 3.0018375866,
				"y": 0.504846804,
				"z": 1.3610325921,
				"element": "C" 
			},
			{
				"x": 3.9866931019,
				"y": 1.1026374449,
				"z": 0.3624787495,
				"element": "C" 
			},
			{
				"x": 3.4187436125,
				"y": 1.3820294653,
				"z": -0.8322240854,
				"element": "O" 
			},
			{
				"x": 5.1649213158,
				"y": 1.2651972105,
				"z": 0.584042894,
				"element": "O" 
			},
			{
				"x": 1.0537711056,
				"y": 2.1419338323,
				"z": 1.5373478591,
				"element": "C" 
			},
			{
				"x": 2.2211445002,
				"y": 3.4869664403,
				"z": 2.2450525469,
				"element": "Br" 
			},
			{
				"x": -0.2955021867,
				"y": 2.4596512741,
				"z": 1.3843041147,
				"element": "C" 
			},
			{
				"x": -5.055642314,
				"y": 1.6049393211,
				"z": 0.0891987778,
				"element": "H" 
			},
			{
				"x": -5.6050677802,
				"y": 1.377670259,
				"z": 1.7629648973,
				"element": "H" 
			},
			{
				"x": -4.8489808974,
				"y": 2.9087813369,
				"z": 1.2734128767,
				"element": "H" 
			},
			{
				"x": -3.2280371772,
				"y": 1.4783888997,
				"z": 2.562404329,
				"element": "H" 
			},
			{
				"x": -3.4348636659,
				"y": 0.1774636988,
				"z": 1.366559641,
				"element": "H" 
			},
			{
				"x": -0.4187805994,
				"y": -1.7566137223,
				"z": -1.2627422056,
				"element": "H" 
			},
			{
				"x": -0.7656689924,
				"y": -2.4590822161,
				"z": 0.3323123564,
				"element": "H" 
			},
			{
				"x": -2.8376196786,
				"y": -2.0232568847,
				"z": -1.9012041677,
				"element": "H" 
			},
			{
				"x": -3.1796063939,
				"y": -2.7340862768,
				"z": -0.3121626838,
				"element": "H" 
			},
			{
				"x": -2.1186720724,
				"y": -3.5842287482,
				"z": -1.4530660653,
				"element": "H" 
			},
			{
				"x": 1.0199089063,
				"y": -1.0242462354,
				"z": 0.3818788769,
				"element": "H" 
			},
			{
				"x": 3.3749979445,
				"y": 0.7788658133,
				"z": 2.3506930899,
				"element": "H" 
			},
			{
				"x": 3.1080422469,
				"y": -0.5832539955,
				"z": 1.2738912131,
				"element": "H" 
			},
			{
				"x": 4.1324198116,
				"y": 1.7367116448,
				"z": -1.3889687137,
				"element": "H" 
			},
			{
				"x": -0.6734551718,
				"y": 3.4377064276,
				"z": 1.6565804598,
				"element": "H" 
			}
		],
		 "valence_orbital": [ 
			{
				"type": "occ",
				"energy": -0.28567,
				"method": "rhf"
			},
			{
				"type": "occ",
				"energy": -0.27821,
				"method": "rhf"
			},
			{
				"type": "occ",
				"energy": -0.27143,
				"method": "rhf"
			},
			{
				"type": "occ",
				"energy": -0.24498,
				"method": "rhf"
			},
			{
				"type": "occ",
				"energy": -0.21569,
				"method": "rhf"
			},
			{
				"type": "unocc",
				"energy": -0.01076,
				"method": "rhf"
			},
			{
				"type": "unocc",
				"energy": -0.00295,
				"method": "rhf"
			},
			{
				"type": "unocc",
				"energy": 0.00575,
				"method": "rhf"
			},
			{
				"type": "unocc",
				"energy": 0.0194,
				"method": "rhf"
			},
			{
				"type": "unocc",
				"energy": 0.07934,
				"method": "rhf"
			}
		],
		"cosmo_sigma_profile": { 
			"-0.025": 0.0,
			"-0.024": 0.0,
			"-0.023": 0.0,
			"-0.022": 0.0,
			"-0.021": 0.0,
			"-0.02": 0.0,
			"-0.019": 0.0,
			"-0.018": 0.753023863951,
			"-0.017": 0.892423996319,
			"-0.016": 1.04415352482,
			"-0.015": 0.594342419125,
			"-0.014": 1.05302158671,
			"-0.013": 0.267524899735,
			"-0.012": 0.54314373727,
			"-0.011": 0.951554532196,
			"-0.01": 1.07945624467,
			"-0.009": 1.1163862301,
			"-0.008": 4.35820049568,
			"-0.007": 5.91504753937,
			"-0.006": 8.37841390636,
			"-0.005": 13.5153979617,
			"-0.004": 25.4287294681,
			"-0.003": 32.1091149737,
			"-0.002": 26.950453268,
			"-0.001": 26.2096298686,
			"0.0": 25.6903262945,
			"0.001": 21.3021532284,
			"0.002": 21.0076725448,
			"0.003": 23.9162974937,
			"0.004": 15.7287555571,
			"0.005": 8.80100795862,
			"0.006": 5.88732480416,
			"0.007": 5.46484773104,
			"0.008": 4.87965182048,
			"0.009": 5.50635616448,
			"0.01": 4.15074480521,
			"0.011": 6.23213507304,
			"0.012": 4.83037962514,
			"0.013": 0.855297522814,
			"0.014": 0.0,
			"0.015": 0.0,
			"0.016": 0.0,
			"0.017": 0.0,
			"0.018": 0.0,
			"0.019": 0.0,
			"0.02": 0.0,
			"0.021": 0.0,
			"0.022": 0.0,
			"0.023": 0.0,
			"0.024": 0.0,
			"0.025": 0.0
		}
	}
}
