{
	 "smiles": "CC1CCC(=O)CC1", 
	 "Tm": 232.35, 
	 "num_atms": 20, 
	 "gaussian": { 
		 "optdone": 1, 
		 "sigma_profile": "yes", 
		 "theory": "DFT", 
		 "functional": "B3LYP", 
		 "basiset": "6-31G**", 
		 "properties": { 
			 "R2extent": 1133.7539, 
			 "electric_dipole_moment_norm": 3.10756140084, 
			 "electric_quadrupole_moment_norm": 10.0855936588, 
			 "total_energy": -349.216686649, 
			 "HOMO_LUMO_gap": 0.22174, 
			 "cosmo_polarized_energy": -6.77, 
			 "cosmo_cavitation_energy": 21.28, 
			 "cosmo_dispersion_energy": -15.83, 
			 "cosmo_repulsion_energy": 1.33, 
			 "cosmo_total_nonelectrostatic_energy": 6.77, 
			 "SMD_solvation_energy": 3.77 
		},
		"coords": [
			{
				"x": 2.2277543035,
				"y": 0.5546116999,
				"z": -0.3386849893,
				"element": "C" 
			},
			{
				"x": 0.7259614566,
				"y": 0.27578335,
				"z": -0.4697552377,
				"element": "C" 
			},
			{
				"x": -0.0771875213,
				"y": 0.9658286565,
				"z": 0.6474830866,
				"element": "C" 
			},
			{
				"x": -1.592446125,
				"y": 0.7055718906,
				"z": 0.5295715319,
				"element": "C" 
			},
			{
				"x": -1.9112241575,
				"y": -0.7794482007,
				"z": 0.41224609,
				"element": "C" 
			},
			{
				"x": -2.7730150911,
				"y": -1.3179181139,
				"z": 1.0810694619,
				"element": "O" 
			},
			{
				"x": -1.0764758776,
				"y": -1.5378689554,
				"z": -0.6117887306,
				"element": "C" 
			},
			{
				"x": 0.4288781616,
				"y": -1.2345861429,
				"z": -0.4718710281,
				"element": "C" 
			},
			{
				"x": 2.4366797508,
				"y": 1.6294768803,
				"z": -0.3648301313,
				"element": "H" 
			},
			{
				"x": 2.792258435,
				"y": 0.0838792521,
				"z": -1.1507253992,
				"element": "H" 
			},
			{
				"x": 2.6181474218,
				"y": 0.1629422133,
				"z": 0.6082798318,
				"element": "H" 
			},
			{
				"x": 0.3841232483,
				"y": 0.6871413283,
				"z": -1.4329508972,
				"element": "H" 
			},
			{
				"x": 0.1116109182,
				"y": 2.0459094776,
				"z": 0.6389594803,
				"element": "H" 
			},
			{
				"x": 0.2781713076,
				"y": 0.5968496257,
				"z": 1.6199637291,
				"element": "H" 
			},
			{
				"x": -1.9696116246,
				"y": 1.1944755907,
				"z": -0.3812430613,
				"element": "H" 
			},
			{
				"x": -2.1484930942,
				"y": 1.1141107682,
				"z": 1.3774980103,
				"element": "H" 
			},
			{
				"x": -1.2931791465,
				"y": -2.6049617538,
				"z": -0.5147070931,
				"element": "H" 
			},
			{
				"x": -1.4141346927,
				"y": -1.2200085264,
				"z": -1.6096988276,
				"element": "H" 
			},
			{
				"x": 0.799644842,
				"y": -1.6706420844,
				"z": 0.4664883806,
				"element": "H" 
			},
			{
				"x": 0.9797374851,
				"y": -1.7285469558,
				"z": -1.2811042072,
				"element": "H" 
			}
		],
		 "valence_orbital": [ 
			{
				"type": "occ",
				"energy": -0.34833,
				"method": "rhf"
			},
			{
				"type": "occ",
				"energy": -0.32599,
				"method": "rhf"
			},
			{
				"type": "occ",
				"energy": -0.32155,
				"method": "rhf"
			},
			{
				"type": "occ",
				"energy": -0.31828,
				"method": "rhf"
			},
			{
				"type": "occ",
				"energy": -0.23391,
				"method": "rhf"
			},
			{
				"type": "unocc",
				"energy": -0.01217,
				"method": "rhf"
			},
			{
				"type": "unocc",
				"energy": 0.08875,
				"method": "rhf"
			},
			{
				"type": "unocc",
				"energy": 0.09998,
				"method": "rhf"
			},
			{
				"type": "unocc",
				"energy": 0.11765,
				"method": "rhf"
			},
			{
				"type": "unocc",
				"energy": 0.12236,
				"method": "rhf"
			}
		],
		"cosmo_sigma_profile": { 
			"-0.025": 0.0,
			"-0.024": 0.0,
			"-0.023": 0.0,
			"-0.022": 0.0,
			"-0.021": 0.0,
			"-0.02": 0.0,
			"-0.019": 0.0,
			"-0.018": 0.0,
			"-0.017": 0.0,
			"-0.016": 0.0,
			"-0.015": 0.0,
			"-0.014": 0.0,
			"-0.013": 0.0,
			"-0.012": 0.0,
			"-0.011": 0.0,
			"-0.01": 0.0,
			"-0.009": 0.0,
			"-0.008": 0.0,
			"-0.007": 0.00386105966372,
			"-0.006": 2.20743321881,
			"-0.005": 6.33558539291,
			"-0.004": 10.8137345156,
			"-0.003": 23.0785591607,
			"-0.002": 32.2370534617,
			"-0.001": 28.5180956613,
			"0.0": 18.5282732785,
			"0.001": 13.5042078109,
			"0.002": 4.48100775909,
			"0.003": 1.66008014838,
			"0.004": 1.63942995395,
			"0.005": 1.15628897738,
			"0.006": 1.79268761917,
			"0.007": 1.79908787437,
			"0.008": 1.22068898349,
			"0.009": 1.4426793107,
			"0.01": 1.68928500246,
			"0.011": 3.13441203396,
			"0.012": 4.46789175389,
			"0.013": 3.44365603376,
			"0.014": 1.10455975221,
			"0.015": 0.0,
			"0.016": 0.0,
			"0.017": 0.0,
			"0.018": 0.0,
			"0.019": 0.0,
			"0.02": 0.0,
			"0.021": 0.0,
			"0.022": 0.0,
			"0.023": 0.0,
			"0.024": 0.0,
			"0.025": 0.0
		}
	}
}
