{
	 "smiles": "CCOC(=O)NC1=CC2=NN(C)N=C2C=C1", 
	 "Tm": 421.15, 
	 "num_atms": 28, 
	 "gaussian": { 
		 "optdone": 1, 
		 "sigma_profile": "yes", 
		 "theory": "DFT", 
		 "functional": "B3LYP", 
		 "basiset": "6-31G**", 
		 "properties": { 
			 "R2extent": 5434.9333, 
			 "electric_dipole_moment_norm": 1.95031930463, 
			 "electric_quadrupole_moment_norm": 14.8841040117, 
			 "total_energy": -757.744572393, 
			 "HOMO_LUMO_gap": 0.16683, 
			 "cosmo_polarized_energy": -13.67, 
			 "cosmo_cavitation_energy": 32.68, 
			 "cosmo_dispersion_energy": -23.97, 
			 "cosmo_repulsion_energy": 1.87, 
			 "cosmo_total_nonelectrostatic_energy": 10.58, 
			 "SMD_solvation_energy": 4.71 
		},
		"coords": [
			{
				"x": -1.2791194586,
				"y": 4.9636735457,
				"z": 2.1894595364,
				"element": "C" 
			},
			{
				"x": -0.7158928676,
				"y": 3.7345469523,
				"z": 2.8851738137,
				"element": "C" 
			},
			{
				"x": -0.2267412492,
				"y": 2.7597026312,
				"z": 1.9312652771,
				"element": "O" 
			},
			{
				"x": 1.0289120561,
				"y": 2.9661508076,
				"z": 1.4780147435,
				"element": "C" 
			},
			{
				"x": 1.7485340948,
				"y": 3.8895718409,
				"z": 1.8155654128,
				"element": "O" 
			},
			{
				"x": 1.4421309406,
				"y": 2.0124878489,
				"z": 0.5724756166,
				"element": "N" 
			},
			{
				"x": 0.8579313738,
				"y": 0.8084016732,
				"z": 0.1155907173,
				"element": "C" 
			},
			{
				"x": 1.7148435223,
				"y": -0.2006898727,
				"z": -0.2929699331,
				"element": "C" 
			},
			{
				"x": 1.1380668205,
				"y": -1.3797017693,
				"z": -0.8088198306,
				"element": "C" 
			},
			{
				"x": 1.7197811307,
				"y": -2.5080774395,
				"z": -1.2776631696,
				"element": "N" 
			},
			{
				"x": 0.6710353153,
				"y": -3.2554145123,
				"z": -1.6163393426,
				"element": "N" 
			},
			{
				"x": 0.8510097458,
				"y": -4.6056344815,
				"z": -2.1229506071,
				"element": "C" 
			},
			{
				"x": -0.5418966318,
				"y": -2.7528856581,
				"z": -1.419313951,
				"element": "N" 
			},
			{
				"x": -0.2751029692,
				"y": -1.5333699386,
				"z": -0.8974167798,
				"element": "C" 
			},
			{
				"x": -1.1355094644,
				"y": -0.4924130493,
				"z": -0.482963301,
				"element": "C" 
			},
			{
				"x": -0.5650867625,
				"y": 0.6595399921,
				"z": 0.0068177387,
				"element": "C" 
			},
			{
				"x": -0.489296739,
				"y": 5.4915444795,
				"z": 1.6500547409,
				"element": "H" 
			},
			{
				"x": -2.0701429259,
				"y": 4.6880362221,
				"z": 1.4854473398,
				"element": "H" 
			},
			{
				"x": -1.7044726735,
				"y": 5.6468886841,
				"z": 2.9322462641,
				"element": "H" 
			},
			{
				"x": -1.4876360126,
				"y": 3.1967607776,
				"z": 3.440881688,
				"element": "H" 
			},
			{
				"x": 0.0991537372,
				"y": 4.0023447292,
				"z": 3.5607641101,
				"element": "H" 
			},
			{
				"x": 2.4148135123,
				"y": 2.1482673879,
				"z": 0.3353579902,
				"element": "H" 
			},
			{
				"x": 2.7925435996,
				"y": -0.0971072427,
				"z": -0.2146946209,
				"element": "H" 
			},
			{
				"x": 1.7179484485,
				"y": -4.6166909348,
				"z": -2.7837144258,
				"element": "H" 
			},
			{
				"x": -0.0520373221,
				"y": -4.8847469591,
				"z": -2.6637221684,
				"element": "H" 
			},
			{
				"x": 1.0164749134,
				"y": -5.3002410876,
				"z": -1.2942817338,
				"element": "H" 
			},
			{
				"x": -2.2125847999,
				"y": -0.5947486916,
				"z": -0.5606947784,
				"element": "H" 
			},
			{
				"x": -1.1927593348,
				"y": 1.4803040649,
				"z": 0.3227296529,
				"element": "H" 
			}
		],
		 "valence_orbital": [ 
			{
				"type": "occ",
				"energy": -0.29483,
				"method": "rhf"
			},
			{
				"type": "occ",
				"energy": -0.29357,
				"method": "rhf"
			},
			{
				"type": "occ",
				"energy": -0.2783,
				"method": "rhf"
			},
			{
				"type": "occ",
				"energy": -0.23938,
				"method": "rhf"
			},
			{
				"type": "occ",
				"energy": -0.21517,
				"method": "rhf"
			},
			{
				"type": "unocc",
				"energy": -0.04834,
				"method": "rhf"
			},
			{
				"type": "unocc",
				"energy": 0.01361,
				"method": "rhf"
			},
			{
				"type": "unocc",
				"energy": 0.03015,
				"method": "rhf"
			},
			{
				"type": "unocc",
				"energy": 0.06502,
				"method": "rhf"
			},
			{
				"type": "unocc",
				"energy": 0.08535,
				"method": "rhf"
			}
		],
		"cosmo_sigma_profile": { 
			"-0.025": 0.0,
			"-0.024": 0.0,
			"-0.023": 0.0,
			"-0.022": 0.0,
			"-0.021": 0.0,
			"-0.02": 0.0,
			"-0.019": 0.0,
			"-0.018": 0.0,
			"-0.017": 0.0,
			"-0.016": 0.0450147756892,
			"-0.015": 0.660944499025,
			"-0.014": 1.10269497924,
			"-0.013": 1.12830095604,
			"-0.012": 1.44028379056,
			"-0.011": 0.790345832517,
			"-0.01": 1.16848407684,
			"-0.009": 1.16454048678,
			"-0.008": 2.32643314511,
			"-0.007": 9.96243526666,
			"-0.006": 11.0319862123,
			"-0.005": 16.4712765323,
			"-0.004": 24.0527467086,
			"-0.003": 20.3697586112,
			"-0.002": 18.9824403277,
			"-0.001": 21.2156852962,
			"0.0": 20.1920775003,
			"0.001": 17.4305454338,
			"0.002": 18.1572920531,
			"0.003": 19.3516191142,
			"0.004": 10.9425125781,
			"0.005": 6.35750313505,
			"0.006": 5.59808300449,
			"0.007": 3.93610773594,
			"0.008": 3.24411170739,
			"0.009": 4.12105418968,
			"0.01": 2.63232441206,
			"0.011": 3.92271037006,
			"0.012": 5.31360684095,
			"0.013": 5.94052750487,
			"0.014": 1.28738633091,
			"0.015": 0.0156007523787,
			"0.016": 0.0,
			"0.017": 0.0,
			"0.018": 0.0,
			"0.019": 0.0,
			"0.02": 0.0,
			"0.021": 0.0,
			"0.022": 0.0,
			"0.023": 0.0,
			"0.024": 0.0,
			"0.025": 0.0
		}
	}
}
