{
	 "smiles": "C[Si](C)(C)NC1=NC=NC2=C1N=CN2[Si](C)(C)C", 
	 "Tm": 359.15, 
	 "num_atms": 39, 
	 "gaussian": { 
		 "optdone": 1, 
		 "sigma_profile": "yes", 
		 "theory": "DFT", 
		 "functional": "B3LYP", 
		 "basiset": "6-31G**", 
		 "properties": { 
			 "R2extent": 8292.4525, 
			 "electric_dipole_moment_norm": 2.34862121467, 
			 "electric_quadrupole_moment_norm": 14.1096622872, 
			 "total_energy": -1284.74566559, 
			 "HOMO_LUMO_gap": 0.19558, 
			 "cosmo_polarized_energy": -11.14, 
			 "cosmo_cavitation_energy": 44.28, 
			 "cosmo_dispersion_energy": -26.44, 
			 "cosmo_repulsion_energy": 2.27, 
			 "cosmo_total_nonelectrostatic_energy": 20.12, 
			 "SMD_solvation_energy": 8.2 
		},
		"coords": [
			{
				"x": 0.0334616059,
				"y": -1.8471452914,
				"z": 5.311252088,
				"element": "C" 
			},
			{
				"x": -1.5038451718,
				"y": -1.6587480539,
				"z": 4.2415669134,
				"element": "Si" 
			},
			{
				"x": -2.373677944,
				"y": -0.024761094,
				"z": 4.5834140131,
				"element": "C" 
			},
			{
				"x": -2.683433842,
				"y": -3.1096476139,
				"z": 4.5088261603,
				"element": "C" 
			},
			{
				"x": -1.081696841,
				"y": -1.7913390116,
				"z": 2.5118951238,
				"element": "N" 
			},
			{
				"x": -0.2511661022,
				"y": -0.9742808859,
				"z": 1.8046804226,
				"element": "C" 
			},
			{
				"x": 0.3431243569,
				"y": 0.0609709728,
				"z": 2.4322355327,
				"element": "N" 
			},
			{
				"x": 1.159273191,
				"y": 0.8599714327,
				"z": 1.7259611535,
				"element": "C" 
			},
			{
				"x": 1.4893922454,
				"y": 0.7834969896,
				"z": 0.4335181515,
				"element": "N" 
			},
			{
				"x": 0.8867789554,
				"y": -0.2534000292,
				"z": -0.170180102,
				"element": "C" 
			},
			{
				"x": 0.0162432788,
				"y": -1.1659817938,
				"z": 0.431924737,
				"element": "C" 
			},
			{
				"x": -0.4217838592,
				"y": -2.1082076865,
				"z": -0.4820729664,
				"element": "N" 
			},
			{
				"x": 0.1765048534,
				"y": -1.758841163,
				"z": -1.5955589574,
				"element": "C" 
			},
			{
				"x": 0.9948331538,
				"y": -0.6380896713,
				"z": -1.499302032,
				"element": "N" 
			},
			{
				"x": 1.9957292375,
				"y": 0.1854660634,
				"z": -2.7637054628,
				"element": "Si" 
			},
			{
				"x": 3.7851980742,
				"y": 0.1249534777,
				"z": -2.1987071646,
				"element": "C" 
			},
			{
				"x": 1.3694794126,
				"y": 1.9483339053,
				"z": -2.9233774276,
				"element": "C" 
			},
			{
				"x": 1.7269429726,
				"y": -0.7996080881,
				"z": -4.3468127266,
				"element": "C" 
			},
			{
				"x": 0.7544681941,
				"y": -1.0588367644,
				"z": 5.0789061129,
				"element": "H" 
			},
			{
				"x": -0.2191726349,
				"y": -1.7794641704,
				"z": 6.3758165612,
				"element": "H" 
			},
			{
				"x": 0.51927464,
				"y": -2.8139927146,
				"z": 5.1421951563,
				"element": "H" 
			},
			{
				"x": -2.6474073933,
				"y": 0.0598598555,
				"z": 5.6415375544,
				"element": "H" 
			},
			{
				"x": -1.7177791722,
				"y": 0.8125887391,
				"z": 4.3306078625,
				"element": "H" 
			},
			{
				"x": -3.2899672093,
				"y": 0.0691039652,
				"z": 3.9909700974,
				"element": "H" 
			},
			{
				"x": -3.5752167152,
				"y": -3.029975787,
				"z": 3.8772228676,
				"element": "H" 
			},
			{
				"x": -2.2019886939,
				"y": -4.0701014318,
				"z": 4.2937112054,
				"element": "H" 
			},
			{
				"x": -3.0229696279,
				"y": -3.1409418153,
				"z": 5.5500508993,
				"element": "H" 
			},
			{
				"x": -1.476838545,
				"y": -2.5368478819,
				"z": 1.9506169229,
				"element": "H" 
			},
			{
				"x": 1.6095478256,
				"y": 1.6776820496,
				"z": 2.2855656749,
				"element": "H" 
			},
			{
				"x": 0.0627804873,
				"y": -2.282466308,
				"z": -2.5354291349,
				"element": "H" 
			},
			{
				"x": 4.143259533,
				"y": -0.9060529363,
				"z": -2.1107011539,
				"element": "H" 
			},
			{
				"x": 3.8826566976,
				"y": 0.6049350754,
				"z": -1.2205283705,
				"element": "H" 
			},
			{
				"x": 4.4379236268,
				"y": 0.6494340218,
				"z": -2.9056281769,
				"element": "H" 
			},
			{
				"x": 0.3269824883,
				"y": 1.9748965098,
				"z": -3.2571875111,
				"element": "H" 
			},
			{
				"x": 1.9692064368,
				"y": 2.5139367036,
				"z": -3.6453857452,
				"element": "H" 
			},
			{
				"x": 1.4309792945,
				"y": 2.4540663459,
				"z": -1.9552985298,
				"element": "H" 
			},
			{
				"x": 2.308623169,
				"y": -0.3510221587,
				"z": -5.1599910068,
				"element": "H" 
			},
			{
				"x": 2.0555043918,
				"y": -1.8394443087,
				"z": -4.2472187614,
				"element": "H" 
			},
			{
				"x": 0.6775756296,
				"y": -0.800499448,
				"z": -4.6597899808,
				"element": "H" 
			}
		],
		 "valence_orbital": [ 
			{
				"type": "occ",
				"energy": -0.27434,
				"method": "rhf"
			},
			{
				"type": "occ",
				"energy": -0.27061,
				"method": "rhf"
			},
			{
				"type": "occ",
				"energy": -0.25568,
				"method": "rhf"
			},
			{
				"type": "occ",
				"energy": -0.24236,
				"method": "rhf"
			},
			{
				"type": "occ",
				"energy": -0.20953,
				"method": "rhf"
			},
			{
				"type": "unocc",
				"energy": -0.01395,
				"method": "rhf"
			},
			{
				"type": "unocc",
				"energy": 0.00936,
				"method": "rhf"
			},
			{
				"type": "unocc",
				"energy": 0.04243,
				"method": "rhf"
			},
			{
				"type": "unocc",
				"energy": 0.06355,
				"method": "rhf"
			},
			{
				"type": "unocc",
				"energy": 0.08015,
				"method": "rhf"
			}
		],
		"cosmo_sigma_profile": { 
			"-0.025": 0.0,
			"-0.024": 0.0,
			"-0.023": 0.0,
			"-0.022": 0.0,
			"-0.021": 0.0,
			"-0.02": 0.0,
			"-0.019": 0.0,
			"-0.018": 0.0,
			"-0.017": 0.0,
			"-0.016": 0.0,
			"-0.015": 0.0,
			"-0.014": 0.0,
			"-0.013": 0.0,
			"-0.012": 0.0858770731888,
			"-0.011": 0.401782876963,
			"-0.01": 0.900474058528,
			"-0.009": 1.00067790896,
			"-0.008": 2.52689503208,
			"-0.007": 3.48055424874,
			"-0.006": 5.77097961393,
			"-0.005": 11.2673836043,
			"-0.004": 28.5650282282,
			"-0.003": 35.7970236621,
			"-0.002": 31.8973263911,
			"-0.001": 34.5482574213,
			"0.0": 45.8416360247,
			"0.001": 47.6346286586,
			"0.002": 28.7142092525,
			"0.003": 16.4186444693,
			"0.004": 10.9935209956,
			"0.005": 7.77561286532,
			"0.006": 5.6852523172,
			"0.007": 5.84888089781,
			"0.008": 3.78749621638,
			"0.009": 3.49681836999,
			"0.01": 2.53639423753,
			"0.011": 2.08497847774,
			"0.012": 1.06192994047,
			"0.013": 1.29129660053,
			"0.014": 0.904611139865,
			"0.015": 0.994982911827,
			"0.016": 0.262874973237,
			"0.017": 0.0,
			"0.018": 0.0,
			"0.019": 0.0,
			"0.02": 0.0,
			"0.021": 0.0,
			"0.022": 0.0,
			"0.023": 0.0,
			"0.024": 0.0,
			"0.025": 0.0
		}
	}
}
