{
	 "smiles": "ClC1=CC=CC(Cl)=N1", 
	 "Tm": 360.15, 
	 "num_atms": 11, 
	 "gaussian": { 
		 "optdone": 1, 
		 "sigma_profile": "yes", 
		 "theory": "DFT", 
		 "functional": "B3LYP", 
		 "basiset": "6-31G**", 
		 "properties": { 
			 "R2extent": 2536.682, 
			 "electric_dipole_moment_norm": 3.85265920761, 
			 "electric_quadrupole_moment_norm": 8.49706878164, 
			 "total_energy": -1167.47184405, 
			 "HOMO_LUMO_gap": 0.21462, 
			 "cosmo_polarized_energy": -6.89, 
			 "cosmo_cavitation_energy": 19.22, 
			 "cosmo_dispersion_energy": -14.82, 
			 "cosmo_repulsion_energy": 1.24, 
			 "cosmo_total_nonelectrostatic_energy": 5.65, 
			 "SMD_solvation_energy": 1.47 
		},
		"coords": [
			{
				"x": -0.8224083879,
				"y": 1.7542520558,
				"z": 1.3907715695,
				"element": "Cl" 
			},
			{
				"x": -0.7494441401,
				"y": 0.0202514453,
				"z": 1.1218020923,
				"element": "C" 
			},
			{
				"x": 0.3999374864,
				"y": -0.5274254159,
				"z": 0.5497596751,
				"element": "C" 
			},
			{
				"x": 0.4129278208,
				"y": -1.9077574599,
				"z": 0.3551370547,
				"element": "C" 
			},
			{
				"x": -0.6919755406,
				"y": -2.6714572169,
				"z": 0.7283849384,
				"element": "C" 
			},
			{
				"x": -1.7727023873,
				"y": -1.9890076185,
				"z": 1.2892305384,
				"element": "C" 
			},
			{
				"x": -3.1924747623,
				"y": -2.8996143652,
				"z": 1.7785825018,
				"element": "Cl" 
			},
			{
				"x": -1.8121030563,
				"y": -0.6804280901,
				"z": 1.4854577629,
				"element": "N" 
			},
			{
				"x": 1.2369036754,
				"y": 0.1016909455,
				"z": 0.2739533316,
				"element": "H" 
			},
			{
				"x": 1.2816250258,
				"y": -2.3869338744,
				"z": -0.0861351914,
				"element": "H" 
			},
			{
				"x": -0.7223857339,
				"y": -3.7454704057,
				"z": 0.5944557267,
				"element": "H" 
			}
		],
		 "valence_orbital": [ 
			{
				"type": "occ",
				"energy": -0.32697,
				"method": "rhf"
			},
			{
				"type": "occ",
				"energy": -0.3214,
				"method": "rhf"
			},
			{
				"type": "occ",
				"energy": -0.30577,
				"method": "rhf"
			},
			{
				"type": "occ",
				"energy": -0.29693,
				"method": "rhf"
			},
			{
				"type": "occ",
				"energy": -0.26449,
				"method": "rhf"
			},
			{
				"type": "unocc",
				"energy": -0.04987,
				"method": "rhf"
			},
			{
				"type": "unocc",
				"energy": -0.03952,
				"method": "rhf"
			},
			{
				"type": "unocc",
				"energy": 0.01218,
				"method": "rhf"
			},
			{
				"type": "unocc",
				"energy": 0.04108,
				"method": "rhf"
			},
			{
				"type": "unocc",
				"energy": 0.09539,
				"method": "rhf"
			}
		],
		"cosmo_sigma_profile": { 
			"-0.025": 0.0,
			"-0.024": 0.0,
			"-0.023": 0.0,
			"-0.022": 0.0,
			"-0.021": 0.0,
			"-0.02": 0.0,
			"-0.019": 0.0,
			"-0.018": 0.0,
			"-0.017": 0.0,
			"-0.016": 0.0,
			"-0.015": 0.0,
			"-0.014": 0.0,
			"-0.013": 0.0,
			"-0.012": 0.0,
			"-0.011": 0.0,
			"-0.01": 0.00889128714447,
			"-0.009": 3.39483146291,
			"-0.008": 7.13705841925,
			"-0.007": 6.56939006894,
			"-0.006": 4.94637731386,
			"-0.005": 4.77752893096,
			"-0.004": 4.43801911367,
			"-0.003": 6.48386395965,
			"-0.002": 11.8591043604,
			"-0.001": 21.3199382445,
			"0.0": 17.5066165066,
			"0.001": 11.901060254,
			"0.002": 10.4569504117,
			"0.003": 14.4749446523,
			"0.004": 18.4994832117,
			"0.005": 5.57481963373,
			"0.006": 2.62937486269,
			"0.007": 2.24092686211,
			"0.008": 1.44452715854,
			"0.009": 1.5498317721,
			"0.01": 0.672328459832,
			"0.011": 1.20341831751,
			"0.012": 0.815770126086,
			"0.013": 0.183144030747,
			"0.014": 0.0,
			"0.015": 0.0,
			"0.016": 0.0,
			"0.017": 0.0,
			"0.018": 0.0,
			"0.019": 0.0,
			"0.02": 0.0,
			"0.021": 0.0,
			"0.022": 0.0,
			"0.023": 0.0,
			"0.024": 0.0,
			"0.025": 0.0
		}
	}
}
