{
	 "smiles": "CC1=C(CC#N)N=CN1", 
	 "Tm": 438.15, 
	 "num_atms": 16, 
	 "gaussian": { 
		 "optdone": 1, 
		 "sigma_profile": "yes", 
		 "theory": "DFT", 
		 "functional": "B3LYP", 
		 "basiset": "6-31G**", 
		 "properties": { 
			 "R2extent": 1767.2694, 
			 "electric_dipole_moment_norm": 5.02062048157, 
			 "electric_quadrupole_moment_norm": 18.2021950443, 
			 "total_energy": -397.095721034, 
			 "HOMO_LUMO_gap": 0.24401, 
			 "cosmo_polarized_energy": -15.81, 
			 "cosmo_cavitation_energy": 20.84, 
			 "cosmo_dispersion_energy": -14.85, 
			 "cosmo_repulsion_energy": 1.24, 
			 "cosmo_total_nonelectrostatic_energy": 7.24, 
			 "SMD_solvation_energy": 3.75 
		},
		"coords": [
			{
				"x": 0.0571007635,
				"y": -3.4601867966,
				"z": 0.1493810873,
				"element": "C" 
			},
			{
				"x": 0.3687832874,
				"y": -2.0242841506,
				"z": -0.125466531,
				"element": "C" 
			},
			{
				"x": -0.40435954,
				"y": -0.8846512484,
				"z": -0.2123395688,
				"element": "C" 
			},
			{
				"x": -1.8933949259,
				"y": -0.7104547936,
				"z": -0.0348033476,
				"element": "C" 
			},
			{
				"x": -2.7048217823,
				"y": -1.7192732778,
				"z": -0.7262922274,
				"element": "C" 
			},
			{
				"x": -3.341486572,
				"y": -2.5317897335,
				"z": -1.2576515338,
				"element": "N" 
			},
			{
				"x": 0.3729653208,
				"y": 0.2246470327,
				"z": -0.473208797,
				"element": "N" 
			},
			{
				"x": 1.6055192991,
				"y": -0.2230005804,
				"z": -0.5456374706,
				"element": "C" 
			},
			{
				"x": 1.6589332869,
				"y": -1.5731162109,
				"z": -0.3424554475,
				"element": "N" 
			},
			{
				"x": 0.5605805275,
				"y": -4.1232142529,
				"z": -0.5638167265,
				"element": "H" 
			},
			{
				"x": -1.0151230404,
				"y": -3.6423704977,
				"z": 0.0585255687,
				"element": "H" 
			},
			{
				"x": 0.3663737403,
				"y": -3.7617144408,
				"z": 1.1581546761,
				"element": "H" 
			},
			{
				"x": -2.1578103204,
				"y": 0.2792269181,
				"z": -0.4211298019,
				"element": "H" 
			},
			{
				"x": -2.1798316311,
				"y": -0.7191943458,
				"z": 1.0257325848,
				"element": "H" 
			},
			{
				"x": 2.4868823583,
				"y": 0.3711084636,
				"z": -0.7440815383,
				"element": "H" 
			},
			{
				"x": 2.4856892283,
				"y": -2.1513320853,
				"z": -0.3686109266,
				"element": "H" 
			}
		],
		 "valence_orbital": [ 
			{
				"type": "occ",
				"energy": -0.32166,
				"method": "rhf"
			},
			{
				"type": "occ",
				"energy": -0.32009,
				"method": "rhf"
			},
			{
				"type": "occ",
				"energy": -0.28528,
				"method": "rhf"
			},
			{
				"type": "occ",
				"energy": -0.27655,
				"method": "rhf"
			},
			{
				"type": "occ",
				"energy": -0.22729,
				"method": "rhf"
			},
			{
				"type": "unocc",
				"energy": 0.01672,
				"method": "rhf"
			},
			{
				"type": "unocc",
				"energy": 0.03675,
				"method": "rhf"
			},
			{
				"type": "unocc",
				"energy": 0.04156,
				"method": "rhf"
			},
			{
				"type": "unocc",
				"energy": 0.06404,
				"method": "rhf"
			},
			{
				"type": "unocc",
				"energy": 0.07015,
				"method": "rhf"
			}
		],
		"cosmo_sigma_profile": { 
			"-0.025": 0.0,
			"-0.024": 0.0,
			"-0.023": 0.0,
			"-0.022": 0.0,
			"-0.021": 0.0,
			"-0.02": 0.0,
			"-0.019": 0.0,
			"-0.018": 0.0,
			"-0.017": 0.183261016255,
			"-0.016": 1.3975527464,
			"-0.015": 1.65117819855,
			"-0.014": 1.36334197001,
			"-0.013": 1.09290081349,
			"-0.012": 0.91168185109,
			"-0.011": 1.6269755685,
			"-0.01": 1.13977019091,
			"-0.009": 3.3292514474,
			"-0.008": 7.42549780836,
			"-0.007": 7.16455856791,
			"-0.006": 7.10419162718,
			"-0.005": 11.6370034177,
			"-0.004": 10.739633671,
			"-0.003": 8.87555329598,
			"-0.002": 9.57034210172,
			"-0.001": 12.2664050643,
			"0.0": 8.61582280539,
			"0.001": 7.40862592196,
			"0.002": 7.90750186758,
			"0.003": 7.75566765027,
			"0.004": 6.93477156293,
			"0.005": 4.32535311377,
			"0.006": 4.56014545956,
			"0.007": 3.71047692438,
			"0.008": 4.36793008763,
			"0.009": 4.52564548652,
			"0.01": 4.7840556659,
			"0.011": 3.40146666855,
			"0.012": 3.33926614135,
			"0.013": 3.47919663724,
			"0.014": 1.31208783159,
			"0.015": 1.04508117113,
			"0.016": 0.793100122935,
			"0.017": 0.972256334718,
			"0.018": 0.212277126869,
			"0.019": 0.0,
			"0.02": 0.0,
			"0.021": 0.0,
			"0.022": 0.0,
			"0.023": 0.0,
			"0.024": 0.0,
			"0.025": 0.0
		}
	}
}
