{
	 "smiles": "CC1=CC(C#N)=C(C)C=C1[N+]([O-])=O", 
	 "Tm": 393.15, 
	 "num_atms": 21, 
	 "gaussian": { 
		 "optdone": 1, 
		 "sigma_profile": "yes", 
		 "theory": "DFT", 
		 "functional": "B3LYP", 
		 "basiset": "6-31G**", 
		 "properties": { 
			 "R2extent": 2860.43, 
			 "electric_dipole_moment_norm": 0.189543899928, 
			 "electric_quadrupole_moment_norm": 25.6151270573, 
			 "total_energy": -607.622695341, 
			 "HOMO_LUMO_gap": 0.16969, 
			 "cosmo_polarized_energy": -11.13, 
			 "cosmo_cavitation_energy": 26.59, 
			 "cosmo_dispersion_energy": -18.7, 
			 "cosmo_repulsion_energy": 1.47, 
			 "cosmo_total_nonelectrostatic_energy": 9.35, 
			 "SMD_solvation_energy": 7.98 
		},
		"coords": [
			{
				"x": 1.8659206063,
				"y": -1.20541703,
				"z": -0.9618513738,
				"element": "C" 
			},
			{
				"x": 0.6425411675,
				"y": -0.3469818668,
				"z": -0.7530894349,
				"element": "C" 
			},
			{
				"x": 0.7716567332,
				"y": 0.841645325,
				"z": -0.0247290093,
				"element": "C" 
			},
			{
				"x": -0.3095743387,
				"y": 1.6994772515,
				"z": 0.2153727635,
				"element": "C" 
			},
			{
				"x": -0.0921021197,
				"y": 2.8945339187,
				"z": 0.9790019062,
				"element": "C" 
			},
			{
				"x": 0.0760401495,
				"y": 3.8650923783,
				"z": 1.597792296,
				"element": "N" 
			},
			{
				"x": -1.5987926408,
				"y": 1.4076215683,
				"z": -0.2835129172,
				"element": "C" 
			},
			{
				"x": -2.7690759805,
				"y": 2.3227402466,
				"z": -0.0324754024,
				"element": "C" 
			},
			{
				"x": -1.7351248231,
				"y": 0.2347869361,
				"z": -1.0195325498,
				"element": "C" 
			},
			{
				"x": -0.6502601802,
				"y": -0.6167629425,
				"z": -1.2413223961,
				"element": "C" 
			},
			{
				"x": -0.9415248072,
				"y": -1.8327847599,
				"z": -2.0285193046,
				"element": "N" 
			},
			{
				"x": -2.0095215992,
				"y": -1.8742344765,
				"z": -2.6378605074,
				"element": "O" 
			},
			{
				"x": -0.1090135047,
				"y": -2.7390164984,
				"z": -2.0264072902,
				"element": "O" 
			},
			{
				"x": 2.0187301131,
				"y": -1.4451745033,
				"z": -2.0166215046,
				"element": "H" 
			},
			{
				"x": 1.7730792588,
				"y": -2.161813682,
				"z": -0.4415188776,
				"element": "H" 
			},
			{
				"x": 2.7489894736,
				"y": -0.6824893017,
				"z": -0.5864051169,
				"element": "H" 
			},
			{
				"x": 1.7462100797,
				"y": 1.1096688203,
				"z": 0.3697129125,
				"element": "H" 
			},
			{
				"x": -3.673609516,
				"y": 1.9390364349,
				"z": -0.508940117,
				"element": "H" 
			},
			{
				"x": -2.5756761789,
				"y": 3.3282433983,
				"z": -0.4211101374,
				"element": "H" 
			},
			{
				"x": -2.9646167291,
				"y": 2.4297874765,
				"z": 1.0399536317,
				"element": "H" 
			},
			{
				"x": -2.6936751635,
				"y": -0.0423586933,
				"z": -1.4400375707,
				"element": "H" 
			}
		],
		 "valence_orbital": [ 
			{
				"type": "occ",
				"energy": -0.32032,
				"method": "rhf"
			},
			{
				"type": "occ",
				"energy": -0.31702,
				"method": "rhf"
			},
			{
				"type": "occ",
				"energy": -0.30236,
				"method": "rhf"
			},
			{
				"type": "occ",
				"energy": -0.28858,
				"method": "rhf"
			},
			{
				"type": "occ",
				"energy": -0.27771,
				"method": "rhf"
			},
			{
				"type": "unocc",
				"energy": -0.10802,
				"method": "rhf"
			},
			{
				"type": "unocc",
				"energy": -0.0418,
				"method": "rhf"
			},
			{
				"type": "unocc",
				"energy": -0.03866,
				"method": "rhf"
			},
			{
				"type": "unocc",
				"energy": 0.02011,
				"method": "rhf"
			},
			{
				"type": "unocc",
				"energy": 0.06102,
				"method": "rhf"
			}
		],
		"cosmo_sigma_profile": { 
			"-0.025": 0.0,
			"-0.024": 0.0,
			"-0.023": 0.0,
			"-0.022": 0.0,
			"-0.021": 0.0,
			"-0.02": 0.0,
			"-0.019": 0.0,
			"-0.018": 0.0,
			"-0.017": 0.0,
			"-0.016": 0.0,
			"-0.015": 0.0,
			"-0.014": 0.0,
			"-0.013": 0.0,
			"-0.012": 0.0,
			"-0.011": 0.0,
			"-0.01": 0.0,
			"-0.009": 1.0994595942,
			"-0.008": 4.10744268822,
			"-0.007": 6.49803265374,
			"-0.006": 10.3027605566,
			"-0.005": 15.6352017625,
			"-0.004": 15.6477873771,
			"-0.003": 21.6276084103,
			"-0.002": 24.821351062,
			"-0.001": 29.172140697,
			"0.0": 16.6824783355,
			"0.001": 4.61270621401,
			"0.002": 4.57706927017,
			"0.003": 4.98341601502,
			"0.004": 5.07566701248,
			"0.005": 5.63067664275,
			"0.006": 6.22828485356,
			"0.007": 10.2958164745,
			"0.008": 9.0124340943,
			"0.009": 7.17224177563,
			"0.01": 5.01117182764,
			"0.011": 2.34776485155,
			"0.012": 2.22347540752,
			"0.013": 0.449716638677,
			"0.014": 0.0,
			"0.015": 0.0,
			"0.016": 0.0,
			"0.017": 0.0,
			"0.018": 0.0,
			"0.019": 0.0,
			"0.02": 0.0,
			"0.021": 0.0,
			"0.022": 0.0,
			"0.023": 0.0,
			"0.024": 0.0,
			"0.025": 0.0
		}
	}
}
