{
	 "smiles": "CC1=NC2=C(C=C(Br)C=C2C)C(Cl)=C1", 
	 "Tm": 408.15, 
	 "num_atms": 23, 
	 "gaussian": { 
		 "optdone": 1, 
		 "sigma_profile": "yes", 
		 "theory": "DFT", 
		 "functional": "B3LYP", 
		 "basiset": "6-31G**", 
		 "properties": { 
			 "R2extent": 5946.9602, 
			 "electric_dipole_moment_norm": 2.20043467297, 
			 "electric_quadrupole_moment_norm": 3.70311081525, 
			 "total_energy": -3510.96859766, 
			 "HOMO_LUMO_gap": 0.16781, 
			 "cosmo_polarized_energy": -5.38, 
			 "cosmo_cavitation_energy": 30.76, 
			 "cosmo_dispersion_energy": -22.97, 
			 "cosmo_repulsion_energy": 1.81, 
			 "cosmo_total_nonelectrostatic_energy": 9.61, 
			 "SMD_solvation_energy": 2.73 
		},
		"coords": [
			{
				"x": -3.4988219454,
				"y": 1.2117430011,
				"z": 0.0689121856,
				"element": "C" 
			},
			{
				"x": -2.1020417014,
				"y": 0.6924382889,
				"z": -0.1625058248,
				"element": "C" 
			},
			{
				"x": -1.957781555,
				"y": -0.3673767262,
				"z": -0.936371443,
				"element": "N" 
			},
			{
				"x": -0.7076576847,
				"y": -0.8583187138,
				"z": -1.163012537,
				"element": "C" 
			},
			{
				"x": 0.4750338853,
				"y": -0.2776096348,
				"z": -0.5984198571,
				"element": "C" 
			},
			{
				"x": 1.7461424269,
				"y": -0.8394620602,
				"z": -0.8756581266,
				"element": "C" 
			},
			{
				"x": 1.8179125133,
				"y": -1.9425054998,
				"z": -1.6898256869,
				"element": "C" 
			},
			{
				"x": 3.5188161185,
				"y": -2.7203006457,
				"z": -2.0801778905,
				"element": "Br" 
			},
			{
				"x": 0.6650112466,
				"y": -2.5301982822,
				"z": -2.2562436569,
				"element": "C" 
			},
			{
				"x": -0.5888575722,
				"y": -2.0095878779,
				"z": -2.0078619134,
				"element": "C" 
			},
			{
				"x": -1.8256573772,
				"y": -2.6262923744,
				"z": -2.6052976287,
				"element": "C" 
			},
			{
				"x": 0.2671774415,
				"y": 0.8626355488,
				"z": 0.2283884339,
				"element": "C" 
			},
			{
				"x": 1.6329944739,
				"y": 1.6670239826,
				"z": 0.9803279853,
				"element": "Cl" 
			},
			{
				"x": -0.9964442015,
				"y": 1.3471766363,
				"z": 0.4487499027,
				"element": "C" 
			},
			{
				"x": -3.7527957746,
				"y": 1.1987915989,
				"z": 1.1351604899,
				"element": "H" 
			},
			{
				"x": -3.5957781136,
				"y": 2.2486564152,
				"z": -0.2730845101,
				"element": "H" 
			},
			{
				"x": -4.2144113738,
				"y": 0.5920878042,
				"z": -0.4728387723,
				"element": "H" 
			},
			{
				"x": 2.6385761057,
				"y": -0.4005326067,
				"z": -0.4491328605,
				"element": "H" 
			},
			{
				"x": 0.7752049413,
				"y": -3.401118956,
				"z": -2.8931210569,
				"element": "H" 
			},
			{
				"x": -2.3660339097,
				"y": -1.9005485239,
				"z": -3.2207592776,
				"element": "H" 
			},
			{
				"x": -2.5217670212,
				"y": -2.9427725275,
				"z": -1.822499804,
				"element": "H" 
			},
			{
				"x": -1.5711569033,
				"y": -3.4918313496,
				"z": -3.2221072033,
				"element": "H" 
			},
			{
				"x": -1.1526640194,
				"y": 2.2157025026,
				"z": 1.0787790521,
				"element": "H" 
			}
		],
		 "valence_orbital": [ 
			{
				"type": "occ",
				"energy": -0.29028,
				"method": "rhf"
			},
			{
				"type": "occ",
				"energy": -0.28972,
				"method": "rhf"
			},
			{
				"type": "occ",
				"energy": -0.26489,
				"method": "rhf"
			},
			{
				"type": "occ",
				"energy": -0.25454,
				"method": "rhf"
			},
			{
				"type": "occ",
				"energy": -0.232,
				"method": "rhf"
			},
			{
				"type": "unocc",
				"energy": -0.06419,
				"method": "rhf"
			},
			{
				"type": "unocc",
				"energy": -0.0316,
				"method": "rhf"
			},
			{
				"type": "unocc",
				"energy": 0.00419,
				"method": "rhf"
			},
			{
				"type": "unocc",
				"energy": 0.01148,
				"method": "rhf"
			},
			{
				"type": "unocc",
				"energy": 0.02162,
				"method": "rhf"
			}
		],
		"cosmo_sigma_profile": { 
			"-0.025": 0.0,
			"-0.024": 0.0,
			"-0.023": 0.0,
			"-0.022": 0.0,
			"-0.021": 0.0,
			"-0.02": 0.0,
			"-0.019": 0.0,
			"-0.018": 0.0,
			"-0.017": 0.0,
			"-0.016": 0.0,
			"-0.015": 0.0,
			"-0.014": 0.0,
			"-0.013": 0.0,
			"-0.012": 0.0,
			"-0.011": 0.0,
			"-0.01": 0.0,
			"-0.009": 0.0417436171386,
			"-0.008": 1.29328558579,
			"-0.007": 3.43568180379,
			"-0.006": 5.6071721804,
			"-0.005": 11.6350360351,
			"-0.004": 17.1541727188,
			"-0.003": 17.5643636009,
			"-0.002": 19.4164776058,
			"-0.001": 28.3987403056,
			"0.0": 37.4810608492,
			"0.001": 31.9795457886,
			"0.002": 26.1734796754,
			"0.003": 18.9877090952,
			"0.004": 17.9369829649,
			"0.005": 6.0995567409,
			"0.006": 1.77562960353,
			"0.007": 1.24433099638,
			"0.008": 1.95642371799,
			"0.009": 0.770108756848,
			"0.01": 1.1252957177,
			"0.011": 0.998946196727,
			"0.012": 0.535522818286,
			"0.013": 0.0,
			"0.014": 0.0,
			"0.015": 0.0,
			"0.016": 0.0,
			"0.017": 0.0,
			"0.018": 0.0,
			"0.019": 0.0,
			"0.02": 0.0,
			"0.021": 0.0,
			"0.022": 0.0,
			"0.023": 0.0,
			"0.024": 0.0,
			"0.025": 0.0
		}
	}
}
