{
	 "smiles": "OC(=O)C=CC(=O)NC1=CC(Cl)=C(F)C=C1", 
	 "Tm": 463.15, 
	 "num_atms": 23, 
	 "gaussian": { 
		 "optdone": 1, 
		 "sigma_profile": "yes", 
		 "theory": "DFT", 
		 "functional": "B3LYP", 
		 "basiset": "6-31G**", 
		 "properties": { 
			 "R2extent": 6461.9457, 
			 "electric_dipole_moment_norm": 7.66957112099, 
			 "electric_quadrupole_moment_norm": 20.8700892411, 
			 "total_energy": -1225.73177905, 
			 "HOMO_LUMO_gap": 0.16782, 
			 "cosmo_polarized_energy": -19.68, 
			 "cosmo_cavitation_energy": 31.19, 
			 "cosmo_dispersion_energy": -22.49, 
			 "cosmo_repulsion_energy": 1.74, 
			 "cosmo_total_nonelectrostatic_energy": 10.44, 
			 "SMD_solvation_energy": 7.54 
		},
		"coords": [
			{
				"x": 3.1914226246,
				"y": -1.0789156751,
				"z": -2.6943576103,
				"element": "O" 
			},
			{
				"x": 3.0766287725,
				"y": 0.2254123658,
				"z": -2.9108338956,
				"element": "C" 
			},
			{
				"x": 3.8251786792,
				"y": 0.8338992987,
				"z": -3.6511506702,
				"element": "O" 
			},
			{
				"x": 1.9777204522,
				"y": 1.0116252771,
				"z": -2.2346423182,
				"element": "C" 
			},
			{
				"x": 1.1160296811,
				"y": 0.7371572513,
				"z": -1.2364320449,
				"element": "C" 
			},
			{
				"x": 0.9420828057,
				"y": -0.5465671446,
				"z": -0.5169935643,
				"element": "C" 
			},
			{
				"x": 1.4324251283,
				"y": -1.6254186614,
				"z": -0.8846084344,
				"element": "O" 
			},
			{
				"x": 0.1332789802,
				"y": -0.5483450773,
				"z": 0.5904158843,
				"element": "N" 
			},
			{
				"x": -0.4306423104,
				"y": 0.5314068303,
				"z": 1.3210893469,
				"element": "C" 
			},
			{
				"x": 0.3527055607,
				"y": 1.6231263409,
				"z": 1.7171146006,
				"element": "C" 
			},
			{
				"x": -0.2215029995,
				"y": 2.6597720473,
				"z": 2.451191776,
				"element": "C" 
			},
			{
				"x": 0.733015188,
				"y": 4.0325147778,
				"z": 2.937704024,
				"element": "Cl" 
			},
			{
				"x": -1.5662078275,
				"y": 2.5836463995,
				"z": 2.82160228,
				"element": "C" 
			},
			{
				"x": -2.1167242617,
				"y": 3.5709329739,
				"z": 3.5381234308,
				"element": "F" 
			},
			{
				"x": -2.3414011761,
				"y": 1.4883476204,
				"z": 2.4570603943,
				"element": "C" 
			},
			{
				"x": -1.7779712312,
				"y": 0.4660277238,
				"z": 1.698750603,
				"element": "C" 
			},
			{
				"x": 2.504089915,
				"y": -1.401354832,
				"z": -2.0482987978,
				"element": "H" 
			},
			{
				"x": 1.9397026703,
				"y": 2.014912417,
				"z": -2.6498656206,
				"element": "H" 
			},
			{
				"x": 0.4483489265,
				"y": 1.5367862621,
				"z": -0.9312924565,
				"element": "H" 
			},
			{
				"x": -0.0265147519,
				"y": -1.4844463361,
				"z": 0.9454235185,
				"element": "H" 
			},
			{
				"x": 1.4070555302,
				"y": 1.6649535135,
				"z": 1.4703265167,
				"element": "H" 
			},
			{
				"x": -3.3818169512,
				"y": 1.4605294923,
				"z": 2.7613628415,
				"element": "H" 
			},
			{
				"x": -2.3830034049,
				"y": -0.3804028654,
				"z": 1.3902101962,
				"element": "H" 
			}
		],
		 "valence_orbital": [ 
			{
				"type": "occ",
				"energy": -0.29801,
				"method": "rhf"
			},
			{
				"type": "occ",
				"energy": -0.29145,
				"method": "rhf"
			},
			{
				"type": "occ",
				"energy": -0.28638,
				"method": "rhf"
			},
			{
				"type": "occ",
				"energy": -0.26372,
				"method": "rhf"
			},
			{
				"type": "occ",
				"energy": -0.2623,
				"method": "rhf"
			},
			{
				"type": "unocc",
				"energy": -0.09448,
				"method": "rhf"
			},
			{
				"type": "unocc",
				"energy": -0.05206,
				"method": "rhf"
			},
			{
				"type": "unocc",
				"energy": -0.04117,
				"method": "rhf"
			},
			{
				"type": "unocc",
				"energy": 0.00014,
				"method": "rhf"
			},
			{
				"type": "unocc",
				"energy": 0.02344,
				"method": "rhf"
			}
		],
		"cosmo_sigma_profile": { 
			"-0.025": 0.0,
			"-0.024": 0.0,
			"-0.023": 0.0,
			"-0.022": 0.0,
			"-0.021": 0.0,
			"-0.02": 0.0,
			"-0.019": 0.0,
			"-0.018": 0.0,
			"-0.017": 0.0,
			"-0.016": 0.578996255896,
			"-0.015": 1.46854555054,
			"-0.014": 0.70248052874,
			"-0.013": 1.08975265908,
			"-0.012": 0.994558947667,
			"-0.011": 1.33358703325,
			"-0.01": 1.14674165224,
			"-0.009": 4.20055879626,
			"-0.008": 10.7071022967,
			"-0.007": 10.4659383465,
			"-0.006": 10.5622246998,
			"-0.005": 11.473478037,
			"-0.004": 12.5362563129,
			"-0.003": 14.137936482,
			"-0.002": 19.2690099214,
			"-0.001": 23.1563221225,
			"0.0": 23.1353321258,
			"0.001": 17.0732272903,
			"0.002": 13.4451971474,
			"0.003": 17.9999467593,
			"0.004": 15.7234086931,
			"0.005": 5.45258994528,
			"0.006": 2.25086822716,
			"0.007": 3.58780755816,
			"0.008": 3.52684105114,
			"0.009": 4.58297682644,
			"0.01": 4.69452018555,
			"0.011": 6.85978173072,
			"0.012": 7.05722404432,
			"0.013": 3.59065797311,
			"0.014": 0.771105569803,
			"0.015": 0.0,
			"0.016": 0.0,
			"0.017": 0.0,
			"0.018": 0.0,
			"0.019": 0.0,
			"0.02": 0.0,
			"0.021": 0.0,
			"0.022": 0.0,
			"0.023": 0.0,
			"0.024": 0.0,
			"0.025": 0.0
		}
	}
}
