{
	 "smiles": "OC(=O)C1CCCN(C1)S(=O)(=O)C1=CC=CC=C1", 
	 "Tm": 395.15, 
	 "num_atms": 33, 
	 "gaussian": { 
		 "optdone": 1, 
		 "sigma_profile": "yes", 
		 "theory": "DFT", 
		 "functional": "B3LYP", 
		 "basiset": "6-31G**", 
		 "properties": { 
			 "R2extent": 5529.4854, 
			 "electric_dipole_moment_norm": 2.21405095244, 
			 "electric_quadrupole_moment_norm": 34.1564678765, 
			 "total_energy": -1220.08736926, 
			 "HOMO_LUMO_gap": 0.21092, 
			 "cosmo_polarized_energy": -22.96, 
			 "cosmo_cavitation_energy": 36.43, 
			 "cosmo_dispersion_energy": -26.01, 
			 "cosmo_repulsion_energy": 1.97, 
			 "cosmo_total_nonelectrostatic_energy": 12.39, 
			 "SMD_solvation_energy": 5.24 
		},
		"coords": [
			{
				"x": 1.2591724881,
				"y": 4.9176044455,
				"z": 1.7573899711,
				"element": "O" 
			},
			{
				"x": 1.4146368965,
				"y": 3.6387229549,
				"z": 1.3238279567,
				"element": "C" 
			},
			{
				"x": 2.4654164004,
				"y": 3.2944655819,
				"z": 0.8386080269,
				"element": "O" 
			},
			{
				"x": 0.220524954,
				"y": 2.7138852873,
				"z": 1.5623347084,
				"element": "C" 
			},
			{
				"x": 0.2467952175,
				"y": 2.1984041215,
				"z": 3.0352318053,
				"element": "C" 
			},
			{
				"x": 1.0760591184,
				"y": 0.9134408318,
				"z": 3.1242923022,
				"element": "C" 
			},
			{
				"x": 0.3975047919,
				"y": -0.2242871075,
				"z": 2.3322652378,
				"element": "C" 
			},
			{
				"x": -0.3624745267,
				"y": 0.3560737039,
				"z": 1.2070989649,
				"element": "N" 
			},
			{
				"x": 0.2529003644,
				"y": 1.5266394986,
				"z": 0.5711658658,
				"element": "C" 
			},
			{
				"x": -1.2674683876,
				"y": -0.6969146775,
				"z": 0.2612744627,
				"element": "S" 
			},
			{
				"x": -2.0259319727,
				"y": 0.1373839415,
				"z": -0.674457507,
				"element": "O" 
			},
			{
				"x": -1.9218007841,
				"y": -1.6142121984,
				"z": 1.1967414164,
				"element": "O" 
			},
			{
				"x": -0.0951133432,
				"y": -1.6619326893,
				"z": -0.702767769,
				"element": "C" 
			},
			{
				"x": 0.3521962395,
				"y": -1.1687080952,
				"z": -1.9320169154,
				"element": "C" 
			},
			{
				"x": 1.2947873693,
				"y": -1.900599295,
				"z": -2.6538458674,
				"element": "C" 
			},
			{
				"x": 1.7799555121,
				"y": -3.1102508828,
				"z": -2.1501712685,
				"element": "C" 
			},
			{
				"x": 1.3178801816,
				"y": -3.5986377755,
				"z": -0.9261000324,
				"element": "C" 
			},
			{
				"x": 0.3749829184,
				"y": -2.8758710125,
				"z": -0.193810198,
				"element": "C" 
			},
			{
				"x": 0.3611127937,
				"y": 5.0510101902,
				"z": 2.0927643906,
				"element": "H" 
			},
			{
				"x": -0.7043301415,
				"y": 3.2845448069,
				"z": 1.4108255849,
				"element": "H" 
			},
			{
				"x": 0.6486079396,
				"y": 2.9689025404,
				"z": 3.7021799717,
				"element": "H" 
			},
			{
				"x": -0.7805412324,
				"y": 1.9975308556,
				"z": 3.3548218,
				"element": "H" 
			},
			{
				"x": 2.0802592621,
				"y": 1.1063516727,
				"z": 2.7313677814,
				"element": "H" 
			},
			{
				"x": 1.1979510628,
				"y": 0.5992072756,
				"z": 4.1654037765,
				"element": "H" 
			},
			{
				"x": -0.3143090569,
				"y": -0.763578648,
				"z": 2.9601284957,
				"element": "H" 
			},
			{
				"x": 1.1551848115,
				"y": -0.9412602905,
				"z": 1.9802250202,
				"element": "H" 
			},
			{
				"x": 1.2927494536,
				"y": 1.3298361993,
				"z": 0.2811746634,
				"element": "H" 
			},
			{
				"x": -0.3161868804,
				"y": 1.7705982433,
				"z": -0.3256035545,
				"element": "H" 
			},
			{
				"x": -0.0542869655,
				"y": -0.2421683005,
				"z": -2.3221770985,
				"element": "H" 
			},
			{
				"x": 1.6442092225,
				"y": -1.5299688378,
				"z": -3.6127294521,
				"element": "H" 
			},
			{
				"x": 2.512368534,
				"y": -3.6771563674,
				"z": -2.7172792983,
				"element": "H" 
			},
			{
				"x": 1.6848498584,
				"y": -4.5463018644,
				"z": -0.5435364762,
				"element": "H" 
			},
			{
				"x": -0.0168620995,
				"y": -3.2520541085,
				"z": 0.7446732348,
				"element": "H" 
			}
		],
		 "valence_orbital": [ 
			{
				"type": "occ",
				"energy": -0.30069,
				"method": "rhf"
			},
			{
				"type": "occ",
				"energy": -0.28181,
				"method": "rhf"
			},
			{
				"type": "occ",
				"energy": -0.27643,
				"method": "rhf"
			},
			{
				"type": "occ",
				"energy": -0.27138,
				"method": "rhf"
			},
			{
				"type": "occ",
				"energy": -0.24925,
				"method": "rhf"
			},
			{
				"type": "unocc",
				"energy": -0.03833,
				"method": "rhf"
			},
			{
				"type": "unocc",
				"energy": -0.02287,
				"method": "rhf"
			},
			{
				"type": "unocc",
				"energy": -0.00246,
				"method": "rhf"
			},
			{
				"type": "unocc",
				"energy": 0.04363,
				"method": "rhf"
			},
			{
				"type": "unocc",
				"energy": 0.05879,
				"method": "rhf"
			}
		],
		"cosmo_sigma_profile": { 
			"-0.025": 0.0,
			"-0.024": 0.0,
			"-0.023": 0.0,
			"-0.022": 0.0,
			"-0.021": 0.0,
			"-0.02": 0.0024425231945,
			"-0.019": 0.693680017209,
			"-0.018": 1.2028568591,
			"-0.017": 0.816607887459,
			"-0.016": 1.25211042759,
			"-0.015": 0.950011469702,
			"-0.014": 0.883726344191,
			"-0.013": 1.02768701507,
			"-0.012": 1.22791125944,
			"-0.011": 1.6175161224,
			"-0.01": 0.892487426785,
			"-0.009": 1.21109742847,
			"-0.008": 1.54935998172,
			"-0.007": 10.7212162363,
			"-0.006": 15.4367595,
			"-0.005": 21.6022630115,
			"-0.004": 28.4483542779,
			"-0.003": 28.6179839802,
			"-0.002": 23.152973644,
			"-0.001": 16.9451661776,
			"0.0": 11.4642037958,
			"0.001": 12.642579133,
			"0.002": 16.2259810843,
			"0.003": 16.6276114101,
			"0.004": 8.16739180308,
			"0.005": 6.6557624285,
			"0.006": 5.44817335783,
			"0.007": 5.58963188064,
			"0.008": 6.09373370417,
			"0.009": 7.60347740782,
			"0.01": 10.2988058032,
			"0.011": 12.9924291088,
			"0.012": 8.36297984241,
			"0.013": 1.28521607957,
			"0.014": 0.00112389382914,
			"0.015": 0.0,
			"0.016": 0.0,
			"0.017": 0.0,
			"0.018": 0.0,
			"0.019": 0.0,
			"0.02": 0.0,
			"0.021": 0.0,
			"0.022": 0.0,
			"0.023": 0.0,
			"0.024": 0.0,
			"0.0": 0.0
		}
	}
}
