{
	 "smiles": "C1NC2=C(CC1N1C=CN=C1)C=CC=C2", 
	 "Tm": 384.15, 
	 "num_atms": 28, 
	 "gaussian": { 
		 "optdone": 1, 
		 "sigma_profile": "yes", 
		 "theory": "DFT", 
		 "functional": "B3LYP", 
		 "basiset": "6-31G**", 
		 "properties": { 
			 "R2extent": 3204.5897, 
			 "electric_dipole_moment_norm": 4.83897865773, 
			 "electric_quadrupole_moment_norm": 16.8571615689, 
			 "total_energy": -629.359771465, 
			 "HOMO_LUMO_gap": 0.19548, 
			 "cosmo_polarized_energy": -15.57, 
			 "cosmo_cavitation_energy": 29.95, 
			 "cosmo_dispersion_energy": -21.82, 
			 "cosmo_repulsion_energy": 1.67, 
			 "cosmo_total_nonelectrostatic_energy": 9.8, 
			 "SMD_solvation_energy": 2.97 
		},
		"coords": [
			{
				"x": 1.3709678599,
				"y": -0.8804333819,
				"z": -0.1390780418,
				"element": "C" 
			},
			{
				"x": 0.9857242646,
				"y": -0.291713597,
				"z": 1.1282766734,
				"element": "N" 
			},
			{
				"x": 0.4193239434,
				"y": 0.9818612164,
				"z": 1.1487518484,
				"element": "C" 
			},
			{
				"x": -0.2137554639,
				"y": 1.4903194767,
				"z": -0.0063197393,
				"element": "C" 
			},
			{
				"x": -0.199926217,
				"y": 0.7027961831,
				"z": -1.3053665343,
				"element": "C" 
			},
			{
				"x": 0.2067777942,
				"y": -0.7747630715,
				"z": -1.1414115526,
				"element": "C" 
			},
			{
				"x": -0.9128320446,
				"y": -1.6428272048,
				"z": -0.7718122351,
				"element": "N" 
			},
			{
				"x": -1.1384226829,
				"y": -2.9086262842,
				"z": -1.2870329849,
				"element": "C" 
			},
			{
				"x": -2.2390387639,
				"y": -3.3902988772,
				"z": -0.6254986254,
				"element": "C" 
			},
			{
				"x": -2.6995596692,
				"y": -2.4667501328,
				"z": 0.28510554,
				"element": "N" 
			},
			{
				"x": -1.8829099437,
				"y": -1.4390227786,
				"z": 0.1767099139,
				"element": "C" 
			},
			{
				"x": -0.8347172024,
				"y": 2.7413749754,
				"z": 0.0615267485,
				"element": "C" 
			},
			{
				"x": -0.8376244115,
				"y": 3.4967092087,
				"z": 1.2329633275,
				"element": "C" 
			},
			{
				"x": -0.2088140947,
				"y": 2.9853676935,
				"z": 2.3715786833,
				"element": "C" 
			},
			{
				"x": 0.4121392032,
				"y": 1.7418150872,
				"z": 2.3320211595,
				"element": "C" 
			},
			{
				"x": 1.6259794303,
				"y": -1.9314813442,
				"z": 0.0231307886,
				"element": "H" 
			},
			{
				"x": 2.2485405226,
				"y": -0.3841977883,
				"z": -0.5899427392,
				"element": "H" 
			},
			{
				"x": 1.5778801022,
				"y": -0.5163009626,
				"z": 1.9144035338,
				"element": "H" 
			},
			{
				"x": 0.5170117711,
				"y": 1.1631590894,
				"z": -1.9982501631,
				"element": "H" 
			},
			{
				"x": -1.1768085174,
				"y": 0.7551242562,
				"z": -1.7977587792,
				"element": "H" 
			},
			{
				"x": 0.5597628788,
				"y": -1.1457770479,
				"z": -2.1080827658,
				"element": "H" 
			},
			{
				"x": -0.514289664,
				"y": -3.3226780125,
				"z": -2.0649798838,
				"element": "H" 
			},
			{
				"x": -2.7297384489,
				"y": -4.3447682279,
				"z": -0.7599947852,
				"element": "H" 
			},
			{
				"x": -1.9415865994,
				"y": -0.5247437237,
				"z": 0.7484147527,
				"element": "H" 
			},
			{
				"x": -1.3265965739,
				"y": 3.1269000633,
				"z": -0.829096835,
				"element": "H" 
			},
			{
				"x": -1.326654589,
				"y": 4.4652154266,
				"z": 1.2596208483,
				"element": "H" 
			},
			{
				"x": -0.2016018075,
				"y": 3.5563977966,
				"z": 3.2956859882,
				"element": "H" 
			},
			{
				"x": 0.8942689235,
				"y": 1.3419419622,
				"z": 3.2212358586,
				"element": "H" 
			}
		],
		 "valence_orbital": [ 
			{
				"type": "occ",
				"energy": -0.25785,
				"method": "rhf"
			},
			{
				"type": "occ",
				"energy": -0.24976,
				"method": "rhf"
			},
			{
				"type": "occ",
				"energy": -0.24361,
				"method": "rhf"
			},
			{
				"type": "occ",
				"energy": -0.21477,
				"method": "rhf"
			},
			{
				"type": "occ",
				"energy": -0.19961,
				"method": "rhf"
			},
			{
				"type": "unocc",
				"energy": -0.00413,
				"method": "rhf"
			},
			{
				"type": "unocc",
				"energy": 0.01307,
				"method": "rhf"
			},
			{
				"type": "unocc",
				"energy": 0.03852,
				"method": "rhf"
			},
			{
				"type": "unocc",
				"energy": 0.06858,
				"method": "rhf"
			},
			{
				"type": "unocc",
				"energy": 0.07992,
				"method": "rhf"
			}
		],
		"cosmo_sigma_profile": { 
			"-0.025": 0.0,
			"-0.024": 0.0,
			"-0.023": 0.0,
			"-0.022": 0.0,
			"-0.021": 0.0,
			"-0.02": 0.0,
			"-0.019": 0.0,
			"-0.018": 0.0,
			"-0.017": 0.0,
			"-0.016": 0.0,
			"-0.015": 0.0,
			"-0.014": 0.0,
			"-0.013": 0.536750426919,
			"-0.012": 1.65525030721,
			"-0.011": 0.943887734686,
			"-0.01": 1.6785371957,
			"-0.009": 1.41615213062,
			"-0.008": 4.50533720868,
			"-0.007": 6.81531128499,
			"-0.006": 10.5200482822,
			"-0.005": 20.7271423867,
			"-0.004": 24.2514045321,
			"-0.003": 22.5388382433,
			"-0.002": 21.0961742622,
			"-0.001": 13.8541639896,
			"0.0": 10.9986085927,
			"0.001": 10.8393799754,
			"0.002": 9.5397803043,
			"0.003": 9.71290912436,
			"0.004": 12.5031891835,
			"0.005": 11.8144863423,
			"0.006": 13.9709821038,
			"0.007": 9.7021830712,
			"0.008": 3.94142844778,
			"0.009": 2.10092622031,
			"0.01": 1.5929199867,
			"0.011": 1.61190281152,
			"0.012": 1.34463033873,
			"0.013": 1.18733833023,
			"0.014": 1.2075660052,
			"0.015": 1.26021143585,
			"0.016": 1.17405504881,
			"0.017": 1.1327806818,
			"0.018": 1.00655444647,
			"0.019": 0.437864894121,
			"0.02": 0.0,
			"0.021": 0.0,
			"0.022": 0.0,
			"0.023": 0.0,
			"0.024": 0.0,
			"0.025": 0.0
		}
	}
}
