{
	 "smiles": "OC1=CC(=CC=C1)C1=NC=CC(=O)N1", 
	 "Tm": 503.15, 
	 "num_atms": 22, 
	 "gaussian": { 
		 "optdone": 1, 
		 "sigma_profile": "yes", 
		 "theory": "DFT", 
		 "functional": "B3LYP", 
		 "basiset": "6-31G**", 
		 "properties": { 
			 "R2extent": 3591.6254, 
			 "electric_dipole_moment_norm": 3.1199336916, 
			 "electric_quadrupole_moment_norm": 16.83957784, 
			 "total_energy": -645.847201855, 
			 "HOMO_LUMO_gap": 0.16573, 
			 "cosmo_polarized_energy": -16.99, 
			 "cosmo_cavitation_energy": 26.92, 
			 "cosmo_dispersion_energy": -20.18, 
			 "cosmo_repulsion_energy": 1.57, 
			 "cosmo_total_nonelectrostatic_energy": 8.3, 
			 "SMD_solvation_energy": 4.6 
		},
		"coords": [
			{
				"x": -0.7823316768,
				"y": -2.3527269802,
				"z": 3.0636736484,
				"element": "O" 
			},
			{
				"x": -0.5579772497,
				"y": -1.1098226837,
				"z": 2.5510891667,
				"element": "C" 
			},
			{
				"x": -0.7989351273,
				"y": -0.7944078438,
				"z": 1.2144768962,
				"element": "C" 
			},
			{
				"x": -0.5574087618,
				"y": 0.5032432444,
				"z": 0.7404199112,
				"element": "C" 
			},
			{
				"x": -0.0577792611,
				"y": 1.478454063,
				"z": 1.61589821,
				"element": "C" 
			},
			{
				"x": 0.1811447034,
				"y": 1.1507854171,
				"z": 2.9517504282,
				"element": "C" 
			},
			{
				"x": -0.0692198264,
				"y": -0.1320063837,
				"z": 3.4283793927,
				"element": "C" 
			},
			{
				"x": -0.8378660602,
				"y": 0.7849678976,
				"z": -0.6883709683,
				"element": "C" 
			},
			{
				"x": -0.969261261,
				"y": -0.2101418945,
				"z": -1.5334102216,
				"element": "N" 
			},
			{
				"x": -1.2220182892,
				"y": 0.1176867663,
				"z": -2.8392752255,
				"element": "C" 
			},
			{
				"x": -1.3330612475,
				"y": 1.3895520125,
				"z": -3.3204018105,
				"element": "C" 
			},
			{
				"x": -1.2074823799,
				"y": 2.5128995158,
				"z": -2.4158191655,
				"element": "C" 
			},
			{
				"x": -1.2997218512,
				"y": 3.7063313719,
				"z": -2.66615488,
				"element": "O" 
			},
			{
				"x": -0.9588004053,
				"y": 2.0854039127,
				"z": -1.0858933533,
				"element": "N" 
			},
			{
				"x": -1.106273372,
				"y": -2.9330825358,
				"z": 2.3622250823,
				"element": "H" 
			},
			{
				"x": -1.1721517535,
				"y": -1.5385354501,
				"z": 0.5173252015,
				"element": "H" 
			},
			{
				"x": 0.1865742162,
				"y": 2.4772708564,
				"z": 1.2683547328,
				"element": "H" 
			},
			{
				"x": 0.5746984233,
				"y": 1.9045754455,
				"z": 3.6267739716,
				"element": "H" 
			},
			{
				"x": 0.1108087033,
				"y": -0.3979984928,
				"z": 4.4644993494,
				"element": "H" 
			},
			{
				"x": -1.3296609544,
				"y": -0.7320141796,
				"z": -3.5101024742,
				"element": "H" 
			},
			{
				"x": -1.5290720621,
				"y": 1.5978502974,
				"z": -4.3649420601,
				"element": "H" 
			},
			{
				"x": -0.9127045067,
				"y": 2.8378156437,
				"z": -0.409595832,
				"element": "H" 
			}
		],
		 "valence_orbital": [ 
			{
				"type": "occ",
				"energy": -0.28375,
				"method": "rhf"
			},
			{
				"type": "occ",
				"energy": -0.27321,
				"method": "rhf"
			},
			{
				"type": "occ",
				"energy": -0.25797,
				"method": "rhf"
			},
			{
				"type": "occ",
				"energy": -0.2412,
				"method": "rhf"
			},
			{
				"type": "occ",
				"energy": -0.23356,
				"method": "rhf"
			},
			{
				"type": "unocc",
				"energy": -0.06783,
				"method": "rhf"
			},
			{
				"type": "unocc",
				"energy": -0.02064,
				"method": "rhf"
			},
			{
				"type": "unocc",
				"energy": -0.00511,
				"method": "rhf"
			},
			{
				"type": "unocc",
				"energy": 0.02989,
				"method": "rhf"
			},
			{
				"type": "unocc",
				"energy": 0.06155,
				"method": "rhf"
			}
		],
		"cosmo_sigma_profile": { 
			"-0.025": 0.0,
			"-0.024": 0.0,
			"-0.023": 0.0,
			"-0.022": 0.0,
			"-0.021": 0.0,
			"-0.02": 0.0,
			"-0.019": 0.0,
			"-0.018": 0.511299027543,
			"-0.017": 1.57480582221,
			"-0.016": 1.09202305679,
			"-0.015": 2.28866696093,
			"-0.014": 1.9512976943,
			"-0.013": 2.46171009876,
			"-0.012": 1.88067580371,
			"-0.011": 2.53629656765,
			"-0.01": 1.67550210414,
			"-0.009": 2.27671983423,
			"-0.008": 3.43740390225,
			"-0.007": 7.74747297989,
			"-0.006": 12.0745899892,
			"-0.005": 10.7502179874,
			"-0.004": 9.8105523009,
			"-0.003": 11.7656590235,
			"-0.002": 14.3709391913,
			"-0.001": 11.2224177117,
			"0.0": 12.9851520952,
			"0.001": 15.2435949854,
			"0.002": 17.0000940359,
			"0.003": 16.5931735622,
			"0.004": 12.7266173276,
			"0.005": 5.12807621923,
			"0.006": 4.30971852742,
			"0.007": 4.39265214769,
			"0.008": 3.93704561642,
			"0.009": 3.11524559912,
			"0.01": 3.60765512501,
			"0.011": 4.55910951893,
			"0.012": 3.02923707667,
			"0.013": 5.59911670891,
			"0.014": 4.10106229688,
			"0.015": 0.558824594949,
			"0.016": 0.0,
			"0.017": 0.0,
			"0.018": 0.0,
			"0.019": 0.0,
			"0.02": 0.0,
			"0.021": 0.0,
			"0.022": 0.0,
			"0.023": 0.0,
			"0.024": 0.0,
			"0.025": 0.0
		}
	}
}
