{
	 "smiles": "CNS(=O)(=O)C1=CC(N)=C(C)C=C1", 
	 "Tm": 357.15, 
	 "num_atms": 25, 
	 "gaussian": { 
		 "optdone": 1, 
		 "sigma_profile": "yes", 
		 "theory": "DFT", 
		 "functional": "B3LYP", 
		 "basiset": "6-31G**", 
		 "properties": { 
			 "R2extent": 3345.9815, 
			 "electric_dipole_moment_norm": 6.43708811032, 
			 "electric_quadrupole_moment_norm": 21.006229338, 
			 "total_energy": -970.161595678, 
			 "HOMO_LUMO_gap": 0.19051, 
			 "cosmo_polarized_energy": -19.85, 
			 "cosmo_cavitation_energy": 29.41, 
			 "cosmo_dispersion_energy": -21.72, 
			 "cosmo_repulsion_energy": 1.68, 
			 "cosmo_total_nonelectrostatic_energy": 9.37, 
			 "SMD_solvation_energy": 3.87 
		},
		"coords": [
			{
				"x": -0.1593335281,
				"y": 0.6165426095,
				"z": -3.722439079,
				"element": "C" 
			},
			{
				"x": 0.381548673,
				"y": -0.7325331556,
				"z": -3.551468038,
				"element": "N" 
			},
			{
				"x": 1.5124576257,
				"y": -1.0068124081,
				"z": -2.3358561691,
				"element": "S" 
			},
			{
				"x": 2.5322957903,
				"y": 0.0336168961,
				"z": -2.4860368597,
				"element": "O" 
			},
			{
				"x": 1.8206388287,
				"y": -2.4350968368,
				"z": -2.4181307908,
				"element": "O" 
			},
			{
				"x": 0.6731817102,
				"y": -0.7188092556,
				"z": -0.7727046015,
				"element": "C" 
			},
			{
				"x": 0.7311963446,
				"y": 0.5494210332,
				"z": -0.1989854428,
				"element": "C" 
			},
			{
				"x": 0.0515056239,
				"y": 0.8062900291,
				"z": 1.0017725642,
				"element": "C" 
			},
			{
				"x": 0.0656167945,
				"y": 2.0868627725,
				"z": 1.5535312041,
				"element": "N" 
			},
			{
				"x": -0.6930736044,
				"y": -0.2295151491,
				"z": 1.616427163,
				"element": "C" 
			},
			{
				"x": -1.4391155354,
				"y": 0.0372351617,
				"z": 2.898903929,
				"element": "C" 
			},
			{
				"x": -0.7162671784,
				"y": -1.4904229728,
				"z": 1.0143172366,
				"element": "C" 
			},
			{
				"x": -0.0429459966,
				"y": -1.7578284103,
				"z": -0.1772962073,
				"element": "C" 
			},
			{
				"x": -0.7965767774,
				"y": 0.9472325444,
				"z": -2.8903132157,
				"element": "H" 
			},
			{
				"x": -0.7442527623,
				"y": 0.6333248168,
				"z": -4.6454742284,
				"element": "H" 
			},
			{
				"x": 0.6748486228,
				"y": 1.3111322368,
				"z": -3.8326350673,
				"element": "H" 
			},
			{
				"x": -0.3069373354,
				"y": -1.4791742509,
				"z": -3.5583213767,
				"element": "H" 
			},
			{
				"x": 1.3283568311,
				"y": 1.3235202785,
				"z": -0.6705953099,
				"element": "H" 
			},
			{
				"x": 0.8100221939,
				"y": 2.6858377798,
				"z": 1.2237826906,
				"element": "H" 
			},
			{
				"x": -0.0428074291,
				"y": 2.1364445492,
				"z": 2.5566843014,
				"element": "H" 
			},
			{
				"x": -2.0086385388,
				"y": -0.8402950052,
				"z": 3.2135917905,
				"element": "H" 
			},
			{
				"x": -2.1391915211,
				"y": 0.874393476,
				"z": 2.7869469552,
				"element": "H" 
			},
			{
				"x": -0.7588602528,
				"y": 0.294854694,
				"z": 3.7232492924,
				"element": "H" 
			},
			{
				"x": -1.2753048364,
				"y": -2.286891621,
				"z": 1.4988485801,
				"element": "H" 
			},
			{
				"x": -0.0460637425,
				"y": -2.7476298122,
				"z": -0.618899321,
				"element": "H" 
			}
		],
		 "valence_orbital": [ 
			{
				"type": "occ",
				"energy": -0.2945,
				"method": "rhf"
			},
			{
				"type": "occ",
				"energy": -0.29322,
				"method": "rhf"
			},
			{
				"type": "occ",
				"energy": -0.276,
				"method": "rhf"
			},
			{
				"type": "occ",
				"energy": -0.25525,
				"method": "rhf"
			},
			{
				"type": "occ",
				"energy": -0.21768,
				"method": "rhf"
			},
			{
				"type": "unocc",
				"energy": -0.02717,
				"method": "rhf"
			},
			{
				"type": "unocc",
				"energy": -0.00284,
				"method": "rhf"
			},
			{
				"type": "unocc",
				"energy": 0.06324,
				"method": "rhf"
			},
			{
				"type": "unocc",
				"energy": 0.06755,
				"method": "rhf"
			},
			{
				"type": "unocc",
				"energy": 0.08637,
				"method": "rhf"
			}
		],
		"cosmo_sigma_profile": { 
			"-0.025": 0.0,
			"-0.024": 0.0,
			"-0.023": 0.0,
			"-0.022": 0.0,
			"-0.021": 0.0,
			"-0.02": 0.0,
			"-0.019": 0.0,
			"-0.018": 0.0,
			"-0.017": 0.0,
			"-0.016": 0.0,
			"-0.015": 0.346159625753,
			"-0.014": 1.26329503483,
			"-0.013": 1.98372068338,
			"-0.012": 3.43346969025,
			"-0.011": 3.97107483167,
			"-0.01": 4.20008526007,
			"-0.009": 4.83656684787,
			"-0.008": 4.30387702873,
			"-0.007": 4.24225903107,
			"-0.006": 10.0655629362,
			"-0.005": 14.1621935487,
			"-0.004": 18.537510891,
			"-0.003": 17.414351011,
			"-0.002": 18.6328920202,
			"-0.001": 15.3219269134,
			"0.0": 12.5532058752,
			"0.001": 8.96365298552,
			"0.002": 8.89200198505,
			"0.003": 12.2204989923,
			"0.004": 12.8825563608,
			"0.005": 8.33491162718,
			"0.006": 4.7969902915,
			"0.007": 4.97230197271,
			"0.008": 6.0070238279,
			"0.009": 4.11237865893,
			"0.01": 7.24900445402,
			"0.011": 9.51855677674,
			"0.012": 8.05177366879,
			"0.013": 0.609916723115,
			"0.014": 0.269725010068,
			"0.015": 0.0,
			"0.016": 0.0,
			"0.017": 0.0,
			"0.018": 0.0,
			"0.019": 0.0,
			"0.02": 0.0,
			"0.021": 0.0,
			"0.022": 0.0,
			"0.023": 0.0,
			"0.024": 0.0,
			"0.025": 0.0
		}
	}
}
