{
	 "smiles": "CC(C)(C)C1CCC2=C(C1)SC(=O)N2", 
	 "Tm": 479.15, 
	 "num_atms": 31, 
	 "gaussian": { 
		 "optdone": 1, 
		 "sigma_profile": "yes", 
		 "theory": "DFT", 
		 "functional": "B3LYP", 
		 "basiset": "6-31G**", 
		 "properties": { 
			 "R2extent": 4839.4828, 
			 "electric_dipole_moment_norm": 5.27934993347, 
			 "electric_quadrupole_moment_norm": 25.3535542002, 
			 "total_energy": -957.61293017, 
			 "HOMO_LUMO_gap": 0.21601, 
			 "cosmo_polarized_energy": -11.47, 
			 "cosmo_cavitation_energy": 32.37, 
			 "cosmo_dispersion_energy": -23.9, 
			 "cosmo_repulsion_energy": 1.81, 
			 "cosmo_total_nonelectrostatic_energy": 10.28, 
			 "SMD_solvation_energy": 5.47 
		},
		"coords": [
			{
				"x": 2.0369573178,
				"y": -0.6077460931,
				"z": 0.8810825918,
				"element": "C" 
			},
			{
				"x": 1.1565170003,
				"y": 0.6591088283,
				"z": 0.899704452,
				"element": "C" 
			},
			{
				"x": 1.3010036369,
				"y": 1.345748174,
				"z": 2.2755653466,
				"element": "C" 
			},
			{
				"x": 1.6781802308,
				"y": 1.6445310599,
				"z": -0.1684298823,
				"element": "C" 
			},
			{
				"x": -0.3544006435,
				"y": 0.3346221953,
				"z": 0.6348906554,
				"element": "C" 
			},
			{
				"x": -0.9466233318,
				"y": -0.7254318427,
				"z": 1.5914364169,
				"element": "C" 
			},
			{
				"x": -2.4808342922,
				"y": -0.8030691765,
				"z": 1.4907640588,
				"element": "C" 
			},
			{
				"x": -2.891863308,
				"y": -0.8464016435,
				"z": 0.0503703775,
				"element": "C" 
			},
			{
				"x": -2.0772411732,
				"y": -0.531754667,
				"z": -0.9757921799,
				"element": "C" 
			},
			{
				"x": -0.6557035214,
				"y": -0.0699728247,
				"z": -0.831191058,
				"element": "C" 
			},
			{
				"x": -2.9085844447,
				"y": -0.7073981259,
				"z": -2.5305311324,
				"element": "S" 
			},
			{
				"x": -4.4430887522,
				"y": -1.230926117,
				"z": -1.702342096,
				"element": "C" 
			},
			{
				"x": -5.4877562725,
				"y": -1.5289572587,
				"z": -2.2391176557,
				"element": "O" 
			},
			{
				"x": -4.1761804422,
				"y": -1.2218444933,
				"z": -0.3473127241,
				"element": "N" 
			},
			{
				"x": 1.9644860796,
				"y": -1.1456965959,
				"z": -0.0700581179,
				"element": "H" 
			},
			{
				"x": 3.089205765,
				"y": -0.3372162191,
				"z": 1.0218076672,
				"element": "H" 
			},
			{
				"x": 1.7697204178,
				"y": -1.3039201708,
				"z": 1.6822825744,
				"element": "H" 
			},
			{
				"x": 2.3445744001,
				"y": 1.6283066939,
				"z": 2.451699405,
				"element": "H" 
			},
			{
				"x": 0.6968894384,
				"y": 2.2588516574,
				"z": 2.327903732,
				"element": "H" 
			},
			{
				"x": 0.9995202293,
				"y": 0.6951444039,
				"z": 3.1020277566,
				"element": "H" 
			},
			{
				"x": 2.6906820862,
				"y": 1.9765827148,
				"z": 0.0852777225,
				"element": "H" 
			},
			{
				"x": 1.0438062139,
				"y": 2.5364487572,
				"z": -0.232766023,
				"element": "H" 
			},
			{
				"x": 1.7254721462,
				"y": 1.1913555428,
				"z": -1.1630797962,
				"element": "H" 
			},
			{
				"x": -0.9014901162,
				"y": 1.2727797833,
				"z": 0.8153492605,
				"element": "H" 
			},
			{
				"x": -0.6715254751,
				"y": -0.5135857546,
				"z": 2.6283272351,
				"element": "H" 
			},
			{
				"x": -0.5304185756,
				"y": -1.7100464637,
				"z": 1.3467782809,
				"element": "H" 
			},
			{
				"x": -2.9415766846,
				"y": 0.0620440867,
				"z": 1.9904398747,
				"element": "H" 
			},
			{
				"x": -2.8464985878,
				"y": -1.694038337,
				"z": 2.0188431138,
				"element": "H" 
			},
			{
				"x": -0.480411064,
				"y": 0.7820310516,
				"z": -1.496565317,
				"element": "H" 
			},
			{
				"x": 0.0307566191,
				"y": -0.8624914821,
				"z": -1.1619024919,
				"element": "H" 
			},
			{
				"x": -4.9109748965,
				"y": -1.4923576837,
				"z": 0.2912379526,
				"element": "H" 
			}
		],
		 "valence_orbital": [ 
			{
				"type": "occ",
				"energy": -0.31425,
				"method": "rhf"
			},
			{
				"type": "occ",
				"energy": -0.31004,
				"method": "rhf"
			},
			{
				"type": "occ",
				"energy": -0.28173,
				"method": "rhf"
			},
			{
				"type": "occ",
				"energy": -0.26052,
				"method": "rhf"
			},
			{
				"type": "occ",
				"energy": -0.20323,
				"method": "rhf"
			},
			{
				"type": "unocc",
				"energy": 0.01278,
				"method": "rhf"
			},
			{
				"type": "unocc",
				"energy": 0.01756,
				"method": "rhf"
			},
			{
				"type": "unocc",
				"energy": 0.04324,
				"method": "rhf"
			},
			{
				"type": "unocc",
				"energy": 0.06707,
				"method": "rhf"
			},
			{
				"type": "unocc",
				"energy": 0.07951,
				"method": "rhf"
			}
		],
		"cosmo_sigma_profile": { 
			"-0.025": 0.0,
			"-0.024": 0.0,
			"-0.023": 0.0,
			"-0.022": 0.0,
			"-0.021": 0.0,
			"-0.02": 0.0,
			"-0.019": 0.0,
			"-0.018": 0.0,
			"-0.017": 0.00274899829044,
			"-0.016": 0.759134272421,
			"-0.015": 1.43212639427,
			"-0.014": 1.03142116328,
			"-0.013": 0.741665590941,
			"-0.012": 1.06301614602,
			"-0.011": 1.77996305527,
			"-0.01": 0.930222974315,
			"-0.009": 0.618701784872,
			"-0.008": 0.920266094021,
			"-0.007": 1.71765632702,
			"-0.006": 1.78206083659,
			"-0.005": 2.73562973552,
			"-0.004": 11.1466189244,
			"-0.003": 21.7692395859,
			"-0.002": 48.1310185651,
			"-0.001": 32.8245889333,
			"0.0": 27.3118012149,
			"0.001": 29.0052605077,
			"0.002": 23.7665137319,
			"0.003": 9.98206093983,
			"0.004": 7.58526242254,
			"0.005": 4.926959834,
			"0.006": 3.39887814554,
			"0.007": 2.10432750101,
			"0.008": 0.904166378642,
			"0.009": 0.714467313818,
			"0.01": 1.80213518904,
			"0.011": 2.83305626116,
			"0.012": 4.52314033022,
			"0.013": 5.17960129114,
			"0.014": 0.288204305961,
			"0.015": 0.0,
			"0.016": 0.0,
			"0.017": 0.0,
			"0.018": 0.0,
			"0.019": 0.0,
			"0.02": 0.0,
			"0.021": 0.0,
			"0.022": 0.0,
			"0.023": 0.0,
			"0.024": 0.0,
			"0.025": 0.0
		}
	}
}
