{
	 "smiles": "CC(C)CC1(C)CC(=O)NC1=O", 
	 "Tm": 355.15, 
	 "num_atms": 27, 
	 "gaussian": { 
		 "optdone": 1, 
		 "sigma_profile": "yes", 
		 "theory": "DFT", 
		 "functional": "B3LYP", 
		 "basiset": "6-31G**", 
		 "properties": { 
			 "R2extent": 2732.727, 
			 "electric_dipole_moment_norm": 1.92232028029, 
			 "electric_quadrupole_moment_norm": 15.6983852737, 
			 "total_energy": -557.240223814, 
			 "HOMO_LUMO_gap": 0.23404, 
			 "cosmo_polarized_energy": -12.04, 
			 "cosmo_cavitation_energy": 27.74, 
			 "cosmo_dispersion_energy": -19.75, 
			 "cosmo_repulsion_energy": 1.57, 
			 "cosmo_total_nonelectrostatic_energy": 9.57, 
			 "SMD_solvation_energy": 5.85 
		},
		"coords": [
			{
				"x": -1.1969674341,
				"y": 2.5640510047,
				"z": 0.7739564053,
				"element": "C" 
			},
			{
				"x": -1.4916194503,
				"y": 1.0990893589,
				"z": 0.4177550155,
				"element": "C" 
			},
			{
				"x": -0.9777244034,
				"y": 0.7642377855,
				"z": -0.9943770906,
				"element": "C" 
			},
			{
				"x": -1.0813049819,
				"y": 0.0523464664,
				"z": 1.4901346742,
				"element": "C" 
			},
			{
				"x": 0.3349969842,
				"y": 0.0117703597,
				"z": 2.1635562965,
				"element": "C" 
			},
			{
				"x": 0.5207943569,
				"y": 1.1106500836,
				"z": 3.222780399,
				"element": "C" 
			},
			{
				"x": 0.5404392303,
				"y": -1.4090629319,
				"z": 2.7587301398,
				"element": "C" 
			},
			{
				"x": 1.4222627624,
				"y": -2.1568513482,
				"z": 1.7648685374,
				"element": "C" 
			},
			{
				"x": 1.68448167,
				"y": -3.3383437643,
				"z": 1.7269437493,
				"element": "O" 
			},
			{
				"x": 1.9324231192,
				"y": -1.1924902513,
				"z": 0.8960539105,
				"element": "N" 
			},
			{
				"x": 1.4634596754,
				"y": 0.0980839917,
				"z": 1.119225577,
				"element": "C" 
			},
			{
				"x": 1.8961645804,
				"y": 1.0916103523,
				"z": 0.5704914561,
				"element": "O" 
			},
			{
				"x": -0.1227993294,
				"y": 2.7666561689,
				"z": 0.7475450534,
				"element": "H" 
			},
			{
				"x": -1.6778003946,
				"y": 3.2288450515,
				"z": 0.0480049377,
				"element": "H" 
			},
			{
				"x": -1.5804569344,
				"y": 2.8283587339,
				"z": 1.7655109636,
				"element": "H" 
			},
			{
				"x": -2.586176097,
				"y": 0.9966425664,
				"z": 0.3752789038,
				"element": "H" 
			},
			{
				"x": 0.0998576418,
				"y": 0.917869932,
				"z": -1.0854906144,
				"element": "H" 
			},
			{
				"x": -1.4637505738,
				"y": 1.4105074799,
				"z": -1.7334554465,
				"element": "H" 
			},
			{
				"x": -1.204548027,
				"y": -0.2733296502,
				"z": -1.265781673,
				"element": "H" 
			},
			{
				"x": -1.7860808613,
				"y": 0.1290451413,
				"z": 2.3289567089,
				"element": "H" 
			},
			{
				"x": -1.2597850736,
				"y": -0.9347299633,
				"z": 1.0440700924,
				"element": "H" 
			},
			{
				"x": 1.4774595289,
				"y": 0.9901951183,
				"z": 3.7421362373,
				"element": "H" 
			},
			{
				"x": 0.5090003547,
				"y": 2.1049000399,
				"z": 2.7777689743,
				"element": "H" 
			},
			{
				"x": -0.2777838294,
				"y": 1.0539122516,
				"z": 3.9697311922,
				"element": "H" 
			},
			{
				"x": 1.0821980796,
				"y": -1.3749744195,
				"z": 3.7115090427,
				"element": "H" 
			},
			{
				"x": -0.3865591728,
				"y": -1.9597638642,
				"z": 2.9345042352,
				"element": "H" 
			},
			{
				"x": 2.6356185794,
				"y": -1.4033256938,
				"z": 0.1985923224,
				"element": "H" 
			}
		],
		 "valence_orbital": [ 
			{
				"type": "occ",
				"energy": -0.32686,
				"method": "rhf"
			},
			{
				"type": "occ",
				"energy": -0.30913,
				"method": "rhf"
			},
			{
				"type": "occ",
				"energy": -0.29285,
				"method": "rhf"
			},
			{
				"type": "occ",
				"energy": -0.28249,
				"method": "rhf"
			},
			{
				"type": "occ",
				"energy": -0.25824,
				"method": "rhf"
			},
			{
				"type": "unocc",
				"energy": -0.0242,
				"method": "rhf"
			},
			{
				"type": "unocc",
				"energy": 0.02307,
				"method": "rhf"
			},
			{
				"type": "unocc",
				"energy": 0.06742,
				"method": "rhf"
			},
			{
				"type": "unocc",
				"energy": 0.08872,
				"method": "rhf"
			},
			{
				"type": "unocc",
				"energy": 0.10734,
				"method": "rhf"
			}
		],
		"cosmo_sigma_profile": { 
			"-0.025": 0.0,
			"-0.024": 0.0,
			"-0.023": 0.0,
			"-0.022": 0.0,
			"-0.021": 0.0,
			"-0.02": 0.0,
			"-0.019": 0.0,
			"-0.018": 0.0,
			"-0.017": 0.0655784202179,
			"-0.016": 0.984656736204,
			"-0.015": 1.63797064055,
			"-0.014": 0.542905234261,
			"-0.013": 0.808119899433,
			"-0.012": 0.5265539305,
			"-0.011": 0.933029945162,
			"-0.01": 1.30706484128,
			"-0.009": 0.799663613605,
			"-0.008": 1.51233792644,
			"-0.007": 4.21214912779,
			"-0.006": 7.29976946487,
			"-0.005": 8.38807039102,
			"-0.004": 14.3611489413,
			"-0.003": 19.3703540892,
			"-0.002": 27.7712895517,
			"-0.001": 27.7753064178,
			"0.0": 22.5644881679,
			"0.001": 17.673190504,
			"0.002": 12.4283899437,
			"0.003": 4.58490963113,
			"0.004": 2.60132807481,
			"0.005": 3.27468187419,
			"0.006": 3.49439708727,
			"0.007": 3.16269875331,
			"0.008": 2.71854757858,
			"0.009": 3.39218963764,
			"0.01": 3.01868583611,
			"0.011": 6.59197799255,
			"0.012": 8.81916336247,
			"0.013": 2.61609432803,
			"0.014": 0.0582275010992,
			"0.015": 0.0,
			"0.016": 0.0,
			"0.017": 0.0,
			"0.018": 0.0,
			"0.019": 0.0,
			"0.02": 0.0,
			"0.021": 0.0,
			"0.022": 0.0,
			"0.023": 0.0,
			"0.024": 0.0,
			"0.025": 0.0
		}
	}
}
