{
	 "smiles": "NS(=O)(=O)C1=CC=C(CCNC(=O)CCl)C=C1", 
	 "Tm": 419.15, 
	 "num_atms": 30, 
	 "gaussian": { 
		 "optdone": 1, 
		 "sigma_profile": "yes", 
		 "theory": "DFT", 
		 "functional": "B3LYP", 
		 "basiset": "6-31G**", 
		 "properties": { 
			 "R2extent": 10239.0131, 
			 "electric_dipole_moment_norm": 4.25705965309, 
			 "electric_quadrupole_moment_norm": 25.9919520527, 
			 "total_energy": -1582.4106826, 
			 "HOMO_LUMO_gap": 0.21843, 
			 "cosmo_polarized_energy": -22.98, 
			 "cosmo_cavitation_energy": 37.9, 
			 "cosmo_dispersion_energy": -27.62, 
			 "cosmo_repulsion_energy": 2.15, 
			 "cosmo_total_nonelectrostatic_energy": 12.42, 
			 "SMD_solvation_energy": 5.51 
		},
		"coords": [
			{
				"x": -4.1244226573,
				"y": -1.0058834057,
				"z": -2.5762628345,
				"element": "N" 
			},
			{
				"x": -4.4640276636,
				"y": 0.385441685,
				"z": -1.6649664204,
				"element": "S" 
			},
			{
				"x": -4.7092000243,
				"y": 1.4712521087,
				"z": -2.6195346662,
				"element": "O" 
			},
			{
				"x": -5.4441786159,
				"y": -0.0007820811,
				"z": -0.64530456,
				"element": "O" 
			},
			{
				"x": -2.9158569175,
				"y": 0.7291638805,
				"z": -0.8329099095,
				"element": "C" 
			},
			{
				"x": -2.6637368014,
				"y": 0.1523287245,
				"z": 0.4130770784,
				"element": "C" 
			},
			{
				"x": -1.4568713817,
				"y": 0.4249734085,
				"z": 1.0527019022,
				"element": "C" 
			},
			{
				"x": -0.5021201237,
				"y": 1.2697088326,
				"z": 0.4657768987,
				"element": "C" 
			},
			{
				"x": 0.8186352427,
				"y": 1.5222055395,
				"z": 1.1559200622,
				"element": "C" 
			},
			{
				"x": 1.8321458481,
				"y": 0.3873577831,
				"z": 0.8856567916,
				"element": "C" 
			},
			{
				"x": 3.092995871,
				"y": 0.5731876513,
				"z": 1.590135233,
				"element": "N" 
			},
			{
				"x": 3.2269281797,
				"y": 0.2105804886,
				"z": 2.8870360056,
				"element": "C" 
			},
			{
				"x": 2.3409548225,
				"y": -0.3125324197,
				"z": 3.5538948581,
				"element": "O" 
			},
			{
				"x": 4.5735933618,
				"y": 0.4484975613,
				"z": 3.573902167,
				"element": "C" 
			},
			{
				"x": 5.8640380746,
				"y": 1.2596418402,
				"z": 2.583905385,
				"element": "Cl" 
			},
			{
				"x": -0.7877954915,
				"y": 1.8435409565,
				"z": -0.7808406491,
				"element": "C" 
			},
			{
				"x": -1.9905485883,
				"y": 1.5817728324,
				"z": -1.4349334987,
				"element": "C" 
			},
			{
				"x": -4.2598884567,
				"y": -0.7978105346,
				"z": -3.5622306369,
				"element": "H" 
			},
			{
				"x": -4.7354501763,
				"y": -1.7594273589,
				"z": -2.2718876866,
				"element": "H" 
			},
			{
				"x": -3.4119637723,
				"y": -0.4803196887,
				"z": 0.877852022,
				"element": "H" 
			},
			{
				"x": -1.2552278173,
				"y": -0.0130369653,
				"z": 2.0267861038,
				"element": "H" 
			},
			{
				"x": 0.6725257899,
				"y": 1.5868632182,
				"z": 2.2387087644,
				"element": "H" 
			},
			{
				"x": 1.2454898827,
				"y": 2.4748767647,
				"z": 0.822931061,
				"element": "H" 
			},
			{
				"x": 1.4050846866,
				"y": -0.5641978551,
				"z": 1.2130006343,
				"element": "H" 
			},
			{
				"x": 2.0445039928,
				"y": 0.3117870185,
				"z": -0.1849511147,
				"element": "H" 
			},
			{
				"x": 3.8634280787,
				"y": 1.0412099106,
				"z": 1.1349720362,
				"element": "H" 
			},
			{
				"x": 4.9716480118,
				"y": -0.5149650082,
				"z": 3.8933004186,
				"element": "H" 
			},
			{
				"x": 4.4062166528,
				"y": 1.0695656961,
				"z": 4.4538510101,
				"element": "H" 
			},
			{
				"x": -0.0664176449,
				"y": 2.5146902877,
				"z": -1.2399386813,
				"element": "H" 
			},
			{
				"x": -2.2223823629,
				"y": 2.0446091287,
				"z": -2.3878477743,
				"element": "H" 
			}
		],
		 "valence_orbital": [ 
			{
				"type": "occ",
				"energy": -0.29964,
				"method": "rhf"
			},
			{
				"type": "occ",
				"energy": -0.27538,
				"method": "rhf"
			},
			{
				"type": "occ",
				"energy": -0.27027,
				"method": "rhf"
			},
			{
				"type": "occ",
				"energy": -0.26672,
				"method": "rhf"
			},
			{
				"type": "occ",
				"energy": -0.25693,
				"method": "rhf"
			},
			{
				"type": "unocc",
				"energy": -0.0385,
				"method": "rhf"
			},
			{
				"type": "unocc",
				"energy": -0.02145,
				"method": "rhf"
			},
			{
				"type": "unocc",
				"energy": 0.00655,
				"method": "rhf"
			},
			{
				"type": "unocc",
				"energy": 0.01089,
				"method": "rhf"
			},
			{
				"type": "unocc",
				"energy": 0.05368,
				"method": "rhf"
			}
		],
		"cosmo_sigma_profile": { 
			"-0.025": 0.0,
			"-0.024": 0.0,
			"-0.023": 0.0,
			"-0.022": 0.0,
			"-0.021": 0.0,
			"-0.02": 0.0,
			"-0.019": 0.0,
			"-0.018": 0.0,
			"-0.017": 0.0,
			"-0.016": 0.0,
			"-0.015": 0.874600753625,
			"-0.014": 2.20194354618,
			"-0.013": 3.38861734588,
			"-0.012": 2.77182040258,
			"-0.011": 3.4825911281,
			"-0.01": 2.66088302603,
			"-0.009": 5.95194763606,
			"-0.008": 6.62220848603,
			"-0.007": 9.73964459505,
			"-0.006": 17.514591342,
			"-0.005": 21.2154436807,
			"-0.004": 21.3147318983,
			"-0.003": 16.5576093955,
			"-0.002": 19.8791776429,
			"-0.001": 19.0958701295,
			"0.0": 16.4067759685,
			"0.001": 16.7206401481,
			"0.002": 16.4584962174,
			"0.003": 20.3145507089,
			"0.004": 11.1883661511,
			"0.005": 11.0668781672,
			"0.006": 9.18626326299,
			"0.007": 4.99775544559,
			"0.008": 5.17366657165,
			"0.009": 4.19682224903,
			"0.01": 8.61202089748,
			"0.011": 12.0380594668,
			"0.012": 5.50911164606,
			"0.013": 4.99793324543,
			"0.014": 2.38658402646,
			"0.015": 0.0476155650094,
			"0.016": 0.0,
			"0.017": 0.0,
			"0.018": 0.0,
			"0.019": 0.0,
			"0.02": 0.0,
			"0.021": 0.0,
			"0.022": 0.0,
			"0.023": 0.0,
			"0.024": 0.0,
			"0.025": 0.0
		}
	}
}
