{
	 "smiles": "CC1=C(N)C(N)=NC=C1", 
	 "Tm": 385.15, 
	 "num_atms": 18, 
	 "gaussian": { 
		 "optdone": 1, 
		 "sigma_profile": "yes", 
		 "theory": "DFT", 
		 "functional": "B3LYP", 
		 "basiset": "6-31G**", 
		 "properties": { 
			 "R2extent": 1710.6884, 
			 "electric_dipole_moment_norm": 2.59840460475, 
			 "electric_quadrupole_moment_norm": 7.61963278905, 
			 "total_energy": -398.332343101, 
			 "HOMO_LUMO_gap": 0.19367, 
			 "cosmo_polarized_energy": -11.4, 
			 "cosmo_cavitation_energy": 20.94, 
			 "cosmo_dispersion_energy": -15.95, 
			 "cosmo_repulsion_energy": 1.31, 
			 "cosmo_total_nonelectrostatic_energy": 6.29, 
			 "SMD_solvation_energy": 2.2 
		},
		"coords": [
			{
				"x": 0.8286811684,
				"y": 0.6532579597,
				"z": 2.0690920695,
				"element": "C" 
			},
			{
				"x": 0.7385382499,
				"y": -0.6090069469,
				"z": 1.2486663133,
				"element": "C" 
			},
			{
				"x": -0.4947923396,
				"y": -1.0669130898,
				"z": 0.7732293161,
				"element": "C" 
			},
			{
				"x": -1.7184236945,
				"y": -0.4245718277,
				"z": 1.0335233657,
				"element": "N" 
			},
			{
				"x": -0.5200784407,
				"y": -2.2718518318,
				"z": 0.0272869481,
				"element": "C" 
			},
			{
				"x": -1.7561426055,
				"y": -2.7298386996,
				"z": -0.4519364945,
				"element": "N" 
			},
			{
				"x": 0.5698621924,
				"y": -2.9669592888,
				"z": -0.2871761211,
				"element": "N" 
			},
			{
				"x": 1.7525196816,
				"y": -2.5029061323,
				"z": 0.1480183581,
				"element": "C" 
			},
			{
				"x": 1.8805329187,
				"y": -1.3584148039,
				"z": 0.9225884183,
				"element": "C" 
			},
			{
				"x": 1.8642991522,
				"y": 0.8730125626,
				"z": 2.3389659266,
				"element": "H" 
			},
			{
				"x": 0.2504227759,
				"y": 0.5749465022,
				"z": 2.9982622887,
				"element": "H" 
			},
			{
				"x": 0.4418164179,
				"y": 1.5230027071,
				"z": 1.520321063,
				"element": "H" 
			},
			{
				"x": -1.6215512453,
				"y": 0.530596487,
				"z": 1.3535575707,
				"element": "H" 
			},
			{
				"x": -2.3460411879,
				"y": -0.4691875775,
				"z": 0.2363152084,
				"element": "H" 
			},
			{
				"x": -2.4840120727,
				"y": -2.7269249523,
				"z": 0.2560579733,
				"element": "H" 
			},
			{
				"x": -1.6553742857,
				"y": -3.6457033635,
				"z": -0.874539094,
				"element": "H" 
			},
			{
				"x": 2.6272343635,
				"y": -3.0877605387,
				"z": -0.1286111883,
				"element": "H" 
			},
			{
				"x": 2.8584089515,
				"y": -1.0358771658,
				"z": 1.2679780782,
				"element": "H" 
			}
		],
		 "valence_orbital": [ 
			{
				"type": "occ",
				"energy": -0.31971,
				"method": "rhf"
			},
			{
				"type": "occ",
				"energy": -0.3012,
				"method": "rhf"
			},
			{
				"type": "occ",
				"energy": -0.24659,
				"method": "rhf"
			},
			{
				"type": "occ",
				"energy": -0.23909,
				"method": "rhf"
			},
			{
				"type": "occ",
				"energy": -0.19151,
				"method": "rhf"
			},
			{
				"type": "unocc",
				"energy": 0.00216,
				"method": "rhf"
			},
			{
				"type": "unocc",
				"energy": 0.02317,
				"method": "rhf"
			},
			{
				"type": "unocc",
				"energy": 0.07051,
				"method": "rhf"
			},
			{
				"type": "unocc",
				"energy": 0.10442,
				"method": "rhf"
			},
			{
				"type": "unocc",
				"energy": 0.12073,
				"method": "rhf"
			}
		],
		"cosmo_sigma_profile": { 
			"-0.025": 0.0,
			"-0.024": 0.0,
			"-0.023": 0.0,
			"-0.022": 0.0,
			"-0.021": 0.0,
			"-0.02": 0.0,
			"-0.019": 0.0,
			"-0.018": 0.0,
			"-0.017": 0.0,
			"-0.016": 0.0,
			"-0.015": 0.0,
			"-0.014": 0.0,
			"-0.013": 0.0,
			"-0.012": 0.698764681956,
			"-0.011": 3.83809233941,
			"-0.01": 4.30359923632,
			"-0.009": 5.36852136947,
			"-0.008": 4.69094167234,
			"-0.007": 5.10802532907,
			"-0.006": 4.00791166186,
			"-0.005": 9.84795226355,
			"-0.004": 12.8332283182,
			"-0.003": 10.640575469,
			"-0.002": 11.139463517,
			"-0.001": 11.0756769941,
			"0.0": 10.922663909,
			"0.001": 7.68754735854,
			"0.002": 6.98149756648,
			"0.003": 8.25908503308,
			"0.004": 9.11892508872,
			"0.005": 9.98121872758,
			"0.006": 7.14582968201,
			"0.007": 3.7365371349,
			"0.008": 1.93471399197,
			"0.009": 3.23111669774,
			"0.01": 2.55020653573,
			"0.011": 1.66947323427,
			"0.012": 2.4301827097,
			"0.013": 1.91039817091,
			"0.014": 1.49260735511,
			"0.015": 1.32971095445,
			"0.016": 0.71788882635,
			"0.017": 0.265194374125,
			"0.018": 0.0,
			"0.019": 0.0,
			"0.02": 0.0,
			"0.021": 0.0,
			"0.022": 0.0,
			"0.023": 0.0,
			"0.024": 0.0,
			"0.025": 0.0
		}
	}
}
