{
	 "smiles": "FC(F)(F)C1=CC=C(C=C1)C1=NC(CCl)=CS1", 
	 "Tm": 355.65, 
	 "num_atms": 24, 
	 "gaussian": { 
		 "optdone": 1, 
		 "sigma_profile": "yes", 
		 "theory": "DFT", 
		 "functional": "B3LYP", 
		 "basiset": "6-31G**", 
		 "properties": { 
			 "R2extent": 7967.4232, 
			 "electric_dipole_moment_norm": 3.37820269374, 
			 "electric_quadrupole_moment_norm": 16.138433837, 
			 "total_energy": -1636.05183166, 
			 "HOMO_LUMO_gap": 0.1664, 
			 "cosmo_polarized_energy": -9.48, 
			 "cosmo_cavitation_energy": 33.91, 
			 "cosmo_dispersion_energy": -24.74, 
			 "cosmo_repulsion_energy": 1.82, 
			 "cosmo_total_nonelectrostatic_energy": 10.99, 
			 "SMD_solvation_energy": 5.14 
		},
		"coords": [
			{
				"x": 5.772592519,
				"y": 0.7853275681,
				"z": -0.1961327712,
				"element": "F" 
			},
			{
				"x": 4.9218905426,
				"y": -0.1662570805,
				"z": -0.6396697724,
				"element": "C" 
			},
			{
				"x": 5.2866509703,
				"y": -1.3370037009,
				"z": -0.0729770879,
				"element": "F" 
			},
			{
				"x": 5.1321099467,
				"y": -0.2920092535,
				"z": -1.9708692971,
				"element": "F" 
			},
			{
				"x": 3.4885506222,
				"y": 0.1784793181,
				"z": -0.3372841523,
				"element": "C" 
			},
			{
				"x": 3.092379292,
				"y": 1.5158939548,
				"z": -0.2596128252,
				"element": "C" 
			},
			{
				"x": 1.756818242,
				"y": 1.8327192788,
				"z": -0.0337622498,
				"element": "C" 
			},
			{
				"x": 0.797473711,
				"y": 0.8190962137,
				"z": 0.1172960357,
				"element": "C" 
			},
			{
				"x": 1.2077679374,
				"y": -0.5237644613,
				"z": 0.0392861252,
				"element": "C" 
			},
			{
				"x": 2.5417304513,
				"y": -0.8399672272,
				"z": -0.186949578,
				"element": "C" 
			},
			{
				"x": -0.6213887215,
				"y": 1.1141441985,
				"z": 0.3588655256,
				"element": "C" 
			},
			{
				"x": -1.5500689319,
				"y": 0.2009928083,
				"z": 0.4504911659,
				"element": "N" 
			},
			{
				"x": -2.7903618337,
				"y": 0.7467311254,
				"z": 0.6760302431,
				"element": "C" 
			},
			{
				"x": -3.975041455,
				"y": -0.1496219912,
				"z": 0.8077052414,
				"element": "C" 
			},
			{
				"x": -4.1104054077,
				"y": -0.8843197197,
				"z": 2.480275698,
				"element": "Cl" 
			},
			{
				"x": -2.8211388585,
				"y": 2.1145410093,
				"z": 0.7577719921,
				"element": "C" 
			},
			{
				"x": -1.2351329814,
				"y": 2.7638201063,
				"z": 0.5500228557,
				"element": "S" 
			},
			{
				"x": 3.828575885,
				"y": 2.3045488534,
				"z": -0.3683233398,
				"element": "H" 
			},
			{
				"x": 1.4653245874,
				"y": 2.87742391,
				"z": 0.024297149,
				"element": "H" 
			},
			{
				"x": 0.4651025569,
				"y": -1.3033556963,
				"z": 0.1635042732,
				"element": "H" 
			},
			{
				"x": 2.8535026801,
				"y": -1.8776126213,
				"z": -0.2373634502,
				"element": "H" 
			},
			{
				"x": -4.9078414237,
				"y": 0.3870725406,
				"z": 0.6389848141,
				"element": "H" 
			},
			{
				"x": -3.8994100579,
				"y": -0.9930286615,
				"z": 0.1221392576,
				"element": "H" 
			},
			{
				"x": -3.6720802727,
				"y": 2.757249528,
				"z": 0.9341741476,
				"element": "H" 
			}
		],
		 "valence_orbital": [ 
			{
				"type": "occ",
				"energy": -0.29773,
				"method": "rhf"
			},
			{
				"type": "occ",
				"energy": -0.29159,
				"method": "rhf"
			},
			{
				"type": "occ",
				"energy": -0.28999,
				"method": "rhf"
			},
			{
				"type": "occ",
				"energy": -0.27543,
				"method": "rhf"
			},
			{
				"type": "occ",
				"energy": -0.24126,
				"method": "rhf"
			},
			{
				"type": "unocc",
				"energy": -0.07486,
				"method": "rhf"
			},
			{
				"type": "unocc",
				"energy": -0.02835,
				"method": "rhf"
			},
			{
				"type": "unocc",
				"energy": -0.02053,
				"method": "rhf"
			},
			{
				"type": "unocc",
				"energy": 0.00256,
				"method": "rhf"
			},
			{
				"type": "unocc",
				"energy": 0.0183,
				"method": "rhf"
			}
		],
		"cosmo_sigma_profile": { 
			"-0.025": 0.0,
			"-0.024": 0.0,
			"-0.023": 0.0,
			"-0.022": 0.0,
			"-0.021": 0.0,
			"-0.02": 0.0,
			"-0.019": 0.0,
			"-0.018": 0.0,
			"-0.017": 0.0,
			"-0.016": 0.0,
			"-0.015": 0.0,
			"-0.014": 0.0,
			"-0.013": 0.0,
			"-0.012": 0.0,
			"-0.011": 0.0229115752763,
			"-0.01": 1.90788949276,
			"-0.009": 3.5988361834,
			"-0.008": 7.22309354812,
			"-0.007": 10.8378645536,
			"-0.006": 12.6585804048,
			"-0.005": 12.5921646073,
			"-0.004": 12.781654852,
			"-0.003": 12.6078421755,
			"-0.002": 11.1855617806,
			"-0.001": 18.416625005,
			"0.0": 25.1318101558,
			"0.001": 30.3283379487,
			"0.002": 43.6977350941,
			"0.003": 36.8203957104,
			"0.004": 7.2851466704,
			"0.005": 8.30600959781,
			"0.006": 11.4567796329,
			"0.007": 6.48012694585,
			"0.008": 1.67002631384,
			"0.009": 1.61819409005,
			"0.01": 0.941602657245,
			"0.011": 0.0127195365159,
			"0.012": 0.0,
			"0.013": 0.0,
			"0.014": 0.0,
			"0.015": 0.0,
			"0.016": 0.0,
			"0.017": 0.0,
			"0.018": 0.0,
			"0.019": 0.0,
			"0.02": 0.0,
			"0.021": 0.0,
			"0.022": 0.0,
			"0.023": 0.0,
			"0.024": 0.0,
			"0.025": 0.0
		}
	}
}
