{
	 "smiles": "COC(=O)C1=C(C)C2=C(S1)N=C(CCl)N=C2Cl", 
	 "Tm": 399.15, 
	 "num_atms": 25, 
	 "gaussian": { 
		 "optdone": 1, 
		 "sigma_profile": "yes", 
		 "theory": "DFT", 
		 "functional": "B3LYP", 
		 "basiset": "6-31G**", 
		 "properties": { 
			 "R2extent": 6879.5071, 
			 "electric_dipole_moment_norm": 3.55083463991, 
			 "electric_quadrupole_moment_norm": 13.1346618628, 
			 "total_energy": -1964.42323599, 
			 "HOMO_LUMO_gap": 0.16215, 
			 "cosmo_polarized_energy": -10.26, 
			 "cosmo_cavitation_energy": 34.94, 
			 "cosmo_dispersion_energy": -26.19, 
			 "cosmo_repulsion_energy": 2.01, 
			 "cosmo_total_nonelectrostatic_energy": 10.76, 
			 "SMD_solvation_energy": 3.52 
		},
		"coords": [
			{
				"x": -0.0368872463,
				"y": 4.5448920616,
				"z": -2.0546808623,
				"element": "C" 
			},
			{
				"x": -0.2012639899,
				"y": 3.3373954331,
				"z": -1.2914677523,
				"element": "O" 
			},
			{
				"x": 0.0341230884,
				"y": 2.1861235422,
				"z": -1.9604052685,
				"element": "C" 
			},
			{
				"x": 0.362320871,
				"y": 2.1525377947,
				"z": -3.1305488378,
				"element": "O" 
			},
			{
				"x": -0.1657822184,
				"y": 1.0197565376,
				"z": -1.0703922812,
				"element": "C" 
			},
			{
				"x": -0.0166418531,
				"y": -0.313901015,
				"z": -1.3851900114,
				"element": "C" 
			},
			{
				"x": 0.3905146306,
				"y": -0.8371823528,
				"z": -2.7350386423,
				"element": "C" 
			},
			{
				"x": -0.3038824605,
				"y": -1.140476965,
				"z": -0.2322700978,
				"element": "C" 
			},
			{
				"x": -0.6587131202,
				"y": -0.3812995055,
				"z": 0.9164964555,
				"element": "C" 
			},
			{
				"x": -0.6489487404,
				"y": 1.3276212723,
				"z": 0.5991528258,
				"element": "S" 
			},
			{
				"x": -0.9703071082,
				"y": -0.8831622843,
				"z": 2.1120535528,
				"element": "N" 
			},
			{
				"x": -0.9288719586,
				"y": -2.2105168501,
				"z": 2.1885794174,
				"element": "C" 
			},
			{
				"x": -1.2467836079,
				"y": -2.8384267641,
				"z": 3.5157538646,
				"element": "C" 
			},
			{
				"x": 0.2774126497,
				"y": -3.1496026703,
				"z": 4.4627805732,
				"element": "Cl" 
			},
			{
				"x": -0.6215281388,
				"y": -3.0517537783,
				"z": 1.1788905232,
				"element": "N" 
			},
			{
				"x": -0.3202175285,
				"y": -2.5318548933,
				"z": 0.0103525505,
				"element": "C" 
			},
			{
				"x": 0.0558742902,
				"y": -3.6912274596,
				"z": -1.2520327419,
				"element": "Cl" 
			},
			{
				"x": -0.7221291529,
				"y": 4.5548194606,
				"z": -2.9055439755,
				"element": "H" 
			},
			{
				"x": 0.9885075157,
				"y": 4.6268554534,
				"z": -2.4227563167,
				"element": "H" 
			},
			{
				"x": -0.2652124036,
				"y": 5.3576947346,
				"z": -1.3663515969,
				"element": "H" 
			},
			{
				"x": 0.5615496276,
				"y": -0.015254346,
				"z": -3.4259247983,
				"element": "H" 
			},
			{
				"x": 1.3022210526,
				"y": -1.4368460251,
				"z": -2.6547896929,
				"element": "H" 
			},
			{
				"x": -0.3846799359,
				"y": -1.4934520497,
				"z": -3.1423528662,
				"element": "H" 
			},
			{
				"x": -1.7277267914,
				"y": -3.8057489776,
				"z": 3.3802573294,
				"element": "H" 
			},
			{
				"x": -1.8572474711,
				"y": -2.1679903535,
				"z": 4.1176286498,
				"element": "H" 
			}
		],
		 "valence_orbital": [ 
			{
				"type": "occ",
				"energy": -0.29927,
				"method": "rhf"
			},
			{
				"type": "occ",
				"energy": -0.29264,
				"method": "rhf"
			},
			{
				"type": "occ",
				"energy": -0.28379,
				"method": "rhf"
			},
			{
				"type": "occ",
				"energy": -0.28129,
				"method": "rhf"
			},
			{
				"type": "occ",
				"energy": -0.25288,
				"method": "rhf"
			},
			{
				"type": "unocc",
				"energy": -0.09073,
				"method": "rhf"
			},
			{
				"type": "unocc",
				"energy": -0.0561,
				"method": "rhf"
			},
			{
				"type": "unocc",
				"energy": -0.03018,
				"method": "rhf"
			},
			{
				"type": "unocc",
				"energy": -0.00252,
				"method": "rhf"
			},
			{
				"type": "unocc",
				"energy": 0.02769,
				"method": "rhf"
			}
		],
		"cosmo_sigma_profile": { 
			"-0.025": 0.0,
			"-0.024": 0.0,
			"-0.023": 0.0,
			"-0.022": 0.0,
			"-0.021": 0.0,
			"-0.02": 0.0,
			"-0.019": 0.0,
			"-0.018": 0.0,
			"-0.017": 0.0,
			"-0.016": 0.0,
			"-0.015": 0.0,
			"-0.014": 0.0,
			"-0.013": 0.0,
			"-0.012": 0.0,
			"-0.011": 0.0,
			"-0.01": 0.0,
			"-0.009": 0.859630098277,
			"-0.008": 3.36229024522,
			"-0.007": 5.90346496179,
			"-0.006": 12.5352399174,
			"-0.005": 19.5830634361,
			"-0.004": 25.3019152061,
			"-0.003": 23.7846925337,
			"-0.002": 23.8370681763,
			"-0.001": 29.1263228419,
			"0.0": 23.1582248753,
			"0.001": 20.835813101,
			"0.002": 19.4444764054,
			"0.003": 18.316278994,
			"0.004": 14.6648701504,
			"0.005": 14.6535003911,
			"0.006": 12.4939871003,
			"0.007": 3.40951464265,
			"0.008": 3.38268155485,
			"0.009": 3.33048358453,
			"0.01": 4.43474332332,
			"0.011": 3.79926272573,
			"0.012": 0.811138809536,
			"0.013": 0.0,
			"0.014": 0.0,
			"0.015": 0.0,
			"0.016": 0.0,
			"0.017": 0.0,
			"0.018": 0.0,
			"0.019": 0.0,
			"0.02": 0.0,
			"0.021": 0.0,
			"0.022": 0.0,
			"0.023": 0.0,
			"0.024": 0.0,
			"0.025": 0.0
		}
	}
}
