{
	 "smiles": "CCOC(=O)C1=C(C)C2=C(S1)N=CC(=C2)C#N", 
	 "Tm": 455.15, 
	 "num_atms": 27, 
	 "gaussian": { 
		 "optdone": 1, 
		 "sigma_profile": "yes", 
		 "theory": "DFT", 
		 "functional": "B3LYP", 
		 "basiset": "6-31G**", 
		 "properties": { 
			 "R2extent": 7226.6211, 
			 "electric_dipole_moment_norm": 5.36786920575, 
			 "electric_quadrupole_moment_norm": 21.5196993696, 
			 "total_energy": -1121.44304963, 
			 "HOMO_LUMO_gap": 0.1658, 
			 "cosmo_polarized_energy": -14.49, 
			 "cosmo_cavitation_energy": 34.5, 
			 "cosmo_dispersion_energy": -24.6, 
			 "cosmo_repulsion_energy": 1.85, 
			 "cosmo_total_nonelectrostatic_energy": 11.75, 
			 "SMD_solvation_energy": 6.41 
		},
		"coords": [
			{
				"x": -2.9615343676,
				"y": 1.1797312958,
				"z": -2.0406068776,
				"element": "C" 
			},
			{
				"x": -2.7617490989,
				"y": 1.5037727321,
				"z": -0.5731101144,
				"element": "C" 
			},
			{
				"x": -1.4555536674,
				"y": 1.0036696833,
				"z": -0.18891281,
				"element": "O" 
			},
			{
				"x": -1.11335883,
				"y": 1.2096873392,
				"z": 1.0990573969,
				"element": "C" 
			},
			{
				"x": -1.8262366683,
				"y": 1.772102356,
				"z": 1.9094772358,
				"element": "O" 
			},
			{
				"x": 0.2243882661,
				"y": 0.680963346,
				"z": 1.4353493833,
				"element": "C" 
			},
			{
				"x": 1.1533078886,
				"y": 0.0272590037,
				"z": 0.65889369,
				"element": "C" 
			},
			{
				"x": 1.009859486,
				"y": -0.3194208703,
				"z": -0.7989455606,
				"element": "C" 
			},
			{
				"x": 2.3258203602,
				"y": -0.2993726143,
				"z": 1.4359788128,
				"element": "C" 
			},
			{
				"x": 2.2301508243,
				"y": 0.1289911427,
				"z": 2.788742606,
				"element": "C" 
			},
			{
				"x": 0.7138901356,
				"y": 0.9276997825,
				"z": 3.1102984801,
				"element": "S" 
			},
			{
				"x": 3.1642087271,
				"y": -0.0404602954,
				"z": 3.7279308982,
				"element": "N" 
			},
			{
				"x": 4.2730292383,
				"y": -0.6645620414,
				"z": 3.3517867922,
				"element": "C" 
			},
			{
				"x": 4.4937148535,
				"y": -1.1412406969,
				"z": 2.0341915499,
				"element": "C" 
			},
			{
				"x": 3.5057911499,
				"y": -0.9554045858,
				"z": 1.0641241399,
				"element": "C" 
			},
			{
				"x": 5.7212954975,
				"y": -1.8045406935,
				"z": 1.7150316183,
				"element": "C" 
			},
			{
				"x": 6.7207778079,
				"y": -2.3429251156,
				"z": 1.4610059673,
				"element": "N" 
			},
			{
				"x": -3.9405159709,
				"y": 1.5435760443,
				"z": -2.3671460935,
				"element": "H" 
			},
			{
				"x": -2.195358331,
				"y": 1.6584798588,
				"z": -2.6571821355,
				"element": "H" 
			},
			{
				"x": -2.9221466596,
				"y": 0.1005140471,
				"z": -2.2141883239,
				"element": "H" 
			},
			{
				"x": -3.5168664174,
				"y": 1.0308972486,
				"z": 0.0619690731,
				"element": "H" 
			},
			{
				"x": -2.7942286592,
				"y": 2.5799655045,
				"z": -0.3784422556,
				"element": "H" 
			},
			{
				"x": 0.8596486041,
				"y": 0.5778637249,
				"z": -1.4049794608,
				"element": "H" 
			},
			{
				"x": 0.1414731935,
				"y": -0.9614543268,
				"z": -0.9682362562,
				"element": "H" 
			},
			{
				"x": 1.8965228465,
				"y": -0.8381895398,
				"z": -1.1693098917,
				"element": "H" 
			},
			{
				"x": 5.0394095698,
				"y": -0.8072869185,
				"z": 4.1094514416,
				"element": "H" 
			},
			{
				"x": 3.6637602215,
				"y": -1.3158154113,
				"z": 0.0531706944,
				"element": "H" 
			}
		],
		 "valence_orbital": [ 
			{
				"type": "occ",
				"energy": -0.31518,
				"method": "rhf"
			},
			{
				"type": "occ",
				"energy": -0.29202,
				"method": "rhf"
			},
			{
				"type": "occ",
				"energy": -0.2863,
				"method": "rhf"
			},
			{
				"type": "occ",
				"energy": -0.2656,
				"method": "rhf"
			},
			{
				"type": "occ",
				"energy": -0.25073,
				"method": "rhf"
			},
			{
				"type": "unocc",
				"energy": -0.08493,
				"method": "rhf"
			},
			{
				"type": "unocc",
				"energy": -0.06414,
				"method": "rhf"
			},
			{
				"type": "unocc",
				"energy": -0.01791,
				"method": "rhf"
			},
			{
				"type": "unocc",
				"energy": 0.01042,
				"method": "rhf"
			},
			{
				"type": "unocc",
				"energy": 0.02439,
				"method": "rhf"
			}
		],
		"cosmo_sigma_profile": { 
			"-0.025": 0.0,
			"-0.024": 0.0,
			"-0.023": 0.0,
			"-0.022": 0.0,
			"-0.021": 0.0,
			"-0.02": 0.0,
			"-0.019": 0.0,
			"-0.018": 0.0,
			"-0.017": 0.0,
			"-0.016": 0.0,
			"-0.015": 0.0,
			"-0.014": 0.0,
			"-0.013": 0.0,
			"-0.012": 0.0,
			"-0.011": 0.15069909484,
			"-0.01": 2.37558219434,
			"-0.009": 4.38381206299,
			"-0.008": 4.39139109946,
			"-0.007": 4.51151445746,
			"-0.006": 6.3038323379,
			"-0.005": 14.2729134521,
			"-0.004": 22.5993914701,
			"-0.003": 29.3423249612,
			"-0.002": 38.5407795362,
			"-0.001": 33.4445950723,
			"0.0": 22.1107281159,
			"0.001": 15.4507627746,
			"0.002": 14.2998278239,
			"0.003": 12.4263127936,
			"0.004": 6.43707224593,
			"0.005": 5.45720084295,
			"0.006": 4.90177570659,
			"0.007": 6.07562396272,
			"0.008": 6.61785990788,
			"0.009": 5.32799020058,
			"0.01": 5.53454135035,
			"0.011": 7.87790247421,
			"0.012": 5.13850784035,
			"0.013": 1.36990392396,
			"0.014": 0.0116763096911,
			"0.015": 0.0,
			"0.016": 0.0,
			"0.017": 0.0,
			"0.018": 0.0,
			"0.019": 0.0,
			"0.02": 0.0,
			"0.021": 0.0,
			"0.022": 0.0,
			"0.023": 0.0,
			"0.024": 0.0,
			"0.025": 0.0
		}
	}
}
