{
	 "smiles": "CC1=NN(C2=C1C=C(S2)C(O)=O)C1=CC(Cl)=CC=C1", 
	 "Tm": 542.15, 
	 "num_atms": 28, 
	 "gaussian": { 
		 "optdone": 1, 
		 "sigma_profile": "yes", 
		 "theory": "DFT", 
		 "functional": "B3LYP", 
		 "basiset": "6-31G**", 
		 "properties": { 
			 "R2extent": 8197.8197, 
			 "electric_dipole_moment_norm": 4.37304621746, 
			 "electric_quadrupole_moment_norm": 24.599089871, 
			 "total_energy": -1619.11637046, 
			 "HOMO_LUMO_gap": 0.16685, 
			 "cosmo_polarized_energy": -15.52, 
			 "cosmo_cavitation_energy": 36.55, 
			 "cosmo_dispersion_energy": -27.14, 
			 "cosmo_repulsion_energy": 2.03, 
			 "cosmo_total_nonelectrostatic_energy": 11.44, 
			 "SMD_solvation_energy": 6.12 
		},
		"coords": [
			{
				"x": 3.7252341034,
				"y": -1.7384864411,
				"z": 0.2893244391,
				"element": "C" 
			},
			{
				"x": 2.5366370377,
				"y": -0.8591683201,
				"z": 0.5133554678,
				"element": "C" 
			},
			{
				"x": 1.9165482364,
				"y": -0.2863487757,
				"z": -0.5056181316,
				"element": "N" 
			},
			{
				"x": 0.8708695564,
				"y": 0.4552234629,
				"z": 0.0098924153,
				"element": "N" 
			},
			{
				"x": 0.8520821451,
				"y": 0.3331709984,
				"z": 1.3668023048,
				"element": "C" 
			},
			{
				"x": 1.9040511889,
				"y": -0.5030135093,
				"z": 1.7455388807,
				"element": "C" 
			},
			{
				"x": 1.9704773814,
				"y": -0.6948933323,
				"z": 3.1524441924,
				"element": "C" 
			},
			{
				"x": 0.9864237724,
				"y": -0.0158062463,
				"z": 3.8228287179,
				"element": "C" 
			},
			{
				"x": -0.0768353328,
				"y": 0.90176979,
				"z": 2.7183617706,
				"element": "S" 
			},
			{
				"x": 0.8232946817,
				"y": -0.0399228193,
				"z": 5.2934890498,
				"element": "C" 
			},
			{
				"x": -0.194407705,
				"y": 0.6772715359,
				"z": 5.8398213973,
				"element": "O" 
			},
			{
				"x": 1.5644395817,
				"y": -0.6743881711,
				"z": 6.0085404594,
				"element": "O" 
			},
			{
				"x": 0.0305869698,
				"y": 1.1808545671,
				"z": -0.8665419842,
				"element": "C" 
			},
			{
				"x": -1.0331363982,
				"y": 1.939227485,
				"z": -0.3636808961,
				"element": "C" 
			},
			{
				"x": -1.8404315398,
				"y": 2.6415287792,
				"z": -1.2568150361,
				"element": "C" 
			},
			{
				"x": -3.1729161854,
				"y": 3.5906426484,
				"z": -0.6170203595,
				"element": "Cl" 
			},
			{
				"x": -1.6183179819,
				"y": 2.6093342156,
				"z": -2.6308320347,
				"element": "C" 
			},
			{
				"x": -0.5512339978,
				"y": 1.8460225912,
				"z": -3.1096325962,
				"element": "C" 
			},
			{
				"x": 0.2741524583,
				"y": 1.1329532356,
				"z": -2.2463192701,
				"element": "C" 
			},
			{
				"x": 3.946901514,
				"y": -1.7990941905,
				"z": -0.7777673531,
				"element": "H" 
			},
			{
				"x": 3.5434000014,
				"y": -2.7504496882,
				"z": 0.6673524097,
				"element": "H" 
			},
			{
				"x": 4.6073015418,
				"y": -1.348360518,
				"z": 0.8087374174,
				"element": "H" 
			},
			{
				"x": 2.6949280383,
				"y": -1.2980828196,
				"z": 3.6854991908,
				"element": "H" 
			},
			{
				"x": -0.7197333374,
				"y": 1.143111496,
				"z": 5.174078534,
				"element": "H" 
			},
			{
				"x": -1.2486610965,
				"y": 1.9979637584,
				"z": 0.694880348,
				"element": "H" 
			},
			{
				"x": -2.2614221213,
				"y": 3.1648946961,
				"z": -3.3031407864,
				"element": "H" 
			},
			{
				"x": -0.3608734739,
				"y": 1.8075448623,
				"z": -4.1777812669,
				"element": "H" 
			},
			{
				"x": 1.1012409613,
				"y": 0.5410007096,
				"z": -2.6140972801,
				"element": "H" 
			}
		],
		 "valence_orbital": [ 
			{
				"type": "occ",
				"energy": -0.28067,
				"method": "rhf"
			},
			{
				"type": "occ",
				"energy": -0.2796,
				"method": "rhf"
			},
			{
				"type": "occ",
				"energy": -0.26399,
				"method": "rhf"
			},
			{
				"type": "occ",
				"energy": -0.25896,
				"method": "rhf"
			},
			{
				"type": "occ",
				"energy": -0.23035,
				"method": "rhf"
			},
			{
				"type": "unocc",
				"energy": -0.0635,
				"method": "rhf"
			},
			{
				"type": "unocc",
				"energy": -0.04259,
				"method": "rhf"
			},
			{
				"type": "unocc",
				"energy": -0.02773,
				"method": "rhf"
			},
			{
				"type": "unocc",
				"energy": -0.02506,
				"method": "rhf"
			},
			{
				"type": "unocc",
				"energy": 0.01614,
				"method": "rhf"
			}
		],
		"cosmo_sigma_profile": { 
			"-0.025": 0.0,
			"-0.024": 0.0,
			"-0.023": 0.0,
			"-0.022": 0.0,
			"-0.021": 0.0,
			"-0.02": 0.0,
			"-0.019": 0.266651093247,
			"-0.018": 0.710037567293,
			"-0.017": 0.894134305218,
			"-0.016": 1.14131087465,
			"-0.015": 0.445796512505,
			"-0.014": 0.695538791851,
			"-0.013": 1.74602619651,
			"-0.012": 1.19371910848,
			"-0.011": 0.770669373679,
			"-0.01": 0.679427408866,
			"-0.009": 0.915298074216,
			"-0.008": 3.3027128089,
			"-0.007": 7.64119087962,
			"-0.006": 11.6674835783,
			"-0.005": 19.1610960051,
			"-0.004": 18.1446980131,
			"-0.003": 19.0725390703,
			"-0.002": 20.1867299323,
			"-0.001": 24.5956187732,
			"0.0": 27.1256732818,
			"0.001": 34.3424935113,
			"0.002": 27.5068550329,
			"0.003": 20.3167799046,
			"0.004": 15.380943633,
			"0.005": 7.07489089459,
			"0.006": 4.3233809415,
			"0.007": 3.36160420303,
			"0.008": 4.72274581575,
			"0.009": 4.99798303486,
			"0.01": 5.54991552121,
			"0.011": 5.29776138186,
			"0.012": 4.61151860647,
			"0.013": 1.14555105372,
			"0.014": 0.0,
			"0.015": 0.0,
			"0.016": 0.0,
			"0.017": 0.0,
			"0.018": 0.0,
			"0.019": 0.0,
			"0.02": 0.0,
			"0.021": 0.0,
			"0.022": 0.0,
			"0.023": 0.0,
			"0.024": 0.0,
			"0.025": 0.0
		}
	}
}
