{
	 "smiles": "COC(=O)C1=C(Cl)C=C(F)C(=C1)[N+]([O-])=O", 
	 "Tm": 333.15, 
	 "num_atms": 20, 
	 "gaussian": { 
		 "optdone": 1, 
		 "sigma_profile": "yes", 
		 "theory": "DFT", 
		 "functional": "B3LYP", 
		 "basiset": "6-31G**", 
		 "properties": { 
			 "R2extent": 4387.0364, 
			 "electric_dipole_moment_norm": 2.48241540641, 
			 "electric_quadrupole_moment_norm": 20.6438962049, 
			 "total_energy": -1223.4255748, 
			 "HOMO_LUMO_gap": 0.18207, 
			 "cosmo_polarized_energy": -11.34, 
			 "cosmo_cavitation_energy": 28.38, 
			 "cosmo_dispersion_energy": -20.71, 
			 "cosmo_repulsion_energy": 1.6, 
			 "cosmo_total_nonelectrostatic_energy": 9.28, 
			 "SMD_solvation_energy": 8.94 
		},
		"coords": [
			{
				"x": -1.4054353188,
				"y": 4.0165305789,
				"z": -1.0427016247,
				"element": "C" 
			},
			{
				"x": -0.8877264945,
				"y": 2.6870416437,
				"z": -0.8600820808,
				"element": "O" 
			},
			{
				"x": -1.5131016482,
				"y": 1.7240892867,
				"z": -1.5732078398,
				"element": "C" 
			},
			{
				"x": -2.4534047221,
				"y": 1.9438975523,
				"z": -2.3041349041,
				"element": "O" 
			},
			{
				"x": -0.8795429004,
				"y": 0.3851677669,
				"z": -1.3394355883,
				"element": "C" 
			},
			{
				"x": -1.4429269765,
				"y": -0.8314246498,
				"z": -1.7864618396,
				"element": "C" 
			},
			{
				"x": -2.96509529,
				"y": -0.9276173284,
				"z": -2.6210574723,
				"element": "Cl" 
			},
			{
				"x": -0.7911155436,
				"y": -2.0424758339,
				"z": -1.5541692703,
				"element": "C" 
			},
			{
				"x": 0.4237995805,
				"y": -2.0747956924,
				"z": -0.8817106449,
				"element": "C" 
			},
			{
				"x": 0.9939569562,
				"y": -3.2609518017,
				"z": -0.7010543663,
				"element": "F" 
			},
			{
				"x": 1.0009719829,
				"y": -0.879769996,
				"z": -0.4268840035,
				"element": "C" 
			},
			{
				"x": 0.3423408849,
				"y": 0.3223044091,
				"z": -0.661425521,
				"element": "C" 
			},
			{
				"x": 2.28051914,
				"y": -0.8400425887,
				"z": 0.2944054566,
				"element": "N" 
			},
			{
				"x": 2.8254304945,
				"y": -1.9080569791,
				"z": 0.5557469593,
				"element": "O" 
			},
			{
				"x": 2.7204679651,
				"y": 0.2703435402,
				"z": 0.5919661503,
				"element": "O" 
			},
			{
				"x": -2.4557183375,
				"y": 4.060960974,
				"z": -0.7455512567,
				"element": "H" 
			},
			{
				"x": -0.7965621126,
				"y": 4.6557868793,
				"z": -0.4044401792,
				"element": "H" 
			},
			{
				"x": -1.3198103057,
				"y": 4.3203150699,
				"z": -2.0886985888,
				"element": "H" 
			},
			{
				"x": -1.2219707836,
				"y": -2.9762650089,
				"z": -1.8936688306,
				"element": "H" 
			},
			{
				"x": 0.8051234292,
				"y": 1.2310621779,
				"z": -0.3026345551,
				"element": "H" 
			}
		],
		 "valence_orbital": [ 
			{
				"type": "occ",
				"energy": -0.31933,
				"method": "rhf"
			},
			{
				"type": "occ",
				"energy": -0.30176,
				"method": "rhf"
			},
			{
				"type": "occ",
				"energy": -0.29506,
				"method": "rhf"
			},
			{
				"type": "occ",
				"energy": -0.28695,
				"method": "rhf"
			},
			{
				"type": "occ",
				"energy": -0.28615,
				"method": "rhf"
			},
			{
				"type": "unocc",
				"energy": -0.10408,
				"method": "rhf"
			},
			{
				"type": "unocc",
				"energy": -0.07319,
				"method": "rhf"
			},
			{
				"type": "unocc",
				"energy": -0.03062,
				"method": "rhf"
			},
			{
				"type": "unocc",
				"energy": 0.0059,
				"method": "rhf"
			},
			{
				"type": "unocc",
				"energy": 0.03482,
				"method": "rhf"
			}
		],
		"cosmo_sigma_profile": { 
			"-0.025": 0.0,
			"-0.024": 0.0,
			"-0.023": 0.0,
			"-0.022": 0.0,
			"-0.021": 0.0,
			"-0.02": 0.0,
			"-0.019": 0.0,
			"-0.018": 0.0,
			"-0.017": 0.0,
			"-0.016": 0.0,
			"-0.015": 0.0,
			"-0.014": 0.0,
			"-0.013": 0.0,
			"-0.012": 0.0,
			"-0.011": 0.0804923772128,
			"-0.01": 1.3289738584,
			"-0.009": 1.31469735298,
			"-0.008": 3.44062804427,
			"-0.007": 5.031677501,
			"-0.006": 10.6730549827,
			"-0.005": 15.4430875579,
			"-0.004": 26.551319818,
			"-0.003": 25.9610233291,
			"-0.002": 22.9808861986,
			"-0.001": 13.1558308579,
			"0.0": 9.39888016304,
			"0.001": 12.1822958171,
			"0.002": 16.0788173907,
			"0.003": 12.78402281,
			"0.004": 7.53971682707,
			"0.005": 5.43824390085,
			"0.006": 6.7604064942,
			"0.007": 12.7234348545,
			"0.008": 7.95652795699,
			"0.009": 5.30883920933,
			"0.01": 3.40645187898,
			"0.011": 4.52286955997,
			"0.012": 0.825587135304,
			"0.013": 0.0,
			"0.014": 0.0,
			"0.015": 0.0,
			"0.016": 0.0,
			"0.017": 0.0,
			"0.018": 0.0,
			"0.019": 0.0,
			"0.02": 0.0,
			"0.021": 0.0,
			"0.022": 0.0,
			"0.023": 0.0,
			"0.024": 0.0,
			"0.025": 0.0
		}
	}
}
