{
	 "smiles": "CC(C)C(NC1=NS(=O)(=O)C2=C1C=CC=C2)C(O)=O", 
	 "Tm": 508.15, 
	 "num_atms": 33, 
	 "gaussian": { 
		 "optdone": 1, 
		 "sigma_profile": "yes", 
		 "theory": "DFT", 
		 "functional": "B3LYP", 
		 "basiset": "6-31G**", 
		 "properties": { 
			 "R2extent": 5966.2351, 
			 "electric_dipole_moment_norm": 8.80902303834, 
			 "electric_quadrupole_moment_norm": 15.3495801496, 
			 "total_energy": -1274.24455935, 
			 "HOMO_LUMO_gap": 0.17708, 
			 "cosmo_polarized_energy": -27.07, 
			 "cosmo_cavitation_energy": 37.98, 
			 "cosmo_dispersion_energy": -26.45, 
			 "cosmo_repulsion_energy": 1.99, 
			 "cosmo_total_nonelectrostatic_energy": 13.52, 
			 "SMD_solvation_energy": 5.29 
		},
		"coords": [
			{
				"x": 2.3471032301,
				"y": 4.1018865887,
				"z": -0.3943741048,
				"element": "C" 
			},
			{
				"x": 1.1131603961,
				"y": 3.2835142479,
				"z": 0.0169475847,
				"element": "C" 
			},
			{
				"x": 1.2808911746,
				"y": 2.7026088402,
				"z": 1.4276087514,
				"element": "C" 
			},
			{
				"x": 0.8254921385,
				"y": 2.164723334,
				"z": -1.0174828015,
				"element": "C" 
			},
			{
				"x": -0.393543189,
				"y": 1.4231554654,
				"z": -0.6856150106,
				"element": "N" 
			},
			{
				"x": -0.4777750375,
				"y": 0.1224728408,
				"z": -0.2875254798,
				"element": "C" 
			},
			{
				"x": -1.3993588289,
				"y": -0.2076138444,
				"z": 0.575405606,
				"element": "N" 
			},
			{
				"x": -1.337170811,
				"y": -1.8657066446,
				"z": 0.9041942938,
				"element": "S" 
			},
			{
				"x": -2.5357989814,
				"y": -2.5352729019,
				"z": 0.3973360129,
				"element": "O" 
			},
			{
				"x": -0.9354505663,
				"y": -2.0595423071,
				"z": 2.2980345082,
				"element": "O" 
			},
			{
				"x": 0.04196642,
				"y": -2.1787770537,
				"z": -0.2094651292,
				"element": "C" 
			},
			{
				"x": 0.385668275,
				"y": -0.9760993688,
				"z": -0.830440845,
				"element": "C" 
			},
			{
				"x": 1.3465192378,
				"y": -0.9847178884,
				"z": -1.8463077919,
				"element": "C" 
			},
			{
				"x": 1.9712564114,
				"y": -2.1952140473,
				"z": -2.1660900456,
				"element": "C" 
			},
			{
				"x": 1.6367813567,
				"y": -3.3804538318,
				"z": -1.5052635381,
				"element": "C" 
			},
			{
				"x": 0.6435875965,
				"y": -3.3866457054,
				"z": -0.519351586,
				"element": "C" 
			},
			{
				"x": 0.6357633954,
				"y": 2.7628776334,
				"z": -2.413904614,
				"element": "C" 
			},
			{
				"x": 1.5128238742,
				"y": 2.2548923918,
				"z": -3.3118759882,
				"element": "O" 
			},
			{
				"x": -0.2041680583,
				"y": 3.5842652999,
				"z": -2.6972125356,
				"element": "O" 
			},
			{
				"x": 3.2423011673,
				"y": 3.4707524272,
				"z": -0.4427263793,
				"element": "H" 
			},
			{
				"x": 2.2169425418,
				"y": 4.5863748886,
				"z": -1.3668452352,
				"element": "H" 
			},
			{
				"x": 2.5375574448,
				"y": 4.8895439519,
				"z": 0.3403905098,
				"element": "H" 
			},
			{
				"x": 0.2409111521,
				"y": 3.9518802407,
				"z": 0.0022050447,
				"element": "H" 
			},
			{
				"x": 1.4439236927,
				"y": 3.5091001124,
				"z": 2.148939347,
				"element": "H" 
			},
			{
				"x": 2.1497165977,
				"y": 2.0352447976,
				"z": 1.4764310054,
				"element": "H" 
			},
			{
				"x": 0.4046840072,
				"y": 2.1361715965,
				"z": 1.7541095173,
				"element": "H" 
			},
			{
				"x": 1.6677358476,
				"y": 1.4728634246,
				"z": -1.0286925,
				"element": "H" 
			},
			{
				"x": -1.1405076409,
				"y": 1.9914807039,
				"z": -0.3014004195,
				"element": "H" 
			},
			{
				"x": 1.5959731832,
				"y": -0.0931693204,
				"z": -2.4093755388,
				"element": "H" 
			},
			{
				"x": 2.7215600086,
				"y": -2.2121614753,
				"z": -2.9505329407,
				"element": "H" 
			},
			{
				"x": 2.135918331,
				"y": -4.3068303276,
				"z": -1.772537585,
				"element": "H" 
			},
			{
				"x": 0.3468986436,
				"y": -4.3044965094,
				"z": -0.0226103053,
				"element": "H" 
			},
			{
				"x": 1.3079369895,
				"y": 2.6686924408,
				"z": -4.1689718072,
				"element": "H" 
			}
		],
		 "valence_orbital": [ 
			{
				"type": "occ",
				"energy": -0.29924,
				"method": "rhf"
			},
			{
				"type": "occ",
				"energy": -0.28889,
				"method": "rhf"
			},
			{
				"type": "occ",
				"energy": -0.28479,
				"method": "rhf"
			},
			{
				"type": "occ",
				"energy": -0.27319,
				"method": "rhf"
			},
			{
				"type": "occ",
				"energy": -0.25164,
				"method": "rhf"
			},
			{
				"type": "unocc",
				"energy": -0.07456,
				"method": "rhf"
			},
			{
				"type": "unocc",
				"energy": -0.04306,
				"method": "rhf"
			},
			{
				"type": "unocc",
				"energy": -0.02072,
				"method": "rhf"
			},
			{
				"type": "unocc",
				"energy": 0.02275,
				"method": "rhf"
			},
			{
				"type": "unocc",
				"energy": 0.04836,
				"method": "rhf"
			}
		],
		"cosmo_sigma_profile": { 
			"-0.025": 0.0,
			"-0.024": 0.0,
			"-0.023": 0.0,
			"-0.022": 0.0,
			"-0.021": 0.0,
			"-0.02": 0.0,
			"-0.019": 0.503890061855,
			"-0.018": 0.839519580104,
			"-0.017": 0.841690865888,
			"-0.016": 1.10763589156,
			"-0.015": 1.07750923072,
			"-0.014": 1.24641446579,
			"-0.013": 1.51108953205,
			"-0.012": 2.07952570587,
			"-0.011": 1.44531271091,
			"-0.01": 1.56985429083,
			"-0.009": 2.42854126038,
			"-0.008": 8.0364593727,
			"-0.007": 14.4496328391,
			"-0.006": 12.5972050989,
			"-0.005": 13.3329709163,
			"-0.004": 20.8439734348,
			"-0.003": 24.4987327918,
			"-0.002": 23.3801543247,
			"-0.001": 24.3244256112,
			"0.0": 29.867022168,
			"0.001": 24.681814963,
			"0.002": 13.1208562042,
			"0.003": 5.02354083293,
			"0.004": 3.99320472378,
			"0.005": 4.95563247483,
			"0.006": 4.63538984076,
			"0.007": 5.20819537863,
			"0.008": 6.90640308723,
			"0.009": 7.21651250297,
			"0.01": 12.7612925514,
			"0.011": 20.8607476964,
			"0.012": 5.33210623137,
			"0.013": 0.747196394679,
			"0.014": 0.018400522391,
			"0.015": 0.0,
			"0.016": 0.0,
			"0.017": 0.0,
			"0.018": 0.0,
			"0.019": 0.0,
			"0.02": 0.0,
			"0.021": 0.0,
			"0.022": 0.0,
			"0.023": 0.0,
			"0.024": 0.0,
			"0.025": 0.0
		}
	}
}
