{
	 "smiles": "CC1=CC2=C(C=C1)N=C(O)C=C2C", 
	 "Tm": 513.15, 
	 "num_atms": 24, 
	 "gaussian": { 
		 "optdone": 1, 
		 "sigma_profile": "yes", 
		 "theory": "DFT", 
		 "functional": "B3LYP", 
		 "basiset": "6-31G**", 
		 "properties": { 
			 "R2extent": 2608.1566, 
			 "electric_dipole_moment_norm": 1.79306442717, 
			 "electric_quadrupole_moment_norm": 6.2537578247, 
			 "total_energy": -555.809069887, 
			 "HOMO_LUMO_gap": 0.17374, 
			 "cosmo_polarized_energy": -8.25, 
			 "cosmo_cavitation_energy": 27.28, 
			 "cosmo_dispersion_energy": -20.27, 
			 "cosmo_repulsion_energy": 1.59, 
			 "cosmo_total_nonelectrostatic_energy": 8.6, 
			 "SMD_solvation_energy": 3.54 
		},
		"coords": [
			{
				"x": 1.7093939251,
				"y": -3.0349967885,
				"z": -1.0336097242,
				"element": "C" 
			},
			{
				"x": 0.8606050586,
				"y": -1.8005045281,
				"z": -0.8457949356,
				"element": "C" 
			},
			{
				"x": 0.7893964549,
				"y": -1.1476787015,
				"z": 0.3713927797,
				"element": "C" 
			},
			{
				"x": -0.0057709882,
				"y": 0.0124849792,
				"z": 0.5553224395,
				"element": "C" 
			},
			{
				"x": -0.7536553879,
				"y": 0.5184026892,
				"z": -0.5519393738,
				"element": "C" 
			},
			{
				"x": -0.6729402195,
				"y": -0.1589278368,
				"z": -1.7944700776,
				"element": "C" 
			},
			{
				"x": 0.1101617331,
				"y": -1.2824598545,
				"z": -1.9339434442,
				"element": "C" 
			},
			{
				"x": -1.5459512516,
				"y": 1.6304028933,
				"z": -0.4652668417,
				"element": "N" 
			},
			{
				"x": -1.6041743772,
				"y": 2.2387495431,
				"z": 0.6927370214,
				"element": "C" 
			},
			{
				"x": -2.3830199028,
				"y": 3.3413553381,
				"z": 0.7985668594,
				"element": "O" 
			},
			{
				"x": -0.9062029471,
				"y": 1.8282116688,
				"z": 1.8609449997,
				"element": "C" 
			},
			{
				"x": -0.1028362896,
				"y": 0.7151277622,
				"z": 1.8047418823,
				"element": "C" 
			},
			{
				"x": 0.6527466831,
				"y": 0.2490713832,
				"z": 3.0224365801,
				"element": "C" 
			},
			{
				"x": 2.4692609645,
				"y": -2.8827464627,
				"z": -1.8093949582,
				"element": "H" 
			},
			{
				"x": 2.2259021072,
				"y": -3.3103035128,
				"z": -0.1099637213,
				"element": "H" 
			},
			{
				"x": 1.1023743169,
				"y": -3.8930709456,
				"z": -1.3461376668,
				"element": "H" 
			},
			{
				"x": 1.3595241981,
				"y": -1.5355576725,
				"z": 1.210577433,
				"element": "H" 
			},
			{
				"x": -1.2476794471,
				"y": 0.2394674883,
				"z": -2.6244201048,
				"element": "H" 
			},
			{
				"x": 0.1583936346,
				"y": -1.7875234303,
				"z": -2.8959540064,
				"element": "H" 
			},
			{
				"x": -2.774821419,
				"y": 3.4697578446,
				"z": -0.0803692759,
				"element": "H" 
			},
			{
				"x": -1.023260617,
				"y": 2.4036466616,
				"z": 2.7729023264,
				"element": "H" 
			},
			{
				"x": 0.4596206205,
				"y": 0.9022438977,
				"z": 3.8765511073,
				"element": "H" 
			},
			{
				"x": 0.3649374521,
				"y": -0.7705102461,
				"z": 3.3029769787,
				"element": "H" 
			},
			{
				"x": 1.7333956983,
				"y": 0.2390578302,
				"z": 2.840313723,
				"element": "H" 
			}
		],
		 "valence_orbital": [ 
			{
				"type": "occ",
				"energy": -0.3003,
				"method": "rhf"
			},
			{
				"type": "occ",
				"energy": -0.28923,
				"method": "rhf"
			},
			{
				"type": "occ",
				"energy": -0.26311,
				"method": "rhf"
			},
			{
				"type": "occ",
				"energy": -0.23396,
				"method": "rhf"
			},
			{
				"type": "occ",
				"energy": -0.2148,
				"method": "rhf"
			},
			{
				"type": "unocc",
				"energy": -0.04106,
				"method": "rhf"
			},
			{
				"type": "unocc",
				"energy": -0.00328,
				"method": "rhf"
			},
			{
				"type": "unocc",
				"energy": 0.03031,
				"method": "rhf"
			},
			{
				"type": "unocc",
				"energy": 0.09316,
				"method": "rhf"
			},
			{
				"type": "unocc",
				"energy": 0.09695,
				"method": "rhf"
			}
		],
		"cosmo_sigma_profile": { 
			"-0.025": 0.0,
			"-0.024": 0.0,
			"-0.023": 0.0,
			"-0.022": 0.0,
			"-0.021": 0.0,
			"-0.02": 0.0,
			"-0.019": 0.0,
			"-0.018": 0.0,
			"-0.017": 0.305490269525,
			"-0.016": 0.794097636576,
			"-0.015": 0.705597653041,
			"-0.014": 0.574921735266,
			"-0.013": 1.23865591254,
			"-0.012": 0.260347301733,
			"-0.011": 0.55697814304,
			"-0.01": 0.354166444186,
			"-0.009": 0.696713931983,
			"-0.008": 0.807508725403,
			"-0.007": 0.839738914098,
			"-0.006": 4.51927094085,
			"-0.005": 14.7817864359,
			"-0.004": 19.5177060813,
			"-0.003": 19.2833729054,
			"-0.002": 18.9632970851,
			"-0.001": 18.6546150674,
			"0.0": 19.302868503,
			"0.001": 17.0563773858,
			"0.002": 17.9656415567,
			"0.003": 15.5205406809,
			"0.004": 14.5228095942,
			"0.005": 11.298845289,
			"0.006": 3.23971630759,
			"0.007": 2.36769457429,
			"0.008": 2.70223544847,
			"0.009": 2.80044270693,
			"0.01": 2.73312998261,
			"0.011": 1.95364999794,
			"0.012": 1.42406166625,
			"0.013": 0.599794555864,
			"0.014": 0.302647971264,
			"0.015": 0.0,
			"0.016": 0.0,
			"0.017": 0.0,
			"0.018": 0.0,
			"0.019": 0.0,
			"0.02": 0.0,
			"0.021": 0.0,
			"0.022": 0.0,
			"0.023": 0.0,
			"0.024": 0.0,
			"0.025": 0.0
		}
	}
}
