{
	 "smiles": "CC1=NN(C(C)=C1CC(O)=O)C1=CN=CC2=NN=NN12", 
	 "Tm": 447.15, 
	 "num_atms": 31, 
	 "gaussian": { 
		 "optdone": 1, 
		 "sigma_profile": "yes", 
		 "theory": "DFT", 
		 "functional": "B3LYP", 
		 "basiset": "6-31G**", 
		 "properties": { 
			 "R2extent": 7666.5732, 
			 "electric_dipole_moment_norm": 6.04064442506, 
			 "electric_quadrupole_moment_norm": 19.3454521899, 
			 "total_energy": -959.429354254, 
			 "HOMO_LUMO_gap": 0.16105, 
			 "cosmo_polarized_energy": -23.6, 
			 "cosmo_cavitation_energy": 36.85, 
			 "cosmo_dispersion_energy": -25.53, 
			 "cosmo_repulsion_energy": 1.96, 
			 "cosmo_total_nonelectrostatic_energy": 13.28, 
			 "SMD_solvation_energy": 3.21 
		},
		"coords": [
			{
				"x": 0.9922847995,
				"y": 1.1147210863,
				"z": -1.396088877,
				"element": "C" 
			},
			{
				"x": 0.1819659746,
				"y": 0.3713611344,
				"z": -0.3790177274,
				"element": "C" 
			},
			{
				"x": -0.8430099766,
				"y": -0.3732965407,
				"z": -0.7612975475,
				"element": "N" 
			},
			{
				"x": -1.3426932944,
				"y": -0.8975642789,
				"z": 0.403826447,
				"element": "N" 
			},
			{
				"x": -0.6377656259,
				"y": -0.486605443,
				"z": 1.5185664094,
				"element": "C" 
			},
			{
				"x": -0.9753910913,
				"y": -0.8904898564,
				"z": 2.9173134421,
				"element": "C" 
			},
			{
				"x": 0.3568943587,
				"y": 0.340372549,
				"z": 1.0386190786,
				"element": "C" 
			},
			{
				"x": 1.4032648651,
				"y": 1.0583243561,
				"z": 1.8340027163,
				"element": "C" 
			},
			{
				"x": 2.4187595864,
				"y": 0.1395608825,
				"z": 2.5002481397,
				"element": "C" 
			},
			{
				"x": 3.5571759904,
				"y": 0.8084408285,
				"z": 2.7968707408,
				"element": "O" 
			},
			{
				"x": 2.2520117106,
				"y": -1.0265134905,
				"z": 2.7799060566,
				"element": "O" 
			},
			{
				"x": -2.4105840351,
				"y": -1.7921522122,
				"z": 0.3367963864,
				"element": "C" 
			},
			{
				"x": -2.4063506707,
				"y": -3.0648505505,
				"z": 0.856858714,
				"element": "C" 
			},
			{
				"x": -3.4669261914,
				"y": -3.9228636429,
				"z": 0.7975510893,
				"element": "N" 
			},
			{
				"x": -4.5589024169,
				"y": -3.5333725029,
				"z": 0.1821562655,
				"element": "C" 
			},
			{
				"x": -4.6592011442,
				"y": -2.2411163046,
				"z": -0.3961119287,
				"element": "C" 
			},
			{
				"x": -5.6287960888,
				"y": -1.5794246861,
				"z": -1.0279804219,
				"element": "N" 
			},
			{
				"x": -5.1277678491,
				"y": -0.3612030824,
				"z": -1.2848055625,
				"element": "N" 
			},
			{
				"x": -3.9010516399,
				"y": -0.2110965002,
				"z": -0.857959031,
				"element": "N" 
			},
			{
				"x": -3.5750888609,
				"y": -1.3983749225,
				"z": -0.2905582682,
				"element": "N" 
			},
			{
				"x": 0.9690670536,
				"y": 2.1951856133,
				"z": -1.2142133995,
				"element": "H" 
			},
			{
				"x": 0.5889757188,
				"y": 0.9274341357,
				"z": -2.3929336792,
				"element": "H" 
			},
			{
				"x": 2.0420188966,
				"y": 0.8006907431,
				"z": -1.3818654551,
				"element": "H" 
			},
			{
				"x": -0.7265316168,
				"y": -0.0782428261,
				"z": 3.6061056325,
				"element": "H" 
			},
			{
				"x": -2.0388530463,
				"y": -1.1154815913,
				"z": 3.0319624725,
				"element": "H" 
			},
			{
				"x": -0.3948007732,
				"y": -1.7634740319,
				"z": 3.2313899887,
				"element": "H" 
			},
			{
				"x": 0.9543051226,
				"y": 1.6475707832,
				"z": 2.6472374744,
				"element": "H" 
			},
			{
				"x": 1.9431032828,
				"y": 1.7798951897,
				"z": 1.2151619804,
				"element": "H" 
			},
			{
				"x": 4.1360404033,
				"y": 0.1748703666,
				"z": 3.2539531616,
				"element": "H" 
			},
			{
				"x": -1.5071944037,
				"y": -3.430110891,
				"z": 1.3405851873,
				"element": "H" 
			},
			{
				"x": -5.4025590382,
				"y": -4.2149943143,
				"z": 0.1213205148,
				"element": "H" 
			}
		],
		 "valence_orbital": [ 
			{
				"type": "occ",
				"energy": -0.29284,
				"method": "rhf"
			},
			{
				"type": "occ",
				"energy": -0.29029,
				"method": "rhf"
			},
			{
				"type": "occ",
				"energy": -0.2813,
				"method": "rhf"
			},
			{
				"type": "occ",
				"energy": -0.25452,
				"method": "rhf"
			},
			{
				"type": "occ",
				"energy": -0.24575,
				"method": "rhf"
			},
			{
				"type": "unocc",
				"energy": -0.0847,
				"method": "rhf"
			},
			{
				"type": "unocc",
				"energy": -0.04848,
				"method": "rhf"
			},
			{
				"type": "unocc",
				"energy": -0.01022,
				"method": "rhf"
			},
			{
				"type": "unocc",
				"energy": -0.00077,
				"method": "rhf"
			},
			{
				"type": "unocc",
				"energy": 0.01905,
				"method": "rhf"
			}
		],
		"cosmo_sigma_profile": { 
			"-0.025": 0.0,
			"-0.024": 0.0,
			"-0.023": 0.0,
			"-0.022": 0.0,
			"-0.021": 0.0,
			"-0.02": 0.0,
			"-0.019": 0.0109982178326,
			"-0.018": 1.00359294731,
			"-0.017": 0.734783651409,
			"-0.016": 1.1238414752,
			"-0.015": 0.725767947491,
			"-0.014": 0.519483587115,
			"-0.013": 0.50279060764,
			"-0.012": 0.740169121883,
			"-0.011": 0.88371080193,
			"-0.01": 3.15285024994,
			"-0.009": 5.92036919685,
			"-0.008": 9.34929135775,
			"-0.007": 14.7599273838,
			"-0.006": 15.2021713005,
			"-0.005": 22.2520607326,
			"-0.004": 24.191610825,
			"-0.003": 21.6835069472,
			"-0.002": 21.9082534214,
			"-0.001": 19.1438762086,
			"0.0": 13.9217390119,
			"0.001": 11.0173242505,
			"0.002": 10.13544502,
			"0.003": 9.58355099911,
			"0.004": 7.92482789227,
			"0.005": 8.51517191474,
			"0.006": 10.4298067944,
			"0.007": 8.92698491342,
			"0.008": 9.89233679937,
			"0.009": 10.2803155561,
			"0.01": 8.11537152866,
			"0.011": 8.95569087589,
			"0.012": 7.43352684243,
			"0.013": 4.41265800146,
			"0.014": 1.47285395853,
			"0.015": 0.120332723518,
			"0.016": 0.0,
			"0.017": 0.0,
			"0.018": 0.0,
			"0.019": 0.0,
			"0.02": 0.0,
			"0.021": 0.0,
			"0.022": 0.0,
			"0.023": 0.0,
			"0.024": 0.0,
			"0.025": 0.0
		}
	}
}
