{
	 "smiles": "CNC(=O)COC1=CC(O)=CC=C1", 
	 "Tm": 397.15, 
	 "num_atms": 24, 
	 "gaussian": { 
		 "optdone": 1, 
		 "sigma_profile": "yes", 
		 "theory": "DFT", 
		 "functional": "B3LYP", 
		 "basiset": "6-31G**", 
		 "properties": { 
			 "R2extent": 3014.9213, 
			 "electric_dipole_moment_norm": 3.09345814583, 
			 "electric_quadrupole_moment_norm": 11.60853668, 
			 "total_energy": -630.00981004, 
			 "HOMO_LUMO_gap": 0.21746, 
			 "cosmo_polarized_energy": -15.72, 
			 "cosmo_cavitation_energy": 28.12, 
			 "cosmo_dispersion_energy": -20.37, 
			 "cosmo_repulsion_energy": 1.65, 
			 "cosmo_total_nonelectrostatic_energy": 9.4, 
			 "SMD_solvation_energy": 5.88 
		},
		"coords": [
			{
				"x": -1.037495516,
				"y": -1.5790330322,
				"z": -3.403547302,
				"element": "C" 
			},
			{
				"x": -0.4416693022,
				"y": -0.5085483168,
				"z": -2.6262207652,
				"element": "N" 
			},
			{
				"x": -1.0689736962,
				"y": 0.6762320728,
				"z": -2.4112882472,
				"element": "C" 
			},
			{
				"x": -2.1618838412,
				"y": 0.9891296654,
				"z": -2.8688384578,
				"element": "O" 
			},
			{
				"x": -0.2687460514,
				"y": 1.6818145251,
				"z": -1.5726941772,
				"element": "C" 
			},
			{
				"x": 0.7722478875,
				"y": 1.1092915368,
				"z": -0.7868108214,
				"element": "O" 
			},
			{
				"x": 0.4447274298,
				"y": 0.5581785822,
				"z": 0.4321714379,
				"element": "C" 
			},
			{
				"x": 1.540033473,
				"y": 0.2164817391,
				"z": 1.2350884287,
				"element": "C" 
			},
			{
				"x": 1.3274505125,
				"y": -0.3587931516,
				"z": 2.4875823777,
				"element": "C" 
			},
			{
				"x": 2.3569268131,
				"y": -0.708960508,
				"z": 3.3134404946,
				"element": "O" 
			},
			{
				"x": 0.0244791618,
				"y": -0.5953326543,
				"z": 2.9473877157,
				"element": "C" 
			},
			{
				"x": -1.0479467651,
				"y": -0.2499867988,
				"z": 2.1341876326,
				"element": "C" 
			},
			{
				"x": -0.8615500303,
				"y": 0.3260472433,
				"z": 0.8718425111,
				"element": "C" 
			},
			{
				"x": -1.2087268081,
				"y": -2.469869901,
				"z": -2.7888656948,
				"element": "H" 
			},
			{
				"x": -1.9945991149,
				"y": -1.2158166478,
				"z": -3.7799483626,
				"element": "H" 
			},
			{
				"x": -0.4004663483,
				"y": -1.8536268518,
				"z": -4.2515032613,
				"element": "H" 
			},
			{
				"x": 0.4471947611,
				"y": -0.6497451214,
				"z": -2.1683258813,
				"element": "H" 
			},
			{
				"x": 0.2287671092,
				"y": 2.3734422629,
				"z": -2.2597643916,
				"element": "H" 
			},
			{
				"x": -0.9719451685,
				"y": 2.2571636449,
				"z": -0.9638057254,
				"element": "H" 
			},
			{
				"x": 2.5421435948,
				"y": 0.4179722911,
				"z": 0.8660099325,
				"element": "H" 
			},
			{
				"x": 3.195253396,
				"y": -0.4861581918,
				"z": 2.8884915208,
				"element": "H" 
			},
			{
				"x": -0.1188550359,
				"y": -1.0418945015,
				"z": 3.9248498988,
				"element": "H" 
			},
			{
				"x": -2.0602443327,
				"y": -0.4344535999,
				"z": 2.4818783086,
				"element": "H" 
			},
			{
				"x": -1.7194221279,
				"y": 0.5662657134,
				"z": 0.2560828287,
				"element": "H" 
			}
		],
		 "valence_orbital": [ 
			{
				"type": "occ",
				"energy": -0.3164,
				"method": "rhf"
			},
			{
				"type": "occ",
				"energy": -0.25467,
				"method": "rhf"
			},
			{
				"type": "occ",
				"energy": -0.25319,
				"method": "rhf"
			},
			{
				"type": "occ",
				"energy": -0.23559,
				"method": "rhf"
			},
			{
				"type": "occ",
				"energy": -0.21949,
				"method": "rhf"
			},
			{
				"type": "unocc",
				"energy": -0.00203,
				"method": "rhf"
			},
			{
				"type": "unocc",
				"energy": 0.01486,
				"method": "rhf"
			},
			{
				"type": "unocc",
				"energy": 0.02705,
				"method": "rhf"
			},
			{
				"type": "unocc",
				"energy": 0.06741,
				"method": "rhf"
			},
			{
				"type": "unocc",
				"energy": 0.09093,
				"method": "rhf"
			}
		],
		"cosmo_sigma_profile": { 
			"-0.025": 0.0,
			"-0.024": 0.0,
			"-0.023": 0.0,
			"-0.022": 0.0,
			"-0.021": 0.0,
			"-0.02": 0.0,
			"-0.019": 0.0,
			"-0.018": 0.454101610454,
			"-0.017": 1.29258439059,
			"-0.016": 0.654379389253,
			"-0.015": 1.25836894356,
			"-0.014": 1.4059525699,
			"-0.013": 1.09760740819,
			"-0.012": 1.29415129,
			"-0.011": 1.77306551774,
			"-0.01": 2.42597119028,
			"-0.009": 1.79164383372,
			"-0.008": 3.7462346861,
			"-0.007": 4.98256735081,
			"-0.006": 10.4771765976,
			"-0.005": 16.936051137,
			"-0.004": 19.0101693207,
			"-0.003": 17.082476163,
			"-0.002": 15.7282295667,
			"-0.001": 12.6882956216,
			"0.0": 10.4273630279,
			"0.001": 10.2134385228,
			"0.002": 11.5912525662,
			"0.003": 11.6469160643,
			"0.004": 15.2750938296,
			"0.005": 12.7849983567,
			"0.006": 8.2537240453,
			"0.007": 3.54740172207,
			"0.008": 3.40959474543,
			"0.009": 3.70534327861,
			"0.01": 2.65083347063,
			"0.011": 3.87014724579,
			"0.012": 2.01860247875,
			"0.013": 3.69836479676,
			"0.014": 5.01761412072,
			"0.015": 0.630123062338,
			"0.016": 0.0,
			"0.017": 0.0,
			"0.018": 0.0,
			"0.019": 0.0,
			"0.02": 0.0,
			"0.021": 0.0,
			"0.022": 0.0,
			"0.023": 0.0,
			"0.024": 0.0,
			"0.025": 0.0
		}
	}
}
