{
	 "smiles": "CC(=O)NC1=CC=C(F)C=C1F", 
	 "Tm": 394.65, 
	 "num_atms": 19, 
	 "gaussian": { 
		 "optdone": 1, 
		 "sigma_profile": "yes", 
		 "theory": "DFT", 
		 "functional": "B3LYP", 
		 "basiset": "6-31G**", 
		 "properties": { 
			 "R2extent": 2697.038, 
			 "electric_dipole_moment_norm": 4.20932376635, 
			 "electric_quadrupole_moment_norm": 14.3953414867, 
			 "total_energy": -638.72497515, 
			 "HOMO_LUMO_gap": 0.21306, 
			 "cosmo_polarized_energy": -14.1, 
			 "cosmo_cavitation_energy": 24.66, 
			 "cosmo_dispersion_energy": -17.64, 
			 "cosmo_repulsion_energy": 1.38, 
			 "cosmo_total_nonelectrostatic_energy": 8.39, 
			 "SMD_solvation_energy": 6.11 
		},
		"coords": [
			{
				"x": 1.7852003743,
				"y": -2.5237623917,
				"z": -2.4874981057,
				"element": "C" 
			},
			{
				"x": 0.9468726745,
				"y": -2.3019325765,
				"z": -1.2379895914,
				"element": "C" 
			},
			{
				"x": 0.1475051645,
				"y": -3.1214041888,
				"z": -0.8234032977,
				"element": "O" 
			},
			{
				"x": 1.140221163,
				"y": -1.0718141245,
				"z": -0.6304073088,
				"element": "N" 
			},
			{
				"x": 0.4488301195,
				"y": -0.6525965435,
				"z": 0.5310981477,
				"element": "C" 
			},
			{
				"x": 1.140418268,
				"y": -0.224667344,
				"z": 1.6693502319,
				"element": "C" 
			},
			{
				"x": 0.4670996603,
				"y": 0.2244233822,
				"z": 2.804800623,
				"element": "C" 
			},
			{
				"x": -0.9228499341,
				"y": 0.2149865114,
				"z": 2.7962576188,
				"element": "C" 
			},
			{
				"x": -1.5905223726,
				"y": 0.6297811936,
				"z": 3.8903358715,
				"element": "F" 
			},
			{
				"x": -1.6522147441,
				"y": -0.2039850885,
				"z": 1.6894668079,
				"element": "C" 
			},
			{
				"x": -0.9521843359,
				"y": -0.616775833,
				"z": 0.562974701,
				"element": "C" 
			},
			{
				"x": -1.6451554378,
				"y": -0.964374048,
				"z": -0.5297768276,
				"element": "F" 
			},
			{
				"x": 1.1855072706,
				"y": -2.2729718264,
				"z": -3.3688977206,
				"element": "H" 
			},
			{
				"x": 2.0437201023,
				"y": -3.5818513377,
				"z": -2.5489691069,
				"element": "H" 
			},
			{
				"x": 2.6991462503,
				"y": -1.9225722096,
				"z": -2.5136184359,
				"element": "H" 
			},
			{
				"x": 1.9087801377,
				"y": -0.4979993268,
				"z": -0.9447059078,
				"element": "H" 
			},
			{
				"x": 2.225980788,
				"y": -0.2539480667,
				"z": 1.6620529263,
				"element": "H" 
			},
			{
				"x": 0.9997887333,
				"y": 0.5588896357,
				"z": 3.6873234491,
				"element": "H" 
			},
			{
				"x": -2.735243882,
				"y": -0.1929258171,
				"z": 1.6912059254,
				"element": "H" 
			}
		],
		 "valence_orbital": [ 
			{
				"type": "occ",
				"energy": -0.35219,
				"method": "rhf"
			},
			{
				"type": "occ",
				"energy": -0.28928,
				"method": "rhf"
			},
			{
				"type": "occ",
				"energy": -0.2622,
				"method": "rhf"
			},
			{
				"type": "occ",
				"energy": -0.25227,
				"method": "rhf"
			},
			{
				"type": "occ",
				"energy": -0.23341,
				"method": "rhf"
			},
			{
				"type": "unocc",
				"energy": -0.02035,
				"method": "rhf"
			},
			{
				"type": "unocc",
				"energy": -0.00746,
				"method": "rhf"
			},
			{
				"type": "unocc",
				"energy": 0.03143,
				"method": "rhf"
			},
			{
				"type": "unocc",
				"energy": 0.06827,
				"method": "rhf"
			},
			{
				"type": "unocc",
				"energy": 0.07652,
				"method": "rhf"
			}
		],
		"cosmo_sigma_profile": { 
			"-0.025": 0.0,
			"-0.024": 0.0,
			"-0.023": 0.0,
			"-0.022": 0.0,
			"-0.021": 0.0,
			"-0.02": 0.0,
			"-0.019": 0.0,
			"-0.018": 0.0,
			"-0.017": 0.0,
			"-0.016": 0.042400569087,
			"-0.015": 1.0658458212,
			"-0.014": 1.42218669909,
			"-0.013": 0.984716300779,
			"-0.012": 1.52404749664,
			"-0.011": 1.42964408749,
			"-0.01": 1.45154327114,
			"-0.009": 2.79535984138,
			"-0.008": 5.06890120534,
			"-0.007": 5.54427981423,
			"-0.006": 10.8975002952,
			"-0.005": 9.96282426684,
			"-0.004": 9.99081795953,
			"-0.003": 11.5555310466,
			"-0.002": 12.4324656451,
			"-0.001": 12.4739250608,
			"0.0": 17.1385311536,
			"0.001": 16.9855693617,
			"0.002": 14.3501235614,
			"0.003": 14.1918438917,
			"0.004": 19.5987749012,
			"0.005": 3.7411812187,
			"0.006": 1.80835514511,
			"0.007": 2.32768056325,
			"0.008": 1.17960143613,
			"0.009": 1.79653128675,
			"0.01": 2.38699819405,
			"0.011": 2.0559056092,
			"0.012": 2.69119171261,
			"0.013": 4.98197181716,
			"0.014": 2.8254362213,
			"0.015": 0.485940097716,
			"0.016": 0.0,
			"0.017": 0.0,
			"0.018": 0.0,
			"0.019": 0.0,
			"0.02": 0.0,
			"0.021": 0.0,
			"0.022": 0.0,
			"0.023": 0.0,
			"0.024": 0.0,
			"0.025": 0.0
		}
	}
}
