{
	 "smiles": "ClC1=CC=CC(CC(=O)C2=CC(=CC=C2)C#N)=C1", 
	 "Tm": 362.35, 
	 "num_atms": 28, 
	 "gaussian": { 
		 "optdone": 1, 
		 "sigma_profile": "yes", 
		 "theory": "DFT", 
		 "functional": "B3LYP", 
		 "basiset": "6-31G**", 
		 "properties": { 
			 "R2extent": 6636.6885, 
			 "electric_dipole_moment_norm": 6.89781803544, 
			 "electric_quadrupole_moment_norm": 15.222358561, 
			 "total_energy": -1167.77728838, 
			 "HOMO_LUMO_gap": 0.17078, 
			 "cosmo_polarized_energy": -15.33, 
			 "cosmo_cavitation_energy": 36.12, 
			 "cosmo_dispersion_energy": -24.82, 
			 "cosmo_repulsion_energy": 1.92, 
			 "cosmo_total_nonelectrostatic_energy": 13.23, 
			 "SMD_solvation_energy": 7.5 
		},
		"coords": [
			{
				"x": 5.0975256137,
				"y": -0.5568256039,
				"z": 1.095710713,
				"element": "Cl" 
			},
			{
				"x": 3.8845730284,
				"y": -1.4448214787,
				"z": 0.1857419511,
				"element": "C" 
			},
			{
				"x": 3.8678058947,
				"y": -2.8385072815,
				"z": 0.2519118176,
				"element": "C" 
			},
			{
				"x": 2.9015862541,
				"y": -3.529155864,
				"z": -0.4782176594,
				"element": "C" 
			},
			{
				"x": 1.9697592567,
				"y": -2.8379404275,
				"z": -1.2543589651,
				"element": "C" 
			},
			{
				"x": 1.9922644304,
				"y": -1.4396618083,
				"z": -1.314888122,
				"element": "C" 
			},
			{
				"x": 0.9970343095,
				"y": -0.6756444185,
				"z": -2.1770274967,
				"element": "C" 
			},
			{
				"x": 0.2981847878,
				"y": 0.447723585,
				"z": -1.4076949304,
				"element": "C" 
			},
			{
				"x": 0.7089381811,
				"y": 1.59374305,
				"z": -1.5014027217,
				"element": "O" 
			},
			{
				"x": -0.8773604015,
				"y": 0.1334787325,
				"z": -0.526837788,
				"element": "C" 
			},
			{
				"x": -1.5380019639,
				"y": 1.2118506407,
				"z": 0.0757135959,
				"element": "C" 
			},
			{
				"x": -2.6446109638,
				"y": 0.9872325506,
				"z": 0.9019307927,
				"element": "C" 
			},
			{
				"x": -3.0926250383,
				"y": -0.3260762684,
				"z": 1.1375054486,
				"element": "C" 
			},
			{
				"x": -2.4298801807,
				"y": -1.3966973782,
				"z": 0.5452164344,
				"element": "C" 
			},
			{
				"x": -1.3305470903,
				"y": -1.1715417458,
				"z": -0.2850807425,
				"element": "C" 
			},
			{
				"x": -3.3261801472,
				"y": 2.0938934798,
				"z": 1.5115268272,
				"element": "C" 
			},
			{
				"x": -3.8848562781,
				"y": 2.9846722207,
				"z": 2.008250312,
				"element": "N" 
			},
			{
				"x": 2.9633128902,
				"y": -0.7398277429,
				"z": -0.5851553769,
				"element": "C" 
			},
			{
				"x": 4.5958415194,
				"y": -3.3646917542,
				"z": 0.8588299631,
				"element": "H" 
			},
			{
				"x": 2.8775161568,
				"y": -4.6142253169,
				"z": -0.4413827843,
				"element": "H" 
			},
			{
				"x": 1.228620485,
				"y": -3.3902878748,
				"z": -1.8262325642,
				"element": "H" 
			},
			{
				"x": 0.2669109595,
				"y": -1.3692841395,
				"z": -2.6046441216,
				"element": "H" 
			},
			{
				"x": 1.5190990189,
				"y": -0.1863481993,
				"z": -3.0049491153,
				"element": "H" 
			},
			{
				"x": -1.1757742763,
				"y": 2.2161975853,
				"z": -0.1124650319,
				"element": "H" 
			},
			{
				"x": -3.9502923223,
				"y": -0.4922205798,
				"z": 1.7807215278,
				"element": "H" 
			},
			{
				"x": -2.7699749318,
				"y": -2.4104322864,
				"z": 0.7311525936,
				"element": "H" 
			},
			{
				"x": -0.8184756788,
				"y": -2.0189603158,
				"z": -0.7265054066,
				"element": "H" 
			},
			{
				"x": 2.9998064866,
				"y": 0.3438586397,
				"z": -0.6210691505,
				"element": "H" 
			}
		],
		 "valence_orbital": [ 
			{
				"type": "occ",
				"energy": -0.28688,
				"method": "rhf"
			},
			{
				"type": "occ",
				"energy": -0.28007,
				"method": "rhf"
			},
			{
				"type": "occ",
				"energy": -0.27653,
				"method": "rhf"
			},
			{
				"type": "occ",
				"energy": -0.26333,
				"method": "rhf"
			},
			{
				"type": "occ",
				"energy": -0.25405,
				"method": "rhf"
			},
			{
				"type": "unocc",
				"energy": -0.08327,
				"method": "rhf"
			},
			{
				"type": "unocc",
				"energy": -0.05826,
				"method": "rhf"
			},
			{
				"type": "unocc",
				"energy": -0.0273,
				"method": "rhf"
			},
			{
				"type": "unocc",
				"energy": -0.02335,
				"method": "rhf"
			},
			{
				"type": "unocc",
				"energy": 0.00549,
				"method": "rhf"
			}
		],
		"cosmo_sigma_profile": { 
			"-0.025": 0.0,
			"-0.024": 0.0,
			"-0.023": 0.0,
			"-0.022": 0.0,
			"-0.021": 0.0,
			"-0.02": 0.0,
			"-0.019": 0.0,
			"-0.018": 0.0,
			"-0.017": 0.0,
			"-0.016": 0.0,
			"-0.015": 0.0,
			"-0.014": 0.0,
			"-0.013": 0.0,
			"-0.012": 0.0,
			"-0.011": 0.00275779416057,
			"-0.01": 0.332868141707,
			"-0.009": 2.32638604296,
			"-0.008": 6.59742930048,
			"-0.007": 15.8045712618,
			"-0.006": 17.4427753503,
			"-0.005": 18.2465284153,
			"-0.004": 16.1546983024,
			"-0.003": 18.6216878737,
			"-0.002": 20.8120702931,
			"-0.001": 21.9794210846,
			"0.0": 27.2506570024,
			"0.001": 25.7606603406,
			"0.002": 20.3497740753,
			"0.003": 19.926059581,
			"0.004": 17.5574926822,
			"0.005": 10.4564615649,
			"0.006": 3.26788879361,
			"0.007": 5.22247977529,
			"0.008": 5.09921871746,
			"0.009": 5.14310783406,
			"0.01": 4.434263167,
			"0.011": 6.56512524579,
			"0.012": 3.4653797817,
			"0.013": 1.1422362802,
			"0.014": 0.0,
			"0.015": 0.0,
			"0.016": 0.0,
			"0.017": 0.0,
			"0.018": 0.0,
			"0.019": 0.0,
			"0.02": 0.0,
			"0.021": 0.0,
			"0.022": 0.0,
			"0.023": 0.0,
			"0.024": 0.0,
			"0.025": 0.0
		}
	}
}
