{
	 "smiles": "ClC1=CC(C2=NNC=C2)=C(Cl)C=C1", 
	 "Tm": 417.15, 
	 "num_atms": 19, 
	 "gaussian": { 
		 "optdone": 1, 
		 "sigma_profile": "yes", 
		 "theory": "DFT", 
		 "functional": "B3LYP", 
		 "basiset": "6-31G**", 
		 "properties": { 
			 "R2extent": 3952.4774, 
			 "electric_dipole_moment_norm": 3.06824857207, 
			 "electric_quadrupole_moment_norm": 18.3903633561, 
			 "total_energy": -1376.44117708, 
			 "HOMO_LUMO_gap": 0.19708, 
			 "cosmo_polarized_energy": -10.32, 
			 "cosmo_cavitation_energy": 27.02, 
			 "cosmo_dispersion_energy": -20.48, 
			 "cosmo_repulsion_energy": 1.61, 
			 "cosmo_total_nonelectrostatic_energy": 8.15, 
			 "SMD_solvation_energy": 3.56 
		},
		"coords": [
			{
				"x": -3.3073613503,
				"y": 2.1598815625,
				"z": 3.190686859,
				"element": "Cl" 
			},
			{
				"x": -2.487469527,
				"y": 1.6207528036,
				"z": 1.7325446159,
				"element": "C" 
			},
			{
				"x": -1.229600529,
				"y": 1.0436255121,
				"z": 1.8326723773,
				"element": "C" 
			},
			{
				"x": -0.536882661,
				"y": 0.6006300856,
				"z": 0.6884222091,
				"element": "C" 
			},
			{
				"x": 0.7943016391,
				"y": -0.0061336427,
				"z": 0.892349555,
				"element": "C" 
			},
			{
				"x": 1.0585567869,
				"y": -0.5744151791,
				"z": 2.0794610119,
				"element": "N" 
			},
			{
				"x": 2.3366873677,
				"y": -0.9738410896,
				"z": 1.9907228441,
				"element": "N" 
			},
			{
				"x": 2.9076879511,
				"y": -0.6842320984,
				"z": 0.7919183106,
				"element": "C" 
			},
			{
				"x": 1.9365829228,
				"y": -0.0522520611,
				"z": 0.0458784445,
				"element": "C" 
			},
			{
				"x": -1.1806002729,
				"y": 0.7662206889,
				"z": -0.5514301114,
				"element": "C" 
			},
			{
				"x": -0.4630415757,
				"y": 0.2074112338,
				"z": -2.0599335865,
				"element": "Cl" 
			},
			{
				"x": -2.4431940323,
				"y": 1.3549236272,
				"z": -0.6458042345,
				"element": "C" 
			},
			{
				"x": -3.108455784,
				"y": 1.7903132995,
				"z": 0.4954405253,
				"element": "C" 
			},
			{
				"x": -0.755859396,
				"y": 0.9214228751,
				"z": 2.7985653852,
				"element": "H" 
			},
			{
				"x": 2.7501360036,
				"y": -1.4562795764,
				"z": 2.7734892411,
				"element": "H" 
			},
			{
				"x": 3.9325723697,
				"y": -0.9408741539,
				"z": 0.567847723,
				"element": "H" 
			},
			{
				"x": 2.0393245986,
				"y": 0.3326109374,
				"z": -0.9543080375,
				"element": "H" 
			},
			{
				"x": -2.9055296215,
				"y": 1.4625365695,
				"z": -1.6205014003,
				"element": "H" 
			},
			{
				"x": -4.0879548898,
				"y": 2.249098606,
				"z": 0.4251782683,
				"element": "H" 
			}
		],
		 "valence_orbital": [ 
			{
				"type": "occ",
				"energy": -0.29909,
				"method": "rhf"
			},
			{
				"type": "occ",
				"energy": -0.29494,
				"method": "rhf"
			},
			{
				"type": "occ",
				"energy": -0.25627,
				"method": "rhf"
			},
			{
				"type": "occ",
				"energy": -0.24703,
				"method": "rhf"
			},
			{
				"type": "occ",
				"energy": -0.2324,
				"method": "rhf"
			},
			{
				"type": "unocc",
				"energy": -0.03532,
				"method": "rhf"
			},
			{
				"type": "unocc",
				"energy": -0.01759,
				"method": "rhf"
			},
			{
				"type": "unocc",
				"energy": 0.01623,
				"method": "rhf"
			},
			{
				"type": "unocc",
				"energy": 0.02317,
				"method": "rhf"
			},
			{
				"type": "unocc",
				"energy": 0.03925,
				"method": "rhf"
			}
		],
		"cosmo_sigma_profile": { 
			"-0.025": 0.0,
			"-0.024": 0.0,
			"-0.023": 0.0,
			"-0.022": 0.0,
			"-0.021": 0.0,
			"-0.02": 0.0,
			"-0.019": 0.0,
			"-0.018": 0.0,
			"-0.017": 1.15646115552,
			"-0.016": 1.73221840703,
			"-0.015": 1.41609530884,
			"-0.014": 0.763932322129,
			"-0.013": 0.750058756479,
			"-0.012": 1.37267253688,
			"-0.011": 1.20937098215,
			"-0.01": 1.33488088169,
			"-0.009": 3.2454165078,
			"-0.008": 4.94283348337,
			"-0.007": 6.183719412,
			"-0.006": 6.56732386995,
			"-0.005": 6.89613789428,
			"-0.004": 8.030339308,
			"-0.003": 8.88947560964,
			"-0.002": 12.0186269609,
			"-0.001": 12.9618129992,
			"0.0": 15.3649479908,
			"0.001": 27.0225884012,
			"0.002": 31.4087645074,
			"0.003": 20.7106958769,
			"0.004": 24.492196953,
			"0.005": 13.1209129934,
			"0.006": 2.25946128379,
			"0.007": 1.7612829126,
			"0.008": 1.45267399564,
			"0.009": 1.27549664107,
			"0.01": 0.391991561149,
			"0.011": 1.5137474274,
			"0.012": 0.779643710323,
			"0.013": 0.500159007384,
			"0.014": 0.740370923877,
			"0.015": 0.0209285782989,
			"0.016": 0.0,
			"0.017": 0.0,
			"0.018": 0.0,
			"0.019": 0.0,
			"0.02": 0.0,
			"0.021": 0.0,
			"0.022": 0.0,
			"0.023": 0.0,
			"0.024": 0.0,
			"0.025": 0.0
		}
	}
}
