{
	 "smiles": "NC1=NN=C(O1)C1=CC2=C(C=CC=C2)C=C1", 
	 "Tm": 548.15, 
	 "num_atms": 25, 
	 "gaussian": { 
		 "optdone": 1, 
		 "sigma_profile": "yes", 
		 "theory": "DFT", 
		 "functional": "B3LYP", 
		 "basiset": "6-31G**", 
		 "properties": { 
			 "R2extent": 4875.2808, 
			 "electric_dipole_moment_norm": 3.9596649631, 
			 "electric_quadrupole_moment_norm": 26.0447788687, 
			 "total_energy": -702.16962805, 
			 "HOMO_LUMO_gap": 0.15776, 
			 "cosmo_polarized_energy": -16.74, 
			 "cosmo_cavitation_energy": 30.08, 
			 "cosmo_dispersion_energy": -22.53, 
			 "cosmo_repulsion_energy": 1.72, 
			 "cosmo_total_nonelectrostatic_energy": 9.27, 
			 "SMD_solvation_energy": 3.32 
		},
		"coords": [
			{
				"x": -1.8522770005,
				"y": 0.6209895134,
				"z": -5.4899964131,
				"element": "N" 
			},
			{
				"x": -1.3203959666,
				"y": -0.1772857646,
				"z": -4.5156887355,
				"element": "C" 
			},
			{
				"x": -0.8948399059,
				"y": -1.4029567171,
				"z": -4.6153714086,
				"element": "N" 
			},
			{
				"x": -0.540858707,
				"y": -1.778167433,
				"z": -3.3170423166,
				"element": "N" 
			},
			{
				"x": -0.7636139768,
				"y": -0.7611899219,
				"z": -2.5445556201,
				"element": "C" 
			},
			{
				"x": -1.2732089843,
				"y": 0.3141976985,
				"z": -3.2519555721,
				"element": "O" 
			},
			{
				"x": -0.546018685,
				"y": -0.6344701915,
				"z": -1.111894866,
				"element": "C" 
			},
			{
				"x": -0.8498419016,
				"y": 0.5324733552,
				"z": -0.4325522847,
				"element": "C" 
			},
			{
				"x": -0.6315135078,
				"y": 0.6401797661,
				"z": 0.9644263686,
				"element": "C" 
			},
			{
				"x": -0.0887643541,
				"y": -0.4810776535,
				"z": 1.6734496743,
				"element": "C" 
			},
			{
				"x": 0.1281761824,
				"y": -0.3697049012,
				"z": 3.0713335001,
				"element": "C" 
			},
			{
				"x": -0.1762365863,
				"y": 0.7949041135,
				"z": 3.7419692167,
				"element": "C" 
			},
			{
				"x": -0.7128823925,
				"y": 1.9032801339,
				"z": 3.0422532807,
				"element": "C" 
			},
			{
				"x": -0.9350668195,
				"y": 1.8270895213,
				"z": 1.6854961163,
				"element": "C" 
			},
			{
				"x": 0.2126524773,
				"y": -1.6674262042,
				"z": 0.9465532453,
				"element": "C" 
			},
			{
				"x": -0.0062329981,
				"y": -1.7492059748,
				"z": -0.4046582387,
				"element": "C" 
			},
			{
				"x": -1.6961271137,
				"y": 1.6129704628,
				"z": -5.3767646665,
				"element": "H" 
			},
			{
				"x": -1.678569306,
				"y": 0.2764539717,
				"z": -6.4240314416,
				"element": "H" 
			},
			{
				"x": -1.2626976056,
				"y": 1.3816913331,
				"z": -0.9682853829,
				"element": "H" 
			},
			{
				"x": 0.5398364684,
				"y": -1.2216811096,
				"z": 3.606300646,
				"element": "H" 
			},
			{
				"x": -0.0055664529,
				"y": 0.8672087743,
				"z": 4.8121440895,
				"element": "H" 
			},
			{
				"x": -0.9491232891,
				"y": 2.8156783708,
				"z": 3.5820324285,
				"element": "H" 
			},
			{
				"x": -1.3472319927,
				"y": 2.676003625,
				"z": 1.1460162005,
				"element": "H" 
			},
			{
				"x": 0.6239385157,
				"y": -2.5185206794,
				"z": 1.4829080787,
				"element": "H" 
			},
			{
				"x": 0.2231639023,
				"y": -2.6527340889,
				"z": -0.9586858989,
				"element": "H" 
			}
		],
		 "valence_orbital": [ 
			{
				"type": "occ",
				"energy": -0.29077,
				"method": "rhf"
			},
			{
				"type": "occ",
				"energy": -0.26895,
				"method": "rhf"
			},
			{
				"type": "occ",
				"energy": -0.26326,
				"method": "rhf"
			},
			{
				"type": "occ",
				"energy": -0.22984,
				"method": "rhf"
			},
			{
				"type": "occ",
				"energy": -0.21141,
				"method": "rhf"
			},
			{
				"type": "unocc",
				"energy": -0.05365,
				"method": "rhf"
			},
			{
				"type": "unocc",
				"energy": -0.02747,
				"method": "rhf"
			},
			{
				"type": "unocc",
				"energy": 0.01927,
				"method": "rhf"
			},
			{
				"type": "unocc",
				"energy": 0.03741,
				"method": "rhf"
			},
			{
				"type": "unocc",
				"energy": 0.05266,
				"method": "rhf"
			}
		],
		"cosmo_sigma_profile": { 
			"-0.025": 0.0,
			"-0.024": 0.0,
			"-0.023": 0.0,
			"-0.022": 0.0,
			"-0.021": 0.0,
			"-0.02": 0.0,
			"-0.019": 0.0,
			"-0.018": 0.0,
			"-0.017": 0.0,
			"-0.016": 0.226315163528,
			"-0.015": 2.20725005364,
			"-0.014": 2.56419472303,
			"-0.013": 2.79104267033,
			"-0.012": 2.28121407162,
			"-0.011": 2.76160008318,
			"-0.01": 1.85242075864,
			"-0.009": 1.65630386086,
			"-0.008": 1.29842102905,
			"-0.007": 4.38597396988,
			"-0.006": 15.2148773706,
			"-0.005": 14.0036996892,
			"-0.004": 17.6033647518,
			"-0.003": 13.1108657782,
			"-0.002": 13.4794924835,
			"-0.001": 13.6180931412,
			"0.0": 14.3575661209,
			"0.001": 15.8793347344,
			"0.002": 19.2098844385,
			"0.003": 30.0229969114,
			"0.004": 18.2447295382,
			"0.005": 7.47361276017,
			"0.006": 3.2360476734,
			"0.007": 2.42137077131,
			"0.008": 2.34691250234,
			"0.009": 2.75766479163,
			"0.01": 2.47302024987,
			"0.011": 2.45605467412,
			"0.012": 3.27684426227,
			"0.013": 3.7470383302,
			"0.014": 2.52717164801,
			"0.015": 1.70875825678,
			"0.016": 0.805817800278,
			"0.017": 0.0428816260488,
			"0.018": 0.0,
			"0.019": 0.0,
			"0.02": 0.0,
			"0.021": 0.0,
			"0.022": 0.0,
			"0.023": 0.0,
			"0.024": 0.0,
			"0.025": 0.0
		}
	}
}
