{
	 "smiles": "CCCC1=NN(C(O)=N1)C1=CC=CC=C1", 
	 "Tm": 419.15, 
	 "num_atms": 28, 
	 "gaussian": { 
		 "optdone": 1, 
		 "sigma_profile": "yes", 
		 "theory": "DFT", 
		 "functional": "B3LYP", 
		 "basiset": "6-31G**", 
		 "properties": { 
			 "R2extent": 4929.2966, 
			 "electric_dipole_moment_norm": 1.36914420351, 
			 "electric_quadrupole_moment_norm": 7.74330342425, 
			 "total_energy": -666.487404986, 
			 "HOMO_LUMO_gap": 0.20491, 
			 "cosmo_polarized_energy": -10.16, 
			 "cosmo_cavitation_energy": 31.8, 
			 "cosmo_dispersion_energy": -23.52, 
			 "cosmo_repulsion_energy": 1.86, 
			 "cosmo_total_nonelectrostatic_energy": 10.15, 
			 "SMD_solvation_energy": 3.4 
		},
		"coords": [
			{
				"x": 0.2995480842,
				"y": 5.0715789441,
				"z": 0.5222662727,
				"element": "C" 
			},
			{
				"x": 0.2950033415,
				"y": 3.6833381624,
				"z": 1.16785123,
				"element": "C" 
			},
			{
				"x": 0.6427681682,
				"y": 2.5654786505,
				"z": 0.1669519437,
				"element": "C" 
			},
			{
				"x": 0.6888733223,
				"y": 1.2090021571,
				"z": 0.7958872303,
				"element": "C" 
			},
			{
				"x": -0.1440847012,
				"y": 0.2426705533,
				"z": 0.4590892052,
				"element": "N" 
			},
			{
				"x": 0.2324812168,
				"y": -0.8032170113,
				"z": 1.2824950039,
				"element": "N" 
			},
			{
				"x": 1.270298462,
				"y": -0.3698764283,
				"z": 2.0458805968,
				"element": "C" 
			},
			{
				"x": 1.8813186858,
				"y": -1.156005146,
				"z": 2.9454344006,
				"element": "O" 
			},
			{
				"x": 1.5876608774,
				"y": 0.8769590282,
				"z": 1.7815236893,
				"element": "N" 
			},
			{
				"x": -0.4201633165,
				"y": -2.0639362699,
				"z": 1.196356139,
				"element": "C" 
			},
			{
				"x": -0.2632249022,
				"y": -3.0348108605,
				"z": 2.1933691922,
				"element": "C" 
			},
			{
				"x": -0.9229911482,
				"y": -4.2573743737,
				"z": 2.065345515,
				"element": "C" 
			},
			{
				"x": -1.740740664,
				"y": -4.5172326667,
				"z": 0.9655768632,
				"element": "C" 
			},
			{
				"x": -1.8969585108,
				"y": -3.5376733966,
				"z": -0.0173376772,
				"element": "C" 
			},
			{
				"x": -1.2408340883,
				"y": -2.3137891633,
				"z": 0.0890467453,
				"element": "C" 
			},
			{
				"x": -0.4295843003,
				"y": 5.1340787006,
				"z": -0.2936727624,
				"element": "H" 
			},
			{
				"x": 1.2841069827,
				"y": 5.3117513528,
				"z": 0.1046035349,
				"element": "H" 
			},
			{
				"x": 0.0493970896,
				"y": 5.8488270416,
				"z": 1.2515114544,
				"element": "H" 
			},
			{
				"x": 1.0129124872,
				"y": 3.6505211633,
				"z": 1.9953787636,
				"element": "H" 
			},
			{
				"x": -0.6908107252,
				"y": 3.4777678056,
				"z": 1.6033160667,
				"element": "H" 
			},
			{
				"x": 1.6216893216,
				"y": 2.779202147,
				"z": -0.2822147425,
				"element": "H" 
			},
			{
				"x": -0.0900686404,
				"y": 2.5390339462,
				"z": -0.6459840511,
				"element": "H" 
			},
			{
				"x": 2.5918728672,
				"y": -0.6184414081,
				"z": 3.3273902154,
				"element": "H" 
			},
			{
				"x": 0.3615335506,
				"y": -2.8410565664,
				"z": 3.0548825522,
				"element": "H" 
			},
			{
				"x": -0.7969468821,
				"y": -5.0076870643,
				"z": 2.8404562922,
				"element": "H" 
			},
			{
				"x": -2.2521574206,
				"y": -5.4707980698,
				"z": 0.8760751904,
				"element": "H" 
			},
			{
				"x": -2.5322044633,
				"y": -3.7250236553,
				"z": -0.8781704253,
				"element": "H" 
			},
			{
				"x": -1.3548946939,
				"y": -1.5443875727,
				"z": -0.6638084388,
				"element": "H" 
			}
		],
		 "valence_orbital": [ 
			{
				"type": "occ",
				"energy": -0.30215,
				"method": "rhf"
			},
			{
				"type": "occ",
				"energy": -0.27546,
				"method": "rhf"
			},
			{
				"type": "occ",
				"energy": -0.2554,
				"method": "rhf"
			},
			{
				"type": "occ",
				"energy": -0.25163,
				"method": "rhf"
			},
			{
				"type": "occ",
				"energy": -0.22363,
				"method": "rhf"
			},
			{
				"type": "unocc",
				"energy": -0.01872,
				"method": "rhf"
			},
			{
				"type": "unocc",
				"energy": -0.00441,
				"method": "rhf"
			},
			{
				"type": "unocc",
				"energy": 0.0435,
				"method": "rhf"
			},
			{
				"type": "unocc",
				"energy": 0.0604,
				"method": "rhf"
			},
			{
				"type": "unocc",
				"energy": 0.06562,
				"method": "rhf"
			}
		],
		"cosmo_sigma_profile": { 
			"-0.025": 0.0,
			"-0.024": 0.0,
			"-0.023": 0.0,
			"-0.022": 0.0,
			"-0.021": 0.0,
			"-0.02": 0.0968906757163,
			"-0.019": 1.04360649988,
			"-0.018": 0.832528622652,
			"-0.017": 0.951866606436,
			"-0.016": 0.640920148789,
			"-0.015": 0.521029792279,
			"-0.014": 0.542123804594,
			"-0.013": 0.738500627483,
			"-0.012": 0.70440880091,
			"-0.011": 0.77898733702,
			"-0.01": 0.716520227867,
			"-0.009": 0.489180287689,
			"-0.008": 1.06046371695,
			"-0.007": 0.993146365808,
			"-0.006": 6.07294820961,
			"-0.005": 10.0015903923,
			"-0.004": 14.3595672792,
			"-0.003": 21.7892896526,
			"-0.002": 26.8299614231,
			"-0.001": 28.1953330207,
			"0.0": 27.1347708508,
			"0.001": 24.6257379995,
			"0.002": 16.8893050924,
			"0.003": 16.4714730761,
			"0.004": 16.1479114136,
			"0.005": 13.4261205283,
			"0.006": 4.02071931162,
			"0.007": 3.94778594272,
			"0.008": 1.97429654532,
			"0.009": 2.74360782175,
			"0.01": 1.70751098247,
			"0.011": 1.81726977697,
			"0.012": 1.96946916413,
			"0.013": 1.01290621932,
			"0.014": 0.62823872738,
			"0.015": 0.504882352385,
			"0.016": 0.0763027566653,
			"0.017": 0.0,
			"0.018": 0.0,
			"0.019": 0.0,
			"0.02": 0.0,
			"0.021": 0.0,
			"0.022": 0.0,
			"0.023": 0.0,
			"0.024": 0.0,
			"0.025": 0.0
		}
	}
}
