{
	 "smiles": "CC1=CC=C(C=C1)C1(CC1)C(O)=O", 
	 "Tm": 385.15, 
	 "num_atms": 25, 
	 "gaussian": { 
		 "optdone": 1, 
		 "sigma_profile": "yes", 
		 "theory": "DFT", 
		 "functional": "B3LYP", 
		 "basiset": "6-31G**", 
		 "properties": { 
			 "R2extent": 2963.4396, 
			 "electric_dipole_moment_norm": 5.31827923393, 
			 "electric_quadrupole_moment_norm": 13.498696107, 
			 "total_energy": -576.843697692, 
			 "HOMO_LUMO_gap": 0.22332, 
			 "cosmo_polarized_energy": -11.44, 
			 "cosmo_cavitation_energy": 28.41, 
			 "cosmo_dispersion_energy": -20.04, 
			 "cosmo_repulsion_energy": 1.58, 
			 "cosmo_total_nonelectrostatic_energy": 9.95, 
			 "SMD_solvation_energy": 5.86 
		},
		"coords": [
			{
				"x": 1.7891018858,
				"y": -3.3496353955,
				"z": -2.936306167,
				"element": "C" 
			},
			{
				"x": 1.4015199405,
				"y": -2.3478375808,
				"z": -1.874764277,
				"element": "C" 
			},
			{
				"x": 1.9908210079,
				"y": -2.3786107478,
				"z": -0.6032782606,
				"element": "C" 
			},
			{
				"x": 1.6118938981,
				"y": -1.4753954437,
				"z": 0.3889296045,
				"element": "C" 
			},
			{
				"x": 0.6260153333,
				"y": -0.506118859,
				"z": 0.1440010381,
				"element": "C" 
			},
			{
				"x": 0.042578052,
				"y": -0.4685260444,
				"z": -1.1322638798,
				"element": "C" 
			},
			{
				"x": 0.4244399878,
				"y": -1.3739341555,
				"z": -2.1216806881,
				"element": "C" 
			},
			{
				"x": 0.2468261745,
				"y": 0.4970807843,
				"z": 1.199661838,
				"element": "C" 
			},
			{
				"x": -0.2438825286,
				"y": 0.0144026015,
				"z": 2.5610384471,
				"element": "C" 
			},
			{
				"x": -1.213463971,
				"y": 0.6425974169,
				"z": 1.6159573204,
				"element": "C" 
			},
			{
				"x": 1.0299776155,
				"y": 1.7925342664,
				"z": 1.257156646,
				"element": "C" 
			},
			{
				"x": 2.0160774836,
				"y": 1.9407222059,
				"z": 0.3428018506,
				"element": "O" 
			},
			{
				"x": 0.8072586668,
				"y": 2.6646407559,
				"z": 2.0659526102,
				"element": "O" 
			},
			{
				"x": 1.6435630832,
				"y": -2.944368044,
				"z": -3.9418974454,
				"element": "H" 
			},
			{
				"x": 1.1807103606,
				"y": -4.2595473814,
				"z": -2.8604736972,
				"element": "H" 
			},
			{
				"x": 2.8363578918,
				"y": -3.6511102795,
				"z": -2.839329132,
				"element": "H" 
			},
			{
				"x": 2.7559893566,
				"y": -3.1200490667,
				"z": -0.3867054863,
				"element": "H" 
			},
			{
				"x": 2.0811141832,
				"y": -1.5203106502,
				"z": 1.3682510238,
				"element": "H" 
			},
			{
				"x": -0.7191744819,
				"y": 0.2764813875,
				"z": -1.3465512911,
				"element": "H" 
			},
			{
				"x": -0.0444552604,
				"y": -1.3238471383,
				"z": -3.1013094358,
				"element": "H" 
			},
			{
				"x": -0.2877929146,
				"y": -1.0601042358,
				"z": 2.7075708928,
				"element": "H" 
			},
			{
				"x": 0.0747465824,
				"y": 0.5983046986,
				"z": 3.4175402031,
				"element": "H" 
			},
			{
				"x": -1.5489873743,
				"y": 1.6503632942,
				"z": 1.8347797283,
				"element": "H" 
			},
			{
				"x": -1.928362748,
				"y": 0.0027961113,
				"z": 1.1084786462,
				"element": "H" 
			},
			{
				"x": 2.0530277753,
				"y": 1.1507715003,
				"z": -0.2203600889,
				"element": "H" 
			}
		],
		 "valence_orbital": [ 
			{
				"type": "occ",
				"energy": -0.31092,
				"method": "rhf"
			},
			{
				"type": "occ",
				"energy": -0.28928,
				"method": "rhf"
			},
			{
				"type": "occ",
				"energy": -0.27464,
				"method": "rhf"
			},
			{
				"type": "occ",
				"energy": -0.26551,
				"method": "rhf"
			},
			{
				"type": "occ",
				"energy": -0.24462,
				"method": "rhf"
			},
			{
				"type": "unocc",
				"energy": -0.0213,
				"method": "rhf"
			},
			{
				"type": "unocc",
				"energy": -0.01897,
				"method": "rhf"
			},
			{
				"type": "unocc",
				"energy": 0.0175,
				"method": "rhf"
			},
			{
				"type": "unocc",
				"energy": 0.08759,
				"method": "rhf"
			},
			{
				"type": "unocc",
				"energy": 0.09628,
				"method": "rhf"
			}
		],
		"cosmo_sigma_profile": { 
			"-0.025": 0.0,
			"-0.024": 0.0,
			"-0.023": 0.0,
			"-0.022": 0.0,
			"-0.021": 0.0,
			"-0.02": 0.0,
			"-0.019": 0.0,
			"-0.018": 0.0,
			"-0.017": 0.0,
			"-0.016": 0.0,
			"-0.015": 0.0,
			"-0.014": 0.366341887815,
			"-0.013": 0.160537132185,
			"-0.012": 0.565520529499,
			"-0.011": 0.452237056867,
			"-0.01": 1.32687671087,
			"-0.009": 0.49504336536,
			"-0.008": 0.986197425226,
			"-0.007": 1.02736608515,
			"-0.006": 5.96573517583,
			"-0.005": 17.5707686926,
			"-0.004": 25.1199747385,
			"-0.003": 24.6077876267,
			"-0.002": 23.260947126,
			"-0.001": 23.3827229331,
			"0.0": 21.3695195828,
			"0.001": 12.8108461272,
			"0.002": 9.69852690469,
			"0.003": 11.7777407969,
			"0.004": 8.8307206058,
			"0.005": 7.47949885946,
			"0.006": 2.9536044344,
			"0.007": 2.04174081987,
			"0.008": 2.20323720717,
			"0.009": 3.66201143194,
			"0.01": 3.7783456103,
			"0.011": 4.34674838769,
			"0.012": 4.96983662375,
			"0.013": 3.07431394317,
			"0.014": 0.624911491251,
			"0.015": 0.0,
			"0.016": 0.0,
			"0.017": 0.0,
			"0.018": 0.0,
			"0.019": 0.0,
			"0.02": 0.0,
			"0.021": 0.0,
			"0.022": 0.0,
			"0.023": 0.0,
			"0.024": 0.0,
			"0.025": 0.0
		}
	}
}
