{
	 "smiles": "CN1C(=O)CC2=C1C=CC(N)=C2", 
	 "Tm": 383.15, 
	 "num_atms": 22, 
	 "gaussian": { 
		 "optdone": 1, 
		 "sigma_profile": "yes", 
		 "theory": "DFT", 
		 "functional": "B3LYP", 
		 "basiset": "6-31G**", 
		 "properties": { 
			 "R2extent": 2535.0344, 
			 "electric_dipole_moment_norm": 4.07092322944, 
			 "electric_quadrupole_moment_norm": 12.5638377875, 
			 "total_energy": -533.735698922, 
			 "HOMO_LUMO_gap": 0.17689, 
			 "cosmo_polarized_energy": -13.72, 
			 "cosmo_cavitation_energy": 25.36, 
			 "cosmo_dispersion_energy": -18.91, 
			 "cosmo_repulsion_energy": 1.5, 
			 "cosmo_total_nonelectrostatic_energy": 7.95, 
			 "SMD_solvation_energy": 4.73 
		},
		"coords": [
			{
				"x": -0.4734235844,
				"y": 3.838189777,
				"z": 0.5595270564,
				"element": "C" 
			},
			{
				"x": -0.9043880294,
				"y": 2.4800411013,
				"z": 0.3150210605,
				"element": "N" 
			},
			{
				"x": -2.1362194948,
				"y": 2.1653443843,
				"z": -0.2378407801,
				"element": "C" 
			},
			{
				"x": -2.9850780653,
				"y": 2.970917656,
				"z": -0.5790205871,
				"element": "O" 
			},
			{
				"x": -2.2074625995,
				"y": 0.6319034509,
				"z": -0.3292357444,
				"element": "C" 
			},
			{
				"x": -0.8844384381,
				"y": 0.1798706164,
				"z": 0.23269928,
				"element": "C" 
			},
			{
				"x": -0.1539592527,
				"y": 1.3224552148,
				"z": 0.5987505263,
				"element": "C" 
			},
			{
				"x": 1.1162915709,
				"y": 1.2149334245,
				"z": 1.1493206916,
				"element": "C" 
			},
			{
				"x": 1.6544312311,
				"y": -0.0651067278,
				"z": 1.3305826752,
				"element": "C" 
			},
			{
				"x": 0.9415773857,
				"y": -1.2195705164,
				"z": 0.9728497564,
				"element": "C" 
			},
			{
				"x": 1.4702189029,
				"y": -2.4957983801,
				"z": 1.2214988465,
				"element": "N" 
			},
			{
				"x": -0.3483920311,
				"y": -1.0829316408,
				"z": 0.4159597083,
				"element": "C" 
			},
			{
				"x": 0.4379450742,
				"y": 4.0698855649,
				"z": -0.0042258001,
				"element": "H" 
			},
			{
				"x": -1.2792001296,
				"y": 4.4968381459,
				"z": 0.2319408986,
				"element": "H" 
			},
			{
				"x": -0.2786024205,
				"y": 4.0037149143,
				"z": 1.6256717549,
				"element": "H" 
			},
			{
				"x": -3.0736157877,
				"y": 0.2760221528,
				"z": 0.2399275671,
				"element": "H" 
			},
			{
				"x": -2.368571537,
				"y": 0.3391746595,
				"z": -1.3728632605,
				"element": "H" 
			},
			{
				"x": 1.6888026586,
				"y": 2.0922336846,
				"z": 1.43303885,
				"element": "H" 
			},
			{
				"x": 2.6462069235,
				"y": -0.1675156013,
				"z": 1.7637931574,
				"element": "H" 
			},
			{
				"x": 1.1186114556,
				"y": -3.2194218784,
				"z": 0.608395701,
				"element": "H" 
			},
			{
				"x": 2.479988846,
				"y": -2.5256262496,
				"z": 1.2719732065,
				"element": "H" 
			},
			{
				"x": -0.9133226782,
				"y": -1.9705537528,
				"z": 0.1401354355,
				"element": "H" 
			}
		],
		 "valence_orbital": [ 
			{
				"type": "occ",
				"energy": -0.32634,
				"method": "rhf"
			},
			{
				"type": "occ",
				"energy": -0.26134,
				"method": "rhf"
			},
			{
				"type": "occ",
				"energy": -0.24864,
				"method": "rhf"
			},
			{
				"type": "occ",
				"energy": -0.24783,
				"method": "rhf"
			},
			{
				"type": "occ",
				"energy": -0.18422,
				"method": "rhf"
			},
			{
				"type": "unocc",
				"energy": -0.00733,
				"method": "rhf"
			},
			{
				"type": "unocc",
				"energy": 0.01004,
				"method": "rhf"
			},
			{
				"type": "unocc",
				"energy": 0.04485,
				"method": "rhf"
			},
			{
				"type": "unocc",
				"energy": 0.08049,
				"method": "rhf"
			},
			{
				"type": "unocc",
				"energy": 0.10005,
				"method": "rhf"
			}
		],
		"cosmo_sigma_profile": { 
			"-0.025": 0.0,
			"-0.024": 0.0,
			"-0.023": 0.0,
			"-0.022": 0.0,
			"-0.021": 0.0,
			"-0.02": 0.0,
			"-0.019": 0.0,
			"-0.018": 0.0,
			"-0.017": 0.0,
			"-0.016": 0.0,
			"-0.015": 0.0,
			"-0.014": 0.0,
			"-0.013": 0.0424877489197,
			"-0.012": 1.7732522662,
			"-0.011": 2.84047740556,
			"-0.01": 2.11625188975,
			"-0.009": 3.65315890868,
			"-0.008": 3.24555155376,
			"-0.007": 5.49842548459,
			"-0.006": 10.1945957128,
			"-0.005": 17.4892442621,
			"-0.004": 18.4575767935,
			"-0.003": 19.5377312588,
			"-0.002": 16.0624098674,
			"-0.001": 10.7517001689,
			"0.0": 10.5354068269,
			"0.001": 8.26901506848,
			"0.002": 7.45251261244,
			"0.003": 7.74323404876,
			"0.004": 7.68821241486,
			"0.005": 8.98383572217,
			"0.006": 10.5629264499,
			"0.007": 4.922314391,
			"0.008": 1.88604673278,
			"0.009": 2.35875330672,
			"0.01": 2.32397705019,
			"0.011": 2.7977140436,
			"0.012": 2.94482256748,
			"0.013": 5.64060125742,
			"0.014": 3.90758197045,
			"0.015": 1.16678724293,
			"0.016": 0.112399005033,
			"0.017": 0.0,
			"0.018": 0.0,
			"0.019": 0.0,
			"0.02": 0.0,
			"0.021": 0.0,
			"0.022": 0.0,
			"0.023": 0.0,
			"0.024": 0.0,
			"0.025": 0.0
		}
	}
}
