{
	 "smiles": "OC(=O)CC1=CC(Cl)=C(F)C=C1", 
	 "Tm": 330.15, 
	 "num_atms": 18, 
	 "gaussian": { 
		 "optdone": 1, 
		 "sigma_profile": "yes", 
		 "theory": "DFT", 
		 "functional": "B3LYP", 
		 "basiset": "6-31G**", 
		 "properties": { 
			 "R2extent": 3648.9102, 
			 "electric_dipole_moment_norm": 4.14890407939, 
			 "electric_quadrupole_moment_norm": 18.6341759606, 
			 "total_energy": -1018.94531003, 
			 "HOMO_LUMO_gap": 0.22351, 
			 "cosmo_polarized_energy": -16.79, 
			 "cosmo_cavitation_energy": 25.29, 
			 "cosmo_dispersion_energy": -18.43, 
			 "cosmo_repulsion_energy": 1.47, 
			 "cosmo_total_nonelectrostatic_energy": 8.33, 
			 "SMD_solvation_energy": 5.65 
		},
		"coords": [
			{
				"x": 3.197786696,
				"y": 0.9501597335,
				"z": -1.3185919183,
				"element": "O" 
			},
			{
				"x": 1.9948361772,
				"y": 0.6752690292,
				"z": -0.7475582319,
				"element": "C" 
			},
			{
				"x": 1.8357218587,
				"y": 0.8387611183,
				"z": 0.4336565594,
				"element": "O" 
			},
			{
				"x": 0.913044189,
				"y": 0.2151577697,
				"z": -1.7329178795,
				"element": "C" 
			},
			{
				"x": -0.3193725682,
				"y": -0.3800549608,
				"z": -1.0925894797,
				"element": "C" 
			},
			{
				"x": -0.7331876787,
				"y": -1.6680058094,
				"z": -1.4449751715,
				"element": "C" 
			},
			{
				"x": -1.8828185219,
				"y": -2.2254862675,
				"z": -0.8845648677,
				"element": "C" 
			},
			{
				"x": -2.4002298887,
				"y": -3.8330615943,
				"z": -1.3288367905,
				"element": "Cl" 
			},
			{
				"x": -2.6220608281,
				"y": -1.488270771,
				"z": 0.0392192814,
				"element": "C" 
			},
			{
				"x": -3.7290849161,
				"y": -2.0147142899,
				"z": 0.5835810215,
				"element": "F" 
			},
			{
				"x": -2.2223427157,
				"y": -0.2069154221,
				"z": 0.4035994357,
				"element": "C" 
			},
			{
				"x": -1.0758509248,
				"y": 0.3447132276,
				"z": -0.1609936524,
				"element": "C" 
			},
			{
				"x": 3.1781189052,
				"y": 0.7605952126,
				"z": -2.2673203736,
				"element": "H" 
			},
			{
				"x": 1.3518366426,
				"y": -0.5017214216,
				"z": -2.4372404677,
				"element": "H" 
			},
			{
				"x": 0.6462122954,
				"y": 1.0999566686,
				"z": -2.3300708048,
				"element": "H" 
			},
			{
				"x": -0.1665095316,
				"y": -2.2543879263,
				"z": -2.1612916205,
				"element": "H" 
			},
			{
				"x": -2.8174683224,
				"y": 0.3376407001,
				"z": 1.1286273115,
				"element": "H" 
			},
			{
				"x": -0.7567308679,
				"y": 1.3361650033,
				"z": 0.1385676485,
				"element": "H" 
			}
		],
		 "valence_orbital": [ 
			{
				"type": "occ",
				"energy": -0.32734,
				"method": "rhf"
			},
			{
				"type": "occ",
				"energy": -0.32012,
				"method": "rhf"
			},
			{
				"type": "occ",
				"energy": -0.28661,
				"method": "rhf"
			},
			{
				"type": "occ",
				"energy": -0.26398,
				"method": "rhf"
			},
			{
				"type": "occ",
				"energy": -0.24834,
				"method": "rhf"
			},
			{
				"type": "unocc",
				"energy": -0.02483,
				"method": "rhf"
			},
			{
				"type": "unocc",
				"energy": -0.01654,
				"method": "rhf"
			},
			{
				"type": "unocc",
				"energy": -0.00055,
				"method": "rhf"
			},
			{
				"type": "unocc",
				"energy": 0.01851,
				"method": "rhf"
			},
			{
				"type": "unocc",
				"energy": 0.04327,
				"method": "rhf"
			}
		],
		"cosmo_sigma_profile": { 
			"-0.025": 0.0,
			"-0.024": 0.0,
			"-0.023": 0.0,
			"-0.022": 0.0,
			"-0.021": 0.0,
			"-0.02": 0.0768668415526,
			"-0.019": 0.871559032194,
			"-0.018": 1.26492519003,
			"-0.017": 1.09037048887,
			"-0.016": 1.23611854551,
			"-0.015": 1.28402197129,
			"-0.014": 0.894259917866,
			"-0.013": 1.04679848495,
			"-0.012": 1.40719112774,
			"-0.011": 1.29118486394,
			"-0.01": 1.20116326524,
			"-0.009": 3.17365512998,
			"-0.008": 8.44501257038,
			"-0.007": 8.36749476395,
			"-0.006": 9.36220149396,
			"-0.005": 8.68129214567,
			"-0.004": 6.09533469511,
			"-0.003": 6.87962939885,
			"-0.002": 7.6300063122,
			"-0.001": 12.0428062999,
			"0.0": 14.313578108,
			"0.001": 15.8674719822,
			"0.002": 18.1914139201,
			"0.003": 18.6402880991,
			"0.004": 19.3109432155,
			"0.005": 7.44763785526,
			"0.006": 3.20340037923,
			"0.007": 2.75930515876,
			"0.008": 3.16956739943,
			"0.009": 3.70872559707,
			"0.01": 5.14436468821,
			"0.011": 5.76776603844,
			"0.012": 3.75739991178,
			"0.013": 0.962303230882,
			"0.014": 0.0,
			"0.015": 0.0,
			"0.016": 0.0,
			"0.017": 0.0,
			"0.018": 0.0,
			"0.019": 0.0,
			"0.02": 0.0,
			"0.021": 0.0,
			"0.022": 0.0,
			"0.023": 0.0,
			"0.024": 0.0,
			"0.025": 0.0
		}
	}
}
