{
	 "smiles": "CC(C)(C)OC(=O)NC1=CC(N)=C(F)C=C1", 
	 "Tm": 396.15, 
	 "num_atms": 31, 
	 "gaussian": { 
		 "optdone": 1, 
		 "sigma_profile": "yes", 
		 "theory": "DFT", 
		 "functional": "B3LYP", 
		 "basiset": "6-31G**", 
		 "properties": { 
			 "R2extent": 5661.9787, 
			 "electric_dipole_moment_norm": 2.41582915166, 
			 "electric_quadrupole_moment_norm": 8.82523966927, 
			 "total_energy": -788.037186754, 
			 "HOMO_LUMO_gap": 0.19806, 
			 "cosmo_polarized_energy": -12.92, 
			 "cosmo_cavitation_energy": 34.34, 
			 "cosmo_dispersion_energy": -23.95, 
			 "cosmo_repulsion_energy": 1.84, 
			 "cosmo_total_nonelectrostatic_energy": 12.23, 
			 "SMD_solvation_energy": 7.3 
		},
		"coords": [
			{
				"x": 1.4463162151,
				"y": 2.1899716498,
				"z": -1.0144081072,
				"element": "C" 
			},
			{
				"x": 0.7987390545,
				"y": 1.8327490139,
				"z": 0.3269239275,
				"element": "C" 
			},
			{
				"x": -0.708782855,
				"y": 2.0961549151,
				"z": 0.2890294604,
				"element": "C" 
			},
			{
				"x": 1.4483841471,
				"y": 2.5653471624,
				"z": 1.5048744225,
				"element": "C" 
			},
			{
				"x": 0.8624043765,
				"y": 0.3726334725,
				"z": 0.5443853525,
				"element": "O" 
			},
			{
				"x": 2.0512911078,
				"y": -0.2534158411,
				"z": 0.6350497992,
				"element": "C" 
			},
			{
				"x": 3.1509437312,
				"y": 0.2723073325,
				"z": 0.5593961314,
				"element": "O" 
			},
			{
				"x": 1.932336334,
				"y": -1.6129918114,
				"z": 0.8337787745,
				"element": "N" 
			},
			{
				"x": 0.8489231462,
				"y": -2.5085357008,
				"z": 0.9642469193,
				"element": "C" 
			},
			{
				"x": -0.4969629513,
				"y": -2.1383681707,
				"z": 0.8439857531,
				"element": "C" 
			},
			{
				"x": -1.5142653531,
				"y": -3.0935387014,
				"z": 0.9833026031,
				"element": "C" 
			},
			{
				"x": -2.8582122468,
				"y": -2.7734865914,
				"z": 0.8156291608,
				"element": "N" 
			},
			{
				"x": -1.1459998546,
				"y": -4.4197427446,
				"z": 1.2444228964,
				"element": "C" 
			},
			{
				"x": -2.1449521718,
				"y": -5.3331560746,
				"z": 1.3958084958,
				"element": "F" 
			},
			{
				"x": 0.1760811562,
				"y": -4.8036428795,
				"z": 1.363467998,
				"element": "C" 
			},
			{
				"x": 1.1819785369,
				"y": -3.8492699518,
				"z": 1.2227483006,
				"element": "C" 
			},
			{
				"x": 1.2898866991,
				"y": 3.2533077932,
				"z": -1.2231195024,
				"element": "H" 
			},
			{
				"x": 2.5170851593,
				"y": 1.9871797727,
				"z": -0.9981140134,
				"element": "H" 
			},
			{
				"x": 0.9868879027,
				"y": 1.6139680512,
				"z": -1.8238571613,
				"element": "H" 
			},
			{
				"x": -0.8979033801,
				"y": 3.1622411983,
				"z": 0.1331222192,
				"element": "H" 
			},
			{
				"x": -1.1794657416,
				"y": 1.5404002553,
				"z": -0.5275151803,
				"element": "H" 
			},
			{
				"x": -1.1777979076,
				"y": 1.7978854905,
				"z": 1.2315165476,
				"element": "H" 
			},
			{
				"x": 1.291668011,
				"y": 3.6433422497,
				"z": 1.3949341734,
				"element": "H" 
			},
			{
				"x": 0.9905977604,
				"y": 2.2502376187,
				"z": 2.4479145789,
				"element": "H" 
			},
			{
				"x": 2.5191715976,
				"y": 2.3665401866,
				"z": 1.5466097106,
				"element": "H" 
			},
			{
				"x": 2.8489747568,
				"y": -2.0314965916,
				"z": 0.9047721342,
				"element": "H" 
			},
			{
				"x": -0.7603381593,
				"y": -1.1117776979,
				"z": 0.6350416345,
				"element": "H" 
			},
			{
				"x": -3.1062096853,
				"y": -1.8197751319,
				"z": 1.0367381597,
				"element": "H" 
			},
			{
				"x": -3.4964532603,
				"y": -3.4496061192,
				"z": 1.2111641717,
				"element": "H" 
			},
			{
				"x": 0.4101195434,
				"y": -5.8424212395,
				"z": 1.5702923255,
				"element": "H" 
			},
			{
				"x": 2.2229543307,
				"y": -4.1440409148,
				"z": 1.3177583142,
				"element": "H" 
			}
		],
		 "valence_orbital": [ 
			{
				"type": "occ",
				"energy": -0.29565,
				"method": "rhf"
			},
			{
				"type": "occ",
				"energy": -0.28595,
				"method": "rhf"
			},
			{
				"type": "occ",
				"energy": -0.26929,
				"method": "rhf"
			},
			{
				"type": "occ",
				"energy": -0.22429,
				"method": "rhf"
			},
			{
				"type": "occ",
				"energy": -0.19797,
				"method": "rhf"
			},
			{
				"type": "unocc",
				"energy": 9e-05,
				"method": "rhf"
			},
			{
				"type": "unocc",
				"energy": 0.01078,
				"method": "rhf"
			},
			{
				"type": "unocc",
				"energy": 0.06837,
				"method": "rhf"
			},
			{
				"type": "unocc",
				"energy": 0.07478,
				"method": "rhf"
			},
			{
				"type": "unocc",
				"energy": 0.07608,
				"method": "rhf"
			}
		],
		"cosmo_sigma_profile": { 
			"-0.025": 0.0,
			"-0.024": 0.0,
			"-0.023": 0.0,
			"-0.022": 0.0,
			"-0.021": 0.0,
			"-0.02": 0.0,
			"-0.019": 0.0,
			"-0.018": 0.0,
			"-0.017": 0.0,
			"-0.016": 0.0,
			"-0.015": 0.154022487575,
			"-0.014": 0.782919235198,
			"-0.013": 1.47073658441,
			"-0.012": 3.05939064213,
			"-0.011": 3.45271044856,
			"-0.01": 3.52917334112,
			"-0.009": 3.26996383684,
			"-0.008": 4.17944008184,
			"-0.007": 5.23674729131,
			"-0.006": 4.87339324988,
			"-0.005": 5.97265499302,
			"-0.004": 19.5728295199,
			"-0.003": 20.4264527356,
			"-0.002": 20.7238257981,
			"-0.001": 24.7497776611,
			"0.0": 31.0402763887,
			"0.001": 23.5531598442,
			"0.002": 16.5846579283,
			"0.003": 17.0831918655,
			"0.004": 18.9101715449,
			"0.005": 18.6060424435,
			"0.006": 4.20861384782,
			"0.007": 2.06122368068,
			"0.008": 2.50452121651,
			"0.009": 2.38545992634,
			"0.01": 2.11790471215,
			"0.011": 2.15217353027,
			"0.012": 2.52424678488,
			"0.013": 4.21184802751,
			"0.014": 1.10136800517,
			"0.015": 0.0,
			"0.016": 0.0,
			"0.017": 0.0,
			"0.018": 0.0,
			"0.019": 0.0,
			"0.02": 0.0,
			"0.021": 0.0,
			"0.022": 0.0,
			"0.023": 0.0,
			"0.024": 0.0,
			"0.025": 0.0
		}
	}
}
