{
	 "smiles": "CC=C1/CC(=C)C(C)(O)C(=O)OCC2=CCN3CCC(OC1=O)C23", 
	 "Tm": 491.15, 
	 "num_atms": 47, 
	 "gaussian": { 
		 "optdone": 1, 
		 "sigma_profile": "yes", 
		 "theory": "DFT", 
		 "functional": "B3LYP", 
		 "basiset": "6-31G**", 
		 "properties": { 
			 "R2extent": 7516.0783, 
			 "electric_dipole_moment_norm": 1.68416833482, 
			 "electric_quadrupole_moment_norm": 16.8523254879, 
			 "total_energy": -1130.59296989, 
			 "HOMO_LUMO_gap": 0.17317, 
			 "cosmo_polarized_energy": -15.12, 
			 "cosmo_cavitation_energy": 45.55, 
			 "cosmo_dispersion_energy": -30.55, 
			 "cosmo_repulsion_energy": 2.27, 
			 "cosmo_total_nonelectrostatic_energy": 17.27, 
			 "SMD_solvation_energy": 5.86 
		},
		"coords": [
			{
				"x": -3.4450453112,
				"y": -1.5913599158,
				"z": -1.8803530661,
				"element": "C" 
			},
			{
				"x": -2.4288229947,
				"y": -1.3598664322,
				"z": -0.8060093417,
				"element": "C" 
			},
			{
				"x": -2.2489371687,
				"y": -0.2569209657,
				"z": -0.0573701155,
				"element": "C" 
			},
			{
				"x": -3.0593973081,
				"y": 1.0229318177,
				"z": -0.1334799075,
				"element": "C" 
			},
			{
				"x": -2.2541848908,
				"y": 2.2597230181,
				"z": -0.5239131262,
				"element": "C" 
			},
			{
				"x": -2.1212814885,
				"y": 3.2804930604,
				"z": 0.3262683056,
				"element": "C" 
			},
			{
				"x": -1.669469588,
				"y": 2.3676591189,
				"z": -1.9423928367,
				"element": "C" 
			},
			{
				"x": -2.7810171902,
				"y": 2.4810677981,
				"z": -2.9902445623,
				"element": "C" 
			},
			{
				"x": -0.8735046822,
				"y": 3.5435691663,
				"z": -2.0937885771,
				"element": "O" 
			},
			{
				"x": -0.7303469589,
				"y": 1.1891036907,
				"z": -2.3206253721,
				"element": "C" 
			},
			{
				"x": -0.9198697946,
				"y": 0.4068766798,
				"z": -3.2245155699,
				"element": "O" 
			},
			{
				"x": 0.4058742501,
				"y": 1.2224669127,
				"z": -1.5739312124,
				"element": "O" 
			},
			{
				"x": 1.5103060831,
				"y": 0.3971582833,
				"z": -2.0591209636,
				"element": "C" 
			},
			{
				"x": 2.4641439221,
				"y": 0.0705481549,
				"z": -0.955648062,
				"element": "C" 
			},
			{
				"x": 3.702035378,
				"y": 0.5520671387,
				"z": -0.7979510271,
				"element": "C" 
			},
			{
				"x": 4.4192387279,
				"y": -0.1161411295,
				"z": 0.3475195926,
				"element": "C" 
			},
			{
				"x": 3.4749248978,
				"y": -1.1425998171,
				"z": 0.8083286987,
				"element": "N" 
			},
			{
				"x": 3.2006403265,
				"y": -1.2331937167,
				"z": 2.2535326306,
				"element": "C" 
			},
			{
				"x": 1.6877685138,
				"y": -1.5077984106,
				"z": 2.3530618304,
				"element": "C" 
			},
			{
				"x": 1.1611232094,
				"y": -0.7029358185,
				"z": 1.1651633645,
				"element": "C" 
			},
			{
				"x": -0.1337478238,
				"y": -1.0667795039,
				"z": 0.6713278995,
				"element": "O" 
			},
			{
				"x": -1.1474848936,
				"y": -0.2004972682,
				"z": 0.9464614474,
				"element": "C" 
			},
			{
				"x": -1.1153046633,
				"y": 0.5791357704,
				"z": 1.8773543287,
				"element": "O" 
			},
			{
				"x": 2.202071017,
				"y": -1.0022810211,
				"z": 0.0740249177,
				"element": "C" 
			},
			{
				"x": -4.2345616794,
				"y": -0.8374398383,
				"z": -1.9048362309,
				"element": "H" 
			},
			{
				"x": -2.9455840661,
				"y": -1.5864478842,
				"z": -2.8578250273,
				"element": "H" 
			},
			{
				"x": -3.9139061668,
				"y": -2.574893129,
				"z": -1.7627769654,
				"element": "H" 
			},
			{
				"x": -1.7388051008,
				"y": -2.1835845449,
				"z": -0.637538006,
				"element": "H" 
			},
			{
				"x": -3.4980912641,
				"y": 1.2166910674,
				"z": 0.8500253048,
				"element": "H" 
			},
			{
				"x": -3.8890262523,
				"y": 0.8877346351,
				"z": -0.8336333741,
				"element": "H" 
			},
			{
				"x": -1.6020864278,
				"y": 4.1898198894,
				"z": 0.0464903431,
				"element": "H" 
			},
			{
				"x": -2.5379693851,
				"y": 3.2300313436,
				"z": 1.3266459317,
				"element": "H" 
			},
			{
				"x": -3.3950360479,
				"y": 3.3542211697,
				"z": -2.75803832,
				"element": "H" 
			},
			{
				"x": -2.3426053361,
				"y": 2.601281331,
				"z": -3.9827035529,
				"element": "H" 
			},
			{
				"x": -3.409561251,
				"y": 1.5893476579,
				"z": -3.001746512,
				"element": "H" 
			},
			{
				"x": -0.1134431085,
				"y": 3.4390026962,
				"z": -1.502501487,
				"element": "H" 
			},
			{
				"x": 2.0092235436,
				"y": 0.9606916883,
				"z": -2.8537494759,
				"element": "H" 
			},
			{
				"x": 1.0838651827,
				"y": -0.5090136551,
				"z": -2.4968966109,
				"element": "H" 
			},
			{
				"x": 4.1660878213,
				"y": 1.3150749617,
				"z": -1.4161061772,
				"element": "H" 
			},
			{
				"x": 5.3793063607,
				"y": -0.5499273622,
				"z": 0.0259528485,
				"element": "H" 
			},
			{
				"x": 4.6628977803,
				"y": 0.6078327473,
				"z": 1.1467383949,
				"element": "H" 
			},
			{
				"x": 3.4470589054,
				"y": -0.2865559511,
				"z": 2.7642875682,
				"element": "H" 
			},
			{
				"x": 3.797047936,
				"y": -2.0203062934,
				"z": 2.7304420419,
				"element": "H" 
			},
			{
				"x": 1.2571340962,
				"y": -1.1950129939,
				"z": 3.3070442872,
				"element": "H" 
			},
			{
				"x": 1.4690228618,
				"y": -2.5708638771,
				"z": 2.2021830359,
				"element": "H" 
			},
			{
				"x": 1.1485501231,
				"y": 0.3614575729,
				"z": 1.4143561863,
				"element": "H" 
			},
			{
				"x": 1.9035699058,
				"y": -1.944067842,
				"z": -0.4185134785,
				"element": "H" 
			}
		],
		 "valence_orbital": [ 
			{
				"type": "occ",
				"energy": -0.2718,
				"method": "rhf"
			},
			{
				"type": "occ",
				"energy": -0.26018,
				"method": "rhf"
			},
			{
				"type": "occ",
				"energy": -0.25221,
				"method": "rhf"
			},
			{
				"type": "occ",
				"energy": -0.24374,
				"method": "rhf"
			},
			{
				"type": "occ",
				"energy": -0.20844,
				"method": "rhf"
			},
			{
				"type": "unocc",
				"energy": -0.03527,
				"method": "rhf"
			},
			{
				"type": "unocc",
				"energy": -0.00664,
				"method": "rhf"
			},
			{
				"type": "unocc",
				"energy": 0.00042,
				"method": "rhf"
			},
			{
				"type": "unocc",
				"energy": 0.02359,
				"method": "rhf"
			},
			{
				"type": "unocc",
				"energy": 0.06606,
				"method": "rhf"
			}
		],
		"cosmo_sigma_profile": { 
			"-0.025": 0.0,
			"-0.024": 0.0,
			"-0.023": 0.0,
			"-0.022": 0.0,
			"-0.021": 0.0,
			"-0.02": 0.0,
			"-0.019": 0.0,
			"-0.018": 0.0,
			"-0.017": 0.0,
			"-0.016": 0.0,
			"-0.015": 0.0,
			"-0.014": 0.095849479394,
			"-0.013": 0.877046024586,
			"-0.012": 0.590306090674,
			"-0.011": 0.401879735339,
			"-0.01": 0.330388522252,
			"-0.009": 0.572190279192,
			"-0.008": 1.21880013522,
			"-0.007": 3.15462534552,
			"-0.006": 11.3236660115,
			"-0.005": 17.5701276395,
			"-0.004": 36.6297957275,
			"-0.003": 43.7740049342,
			"-0.002": 41.3962291544,
			"-0.001": 41.8042740335,
			"0.0": 31.467474922,
			"0.001": 22.4920828392,
			"0.002": 17.4471467429,
			"0.003": 16.643850902,
			"0.004": 14.3286476269,
			"0.005": 8.99166066956,
			"0.006": 7.81028183862,
			"0.007": 4.66619196237,
			"0.008": 5.77074621601,
			"0.009": 5.77059014165,
			"0.01": 6.02583051829,
			"0.011": 6.54634112164,
			"0.012": 5.40829632637,
			"0.013": 2.01151306548,
			"0.014": 0.373843370742,
			"0.015": 0.592315002588,
			"0.016": 0.163036774996,
			"0.017": 0.0,
			"0.018": 0.0,
			"0.019": 0.0,
			"0.02": 0.0,
			"0.021": 0.0,
			"0.022": 0.0,
			"0.023": 0.0,
			"0.024": 0.0,
			"0.025": 0.0
		}
	}
}
