{
	 "smiles": "CC(C)(C)S", 
	 "Tm": 273.4, 
	 "num_atms": 15, 
	 "gaussian": { 
		 "optdone": 1, 
		 "sigma_profile": "yes", 
		 "theory": "DFT", 
		 "functional": "B3LYP", 
		 "basiset": "6-31G**", 
		 "properties": { 
			 "R2extent": 1406.9721, 
			 "electric_dipole_moment_norm": 1.82561474578, 
			 "electric_quadrupole_moment_norm": 6.7497760748, 
			 "total_energy": -556.65292393, 
			 "HOMO_LUMO_gap": 0.25658, 
			 "cosmo_polarized_energy": -4.13, 
			 "cosmo_cavitation_energy": 18.34, 
			 "cosmo_dispersion_energy": -13.74, 
			 "cosmo_repulsion_energy": 1.13, 
			 "cosmo_total_nonelectrostatic_energy": 5.73, 
			 "SMD_solvation_energy": 2.94 
		},
		"coords": [
			{
				"x": 0.1987675245,
				"y": 1.7853509884,
				"z": -1.7908426839,
				"element": "C" 
			},
			{
				"x": -0.9276065532,
				"y": 0.8360126745,
				"z": -1.3523042806,
				"element": "C" 
			},
			{
				"x": -0.9032466848,
				"y": -0.4489076547,
				"z": -2.1923513416,
				"element": "C" 
			},
			{
				"x": -0.8021674567,
				"y": 0.5099792454,
				"z": 0.142774339,
				"element": "C" 
			},
			{
				"x": -2.5148824993,
				"y": 1.7764494745,
				"z": -1.6698272179,
				"element": "S" 
			},
			{
				"x": 0.18636422,
				"y": 2.7135081173,
				"z": -1.211359947,
				"element": "H" 
			},
			{
				"x": 1.1688678918,
				"y": 1.3005669508,
				"z": -1.6336271717,
				"element": "H" 
			},
			{
				"x": 0.1155384707,
				"y": 2.0398562386,
				"z": -2.8518433741,
				"element": "H" 
			},
			{
				"x": -1.0031215107,
				"y": -0.2268226411,
				"z": -3.2580868869,
				"element": "H" 
			},
			{
				"x": -1.715261333,
				"y": -1.1261283158,
				"z": -1.9080264803,
				"element": "H" 
			},
			{
				"x": 0.0443116154,
				"y": -0.97991908,
				"z": -2.0364559432,
				"element": "H" 
			},
			{
				"x": 0.146999584,
				"y": -0.0061099075,
				"z": 0.3348281847,
				"element": "H" 
			},
			{
				"x": -0.8297876147,
				"y": 1.4188796032,
				"z": 0.7495938227,
				"element": "H" 
			},
			{
				"x": -1.611981698,
				"y": -0.1470408309,
				"z": 0.4764702409,
				"element": "H" 
			},
			{
				"x": -3.3584939562,
				"y": 0.8154251374,
				"z": -1.2399412602,
				"element": "H" 
			}
		],
		 "valence_orbital": [ 
			{
				"type": "occ",
				"energy": -0.36638,
				"method": "rhf"
			},
			{
				"type": "occ",
				"energy": -0.34228,
				"method": "rhf"
			},
			{
				"type": "occ",
				"energy": -0.33899,
				"method": "rhf"
			},
			{
				"type": "occ",
				"energy": -0.30616,
				"method": "rhf"
			},
			{
				"type": "occ",
				"energy": -0.23158,
				"method": "rhf"
			},
			{
				"type": "unocc",
				"energy": 0.025,
				"method": "rhf"
			},
			{
				"type": "unocc",
				"energy": 0.06653,
				"method": "rhf"
			},
			{
				"type": "unocc",
				"energy": 0.0972,
				"method": "rhf"
			},
			{
				"type": "unocc",
				"energy": 0.14186,
				"method": "rhf"
			},
			{
				"type": "unocc",
				"energy": 0.1462,
				"method": "rhf"
			}
		],
		"cosmo_sigma_profile": { 
			"-0.025": 0.0,
			"-0.024": 0.0,
			"-0.023": 0.0,
			"-0.022": 0.0,
			"-0.021": 0.0,
			"-0.02": 0.0,
			"-0.019": 0.0,
			"-0.018": 0.0,
			"-0.017": 0.0,
			"-0.016": 0.0,
			"-0.015": 0.0,
			"-0.014": 0.0,
			"-0.013": 0.0,
			"-0.012": 0.0,
			"-0.011": 0.0,
			"-0.01": 0.0,
			"-0.009": 0.129175064624,
			"-0.008": 1.74821727589,
			"-0.007": 2.01683175279,
			"-0.006": 1.96210540942,
			"-0.005": 3.02496666658,
			"-0.004": 8.39330213727,
			"-0.003": 19.9934430732,
			"-0.002": 16.7342936785,
			"-0.001": 18.2669609892,
			"0.0": 23.0081438928,
			"0.001": 18.353678971,
			"0.002": 3.94972076044,
			"0.003": 2.55173205375,
			"0.004": 3.52929545355,
			"0.005": 3.49405688506,
			"0.006": 4.28424069264,
			"0.007": 3.11075375247,
			"0.008": 2.1624816984,
			"0.009": 2.69542305699,
			"0.01": 2.1318487898,
			"0.011": 1.79673590796,
			"0.012": 0.465672090652,
			"0.013": 0.0,
			"0.014": 0.0,
			"0.015": 0.0,
			"0.016": 0.0,
			"0.017": 0.0,
			"0.018": 0.0,
			"0.019": 0.0,
			"0.02": 0.0,
			"0.021": 0.0,
			"0.022": 0.0,
			"0.023": 0.0,
			"0.024": 0.0,
			"0.025": 0.0
		}
	}
}
