{
	 "smiles": "OC(=O)C1(CCC2=C(C1)C=CC=C2)C#N", 
	 "Tm": 397.15, 
	 "num_atms": 26, 
	 "gaussian": { 
		 "optdone": 1, 
		 "sigma_profile": "yes", 
		 "theory": "DFT", 
		 "functional": "B3LYP", 
		 "basiset": "6-31G**", 
		 "properties": { 
			 "R2extent": 3946.1534, 
			 "electric_dipole_moment_norm": 2.68304844161, 
			 "electric_quadrupole_moment_norm": 12.8667313825, 
			 "total_energy": -669.10537854, 
			 "HOMO_LUMO_gap": 0.22903, 
			 "cosmo_polarized_energy": -13.89, 
			 "cosmo_cavitation_energy": 29.44, 
			 "cosmo_dispersion_energy": -20.85, 
			 "cosmo_repulsion_energy": 1.62, 
			 "cosmo_total_nonelectrostatic_energy": 10.21, 
			 "SMD_solvation_energy": 6.55 
		},
		"coords": [
			{
				"x": -0.712456406,
				"y": 2.1279696592,
				"z": 3.9501514378,
				"element": "O" 
			},
			{
				"x": -0.2286395578,
				"y": 1.1775387637,
				"z": 3.1322122491,
				"element": "C" 
			},
			{
				"x": 0.8392084436,
				"y": 0.657180063,
				"z": 3.3379406368,
				"element": "O" 
			},
			{
				"x": -1.1032135313,
				"y": 0.7307219558,
				"z": 1.9230797294,
				"element": "C" 
			},
			{
				"x": -1.5383999628,
				"y": -0.7450601096,
				"z": 2.1646462774,
				"element": "C" 
			},
			{
				"x": -2.3924195321,
				"y": -1.2732207382,
				"z": 1.009381461,
				"element": "C" 
			},
			{
				"x": -1.8309649145,
				"y": -0.9504933767,
				"z": -0.3632906792,
				"element": "C" 
			},
			{
				"x": -0.8538006017,
				"y": 0.0430561831,
				"z": -0.5400328049,
				"element": "C" 
			},
			{
				"x": -0.2419808798,
				"y": 0.7828303568,
				"z": 0.6341520472,
				"element": "C" 
			},
			{
				"x": -0.4005175476,
				"y": 0.337941462,
				"z": -1.8339829425,
				"element": "C" 
			},
			{
				"x": -0.8953009476,
				"y": -0.3421168331,
				"z": -2.9427622624,
				"element": "C" 
			},
			{
				"x": -1.8646084533,
				"y": -1.3331344557,
				"z": -2.7681079908,
				"element": "C" 
			},
			{
				"x": -2.3243868119,
				"y": -1.6272041906,
				"z": -1.4878848932,
				"element": "C" 
			},
			{
				"x": -2.2875656677,
				"y": 1.5942825643,
				"z": 1.7996912876,
				"element": "C" 
			},
			{
				"x": -3.2076798025,
				"y": 2.3044924358,
				"z": 1.7736230607,
				"element": "N" 
			},
			{
				"x": -1.5687221075,
				"y": 2.4629711251,
				"z": 3.6351295773,
				"element": "H" 
			},
			{
				"x": -0.6126649669,
				"y": -1.3188366956,
				"z": 2.2683560714,
				"element": "H" 
			},
			{
				"x": -2.0830131822,
				"y": -0.8268111713,
				"z": 3.1107077107,
				"element": "H" 
			},
			{
				"x": -2.505347023,
				"y": -2.357833548,
				"z": 1.1193771279,
				"element": "H" 
			},
			{
				"x": -3.4060368274,
				"y": -0.8563519528,
				"z": 1.0875426846,
				"element": "H" 
			},
			{
				"x": 0.7228567252,
				"y": 0.3399354187,
				"z": 0.9061715164,
				"element": "H" 
			},
			{
				"x": -0.0435409831,
				"y": 1.8249937594,
				"z": 0.361789495,
				"element": "H" 
			},
			{
				"x": 0.3521581688,
				"y": 1.1115787676,
				"z": -1.9671170933,
				"element": "H" 
			},
			{
				"x": -0.5308380542,
				"y": -0.0992190136,
				"z": -3.9365100739,
				"element": "H" 
			},
			{
				"x": -2.2595204626,
				"y": -1.8712997302,
				"z": -3.6248237332,
				"element": "H" 
			},
			{
				"x": -3.0820051142,
				"y": -2.3953106989,
				"z": -1.3499398966,
				"element": "H" 
			}
		],
		 "valence_orbital": [ 
			{
				"type": "occ",
				"energy": -0.33721,
				"method": "rhf"
			},
			{
				"type": "occ",
				"energy": -0.32647,
				"method": "rhf"
			},
			{
				"type": "occ",
				"energy": -0.2895,
				"method": "rhf"
			},
			{
				"type": "occ",
				"energy": -0.25338,
				"method": "rhf"
			},
			{
				"type": "occ",
				"energy": -0.24827,
				"method": "rhf"
			},
			{
				"type": "unocc",
				"energy": -0.01924,
				"method": "rhf"
			},
			{
				"type": "unocc",
				"energy": -0.01514,
				"method": "rhf"
			},
			{
				"type": "unocc",
				"energy": -0.00419,
				"method": "rhf"
			},
			{
				"type": "unocc",
				"energy": 0.00857,
				"method": "rhf"
			},
			{
				"type": "unocc",
				"energy": 0.01435,
				"method": "rhf"
			}
		],
		"cosmo_sigma_profile": { 
			"-0.025": 0.0,
			"-0.024": 0.0,
			"-0.023": 0.0,
			"-0.022": 0.0,
			"-0.021": 0.0,
			"-0.02": 0.0,
			"-0.019": 0.0,
			"-0.018": 0.0,
			"-0.017": 0.0,
			"-0.016": 0.174710519688,
			"-0.015": 0.780913519069,
			"-0.014": 0.907411922194,
			"-0.013": 0.987981482924,
			"-0.012": 1.5897267775,
			"-0.011": 2.02738092461,
			"-0.01": 1.87593124746,
			"-0.009": 1.84471195302,
			"-0.008": 4.09571312839,
			"-0.007": 4.154615407,
			"-0.006": 9.74496860478,
			"-0.005": 21.6436622603,
			"-0.004": 23.2057148136,
			"-0.003": 24.7366694205,
			"-0.002": 15.6589601388,
			"-0.001": 10.9547749874,
			"0.0": 11.2947342388,
			"0.001": 9.83440394859,
			"0.002": 10.6480240815,
			"0.003": 9.04083761326,
			"0.004": 11.1283603527,
			"0.005": 12.3109514492,
			"0.006": 10.7292750652,
			"0.007": 5.92614233946,
			"0.008": 6.01738737406,
			"0.009": 7.24772879052,
			"0.01": 6.51910780574,
			"0.011": 6.64074546948,
			"0.012": 2.41147754106,
			"0.013": 0.00444545303188,
			"0.014": 0.0,
			"0.015": 0.0,
			"0.016": 0.0,
			"0.017": 0.0,
			"0.018": 0.0,
			"0.019": 0.0,
			"0.02": 0.0,
			"0.021": 0.0,
			"0.022": 0.0,
			"0.023": 0.0,
			"0.024": 0.0,
			"0.025": 0.0
		}
	}
}
