{
	 "smiles": "CCOC(=O)C1=CC(C)=NC2=CC=C(Br)C=C12", 
	 "Tm": 383.15, 
	 "num_atms": 29, 
	 "gaussian": { 
		 "optdone": 1, 
		 "sigma_profile": "yes", 
		 "theory": "DFT", 
		 "functional": "B3LYP", 
		 "basiset": "6-31G**", 
		 "properties": { 
			 "R2extent": 6901.1546, 
			 "electric_dipole_moment_norm": 3.71417686843, 
			 "electric_quadrupole_moment_norm": 10.9902142591, 
			 "total_energy": -3279.25098825, 
			 "HOMO_LUMO_gap": 0.15265, 
			 "cosmo_polarized_energy": -8.46, 
			 "cosmo_cavitation_energy": 35.41, 
			 "cosmo_dispersion_energy": -26.13, 
			 "cosmo_repulsion_energy": 2.04, 
			 "cosmo_total_nonelectrostatic_energy": 11.33, 
			 "SMD_solvation_energy": 4.4 
		},
		"coords": [
			{
				"x": -3.4946318287,
				"y": -0.0197053273,
				"z": 3.0394453946,
				"element": "C" 
			},
			{
				"x": -3.7552334315,
				"y": 0.1395158249,
				"z": 1.549326663,
				"element": "C" 
			},
			{
				"x": -2.7184721336,
				"y": -0.495443098,
				"z": 0.760778658,
				"element": "O" 
			},
			{
				"x": -1.6079852178,
				"y": 0.2358052146,
				"z": 0.5194432467,
				"element": "C" 
			},
			{
				"x": -1.468898474,
				"y": 1.3748402822,
				"z": 0.9246333797,
				"element": "O" 
			},
			{
				"x": -0.6048632887,
				"y": -0.5283969292,
				"z": -0.2946930276,
				"element": "C" 
			},
			{
				"x": -0.8695086611,
				"y": -1.8389215233,
				"z": -0.6365378227,
				"element": "C" 
			},
			{
				"x": 0.0588512114,
				"y": -2.5952660905,
				"z": -1.4022353915,
				"element": "C" 
			},
			{
				"x": -0.2491934494,
				"y": -4.026452114,
				"z": -1.7636635305,
				"element": "C" 
			},
			{
				"x": 1.2025526107,
				"y": -2.0863726018,
				"z": -1.8186189031,
				"element": "N" 
			},
			{
				"x": 1.4984856882,
				"y": -0.7932778669,
				"z": -1.5009406359,
				"element": "C" 
			},
			{
				"x": 2.7382027162,
				"y": -0.28388682,
				"z": -1.9698317877,
				"element": "C" 
			},
			{
				"x": 3.1221516446,
				"y": 1.0076236531,
				"z": -1.699861856,
				"element": "C" 
			},
			{
				"x": 2.2604886089,
				"y": 1.8316135177,
				"z": -0.9422971768,
				"element": "C" 
			},
			{
				"x": 2.8128459511,
				"y": 3.6251929913,
				"z": -0.5775178958,
				"element": "Br" 
			},
			{
				"x": 1.0490616879,
				"y": 1.3877355025,
				"z": -0.463844723,
				"element": "C" 
			},
			{
				"x": 0.6335092012,
				"y": 0.055157604,
				"z": -0.7322493453,
				"element": "C" 
			},
			{
				"x": -4.3317407831,
				"y": 0.4000488922,
				"z": 3.6069855145,
				"element": "H" 
			},
			{
				"x": -2.5844150056,
				"y": 0.5098221075,
				"z": 3.3305329104,
				"element": "H" 
			},
			{
				"x": -3.3933830204,
				"y": -1.0754044327,
				"z": 3.3076683762,
				"element": "H" 
			},
			{
				"x": -3.814186681,
				"y": 1.1932486268,
				"z": 1.2680938584,
				"element": "H" 
			},
			{
				"x": -4.6719683261,
				"y": -0.370723354,
				"z": 1.2449817731,
				"element": "H" 
			},
			{
				"x": -1.7964705702,
				"y": -2.2988229985,
				"z": -0.3169017259,
				"element": "H" 
			},
			{
				"x": -0.3888622204,
				"y": -4.6389575353,
				"z": -0.8653049696,
				"element": "H" 
			},
			{
				"x": -1.1743098711,
				"y": -4.0955571312,
				"z": -2.3476497533,
				"element": "H" 
			},
			{
				"x": 0.5709138733,
				"y": -4.4422401105,
				"z": -2.3504838398,
				"element": "H" 
			},
			{
				"x": 3.3661610818,
				"y": -0.9536354678,
				"z": -2.5475809416,
				"element": "H" 
			},
			{
				"x": 4.0680678633,
				"y": 1.3979718054,
				"z": -2.0572862367,
				"element": "H" 
			},
			{
				"x": 0.4088308239,
				"y": 2.0363873788,
				"z": 0.1150097881,
				"element": "H" 
			}
		],
		 "valence_orbital": [ 
			{
				"type": "occ",
				"energy": -0.28839,
				"method": "rhf"
			},
			{
				"type": "occ",
				"energy": -0.28449,
				"method": "rhf"
			},
			{
				"type": "occ",
				"energy": -0.25974,
				"method": "rhf"
			},
			{
				"type": "occ",
				"energy": -0.25233,
				"method": "rhf"
			},
			{
				"type": "occ",
				"energy": -0.23269,
				"method": "rhf"
			},
			{
				"type": "unocc",
				"energy": -0.08004,
				"method": "rhf"
			},
			{
				"type": "unocc",
				"energy": -0.02651,
				"method": "rhf"
			},
			{
				"type": "unocc",
				"energy": -0.01053,
				"method": "rhf"
			},
			{
				"type": "unocc",
				"energy": 0.01006,
				"method": "rhf"
			},
			{
				"type": "unocc",
				"energy": 0.04508,
				"method": "rhf"
			}
		],
		"cosmo_sigma_profile": { 
			"-0.025": 0.0,
			"-0.024": 0.0,
			"-0.023": 0.0,
			"-0.022": 0.0,
			"-0.021": 0.0,
			"-0.02": 0.0,
			"-0.019": 0.0,
			"-0.018": 0.0,
			"-0.017": 0.0,
			"-0.016": 0.0,
			"-0.015": 0.0,
			"-0.014": 0.0,
			"-0.013": 0.0,
			"-0.012": 0.0,
			"-0.011": 0.0,
			"-0.01": 0.0,
			"-0.009": 0.0,
			"-0.008": 0.410038826586,
			"-0.007": 3.06329534277,
			"-0.006": 7.75371072606,
			"-0.005": 17.0808514203,
			"-0.004": 23.8257711032,
			"-0.003": 25.143749092,
			"-0.002": 26.6612311551,
			"-0.001": 31.4030978699,
			"0.0": 35.0937392854,
			"0.001": 28.2525099636,
			"0.002": 26.8431289416,
			"0.003": 16.3535059225,
			"0.004": 17.4625560091,
			"0.005": 8.05495664041,
			"0.006": 2.42335246599,
			"0.007": 3.4562990748,
			"0.008": 3.05451378233,
			"0.009": 2.17243652662,
			"0.01": 2.57930466439,
			"0.011": 2.77628199462,
			"0.012": 1.20064728454,
			"0.013": 0.29877665871,
			"0.014": 0.788709136514,
			"0.015": 0.102350050035,
			"0.016": 0.0,
			"0.017": 0.0,
			"0.018": 0.0,
			"0.019": 0.0,
			"0.02": 0.0,
			"0.021": 0.0,
			"0.022": 0.0,
			"0.023": 0.0,
			"0.024": 0.0,
			"0.025": 0.0
		}
	}
}
