{
	 "smiles": "COC1=CC=C(NS(=O)(=O)C2=CC=CS2)C=C1", 
	 "Tm": 394.15, 
	 "num_atms": 28, 
	 "gaussian": { 
		 "optdone": 1, 
		 "sigma_profile": "yes", 
		 "theory": "DFT", 
		 "functional": "B3LYP", 
		 "basiset": "6-31G**", 
		 "properties": { 
			 "R2extent": 6486.5821, 
			 "electric_dipole_moment_norm": 6.99418976937, 
			 "electric_quadrupole_moment_norm": 20.5031211095, 
			 "total_energy": -1502.49206662, 
			 "HOMO_LUMO_gap": 0.16727, 
			 "cosmo_polarized_energy": -17.83, 
			 "cosmo_cavitation_energy": 35.56, 
			 "cosmo_dispersion_energy": -25.67, 
			 "cosmo_repulsion_energy": 1.91, 
			 "cosmo_total_nonelectrostatic_energy": 11.8, 
			 "SMD_solvation_energy": 5.93 
		},
		"coords": [
			{
				"x": -2.8398667559,
				"y": -3.4139754934,
				"z": 0.7911942709,
				"element": "C" 
			},
			{
				"x": -3.2955440218,
				"y": -2.0747339293,
				"z": 0.6864456638,
				"element": "O" 
			},
			{
				"x": -2.5904445498,
				"y": -1.2124797222,
				"z": -0.1011690842,
				"element": "C" 
			},
			{
				"x": -3.0953560782,
				"y": 0.0954875942,
				"z": -0.1777963542,
				"element": "C" 
			},
			{
				"x": -2.4688527651,
				"y": 1.0506002523,
				"z": -0.9649832904,
				"element": "C" 
			},
			{
				"x": -1.29883195,
				"y": 0.7234478943,
				"z": -1.66966255,
				"element": "C" 
			},
			{
				"x": -0.6691028458,
				"y": 1.692635415,
				"z": -2.5064071332,
				"element": "N" 
			},
			{
				"x": 0.0118505879,
				"y": 3.1139795769,
				"z": -1.8786740887,
				"element": "S" 
			},
			{
				"x": -1.0361407481,
				"y": 3.7907303612,
				"z": -1.1194208312,
				"element": "O" 
			},
			{
				"x": 0.6933035114,
				"y": 3.7199940981,
				"z": -3.021907855,
				"element": "O" 
			},
			{
				"x": 1.2535662935,
				"y": 2.6279336173,
				"z": -0.7111642308,
				"element": "C" 
			},
			{
				"x": 1.053574762,
				"y": 2.3712429769,
				"z": 0.6221259858,
				"element": "C" 
			},
			{
				"x": 2.2446858786,
				"y": 1.934813595,
				"z": 1.2691079844,
				"element": "C" 
			},
			{
				"x": 3.3136231634,
				"y": 1.8643488161,
				"z": 0.4142927203,
				"element": "C" 
			},
			{
				"x": 2.9010453585,
				"y": 2.3393880597,
				"z": -1.1980104514,
				"element": "S" 
			},
			{
				"x": -0.7892047106,
				"y": -0.573417917,
				"z": -1.5807184984,
				"element": "C" 
			},
			{
				"x": -1.4352979018,
				"y": -1.5480833239,
				"z": -0.8159393046,
				"element": "C" 
			},
			{
				"x": -3.5426275746,
				"y": -3.9208991828,
				"z": 1.4540609106,
				"element": "H" 
			},
			{
				"x": -2.8363513272,
				"y": -3.9183489727,
				"z": -0.1838523551,
				"element": "H" 
			},
			{
				"x": -1.8329363095,
				"y": -3.4671180519,
				"z": 1.2254345911,
				"element": "H" 
			},
			{
				"x": -3.9980601064,
				"y": 0.3336354613,
				"z": 0.3749808544,
				"element": "H" 
			},
			{
				"x": -2.8707597084,
				"y": 2.0537671446,
				"z": -1.041755835,
				"element": "H" 
			},
			{
				"x": -0.048647954,
				"y": 1.3121181301,
				"z": -3.2146273661,
				"element": "H" 
			},
			{
				"x": 0.0950280137,
				"y": 2.5051326841,
				"z": 1.1075786123,
				"element": "H" 
			},
			{
				"x": 2.305280409,
				"y": 1.6924057965,
				"z": 2.3236419397,
				"element": "H" 
			},
			{
				"x": 4.3326345285,
				"y": 1.5822602541,
				"z": 0.643138957,
				"element": "H" 
			},
			{
				"x": 0.1192516371,
				"y": -0.8344779069,
				"z": -2.117764956,
				"element": "H" 
			},
			{
				"x": -1.023118836,
				"y": -2.5491872275,
				"z": -0.7784483059,
				"element": "H" 
			}
		],
		 "valence_orbital": [ 
			{
				"type": "occ",
				"energy": -0.2978,
				"method": "rhf"
			},
			{
				"type": "occ",
				"energy": -0.27222,
				"method": "rhf"
			},
			{
				"type": "occ",
				"energy": -0.26158,
				"method": "rhf"
			},
			{
				"type": "occ",
				"energy": -0.25552,
				"method": "rhf"
			},
			{
				"type": "occ",
				"energy": -0.21662,
				"method": "rhf"
			},
			{
				"type": "unocc",
				"energy": -0.04935,
				"method": "rhf"
			},
			{
				"type": "unocc",
				"energy": -0.01261,
				"method": "rhf"
			},
			{
				"type": "unocc",
				"energy": -0.00184,
				"method": "rhf"
			},
			{
				"type": "unocc",
				"energy": 0.01215,
				"method": "rhf"
			},
			{
				"type": "unocc",
				"energy": 0.03895,
				"method": "rhf"
			}
		],
		"cosmo_sigma_profile": { 
			"-0.025": 0.0,
			"-0.024": 0.0,
			"-0.023": 0.0,
			"-0.022": 0.0,
			"-0.021": 0.0,
			"-0.02": 0.0,
			"-0.019": 0.0,
			"-0.018": 0.0,
			"-0.017": 0.0,
			"-0.016": 0.248422849021,
			"-0.015": 0.984803814847,
			"-0.014": 1.01466823709,
			"-0.013": 1.13068756516,
			"-0.012": 1.61147083193,
			"-0.011": 1.15112688317,
			"-0.01": 2.10770760282,
			"-0.009": 3.99229593836,
			"-0.008": 5.93065286119,
			"-0.007": 8.16349353712,
			"-0.006": 16.5539154157,
			"-0.005": 22.4798075817,
			"-0.004": 18.9534378565,
			"-0.003": 19.3025212082,
			"-0.002": 13.7110133732,
			"-0.001": 13.6036931419,
			"0.0": 15.2084502842,
			"0.001": 20.1056372701,
			"0.002": 26.1172891147,
			"0.003": 24.8509524901,
			"0.004": 19.7137977147,
			"0.005": 9.71757455212,
			"0.006": 6.44432492847,
			"0.007": 4.82263536653,
			"0.008": 5.52981249792,
			"0.009": 6.5891581873,
			"0.01": 9.34293478057,
			"0.011": 7.00374310741,
			"0.012": 0.513732370003,
			"0.013": 0.0,
			"0.014": 0.0,
			"0.015": 0.0,
			"0.016": 0.0,
			"0.017": 0.0,
			"0.018": 0.0,
			"0.019": 0.0,
			"0.02": 0.0,
			"0.021": 0.0,
			"0.022": 0.0,
			"0.023": 0.0,
			"0.024": 0.0,
			"0.025": 0.0
		}
	}
}
