{
	 "smiles": "CC1CCC2=C(C1)SC(NS(=O)(=O)C1=CC(C)=C(Br)C=C1)=C2C(N)=O", 
	 "Tm": 492.15, 
	 "num_atms": 44, 
	 "gaussian": { 
		 "optdone": 1, 
		 "sigma_profile": "yes", 
		 "theory": "DFT", 
		 "functional": "B3LYP", 
		 "basiset": "6-31G**", 
		 "properties": { 
			 "R2extent": 15543.0462, 
			 "electric_dipole_moment_norm": 2.95384118226, 
			 "electric_quadrupole_moment_norm": 25.5385145514, 
			 "total_energy": -4362.17674858, 
			 "HOMO_LUMO_gap": 0.15774, 
			 "cosmo_polarized_energy": -20.35, 
			 "cosmo_cavitation_energy": 50.94, 
			 "cosmo_dispersion_energy": -35.44, 
			 "cosmo_repulsion_energy": 2.68, 
			 "cosmo_total_nonelectrostatic_energy": 18.18, 
			 "SMD_solvation_energy": 6.46 
		},
		"coords": [
			{
				"x": -2.7209901638,
				"y": -2.8998193158,
				"z": -3.0699206775,
				"element": "C" 
			},
			{
				"x": -1.9931359251,
				"y": -2.6941239702,
				"z": -1.7375827092,
				"element": "C" 
			},
			{
				"x": -0.4777103775,
				"y": -2.928554851,
				"z": -1.8619717632,
				"element": "C" 
			},
			{
				"x": 0.2417934131,
				"y": -2.8688075461,
				"z": -0.5044477765,
				"element": "C" 
			},
			{
				"x": -0.2187957471,
				"y": -1.6835700444,
				"z": 0.3112914343,
				"element": "C" 
			},
			{
				"x": -1.3570722576,
				"y": -0.9992842574,
				"z": -0.0031448429,
				"element": "C" 
			},
			{
				"x": -2.2614448569,
				"y": -1.2833261178,
				"z": -1.1708993381,
				"element": "C" 
			},
			{
				"x": -1.6641137414,
				"y": 0.3204599303,
				"z": 1.1085737345,
				"element": "S" 
			},
			{
				"x": -0.2164348408,
				"y": -0.0579543928,
				"z": 2.0130806407,
				"element": "C" 
			},
			{
				"x": 0.1411363902,
				"y": 0.6629626392,
				"z": 3.1593687363,
				"element": "N" 
			},
			{
				"x": 0.0927723617,
				"y": 2.3677122785,
				"z": 3.2732143046,
				"element": "S" 
			},
			{
				"x": 0.6016644217,
				"y": 2.630598816,
				"z": 4.6176675914,
				"element": "O" 
			},
			{
				"x": -1.2408731424,
				"y": 2.770965417,
				"z": 2.8323914153,
				"element": "O" 
			},
			{
				"x": 1.2843090076,
				"y": 2.999726319,
				"z": 2.0925104485,
				"element": "C" 
			},
			{
				"x": 0.8696844254,
				"y": 3.3050833736,
				"z": 0.7959473665,
				"element": "C" 
			},
			{
				"x": 1.7821692051,
				"y": 3.774132403,
				"z": -0.1581874891,
				"element": "C" 
			},
			{
				"x": 1.3246152086,
				"y": 4.1047414605,
				"z": -1.5544664536,
				"element": "C" 
			},
			{
				"x": 3.1159735174,
				"y": 3.9203346768,
				"z": 0.2562508125,
				"element": "C" 
			},
			{
				"x": 4.4299074273,
				"y": 4.5567690621,
				"z": -0.9768399527,
				"element": "Br" 
			},
			{
				"x": 3.5345055203,
				"y": 3.6254722212,
				"z": 1.5546818334,
				"element": "C" 
			},
			{
				"x": 2.6134753171,
				"y": 3.1587830131,
				"z": 2.4876514502,
				"element": "C" 
			},
			{
				"x": 0.4398710884,
				"y": -1.1604128846,
				"z": 1.4876272382,
				"element": "C" 
			},
			{
				"x": 1.7076452421,
				"y": -1.7171325814,
				"z": 2.0257652738,
				"element": "C" 
			},
			{
				"x": 1.8499061624,
				"y": -1.6379587855,
				"z": 3.4169893403,
				"element": "N" 
			},
			{
				"x": 2.600912953,
				"y": -2.1744124191,
				"z": 1.3275143041,
				"element": "O" 
			},
			{
				"x": -3.7971814147,
				"y": -2.7197750547,
				"z": -2.9704361236,
				"element": "H" 
			},
			{
				"x": -2.3381681958,
				"y": -2.2151482575,
				"z": -3.8363820401,
				"element": "H" 
			},
			{
				"x": -2.5857695157,
				"y": -3.9217315921,
				"z": -3.4396423372,
				"element": "H" 
			},
			{
				"x": -2.3863469207,
				"y": -3.4216066708,
				"z": -1.0121158734,
				"element": "H" 
			},
			{
				"x": -0.286782663,
				"y": -3.8992188085,
				"z": -2.3344555421,
				"element": "H" 
			},
			{
				"x": -0.0566302116,
				"y": -2.16653225,
				"z": -2.5328749138,
				"element": "H" 
			},
			{
				"x": 1.3254755297,
				"y": -2.8239116063,
				"z": -0.637305604,
				"element": "H" 
			},
			{
				"x": 0.0475558127,
				"y": -3.7935089202,
				"z": 0.0589751853,
				"element": "H" 
			},
			{
				"x": -2.0993203842,
				"y": -0.5372502661,
				"z": -1.9639906709,
				"element": "H" 
			},
			{
				"x": -3.3158466355,
				"y": -1.1929856413,
				"z": -0.8803120439,
				"element": "H" 
			},
			{
				"x": 0.9787097095,
				"y": 0.2962283298,
				"z": 3.614028473,
				"element": "H" 
			},
			{
				"x": -0.1758739596,
				"y": 3.1946708899,
				"z": 0.5304602895,
				"element": "H" 
			},
			{
				"x": 1.5269242841,
				"y": 5.1527424697,
				"z": -1.7989214825,
				"element": "H" 
			},
			{
				"x": 0.2526552448,
				"y": 3.9253666136,
				"z": -1.6622032132,
				"element": "H" 
			},
			{
				"x": 1.8538141473,
				"y": 3.4978899667,
				"z": -2.2966163843,
				"element": "H" 
			},
			{
				"x": 4.5729141769,
				"y": 3.7664850329,
				"z": 1.8308855932,
				"element": "H" 
			},
			{
				"x": 2.9141001557,
				"y": 2.9431155201,
				"z": 3.5068415283,
				"element": "H" 
			},
			{
				"x": 1.0221983875,
				"y": -1.8424889102,
				"z": 3.9657118209,
				"element": "H" 
			},
			{
				"x": 2.6840018438,
				"y": -2.1101252895,
				"z": 3.7475884172,
				"element": "H" 
			}
		],
		 "valence_orbital": [ 
			{
				"type": "occ",
				"energy": -0.27527,
				"method": "rhf"
			},
			{
				"type": "occ",
				"energy": -0.26526,
				"method": "rhf"
			},
			{
				"type": "occ",
				"energy": -0.26063,
				"method": "rhf"
			},
			{
				"type": "occ",
				"energy": -0.25104,
				"method": "rhf"
			},
			{
				"type": "occ",
				"energy": -0.21326,
				"method": "rhf"
			},
			{
				"type": "unocc",
				"energy": -0.05552,
				"method": "rhf"
			},
			{
				"type": "unocc",
				"energy": -0.03513,
				"method": "rhf"
			},
			{
				"type": "unocc",
				"energy": -0.02936,
				"method": "rhf"
			},
			{
				"type": "unocc",
				"energy": -0.00383,
				"method": "rhf"
			},
			{
				"type": "unocc",
				"energy": 0.00707,
				"method": "rhf"
			}
		],
		"cosmo_sigma_profile": { 
			"-0.025": 0.0,
			"-0.024": 0.0,
			"-0.023": 0.0,
			"-0.022": 0.0,
			"-0.021": 0.0,
			"-0.02": 0.0,
			"-0.019": 0.0,
			"-0.018": 0.0,
			"-0.017": 0.0,
			"-0.016": 0.0,
			"-0.015": 0.264984445516,
			"-0.014": 1.80470083549,
			"-0.013": 2.66175047841,
			"-0.012": 1.83132910935,
			"-0.011": 3.88202917747,
			"-0.01": 3.96888597098,
			"-0.009": 3.19491559418,
			"-0.008": 6.60054131757,
			"-0.007": 8.33955398598,
			"-0.006": 8.10169828907,
			"-0.005": 12.0853113791,
			"-0.004": 18.7036517302,
			"-0.003": 32.9265553529,
			"-0.002": 45.8346413161,
			"-0.001": 47.7404071015,
			"0.0": 42.1022614455,
			"0.001": 43.3775720944,
			"0.002": 26.4813414115,
			"0.003": 23.5052221116,
			"0.004": 18.8646969079,
			"0.005": 7.27519370973,
			"0.006": 6.41827739299,
			"0.007": 5.6711685741,
			"0.008": 5.16525248155,
			"0.009": 7.52971448688,
			"0.01": 10.0195676337,
			"0.011": 5.86989988927,
			"0.012": 3.55683725368,
			"0.013": 3.77484965572,
			"0.014": 0.31772040263,
			"0.015": 0.0,
			"0.016": 0.0,
			"0.017": 0.0,
			"0.018": 0.0,
			"0.019": 0.0,
			"0.02": 0.0,
			"0.021": 0.0,
			"0.022": 0.0,
			"0.023": 0.0,
			"0.024": 0.0,
			"0.025": 0.0
		}
	}
}
