{
	 "smiles": "CC(C)(C)C1=NN(C(=O)C1)C1=CC=CC=C1", 
	 "Tm": 383.65, 
	 "num_atms": 32, 
	 "gaussian": { 
		 "optdone": 1, 
		 "sigma_profile": "yes", 
		 "theory": "DFT", 
		 "functional": "B3LYP", 
		 "basiset": "6-31G**", 
		 "properties": { 
			 "R2extent": 4989.0857, 
			 "electric_dipole_moment_norm": 3.51000592165, 
			 "electric_quadrupole_moment_norm": 7.70144145404, 
			 "total_energy": -689.752152401, 
			 "HOMO_LUMO_gap": 0.1804, 
			 "cosmo_polarized_energy": -10.59, 
			 "cosmo_cavitation_energy": 34.26, 
			 "cosmo_dispersion_energy": -24.28, 
			 "cosmo_repulsion_energy": 1.87, 
			 "cosmo_total_nonelectrostatic_energy": 11.84, 
			 "SMD_solvation_energy": 6.02 
		},
		"coords": [
			{
				"x": -0.0030206266,
				"y": 0.718684183,
				"z": -2.7893235895,
				"element": "C" 
			},
			{
				"x": 0.9469723705,
				"y": 0.2538349207,
				"z": -1.6595608157,
				"element": "C" 
			},
			{
				"x": 1.4085523403,
				"y": -1.1874631507,
				"z": -1.9361699043,
				"element": "C" 
			},
			{
				"x": 2.1777743916,
				"y": 1.1909562857,
				"z": -1.6122171023,
				"element": "C" 
			},
			{
				"x": 0.2148880794,
				"y": 0.334791331,
				"z": -0.3346073957,
				"element": "C" 
			},
			{
				"x": 0.0399408041,
				"y": -0.6973542221,
				"z": 0.4154498414,
				"element": "N" 
			},
			{
				"x": -0.6630200346,
				"y": -0.3158258076,
				"z": 1.565577465,
				"element": "N" 
			},
			{
				"x": -0.9686467984,
				"y": 1.0436863341,
				"z": 1.5749584935,
				"element": "C" 
			},
			{
				"x": -1.5675652393,
				"y": 1.6670907057,
				"z": 2.432997897,
				"element": "O" 
			},
			{
				"x": -0.3846826457,
				"y": 1.5760327254,
				"z": 0.2688863772,
				"element": "C" 
			},
			{
				"x": -0.9658812811,
				"y": -1.3048521524,
				"z": 2.5372536595,
				"element": "C" 
			},
			{
				"x": -0.5567700416,
				"y": -2.6292024347,
				"z": 2.3185451316,
				"element": "C" 
			},
			{
				"x": -0.8485626355,
				"y": -3.6081527884,
				"z": 3.2657625176,
				"element": "C" 
			},
			{
				"x": -1.544415233,
				"y": -3.2878749977,
				"z": 4.4326128118,
				"element": "C" 
			},
			{
				"x": -1.9474204482,
				"y": -1.9686787811,
				"z": 4.6419866007,
				"element": "C" 
			},
			{
				"x": -1.6664761192,
				"y": -0.9721346776,
				"z": 3.707730635,
				"element": "C" 
			},
			{
				"x": -0.3320503268,
				"y": 1.7532219955,
				"z": -2.6459194027,
				"element": "H" 
			},
			{
				"x": -0.8915934132,
				"y": 0.0815994106,
				"z": -2.8456126171,
				"element": "H" 
			},
			{
				"x": 0.5115887407,
				"y": 0.6668437763,
				"z": -3.7544320546,
				"element": "H" 
			},
			{
				"x": 1.9354065287,
				"y": -1.2289757551,
				"z": -2.8950004655,
				"element": "H" 
			},
			{
				"x": 2.0842988929,
				"y": -1.5445345459,
				"z": -1.1545107942,
				"element": "H" 
			},
			{
				"x": 0.5594469602,
				"y": -1.8748097723,
				"z": -1.9781625742,
				"element": "H" 
			},
			{
				"x": 1.8899897608,
				"y": 2.2343115721,
				"z": -1.4458552399,
				"element": "H" 
			},
			{
				"x": 2.7182974312,
				"y": 1.1453221216,
				"z": -2.5633904446,
				"element": "H" 
			},
			{
				"x": 2.8689339296,
				"y": 0.8954470213,
				"z": -0.8162652614,
				"element": "H" 
			},
			{
				"x": -1.173749356,
				"y": 2.0250968896,
				"z": -0.3436852841,
				"element": "H" 
			},
			{
				"x": 0.3484010797,
				"y": 2.3633326444,
				"z": 0.4743736921,
				"element": "H" 
			},
			{
				"x": -0.0174874714,
				"y": -2.8749983701,
				"z": 1.4133403891,
				"element": "H" 
			},
			{
				"x": -0.526641226,
				"y": -4.6300081043,
				"z": 3.0853331081,
				"element": "H" 
			},
			{
				"x": -1.7689569434,
				"y": -4.0552191725,
				"z": 5.1673522944,
				"element": "H" 
			},
			{
				"x": -2.4898890139,
				"y": -1.7021802695,
				"z": 5.5447475218,
				"element": "H" 
			},
			{
				"x": -1.9800624559,
				"y": 0.0489130849,
				"z": 3.8729045103,
				"element": "H" 
			}
		],
		 "valence_orbital": [ 
			{
				"type": "occ",
				"energy": -0.30781,
				"method": "rhf"
			},
			{
				"type": "occ",
				"energy": -0.27657,
				"method": "rhf"
			},
			{
				"type": "occ",
				"energy": -0.25368,
				"method": "rhf"
			},
			{
				"type": "occ",
				"energy": -0.2438,
				"method": "rhf"
			},
			{
				"type": "occ",
				"energy": -0.20961,
				"method": "rhf"
			},
			{
				"type": "unocc",
				"energy": -0.02921,
				"method": "rhf"
			},
			{
				"type": "unocc",
				"energy": -0.00687,
				"method": "rhf"
			},
			{
				"type": "unocc",
				"energy": 0.00741,
				"method": "rhf"
			},
			{
				"type": "unocc",
				"energy": 0.05786,
				"method": "rhf"
			},
			{
				"type": "unocc",
				"energy": 0.06588,
				"method": "rhf"
			}
		],
		"cosmo_sigma_profile": { 
			"-0.025": 0.0,
			"-0.024": 0.0,
			"-0.023": 0.0,
			"-0.022": 0.0,
			"-0.021": 0.0,
			"-0.02": 0.0,
			"-0.019": 0.0,
			"-0.018": 0.0,
			"-0.017": 0.0,
			"-0.016": 0.0,
			"-0.015": 0.0,
			"-0.014": 0.0,
			"-0.013": 0.0,
			"-0.012": 0.0,
			"-0.011": 0.0,
			"-0.01": 0.0,
			"-0.009": 0.285949509328,
			"-0.008": 3.68227066431,
			"-0.007": 4.66812182791,
			"-0.006": 10.7390000217,
			"-0.005": 14.8660290091,
			"-0.004": 18.9697702172,
			"-0.003": 32.8108008568,
			"-0.002": 25.7262863958,
			"-0.001": 22.9645884173,
			"0.0": 25.8097870695,
			"0.001": 25.898870339,
			"0.002": 14.7585331572,
			"0.003": 15.4215737321,
			"0.004": 12.373597589,
			"0.005": 13.3968184997,
			"0.006": 9.78669788499,
			"0.007": 3.84525020139,
			"0.008": 2.44254019574,
			"0.009": 2.03834314783,
			"0.01": 1.64394956704,
			"0.011": 2.84036447807,
			"0.012": 3.38484379963,
			"0.013": 1.84886714514,
			"0.014": 0.139943397125,
			"0.015": 0.0,
			"0.016": 0.0,
			"0.017": 0.0,
			"0.018": 0.0,
			"0.019": 0.0,
			"0.02": 0.0,
			"0.021": 0.0,
			"0.022": 0.0,
			"0.023": 0.0,
			"0.024": 0.0,
			"0.025": 0.0
		}
	}
}
