{
	 "smiles": "OC1=CC=C(Cl)C=C1", 
	 "Tm": 315.65, 
	 "num_atms": 13, 
	 "gaussian": { 
		 "optdone": 1, 
		 "sigma_profile": "yes", 
		 "theory": "DFT", 
		 "functional": "B3LYP", 
		 "basiset": "6-31G**", 
		 "properties": { 
			 "R2extent": 1775.0574, 
			 "electric_dipole_moment_norm": 2.49523677834, 
			 "electric_quadrupole_moment_norm": 14.7556384952, 
			 "total_energy": -767.062965503, 
			 "HOMO_LUMO_gap": 0.20839, 
			 "cosmo_polarized_energy": -8.4, 
			 "cosmo_cavitation_energy": 18.94, 
			 "cosmo_dispersion_energy": -14.47, 
			 "cosmo_repulsion_energy": 1.2, 
			 "cosmo_total_nonelectrostatic_energy": 5.68, 
			 "SMD_solvation_energy": 3.4 
		},
		"coords": [
			{
				"x": -1.1817765442,
				"y": -2.6415960898,
				"z": -1.1864315986,
				"element": "O" 
			},
			{
				"x": -0.2148422388,
				"y": -1.9530019304,
				"z": -0.5122432064,
				"element": "C" 
			},
			{
				"x": -0.090496582,
				"y": -0.5854000778,
				"z": -0.7843054549,
				"element": "C" 
			},
			{
				"x": 0.8764303315,
				"y": 0.1715663002,
				"z": -0.1293735594,
				"element": "C" 
			},
			{
				"x": 1.7210978519,
				"y": -0.4389093307,
				"z": 0.7994532369,
				"element": "C" 
			},
			{
				"x": 2.9436305655,
				"y": 0.5195006237,
				"z": 1.6272132329,
				"element": "Cl" 
			},
			{
				"x": 1.6061823085,
				"y": -1.798856942,
				"z": 1.0778642128,
				"element": "C" 
			},
			{
				"x": 0.636240822,
				"y": -2.5556902925,
				"z": 0.4201772028,
				"element": "C" 
			},
			{
				"x": -1.1653622942,
				"y": -3.5675791906,
				"z": -0.9121369778,
				"element": "H" 
			},
			{
				"x": -0.7570638506,
				"y": -0.1312078034,
				"z": -1.5096242045,
				"element": "H" 
			},
			{
				"x": 0.9755082179,
				"y": 1.2312250216,
				"z": -0.337736368,
				"element": "H" 
			},
			{
				"x": 2.2665701121,
				"y": -2.2646905803,
				"z": 1.8009338815,
				"element": "H" 
			},
			{
				"x": 0.5449813004,
				"y": -3.6179597081,
				"z": 0.6363096028,
				"element": "H" 
			}
		],
		 "valence_orbital": [ 
			{
				"type": "occ",
				"energy": -0.35464,
				"method": "rhf"
			},
			{
				"type": "occ",
				"energy": -0.31113,
				"method": "rhf"
			},
			{
				"type": "occ",
				"energy": -0.30907,
				"method": "rhf"
			},
			{
				"type": "occ",
				"energy": -0.26533,
				"method": "rhf"
			},
			{
				"type": "occ",
				"energy": -0.22369,
				"method": "rhf"
			},
			{
				"type": "unocc",
				"energy": -0.0153,
				"method": "rhf"
			},
			{
				"type": "unocc",
				"energy": 0.00131,
				"method": "rhf"
			},
			{
				"type": "unocc",
				"energy": 0.03094,
				"method": "rhf"
			},
			{
				"type": "unocc",
				"energy": 0.06458,
				"method": "rhf"
			},
			{
				"type": "unocc",
				"energy": 0.1101,
				"method": "rhf"
			}
		],
		"cosmo_sigma_profile": { 
			"-0.025": 0.0,
			"-0.024": 0.0,
			"-0.023": 0.0,
			"-0.022": 0.0,
			"-0.021": 0.0,
			"-0.02": 0.0,
			"-0.019": 0.0534854549587,
			"-0.018": 0.82474751118,
			"-0.017": 0.974056358733,
			"-0.016": 1.21431702791,
			"-0.015": 1.01358821249,
			"-0.014": 0.862413573213,
			"-0.013": 0.614210282418,
			"-0.012": 0.992116304161,
			"-0.011": 1.39942333918,
			"-0.01": 1.32255828925,
			"-0.009": 1.11319519488,
			"-0.008": 1.41315780006,
			"-0.007": 4.84413225682,
			"-0.006": 8.67135597401,
			"-0.005": 7.9780590524,
			"-0.004": 5.54083256649,
			"-0.003": 6.18422886149,
			"-0.002": 6.32753917476,
			"-0.001": 6.83916291813,
			"0.0": 8.83204657135,
			"0.001": 8.83808340561,
			"0.002": 14.2692821466,
			"0.003": 19.5324353179,
			"0.004": 21.5438834449,
			"0.005": 12.0179542464,
			"0.006": 2.87840194809,
			"0.007": 1.2591894399,
			"0.008": 1.41125547676,
			"0.009": 1.38460857368,
			"0.01": 1.6646888967,
			"0.011": 1.84221210675,
			"0.012": 0.236611256849,
			"0.013": 0.0,
			"0.014": 0.0,
			"0.015": 0.0,
			"0.016": 0.0,
			"0.017": 0.0,
			"0.018": 0.0,
			"0.019": 0.0,
			"0.02": 0.0,
			"0.021": 0.0,
			"0.022": 0.0,
			"0.023": 0.0,
			"0.024": 0.0,
			"0.025": 0.0
		}
	}
}
