{
	 "smiles": "CN1CCN(CC1)C1=C(C=C(C=C1)C(O)=O)[N+]([O-])=O", 
	 "Tm": 434.15, 
	 "num_atms": 34, 
	 "gaussian": { 
		 "optdone": 1, 
		 "sigma_profile": "yes", 
		 "theory": "DFT", 
		 "functional": "B3LYP", 
		 "basiset": "6-31G**", 
		 "properties": { 
			 "R2extent": 7268.8383, 
			 "electric_dipole_moment_norm": 5.83111355232, 
			 "electric_quadrupole_moment_norm": 17.4969470351, 
			 "total_energy": -931.357390172, 
			 "HOMO_LUMO_gap": 0.1399, 
			 "cosmo_polarized_energy": -17.33, 
			 "cosmo_cavitation_energy": 36.68, 
			 "cosmo_dispersion_energy": -26.37, 
			 "cosmo_repulsion_energy": 2.0, 
			 "cosmo_total_nonelectrostatic_energy": 12.31, 
			 "SMD_solvation_energy": 6.1 
		},
		"coords": [
			{
				"x": 0.0237400627,
				"y": -4.129612449,
				"z": 0.2606288032,
				"element": "C" 
			},
			{
				"x": 0.8533496975,
				"y": -2.9358861068,
				"z": 0.1864525537,
				"element": "N" 
			},
			{
				"x": 0.69477291,
				"y": -2.2486741154,
				"z": -1.0948520576,
				"element": "C" 
			},
			{
				"x": 1.2688089534,
				"y": -0.8366138231,
				"z": -1.0328302821,
				"element": "C" 
			},
			{
				"x": 0.4994431961,
				"y": -0.025893367,
				"z": -0.0796211113,
				"element": "N" 
			},
			{
				"x": -0.1284978993,
				"y": -0.775643149,
				"z": 1.0190854985,
				"element": "C" 
			},
			{
				"x": 0.7092257049,
				"y": -2.022154664,
				"z": 1.3315626395,
				"element": "C" 
			},
			{
				"x": 0.6239473314,
				"y": 1.3378992806,
				"z": -0.0792253426,
				"element": "C" 
			},
			{
				"x": -0.2609912297,
				"y": 2.2271145277,
				"z": 0.6051864134,
				"element": "C" 
			},
			{
				"x": 0.0096975426,
				"y": 3.5869805694,
				"z": 0.7268354788,
				"element": "C" 
			},
			{
				"x": 1.1187669467,
				"y": 4.1532648514,
				"z": 0.1033501347,
				"element": "C" 
			},
			{
				"x": 1.9544547459,
				"y": 3.3178863589,
				"z": -0.6593725791,
				"element": "C" 
			},
			{
				"x": 1.716557103,
				"y": 1.9591049688,
				"z": -0.7457431714,
				"element": "C" 
			},
			{
				"x": 1.3432073866,
				"y": 5.6074664757,
				"z": 0.2494410968,
				"element": "C" 
			},
			{
				"x": 2.4423543107,
				"y": 6.0417387747,
				"z": -0.4225929178,
				"element": "O" 
			},
			{
				"x": 0.6414072319,
				"y": 6.3627716235,
				"z": 0.8938941687,
				"element": "O" 
			},
			{
				"x": -1.5835900555,
				"y": 1.8142361658,
				"z": 1.0817349681,
				"element": "N" 
			},
			{
				"x": -2.0410725475,
				"y": 2.3791284404,
				"z": 2.0765650151,
				"element": "O" 
			},
			{
				"x": -2.1936834573,
				"y": 0.969368787,
				"z": 0.4193838403,
				"element": "O" 
			},
			{
				"x": -1.0629643716,
				"y": -3.9234393969,
				"z": 0.2184864527,
				"element": "H" 
			},
			{
				"x": 0.2665058592,
				"y": -4.7924961908,
				"z": -0.5770879593,
				"element": "H" 
			},
			{
				"x": 0.2347566072,
				"y": -4.6745486919,
				"z": 1.1855047148,
				"element": "H" 
			},
			{
				"x": -0.3646834068,
				"y": -2.17887557,
				"z": -1.4070060428,
				"element": "H" 
			},
			{
				"x": 1.2195857082,
				"y": -2.8120017017,
				"z": -1.8765123633,
				"element": "H" 
			},
			{
				"x": 2.3331694688,
				"y": -0.8871085061,
				"z": -0.7563991384,
				"element": "H" 
			},
			{
				"x": 1.2015292611,
				"y": -0.3792936664,
				"z": -2.0244912132,
				"element": "H" 
			},
			{
				"x": -1.1610149623,
				"y": -1.0441553133,
				"z": 0.771960175,
				"element": "H" 
			},
			{
				"x": -0.1642811767,
				"y": -0.1372392573,
				"z": 1.9070734632,
				"element": "H" 
			},
			{
				"x": 0.2414941375,
				"y": -2.5550140967,
				"z": 2.1651784688,
				"element": "H" 
			},
			{
				"x": 1.7020778311,
				"y": -1.7027712924,
				"z": 1.6775602594,
				"element": "H" 
			},
			{
				"x": -0.6783565246,
				"y": 4.215638202,
				"z": 1.2788576728,
				"element": "H" 
			},
			{
				"x": 2.8139059518,
				"y": 3.7428732624,
				"z": -1.1657400889,
				"element": "H" 
			},
			{
				"x": 2.4174736311,
				"y": 1.3449689068,
				"z": -1.2956262516,
				"element": "H" 
			},
			{
				"x": 2.4894040517,
				"y": 6.9971801626,
				"z": -0.2555412979,
				"element": "H" 
			}
		],
		 "valence_orbital": [ 
			{
				"type": "occ",
				"energy": -0.29252,
				"method": "rhf"
			},
			{
				"type": "occ",
				"energy": -0.27667,
				"method": "rhf"
			},
			{
				"type": "occ",
				"energy": -0.26995,
				"method": "rhf"
			},
			{
				"type": "occ",
				"energy": -0.22366,
				"method": "rhf"
			},
			{
				"type": "occ",
				"energy": -0.21742,
				"method": "rhf"
			},
			{
				"type": "unocc",
				"energy": -0.07752,
				"method": "rhf"
			},
			{
				"type": "unocc",
				"energy": -0.04655,
				"method": "rhf"
			},
			{
				"type": "unocc",
				"energy": -0.0119,
				"method": "rhf"
			},
			{
				"type": "unocc",
				"energy": 0.05161,
				"method": "rhf"
			},
			{
				"type": "unocc",
				"energy": 0.06417,
				"method": "rhf"
			}
		],
		"cosmo_sigma_profile": { 
			"-0.025": 0.0,
			"-0.024": 0.0,
			"-0.023": 0.0,
			"-0.022": 0.0,
			"-0.021": 0.0,
			"-0.02": 0.0,
			"-0.019": 0.046459437977,
			"-0.018": 0.61695052811,
			"-0.017": 0.97931104115,
			"-0.016": 0.781672285238,
			"-0.015": 0.841672882105,
			"-0.014": 0.787416930683,
			"-0.013": 0.449338925047,
			"-0.012": 0.571203635171,
			"-0.011": 0.621588776243,
			"-0.01": 1.11944296637,
			"-0.009": 0.437112201008,
			"-0.008": 0.947395497793,
			"-0.007": 8.13082958787,
			"-0.006": 12.2874202018,
			"-0.005": 18.3437851881,
			"-0.004": 28.1508460981,
			"-0.003": 30.1041419995,
			"-0.002": 26.7261215002,
			"-0.001": 24.0358994537,
			"0.0": 24.5793389396,
			"0.001": 19.3784905972,
			"0.002": 13.1292730251,
			"0.003": 10.3905749961,
			"0.004": 6.03231567696,
			"0.005": 5.59167664617,
			"0.006": 6.84856204317,
			"0.007": 8.99820390773,
			"0.008": 12.4207049877,
			"0.009": 8.05838872291,
			"0.01": 5.75790300358,
			"0.011": 4.68775642469,
			"0.012": 5.3022224132,
			"0.013": 0.431009205683,
			"0.014": 0.762107964771,
			"0.015": 0.416714656093,
			"0.016": 0.295873734249,
			"0.017": 0.0,
			"0.018": 0.0,
			"0.019": 0.0,
			"0.02": 0.0,
			"0.021": 0.0,
			"0.022": 0.0,
			"0.023": 0.0,
			"0.024": 0.0,
			"0.025": 0.0
		}
	}
}
