{
	 "smiles": "OC(=O)CCC1=NC2=C(C=CC=C2)C(=O)N1C1CC1", 
	 "Tm": 457.15, 
	 "num_atms": 33, 
	 "gaussian": { 
		 "optdone": 1, 
		 "sigma_profile": "yes", 
		 "theory": "DFT", 
		 "functional": "B3LYP", 
		 "basiset": "6-31G**", 
		 "properties": { 
			 "R2extent": 4888.3827, 
			 "electric_dipole_moment_norm": 1.49805168803, 
			 "electric_quadrupole_moment_norm": 21.8257209979, 
			 "total_energy": -877.111697713, 
			 "HOMO_LUMO_gap": 0.18543, 
			 "cosmo_polarized_energy": -18.64, 
			 "cosmo_cavitation_energy": 36.55, 
			 "cosmo_dispersion_energy": -25.14, 
			 "cosmo_repulsion_energy": 1.94, 
			 "cosmo_total_nonelectrostatic_energy": 13.35, 
			 "SMD_solvation_energy": 5.68 
		},
		"coords": [
			{
				"x": -0.8274178463,
				"y": 0.9256716246,
				"z": -2.9418624679,
				"element": "O" 
			},
			{
				"x": 0.5110102325,
				"y": 0.8442390629,
				"z": -3.1295317475,
				"element": "C" 
			},
			{
				"x": 1.0152989524,
				"y": 0.1787247198,
				"z": -4.0053761175,
				"element": "O" 
			},
			{
				"x": 1.2770045025,
				"y": 1.6599890672,
				"z": -2.1068308409,
				"element": "C" 
			},
			{
				"x": 1.8398728954,
				"y": 0.7611008191,
				"z": -0.974500715,
				"element": "C" 
			},
			{
				"x": 0.7547575504,
				"y": 0.1102421857,
				"z": -0.1440990134,
				"element": "C" 
			},
			{
				"x": 0.4346274061,
				"y": -1.1058389258,
				"z": -0.4586489192,
				"element": "N" 
			},
			{
				"x": -0.6268400662,
				"y": -1.707252609,
				"z": 0.1958951566,
				"element": "C" 
			},
			{
				"x": -1.4148789963,
				"y": -1.0098695545,
				"z": 1.1339711801,
				"element": "C" 
			},
			{
				"x": -2.5106007227,
				"y": -1.6359311567,
				"z": 1.7505851418,
				"element": "C" 
			},
			{
				"x": -2.8112996576,
				"y": -2.9548345817,
				"z": 1.4470066439,
				"element": "C" 
			},
			{
				"x": -2.0241001185,
				"y": -3.6581256765,
				"z": 0.5160474776,
				"element": "C" 
			},
			{
				"x": -0.9473327674,
				"y": -3.0456580528,
				"z": -0.1064713482,
				"element": "C" 
			},
			{
				"x": -1.0843202107,
				"y": 0.3798280635,
				"z": 1.4603363984,
				"element": "C" 
			},
			{
				"x": -1.7414263255,
				"y": 1.0951607335,
				"z": 2.2035694954,
				"element": "O" 
			},
			{
				"x": 0.1136024939,
				"y": 0.8521750123,
				"z": 0.8506099065,
				"element": "N" 
			},
			{
				"x": 0.5579760825,
				"y": 2.184482668,
				"z": 1.2221835436,
				"element": "C" 
			},
			{
				"x": 0.706883542,
				"y": 2.5262597074,
				"z": 2.6770102665,
				"element": "C" 
			},
			{
				"x": 1.9344772151,
				"y": 2.3880546578,
				"z": 1.8221881087,
				"element": "C" 
			},
			{
				"x": -1.2311372973,
				"y": 0.3334932464,
				"z": -3.5991127678,
				"element": "H" 
			},
			{
				"x": 2.1187090312,
				"y": 2.124916851,
				"z": -2.6270181592,
				"element": "H" 
			},
			{
				"x": 0.6366203971,
				"y": 2.4476211915,
				"z": -1.7028788098,
				"element": "H" 
			},
			{
				"x": 2.5145660908,
				"y": 1.3613713131,
				"z": -0.3635555999,
				"element": "H" 
			},
			{
				"x": 2.4105071139,
				"y": -0.0521121508,
				"z": -1.4263984595,
				"element": "H" 
			},
			{
				"x": -3.0975150461,
				"y": -1.0633983332,
				"z": 2.4610158206,
				"element": "H" 
			},
			{
				"x": -3.653515352,
				"y": -3.4460853055,
				"z": 1.9247439561,
				"element": "H" 
			},
			{
				"x": -2.2654644593,
				"y": -4.6907897792,
				"z": 0.2800386647,
				"element": "H" 
			},
			{
				"x": -0.3341811946,
				"y": -3.5676065072,
				"z": -0.8337474926,
				"element": "H" 
			},
			{
				"x": 0.1717159873,
				"y": 2.9718464949,
				"z": 0.5794530453,
				"element": "H" 
			},
			{
				"x": 0.3782435193,
				"y": 3.5127333351,
				"z": 2.9860414041,
				"element": "H" 
			},
			{
				"x": 0.4984912975,
				"y": 1.7429156192,
				"z": 3.3953731135,
				"element": "H" 
			},
			{
				"x": 2.5496861462,
				"y": 1.5070047711,
				"z": 1.9780637291,
				"element": "H" 
			},
			{
				"x": 2.4857796044,
				"y": 3.2757714889,
				"z": 1.5260994059,
				"element": "H" 
			}
		],
		 "valence_orbital": [ 
			{
				"type": "occ",
				"energy": -0.27448,
				"method": "rhf"
			},
			{
				"type": "occ",
				"energy": -0.26741,
				"method": "rhf"
			},
			{
				"type": "occ",
				"energy": -0.25964,
				"method": "rhf"
			},
			{
				"type": "occ",
				"energy": -0.25627,
				"method": "rhf"
			},
			{
				"type": "occ",
				"energy": -0.22591,
				"method": "rhf"
			},
			{
				"type": "unocc",
				"energy": -0.04048,
				"method": "rhf"
			},
			{
				"type": "unocc",
				"energy": -0.03534,
				"method": "rhf"
			},
			{
				"type": "unocc",
				"energy": 0.00505,
				"method": "rhf"
			},
			{
				"type": "unocc",
				"energy": 0.0312,
				"method": "rhf"
			},
			{
				"type": "unocc",
				"energy": 0.06332,
				"method": "rhf"
			}
		],
		"cosmo_sigma_profile": { 
			"-0.025": 0.0,
			"-0.024": 0.0,
			"-0.023": 0.0,
			"-0.022": 0.0,
			"-0.021": 0.0,
			"-0.02": 0.0,
			"-0.019": 0.0,
			"-0.018": 0.556665239118,
			"-0.017": 1.0969518254,
			"-0.016": 0.935517544244,
			"-0.015": 0.80477020363,
			"-0.014": 0.625205957638,
			"-0.013": 0.753636795341,
			"-0.012": 0.390864318543,
			"-0.011": 0.836819044072,
			"-0.01": 0.904087425878,
			"-0.009": 0.552871921879,
			"-0.008": 1.4134710383,
			"-0.007": 6.31908948913,
			"-0.006": 19.1745246334,
			"-0.005": 29.9845571622,
			"-0.004": 28.3307693045,
			"-0.003": 25.46240942,
			"-0.002": 19.2362199654,
			"-0.001": 15.9764044372,
			"0.0": 12.7469884426,
			"0.001": 15.7616583511,
			"0.002": 18.2494351185,
			"0.003": 21.3267986137,
			"0.004": 15.5594171851,
			"0.005": 6.50328853045,
			"0.006": 5.47043808651,
			"0.007": 5.37117620361,
			"0.008": 4.71041275255,
			"0.009": 5.00589048538,
			"0.01": 4.7707651287,
			"0.011": 6.74406255121,
			"0.012": 7.87172506637,
			"0.013": 6.0261921711,
			"0.014": 0.75155314368,
			"0.015": 0.0307031044462,
			"0.016": 0.0,
			"0.017": 0.0,
			"0.018": 0.0,
			"0.019": 0.0,
			"0.02": 0.0,
			"0.021": 0.0,
			"0.022": 0.0,
			"0.023": 0.0,
			"0.024": 0.0,
			"0.025": 0.0
		}
	}
}
