{
	 "smiles": "O=C1NC2=C(C=CC=C2)C1CC#N", 
	 "Tm": 435.15, 
	 "num_atms": 21, 
	 "gaussian": { 
		 "optdone": 1, 
		 "sigma_profile": "yes", 
		 "theory": "DFT", 
		 "functional": "B3LYP", 
		 "basiset": "6-31G**", 
		 "properties": { 
			 "R2extent": 2324.706, 
			 "electric_dipole_moment_norm": 4.30864363112, 
			 "electric_quadrupole_moment_norm": 15.861525897, 
			 "total_energy": -570.614178647, 
			 "HOMO_LUMO_gap": 0.20133, 
			 "cosmo_polarized_energy": -17.74, 
			 "cosmo_cavitation_energy": 26.19, 
			 "cosmo_dispersion_energy": -18.14, 
			 "cosmo_repulsion_energy": 1.45, 
			 "cosmo_total_nonelectrostatic_energy": 9.49, 
			 "SMD_solvation_energy": 6.1 
		},
		"coords": [
			{
				"x": 0.2394992615,
				"y": 3.3793157268,
				"z": 1.6319033978,
				"element": "O" 
			},
			{
				"x": 0.5165008716,
				"y": 2.2469103801,
				"z": 1.2891772679,
				"element": "C" 
			},
			{
				"x": 1.5823635936,
				"y": 1.8597916547,
				"z": 0.5017451556,
				"element": "N" 
			},
			{
				"x": 1.5775476399,
				"y": 0.4827871591,
				"z": 0.2311741859,
				"element": "C" 
			},
			{
				"x": 0.4870866659,
				"y": -0.1159819292,
				"z": 0.8860431269,
				"element": "C" 
			},
			{
				"x": 0.2793526088,
				"y": -1.4826549572,
				"z": 0.7699439297,
				"element": "C" 
			},
			{
				"x": 1.1641135851,
				"y": -2.2439415969,
				"z": -0.0071656562,
				"element": "C" 
			},
			{
				"x": 2.2417300327,
				"y": -1.6327526045,
				"z": -0.6505681685,
				"element": "C" 
			},
			{
				"x": 2.4677909897,
				"y": -0.2550102134,
				"z": -0.5393102348,
				"element": "C" 
			},
			{
				"x": -0.2597447824,
				"y": 0.9560560608,
				"z": 1.6454820014,
				"element": "C" 
			},
			{
				"x": -1.767772713,
				"y": 1.122521608,
				"z": 1.3498743629,
				"element": "C" 
			},
			{
				"x": -2.0731157875,
				"y": 1.246531433,
				"z": -0.0787570799,
				"element": "C" 
			},
			{
				"x": -2.3139388888,
				"y": 1.3468416304,
				"z": -1.2093673563,
				"element": "N" 
			},
			{
				"x": 2.2189634792,
				"y": 2.5326338701,
				"z": 0.0999555358,
				"element": "H" 
			},
			{
				"x": -0.5586666001,
				"y": -1.9614537295,
				"z": 1.269529715,
				"element": "H" 
			},
			{
				"x": 1.0088788763,
				"y": -3.3131687713,
				"z": -0.1094700441,
				"element": "H" 
			},
			{
				"x": 2.9198029214,
				"y": -2.2325016062,
				"z": -1.2503821949,
				"element": "H" 
			},
			{
				"x": 3.3063368512,
				"y": 0.2165858973,
				"z": -1.0422543674,
				"element": "H" 
			},
			{
				"x": -0.1644878728,
				"y": 0.8156047299,
				"z": 2.7302836482,
				"element": "H" 
			},
			{
				"x": -2.3286416474,
				"y": 0.272558807,
				"z": 1.7528616968,
				"element": "H" 
			},
			{
				"x": -2.1177990847,
				"y": 2.0265264511,
				"z": 1.8607010782,
				"element": "H" 
			}
		],
		 "valence_orbital": [ 
			{
				"type": "occ",
				"energy": -0.32309,
				"method": "rhf"
			},
			{
				"type": "occ",
				"energy": -0.3193,
				"method": "rhf"
			},
			{
				"type": "occ",
				"energy": -0.2694,
				"method": "rhf"
			},
			{
				"type": "occ",
				"energy": -0.26395,
				"method": "rhf"
			},
			{
				"type": "occ",
				"energy": -0.22842,
				"method": "rhf"
			},
			{
				"type": "unocc",
				"energy": -0.02709,
				"method": "rhf"
			},
			{
				"type": "unocc",
				"energy": -0.01361,
				"method": "rhf"
			},
			{
				"type": "unocc",
				"energy": 0.01683,
				"method": "rhf"
			},
			{
				"type": "unocc",
				"energy": 0.02862,
				"method": "rhf"
			},
			{
				"type": "unocc",
				"energy": 0.04676,
				"method": "rhf"
			}
		],
		"cosmo_sigma_profile": { 
			"-0.025": 0.0,
			"-0.024": 0.0,
			"-0.023": 0.0,
			"-0.022": 0.0,
			"-0.021": 0.0,
			"-0.02": 0.0,
			"-0.019": 0.0,
			"-0.018": 0.0,
			"-0.017": 0.0,
			"-0.016": 0.793154668222,
			"-0.015": 1.66079503695,
			"-0.014": 1.19604121033,
			"-0.013": 0.953965988908,
			"-0.012": 0.956940264473,
			"-0.011": 1.17390428898,
			"-0.01": 1.0744046066,
			"-0.009": 4.60414347404,
			"-0.008": 11.4999091165,
			"-0.007": 11.5050390408,
			"-0.006": 13.1799077006,
			"-0.005": 13.8459313619,
			"-0.004": 12.2799065059,
			"-0.003": 9.79454864054,
			"-0.002": 8.46927508252,
			"-0.001": 10.7109663695,
			"0.0": 10.1412152225,
			"0.001": 11.0415190482,
			"0.002": 10.080886755,
			"0.003": 10.7730192128,
			"0.004": 12.0763632453,
			"0.005": 10.9784797563,
			"0.006": 5.92945655486,
			"0.007": 3.47009402805,
			"0.008": 4.60131046762,
			"0.009": 5.00246724449,
			"0.01": 4.4238705713,
			"0.011": 4.88882134601,
			"0.012": 7.22454148711,
			"0.013": 5.43713732806,
			"0.014": 0.324740753611,
			"0.015": 0.0,
			"0.016": 0.0,
			"0.017": 0.0,
			"0.018": 0.0,
			"0.019": 0.0,
			"0.02": 0.0,
			"0.021": 0.0,
			"0.022": 0.0,
			"0.023": 0.0,
			"0.024": 0.0,
			"0.025": 0.0
		}
	}
}
