{
	 "smiles": "OC1=CC=C(C=C1)C1=C(C(=O)C2=CC=C(OCCN3CCCCC3)C=C2)C2=C(S1)C=C(O)C=C2", 
	 "Tm": 418.15, 
	 "num_atms": 61, 
	 "gaussian": { 
		 "optdone": 1, 
		 "sigma_profile": "yes", 
		 "theory": "DFT", 
		 "functional": "B3LYP", 
		 "basiset": "6-31G**", 
		 "properties": { 
			 "R2extent": 24471.109, 
			 "electric_dipole_moment_norm": 4.61754898296, 
			 "electric_quadrupole_moment_norm": 18.4018595232, 
			 "total_energy": -1837.08231495, 
			 "HOMO_LUMO_gap": 0.14064, 
			 "cosmo_polarized_energy": -24.08, 
			 "cosmo_cavitation_energy": 64.09, 
			 "cosmo_dispersion_energy": -42.84, 
			 "cosmo_repulsion_energy": 3.21, 
			 "cosmo_total_nonelectrostatic_energy": 24.46, 
			 "SMD_solvation_energy": 8.1 
		},
		"coords": [
			{
				"x": -0.8262839761,
				"y": 2.9896541999,
				"z": 3.2709688523,
				"element": "O" 
			},
			{
				"x": 0.2737444774,
				"y": 2.7711983164,
				"z": 2.494364748,
				"element": "C" 
			},
			{
				"x": 1.0548487981,
				"y": 1.6452166093,
				"z": 2.7813022874,
				"element": "C" 
			},
			{
				"x": 2.188882448,
				"y": 1.3774334753,
				"z": 2.0260770397,
				"element": "C" 
			},
			{
				"x": 2.5705278685,
				"y": 2.2114332622,
				"z": 0.9565305306,
				"element": "C" 
			},
			{
				"x": 1.7783375766,
				"y": 3.341219674,
				"z": 0.6904879009,
				"element": "C" 
			},
			{
				"x": 0.6433875539,
				"y": 3.621507507,
				"z": 1.4463690404,
				"element": "C" 
			},
			{
				"x": 3.7791310247,
				"y": 1.9255309781,
				"z": 0.1695370521,
				"element": "C" 
			},
			{
				"x": 4.3085183451,
				"y": 0.7202810537,
				"z": -0.2290791884,
				"element": "C" 
			},
			{
				"x": 3.6964006495,
				"y": -0.6368798121,
				"z": -0.0339235728,
				"element": "C" 
			},
			{
				"x": 4.3804660453,
				"y": -1.5339797155,
				"z": 0.4561614226,
				"element": "O" 
			},
			{
				"x": 2.3098763482,
				"y": -0.9132980006,
				"z": -0.5016275417,
				"element": "C" 
			},
			{
				"x": 1.7099060235,
				"y": -2.129876783,
				"z": -0.1215606853,
				"element": "C" 
			},
			{
				"x": 0.4418195288,
				"y": -2.465494054,
				"z": -0.5588893795,
				"element": "C" 
			},
			{
				"x": -0.2656001387,
				"y": -1.5964996351,
				"z": -1.4109747428,
				"element": "C" 
			},
			{
				"x": -1.4943601094,
				"y": -2.0366208198,
				"z": -1.7942840113,
				"element": "O" 
			},
			{
				"x": -2.3083762793,
				"y": -1.2441113867,
				"z": -2.6685218611,
				"element": "C" 
			},
			{
				"x": -3.0880551135,
				"y": -0.1220831775,
				"z": -1.9733685616,
				"element": "C" 
			},
			{
				"x": -4.3092228962,
				"y": -0.5751121267,
				"z": -1.3125391178,
				"element": "N" 
			},
			{
				"x": -4.0474607924,
				"y": -1.3432055523,
				"z": -0.0863975921,
				"element": "C" 
			},
			{
				"x": -5.3461746793,
				"y": -1.9117595997,
				"z": 0.4936489246,
				"element": "C" 
			},
			{
				"x": -6.366063108,
				"y": -0.7980376223,
				"z": 0.7604887948,
				"element": "C" 
			},
			{
				"x": -6.5636536258,
				"y": 0.0463904711,
				"z": -0.5048401688,
				"element": "C" 
			},
			{
				"x": -5.2198156962,
				"y": 0.5435392584,
				"z": -1.0465565029,
				"element": "C" 
			},
			{
				"x": 0.3233723455,
				"y": -0.3875821383,
				"z": -1.8097960445,
				"element": "C" 
			},
			{
				"x": 1.5989918774,
				"y": -0.0588955464,
				"z": -1.3535755836,
				"element": "C" 
			},
			{
				"x": 5.5999220587,
				"y": 0.8541477686,
				"z": -0.8775587562,
				"element": "C" 
			},
			{
				"x": 6.0016283298,
				"y": 2.2047293382,
				"z": -1.0105853925,
				"element": "C" 
			},
			{
				"x": 4.8339498536,
				"y": 3.2810967262,
				"z": -0.2691290242,
				"element": "S" 
			},
			{
				"x": 7.1902895552,
				"y": 2.5747033969,
				"z": -1.6410291573,
				"element": "C" 
			},
			{
				"x": 8.0044752106,
				"y": 1.5629130228,
				"z": -2.1461941234,
				"element": "C" 
			},
			{
				"x": 9.1672030856,
				"y": 1.940586322,
				"z": -2.757546293,
				"element": "O" 
			},
			{
				"x": 7.6314019336,
				"y": 0.2099164779,
				"z": -2.0191550461,
				"element": "C" 
			},
			{
				"x": 6.445204368,
				"y": -0.1440344579,
				"z": -1.3940623277,
				"element": "C" 
			},
			{
				"x": -1.2612214932,
				"y": 3.803616048,
				"z": 2.9853581191,
				"element": "H" 
			},
			{
				"x": 0.7666630006,
				"y": 1.0032617499,
				"z": 3.6069325024,
				"element": "H" 
			},
			{
				"x": 2.8051225204,
				"y": 0.5213624543,
				"z": 2.28006648,
				"element": "H" 
			},
			{
				"x": 2.0442480857,
				"y": 4.0019408412,
				"z": -0.1295446781,
				"element": "H" 
			},
			{
				"x": 0.0419283877,
				"y": 4.4990218692,
				"z": 1.2179947213,
				"element": "H" 
			},
			{
				"x": 2.2704174485,
				"y": -2.7992651277,
				"z": 0.5224295561,
				"element": "H" 
			},
			{
				"x": -0.0303688289,
				"y": -3.3980195911,
				"z": -0.2675081865,
				"element": "H" 
			},
			{
				"x": -1.6901487289,
				"y": -0.8365371436,
				"z": -3.4770110481,
				"element": "H" 
			},
			{
				"x": -3.0195866655,
				"y": -1.9499704059,
				"z": -3.1043099179,
				"element": "H" 
			},
			{
				"x": -2.4147844011,
				"y": 0.4296980902,
				"z": -1.2896249156,
				"element": "H" 
			},
			{
				"x": -3.3843365564,
				"y": 0.5854544293,
				"z": -2.7579912617,
				"element": "H" 
			},
			{
				"x": -3.5501644994,
				"y": -0.7075876712,
				"z": 0.6758855846,
				"element": "H" 
			},
			{
				"x": -3.3543774987,
				"y": -2.1531258835,
				"z": -0.3225116089,
				"element": "H" 
			},
			{
				"x": -5.1202040528,
				"y": -2.4620320843,
				"z": 1.4145260502,
				"element": "H" 
			},
			{
				"x": -5.7649169271,
				"y": -2.6316371701,
				"z": -0.2208371915,
				"element": "H" 
			},
			{
				"x": -5.9969832982,
				"y": -0.1549176399,
				"z": 1.5720175939,
				"element": "H" 
			},
			{
				"x": -7.3207221996,
				"y": -1.216657189,
				"z": 1.0995639762,
				"element": "H" 
			},
			{
				"x": -7.2151679083,
				"y": 0.9052502302,
				"z": -0.3043193303,
				"element": "H" 
			},
			{
				"x": -7.0505688036,
				"y": -0.5590109323,
				"z": -1.2795540789,
				"element": "H" 
			},
			{
				"x": -4.7781730465,
				"y": 1.2616472627,
				"z": -0.3239239756,
				"element": "H" 
			},
			{
				"x": -5.3755470505,
				"y": 1.0913331096,
				"z": -1.9836180061,
				"element": "H" 
			},
			{
				"x": -0.1963172123,
				"y": 0.3009089942,
				"z": -2.4645233874,
				"element": "H" 
			},
			{
				"x": 2.047683942,
				"y": 0.8746214626,
				"z": -1.674458048,
				"element": "H" 
			},
			{
				"x": 7.4966151323,
				"y": 3.6099033523,
				"z": -1.7426595269,
				"element": "H" 
			},
			{
				"x": 9.6402807858,
				"y": 1.1509722629,
				"z": -3.0497612206,
				"element": "H" 
			},
			{
				"x": 8.2874669096,
				"y": -0.5641792133,
				"z": -2.4117680488,
				"element": "H" 
			},
			{
				"x": 6.1741440677,
				"y": -1.1874795348,
				"z": -1.2810920717,
				"element": "H" 
			}
		],
		 "valence_orbital": [ 
			{
				"type": "occ",
				"energy": -0.23456,
				"method": "rhf"
			},
			{
				"type": "occ",
				"energy": -0.22766,
				"method": "rhf"
			},
			{
				"type": "occ",
				"energy": -0.22295,
				"method": "rhf"
			},
			{
				"type": "occ",
				"energy": -0.21349,
				"method": "rhf"
			},
			{
				"type": "occ",
				"energy": -0.19597,
				"method": "rhf"
			},
			{
				"type": "unocc",
				"energy": -0.05533,
				"method": "rhf"
			},
			{
				"type": "unocc",
				"energy": -0.03056,
				"method": "rhf"
			},
			{
				"type": "unocc",
				"energy": -0.01026,
				"method": "rhf"
			},
			{
				"type": "unocc",
				"energy": -0.00557,
				"method": "rhf"
			},
			{
				"type": "unocc",
				"energy": -0.0003,
				"method": "rhf"
			}
		],
		"cosmo_sigma_profile": { 
			"-0.025": 0.0,
			"-0.024": 0.0,
			"-0.023": 0.0,
			"-0.022": 0.0,
			"-0.021": 0.0,
			"-0.02": 0.0,
			"-0.019": 0.0,
			"-0.018": 1.00397482645,
			"-0.017": 2.51733643841,
			"-0.016": 2.00571396915,
			"-0.015": 2.35158388176,
			"-0.014": 2.38628803664,
			"-0.013": 2.08694941039,
			"-0.012": 1.1978495078,
			"-0.011": 1.63650885272,
			"-0.01": 2.8438347731,
			"-0.009": 2.03605217075,
			"-0.008": 3.75583957631,
			"-0.007": 8.66348316095,
			"-0.006": 17.2999892822,
			"-0.005": 25.9007214028,
			"-0.004": 27.761538589,
			"-0.003": 29.0721757297,
			"-0.002": 39.0041162876,
			"-0.001": 58.9448720505,
			"0.0": 52.5144149612,
			"0.001": 39.4691458973,
			"0.002": 36.2933715865,
			"0.003": 41.9111322752,
			"0.004": 43.2088278601,
			"0.005": 20.3936635275,
			"0.006": 6.71571230626,
			"0.007": 7.12172053495,
			"0.008": 5.6110181588,
			"0.009": 5.83988189262,
			"0.01": 5.74522788497,
			"0.011": 7.26799799047,
			"0.012": 4.47514367858,
			"0.013": 1.64709349535,
			"0.014": 0.298685624982,
			"0.015": 0.35678772486,
			"0.016": 0.0,
			"0.017": 0.0,
			"0.018": 0.0,
			"0.019": 0.0,
			"0.02": 0.0,
			"0.021": 0.0,
			"0.022": 0.0,
			"0.023": 0.0,
			"0.024": 0.0,
			"0.025": 0.0
		}
	}
}
