{
	 "smiles": "OC(=O)C1=C(NC(=O)COC2=CC=CC=C2)C=CC(O)=C1", 
	 "Tm": 528.15, 
	 "num_atms": 34, 
	 "gaussian": { 
		 "optdone": 1, 
		 "sigma_profile": "yes", 
		 "theory": "DFT", 
		 "functional": "B3LYP", 
		 "basiset": "6-31G**", 
		 "properties": { 
			 "R2extent": 6488.7491, 
			 "electric_dipole_moment_norm": 3.75064855592, 
			 "electric_quadrupole_moment_norm": 10.7332491162, 
			 "total_energy": -1010.30403382, 
			 "HOMO_LUMO_gap": 0.16533, 
			 "cosmo_polarized_energy": -24.19, 
			 "cosmo_cavitation_energy": 38.58, 
			 "cosmo_dispersion_energy": -26.35, 
			 "cosmo_repulsion_energy": 2.0, 
			 "cosmo_total_nonelectrostatic_energy": 14.23, 
			 "SMD_solvation_energy": 9.02 
		},
		"coords": [
			{
				"x": -1.3216266113,
				"y": -0.8802081838,
				"z": -0.2506744362,
				"element": "O" 
			},
			{
				"x": -0.2767339212,
				"y": -1.4303848014,
				"z": 0.3807151269,
				"element": "C" 
			},
			{
				"x": -0.021496611,
				"y": -2.6091775794,
				"z": 0.2579746612,
				"element": "O" 
			},
			{
				"x": 0.5585646029,
				"y": -0.5356472376,
				"z": 1.2762941911,
				"element": "C" 
			},
			{
				"x": 0.3687470547,
				"y": 0.8432586547,
				"z": 1.4809350303,
				"element": "C" 
			},
			{
				"x": -0.6958655757,
				"y": 1.5748501224,
				"z": 0.8219405923,
				"element": "N" 
			},
			{
				"x": -0.4537813058,
				"y": 2.6032660175,
				"z": -0.1011588152,
				"element": "C" 
			},
			{
				"x": -1.2193892297,
				"y": 3.5432790958,
				"z": -0.2070680956,
				"element": "O" 
			},
			{
				"x": 0.7851978158,
				"y": 2.4437414671,
				"z": -0.9921665745,
				"element": "C" 
			},
			{
				"x": 0.8699822131,
				"y": 1.1761354155,
				"z": -1.6176914679,
				"element": "O" 
			},
			{
				"x": 0.1013526797,
				"y": 0.9440925868,
				"z": -2.7425001605,
				"element": "C" 
			},
			{
				"x": -0.8860851411,
				"y": 1.811342405,
				"z": -3.219460428,
				"element": "C" 
			},
			{
				"x": -1.590903779,
				"y": 1.4649353458,
				"z": -4.3780974598,
				"element": "C" 
			},
			{
				"x": -1.3242100256,
				"y": 0.2753481694,
				"z": -5.050900655,
				"element": "C" 
			},
			{
				"x": -0.3392149737,
				"y": -0.5859695849,
				"z": -4.5556619184,
				"element": "C" 
			},
			{
				"x": 0.3741836897,
				"y": -0.2566750066,
				"z": -3.4084818907,
				"element": "C" 
			},
			{
				"x": 1.2091008636,
				"y": 1.5302871185,
				"z": 2.3666744619,
				"element": "C" 
			},
			{
				"x": 2.2373883323,
				"y": 0.8812859453,
				"z": 3.0379267884,
				"element": "C" 
			},
			{
				"x": 2.4344965114,
				"y": -0.4896502507,
				"z": 2.8281887327,
				"element": "C" 
			},
			{
				"x": 3.4524680458,
				"y": -1.087223321,
				"z": 3.5032343525,
				"element": "O" 
			},
			{
				"x": 1.5959499667,
				"y": -1.182794495,
				"z": 1.9559210866,
				"element": "C" 
			},
			{
				"x": -1.334798419,
				"y": 0.084220854,
				"z": -0.0766324356,
				"element": "H" 
			},
			{
				"x": -1.4754309584,
				"y": 1.8337972625,
				"z": 1.4236929976,
				"element": "H" 
			},
			{
				"x": 0.7714085662,
				"y": 3.2651766082,
				"z": -1.714443569,
				"element": "H" 
			},
			{
				"x": 1.6862616167,
				"y": 2.5291284298,
				"z": -0.377538709,
				"element": "H" 
			},
			{
				"x": -1.1283845318,
				"y": 2.7331478809,
				"z": -2.7034624213,
				"element": "H" 
			},
			{
				"x": -2.3588241365,
				"y": 2.1393382381,
				"z": -4.7461441755,
				"element": "H" 
			},
			{
				"x": -1.8792986833,
				"y": 0.0156784655,
				"z": -5.9468926941,
				"element": "H" 
			},
			{
				"x": -0.1248081926,
				"y": -1.5205941547,
				"z": -5.0656394215,
				"element": "H" 
			},
			{
				"x": 1.1396454874,
				"y": -0.9131731987,
				"z": -3.008628766,
				"element": "H" 
			},
			{
				"x": 1.0451931543,
				"y": 2.5920024326,
				"z": 2.5301234161,
				"element": "H" 
			},
			{
				"x": 2.8884043744,
				"y": 1.4132250234,
				"z": 3.7232030567,
				"element": "H" 
			},
			{
				"x": 3.483172442,
				"y": -2.0255232862,
				"z": 3.2729918332,
				"element": "H" 
			},
			{
				"x": 1.7196346788,
				"y": -2.2469164388,
				"z": 1.776027766,
				"element": "H" 
			}
		],
		 "valence_orbital": [ 
			{
				"type": "occ",
				"energy": -0.27768,
				"method": "rhf"
			},
			{
				"type": "occ",
				"energy": -0.27129,
				"method": "rhf"
			},
			{
				"type": "occ",
				"energy": -0.25002,
				"method": "rhf"
			},
			{
				"type": "occ",
				"energy": -0.24912,
				"method": "rhf"
			},
			{
				"type": "occ",
				"energy": -0.22288,
				"method": "rhf"
			},
			{
				"type": "unocc",
				"energy": -0.05755,
				"method": "rhf"
			},
			{
				"type": "unocc",
				"energy": -0.02653,
				"method": "rhf"
			},
			{
				"type": "unocc",
				"energy": -0.02535,
				"method": "rhf"
			},
			{
				"type": "unocc",
				"energy": -0.00016,
				"method": "rhf"
			},
			{
				"type": "unocc",
				"energy": 0.01186,
				"method": "rhf"
			}
		],
		"cosmo_sigma_profile": { 
			"-0.025": 0.0,
			"-0.024": 0.0,
			"-0.023": 0.0,
			"-0.022": 0.0,
			"-0.021": 0.0,
			"-0.02": 0.0,
			"-0.019": 0.326209642534,
			"-0.018": 1.01938882156,
			"-0.017": 1.09353110214,
			"-0.016": 1.0529255813,
			"-0.015": 2.15961761029,
			"-0.014": 1.95861411527,
			"-0.013": 2.41016675025,
			"-0.012": 2.52638962752,
			"-0.011": 2.74837612661,
			"-0.01": 3.26823040485,
			"-0.009": 4.20958625386,
			"-0.008": 8.16374479427,
			"-0.007": 11.3711474048,
			"-0.006": 16.9891594922,
			"-0.005": 18.9604713823,
			"-0.004": 19.1530141034,
			"-0.003": 17.8039298393,
			"-0.002": 12.8693293083,
			"-0.001": 14.7110161661,
			"0.0": 15.0131382819,
			"0.001": 22.037612796,
			"0.002": 23.7258222246,
			"0.003": 16.4676062125,
			"0.004": 14.5571108728,
			"0.005": 15.0556952436,
			"0.006": 11.2616875482,
			"0.007": 6.26552822203,
			"0.008": 6.65944225475,
			"0.009": 6.41419893499,
			"0.01": 7.67365622079,
			"0.011": 10.248727075,
			"0.012": 7.64854413279,
			"0.013": 2.20632226639,
			"0.014": 0.307460141885,
			"0.015": 0.0,
			"0.016": 0.0,
			"0.017": 0.0,
			"0.018": 0.0,
			"0.019": 0.0,
			"0.02": 0.0,
			"0.021": 0.0,
			"0.022": 0.0,
			"0.023": 0.0,
			"0.024": 0.0,
			"0.025": 0.0
		}
	}
}
