{
	 "smiles": "OC(=O)C=CC1=C(OCC2=CC(Br)=CC=C2)C=CC=C1", 
	 "Tm": 422.15, 
	 "num_atms": 33, 
	 "gaussian": { 
		 "optdone": 1, 
		 "sigma_profile": "yes", 
		 "theory": "DFT", 
		 "functional": "B3LYP", 
		 "basiset": "6-31G**", 
		 "properties": { 
			 "R2extent": 10343.7061, 
			 "electric_dipole_moment_norm": 1.90570324028, 
			 "electric_quadrupole_moment_norm": 17.3288332062, 
			 "total_energy": -3414.59314196, 
			 "HOMO_LUMO_gap": 0.17965, 
			 "cosmo_polarized_energy": -14.21, 
			 "cosmo_cavitation_energy": 40.31, 
			 "cosmo_dispersion_energy": -27.43, 
			 "cosmo_repulsion_energy": 2.16, 
			 "cosmo_total_nonelectrostatic_energy": 15.04, 
			 "SMD_solvation_energy": 6.62 
		},
		"coords": [
			{
				"x": 1.2699974987,
				"y": 2.6152201137,
				"z": 0.2254737344,
				"element": "O" 
			},
			{
				"x": 2.2817010083,
				"y": 1.7295235765,
				"z": 0.35721383,
				"element": "C" 
			},
			{
				"x": 2.8998922845,
				"y": 1.5832360893,
				"z": 1.3936269333,
				"element": "O" 
			},
			{
				"x": 2.6180802428,
				"y": 1.0197859093,
				"z": -0.9027967499,
				"element": "C" 
			},
			{
				"x": 1.7761004887,
				"y": 0.4646558054,
				"z": -1.7919370063,
				"element": "C" 
			},
			{
				"x": 0.3079487871,
				"y": 0.3431647683,
				"z": -1.7657748459,
				"element": "C" 
			},
			{
				"x": -0.4469548442,
				"y": 0.1007305971,
				"z": -0.5965654643,
				"element": "C" 
			},
			{
				"x": 0.1739143275,
				"y": 0.0026530389,
				"z": 0.6334647983,
				"element": "O" 
			},
			{
				"x": 0.7368777108,
				"y": -1.2825543659,
				"z": 0.962190472,
				"element": "C" 
			},
			{
				"x": -0.29514159,
				"y": -2.2592339169,
				"z": 1.4835556664,
				"element": "C" 
			},
			{
				"x": -0.4408821467,
				"y": -3.518439572,
				"z": 0.8943889411,
				"element": "C" 
			},
			{
				"x": -1.3791730659,
				"y": -4.415785577,
				"z": 1.404416419,
				"element": "C" 
			},
			{
				"x": -1.5647039129,
				"y": -6.1364670857,
				"z": 0.5887946728,
				"element": "Br" 
			},
			{
				"x": -2.1866148844,
				"y": -4.0826856209,
				"z": 2.4880924982,
				"element": "C" 
			},
			{
				"x": -2.0419783162,
				"y": -2.8196651836,
				"z": 3.0695831489,
				"element": "C" 
			},
			{
				"x": -1.1043353293,
				"y": -1.9157494233,
				"z": 2.5756912935,
				"element": "C" 
			},
			{
				"x": -1.8360595823,
				"y": -0.016592991,
				"z": -0.6578775373,
				"element": "C" 
			},
			{
				"x": -2.5015497043,
				"y": 0.0973802493,
				"z": -1.8782253493,
				"element": "C" 
			},
			{
				"x": -1.7724850267,
				"y": 0.3081867179,
				"z": -3.0497534103,
				"element": "C" 
			},
			{
				"x": -0.3859337184,
				"y": 0.4159255528,
				"z": -2.9872763121,
				"element": "C" 
			},
			{
				"x": 1.1158847813,
				"y": 2.9743259274,
				"z": 1.1153796612,
				"element": "H" 
			},
			{
				"x": 3.6879856361,
				"y": 0.9269363598,
				"z": -1.0674128584,
				"element": "H" 
			},
			{
				"x": 2.2386389256,
				"y": 0.0212952241,
				"z": -2.673956633,
				"element": "H" 
			},
			{
				"x": 1.484183267,
				"y": -1.0594833098,
				"z": 1.729501767,
				"element": "H" 
			},
			{
				"x": 1.2587987095,
				"y": -1.6994484087,
				"z": 0.0934516878,
				"element": "H" 
			},
			{
				"x": 0.1706958301,
				"y": -3.8003394428,
				"z": 0.0437149729,
				"element": "H" 
			},
			{
				"x": -2.9118884477,
				"y": -4.7922808373,
				"z": 2.8693583842,
				"element": "H" 
			},
			{
				"x": -2.6655445442,
				"y": -2.5491674817,
				"z": 3.9167532011,
				"element": "H" 
			},
			{
				"x": -0.997019824,
				"y": -0.9347936113,
				"z": 3.0289958627,
				"element": "H" 
			},
			{
				"x": -2.3785202013,
				"y": -0.1991028311,
				"z": 0.2631910447,
				"element": "H" 
			},
			{
				"x": -3.5833434065,
				"y": 0.0086136605,
				"z": -1.9132301857,
				"element": "H" 
			},
			{
				"x": -2.2800523495,
				"y": 0.3864813335,
				"z": -4.006272654,
				"element": "H" 
			},
			{
				"x": 0.1830813966,
				"y": 0.5809747352,
				"z": -3.898659983,
				"element": "H" 
			}
		],
		 "valence_orbital": [ 
			{
				"type": "occ",
				"energy": -0.27091,
				"method": "rhf"
			},
			{
				"type": "occ",
				"energy": -0.26427,
				"method": "rhf"
			},
			{
				"type": "occ",
				"energy": -0.2503,
				"method": "rhf"
			},
			{
				"type": "occ",
				"energy": -0.24452,
				"method": "rhf"
			},
			{
				"type": "occ",
				"energy": -0.23363,
				"method": "rhf"
			},
			{
				"type": "unocc",
				"energy": -0.05398,
				"method": "rhf"
			},
			{
				"type": "unocc",
				"energy": -0.02446,
				"method": "rhf"
			},
			{
				"type": "unocc",
				"energy": -0.01731,
				"method": "rhf"
			},
			{
				"type": "unocc",
				"energy": -0.00378,
				"method": "rhf"
			},
			{
				"type": "unocc",
				"energy": 0.00524,
				"method": "rhf"
			}
		],
		"cosmo_sigma_profile": { 
			"-0.025": 0.0,
			"-0.024": 0.0,
			"-0.023": 0.0,
			"-0.022": 0.0,
			"-0.021": 0.0,
			"-0.02": 0.0,
			"-0.019": 0.0,
			"-0.018": 0.395647257025,
			"-0.017": 0.968112271092,
			"-0.016": 1.02572839105,
			"-0.015": 0.490430903332,
			"-0.014": 0.65799844239,
			"-0.013": 0.672664407494,
			"-0.012": 0.374656437351,
			"-0.011": 0.410797096935,
			"-0.01": 1.07509488425,
			"-0.009": 0.426783585695,
			"-0.008": 0.792445244675,
			"-0.007": 11.3340018809,
			"-0.006": 21.8689433088,
			"-0.005": 23.1657334518,
			"-0.004": 25.1162903901,
			"-0.003": 20.6465781959,
			"-0.002": 19.0944901632,
			"-0.001": 19.8715304184,
			"0.0": 19.1645711294,
			"0.001": 22.4728494171,
			"0.002": 28.7419426018,
			"0.003": 29.8365588442,
			"0.004": 29.0703665799,
			"0.005": 18.5477232477,
			"0.006": 5.5647864289,
			"0.007": 3.77135238566,
			"0.008": 4.46433459143,
			"0.009": 3.58802765981,
			"0.01": 2.48740796314,
			"0.011": 2.07112271121,
			"0.012": 5.07696874289,
			"0.013": 1.89534014601,
			"0.014": 0.101741563496,
			"0.015": 0.0,
			"0.016": 0.0,
			"0.017": 0.0,
			"0.018": 0.0,
			"0.019": 0.0,
			"0.02": 0.0,
			"0.021": 0.0,
			"0.022": 0.0,
			"0.023": 0.0,
			"0.024": 0.0,
			"0.025": 0.0
		}
	}
}
