{
	 "smiles": "CCOC1=CC=C2NC(C)(C)C=C(C)C2=C1", 
	 "Tm": 253.15, 
	 "num_atms": 35, 
	 "gaussian": { 
		 "optdone": 1, 
		 "sigma_profile": "yes", 
		 "theory": "DFT", 
		 "functional": "B3LYP", 
		 "basiset": "6-31G**", 
		 "properties": { 
			 "R2extent": 4706.8669, 
			 "electric_dipole_moment_norm": 1.50509363828, 
			 "electric_quadrupole_moment_norm": 14.247895081, 
			 "total_energy": -674.917788931, 
			 "HOMO_LUMO_gap": 0.15054, 
			 "cosmo_polarized_energy": -9.05, 
			 "cosmo_cavitation_energy": 35.9, 
			 "cosmo_dispersion_energy": -25.23, 
			 "cosmo_repulsion_energy": 1.98, 
			 "cosmo_total_nonelectrostatic_energy": 12.65, 
			 "SMD_solvation_energy": 5.68 
		},
		"coords": [
			{
				"x": -2.6808576974,
				"y": 3.5603477212,
				"z": 0.7920394626,
				"element": "C" 
			},
			{
				"x": -2.6022802793,
				"y": 2.9314808449,
				"z": 2.1810585158,
				"element": "C" 
			},
			{
				"x": -2.9397556454,
				"y": 1.54718105,
				"z": 2.1813277113,
				"element": "O" 
			},
			{
				"x": -2.0079743969,
				"y": 0.6180650771,
				"z": 1.7830623896,
				"element": "C" 
			},
			{
				"x": -2.4521526969,
				"y": -0.7105994486,
				"z": 1.768906347,
				"element": "C" 
			},
			{
				"x": -1.5915167658,
				"y": -1.7370423727,
				"z": 1.3997698539,
				"element": "C" 
			},
			{
				"x": -0.2635678995,
				"y": -1.4699592071,
				"z": 1.0350754602,
				"element": "C" 
			},
			{
				"x": 0.6310233139,
				"y": -2.4979930027,
				"z": 0.7416926423,
				"element": "N" 
			},
			{
				"x": 1.7715544852,
				"y": -2.2611021351,
				"z": -0.1565374784,
				"element": "C" 
			},
			{
				"x": 2.8246608955,
				"y": -3.3466234709,
				"z": 0.1269265805,
				"element": "C" 
			},
			{
				"x": 1.345448434,
				"y": -2.3203247114,
				"z": -1.645774488,
				"element": "C" 
			},
			{
				"x": 2.3294268239,
				"y": -0.8871082158,
				"z": 0.1590255858,
				"element": "C" 
			},
			{
				"x": 1.5995671504,
				"y": 0.1133960541,
				"z": 0.6853393885,
				"element": "C" 
			},
			{
				"x": 2.1969924169,
				"y": 1.4800303379,
				"z": 0.9102455063,
				"element": "C" 
			},
			{
				"x": 0.1938250858,
				"y": -0.1325248545,
				"z": 1.0470176467,
				"element": "C" 
			},
			{
				"x": -0.6877183901,
				"y": 0.8963468029,
				"z": 1.4229527747,
				"element": "C" 
			},
			{
				"x": -1.9594884078,
				"y": 3.1118614589,
				"z": 0.1037574879,
				"element": "H" 
			},
			{
				"x": -3.6814913557,
				"y": 3.4229706112,
				"z": 0.3720984296,
				"element": "H" 
			},
			{
				"x": -2.4758832856,
				"y": 4.6348132556,
				"z": 0.8519296281,
				"element": "H" 
			},
			{
				"x": -3.3399385293,
				"y": 3.394040843,
				"z": 2.8439462901,
				"element": "H" 
			},
			{
				"x": -1.614894659,
				"y": 3.0875228191,
				"z": 2.6362964862,
				"element": "H" 
			},
			{
				"x": -3.4791093949,
				"y": -0.9181376187,
				"z": 2.0514681365,
				"element": "H" 
			},
			{
				"x": -1.9498440532,
				"y": -2.7639945563,
				"z": 1.3983639583,
				"element": "H" 
			},
			{
				"x": 0.1878623942,
				"y": -3.3969106423,
				"z": 0.595785929,
				"element": "H" 
			},
			{
				"x": 2.4168794548,
				"y": -4.344681401,
				"z": -0.0735470415,
				"element": "H" 
			},
			{
				"x": 3.7024301994,
				"y": -3.2128784015,
				"z": -0.5138029057,
				"element": "H" 
			},
			{
				"x": 3.1416034008,
				"y": -3.3075623679,
				"z": 1.1722417803,
				"element": "H" 
			},
			{
				"x": 2.1912803154,
				"y": -2.1012007002,
				"z": -2.3068396138,
				"element": "H" 
			},
			{
				"x": 0.9660955023,
				"y": -3.3177151376,
				"z": -1.9021145166,
				"element": "H" 
			},
			{
				"x": 0.5580792395,
				"y": -1.587652506,
				"z": -1.844714688,
				"element": "H" 
			},
			{
				"x": 3.3668700428,
				"y": -0.7146629993,
				"z": -0.119765179,
				"element": "H" 
			},
			{
				"x": 1.6906829713,
				"y": 2.2436192412,
				"z": 0.3065099109,
				"element": "H" 
			},
			{
				"x": 2.1068613161,
				"y": 1.7896472449,
				"z": 1.9582312112,
				"element": "H" 
			},
			{
				"x": 3.2561888864,
				"y": 1.4926580633,
				"z": 0.6409937317,
				"element": "H" 
			},
			{
				"x": -0.3228588717,
				"y": 1.9153923245,
				"z": 1.424833066,
				"element": "H" 
			}
		],
		 "valence_orbital": [ 
			{
				"type": "occ",
				"energy": -0.30542,
				"method": "rhf"
			},
			{
				"type": "occ",
				"energy": -0.27574,
				"method": "rhf"
			},
			{
				"type": "occ",
				"energy": -0.2536,
				"method": "rhf"
			},
			{
				"type": "occ",
				"energy": -0.21949,
				"method": "rhf"
			},
			{
				"type": "occ",
				"energy": -0.16802,
				"method": "rhf"
			},
			{
				"type": "unocc",
				"energy": -0.01748,
				"method": "rhf"
			},
			{
				"type": "unocc",
				"energy": 0.02994,
				"method": "rhf"
			},
			{
				"type": "unocc",
				"energy": 0.06598,
				"method": "rhf"
			},
			{
				"type": "unocc",
				"energy": 0.08022,
				"method": "rhf"
			},
			{
				"type": "unocc",
				"energy": 0.09104,
				"method": "rhf"
			}
		],
		"cosmo_sigma_profile": { 
			"-0.025": 0.0,
			"-0.024": 0.0,
			"-0.023": 0.0,
			"-0.022": 0.0,
			"-0.021": 0.0,
			"-0.02": 0.0,
			"-0.019": 0.0,
			"-0.018": 0.0,
			"-0.017": 0.0,
			"-0.016": 0.0,
			"-0.015": 0.0,
			"-0.014": 0.0,
			"-0.013": 0.0,
			"-0.012": 0.234951486105,
			"-0.011": 1.12112140523,
			"-0.01": 1.51113907641,
			"-0.009": 1.13422855184,
			"-0.008": 2.28130797237,
			"-0.007": 2.17233994783,
			"-0.006": 3.19433237212,
			"-0.005": 10.7633491771,
			"-0.004": 23.3854458889,
			"-0.003": 35.8107560312,
			"-0.002": 31.4331466799,
			"-0.001": 26.6867351692,
			"0.0": 31.8209368173,
			"0.001": 28.9662224888,
			"0.002": 14.28246451,
			"0.003": 11.1048730545,
			"0.004": 10.3957560199,
			"0.005": 12.3848134165,
			"0.006": 14.0455561163,
			"0.007": 7.50589245993,
			"0.008": 2.32393961476,
			"0.009": 2.94813297788,
			"0.01": 2.13683820693,
			"0.011": 2.28113896595,
			"0.012": 0.866649109992,
			"0.013": 0.107656085004,
			"0.014": 0.0,
			"0.015": 0.0,
			"0.016": 0.0,
			"0.017": 0.0,
			"0.018": 0.0,
			"0.019": 0.0,
			"0.02": 0.0,
			"0.021": 0.0,
			"0.022": 0.0,
			"0.023": 0.0,
			"0.024": 0.0,
			"0.025": 0.0
		}
	}
}
