{
	 "smiles": "ClC1=C2OC(OC2=C(Cl)C(Cl)=C1Cl)(C1=CC=CC=C1)C1=CC=CC=C1", 
	 "Tm": 426.15, 
	 "num_atms": 35, 
	 "gaussian": { 
		 "optdone": 1, 
		 "sigma_profile": "yes", 
		 "theory": "DFT", 
		 "functional": "B3LYP", 
		 "basiset": "6-31G**", 
		 "properties": { 
			 "R2extent": 12108.4517, 
			 "electric_dipole_moment_norm": 4.27199698736, 
			 "electric_quadrupole_moment_norm": 10.3844867249, 
			 "total_energy": -2721.22969715, 
			 "HOMO_LUMO_gap": 0.19482, 
			 "cosmo_polarized_energy": -7.37, 
			 "cosmo_cavitation_energy": 46.84, 
			 "cosmo_dispersion_energy": -32.3, 
			 "cosmo_repulsion_energy": 2.48, 
			 "cosmo_total_nonelectrostatic_energy": 17.02, 
			 "SMD_solvation_energy": 6.96 
		},
		"coords": [
			{
				"x": -3.3240916509,
				"y": 1.680059444,
				"z": 1.1826252661,
				"element": "Cl" 
			},
			{
				"x": -2.2834827457,
				"y": 0.5208905891,
				"z": 1.9464489863,
				"element": "C" 
			},
			{
				"x": -1.1093455805,
				"y": 0.1445913196,
				"z": 1.3229402456,
				"element": "C" 
			},
			{
				"x": -0.6327404237,
				"y": 0.5503725659,
				"z": 0.115135335,
				"element": "O" 
			},
			{
				"x": 0.7073255347,
				"y": -0.0105847959,
				"z": -0.013648062,
				"element": "C" 
			},
			{
				"x": 0.8139717664,
				"y": -0.9987758481,
				"z": 1.0594941362,
				"element": "O" 
			},
			{
				"x": -0.2445210457,
				"y": -0.7872446959,
				"z": 1.8858767322,
				"element": "C" 
			},
			{
				"x": -0.5124725488,
				"y": -1.3869084714,
				"z": 3.1019523261,
				"element": "C" 
			},
			{
				"x": 0.6060148852,
				"y": -2.5448257173,
				"z": 3.7486989988,
				"element": "Cl" 
			},
			{
				"x": -1.7073041056,
				"y": -1.0170746449,
				"z": 3.7651086466,
				"element": "C" 
			},
			{
				"x": -2.0767500671,
				"y": -1.7402299693,
				"z": 5.3016641103,
				"element": "Cl" 
			},
			{
				"x": -2.5808712679,
				"y": -0.0756502925,
				"z": 3.1954915413,
				"element": "C" 
			},
			{
				"x": -4.0435648433,
				"y": 0.3759622555,
				"z": 4.0182886696,
				"element": "Cl" 
			},
			{
				"x": 0.836409987,
				"y": -0.7289871989,
				"z": -1.345786128,
				"element": "C" 
			},
			{
				"x": 2.1023423866,
				"y": -1.1412646289,
				"z": -1.7809648355,
				"element": "C" 
			},
			{
				"x": 2.2366249518,
				"y": -1.8542972512,
				"z": -2.9706744854,
				"element": "C" 
			},
			{
				"x": 1.1102521278,
				"y": -2.1491367774,
				"z": -3.7423381644,
				"element": "C" 
			},
			{
				"x": -0.1505689201,
				"y": -1.7321186849,
				"z": -3.3150601445,
				"element": "C" 
			},
			{
				"x": -0.290761374,
				"y": -1.0285542927,
				"z": -2.117553936,
				"element": "C" 
			},
			{
				"x": 1.7254186651,
				"y": 1.1011336245,
				"z": 0.2045266321,
				"element": "C" 
			},
			{
				"x": 2.7788588106,
				"y": 0.961232725,
				"z": 1.1121191026,
				"element": "C" 
			},
			{
				"x": 3.7015571401,
				"y": 1.9981405267,
				"z": 1.2757848296,
				"element": "C" 
			},
			{
				"x": 3.5740514797,
				"y": 3.1747890154,
				"z": 0.5390231826,
				"element": "C" 
			},
			{
				"x": 2.5195394608,
				"y": 3.3155822033,
				"z": -0.3680305691,
				"element": "C" 
			},
			{
				"x": 1.6008018822,
				"y": 2.2829410717,
				"z": -0.5382844654,
				"element": "C" 
			},
			{
				"x": 2.9808803875,
				"y": -0.9016845227,
				"z": -1.190404843,
				"element": "H" 
			},
			{
				"x": 3.2215684335,
				"y": -2.1735075818,
				"z": -3.2982401058,
				"element": "H" 
			},
			{
				"x": 1.2165071987,
				"y": -2.6980206116,
				"z": -4.6735187304,
				"element": "H" 
			},
			{
				"x": -1.0299580918,
				"y": -1.953745618,
				"z": -3.9125806127,
				"element": "H" 
			},
			{
				"x": -1.2698146812,
				"y": -0.7026197464,
				"z": -1.7866290102,
				"element": "H" 
			},
			{
				"x": 2.8718331667,
				"y": 0.0484693679,
				"z": 1.6896869563,
				"element": "H" 
			},
			{
				"x": 4.5165560553,
				"y": 1.8833626537,
				"z": 1.9843973269,
				"element": "H" 
			},
			{
				"x": 4.2904166734,
				"y": 3.9805728927,
				"z": 0.6699055017,
				"element": "H" 
			},
			{
				"x": 2.412834663,
				"y": 4.2312733533,
				"z": -0.9420911111,
				"element": "H" 
			},
			{
				"x": 0.7794816902,
				"y": 2.3931577417,
				"z": -1.2395633224,
				"element": "H" 
			}
		],
		 "valence_orbital": [ 
			{
				"type": "occ",
				"energy": -0.26349,
				"method": "rhf"
			},
			{
				"type": "occ",
				"energy": -0.26292,
				"method": "rhf"
			},
			{
				"type": "occ",
				"energy": -0.25527,
				"method": "rhf"
			},
			{
				"type": "occ",
				"energy": -0.24884,
				"method": "rhf"
			},
			{
				"type": "occ",
				"energy": -0.22871,
				"method": "rhf"
			},
			{
				"type": "unocc",
				"energy": -0.03389,
				"method": "rhf"
			},
			{
				"type": "unocc",
				"energy": -0.03143,
				"method": "rhf"
			},
			{
				"type": "unocc",
				"energy": -0.02754,
				"method": "rhf"
			},
			{
				"type": "unocc",
				"energy": -0.02474,
				"method": "rhf"
			},
			{
				"type": "unocc",
				"energy": -0.02083,
				"method": "rhf"
			}
		],
		"cosmo_sigma_profile": { 
			"-0.025": 0.0,
			"-0.024": 0.0,
			"-0.023": 0.0,
			"-0.022": 0.0,
			"-0.021": 0.0,
			"-0.02": 0.0,
			"-0.019": 0.0,
			"-0.018": 0.0,
			"-0.017": 0.0,
			"-0.016": 0.0,
			"-0.015": 0.0,
			"-0.014": 0.0,
			"-0.013": 0.0,
			"-0.012": 0.0,
			"-0.011": 0.0,
			"-0.01": 0.0,
			"-0.009": 0.0,
			"-0.008": 0.0,
			"-0.007": 1.33831356333,
			"-0.006": 15.2443864417,
			"-0.005": 20.9892903087,
			"-0.004": 29.6361758035,
			"-0.003": 28.6425384201,
			"-0.002": 38.121930614,
			"-0.001": 39.6765456678,
			"0.0": 30.5375126999,
			"0.001": 30.1367821651,
			"0.002": 39.3878186422,
			"0.003": 53.7528561079,
			"0.004": 40.2635055202,
			"0.005": 15.1903461069,
			"0.006": 2.64214847474,
			"0.007": 1.08862549339,
			"0.008": 0.146647818547,
			"0.009": 0.0,
			"0.01": 0.0,
			"0.011": 0.0,
			"0.012": 0.0,
			"0.013": 0.0,
			"0.014": 0.0,
			"0.015": 0.0,
			"0.016": 0.0,
			"0.017": 0.0,
			"0.018": 0.0,
			"0.019": 0.0,
			"0.02": 0.0,
			"0.021": 0.0,
			"0.022": 0.0,
			"0.023": 0.0,
			"0.024": 0.0,
			"0.025": 0.0
		}
	}
}
