{
	 "smiles": "CCCNC(=O)CC#N", 
	 "Tm": 327.15, 
	 "num_atms": 19, 
	 "gaussian": { 
		 "optdone": 1, 
		 "sigma_profile": "yes", 
		 "theory": "DFT", 
		 "functional": "B3LYP", 
		 "basiset": "6-31G**", 
		 "properties": { 
			 "R2extent": 1540.9715, 
			 "electric_dipole_moment_norm": 3.6583041686, 
			 "electric_quadrupole_moment_norm": 12.3099512639, 
			 "total_energy": -419.39107884, 
			 "HOMO_LUMO_gap": 0.26428, 
			 "cosmo_polarized_energy": -14.7, 
			 "cosmo_cavitation_energy": 23.26, 
			 "cosmo_dispersion_energy": -15.99, 
			 "cosmo_repulsion_energy": 1.35, 
			 "cosmo_total_nonelectrostatic_energy": 8.62, 
			 "SMD_solvation_energy": 5.57 
		},
		"coords": [
			{
				"x": -3.0553539728,
				"y": 1.099837391,
				"z": 0.4500757181,
				"element": "C" 
			},
			{
				"x": -1.8848908558,
				"y": 0.601427493,
				"z": -0.402412041,
				"element": "C" 
			},
			{
				"x": -0.8663017709,
				"y": -0.1937040746,
				"z": 0.4255449935,
				"element": "C" 
			},
			{
				"x": 0.2421976814,
				"y": -0.7175955624,
				"z": -0.3676980422,
				"element": "N" 
			},
			{
				"x": 1.5486137258,
				"y": -0.3354844039,
				"z": -0.4206021482,
				"element": "C" 
			},
			{
				"x": 2.3590555569,
				"y": -0.8635775603,
				"z": -1.1658663788,
				"element": "O" 
			},
			{
				"x": 2.0138936322,
				"y": 0.781935093,
				"z": 0.5465797523,
				"element": "C" 
			},
			{
				"x": 1.3475854483,
				"y": 2.0686608944,
				"z": 0.3496161366,
				"element": "C" 
			},
			{
				"x": 0.8037421673,
				"y": 3.0806168605,
				"z": 0.1807434088,
				"element": "N" 
			},
			{
				"x": -3.5861894061,
				"y": 0.2696299703,
				"z": 0.9303386543,
				"element": "H" 
			},
			{
				"x": -3.7786793241,
				"y": 1.6469831308,
				"z": -0.1612345066,
				"element": "H" 
			},
			{
				"x": -2.7093211427,
				"y": 1.777970272,
				"z": 1.2377414526,
				"element": "H" 
			},
			{
				"x": -1.3730778527,
				"y": 1.4480088078,
				"z": -0.8718115657,
				"element": "H" 
			},
			{
				"x": -2.257696375,
				"y": -0.0365441324,
				"z": -1.2145738072,
				"element": "H" 
			},
			{
				"x": -1.365087742,
				"y": -1.0375386943,
				"z": 0.9204703783,
				"element": "H" 
			},
			{
				"x": -0.4652579953,
				"y": 0.4365175486,
				"z": 1.22299998,
				"element": "H" 
			},
			{
				"x": 0.0278739689,
				"y": -1.4428900005,
				"z": -1.0414271481,
				"element": "H" 
			},
			{
				"x": 1.876486444,
				"y": 0.4652089979,
				"z": 1.5874129485,
				"element": "H" 
			},
			{
				"x": 3.0853078125,
				"y": 0.8949379693,
				"z": 0.3677022147,
				"element": "H" 
			}
		],
		 "valence_orbital": [ 
			{
				"type": "occ",
				"energy": -0.34855,
				"method": "rhf"
			},
			{
				"type": "occ",
				"energy": -0.33999,
				"method": "rhf"
			},
			{
				"type": "occ",
				"energy": -0.33396,
				"method": "rhf"
			},
			{
				"type": "occ",
				"energy": -0.26507,
				"method": "rhf"
			},
			{
				"type": "occ",
				"energy": -0.26338,
				"method": "rhf"
			},
			{
				"type": "unocc",
				"energy": 0.0009,
				"method": "rhf"
			},
			{
				"type": "unocc",
				"energy": 0.02503,
				"method": "rhf"
			},
			{
				"type": "unocc",
				"energy": 0.0381,
				"method": "rhf"
			},
			{
				"type": "unocc",
				"energy": 0.06823,
				"method": "rhf"
			},
			{
				"type": "unocc",
				"energy": 0.08633,
				"method": "rhf"
			}
		],
		"cosmo_sigma_profile": { 
			"-0.025": 0.0,
			"-0.024": 0.0,
			"-0.023": 0.0,
			"-0.022": 0.0,
			"-0.021": 0.0,
			"-0.02": 0.0,
			"-0.019": 0.0,
			"-0.018": 0.0,
			"-0.017": 0.0,
			"-0.016": 0.0,
			"-0.015": 0.0,
			"-0.014": 0.794684424297,
			"-0.013": 1.02582815517,
			"-0.012": 1.04463577089,
			"-0.011": 1.60087924399,
			"-0.01": 4.85307060277,
			"-0.009": 5.33065545773,
			"-0.008": 5.69370156016,
			"-0.007": 6.01166906936,
			"-0.006": 5.9281913721,
			"-0.005": 7.55296843224,
			"-0.004": 9.86004996449,
			"-0.003": 16.3906978084,
			"-0.002": 16.2794269846,
			"-0.001": 16.5506662418,
			"0.0": 15.0253004755,
			"0.001": 15.1805755923,
			"0.002": 6.02337374585,
			"0.003": 4.39795174089,
			"0.004": 3.49295707198,
			"0.005": 3.61541021068,
			"0.006": 2.52928824681,
			"0.007": 3.56614811681,
			"0.008": 3.99793230967,
			"0.009": 4.87161923558,
			"0.01": 3.19889868228,
			"0.011": 4.01766015084,
			"0.012": 5.2615716729,
			"0.013": 7.31003139288,
			"0.014": 1.78007782319,
			"0.015": 0.0,
			"0.016": 0.0,
			"0.017": 0.0,
			"0.018": 0.0,
			"0.019": 0.0,
			"0.02": 0.0,
			"0.021": 0.0,
			"0.022": 0.0,
			"0.023": 0.0,
			"0.024": 0.0,
			"0.025": 0.0
		}
	}
}
