{
	 "smiles": "CC(C)(C)C1=CC=C(C=C1)S(N)(=O)=O", 
	 "Tm": 410.15, 
	 "num_atms": 29, 
	 "gaussian": { 
		 "optdone": 1, 
		 "sigma_profile": "yes", 
		 "theory": "DFT", 
		 "functional": "B3LYP", 
		 "basiset": "6-31G**", 
		 "properties": { 
			 "R2extent": 4563.1248, 
			 "electric_dipole_moment_norm": 4.21700938818, 
			 "electric_quadrupole_moment_norm": 19.2711933805, 
			 "total_energy": -993.438046996, 
			 "HOMO_LUMO_gap": 0.22272, 
			 "cosmo_polarized_energy": -14.71, 
			 "cosmo_cavitation_energy": 32.33, 
			 "cosmo_dispersion_energy": -23.66, 
			 "cosmo_repulsion_energy": 1.81, 
			 "cosmo_total_nonelectrostatic_energy": 10.48, 
			 "SMD_solvation_energy": 5.28 
		},
		"coords": [
			{
				"x": -0.7219847092,
				"y": 1.8765537619,
				"z": 2.7521010697,
				"element": "C" 
			},
			{
				"x": 0.4230604873,
				"y": 1.0978845686,
				"z": 2.0607375483,
				"element": "C" 
			},
			{
				"x": 0.8110665022,
				"y": -0.1239120939,
				"z": 2.9278632965,
				"element": "C" 
			},
			{
				"x": 1.6476124889,
				"y": 2.02745757,
				"z": 1.9641472882,
				"element": "C" 
			},
			{
				"x": -0.0531227091,
				"y": 0.6116187474,
				"z": 0.6803491716,
				"element": "C" 
			},
			{
				"x": 0.5682853026,
				"y": 0.9974178444,
				"z": -0.5156265672,
				"element": "C" 
			},
			{
				"x": 0.1137488666,
				"y": 0.5421320149,
				"z": -1.7550856039,
				"element": "C" 
			},
			{
				"x": -0.9797340797,
				"y": -0.3172651145,
				"z": -1.8059405659,
				"element": "C" 
			},
			{
				"x": -1.6301992999,
				"y": -0.7143871513,
				"z": -0.6356582075,
				"element": "C" 
			},
			{
				"x": -1.1624530602,
				"y": -0.2504306546,
				"z": 0.5885876989,
				"element": "C" 
			},
			{
				"x": -1.5713498728,
				"y": -0.904909404,
				"z": -3.388420977,
				"element": "S" 
			},
			{
				"x": -0.8494785766,
				"y": -2.4354262374,
				"z": -3.5350998847,
				"element": "N" 
			},
			{
				"x": -1.0059259399,
				"y": -0.0349671638,
				"z": -4.4254697468,
				"element": "O" 
			},
			{
				"x": -3.0124419595,
				"y": -1.1509280853,
				"z": -3.2756127128,
				"element": "O" 
			},
			{
				"x": -1.0152990914,
				"y": 2.7501933399,
				"z": 2.1610628294,
				"element": "H" 
			},
			{
				"x": -0.3993693326,
				"y": 2.2264973608,
				"z": 3.738914412,
				"element": "H" 
			},
			{
				"x": -1.6113426416,
				"y": 1.2556831069,
				"z": 2.8943767866,
				"element": "H" 
			},
			{
				"x": 1.6242140684,
				"y": -0.6920425649,
				"z": 2.4643920144,
				"element": "H" 
			},
			{
				"x": 1.147873368,
				"y": 0.2059978871,
				"z": 3.9168000956,
				"element": "H" 
			},
			{
				"x": -0.0316385014,
				"y": -0.805777483,
				"z": 3.0747448945,
				"element": "H" 
			},
			{
				"x": 2.5060037447,
				"y": 1.5261579335,
				"z": 1.5049541022,
				"element": "H" 
			},
			{
				"x": 1.9491857009,
				"y": 2.3421130332,
				"z": 2.9681732508,
				"element": "H" 
			},
			{
				"x": 1.4294408918,
				"y": 2.9326166918,
				"z": 1.3880386372,
				"element": "H" 
			},
			{
				"x": 1.4186705698,
				"y": 1.6684436435,
				"z": -0.4975899768,
				"element": "H" 
			},
			{
				"x": 0.5914460485,
				"y": 0.8625959149,
				"z": -2.6744555409,
				"element": "H" 
			},
			{
				"x": -2.4978073806,
				"y": -1.3629786655,
				"z": -0.6899022472,
				"element": "H" 
			},
			{
				"x": -1.678860494,
				"y": -0.5634331729,
				"z": 1.4905872387,
				"element": "H" 
			},
			{
				"x": -0.1336802074,
				"y": -2.4067379744,
				"z": -4.2568073038,
				"element": "H" 
			},
			{
				"x": -1.5744201835,
				"y": -3.1102676532,
				"z": -3.7660610002,
				"element": "H" 
			}
		],
		 "valence_orbital": [ 
			{
				"type": "occ",
				"energy": -0.31144,
				"method": "rhf"
			},
			{
				"type": "occ",
				"energy": -0.30101,
				"method": "rhf"
			},
			{
				"type": "occ",
				"energy": -0.29373,
				"method": "rhf"
			},
			{
				"type": "occ",
				"energy": -0.26471,
				"method": "rhf"
			},
			{
				"type": "occ",
				"energy": -0.25526,
				"method": "rhf"
			},
			{
				"type": "unocc",
				"energy": -0.03254,
				"method": "rhf"
			},
			{
				"type": "unocc",
				"energy": -0.01596,
				"method": "rhf"
			},
			{
				"type": "unocc",
				"energy": 0.0563,
				"method": "rhf"
			},
			{
				"type": "unocc",
				"energy": 0.07517,
				"method": "rhf"
			},
			{
				"type": "unocc",
				"energy": 0.08926,
				"method": "rhf"
			}
		],
		"cosmo_sigma_profile": { 
			"-0.025": 0.0,
			"-0.024": 0.0,
			"-0.023": 0.0,
			"-0.022": 0.0,
			"-0.021": 0.0,
			"-0.02": 0.0,
			"-0.019": 0.0,
			"-0.018": 0.0,
			"-0.017": 0.0,
			"-0.016": 0.0,
			"-0.015": 0.566062440441,
			"-0.014": 2.6000040128,
			"-0.013": 2.55662975767,
			"-0.012": 2.48451815054,
			"-0.011": 2.02161782974,
			"-0.01": 2.05181819996,
			"-0.009": 1.72759593068,
			"-0.008": 1.73893064057,
			"-0.007": 3.54073875276,
			"-0.006": 8.92779027542,
			"-0.005": 10.4290400719,
			"-0.004": 12.495262237,
			"-0.003": 26.5156948546,
			"-0.002": 24.2514321961,
			"-0.001": 22.9215770259,
			"0.0": 21.4874439743,
			"0.001": 29.23704191,
			"0.002": 13.5028311005,
			"0.003": 14.4245100131,
			"0.004": 9.50266290462,
			"0.005": 4.30558577685,
			"0.006": 2.69199810377,
			"0.007": 4.00883481602,
			"0.008": 3.74342719094,
			"0.009": 3.61148812461,
			"0.01": 7.19140802745,
			"0.011": 10.559461421,
			"0.012": 4.43563739515,
			"0.013": 0.273838324555,
			"0.014": 0.0,
			"0.015": 0.0,
			"0.016": 0.0,
			"0.017": 0.0,
			"0.018": 0.0,
			"0.019": 0.0,
			"0.02": 0.0,
			"0.021": 0.0,
			"0.022": 0.0,
			"0.023": 0.0,
			"0.024": 0.0,
			"0.025": 0.0
		}
	}
}
