{
	 "smiles": "NNS(=O)(=O)CCC1=CC=CC=C1", 
	 "Tm": 336.15, 
	 "num_atms": 25, 
	 "gaussian": { 
		 "optdone": 1, 
		 "sigma_profile": "yes", 
		 "theory": "DFT", 
		 "functional": "B3LYP", 
		 "basiset": "6-31G**", 
		 "properties": { 
			 "R2extent": 3685.5, 
			 "electric_dipole_moment_norm": 3.32327763661, 
			 "electric_quadrupole_moment_norm": 10.1287501534, 
			 "total_energy": -970.126527334, 
			 "HOMO_LUMO_gap": 0.23998, 
			 "cosmo_polarized_energy": -16.28, 
			 "cosmo_cavitation_energy": 29.58, 
			 "cosmo_dispersion_energy": -21.89, 
			 "cosmo_repulsion_energy": 1.69, 
			 "cosmo_total_nonelectrostatic_energy": 9.38, 
			 "SMD_solvation_energy": 4.61 
		},
		"coords": [
			{
				"x": 3.4563207813,
				"y": -0.4961743209,
				"z": 2.2248200405,
				"element": "N" 
			},
			{
				"x": 2.6885854136,
				"y": -0.9743331899,
				"z": 1.1384086028,
				"element": "N" 
			},
			{
				"x": 1.6505918131,
				"y": 0.1597811009,
				"z": 0.3564631515,
				"element": "S" 
			},
			{
				"x": 1.580925212,
				"y": -0.2983539049,
				"z": -1.0374923742,
				"element": "O" 
			},
			{
				"x": 2.0841715096,
				"y": 1.5230794955,
				"z": 0.6981120306,
				"element": "O" 
			},
			{
				"x": 0.0691517619,
				"y": -0.1188755353,
				"z": 1.1985202566,
				"element": "C" 
			},
			{
				"x": -0.5937928096,
				"y": -1.4830542217,
				"z": 0.8981746497,
				"element": "C" 
			},
			{
				"x": -1.7813601747,
				"y": -1.4019779851,
				"z": -0.0433825834,
				"element": "C" 
			},
			{
				"x": -3.0770183708,
				"y": -1.6230608841,
				"z": 0.4401402088,
				"element": "C" 
			},
			{
				"x": -4.1825548692,
				"y": -1.5470857645,
				"z": -0.4096070141,
				"element": "C" 
			},
			{
				"x": -4.0045772227,
				"y": -1.2462016117,
				"z": -1.7600020995,
				"element": "C" 
			},
			{
				"x": -2.7164036577,
				"y": -1.0239436577,
				"z": -2.2525610007,
				"element": "C" 
			},
			{
				"x": -1.6121119881,
				"y": -1.1018063783,
				"z": -1.4035963433,
				"element": "C" 
			},
			{
				"x": 3.6833582594,
				"y": 0.4911283589,
				"z": 2.094920867,
				"element": "H" 
			},
			{
				"x": 2.9055498358,
				"y": -0.5943026978,
				"z": 3.0729223698,
				"element": "H" 
			},
			{
				"x": 3.2913647226,
				"y": -1.351085807,
				"z": 0.4079679067,
				"element": "H" 
			},
			{
				"x": -0.5547029214,
				"y": 0.7260166713,
				"z": 0.8952995219,
				"element": "H" 
			},
			{
				"x": 0.3064317914,
				"y": 0.0072835289,
				"z": 2.2590385862,
				"element": "H" 
			},
			{
				"x": -0.9226587,
				"y": -1.9098545818,
				"z": 1.850664005,
				"element": "H" 
			},
			{
				"x": 0.16048233,
				"y": -2.1722747621,
				"z": 0.5039074031,
				"element": "H" 
			},
			{
				"x": -3.2229941375,
				"y": -1.8605111226,
				"z": 1.4915811212,
				"element": "H" 
			},
			{
				"x": -5.1795164899,
				"y": -1.7237080724,
				"z": -0.0156045151,
				"element": "H" 
			},
			{
				"x": -4.8619078616,
				"y": -1.1868375903,
				"z": -2.424422287,
				"element": "H" 
			},
			{
				"x": -2.5690774603,
				"y": -0.7917714195,
				"z": -3.3036533347,
				"element": "H" 
			},
			{
				"x": -0.6128567672,
				"y": -0.9263756477,
				"z": -1.7909191694,
				"element": "H" 
			}
		],
		 "valence_orbital": [ 
			{
				"type": "occ",
				"energy": -0.31109,
				"method": "rhf"
			},
			{
				"type": "occ",
				"energy": -0.28898,
				"method": "rhf"
			},
			{
				"type": "occ",
				"energy": -0.2722,
				"method": "rhf"
			},
			{
				"type": "occ",
				"energy": -0.24934,
				"method": "rhf"
			},
			{
				"type": "occ",
				"energy": -0.24442,
				"method": "rhf"
			},
			{
				"type": "unocc",
				"energy": -0.00444,
				"method": "rhf"
			},
			{
				"type": "unocc",
				"energy": -0.00087,
				"method": "rhf"
			},
			{
				"type": "unocc",
				"energy": 0.05017,
				"method": "rhf"
			},
			{
				"type": "unocc",
				"energy": 0.0541,
				"method": "rhf"
			},
			{
				"type": "unocc",
				"energy": 0.06682,
				"method": "rhf"
			}
		],
		"cosmo_sigma_profile": { 
			"-0.025": 0.0,
			"-0.024": 0.0,
			"-0.023": 0.0,
			"-0.022": 0.0,
			"-0.021": 0.0,
			"-0.02": 0.0,
			"-0.019": 0.0,
			"-0.018": 0.0,
			"-0.017": 0.0,
			"-0.016": 0.0,
			"-0.015": 0.0,
			"-0.014": 0.698782409502,
			"-0.013": 0.986735796324,
			"-0.012": 2.17430598868,
			"-0.011": 4.55219382461,
			"-0.01": 4.15259817021,
			"-0.009": 4.74051406123,
			"-0.008": 6.76490836518,
			"-0.007": 6.12790229008,
			"-0.006": 10.2526301478,
			"-0.005": 17.3991154008,
			"-0.004": 17.2053597943,
			"-0.003": 15.9951822155,
			"-0.002": 14.5639967144,
			"-0.001": 13.5735198789,
			"0.0": 10.9768195995,
			"0.001": 11.4813487431,
			"0.002": 12.1954506072,
			"0.003": 9.67963934584,
			"0.004": 11.015092322,
			"0.005": 12.1059919205,
			"0.006": 12.345739007,
			"0.007": 5.47430536744,
			"0.008": 4.83091720447,
			"0.009": 5.08850410741,
			"0.01": 4.89341899754,
			"0.011": 8.74224298485,
			"0.012": 4.02715618489,
			"0.013": 0.552180643578,
			"0.014": 0.616614045178,
			"0.015": 0.420545706382,
			"0.016": 0.18701043764,
			"0.017": 0.0,
			"0.018": 0.0,
			"0.019": 0.0,
			"0.02": 0.0,
			"0.021": 0.0,
			"0.022": 0.0,
			"0.023": 0.0,
			"0.024": 0.0,
			"0.025": 0.0
		}
	}
}
