{
	 "smiles": "SC1=NN=C(N1CC=C)C1=CC2=CC=CN=C2C=C1", 
	 "Tm": 485.15, 
	 "num_atms": 31, 
	 "gaussian": { 
		 "optdone": 1, 
		 "sigma_profile": "yes", 
		 "theory": "DFT", 
		 "functional": "B3LYP", 
		 "basiset": "6-31G**", 
		 "properties": { 
			 "R2extent": 7027.3896, 
			 "electric_dipole_moment_norm": 5.85134876417, 
			 "electric_quadrupole_moment_norm": 8.01595871933, 
			 "total_energy": -1157.86960869, 
			 "HOMO_LUMO_gap": 0.15789, 
			 "cosmo_polarized_energy": -19.91, 
			 "cosmo_cavitation_energy": 37.39, 
			 "cosmo_dispersion_energy": -26.8, 
			 "cosmo_repulsion_energy": 2.0, 
			 "cosmo_total_nonelectrostatic_energy": 12.59, 
			 "SMD_solvation_energy": 2.57 
		},
		"coords": [
			{
				"x": 0.4954607858,
				"y": -3.8134087526,
				"z": 1.1965333878,
				"element": "S" 
			},
			{
				"x": 0.8723045133,
				"y": -2.1009914294,
				"z": 0.9657635431,
				"element": "C" 
			},
			{
				"x": 1.9017671056,
				"y": -1.4735580135,
				"z": 1.4874074207,
				"element": "N" 
			},
			{
				"x": 1.8158281098,
				"y": -0.1600062623,
				"z": 1.0869632456,
				"element": "N" 
			},
			{
				"x": 0.7403373942,
				"y": -0.0257654417,
				"z": 0.3388294408,
				"element": "C" 
			},
			{
				"x": 0.0889064514,
				"y": -1.2465777357,
				"z": 0.2273198215,
				"element": "N" 
			},
			{
				"x": -1.0470396255,
				"y": -1.6216801366,
				"z": -0.6246648144,
				"element": "C" 
			},
			{
				"x": -0.6451052142,
				"y": -2.5055762413,
				"z": -1.7773329622,
				"element": "C" 
			},
			{
				"x": -1.2284163148,
				"y": -3.6699519019,
				"z": -2.057712402,
				"element": "C" 
			},
			{
				"x": 0.3241219718,
				"y": 1.2499569043,
				"z": -0.2637715833,
				"element": "C" 
			},
			{
				"x": -0.9889454065,
				"y": 1.6916064814,
				"z": -0.2588890983,
				"element": "C" 
			},
			{
				"x": -1.3394233811,
				"y": 2.9431735264,
				"z": -0.8266142316,
				"element": "C" 
			},
			{
				"x": -2.6682601959,
				"y": 3.4403211915,
				"z": -0.8485084561,
				"element": "C" 
			},
			{
				"x": -2.9170392201,
				"y": 4.6660449621,
				"z": -1.418607232,
				"element": "C" 
			},
			{
				"x": -1.8315303607,
				"y": 5.3953458187,
				"z": -1.9678727184,
				"element": "C" 
			},
			{
				"x": -0.5807855864,
				"y": 4.978511771,
				"z": -1.9656893437,
				"element": "N" 
			},
			{
				"x": -0.3176533942,
				"y": 3.7653972446,
				"z": -1.3993120041,
				"element": "C" 
			},
			{
				"x": 1.0263542287,
				"y": 3.3048414526,
				"z": -1.3679035138,
				"element": "C" 
			},
			{
				"x": 1.3389591166,
				"y": 2.0868355765,
				"z": -0.8163843929,
				"element": "C" 
			},
			{
				"x": 1.3147356383,
				"y": -3.9105120811,
				"z": 2.2613576985,
				"element": "H" 
			},
			{
				"x": -1.4730987504,
				"y": -0.6900844241,
				"z": -1.0031678842,
				"element": "H" 
			},
			{
				"x": -1.8072119298,
				"y": -2.1117787785,
				"z": -0.0066473331,
				"element": "H" 
			},
			{
				"x": 0.1568472127,
				"y": -2.1230947733,
				"z": -2.4068772741,
				"element": "H" 
			},
			{
				"x": -2.0256936267,
				"y": -4.0741118383,
				"z": -1.4385177351,
				"element": "H" 
			},
			{
				"x": -0.9307119228,
				"y": -4.2614387779,
				"z": -2.9176545008,
				"element": "H" 
			},
			{
				"x": -1.7689900675,
				"y": 1.1050285503,
				"z": 0.2190255776,
				"element": "H" 
			},
			{
				"x": -3.4703527711,
				"y": 2.8472881027,
				"z": -0.4158579487,
				"element": "H" 
			},
			{
				"x": -3.9196499825,
				"y": 5.0800506902,
				"z": -1.4552952833,
				"element": "H" 
			},
			{
				"x": -2.0161769359,
				"y": 6.366589921,
				"z": -2.4257970358,
				"element": "H" 
			},
			{
				"x": 1.7889338761,
				"y": 3.9477762803,
				"z": -1.7948606388,
				"element": "H" 
			},
			{
				"x": 2.3646282816,
				"y": 1.7361681146,
				"z": -0.7838617489,
				"element": "H" 
			}
		],
		 "valence_orbital": [ 
			{
				"type": "occ",
				"energy": -0.26455,
				"method": "rhf"
			},
			{
				"type": "occ",
				"energy": -0.26039,
				"method": "rhf"
			},
			{
				"type": "occ",
				"energy": -0.25506,
				"method": "rhf"
			},
			{
				"type": "occ",
				"energy": -0.24494,
				"method": "rhf"
			},
			{
				"type": "occ",
				"energy": -0.22278,
				"method": "rhf"
			},
			{
				"type": "unocc",
				"energy": -0.06489,
				"method": "rhf"
			},
			{
				"type": "unocc",
				"energy": -0.03297,
				"method": "rhf"
			},
			{
				"type": "unocc",
				"energy": -0.01242,
				"method": "rhf"
			},
			{
				"type": "unocc",
				"energy": 0.00571,
				"method": "rhf"
			},
			{
				"type": "unocc",
				"energy": 0.00874,
				"method": "rhf"
			}
		],
		"cosmo_sigma_profile": { 
			"-0.025": 0.0,
			"-0.024": 0.0,
			"-0.023": 0.0,
			"-0.022": 0.0,
			"-0.021": 0.0,
			"-0.02": 0.0,
			"-0.019": 0.0,
			"-0.018": 0.0,
			"-0.017": 0.0,
			"-0.016": 0.0,
			"-0.015": 0.0,
			"-0.014": 0.0,
			"-0.013": 0.0,
			"-0.012": 0.888193857294,
			"-0.011": 1.91555835741,
			"-0.01": 0.840645960978,
			"-0.009": 1.91445564501,
			"-0.008": 6.46293576833,
			"-0.007": 13.7694575398,
			"-0.006": 24.9706303993,
			"-0.005": 23.3265295292,
			"-0.004": 20.7391647215,
			"-0.003": 17.4221546695,
			"-0.002": 18.1168238712,
			"-0.001": 17.8368042724,
			"0.0": 18.7122942585,
			"0.001": 27.6961064416,
			"0.002": 28.0514936134,
			"0.003": 19.1208360336,
			"0.004": 10.8682839694,
			"0.005": 8.1665964307,
			"0.006": 7.71611821661,
			"0.007": 5.33765354312,
			"0.008": 2.57121585188,
			"0.009": 3.37995472715,
			"0.01": 3.1990294842,
			"0.011": 2.94493302346,
			"0.012": 3.79985897486,
			"0.013": 3.76030793549,
			"0.014": 3.44849055331,
			"0.015": 3.51887163077,
			"0.016": 2.15164786875,
			"0.017": 0.252816301127,
			"0.018": 0.0,
			"0.019": 0.0,
			"0.02": 0.0,
			"0.021": 0.0,
			"0.022": 0.0,
			"0.023": 0.0,
			"0.024": 0.0,
			"0.025": 0.0
		}
	}
}
