{
	 "smiles": "CC(C(=O)NC1=CC=C(F)C(Cl)=C1)(C(F)(F)F)C(F)(F)F", 
	 "Tm": 345.15, 
	 "num_atms": 28, 
	 "gaussian": { 
		 "optdone": 1, 
		 "sigma_profile": "yes", 
		 "theory": "DFT", 
		 "functional": "B3LYP", 
		 "basiset": "6-31G**", 
		 "properties": { 
			 "R2extent": 7961.3893, 
			 "electric_dipole_moment_norm": 3.02136483232, 
			 "electric_quadrupole_moment_norm": 19.1353537712, 
			 "total_energy": -1712.43983363, 
			 "HOMO_LUMO_gap": 0.2158, 
			 "cosmo_polarized_energy": -11.79, 
			 "cosmo_cavitation_energy": 35.98, 
			 "cosmo_dispersion_energy": -24.5, 
			 "cosmo_repulsion_energy": 1.73, 
			 "cosmo_total_nonelectrostatic_energy": 13.21, 
			 "SMD_solvation_energy": 8.87 
		},
		"coords": [
			{
				"x": 0.6577081465,
				"y": 0.3980663887,
				"z": 0.7873970137,
				"element": "C" 
			},
			{
				"x": 0.0199786318,
				"y": 1.487082559,
				"z": 1.6732299515,
				"element": "C" 
			},
			{
				"x": -1.2858162581,
				"y": 2.1579603262,
				"z": 1.1327056006,
				"element": "C" 
			},
			{
				"x": -1.675115785,
				"y": 3.1934911824,
				"z": 1.6437912297,
				"element": "O" 
			},
			{
				"x": -1.9569076667,
				"y": 1.6546749112,
				"z": 0.0360785973,
				"element": "N" 
			},
			{
				"x": -2.0519273356,
				"y": 0.3571266189,
				"z": -0.5593371031,
				"element": "C" 
			},
			{
				"x": -2.5555047601,
				"y": -0.7379504451,
				"z": 0.1526888536,
				"element": "C" 
			},
			{
				"x": -2.6925067066,
				"y": -1.9733624753,
				"z": -0.4771836104,
				"element": "C" 
			},
			{
				"x": -2.3562970196,
				"y": -2.1045514449,
				"z": -1.8198528713,
				"element": "C" 
			},
			{
				"x": -2.5003861259,
				"y": -3.2916523096,
				"z": -2.4217245103,
				"element": "F" 
			},
			{
				"x": -1.8763001096,
				"y": -1.011824079,
				"z": -2.5464051326,
				"element": "C" 
			},
			{
				"x": -1.4699800934,
				"y": -1.2027707365,
				"z": -4.2302928575,
				"element": "Cl" 
			},
			{
				"x": -1.7210619658,
				"y": 0.2190749546,
				"z": -1.9117447068,
				"element": "C" 
			},
			{
				"x": -0.2965344582,
				"y": 0.8846765436,
				"z": 3.0606908964,
				"element": "C" 
			},
			{
				"x": 0.7945247681,
				"y": 0.3075067741,
				"z": 3.5996070416,
				"element": "F" 
			},
			{
				"x": -0.7664709645,
				"y": 1.7744750244,
				"z": 3.93811906,
				"element": "F" 
			},
			{
				"x": -1.2377618216,
				"y": -0.0873840722,
				"z": 2.9279729467,
				"element": "F" 
			},
			{
				"x": 1.0675952657,
				"y": 2.6310521116,
				"z": 1.817257964,
				"element": "C" 
			},
			{
				"x": 2.2737932086,
				"y": 2.1281981577,
				"z": 2.1632435843,
				"element": "F" 
			},
			{
				"x": 0.757777031,
				"y": 3.5563777918,
				"z": 2.7255920807,
				"element": "F" 
			},
			{
				"x": 1.2172336848,
				"y": 3.241123129,
				"z": 0.6205044968,
				"element": "F" 
			},
			{
				"x": 1.6271601781,
				"y": 0.1196338782,
				"z": 1.199332677,
				"element": "H" 
			},
			{
				"x": 0.8062214465,
				"y": 0.7756821259,
				"z": -0.2249607651,
				"element": "H" 
			},
			{
				"x": 0.0353795721,
				"y": -0.4922867218,
				"z": 0.7424107008,
				"element": "H" 
			},
			{
				"x": -2.706430843,
				"y": 2.295672716,
				"z": -0.2060200636,
				"element": "H" 
			},
			{
				"x": -2.8283139283,
				"y": -0.6216606186,
				"z": 1.1942712884,
				"element": "H" 
			},
			{
				"x": -3.0722949322,
				"y": -2.8402842363,
				"z": 0.052292139,
				"element": "H" 
			},
			{
				"x": -1.3385611589,
				"y": 1.0682519461,
				"z": -2.4667645011,
				"element": "H" 
			}
		],
		 "valence_orbital": [ 
			{
				"type": "occ",
				"energy": -0.33507,
				"method": "rhf"
			},
			{
				"type": "occ",
				"energy": -0.30027,
				"method": "rhf"
			},
			{
				"type": "occ",
				"energy": -0.28174,
				"method": "rhf"
			},
			{
				"type": "occ",
				"energy": -0.27673,
				"method": "rhf"
			},
			{
				"type": "occ",
				"energy": -0.26282,
				"method": "rhf"
			},
			{
				"type": "unocc",
				"energy": -0.04702,
				"method": "rhf"
			},
			{
				"type": "unocc",
				"energy": -0.04054,
				"method": "rhf"
			},
			{
				"type": "unocc",
				"energy": -0.01145,
				"method": "rhf"
			},
			{
				"type": "unocc",
				"energy": 0.00495,
				"method": "rhf"
			},
			{
				"type": "unocc",
				"energy": 0.07508,
				"method": "rhf"
			}
		],
		"cosmo_sigma_profile": { 
			"-0.025": 0.0,
			"-0.024": 0.0,
			"-0.023": 0.0,
			"-0.022": 0.0,
			"-0.021": 0.0,
			"-0.02": 0.0,
			"-0.019": 0.0,
			"-0.018": 0.0,
			"-0.017": 0.0,
			"-0.016": 0.0,
			"-0.015": 1.14624378801,
			"-0.014": 0.700074113855,
			"-0.013": 0.673647030812,
			"-0.012": 0.968159932829,
			"-0.011": 1.37527509021,
			"-0.01": 0.966639402343,
			"-0.009": 2.02299978525,
			"-0.008": 4.43240953837,
			"-0.007": 6.05804362611,
			"-0.006": 9.21985740164,
			"-0.005": 11.2040322199,
			"-0.004": 14.5212529036,
			"-0.003": 15.6423137461,
			"-0.002": 22.8789083654,
			"-0.001": 25.7041932851,
			"0.0": 26.4474290637,
			"0.001": 33.0059933768,
			"0.002": 52.2822672212,
			"0.003": 25.2850244299,
			"0.004": 14.7766388831,
			"0.005": 4.16806413879,
			"0.006": 2.00507213259,
			"0.007": 1.31397888696,
			"0.008": 2.0383217181,
			"0.009": 1.80996244611,
			"0.01": 2.60385278504,
			"0.011": 3.64784475688,
			"0.012": 3.45082836848,
			"0.013": 0.117131691935,
			"0.014": 0.0,
			"0.015": 0.0,
			"0.016": 0.0,
			"0.017": 0.0,
			"0.018": 0.0,
			"0.019": 0.0,
			"0.02": 0.0,
			"0.021": 0.0,
			"0.022": 0.0,
			"0.023": 0.0,
			"0.024": 0.0,
			"0.025": 0.0
		}
	}
}
