{
	 "smiles": "NC(=S)C1=CC=C(OC2=NC=C(C=C2)C(F)(F)F)C=C1", 
	 "Tm": 449.15, 
	 "num_atms": 29, 
	 "gaussian": { 
		 "optdone": 1, 
		 "sigma_profile": "yes", 
		 "theory": "DFT", 
		 "functional": "B3LYP", 
		 "basiset": "6-31G**", 
		 "properties": { 
			 "R2extent": 10511.1699, 
			 "electric_dipole_moment_norm": 4.7050718868, 
			 "electric_quadrupole_moment_norm": 34.0254407813, 
			 "total_energy": -1383.25062754, 
			 "HOMO_LUMO_gap": 0.14463, 
			 "cosmo_polarized_energy": -18.39, 
			 "cosmo_cavitation_energy": 37.93, 
			 "cosmo_dispersion_energy": -27.45, 
			 "cosmo_repulsion_energy": 2.0, 
			 "cosmo_total_nonelectrostatic_energy": 12.48, 
			 "SMD_solvation_energy": 6.22 
		},
		"coords": [
			{
				"x": -2.9467838184,
				"y": -4.4770741729,
				"z": -3.0416595166,
				"element": "N" 
			},
			{
				"x": -3.3306401381,
				"y": -3.9371903018,
				"z": -1.8603928863,
				"element": "C" 
			},
			{
				"x": -4.3959067847,
				"y": -4.7318417937,
				"z": -0.8502081344,
				"element": "S" 
			},
			{
				"x": -2.7127142069,
				"y": -2.6227857164,
				"z": -1.5355858884,
				"element": "C" 
			},
			{
				"x": -1.4418789088,
				"y": -2.270874237,
				"z": -2.0261952582,
				"element": "C" 
			},
			{
				"x": -0.864412486,
				"y": -1.040890851,
				"z": -1.7242804173,
				"element": "C" 
			},
			{
				"x": -1.5676839705,
				"y": -0.143538716,
				"z": -0.9197513224,
				"element": "C" 
			},
			{
				"x": -1.1189292649,
				"y": 1.1433986404,
				"z": -0.6556250994,
				"element": "O" 
			},
			{
				"x": 0.139823166,
				"y": 1.4041607918,
				"z": -0.2061390952,
				"element": "C" 
			},
			{
				"x": 0.9395799434,
				"y": 0.4112678374,
				"z": 0.1527727168,
				"element": "N" 
			},
			{
				"x": 2.1564901099,
				"y": 0.7311262872,
				"z": 0.6145506105,
				"element": "C" 
			},
			{
				"x": 2.6085757255,
				"y": 2.041574961,
				"z": 0.7334602788,
				"element": "C" 
			},
			{
				"x": 1.7443572174,
				"y": 3.0791624628,
				"z": 0.3499056139,
				"element": "C" 
			},
			{
				"x": 0.4862368927,
				"y": 2.7652582636,
				"z": -0.1298247191,
				"element": "C" 
			},
			{
				"x": 3.9947849777,
				"y": 2.351153288,
				"z": 1.2159254533,
				"element": "C" 
			},
			{
				"x": 4.5575759367,
				"y": 1.2993986919,
				"z": 1.8467290808,
				"element": "F" 
			},
			{
				"x": 3.9962419753,
				"y": 3.3959866316,
				"z": 2.0750391426,
				"element": "F" 
			},
			{
				"x": 4.8155469551,
				"y": 2.6904932916,
				"z": 0.1941257377,
				"element": "F" 
			},
			{
				"x": -2.8289191695,
				"y": -0.4696118621,
				"z": -0.4199180045,
				"element": "C" 
			},
			{
				"x": -3.3922750607,
				"y": -1.7040106111,
				"z": -0.7208727593,
				"element": "C" 
			},
			{
				"x": -3.3624295852,
				"y": -5.3552123841,
				"z": -3.3161455619,
				"element": "H" 
			},
			{
				"x": -2.4941496606,
				"y": -3.9183713958,
				"z": -3.7498562235,
				"element": "H" 
			},
			{
				"x": -0.8710545364,
				"y": -2.9807669328,
				"z": -2.6171555555,
				"element": "H" 
			},
			{
				"x": 0.1226211399,
				"y": -0.7905689958,
				"z": -2.0915769943,
				"element": "H" 
			},
			{
				"x": 2.7916347312,
				"y": -0.0993222418,
				"z": 0.9093623202,
				"element": "H" 
			},
			{
				"x": 2.0597576688,
				"y": 4.1139465382,
				"z": 0.4366728807,
				"element": "H" 
			},
			{
				"x": -0.2252643018,
				"y": 3.5227826284,
				"z": -0.4362382128,
				"element": "H" 
			},
			{
				"x": -3.3535968531,
				"y": 0.2512296978,
				"z": 0.1978827907,
				"element": "H" 
			},
			{
				"x": -4.366387694,
				"y": -1.9752797997,
				"z": -0.3297009771,
				"element": "H" 
			}
		],
		 "valence_orbital": [ 
			{
				"type": "occ",
				"energy": -0.2769,
				"method": "rhf"
			},
			{
				"type": "occ",
				"energy": -0.26841,
				"method": "rhf"
			},
			{
				"type": "occ",
				"energy": -0.25011,
				"method": "rhf"
			},
			{
				"type": "occ",
				"energy": -0.22842,
				"method": "rhf"
			},
			{
				"type": "occ",
				"energy": -0.20784,
				"method": "rhf"
			},
			{
				"type": "unocc",
				"energy": -0.06321,
				"method": "rhf"
			},
			{
				"type": "unocc",
				"energy": -0.0467,
				"method": "rhf"
			},
			{
				"type": "unocc",
				"energy": -0.03402,
				"method": "rhf"
			},
			{
				"type": "unocc",
				"energy": -0.01888,
				"method": "rhf"
			},
			{
				"type": "unocc",
				"energy": 0.02111,
				"method": "rhf"
			}
		],
		"cosmo_sigma_profile": { 
			"-0.025": 0.0,
			"-0.024": 0.0,
			"-0.023": 0.0,
			"-0.022": 0.0,
			"-0.021": 0.0,
			"-0.02": 0.0,
			"-0.019": 0.0,
			"-0.018": 0.0,
			"-0.017": 0.0,
			"-0.016": 0.213607224083,
			"-0.015": 1.79536734828,
			"-0.014": 2.56835789836,
			"-0.013": 2.47334682473,
			"-0.012": 2.83714941987,
			"-0.011": 2.5386676086,
			"-0.01": 1.7521227096,
			"-0.009": 3.02841410335,
			"-0.008": 6.72520175829,
			"-0.007": 11.5416144023,
			"-0.006": 13.1252314348,
			"-0.005": 13.2292529148,
			"-0.004": 11.8349403916,
			"-0.003": 14.0434750414,
			"-0.002": 14.6824660388,
			"-0.001": 22.0817095855,
			"0.0": 28.2353537621,
			"0.001": 25.8899861007,
			"0.002": 33.6224830354,
			"0.003": 39.3341979433,
			"0.004": 9.25394229231,
			"0.005": 7.12710170021,
			"0.006": 6.84496399111,
			"0.007": 6.91055822701,
			"0.008": 7.33043524032,
			"0.009": 7.18361885752,
			"0.01": 5.17927737986,
			"0.011": 4.71912504218,
			"0.012": 1.81222727117,
			"0.013": 0.0897281442897,
			"0.014": 0.0,
			"0.015": 0.0,
			"0.016": 0.0,
			"0.017": 0.0,
			"0.018": 0.0,
			"0.019": 0.0,
			"0.02": 0.0,
			"0.021": 0.0,
			"0.022": 0.0,
			"0.023": 0.0,
			"0.024": 0.0,
			"0.025": 0.0
		}
	}
}
