{
	 "smiles": "CC(=O)C1=C(Cl)SC(Cl)=C1", 
	 "Tm": 311.15, 
	 "num_atms": 14, 
	 "gaussian": { 
		 "optdone": 1, 
		 "sigma_profile": "yes", 
		 "theory": "DFT", 
		 "functional": "B3LYP", 
		 "basiset": "6-31G**", 
		 "properties": { 
			 "R2extent": 3490.9143, 
			 "electric_dipole_moment_norm": 1.98765636114, 
			 "electric_quadrupole_moment_norm": 3.69868479463, 
			 "total_energy": -1624.81580547, 
			 "HOMO_LUMO_gap": 0.17752, 
			 "cosmo_polarized_energy": -5.53, 
			 "cosmo_cavitation_energy": 23.75, 
			 "cosmo_dispersion_energy": -18.25, 
			 "cosmo_repulsion_energy": 1.43, 
			 "cosmo_total_nonelectrostatic_energy": 6.93, 
			 "SMD_solvation_energy": 4.07 
		},
		"coords": [
			{
				"x": -0.4901589184,
				"y": -1.6485738713,
				"z": 1.634869167,
				"element": "C" 
			},
			{
				"x": 0.0464958099,
				"y": -0.6250664891,
				"z": 0.6582388073,
				"element": "C" 
			},
			{
				"x": 1.1504085056,
				"y": -0.1264105226,
				"z": 0.8181261819,
				"element": "O" 
			},
			{
				"x": -0.7613987677,
				"y": -0.1969350839,
				"z": -0.5292141369,
				"element": "C" 
			},
			{
				"x": -2.0157041443,
				"y": -0.5886397467,
				"z": -0.9471449838,
				"element": "C" 
			},
			{
				"x": -3.1155115873,
				"y": -1.7256290091,
				"z": -0.242882795,
				"element": "Cl" 
			},
			{
				"x": -2.5259894172,
				"y": 0.2099753941,
				"z": -2.4098029882,
				"element": "S" 
			},
			{
				"x": -1.0163876632,
				"y": 1.0925083165,
				"z": -2.461534115,
				"element": "C" 
			},
			{
				"x": -0.7120791145,
				"y": 2.2122634295,
				"z": -3.7428403275,
				"element": "Cl" 
			},
			{
				"x": -0.1985357378,
				"y": 0.7809367668,
				"z": -1.4239937485,
				"element": "C" 
			},
			{
				"x": 0.2608144524,
				"y": -1.8029120931,
				"z": 2.410382471,
				"element": "H" 
			},
			{
				"x": -0.7048329049,
				"y": -2.597605404,
				"z": 1.1335089614,
				"element": "H" 
			},
			{
				"x": -1.4261949775,
				"y": -1.3079448914,
				"z": 2.0886427694,
				"element": "H" 
			},
			{
				"x": 0.7822744649,
				"y": 1.2051332044,
				"z": -1.2562552629,
				"element": "H" 
			}
		],
		 "valence_orbital": [ 
			{
				"type": "occ",
				"energy": -0.33423,
				"method": "rhf"
			},
			{
				"type": "occ",
				"energy": -0.33101,
				"method": "rhf"
			},
			{
				"type": "occ",
				"energy": -0.28117,
				"method": "rhf"
			},
			{
				"type": "occ",
				"energy": -0.26322,
				"method": "rhf"
			},
			{
				"type": "occ",
				"energy": -0.24675,
				"method": "rhf"
			},
			{
				"type": "unocc",
				"energy": -0.06923,
				"method": "rhf"
			},
			{
				"type": "unocc",
				"energy": -0.01958,
				"method": "rhf"
			},
			{
				"type": "unocc",
				"energy": -0.01448,
				"method": "rhf"
			},
			{
				"type": "unocc",
				"energy": -0.01036,
				"method": "rhf"
			},
			{
				"type": "unocc",
				"energy": 0.03371,
				"method": "rhf"
			}
		],
		"cosmo_sigma_profile": { 
			"-0.025": 0.0,
			"-0.024": 0.0,
			"-0.023": 0.0,
			"-0.022": 0.0,
			"-0.021": 0.0,
			"-0.02": 0.0,
			"-0.019": 0.0,
			"-0.018": 0.0,
			"-0.017": 0.0,
			"-0.016": 0.0,
			"-0.015": 0.0,
			"-0.014": 0.0,
			"-0.013": 0.0,
			"-0.012": 0.0,
			"-0.011": 0.0,
			"-0.01": 0.0,
			"-0.009": 0.0,
			"-0.008": 0.554480857132,
			"-0.007": 1.76880673754,
			"-0.006": 5.49436445534,
			"-0.005": 8.72171132782,
			"-0.004": 11.6554574812,
			"-0.003": 17.5009541443,
			"-0.002": 22.2125434592,
			"-0.001": 29.1953155212,
			"0.0": 26.4362275066,
			"0.001": 23.6714470933,
			"0.002": 18.4337433715,
			"0.003": 11.9083189371,
			"0.004": 3.24958780591,
			"0.005": 1.31716665094,
			"0.006": 1.88724892169,
			"0.007": 1.57549338458,
			"0.008": 1.10829842696,
			"0.009": 1.94783999789,
			"0.01": 2.38667047238,
			"0.011": 3.78478905531,
			"0.012": 2.22773466696,
			"0.013": 0.580876581227,
			"0.014": 0.0,
			"0.015": 0.0,
			"0.016": 0.0,
			"0.017": 0.0,
			"0.018": 0.0,
			"0.019": 0.0,
			"0.02": 0.0,
			"0.021": 0.0,
			"0.022": 0.0,
			"0.023": 0.0,
			"0.024": 0.0,
			"0.025": 0.0
		}
	}
}
