{
	 "smiles": "CC(C)OC(=O)CN1N=C(C)C(C=O)=C1C", 
	 "Tm": 378.15, 
	 "num_atms": 32, 
	 "gaussian": { 
		 "optdone": 1, 
		 "sigma_profile": "yes", 
		 "theory": "DFT", 
		 "functional": "B3LYP", 
		 "basiset": "6-31G**", 
		 "properties": { 
			 "R2extent": 4476.5645, 
			 "electric_dipole_moment_norm": 4.2133162497, 
			 "electric_quadrupole_moment_norm": 25.5986536433, 
			 "total_energy": -763.997033255, 
			 "HOMO_LUMO_gap": 0.20631, 
			 "cosmo_polarized_energy": -16.5, 
			 "cosmo_cavitation_energy": 36.12, 
			 "cosmo_dispersion_energy": -23.72, 
			 "cosmo_repulsion_energy": 1.89, 
			 "cosmo_total_nonelectrostatic_energy": 14.3, 
			 "SMD_solvation_energy": 7.39 
		},
		"coords": [
			{
				"x": -1.8889967279,
				"y": -1.0944273683,
				"z": 3.025713343,
				"element": "C" 
			},
			{
				"x": -2.4066573269,
				"y": -1.4096187586,
				"z": 1.6306743257,
				"element": "C" 
			},
			{
				"x": -2.7670338081,
				"y": -2.875625603,
				"z": 1.4210897537,
				"element": "C" 
			},
			{
				"x": -1.3261306787,
				"y": -1.0407815855,
				"z": 0.7108717087,
				"element": "O" 
			},
			{
				"x": -1.6773857859,
				"y": -0.6675014688,
				"z": -0.5270287991,
				"element": "C" 
			},
			{
				"x": -2.804953673,
				"y": -0.6566206818,
				"z": -0.9694240086,
				"element": "O" 
			},
			{
				"x": -0.4715475745,
				"y": -0.2814538324,
				"z": -1.3893896943,
				"element": "C" 
			},
			{
				"x": 0.7351822693,
				"y": 0.0634092075,
				"z": -0.6742086186,
				"element": "N" 
			},
			{
				"x": 0.9171808524,
				"y": 1.3717644744,
				"z": -0.3079322444,
				"element": "N" 
			},
			{
				"x": 2.0491563845,
				"y": 1.3888849799,
				"z": 0.3777612341,
				"element": "C" 
			},
			{
				"x": 2.594850597,
				"y": 2.6626154103,
				"z": 0.9383218491,
				"element": "C" 
			},
			{
				"x": 2.6097201073,
				"y": 0.0735445437,
				"z": 0.4681757387,
				"element": "C" 
			},
			{
				"x": 3.8406879312,
				"y": -0.3191795247,
				"z": 1.1311458749,
				"element": "C" 
			},
			{
				"x": 4.5882087138,
				"y": 0.4442789945,
				"z": 1.7258206117,
				"element": "O" 
			},
			{
				"x": 1.7184328765,
				"y": -0.7526177595,
				"z": -0.2231947018,
				"element": "C" 
			},
			{
				"x": 1.723187236,
				"y": -2.2273978116,
				"z": -0.4687401823,
				"element": "C" 
			},
			{
				"x": -2.6632677867,
				"y": -1.3122770293,
				"z": 3.7677073748,
				"element": "H" 
			},
			{
				"x": -1.0074954328,
				"y": -1.6991748956,
				"z": 3.2608214004,
				"element": "H" 
			},
			{
				"x": -1.615949772,
				"y": -0.0393268491,
				"z": 3.1097979552,
				"element": "H" 
			},
			{
				"x": -3.2649704645,
				"y": -0.7798164058,
				"z": 1.3810038017,
				"element": "H" 
			},
			{
				"x": -3.56347295,
				"y": -3.1662852839,
				"z": 2.1135213072,
				"element": "H" 
			},
			{
				"x": -1.9005769667,
				"y": -3.5185117346,
				"z": 1.6085822775,
				"element": "H" 
			},
			{
				"x": -3.1244479261,
				"y": -3.0433399043,
				"z": 0.4024015453,
				"element": "H" 
			},
			{
				"x": -0.2743781696,
				"y": -1.1139721256,
				"z": -2.0725064423,
				"element": "H" 
			},
			{
				"x": -0.7658954241,
				"y": 0.5798387926,
				"z": -1.9900760753,
				"element": "H" 
			},
			{
				"x": 2.7090315147,
				"y": 2.5933367223,
				"z": 2.0241797111,
				"element": "H" 
			},
			{
				"x": 3.5914551764,
				"y": 2.8702645429,
				"z": 0.5373532473,
				"element": "H" 
			},
			{
				"x": 1.9258579676,
				"y": 3.4908657498,
				"z": 0.6948534387,
				"element": "H" 
			},
			{
				"x": 4.0864017656,
				"y": -1.4036288822,
				"z": 1.0718674163,
				"element": "H" 
			},
			{
				"x": 1.7222996595,
				"y": -2.4601335575,
				"z": -1.5401425035,
				"element": "H" 
			},
			{
				"x": 0.8425356406,
				"y": -2.6999397582,
				"z": -0.0208515332,
				"element": "H" 
			},
			{
				"x": 2.6121717752,
				"y": -2.6857725973,
				"z": -0.0328691118,
				"element": "H" 
			}
		],
		 "valence_orbital": [ 
			{
				"type": "occ",
				"energy": -0.29574,
				"method": "rhf"
			},
			{
				"type": "occ",
				"energy": -0.29181,
				"method": "rhf"
			},
			{
				"type": "occ",
				"energy": -0.2507,
				"method": "rhf"
			},
			{
				"type": "occ",
				"energy": -0.24631,
				"method": "rhf"
			},
			{
				"type": "occ",
				"energy": -0.24183,
				"method": "rhf"
			},
			{
				"type": "unocc",
				"energy": -0.03552,
				"method": "rhf"
			},
			{
				"type": "unocc",
				"energy": -0.00389,
				"method": "rhf"
			},
			{
				"type": "unocc",
				"energy": 0.01406,
				"method": "rhf"
			},
			{
				"type": "unocc",
				"energy": 0.06677,
				"method": "rhf"
			},
			{
				"type": "unocc",
				"energy": 0.08516,
				"method": "rhf"
			}
		],
		"cosmo_sigma_profile": { 
			"-0.025": 0.0,
			"-0.024": 0.0,
			"-0.023": 0.0,
			"-0.022": 0.0,
			"-0.021": 0.0,
			"-0.02": 0.0,
			"-0.019": 0.0,
			"-0.018": 0.0,
			"-0.017": 0.0,
			"-0.016": 0.0,
			"-0.015": 0.0,
			"-0.014": 0.0,
			"-0.013": 0.0,
			"-0.012": 0.0,
			"-0.011": 0.0,
			"-0.01": 0.804261194413,
			"-0.009": 4.0907140427,
			"-0.008": 5.08323504729,
			"-0.007": 7.70078518422,
			"-0.006": 8.91749104757,
			"-0.005": 14.7984546351,
			"-0.004": 30.0003823433,
			"-0.003": 29.3519308204,
			"-0.002": 30.7440916247,
			"-0.001": 28.7882768319,
			"0.0": 28.8292272906,
			"0.001": 16.0082318559,
			"0.002": 10.498574908,
			"0.003": 10.1338632995,
			"0.004": 7.75546216726,
			"0.005": 6.62662212151,
			"0.006": 6.18356496937,
			"0.007": 3.90953177274,
			"0.008": 3.68858103579,
			"0.009": 5.22240481341,
			"0.01": 4.94368287324,
			"0.011": 7.34679570434,
			"0.012": 7.46447700497,
			"0.013": 3.44395649507,
			"0.014": 1.51844018011,
			"0.015": 0.578191381575,
			"0.016": 0.00601826991689,
			"0.017": 0.0,
			"0.018": 0.0,
			"0.019": 0.0,
			"0.02": 0.0,
			"0.021": 0.0,
			"0.022": 0.0,
			"0.023": 0.0,
			"0.024": 0.0,
			"0.025": 0.0
		}
	}
}
