{
	 "smiles": "C=CC(=O)NC(=O)NC1=CC=CC=C1", 
	 "Tm": 423.15, 
	 "num_atms": 24, 
	 "gaussian": { 
		 "optdone": 1, 
		 "sigma_profile": "yes", 
		 "theory": "DFT", 
		 "functional": "B3LYP", 
		 "basiset": "6-31G**", 
		 "properties": { 
			 "R2extent": 3104.5591, 
			 "electric_dipole_moment_norm": 4.04780597855, 
			 "electric_quadrupole_moment_norm": 9.14647834579, 
			 "total_energy": -647.042878344, 
			 "HOMO_LUMO_gap": 0.17986, 
			 "cosmo_polarized_energy": -15.09, 
			 "cosmo_cavitation_energy": 28.92, 
			 "cosmo_dispersion_energy": -19.92, 
			 "cosmo_repulsion_energy": 1.59, 
			 "cosmo_total_nonelectrostatic_energy": 10.59, 
			 "SMD_solvation_energy": 7.64 
		},
		"coords": [
			{
				"x": -0.4721159976,
				"y": 1.5000124747,
				"z": 1.5661423719,
				"element": "C" 
			},
			{
				"x": 0.4003375668,
				"y": 0.5673613861,
				"z": 1.1763584185,
				"element": "C" 
			},
			{
				"x": 1.6252056866,
				"y": 0.9726101465,
				"z": 0.4349234592,
				"element": "C" 
			},
			{
				"x": 1.9361303675,
				"y": 2.1381868876,
				"z": 0.2459524366,
				"element": "O" 
			},
			{
				"x": 2.5033786249,
				"y": -0.0290444312,
				"z": -0.0156491067,
				"element": "N" 
			},
			{
				"x": 2.5109812714,
				"y": -1.4323711087,
				"z": 0.0819461755,
				"element": "C" 
			},
			{
				"x": 3.5452343577,
				"y": -2.0309234251,
				"z": 0.3284359847,
				"element": "O" 
			},
			{
				"x": 1.317696314,
				"y": -2.1035398441,
				"z": -0.1182644249,
				"element": "N" 
			},
			{
				"x": 0.2126227946,
				"y": -1.7996621863,
				"z": -0.9604912036,
				"element": "C" 
			},
			{
				"x": -0.9831846457,
				"y": -2.494360651,
				"z": -0.7295827238,
				"element": "C" 
			},
			{
				"x": -2.091080627,
				"y": -2.278300356,
				"z": -1.5462665128,
				"element": "C" 
			},
			{
				"x": -2.0268696057,
				"y": -1.3549618841,
				"z": -2.5913754183,
				"element": "C" 
			},
			{
				"x": -0.8366740777,
				"y": -0.6628895967,
				"z": -2.8185479024,
				"element": "C" 
			},
			{
				"x": 0.2853683677,
				"y": -0.8859698182,
				"z": -2.0202579784,
				"element": "C" 
			},
			{
				"x": -0.3017443341,
				"y": 2.5442226138,
				"z": 1.3231213433,
				"element": "H" 
			},
			{
				"x": -1.3628301273,
				"y": 1.2430245935,
				"z": 2.1299789622,
				"element": "H" 
			},
			{
				"x": 0.252755344,
				"y": -0.4797018525,
				"z": 1.4105960132,
				"element": "H" 
			},
			{
				"x": 3.4300936448,
				"y": 0.3401464592,
				"z": -0.1966267456,
				"element": "H" 
			},
			{
				"x": 1.4321661571,
				"y": -3.0838652471,
				"z": 0.1071573576,
				"element": "H" 
			},
			{
				"x": -1.0389007472,
				"y": -3.201284647,
				"z": 0.0941381362,
				"element": "H" 
			},
			{
				"x": -3.0085416551,
				"y": -2.828007635,
				"z": -1.3574016088,
				"element": "H" 
			},
			{
				"x": -2.892427383,
				"y": -1.1794446954,
				"z": -3.2224586521,
				"element": "H" 
			},
			{
				"x": -0.7692824171,
				"y": 0.0506320035,
				"z": -3.6345344912,
				"element": "H" 
			},
			{
				"x": 1.2086811203,
				"y": -0.3569691864,
				"z": -2.2226938903,
				"element": "H" 
			}
		],
		 "valence_orbital": [ 
			{
				"type": "occ",
				"energy": -0.28427,
				"method": "rhf"
			},
			{
				"type": "occ",
				"energy": -0.27707,
				"method": "rhf"
			},
			{
				"type": "occ",
				"energy": -0.26379,
				"method": "rhf"
			},
			{
				"type": "occ",
				"energy": -0.26124,
				"method": "rhf"
			},
			{
				"type": "occ",
				"energy": -0.23501,
				"method": "rhf"
			},
			{
				"type": "unocc",
				"energy": -0.05515,
				"method": "rhf"
			},
			{
				"type": "unocc",
				"energy": -0.0214,
				"method": "rhf"
			},
			{
				"type": "unocc",
				"energy": -0.01536,
				"method": "rhf"
			},
			{
				"type": "unocc",
				"energy": 0.02919,
				"method": "rhf"
			},
			{
				"type": "unocc",
				"energy": 0.07811,
				"method": "rhf"
			}
		],
		"cosmo_sigma_profile": { 
			"-0.025": 0.0,
			"-0.024": 0.0,
			"-0.023": 0.0,
			"-0.022": 0.0,
			"-0.021": 0.0,
			"-0.02": 0.0,
			"-0.019": 0.0,
			"-0.018": 0.0,
			"-0.017": 0.0,
			"-0.016": 0.0155197570957,
			"-0.015": 0.975912253235,
			"-0.014": 1.75709770226,
			"-0.013": 1.80575925677,
			"-0.012": 2.16316863557,
			"-0.011": 1.51199169803,
			"-0.01": 1.25439826858,
			"-0.009": 2.05348526717,
			"-0.008": 2.9497829998,
			"-0.007": 5.15620109457,
			"-0.006": 13.0162042528,
			"-0.005": 19.97469727,
			"-0.004": 19.3685668698,
			"-0.003": 18.2369889973,
			"-0.002": 16.370955356,
			"-0.001": 13.7719431205,
			"0.0": 11.867504216,
			"0.001": 12.8674921796,
			"0.002": 12.8234520558,
			"0.003": 12.4152613903,
			"0.004": 13.0884599478,
			"0.005": 11.7793182099,
			"0.006": 4.6553601034,
			"0.007": 2.67188806438,
			"0.008": 2.24780766812,
			"0.009": 2.36447932547,
			"0.01": 3.67661609787,
			"0.011": 4.75428056389,
			"0.012": 10.2089938073,
			"0.013": 5.09428011157,
			"0.014": 0.0711760510471,
			"0.015": 0.0,
			"0.016": 0.0,
			"0.017": 0.0,
			"0.018": 0.0,
			"0.019": 0.0,
			"0.02": 0.0,
			"0.021": 0.0,
			"0.022": 0.0,
			"0.023": 0.0,
			"0.024": 0.0,
			"0.025": 0.0
		}
	}
}
