{
	 "smiles": "OCC1=C(Cl)C=CC(F)=C1", 
	 "Tm": 343.15, 
	 "num_atms": 16, 
	 "gaussian": { 
		 "optdone": 1, 
		 "sigma_profile": "yes", 
		 "theory": "DFT", 
		 "functional": "B3LYP", 
		 "basiset": "6-31G**", 
		 "properties": { 
			 "R2extent": 2291.1179, 
			 "electric_dipole_moment_norm": 1.47773449916, 
			 "electric_quadrupole_moment_norm": 10.41361152, 
			 "total_energy": -905.599359938, 
			 "HOMO_LUMO_gap": 0.22257, 
			 "cosmo_polarized_energy": -7.21, 
			 "cosmo_cavitation_energy": 22.14, 
			 "cosmo_dispersion_energy": -16.59, 
			 "cosmo_repulsion_energy": 1.33, 
			 "cosmo_total_nonelectrostatic_energy": 6.88, 
			 "SMD_solvation_energy": 4.16 
		},
		"coords": [
			{
				"x": 0.8987558755,
				"y": -2.2713290371,
				"z": 1.2375660224,
				"element": "O" 
			},
			{
				"x": 1.0575272134,
				"y": -1.4949425491,
				"z": 0.0629697279,
				"element": "C" 
			},
			{
				"x": -0.2963709131,
				"y": -1.0149332952,
				"z": -0.4070301668,
				"element": "C" 
			},
			{
				"x": -0.4320926083,
				"y": -0.2214655217,
				"z": -1.5549579029,
				"element": "C" 
			},
			{
				"x": 1.0025231449,
				"y": 0.2318581896,
				"z": -2.4777534374,
				"element": "Cl" 
			},
			{
				"x": -1.6751634327,
				"y": 0.2263975511,
				"z": -1.9968678414,
				"element": "C" 
			},
			{
				"x": -2.8256955916,
				"y": -0.1164160354,
				"z": -1.2873884812,
				"element": "C" 
			},
			{
				"x": -2.6897425825,
				"y": -0.9026051364,
				"z": -0.1502737248,
				"element": "C" 
			},
			{
				"x": -3.7952783427,
				"y": -1.2410502245,
				"z": 0.5448258719,
				"element": "F" 
			},
			{
				"x": -1.4547579745,
				"y": -1.3536292742,
				"z": 0.2977757497,
				"element": "C" 
			},
			{
				"x": 1.7720913149,
				"y": -2.5666227408,
				"z": 1.5197120182,
				"element": "H" 
			},
			{
				"x": 1.7039431932,
				"y": -0.6204823167,
				"z": 0.2395204481,
				"element": "H" 
			},
			{
				"x": 1.5301483608,
				"y": -2.0751639256,
				"z": -0.7455283422,
				"element": "H" 
			},
			{
				"x": -1.7400136379,
				"y": 0.8385182281,
				"z": -2.8894415083,
				"element": "H" 
			},
			{
				"x": -3.8075205959,
				"y": 0.2159911438,
				"z": -1.6049314325,
				"element": "H" 
			},
			{
				"x": -1.3829534233,
				"y": -1.9650250561,
				"z": 1.1882029992,
				"element": "H" 
			}
		],
		 "valence_orbital": [ 
			{
				"type": "occ",
				"energy": -0.32828,
				"method": "rhf"
			},
			{
				"type": "occ",
				"energy": -0.31618,
				"method": "rhf"
			},
			{
				"type": "occ",
				"energy": -0.28778,
				"method": "rhf"
			},
			{
				"type": "occ",
				"energy": -0.26097,
				"method": "rhf"
			},
			{
				"type": "occ",
				"energy": -0.23849,
				"method": "rhf"
			},
			{
				"type": "unocc",
				"energy": -0.01592,
				"method": "rhf"
			},
			{
				"type": "unocc",
				"energy": -0.00742,
				"method": "rhf"
			},
			{
				"type": "unocc",
				"energy": 0.02671,
				"method": "rhf"
			},
			{
				"type": "unocc",
				"energy": 0.06474,
				"method": "rhf"
			},
			{
				"type": "unocc",
				"energy": 0.10773,
				"method": "rhf"
			}
		],
		"cosmo_sigma_profile": { 
			"-0.025": 0.0,
			"-0.024": 0.0,
			"-0.023": 0.0,
			"-0.022": 0.0,
			"-0.021": 0.0,
			"-0.02": 0.0,
			"-0.019": 0.0,
			"-0.018": 0.0,
			"-0.017": 0.210453625776,
			"-0.016": 1.34813646306,
			"-0.015": 0.723014000126,
			"-0.014": 1.16915158679,
			"-0.013": 0.846724003083,
			"-0.012": 1.36705053039,
			"-0.011": 0.754194624332,
			"-0.01": 0.342364141729,
			"-0.009": 0.728998520438,
			"-0.008": 2.78103548641,
			"-0.007": 4.58167988158,
			"-0.006": 6.03429063811,
			"-0.005": 10.1767992244,
			"-0.004": 8.82290983013,
			"-0.003": 8.1517127004,
			"-0.002": 9.04813954679,
			"-0.001": 9.35461634894,
			"0.0": 14.4699816129,
			"0.001": 18.123531723,
			"0.002": 22.2648445531,
			"0.003": 21.0273082034,
			"0.004": 17.8644395743,
			"0.005": 8.85962246437,
			"0.006": 1.43017387027,
			"0.007": 1.77555428907,
			"0.008": 1.32676479311,
			"0.009": 1.68613212829,
			"0.01": 1.7851505096,
			"0.011": 1.14170324708,
			"0.012": 0.603381815008,
			"0.013": 0.0,
			"0.014": 0.0,
			"0.015": 0.0,
			"0.016": 0.0,
			"0.017": 0.0,
			"0.018": 0.0,
			"0.019": 0.0,
			"0.02": 0.0,
			"0.021": 0.0,
			"0.022": 0.0,
			"0.023": 0.0,
			"0.024": 0.0,
			"0.025": 0.0
		}
	}
}
