{
	 "smiles": "OC1=CC(F)=C(C=C1)[N+]([O-])=O", 
	 "Tm": 366.65, 
	 "num_atms": 15, 
	 "gaussian": { 
		 "optdone": 1, 
		 "sigma_profile": "yes", 
		 "theory": "DFT", 
		 "functional": "B3LYP", 
		 "basiset": "6-31G**", 
		 "properties": { 
			 "R2extent": 1857.4427, 
			 "electric_dipole_moment_norm": 6.08500371898, 
			 "electric_quadrupole_moment_norm": 9.11424260046, 
			 "total_energy": -611.191813894, 
			 "HOMO_LUMO_gap": 0.17838, 
			 "cosmo_polarized_energy": -14.37, 
			 "cosmo_cavitation_energy": 20.92, 
			 "cosmo_dispersion_energy": -15.57, 
			 "cosmo_repulsion_energy": 1.23, 
			 "cosmo_total_nonelectrostatic_energy": 6.57, 
			 "SMD_solvation_energy": 6.8 
		},
		"coords": [
			{
				"x": 1.4865615824,
				"y": 0.5740839632,
				"z": -2.6560962504,
				"element": "O" 
			},
			{
				"x": 0.6975040217,
				"y": 0.1790380782,
				"z": -1.6290464905,
				"element": "C" 
			},
			{
				"x": 1.2709869253,
				"y": -0.6696836838,
				"z": -0.6770269026,
				"element": "C" 
			},
			{
				"x": 0.5144816083,
				"y": -1.10940899,
				"z": 0.3989537119,
				"element": "C" 
			},
			{
				"x": 1.110702608,
				"y": -1.9162146908,
				"z": 1.2755785925,
				"element": "F" 
			},
			{
				"x": -0.8267650909,
				"y": -0.709886891,
				"z": 0.5432568089,
				"element": "C" 
			},
			{
				"x": -1.3857156097,
				"y": 0.1391640343,
				"z": -0.4172794852,
				"element": "C" 
			},
			{
				"x": -0.6403857742,
				"y": 0.5852933749,
				"z": -1.4965753139,
				"element": "C" 
			},
			{
				"x": -1.6684832723,
				"y": -1.1427662492,
				"z": 1.6559306464,
				"element": "N" 
			},
			{
				"x": -1.1793020698,
				"y": -1.8880395634,
				"z": 2.501622011,
				"element": "O" 
			},
			{
				"x": -2.8305764676,
				"y": -0.7278512501,
				"z": 1.6763448532,
				"element": "O" 
			},
			{
				"x": 0.9878344048,
				"y": 1.1534508404,
				"z": -3.2477039859,
				"element": "H" 
			},
			{
				"x": 2.3021681319,
				"y": -0.9873241705,
				"z": -0.7724369219,
				"element": "H" 
			},
			{
				"x": -2.419270719,
				"y": 0.4339393959,
				"z": -0.286547281,
				"element": "H" 
			},
			{
				"x": -1.0896402788,
				"y": 1.2447058019,
				"z": -2.2340739927,
				"element": "H" 
			}
		],
		 "valence_orbital": [ 
			{
				"type": "occ",
				"energy": -0.30412,
				"method": "rhf"
			},
			{
				"type": "occ",
				"energy": -0.30297,
				"method": "rhf"
			},
			{
				"type": "occ",
				"energy": -0.28471,
				"method": "rhf"
			},
			{
				"type": "occ",
				"energy": -0.2793,
				"method": "rhf"
			},
			{
				"type": "occ",
				"energy": -0.26224,
				"method": "rhf"
			},
			{
				"type": "unocc",
				"energy": -0.08386,
				"method": "rhf"
			},
			{
				"type": "unocc",
				"energy": -0.03092,
				"method": "rhf"
			},
			{
				"type": "unocc",
				"energy": 0.00496,
				"method": "rhf"
			},
			{
				"type": "unocc",
				"energy": 0.04267,
				"method": "rhf"
			},
			{
				"type": "unocc",
				"energy": 0.06407,
				"method": "rhf"
			}
		],
		"cosmo_sigma_profile": { 
			"-0.025": 0.0,
			"-0.024": 0.0,
			"-0.023": 0.0,
			"-0.022": 0.0,
			"-0.021": 0.0,
			"-0.02": 0.240264295039,
			"-0.019": 1.11053808321,
			"-0.018": 1.12209641723,
			"-0.017": 1.42857061402,
			"-0.016": 0.954921716826,
			"-0.015": 0.497891370276,
			"-0.014": 0.516306842347,
			"-0.013": 1.41431908726,
			"-0.012": 1.99323739568,
			"-0.011": 0.989532689826,
			"-0.01": 0.756224216269,
			"-0.009": 2.1004945145,
			"-0.008": 4.24127091707,
			"-0.007": 5.50592919975,
			"-0.006": 5.73772862949,
			"-0.005": 6.37199346733,
			"-0.004": 6.24999253589,
			"-0.003": 8.07804613085,
			"-0.002": 10.6040061261,
			"-0.001": 15.0536735918,
			"0.0": 15.2182786173,
			"0.001": 12.7387070304,
			"0.002": 8.67284382647,
			"0.003": 9.61127014761,
			"0.004": 5.55899200229,
			"0.005": 4.3855086121,
			"0.006": 4.80174891594,
			"0.007": 6.92510027323,
			"0.008": 12.1286131953,
			"0.009": 8.32166290158,
			"0.01": 4.17710102928,
			"0.011": 0.7577972678,
			"0.012": 0.0,
			"0.013": 0.0,
			"0.014": 0.0,
			"0.015": 0.0,
			"0.016": 0.0,
			"0.017": 0.0,
			"0.018": 0.0,
			"0.019": 0.0,
			"0.02": 0.0,
			"0.021": 0.0,
			"0.022": 0.0,
			"0.023": 0.0,
			"0.024": 0.0,
			"0.025": 0.0
		}
	}
}
