{
	 "smiles": "CCOC(=O)CCCCCC(O)=O", 
	 "Tm": 283.15, 
	 "num_atms": 29, 
	 "gaussian": { 
		 "optdone": 1, 
		 "sigma_profile": "yes", 
		 "theory": "DFT", 
		 "functional": "B3LYP", 
		 "basiset": "6-31G**", 
		 "properties": { 
			 "R2extent": 3475.0495, 
			 "electric_dipole_moment_norm": 2.70966737811, 
			 "electric_quadrupole_moment_norm": 14.1387986827, 
			 "total_energy": -653.539896341, 
			 "HOMO_LUMO_gap": 0.25817, 
			 "cosmo_polarized_energy": -9.27, 
			 "cosmo_cavitation_energy": 30.31, 
			 "cosmo_dispersion_energy": -21.94, 
			 "cosmo_repulsion_energy": 1.78, 
			 "cosmo_total_nonelectrostatic_energy": 10.15, 
			 "SMD_solvation_energy": 6.47 
		},
		"coords": [
			{
				"x": -1.2216083021,
				"y": -2.1662191285,
				"z": -3.8350643945,
				"element": "C" 
			},
			{
				"x": -2.3499716405,
				"y": -1.4976247362,
				"z": -3.0651402084,
				"element": "C" 
			},
			{
				"x": -1.8713265078,
				"y": -0.3432294454,
				"z": -2.3266972641,
				"element": "O" 
			},
			{
				"x": -1.3571965895,
				"y": -0.5674567865,
				"z": -1.1067143813,
				"element": "C" 
			},
			{
				"x": -1.2622800748,
				"y": -1.6868983711,
				"z": -0.6226673254,
				"element": "O" 
			},
			{
				"x": -0.9456868071,
				"y": 0.7135976704,
				"z": -0.4110894126,
				"element": "C" 
			},
			{
				"x": 0.5177832746,
				"y": 0.679220156,
				"z": 0.0945434495,
				"element": "C" 
			},
			{
				"x": 0.8061701629,
				"y": 1.5647502648,
				"z": 1.3400531465,
				"element": "C" 
			},
			{
				"x": 1.0744102557,
				"y": 0.7966153602,
				"z": 2.655122701,
				"element": "C" 
			},
			{
				"x": -0.159074251,
				"y": 0.2563200042,
				"z": 3.4141387578,
				"element": "C" 
			},
			{
				"x": -1.0543070664,
				"y": -0.6273673078,
				"z": 2.5721232579,
				"element": "C" 
			},
			{
				"x": -0.3920498509,
				"y": -1.6749492663,
				"z": 2.0436470963,
				"element": "O" 
			},
			{
				"x": -2.2257517035,
				"y": -0.3953045175,
				"z": 2.3428210495,
				"element": "O" 
			},
			{
				"x": -0.7266690565,
				"y": -1.452375121,
				"z": -4.5000523145,
				"element": "H" 
			},
			{
				"x": -1.6228807229,
				"y": -2.9822311423,
				"z": -4.4451236085,
				"element": "H" 
			},
			{
				"x": -0.4816450887,
				"y": -2.5841152633,
				"z": -3.1483280764,
				"element": "H" 
			},
			{
				"x": -3.1079986278,
				"y": -1.0890905584,
				"z": -3.7371973858,
				"element": "H" 
			},
			{
				"x": -2.8193364975,
				"y": -2.1922322135,
				"z": -2.3650661834,
				"element": "H" 
			},
			{
				"x": -1.1157166001,
				"y": 1.5602430211,
				"z": -1.0801711536,
				"element": "H" 
			},
			{
				"x": -1.634924055,
				"y": 0.8149653678,
				"z": 0.4338991152,
				"element": "H" 
			},
			{
				"x": 0.7891237038,
				"y": -0.3545572142,
				"z": 0.3205978492,
				"element": "H" 
			},
			{
				"x": 1.1667433158,
				"y": 0.9925085884,
				"z": -0.7308161555,
				"element": "H" 
			},
			{
				"x": -0.0082825592,
				"y": 2.2857876823,
				"z": 1.4914789064,
				"element": "H" 
			},
			{
				"x": 1.6975330953,
				"y": 2.1687347308,
				"z": 1.1360748637,
				"element": "H" 
			},
			{
				"x": 1.7561639089,
				"y": -0.035868804,
				"z": 2.4476689037,
				"element": "H" 
			},
			{
				"x": 1.6038174867,
				"y": 1.464752277,
				"z": 3.3452017454,
				"element": "H" 
			},
			{
				"x": 0.1890893475,
				"y": -0.3202291809,
				"z": 4.2800038321,
				"element": "H" 
			},
			{
				"x": -0.780978191,
				"y": 1.0751624439,
				"z": 3.7849777164,
				"element": "H" 
			},
			{
				"x": -0.9051503587,
				"y": -1.98460851,
				"z": 1.2647754734,
				"element": "H" 
			}
		],
		 "valence_orbital": [ 
			{
				"type": "occ",
				"energy": -0.32216,
				"method": "rhf"
			},
			{
				"type": "occ",
				"energy": -0.30623,
				"method": "rhf"
			},
			{
				"type": "occ",
				"energy": -0.29849,
				"method": "rhf"
			},
			{
				"type": "occ",
				"energy": -0.28227,
				"method": "rhf"
			},
			{
				"type": "occ",
				"energy": -0.25624,
				"method": "rhf"
			},
			{
				"type": "unocc",
				"energy": 0.00193,
				"method": "rhf"
			},
			{
				"type": "unocc",
				"energy": 0.01484,
				"method": "rhf"
			},
			{
				"type": "unocc",
				"energy": 0.08814,
				"method": "rhf"
			},
			{
				"type": "unocc",
				"energy": 0.10466,
				"method": "rhf"
			},
			{
				"type": "unocc",
				"energy": 0.1151,
				"method": "rhf"
			}
		],
		"cosmo_sigma_profile": { 
			"-0.025": 0.0,
			"-0.024": 0.0,
			"-0.023": 0.0,
			"-0.022": 0.0,
			"-0.021": 0.0,
			"-0.02": 0.0,
			"-0.019": 0.0,
			"-0.018": 0.0,
			"-0.017": 0.0,
			"-0.016": 0.0,
			"-0.015": 0.0,
			"-0.014": 0.0,
			"-0.013": 0.0,
			"-0.012": 0.0,
			"-0.011": 0.0,
			"-0.01": 0.0,
			"-0.009": 0.201347155803,
			"-0.008": 0.540921912801,
			"-0.007": 0.372026295185,
			"-0.006": 4.4415851861,
			"-0.005": 9.50592032621,
			"-0.004": 20.7490463894,
			"-0.003": 38.4713470876,
			"-0.002": 38.7865111519,
			"-0.001": 29.5023665727,
			"0.0": 21.6751351627,
			"0.001": 12.2734364716,
			"0.002": 7.95374088792,
			"0.003": 6.79096356654,
			"0.004": 7.01440646282,
			"0.005": 5.6409146139,
			"0.006": 5.15247986684,
			"0.007": 5.5979686092,
			"0.008": 5.1335806287,
			"0.009": 4.0410457851,
			"0.01": 3.61329371339,
			"0.011": 2.44029509041,
			"0.012": 4.11682473397,
			"0.013": 1.78231362615,
			"0.014": 0.0928995460482,
			"0.015": 0.0,
			"0.016": 0.0,
			"0.017": 0.0,
			"0.018": 0.0,
			"0.019": 0.0,
			"0.02": 0.0,
			"0.021": 0.0,
			"0.022": 0.0,
			"0.023": 0.0,
			"0.024": 0.0,
			"0.025": 0.0
		}
	}
}
