{
	 "smiles": "CS(=O)(=O)C1=CC=C(C=C1)[N+]([O-])=O", 
	 "Tm": 410.15, 
	 "num_atms": 20, 
	 "gaussian": { 
		 "optdone": 1, 
		 "sigma_profile": "yes", 
		 "theory": "DFT", 
		 "functional": "B3LYP", 
		 "basiset": "6-31G**", 
		 "properties": { 
			 "R2extent": 3696.3082, 
			 "electric_dipole_moment_norm": 3.73384296536, 
			 "electric_quadrupole_moment_norm": 28.4815069684, 
			 "total_energy": -1024.62862257, 
			 "HOMO_LUMO_gap": 0.18941, 
			 "cosmo_polarized_energy": -17.37, 
			 "cosmo_cavitation_energy": 26.72, 
			 "cosmo_dispersion_energy": -19.86, 
			 "cosmo_repulsion_energy": 1.51, 
			 "cosmo_total_nonelectrostatic_energy": 8.37, 
			 "SMD_solvation_energy": 6.7 
		},
		"coords": [
			{
				"x": -1.3371088127,
				"y": 2.7262222965,
				"z": -1.5013759633,
				"element": "C" 
			},
			{
				"x": -0.9360783589,
				"y": 0.9801311201,
				"z": -1.7452944234,
				"element": "S" 
			},
			{
				"x": 0.407465107,
				"y": 0.9074882854,
				"z": -2.3365982802,
				"element": "O" 
			},
			{
				"x": -2.0946690804,
				"y": 0.3395010839,
				"z": -2.3834749703,
				"element": "O" 
			},
			{
				"x": -0.8218696971,
				"y": 0.3379494661,
				"z": -0.0575472344,
				"element": "C" 
			},
			{
				"x": -1.9669346413,
				"y": -0.1821050674,
				"z": 0.5497337761,
				"element": "C" 
			},
			{
				"x": -1.8813391993,
				"y": -0.6773842282,
				"z": 1.8490078883,
				"element": "C" 
			},
			{
				"x": -0.6475951435,
				"y": -0.6398672024,
				"z": 2.4958806309,
				"element": "C" 
			},
			{
				"x": 0.5041561717,
				"y": -0.1384235106,
				"z": 1.8925794125,
				"element": "C" 
			},
			{
				"x": 0.4136736778,
				"y": 0.3558325906,
				"z": 0.5932388062,
				"element": "C" 
			},
			{
				"x": -0.5552060305,
				"y": -1.1602876912,
				"z": 3.8754776514,
				"element": "N" 
			},
			{
				"x": 0.5436745735,
				"y": -1.1181595897,
				"z": 4.424200866,
				"element": "O" 
			},
			{
				"x": -1.583862311,
				"y": -1.5987958314,
				"z": 4.3853668573,
				"element": "O" 
			},
			{
				"x": -2.2894653203,
				"y": 2.8076369749,
				"z": -0.975736869,
				"element": "H" 
			},
			{
				"x": -0.5326076097,
				"y": 3.2066371593,
				"z": -0.9429117618,
				"element": "H" 
			},
			{
				"x": -1.4168438669,
				"y": 3.1594560225,
				"z": -2.5007018917,
				"element": "H" 
			},
			{
				"x": -2.9019052861,
				"y": -0.2152226983,
				"z": 0.0010394589,
				"element": "H" 
			},
			{
				"x": -2.7402874536,
				"y": -1.0925068927,
				"z": 2.360917474,
				"element": "H" 
			},
			{
				"x": 1.4397903205,
				"y": -0.14809868,
				"z": 2.4372493005,
				"element": "H" 
			},
			{
				"x": 1.2905129607,
				"y": 0.7321963926,
				"z": 0.0776492722,
				"element": "H" 
			}
		],
		 "valence_orbital": [ 
			{
				"type": "occ",
				"energy": -0.31264,
				"method": "rhf"
			},
			{
				"type": "occ",
				"energy": -0.31246,
				"method": "rhf"
			},
			{
				"type": "occ",
				"energy": -0.30716,
				"method": "rhf"
			},
			{
				"type": "occ",
				"energy": -0.30106,
				"method": "rhf"
			},
			{
				"type": "occ",
				"energy": -0.30043,
				"method": "rhf"
			},
			{
				"type": "unocc",
				"energy": -0.11102,
				"method": "rhf"
			},
			{
				"type": "unocc",
				"energy": -0.05064,
				"method": "rhf"
			},
			{
				"type": "unocc",
				"energy": -0.03411,
				"method": "rhf"
			},
			{
				"type": "unocc",
				"energy": 0.04621,
				"method": "rhf"
			},
			{
				"type": "unocc",
				"energy": 0.06293,
				"method": "rhf"
			}
		],
		"cosmo_sigma_profile": { 
			"-0.025": 0.0,
			"-0.024": 0.0,
			"-0.023": 0.0,
			"-0.022": 0.0,
			"-0.021": 0.0,
			"-0.02": 0.0,
			"-0.019": 0.0,
			"-0.018": 0.0,
			"-0.017": 0.0,
			"-0.016": 0.0,
			"-0.015": 0.0,
			"-0.014": 0.0,
			"-0.013": 0.0,
			"-0.012": 0.0,
			"-0.011": 0.0,
			"-0.01": 0.264684536075,
			"-0.009": 7.32585164686,
			"-0.008": 14.5001588707,
			"-0.007": 14.616489484,
			"-0.006": 11.5061306612,
			"-0.005": 13.6340511744,
			"-0.004": 13.6516609206,
			"-0.003": 14.2624587331,
			"-0.002": 12.5392093875,
			"-0.001": 17.4147664845,
			"0.0": 13.2730148014,
			"0.001": 6.33156439911,
			"0.002": 5.18597876692,
			"0.003": 3.87074688194,
			"0.004": 4.20207183486,
			"0.005": 5.55789928009,
			"0.006": 8.04926745388,
			"0.007": 12.0494992309,
			"0.008": 8.26200054246,
			"0.009": 6.17468873374,
			"0.01": 7.4403363727,
			"0.011": 9.58423879775,
			"0.012": 4.70916420732,
			"0.013": 0.0,
			"0.014": 0.0,
			"0.015": 0.0,
			"0.016": 0.0,
			"0.017": 0.0,
			"0.018": 0.0,
			"0.019": 0.0,
			"0.02": 0.0,
			"0.021": 0.0,
			"0.022": 0.0,
			"0.023": 0.0,
			"0.024": 0.0,
			"0.025": 0.0
		}
	}
}
