{
	 "smiles": "COC(=O)NC1=NC2=C(N1)C=C(C=C2)C(=O)C1=CC=CC=C1", 
	 "Tm": 561.15, 
	 "num_atms": 35, 
	 "gaussian": { 
		 "optdone": 1, 
		 "sigma_profile": "yes", 
		 "theory": "DFT", 
		 "functional": "B3LYP", 
		 "basiset": "6-31G**", 
		 "properties": { 
			 "R2extent": 11036.8051, 
			 "electric_dipole_moment_norm": 7.50705502378, 
			 "electric_quadrupole_moment_norm": 15.0299038433, 
			 "total_energy": -1007.49008122, 
			 "HOMO_LUMO_gap": 0.16386, 
			 "cosmo_polarized_energy": -29.24, 
			 "cosmo_cavitation_energy": 41.11, 
			 "cosmo_dispersion_energy": -29.84, 
			 "cosmo_repulsion_energy": 2.27, 
			 "cosmo_total_nonelectrostatic_energy": 13.54, 
			 "SMD_solvation_energy": 7.01 
		},
		"coords": [
			{
				"x": 2.2371221028,
				"y": 4.368607782,
				"z": 5.9735195248,
				"element": "C" 
			},
			{
				"x": 2.3502783482,
				"y": 3.2478962444,
				"z": 5.0825265314,
				"element": "O" 
			},
			{
				"x": 1.6043215556,
				"y": 3.3524379847,
				"z": 3.9520603751,
				"element": "C" 
			},
			{
				"x": 0.8977061761,
				"y": 4.2858674266,
				"z": 3.662589627,
				"element": "O" 
			},
			{
				"x": 1.782083683,
				"y": 2.1828984006,
				"z": 3.2223239709,
				"element": "N" 
			},
			{
				"x": 1.3601547224,
				"y": 1.9877746932,
				"z": 1.9130975883,
				"element": "C" 
			},
			{
				"x": 1.227625905,
				"y": 2.8945358794,
				"z": 0.9811800765,
				"element": "N" 
			},
			{
				"x": 0.7930136675,
				"y": 2.1890420444,
				"z": -0.1297972586,
				"element": "C" 
			},
			{
				"x": 0.6865909708,
				"y": 0.8064224596,
				"z": 0.1604645965,
				"element": "C" 
			},
			{
				"x": 1.0743999067,
				"y": 0.7020737137,
				"z": 1.4919893467,
				"element": "N" 
			},
			{
				"x": 0.2825462203,
				"y": -0.1347076013,
				"z": -0.7784304722,
				"element": "C" 
			},
			{
				"x": -0.0205469645,
				"y": 0.3380387454,
				"z": -2.0656759613,
				"element": "C" 
			},
			{
				"x": 0.1096888273,
				"y": 1.7147172171,
				"z": -2.3722446081,
				"element": "C" 
			},
			{
				"x": 0.5002206082,
				"y": 2.646494756,
				"z": -1.421898475,
				"element": "C" 
			},
			{
				"x": -0.3996695073,
				"y": -0.5817984111,
				"z": -3.1826614498,
				"element": "C" 
			},
			{
				"x": -0.1782480172,
				"y": -0.2630851824,
				"z": -4.3470705407,
				"element": "O" 
			},
			{
				"x": -1.0507944157,
				"y": -1.9068157915,
				"z": -2.8960105407,
				"element": "C" 
			},
			{
				"x": -0.8302959417,
				"y": -2.9525356286,
				"z": -3.8066410542,
				"element": "C" 
			},
			{
				"x": -1.4443512077,
				"y": -4.1885405918,
				"z": -3.6264474149,
				"element": "C" 
			},
			{
				"x": -2.3117453157,
				"y": -4.3884508162,
				"z": -2.5479346168,
				"element": "C" 
			},
			{
				"x": -2.5608334624,
				"y": -3.3466697979,
				"z": -1.6532114206,
				"element": "C" 
			},
			{
				"x": -1.9294227239,
				"y": -2.1130701263,
				"z": -1.8212285635,
				"element": "C" 
			},
			{
				"x": 2.5623081499,
				"y": 5.2870206472,
				"z": 5.4792527052,
				"element": "H" 
			},
			{
				"x": 1.2044267657,
				"y": 4.4927717546,
				"z": 6.3087943978,
				"element": "H" 
			},
			{
				"x": 2.8873896922,
				"y": 4.1370494585,
				"z": 6.8169908758,
				"element": "H" 
			},
			{
				"x": 2.4082755721,
				"y": 1.502424654,
				"z": 3.6295589652,
				"element": "H" 
			},
			{
				"x": 0.9620876542,
				"y": -0.1028790066,
				"z": 2.0888444066,
				"element": "H" 
			},
			{
				"x": 0.2259181217,
				"y": -1.1913212793,
				"z": -0.5414876052,
				"element": "H" 
			},
			{
				"x": -0.106969229,
				"y": 2.0207614253,
				"z": -3.3896893779,
				"element": "H" 
			},
			{
				"x": 0.5864276448,
				"y": 3.7014661852,
				"z": -1.6594478273,
				"element": "H" 
			},
			{
				"x": -0.1751661733,
				"y": -2.7699227627,
				"z": -4.652023945,
				"element": "H" 
			},
			{
				"x": -1.2554546559,
				"y": -4.9950678066,
				"z": -4.3291184232,
				"element": "H" 
			},
			{
				"x": -2.7978469745,
				"y": -5.3503989609,
				"z": -2.411525463,
				"element": "H" 
			},
			{
				"x": -3.2513196158,
				"y": -3.4914119463,
				"z": -0.8271728953,
				"element": "H" 
			},
			{
				"x": -2.14172209,
				"y": -1.3007257625,
				"z": -1.1339750747,
				"element": "H" 
			}
		],
		 "valence_orbital": [ 
			{
				"type": "occ",
				"energy": -0.25887,
				"method": "rhf"
			},
			{
				"type": "occ",
				"energy": -0.25798,
				"method": "rhf"
			},
			{
				"type": "occ",
				"energy": -0.24207,
				"method": "rhf"
			},
			{
				"type": "occ",
				"energy": -0.23627,
				"method": "rhf"
			},
			{
				"type": "occ",
				"energy": -0.22261,
				"method": "rhf"
			},
			{
				"type": "unocc",
				"energy": -0.05875,
				"method": "rhf"
			},
			{
				"type": "unocc",
				"energy": -0.02238,
				"method": "rhf"
			},
			{
				"type": "unocc",
				"energy": -0.00725,
				"method": "rhf"
			},
			{
				"type": "unocc",
				"energy": 0.00715,
				"method": "rhf"
			},
			{
				"type": "unocc",
				"energy": 0.02104,
				"method": "rhf"
			}
		],
		"cosmo_sigma_profile": { 
			"-0.025": 0.0,
			"-0.024": 0.0,
			"-0.023": 0.0,
			"-0.022": 0.0,
			"-0.021": 0.0,
			"-0.02": 0.0,
			"-0.019": 0.0,
			"-0.018": 0.305489365355,
			"-0.017": 3.5658168648,
			"-0.016": 3.41037446689,
			"-0.015": 2.13976639257,
			"-0.014": 1.88499737267,
			"-0.013": 1.56619249058,
			"-0.012": 2.01131729597,
			"-0.011": 2.00164728189,
			"-0.01": 1.48921311172,
			"-0.009": 1.77835085534,
			"-0.008": 2.22209710021,
			"-0.007": 4.62070993961,
			"-0.006": 17.1596223265,
			"-0.005": 22.7415166526,
			"-0.004": 27.1549877195,
			"-0.003": 24.9134725761,
			"-0.002": 23.7060021668,
			"-0.001": 21.9765221652,
			"0.0": 18.6509298394,
			"0.001": 17.6505561667,
			"0.002": 20.9963112856,
			"0.003": 23.827221662,
			"0.004": 23.1149402739,
			"0.005": 11.6478715284,
			"0.006": 5.49056634576,
			"0.007": 5.54452157084,
			"0.008": 3.77553005472,
			"0.009": 4.22466979766,
			"0.01": 4.42919801525,
			"0.011": 6.03865653498,
			"0.012": 9.27925127974,
			"0.013": 4.13597299615,
			"0.014": 2.09116686756,
			"0.015": 1.31409116782,
			"0.016": 1.7379553281,
			"0.017": 1.19572426429,
			"0.018": 0.0394963457713,
			"0.019": 0.0,
			"0.02": 0.0,
			"0.021": 0.0,
			"0.022": 0.0,
			"0.023": 0.0,
			"0.024": 0.0,
			"0.025": 0.0
		}
	}
}
