{
	 "smiles": "CC(C)C1CCC(C)=CC1=NNC(N)=O", 
	 "Tm": 493.15, 
	 "num_atms": 34, 
	 "gaussian": { 
		 "optdone": 1, 
		 "sigma_profile": "yes", 
		 "theory": "DFT", 
		 "functional": "B3LYP", 
		 "basiset": "6-31G**", 
		 "properties": { 
			 "R2extent": 4361.491, 
			 "electric_dipole_moment_norm": 4.43960670893, 
			 "electric_quadrupole_moment_norm": 20.0732464397, 
			 "total_energy": -670.10302179, 
			 "HOMO_LUMO_gap": 0.17668, 
			 "cosmo_polarized_energy": -13.99, 
			 "cosmo_cavitation_energy": 34.95, 
			 "cosmo_dispersion_energy": -24.55, 
			 "cosmo_repulsion_energy": 1.98, 
			 "cosmo_total_nonelectrostatic_energy": 12.38, 
			 "SMD_solvation_energy": 6.39 
		},
		"coords": [
			{
				"x": -1.3702411827,
				"y": -3.2510000017,
				"z": -0.2149623186,
				"element": "C" 
			},
			{
				"x": -0.2534062185,
				"y": -2.2507967859,
				"z": 0.1242434833,
				"element": "C" 
			},
			{
				"x": 0.8702014527,
				"y": -2.2957920032,
				"z": -0.92413189,
				"element": "C" 
			},
			{
				"x": -0.8273502959,
				"y": -0.8103800899,
				"z": 0.3633294051,
				"element": "C" 
			},
			{
				"x": -1.5939081809,
				"y": -0.2951073547,
				"z": -0.8790837043,
				"element": "C" 
			},
			{
				"x": -1.7411115029,
				"y": 1.2301797121,
				"z": -0.9449141549,
				"element": "C" 
			},
			{
				"x": -0.4008387473,
				"y": 1.9137129572,
				"z": -0.7975887284,
				"element": "C" 
			},
			{
				"x": -0.1789304971,
				"y": 3.2040902201,
				"z": -1.5330014177,
				"element": "C" 
			},
			{
				"x": 0.5194301562,
				"y": 1.3706153655,
				"z": 0.0209810516,
				"element": "C" 
			},
			{
				"x": 0.2563882749,
				"y": 0.1697727415,
				"z": 0.8154272946,
				"element": "C" 
			},
			{
				"x": 0.9575874393,
				"y": 0.0711598099,
				"z": 1.9017511872,
				"element": "N" 
			},
			{
				"x": 0.7244984806,
				"y": -0.9369257099,
				"z": 2.7886014392,
				"element": "N" 
			},
			{
				"x": 1.3727112104,
				"y": -0.9482489045,
				"z": 4.0308257543,
				"element": "C" 
			},
			{
				"x": 2.4371919266,
				"y": -0.0978431824,
				"z": 4.1159479707,
				"element": "N" 
			},
			{
				"x": 1.002484461,
				"y": -1.7145386573,
				"z": 4.9097946337,
				"element": "O" 
			},
			{
				"x": -1.8162871599,
				"y": -3.0498560167,
				"z": -1.1946213628,
				"element": "H" 
			},
			{
				"x": -2.1734774145,
				"y": -3.2281878913,
				"z": 0.5306414507,
				"element": "H" 
			},
			{
				"x": -0.9720797564,
				"y": -4.2706514496,
				"z": -0.2414432526,
				"element": "H" 
			},
			{
				"x": 0.1969005319,
				"y": -2.5837193427,
				"z": 1.0647906922,
				"element": "H" 
			},
			{
				"x": 1.2937008413,
				"y": -3.3044076465,
				"z": -0.9723226533,
				"element": "H" 
			},
			{
				"x": 1.6820440081,
				"y": -1.6066478931,
				"z": -0.6736687198,
				"element": "H" 
			},
			{
				"x": 0.5127326585,
				"y": -2.0475815671,
				"z": -1.9291951815,
				"element": "H" 
			},
			{
				"x": -1.554566069,
				"y": -0.8924218793,
				"z": 1.1892051165,
				"element": "H" 
			},
			{
				"x": -2.5801420374,
				"y": -0.768063171,
				"z": -0.9172303991,
				"element": "H" 
			},
			{
				"x": -1.061610207,
				"y": -0.6101375098,
				"z": -1.7828144627,
				"element": "H" 
			},
			{
				"x": -2.2118570445,
				"y": 1.5115331221,
				"z": -1.8948115709,
				"element": "H" 
			},
			{
				"x": -2.4208790753,
				"y": 1.5872177262,
				"z": -0.1557064094,
				"element": "H" 
			},
			{
				"x": 0.8048143546,
				"y": 3.6315328705,
				"z": -1.3205456583,
				"element": "H" 
			},
			{
				"x": -0.9405778464,
				"y": 3.9472567848,
				"z": -1.2609656738,
				"element": "H" 
			},
			{
				"x": -0.263765968,
				"y": 3.0587930812,
				"z": -2.6184291872,
				"element": "H" 
			},
			{
				"x": 1.4635491176,
				"y": 1.8745365345,
				"z": 0.2135737556,
				"element": "H" 
			},
			{
				"x": -0.1344154122,
				"y": -1.476381718,
				"z": 2.7796590056,
				"element": "H" 
			},
			{
				"x": 2.5235283809,
				"y": 0.625358876,
				"z": 3.4168036899,
				"element": "H" 
			},
			{
				"x": 2.8144813215,
				"y": 0.044228973,
				"z": 5.0381608151,
				"element": "H" 
			}
		],
		 "valence_orbital": [ 
			{
				"type": "occ",
				"energy": -0.2809,
				"method": "rhf"
			},
			{
				"type": "occ",
				"energy": -0.27368,
				"method": "rhf"
			},
			{
				"type": "occ",
				"energy": -0.25836,
				"method": "rhf"
			},
			{
				"type": "occ",
				"energy": -0.25075,
				"method": "rhf"
			},
			{
				"type": "occ",
				"energy": -0.20528,
				"method": "rhf"
			},
			{
				"type": "unocc",
				"energy": -0.0286,
				"method": "rhf"
			},
			{
				"type": "unocc",
				"energy": 0.05364,
				"method": "rhf"
			},
			{
				"type": "unocc",
				"energy": 0.07033,
				"method": "rhf"
			},
			{
				"type": "unocc",
				"energy": 0.07599,
				"method": "rhf"
			},
			{
				"type": "unocc",
				"energy": 0.08537,
				"method": "rhf"
			}
		],
		"cosmo_sigma_profile": { 
			"-0.025": 0.0,
			"-0.024": 0.0,
			"-0.023": 0.0,
			"-0.022": 0.0,
			"-0.021": 0.0,
			"-0.02": 0.0,
			"-0.019": 0.0,
			"-0.018": 0.0,
			"-0.017": 0.0,
			"-0.016": 0.0,
			"-0.015": 0.0,
			"-0.014": 0.674689727774,
			"-0.013": 1.42261546145,
			"-0.012": 1.9373937716,
			"-0.011": 2.74988208554,
			"-0.01": 2.91570161919,
			"-0.009": 3.12212659699,
			"-0.008": 2.95526585949,
			"-0.007": 3.23490761482,
			"-0.006": 2.68087316424,
			"-0.005": 3.71183094291,
			"-0.004": 13.6939527085,
			"-0.003": 29.2323529792,
			"-0.002": 40.2789383798,
			"-0.001": 34.5641495518,
			"0.0": 30.1256611645,
			"0.001": 26.4547303597,
			"0.002": 16.140906387,
			"0.003": 8.77332008961,
			"0.004": 8.14570059116,
			"0.005": 9.09257433862,
			"0.006": 4.99970107933,
			"0.007": 3.80479931361,
			"0.008": 2.84160308719,
			"0.009": 2.14634849409,
			"0.01": 0.681251583378,
			"0.011": 1.55339229223,
			"0.012": 1.60612178175,
			"0.013": 2.3967187556,
			"0.014": 6.31649783789,
			"0.015": 3.40250168046,
			"0.016": 0.0834154666832,
			"0.017": 0.0,
			"0.018": 0.0,
			"0.019": 0.0,
			"0.02": 0.0,
			"0.021": 0.0,
			"0.022": 0.0,
			"0.023": 0.0,
			"0.024": 0.0,
			"0.025": 0.0
		}
	}
}
