{
	 "smiles": "CC1(C)CC(=O)C2=C(O1)C=CC=C2", 
	 "Tm": 361.15, 
	 "num_atms": 25, 
	 "gaussian": { 
		 "optdone": 1, 
		 "sigma_profile": "yes", 
		 "theory": "DFT", 
		 "functional": "B3LYP", 
		 "basiset": "6-31G**", 
		 "properties": { 
			 "R2extent": 2635.2527, 
			 "electric_dipole_moment_norm": 2.5522255778, 
			 "electric_quadrupole_moment_norm": 12.4203944329, 
			 "total_energy": -576.8647369, 
			 "HOMO_LUMO_gap": 0.17479, 
			 "cosmo_polarized_energy": -8.75, 
			 "cosmo_cavitation_energy": 27.31, 
			 "cosmo_dispersion_energy": -19.82, 
			 "cosmo_repulsion_energy": 1.55, 
			 "cosmo_total_nonelectrostatic_energy": 9.05, 
			 "SMD_solvation_energy": 5.31 
		},
		"coords": [
			{
				"x": -1.4076982852,
				"y": -0.7706387357,
				"z": -2.5682119073,
				"element": "C" 
			},
			{
				"x": -0.6619845109,
				"y": -0.2585648936,
				"z": -1.3381545764,
				"element": "C" 
			},
			{
				"x": -1.4707879172,
				"y": -0.5122445638,
				"z": -0.0583553659,
				"element": "C" 
			},
			{
				"x": -0.2798070234,
				"y": 1.2218645659,
				"z": -1.4904511845,
				"element": "C" 
			},
			{
				"x": 0.7066313261,
				"y": 1.6896453349,
				"z": -0.428631543,
				"element": "C" 
			},
			{
				"x": 0.7103752452,
				"y": 2.8367846225,
				"z": -0.0066474432,
				"element": "O" 
			},
			{
				"x": 1.6864728594,
				"y": 0.6659777612,
				"z": -0.0087600344,
				"element": "C" 
			},
			{
				"x": 1.5688019997,
				"y": -0.6558677118,
				"z": -0.4843354891,
				"element": "C" 
			},
			{
				"x": 0.5518903574,
				"y": -1.0687495585,
				"z": -1.2859647038,
				"element": "O" 
			},
			{
				"x": 2.5385423804,
				"y": -1.6097345038,
				"z": -0.1440698277,
				"element": "C" 
			},
			{
				"x": 3.6050578483,
				"y": -1.2465320883,
				"z": 0.6700960287,
				"element": "C" 
			},
			{
				"x": 3.7230909565,
				"y": 0.0615011124,
				"z": 1.166387326,
				"element": "C" 
			},
			{
				"x": 2.7660144343,
				"y": 1.0052180408,
				"z": 0.824752246,
				"element": "C" 
			},
			{
				"x": -0.8030827247,
				"y": -0.6330896548,
				"z": -3.4689992237,
				"element": "H" 
			},
			{
				"x": -2.3506566289,
				"y": -0.2303318212,
				"z": -2.6938920729,
				"element": "H" 
			},
			{
				"x": -1.6296126017,
				"y": -1.8363345416,
				"z": -2.4615877326,
				"element": "H" 
			},
			{
				"x": -2.4156942917,
				"y": 0.0388555015,
				"z": -0.0916890602,
				"element": "H" 
			},
			{
				"x": -1.6934610836,
				"y": -1.5783858009,
				"z": 0.0382312549,
				"element": "H" 
			},
			{
				"x": -0.9257512617,
				"y": -0.192988214,
				"z": 0.8343284237,
				"element": "H" 
			},
			{
				"x": -1.164201072,
				"y": 1.8638650266,
				"z": -1.4631263849,
				"element": "H" 
			},
			{
				"x": 0.2035808435,
				"y": 1.3686760094,
				"z": -2.4666014005,
				"element": "H" 
			},
			{
				"x": 2.4292066612,
				"y": -2.6208216205,
				"z": -0.52186862,
				"element": "H" 
			},
			{
				"x": 4.351373728,
				"y": -1.9922435755,
				"z": 0.9298991889,
				"element": "H" 
			},
			{
				"x": 4.5576640887,
				"y": 0.329745571,
				"z": 1.8062715773,
				"element": "H" 
			},
			{
				"x": 2.8236346722,
				"y": 2.0308937377,
				"z": 1.1755805246,
				"element": "H" 
			}
		],
		 "valence_orbital": [ 
			{
				"type": "occ",
				"energy": -0.32812,
				"method": "rhf"
			},
			{
				"type": "occ",
				"energy": -0.31514,
				"method": "rhf"
			},
			{
				"type": "occ",
				"energy": -0.25769,
				"method": "rhf"
			},
			{
				"type": "occ",
				"energy": -0.24351,
				"method": "rhf"
			},
			{
				"type": "occ",
				"energy": -0.22807,
				"method": "rhf"
			},
			{
				"type": "unocc",
				"energy": -0.05328,
				"method": "rhf"
			},
			{
				"type": "unocc",
				"energy": 0.00213,
				"method": "rhf"
			},
			{
				"type": "unocc",
				"energy": 0.0417,
				"method": "rhf"
			},
			{
				"type": "unocc",
				"energy": 0.08059,
				"method": "rhf"
			},
			{
				"type": "unocc",
				"energy": 0.09178,
				"method": "rhf"
			}
		],
		"cosmo_sigma_profile": { 
			"-0.025": 0.0,
			"-0.024": 0.0,
			"-0.023": 0.0,
			"-0.022": 0.0,
			"-0.021": 0.0,
			"-0.02": 0.0,
			"-0.019": 0.0,
			"-0.018": 0.0,
			"-0.017": 0.0,
			"-0.016": 0.0,
			"-0.015": 0.0,
			"-0.014": 0.0,
			"-0.013": 0.0,
			"-0.012": 0.0,
			"-0.011": 0.0,
			"-0.01": 0.0,
			"-0.009": 0.0,
			"-0.008": 0.0,
			"-0.007": 1.86143828135,
			"-0.006": 10.8997680693,
			"-0.005": 17.878333151,
			"-0.004": 24.3168975002,
			"-0.003": 20.9298337924,
			"-0.002": 19.629736094,
			"-0.001": 19.0469388336,
			"0.0": 19.7391446387,
			"0.001": 12.1863469812,
			"0.002": 13.679520143,
			"0.003": 13.7445535779,
			"0.004": 12.7903131998,
			"0.005": 5.44618738459,
			"0.006": 3.09326380295,
			"0.007": 2.49276900327,
			"0.008": 2.66831565264,
			"0.009": 3.15409588734,
			"0.01": 2.08311080241,
			"0.011": 3.00260561217,
			"0.012": 4.47123322417,
			"0.013": 2.17577635606,
			"0.014": 0.397054874851,
			"0.015": 0.0,
			"0.016": 0.0,
			"0.017": 0.0,
			"0.018": 0.0,
			"0.019": 0.0,
			"0.02": 0.0,
			"0.021": 0.0,
			"0.022": 0.0,
			"0.023": 0.0,
			"0.024": 0.0,
			"0.025": 0.0
		}
	}
}
