{
	 "smiles": "O=CC1=CC=C(C=N1)N1CCCC1", 
	 "Tm": 375.15, 
	 "num_atms": 25, 
	 "gaussian": { 
		 "optdone": 1, 
		 "sigma_profile": "yes", 
		 "theory": "DFT", 
		 "functional": "B3LYP", 
		 "basiset": "6-31G**", 
		 "properties": { 
			 "R2extent": 3653.3887, 
			 "electric_dipole_moment_norm": 7.53278763938, 
			 "electric_quadrupole_moment_norm": 16.6899537582, 
			 "total_energy": -573.014204043, 
			 "HOMO_LUMO_gap": 0.16053, 
			 "cosmo_polarized_energy": -12.56, 
			 "cosmo_cavitation_energy": 27.82, 
			 "cosmo_dispersion_energy": -20.7, 
			 "cosmo_repulsion_energy": 1.62, 
			 "cosmo_total_nonelectrostatic_energy": 8.74, 
			 "SMD_solvation_energy": 3.19 
		},
		"coords": [
			{
				"x": 2.3857319534,
				"y": -4.7781208461,
				"z": 1.5901302172,
				"element": "O" 
			},
			{
				"x": 2.7101327497,
				"y": -3.6225686904,
				"z": 1.8064603175,
				"element": "C" 
			},
			{
				"x": 1.8890278417,
				"y": -2.4453593544,
				"z": 1.4618676442,
				"element": "C" 
			},
			{
				"x": 0.6400411949,
				"y": -2.5836037995,
				"z": 0.8406041405,
				"element": "C" 
			},
			{
				"x": -0.0977758236,
				"y": -1.4538003137,
				"z": 0.5352276773,
				"element": "C" 
			},
			{
				"x": 0.4265533678,
				"y": -0.1784571201,
				"z": 0.856188373,
				"element": "C" 
			},
			{
				"x": 1.7047514661,
				"y": -0.1554440975,
				"z": 1.4835197572,
				"element": "C" 
			},
			{
				"x": 2.4051521695,
				"y": -1.2415301785,
				"z": 1.7749909362,
				"element": "N" 
			},
			{
				"x": -0.2518265138,
				"y": 0.9753278389,
				"z": 0.5808140016,
				"element": "N" 
			},
			{
				"x": 0.2048214487,
				"y": 2.3081245576,
				"z": 0.9855546701,
				"element": "C" 
			},
			{
				"x": -1.013614986,
				"y": 3.203944223,
				"z": 0.7184717899,
				"element": "C" 
			},
			{
				"x": -1.714538425,
				"y": 2.5072804883,
				"z": -0.4586402915,
				"element": "C" 
			},
			{
				"x": -1.5184120809,
				"y": 1.0149690784,
				"z": -0.1541423048,
				"element": "C" 
			},
			{
				"x": 3.6734236186,
				"y": -3.3600759443,
				"z": 2.2925160137,
				"element": "H" 
			},
			{
				"x": 0.2754001288,
				"y": -3.5804866002,
				"z": 0.6151558105,
				"element": "H" 
			},
			{
				"x": -1.0701275524,
				"y": -1.5468766585,
				"z": 0.0646512311,
				"element": "H" 
			},
			{
				"x": 2.1627868874,
				"y": 0.7949849449,
				"z": 1.7452075799,
				"element": "H" 
			},
			{
				"x": 0.5036393568,
				"y": 2.3175711948,
				"z": 2.0400430307,
				"element": "H" 
			},
			{
				"x": 1.0759407779,
				"y": 2.6245332467,
				"z": 0.3918424332,
				"element": "H" 
			},
			{
				"x": -0.7302376859,
				"y": 4.2371399837,
				"z": 0.5024785699,
				"element": "H" 
			},
			{
				"x": -1.6687586177,
				"y": 3.2122512009,
				"z": 1.596601182,
				"element": "H" 
			},
			{
				"x": -1.2159229125,
				"y": 2.7632558453,
				"z": -1.4000155818,
				"element": "H" 
			},
			{
				"x": -2.7693704468,
				"y": 2.7767819645,
				"z": -0.5543842462,
				"element": "H" 
			},
			{
				"x": -2.3425954886,
				"y": 0.6163007834,
				"z": 0.4573839486,
				"element": "H" 
			},
			{
				"x": -1.462022428,
				"y": 0.4092582529,
				"z": -1.0663269,
				"element": "H" 
			}
		],
		 "valence_orbital": [ 
			{
				"type": "occ",
				"energy": -0.30974,
				"method": "rhf"
			},
			{
				"type": "occ",
				"energy": -0.27724,
				"method": "rhf"
			},
			{
				"type": "occ",
				"energy": -0.26053,
				"method": "rhf"
			},
			{
				"type": "occ",
				"energy": -0.23478,
				"method": "rhf"
			},
			{
				"type": "occ",
				"energy": -0.20716,
				"method": "rhf"
			},
			{
				"type": "unocc",
				"energy": -0.04663,
				"method": "rhf"
			},
			{
				"type": "unocc",
				"energy": -0.01918,
				"method": "rhf"
			},
			{
				"type": "unocc",
				"energy": 0.05477,
				"method": "rhf"
			},
			{
				"type": "unocc",
				"energy": 0.06537,
				"method": "rhf"
			},
			{
				"type": "unocc",
				"energy": 0.09925,
				"method": "rhf"
			}
		],
		"cosmo_sigma_profile": { 
			"-0.025": 0.0,
			"-0.024": 0.0,
			"-0.023": 0.0,
			"-0.022": 0.0,
			"-0.021": 0.0,
			"-0.02": 0.0,
			"-0.019": 0.0,
			"-0.018": 0.0,
			"-0.017": 0.0,
			"-0.016": 0.0,
			"-0.015": 0.0,
			"-0.014": 0.0,
			"-0.013": 0.0,
			"-0.012": 0.0,
			"-0.011": 0.0,
			"-0.01": 0.0,
			"-0.009": 0.0,
			"-0.008": 0.0130112729304,
			"-0.007": 2.01019522164,
			"-0.006": 7.30823618773,
			"-0.005": 15.0690450116,
			"-0.004": 27.1525831791,
			"-0.003": 32.9975414748,
			"-0.002": 24.980697538,
			"-0.001": 18.2790812851,
			"0.0": 15.7412401906,
			"0.001": 13.4909285755,
			"0.002": 15.3897354469,
			"0.003": 10.2724373987,
			"0.004": 4.48865861741,
			"0.005": 3.36522359816,
			"0.006": 4.06698793627,
			"0.007": 2.27911769548,
			"0.008": 2.23764025171,
			"0.009": 3.43723568257,
			"0.01": 3.0553924049,
			"0.011": 3.84035896098,
			"0.012": 5.55808624934,
			"0.013": 3.31205643348,
			"0.014": 0.925305333373,
			"0.015": 0.694850282604,
			"0.016": 0.208689242144,
			"0.017": 0.0,
			"0.018": 0.0,
			"0.019": 0.0,
			"0.02": 0.0,
			"0.021": 0.0,
			"0.022": 0.0,
			"0.023": 0.0,
			"0.024": 0.0,
			"0.025": 0.0
		}
	}
}
