{
	 "smiles": "OC(=O)C1=CC2=C(OCCOCCOCCOCCO2)C=C1", 
	 "Tm": 463.15, 
	 "num_atms": 42, 
	 "gaussian": { 
		 "optdone": 1, 
		 "sigma_profile": "yes", 
		 "theory": "DFT", 
		 "functional": "B3LYP", 
		 "basiset": "6-31G**", 
		 "properties": { 
			 "R2extent": 8556.9977, 
			 "electric_dipole_moment_norm": 3.54985838872, 
			 "electric_quadrupole_moment_norm": 41.6691134765, 
			 "total_energy": -1110.14457793, 
			 "HOMO_LUMO_gap": 0.18732, 
			 "cosmo_polarized_energy": -23.92, 
			 "cosmo_cavitation_energy": 42.84, 
			 "cosmo_dispersion_energy": -29.94, 
			 "cosmo_repulsion_energy": 2.25, 
			 "cosmo_total_nonelectrostatic_energy": 15.16, 
			 "SMD_solvation_energy": 8.12 
		},
		"coords": [
			{
				"x": 0.587807932,
				"y": -0.0933583963,
				"z": -5.0519218541,
				"element": "O" 
			},
			{
				"x": 1.7520624974,
				"y": -0.4206551921,
				"z": -4.4230669419,
				"element": "C" 
			},
			{
				"x": 2.6780636996,
				"y": -0.8613658715,
				"z": -5.0618149814,
				"element": "O" 
			},
			{
				"x": 1.7994888052,
				"y": -0.2005569934,
				"z": -2.942283274,
				"element": "C" 
			},
			{
				"x": 0.6352873252,
				"y": -0.1460936321,
				"z": -2.154818529,
				"element": "C" 
			},
			{
				"x": 0.7167789785,
				"y": 0.0474660496,
				"z": -0.7737955692,
				"element": "C" 
			},
			{
				"x": 1.9915478678,
				"y": 0.1982523576,
				"z": -0.176415723,
				"element": "C" 
			},
			{
				"x": 2.1345851226,
				"y": 0.323742426,
				"z": 1.1805123969,
				"element": "O" 
			},
			{
				"x": 1.7409441626,
				"y": 1.5753267031,
				"z": 1.7740281708,
				"element": "C" 
			},
			{
				"x": 1.9402205081,
				"y": 1.4791387578,
				"z": 3.2824754323,
				"element": "C" 
			},
			{
				"x": 0.9269673774,
				"y": 0.7806599012,
				"z": 3.9803054138,
				"element": "O" 
			},
			{
				"x": 0.8969854649,
				"y": -0.6223090842,
				"z": 3.740954998,
				"element": "C" 
			},
			{
				"x": -0.0995044662,
				"y": -1.2922387026,
				"z": 4.6746331604,
				"element": "C" 
			},
			{
				"x": -1.4478268235,
				"y": -0.8398357959,
				"z": 4.6369711167,
				"element": "O" 
			},
			{
				"x": -1.9630005962,
				"y": -0.296708335,
				"z": 3.4322099846,
				"element": "C" 
			},
			{
				"x": -2.1791984543,
				"y": -1.3376379833,
				"z": 2.3232107022,
				"element": "C" 
			},
			{
				"x": -3.0882635449,
				"y": -0.8897576278,
				"z": 1.3158350557,
				"element": "O" 
			},
			{
				"x": -2.7273716603,
				"y": 0.2505965068,
				"z": 0.5620978432,
				"element": "C" 
			},
			{
				"x": -1.6685141158,
				"y": 0.0213253278,
				"z": -0.5114752531,
				"element": "C" 
			},
			{
				"x": -0.3593208918,
				"y": 0.0844410909,
				"z": 0.0668660728,
				"element": "O" 
			},
			{
				"x": 3.1382176268,
				"y": 0.1254155895,
				"z": -0.9646361135,
				"element": "C" 
			},
			{
				"x": 3.0527428416,
				"y": -0.0832804544,
				"z": -2.3392663671,
				"element": "C" 
			},
			{
				"x": 0.0246632161,
				"y": 0.4188823853,
				"z": -4.4555883692,
				"element": "H" 
			},
			{
				"x": -0.332378602,
				"y": -0.3230555496,
				"z": -2.6099161582,
				"element": "H" 
			},
			{
				"x": 2.3756122109,
				"y": 2.3780522921,
				"z": 1.37131045,
				"element": "H" 
			},
			{
				"x": 0.6947947203,
				"y": 1.7994869769,
				"z": 1.5408226516,
				"element": "H" 
			},
			{
				"x": 2.9307408866,
				"y": 1.0369046705,
				"z": 3.4774598259,
				"element": "H" 
			},
			{
				"x": 1.9341961928,
				"y": 2.4947821481,
				"z": 3.6925507312,
				"element": "H" 
			},
			{
				"x": 1.8864905275,
				"y": -1.068359266,
				"z": 3.9359057007,
				"element": "H" 
			},
			{
				"x": 0.6607411358,
				"y": -0.8278201119,
				"z": 2.6922153901,
				"element": "H" 
			},
			{
				"x": -0.0508103994,
				"y": -2.3732420117,
				"z": 4.4612384223,
				"element": "H" 
			},
			{
				"x": 0.2227758428,
				"y": -1.1471184279,
				"z": 5.7115551606,
				"element": "H" 
			},
			{
				"x": -1.3315740664,
				"y": 0.5309636642,
				"z": 3.0899437318,
				"element": "H" 
			},
			{
				"x": -2.9433195243,
				"y": 0.1119940826,
				"z": 3.7000096108,
				"element": "H" 
			},
			{
				"x": -2.6561303414,
				"y": -2.2187158047,
				"z": 2.7629664552,
				"element": "H" 
			},
			{
				"x": -1.2281283822,
				"y": -1.6528835498,
				"z": 1.874334229,
				"element": "H" 
			},
			{
				"x": -3.6469786719,
				"y": 0.5496711708,
				"z": 0.0467264231,
				"element": "H" 
			},
			{
				"x": -2.4157964144,
				"y": 1.0943605129,
				"z": 1.192698445,
				"element": "H" 
			},
			{
				"x": -1.7640924397,
				"y": 0.8058578429,
				"z": -1.2760837948,
				"element": "H" 
			},
			{
				"x": -1.8297364986,
				"y": -0.955055689,
				"z": -0.987092386,
				"element": "H" 
			},
			{
				"x": 4.0984591266,
				"y": 0.2252515416,
				"z": -0.4690384955,
				"element": "H" 
			},
			{
				"x": 3.9409718243,
				"y": -0.1518235191,
				"z": -2.9566237647,
				"element": "H" 
			}
		],
		 "valence_orbital": [ 
			{
				"type": "occ",
				"energy": -0.27593,
				"method": "rhf"
			},
			{
				"type": "occ",
				"energy": -0.26816,
				"method": "rhf"
			},
			{
				"type": "occ",
				"energy": -0.26148,
				"method": "rhf"
			},
			{
				"type": "occ",
				"energy": -0.2411,
				"method": "rhf"
			},
			{
				"type": "occ",
				"energy": -0.23937,
				"method": "rhf"
			},
			{
				"type": "unocc",
				"energy": -0.05205,
				"method": "rhf"
			},
			{
				"type": "unocc",
				"energy": -0.01767,
				"method": "rhf"
			},
			{
				"type": "unocc",
				"energy": 0.04452,
				"method": "rhf"
			},
			{
				"type": "unocc",
				"energy": 0.05262,
				"method": "rhf"
			},
			{
				"type": "unocc",
				"energy": 0.06268,
				"method": "rhf"
			}
		],
		"cosmo_sigma_profile": { 
			"-0.025": 0.0,
			"-0.024": 0.0,
			"-0.023": 0.0,
			"-0.022": 0.0,
			"-0.021": 0.0,
			"-0.02": 0.0,
			"-0.019": 0.0,
			"-0.018": 0.521365392472,
			"-0.017": 0.970837581745,
			"-0.016": 1.16848552527,
			"-0.015": 1.2697647879,
			"-0.014": 0.681606065841,
			"-0.013": 0.660357689355,
			"-0.012": 1.57258522639,
			"-0.011": 1.38155554049,
			"-0.01": 0.868801695309,
			"-0.009": 2.26784819682,
			"-0.008": 2.29017466963,
			"-0.007": 5.67532945008,
			"-0.006": 18.2163248435,
			"-0.005": 27.9089792226,
			"-0.004": 38.1720182452,
			"-0.003": 31.607787981,
			"-0.002": 25.4637680274,
			"-0.001": 22.6248853054,
			"0.0": 19.8998985783,
			"0.001": 18.3130728694,
			"0.002": 18.7212037072,
			"0.003": 18.1197117725,
			"0.004": 10.7629504007,
			"0.005": 6.80658318054,
			"0.006": 6.99713485752,
			"0.007": 6.55642456363,
			"0.008": 7.1129693663,
			"0.009": 6.92462527954,
			"0.01": 7.58391715591,
			"0.011": 10.3599884082,
			"0.012": 8.74617445791,
			"0.013": 5.58720612313,
			"0.014": 0.627808724728,
			"0.015": 0.0,
			"0.016": 0.0,
			"0.017": 0.0,
			"0.018": 0.0,
			"0.019": 0.0,
			"0.02": 0.0,
			"0.021": 0.0,
			"0.022": 0.0,
			"0.023": 0.0,
			"0.024": 0.0,
			"0.025": 0.0
		}
	}
}
