{
	 "smiles": "ClC1=NC=CNC1=O", 
	 "Tm": 433.15, 
	 "num_atms": 11, 
	 "gaussian": { 
		 "optdone": 1, 
		 "sigma_profile": "yes", 
		 "theory": "DFT", 
		 "functional": "B3LYP", 
		 "basiset": "6-31G**", 
		 "properties": { 
			 "R2extent": 1241.3152, 
			 "electric_dipole_moment_norm": 5.35522462181, 
			 "electric_quadrupole_moment_norm": 6.89816354909, 
			 "total_energy": -799.139906119, 
			 "HOMO_LUMO_gap": 0.16874, 
			 "cosmo_polarized_energy": -16.17, 
			 "cosmo_cavitation_energy": 17.63, 
			 "cosmo_dispersion_energy": -13.59, 
			 "cosmo_repulsion_energy": 1.14, 
			 "cosmo_total_nonelectrostatic_energy": 5.17, 
			 "SMD_solvation_energy": 2.7 
		},
		"coords": [
			{
				"x": -0.7303894087,
				"y": -2.890048528,
				"z": -0.2286435806,
				"element": "Cl" 
			},
			{
				"x": -0.6158297095,
				"y": -1.1722012716,
				"z": -0.5109052628,
				"element": "C" 
			},
			{
				"x": -0.3394557817,
				"y": -0.7431776542,
				"z": -1.6929303736,
				"element": "N" 
			},
			{
				"x": -0.2482185632,
				"y": 0.608777375,
				"z": -1.9154583246,
				"element": "C" 
			},
			{
				"x": -0.4446534983,
				"y": 1.503078888,
				"z": -0.9093538728,
				"element": "C" 
			},
			{
				"x": -0.7374379328,
				"y": 1.0340588782,
				"z": 0.342798097,
				"element": "N" 
			},
			{
				"x": -0.8535991145,
				"y": -0.3203678555,
				"z": 0.6802337144,
				"element": "C" 
			},
			{
				"x": -1.117999344,
				"y": -0.6837548327,
				"z": 1.8125478729,
				"element": "O" 
			},
			{
				"x": -0.0141357908,
				"y": 0.9264973535,
				"z": -2.9239599535,
				"element": "H" 
			},
			{
				"x": -0.384212655,
				"y": 2.577843926,
				"z": -1.0333847692,
				"element": "H" 
			},
			{
				"x": -0.8896682014,
				"y": 1.6729937214,
				"z": 1.1142564529,
				"element": "H" 
			}
		],
		 "valence_orbital": [ 
			{
				"type": "occ",
				"energy": -0.31676,
				"method": "rhf"
			},
			{
				"type": "occ",
				"energy": -0.31669,
				"method": "rhf"
			},
			{
				"type": "occ",
				"energy": -0.31509,
				"method": "rhf"
			},
			{
				"type": "occ",
				"energy": -0.26442,
				"method": "rhf"
			},
			{
				"type": "occ",
				"energy": -0.2407,
				"method": "rhf"
			},
			{
				"type": "unocc",
				"energy": -0.07196,
				"method": "rhf"
			},
			{
				"type": "unocc",
				"energy": -0.0134,
				"method": "rhf"
			},
			{
				"type": "unocc",
				"energy": 0.03316,
				"method": "rhf"
			},
			{
				"type": "unocc",
				"energy": 0.0584,
				"method": "rhf"
			},
			{
				"type": "unocc",
				"energy": 0.11157,
				"method": "rhf"
			}
		],
		"cosmo_sigma_profile": { 
			"-0.025": 0.0,
			"-0.024": 0.0,
			"-0.023": 0.0,
			"-0.022": 0.0,
			"-0.021": 0.0,
			"-0.02": 0.0,
			"-0.019": 0.0,
			"-0.018": 0.372147716629,
			"-0.017": 1.97131323929,
			"-0.016": 1.5698415997,
			"-0.015": 1.13598746507,
			"-0.014": 1.35188122519,
			"-0.013": 0.856935957415,
			"-0.012": 1.21758308744,
			"-0.011": 3.30017834744,
			"-0.01": 2.89635937024,
			"-0.009": 2.4712874235,
			"-0.008": 4.29785265401,
			"-0.007": 4.00986662981,
			"-0.006": 4.89464562155,
			"-0.005": 5.76632075549,
			"-0.004": 5.87626779538,
			"-0.003": 8.88432276376,
			"-0.002": 8.82631386356,
			"-0.001": 7.71308163417,
			"0.0": 8.20114999766,
			"0.001": 8.76933068798,
			"0.002": 6.81402350331,
			"0.003": 8.04288849297,
			"0.004": 10.2452033635,
			"0.005": 4.89164894923,
			"0.006": 3.54304671424,
			"0.007": 3.81773017512,
			"0.008": 2.96231345698,
			"0.009": 2.46993659955,
			"0.01": 2.69270900532,
			"0.011": 3.35141964294,
			"0.012": 5.99905863745,
			"0.013": 4.78448296155,
			"0.014": 0.452994636578,
			"0.015": 0.0,
			"0.016": 0.0,
			"0.017": 0.0,
			"0.018": 0.0,
			"0.019": 0.0,
			"0.02": 0.0,
			"0.021": 0.0,
			"0.022": 0.0,
			"0.023": 0.0,
			"0.024": 0.0,
			"0.025": 0.0
		}
	}
}
