{
	 "smiles": "CCC1(C)CC(=O)NC1=O", 
	 "Tm": 338.15, 
	 "num_atms": 21, 
	 "gaussian": { 
		 "optdone": 1, 
		 "sigma_profile": "yes", 
		 "theory": "DFT", 
		 "functional": "B3LYP", 
		 "basiset": "6-31G**", 
		 "properties": { 
			 "R2extent": 1942.2872, 
			 "electric_dipole_moment_norm": 2.14496834009, 
			 "electric_quadrupole_moment_norm": 11.2061045341, 
			 "total_energy": -478.617306924, 
			 "HOMO_LUMO_gap": 0.23516, 
			 "cosmo_polarized_energy": -12.57, 
			 "cosmo_cavitation_energy": 23.62, 
			 "cosmo_dispersion_energy": -16.96, 
			 "cosmo_repulsion_energy": 1.39, 
			 "cosmo_total_nonelectrostatic_energy": 8.04, 
			 "SMD_solvation_energy": 5.47 
		},
		"coords": [
			{
				"x": 1.4704176268,
				"y": 0.8803559799,
				"z": -2.7392279421,
				"element": "C" 
			},
			{
				"x": 0.1635904783,
				"y": 0.1390892051,
				"z": -2.4387080967,
				"element": "C" 
			},
			{
				"x": -0.0094294959,
				"y": -0.3238257429,
				"z": -0.9703747128,
				"element": "C" 
			},
			{
				"x": 0.0097758734,
				"y": 0.864500645,
				"z": 0.0122646268,
				"element": "C" 
			},
			{
				"x": 0.9830290549,
				"y": -1.4413551279,
				"z": -0.5575464703,
				"element": "C" 
			},
			{
				"x": 0.1362804067,
				"y": -2.6353436823,
				"z": -0.1266196568,
				"element": "C" 
			},
			{
				"x": 0.5119404435,
				"y": -3.6976132025,
				"z": 0.3178105855,
				"element": "O" 
			},
			{
				"x": -1.193666449,
				"y": -2.2865056822,
				"z": -0.350594606,
				"element": "N" 
			},
			{
				"x": -1.3884036273,
				"y": -1.0026553065,
				"z": -0.8474936905,
				"element": "C" 
			},
			{
				"x": -2.466652374,
				"y": -0.5180464113,
				"z": -1.1191319475,
				"element": "O" 
			},
			{
				"x": 1.5381292603,
				"y": 1.8288565828,
				"z": -2.1983482876,
				"element": "H" 
			},
			{
				"x": 1.5368006301,
				"y": 1.1089499401,
				"z": -3.8073853342,
				"element": "H" 
			},
			{
				"x": 2.3507013274,
				"y": 0.2824713112,
				"z": -2.4776494662,
				"element": "H" 
			},
			{
				"x": -0.6937422836,
				"y": 0.7722125206,
				"z": -2.6916924737,
				"element": "H" 
			},
			{
				"x": 0.0934787147,
				"y": -0.7438409067,
				"z": -3.0879516946,
				"element": "H" 
			},
			{
				"x": -0.1657822437,
				"y": 0.52707805,
				"z": 1.0393639612,
				"element": "H" 
			},
			{
				"x": -0.7726028702,
				"y": 1.5837087202,
				"z": -0.2451391126,
				"element": "H" 
			},
			{
				"x": 0.9771561908,
				"y": 1.3736191768,
				"z": -0.0095418378,
				"element": "H" 
			},
			{
				"x": 1.6438215504,
				"y": -1.1586563748,
				"z": 0.267030072,
				"element": "H" 
			},
			{
				"x": 1.6271443483,
				"y": -1.7643697402,
				"z": -1.38210289,
				"element": "H" 
			},
			{
				"x": -1.9609865619,
				"y": -2.9198299544,
				"z": -0.162161026,
				"element": "H" 
			}
		],
		 "valence_orbital": [ 
			{
				"type": "occ",
				"energy": -0.34452,
				"method": "rhf"
			},
			{
				"type": "occ",
				"energy": -0.33397,
				"method": "rhf"
			},
			{
				"type": "occ",
				"energy": -0.29192,
				"method": "rhf"
			},
			{
				"type": "occ",
				"energy": -0.28424,
				"method": "rhf"
			},
			{
				"type": "occ",
				"energy": -0.25569,
				"method": "rhf"
			},
			{
				"type": "unocc",
				"energy": -0.02053,
				"method": "rhf"
			},
			{
				"type": "unocc",
				"energy": 0.02671,
				"method": "rhf"
			},
			{
				"type": "unocc",
				"energy": 0.06969,
				"method": "rhf"
			},
			{
				"type": "unocc",
				"energy": 0.09452,
				"method": "rhf"
			},
			{
				"type": "unocc",
				"energy": 0.1148,
				"method": "rhf"
			}
		],
		"cosmo_sigma_profile": { 
			"-0.025": 0.0,
			"-0.024": 0.0,
			"-0.023": 0.0,
			"-0.022": 0.0,
			"-0.021": 0.0,
			"-0.02": 0.0,
			"-0.019": 0.0,
			"-0.018": 0.0,
			"-0.017": 0.11155872182,
			"-0.016": 1.15197645142,
			"-0.015": 1.28829044793,
			"-0.014": 0.598756549843,
			"-0.013": 0.932882439681,
			"-0.012": 0.731393257015,
			"-0.011": 1.1617745259,
			"-0.01": 0.753901782709,
			"-0.009": 0.552666160085,
			"-0.008": 1.44021481971,
			"-0.007": 4.03879360659,
			"-0.006": 9.49678664397,
			"-0.005": 9.5858721565,
			"-0.004": 14.3729285977,
			"-0.003": 21.411543474,
			"-0.002": 19.714683533,
			"-0.001": 21.1661213068,
			"0.0": 17.1873278864,
			"0.001": 10.5223181992,
			"0.002": 3.5392099183,
			"0.003": 3.7061691791,
			"0.004": 1.77939514484,
			"0.005": 3.56543258939,
			"0.006": 3.16518352629,
			"0.007": 2.11868905429,
			"0.008": 3.13066861347,
			"0.009": 2.73706165273,
			"0.01": 3.26392950045,
			"0.011": 6.33586474955,
			"0.012": 10.8512179552,
			"0.013": 3.85493510092,
			"0.014": 0.0209997871123,
			"0.015": 0.0,
			"0.016": 0.0,
			"0.017": 0.0,
			"0.018": 0.0,
			"0.019": 0.0,
			"0.02": 0.0,
			"0.021": 0.0,
			"0.022": 0.0,
			"0.023": 0.0,
			"0.024": 0.0,
			"0.025": 0.0
		}
	}
}
