{
	 "smiles": "CC1=CC=C(C=O)C2=CC=CC=C12", 
	 "Tm": 305.15, 
	 "num_atms": 23, 
	 "gaussian": { 
		 "optdone": 1, 
		 "sigma_profile": "yes", 
		 "theory": "DFT", 
		 "functional": "B3LYP", 
		 "basiset": "6-31G**", 
		 "properties": { 
			 "R2extent": 3149.4767, 
			 "electric_dipole_moment_norm": 3.91158506107, 
			 "electric_quadrupole_moment_norm": 16.7069447937, 
			 "total_energy": -538.533956185, 
			 "HOMO_LUMO_gap": 0.15309, 
			 "cosmo_polarized_energy": -8.56, 
			 "cosmo_cavitation_energy": 26.32, 
			 "cosmo_dispersion_energy": -19.49, 
			 "cosmo_repulsion_energy": 1.49, 
			 "cosmo_total_nonelectrostatic_energy": 8.33, 
			 "SMD_solvation_energy": 5.3 
		},
		"coords": [
			{
				"x": -0.5255229174,
				"y": -1.4947554209,
				"z": -1.3931510598,
				"element": "C" 
			},
			{
				"x": 0.2328095479,
				"y": -0.9337539123,
				"z": -0.2155726537,
				"element": "C" 
			},
			{
				"x": 0.0723678844,
				"y": -1.4936825959,
				"z": 1.0394928026,
				"element": "C" 
			},
			{
				"x": 0.7634075417,
				"y": -0.9953517225,
				"z": 2.1556751106,
				"element": "C" 
			},
			{
				"x": 1.6332412887,
				"y": 0.0765426048,
				"z": 2.0448681298,
				"element": "C" 
			},
			{
				"x": 2.3130070165,
				"y": 0.5254872523,
				"z": 3.283166332,
				"element": "C" 
			},
			{
				"x": 2.1470612097,
				"y": 0.0074965877,
				"z": 4.375061147,
				"element": "O" 
			},
			{
				"x": 1.8370611364,
				"y": 0.6959208906,
				"z": 0.7639382008,
				"element": "C" 
			},
			{
				"x": 2.7113984212,
				"y": 1.7998217323,
				"z": 0.5621354081,
				"element": "C" 
			},
			{
				"x": 2.878857933,
				"y": 2.3652590098,
				"z": -0.6828885514,
				"element": "C" 
			},
			{
				"x": 2.1792454842,
				"y": 1.856669517,
				"z": -1.7983072516,
				"element": "C" 
			},
			{
				"x": 1.3241288355,
				"y": 0.7892236471,
				"z": -1.6426537183,
				"element": "C" 
			},
			{
				"x": 1.124339713,
				"y": 0.1782183559,
				"z": -0.3741355679,
				"element": "C" 
			},
			{
				"x": -1.1524935901,
				"y": -2.3345177993,
				"z": -1.0845558313,
				"element": "H" 
			},
			{
				"x": 0.1520443172,
				"y": -1.8529363497,
				"z": -2.1769191508,
				"element": "H" 
			},
			{
				"x": -1.1767301701,
				"y": -0.7411045057,
				"z": -1.8509947463,
				"element": "H" 
			},
			{
				"x": -0.6021231883,
				"y": -2.3364277016,
				"z": 1.1644665775,
				"element": "H" 
			},
			{
				"x": 0.6309155783,
				"y": -1.4414069519,
				"z": 3.1363694377,
				"element": "H" 
			},
			{
				"x": 3.0068441379,
				"y": 1.3831439753,
				"z": 3.1879633104,
				"element": "H" 
			},
			{
				"x": 3.2625911874,
				"y": 2.2129677006,
				"z": 1.3985402279,
				"element": "H" 
			},
			{
				"x": 3.5535364358,
				"y": 3.2074944702,
				"z": -0.8058535588,
				"element": "H" 
			},
			{
				"x": 2.3163183874,
				"y": 2.3076029332,
				"z": -2.7766648455,
				"element": "H" 
			},
			{
				"x": 0.7905938096,
				"y": 0.4047882832,
				"z": -2.5049797491,
				"element": "H" 
			}
		],
		 "valence_orbital": [ 
			{
				"type": "occ",
				"energy": -0.32896,
				"method": "rhf"
			},
			{
				"type": "occ",
				"energy": -0.28509,
				"method": "rhf"
			},
			{
				"type": "occ",
				"energy": -0.25337,
				"method": "rhf"
			},
			{
				"type": "occ",
				"energy": -0.24814,
				"method": "rhf"
			},
			{
				"type": "occ",
				"energy": -0.2239,
				"method": "rhf"
			},
			{
				"type": "unocc",
				"energy": -0.07081,
				"method": "rhf"
			},
			{
				"type": "unocc",
				"energy": -0.01803,
				"method": "rhf"
			},
			{
				"type": "unocc",
				"energy": -0.01657,
				"method": "rhf"
			},
			{
				"type": "unocc",
				"energy": 0.05362,
				"method": "rhf"
			},
			{
				"type": "unocc",
				"energy": 0.08614,
				"method": "rhf"
			}
		],
		"cosmo_sigma_profile": { 
			"-0.025": 0.0,
			"-0.024": 0.0,
			"-0.023": 0.0,
			"-0.022": 0.0,
			"-0.021": 0.0,
			"-0.02": 0.0,
			"-0.019": 0.0,
			"-0.018": 0.0,
			"-0.017": 0.0,
			"-0.016": 0.0,
			"-0.015": 0.0,
			"-0.014": 0.0,
			"-0.013": 0.0,
			"-0.012": 0.0,
			"-0.011": 0.0,
			"-0.01": 0.0,
			"-0.009": 0.555070819201,
			"-0.008": 2.3020141312,
			"-0.007": 2.84410920915,
			"-0.006": 10.2915342603,
			"-0.005": 20.043227753,
			"-0.004": 20.3151757906,
			"-0.003": 17.7707505059,
			"-0.002": 13.9569942533,
			"-0.001": 16.3095721731,
			"0.0": 15.7893174854,
			"0.001": 12.1949794596,
			"0.002": 17.2566373255,
			"0.003": 23.1850961554,
			"0.004": 13.8416930341,
			"0.005": 6.5070089766,
			"0.006": 1.82366309262,
			"0.007": 1.23290125572,
			"0.008": 1.55104655792,
			"0.009": 2.12610215766,
			"0.01": 2.4870597476,
			"0.011": 3.13473771307,
			"0.012": 4.13242470102,
			"0.013": 1.28494967645,
			"0.014": 0.116652483575,
			"0.015": 0.0,
			"0.016": 0.0,
			"0.017": 0.0,
			"0.018": 0.0,
			"0.019": 0.0,
			"0.02": 0.0,
			"0.021": 0.0,
			"0.022": 0.0,
			"0.023": 0.0,
			"0.024": 0.0,
			"0.025": 0.0
		}
	}
}
