{
	 "smiles": "NNC(=O)C1CCC1", 
	 "Tm": 365.15, 
	 "num_atms": 18, 
	 "gaussian": { 
		 "optdone": 1, 
		 "sigma_profile": "yes", 
		 "theory": "DFT", 
		 "functional": "B3LYP", 
		 "basiset": "6-31G**", 
		 "properties": { 
			 "R2extent": 2145.0022, 
			 "electric_dipole_moment_norm": 3.40473790328, 
			 "electric_quadrupole_moment_norm": 11.719553253, 
			 "total_energy": -381.237434045, 
			 "HOMO_LUMO_gap": 0.26067, 
			 "cosmo_polarized_energy": -12.86, 
			 "cosmo_cavitation_energy": 20.68, 
			 "cosmo_dispersion_energy": -15.31, 
			 "cosmo_repulsion_energy": 1.31, 
			 "cosmo_total_nonelectrostatic_energy": 6.68, 
			 "SMD_solvation_energy": 4.34 
		},
		"coords": [
			{
				"x": -0.9017496508,
				"y": -0.3596957309,
				"z": 0.4607943031,
				"element": "N" 
			},
			{
				"x": -0.2730973492,
				"y": -0.0012320193,
				"z": 1.6632690222,
				"element": "N" 
			},
			{
				"x": 1.0341269899,
				"y": -0.2274723027,
				"z": 2.0260483888,
				"element": "C" 
			},
			{
				"x": 1.4114394089,
				"y": 0.014084105,
				"z": 3.1663690754,
				"element": "O" 
			},
			{
				"x": 1.9462464527,
				"y": -0.8127437856,
				"z": 0.9621011865,
				"element": "C" 
			},
			{
				"x": 3.4648743037,
				"y": -0.7871771249,
				"z": 1.2617042326,
				"element": "C" 
			},
			{
				"x": 3.5719098644,
				"y": -2.239322678,
				"z": 0.7262064059,
				"element": "C" 
			},
			{
				"x": 2.0360803022,
				"y": -2.3763309432,
				"z": 0.8951195539,
				"element": "C" 
			},
			{
				"x": -0.5521589507,
				"y": 0.2112493176,
				"z": -0.3045448771,
				"element": "H" 
			},
			{
				"x": -0.7302321998,
				"y": -1.3380963489,
				"z": 0.2437226062,
				"element": "H" 
			},
			{
				"x": -0.8919798193,
				"y": 0.3011293439,
				"z": 2.404319211,
				"element": "H" 
			},
			{
				"x": 1.7170559313,
				"y": -0.4002940426,
				"z": -0.0259107384,
				"element": "H" 
			},
			{
				"x": 3.6235818578,
				"y": -0.7249026414,
				"z": 2.3407637832,
				"element": "H" 
			},
			{
				"x": 4.0578235675,
				"y": -0.0133659598,
				"z": 0.7666475692,
				"element": "H" 
			},
			{
				"x": 3.8670168316,
				"y": -2.2696343118,
				"z": -0.3274236832,
				"element": "H" 
			},
			{
				"x": 4.2005943257,
				"y": -2.9395526651,
				"z": 1.2829222592,
				"element": "H" 
			},
			{
				"x": 1.4749836843,
				"y": -2.8829410221,
				"z": 0.1032217863,
				"element": "H" 
			},
			{
				"x": 1.7721844498,
				"y": -2.8242011903,
				"z": 1.8578699152,
				"element": "H" 
			}
		],
		 "valence_orbital": [ 
			{
				"type": "occ",
				"energy": -0.3155,
				"method": "rhf"
			},
			{
				"type": "occ",
				"energy": -0.30973,
				"method": "rhf"
			},
			{
				"type": "occ",
				"energy": -0.28903,
				"method": "rhf"
			},
			{
				"type": "occ",
				"energy": -0.2538,
				"method": "rhf"
			},
			{
				"type": "occ",
				"energy": -0.24049,
				"method": "rhf"
			},
			{
				"type": "unocc",
				"energy": 0.02018,
				"method": "rhf"
			},
			{
				"type": "unocc",
				"energy": 0.05678,
				"method": "rhf"
			},
			{
				"type": "unocc",
				"energy": 0.09499,
				"method": "rhf"
			},
			{
				"type": "unocc",
				"energy": 0.10196,
				"method": "rhf"
			},
			{
				"type": "unocc",
				"energy": 0.11631,
				"method": "rhf"
			}
		],
		"cosmo_sigma_profile": { 
			"-0.025": 0.0,
			"-0.024": 0.0,
			"-0.023": 0.0,
			"-0.022": 0.0,
			"-0.021": 0.0,
			"-0.02": 0.0,
			"-0.019": 0.0,
			"-0.018": 0.0,
			"-0.017": 0.0,
			"-0.016": 0.0,
			"-0.015": 0.0,
			"-0.014": 0.0161727766988,
			"-0.013": 0.558702653878,
			"-0.012": 1.87916119331,
			"-0.011": 2.69578221195,
			"-0.01": 4.05647819492,
			"-0.009": 3.85223661342,
			"-0.008": 4.36254808819,
			"-0.007": 4.85239596326,
			"-0.006": 3.91588128256,
			"-0.005": 4.69869290816,
			"-0.004": 6.65462330068,
			"-0.003": 13.8285869411,
			"-0.002": 16.9854861372,
			"-0.001": 18.3659243766,
			"0.0": 15.6959088145,
			"0.001": 13.9811385284,
			"0.002": 8.30553129985,
			"0.003": 3.4194641484,
			"0.004": 3.41918361364,
			"0.005": 1.72073387302,
			"0.006": 2.64046044854,
			"0.007": 2.00552774614,
			"0.008": 1.94919111524,
			"0.009": 2.14340192447,
			"0.01": 1.7002428526,
			"0.011": 2.4610649644,
			"0.012": 2.73280295205,
			"0.013": 2.90259682365,
			"0.014": 6.6970509372,
			"0.015": 1.86726544706,
			"0.016": 0.395829177837,
			"0.017": 0.0,
			"0.018": 0.0,
			"0.019": 0.0,
			"0.02": 0.0,
			"0.021": 0.0,
			"0.022": 0.0,
			"0.023": 0.0,
			"0.024": 0.0,
			"0.025": 0.0
		}
	}
}
