{
	 "smiles": "CCCCCCC(C)CC", 
	 "Tm": 188.25, 
	 "num_atms": 32, 
	 "gaussian": { 
		 "optdone": 1, 
		 "sigma_profile": "yes", 
		 "theory": "DFT", 
		 "functional": "B3LYP", 
		 "basiset": "6-31G**", 
		 "properties": { 
			 "R2extent": 2658.5022, 
			 "electric_dipole_moment_norm": 0.0409266416897, 
			 "electric_quadrupole_moment_norm": 0.543525068419, 
			 "total_energy": -394.354623929, 
			 "HOMO_LUMO_gap": 0.36989, 
			 "cosmo_polarized_energy": -0.78, 
			 "cosmo_cavitation_energy": 31.3, 
			 "cosmo_dispersion_energy": -21.55, 
			 "cosmo_repulsion_energy": 1.79, 
			 "cosmo_total_nonelectrostatic_energy": 11.55, 
			 "SMD_solvation_energy": 4.77 
		},
		"coords": [
			{
				"x": 0.0442461083,
				"y": -2.7702109095,
				"z": 2.0150568968,
				"element": "C" 
			},
			{
				"x": 0.7219432168,
				"y": -1.4997828109,
				"z": 2.5427991055,
				"element": "C" 
			},
			{
				"x": 1.345665003,
				"y": -0.6101597706,
				"z": 1.4545104764,
				"element": "C" 
			},
			{
				"x": 0.3370908682,
				"y": 0.0261362175,
				"z": 0.487269096,
				"element": "C" 
			},
			{
				"x": 1.0019069144,
				"y": 0.9702994407,
				"z": -0.5275149554,
				"element": "C" 
			},
			{
				"x": 0.0406221304,
				"y": 1.7101658323,
				"z": -1.4861042236,
				"element": "C" 
			},
			{
				"x": -0.311165586,
				"y": 1.0297554246,
				"z": -2.8338560796,
				"element": "C" 
			},
			{
				"x": 0.9295816867,
				"y": 0.8626124944,
				"z": -3.7269344937,
				"element": "C" 
			},
			{
				"x": -1.0761002935,
				"y": -0.3048980915,
				"z": -2.7209121974,
				"element": "C" 
			},
			{
				"x": -2.4462124863,
				"y": -0.2093441271,
				"z": -2.0404175492,
				"element": "C" 
			},
			{
				"x": -0.3330091585,
				"y": -3.3865688578,
				"z": 2.8378648794,
				"element": "H" 
			},
			{
				"x": 0.7484146466,
				"y": -3.3818210838,
				"z": 1.4385752778,
				"element": "H" 
			},
			{
				"x": -0.8045720857,
				"y": -2.5406518834,
				"z": 1.3628546368,
				"element": "H" 
			},
			{
				"x": 1.5075043355,
				"y": -1.7861348588,
				"z": 3.2539119846,
				"element": "H" 
			},
			{
				"x": -0.0053248629,
				"y": -0.9097731889,
				"z": 3.1176277404,
				"element": "H" 
			},
			{
				"x": 2.0752504763,
				"y": -1.2003980385,
				"z": 0.8808492057,
				"element": "H" 
			},
			{
				"x": 1.9208227204,
				"y": 0.1904979087,
				"z": 1.9398350589,
				"element": "H" 
			},
			{
				"x": -0.218003501,
				"y": -0.7596304612,
				"z": -0.0363580376,
				"element": "H" 
			},
			{
				"x": -0.407914011,
				"y": 0.5912479555,
				"z": 1.0666325963,
				"element": "H" 
			},
			{
				"x": 1.7554610009,
				"y": 0.4142771279,
				"z": -1.1005660381,
				"element": "H" 
			},
			{
				"x": 1.5668537164,
				"y": 1.7223889214,
				"z": 0.0395454751,
				"element": "H" 
			},
			{
				"x": -0.8848854629,
				"y": 1.9489277452,
				"z": -0.9460401034,
				"element": "H" 
			},
			{
				"x": 0.4876220871,
				"y": 2.6807888953,
				"z": -1.7377589793,
				"element": "H" 
			},
			{
				"x": -0.9832008387,
				"y": 1.7328121069,
				"z": -3.3503847155,
				"element": "H" 
			},
			{
				"x": 1.6294552376,
				"y": 0.1248102569,
				"z": -3.318670148,
				"element": "H" 
			},
			{
				"x": 0.6465176262,
				"y": 0.520735025,
				"z": -4.7284808133,
				"element": "H" 
			},
			{
				"x": 1.4722385177,
				"y": 1.8080774168,
				"z": -3.837601144,
				"element": "H" 
			},
			{
				"x": -1.2170651976,
				"y": -0.6989511908,
				"z": -3.7364664741,
				"element": "H" 
			},
			{
				"x": -0.4522460225,
				"y": -1.0455968909,
				"z": -2.2033633758,
				"element": "H" 
			},
			{
				"x": -3.0876201771,
				"y": 0.5197652053,
				"z": -2.5493323306,
				"element": "H" 
			},
			{
				"x": -2.3663238329,
				"y": 0.0966452738,
				"z": -0.9928287042,
				"element": "H" 
			},
			{
				"x": -2.9631527761,
				"y": -1.1746210845,
				"z": -2.0613420669,
				"element": "H" 
			}
		],
		 "valence_orbital": [ 
			{
				"type": "occ",
				"energy": -0.31704,
				"method": "rhf"
			},
			{
				"type": "occ",
				"energy": -0.31585,
				"method": "rhf"
			},
			{
				"type": "occ",
				"energy": -0.30572,
				"method": "rhf"
			},
			{
				"type": "occ",
				"energy": -0.29775,
				"method": "rhf"
			},
			{
				"type": "occ",
				"energy": -0.29222,
				"method": "rhf"
			},
			{
				"type": "unocc",
				"energy": 0.07767,
				"method": "rhf"
			},
			{
				"type": "unocc",
				"energy": 0.0941,
				"method": "rhf"
			},
			{
				"type": "unocc",
				"energy": 0.10362,
				"method": "rhf"
			},
			{
				"type": "unocc",
				"energy": 0.11188,
				"method": "rhf"
			},
			{
				"type": "unocc",
				"energy": 0.12351,
				"method": "rhf"
			}
		],
		"cosmo_sigma_profile": { 
			"-0.025": 0.0,
			"-0.024": 0.0,
			"-0.023": 0.0,
			"-0.022": 0.0,
			"-0.021": 0.0,
			"-0.02": 0.0,
			"-0.019": 0.0,
			"-0.018": 0.0,
			"-0.017": 0.0,
			"-0.016": 0.0,
			"-0.015": 0.0,
			"-0.014": 0.0,
			"-0.013": 0.0,
			"-0.012": 0.0,
			"-0.011": 0.0,
			"-0.01": 0.0,
			"-0.009": 0.0,
			"-0.008": 0.0,
			"-0.007": 0.0,
			"-0.006": 0.0,
			"-0.005": 0.0,
			"-0.004": 0.0,
			"-0.003": 3.07699876368,
			"-0.002": 28.564642834,
			"-0.001": 58.2764375838,
			"0.0": 60.1359057855,
			"0.001": 55.7969296237,
			"0.002": 31.4241850893,
			"0.003": 1.66450687996,
			"0.004": 0.0,
			"0.005": 0.0,
			"0.006": 0.0,
			"0.007": 0.0,
			"0.008": 0.0,
			"0.009": 0.0,
			"0.01": 0.0,
			"0.011": 0.0,
			"0.012": 0.0,
			"0.013": 0.0,
			"0.014": 0.0,
			"0.015": 0.0,
			"0.016": 0.0,
			"0.017": 0.0,
			"0.018": 0.0,
			"0.019": 0.0,
			"0.02": 0.0,
			"0.021": 0.0,
			"0.022": 0.0,
			"0.023": 0.0,
			"0.024": 0.0,
			"0.025": 0.0
		}
	}
}
