{
	 "smiles": "NC1=NC(CCCC(O)=O)=CS1", 
	 "Tm": 363.15, 
	 "num_atms": 22, 
	 "gaussian": { 
		 "optdone": 1, 
		 "sigma_profile": "yes", 
		 "theory": "DFT", 
		 "functional": "B3LYP", 
		 "basiset": "6-31G**", 
		 "properties": { 
			 "R2extent": 2671.789, 
			 "electric_dipole_moment_norm": 1.3330671701, 
			 "electric_quadrupole_moment_norm": 18.8090150875, 
			 "total_energy": -930.927400833, 
			 "HOMO_LUMO_gap": 0.20401, 
			 "cosmo_polarized_energy": -16.21, 
			 "cosmo_cavitation_energy": 27.52, 
			 "cosmo_dispersion_energy": -19.71, 
			 "cosmo_repulsion_energy": 1.56, 
			 "cosmo_total_nonelectrostatic_energy": 9.37, 
			 "SMD_solvation_energy": 4.54 
		},
		"coords": [
			{
				"x": -1.4735332177,
				"y": -3.4589195358,
				"z": 0.320256569,
				"element": "N" 
			},
			{
				"x": -1.2341631636,
				"y": -2.2066563382,
				"z": 0.843351955,
				"element": "C" 
			},
			{
				"x": -1.0216608608,
				"y": -1.1494685947,
				"z": 0.1150510734,
				"element": "N" 
			},
			{
				"x": -0.8728529015,
				"y": -0.0178432364,
				"z": 0.9036774997,
				"element": "C" 
			},
			{
				"x": -0.6089181032,
				"y": 1.3008568387,
				"z": 0.2304483372,
				"element": "C" 
			},
			{
				"x": 0.7738496065,
				"y": 1.438876605,
				"z": -0.4450397363,
				"element": "C" 
			},
			{
				"x": 1.0564177484,
				"y": 0.4296624016,
				"z": -1.5686870434,
				"element": "C" 
			},
			{
				"x": 1.702725118,
				"y": -0.8517384323,
				"z": -1.0869252872,
				"element": "C" 
			},
			{
				"x": 1.5867811913,
				"y": -1.8492063697,
				"z": -2.0014242964,
				"element": "O" 
			},
			{
				"x": 2.3205948638,
				"y": -0.9977991924,
				"z": -0.0547080883,
				"element": "O" 
			},
			{
				"x": -0.9806920586,
				"y": -0.2201049686,
				"z": 2.2461270711,
				"element": "C" 
			},
			{
				"x": -1.2922354938,
				"y": -1.9094501848,
				"z": 2.5838997616,
				"element": "S" 
			},
			{
				"x": -1.1817814367,
				"y": -4.2472231568,
				"z": 0.8803986844,
				"element": "H" 
			},
			{
				"x": -1.2044511518,
				"y": -3.5269160318,
				"z": -0.6531358429,
				"element": "H" 
			},
			{
				"x": -0.7155050303,
				"y": 2.1028876943,
				"z": 0.9687918977,
				"element": "H" 
			},
			{
				"x": -1.3886317084,
				"y": 1.4617273079,
				"z": -0.5261232265,
				"element": "H" 
			},
			{
				"x": 0.8356296615,
				"y": 2.4517466066,
				"z": -0.8589739273,
				"element": "H" 
			},
			{
				"x": 1.5632576287,
				"y": 1.3492726682,
				"z": 0.3080178225,
				"element": "H" 
			},
			{
				"x": 0.155684454,
				"y": 0.1751638975,
				"z": -2.1333812171,
				"element": "H" 
			},
			{
				"x": 1.7644050422,
				"y": 0.8608629816,
				"z": -2.2899157012,
				"element": "H" 
			},
			{
				"x": 2.0908858891,
				"y": -2.5945697518,
				"z": -1.6342849011,
				"element": "H" 
			},
			{
				"x": -0.8882060771,
				"y": 0.4956387919,
				"z": 3.0496785959,
				"element": "H" 
			}
		],
		 "valence_orbital": [ 
			{
				"type": "occ",
				"energy": -0.30715,
				"method": "rhf"
			},
			{
				"type": "occ",
				"energy": -0.26995,
				"method": "rhf"
			},
			{
				"type": "occ",
				"energy": -0.26668,
				"method": "rhf"
			},
			{
				"type": "occ",
				"energy": -0.26539,
				"method": "rhf"
			},
			{
				"type": "occ",
				"energy": -0.20452,
				"method": "rhf"
			},
			{
				"type": "unocc",
				"energy": -0.00051,
				"method": "rhf"
			},
			{
				"type": "unocc",
				"energy": 0.01644,
				"method": "rhf"
			},
			{
				"type": "unocc",
				"energy": 0.02429,
				"method": "rhf"
			},
			{
				"type": "unocc",
				"energy": 0.06172,
				"method": "rhf"
			},
			{
				"type": "unocc",
				"energy": 0.07047,
				"method": "rhf"
			}
		],
		"cosmo_sigma_profile": { 
			"-0.025": 0.0,
			"-0.024": 0.0,
			"-0.023": 0.0,
			"-0.022": 0.0,
			"-0.021": 0.0,
			"-0.02": 0.0,
			"-0.019": 0.0,
			"-0.018": 0.169754505644,
			"-0.017": 0.892876409968,
			"-0.016": 1.12089275816,
			"-0.015": 0.670872656711,
			"-0.014": 2.15938944306,
			"-0.013": 3.2197500219,
			"-0.012": 2.27262221934,
			"-0.011": 3.48936024026,
			"-0.01": 3.7566158203,
			"-0.009": 2.82157398184,
			"-0.008": 3.05044101973,
			"-0.007": 4.84766160198,
			"-0.006": 6.75951046846,
			"-0.005": 7.68816528435,
			"-0.004": 12.8589406295,
			"-0.003": 17.3081912208,
			"-0.002": 19.3134025598,
			"-0.001": 15.7831939877,
			"0.0": 13.5095436237,
			"0.001": 9.34924581305,
			"0.002": 11.2326469311,
			"0.003": 11.244911217,
			"0.004": 12.6990802729,
			"0.005": 11.7291021992,
			"0.006": 6.89139123796,
			"0.007": 6.38826513089,
			"0.008": 5.82440435716,
			"0.009": 4.43819189903,
			"0.01": 4.98167675187,
			"0.011": 4.38451138707,
			"0.012": 5.67160882673,
			"0.013": 2.00389048631,
			"0.014": 0.0456319526433,
			"0.015": 0.0,
			"0.016": 0.0,
			"0.017": 0.0,
			"0.018": 0.0,
			"0.019": 0.0,
			"0.02": 0.0,
			"0.021": 0.0,
			"0.022": 0.0,
			"0.023": 0.0,
			"0.024": 0.0,
			"0.025": 0.0
		}
	}
}
