{
	 "smiles": "ClC(Cl)(Cl)C(Cl)(Cl)Cl", 
	 "Tm": 460.15, 
	 "num_atms": 8, 
	 "gaussian": { 
		 "optdone": 1, 
		 "sigma_profile": "yes", 
		 "theory": "DFT", 
		 "functional": "B3LYP", 
		 "basiset": "6-31G**", 
		 "properties": { 
			 "R2extent": 3185.8405, 
			 "electric_dipole_moment_norm": 0.0, 
			 "electric_quadrupole_moment_norm": 1.2852138927, 
			 "total_energy": -2837.31373887, 
			 "HOMO_LUMO_gap": 0.25749, 
			 "cosmo_polarized_energy": -1.6, 
			 "cosmo_cavitation_energy": 21.88, 
			 "cosmo_dispersion_energy": -16.76, 
			 "cosmo_repulsion_energy": 1.36, 
			 "cosmo_total_nonelectrostatic_energy": 6.49, 
			 "SMD_solvation_energy": 1.96 
		},
		"coords": [
			{
				"x": -2.6307510111,
				"y": -2.2930226003,
				"z": -1.61974196,
				"element": "Cl" 
			},
			{
				"x": -1.6125423506,
				"y": -0.9927599163,
				"z": -0.9235639236,
				"element": "C" 
			},
			{
				"x": -1.3025126722,
				"y": 0.2456404114,
				"z": -2.1815548473,
				"element": "Cl" 
			},
			{
				"x": -2.4870160751,
				"y": -0.2325582167,
				"z": 0.4438190554,
				"element": "Cl" 
			},
			{
				"x": -0.2299079001,
				"y": -1.6026898871,
				"z": -0.4107600625,
				"element": "C" 
			},
			{
				"x": 0.6445585451,
				"y": -2.3629022997,
				"z": -1.7781422113,
				"element": "Cl" 
			},
			{
				"x": -0.5399356963,
				"y": -2.841082005,
				"z": 0.8472391177,
				"element": "Cl" 
			},
			{
				"x": 0.7883071604,
				"y": -0.3024254863,
				"z": 0.2854048316,
				"element": "Cl" 
			}
		],
		 "valence_orbital": [ 
			{
				"type": "occ",
				"energy": -0.34905,
				"method": "rhf"
			},
			{
				"type": "occ",
				"energy": -0.33166,
				"method": "rhf"
			},
			{
				"type": "occ",
				"energy": -0.32097,
				"method": "rhf"
			},
			{
				"type": "occ",
				"energy": -0.32096,
				"method": "rhf"
			},
			{
				"type": "occ",
				"energy": -0.31516,
				"method": "rhf"
			},
			{
				"type": "unocc",
				"energy": -0.05767,
				"method": "rhf"
			},
			{
				"type": "unocc",
				"energy": -0.05623,
				"method": "rhf"
			},
			{
				"type": "unocc",
				"energy": -0.04716,
				"method": "rhf"
			},
			{
				"type": "unocc",
				"energy": -0.04714,
				"method": "rhf"
			},
			{
				"type": "unocc",
				"energy": 0.01838,
				"method": "rhf"
			}
		],
		"cosmo_sigma_profile": { 
			"-0.025": 0.0,
			"-0.024": 0.0,
			"-0.023": 0.0,
			"-0.022": 0.0,
			"-0.021": 0.0,
			"-0.02": 0.0,
			"-0.019": 0.0,
			"-0.018": 0.0,
			"-0.017": 0.0,
			"-0.016": 0.0,
			"-0.015": 0.0,
			"-0.014": 0.0,
			"-0.013": 0.0,
			"-0.012": 0.0,
			"-0.011": 0.0,
			"-0.01": 0.0,
			"-0.009": 0.0,
			"-0.008": 0.0,
			"-0.007": 0.0,
			"-0.006": 1.77760833961,
			"-0.005": 8.22588395998,
			"-0.004": 8.79734997891,
			"-0.003": 12.0730766424,
			"-0.002": 11.7456841144,
			"-0.001": 14.827443778,
			"0.0": 25.4534295745,
			"0.001": 48.3178347785,
			"0.002": 53.2441162657,
			"0.003": 3.44077720195,
			"0.004": 0.0,
			"0.005": 0.0,
			"0.006": 0.0,
			"0.007": 0.0,
			"0.008": 0.0,
			"0.009": 0.0,
			"0.01": 0.0,
			"0.011": 0.0,
			"0.012": 0.0,
			"0.013": 0.0,
			"0.014": 0.0,
			"0.015": 0.0,
			"0.016": 0.0,
			"0.017": 0.0,
			"0.018": 0.0,
			"0.019": 0.0,
			"0.02": 0.0,
			"0.021": 0.0,
			"0.022": 0.0,
			"0.023": 0.0,
			"0.024": 0.0,
			"0.025": 0.0
		}
	}
}
