{
	 "smiles": "OCC1=CC(=CC(=C1)C(F)(F)F)C(F)(F)F", 
	 "Tm": 327.15, 
	 "num_atms": 22, 
	 "gaussian": { 
		 "optdone": 1, 
		 "sigma_profile": "yes", 
		 "theory": "DFT", 
		 "functional": "B3LYP", 
		 "basiset": "6-31G**", 
		 "properties": { 
			 "R2extent": 5353.9413, 
			 "electric_dipole_moment_norm": 2.23575234317, 
			 "electric_quadrupole_moment_norm": 13.3941080808, 
			 "total_energy": -1020.84441809, 
			 "HOMO_LUMO_gap": 0.22603, 
			 "cosmo_polarized_energy": -8.44, 
			 "cosmo_cavitation_energy": 29.59, 
			 "cosmo_dispersion_energy": -20.25, 
			 "cosmo_repulsion_energy": 1.48, 
			 "cosmo_total_nonelectrostatic_energy": 10.82, 
			 "SMD_solvation_energy": 7.41 
		},
		"coords": [
			{
				"x": 0.1048846028,
				"y": -4.2620838769,
				"z": 2.4012254748,
				"element": "O" 
			},
			{
				"x": 0.3226352366,
				"y": -3.6768304634,
				"z": 1.1297804297,
				"element": "C" 
			},
			{
				"x": -0.4239701651,
				"y": -2.3698793764,
				"z": 0.9226533623,
				"element": "C" 
			},
			{
				"x": -0.7293503992,
				"y": -1.9200848994,
				"z": -0.3654707462,
				"element": "C" 
			},
			{
				"x": -1.3777587595,
				"y": -0.6984604027,
				"z": -0.5534242341,
				"element": "C" 
			},
			{
				"x": -1.7389308569,
				"y": 0.0869866767,
				"z": 0.5421393371,
				"element": "C" 
			},
			{
				"x": -1.4409822412,
				"y": -0.3642762924,
				"z": 1.8272240917,
				"element": "C" 
			},
			{
				"x": -0.7864684565,
				"y": -1.5831804828,
				"z": 2.0187723249,
				"element": "C" 
			},
			{
				"x": -1.8690010044,
				"y": 0.4398116217,
				"z": 3.0278397766,
				"element": "C" 
			},
			{
				"x": -3.0350000993,
				"y": -0.0205950357,
				"z": 3.5369621128,
				"element": "F" 
			},
			{
				"x": -0.9560009925,
				"y": 0.3768779642,
				"z": 4.0207264407,
				"element": "F" 
			},
			{
				"x": -2.0549860834,
				"y": 1.7415797293,
				"z": 2.7235251721,
				"element": "F" 
			},
			{
				"x": -1.7476335484,
				"y": -0.2570283815,
				"z": -1.9457907049,
				"element": "C" 
			},
			{
				"x": -2.9500299845,
				"y": -0.7528559376,
				"z": -2.3176950542,
				"element": "F" 
			},
			{
				"x": -1.8265236056,
				"y": 1.0867740974,
				"z": -2.0424478791,
				"element": "F" 
			},
			{
				"x": -0.8480132924,
				"y": -0.6821354728,
				"z": -2.8599517829,
				"element": "F" 
			},
			{
				"x": -0.827979901,
				"y": -4.5086972976,
				"z": 2.4601985211,
				"element": "H" 
			},
			{
				"x": 0.0800523875,
				"y": -4.3718350756,
				"z": 0.3111397061,
				"element": "H" 
			},
			{
				"x": 1.4023540866,
				"y": -3.4931881621,
				"z": 1.0765882071,
				"element": "H" 
			},
			{
				"x": -0.4556321814,
				"y": -2.5178343859,
				"z": -1.2300719028,
				"element": "H" 
			},
			{
				"x": -2.234240488,
				"y": 1.0389273347,
				"z": 0.3953327092,
				"element": "H" 
			},
			{
				"x": -0.5470242542,
				"y": -1.9285918812,
				"z": 3.0185446382,
				"element": "H" 
			}
		],
		 "valence_orbital": [ 
			{
				"type": "occ",
				"energy": -0.36734,
				"method": "rhf"
			},
			{
				"type": "occ",
				"energy": -0.34879,
				"method": "rhf"
			},
			{
				"type": "occ",
				"energy": -0.29925,
				"method": "rhf"
			},
			{
				"type": "occ",
				"energy": -0.28608,
				"method": "rhf"
			},
			{
				"type": "occ",
				"energy": -0.27487,
				"method": "rhf"
			},
			{
				"type": "unocc",
				"energy": -0.04884,
				"method": "rhf"
			},
			{
				"type": "unocc",
				"energy": -0.03906,
				"method": "rhf"
			},
			{
				"type": "unocc",
				"energy": 0.0643,
				"method": "rhf"
			},
			{
				"type": "unocc",
				"energy": 0.08608,
				"method": "rhf"
			},
			{
				"type": "unocc",
				"energy": 0.10055,
				"method": "rhf"
			}
		],
		"cosmo_sigma_profile": { 
			"-0.025": 0.0,
			"-0.024": 0.0,
			"-0.023": 0.0,
			"-0.022": 0.0,
			"-0.021": 0.0,
			"-0.02": 0.0,
			"-0.019": 0.0,
			"-0.018": 0.0,
			"-0.017": 0.00591268880848,
			"-0.016": 0.700345889304,
			"-0.015": 0.951526640819,
			"-0.014": 1.40379116003,
			"-0.013": 0.404790532111,
			"-0.012": 1.21469720425,
			"-0.011": 0.685376499848,
			"-0.01": 0.810025943369,
			"-0.009": 1.31275558265,
			"-0.008": 2.10110935649,
			"-0.007": 5.19529315237,
			"-0.006": 8.63290664854,
			"-0.005": 13.1502212307,
			"-0.004": 10.6503652701,
			"-0.003": 10.5660487916,
			"-0.002": 12.4509845801,
			"-0.001": 15.1277390194,
			"0.0": 19.4788648112,
			"0.001": 28.5375604195,
			"0.002": 43.4071795641,
			"0.003": 46.5439595281,
			"0.004": 1.66433876775,
			"0.005": 0.574573668775,
			"0.006": 1.44333826283,
			"0.007": 1.47001938339,
			"0.008": 1.06940329151,
			"0.009": 0.681065241118,
			"0.01": 1.13663525604,
			"0.011": 1.05468013276,
			"0.012": 1.59091154994,
			"0.013": 1.7869292156,
			"0.014": 0.762848447891,
			"0.015": 0.0,
			"0.016": 0.0,
			"0.017": 0.0,
			"0.018": 0.0,
			"0.019": 0.0,
			"0.02": 0.0,
			"0.021": 0.0,
			"0.022": 0.0,
			"0.023": 0.0,
			"0.024": 0.0,
			"0.025": 0.0
		}
	}
}
