{
	 "smiles": "ONC(=O)CCCNC(=O)CCCCC(=O)NCCCC(=O)NO", 
	 "Tm": 436.15, 
	 "num_atms": 50, 
	 "gaussian": { 
		 "optdone": 1, 
		 "sigma_profile": "yes", 
		 "theory": "DFT", 
		 "functional": "B3LYP", 
		 "basiset": "6-31G**", 
		 "properties": { 
			 "R2extent": 11065.4383, 
			 "electric_dipole_moment_norm": 2.95462791058, 
			 "electric_quadrupole_moment_norm": 45.3778619298, 
			 "total_energy": -1219.46353887, 
			 "HOMO_LUMO_gap": 0.22531, 
			 "cosmo_polarized_energy": -40.93, 
			 "cosmo_cavitation_energy": 53.22, 
			 "cosmo_dispersion_energy": -32.91, 
			 "cosmo_repulsion_energy": 2.54, 
			 "cosmo_total_nonelectrostatic_energy": 22.86, 
			 "SMD_solvation_energy": 10.33 
		},
		"coords": [
			{
				"x": -2.2051979359,
				"y": -2.8659184892,
				"z": -1.3017083455,
				"element": "O" 
			},
			{
				"x": -2.9139689858,
				"y": -2.9497385058,
				"z": -2.519725976,
				"element": "N" 
			},
			{
				"x": -2.2053597968,
				"y": -2.75458715,
				"z": -3.700428759,
				"element": "C" 
			},
			{
				"x": -2.6570392864,
				"y": -3.1977616857,
				"z": -4.7439912092,
				"element": "O" 
			},
			{
				"x": -0.9426000514,
				"y": -1.9156070693,
				"z": -3.6127783841,
				"element": "C" 
			},
			{
				"x": -1.2183306713,
				"y": -0.4333496342,
				"z": -3.2981804752,
				"element": "C" 
			},
			{
				"x": 0.0482620114,
				"y": 0.4270836106,
				"z": -3.428186132,
				"element": "C" 
			},
			{
				"x": -0.2071401801,
				"y": 1.8275321812,
				"z": -3.1362310349,
				"element": "N" 
			},
			{
				"x": 0.3601132564,
				"y": 2.660635243,
				"z": -2.2020214068,
				"element": "C" 
			},
			{
				"x": 0.0103702318,
				"y": 3.8330651081,
				"z": -2.1341199542,
				"element": "O" 
			},
			{
				"x": 1.4413703957,
				"y": 2.0792576146,
				"z": -1.2873990149,
				"element": "C" 
			},
			{
				"x": 1.7490027213,
				"y": 3.004762146,
				"z": -0.1039630393,
				"element": "C" 
			},
			{
				"x": 3.0315540538,
				"y": 2.6564975073,
				"z": 0.6666690221,
				"element": "C" 
			},
			{
				"x": 3.108152691,
				"y": 1.2225941606,
				"z": 1.2189103264,
				"element": "C" 
			},
			{
				"x": 1.9558478496,
				"y": 0.9034119255,
				"z": 2.1688797567,
				"element": "C" 
			},
			{
				"x": 1.5567668385,
				"y": 1.699926613,
				"z": 3.0128729593,
				"element": "O" 
			},
			{
				"x": 1.3993996531,
				"y": -0.3370218276,
				"z": 2.020404492,
				"element": "N" 
			},
			{
				"x": 0.285578828,
				"y": -0.7911566825,
				"z": 2.8435326929,
				"element": "C" 
			},
			{
				"x": -1.0513264205,
				"y": -0.1704066332,
				"z": 2.4056511006,
				"element": "C" 
			},
			{
				"x": -2.2761911225,
				"y": -0.7935240641,
				"z": 3.1140533994,
				"element": "C" 
			},
			{
				"x": -2.4845927337,
				"y": -2.2303666005,
				"z": 2.6850973655,
				"element": "C" 
			},
			{
				"x": -1.9792294378,
				"y": -3.1965104326,
				"z": 3.2300970234,
				"element": "O" 
			},
			{
				"x": -3.3381299763,
				"y": -2.4590802304,
				"z": 1.5965059036,
				"element": "N" 
			},
			{
				"x": -3.4828173482,
				"y": -1.3884456395,
				"z": 0.6706518585,
				"element": "O" 
			},
			{
				"x": -2.6414804271,
				"y": -2.1339787072,
				"z": -0.8239947198,
				"element": "H" 
			},
			{
				"x": -3.5176550604,
				"y": -3.7669948525,
				"z": -2.5489032326,
				"element": "H" 
			},
			{
				"x": -0.4569552761,
				"y": -2.0126502408,
				"z": -4.5875531245,
				"element": "H" 
			},
			{
				"x": -0.2810598278,
				"y": -2.3366035308,
				"z": -2.8478850473,
				"element": "H" 
			},
			{
				"x": -1.6187917169,
				"y": -0.3272483785,
				"z": -2.284540756,
				"element": "H" 
			},
			{
				"x": -1.9829571146,
				"y": -0.049849659,
				"z": -3.9856362467,
				"element": "H" 
			},
			{
				"x": 0.4557782063,
				"y": 0.3224655428,
				"z": -4.4443193229,
				"element": "H" 
			},
			{
				"x": 0.8197548186,
				"y": 0.0601936867,
				"z": -2.7477390962,
				"element": "H" 
			},
			{
				"x": -0.8791208903,
				"y": 2.3093363735,
				"z": -3.7211577289,
				"element": "H" 
			},
			{
				"x": 2.3441676457,
				"y": 1.919798404,
				"z": -1.8962395209,
				"element": "H" 
			},
			{
				"x": 1.1360738965,
				"y": 1.0880664206,
				"z": -0.9319276992,
				"element": "H" 
			},
			{
				"x": 1.8202744134,
				"y": 4.0290596087,
				"z": -0.4795938927,
				"element": "H" 
			},
			{
				"x": 0.8988209346,
				"y": 2.9989941793,
				"z": 0.5866617794,
				"element": "H" 
			},
			{
				"x": 3.1202450115,
				"y": 3.3467705885,
				"z": 1.5112891494,
				"element": "H" 
			},
			{
				"x": 3.906667413,
				"y": 2.8220137634,
				"z": 0.0247021556,
				"element": "H" 
			},
			{
				"x": 3.153515402,
				"y": 0.4892729263,
				"z": 0.4042254093,
				"element": "H" 
			},
			{
				"x": 4.0391543788,
				"y": 1.1098991198,
				"z": 1.7889635362,
				"element": "H" 
			},
			{
				"x": 1.7571998601,
				"y": -0.9521696366,
				"z": 1.3064285404,
				"element": "H" 
			},
			{
				"x": 0.245765507,
				"y": -1.8824289865,
				"z": 2.7907581025,
				"element": "H" 
			},
			{
				"x": 0.4907572771,
				"y": -0.5167323535,
				"z": 3.8831768874,
				"element": "H" 
			},
			{
				"x": -1.1655893591,
				"y": -0.273743308,
				"z": 1.3206789844,
				"element": "H" 
			},
			{
				"x": -1.018890154,
				"y": 0.9008451433,
				"z": 2.6227621261,
				"element": "H" 
			},
			{
				"x": -2.121754641,
				"y": -0.8056787036,
				"z": 4.1969852036,
				"element": "H" 
			},
			{
				"x": -3.1647525011,
				"y": -0.1959092222,
				"z": 2.8960545322,
				"element": "H" 
			},
			{
				"x": -3.1200684093,
				"y": -3.3184899457,
				"z": 1.0949875809,
				"element": "H" 
			},
			{
				"x": -4.4339939709,
				"y": -1.2031296975,
				"z": 0.6604242309,
				"element": "H" 
			}
		],
		 "valence_orbital": [ 
			{
				"type": "occ",
				"energy": -0.26097,
				"method": "rhf"
			},
			{
				"type": "occ",
				"energy": -0.25507,
				"method": "rhf"
			},
			{
				"type": "occ",
				"energy": -0.24862,
				"method": "rhf"
			},
			{
				"type": "occ",
				"energy": -0.24672,
				"method": "rhf"
			},
			{
				"type": "occ",
				"energy": -0.24502,
				"method": "rhf"
			},
			{
				"type": "unocc",
				"energy": -0.01971,
				"method": "rhf"
			},
			{
				"type": "unocc",
				"energy": 8e-05,
				"method": "rhf"
			},
			{
				"type": "unocc",
				"energy": 0.0208,
				"method": "rhf"
			},
			{
				"type": "unocc",
				"energy": 0.02568,
				"method": "rhf"
			},
			{
				"type": "unocc",
				"energy": 0.02995,
				"method": "rhf"
			}
		],
		"cosmo_sigma_profile": { 
			"-0.025": 0.0,
			"-0.024": 0.0,
			"-0.023": 0.0,
			"-0.022": 0.0,
			"-0.021": 0.0,
			"-0.02": 0.0,
			"-0.019": 0.42873174373,
			"-0.018": 0.985497451885,
			"-0.017": 1.44729308838,
			"-0.016": 0.728306588885,
			"-0.015": 0.805323420526,
			"-0.014": 2.25309668983,
			"-0.013": 3.3617694752,
			"-0.012": 4.9302502358,
			"-0.011": 5.85939984634,
			"-0.01": 4.38414742349,
			"-0.009": 4.33819169967,
			"-0.008": 5.87346480841,
			"-0.007": 8.55988584241,
			"-0.006": 13.7656981873,
			"-0.005": 30.0563811453,
			"-0.004": 36.8946498986,
			"-0.003": 42.0520486718,
			"-0.002": 40.9925860178,
			"-0.001": 31.5841526704,
			"0.0": 24.8894009373,
			"0.001": 17.9025557964,
			"0.002": 12.5224214531,
			"0.003": 14.5059574244,
			"0.004": 9.37299159802,
			"0.005": 10.7667285252,
			"0.006": 7.98237460667,
			"0.007": 7.80796438946,
			"0.008": 7.28092167169,
			"0.009": 5.75540994603,
			"0.01": 6.69343066917,
			"0.011": 8.44802222138,
			"0.012": 9.63346840579,
			"0.013": 13.7627892161,
			"0.014": 11.9520606357,
			"0.015": 4.76479805126,
			"0.016": 0.0136551727303,
			"0.017": 0.0,
			"0.018": 0.0,
			"0.019": 0.0,
			"0.02": 0.0,
			"0.021": 0.0,
			"0.022": 0.0,
			"0.023": 0.0,
			"0.024": 0.0,
			"0.025": 0.0
		}
	}
}
