{
	 "smiles": "CS(=O)C1=CC=CC=C1", 
	 "Tm": 303.65, 
	 "num_atms": 17, 
	 "gaussian": { 
		 "optdone": 1, 
		 "sigma_profile": "yes", 
		 "theory": "DFT", 
		 "functional": "B3LYP", 
		 "basiset": "6-31G**", 
		 "properties": { 
			 "R2extent": 2540.4362, 
			 "electric_dipole_moment_norm": 3.89974034648, 
			 "electric_quadrupole_moment_norm": 15.5896950769, 
			 "total_energy": -744.925134172, 
			 "HOMO_LUMO_gap": 0.20031, 
			 "cosmo_polarized_energy": -11.5, 
			 "cosmo_cavitation_energy": 22.08, 
			 "cosmo_dispersion_energy": -16.7, 
			 "cosmo_repulsion_energy": 1.31, 
			 "cosmo_total_nonelectrostatic_energy": 6.69, 
			 "SMD_solvation_energy": 3.71 
		},
		"coords": [
			{
				"x": -3.2584601359,
				"y": -0.5124772427,
				"z": -0.6603750874,
				"element": "C" 
			},
			{
				"x": -2.0482833266,
				"y": -1.6652567338,
				"z": -1.4267704678,
				"element": "S" 
			},
			{
				"x": -2.7037648466,
				"y": -3.0282161453,
				"z": -1.4654810096,
				"element": "O" 
			},
			{
				"x": -0.8706307857,
				"y": -1.6751740522,
				"z": -0.0318628892,
				"element": "C" 
			},
			{
				"x": -0.0001728284,
				"y": -0.6030275347,
				"z": 0.1752838761,
				"element": "C" 
			},
			{
				"x": 0.912647512,
				"y": -0.6637515782,
				"z": 1.2291281637,
				"element": "C" 
			},
			{
				"x": 0.9594824845,
				"y": -1.7936857201,
				"z": 2.0509147003,
				"element": "C" 
			},
			{
				"x": 0.0961877657,
				"y": -2.8668263631,
				"z": 1.8192352525,
				"element": "C" 
			},
			{
				"x": -0.8233148897,
				"y": -2.8133726846,
				"z": 0.7695450925,
				"element": "C" 
			},
			{
				"x": -2.7805133702,
				"y": 0.4515902645,
				"z": -0.4705613338,
				"element": "H" 
			},
			{
				"x": -4.0789133781,
				"y": -0.393208458,
				"z": -1.3713681117,
				"element": "H" 
			},
			{
				"x": -3.6258917465,
				"y": -0.9547481271,
				"z": 0.2680928755,
				"element": "H" 
			},
			{
				"x": -0.0274921722,
				"y": 0.2674171313,
				"z": -0.4760903501,
				"element": "H" 
			},
			{
				"x": 1.5919175488,
				"y": 0.1656180281,
				"z": 1.4038603807,
				"element": "H" 
			},
			{
				"x": 1.6762669546,
				"y": -1.8397911727,
				"z": 2.8656241317,
				"element": "H" 
			},
			{
				"x": 0.1415472693,
				"y": -3.7476340284,
				"z": 2.4533810342,
				"element": "H" 
			},
			{
				"x": -1.5000120548,
				"y": -3.6340555829,
				"z": 0.5491437423,
				"element": "H" 
			}
		],
		 "valence_orbital": [ 
			{
				"type": "occ",
				"energy": -0.35066,
				"method": "rhf"
			},
			{
				"type": "occ",
				"energy": -0.26732,
				"method": "rhf"
			},
			{
				"type": "occ",
				"energy": -0.26551,
				"method": "rhf"
			},
			{
				"type": "occ",
				"energy": -0.26193,
				"method": "rhf"
			},
			{
				"type": "occ",
				"energy": -0.22411,
				"method": "rhf"
			},
			{
				"type": "unocc",
				"energy": -0.0238,
				"method": "rhf"
			},
			{
				"type": "unocc",
				"energy": -0.01405,
				"method": "rhf"
			},
			{
				"type": "unocc",
				"energy": 0.04168,
				"method": "rhf"
			},
			{
				"type": "unocc",
				"energy": 0.05099,
				"method": "rhf"
			},
			{
				"type": "unocc",
				"energy": 0.08242,
				"method": "rhf"
			}
		],
		"cosmo_sigma_profile": { 
			"-0.025": 0.0,
			"-0.024": 0.0,
			"-0.023": 0.0,
			"-0.022": 0.0,
			"-0.021": 0.0,
			"-0.02": 0.0,
			"-0.019": 0.0,
			"-0.018": 0.0,
			"-0.017": 0.0,
			"-0.016": 0.0,
			"-0.015": 0.0,
			"-0.014": 0.0,
			"-0.013": 0.0,
			"-0.012": 0.0,
			"-0.011": 0.0,
			"-0.01": 0.0,
			"-0.009": 0.43914795387,
			"-0.008": 1.9717958973,
			"-0.007": 8.37447368553,
			"-0.006": 14.0401309856,
			"-0.005": 15.260238848,
			"-0.004": 16.7610992221,
			"-0.003": 13.6810702587,
			"-0.002": 14.5000744303,
			"-0.001": 11.1221303373,
			"0.0": 9.65390890238,
			"0.001": 10.8044344216,
			"0.002": 11.1273907881,
			"0.003": 11.964912262,
			"0.004": 12.1414418069,
			"0.005": 5.49440702874,
			"0.006": 1.06507428854,
			"0.007": 1.65072918644,
			"0.008": 0.996622473628,
			"0.009": 0.916200320881,
			"0.01": 1.39230215926,
			"0.011": 1.30968162231,
			"0.012": 1.32132746686,
			"0.013": 2.28173685395,
			"0.014": 3.89303509207,
			"0.015": 4.14772782812,
			"0.016": 1.02472192647,
			"0.017": 0.0,
			"0.018": 0.0,
			"0.019": 0.0,
			"0.02": 0.0,
			"0.021": 0.0,
			"0.022": 0.0,
			"0.023": 0.0,
			"0.024": 0.0,
			"0.025": 0.0
		}
	}
}
