{
	 "smiles": "COC1=CC=C(F)C(CBr)=C1Cl", 
	 "Tm": 322.15, 
	 "num_atms": 19, 
	 "gaussian": { 
		 "optdone": 1, 
		 "sigma_profile": "yes", 
		 "theory": "DFT", 
		 "functional": "B3LYP", 
		 "basiset": "6-31G**", 
		 "properties": { 
			 "R2extent": 3844.1914, 
			 "electric_dipole_moment_norm": 3.99334138035, 
			 "electric_quadrupole_moment_norm": 5.66594199317, 
			 "total_energy": -3515.70784115, 
			 "HOMO_LUMO_gap": 0.19706, 
			 "cosmo_polarized_energy": -7.84, 
			 "cosmo_cavitation_energy": 27.45, 
			 "cosmo_dispersion_energy": -19.93, 
			 "cosmo_repulsion_energy": 1.58, 
			 "cosmo_total_nonelectrostatic_energy": 9.09, 
			 "SMD_solvation_energy": 4.48 
		},
		"coords": [
			{
				"x": 3.1890353835,
				"y": -0.2868083188,
				"z": -0.7061833362,
				"element": "C" 
			},
			{
				"x": 1.985125588,
				"y": -0.7024024645,
				"z": -1.3587575973,
				"element": "O" 
			},
			{
				"x": 0.91947085,
				"y": -0.9194873309,
				"z": -0.5262855005,
				"element": "C" 
			},
			{
				"x": 0.6871798809,
				"y": -2.2010712676,
				"z": -0.0197261231,
				"element": "C" 
			},
			{
				"x": -0.4192602048,
				"y": -2.4615881265,
				"z": 0.7845232432,
				"element": "C" 
			},
			{
				"x": -1.2888394199,
				"y": -1.4204355218,
				"z": 1.0711490697,
				"element": "C" 
			},
			{
				"x": -2.3603180563,
				"y": -1.6670454388,
				"z": 1.8532945088,
				"element": "F" 
			},
			{
				"x": -1.110444165,
				"y": -0.1168441929,
				"z": 0.5917018809,
				"element": "C" 
			},
			{
				"x": -2.0953793513,
				"y": 0.9413026283,
				"z": 0.9535885105,
				"element": "C" 
			},
			{
				"x": -3.5689485304,
				"y": 1.0862617801,
				"z": -0.3932245545,
				"element": "Br" 
			},
			{
				"x": 0.0172230393,
				"y": 0.1112644495,
				"z": -0.2166391002,
				"element": "C" 
			},
			{
				"x": 0.3099860915,
				"y": 1.7037632046,
				"z": -0.8784111998,
				"element": "Cl" 
			},
			{
				"x": 3.0553229319,
				"y": 0.6734890966,
				"z": -0.1951291938,
				"element": "H" 
			},
			{
				"x": 3.5257621778,
				"y": -1.039553814,
				"z": 0.0180235124,
				"element": "H" 
			},
			{
				"x": 3.9394535355,
				"y": -0.1769651293,
				"z": -1.4908068146,
				"element": "H" 
			},
			{
				"x": 1.3839837219,
				"y": -2.9903108319,
				"z": -0.2817801944,
				"element": "H" 
			},
			{
				"x": -0.6180267278,
				"y": -3.4496114566,
				"z": 1.1835493369,
				"element": "H" 
			},
			{
				"x": -1.652049505,
				"y": 1.9323930828,
				"z": 0.9824579997,
				"element": "H" 
			},
			{
				"x": -2.6029772398,
				"y": 0.7116496517,
				"z": 1.8859555523,
				"element": "H" 
			}
		],
		 "valence_orbital": [ 
			{
				"type": "occ",
				"energy": -0.28817,
				"method": "rhf"
			},
			{
				"type": "occ",
				"energy": -0.27715,
				"method": "rhf"
			},
			{
				"type": "occ",
				"energy": -0.26989,
				"method": "rhf"
			},
			{
				"type": "occ",
				"energy": -0.26059,
				"method": "rhf"
			},
			{
				"type": "occ",
				"energy": -0.24816,
				"method": "rhf"
			},
			{
				"type": "unocc",
				"energy": -0.0511,
				"method": "rhf"
			},
			{
				"type": "unocc",
				"energy": -0.01739,
				"method": "rhf"
			},
			{
				"type": "unocc",
				"energy": 0.01559,
				"method": "rhf"
			},
			{
				"type": "unocc",
				"energy": 0.02342,
				"method": "rhf"
			},
			{
				"type": "unocc",
				"energy": 0.09593,
				"method": "rhf"
			}
		],
		"cosmo_sigma_profile": { 
			"-0.025": 0.0,
			"-0.024": 0.0,
			"-0.023": 0.0,
			"-0.022": 0.0,
			"-0.021": 0.0,
			"-0.02": 0.0,
			"-0.019": 0.0,
			"-0.018": 0.0,
			"-0.017": 0.0,
			"-0.016": 0.0,
			"-0.015": 0.0,
			"-0.014": 0.0,
			"-0.013": 0.0,
			"-0.012": 0.0,
			"-0.011": 0.0,
			"-0.01": 0.0,
			"-0.009": 0.280215010079,
			"-0.008": 4.30308341092,
			"-0.007": 6.98748193773,
			"-0.006": 9.20997815298,
			"-0.005": 13.5215749797,
			"-0.004": 16.8312806544,
			"-0.003": 18.3932257655,
			"-0.002": 14.7030197164,
			"-0.001": 15.8266289909,
			"0.0": 20.0748115336,
			"0.001": 20.8987959929,
			"0.002": 18.4359428609,
			"0.003": 17.7700879935,
			"0.004": 16.3060370862,
			"0.005": 11.2394723137,
			"0.006": 11.8795188124,
			"0.007": 2.41627370612,
			"0.008": 1.49897322483,
			"0.009": 1.1650152443,
			"0.01": 1.56669404055,
			"0.011": 1.51583857703,
			"0.012": 0.0621456192415,
			"0.013": 0.0,
			"0.014": 0.0,
			"0.015": 0.0,
			"0.016": 0.0,
			"0.017": 0.0,
			"0.018": 0.0,
			"0.019": 0.0,
			"0.02": 0.0,
			"0.021": 0.0,
			"0.022": 0.0,
			"0.023": 0.0,
			"0.024": 0.0,
			"0.025": 0.0
		}
	}
}
