{
	 "smiles": "CC(C)C1=C(C=NC=N1)C(O)=O", 
	 "Tm": 408.15, 
	 "num_atms": 22, 
	 "gaussian": { 
		 "optdone": 1, 
		 "sigma_profile": "yes", 
		 "theory": "DFT", 
		 "functional": "B3LYP", 
		 "basiset": "6-31G**", 
		 "properties": { 
			 "R2extent": 2351.9034, 
			 "electric_dipole_moment_norm": 1.40463886106, 
			 "electric_quadrupole_moment_norm": 9.12426197947, 
			 "total_energy": -570.847341546, 
			 "HOMO_LUMO_gap": 0.18924, 
			 "cosmo_polarized_energy": -9.88, 
			 "cosmo_cavitation_energy": 25.61, 
			 "cosmo_dispersion_energy": -18.58, 
			 "cosmo_repulsion_energy": 1.48, 
			 "cosmo_total_nonelectrostatic_energy": 8.51, 
			 "SMD_solvation_energy": 3.46 
		},
		"coords": [
			{
				"x": 1.6133067563,
				"y": 0.4525183282,
				"z": 0.5063805045,
				"element": "C" 
			},
			{
				"x": 0.2378252372,
				"y": 0.9176363253,
				"z": -0.02122107,
				"element": "C" 
			},
			{
				"x": 0.3881259899,
				"y": 1.7753474626,
				"z": -1.2867208374,
				"element": "C" 
			},
			{
				"x": -0.6379855344,
				"y": -0.2998391344,
				"z": -0.2623412694,
				"element": "C" 
			},
			{
				"x": -1.5166952969,
				"y": -0.8633848746,
				"z": 0.695265185,
				"element": "C" 
			},
			{
				"x": -2.2644961836,
				"y": -1.9793144785,
				"z": 0.290481091,
				"element": "C" 
			},
			{
				"x": -2.1606590954,
				"y": -2.5340975325,
				"z": -0.9183003816,
				"element": "N" 
			},
			{
				"x": -1.2818566542,
				"y": -1.9419868845,
				"z": -1.7346955705,
				"element": "C" 
			},
			{
				"x": -0.5364010196,
				"y": -0.8687402244,
				"z": -1.476019613,
				"element": "N" 
			},
			{
				"x": -1.6643642265,
				"y": -0.3456057691,
				"z": 2.0825378473,
				"element": "C" 
			},
			{
				"x": -2.7443126119,
				"y": -0.872324678,
				"z": 2.7127963838,
				"element": "O" 
			},
			{
				"x": -0.9267031104,
				"y": 0.443676847,
				"z": 2.6400838677,
				"element": "O" 
			},
			{
				"x": 2.2552692498,
				"y": 1.3209293546,
				"z": 0.6852436631,
				"element": "H" 
			},
			{
				"x": 1.5103576529,
				"y": -0.0905509021,
				"z": 1.4493513854,
				"element": "H" 
			},
			{
				"x": 2.1089898152,
				"y": -0.19535494,
				"z": -0.2242546278,
				"element": "H" 
			},
			{
				"x": -0.2247534747,
				"y": 1.515437704,
				"z": 0.7662852375,
				"element": "H" 
			},
			{
				"x": -0.5841833159,
				"y": 2.1132885683,
				"z": -1.659550479,
				"element": "H" 
			},
			{
				"x": 0.98884018,
				"y": 2.6614946315,
				"z": -1.057830689,
				"element": "H" 
			},
			{
				"x": 0.8768082371,
				"y": 1.2182122628,
				"z": -2.0888082258,
				"element": "H" 
			},
			{
				"x": -2.966518103,
				"y": -2.438299264,
				"z": 0.9807705899,
				"element": "H" 
			},
			{
				"x": -1.166253348,
				"y": -2.3832784057,
				"z": -2.7234478706,
				"element": "H" 
			},
			{
				"x": -2.7343411436,
				"y": -0.4993643964,
				"z": 3.6097948786,
				"element": "H" 
			}
		],
		 "valence_orbital": [ 
			{
				"type": "occ",
				"energy": -0.31756,
				"method": "rhf"
			},
			{
				"type": "occ",
				"energy": -0.31489,
				"method": "rhf"
			},
			{
				"type": "occ",
				"energy": -0.29233,
				"method": "rhf"
			},
			{
				"type": "occ",
				"energy": -0.2823,
				"method": "rhf"
			},
			{
				"type": "occ",
				"energy": -0.25778,
				"method": "rhf"
			},
			{
				"type": "unocc",
				"energy": -0.06854,
				"method": "rhf"
			},
			{
				"type": "unocc",
				"energy": -0.04592,
				"method": "rhf"
			},
			{
				"type": "unocc",
				"energy": 0.02891,
				"method": "rhf"
			},
			{
				"type": "unocc",
				"energy": 0.06826,
				"method": "rhf"
			},
			{
				"type": "unocc",
				"energy": 0.10606,
				"method": "rhf"
			}
		],
		"cosmo_sigma_profile": { 
			"-0.025": 0.0,
			"-0.024": 0.0,
			"-0.023": 0.0,
			"-0.022": 0.0,
			"-0.021": 0.0,
			"-0.02": 0.0,
			"-0.019": 0.306320018393,
			"-0.018": 1.03917359584,
			"-0.017": 0.943763467011,
			"-0.016": 0.655350556955,
			"-0.015": 0.453768331231,
			"-0.014": 0.703063315311,
			"-0.013": 0.850537810166,
			"-0.012": 1.03342657315,
			"-0.011": 0.398824519058,
			"-0.01": 0.415131545974,
			"-0.009": 0.596496135023,
			"-0.008": 2.837908136,
			"-0.007": 4.30784944334,
			"-0.006": 3.33565150768,
			"-0.005": 4.32002792046,
			"-0.004": 9.52850196243,
			"-0.003": 21.6782718655,
			"-0.002": 29.1405269717,
			"-0.001": 23.2979653138,
			"0.0": 21.0364448959,
			"0.001": 18.0517315971,
			"0.002": 9.01073164476,
			"0.003": 6.64985772187,
			"0.004": 6.22651012492,
			"0.005": 4.91980074189,
			"0.006": 6.41628364934,
			"0.007": 4.37368719307,
			"0.008": 4.02263075863,
			"0.009": 3.22244128288,
			"0.01": 3.67015636878,
			"0.011": 5.17047147584,
			"0.012": 1.92646952793,
			"0.013": 0.725178683069,
			"0.014": 0.982818815197,
			"0.015": 0.547160318791,
			"0.016": 0.0706057640467,
			"0.017": 0.0,
			"0.018": 0.0,
			"0.019": 0.0,
			"0.02": 0.0,
			"0.021": 0.0,
			"0.022": 0.0,
			"0.023": 0.0,
			"0.024": 0.0,
			"0.025": 0.0
		}
	}
}
