{
	 "smiles": "C1=CC=C2C=NN=CC2=C1", 
	 "Tm": 363.95, 
	 "num_atms": 16, 
	 "gaussian": { 
		 "optdone": 1, 
		 "sigma_profile": "yes", 
		 "theory": "DFT", 
		 "functional": "B3LYP", 
		 "basiset": "6-31G**", 
		 "properties": { 
			 "R2extent": 1675.0637, 
			 "electric_dipole_moment_norm": 5.10427981796, 
			 "electric_quadrupole_moment_norm": 7.33709292295, 
			 "total_energy": -417.933864379, 
			 "HOMO_LUMO_gap": 0.16729, 
			 "cosmo_polarized_energy": -12.25, 
			 "cosmo_cavitation_energy": 20.13, 
			 "cosmo_dispersion_energy": -15.25, 
			 "cosmo_repulsion_energy": 1.2, 
			 "cosmo_total_nonelectrostatic_energy": 6.08, 
			 "SMD_solvation_energy": 1.73 
		},
		"coords": [
			{
				"x": 3.6358757018,
				"y": 0.3222884599,
				"z": 1.1009601629,
				"element": "C" 
			},
			{
				"x": 3.2250047608,
				"y": -0.9466972224,
				"z": 1.5802992638,
				"element": "C" 
			},
			{
				"x": 1.9913602303,
				"y": -1.4609572731,
				"z": 1.2400875132,
				"element": "C" 
			},
			{
				"x": 1.1284773632,
				"y": -0.7124794281,
				"z": 0.4038410093,
				"element": "C" 
			},
			{
				"x": -0.1641368595,
				"y": -1.1432314408,
				"z": -0.0109509155,
				"element": "C" 
			},
			{
				"x": -0.9704928886,
				"y": -0.4546775478,
				"z": -0.786478315,
				"element": "N" 
			},
			{
				"x": -0.5739645172,
				"y": 0.7700665825,
				"z": -1.249051313,
				"element": "N" 
			},
			{
				"x": 0.6063363781,
				"y": 1.2364530315,
				"z": -0.9097598649,
				"element": "C" 
			},
			{
				"x": 1.5394396556,
				"y": 0.5568044622,
				"z": -0.075588137,
				"element": "C" 
			},
			{
				"x": 2.8097807318,
				"y": 1.0667996912,
				"z": 0.2852659637,
				"element": "C" 
			},
			{
				"x": 4.6119468859,
				"y": 0.7060561972,
				"z": 1.3825970542,
				"element": "H" 
			},
			{
				"x": 3.8930467621,
				"y": -1.5142643938,
				"z": 2.2213139662,
				"element": "H" 
			},
			{
				"x": 1.6714952328,
				"y": -2.4332384831,
				"z": 1.6048309335,
				"element": "H" 
			},
			{
				"x": -0.5436101616,
				"y": -2.1094247259,
				"z": 0.3206039438,
				"element": "H" 
			},
			{
				"x": 0.8571837458,
				"y": 2.217030269,
				"z": -1.3134924024,
				"element": "H" 
			},
			{
				"x": 3.1198569787,
				"y": 2.0401718213,
				"z": -0.0849788626,
				"element": "H" 
			}
		],
		 "valence_orbital": [ 
			{
				"type": "occ",
				"energy": -0.31541,
				"method": "rhf"
			},
			{
				"type": "occ",
				"energy": -0.29666,
				"method": "rhf"
			},
			{
				"type": "occ",
				"energy": -0.28139,
				"method": "rhf"
			},
			{
				"type": "occ",
				"energy": -0.25253,
				"method": "rhf"
			},
			{
				"type": "occ",
				"energy": -0.23229,
				"method": "rhf"
			},
			{
				"type": "unocc",
				"energy": -0.065,
				"method": "rhf"
			},
			{
				"type": "unocc",
				"energy": -0.04581,
				"method": "rhf"
			},
			{
				"type": "unocc",
				"energy": 0.01222,
				"method": "rhf"
			},
			{
				"type": "unocc",
				"energy": 0.06678,
				"method": "rhf"
			},
			{
				"type": "unocc",
				"energy": 0.08381,
				"method": "rhf"
			}
		],
		"cosmo_sigma_profile": { 
			"-0.025": 0.0,
			"-0.024": 0.0,
			"-0.023": 0.0,
			"-0.022": 0.0,
			"-0.021": 0.0,
			"-0.02": 0.0,
			"-0.019": 0.0,
			"-0.018": 0.0,
			"-0.017": 0.0,
			"-0.016": 0.0,
			"-0.015": 0.0,
			"-0.014": 0.0,
			"-0.013": 0.0,
			"-0.012": 0.0,
			"-0.011": 0.0,
			"-0.01": 0.0,
			"-0.009": 0.0,
			"-0.008": 5.68865192452,
			"-0.007": 13.3388584879,
			"-0.006": 13.4407861065,
			"-0.005": 11.1843384464,
			"-0.004": 8.81147425439,
			"-0.003": 8.19257771177,
			"-0.002": 8.90466089104,
			"-0.001": 13.772024534,
			"0.0": 15.604773243,
			"0.001": 13.6402793503,
			"0.002": 12.9557044733,
			"0.003": 8.32859254588,
			"0.004": 2.68713578632,
			"0.005": 1.58479531057,
			"0.006": 2.09698073359,
			"0.007": 2.04969481064,
			"0.008": 1.67085129687,
			"0.009": 1.88254335334,
			"0.01": 2.05584599361,
			"0.011": 2.13166394559,
			"0.012": 2.13416909415,
			"0.013": 1.92751281026,
			"0.014": 3.02436234607,
			"0.015": 2.58068730334,
			"0.016": 2.38299626334,
			"0.017": 0.654391273265,
			"0.018": 0.0,
			"0.019": 0.0,
			"0.02": 0.0,
			"0.021": 0.0,
			"0.022": 0.0,
			"0.023": 0.0,
			"0.024": 0.0,
			"0.025": 0.0
		}
	}
}
