{
	 "smiles": "ClC1=CC=C(C=C1)S(=O)(=O)OC1=CC=C(CC#N)C=C1", 
	 "Tm": 369.15, 
	 "num_atms": 30, 
	 "gaussian": { 
		 "optdone": 1, 
		 "sigma_profile": "yes", 
		 "theory": "DFT", 
		 "functional": "B3LYP", 
		 "basiset": "6-31G**", 
		 "properties": { 
			 "R2extent": 8301.5768, 
			 "electric_dipole_moment_norm": 0.901549715767, 
			 "electric_quadrupole_moment_norm": 39.9835445348, 
			 "total_energy": -1678.22652488, 
			 "HOMO_LUMO_gap": 0.1978, 
			 "cosmo_polarized_energy": -18.19, 
			 "cosmo_cavitation_energy": 39.77, 
			 "cosmo_dispersion_energy": -27.49, 
			 "cosmo_repulsion_energy": 2.09, 
			 "cosmo_total_nonelectrostatic_energy": 14.36, 
			 "SMD_solvation_energy": 6.73 
		},
		"coords": [
			{
				"x": -4.1330541541,
				"y": -2.3698745127,
				"z": 1.5866347406,
				"element": "Cl" 
			},
			{
				"x": -3.0775570203,
				"y": -0.9753461696,
				"z": 1.6524757388,
				"element": "C" 
			},
			{
				"x": -3.5325617368,
				"y": 0.2480686621,
				"z": 1.153056047,
				"element": "C" 
			},
			{
				"x": -2.693669911,
				"y": 1.358071292,
				"z": 1.2052002476,
				"element": "C" 
			},
			{
				"x": -1.4169592703,
				"y": 1.2225569164,
				"z": 1.7565512807,
				"element": "C" 
			},
			{
				"x": -0.9641347928,
				"y": 0.0018794822,
				"z": 2.2609234014,
				"element": "C" 
			},
			{
				"x": -1.803745344,
				"y": -1.109377272,
				"z": 2.2080586379,
				"element": "C" 
			},
			{
				"x": -0.3421282548,
				"y": 2.6457242878,
				"z": 1.8069039651,
				"element": "S" 
			},
			{
				"x": -1.1448786342,
				"y": 3.8575019612,
				"z": 1.8007439748,
				"element": "O" 
			},
			{
				"x": 0.7090401347,
				"y": 2.4046189387,
				"z": 2.7899457215,
				"element": "O" 
			},
			{
				"x": 0.3389005656,
				"y": 2.6372071797,
				"z": 0.2792410562,
				"element": "O" 
			},
			{
				"x": 1.362208624,
				"y": 1.7325940143,
				"z": -0.0174147362,
				"element": "C" 
			},
			{
				"x": 1.0819899264,
				"y": 0.6893264568,
				"z": -0.8976110371,
				"element": "C" 
			},
			{
				"x": 2.1040205807,
				"y": -0.1816955245,
				"z": -1.2748239153,
				"element": "C" 
			},
			{
				"x": 3.3977299356,
				"y": -0.0186332509,
				"z": -0.7693740201,
				"element": "C" 
			},
			{
				"x": 4.5486560564,
				"y": -0.9246217367,
				"z": -1.1933127803,
				"element": "C" 
			},
			{
				"x": 4.1332637271,
				"y": -2.2575019439,
				"z": -1.6387675448,
				"element": "C" 
			},
			{
				"x": 3.7956431426,
				"y": -3.3073832557,
				"z": -1.9997726117,
				"element": "N" 
			},
			{
				"x": 3.6550359929,
				"y": 1.0336442636,
				"z": 0.1184905774,
				"element": "C" 
			},
			{
				"x": 2.6464658729,
				"y": 1.917499292,
				"z": 0.4953334334,
				"element": "C" 
			},
			{
				"x": -4.5299381721,
				"y": 0.3278312828,
				"z": 0.7360384575,
				"element": "H" 
			},
			{
				"x": -3.0272414824,
				"y": 2.3223628028,
				"z": 0.8380119171,
				"element": "H" 
			},
			{
				"x": 0.0235779123,
				"y": -0.0710486795,
				"z": 2.701572488,
				"element": "H" 
			},
			{
				"x": -1.4773120811,
				"y": -2.0674080115,
				"z": 2.5960797107,
				"element": "H" 
			},
			{
				"x": 0.0757052476,
				"y": 0.5740032758,
				"z": -1.2853676733,
				"element": "H" 
			},
			{
				"x": 1.8874382989,
				"y": -0.9977161321,
				"z": -1.9574845084,
				"element": "H" 
			},
			{
				"x": 5.2562539569,
				"y": -1.0463265216,
				"z": -0.3652735176,
				"element": "H" 
			},
			{
				"x": 5.1138188057,
				"y": -0.4604861416,
				"z": -2.0132900517,
				"element": "H" 
			},
			{
				"x": 4.6559362262,
				"y": 1.1701949631,
				"z": 0.5196425418,
				"element": "H" 
			},
			{
				"x": 2.8393958471,
				"y": 2.7318340811,
				"z": 1.1828884587,
				"element": "H" 
			}
		],
		 "valence_orbital": [ 
			{
				"type": "occ",
				"energy": -0.32085,
				"method": "rhf"
			},
			{
				"type": "occ",
				"energy": -0.29412,
				"method": "rhf"
			},
			{
				"type": "occ",
				"energy": -0.279,
				"method": "rhf"
			},
			{
				"type": "occ",
				"energy": -0.27422,
				"method": "rhf"
			},
			{
				"type": "occ",
				"energy": -0.262,
				"method": "rhf"
			},
			{
				"type": "unocc",
				"energy": -0.0642,
				"method": "rhf"
			},
			{
				"type": "unocc",
				"energy": -0.04374,
				"method": "rhf"
			},
			{
				"type": "unocc",
				"energy": -0.03042,
				"method": "rhf"
			},
			{
				"type": "unocc",
				"energy": -0.02793,
				"method": "rhf"
			},
			{
				"type": "unocc",
				"energy": 0.00849,
				"method": "rhf"
			}
		],
		"cosmo_sigma_profile": { 
			"-0.025": 0.0,
			"-0.024": 0.0,
			"-0.023": 0.0,
			"-0.022": 0.0,
			"-0.021": 0.0,
			"-0.02": 0.0,
			"-0.019": 0.0,
			"-0.018": 0.0,
			"-0.017": 0.0,
			"-0.016": 0.0,
			"-0.015": 0.0,
			"-0.014": 0.0,
			"-0.013": 0.0,
			"-0.012": 0.0,
			"-0.011": 0.0,
			"-0.01": 0.305603472281,
			"-0.009": 8.30433011969,
			"-0.008": 14.382091667,
			"-0.007": 17.3452026857,
			"-0.006": 17.3687661303,
			"-0.005": 17.2431826293,
			"-0.004": 16.0133580539,
			"-0.003": 16.4355128393,
			"-0.002": 19.4325675881,
			"-0.001": 23.7419572752,
			"0.0": 30.0121262537,
			"0.001": 27.2017225874,
			"0.002": 20.0756319246,
			"0.003": 22.3577962168,
			"0.004": 14.2754495745,
			"0.005": 6.52666913888,
			"0.006": 6.65893317357,
			"0.007": 7.97823576552,
			"0.008": 9.17646813247,
			"0.009": 12.5438184066,
			"0.01": 8.98764580751,
			"0.011": 2.58152407887,
			"0.012": 2.6460017286,
			"0.013": 1.64691170871,
			"0.014": 0.052191867798,
			"0.015": 0.0,
			"0.016": 0.0,
			"0.017": 0.0,
			"0.018": 0.0,
			"0.019": 0.0,
			"0.02": 0.0,
			"0.021": 0.0,
			"0.022": 0.0,
			"0.023": 0.0,
			"0.024": 0.0,
			"0.025": 0.0
		}
	}
}
