{
	 "smiles": "CNC1=C(C(O)=O)C2=C(OC(CC3OC4(CCC3C)OC(C(C)C(=O)C3=CC=CN3)C(C)CC4C)=N2)C=C1", 
	 "Tm": 455.15, 
	 "num_atms": 75, 
	 "gaussian": { 
		 "optdone": 1, 
		 "sigma_profile": "yes", 
		 "theory": "DFT", 
		 "functional": "B3LYP", 
		 "basiset": "6-31G**", 
		 "properties": { 
			 "R2extent": 23604.1405, 
			 "electric_dipole_moment_norm": 5.2809621718, 
			 "electric_quadrupole_moment_norm": 23.4389198452, 
			 "total_energy": -1743.00693966, 
			 "HOMO_LUMO_gap": 0.14893, 
			 "cosmo_polarized_energy": -32.85, 
			 "cosmo_cavitation_energy": 72.01, 
			 "cosmo_dispersion_energy": -46.52, 
			 "cosmo_repulsion_energy": 3.5, 
			 "cosmo_total_nonelectrostatic_energy": 29.0, 
			 "SMD_solvation_energy": 10.63 
		},
		"coords": [
			{
				"x": 5.7490177446,
				"y": -2.5237865471,
				"z": 4.6192957673,
				"element": "C" 
			},
			{
				"x": 5.7418739364,
				"y": -1.7634502856,
				"z": 3.390867268,
				"element": "N" 
			},
			{
				"x": 4.9157289765,
				"y": -2.0222904371,
				"z": 2.3264503673,
				"element": "C" 
			},
			{
				"x": 4.8974364987,
				"y": -1.1885675583,
				"z": 1.1583836213,
				"element": "C" 
			},
			{
				"x": 5.7427765875,
				"y": 0.0034394351,
				"z": 0.9480477384,
				"element": "C" 
			},
			{
				"x": 6.32673584,
				"y": 0.4934734243,
				"z": 2.0993686903,
				"element": "O" 
			},
			{
				"x": 5.9507028905,
				"y": 0.5625828616,
				"z": -0.1069244038,
				"element": "O" 
			},
			{
				"x": 4.0172854374,
				"y": -1.5699911342,
				"z": 0.1164676745,
				"element": "C" 
			},
			{
				"x": 3.2182421138,
				"y": -2.7087371015,
				"z": 0.2345958061,
				"element": "C" 
			},
			{
				"x": 2.4647087392,
				"y": -2.8206819244,
				"z": -0.9112870711,
				"element": "O" 
			},
			{
				"x": 2.8402924259,
				"y": -1.7263581982,
				"z": -1.6559319294,
				"element": "C" 
			},
			{
				"x": 2.2251709315,
				"y": -1.5595516896,
				"z": -3.0049832782,
				"element": "C" 
			},
			{
				"x": 0.6986200585,
				"y": -1.3435721561,
				"z": -3.036174745,
				"element": "C" 
			},
			{
				"x": 0.4867078115,
				"y": -0.1569348871,
				"z": -2.273942484,
				"element": "O" 
			},
			{
				"x": -0.8150188027,
				"y": 0.3424716884,
				"z": -1.9876465174,
				"element": "C" 
			},
			{
				"x": -1.8392687332,
				"y": -0.7941321228,
				"z": -1.7499736131,
				"element": "C" 
			},
			{
				"x": -1.6340135988,
				"y": -2.0429129452,
				"z": -2.6158394689,
				"element": "C" 
			},
			{
				"x": -0.1748587499,
				"y": -2.5146848058,
				"z": -2.5580062168,
				"element": "C" 
			},
			{
				"x": 0.0415747406,
				"y": -3.7867050006,
				"z": -3.3860906391,
				"element": "C" 
			},
			{
				"x": -0.5535996784,
				"y": 1.003712187,
				"z": -0.7441840603,
				"element": "O" 
			},
			{
				"x": -1.5971118295,
				"y": 1.8071669877,
				"z": -0.1950809721,
				"element": "C" 
			},
			{
				"x": -1.1698124033,
				"y": 2.0937310279,
				"z": 1.2774608932,
				"element": "C" 
			},
			{
				"x": 0.2712309727,
				"y": 2.5905405328,
				"z": 1.4645000568,
				"element": "C" 
			},
			{
				"x": -2.1792522998,
				"y": 3.0354932498,
				"z": 1.9321927904,
				"element": "C" 
			},
			{
				"x": -2.017465832,
				"y": 4.2577287827,
				"z": 1.9480894955,
				"element": "O" 
			},
			{
				"x": -3.3841438223,
				"y": 2.4654269417,
				"z": 2.5304893698,
				"element": "C" 
			},
			{
				"x": -3.87165297,
				"y": 1.1710633426,
				"z": 2.7142681049,
				"element": "C" 
			},
			{
				"x": -5.1199302795,
				"y": 1.274339598,
				"z": 3.3676038024,
				"element": "C" 
			},
			{
				"x": -5.3672683504,
				"y": 2.6265897924,
				"z": 3.5708698033,
				"element": "C" 
			},
			{
				"x": -4.3195314252,
				"y": 3.3268275609,
				"z": 3.0635257029,
				"element": "N" 
			},
			{
				"x": -1.9280273605,
				"y": 2.9884610927,
				"z": -1.1298918612,
				"element": "C" 
			},
			{
				"x": -0.8265885031,
				"y": 4.051445372,
				"z": -1.2634774278,
				"element": "C" 
			},
			{
				"x": -2.3008442129,
				"y": 2.3613080076,
				"z": -2.4878442942,
				"element": "C" 
			},
			{
				"x": -1.2137657822,
				"y": 1.416888356,
				"z": -3.0401999452,
				"element": "C" 
			},
			{
				"x": -1.6407082382,
				"y": 0.8757455312,
				"z": -4.4118682114,
				"element": "C" 
			},
			{
				"x": 3.7405432996,
				"y": -0.9699172349,
				"z": -1.1108922962,
				"element": "N" 
			},
			{
				"x": 3.2250766203,
				"y": -3.5335207235,
				"z": 1.3461392564,
				"element": "C" 
			},
			{
				"x": 4.0783455311,
				"y": -3.1743057168,
				"z": 2.3806914382,
				"element": "C" 
			},
			{
				"x": 6.4788836116,
				"y": -2.0752336547,
				"z": 5.296468208,
				"element": "H" 
			},
			{
				"x": 4.7727673704,
				"y": -2.5265249053,
				"z": 5.1267954801,
				"element": "H" 
			},
			{
				"x": 6.0463614412,
				"y": -3.56780661,
				"z": 4.4543965802,
				"element": "H" 
			},
			{
				"x": 6.2232518421,
				"y": -0.8783208601,
				"z": 3.3771589562,
				"element": "H" 
			},
			{
				"x": 6.8526541915,
				"y": 1.2536124379,
				"z": 1.8007927259,
				"element": "H" 
			},
			{
				"x": 2.7029037405,
				"y": -0.6830495431,
				"z": -3.447171656,
				"element": "H" 
			},
			{
				"x": 2.4727813436,
				"y": -2.4260073744,
				"z": -3.6290426639,
				"element": "H" 
			},
			{
				"x": 0.4454953648,
				"y": -1.1653781848,
				"z": -4.0950259967,
				"element": "H" 
			},
			{
				"x": -1.7234631381,
				"y": -1.0824018237,
				"z": -0.6990702288,
				"element": "H" 
			},
			{
				"x": -2.8592988597,
				"y": -0.4142204326,
				"z": -1.8681347729,
				"element": "H" 
			},
			{
				"x": -1.9110986969,
				"y": -1.851556558,
				"z": -3.6603687417,
				"element": "H" 
			},
			{
				"x": -2.3010075421,
				"y": -2.8383474056,
				"z": -2.2615530712,
				"element": "H" 
			},
			{
				"x": 0.0813428652,
				"y": -2.7243714347,
				"z": -1.5128371312,
				"element": "H" 
			},
			{
				"x": -0.6793187398,
				"y": -4.5580106574,
				"z": -3.0948376542,
				"element": "H" 
			},
			{
				"x": 1.0421343718,
				"y": -4.2039937442,
				"z": -3.2411894854,
				"element": "H" 
			},
			{
				"x": -0.0970568092,
				"y": -3.5963516347,
				"z": -4.4577337872,
				"element": "H" 
			},
			{
				"x": -2.519906299,
				"y": 1.2083937516,
				"z": -0.1226413116,
				"element": "H" 
			},
			{
				"x": -1.2479001757,
				"y": 1.1191578738,
				"z": 1.7741152928,
				"element": "H" 
			},
			{
				"x": 0.5532474998,
				"y": 2.5089122083,
				"z": 2.5193664865,
				"element": "H" 
			},
			{
				"x": 0.9549454009,
				"y": 1.9781264922,
				"z": 0.8746435802,
				"element": "H" 
			},
			{
				"x": 0.3821544619,
				"y": 3.6349147959,
				"z": 1.1753574116,
				"element": "H" 
			},
			{
				"x": -3.3751994613,
				"y": 0.2594512857,
				"z": 2.4132673973,
				"element": "H" 
			},
			{
				"x": -5.7693229269,
				"y": 0.4624412769,
				"z": 3.6629170255,
				"element": "H" 
			},
			{
				"x": -6.2058444445,
				"y": 3.1231438774,
				"z": 4.0372797987,
				"element": "H" 
			},
			{
				"x": -4.1758541878,
				"y": 4.3268232571,
				"z": 3.0516731802,
				"element": "H" 
			},
			{
				"x": -2.8254113861,
				"y": 3.4796251298,
				"z": -0.7313070331,
				"element": "H" 
			},
			{
				"x": -0.763207192,
				"y": 4.6555059798,
				"z": -0.356452025,
				"element": "H" 
			},
			{
				"x": -1.0536035084,
				"y": 4.7253463054,
				"z": -2.0975880932,
				"element": "H" 
			},
			{
				"x": 0.1519142733,
				"y": 3.6010467997,
				"z": -1.450434515,
				"element": "H" 
			},
			{
				"x": -3.2468961265,
				"y": 1.8091653176,
				"z": -2.3881904169,
				"element": "H" 
			},
			{
				"x": -2.4894807485,
				"y": 3.1519206155,
				"z": -3.224704348,
				"element": "H" 
			},
			{
				"x": -0.2930090054,
				"y": 1.995758961,
				"z": -3.1771965176,
				"element": "H" 
			},
			{
				"x": -1.8432787548,
				"y": 1.7129723876,
				"z": -5.0888513424,
				"element": "H" 
			},
			{
				"x": -0.8689126594,
				"y": 0.2608604836,
				"z": -4.8812423839,
				"element": "H" 
			},
			{
				"x": -2.5600056627,
				"y": 0.2827421932,
				"z": -4.3502268938,
				"element": "H" 
			},
			{
				"x": 2.5950608028,
				"y": -4.4139372534,
				"z": 1.4146182792,
				"element": "H" 
			},
			{
				"x": 4.106969459,
				"y": -3.7972446562,
				"z": 3.2652814559,
				"element": "H" 
			}
		],
		 "valence_orbital": [ 
			{
				"type": "occ",
				"energy": -0.2444,
				"method": "rhf"
			},
			{
				"type": "occ",
				"energy": -0.23354,
				"method": "rhf"
			},
			{
				"type": "occ",
				"energy": -0.23118,
				"method": "rhf"
			},
			{
				"type": "occ",
				"energy": -0.22407,
				"method": "rhf"
			},
			{
				"type": "occ",
				"energy": -0.1913,
				"method": "rhf"
			},
			{
				"type": "unocc",
				"energy": -0.04237,
				"method": "rhf"
			},
			{
				"type": "unocc",
				"energy": -0.04069,
				"method": "rhf"
			},
			{
				"type": "unocc",
				"energy": 0.01348,
				"method": "rhf"
			},
			{
				"type": "unocc",
				"energy": 0.05043,
				"method": "rhf"
			},
			{
				"type": "unocc",
				"energy": 0.05444,
				"method": "rhf"
			}
		],
		"cosmo_sigma_profile": { 
			"-0.025": 0.0,
			"-0.024": 0.0,
			"-0.023": 0.0,
			"-0.022": 0.0,
			"-0.021": 0.0,
			"-0.02": 0.0,
			"-0.019": 0.0,
			"-0.018": 0.251437153002,
			"-0.017": 1.13792671533,
			"-0.016": 0.32413418717,
			"-0.015": 1.57898674214,
			"-0.014": 1.39639556132,
			"-0.013": 2.25089672668,
			"-0.012": 1.57264594069,
			"-0.011": 1.3916325539,
			"-0.01": 1.51398516721,
			"-0.009": 2.09819687227,
			"-0.008": 7.08347854995,
			"-0.007": 7.83053297957,
			"-0.006": 17.8510139072,
			"-0.005": 25.3919304433,
			"-0.004": 36.5965660924,
			"-0.003": 56.984372179,
			"-0.002": 64.8815514407,
			"-0.001": 58.8039197806,
			"0.0": 55.8615321543,
			"0.001": 53.9628323477,
			"0.002": 37.4863314548,
			"0.003": 26.9304923097,
			"0.004": 20.7216464489,
			"0.005": 15.4688314953,
			"0.006": 12.0939507193,
			"0.007": 6.82474226814,
			"0.008": 5.52328685024,
			"0.009": 5.04437486226,
			"0.01": 6.02455996899,
			"0.011": 6.2530547125,
			"0.012": 8.33678218781,
			"0.013": 5.90520492064,
			"0.014": 2.72340550291,
			"0.015": 1.85590400523,
			"0.016": 1.37637565446,
			"0.017": 1.11373147141,
			"0.018": 0.975700496137,
			"0.019": 0.612616064297,
			"0.02": 0.0347348294025,
			"0.021": 0.0,
			"0.022": 0.0,
			"0.023": 0.0,
			"0.024": 0.0,
			"0.025": 0.0
		}
	}
}
