{
	 "smiles": "COC1=CC=C(C=C1)C1=CC[C@@]2(C)[C@@H](CCC3C4CC[C@H](OC(C)=O)[C@@]4(C)CCC23)C1", 
	 "Tm": 451.15, 
	 "num_atms": 69, 
	 "gaussian": { 
		 "optdone": 1, 
		 "sigma_profile": "yes", 
		 "theory": "DFT", 
		 "functional": "B3LYP", 
		 "basiset": "6-31G**", 
		 "properties": { 
			 "R2extent": 23869.2029, 
			 "electric_dipole_moment_norm": 1.38136563226, 
			 "electric_quadrupole_moment_norm": 23.1963052845, 
			 "total_energy": -1315.55449536, 
			 "HOMO_LUMO_gap": 0.19317, 
			 "cosmo_polarized_energy": -11.85, 
			 "cosmo_cavitation_energy": 61.2, 
			 "cosmo_dispersion_energy": -42.68, 
			 "cosmo_repulsion_energy": 3.12, 
			 "cosmo_total_nonelectrostatic_energy": 21.64, 
			 "SMD_solvation_energy": 10.41 
		},
		"coords": [
			{
				"x": -9.1418493101,
				"y": -1.6363360781,
				"z": 2.9463252748,
				"element": "C" 
			},
			{
				"x": -8.146013315,
				"y": -1.1122687853,
				"z": 3.8086482407,
				"element": "O" 
			},
			{
				"x": -6.8717726203,
				"y": -1.0010008089,
				"z": 3.329037443,
				"element": "C" 
			},
			{
				"x": -6.4699029182,
				"y": -1.3554848718,
				"z": 2.0363458687,
				"element": "C" 
			},
			{
				"x": -5.1362966898,
				"y": -1.1898844486,
				"z": 1.6579789536,
				"element": "C" 
			},
			{
				"x": -4.1673406782,
				"y": -0.6845872755,
				"z": 2.5380021386,
				"element": "C" 
			},
			{
				"x": -4.6024862233,
				"y": -0.3239647813,
				"z": 3.8288496284,
				"element": "C" 
			},
			{
				"x": -5.924436261,
				"y": -0.4812813695,
				"z": 4.2225040753,
				"element": "C" 
			},
			{
				"x": -2.7490825183,
				"y": -0.5409808532,
				"z": 2.1154050017,
				"element": "C" 
			},
			{
				"x": -2.1571527675,
				"y": -1.4494293156,
				"z": 1.3208729385,
				"element": "C" 
			},
			{
				"x": -0.7448427993,
				"y": -1.3538753843,
				"z": 0.8075952736,
				"element": "C" 
			},
			{
				"x": -0.1026021323,
				"y": 0.0589604002,
				"z": 0.9168920182,
				"element": "C" 
			},
			{
				"x": -0.6970624238,
				"y": 0.9261215779,
				"z": -0.2159452374,
				"element": "C" 
			},
			{
				"x": -0.4668484428,
				"y": 0.6174929056,
				"z": 2.3227117924,
				"element": "C" 
			},
			{
				"x": 0.1901321602,
				"y": 1.9842238843,
				"z": 2.6589531567,
				"element": "C" 
			},
			{
				"x": 1.4382704339,
				"y": 2.3157879429,
				"z": 1.8211012414,
				"element": "C" 
			},
			{
				"x": 2.2800116438,
				"y": 1.0642315778,
				"z": 1.5368236933,
				"element": "C" 
			},
			{
				"x": 3.5808441072,
				"y": 1.2785917439,
				"z": 0.7485305679,
				"element": "C" 
			},
			{
				"x": 4.6871900958,
				"y": 2.2183794299,
				"z": 1.2596281062,
				"element": "C" 
			},
			{
				"x": 5.6794821877,
				"y": 2.269997895,
				"z": 0.058551442,
				"element": "C" 
			},
			{
				"x": 4.9608996741,
				"y": 1.5456230636,
				"z": -1.1089460707,
				"element": "C" 
			},
			{
				"x": 5.3177760404,
				"y": 2.1854275323,
				"z": -2.3570435225,
				"element": "O" 
			},
			{
				"x": 5.569050177,
				"y": 1.402331803,
				"z": -3.4329307825,
				"element": "C" 
			},
			{
				"x": 5.9761040772,
				"y": 2.2493439461,
				"z": -4.6166652999,
				"element": "C" 
			},
			{
				"x": 5.4834289282,
				"y": 0.192795869,
				"z": -3.4406714508,
				"element": "O" 
			},
			{
				"x": 3.4487756623,
				"y": 1.6244942726,
				"z": -0.7621853981,
				"element": "C" 
			},
			{
				"x": 2.9474831694,
				"y": 3.0508580928,
				"z": -1.080083212,
				"element": "C" 
			},
			{
				"x": 2.5296041178,
				"y": 0.5859804383,
				"z": -1.4685728105,
				"element": "C" 
			},
			{
				"x": 2.0307047461,
				"y": -0.5340369885,
				"z": -0.5304203894,
				"element": "C" 
			},
			{
				"x": 1.4593106078,
				"y": -0.1083684572,
				"z": 0.8586445171,
				"element": "C" 
			},
			{
				"x": -1.9861558212,
				"y": 0.6892438328,
				"z": 2.5588807795,
				"element": "C" 
			},
			{
				"x": -8.9056129,
				"y": -2.6600532477,
				"z": 2.6275839891,
				"element": "H" 
			},
			{
				"x": -9.2799463961,
				"y": -1.0088476799,
				"z": 2.0559949027,
				"element": "H" 
			},
			{
				"x": -10.0676554057,
				"y": -1.645901557,
				"z": 3.5239291763,
				"element": "H" 
			},
			{
				"x": -7.1810174387,
				"y": -1.7426106399,
				"z": 1.315892266,
				"element": "H" 
			},
			{
				"x": -4.8455943195,
				"y": -1.4408219066,
				"z": 0.6422571317,
				"element": "H" 
			},
			{
				"x": -3.8914477092,
				"y": 0.0671702514,
				"z": 4.549987217,
				"element": "H" 
			},
			{
				"x": -6.2493188649,
				"y": -0.2116359782,
				"z": 5.2223370855,
				"element": "H" 
			},
			{
				"x": -2.7095081676,
				"y": -2.344563646,
				"z": 1.0393737973,
				"element": "H" 
			},
			{
				"x": -0.7246601962,
				"y": -1.6917316579,
				"z": -0.2376396111,
				"element": "H" 
			},
			{
				"x": -0.1264227522,
				"y": -2.0832278663,
				"z": 1.3536875857,
				"element": "H" 
			},
			{
				"x": -0.4105308617,
				"y": 0.5353177483,
				"z": -1.1966656071,
				"element": "H" 
			},
			{
				"x": -1.7902540153,
				"y": 0.907312878,
				"z": -0.1746439244,
				"element": "H" 
			},
			{
				"x": -0.3842682585,
				"y": 1.9713942839,
				"z": -0.1705054702,
				"element": "H" 
			},
			{
				"x": -0.0704369024,
				"y": -0.1238052229,
				"z": 3.0326966999,
				"element": "H" 
			},
			{
				"x": 0.4504024173,
				"y": 1.988044881,
				"z": 3.7249205566,
				"element": "H" 
			},
			{
				"x": -0.5436959335,
				"y": 2.7896128745,
				"z": 2.5301470725,
				"element": "H" 
			},
			{
				"x": 2.0466912407,
				"y": 3.0593259328,
				"z": 2.3498628675,
				"element": "H" 
			},
			{
				"x": 1.1320323835,
				"y": 2.7930914015,
				"z": 0.8899381705,
				"element": "H" 
			},
			{
				"x": 2.5888469093,
				"y": 0.6937161723,
				"z": 2.5257552028,
				"element": "H" 
			},
			{
				"x": 4.0543764241,
				"y": 0.2846006628,
				"z": 0.7531460915,
				"element": "H" 
			},
			{
				"x": 5.1561542246,
				"y": 1.8373961478,
				"z": 2.1724999878,
				"element": "H" 
			},
			{
				"x": 4.3025859452,
				"y": 3.2162599875,
				"z": 1.4929419483,
				"element": "H" 
			},
			{
				"x": 5.9035854883,
				"y": 3.297848505,
				"z": -0.2405515843,
				"element": "H" 
			},
			{
				"x": 6.6348282128,
				"y": 1.7893741027,
				"z": 0.2887100041,
				"element": "H" 
			},
			{
				"x": 5.2634936853,
				"y": 0.4988415335,
				"z": -1.1833269972,
				"element": "H" 
			},
			{
				"x": 6.8723966302,
				"y": 2.8275094753,
				"z": -4.3732961045,
				"element": "H" 
			},
			{
				"x": 6.1689747811,
				"y": 1.6060001075,
				"z": -5.4745012026,
				"element": "H" 
			},
			{
				"x": 5.1836476602,
				"y": 2.9644285554,
				"z": -4.8565449573,
				"element": "H" 
			},
			{
				"x": 3.4768988785,
				"y": 3.831268475,
				"z": -0.5259640329,
				"element": "H" 
			},
			{
				"x": 3.0964095631,
				"y": 3.2536388361,
				"z": -2.1449202877,
				"element": "H" 
			},
			{
				"x": 1.8813549451,
				"y": 3.1578298493,
				"z": -0.87522257,
				"element": "H" 
			},
			{
				"x": 1.6692436957,
				"y": 1.1112679183,
				"z": -1.8952591141,
				"element": "H" 
			},
			{
				"x": 3.0522104752,
				"y": 0.1247070275,
				"z": -2.313794234,
				"element": "H" 
			},
			{
				"x": 1.2852929537,
				"y": -1.1328664148,
				"z": -1.065296337,
				"element": "H" 
			},
			{
				"x": 2.864210207,
				"y": -1.2234382247,
				"z": -0.3511926116,
				"element": "H" 
			},
			{
				"x": 1.6408104906,
				"y": -0.9769477693,
				"z": 1.5040147735,
				"element": "H" 
			},
			{
				"x": -2.4034461392,
				"y": 1.5669011095,
				"z": 2.0420376582,
				"element": "H" 
			},
			{
				"x": -2.1616538588,
				"y": 0.8842063044,
				"z": 3.624492484,
				"element": "H" 
			}
		],
		 "valence_orbital": [ 
			{
				"type": "occ",
				"energy": -0.26863,
				"method": "rhf"
			},
			{
				"type": "occ",
				"energy": -0.26012,
				"method": "rhf"
			},
			{
				"type": "occ",
				"energy": -0.24806,
				"method": "rhf"
			},
			{
				"type": "occ",
				"energy": -0.24395,
				"method": "rhf"
			},
			{
				"type": "occ",
				"energy": -0.19821,
				"method": "rhf"
			},
			{
				"type": "unocc",
				"energy": -0.00504,
				"method": "rhf"
			},
			{
				"type": "unocc",
				"energy": 0.00406,
				"method": "rhf"
			},
			{
				"type": "unocc",
				"energy": 0.01465,
				"method": "rhf"
			},
			{
				"type": "unocc",
				"energy": 0.05493,
				"method": "rhf"
			},
			{
				"type": "unocc",
				"energy": 0.06538,
				"method": "rhf"
			}
		],
		"cosmo_sigma_profile": { 
			"-0.025": 0.0,
			"-0.024": 0.0,
			"-0.023": 0.0,
			"-0.022": 0.0,
			"-0.021": 0.0,
			"-0.02": 0.0,
			"-0.019": 0.0,
			"-0.018": 0.0,
			"-0.017": 0.0,
			"-0.016": 0.0,
			"-0.015": 0.0,
			"-0.014": 0.0,
			"-0.013": 0.0,
			"-0.012": 0.0,
			"-0.011": 0.0,
			"-0.01": 0.0,
			"-0.009": 0.0,
			"-0.008": 0.0,
			"-0.007": 0.457756725186,
			"-0.006": 9.83686949393,
			"-0.005": 21.6108703179,
			"-0.004": 27.7614896009,
			"-0.003": 46.6749915189,
			"-0.002": 65.0963415995,
			"-0.001": 76.3050375189,
			"0.0": 62.0273237618,
			"0.001": 46.1416450558,
			"0.002": 30.2001153726,
			"0.003": 16.4746647518,
			"0.004": 17.5926539791,
			"0.005": 15.7004151594,
			"0.006": 15.8289690548,
			"0.007": 4.64993955431,
			"0.008": 2.85272783934,
			"0.009": 2.76282219447,
			"0.01": 4.13708191988,
			"0.011": 3.01722352531,
			"0.012": 3.70705508759,
			"0.013": 2.02098735689,
			"0.014": 0.0799074196956,
			"0.015": 0.0,
			"0.016": 0.0,
			"0.017": 0.0,
			"0.018": 0.0,
			"0.019": 0.0,
			"0.02": 0.0,
			"0.021": 0.0,
			"0.022": 0.0,
			"0.023": 0.0,
			"0.024": 0.0,
			"0.025": 0.0
		}
	}
}
