{
	 "smiles": "BrC1=CC=C(S1)C1=CC=C(Br)S1", 
	 "Tm": 417.15, 
	 "num_atms": 16, 
	 "gaussian": { 
		 "optdone": 1, 
		 "sigma_profile": "yes", 
		 "theory": "DFT", 
		 "functional": "B3LYP", 
		 "basiset": "6-31G**", 
		 "properties": { 
			 "R2extent": 10106.6917, 
			 "electric_dipole_moment_norm": 0.000141421356237, 
			 "electric_quadrupole_moment_norm": 8.15529561389, 
			 "total_energy": -6246.40587122, 
			 "HOMO_LUMO_gap": 0.14487, 
			 "cosmo_polarized_energy": -4.57, 
			 "cosmo_cavitation_energy": 28.68, 
			 "cosmo_dispersion_energy": -23.06, 
			 "cosmo_repulsion_energy": 1.74, 
			 "cosmo_total_nonelectrostatic_energy": 7.36, 
			 "SMD_solvation_energy": 1.94 
		},
		"coords": [
			{
				"x": 0.6364840681,
				"y": -3.9284270798,
				"z": -2.5200421275,
				"element": "Br" 
			},
			{
				"x": 0.5932667601,
				"y": -2.9423782422,
				"z": -0.9167439602,
				"element": "C" 
			},
			{
				"x": -0.0815755811,
				"y": -3.2588385125,
				"z": 0.2287276579,
				"element": "C" 
			},
			{
				"x": 0.1094084291,
				"y": -2.2846274463,
				"z": 1.2483967172,
				"element": "C" 
			},
			{
				"x": 0.9239519631,
				"y": -1.2359926092,
				"z": 0.8785125749,
				"element": "C" 
			},
			{
				"x": 1.477255934,
				"y": -1.4486611114,
				"z": -0.7779978026,
				"element": "S" 
			},
			{
				"x": 1.3324961145,
				"y": -0.0801607239,
				"z": 1.6497938232,
				"element": "C" 
			},
			{
				"x": 2.1469859368,
				"y": 0.9685083813,
				"z": 1.2798876296,
				"element": "C" 
			},
			{
				"x": 2.3380284251,
				"y": 1.9426821062,
				"z": 2.2995804752,
				"element": "C" 
			},
			{
				"x": 1.6632706544,
				"y": 1.6261680999,
				"z": 3.4450876434,
				"element": "C" 
			},
			{
				"x": 1.6201613348,
				"y": 2.6121497851,
				"z": 5.0484299365,
				"element": "Br" 
			},
			{
				"x": 0.7791762986,
				"y": 0.1325172628,
				"z": 3.3062980415,
				"element": "S" 
			},
			{
				"x": -0.6877677657,
				"y": -4.1492677474,
				"z": 0.3367323117,
				"element": "H" 
			},
			{
				"x": -0.3457429956,
				"y": -2.360493041,
				"z": 2.2298192514,
				"element": "H" 
			},
			{
				"x": 2.602084135,
				"y": 1.044406635,
				"z": 0.2984428089,
				"element": "H" 
			},
			{
				"x": 2.9442162889,
				"y": 2.8331142433,
				"z": 2.191575019,
				"element": "H" 
			}
		],
		 "valence_orbital": [ 
			{
				"type": "occ",
				"energy": -0.30122,
				"method": "rhf"
			},
			{
				"type": "occ",
				"energy": -0.27296,
				"method": "rhf"
			},
			{
				"type": "occ",
				"energy": -0.26755,
				"method": "rhf"
			},
			{
				"type": "occ",
				"energy": -0.26325,
				"method": "rhf"
			},
			{
				"type": "occ",
				"energy": -0.20811,
				"method": "rhf"
			},
			{
				"type": "unocc",
				"energy": -0.06324,
				"method": "rhf"
			},
			{
				"type": "unocc",
				"energy": -0.01555,
				"method": "rhf"
			},
			{
				"type": "unocc",
				"energy": -0.00388,
				"method": "rhf"
			},
			{
				"type": "unocc",
				"energy": -0.00176,
				"method": "rhf"
			},
			{
				"type": "unocc",
				"energy": 0.0076,
				"method": "rhf"
			}
		],
		"cosmo_sigma_profile": { 
			"-0.025": 0.0,
			"-0.024": 0.0,
			"-0.023": 0.0,
			"-0.022": 0.0,
			"-0.021": 0.0,
			"-0.02": 0.0,
			"-0.019": 0.0,
			"-0.018": 0.0,
			"-0.017": 0.0,
			"-0.016": 0.0,
			"-0.015": 0.0,
			"-0.014": 0.0,
			"-0.013": 0.0,
			"-0.012": 0.0,
			"-0.011": 0.0,
			"-0.01": 0.0,
			"-0.009": 0.138446303972,
			"-0.008": 5.62117477325,
			"-0.007": 7.45572882531,
			"-0.006": 9.85359091254,
			"-0.005": 10.7732193663,
			"-0.004": 9.14428293278,
			"-0.003": 10.7659298742,
			"-0.002": 12.2568324188,
			"-0.001": 18.3658778152,
			"0.0": 22.3799759721,
			"0.001": 30.3284655826,
			"0.002": 45.3971259399,
			"0.003": 46.4612546942,
			"0.004": 13.9746859619,
			"0.005": 0.0,
			"0.006": 0.0,
			"0.007": 0.0,
			"0.008": 0.0,
			"0.009": 0.0,
			"0.01": 0.0,
			"0.011": 0.0,
			"0.012": 0.0,
			"0.013": 0.0,
			"0.014": 0.0,
			"0.015": 0.0,
			"0.016": 0.0,
			"0.017": 0.0,
			"0.018": 0.0,
			"0.019": 0.0,
			"0.02": 0.0,
			"0.021": 0.0,
			"0.022": 0.0,
			"0.023": 0.0,
			"0.024": 0.0,
			"0.025": 0.0
		}
	}
}
