{
	 "smiles": "CC1=NC2=C(N=NC3=CC=C4C=CC=CC4=C3)C(N)=NN2C(=C1)C(F)(F)F", 
	 "Tm": 519.15, 
	 "num_atms": 40, 
	 "gaussian": { 
		 "optdone": 1, 
		 "sigma_profile": "yes", 
		 "theory": "DFT", 
		 "functional": "B3LYP", 
		 "basiset": "6-31G**", 
		 "properties": { 
			 "R2extent": 10176.3289, 
			 "electric_dipole_moment_norm": 2.95842010539, 
			 "electric_quadrupole_moment_norm": 19.6199321663, 
			 "total_energy": -1321.71601933, 
			 "HOMO_LUMO_gap": 0.1215, 
			 "cosmo_polarized_energy": -17.35, 
			 "cosmo_cavitation_energy": 46.52, 
			 "cosmo_dispersion_energy": -30.92, 
			 "cosmo_repulsion_energy": 2.28, 
			 "cosmo_total_nonelectrostatic_energy": 17.89, 
			 "SMD_solvation_energy": 5.49 
		},
		"coords": [
			{
				"x": -2.0252770568,
				"y": -2.7282701748,
				"z": -1.0772916613,
				"element": "C" 
			},
			{
				"x": -0.9547640758,
				"y": -1.7758146473,
				"z": -1.5358922592,
				"element": "C" 
			},
			{
				"x": -0.0328049876,
				"y": -1.4159318517,
				"z": -0.6518368816,
				"element": "N" 
			},
			{
				"x": 0.9282139888,
				"y": -0.5656555044,
				"z": -1.0365306738,
				"element": "C" 
			},
			{
				"x": 2.0554016675,
				"y": -0.0112018808,
				"z": -0.3934855381,
				"element": "C" 
			},
			{
				"x": 2.7423190472,
				"y": -0.1824303758,
				"z": 0.8076929962,
				"element": "N" 
			},
			{
				"x": 2.2767432831,
				"y": -0.5871557105,
				"z": 1.9051954204,
				"element": "N" 
			},
			{
				"x": 0.8879720209,
				"y": -0.7282593438,
				"z": 2.1751402946,
				"element": "C" 
			},
			{
				"x": 0.4780181421,
				"y": -1.9188892004,
				"z": 2.8356086741,
				"element": "C" 
			},
			{
				"x": -0.8216976044,
				"y": -2.0688563149,
				"z": 3.2497682327,
				"element": "C" 
			},
			{
				"x": -1.77244987,
				"y": -1.0235062606,
				"z": 3.077616888,
				"element": "C" 
			},
			{
				"x": -3.1185951178,
				"y": -1.1395576112,
				"z": 3.5124886998,
				"element": "C" 
			},
			{
				"x": -4.0077835452,
				"y": -0.1000146189,
				"z": 3.3468085296,
				"element": "C" 
			},
			{
				"x": -3.5859144779,
				"y": 1.1079080861,
				"z": 2.7389852774,
				"element": "C" 
			},
			{
				"x": -2.2859001742,
				"y": 1.2534109273,
				"z": 2.3086147009,
				"element": "C" 
			},
			{
				"x": -1.3447967694,
				"y": 0.1978438944,
				"z": 2.4592017804,
				"element": "C" 
			},
			{
				"x": -0.0049689778,
				"y": 0.3146663416,
				"z": 2.0105254654,
				"element": "C" 
			},
			{
				"x": 2.711620848,
				"y": 0.7408344642,
				"z": -1.4209249141,
				"element": "C" 
			},
			{
				"x": 3.8499231157,
				"y": 1.4594663876,
				"z": -1.2321276071,
				"element": "N" 
			},
			{
				"x": 2.0707828438,
				"y": 0.7220840142,
				"z": -2.596003268,
				"element": "N" 
			},
			{
				"x": 0.9972766214,
				"y": -0.0809856275,
				"z": -2.3589408285,
				"element": "N" 
			},
			{
				"x": 0.0611410778,
				"y": -0.4405950935,
				"z": -3.269666037,
				"element": "C" 
			},
			{
				"x": -0.9422655594,
				"y": -1.2930017272,
				"z": -2.8728100209,
				"element": "C" 
			},
			{
				"x": 0.1739753346,
				"y": 0.1089269777,
				"z": -4.6762634368,
				"element": "C" 
			},
			{
				"x": 0.1228110846,
				"y": 1.449695403,
				"z": -4.6869656885,
				"element": "F" 
			},
			{
				"x": -0.8494544432,
				"y": -0.348161214,
				"z": -5.4284828149,
				"element": "F" 
			},
			{
				"x": 1.3173763916,
				"y": -0.2762820107,
				"z": -5.2645574029,
				"element": "F" 
			},
			{
				"x": -1.9528876798,
				"y": -3.6829679571,
				"z": -1.6117465267,
				"element": "H" 
			},
			{
				"x": -3.0232696041,
				"y": -2.3215678922,
				"z": -1.274300333,
				"element": "H" 
			},
			{
				"x": -1.9186952021,
				"y": -2.9111532536,
				"z": -0.0076810618,
				"element": "H" 
			},
			{
				"x": 1.214190761,
				"y": -2.7008316215,
				"z": 2.9922354879,
				"element": "H" 
			},
			{
				"x": -1.1371758654,
				"y": -2.9881351522,
				"z": 3.7370234188,
				"element": "H" 
			},
			{
				"x": -3.4372955887,
				"y": -2.0662940819,
				"z": 3.9834715193,
				"element": "H" 
			},
			{
				"x": -5.0350148787,
				"y": -0.2018882251,
				"z": 3.684769,
				"element": "H" 
			},
			{
				"x": -4.2937979507,
				"y": 1.9226066302,
				"z": 2.6155651948,
				"element": "H" 
			},
			{
				"x": -1.9607510545,
				"y": 2.1808514463,
				"z": 1.8439080796,
				"element": "H" 
			},
			{
				"x": 0.3202168206,
				"y": 1.2415241061,
				"z": 1.5469972986,
				"element": "H" 
			},
			{
				"x": 4.3778418794,
				"y": 1.7047173953,
				"z": -2.0562770235,
				"element": "H" 
			},
			{
				"x": 4.3734338893,
				"y": 1.2002630701,
				"z": -0.4061518225,
				"element": "H" 
			},
			{
				"x": -1.6998983339,
				"y": -1.5898917925,
				"z": -3.5851811582,
				"element": "H" 
			}
		],
		 "valence_orbital": [ 
			{
				"type": "occ",
				"energy": -0.2434,
				"method": "rhf"
			},
			{
				"type": "occ",
				"energy": -0.2426,
				"method": "rhf"
			},
			{
				"type": "occ",
				"energy": -0.22973,
				"method": "rhf"
			},
			{
				"type": "occ",
				"energy": -0.2192,
				"method": "rhf"
			},
			{
				"type": "occ",
				"energy": -0.19648,
				"method": "rhf"
			},
			{
				"type": "unocc",
				"energy": -0.07498,
				"method": "rhf"
			},
			{
				"type": "unocc",
				"energy": -0.06231,
				"method": "rhf"
			},
			{
				"type": "unocc",
				"energy": -0.03282,
				"method": "rhf"
			},
			{
				"type": "unocc",
				"energy": -0.01285,
				"method": "rhf"
			},
			{
				"type": "unocc",
				"energy": 0.00724,
				"method": "rhf"
			}
		],
		"cosmo_sigma_profile": { 
			"-0.025": 0.0,
			"-0.024": 0.0,
			"-0.023": 0.0,
			"-0.022": 0.0,
			"-0.021": 0.0,
			"-0.02": 0.0,
			"-0.019": 0.0,
			"-0.018": 0.0,
			"-0.017": 0.0,
			"-0.016": 0.0,
			"-0.015": 0.104201748984,
			"-0.014": 1.11195366968,
			"-0.013": 1.47718197875,
			"-0.012": 1.44172727863,
			"-0.011": 1.74475181595,
			"-0.01": 2.7588588795,
			"-0.009": 3.13929521286,
			"-0.008": 3.07251165186,
			"-0.007": 3.32516906159,
			"-0.006": 21.0363797959,
			"-0.005": 27.6111948266,
			"-0.004": 28.115629613,
			"-0.003": 26.641303702,
			"-0.002": 26.5875315572,
			"-0.001": 27.0214616265,
			"0.0": 24.2828668761,
			"0.001": 30.3557979774,
			"0.002": 38.8746071699,
			"0.003": 22.3502832527,
			"0.004": 26.6554844985,
			"0.005": 16.8919067301,
			"0.006": 8.10243690775,
			"0.007": 6.39021256504,
			"0.008": 5.28307329966,
			"0.009": 5.64226073901,
			"0.01": 4.85946794033,
			"0.011": 3.24338994694,
			"0.012": 2.22015120417,
			"0.013": 1.58809760825,
			"0.014": 1.19292380136,
			"0.015": 0.663504830929,
			"0.016": 0.0587917039204,
			"0.017": 0.0,
			"0.018": 0.0,
			"0.019": 0.0,
			"0.02": 0.0,
			"0.021": 0.0,
			"0.022": 0.0,
			"0.023": 0.0,
			"0.024": 0.0,
			"0.025": 0.0
		}
	}
}
