{
	 "smiles": "NS(=O)(=O)C1=C(I)C=CC=C1", 
	 "Tm": 435.15, 
	 "num_atms": 17, 
	 "gaussian": { 
		 "optdone": 1, 
		 "sigma_profile": "yes", 
		 "theory": "DFT", 
		 "functional": "B3LYP", 
		 "basiset": "6-31G**", 
		 "properties": { 
			 "R2extent": 2134.9887, 
			 "electric_dipole_moment_norm": 5.77103010649, 
			 "electric_quadrupole_moment_norm": 15.8732671174, 
			 "total_energy": -846.94663001, 
			 "HOMO_LUMO_gap": 0.2012, 
			 "cosmo_polarized_energy": -17.0, 
			 "cosmo_cavitation_energy": 25.02, 
			 "cosmo_dispersion_energy": -20.48, 
			 "cosmo_repulsion_energy": 1.54, 
			 "cosmo_total_nonelectrostatic_energy": 6.08, 
			 "SMD_solvation_energy": 3.14 
		},
		"coords": [
			{
				"x": -0.5151915626,
				"y": -1.810945702,
				"z": 1.6982075703,
				"element": "N" 
			},
			{
				"x": 0.5076911307,
				"y": -0.505588414,
				"z": 1.9112393773,
				"element": "S" 
			},
			{
				"x": 1.86141297,
				"y": -1.0454945064,
				"z": 1.7982321773,
				"element": "O" 
			},
			{
				"x": 0.0462645236,
				"y": 0.2015034156,
				"z": 3.1005538745,
				"element": "O" 
			},
			{
				"x": 0.2858922763,
				"y": 0.5958635767,
				"z": 0.4799686225,
				"element": "C" 
			},
			{
				"x": -0.9027647831,
				"y": 1.2661804947,
				"z": 0.1530450536,
				"element": "C" 
			},
			{
				"x": -2.722431457,
				"y": 1.0688824124,
				"z": 1.2340310815,
				"element": "I" 
			},
			{
				"x": -0.9379359498,
				"y": 2.1161927614,
				"z": -0.9561376493,
				"element": "C" 
			},
			{
				"x": 0.2059224592,
				"y": 2.306998441,
				"z": -1.7323437784,
				"element": "C" 
			},
			{
				"x": 1.3898554373,
				"y": 1.6471408338,
				"z": -1.4092352546,
				"element": "C" 
			},
			{
				"x": 1.4266746902,
				"y": 0.7955129224,
				"z": -0.3075502434,
				"element": "C" 
			},
			{
				"x": -1.5000446919,
				"y": -1.5644319596,
				"z": 1.732093768,
				"element": "H" 
			},
			{
				"x": -0.2600311974,
				"y": -2.3893064864,
				"z": 0.9043588046,
				"element": "H" 
			},
			{
				"x": -1.8578806313,
				"y": 2.6302876564,
				"z": -1.2104930016,
				"element": "H" 
			},
			{
				"x": 0.1621279887,
				"y": 2.9738791121,
				"z": -2.5881292596,
				"element": "H" 
			},
			{
				"x": 2.2834133774,
				"y": 1.7931231656,
				"z": -2.0077165446,
				"element": "H" 
			},
			{
				"x": 2.3360254197,
				"y": 0.2738022764,
				"z": -0.032224598,
				"element": "H" 
			}
		],
		 "valence_orbital": [ 
			{
				"type": "occ",
				"energy": -0.31171,
				"method": "rhf"
			},
			{
				"type": "occ",
				"energy": -0.30911,
				"method": "rhf"
			},
			{
				"type": "occ",
				"energy": -0.28028,
				"method": "rhf"
			},
			{
				"type": "occ",
				"energy": -0.27947,
				"method": "rhf"
			},
			{
				"type": "occ",
				"energy": -0.2599,
				"method": "rhf"
			},
			{
				"type": "unocc",
				"energy": -0.0587,
				"method": "rhf"
			},
			{
				"type": "unocc",
				"energy": -0.05168,
				"method": "rhf"
			},
			{
				"type": "unocc",
				"energy": -0.03651,
				"method": "rhf"
			},
			{
				"type": "unocc",
				"energy": 0.02862,
				"method": "rhf"
			},
			{
				"type": "unocc",
				"energy": 0.04056,
				"method": "rhf"
			}
		],
		"cosmo_sigma_profile": { 
			"-0.025": 0.0,
			"-0.024": 0.0,
			"-0.023": 0.0,
			"-0.022": 0.0,
			"-0.021": 0.0,
			"-0.02": 0.0,
			"-0.019": 0.0,
			"-0.018": 0.0,
			"-0.017": 0.0,
			"-0.016": 0.688278662307,
			"-0.015": 1.57247750076,
			"-0.014": 0.998699305678,
			"-0.013": 1.62975232569,
			"-0.012": 2.52036084709,
			"-0.011": 2.03983589159,
			"-0.01": 1.91340786624,
			"-0.009": 1.84558354308,
			"-0.008": 4.88244178402,
			"-0.007": 12.1338963617,
			"-0.006": 12.7872340422,
			"-0.005": 9.49924136027,
			"-0.004": 9.56740125492,
			"-0.003": 10.5170051175,
			"-0.002": 9.31312452138,
			"-0.001": 11.1981582013,
			"0.0": 13.8662261299,
			"0.001": 17.7010466642,
			"0.002": 18.8766805215,
			"0.003": 12.4842938505,
			"0.004": 5.71866087521,
			"0.005": 3.67557944715,
			"0.006": 3.78837495599,
			"0.007": 4.70583126525,
			"0.008": 5.16467003981,
			"0.009": 5.06860215454,
			"0.01": 7.93459897798,
			"0.011": 10.9735056106,
			"0.012": 2.30953808769,
			"0.013": 0.0,
			"0.014": 0.0,
			"0.015": 0.0,
			"0.016": 0.0,
			"0.017": 0.0,
			"0.018": 0.0,
			"0.019": 0.0,
			"0.02": 0.0,
			"0.021": 0.0,
			"0.022": 0.0,
			"0.023": 0.0,
			"0.024": 0.0,
			"0.025": 0.0
		}
	}
}
