{
	 "smiles": "OC(=O)C(=O)C1=CC=CC=C1", 
	 "Tm": 338.65, 
	 "num_atms": 17, 
	 "gaussian": { 
		 "optdone": 1, 
		 "sigma_profile": "yes", 
		 "theory": "DFT", 
		 "functional": "B3LYP", 
		 "basiset": "6-31G**", 
		 "properties": { 
			 "R2extent": 2759.0822, 
			 "electric_dipole_moment_norm": 2.28262661204, 
			 "electric_quadrupole_moment_norm": 10.2590312442, 
			 "total_energy": -534.136791078, 
			 "HOMO_LUMO_gap": 0.17139, 
			 "cosmo_polarized_energy": -11.46, 
			 "cosmo_cavitation_energy": 22.34, 
			 "cosmo_dispersion_energy": -16.46, 
			 "cosmo_repulsion_energy": 1.32, 
			 "cosmo_total_nonelectrostatic_energy": 7.21, 
			 "SMD_solvation_energy": 5.85 
		},
		"coords": [
			{
				"x": 2.73245562,
				"y": 1.9651506232,
				"z": 2.2065702063,
				"element": "O" 
			},
			{
				"x": 2.9847330031,
				"y": 0.9651654029,
				"z": 1.3480875881,
				"element": "C" 
			},
			{
				"x": 4.0779531377,
				"y": 0.7434616644,
				"z": 0.8723662243,
				"element": "O" 
			},
			{
				"x": 1.724050229,
				"y": 0.1075399774,
				"z": 1.1065156968,
				"element": "C" 
			},
			{
				"x": 0.9748117676,
				"y": -0.0727011598,
				"z": 2.0510034583,
				"element": "O" 
			},
			{
				"x": 1.494707966,
				"y": -0.4861577886,
				"z": -0.2365041372,
				"element": "C" 
			},
			{
				"x": 2.3324574074,
				"y": -0.2595128136,
				"z": -1.3421672193,
				"element": "C" 
			},
			{
				"x": 2.0237768452,
				"y": -0.8308580988,
				"z": -2.576002688,
				"element": "C" 
			},
			{
				"x": 0.8868237894,
				"y": -1.6283770053,
				"z": -2.7178964688,
				"element": "C" 
			},
			{
				"x": 0.0490312729,
				"y": -1.8578310739,
				"z": -1.6210023239,
				"element": "C" 
			},
			{
				"x": 0.3494379184,
				"y": -1.2890716435,
				"z": -0.3892227043,
				"element": "C" 
			},
			{
				"x": 3.5777943633,
				"y": 2.4254885043,
				"z": 2.3477098337,
				"element": "H" 
			},
			{
				"x": 3.2243910494,
				"y": 0.3440041989,
				"z": -1.2316282409,
				"element": "H" 
			},
			{
				"x": 2.6746696977,
				"y": -0.6552138293,
				"z": -3.4271940946,
				"element": "H" 
			},
			{
				"x": 0.6521405954,
				"y": -2.071584554,
				"z": -3.6815890241,
				"element": "H" 
			},
			{
				"x": -0.8357358937,
				"y": -2.4776734802,
				"z": -1.7314720078,
				"element": "H" 
			},
			{
				"x": -0.2866987691,
				"y": -1.448028924,
				"z": 0.4749259014,
				"element": "H" 
			}
		],
		 "valence_orbital": [ 
			{
				"type": "occ",
				"energy": -0.33389,
				"method": "rhf"
			},
			{
				"type": "occ",
				"energy": -0.31969,
				"method": "rhf"
			},
			{
				"type": "occ",
				"energy": -0.26852,
				"method": "rhf"
			},
			{
				"type": "occ",
				"energy": -0.26508,
				"method": "rhf"
			},
			{
				"type": "occ",
				"energy": -0.25622,
				"method": "rhf"
			},
			{
				"type": "unocc",
				"energy": -0.08483,
				"method": "rhf"
			},
			{
				"type": "unocc",
				"energy": -0.01727,
				"method": "rhf"
			},
			{
				"type": "unocc",
				"energy": -0.00957,
				"method": "rhf"
			},
			{
				"type": "unocc",
				"energy": 0.05574,
				"method": "rhf"
			},
			{
				"type": "unocc",
				"energy": 0.07167,
				"method": "rhf"
			}
		],
		"cosmo_sigma_profile": { 
			"-0.025": 0.0,
			"-0.024": 0.0,
			"-0.023": 0.0,
			"-0.022": 0.0,
			"-0.021": 0.0,
			"-0.02": 0.0934078379177,
			"-0.019": 0.941630992737,
			"-0.018": 1.11818598643,
			"-0.017": 0.772810144494,
			"-0.016": 0.95459335872,
			"-0.015": 0.466379499006,
			"-0.014": 0.45848791772,
			"-0.013": 0.600648213143,
			"-0.012": 1.10178785979,
			"-0.011": 0.81923344751,
			"-0.01": 0.42887573904,
			"-0.009": 0.985501514249,
			"-0.008": 1.15836253853,
			"-0.007": 4.98431795005,
			"-0.006": 11.0255025506,
			"-0.005": 14.7844055383,
			"-0.004": 13.0419157705,
			"-0.003": 9.65895593092,
			"-0.002": 9.88875953054,
			"-0.001": 10.0912753661,
			"0.0": 11.378214541,
			"0.001": 11.8004334251,
			"0.002": 13.2379751082,
			"0.003": 17.4948303078,
			"0.004": 7.01216840948,
			"0.005": 3.16204239008,
			"0.006": 4.34609382556,
			"0.007": 3.79309021001,
			"0.008": 4.41630239384,
			"0.009": 5.84455001449,
			"0.01": 8.42108167804,
			"0.011": 4.32690413315,
			"0.012": 1.05515084604,
			"0.013": 0.00270953807409,
			"0.014": 0.0,
			"0.015": 0.0,
			"0.016": 0.0,
			"0.017": 0.0,
			"0.018": 0.0,
			"0.019": 0.0,
			"0.02": 0.0,
			"0.021": 0.0,
			"0.022": 0.0,
			"0.023": 0.0,
			"0.024": 0.0,
			"0.025": 0.0
		}
	}
}
