{
	 "smiles": "COC1=CC=C2C(=O)N3C=CC=CC3=CC2=C1", 
	 "Tm": 403.15, 
	 "num_atms": 28, 
	 "gaussian": { 
		 "optdone": 1, 
		 "sigma_profile": "yes", 
		 "theory": "DFT", 
		 "functional": "B3LYP", 
		 "basiset": "6-31G**", 
		 "properties": { 
			 "R2extent": 4632.0322, 
			 "electric_dipole_moment_norm": 4.40431896325, 
			 "electric_quadrupole_moment_norm": 14.7182314957, 
			 "total_energy": -745.323921047, 
			 "HOMO_LUMO_gap": 0.12927, 
			 "cosmo_polarized_energy": -11.98, 
			 "cosmo_cavitation_energy": 31.63, 
			 "cosmo_dispersion_energy": -23.71, 
			 "cosmo_repulsion_energy": 1.76, 
			 "cosmo_total_nonelectrostatic_energy": 9.68, 
			 "SMD_solvation_energy": 6.7 
		},
		"coords": [
			{
				"x": -0.7213674298,
				"y": -2.8981259809,
				"z": -3.7178542148,
				"element": "C" 
			},
			{
				"x": 0.4832267209,
				"y": -2.1796506476,
				"z": -3.4976026845,
				"element": "O" 
			},
			{
				"x": 0.5910092755,
				"y": -1.4288746765,
				"z": -2.3686908676,
				"element": "C" 
			},
			{
				"x": 1.8264744779,
				"y": -0.7443023628,
				"z": -2.2278208102,
				"element": "C" 
			},
			{
				"x": 2.0469262396,
				"y": 0.0451648571,
				"z": -1.1243258377,
				"element": "C" 
			},
			{
				"x": 1.0577816423,
				"y": 0.1855386595,
				"z": -0.1244155653,
				"element": "C" 
			},
			{
				"x": 1.3434360859,
				"y": 1.0304105774,
				"z": 1.0184065113,
				"element": "C" 
			},
			{
				"x": 2.3872054843,
				"y": 1.6520855659,
				"z": 1.2053755605,
				"element": "O" 
			},
			{
				"x": 0.2876022432,
				"y": 1.1248961633,
				"z": 1.9952824631,
				"element": "N" 
			},
			{
				"x": 0.537070793,
				"y": 1.9280259945,
				"z": 3.0981075408,
				"element": "C" 
			},
			{
				"x": -0.3803760566,
				"y": 2.0937172657,
				"z": 4.0823230627,
				"element": "C" 
			},
			{
				"x": -1.6422917846,
				"y": 1.4230604208,
				"z": 3.9842218106,
				"element": "C" 
			},
			{
				"x": -1.9002599697,
				"y": 0.6320079581,
				"z": 2.9075492081,
				"element": "C" 
			},
			{
				"x": -0.938629042,
				"y": 0.4460454895,
				"z": 1.8561364982,
				"element": "C" 
			},
			{
				"x": -1.1659247069,
				"y": -0.3461544012,
				"z": 0.7537153913,
				"element": "C" 
			},
			{
				"x": -0.1815278289,
				"y": -0.4971076042,
				"z": -0.2593345366,
				"element": "C" 
			},
			{
				"x": -0.3963235908,
				"y": -1.3084777141,
				"z": -1.4028258822,
				"element": "C" 
			},
			{
				"x": -0.5908502548,
				"y": -3.4218467314,
				"z": -4.6658680492,
				"element": "H" 
			},
			{
				"x": -1.5841949943,
				"y": -2.2241727992,
				"z": -3.7915868094,
				"element": "H" 
			},
			{
				"x": -0.9047176052,
				"y": -3.6302249831,
				"z": -2.9212735076,
				"element": "H" 
			},
			{
				"x": 2.5726511987,
				"y": -0.8647944948,
				"z": -3.0055972028,
				"element": "H" 
			},
			{
				"x": 2.9818718345,
				"y": 0.5788688742,
				"z": -0.9923363365,
				"element": "H" 
			},
			{
				"x": 1.5156738721,
				"y": 2.3876810885,
				"z": 3.0766485379,
				"element": "H" 
			},
			{
				"x": -0.1476575366,
				"y": 2.7296372077,
				"z": 4.9281772324,
				"element": "H" 
			},
			{
				"x": -2.3854224355,
				"y": 1.5474216407,
				"z": 4.7655489967,
				"element": "H" 
			},
			{
				"x": -2.8460199393,
				"y": 0.1106131502,
				"z": 2.8037184529,
				"element": "H" 
			},
			{
				"x": -2.1187513462,
				"y": -0.8570375566,
				"z": 0.6723835544,
				"element": "H" 
			},
			{
				"x": -1.3436153467,
				"y": -1.8259049609,
				"z": -1.4990625163,
				"element": "H" 
			}
		],
		 "valence_orbital": [ 
			{
				"type": "occ",
				"energy": -0.29227,
				"method": "rhf"
			},
			{
				"type": "occ",
				"energy": -0.26054,
				"method": "rhf"
			},
			{
				"type": "occ",
				"energy": -0.25635,
				"method": "rhf"
			},
			{
				"type": "occ",
				"energy": -0.22667,
				"method": "rhf"
			},
			{
				"type": "occ",
				"energy": -0.1828,
				"method": "rhf"
			},
			{
				"type": "unocc",
				"energy": -0.05353,
				"method": "rhf"
			},
			{
				"type": "unocc",
				"energy": -0.03136,
				"method": "rhf"
			},
			{
				"type": "unocc",
				"energy": -0.00444,
				"method": "rhf"
			},
			{
				"type": "unocc",
				"energy": 0.04689,
				"method": "rhf"
			},
			{
				"type": "unocc",
				"energy": 0.07046,
				"method": "rhf"
			}
		],
		"cosmo_sigma_profile": { 
			"-0.025": 0.0,
			"-0.024": 0.0,
			"-0.023": 0.0,
			"-0.022": 0.0,
			"-0.021": 0.0,
			"-0.02": 0.0,
			"-0.019": 0.0,
			"-0.018": 0.0,
			"-0.017": 0.0,
			"-0.016": 0.0,
			"-0.015": 0.0,
			"-0.014": 0.0,
			"-0.013": 0.0,
			"-0.012": 0.0,
			"-0.011": 0.0,
			"-0.01": 0.0,
			"-0.009": 0.0,
			"-0.008": 0.931492124656,
			"-0.007": 9.63085161354,
			"-0.006": 20.0889760987,
			"-0.005": 22.5967012997,
			"-0.004": 18.432891526,
			"-0.003": 18.592742177,
			"-0.002": 14.0179795521,
			"-0.001": 17.0594797394,
			"0.0": 16.5633152165,
			"0.001": 17.4890950555,
			"0.002": 21.9845610561,
			"0.003": 27.4568570981,
			"0.004": 20.1826126838,
			"0.005": 5.68814912645,
			"0.006": 3.06979416118,
			"0.007": 2.91321319086,
			"0.008": 2.92810044772,
			"0.009": 2.5907216593,
			"0.01": 2.54910133121,
			"0.011": 1.42808806337,
			"0.012": 2.21612635954,
			"0.013": 4.33885598748,
			"0.014": 1.39457237799,
			"0.015": 0.0,
			"0.016": 0.0,
			"0.017": 0.0,
			"0.018": 0.0,
			"0.019": 0.0,
			"0.02": 0.0,
			"0.021": 0.0,
			"0.022": 0.0,
			"0.023": 0.0,
			"0.024": 0.0,
			"0.025": 0.0
		}
	}
}
