{
	 "smiles": "NS(=O)(=O)CCC1=CC=CC=C1", 
	 "Tm": 396.15, 
	 "num_atms": 23, 
	 "gaussian": { 
		 "optdone": 1, 
		 "sigma_profile": "yes", 
		 "theory": "DFT", 
		 "functional": "B3LYP", 
		 "basiset": "6-31G**", 
		 "properties": { 
			 "R2extent": 3031.3783, 
			 "electric_dipole_moment_norm": 3.27438993707, 
			 "electric_quadrupole_moment_norm": 14.9104457676, 
			 "total_energy": -914.807953868, 
			 "HOMO_LUMO_gap": 0.23964, 
			 "cosmo_polarized_energy": -15.72, 
			 "cosmo_cavitation_energy": 27.52, 
			 "cosmo_dispersion_energy": -20.7, 
			 "cosmo_repulsion_energy": 1.61, 
			 "cosmo_total_nonelectrostatic_energy": 8.43, 
			 "SMD_solvation_energy": 4.14 
		},
		"coords": [
			{
				"x": 1.5996477352,
				"y": -0.0402168706,
				"z": 3.1706746497,
				"element": "N" 
			},
			{
				"x": 0.5608266432,
				"y": 0.970007198,
				"z": 2.283008788,
				"element": "S" 
			},
			{
				"x": -0.4064255242,
				"y": 1.5776666259,
				"z": 3.2025341135,
				"element": "O" 
			},
			{
				"x": 1.426231999,
				"y": 1.7891459073,
				"z": 1.4247494491,
				"element": "O" 
			},
			{
				"x": -0.3481615245,
				"y": -0.2204375764,
				"z": 1.2646958112,
				"element": "C" 
			},
			{
				"x": 0.5127742042,
				"y": -0.9828039767,
				"z": 0.230591154,
				"element": "C" 
			},
			{
				"x": 0.2857483432,
				"y": -0.5512455342,
				"z": -1.206694559,
				"element": "C" 
			},
			{
				"x": -0.2875082612,
				"y": -1.43814964,
				"z": -2.1261172247,
				"element": "C" 
			},
			{
				"x": -0.5033977345,
				"y": -1.0565085787,
				"z": -3.4521243507,
				"element": "C" 
			},
			{
				"x": -0.1481341701,
				"y": 0.2239516702,
				"z": -3.876012308,
				"element": "C" 
			},
			{
				"x": 0.4243012213,
				"y": 1.1167719113,
				"z": -2.9665993221,
				"element": "C" 
			},
			{
				"x": 0.6417595355,
				"y": 0.7342570206,
				"z": -1.6428629146,
				"element": "C" 
			},
			{
				"x": 2.5463877913,
				"y": 0.3226336228,
				"z": 3.0928381058,
				"element": "H" 
			},
			{
				"x": 1.3013951926,
				"y": -0.0636489747,
				"z": 4.1428886735,
				"element": "H" 
			},
			{
				"x": -0.8262994598,
				"y": -0.8878909675,
				"z": 1.9858439895,
				"element": "H" 
			},
			{
				"x": -1.1302472977,
				"y": 0.378082817,
				"z": 0.7897407738,
				"element": "H" 
			},
			{
				"x": 1.5716299132,
				"y": -0.8799264708,
				"z": 0.4919011028,
				"element": "H" 
			},
			{
				"x": 0.2851554621,
				"y": -2.0487055368,
				"z": 0.3249885621,
				"element": "H" 
			},
			{
				"x": -0.566505364,
				"y": -2.4384370235,
				"z": -1.8025831851,
				"element": "H" 
			},
			{
				"x": -0.9488820377,
				"y": -1.7595501942,
				"z": -4.1504747204,
				"element": "H" 
			},
			{
				"x": -0.3146097943,
				"y": 0.5245575783,
				"z": -4.9065215496,
				"element": "H" 
			},
			{
				"x": 0.7060828088,
				"y": 2.1152172082,
				"z": -3.2893773696,
				"element": "H" 
			},
			{
				"x": 1.0870303186,
				"y": 1.4320297846,
				"z": -0.9393876693,
				"element": "H" 
			}
		],
		 "valence_orbital": [ 
			{
				"type": "occ",
				"energy": -0.31639,
				"method": "rhf"
			},
			{
				"type": "occ",
				"energy": -0.30227,
				"method": "rhf"
			},
			{
				"type": "occ",
				"energy": -0.29317,
				"method": "rhf"
			},
			{
				"type": "occ",
				"energy": -0.24789,
				"method": "rhf"
			},
			{
				"type": "occ",
				"energy": -0.24263,
				"method": "rhf"
			},
			{
				"type": "unocc",
				"energy": -0.00299,
				"method": "rhf"
			},
			{
				"type": "unocc",
				"energy": 0.00112,
				"method": "rhf"
			},
			{
				"type": "unocc",
				"energy": 0.04963,
				"method": "rhf"
			},
			{
				"type": "unocc",
				"energy": 0.06941,
				"method": "rhf"
			},
			{
				"type": "unocc",
				"energy": 0.08392,
				"method": "rhf"
			}
		],
		"cosmo_sigma_profile": { 
			"-0.025": 0.0,
			"-0.024": 0.0,
			"-0.023": 0.0,
			"-0.022": 0.0,
			"-0.021": 0.0,
			"-0.02": 0.0,
			"-0.019": 0.0,
			"-0.018": 0.0,
			"-0.017": 0.0,
			"-0.016": 0.0,
			"-0.015": 0.730546054017,
			"-0.014": 2.43788208141,
			"-0.013": 2.30906608571,
			"-0.012": 2.36643961027,
			"-0.011": 2.15338194169,
			"-0.01": 2.36726260045,
			"-0.009": 2.39044285835,
			"-0.008": 5.89864199119,
			"-0.007": 5.48567882068,
			"-0.006": 9.10777552226,
			"-0.005": 17.3042953634,
			"-0.004": 16.5945281949,
			"-0.003": 17.5388127893,
			"-0.002": 12.5122375925,
			"-0.001": 11.3755450838,
			"0.0": 10.604338015,
			"0.001": 10.681716282,
			"0.002": 9.81451468123,
			"0.003": 10.6591710014,
			"0.004": 11.5149587972,
			"0.005": 9.56894152661,
			"0.006": 11.6205571533,
			"0.007": 4.1124218971,
			"0.008": 3.82826781361,
			"0.009": 3.99004893941,
			"0.01": 5.46681604297,
			"0.011": 9.29109157498,
			"0.012": 6.15424906698,
			"0.013": 0.0637516542934,
			"0.014": 0.0,
			"0.015": 0.0,
			"0.016": 0.0,
			"0.017": 0.0,
			"0.018": 0.0,
			"0.019": 0.0,
			"0.02": 0.0,
			"0.021": 0.0,
			"0.022": 0.0,
			"0.023": 0.0,
			"0.024": 0.0,
			"0.025": 0.0
		}
	}
}
