{
	 "smiles": "CC(=O)OCC(=O)C1CCC2C3CCC4CC(O)CCC4(C)C3C(=O)CC12C", 
	 "Tm": 449.15, 
	 "num_atms": 62, 
	 "gaussian": { 
		 "optdone": 1, 
		 "sigma_profile": "yes", 
		 "theory": "DFT", 
		 "functional": "B3LYP", 
		 "basiset": "6-31G**", 
		 "properties": { 
			 "R2extent": 10880.9163, 
			 "electric_dipole_moment_norm": 3.61042143523, 
			 "electric_quadrupole_moment_norm": 19.4059094165, 
			 "total_energy": -1273.06902986, 
			 "HOMO_LUMO_gap": 0.18545, 
			 "cosmo_polarized_energy": -19.81, 
			 "cosmo_cavitation_energy": 53.28, 
			 "cosmo_dispersion_energy": -35.46, 
			 "cosmo_repulsion_energy": 2.58, 
			 "cosmo_total_nonelectrostatic_energy": 20.41, 
			 "SMD_solvation_energy": 9.74 
		},
		"coords": [
			{
				"x": 3.8264022666,
				"y": -2.5128705844,
				"z": -0.1221872694,
				"element": "C" 
			},
			{
				"x": 3.7933200624,
				"y": -2.0460047175,
				"z": -1.556236944,
				"element": "C" 
			},
			{
				"x": 4.2912142125,
				"y": -2.610753423,
				"z": -2.5014659682,
				"element": "O" 
			},
			{
				"x": 3.1071495906,
				"y": -0.8727277671,
				"z": -1.6723896342,
				"element": "O" 
			},
			{
				"x": 3.0565502787,
				"y": -0.3285720258,
				"z": -3.0098003421,
				"element": "C" 
			},
			{
				"x": 2.3916464932,
				"y": 1.0538904309,
				"z": -2.9112853199,
				"element": "C" 
			},
			{
				"x": 3.1168679743,
				"y": 2.0313768349,
				"z": -2.8727484757,
				"element": "O" 
			},
			{
				"x": 0.8719135285,
				"y": 1.2403956133,
				"z": -2.8999969276,
				"element": "C" 
			},
			{
				"x": 0.0355817387,
				"y": 0.1141997764,
				"z": -3.5379935245,
				"element": "C" 
			},
			{
				"x": -0.2729264756,
				"y": -0.8524159951,
				"z": -2.3877305305,
				"element": "C" 
			},
			{
				"x": -0.4997900817,
				"y": 0.047354004,
				"z": -1.146676463,
				"element": "C" 
			},
			{
				"x": 0.0052423622,
				"y": -0.6059882929,
				"z": 0.1625075003,
				"element": "C" 
			},
			{
				"x": -0.6723745956,
				"y": -1.9502363126,
				"z": 0.4778931461,
				"element": "C" 
			},
			{
				"x": -2.0596464474,
				"y": -1.7760035465,
				"z": 1.0905187341,
				"element": "C" 
			},
			{
				"x": -1.970555925,
				"y": -1.0117117357,
				"z": 2.4226302933,
				"element": "C" 
			},
			{
				"x": -3.3342170713,
				"y": -0.969674495,
				"z": 3.1545284424,
				"element": "C" 
			},
			{
				"x": -4.3392370617,
				"y": 0.0464412945,
				"z": 2.6037663516,
				"element": "C" 
			},
			{
				"x": -4.8066707732,
				"y": -0.4395127293,
				"z": 1.338746846,
				"element": "O" 
			},
			{
				"x": -3.6985350931,
				"y": 1.4330070311,
				"z": 2.4696537241,
				"element": "C" 
			},
			{
				"x": -2.3790619607,
				"y": 1.389449731,
				"z": 1.6841209253,
				"element": "C" 
			},
			{
				"x": -1.3307682926,
				"y": 0.4127774246,
				"z": 2.2846945728,
				"element": "C" 
			},
			{
				"x": -0.9080027849,
				"y": 0.8983277504,
				"z": 3.6948888455,
				"element": "C" 
			},
			{
				"x": -0.0157303031,
				"y": 0.3404156399,
				"z": 1.4041780284,
				"element": "C" 
			},
			{
				"x": 0.5719479119,
				"y": 1.7142762889,
				"z": 1.0199355372,
				"element": "C" 
			},
			{
				"x": 0.5453920325,
				"y": 2.6878897091,
				"z": 1.7535145705,
				"element": "O" 
			},
			{
				"x": 1.228253661,
				"y": 1.7901674816,
				"z": -0.351124261,
				"element": "C" 
			},
			{
				"x": 0.2175899799,
				"y": 1.4216391792,
				"z": -1.4648844895,
				"element": "C" 
			},
			{
				"x": -0.8230022955,
				"y": 2.5558270939,
				"z": -1.5826093828,
				"element": "C" 
			},
			{
				"x": 4.2004713685,
				"y": -1.7178932593,
				"z": 0.528498641,
				"element": "H" 
			},
			{
				"x": 2.814751758,
				"y": -2.7647018031,
				"z": 0.2114448622,
				"element": "H" 
			},
			{
				"x": 4.4643663105,
				"y": -3.3927260366,
				"z": -0.046484071,
				"element": "H" 
			},
			{
				"x": 2.5231004532,
				"y": -1.0234220859,
				"z": -3.6635297863,
				"element": "H" 
			},
			{
				"x": 4.0715064132,
				"y": -0.1905492118,
				"z": -3.3865843536,
				"element": "H" 
			},
			{
				"x": 0.7486412662,
				"y": 2.18192181,
				"z": -3.4436743353,
				"element": "H" 
			},
			{
				"x": -0.8953500132,
				"y": 0.547859341,
				"z": -3.9208251103,
				"element": "H" 
			},
			{
				"x": 0.5242470921,
				"y": -0.3651930536,
				"z": -4.3927504528,
				"element": "H" 
			},
			{
				"x": 0.5845086763,
				"y": -1.5130072478,
				"z": -2.2115923059,
				"element": "H" 
			},
			{
				"x": -1.1296127548,
				"y": -1.4970361865,
				"z": -2.6059167817,
				"element": "H" 
			},
			{
				"x": -1.5740537567,
				"y": 0.2440881176,
				"z": -1.0574116459,
				"element": "H" 
			},
			{
				"x": 1.0634412402,
				"y": -0.8277812602,
				"z": -0.0228950696,
				"element": "H" 
			},
			{
				"x": -0.7188418152,
				"y": -2.569543825,
				"z": -0.4248600923,
				"element": "H" 
			},
			{
				"x": -0.04135536,
				"y": -2.5001879757,
				"z": 1.1918917871,
				"element": "H" 
			},
			{
				"x": -2.5093072834,
				"y": -2.7590312974,
				"z": 1.2775913136,
				"element": "H" 
			},
			{
				"x": -2.7385920118,
				"y": -1.2672688342,
				"z": 0.4000906761,
				"element": "H" 
			},
			{
				"x": -1.2928458687,
				"y": -1.5974119848,
				"z": 3.0638941545,
				"element": "H" 
			},
			{
				"x": -3.1795521322,
				"y": -0.7347717377,
				"z": 4.2135805924,
				"element": "H" 
			},
			{
				"x": -3.7916009365,
				"y": -1.9653464589,
				"z": 3.1225881197,
				"element": "H" 
			},
			{
				"x": -5.1889449182,
				"y": 0.1068617857,
				"z": 3.3036550415,
				"element": "H" 
			},
			{
				"x": -5.4275247487,
				"y": 0.2120517264,
				"z": 0.9871598023,
				"element": "H" 
			},
			{
				"x": -4.4026936802,
				"y": 2.1154166779,
				"z": 1.9726624277,
				"element": "H" 
			},
			{
				"x": -3.5385537529,
				"y": 1.8485365083,
				"z": 3.4715138134,
				"element": "H" 
			},
			{
				"x": -1.9531311657,
				"y": 2.3957490138,
				"z": 1.6422034707,
				"element": "H" 
			},
			{
				"x": -2.6121911861,
				"y": 1.0919989909,
				"z": 0.6566153657,
				"element": "H" 
			},
			{
				"x": -1.752551606,
				"y": 0.9432282314,
				"z": 4.3869023135,
				"element": "H" 
			},
			{
				"x": -0.452286497,
				"y": 1.887048435,
				"z": 3.6413799136,
				"element": "H" 
			},
			{
				"x": -0.1745748228,
				"y": 0.2081136187,
				"z": 4.128926661,
				"element": "H" 
			},
			{
				"x": 0.743848372,
				"y": -0.0768624306,
				"z": 2.0858020793,
				"element": "H" 
			},
			{
				"x": 1.6263787288,
				"y": 2.7976226398,
				"z": -0.4906360259,
				"element": "H" 
			},
			{
				"x": 2.075505775,
				"y": 1.0946815954,
				"z": -0.3605318752,
				"element": "H" 
			},
			{
				"x": -1.3861938907,
				"y": 2.6817881984,
				"z": -0.6544149694,
				"element": "H" 
			},
			{
				"x": -0.3344728809,
				"y": 3.5097428923,
				"z": -1.8074194439,
				"element": "H" 
			},
			{
				"x": -1.5444893035,
				"y": 2.3468614475,
				"z": -2.3801227018,
				"element": "H" 
			}
		],
		 "valence_orbital": [ 
			{
				"type": "occ",
				"energy": -0.28582,
				"method": "rhf"
			},
			{
				"type": "occ",
				"energy": -0.28248,
				"method": "rhf"
			},
			{
				"type": "occ",
				"energy": -0.26275,
				"method": "rhf"
			},
			{
				"type": "occ",
				"energy": -0.25417,
				"method": "rhf"
			},
			{
				"type": "occ",
				"energy": -0.23074,
				"method": "rhf"
			},
			{
				"type": "unocc",
				"energy": -0.04529,
				"method": "rhf"
			},
			{
				"type": "unocc",
				"energy": -0.0133,
				"method": "rhf"
			},
			{
				"type": "unocc",
				"energy": -0.00237,
				"method": "rhf"
			},
			{
				"type": "unocc",
				"energy": 0.05682,
				"method": "rhf"
			},
			{
				"type": "unocc",
				"energy": 0.06123,
				"method": "rhf"
			}
		],
		"cosmo_sigma_profile": { 
			"-0.025": 0.0,
			"-0.024": 0.0,
			"-0.023": 0.0,
			"-0.022": 0.0,
			"-0.021": 0.0,
			"-0.02": 0.0,
			"-0.019": 0.0,
			"-0.018": 0.0,
			"-0.017": 0.0,
			"-0.016": 0.0,
			"-0.015": 0.246188648799,
			"-0.014": 0.816842277723,
			"-0.013": 1.35187591063,
			"-0.012": 0.661651910827,
			"-0.011": 0.865851798394,
			"-0.01": 0.989978980673,
			"-0.009": 1.09848407316,
			"-0.008": 2.82126106786,
			"-0.007": 4.54031482575,
			"-0.006": 11.5668924986,
			"-0.005": 17.3333924862,
			"-0.004": 29.588680353,
			"-0.003": 48.4580530461,
			"-0.002": 61.1231159327,
			"-0.001": 53.0879445081,
			"0.0": 45.9436522059,
			"0.001": 31.9792283053,
			"0.002": 15.6591195204,
			"0.003": 10.499174979,
			"0.004": 7.39529520432,
			"0.005": 7.43882375854,
			"0.006": 5.43313534049,
			"0.007": 5.92297886735,
			"0.008": 5.94690643538,
			"0.009": 6.40439507943,
			"0.01": 8.06302771514,
			"0.011": 11.1033808182,
			"0.012": 9.29345215358,
			"0.013": 3.20245841799,
			"0.014": 1.24717393949,
			"0.015": 0.511153471021,
			"0.016": 0.0,
			"0.017": 0.0,
			"0.018": 0.0,
			"0.019": 0.0,
			"0.02": 0.0,
			"0.021": 0.0,
			"0.022": 0.0,
			"0.023": 0.0,
			"0.024": 0.0,
			"0.025": 0.0
		}
	}
}
