{
	 "smiles": "ClC1=CC=CC(=C1Cl)S(Cl)(=O)=O", 
	 "Tm": 335.15, 
	 "num_atms": 15, 
	 "gaussian": { 
		 "optdone": 1, 
		 "sigma_profile": "yes", 
		 "theory": "DFT", 
		 "functional": "B3LYP", 
		 "basiset": "6-31G**", 
		 "properties": { 
			 "R2extent": 3945.5091, 
			 "electric_dipole_moment_norm": 4.90289278794, 
			 "electric_quadrupole_moment_norm": 3.50700652551, 
			 "total_energy": -2159.5716241, 
			 "HOMO_LUMO_gap": 0.1808, 
			 "cosmo_polarized_energy": -8.87, 
			 "cosmo_cavitation_energy": 26.2, 
			 "cosmo_dispersion_energy": -20.15, 
			 "cosmo_repulsion_energy": 1.55, 
			 "cosmo_total_nonelectrostatic_energy": 7.6, 
			 "SMD_solvation_energy": 2.81 
		},
		"coords": [
			{
				"x": -1.2048685029,
				"y": -4.1508967467,
				"z": -0.4129183632,
				"element": "Cl" 
			},
			{
				"x": -0.5665167156,
				"y": -2.533797717,
				"z": -0.5268219141,
				"element": "C" 
			},
			{
				"x": -0.0855564174,
				"y": -2.0974434005,
				"z": -1.7637756559,
				"element": "C" 
			},
			{
				"x": 0.438027767,
				"y": -0.8164883544,
				"z": -1.9033915723,
				"element": "C" 
			},
			{
				"x": 0.483502246,
				"y": 0.039869729,
				"z": -0.8065423358,
				"element": "C" 
			},
			{
				"x": -0.003642585,
				"y": -0.3957284251,
				"z": 0.4269804732,
				"element": "C" 
			},
			{
				"x": -0.5342442158,
				"y": -1.6882358632,
				"z": 0.5956438757,
				"element": "C" 
			},
			{
				"x": -1.1156215103,
				"y": -2.2538918323,
				"z": 2.1253953582,
				"element": "Cl" 
			},
			{
				"x": 0.0536541684,
				"y": 0.8354818123,
				"z": 1.7483751399,
				"element": "S" 
			},
			{
				"x": 1.5426062562,
				"y": 0.0246323167,
				"z": 3.0209736657,
				"element": "Cl" 
			},
			{
				"x": 0.6242199687,
				"y": 2.0550553758,
				"z": 1.1905078515,
				"element": "O" 
			},
			{
				"x": -1.1947199621,
				"y": 0.8520329539,
				"z": 2.4939593234,
				"element": "O" 
			},
			{
				"x": -0.1267762886,
				"y": -2.7761450524,
				"z": -2.6082333635,
				"element": "H" 
			},
			{
				"x": 0.8111398135,
				"y": -0.4848702818,
				"z": -2.8663787929,
				"element": "H" 
			},
			{
				"x": 0.8871959779,
				"y": 1.0412254857,
				"z": -0.8900736898,
				"element": "H" 
			}
		],
		 "valence_orbital": [ 
			{
				"type": "occ",
				"energy": -0.33806,
				"method": "rhf"
			},
			{
				"type": "occ",
				"energy": -0.3241,
				"method": "rhf"
			},
			{
				"type": "occ",
				"energy": -0.32002,
				"method": "rhf"
			},
			{
				"type": "occ",
				"energy": -0.29782,
				"method": "rhf"
			},
			{
				"type": "occ",
				"energy": -0.27851,
				"method": "rhf"
			},
			{
				"type": "unocc",
				"energy": -0.09771,
				"method": "rhf"
			},
			{
				"type": "unocc",
				"energy": -0.06401,
				"method": "rhf"
			},
			{
				"type": "unocc",
				"energy": -0.0548,
				"method": "rhf"
			},
			{
				"type": "unocc",
				"energy": -0.02139,
				"method": "rhf"
			},
			{
				"type": "unocc",
				"energy": 0.03746,
				"method": "rhf"
			}
		],
		"cosmo_sigma_profile": { 
			"-0.025": 0.0,
			"-0.024": 0.0,
			"-0.023": 0.0,
			"-0.022": 0.0,
			"-0.021": 0.0,
			"-0.02": 0.0,
			"-0.019": 0.0,
			"-0.018": 0.0,
			"-0.017": 0.0,
			"-0.016": 0.0,
			"-0.015": 0.0,
			"-0.014": 0.0,
			"-0.013": 0.0,
			"-0.012": 0.0,
			"-0.011": 0.0,
			"-0.01": 0.302628498217,
			"-0.009": 4.34068093065,
			"-0.008": 7.42843473353,
			"-0.007": 5.96845733464,
			"-0.006": 4.99568899498,
			"-0.005": 7.21453798812,
			"-0.004": 9.47366608745,
			"-0.003": 15.470536634,
			"-0.002": 23.0919545598,
			"-0.001": 20.8851494847,
			"0.0": 18.924118928,
			"0.001": 15.3629668926,
			"0.002": 23.8323795447,
			"0.003": 26.4203564428,
			"0.004": 7.98672359604,
			"0.005": 4.33551700577,
			"0.006": 3.41689415041,
			"0.007": 8.32359825961,
			"0.008": 9.10402681427,
			"0.009": 1.5610793677,
			"0.01": 0.0,
			"0.011": 0.0,
			"0.012": 0.0,
			"0.013": 0.0,
			"0.014": 0.0,
			"0.015": 0.0,
			"0.016": 0.0,
			"0.017": 0.0,
			"0.018": 0.0,
			"0.019": 0.0,
			"0.02": 0.0,
			"0.021": 0.0,
			"0.022": 0.0,
			"0.023": 0.0,
			"0.024": 0.0,
			"0.025": 0.0
		}
	}
}
