{
	 "smiles": "FC1=CC=C(C=C1)C1=NN=C(S)O1", 
	 "Tm": 478.15, 
	 "num_atms": 18, 
	 "gaussian": { 
		 "optdone": 1, 
		 "sigma_profile": "yes", 
		 "theory": "DFT", 
		 "functional": "B3LYP", 
		 "basiset": "6-31G**", 
		 "properties": { 
			 "R2extent": 4646.8819, 
			 "electric_dipole_moment_norm": 3.68519242781, 
			 "electric_quadrupole_moment_norm": 17.7314081945, 
			 "total_energy": -990.573640315, 
			 "HOMO_LUMO_gap": 0.17959, 
			 "cosmo_polarized_energy": -11.76, 
			 "cosmo_cavitation_energy": 26.0, 
			 "cosmo_dispersion_energy": -19.7, 
			 "cosmo_repulsion_energy": 1.47, 
			 "cosmo_total_nonelectrostatic_energy": 7.78, 
			 "SMD_solvation_energy": 3.01 
		},
		"coords": [
			{
				"x": -0.7448518413,
				"y": -2.8077760748,
				"z": -3.1750434828,
				"element": "F" 
			},
			{
				"x": -0.8755798019,
				"y": -2.102995772,
				"z": -2.0357588383,
				"element": "C" 
			},
			{
				"x": -1.2931940139,
				"y": -0.7762080167,
				"z": -2.1085881584,
				"element": "C" 
			},
			{
				"x": -1.4273982581,
				"y": -0.0507596288,
				"z": -0.9308968925,
				"element": "C" 
			},
			{
				"x": -1.1449815846,
				"y": -0.6515732617,
				"z": 0.3086184801,
				"element": "C" 
			},
			{
				"x": -0.725806152,
				"y": -1.9905415501,
				"z": 0.351936321,
				"element": "C" 
			},
			{
				"x": -0.5892861659,
				"y": -2.723131075,
				"z": -0.8241549289,
				"element": "C" 
			},
			{
				"x": -1.2952919761,
				"y": 0.1350805013,
				"z": 1.5247931137,
				"element": "C" 
			},
			{
				"x": -1.6696444974,
				"y": 1.3722109555,
				"z": 1.6538270365,
				"element": "N" 
			},
			{
				"x": -1.655117927,
				"y": 1.6648804695,
				"z": 3.0179495895,
				"element": "N" 
			},
			{
				"x": -1.2714852436,
				"y": 0.5775406204,
				"z": 3.607086432,
				"element": "C" 
			},
			{
				"x": -1.0644655399,
				"y": 0.3417650434,
				"z": 5.3352164325,
				"element": "S" 
			},
			{
				"x": -1.0204287707,
				"y": -0.4453243627,
				"z": 2.7433259146,
				"element": "O" 
			},
			{
				"x": -1.5053245687,
				"y": -0.3339091525,
				"z": -3.0756228509,
				"element": "H" 
			},
			{
				"x": -1.7505518426,
				"y": 0.9842443675,
				"z": -0.9531608794,
				"element": "H" 
			},
			{
				"x": -0.5070910145,
				"y": -2.4570379697,
				"z": 1.3062450915,
				"element": "H" 
			},
			{
				"x": -0.2670772269,
				"y": -3.7583824352,
				"z": -0.8149864204,
				"element": "H" 
			},
			{
				"x": -0.6734235748,
				"y": -0.9418826585,
				"z": 5.2215140403,
				"element": "H" 
			}
		],
		 "valence_orbital": [ 
			{
				"type": "occ",
				"energy": -0.32968,
				"method": "rhf"
			},
			{
				"type": "occ",
				"energy": -0.28497,
				"method": "rhf"
			},
			{
				"type": "occ",
				"energy": -0.28059,
				"method": "rhf"
			},
			{
				"type": "occ",
				"energy": -0.27831,
				"method": "rhf"
			},
			{
				"type": "occ",
				"energy": -0.23436,
				"method": "rhf"
			},
			{
				"type": "unocc",
				"energy": -0.05477,
				"method": "rhf"
			},
			{
				"type": "unocc",
				"energy": -0.02718,
				"method": "rhf"
			},
			{
				"type": "unocc",
				"energy": -0.00834,
				"method": "rhf"
			},
			{
				"type": "unocc",
				"energy": 0.00803,
				"method": "rhf"
			},
			{
				"type": "unocc",
				"energy": 0.04495,
				"method": "rhf"
			}
		],
		"cosmo_sigma_profile": { 
			"-0.025": 0.0,
			"-0.024": 0.0,
			"-0.023": 0.0,
			"-0.022": 0.0,
			"-0.021": 0.0,
			"-0.02": 0.0,
			"-0.019": 0.0,
			"-0.018": 0.0,
			"-0.017": 0.0,
			"-0.016": 0.0,
			"-0.015": 0.0,
			"-0.014": 0.210362151653,
			"-0.013": 1.98457039888,
			"-0.012": 1.80199944494,
			"-0.011": 1.17095129589,
			"-0.01": 1.77742113817,
			"-0.009": 0.999986760003,
			"-0.008": 4.52793914473,
			"-0.007": 8.14785958688,
			"-0.006": 8.67882633276,
			"-0.005": 10.5151718861,
			"-0.004": 9.93589630402,
			"-0.003": 12.7072656291,
			"-0.002": 13.3053974278,
			"-0.001": 16.0591098751,
			"0.0": 22.7305700672,
			"0.001": 23.9411699063,
			"0.002": 21.0204682675,
			"0.003": 13.9072823053,
			"0.004": 13.2140393763,
			"0.005": 4.96097663404,
			"0.006": 1.97153578253,
			"0.007": 2.10726897728,
			"0.008": 2.18103724728,
			"0.009": 2.2256905247,
			"0.01": 2.83778668508,
			"0.011": 3.23345698405,
			"0.012": 2.89306793267,
			"0.013": 2.38503778321,
			"0.014": 1.67679245215,
			"0.015": 0.176343646422,
			"0.016": 0.0,
			"0.017": 0.0,
			"0.018": 0.0,
			"0.019": 0.0,
			"0.02": 0.0,
			"0.021": 0.0,
			"0.022": 0.0,
			"0.023": 0.0,
			"0.024": 0.0,
			"0.025": 0.0
		}
	}
}
