{
	 "smiles": "NC1=NC(=CS1)C1=C(F)C=CC=C1", 
	 "Tm": 376.15, 
	 "num_atms": 20, 
	 "gaussian": { 
		 "optdone": 1, 
		 "sigma_profile": "yes", 
		 "theory": "DFT", 
		 "functional": "B3LYP", 
		 "basiset": "6-31G**", 
		 "properties": { 
			 "R2extent": 3977.107, 
			 "electric_dipole_moment_norm": 1.03865318562, 
			 "electric_quadrupole_moment_norm": 17.6631907389, 
			 "total_energy": -954.696940048, 
			 "HOMO_LUMO_gap": 0.17804, 
			 "cosmo_polarized_energy": -12.15, 
			 "cosmo_cavitation_energy": 26.67, 
			 "cosmo_dispersion_energy": -20.17, 
			 "cosmo_repulsion_energy": 1.54, 
			 "cosmo_total_nonelectrostatic_energy": 8.04, 
			 "SMD_solvation_energy": 3.53 
		},
		"coords": [
			{
				"x": -0.8234024714,
				"y": 2.8345114325,
				"z": 4.0437421926,
				"element": "N" 
			},
			{
				"x": 0.1096126861,
				"y": 2.4525138053,
				"z": 3.1051265356,
				"element": "C" 
			},
			{
				"x": -0.167994828,
				"y": 1.7437018945,
				"z": 2.0528083508,
				"element": "N" 
			},
			{
				"x": 0.9491337575,
				"y": 1.5920052729,
				"z": 1.2450930401,
				"element": "C" 
			},
			{
				"x": 2.0938376667,
				"y": 2.1859170241,
				"z": 1.7031773533,
				"element": "C" 
			},
			{
				"x": 1.7886744678,
				"y": 3.0105351407,
				"z": 3.2100835616,
				"element": "S" 
			},
			{
				"x": 0.8594194711,
				"y": 0.840003868,
				"z": -0.0225179724,
				"element": "C" 
			},
			{
				"x": 0.0892515381,
				"y": -0.3252115447,
				"z": -0.1515399637,
				"element": "C" 
			},
			{
				"x": -0.5872995616,
				"y": -0.7997047775,
				"z": 0.911873664,
				"element": "F" 
			},
			{
				"x": 0.0117273361,
				"y": -1.0413081424,
				"z": -1.3403472335,
				"element": "C" 
			},
			{
				"x": 0.7274007854,
				"y": -0.5997613732,
				"z": -2.4529187516,
				"element": "C" 
			},
			{
				"x": 1.5096848816,
				"y": 0.5531897655,
				"z": -2.3617081947,
				"element": "C" 
			},
			{
				"x": 1.5659727258,
				"y": 1.2606981804,
				"z": -1.1625597992,
				"element": "C" 
			},
			{
				"x": -1.6851399834,
				"y": 2.3091083165,
				"z": 3.968059278,
				"element": "H" 
			},
			{
				"x": -0.4948955361,
				"y": 2.9419441461,
				"z": 4.9929730023,
				"element": "H" 
			},
			{
				"x": 3.0861901168,
				"y": 2.1560475827,
				"z": 1.2788290167,
				"element": "H" 
			},
			{
				"x": -0.600438228,
				"y": -1.9363640245,
				"z": -1.3701728458,
				"element": "H" 
			},
			{
				"x": 0.6696698913,
				"y": -1.1536904771,
				"z": -3.385020624,
				"element": "H" 
			},
			{
				"x": 2.0626647862,
				"y": 0.9093080076,
				"z": -3.225357739,
				"element": "H" 
			},
			{
				"x": 2.1471304981,
				"y": 2.1756559027,
				"z": -1.0998228711,
				"element": "H" 
			}
		],
		 "valence_orbital": [ 
			{
				"type": "occ",
				"energy": -0.2812,
				"method": "rhf"
			},
			{
				"type": "occ",
				"energy": -0.26979,
				"method": "rhf"
			},
			{
				"type": "occ",
				"energy": -0.25313,
				"method": "rhf"
			},
			{
				"type": "occ",
				"energy": -0.24055,
				"method": "rhf"
			},
			{
				"type": "occ",
				"energy": -0.20453,
				"method": "rhf"
			},
			{
				"type": "unocc",
				"energy": -0.02649,
				"method": "rhf"
			},
			{
				"type": "unocc",
				"energy": 0.00225,
				"method": "rhf"
			},
			{
				"type": "unocc",
				"energy": 0.00536,
				"method": "rhf"
			},
			{
				"type": "unocc",
				"energy": 0.01951,
				"method": "rhf"
			},
			{
				"type": "unocc",
				"energy": 0.07251,
				"method": "rhf"
			}
		],
		"cosmo_sigma_profile": { 
			"-0.025": 0.0,
			"-0.024": 0.0,
			"-0.023": 0.0,
			"-0.022": 0.0,
			"-0.021": 0.0,
			"-0.02": 0.0,
			"-0.019": 0.0,
			"-0.018": 0.0,
			"-0.017": 0.0,
			"-0.016": 0.0,
			"-0.015": 0.371195284339,
			"-0.014": 1.91692606988,
			"-0.013": 2.93720697207,
			"-0.012": 2.1875148213,
			"-0.011": 2.78375928915,
			"-0.01": 2.68544372942,
			"-0.009": 1.97332603231,
			"-0.008": 3.04662003482,
			"-0.007": 6.13807083005,
			"-0.006": 10.9439339157,
			"-0.005": 12.3264598768,
			"-0.004": 12.060805059,
			"-0.003": 9.8764390008,
			"-0.002": 8.53707742135,
			"-0.001": 8.66186336845,
			"0.0": 11.7510604699,
			"0.001": 17.1178993521,
			"0.002": 20.6451785966,
			"0.003": 22.9327567261,
			"0.004": 25.2785046144,
			"0.005": 12.4923092684,
			"0.006": 4.32651878049,
			"0.007": 2.61939521594,
			"0.008": 2.77044496417,
			"0.009": 2.43269754423,
			"0.01": 2.04410421105,
			"0.011": 2.07854968303,
			"0.012": 1.42167368594,
			"0.013": 1.11423941174,
			"0.014": 0.737064959504,
			"0.015": 0.294971284976,
			"0.016": 0.0,
			"0.017": 0.0,
			"0.018": 0.0,
			"0.019": 0.0,
			"0.02": 0.0,
			"0.021": 0.0,
			"0.022": 0.0,
			"0.023": 0.0,
			"0.024": 0.0,
			"0.025": 0.0
		}
	}
}
