{
	 "smiles": "CN(C)C(=O)NC1=CC=C(OC2=CC=C(Cl)C=C2)C=C1", 
	 "Tm": 424.15, 
	 "num_atms": 35, 
	 "gaussian": { 
		 "optdone": 1, 
		 "sigma_profile": "yes", 
		 "theory": "DFT", 
		 "functional": "B3LYP", 
		 "basiset": "6-31G**", 
		 "properties": { 
			 "R2extent": 14119.882, 
			 "electric_dipole_moment_norm": 3.0051810428, 
			 "electric_quadrupole_moment_norm": 19.2066806815, 
			 "total_energy": -1300.78597705, 
			 "HOMO_LUMO_gap": 0.18912, 
			 "cosmo_polarized_energy": -13.74, 
			 "cosmo_cavitation_energy": 41.0, 
			 "cosmo_dispersion_energy": -29.15, 
			 "cosmo_repulsion_energy": 2.24, 
			 "cosmo_total_nonelectrostatic_energy": 14.09, 
			 "SMD_solvation_energy": 8.12 
		},
		"coords": [
			{
				"x": 3.7393571711,
				"y": 0.6528568823,
				"z": 0.6629823265,
				"element": "C" 
			},
			{
				"x": 3.2596454412,
				"y": -0.5985767185,
				"z": 0.0862291144,
				"element": "N" 
			},
			{
				"x": 4.2219466319,
				"y": -1.3040164768,
				"z": -0.7512662044,
				"element": "C" 
			},
			{
				"x": 2.2534509565,
				"y": -1.3567383088,
				"z": 0.6478607106,
				"element": "C" 
			},
			{
				"x": 2.1961198623,
				"y": -2.5773882748,
				"z": 0.5453796029,
				"element": "O" 
			},
			{
				"x": 1.2753590546,
				"y": -0.6698027091,
				"z": 1.3889117474,
				"element": "N" 
			},
			{
				"x": 0.5742521186,
				"y": 0.5131121587,
				"z": 1.0516377071,
				"element": "C" 
			},
			{
				"x": 0.6834775073,
				"y": 1.150069365,
				"z": -0.193117765,
				"element": "C" 
			},
			{
				"x": -0.0542285727,
				"y": 2.3027533584,
				"z": -0.461509183,
				"element": "C" 
			},
			{
				"x": -0.9141912523,
				"y": 2.8267318087,
				"z": 0.5010246169,
				"element": "C" 
			},
			{
				"x": -1.5584922798,
				"y": 4.0215083361,
				"z": 0.2181316267,
				"element": "O" 
			},
			{
				"x": -2.9281178627,
				"y": 4.1151027422,
				"z": 0.3261846726,
				"element": "C" 
			},
			{
				"x": -3.4447667592,
				"y": 5.4035101758,
				"z": 0.4959782704,
				"element": "C" 
			},
			{
				"x": -4.82140569,
				"y": 5.6006834773,
				"z": 0.5619185224,
				"element": "C" 
			},
			{
				"x": -5.6773620035,
				"y": 4.5030398675,
				"z": 0.4627687508,
				"element": "C" 
			},
			{
				"x": -7.4174715817,
				"y": 4.7466809374,
				"z": 0.555165216,
				"element": "Cl" 
			},
			{
				"x": -5.1698253733,
				"y": 3.2166422851,
				"z": 0.2914011431,
				"element": "C" 
			},
			{
				"x": -3.7903188278,
				"y": 3.0196062277,
				"z": 0.2191548483,
				"element": "C" 
			},
			{
				"x": -1.0366893537,
				"y": 2.2010548767,
				"z": 1.7444233053,
				"element": "C" 
			},
			{
				"x": -0.2940110425,
				"y": 1.0559268643,
				"z": 2.013967084,
				"element": "C" 
			},
			{
				"x": 3.0873956975,
				"y": 0.9803879121,
				"z": 1.4698441538,
				"element": "H" 
			},
			{
				"x": 4.7489231807,
				"y": 0.5116211162,
				"z": 1.0721297518,
				"element": "H" 
			},
			{
				"x": 3.78427386,
				"y": 1.4453195627,
				"z": -0.0931781677,
				"element": "H" 
			},
			{
				"x": 3.7355551667,
				"y": -2.1600418418,
				"z": -1.2159671204,
				"element": "H" 
			},
			{
				"x": 4.5939303491,
				"y": -0.6235415983,
				"z": -1.5242523993,
				"element": "H" 
			},
			{
				"x": 5.0780369073,
				"y": -1.6687458985,
				"z": -0.1664227426,
				"element": "H" 
			},
			{
				"x": 0.723280084,
				"y": -1.3472183553,
				"z": 1.8995220602,
				"element": "H" 
			},
			{
				"x": 1.3351444467,
				"y": 0.7381118674,
				"z": -0.954558829,
				"element": "H" 
			},
			{
				"x": 0.0264775925,
				"y": 2.800231773,
				"z": -1.4224365186,
				"element": "H" 
			},
			{
				"x": -2.7567824735,
				"y": 6.2387619737,
				"z": 0.572138866,
				"element": "H" 
			},
			{
				"x": -5.2273979871,
				"y": 6.5974151904,
				"z": 0.6942087264,
				"element": "H" 
			},
			{
				"x": -5.8457547223,
				"y": 2.3727069122,
				"z": 0.2080442985,
				"element": "H" 
			},
			{
				"x": -3.3918252625,
				"y": 2.021714547,
				"z": 0.0767452576,
				"element": "H" 
			},
			{
				"x": -1.6980331986,
				"y": 2.6165422995,
				"z": 2.4976347918,
				"element": "H" 
			},
			{
				"x": -0.3742517845,
				"y": 0.5787776646,
				"z": 2.9869217585,
				"element": "H" 
			}
		],
		 "valence_orbital": [ 
			{
				"type": "occ",
				"energy": -0.26691,
				"method": "rhf"
			},
			{
				"type": "occ",
				"energy": -0.26453,
				"method": "rhf"
			},
			{
				"type": "occ",
				"energy": -0.24157,
				"method": "rhf"
			},
			{
				"type": "occ",
				"energy": -0.23401,
				"method": "rhf"
			},
			{
				"type": "occ",
				"energy": -0.21274,
				"method": "rhf"
			},
			{
				"type": "unocc",
				"energy": -0.02362,
				"method": "rhf"
			},
			{
				"type": "unocc",
				"energy": -0.01409,
				"method": "rhf"
			},
			{
				"type": "unocc",
				"energy": -0.01132,
				"method": "rhf"
			},
			{
				"type": "unocc",
				"energy": -0.00012,
				"method": "rhf"
			},
			{
				"type": "unocc",
				"energy": 0.03114,
				"method": "rhf"
			}
		],
		"cosmo_sigma_profile": { 
			"-0.025": 0.0,
			"-0.024": 0.0,
			"-0.023": 0.0,
			"-0.022": 0.0,
			"-0.021": 0.0,
			"-0.02": 0.0,
			"-0.019": 0.0,
			"-0.018": 0.0,
			"-0.017": 0.0,
			"-0.016": 0.0,
			"-0.015": 0.0,
			"-0.014": 0.285283110182,
			"-0.013": 1.00398229111,
			"-0.012": 1.00876466657,
			"-0.011": 0.995612612284,
			"-0.01": 0.823519813857,
			"-0.009": 1.45584384519,
			"-0.008": 1.73428495888,
			"-0.007": 8.72546148631,
			"-0.006": 13.8962703592,
			"-0.005": 19.4696443686,
			"-0.004": 27.9550643332,
			"-0.003": 26.9307630981,
			"-0.002": 32.0587306596,
			"-0.001": 25.0495743484,
			"0.0": 23.2452182101,
			"0.001": 23.4766483686,
			"0.002": 25.8897159297,
			"0.003": 31.566927792,
			"0.004": 25.82721048,
			"0.005": 12.9278520994,
			"0.006": 3.35620384704,
			"0.007": 2.45342783132,
			"0.008": 3.00587202401,
			"0.009": 2.09363108136,
			"0.01": 0.968670398537,
			"0.011": 1.44074680171,
			"0.012": 1.7450527481,
			"0.013": 3.19915655087,
			"0.014": 5.63831286437,
			"0.015": 0.728725051281,
			"0.016": 0.0,
			"0.017": 0.0,
			"0.018": 0.0,
			"0.019": 0.0,
			"0.02": 0.0,
			"0.021": 0.0,
			"0.022": 0.0,
			"0.023": 0.0,
			"0.024": 0.0,
			"0.025": 0.0
		}
	}
}
