{
	 "smiles": "OC(=O)C1=CC(=CC=C1)S(=O)(=O)N1CCCCC1", 
	 "Tm": 452.15, 
	 "num_atms": 33, 
	 "gaussian": { 
		 "optdone": 1, 
		 "sigma_profile": "yes", 
		 "theory": "DFT", 
		 "functional": "B3LYP", 
		 "basiset": "6-31G**", 
		 "properties": { 
			 "R2extent": 5325.0367, 
			 "electric_dipole_moment_norm": 6.09602418466, 
			 "electric_quadrupole_moment_norm": 19.3111001126, 
			 "total_energy": -1220.10013657, 
			 "HOMO_LUMO_gap": 0.17959, 
			 "cosmo_polarized_energy": -18.39, 
			 "cosmo_cavitation_energy": 36.63, 
			 "cosmo_dispersion_energy": -26.17, 
			 "cosmo_repulsion_energy": 1.99, 
			 "cosmo_total_nonelectrostatic_energy": 12.45, 
			 "SMD_solvation_energy": 5.14 
		},
		"coords": [
			{
				"x": -0.1533932943,
				"y": 2.6583213337,
				"z": 4.4576032801,
				"element": "O" 
			},
			{
				"x": -0.7202110399,
				"y": 2.4412344022,
				"z": 3.2455844363,
				"element": "C" 
			},
			{
				"x": -1.4615579222,
				"y": 3.2468500403,
				"z": 2.7209151798,
				"element": "O" 
			},
			{
				"x": -0.3307620286,
				"y": 1.1331402094,
				"z": 2.6489619123,
				"element": "C" 
			},
			{
				"x": -0.8899223125,
				"y": 0.7919732175,
				"z": 1.411171272,
				"element": "C" 
			},
			{
				"x": -0.5452374717,
				"y": -0.421766982,
				"z": 0.8190945197,
				"element": "C" 
			},
			{
				"x": 0.331580034,
				"y": -1.3089111875,
				"z": 1.453075511,
				"element": "C" 
			},
			{
				"x": 0.8799234073,
				"y": -0.9635892624,
				"z": 2.6888652472,
				"element": "C" 
			},
			{
				"x": 0.5563551225,
				"y": 0.2545935336,
				"z": 3.2859963669,
				"element": "C" 
			},
			{
				"x": -1.2191148966,
				"y": -0.8474619425,
				"z": -0.8002670627,
				"element": "S" 
			},
			{
				"x": -1.0649428739,
				"y": -2.2970602984,
				"z": -0.9483976248,
				"element": "O" 
			},
			{
				"x": -2.5165604717,
				"y": -0.1784468993,
				"z": -0.9061347341,
				"element": "O" 
			},
			{
				"x": -0.2261408775,
				"y": -0.1385819553,
				"z": -1.9398193272,
				"element": "N" 
			},
			{
				"x": -0.3204542547,
				"y": 1.3266534775,
				"z": -2.1140726042,
				"element": "C" 
			},
			{
				"x": 0.5714021517,
				"y": 1.7443413464,
				"z": -3.285274861,
				"element": "C" 
			},
			{
				"x": 2.0612888225,
				"y": 1.4318011534,
				"z": -3.0153217574,
				"element": "C" 
			},
			{
				"x": 2.2274111112,
				"y": 0.1855765688,
				"z": -2.1134539361,
				"element": "C" 
			},
			{
				"x": 1.0586987585,
				"y": -0.7887654964,
				"z": -2.2847874385,
				"element": "C" 
			},
			{
				"x": -0.473329749,
				"y": 3.527989486,
				"z": 4.7490273147,
				"element": "H" 
			},
			{
				"x": -1.6022059833,
				"y": 1.462486329,
				"z": 0.9443989192,
				"element": "H" 
			},
			{
				"x": 0.5507898054,
				"y": -2.2645804099,
				"z": 0.9896130386,
				"element": "H" 
			},
			{
				"x": 1.5537651296,
				"y": -1.65092583,
				"z": 3.1909110031,
				"element": "H" 
			},
			{
				"x": 0.9787055006,
				"y": 0.5260858185,
				"z": 4.2465858649,
				"element": "H" 
			},
			{
				"x": -0.0058849884,
				"y": 1.8589504334,
				"z": -1.2017003075,
				"element": "H" 
			},
			{
				"x": -1.3649147509,
				"y": 1.5790299293,
				"z": -2.3036668459,
				"element": "H" 
			},
			{
				"x": 0.2280768211,
				"y": 1.217230844,
				"z": -4.1826487373,
				"element": "H" 
			},
			{
				"x": 0.4280224169,
				"y": 2.8127463845,
				"z": -3.4759935977,
				"element": "H" 
			},
			{
				"x": 2.5755488085,
				"y": 1.2783615742,
				"z": -3.9704068923,
				"element": "H" 
			},
			{
				"x": 2.5458605424,
				"y": 2.2908830611,
				"z": -2.5382721829,
				"element": "H" 
			},
			{
				"x": 3.1664931043,
				"y": -0.3321759823,
				"z": -2.3368866804,
				"element": "H" 
			},
			{
				"x": 2.2790623049,
				"y": 0.4846367491,
				"z": -1.0599091845,
				"element": "H" 
			},
			{
				"x": 1.1820369152,
				"y": -1.6770967738,
				"z": -1.6631585727,
				"element": "H" 
			},
			{
				"x": 1.0049121586,
				"y": -1.1422228724,
				"z": -3.3226315185,
				"element": "H" 
			}
		],
		 "valence_orbital": [ 
			{
				"type": "occ",
				"energy": -0.29862,
				"method": "rhf"
			},
			{
				"type": "occ",
				"energy": -0.28863,
				"method": "rhf"
			},
			{
				"type": "occ",
				"energy": -0.28261,
				"method": "rhf"
			},
			{
				"type": "occ",
				"energy": -0.27848,
				"method": "rhf"
			},
			{
				"type": "occ",
				"energy": -0.24501,
				"method": "rhf"
			},
			{
				"type": "unocc",
				"energy": -0.06542,
				"method": "rhf"
			},
			{
				"type": "unocc",
				"energy": -0.03951,
				"method": "rhf"
			},
			{
				"type": "unocc",
				"energy": 0.03372,
				"method": "rhf"
			},
			{
				"type": "unocc",
				"energy": 0.05581,
				"method": "rhf"
			},
			{
				"type": "unocc",
				"energy": 0.06873,
				"method": "rhf"
			}
		],
		"cosmo_sigma_profile": { 
			"-0.025": 0.0,
			"-0.024": 0.0,
			"-0.023": 0.0,
			"-0.022": 0.0,
			"-0.021": 0.0,
			"-0.02": 0.0,
			"-0.019": 0.232419244587,
			"-0.018": 0.853497561916,
			"-0.017": 0.992246023616,
			"-0.016": 0.913951560291,
			"-0.015": 0.738784332039,
			"-0.014": 0.725665774376,
			"-0.013": 0.36754349333,
			"-0.012": 0.699680346177,
			"-0.011": 0.87933845219,
			"-0.01": 0.693734798258,
			"-0.009": 0.793121075919,
			"-0.008": 1.64819597893,
			"-0.007": 6.36599070655,
			"-0.006": 7.7712096675,
			"-0.005": 10.6554255987,
			"-0.004": 24.5313127058,
			"-0.003": 40.6372784797,
			"-0.002": 37.0207962443,
			"-0.001": 26.9080037588,
			"0.0": 24.3262560335,
			"0.001": 19.6831556287,
			"0.002": 11.7152796568,
			"0.003": 5.91677249052,
			"0.004": 7.05165224119,
			"0.005": 6.8325137184,
			"0.006": 6.06391338298,
			"0.007": 6.66631962264,
			"0.008": 5.53988228842,
			"0.009": 4.96325575816,
			"0.01": 8.24519325024,
			"0.011": 12.9251597077,
			"0.012": 5.80703346294,
			"0.013": 0.0,
			"0.014": 0.0,
			"0.015": 0.0,
			"0.016": 0.0,
			"0.017": 0.0,
			"0.018": 0.0,
			"0.019": 0.0,
			"0.02": 0.0,
			"0.021": 0.0,
			"0.022": 0.0,
			"0.023": 0.0,
			"0.024": 0.0,
			"0.0": 0.0
		}
	}
}
