{
	 "smiles": "CC=CC(=O)NNC1=CC=CC=C1", 
	 "Tm": 463.15, 
	 "num_atms": 25, 
	 "gaussian": { 
		 "optdone": 1, 
		 "sigma_profile": "yes", 
		 "theory": "DFT", 
		 "functional": "B3LYP", 
		 "basiset": "6-31G**", 
		 "properties": { 
			 "R2extent": 3841.2221, 
			 "electric_dipole_moment_norm": 3.68254706555, 
			 "electric_quadrupole_moment_norm": 17.9929993959, 
			 "total_energy": -572.989677854, 
			 "HOMO_LUMO_gap": 0.16371, 
			 "cosmo_polarized_energy": -13.26, 
			 "cosmo_cavitation_energy": 29.7, 
			 "cosmo_dispersion_energy": -21.11, 
			 "cosmo_repulsion_energy": 1.69, 
			 "cosmo_total_nonelectrostatic_energy": 10.28, 
			 "SMD_solvation_energy": 6.29 
		},
		"coords": [
			{
				"x": 4.8994313948,
				"y": -1.4221180173,
				"z": 0.4024963835,
				"element": "C" 
			},
			{
				"x": 3.4544352516,
				"y": -1.0374526054,
				"z": 0.4932934612,
				"element": "C" 
			},
			{
				"x": 2.5012292585,
				"y": -1.773130175,
				"z": 1.0804127959,
				"element": "C" 
			},
			{
				"x": 1.075450864,
				"y": -1.3789255901,
				"z": 1.2182566753,
				"element": "C" 
			},
			{
				"x": 0.354715467,
				"y": -1.8155611942,
				"z": 2.1079768276,
				"element": "O" 
			},
			{
				"x": 0.592922921,
				"y": -0.4837995227,
				"z": 0.2695437459,
				"element": "N" 
			},
			{
				"x": -0.784870549,
				"y": -0.2195837355,
				"z": 0.2753250868,
				"element": "N" 
			},
			{
				"x": -1.1856317732,
				"y": 1.0509228871,
				"z": 0.7616343814,
				"element": "C" 
			},
			{
				"x": -2.51533983,
				"y": 1.2092404801,
				"z": 1.1817329644,
				"element": "C" 
			},
			{
				"x": -2.9764723193,
				"y": 2.455755838,
				"z": 1.5958612044,
				"element": "C" 
			},
			{
				"x": -2.1253033452,
				"y": 3.5641127561,
				"z": 1.5974503711,
				"element": "C" 
			},
			{
				"x": -0.8041414285,
				"y": 3.4039370552,
				"z": 1.1791934287,
				"element": "C" 
			},
			{
				"x": -0.3304217223,
				"y": 2.1592755458,
				"z": 0.762031244,
				"element": "C" 
			},
			{
				"x": 5.2269800426,
				"y": -1.4643342098,
				"z": -0.6439131687,
				"element": "H" 
			},
			{
				"x": 5.0899038011,
				"y": -2.3952277652,
				"z": 0.8628703309,
				"element": "H" 
			},
			{
				"x": 5.5328828709,
				"y": -0.6752344615,
				"z": 0.896854419,
				"element": "H" 
			},
			{
				"x": 3.1872670811,
				"y": -0.0719143569,
				"z": 0.0633763388,
				"element": "H" 
			},
			{
				"x": 2.7437187088,
				"y": -2.7112586568,
				"z": 1.5736358491,
				"element": "H" 
			},
			{
				"x": 0.9869694596,
				"y": -0.5546296851,
				"z": -0.6600191774,
				"element": "H" 
			},
			{
				"x": -1.2478120096,
				"y": -0.9744088263,
				"z": 0.7790269897,
				"element": "H" 
			},
			{
				"x": -3.1836081572,
				"y": 0.351509099,
				"z": 1.1795811645,
				"element": "H" 
			},
			{
				"x": -4.0072918809,
				"y": 2.5594224157,
				"z": 1.9232315274,
				"element": "H" 
			},
			{
				"x": -2.4869787512,
				"y": 4.5350514327,
				"z": 1.9214641897,
				"element": "H" 
			},
			{
				"x": -0.1277874171,
				"y": 4.2545573538,
				"z": 1.1786214741,
				"element": "H" 
			},
			{
				"x": 0.7000520625,
				"y": 2.0394939381,
				"z": 0.4472614929,
				"element": "H" 
			}
		],
		 "valence_orbital": [ 
			{
				"type": "occ",
				"energy": -0.27914,
				"method": "rhf"
			},
			{
				"type": "occ",
				"energy": -0.26703,
				"method": "rhf"
			},
			{
				"type": "occ",
				"energy": -0.26179,
				"method": "rhf"
			},
			{
				"type": "occ",
				"energy": -0.24201,
				"method": "rhf"
			},
			{
				"type": "occ",
				"energy": -0.20464,
				"method": "rhf"
			},
			{
				"type": "unocc",
				"energy": -0.04093,
				"method": "rhf"
			},
			{
				"type": "unocc",
				"energy": 0.00685,
				"method": "rhf"
			},
			{
				"type": "unocc",
				"energy": 0.01882,
				"method": "rhf"
			},
			{
				"type": "unocc",
				"energy": 0.06701,
				"method": "rhf"
			},
			{
				"type": "unocc",
				"energy": 0.07975,
				"method": "rhf"
			}
		],
		"cosmo_sigma_profile": { 
			"-0.025": 0.0,
			"-0.024": 0.0,
			"-0.023": 0.0,
			"-0.022": 0.0,
			"-0.021": 0.0,
			"-0.02": 0.0,
			"-0.019": 0.0,
			"-0.018": 0.0,
			"-0.017": 0.0,
			"-0.016": 0.0,
			"-0.015": 0.1216837651,
			"-0.014": 0.95413698045,
			"-0.013": 0.831785413307,
			"-0.012": 0.960596357542,
			"-0.011": 1.70987478949,
			"-0.01": 2.02505949823,
			"-0.009": 2.51860395439,
			"-0.008": 2.3831334014,
			"-0.007": 3.92387029484,
			"-0.006": 7.23375535873,
			"-0.005": 17.2854695477,
			"-0.004": 24.5673330484,
			"-0.003": 21.2606320963,
			"-0.002": 20.1444689696,
			"-0.001": 18.5158452647,
			"0.0": 13.9628990505,
			"0.001": 13.276689579,
			"0.002": 12.5590905495,
			"0.003": 13.0507764894,
			"0.004": 11.6373187404,
			"0.005": 11.1875635298,
			"0.006": 11.1582386505,
			"0.007": 7.25023984097,
			"0.008": 2.05036754284,
			"0.009": 2.21004605642,
			"0.01": 1.58876933576,
			"0.011": 2.72154817592,
			"0.012": 3.36775550353,
			"0.013": 3.96495446975,
			"0.014": 1.44149031581,
			"0.015": 0.116192327617,
			"0.016": 0.0,
			"0.017": 0.0,
			"0.018": 0.0,
			"0.019": 0.0,
			"0.02": 0.0,
			"0.021": 0.0,
			"0.022": 0.0,
			"0.023": 0.0,
			"0.024": 0.0,
			"0.025": 0.0
		}
	}
}
