{
	 "smiles": "[O-][N+](=O)C1=C(F)C=C2NC(=O)COC2=C1", 
	 "Tm": 495.15, 
	 "num_atms": 20, 
	 "gaussian": { 
		 "optdone": 1, 
		 "sigma_profile": "yes", 
		 "theory": "DFT", 
		 "functional": "B3LYP", 
		 "basiset": "6-31G**", 
		 "properties": { 
			 "R2extent": 3615.6911, 
			 "electric_dipole_moment_norm": 3.9835944146, 
			 "electric_quadrupole_moment_norm": 21.6904493683, 
			 "total_energy": -817.987888387, 
			 "HOMO_LUMO_gap": 0.15422, 
			 "cosmo_polarized_energy": -17.85, 
			 "cosmo_cavitation_energy": 26.16, 
			 "cosmo_dispersion_energy": -19.6, 
			 "cosmo_repulsion_energy": 1.5, 
			 "cosmo_total_nonelectrostatic_energy": 8.06, 
			 "SMD_solvation_energy": 8.03 
		},
		"coords": [
			{
				"x": 0.4633510681,
				"y": 2.2927964587,
				"z": -2.4160857805,
				"element": "O" 
			},
			{
				"x": -0.6400308319,
				"y": 1.8438930175,
				"z": -2.0983250288,
				"element": "N" 
			},
			{
				"x": -1.6788299147,
				"y": 2.0264753664,
				"z": -2.7282640352,
				"element": "O" 
			},
			{
				"x": -0.7040102561,
				"y": 1.0370299004,
				"z": -0.8787842258,
				"element": "C" 
			},
			{
				"x": -1.8922342749,
				"y": 0.4474470855,
				"z": -0.4233045075,
				"element": "C" 
			},
			{
				"x": -3.0518858377,
				"y": 0.574631486,
				"z": -1.0691139399,
				"element": "F" 
			},
			{
				"x": -1.8942089529,
				"y": -0.3111202432,
				"z": 0.7430306052,
				"element": "C" 
			},
			{
				"x": -0.716322912,
				"y": -0.4802770623,
				"z": 1.4699634582,
				"element": "C" 
			},
			{
				"x": -0.6756338319,
				"y": -1.1941272458,
				"z": 2.6664249366,
				"element": "N" 
			},
			{
				"x": 0.4981521903,
				"y": -1.5945905496,
				"z": 3.2734156234,
				"element": "C" 
			},
			{
				"x": 0.5217715651,
				"y": -2.2454906858,
				"z": 4.2994982126,
				"element": "O" 
			},
			{
				"x": 1.7570782976,
				"y": -1.2081706926,
				"z": 2.5035340341,
				"element": "C" 
			},
			{
				"x": 1.6282276734,
				"y": -0.003255252,
				"z": 1.7454057544,
				"element": "O" 
			},
			{
				"x": 0.4807335733,
				"y": 0.1064783431,
				"z": 1.0090369748,
				"element": "C" 
			},
			{
				"x": 0.4811033901,
				"y": 0.852009634,
				"z": -0.1556805656,
				"element": "C" 
			},
			{
				"x": -2.8278689547,
				"y": -0.7561905027,
				"z": 1.069711519,
				"element": "H" 
			},
			{
				"x": -1.5337853347,
				"y": -1.5028474364,
				"z": 3.1064314094,
				"element": "H" 
			},
			{
				"x": 2.0311218385,
				"y": -2.0480328969,
				"z": 1.8469056837,
				"element": "H" 
			},
			{
				"x": 2.5633527092,
				"y": -1.0478636916,
				"z": 3.2188026737,
				"element": "H" 
			},
			{
				"x": 1.392718796,
				"y": 1.3131049673,
				"z": -0.5125028017,
				"element": "H" 
			}
		],
		 "valence_orbital": [ 
			{
				"type": "occ",
				"energy": -0.30894,
				"method": "rhf"
			},
			{
				"type": "occ",
				"energy": -0.29099,
				"method": "rhf"
			},
			{
				"type": "occ",
				"energy": -0.29014,
				"method": "rhf"
			},
			{
				"type": "occ",
				"energy": -0.27641,
				"method": "rhf"
			},
			{
				"type": "occ",
				"energy": -0.24824,
				"method": "rhf"
			},
			{
				"type": "unocc",
				"energy": -0.09402,
				"method": "rhf"
			},
			{
				"type": "unocc",
				"energy": -0.0344,
				"method": "rhf"
			},
			{
				"type": "unocc",
				"energy": -0.02937,
				"method": "rhf"
			},
			{
				"type": "unocc",
				"energy": 0.01328,
				"method": "rhf"
			},
			{
				"type": "unocc",
				"energy": 0.05028,
				"method": "rhf"
			}
		],
		"cosmo_sigma_profile": { 
			"-0.025": 0.0,
			"-0.024": 0.0,
			"-0.023": 0.0,
			"-0.022": 0.0,
			"-0.021": 0.0,
			"-0.02": 0.0,
			"-0.019": 0.0,
			"-0.018": 0.0,
			"-0.017": 0.687219056009,
			"-0.016": 1.54888719698,
			"-0.015": 1.38455492482,
			"-0.014": 1.65552158219,
			"-0.013": 0.821972163904,
			"-0.012": 1.09716033674,
			"-0.011": 1.80333720043,
			"-0.01": 2.11912580827,
			"-0.009": 5.24336780868,
			"-0.008": 8.31961938715,
			"-0.007": 7.59068613737,
			"-0.006": 7.99769719026,
			"-0.005": 10.1265398018,
			"-0.004": 10.7348237875,
			"-0.003": 11.8338187551,
			"-0.002": 18.8088555666,
			"-0.001": 18.8304582933,
			"0.0": 11.8991435838,
			"0.001": 7.62746060329,
			"0.002": 7.98158584888,
			"0.003": 10.3199095609,
			"0.004": 5.85984851974,
			"0.005": 5.57153067215,
			"0.006": 6.50411158477,
			"0.007": 8.22585569771,
			"0.008": 13.3560204752,
			"0.009": 7.69573066181,
			"0.01": 5.39208383957,
			"0.011": 4.09886090627,
			"0.012": 4.74618566739,
			"0.013": 0.637891432445,
			"0.014": 0.0,
			"0.015": 0.0,
			"0.016": 0.0,
			"0.017": 0.0,
			"0.018": 0.0,
			"0.019": 0.0,
			"0.02": 0.0,
			"0.021": 0.0,
			"0.022": 0.0,
			"0.023": 0.0,
			"0.024": 0.0,
			"0.025": 0.0
		}
	}
}
