{
	 "smiles": "BrC1=C(OC2=NN=CC=C2)C=CC=C1", 
	 "Tm": 383.15, 
	 "num_atms": 21, 
	 "gaussian": { 
		 "optdone": 1, 
		 "sigma_profile": "yes", 
		 "theory": "DFT", 
		 "functional": "B3LYP", 
		 "basiset": "6-31G**", 
		 "properties": { 
			 "R2extent": 3867.5976, 
			 "electric_dipole_moment_norm": 2.3935316104, 
			 "electric_quadrupole_moment_norm": 17.8990245041, 
			 "total_energy": -3141.35783176, 
			 "HOMO_LUMO_gap": 0.18012, 
			 "cosmo_polarized_energy": -12.74, 
			 "cosmo_cavitation_energy": 28.61, 
			 "cosmo_dispersion_energy": -20.81, 
			 "cosmo_repulsion_energy": 1.65, 
			 "cosmo_total_nonelectrostatic_energy": 9.44, 
			 "SMD_solvation_energy": 2.61 
		},
		"coords": [
			{
				"x": -2.4251528113,
				"y": 0.3119249229,
				"z": 1.0907000062,
				"element": "Br" 
			},
			{
				"x": -1.7383715652,
				"y": -1.0826053739,
				"z": -0.0085831301,
				"element": "C" 
			},
			{
				"x": -0.444176273,
				"y": -0.9960734177,
				"z": -0.5273040891,
				"element": "C" 
			},
			{
				"x": 0.3192492782,
				"y": 0.1482658983,
				"z": -0.3289868995,
				"element": "O" 
			},
			{
				"x": 1.1749974727,
				"y": 0.2058956464,
				"z": 0.7298581041,
				"element": "C" 
			},
			{
				"x": 1.3165343155,
				"y": -0.8617708137,
				"z": 1.5015279178,
				"element": "N" 
			},
			{
				"x": 2.1624279178,
				"y": -0.8160185416,
				"z": 2.5376361106,
				"element": "N" 
			},
			{
				"x": 2.8465587187,
				"y": 0.2999542095,
				"z": 2.7731457314,
				"element": "C" 
			},
			{
				"x": 2.7321771021,
				"y": 1.4568368393,
				"z": 1.9837993386,
				"element": "C" 
			},
			{
				"x": 1.8629246158,
				"y": 1.4171255123,
				"z": 0.9157848435,
				"element": "C" 
			},
			{
				"x": 0.0491363852,
				"y": -2.01350959,
				"z": -1.3412588771,
				"element": "C" 
			},
			{
				"x": -0.7454243451,
				"y": -3.1203997451,
				"z": -1.6329222285,
				"element": "C" 
			},
			{
				"x": -2.037135789,
				"y": -3.2080666075,
				"z": -1.1109032108,
				"element": "C" 
			},
			{
				"x": -2.5358110002,
				"y": -2.1889111755,
				"z": -0.2998679544,
				"element": "C" 
			},
			{
				"x": 3.5133633823,
				"y": 0.2635065428,
				"z": 3.630077129,
				"element": "H" 
			},
			{
				"x": 3.3096685648,
				"y": 2.3466033526,
				"z": 2.2141756876,
				"element": "H" 
			},
			{
				"x": 1.6953815462,
				"y": 2.2526564427,
				"z": 0.2454661417,
				"element": "H" 
			},
			{
				"x": 1.055302523,
				"y": -1.9205282718,
				"z": -1.7359439464,
				"element": "H" 
			},
			{
				"x": -0.3552404732,
				"y": -3.9112968162,
				"z": -2.2656552267,
				"element": "H" 
			},
			{
				"x": -2.6622604382,
				"y": -4.0668881876,
				"z": -1.3346248557,
				"element": "H" 
			},
			{
				"x": -3.5384491272,
				"y": -2.2445008263,
				"z": 0.1084794079,
				"element": "H" 
			}
		],
		 "valence_orbital": [ 
			{
				"type": "occ",
				"energy": -0.28689,
				"method": "rhf"
			},
			{
				"type": "occ",
				"energy": -0.26369,
				"method": "rhf"
			},
			{
				"type": "occ",
				"energy": -0.26009,
				"method": "rhf"
			},
			{
				"type": "occ",
				"energy": -0.24484,
				"method": "rhf"
			},
			{
				"type": "occ",
				"energy": -0.23268,
				"method": "rhf"
			},
			{
				"type": "unocc",
				"energy": -0.05256,
				"method": "rhf"
			},
			{
				"type": "unocc",
				"energy": -0.01774,
				"method": "rhf"
			},
			{
				"type": "unocc",
				"energy": -0.01315,
				"method": "rhf"
			},
			{
				"type": "unocc",
				"energy": -0.01175,
				"method": "rhf"
			},
			{
				"type": "unocc",
				"energy": 0.00558,
				"method": "rhf"
			}
		],
		"cosmo_sigma_profile": { 
			"-0.025": 0.0,
			"-0.024": 0.0,
			"-0.023": 0.0,
			"-0.022": 0.0,
			"-0.021": 0.0,
			"-0.02": 0.0,
			"-0.019": 0.0,
			"-0.018": 0.0,
			"-0.017": 0.0,
			"-0.016": 0.0,
			"-0.015": 0.0,
			"-0.014": 0.0,
			"-0.013": 0.0,
			"-0.012": 0.0,
			"-0.011": 0.0,
			"-0.01": 0.01034008908,
			"-0.009": 2.71279134872,
			"-0.008": 7.26446452787,
			"-0.007": 14.831099312,
			"-0.006": 13.8013186319,
			"-0.005": 14.1065577546,
			"-0.004": 11.8825647163,
			"-0.003": 12.6091847443,
			"-0.002": 14.6320446228,
			"-0.001": 16.2699901455,
			"0.0": 19.5973566057,
			"0.001": 17.7504926087,
			"0.002": 18.3507170374,
			"0.003": 21.1702417441,
			"0.004": 17.4351884536,
			"0.005": 6.87049509048,
			"0.006": 3.69821336312,
			"0.007": 3.62100544269,
			"0.008": 2.73396661839,
			"0.009": 1.70166242735,
			"0.01": 2.16073345993,
			"0.011": 2.30993933422,
			"0.012": 2.06130618161,
			"0.013": 3.22265290212,
			"0.014": 1.90978724497,
			"0.015": 1.08808932707,
			"0.016": 0.50952147366,
			"0.017": 0.0,
			"0.018": 0.0,
			"0.019": 0.0,
			"0.02": 0.0,
			"0.021": 0.0,
			"0.022": 0.0,
			"0.023": 0.0,
			"0.024": 0.0,
			"0.025": 0.0
		}
	}
}
