{
	 "smiles": "NC(=S)C1=CC=C(Cl)C=C1", 
	 "Tm": 401.15, 
	 "num_atms": 16, 
	 "gaussian": { 
		 "optdone": 1, 
		 "sigma_profile": "yes", 
		 "theory": "DFT", 
		 "functional": "B3LYP", 
		 "basiset": "6-31G**", 
		 "properties": { 
			 "R2extent": 3405.7356, 
			 "electric_dipole_moment_norm": 3.99163832029, 
			 "electric_quadrupole_moment_norm": 20.053840772, 
			 "total_energy": -1183.50213428, 
			 "HOMO_LUMO_gap": 0.14467, 
			 "cosmo_polarized_energy": -14.59, 
			 "cosmo_cavitation_energy": 23.82, 
			 "cosmo_dispersion_energy": -18.28, 
			 "cosmo_repulsion_energy": 1.44, 
			 "cosmo_total_nonelectrostatic_energy": 6.98, 
			 "SMD_solvation_energy": 2.94 
		},
		"coords": [
			{
				"x": -2.3376170696,
				"y": 1.4724431292,
				"z": 1.8014574751,
				"element": "N" 
			},
			{
				"x": -2.5042087241,
				"y": 1.7205509491,
				"z": 0.4809406517,
				"element": "C" 
			},
			{
				"x": -3.8265280719,
				"y": 2.5628495187,
				"z": -0.0883885731,
				"element": "S" 
			},
			{
				"x": -1.4458625608,
				"y": 1.1592157472,
				"z": -0.4043328301,
				"element": "C" 
			},
			{
				"x": -1.1307735246,
				"y": 1.7916122974,
				"z": -1.6172617046,
				"element": "C" 
			},
			{
				"x": -0.1370410359,
				"y": 1.2878617839,
				"z": -2.4496067689,
				"element": "C" 
			},
			{
				"x": 0.5426160228,
				"y": 0.1262691754,
				"z": -2.0771709084,
				"element": "C" 
			},
			{
				"x": 1.7928591277,
				"y": -0.5173953787,
				"z": -3.1253107811,
				"element": "Cl" 
			},
			{
				"x": 0.2376350792,
				"y": -0.5348813343,
				"z": -0.888092959,
				"element": "C" 
			},
			{
				"x": -0.7506366852,
				"y": -0.0120234125,
				"z": -0.0566897562,
				"element": "C" 
			},
			{
				"x": -3.0162416639,
				"y": 1.8559071527,
				"z": 2.443285823,
				"element": "H" 
			},
			{
				"x": -1.4473819432,
				"y": 1.1708760659,
				"z": 2.1694009127,
				"element": "H" 
			},
			{
				"x": -1.6773044744,
				"y": 2.6859059844,
				"z": -1.8955591964,
				"element": "H" 
			},
			{
				"x": 0.1102181739,
				"y": 1.7870407938,
				"z": -3.379776612,
				"element": "H" 
			},
			{
				"x": 0.7583634926,
				"y": -1.4482999052,
				"z": -0.6234065936,
				"element": "H" 
			},
			{
				"x": -1.0098961426,
				"y": -0.5521325672,
				"z": 0.8489118208,
				"element": "H" 
			}
		],
		 "valence_orbital": [ 
			{
				"type": "occ",
				"energy": -0.32224,
				"method": "rhf"
			},
			{
				"type": "occ",
				"energy": -0.27743,
				"method": "rhf"
			},
			{
				"type": "occ",
				"energy": -0.26399,
				"method": "rhf"
			},
			{
				"type": "occ",
				"energy": -0.23508,
				"method": "rhf"
			},
			{
				"type": "occ",
				"energy": -0.21334,
				"method": "rhf"
			},
			{
				"type": "unocc",
				"energy": -0.06867,
				"method": "rhf"
			},
			{
				"type": "unocc",
				"energy": -0.02743,
				"method": "rhf"
			},
			{
				"type": "unocc",
				"energy": 0.00896,
				"method": "rhf"
			},
			{
				"type": "unocc",
				"energy": 0.02073,
				"method": "rhf"
			},
			{
				"type": "unocc",
				"energy": 0.06936,
				"method": "rhf"
			}
		],
		"cosmo_sigma_profile": { 
			"-0.025": 0.0,
			"-0.024": 0.0,
			"-0.023": 0.0,
			"-0.022": 0.0,
			"-0.021": 0.0,
			"-0.02": 0.0,
			"-0.019": 0.0,
			"-0.018": 0.0,
			"-0.017": 0.0,
			"-0.016": 0.401956448841,
			"-0.015": 1.98572732875,
			"-0.014": 2.5357248555,
			"-0.013": 2.17563743915,
			"-0.012": 3.05005365978,
			"-0.011": 2.19386054082,
			"-0.01": 2.37184118023,
			"-0.009": 2.13891840925,
			"-0.008": 4.72814580969,
			"-0.007": 6.58086472599,
			"-0.006": 8.29704900276,
			"-0.005": 6.38555663252,
			"-0.004": 8.03343889208,
			"-0.003": 7.28165148078,
			"-0.002": 8.33627420063,
			"-0.001": 11.677629867,
			"0.0": 13.8774887038,
			"0.001": 17.3903786729,
			"0.002": 20.2194764959,
			"0.003": 15.5638280016,
			"0.004": 14.5942515598,
			"0.005": 6.03874078953,
			"0.006": 4.67184611773,
			"0.007": 4.66617756634,
			"0.008": 6.16087326824,
			"0.009": 6.18218634187,
			"0.01": 4.41564295688,
			"0.011": 2.99215282988,
			"0.012": 1.04728827874,
			"0.013": 0.0,
			"0.014": 0.0,
			"0.015": 0.0,
			"0.016": 0.0,
			"0.017": 0.0,
			"0.018": 0.0,
			"0.019": 0.0,
			"0.02": 0.0,
			"0.021": 0.0,
			"0.022": 0.0,
			"0.023": 0.0,
			"0.024": 0.0,
			"0.025": 0.0
		}
	}
}
