{
	 "smiles": "ClC1=CC2=C(SCCC2=O)C=C1", 
	 "Tm": 337.65, 
	 "num_atms": 19, 
	 "gaussian": { 
		 "optdone": 1, 
		 "sigma_profile": "yes", 
		 "theory": "DFT", 
		 "functional": "B3LYP", 
		 "basiset": "6-31G**", 
		 "properties": { 
			 "R2extent": 3309.291, 
			 "electric_dipole_moment_norm": 3.14720259278, 
			 "electric_quadrupole_moment_norm": 10.8361494674, 
			 "total_energy": -1280.78583436, 
			 "HOMO_LUMO_gap": 0.15579, 
			 "cosmo_polarized_energy": -8.79, 
			 "cosmo_cavitation_energy": 25.79, 
			 "cosmo_dispersion_energy": -19.99, 
			 "cosmo_repulsion_energy": 1.53, 
			 "cosmo_total_nonelectrostatic_energy": 7.33, 
			 "SMD_solvation_energy": 3.87 
		},
		"coords": [
			{
				"x": 0.7674985748,
				"y": -4.1494372121,
				"z": -0.4678545102,
				"element": "Cl" 
			},
			{
				"x": 0.3364767332,
				"y": -2.4545082781,
				"z": -0.3077262567,
				"element": "C" 
			},
			{
				"x": -0.9592986965,
				"y": -2.0981206198,
				"z": 0.0250525423,
				"element": "C" 
			},
			{
				"x": -1.3119505011,
				"y": -0.7435654108,
				"z": 0.1612455669,
				"element": "C" 
			},
			{
				"x": -0.3384977741,
				"y": 0.2534650971,
				"z": -0.0693141004,
				"element": "C" 
			},
			{
				"x": -0.6546043103,
				"y": 1.9961359141,
				"z": 0.0568496869,
				"element": "S" 
			},
			{
				"x": -2.479150956,
				"y": 1.9867939035,
				"z": -0.0986032566,
				"element": "C" 
			},
			{
				"x": -3.1214758418,
				"y": 0.9852687628,
				"z": 0.8557833691,
				"element": "C" 
			},
			{
				"x": -2.7177329425,
				"y": -0.4587295494,
				"z": 0.5893778847,
				"element": "C" 
			},
			{
				"x": -3.5194998834,
				"y": -1.3638335066,
				"z": 0.7614152563,
				"element": "O" 
			},
			{
				"x": 0.9697774541,
				"y": -0.1332742678,
				"z": -0.4042194098,
				"element": "C" 
			},
			{
				"x": 1.3129789781,
				"y": -1.4744145318,
				"z": -0.5176047541,
				"element": "C" 
			},
			{
				"x": -1.7264240862,
				"y": -2.8430479502,
				"z": 0.2022049636,
				"element": "H" 
			},
			{
				"x": -2.7432081299,
				"y": 1.7709272284,
				"z": -1.1389185984,
				"element": "H" 
			},
			{
				"x": -2.7968400303,
				"y": 3.0080324317,
				"z": 0.1258563243,
				"element": "H" 
			},
			{
				"x": -2.8350701733,
				"y": 1.2260309398,
				"z": 1.8890190255,
				"element": "H" 
			},
			{
				"x": -4.2132662921,
				"y": 1.030394873,
				"z": 0.7990349609,
				"element": "H" 
			},
			{
				"x": 1.7212138325,
				"y": 0.6276545448,
				"z": -0.5923101858,
				"element": "H" 
			},
			{
				"x": 2.3250740448,
				"y": -1.7622723687,
				"z": -0.7803885085,
				"element": "H" 
			}
		],
		 "valence_orbital": [ 
			{
				"type": "occ",
				"energy": -0.31803,
				"method": "rhf"
			},
			{
				"type": "occ",
				"energy": -0.28711,
				"method": "rhf"
			},
			{
				"type": "occ",
				"energy": -0.27531,
				"method": "rhf"
			},
			{
				"type": "occ",
				"energy": -0.25897,
				"method": "rhf"
			},
			{
				"type": "occ",
				"energy": -0.22687,
				"method": "rhf"
			},
			{
				"type": "unocc",
				"energy": -0.07108,
				"method": "rhf"
			},
			{
				"type": "unocc",
				"energy": -0.02557,
				"method": "rhf"
			},
			{
				"type": "unocc",
				"energy": 0.01071,
				"method": "rhf"
			},
			{
				"type": "unocc",
				"energy": 0.02297,
				"method": "rhf"
			},
			{
				"type": "unocc",
				"energy": 0.03363,
				"method": "rhf"
			}
		],
		"cosmo_sigma_profile": { 
			"-0.025": 0.0,
			"-0.024": 0.0,
			"-0.023": 0.0,
			"-0.022": 0.0,
			"-0.021": 0.0,
			"-0.02": 0.0,
			"-0.019": 0.0,
			"-0.018": 0.0,
			"-0.017": 0.0,
			"-0.016": 0.0,
			"-0.015": 0.0,
			"-0.014": 0.0,
			"-0.013": 0.0,
			"-0.012": 0.0,
			"-0.011": 0.0,
			"-0.01": 0.0,
			"-0.009": 0.11602198626,
			"-0.008": 3.53491227267,
			"-0.007": 10.8631911816,
			"-0.006": 14.2265547942,
			"-0.005": 15.0664410251,
			"-0.004": 14.7102331442,
			"-0.003": 12.6750285414,
			"-0.002": 11.3292321045,
			"-0.001": 12.0405115094,
			"0.0": 14.7373499814,
			"0.001": 22.2976304963,
			"0.002": 22.7565471335,
			"0.003": 11.1123151986,
			"0.004": 15.2423080189,
			"0.005": 9.52933104159,
			"0.006": 3.38638900067,
			"0.007": 3.15375048947,
			"0.008": 2.77017481049,
			"0.009": 1.89006388603,
			"0.01": 2.07639365841,
			"0.011": 3.581642177,
			"0.012": 2.9917628713,
			"0.013": 0.607001122079,
			"0.014": 0.0,
			"0.015": 0.0,
			"0.016": 0.0,
			"0.017": 0.0,
			"0.018": 0.0,
			"0.019": 0.0,
			"0.02": 0.0,
			"0.021": 0.0,
			"0.022": 0.0,
			"0.023": 0.0,
			"0.024": 0.0,
			"0.025": 0.0
		}
	}
}
