{
	 "smiles": "BrC1=CC=C(C=C1)C1=CC=C(O1)C=CC(=O)C1=CC=CO1", 
	 "Tm": 437.15, 
	 "num_atms": 32, 
	 "gaussian": { 
		 "optdone": 1, 
		 "sigma_profile": "yes", 
		 "theory": "DFT", 
		 "functional": "B3LYP", 
		 "basiset": "6-31G**", 
		 "properties": { 
			 "R2extent": 18427.745, 
			 "electric_dipole_moment_norm": 5.57653254093, 
			 "electric_quadrupole_moment_norm": 11.8194676098, 
			 "total_energy": -3451.45821835, 
			 "HOMO_LUMO_gap": 0.12835, 
			 "cosmo_polarized_energy": -16.41, 
			 "cosmo_cavitation_energy": 41.35, 
			 "cosmo_dispersion_energy": -29.84, 
			 "cosmo_repulsion_energy": 2.25, 
			 "cosmo_total_nonelectrostatic_energy": 13.76, 
			 "SMD_solvation_energy": 7.75 
		},
		"coords": [
			{
				"x": -4.74302702,
				"y": -6.2627586996,
				"z": -3.3445496038,
				"element": "Br" 
			},
			{
				"x": -3.9548589667,
				"y": -4.6441506644,
				"z": -2.7114916441,
				"element": "C" 
			},
			{
				"x": -4.7608186838,
				"y": -3.5249826185,
				"z": -2.4979118649,
				"element": "C" 
			},
			{
				"x": -4.1834374752,
				"y": -2.3473218254,
				"z": -2.0362883508,
				"element": "C" 
			},
			{
				"x": -2.8015254046,
				"y": -2.2689129769,
				"z": -1.7827078128,
				"element": "C" 
			},
			{
				"x": -2.0124070016,
				"y": -3.411672269,
				"z": -2.0064985097,
				"element": "C" 
			},
			{
				"x": -2.5828292212,
				"y": -4.5942916424,
				"z": -2.4682979081,
				"element": "C" 
			},
			{
				"x": -2.2070618415,
				"y": -1.0318865007,
				"z": -1.3004065971,
				"element": "C" 
			},
			{
				"x": -2.7190466141,
				"y": 0.2144852344,
				"z": -1.0120004974,
				"element": "C" 
			},
			{
				"x": -1.6305870525,
				"y": 1.0120697285,
				"z": -0.5775516317,
				"element": "C" 
			},
			{
				"x": -0.5068651454,
				"y": 0.215807824,
				"z": -0.6211178278,
				"element": "C" 
			},
			{
				"x": -0.8613326206,
				"y": -1.0329365605,
				"z": -1.0624559513,
				"element": "O" 
			},
			{
				"x": 0.8644476004,
				"y": 0.4810615869,
				"z": -0.2962463303,
				"element": "C" 
			},
			{
				"x": 1.8863732824,
				"y": -0.3965581438,
				"z": -0.4194876279,
				"element": "C" 
			},
			{
				"x": 3.312500587,
				"y": -0.1000273544,
				"z": -0.1688023039,
				"element": "C" 
			},
			{
				"x": 4.1885019634,
				"y": -0.7434690417,
				"z": -0.7410817062,
				"element": "O" 
			},
			{
				"x": 3.6698061741,
				"y": 0.966194134,
				"z": 0.7914453563,
				"element": "C" 
			},
			{
				"x": 3.0361296627,
				"y": 1.5478743102,
				"z": 1.8648447263,
				"element": "C" 
			},
			{
				"x": 3.9738590945,
				"y": 2.4406601651,
				"z": 2.4620983064,
				"element": "C" 
			},
			{
				"x": 5.1108743633,
				"y": 2.3387272008,
				"z": 1.7123150428,
				"element": "C" 
			},
			{
				"x": 4.9483226819,
				"y": 1.4492779053,
				"z": 0.7068920456,
				"element": "O" 
			},
			{
				"x": -5.8262908312,
				"y": -3.575922918,
				"z": -2.6904731866,
				"element": "H" 
			},
			{
				"x": -4.8165269628,
				"y": -1.4811416419,
				"z": -1.8716898676,
				"element": "H" 
			},
			{
				"x": -0.9457479647,
				"y": -3.3698918668,
				"z": -1.817482891,
				"element": "H" 
			},
			{
				"x": -1.9668559608,
				"y": -5.4698701035,
				"z": -2.6384102504,
				"element": "H" 
			},
			{
				"x": -3.7506417389,
				"y": 0.5207908579,
				"z": -1.1027951392,
				"element": "H" 
			},
			{
				"x": -1.6595142396,
				"y": 2.0478500482,
				"z": -0.2700505766,
				"element": "H" 
			},
			{
				"x": 1.0568881276,
				"y": 1.492834835,
				"z": 0.049209128,
				"element": "H" 
			},
			{
				"x": 1.7113262635,
				"y": -1.3837969422,
				"z": -0.8371397555,
				"element": "H" 
			},
			{
				"x": 2.0350351323,
				"y": 1.332193097,
				"z": 2.2066287152,
				"element": "H" 
			},
			{
				"x": 3.8266895173,
				"y": 3.0657781761,
				"z": 3.3308311986,
				"element": "H" 
			},
			{
				"x": 6.0766202949,
				"y": 2.8181866663,
				"z": 1.7653733157,
				"element": "H" 
			}
		],
		 "valence_orbital": [ 
			{
				"type": "occ",
				"energy": -0.27259,
				"method": "rhf"
			},
			{
				"type": "occ",
				"energy": -0.26238,
				"method": "rhf"
			},
			{
				"type": "occ",
				"energy": -0.24832,
				"method": "rhf"
			},
			{
				"type": "occ",
				"energy": -0.23799,
				"method": "rhf"
			},
			{
				"type": "occ",
				"energy": -0.20974,
				"method": "rhf"
			},
			{
				"type": "unocc",
				"energy": -0.08139,
				"method": "rhf"
			},
			{
				"type": "unocc",
				"energy": -0.04134,
				"method": "rhf"
			},
			{
				"type": "unocc",
				"energy": -0.02191,
				"method": "rhf"
			},
			{
				"type": "unocc",
				"energy": -0.01055,
				"method": "rhf"
			},
			{
				"type": "unocc",
				"energy": 0.0027,
				"method": "rhf"
			}
		],
		"cosmo_sigma_profile": { 
			"-0.025": 0.0,
			"-0.024": 0.0,
			"-0.023": 0.0,
			"-0.022": 0.0,
			"-0.021": 0.0,
			"-0.02": 0.0,
			"-0.019": 0.0,
			"-0.018": 0.0,
			"-0.017": 0.0,
			"-0.016": 0.0,
			"-0.015": 0.0,
			"-0.014": 0.0,
			"-0.013": 0.0,
			"-0.012": 0.0,
			"-0.011": 0.0,
			"-0.01": 0.923535228612,
			"-0.009": 3.92698107261,
			"-0.008": 10.7886558865,
			"-0.007": 16.3603011727,
			"-0.006": 16.765157777,
			"-0.005": 17.2704552221,
			"-0.004": 17.9421203479,
			"-0.003": 16.8370122755,
			"-0.002": 18.5684159232,
			"-0.001": 20.5999064341,
			"0.0": 27.1463507559,
			"0.001": 42.2100670651,
			"0.002": 40.3311550702,
			"0.003": 37.3850676082,
			"0.004": 18.8128134242,
			"0.005": 6.01059331861,
			"0.006": 2.64593438892,
			"0.007": 1.68238023346,
			"0.008": 2.35600131999,
			"0.009": 2.15273601709,
			"0.01": 2.49003792657,
			"0.011": 2.86775194076,
			"0.012": 3.82183971426,
			"0.013": 5.34984844063,
			"0.014": 2.31017543773,
			"0.015": 0.0571797653339,
			"0.016": 0.0,
			"0.017": 0.0,
			"0.018": 0.0,
			"0.019": 0.0,
			"0.02": 0.0,
			"0.021": 0.0,
			"0.022": 0.0,
			"0.023": 0.0,
			"0.024": 0.0,
			"0.025": 0.0
		}
	}
}
