{
	 "smiles": "CCOC(=O)C1=C(NC(=O)C(Cl)Cl)SC=C1C1=CC=CC=C1", 
	 "Tm": 365.65, 
	 "num_atms": 35, 
	 "gaussian": { 
		 "optdone": 1, 
		 "sigma_profile": "yes", 
		 "theory": "DFT", 
		 "functional": "B3LYP", 
		 "basiset": "6-31G**", 
		 "properties": { 
			 "R2extent": 11449.2901, 
			 "electric_dipole_moment_norm": 7.00666126554, 
			 "electric_quadrupole_moment_norm": 37.5446487492, 
			 "total_energy": -2178.42401108, 
			 "HOMO_LUMO_gap": 0.1867, 
			 "cosmo_polarized_energy": -16.33, 
			 "cosmo_cavitation_energy": 44.85, 
			 "cosmo_dispersion_energy": -30.17, 
			 "cosmo_repulsion_energy": 2.35, 
			 "cosmo_total_nonelectrostatic_energy": 17.03, 
			 "SMD_solvation_energy": 8.17 
		},
		"coords": [
			{
				"x": 2.1568698275,
				"y": 0.2667315106,
				"z": -3.242195885,
				"element": "C" 
			},
			{
				"x": 1.5257283418,
				"y": 1.1771130528,
				"z": -2.2008508996,
				"element": "C" 
			},
			{
				"x": 0.9344478923,
				"y": 0.4088573285,
				"z": -1.1186112004,
				"element": "O" 
			},
			{
				"x": 1.7476464681,
				"y": 0.0596733891,
				"z": -0.1095198676,
				"element": "C" 
			},
			{
				"x": 2.942332527,
				"y": 0.3009873102,
				"z": -0.0861950165,
				"element": "O" 
			},
			{
				"x": 1.0316053205,
				"y": -0.6685691201,
				"z": 0.9733409688,
				"element": "C" 
			},
			{
				"x": 1.6517874855,
				"y": -1.7060667422,
				"z": 1.6496311331,
				"element": "C" 
			},
			{
				"x": 2.9002015561,
				"y": -2.2990185915,
				"z": 1.4044850077,
				"element": "N" 
			},
			{
				"x": 4.1783202813,
				"y": -1.8487878541,
				"z": 1.695707267,
				"element": "C" 
			},
			{
				"x": 5.153825153,
				"y": -2.485488457,
				"z": 1.364793818,
				"element": "O" 
			},
			{
				"x": 4.2568816774,
				"y": -0.5364874607,
				"z": 2.5020432537,
				"element": "C" 
			},
			{
				"x": 3.983202231,
				"y": -0.931552108,
				"z": 4.25120589,
				"element": "Cl" 
			},
			{
				"x": 5.8224939453,
				"y": 0.2659672415,
				"z": 2.2565126758,
				"element": "Cl" 
			},
			{
				"x": 0.6147922701,
				"y": -2.3691495882,
				"z": 2.8863030056,
				"element": "S" 
			},
			{
				"x": -0.6327430202,
				"y": -1.2424968939,
				"z": 2.49726293,
				"element": "C" 
			},
			{
				"x": -0.2983516551,
				"y": -0.3934328656,
				"z": 1.4721591835,
				"element": "C" 
			},
			{
				"x": -1.2291212162,
				"y": 0.6906061311,
				"z": 1.0446384521,
				"element": "C" 
			},
			{
				"x": -1.8723961475,
				"y": 0.6652296945,
				"z": -0.2024523345,
				"element": "C" 
			},
			{
				"x": -2.7870558066,
				"y": 1.659403126,
				"z": -0.5463081009,
				"element": "C" 
			},
			{
				"x": -3.0731962744,
				"y": 2.694348052,
				"z": 0.347633027,
				"element": "C" 
			},
			{
				"x": -2.4419249938,
				"y": 2.7272320331,
				"z": 1.5910995354,
				"element": "C" 
			},
			{
				"x": -1.5291294493,
				"y": 1.729722977,
				"z": 1.9384442943,
				"element": "C" 
			},
			{
				"x": 3.0044461272,
				"y": -0.2757760941,
				"z": -2.816946533,
				"element": "H" 
			},
			{
				"x": 1.4278323551,
				"y": -0.4533408556,
				"z": -3.6253419581,
				"element": "H" 
			},
			{
				"x": 2.5207075429,
				"y": 0.8665507876,
				"z": -4.0828850334,
				"element": "H" 
			},
			{
				"x": 2.2600417659,
				"y": 1.8665593952,
				"z": -1.7787895514,
				"element": "H" 
			},
			{
				"x": 0.6861630349,
				"y": 1.7425603769,
				"z": -2.6108553596,
				"element": "H" 
			},
			{
				"x": 2.915559504,
				"y": -3.211940704,
				"z": 0.9631144349,
				"element": "H" 
			},
			{
				"x": 3.483748087,
				"y": 0.1635462268,
				"z": 2.2052608367,
				"element": "H" 
			},
			{
				"x": -1.5658771092,
				"y": -1.254795419,
				"z": 3.0435112108,
				"element": "H" 
			},
			{
				"x": -1.652755816,
				"y": -0.1367016524,
				"z": -0.8983022262,
				"element": "H" 
			},
			{
				"x": -3.282189072,
				"y": 1.6230912163,
				"z": -1.5126087628,
				"element": "H" 
			},
			{
				"x": -3.7855036319,
				"y": 3.4681592802,
				"z": 0.0762287609,
				"element": "H" 
			},
			{
				"x": -2.6582596255,
				"y": 3.527436375,
				"z": 2.2930111979,
				"element": "H" 
			},
			{
				"x": -1.0364295761,
				"y": 1.7563289021,
				"z": 2.906075846,
				"element": "H" 
			}
		],
		 "valence_orbital": [ 
			{
				"type": "occ",
				"energy": -0.27753,
				"method": "rhf"
			},
			{
				"type": "occ",
				"energy": -0.27204,
				"method": "rhf"
			},
			{
				"type": "occ",
				"energy": -0.25997,
				"method": "rhf"
			},
			{
				"type": "occ",
				"energy": -0.25848,
				"method": "rhf"
			},
			{
				"type": "occ",
				"energy": -0.2462,
				"method": "rhf"
			},
			{
				"type": "unocc",
				"energy": -0.0595,
				"method": "rhf"
			},
			{
				"type": "unocc",
				"energy": -0.03053,
				"method": "rhf"
			},
			{
				"type": "unocc",
				"energy": -0.02573,
				"method": "rhf"
			},
			{
				"type": "unocc",
				"energy": -0.00985,
				"method": "rhf"
			},
			{
				"type": "unocc",
				"energy": -0.00187,
				"method": "rhf"
			}
		],
		"cosmo_sigma_profile": { 
			"-0.025": 0.0,
			"-0.024": 0.0,
			"-0.023": 0.0,
			"-0.022": 0.0,
			"-0.021": 0.0,
			"-0.02": 0.0,
			"-0.019": 0.0,
			"-0.018": 0.0,
			"-0.017": 0.00683245850339,
			"-0.016": 0.781021932028,
			"-0.015": 1.4054407045,
			"-0.014": 0.739971763832,
			"-0.013": 1.16471784009,
			"-0.012": 0.979322103144,
			"-0.011": 0.939816765729,
			"-0.01": 1.42131794629,
			"-0.009": 3.8218742956,
			"-0.008": 3.92372408562,
			"-0.007": 4.23198473444,
			"-0.006": 10.0860737137,
			"-0.005": 19.5842533806,
			"-0.004": 28.4286670904,
			"-0.003": 31.4064352034,
			"-0.002": 28.722528064,
			"-0.001": 30.282710772,
			"0.0": 31.3864364917,
			"0.001": 28.9615320703,
			"0.002": 30.4722524261,
			"0.003": 28.9663836709,
			"0.004": 30.0741757479,
			"0.005": 15.0323018926,
			"0.006": 8.87066731823,
			"0.007": 3.7448693489,
			"0.008": 2.31739194743,
			"0.009": 3.34501838652,
			"0.01": 4.18141632132,
			"0.011": 5.66961529503,
			"0.012": 3.33836824269,
			"0.013": 0.287644029316,
			"0.014": 0.0,
			"0.015": 0.0,
			"0.016": 0.0,
			"0.017": 0.0,
			"0.018": 0.0,
			"0.019": 0.0,
			"0.02": 0.0,
			"0.021": 0.0,
			"0.022": 0.0,
			"0.023": 0.0,
			"0.024": 0.0,
			"0.025": 0.0
		}
	}
}
