{
	 "smiles": "CC1=C(C)C2=C(S1)N=C(C)N=C2Cl", 
	 "Tm": 389.15, 
	 "num_atms": 22, 
	 "gaussian": { 
		 "optdone": 1, 
		 "sigma_profile": "yes", 
		 "theory": "DFT", 
		 "functional": "B3LYP", 
		 "basiset": "6-31G**", 
		 "properties": { 
			 "R2extent": 3288.2901, 
			 "electric_dipole_moment_norm": 2.77963797103, 
			 "electric_quadrupole_moment_norm": 9.92226138136, 
			 "total_energy": -1316.28355491, 
			 "HOMO_LUMO_gap": 0.18069, 
			 "cosmo_polarized_energy": -6.68, 
			 "cosmo_cavitation_energy": 28.62, 
			 "cosmo_dispersion_energy": -21.82, 
			 "cosmo_repulsion_energy": 1.68, 
			 "cosmo_total_nonelectrostatic_energy": 8.47, 
			 "SMD_solvation_energy": 1.35 
		},
		"coords": [
			{
				"x": -2.7035791216,
				"y": 2.1152823592,
				"z": 0.2137750601,
				"element": "C" 
			},
			{
				"x": -1.4211339135,
				"y": 1.3298826338,
				"z": 0.1724128051,
				"element": "C" 
			},
			{
				"x": -0.9265663814,
				"y": 0.4765978648,
				"z": 1.121920005,
				"element": "C" 
			},
			{
				"x": -1.6384343354,
				"y": 0.187706436,
				"z": 2.4173958237,
				"element": "C" 
			},
			{
				"x": 0.3419364589,
				"y": -0.0924468057,
				"z": 0.7141966861,
				"element": "C" 
			},
			{
				"x": 0.7682243136,
				"y": 0.3641873904,
				"z": -0.5603565424,
				"element": "C" 
			},
			{
				"x": -0.3850189725,
				"y": 1.4825543576,
				"z": -1.2452394505,
				"element": "S" 
			},
			{
				"x": 1.8901839784,
				"y": 0.0114338687,
				"z": -1.1851103047,
				"element": "N" 
			},
			{
				"x": 2.6611664007,
				"y": -0.8526957553,
				"z": -0.5225784137,
				"element": "C" 
			},
			{
				"x": 3.9455325114,
				"y": -1.3003225667,
				"z": -1.1606528853,
				"element": "C" 
			},
			{
				"x": 2.3749471145,
				"y": -1.3659838445,
				"z": 0.6960097662,
				"element": "N" 
			},
			{
				"x": 1.2603055444,
				"y": -0.9963510532,
				"z": 1.2827488582,
				"element": "C" 
			},
			{
				"x": 0.9654545134,
				"y": -1.713054506,
				"z": 2.8686937056,
				"element": "Cl" 
			},
			{
				"x": -2.7269026297,
				"y": 2.7928784678,
				"z": 1.0742270491,
				"element": "H" 
			},
			{
				"x": -2.8296936491,
				"y": 2.7225920213,
				"z": -0.6858660848,
				"element": "H" 
			},
			{
				"x": -3.5731097551,
				"y": 1.4529853818,
				"z": 0.288369766,
				"element": "H" 
			},
			{
				"x": -1.8727165297,
				"y": -0.8763900247,
				"z": 2.5183955104,
				"element": "H" 
			},
			{
				"x": -1.0265718122,
				"y": 0.4621619599,
				"z": 3.2820739822,
				"element": "H" 
			},
			{
				"x": -2.5753460058,
				"y": 0.7455724765,
				"z": 2.4772974537,
				"element": "H" 
			},
			{
				"x": 4.7958502815,
				"y": -1.0485177373,
				"z": -0.5185563654,
				"element": "H" 
			},
			{
				"x": 4.0691656574,
				"y": -0.8236255379,
				"z": -2.1334123753,
				"element": "H" 
			},
			{
				"x": 3.9492063319,
				"y": -2.3883473865,
				"z": -1.2828440493,
				"element": "H" 
			}
		],
		 "valence_orbital": [ 
			{
				"type": "occ",
				"energy": -0.31131,
				"method": "rhf"
			},
			{
				"type": "occ",
				"energy": -0.30136,
				"method": "rhf"
			},
			{
				"type": "occ",
				"energy": -0.2659,
				"method": "rhf"
			},
			{
				"type": "occ",
				"energy": -0.26172,
				"method": "rhf"
			},
			{
				"type": "occ",
				"energy": -0.22825,
				"method": "rhf"
			},
			{
				"type": "unocc",
				"energy": -0.04756,
				"method": "rhf"
			},
			{
				"type": "unocc",
				"energy": -0.03459,
				"method": "rhf"
			},
			{
				"type": "unocc",
				"energy": 0.00327,
				"method": "rhf"
			},
			{
				"type": "unocc",
				"energy": 0.0244,
				"method": "rhf"
			},
			{
				"type": "unocc",
				"energy": 0.03822,
				"method": "rhf"
			}
		],
		"cosmo_sigma_profile": { 
			"-0.025": 0.0,
			"-0.024": 0.0,
			"-0.023": 0.0,
			"-0.022": 0.0,
			"-0.021": 0.0,
			"-0.02": 0.0,
			"-0.019": 0.0,
			"-0.018": 0.0,
			"-0.017": 0.0,
			"-0.016": 0.0,
			"-0.015": 0.0,
			"-0.014": 0.0,
			"-0.013": 0.0,
			"-0.012": 0.0,
			"-0.011": 0.0,
			"-0.01": 0.0,
			"-0.009": 0.0,
			"-0.008": 0.0,
			"-0.007": 0.212817648578,
			"-0.006": 3.81995209955,
			"-0.005": 12.7479525953,
			"-0.004": 18.1693027301,
			"-0.003": 22.2101956651,
			"-0.002": 29.8347363493,
			"-0.001": 34.5236854259,
			"0.0": 25.9054714415,
			"0.001": 21.075653532,
			"0.002": 17.2360120122,
			"0.003": 13.8607390337,
			"0.004": 11.2021195365,
			"0.005": 4.60532383372,
			"0.006": 2.73453377076,
			"0.007": 2.96389416095,
			"0.008": 2.79076976343,
			"0.009": 1.91333611687,
			"0.01": 1.8140900518,
			"0.011": 1.91823831515,
			"0.012": 1.46335813379,
			"0.013": 1.38909668863,
			"0.014": 0.255908832182,
			"0.015": 0.0,
			"0.016": 0.0,
			"0.017": 0.0,
			"0.018": 0.0,
			"0.019": 0.0,
			"0.02": 0.0,
			"0.021": 0.0,
			"0.022": 0.0,
			"0.023": 0.0,
			"0.024": 0.0,
			"0.025": 0.0
		}
	}
}
