{
	 "smiles": "COC1=C(N)C=C(C=C1)S(=O)(=O)N1CCOCC1", 
	 "Tm": 463.15, 
	 "num_atms": 34, 
	 "gaussian": { 
		 "optdone": 1, 
		 "sigma_profile": "yes", 
		 "theory": "DFT", 
		 "functional": "B3LYP", 
		 "basiset": "6-31G**", 
		 "properties": { 
			 "R2extent": 7197.5333, 
			 "electric_dipole_moment_norm": 6.65111116205, 
			 "electric_quadrupole_moment_norm": 25.9430048668, 
			 "total_energy": -1237.30682758, 
			 "HOMO_LUMO_gap": 0.1875, 
			 "cosmo_polarized_energy": -20.38, 
			 "cosmo_cavitation_energy": 36.94, 
			 "cosmo_dispersion_energy": -27.23, 
			 "cosmo_repulsion_energy": 2.08, 
			 "cosmo_total_nonelectrostatic_energy": 11.79, 
			 "SMD_solvation_energy": 4.79 
		},
		"coords": [
			{
				"x": 3.2598930193,
				"y": 1.3779470297,
				"z": 4.4169848019,
				"element": "C" 
			},
			{
				"x": 2.4735837219,
				"y": 0.4169340545,
				"z": 3.7273928597,
				"element": "O" 
			},
			{
				"x": 1.3991794344,
				"y": 0.8540503932,
				"z": 3.003301297,
				"element": "C" 
			},
			{
				"x": 0.6694425913,
				"y": -0.1845602359,
				"z": 2.3656771879,
				"element": "C" 
			},
			{
				"x": 1.042110345,
				"y": -1.5020040911,
				"z": 2.5857576104,
				"element": "N" 
			},
			{
				"x": -0.4355843376,
				"y": 0.1635058046,
				"z": 1.5864121791,
				"element": "C" 
			},
			{
				"x": -0.8106382268,
				"y": 1.5064344585,
				"z": 1.4574306343,
				"element": "C" 
			},
			{
				"x": -0.1040257878,
				"y": 2.5228062679,
				"z": 2.0946718823,
				"element": "C" 
			},
			{
				"x": 1.0093558539,
				"y": 2.1845882509,
				"z": 2.8719297315,
				"element": "C" 
			},
			{
				"x": -2.1994966923,
				"y": 1.9231455223,
				"z": 0.4055475098,
				"element": "S" 
			},
			{
				"x": -3.0484196038,
				"y": 0.7338301405,
				"z": 0.2931937533,
				"element": "O" 
			},
			{
				"x": -2.7221067548,
				"y": 3.2182650774,
				"z": 0.8478938329,
				"element": "O" 
			},
			{
				"x": -1.5811253376,
				"y": 2.1891997417,
				"z": -1.1516561126,
				"element": "N" 
			},
			{
				"x": -1.0679758056,
				"y": 1.0147383042,
				"z": -1.8721402928,
				"element": "C" 
			},
			{
				"x": -0.9272584861,
				"y": 1.3852531119,
				"z": -3.3489644028,
				"element": "C" 
			},
			{
				"x": -0.0915645175,
				"y": 2.5211638803,
				"z": -3.5206104937,
				"element": "O" 
			},
			{
				"x": -0.6251348012,
				"y": 3.6496273379,
				"z": -2.841713109,
				"element": "C" 
			},
			{
				"x": -0.752002992,
				"y": 3.3889472484,
				"z": -1.3404626174,
				"element": "C" 
			},
			{
				"x": 2.6653616374,
				"y": 1.9196829305,
				"z": 5.1626845888,
				"element": "H" 
			},
			{
				"x": 3.7135235073,
				"y": 2.0977323827,
				"z": 3.7241258744,
				"element": "H" 
			},
			{
				"x": 4.0476988561,
				"y": 0.8175589955,
				"z": 4.9221272975,
				"element": "H" 
			},
			{
				"x": 0.7531461551,
				"y": -2.1687510653,
				"z": 1.8855794284,
				"element": "H" 
			},
			{
				"x": 1.9892050772,
				"y": -1.6278746287,
				"z": 2.9119636274,
				"element": "H" 
			},
			{
				"x": -1.0325578503,
				"y": -0.60934087,
				"z": 1.1135702402,
				"element": "H" 
			},
			{
				"x": -0.4313691706,
				"y": 3.5521916127,
				"z": 2.0133208895,
				"element": "H" 
			},
			{
				"x": 1.5623268999,
				"y": 2.9686812847,
				"z": 3.3753490435,
				"element": "H" 
			},
			{
				"x": -0.0873004128,
				"y": 0.700796632,
				"z": -1.4789681036,
				"element": "H" 
			},
			{
				"x": -1.7799903002,
				"y": 0.1955614063,
				"z": -1.7535084194,
				"element": "H" 
			},
			{
				"x": -1.9252530843,
				"y": 1.5756774689,
				"z": -3.7739907576,
				"element": "H" 
			},
			{
				"x": -0.4590891251,
				"y": 0.5647448275,
				"z": -3.900355103,
				"element": "H" 
			},
			{
				"x": -1.6132048055,
				"y": 3.9113301129,
				"z": -3.2516809986,
				"element": "H" 
			},
			{
				"x": 0.0637955051,
				"y": 4.4796025875,
				"z": -3.0229057324,
				"element": "H" 
			},
			{
				"x": -1.2433331412,
				"y": 4.2317938751,
				"z": -0.8503031449,
				"element": "H" 
			},
			{
				"x": 0.2516086289,
				"y": 3.254040151,
				"z": -0.905654982,
				"element": "H" 
			}
		],
		 "valence_orbital": [ 
			{
				"type": "occ",
				"energy": -0.29262,
				"method": "rhf"
			},
			{
				"type": "occ",
				"energy": -0.27271,
				"method": "rhf"
			},
			{
				"type": "occ",
				"energy": -0.25357,
				"method": "rhf"
			},
			{
				"type": "occ",
				"energy": -0.24252,
				"method": "rhf"
			},
			{
				"type": "occ",
				"energy": -0.2076,
				"method": "rhf"
			},
			{
				"type": "unocc",
				"energy": -0.0201,
				"method": "rhf"
			},
			{
				"type": "unocc",
				"energy": -0.00392,
				"method": "rhf"
			},
			{
				"type": "unocc",
				"energy": 0.06268,
				"method": "rhf"
			},
			{
				"type": "unocc",
				"energy": 0.07502,
				"method": "rhf"
			},
			{
				"type": "unocc",
				"energy": 0.08783,
				"method": "rhf"
			}
		],
		"cosmo_sigma_profile": { 
			"-0.025": 0.0,
			"-0.024": 0.0,
			"-0.023": 0.0,
			"-0.022": 0.0,
			"-0.021": 0.0,
			"-0.02": 0.0,
			"-0.019": 0.0,
			"-0.018": 0.0,
			"-0.017": 0.0,
			"-0.016": 0.0,
			"-0.015": 0.0,
			"-0.014": 0.0151122026817,
			"-0.013": 1.02033213177,
			"-0.012": 1.54317223252,
			"-0.011": 2.48874699109,
			"-0.01": 2.31483068978,
			"-0.009": 2.51084304047,
			"-0.008": 2.51838267023,
			"-0.007": 5.58772585314,
			"-0.006": 18.6158450538,
			"-0.005": 27.3676994743,
			"-0.004": 34.4426822991,
			"-0.003": 29.6569608894,
			"-0.002": 19.1515922248,
			"-0.001": 12.8929801175,
			"0.0": 12.6575270226,
			"0.001": 11.8206555365,
			"0.002": 12.4862168318,
			"0.003": 16.4618068689,
			"0.004": 15.3646489136,
			"0.005": 7.10871814875,
			"0.006": 8.1367401977,
			"0.007": 7.4167178135,
			"0.008": 6.57372613631,
			"0.009": 5.33405803564,
			"0.01": 7.37856080314,
			"0.011": 9.90426969782,
			"0.012": 8.13638593646,
			"0.013": 1.85731805039,
			"0.014": 0.0968806392136,
			"0.015": 0.0,
			"0.016": 0.0,
			"0.017": 0.0,
			"0.018": 0.0,
			"0.019": 0.0,
			"0.02": 0.0,
			"0.021": 0.0,
			"0.022": 0.0,
			"0.023": 0.0,
			"0.024": 0.0,
			"0.025": 0.0
		}
	}
}
