{
	 "smiles": "OC1=C(C=C2C=CC=CC2=C1)C(=O)NCC1=CC=CC=C1", 
	 "Tm": 454.15, 
	 "num_atms": 36, 
	 "gaussian": { 
		 "optdone": 1, 
		 "sigma_profile": "yes", 
		 "theory": "DFT", 
		 "functional": "B3LYP", 
		 "basiset": "6-31G**", 
		 "properties": { 
			 "R2extent": 7192.746, 
			 "electric_dipole_moment_norm": 4.52966235607, 
			 "electric_quadrupole_moment_norm": 13.2166806911, 
			 "total_energy": -900.18880197, 
			 "HOMO_LUMO_gap": 0.14546, 
			 "cosmo_polarized_energy": -13.28, 
			 "cosmo_cavitation_energy": 39.36, 
			 "cosmo_dispersion_energy": -27.96, 
			 "cosmo_repulsion_energy": 2.11, 
			 "cosmo_total_nonelectrostatic_energy": 13.5, 
			 "SMD_solvation_energy": 6.96 
		},
		"coords": [
			{
				"x": 1.8094551791,
				"y": -4.2983328345,
				"z": -0.6154306919,
				"element": "O" 
			},
			{
				"x": 0.86163468,
				"y": -3.3484908102,
				"z": -0.7096249487,
				"element": "C" 
			},
			{
				"x": 1.1464378328,
				"y": -1.9647591666,
				"z": -0.4172636465,
				"element": "C" 
			},
			{
				"x": 0.155177151,
				"y": -1.0164763259,
				"z": -0.6284099019,
				"element": "C" 
			},
			{
				"x": -1.1450959468,
				"y": -1.3720472787,
				"z": -1.0516286836,
				"element": "C" 
			},
			{
				"x": -2.1625886049,
				"y": -0.4003495313,
				"z": -1.26406548,
				"element": "C" 
			},
			{
				"x": -3.423989412,
				"y": -0.7789349861,
				"z": -1.6586753895,
				"element": "C" 
			},
			{
				"x": -3.7207017849,
				"y": -2.1522946038,
				"z": -1.8615695105,
				"element": "C" 
			},
			{
				"x": -2.7581549335,
				"y": -3.1163186274,
				"z": -1.6709308794,
				"element": "C" 
			},
			{
				"x": -1.4409540328,
				"y": -2.7605422917,
				"z": -1.263152303,
				"element": "C" 
			},
			{
				"x": -0.4170875344,
				"y": -3.7176581596,
				"z": -1.0898684978,
				"element": "C" 
			},
			{
				"x": 2.5235833456,
				"y": -1.6213599457,
				"z": 0.0267881989,
				"element": "C" 
			},
			{
				"x": 3.4831325118,
				"y": -2.3662545734,
				"z": -0.250036755,
				"element": "O" 
			},
			{
				"x": 2.777345678,
				"y": -0.4750253837,
				"z": 0.7344005241,
				"element": "N" 
			},
			{
				"x": 1.8951530397,
				"y": 0.2782888087,
				"z": 1.6187359869,
				"element": "C" 
			},
			{
				"x": 1.6734338783,
				"y": 1.7320268925,
				"z": 1.2231303697,
				"element": "C" 
			},
			{
				"x": 2.0926584617,
				"y": 2.2432941701,
				"z": -0.0084654897,
				"element": "C" 
			},
			{
				"x": 1.8571181384,
				"y": 3.5814559978,
				"z": -0.3379569254,
				"element": "C" 
			},
			{
				"x": 1.2005870235,
				"y": 4.4214952308,
				"z": 0.5602035711,
				"element": "C" 
			},
			{
				"x": 0.7803460733,
				"y": 3.9176856053,
				"z": 1.7946462233,
				"element": "C" 
			},
			{
				"x": 1.017494033,
				"y": 2.5844039383,
				"z": 2.1227416838,
				"element": "C" 
			},
			{
				"x": 2.6706589055,
				"y": -3.8226556975,
				"z": -0.5140817197,
				"element": "H" 
			},
			{
				"x": 0.3752770696,
				"y": 0.037891023,
				"z": -0.4952555699,
				"element": "H" 
			},
			{
				"x": -1.9242332626,
				"y": 0.6482969638,
				"z": -1.103996714,
				"element": "H" 
			},
			{
				"x": -4.1964202052,
				"y": -0.0322627883,
				"z": -1.8162631684,
				"element": "H" 
			},
			{
				"x": -4.7205738866,
				"y": -2.4414863812,
				"z": -2.1730845078,
				"element": "H" 
			},
			{
				"x": -2.9894045924,
				"y": -4.1657577987,
				"z": -1.8322403207,
				"element": "H" 
			},
			{
				"x": -0.6097116106,
				"y": -4.7675887871,
				"z": -1.2868165385,
				"element": "H" 
			},
			{
				"x": 3.7694687444,
				"y": -0.3933118135,
				"z": 0.9238591796,
				"element": "H" 
			},
			{
				"x": 2.318637008,
				"y": 0.2472458128,
				"z": 2.6312574224,
				"element": "H" 
			},
			{
				"x": 0.9373256037,
				"y": -0.2451599476,
				"z": 1.6770971394,
				"element": "H" 
			},
			{
				"x": 2.6090434628,
				"y": 1.5916959561,
				"z": -0.706547124,
				"element": "H" 
			},
			{
				"x": 2.190597799,
				"y": 3.9642940801,
				"z": -1.2983321834,
				"element": "H" 
			},
			{
				"x": 1.0190224959,
				"y": 5.461316593,
				"z": 0.304645034,
				"element": "H" 
			},
			{
				"x": 0.2708410233,
				"y": 4.5652649498,
				"z": 2.502541664,
				"element": "H" 
			},
			{
				"x": 0.6913866684,
				"y": 2.2006117105,
				"z": 3.0872499522,
				"element": "H" 
			}
		],
		 "valence_orbital": [ 
			{
				"type": "occ",
				"energy": -0.26581,
				"method": "rhf"
			},
			{
				"type": "occ",
				"energy": -0.25999,
				"method": "rhf"
			},
			{
				"type": "occ",
				"energy": -0.25346,
				"method": "rhf"
			},
			{
				"type": "occ",
				"energy": -0.23616,
				"method": "rhf"
			},
			{
				"type": "occ",
				"energy": -0.20245,
				"method": "rhf"
			},
			{
				"type": "unocc",
				"energy": -0.05699,
				"method": "rhf"
			},
			{
				"type": "unocc",
				"energy": -0.01621,
				"method": "rhf"
			},
			{
				"type": "unocc",
				"energy": -0.01311,
				"method": "rhf"
			},
			{
				"type": "unocc",
				"energy": -0.00924,
				"method": "rhf"
			},
			{
				"type": "unocc",
				"energy": 0.02195,
				"method": "rhf"
			}
		],
		"cosmo_sigma_profile": { 
			"-0.025": 0.0,
			"-0.024": 0.0,
			"-0.023": 0.0,
			"-0.022": 0.0,
			"-0.021": 0.0,
			"-0.02": 0.0,
			"-0.019": 0.0,
			"-0.018": 0.0,
			"-0.017": 0.0,
			"-0.016": 0.0,
			"-0.015": 0.0,
			"-0.014": 1.08427871043,
			"-0.013": 0.876101732688,
			"-0.012": 0.824215221102,
			"-0.011": 1.06719770161,
			"-0.01": 1.07538838837,
			"-0.009": 1.12937164623,
			"-0.008": 1.18183612396,
			"-0.007": 2.4553822687,
			"-0.006": 18.774576071,
			"-0.005": 26.952279812,
			"-0.004": 29.9256671236,
			"-0.003": 27.7436824292,
			"-0.002": 21.8704451651,
			"-0.001": 20.1812464737,
			"0.0": 17.3772121971,
			"0.001": 18.904994894,
			"0.002": 20.787311351,
			"0.003": 26.5272131948,
			"0.004": 26.9734656587,
			"0.005": 19.1401552953,
			"0.006": 10.6061348664,
			"0.007": 2.68950050327,
			"0.008": 2.32672445486,
			"0.009": 2.69443190156,
			"0.01": 3.18428612063,
			"0.011": 3.70131985988,
			"0.012": 3.8353576941,
			"0.013": 1.35515841623,
			"0.014": 0.0818165933762,
			"0.015": 0.0,
			"0.016": 0.0,
			"0.017": 0.0,
			"0.018": 0.0,
			"0.019": 0.0,
			"0.02": 0.0,
			"0.021": 0.0,
			"0.022": 0.0,
			"0.023": 0.0,
			"0.024": 0.0,
			"0.025": 0.0
		}
	}
}
