{
	 "smiles": "CC(C)NCC(O)COC1=CC=C(CCOCC2CC2)C=C1", 
	 "Tm": 344.15, 
	 "num_atms": 51, 
	 "gaussian": { 
		 "optdone": 1, 
		 "sigma_profile": "yes", 
		 "theory": "DFT", 
		 "functional": "B3LYP", 
		 "basiset": "6-31G**", 
		 "properties": { 
			 "R2extent": 13475.9156, 
			 "electric_dipole_moment_norm": 2.6074225185, 
			 "electric_quadrupole_moment_norm": 10.0771542675, 
			 "total_energy": -983.768372904, 
			 "HOMO_LUMO_gap": 0.21142, 
			 "cosmo_polarized_energy": -12.68, 
			 "cosmo_cavitation_energy": 52.45, 
			 "cosmo_dispersion_energy": -34.85, 
			 "cosmo_repulsion_energy": 2.74, 
			 "cosmo_total_nonelectrostatic_energy": 20.34, 
			 "SMD_solvation_energy": 7.32 
		},
		"coords": [
			{
				"x": 2.699643874,
				"y": 2.0711827484,
				"z": -4.3436371022,
				"element": "C" 
			},
			{
				"x": 1.4970147014,
				"y": 1.2887253518,
				"z": -4.8798675781,
				"element": "C" 
			},
			{
				"x": 1.9308780122,
				"y": 0.2480801021,
				"z": -5.9279412156,
				"element": "C" 
			},
			{
				"x": 0.7545789842,
				"y": 0.7297249599,
				"z": -3.7399861214,
				"element": "N" 
			},
			{
				"x": -0.5188986252,
				"y": 0.0839260891,
				"z": -4.057201356,
				"element": "C" 
			},
			{
				"x": -1.3395845543,
				"y": -0.1097302742,
				"z": -2.7811324193,
				"element": "C" 
			},
			{
				"x": -2.436776171,
				"y": -0.9546839252,
				"z": -3.0991586685,
				"element": "O" 
			},
			{
				"x": -1.8412370234,
				"y": 1.2219979504,
				"z": -2.2247871187,
				"element": "C" 
			},
			{
				"x": -2.5724441806,
				"y": 1.0242897981,
				"z": -1.0092548984,
				"element": "O" 
			},
			{
				"x": -1.897954174,
				"y": 0.9786519434,
				"z": 0.1858246786,
				"element": "C" 
			},
			{
				"x": -2.7026378042,
				"y": 0.8264231988,
				"z": 1.324299032,
				"element": "C" 
			},
			{
				"x": -2.1278042049,
				"y": 0.7820550427,
				"z": 2.5884428225,
				"element": "C" 
			},
			{
				"x": -0.7381386466,
				"y": 0.8881268936,
				"z": 2.7616256384,
				"element": "C" 
			},
			{
				"x": -0.1105745947,
				"y": 0.8135742249,
				"z": 4.1367801787,
				"element": "C" 
			},
			{
				"x": 0.0984004366,
				"y": -0.6132248198,
				"z": 4.6529780324,
				"element": "C" 
			},
			{
				"x": -1.1621532829,
				"y": -1.2184827316,
				"z": 4.8647339429,
				"element": "O" 
			},
			{
				"x": -1.0753273891,
				"y": -2.5612172292,
				"z": 5.3058917529,
				"element": "C" 
			},
			{
				"x": -2.4634982086,
				"y": -3.1444691578,
				"z": 5.4577608229,
				"element": "C" 
			},
			{
				"x": -3.6176400382,
				"y": -2.2886096179,
				"z": 5.9128711484,
				"element": "C" 
			},
			{
				"x": -3.5601788509,
				"y": -2.7902326267,
				"z": 4.4867816037,
				"element": "C" 
			},
			{
				"x": 0.046811897,
				"y": 1.0402571869,
				"z": 1.6161173745,
				"element": "C" 
			},
			{
				"x": -0.51067306,
				"y": 1.0837535429,
				"z": 0.3339808341,
				"element": "C" 
			},
			{
				"x": 3.2377728514,
				"y": 2.5714884678,
				"z": -5.1548984689,
				"element": "H" 
			},
			{
				"x": 3.4086528577,
				"y": 1.3993997672,
				"z": -3.843081712,
				"element": "H" 
			},
			{
				"x": 2.3768667369,
				"y": 2.8231361739,
				"z": -3.6185307207,
				"element": "H" 
			},
			{
				"x": 0.8150577354,
				"y": 2.0003341503,
				"z": -5.3667189206,
				"element": "H" 
			},
			{
				"x": 1.075065527,
				"y": -0.2997178144,
				"z": -6.3341568856,
				"element": "H" 
			},
			{
				"x": 2.4476841396,
				"y": 0.7264730209,
				"z": -6.767102384,
				"element": "H" 
			},
			{
				"x": 2.6198714695,
				"y": -0.4820823228,
				"z": -5.4847880613,
				"element": "H" 
			},
			{
				"x": 1.3548424069,
				"y": 0.0667012015,
				"z": -3.2515655463,
				"element": "H" 
			},
			{
				"x": -1.0749451523,
				"y": 0.7325213422,
				"z": -4.7465872753,
				"element": "H" 
			},
			{
				"x": -0.4309446959,
				"y": -0.8966295504,
				"z": -4.5517588451,
				"element": "H" 
			},
			{
				"x": -0.698018424,
				"y": -0.5893336692,
				"z": -2.0219584382,
				"element": "H" 
			},
			{
				"x": -3.0261768527,
				"y": -0.9383704978,
				"z": -2.3317746572,
				"element": "H" 
			},
			{
				"x": -1.0230773057,
				"y": 1.9352789005,
				"z": -2.0954416374,
				"element": "H" 
			},
			{
				"x": -2.5688235414,
				"y": 1.6431355793,
				"z": -2.9260256135,
				"element": "H" 
			},
			{
				"x": -3.7776386918,
				"y": 0.754255064,
				"z": 1.1924372308,
				"element": "H" 
			},
			{
				"x": -2.7648114559,
				"y": 0.6637511989,
				"z": 3.459719299,
				"element": "H" 
			},
			{
				"x": 0.8678786716,
				"y": 1.3085492397,
				"z": 4.1261550596,
				"element": "H" 
			},
			{
				"x": -0.7288296499,
				"y": 1.348370558,
				"z": 4.8674798931,
				"element": "H" 
			},
			{
				"x": 0.6862002148,
				"y": -1.1966120714,
				"z": 3.9244012565,
				"element": "H" 
			},
			{
				"x": 0.672140689,
				"y": -0.5885430509,
				"z": 5.5955521669,
				"element": "H" 
			},
			{
				"x": -0.4935605938,
				"y": -3.1592521572,
				"z": 4.5824330934,
				"element": "H" 
			},
			{
				"x": -0.5381198949,
				"y": -2.6081341583,
				"z": 6.2701840773,
				"element": "H" 
			},
			{
				"x": -2.4461068795,
				"y": -4.1708613479,
				"z": 5.8197459289,
				"element": "H" 
			},
			{
				"x": -3.4177834058,
				"y": -1.234873979,
				"z": 6.0763702521,
				"element": "H" 
			},
			{
				"x": -4.3478051966,
				"y": -2.7250709208,
				"z": 6.5880729957,
				"element": "H" 
			},
			{
				"x": -4.2511206457,
				"y": -3.5717687829,
				"z": 4.1844563593,
				"element": "H" 
			},
			{
				"x": -3.3228359093,
				"y": -2.0664830801,
				"z": 3.7140785182,
				"element": "H" 
			},
			{
				"x": 1.1264684718,
				"y": 1.1293091035,
				"z": 1.7161732087,
				"element": "H" 
			},
			{
				"x": 0.1408894267,
				"y": 1.1968109848,
				"z": -0.5245915574,
				"element": "H" 
			}
		],
		 "valence_orbital": [ 
			{
				"type": "occ",
				"energy": -0.26417,
				"method": "rhf"
			},
			{
				"type": "occ",
				"energy": -0.25054,
				"method": "rhf"
			},
			{
				"type": "occ",
				"energy": -0.24323,
				"method": "rhf"
			},
			{
				"type": "occ",
				"energy": -0.22513,
				"method": "rhf"
			},
			{
				"type": "occ",
				"energy": -0.20878,
				"method": "rhf"
			},
			{
				"type": "unocc",
				"energy": 0.00264,
				"method": "rhf"
			},
			{
				"type": "unocc",
				"energy": 0.01539,
				"method": "rhf"
			},
			{
				"type": "unocc",
				"energy": 0.07023,
				"method": "rhf"
			},
			{
				"type": "unocc",
				"energy": 0.0892,
				"method": "rhf"
			},
			{
				"type": "unocc",
				"energy": 0.09605,
				"method": "rhf"
			}
		],
		"cosmo_sigma_profile": { 
			"-0.025": 0.0,
			"-0.024": 0.0,
			"-0.023": 0.0,
			"-0.022": 0.0,
			"-0.021": 0.0,
			"-0.02": 0.0,
			"-0.019": 0.0,
			"-0.018": 0.0,
			"-0.017": 0.0,
			"-0.016": 0.0,
			"-0.015": 0.0,
			"-0.014": 0.0,
			"-0.013": 0.508339220106,
			"-0.012": 0.748685167057,
			"-0.011": 0.699729141849,
			"-0.01": 0.411939913335,
			"-0.009": 1.78164889492,
			"-0.008": 1.9909352396,
			"-0.007": 2.88628036502,
			"-0.006": 3.82503132937,
			"-0.005": 12.1081457439,
			"-0.004": 27.8236782907,
			"-0.003": 60.3477845981,
			"-0.002": 58.3742503942,
			"-0.001": 46.7406541437,
			"0.0": 35.2731923845,
			"0.001": 35.8962349069,
			"0.002": 26.0453326981,
			"0.003": 16.7295828118,
			"0.004": 19.5236738096,
			"0.005": 16.1573858184,
			"0.006": 15.6952376752,
			"0.007": 6.60333234633,
			"0.008": 4.52293959995,
			"0.009": 3.55638235208,
			"0.01": 2.46580660812,
			"0.011": 1.63986146356,
			"0.012": 1.06240485326,
			"0.013": 2.04350315014,
			"0.014": 1.97834569677,
			"0.015": 0.11925799338,
			"0.016": 0.0,
			"0.017": 0.0,
			"0.018": 0.0,
			"0.019": 0.0,
			"0.02": 0.0,
			"0.021": 0.0,
			"0.022": 0.0,
			"0.023": 0.0,
			"0.024": 0.0,
			"0.025": 0.0
		}
	}
}
