{
	 "smiles": "CC(=O)NCCOC1=CC=C(N)C=C1", 
	 "Tm": 366.15, 
	 "num_atms": 28, 
	 "gaussian": { 
		 "optdone": 1, 
		 "sigma_profile": "yes", 
		 "theory": "DFT", 
		 "functional": "B3LYP", 
		 "basiset": "6-31G**", 
		 "properties": { 
			 "R2extent": 5162.192, 
			 "electric_dipole_moment_norm": 4.35776690634, 
			 "electric_quadrupole_moment_norm": 28.7028208075, 
			 "total_energy": -649.460087155, 
			 "HOMO_LUMO_gap": 0.18844, 
			 "cosmo_polarized_energy": -18.6, 
			 "cosmo_cavitation_energy": 32.0, 
			 "cosmo_dispersion_energy": -23.22, 
			 "cosmo_repulsion_energy": 1.86, 
			 "cosmo_total_nonelectrostatic_energy": 10.64, 
			 "SMD_solvation_energy": 5.76 
		},
		"coords": [
			{
				"x": 0.5420148661,
				"y": 4.6374001794,
				"z": 1.3996717163,
				"element": "C" 
			},
			{
				"x": 1.3142762342,
				"y": 3.8063771375,
				"z": 0.3843705105,
				"element": "C" 
			},
			{
				"x": 2.2033828165,
				"y": 4.2867196762,
				"z": -0.3062193491,
				"element": "O" 
			},
			{
				"x": 0.952102618,
				"y": 2.487890495,
				"z": 0.2559717924,
				"element": "N" 
			},
			{
				"x": 0.0701951422,
				"y": 1.7132249159,
				"z": 1.1095456871,
				"element": "C" 
			},
			{
				"x": -0.5792508919,
				"y": 0.5849141629,
				"z": 0.3196501755,
				"element": "C" 
			},
			{
				"x": 0.4712276867,
				"y": -0.2389241104,
				"z": -0.1639553341,
				"element": "O" 
			},
			{
				"x": 0.1475133446,
				"y": -1.3197469366,
				"z": -0.9541195865,
				"element": "C" 
			},
			{
				"x": -1.1532956937,
				"y": -1.6975751946,
				"z": -1.2936718593,
				"element": "C" 
			},
			{
				"x": -1.3667459666,
				"y": -2.8165660779,
				"z": -2.1036370298,
				"element": "C" 
			},
			{
				"x": -0.2969665587,
				"y": -3.5795577569,
				"z": -2.5877671224,
				"element": "C" 
			},
			{
				"x": -0.5159306268,
				"y": -4.738173391,
				"z": -3.3486169805,
				"element": "N" 
			},
			{
				"x": 1.0069497452,
				"y": -3.1865789542,
				"z": -2.2345089089,
				"element": "C" 
			},
			{
				"x": 1.2253848273,
				"y": -2.0746524815,
				"z": -1.4319054878,
				"element": "C" 
			},
			{
				"x": 0.9305528621,
				"y": 5.6544721639,
				"z": 1.360621501,
				"element": "H" 
			},
			{
				"x": 0.6616897621,
				"y": 4.2460231399,
				"z": 2.4158314517,
				"element": "H" 
			},
			{
				"x": -0.5298888945,
				"y": 4.6548978076,
				"z": 1.1739741706,
				"element": "H" 
			},
			{
				"x": 1.5505821589,
				"y": 1.9541688607,
				"z": -0.3625349162,
				"element": "H" 
			},
			{
				"x": 0.6071559856,
				"y": 1.2793460395,
				"z": 1.966713498,
				"element": "H" 
			},
			{
				"x": -0.7204806951,
				"y": 2.3555775408,
				"z": 1.5062812164,
				"element": "H" 
			},
			{
				"x": -1.1626203005,
				"y": 0.9953714048,
				"z": -0.5166387373,
				"element": "H" 
			},
			{
				"x": -1.2549437378,
				"y": 0.0122444409,
				"z": 0.97144706,
				"element": "H" 
			},
			{
				"x": -2.0105683083,
				"y": -1.1354157909,
				"z": -0.9418466015,
				"element": "H" 
			},
			{
				"x": -2.3854949945,
				"y": -3.0999032085,
				"z": -2.3567960871,
				"element": "H" 
			},
			{
				"x": -1.3915465167,
				"y": -4.7436542655,
				"z": -3.8550400159,
				"element": "H" 
			},
			{
				"x": 0.2527484748,
				"y": -4.9864960898,
				"z": -3.9574904592,
				"element": "H" 
			},
			{
				"x": 1.8563234018,
				"y": -3.763574004,
				"z": -2.5919558855,
				"element": "H" 
			},
			{
				"x": 2.2328332592,
				"y": -1.7726097033,
				"z": -1.1638744181,
				"element": "H" 
			}
		],
		 "valence_orbital": [ 
			{
				"type": "occ",
				"energy": -0.2806,
				"method": "rhf"
			},
			{
				"type": "occ",
				"energy": -0.25007,
				"method": "rhf"
			},
			{
				"type": "occ",
				"energy": -0.24454,
				"method": "rhf"
			},
			{
				"type": "occ",
				"energy": -0.23663,
				"method": "rhf"
			},
			{
				"type": "occ",
				"energy": -0.19036,
				"method": "rhf"
			},
			{
				"type": "unocc",
				"energy": -0.00192,
				"method": "rhf"
			},
			{
				"type": "unocc",
				"energy": 0.02625,
				"method": "rhf"
			},
			{
				"type": "unocc",
				"energy": 0.03441,
				"method": "rhf"
			},
			{
				"type": "unocc",
				"energy": 0.07863,
				"method": "rhf"
			},
			{
				"type": "unocc",
				"energy": 0.08513,
				"method": "rhf"
			}
		],
		"cosmo_sigma_profile": { 
			"-0.025": 0.0,
			"-0.024": 0.0,
			"-0.023": 0.0,
			"-0.022": 0.0,
			"-0.021": 0.0,
			"-0.02": 0.0,
			"-0.019": 0.0,
			"-0.018": 0.0,
			"-0.017": 0.0,
			"-0.016": 0.0,
			"-0.015": 0.0,
			"-0.014": 0.0,
			"-0.013": 0.0143688968278,
			"-0.012": 1.35844600834,
			"-0.011": 3.14578423668,
			"-0.01": 2.88459129772,
			"-0.009": 3.83625287155,
			"-0.008": 4.37771179587,
			"-0.007": 7.06264148304,
			"-0.006": 14.9360885492,
			"-0.005": 26.8649399928,
			"-0.004": 25.1620227822,
			"-0.003": 18.4072623912,
			"-0.002": 15.1140919875,
			"-0.001": 16.0972372373,
			"0.0": 13.4946125779,
			"0.001": 7.84632043137,
			"0.002": 10.1364386242,
			"0.003": 8.61590348557,
			"0.004": 12.5806548951,
			"0.005": 12.1926355836,
			"0.006": 13.0851316146,
			"0.007": 7.84538783399,
			"0.008": 3.27157577961,
			"0.009": 2.24647486045,
			"0.01": 2.50369799845,
			"0.011": 1.81717293206,
			"0.012": 2.97408528389,
			"0.013": 3.19743466474,
			"0.014": 6.10408635746,
			"0.015": 4.11738799432,
			"0.016": 0.496658575606,
			"0.017": 0.0,
			"0.018": 0.0,
			"0.019": 0.0,
			"0.02": 0.0,
			"0.021": 0.0,
			"0.022": 0.0,
			"0.023": 0.0,
			"0.024": 0.0,
			"0.025": 0.0
		}
	}
}
