{
	 "smiles": "COC1=CC=C(NC2=C(Cl)C(=O)N(C2=O)C2=CC=C(C)C=C2)C=C1", 
	 "Tm": 468.15, 
	 "num_atms": 39, 
	 "gaussian": { 
		 "optdone": 1, 
		 "sigma_profile": "yes", 
		 "theory": "DFT", 
		 "functional": "B3LYP", 
		 "basiset": "6-31G**", 
		 "properties": { 
			 "R2extent": 13628.9106, 
			 "electric_dipole_moment_norm": 4.58382369316, 
			 "electric_quadrupole_moment_norm": 34.3333638926, 
			 "total_energy": -1490.32384907, 
			 "HOMO_LUMO_gap": 0.12083, 
			 "cosmo_polarized_energy": -17.51, 
			 "cosmo_cavitation_energy": 45.92, 
			 "cosmo_dispersion_energy": -32.84, 
			 "cosmo_repulsion_energy": 2.49, 
			 "cosmo_total_nonelectrostatic_energy": 15.57, 
			 "SMD_solvation_energy": 9.32 
		},
		"coords": [
			{
				"x": -6.5048767987,
				"y": -2.6145620572,
				"z": 0.1812597171,
				"element": "C" 
			},
			{
				"x": -5.4404814208,
				"y": -1.8350210632,
				"z": 0.7033980989,
				"element": "O" 
			},
			{
				"x": -4.5955645595,
				"y": -1.2255193217,
				"z": -0.1758101507,
				"element": "C" 
			},
			{
				"x": -4.7037884654,
				"y": -1.2971787664,
				"z": -1.5688678535,
				"element": "C" 
			},
			{
				"x": -3.7699753199,
				"y": -0.6349181458,
				"z": -2.3682336666,
				"element": "C" 
			},
			{
				"x": -2.7353643877,
				"y": 0.1101719543,
				"z": -1.7991446535,
				"element": "C" 
			},
			{
				"x": -1.8659036493,
				"y": 0.8186701591,
				"z": -2.6729915744,
				"element": "N" 
			},
			{
				"x": -0.5504138176,
				"y": 1.1164848758,
				"z": -2.5640935068,
				"element": "C" 
			},
			{
				"x": 0.1590360566,
				"y": 1.9963901875,
				"z": -3.3217759371,
				"element": "C" 
			},
			{
				"x": -0.4625238725,
				"y": 3.0025455437,
				"z": -4.5796981206,
				"element": "Cl" 
			},
			{
				"x": 1.5767703165,
				"y": 1.977533427,
				"z": -2.9462959971,
				"element": "C" 
			},
			{
				"x": 2.4960406611,
				"y": 2.6286407661,
				"z": -3.3907588781,
				"element": "O" 
			},
			{
				"x": 1.6850833275,
				"y": 1.0038313499,
				"z": -1.8991307753,
				"element": "N" 
			},
			{
				"x": 0.4428382777,
				"y": 0.426776174,
				"z": -1.6409222884,
				"element": "C" 
			},
			{
				"x": 0.2064214296,
				"y": -0.4661142214,
				"z": -0.8537039005,
				"element": "O" 
			},
			{
				"x": 2.9036458085,
				"y": 0.6539869778,
				"z": -1.2426985815,
				"element": "C" 
			},
			{
				"x": 3.8180451647,
				"y": 1.6527630294,
				"z": -0.8909717045,
				"element": "C" 
			},
			{
				"x": 5.0118898015,
				"y": 1.3048721107,
				"z": -0.2630561024,
				"element": "C" 
			},
			{
				"x": 5.3155353998,
				"y": -0.0269250938,
				"z": 0.046752628,
				"element": "C" 
			},
			{
				"x": 6.5937805294,
				"y": -0.3886301173,
				"z": 0.76534934,
				"element": "C" 
			},
			{
				"x": 4.3836705893,
				"y": -1.0097853781,
				"z": -0.3102675062,
				"element": "C" 
			},
			{
				"x": 3.1925728319,
				"y": -0.6844608371,
				"z": -0.9554067872,
				"element": "C" 
			},
			{
				"x": -2.6451000504,
				"y": 0.198106114,
				"z": -0.4019180022,
				"element": "C" 
			},
			{
				"x": -3.5574135458,
				"y": -0.4734437097,
				"z": 0.3967845483,
				"element": "C" 
			},
			{
				"x": -7.1909462399,
				"y": -2.0090912088,
				"z": -0.4252926911,
				"element": "H" 
			},
			{
				"x": -7.0427059172,
				"y": -3.0076137508,
				"z": 1.0451644955,
				"element": "H" 
			},
			{
				"x": -6.1342056665,
				"y": -3.4517096697,
				"z": -0.4242390241,
				"element": "H" 
			},
			{
				"x": -5.4947165922,
				"y": -1.8657924585,
				"z": -2.042498086,
				"element": "H" 
			},
			{
				"x": -3.8459130151,
				"y": -0.7085540486,
				"z": -3.4498796733,
				"element": "H" 
			},
			{
				"x": -2.3148729727,
				"y": 1.2465538873,
				"z": -3.473890386,
				"element": "H" 
			},
			{
				"x": 3.6049354209,
				"y": 2.6879158858,
				"z": -1.1260176871,
				"element": "H" 
			},
			{
				"x": 5.7189113933,
				"y": 2.0892651307,
				"z": -0.0050877465,
				"element": "H" 
			},
			{
				"x": 6.929751728,
				"y": -1.3960877136,
				"z": 0.501816668,
				"element": "H" 
			},
			{
				"x": 7.3999968553,
				"y": 0.3110133882,
				"z": 0.5250209254,
				"element": "H" 
			},
			{
				"x": 6.4573354182,
				"y": -0.366001539,
				"z": 1.854035715,
				"element": "H" 
			},
			{
				"x": 4.5946135013,
				"y": -2.0530126101,
				"z": -0.0889381507,
				"element": "H" 
			},
			{
				"x": 2.4870520906,
				"y": -1.4606736713,
				"z": -1.2237579809,
				"element": "H" 
			},
			{
				"x": -1.8601705595,
				"y": 0.7850003747,
				"z": 0.058182053,
				"element": "H" 
			},
			{
				"x": -3.4940897511,
				"y": -0.4189259536,
				"z": 1.4782832232,
				"element": "H" 
			}
		],
		 "valence_orbital": [ 
			{
				"type": "occ",
				"energy": -0.26071,
				"method": "rhf"
			},
			{
				"type": "occ",
				"energy": -0.25518,
				"method": "rhf"
			},
			{
				"type": "occ",
				"energy": -0.24744,
				"method": "rhf"
			},
			{
				"type": "occ",
				"energy": -0.22683,
				"method": "rhf"
			},
			{
				"type": "occ",
				"energy": -0.20451,
				"method": "rhf"
			},
			{
				"type": "unocc",
				"energy": -0.08368,
				"method": "rhf"
			},
			{
				"type": "unocc",
				"energy": -0.01373,
				"method": "rhf"
			},
			{
				"type": "unocc",
				"energy": -0.00646,
				"method": "rhf"
			},
			{
				"type": "unocc",
				"energy": 0.00125,
				"method": "rhf"
			},
			{
				"type": "unocc",
				"energy": 0.00636,
				"method": "rhf"
			}
		],
		"cosmo_sigma_profile": { 
			"-0.025": 0.0,
			"-0.024": 0.0,
			"-0.023": 0.0,
			"-0.022": 0.0,
			"-0.021": 0.0,
			"-0.02": 0.0,
			"-0.019": 0.0,
			"-0.018": 0.0,
			"-0.017": 0.0,
			"-0.016": 0.0,
			"-0.015": 0.194930318511,
			"-0.014": 1.25759120136,
			"-0.013": 1.1445836388,
			"-0.012": 0.721504291089,
			"-0.011": 1.56769903466,
			"-0.01": 1.16832400214,
			"-0.009": 1.82220649898,
			"-0.008": 2.414413603,
			"-0.007": 5.83252253995,
			"-0.006": 17.183007963,
			"-0.005": 30.0644899411,
			"-0.004": 34.8288871632,
			"-0.003": 31.4923598586,
			"-0.002": 26.3346295853,
			"-0.001": 27.2894746883,
			"0.0": 28.892977648,
			"0.001": 22.1137049944,
			"0.002": 20.2727749554,
			"0.003": 25.1344694066,
			"0.004": 26.7561288021,
			"0.005": 22.0364683783,
			"0.006": 6.88493961863,
			"0.007": 5.6688833889,
			"0.008": 6.22332532408,
			"0.009": 6.93884082767,
			"0.01": 7.71583531636,
			"0.011": 6.64618193528,
			"0.012": 1.33721318287,
			"0.013": 0.00373295045111,
			"0.014": 0.0,
			"0.015": 0.0,
			"0.016": 0.0,
			"0.017": 0.0,
			"0.018": 0.0,
			"0.019": 0.0,
			"0.02": 0.0,
			"0.021": 0.0,
			"0.022": 0.0,
			"0.023": 0.0,
			"0.024": 0.0,
			"0.025": 0.0
		}
	}
}
