{
	 "smiles": "CC1=CC(Br)=C(Br)C=C1Br", 
	 "Tm": 386.65, 
	 "num_atms": 15, 
	 "gaussian": { 
		 "optdone": 1, 
		 "sigma_profile": "yes", 
		 "theory": "DFT", 
		 "functional": "B3LYP", 
		 "basiset": "6-31G**", 
		 "properties": { 
			 "R2extent": 6425.7668, 
			 "electric_dipole_moment_norm": 1.8233658821, 
			 "electric_quadrupole_moment_norm": 3.04859620153, 
			 "total_energy": -7983.97250618, 
			 "HOMO_LUMO_gap": 0.20879, 
			 "cosmo_polarized_energy": -3.95, 
			 "cosmo_cavitation_energy": 25.74, 
			 "cosmo_dispersion_energy": -20.11, 
			 "cosmo_repulsion_energy": 1.62, 
			 "cosmo_total_nonelectrostatic_energy": 7.25, 
			 "SMD_solvation_energy": 1.21 
		},
		"coords": [
			{
				"x": 2.1410627273,
				"y": -0.5088338183,
				"z": 1.6812019428,
				"element": "C" 
			},
			{
				"x": 0.8294632168,
				"y": 0.1832011912,
				"z": 1.4198451239,
				"element": "C" 
			},
			{
				"x": -0.1857712138,
				"y": -0.4627501302,
				"z": 0.7065645545,
				"element": "C" 
			},
			{
				"x": -1.4149182595,
				"y": 0.1437141239,
				"z": 0.4433576615,
				"element": "C" 
			},
			{
				"x": -2.710037956,
				"y": -0.8420917523,
				"z": -0.5366455441,
				"element": "Br" 
			},
			{
				"x": -1.6556256537,
				"y": 1.4419015946,
				"z": 0.9017382407,
				"element": "C" 
			},
			{
				"x": -3.2962085045,
				"y": 2.3472444257,
				"z": 0.5915579013,
				"element": "Br" 
			},
			{
				"x": -0.6607640598,
				"y": 2.1108442498,
				"z": 1.6163003757,
				"element": "C" 
			},
			{
				"x": 0.556227836,
				"y": 1.4849563332,
				"z": 1.8659419165,
				"element": "C" 
			},
			{
				"x": 1.8730518682,
				"y": 2.4599599402,
				"z": 2.8505011151,
				"element": "Br" 
			},
			{
				"x": 2.3344868007,
				"y": -0.5947050346,
				"z": 2.7555881672,
				"element": "H" 
			},
			{
				"x": 2.9766014959,
				"y": 0.0549395505,
				"z": 1.2532625072,
				"element": "H" 
			},
			{
				"x": 2.1436752799,
				"y": -1.5118314668,
				"z": 1.2485950373,
				"element": "H" 
			},
			{
				"x": -0.0160743196,
				"y": -1.4704033004,
				"z": 0.3433714908,
				"element": "H" 
			},
			{
				"x": -0.8409692579,
				"y": 3.1163540933,
				"z": 1.9740195097,
				"element": "H" 
			}
		],
		 "valence_orbital": [ 
			{
				"type": "occ",
				"energy": -0.29811,
				"method": "rhf"
			},
			{
				"type": "occ",
				"energy": -0.29807,
				"method": "rhf"
			},
			{
				"type": "occ",
				"energy": -0.28268,
				"method": "rhf"
			},
			{
				"type": "occ",
				"energy": -0.26045,
				"method": "rhf"
			},
			{
				"type": "occ",
				"energy": -0.24351,
				"method": "rhf"
			},
			{
				"type": "unocc",
				"energy": -0.03472,
				"method": "rhf"
			},
			{
				"type": "unocc",
				"energy": -0.03216,
				"method": "rhf"
			},
			{
				"type": "unocc",
				"energy": -0.03107,
				"method": "rhf"
			},
			{
				"type": "unocc",
				"energy": 0.00361,
				"method": "rhf"
			},
			{
				"type": "unocc",
				"energy": 0.03596,
				"method": "rhf"
			}
		],
		"cosmo_sigma_profile": { 
			"-0.025": 0.0,
			"-0.024": 0.0,
			"-0.023": 0.0,
			"-0.022": 0.0,
			"-0.021": 0.0,
			"-0.02": 0.0,
			"-0.019": 0.0,
			"-0.018": 0.0,
			"-0.017": 0.0,
			"-0.016": 0.0,
			"-0.015": 0.0,
			"-0.014": 0.0,
			"-0.013": 0.0,
			"-0.012": 0.0,
			"-0.011": 0.0,
			"-0.01": 0.0,
			"-0.009": 0.0574507543589,
			"-0.008": 2.2063817219,
			"-0.007": 4.07912287682,
			"-0.006": 4.63288181259,
			"-0.005": 9.06768567371,
			"-0.004": 13.2661778825,
			"-0.003": 13.9162345138,
			"-0.002": 16.1823750926,
			"-0.001": 21.211327599,
			"0.0": 25.686126084,
			"0.001": 33.0611291883,
			"0.002": 19.5372747303,
			"0.003": 23.3299271962,
			"0.004": 24.3145301074,
			"0.005": 5.10029472829,
			"0.006": 0.284674819129,
			"0.007": 0.0,
			"0.008": 0.0,
			"0.009": 0.0,
			"0.01": 0.0,
			"0.011": 0.0,
			"0.012": 0.0,
			"0.013": 0.0,
			"0.014": 0.0,
			"0.015": 0.0,
			"0.016": 0.0,
			"0.017": 0.0,
			"0.018": 0.0,
			"0.019": 0.0,
			"0.02": 0.0,
			"0.021": 0.0,
			"0.022": 0.0,
			"0.023": 0.0,
			"0.024": 0.0,
			"0.025": 0.0
		}
	}
}
