{
	 "smiles": "COC1=CC(C=O)=NC(C)=C1", 
	 "Tm": 331.15, 
	 "num_atms": 20, 
	 "gaussian": { 
		 "optdone": 1, 
		 "sigma_profile": "yes", 
		 "theory": "DFT", 
		 "functional": "B3LYP", 
		 "basiset": "6-31G**", 
		 "properties": { 
			 "R2extent": 2787.4621, 
			 "electric_dipole_moment_norm": 6.15178886341, 
			 "electric_quadrupole_moment_norm": 17.5682836891, 
			 "total_energy": -515.45224681, 
			 "HOMO_LUMO_gap": 0.18409, 
			 "cosmo_polarized_energy": -14.66, 
			 "cosmo_cavitation_energy": 24.66, 
			 "cosmo_dispersion_energy": -17.91, 
			 "cosmo_repulsion_energy": 1.45, 
			 "cosmo_total_nonelectrostatic_energy": 8.2, 
			 "SMD_solvation_energy": 5.08 
		},
		"coords": [
			{
				"x": -1.1513854911,
				"y": 0.3699645193,
				"z": -2.3222730496,
				"element": "C" 
			},
			{
				"x": -0.9447169506,
				"y": 0.0247693702,
				"z": -0.9567864258,
				"element": "O" 
			},
			{
				"x": 0.2766991423,
				"y": -0.4267629443,
				"z": -0.584782828,
				"element": "C" 
			},
			{
				"x": 0.4342682809,
				"y": -0.7551222127,
				"z": 0.7715068938,
				"element": "C" 
			},
			{
				"x": 1.671200149,
				"y": -1.2229250429,
				"z": 1.1984024058,
				"element": "C" 
			},
			{
				"x": 1.8312846973,
				"y": -1.5707185572,
				"z": 2.644875647,
				"element": "C" 
			},
			{
				"x": 2.8466094205,
				"y": -1.9877982632,
				"z": 3.155072324,
				"element": "O" 
			},
			{
				"x": 2.7378362128,
				"y": -1.3834273814,
				"z": 0.3899238723,
				"element": "N" 
			},
			{
				"x": 2.5849137288,
				"y": -1.0708074899,
				"z": -0.8968917117,
				"element": "C" 
			},
			{
				"x": 3.7851810917,
				"y": -1.2541681904,
				"z": -1.7939491449,
				"element": "C" 
			},
			{
				"x": 1.3723983478,
				"y": -0.5882169028,
				"z": -1.4314447858,
				"element": "C" 
			},
			{
				"x": -0.4866506595,
				"y": 1.1843821963,
				"z": -2.6346436937,
				"element": "H" 
			},
			{
				"x": -2.1875212039,
				"y": 0.702143312,
				"z": -2.3926958549,
				"element": "H" 
			},
			{
				"x": -1.0011077996,
				"y": -0.4938715933,
				"z": -2.9810058316,
				"element": "H" 
			},
			{
				"x": -0.4005572923,
				"y": -0.6400901103,
				"z": 1.4553321369,
				"element": "H" 
			},
			{
				"x": 0.9063271292,
				"y": -1.4107748302,
				"z": 3.2458027003,
				"element": "H" 
			},
			{
				"x": 3.5705588013,
				"y": -1.9623184267,
				"z": -2.6024664245,
				"element": "H" 
			},
			{
				"x": 4.0787842586,
				"y": -0.3070570286,
				"z": -2.2608706318,
				"element": "H" 
			},
			{
				"x": 4.6225084006,
				"y": -1.6324993009,
				"z": -1.206501112,
				"element": "H" 
			},
			{
				"x": 1.3134697363,
				"y": -0.3521011232,
				"z": -2.4874044859,
				"element": "H" 
			}
		],
		 "valence_orbital": [ 
			{
				"type": "occ",
				"energy": -0.34339,
				"method": "rhf"
			},
			{
				"type": "occ",
				"energy": -0.26501,
				"method": "rhf"
			},
			{
				"type": "occ",
				"energy": -0.2613,
				"method": "rhf"
			},
			{
				"type": "occ",
				"energy": -0.2565,
				"method": "rhf"
			},
			{
				"type": "occ",
				"energy": -0.24729,
				"method": "rhf"
			},
			{
				"type": "unocc",
				"energy": -0.0632,
				"method": "rhf"
			},
			{
				"type": "unocc",
				"energy": -0.01657,
				"method": "rhf"
			},
			{
				"type": "unocc",
				"energy": 0.04046,
				"method": "rhf"
			},
			{
				"type": "unocc",
				"energy": 0.08303,
				"method": "rhf"
			},
			{
				"type": "unocc",
				"energy": 0.09423,
				"method": "rhf"
			}
		],
		"cosmo_sigma_profile": { 
			"-0.025": 0.0,
			"-0.024": 0.0,
			"-0.023": 0.0,
			"-0.022": 0.0,
			"-0.021": 0.0,
			"-0.02": 0.0,
			"-0.019": 0.0,
			"-0.018": 0.0,
			"-0.017": 0.0,
			"-0.016": 0.0,
			"-0.015": 0.0,
			"-0.014": 0.0,
			"-0.013": 0.0,
			"-0.012": 0.0,
			"-0.011": 0.0,
			"-0.01": 0.0,
			"-0.009": 0.291993267565,
			"-0.008": 3.6832852758,
			"-0.007": 8.19660235123,
			"-0.006": 15.0365643708,
			"-0.005": 17.0968606193,
			"-0.004": 20.2254772231,
			"-0.003": 16.4232723712,
			"-0.002": 12.1396130223,
			"-0.001": 14.3325559776,
			"0.0": 17.0544772212,
			"0.001": 17.7483815858,
			"0.002": 7.27479913317,
			"0.003": 4.22808759315,
			"0.004": 4.39081817771,
			"0.005": 3.72291178255,
			"0.006": 3.66575472752,
			"0.007": 3.88113806785,
			"0.008": 4.1262880301,
			"0.009": 4.009294171,
			"0.01": 3.4610617677,
			"0.011": 5.42523682225,
			"0.012": 3.58115704176,
			"0.013": 1.3818621577,
			"0.014": 1.08398874275,
			"0.015": 1.53592028113,
			"0.016": 0.941756290118,
			"0.017": 0.952201468725,
			"0.018": 0.494301814022,
			"0.019": 0.0,
			"0.02": 0.0,
			"0.021": 0.0,
			"0.022": 0.0,
			"0.023": 0.0,
			"0.024": 0.0,
			"0.025": 0.0
		}
	}
}
