{
	 "smiles": "OC(CCC1=CC=CC=C1)CCC1=CC=CC=C1", 
	 "Tm": 318.15, 
	 "num_atms": 38, 
	 "gaussian": { 
		 "optdone": 1, 
		 "sigma_profile": "yes", 
		 "theory": "DFT", 
		 "functional": "B3LYP", 
		 "basiset": "6-31G**", 
		 "properties": { 
			 "R2extent": 4854.8844, 
			 "electric_dipole_moment_norm": 1.55888158627, 
			 "electric_quadrupole_moment_norm": 11.5174983629, 
			 "total_energy": -735.091421385, 
			 "HOMO_LUMO_gap": 0.22683, 
			 "cosmo_polarized_energy": -9.35, 
			 "cosmo_cavitation_energy": 39.2, 
			 "cosmo_dispersion_energy": -25.81, 
			 "cosmo_repulsion_energy": 2.0, 
			 "cosmo_total_nonelectrostatic_energy": 15.4, 
			 "SMD_solvation_energy": 5.75 
		},
		"coords": [
			{
				"x": 2.0831109277,
				"y": 2.129169034,
				"z": -0.3504049447,
				"element": "O" 
			},
			{
				"x": 1.3289081626,
				"y": 1.0774120711,
				"z": -0.9640142503,
				"element": "C" 
			},
			{
				"x": -0.146077795,
				"y": 1.3311604229,
				"z": -0.5972866623,
				"element": "C" 
			},
			{
				"x": -0.4203444077,
				"y": 1.7974112955,
				"z": 0.8524151947,
				"element": "C" 
			},
			{
				"x": -0.1323603685,
				"y": 0.8026943325,
				"z": 1.9592776192,
				"element": "C" 
			},
			{
				"x": 1.0435120964,
				"y": 0.8896863952,
				"z": 2.7185723295,
				"element": "C" 
			},
			{
				"x": 1.3047019799,
				"y": -0.0191280487,
				"z": 3.7457467823,
				"element": "C" 
			},
			{
				"x": 0.390849313,
				"y": -1.0345668252,
				"z": 4.0342926541,
				"element": "C" 
			},
			{
				"x": -0.7857280299,
				"y": -1.1317690815,
				"z": 3.2879130762,
				"element": "C" 
			},
			{
				"x": -1.0431404923,
				"y": -0.2198938618,
				"z": 2.2628568596,
				"element": "C" 
			},
			{
				"x": 1.8961938935,
				"y": -0.3072052729,
				"z": -0.5823946449,
				"element": "C" 
			},
			{
				"x": 1.6097233166,
				"y": -1.4413484084,
				"z": -1.59325386,
				"element": "C" 
			},
			{
				"x": 0.1745502477,
				"y": -1.9223982154,
				"z": -1.6892030952,
				"element": "C" 
			},
			{
				"x": -0.4331229046,
				"y": -2.585722929,
				"z": -0.6119342512,
				"element": "C" 
			},
			{
				"x": -1.7475784937,
				"y": -3.0431831634,
				"z": -0.701400016,
				"element": "C" 
			},
			{
				"x": -2.4824487881,
				"y": -2.8492006323,
				"z": -1.8739669469,
				"element": "C" 
			},
			{
				"x": -1.8899476906,
				"y": -2.1950629825,
				"z": -2.9541467878,
				"element": "C" 
			},
			{
				"x": -0.5730894327,
				"y": -1.7384519528,
				"z": -2.8596976652,
				"element": "C" 
			},
			{
				"x": 3.0058235007,
				"y": 2.0243077783,
				"z": -0.6148189676,
				"element": "H" 
			},
			{
				"x": 1.4109570136,
				"y": 1.1688857767,
				"z": -2.0619004879,
				"element": "H" 
			},
			{
				"x": -0.7281078619,
				"y": 0.4338543493,
				"z": -0.8261071202,
				"element": "H" 
			},
			{
				"x": -0.5198484029,
				"y": 2.1234533433,
				"z": -1.2572034358,
				"element": "H" 
			},
			{
				"x": -1.4809260917,
				"y": 2.074613723,
				"z": 0.900505072,
				"element": "H" 
			},
			{
				"x": 0.1528331339,
				"y": 2.7106980209,
				"z": 1.0308597177,
				"element": "H" 
			},
			{
				"x": 1.7619475963,
				"y": 1.6699334604,
				"z": 2.4835073768,
				"element": "H" 
			},
			{
				"x": 2.2213564131,
				"y": 0.0679844512,
				"z": 4.3231429198,
				"element": "H" 
			},
			{
				"x": 0.590314706,
				"y": -1.7399098481,
				"z": 4.8361968063,
				"element": "H" 
			},
			{
				"x": -1.5079568658,
				"y": -1.9130781293,
				"z": 3.5098250575,
				"element": "H" 
			},
			{
				"x": -1.9640220094,
				"y": -0.3008348856,
				"z": 1.690096611,
				"element": "H" 
			},
			{
				"x": 1.5666848979,
				"y": -0.5922716413,
				"z": 0.4200292359,
				"element": "H" 
			},
			{
				"x": 2.9894578802,
				"y": -0.2037730118,
				"z": -0.5246761937,
				"element": "H" 
			},
			{
				"x": 2.2439898721,
				"y": -2.2938910359,
				"z": -1.3178955236,
				"element": "H" 
			},
			{
				"x": 1.9466070549,
				"y": -1.1232700081,
				"z": -2.5882827509,
				"element": "H" 
			},
			{
				"x": 0.1260556046,
				"y": -2.7397563969,
				"z": 0.3073144408,
				"element": "H" 
			},
			{
				"x": -2.1978808061,
				"y": -3.5559783061,
				"z": 0.144186202,
				"element": "H" 
			},
			{
				"x": -3.5054464807,
				"y": -3.207649118,
				"z": -1.9444982832,
				"element": "H" 
			},
			{
				"x": -2.4497644385,
				"y": -2.040884149,
				"z": -3.8725653358,
				"element": "H" 
			},
			{
				"x": -0.1175862507,
				"y": -1.2331365507,
				"z": -3.7081867321,
				"element": "H" 
			}
		],
		 "valence_orbital": [ 
			{
				"type": "occ",
				"energy": -0.26385,
				"method": "rhf"
			},
			{
				"type": "occ",
				"energy": -0.2477,
				"method": "rhf"
			},
			{
				"type": "occ",
				"energy": -0.23928,
				"method": "rhf"
			},
			{
				"type": "occ",
				"energy": -0.236,
				"method": "rhf"
			},
			{
				"type": "occ",
				"energy": -0.22904,
				"method": "rhf"
			},
			{
				"type": "unocc",
				"energy": -0.00221,
				"method": "rhf"
			},
			{
				"type": "unocc",
				"energy": 0.00284,
				"method": "rhf"
			},
			{
				"type": "unocc",
				"energy": 0.0085,
				"method": "rhf"
			},
			{
				"type": "unocc",
				"energy": 0.00943,
				"method": "rhf"
			},
			{
				"type": "unocc",
				"energy": 0.07254,
				"method": "rhf"
			}
		],
		"cosmo_sigma_profile": { 
			"-0.025": 0.0,
			"-0.024": 0.0,
			"-0.023": 0.0,
			"-0.022": 0.0,
			"-0.021": 0.0,
			"-0.02": 0.0,
			"-0.019": 0.0,
			"-0.018": 0.0,
			"-0.017": 0.0,
			"-0.016": 0.0,
			"-0.015": 0.483365994598,
			"-0.014": 0.904162105218,
			"-0.013": 0.836520431348,
			"-0.012": 1.47967857845,
			"-0.011": 0.497310256504,
			"-0.01": 0.872723727737,
			"-0.009": 0.981731582505,
			"-0.008": 0.811754577139,
			"-0.007": 1.30017708445,
			"-0.006": 3.19734906225,
			"-0.005": 14.9901309574,
			"-0.004": 23.4962769642,
			"-0.003": 37.9488573215,
			"-0.002": 34.0488952807,
			"-0.001": 29.6911799624,
			"0.0": 26.4960505254,
			"0.001": 24.3068552055,
			"0.002": 22.6466377858,
			"0.003": 20.676029449,
			"0.004": 19.1494548331,
			"0.005": 16.1591220052,
			"0.006": 14.8540543668,
			"0.007": 5.71727661715,
			"0.008": 1.37837962038,
			"0.009": 0.909430871868,
			"0.01": 0.610341679129,
			"0.011": 1.16628662904,
			"0.012": 1.12122000208,
			"0.013": 0.829864748146,
			"0.014": 0.476878875324,
			"0.015": 0.123351860519,
			"0.016": 0.0,
			"0.017": 0.0,
			"0.018": 0.0,
			"0.019": 0.0,
			"0.02": 0.0,
			"0.021": 0.0,
			"0.022": 0.0,
			"0.023": 0.0,
			"0.024": 0.0,
			"0.025": 0.0
		}
	}
}
