{
	 "smiles": "CC(C)C(C)C=CC(C)C1CCC2C(CCCC12C)=CC=C1CC(O)CCC1=C", 
	 "Tm": 389.15, 
	 "num_atms": 73, 
	 "gaussian": { 
		 "optdone": 1, 
		 "sigma_profile": "yes", 
		 "theory": "DFT", 
		 "functional": "B3LYP", 
		 "basiset": "6-31G**", 
		 "properties": { 
			 "R2extent": 18874.3585, 
			 "electric_dipole_moment_norm": 2.15634296205, 
			 "electric_quadrupole_moment_norm": 18.0582369815, 
			 "total_energy": -1168.68455815, 
			 "HOMO_LUMO_gap": 0.17509, 
			 "cosmo_polarized_energy": -7.93, 
			 "cosmo_cavitation_energy": 65.17, 
			 "cosmo_dispersion_energy": -42.0, 
			 "cosmo_repulsion_energy": 3.16, 
			 "cosmo_total_nonelectrostatic_energy": 26.34, 
			 "SMD_solvation_energy": 9.44 
		},
		"coords": [
			{
				"x": 4.2529062342,
				"y": -1.0094432138,
				"z": -2.6211427395,
				"element": "C" 
			},
			{
				"x": 5.6133115951,
				"y": -0.5956806859,
				"z": -2.042596409,
				"element": "C" 
			},
			{
				"x": 6.4169824228,
				"y": -1.8358810506,
				"z": -1.617966199,
				"element": "C" 
			},
			{
				"x": 5.4520037164,
				"y": 0.4709979964,
				"z": -0.9161258841,
				"element": "C" 
			},
			{
				"x": 6.8036328099,
				"y": 1.1064138715,
				"z": -0.5308010748,
				"element": "C" 
			},
			{
				"x": 4.7541771506,
				"y": -0.0544556596,
				"z": 0.3172397748,
				"element": "C" 
			},
			{
				"x": 3.5992002984,
				"y": 0.4150017339,
				"z": 0.8021097219,
				"element": "C" 
			},
			{
				"x": 2.8863658306,
				"y": -0.0276846413,
				"z": 2.0646196958,
				"element": "C" 
			},
			{
				"x": 3.8020552195,
				"y": -0.8469578388,
				"z": 2.99160118,
				"element": "C" 
			},
			{
				"x": 1.5547122289,
				"y": -0.7974154366,
				"z": 1.8032000552,
				"element": "C" 
			},
			{
				"x": 0.8320442866,
				"y": -1.1668311823,
				"z": 3.1313878813,
				"element": "C" 
			},
			{
				"x": -0.6802694901,
				"y": -1.2598078137,
				"z": 2.8148383839,
				"element": "C" 
			},
			{
				"x": -0.8060071744,
				"y": -1.0070863582,
				"z": 1.2899009156,
				"element": "C" 
			},
			{
				"x": -2.1292818172,
				"y": -0.4114613868,
				"z": 0.8557130369,
				"element": "C" 
			},
			{
				"x": -2.3338838247,
				"y": 1.0364494361,
				"z": 1.2359233284,
				"element": "C" 
			},
			{
				"x": -1.1402635284,
				"y": 1.9003722095,
				"z": 0.7868004783,
				"element": "C" 
			},
			{
				"x": 0.1870068527,
				"y": 1.3406504238,
				"z": 1.3221181173,
				"element": "C" 
			},
			{
				"x": 0.4424109709,
				"y": -0.1351601774,
				"z": 0.9198634195,
				"element": "C" 
			},
			{
				"x": 0.7079816099,
				"y": -0.2550735796,
				"z": -0.5913379681,
				"element": "C" 
			},
			{
				"x": -3.0312369801,
				"y": -1.1598476844,
				"z": 0.1915656649,
				"element": "C" 
			},
			{
				"x": -4.4033892141,
				"y": -0.8100433988,
				"z": -0.2209227007,
				"element": "C" 
			},
			{
				"x": -4.8736320225,
				"y": 0.1541091308,
				"z": -1.0405212071,
				"element": "C" 
			},
			{
				"x": -6.3810399097,
				"y": 0.3586237206,
				"z": -1.1812796559,
				"element": "C" 
			},
			{
				"x": -6.7526364202,
				"y": 0.8643243884,
				"z": -2.5843782129,
				"element": "C" 
			},
			{
				"x": -6.3991239353,
				"y": -0.0895184759,
				"z": -3.5847691768,
				"element": "O" 
			},
			{
				"x": -6.1073714916,
				"y": 2.2457480033,
				"z": -2.8490872213,
				"element": "C" 
			},
			{
				"x": -4.7487129443,
				"y": 2.4239502499,
				"z": -2.1174504737,
				"element": "C" 
			},
			{
				"x": -4.0706710026,
				"y": 1.088340329,
				"z": -1.877154656,
				"element": "C" 
			},
			{
				"x": -2.9220306107,
				"y": 0.7562053734,
				"z": -2.4893353482,
				"element": "C" 
			},
			{
				"x": 3.634809583,
				"y": -1.4996296773,
				"z": -1.8615261361,
				"element": "H" 
			},
			{
				"x": 3.6956353553,
				"y": -0.1413819452,
				"z": -2.9911303108,
				"element": "H" 
			},
			{
				"x": 4.3769954649,
				"y": -1.70732046,
				"z": -3.4565233802,
				"element": "H" 
			},
			{
				"x": 6.1780683902,
				"y": -0.0991157331,
				"z": -2.845726857,
				"element": "H" 
			},
			{
				"x": 7.4036735148,
				"y": -1.5763268574,
				"z": -1.221760249,
				"element": "H" 
			},
			{
				"x": 5.8877275774,
				"y": -2.4139315536,
				"z": -0.8523073188,
				"element": "H" 
			},
			{
				"x": 6.5728145386,
				"y": -2.4996883866,
				"z": -2.4752096978,
				"element": "H" 
			},
			{
				"x": 4.8247385897,
				"y": 1.2694581216,
				"z": -1.3378065651,
				"element": "H" 
			},
			{
				"x": 7.330950094,
				"y": 1.479299576,
				"z": -1.4164661705,
				"element": "H" 
			},
			{
				"x": 6.65284497,
				"y": 1.9462245426,
				"z": 0.1544715515,
				"element": "H" 
			},
			{
				"x": 7.4611211987,
				"y": 0.3891221888,
				"z": -0.0278492196,
				"element": "H" 
			},
			{
				"x": 5.275974145,
				"y": -0.8477952605,
				"z": 0.8512732302,
				"element": "H" 
			},
			{
				"x": 3.1181018663,
				"y": 1.2261874625,
				"z": 0.2558558122,
				"element": "H" 
			},
			{
				"x": 2.6160553101,
				"y": 0.8915466435,
				"z": 2.6074096747,
				"element": "H" 
			},
			{
				"x": 4.7464202252,
				"y": -0.3226585564,
				"z": 3.1659157616,
				"element": "H" 
			},
			{
				"x": 3.33251426,
				"y": -1.0222774141,
				"z": 3.9623553563,
				"element": "H" 
			},
			{
				"x": 4.0370855155,
				"y": -1.8257905209,
				"z": 2.5575119127,
				"element": "H" 
			},
			{
				"x": 1.8303573268,
				"y": -1.7328068459,
				"z": 1.2936125067,
				"element": "H" 
			},
			{
				"x": 1.2196520678,
				"y": -2.1027168786,
				"z": 3.5436933022,
				"element": "H" 
			},
			{
				"x": 1.0182778465,
				"y": -0.3967523917,
				"z": 3.889669363,
				"element": "H" 
			},
			{
				"x": -1.2401041517,
				"y": -0.5102347559,
				"z": 3.3827797825,
				"element": "H" 
			},
			{
				"x": -1.1087727082,
				"y": -2.2305284378,
				"z": 3.0818298889,
				"element": "H" 
			},
			{
				"x": -0.6814146843,
				"y": -1.9730508614,
				"z": 0.7825764081,
				"element": "H" 
			},
			{
				"x": -3.2698742914,
				"y": 1.4173272553,
				"z": 0.8230359541,
				"element": "H" 
			},
			{
				"x": -2.4184375002,
				"y": 1.1115062767,
				"z": 2.3307986347,
				"element": "H" 
			},
			{
				"x": -1.2755279746,
				"y": 2.9296694423,
				"z": 1.1405836811,
				"element": "H" 
			},
			{
				"x": -1.1214614527,
				"y": 1.9475464206,
				"z": -0.3079256511,
				"element": "H" 
			},
			{
				"x": 0.1815508613,
				"y": 1.427584518,
				"z": 2.4170483295,
				"element": "H" 
			},
			{
				"x": 1.0169479345,
				"y": 1.9666251448,
				"z": 0.9730746788,
				"element": "H" 
			},
			{
				"x": 1.5204558854,
				"y": 0.3919175212,
				"z": -0.9287006536,
				"element": "H" 
			},
			{
				"x": 0.9766198898,
				"y": -1.2847804768,
				"z": -0.8531832566,
				"element": "H" 
			},
			{
				"x": -0.1855439416,
				"y": 0.0038273663,
				"z": -1.1676693908,
				"element": "H" 
			},
			{
				"x": -2.7746601553,
				"y": -2.210464019,
				"z": 0.0327046435,
				"element": "H" 
			},
			{
				"x": -5.1633482473,
				"y": -1.4667074385,
				"z": 0.2119894598,
				"element": "H" 
			},
			{
				"x": -6.7287246835,
				"y": 1.0968144179,
				"z": -0.4422171304,
				"element": "H" 
			},
			{
				"x": -6.9076733597,
				"y": -0.5765165389,
				"z": -0.9675350622,
				"element": "H" 
			},
			{
				"x": -7.8410270892,
				"y": 0.9528733954,
				"z": -2.6638518055,
				"element": "H" 
			},
			{
				"x": -5.4386590827,
				"y": -0.2037431168,
				"z": -3.5501736755,
				"element": "H" 
			},
			{
				"x": -6.7930402207,
				"y": 3.043517223,
				"z": -2.5408417148,
				"element": "H" 
			},
			{
				"x": -5.9753245466,
				"y": 2.3386507308,
				"z": -3.9316950843,
				"element": "H" 
			},
			{
				"x": -4.0906512669,
				"y": 3.0907673617,
				"z": -2.6824394666,
				"element": "H" 
			},
			{
				"x": -4.9259420315,
				"y": 2.9047246211,
				"z": -1.1459760301,
				"element": "H" 
			},
			{
				"x": -2.4660166631,
				"y": -0.2194811936,
				"z": -2.3630881629,
				"element": "H" 
			},
			{
				"x": -2.4059292201,
				"y": 1.4653708068,
				"z": -3.1310996694,
				"element": "H" 
			}
		],
		 "valence_orbital": [ 
			{
				"type": "occ",
				"energy": -0.28139,
				"method": "rhf"
			},
			{
				"type": "occ",
				"energy": -0.25425,
				"method": "rhf"
			},
			{
				"type": "occ",
				"energy": -0.24979,
				"method": "rhf"
			},
			{
				"type": "occ",
				"energy": -0.23493,
				"method": "rhf"
			},
			{
				"type": "occ",
				"energy": -0.20552,
				"method": "rhf"
			},
			{
				"type": "unocc",
				"energy": -0.03043,
				"method": "rhf"
			},
			{
				"type": "unocc",
				"energy": 0.02352,
				"method": "rhf"
			},
			{
				"type": "unocc",
				"energy": 0.02602,
				"method": "rhf"
			},
			{
				"type": "unocc",
				"energy": 0.06795,
				"method": "rhf"
			},
			{
				"type": "unocc",
				"energy": 0.07196,
				"method": "rhf"
			}
		],
		"cosmo_sigma_profile": { 
			"-0.025": 0.0,
			"-0.024": 0.0,
			"-0.023": 0.0,
			"-0.022": 0.0,
			"-0.021": 0.0,
			"-0.02": 0.0,
			"-0.019": 0.0,
			"-0.018": 0.0,
			"-0.017": 0.0,
			"-0.016": 0.0,
			"-0.015": 0.0,
			"-0.014": 0.0,
			"-0.013": 0.0,
			"-0.012": 0.0,
			"-0.011": 0.0,
			"-0.01": 0.252735347717,
			"-0.009": 0.550595160004,
			"-0.008": 0.31619057537,
			"-0.007": 0.347986397803,
			"-0.006": 1.42992746134,
			"-0.005": 2.00450021921,
			"-0.004": 16.8991662679,
			"-0.003": 42.7079076908,
			"-0.002": 83.9224508743,
			"-0.001": 90.2232607491,
			"0.0": 87.1390041034,
			"0.001": 69.663618711,
			"0.002": 49.8185186308,
			"0.003": 19.8527206644,
			"0.004": 11.782897768,
			"0.005": 7.47254810587,
			"0.006": 3.53816007449,
			"0.007": 1.81955739099,
			"0.008": 1.43970197957,
			"0.009": 1.12321113652,
			"0.01": 0.884581121449,
			"0.011": 0.991277764863,
			"0.012": 1.37238357639,
			"0.013": 1.48741046705,
			"0.014": 1.99612937066,
			"0.015": 1.86446276082,
			"0.016": 0.0373465770947,
			"0.017": 0.0,
			"0.018": 0.0,
			"0.019": 0.0,
			"0.02": 0.0,
			"0.021": 0.0,
			"0.022": 0.0,
			"0.023": 0.0,
			"0.024": 0.0,
			"0.025": 0.0
		}
	}
}
