{
	 "smiles": "NC1=C(N=CS1)C1=CC=CC=C1", 
	 "Tm": 404.15, 
	 "num_atms": 20, 
	 "gaussian": { 
		 "optdone": 1, 
		 "sigma_profile": "yes", 
		 "theory": "DFT", 
		 "functional": "B3LYP", 
		 "basiset": "6-31G**", 
		 "properties": { 
			 "R2extent": 2884.9488, 
			 "electric_dipole_moment_norm": 2.50573601562, 
			 "electric_quadrupole_moment_norm": 8.42874762465, 
			 "total_energy": -855.458665567, 
			 "HOMO_LUMO_gap": 0.17587, 
			 "cosmo_polarized_energy": -11.07, 
			 "cosmo_cavitation_energy": 25.34, 
			 "cosmo_dispersion_energy": -19.63, 
			 "cosmo_repulsion_energy": 1.5, 
			 "cosmo_total_nonelectrostatic_energy": 7.21, 
			 "SMD_solvation_energy": 3.08 
		},
		"coords": [
			{
				"x": 1.930041513,
				"y": 1.7979626712,
				"z": 1.6786938398,
				"element": "N" 
			},
			{
				"x": 2.2470685521,
				"y": 1.3095953529,
				"z": 0.4147585335,
				"element": "C" 
			},
			{
				"x": 1.5228489906,
				"y": 0.4602304686,
				"z": -0.4060016401,
				"element": "C" 
			},
			{
				"x": 2.1439016517,
				"y": 0.1686724002,
				"z": -1.6111162634,
				"element": "N" 
			},
			{
				"x": 3.2765971981,
				"y": 0.7730830411,
				"z": -1.7418425511,
				"element": "C" 
			},
			{
				"x": 3.7319493725,
				"y": 1.7889370245,
				"z": -0.3764855388,
				"element": "S" 
			},
			{
				"x": 0.2255651627,
				"y": -0.1669252281,
				"z": -0.0939326153,
				"element": "C" 
			},
			{
				"x": -0.0911100795,
				"y": -1.4177636419,
				"z": -0.6564567974,
				"element": "C" 
			},
			{
				"x": -1.301754596,
				"y": -2.0415102152,
				"z": -0.3694615847,
				"element": "C" 
			},
			{
				"x": -2.2280862562,
				"y": -1.4335070175,
				"z": 0.4833419239,
				"element": "C" 
			},
			{
				"x": -1.9361773818,
				"y": -0.1846806201,
				"z": 1.031115292,
				"element": "C" 
			},
			{
				"x": -0.7252962613,
				"y": 0.4474450524,
				"z": 0.7422074369,
				"element": "C" 
			},
			{
				"x": 1.2757551324,
				"y": 1.2022996378,
				"z": 2.1739817566,
				"element": "H" 
			},
			{
				"x": 2.7318602039,
				"y": 2.0151880007,
				"z": 2.2572427752,
				"element": "H" 
			},
			{
				"x": 3.9235932525,
				"y": 0.7036783931,
				"z": -2.607542893,
				"element": "H" 
			},
			{
				"x": 0.6265551653,
				"y": -1.8842827041,
				"z": -1.3226234573,
				"element": "H" 
			},
			{
				"x": -1.5244682943,
				"y": -3.0087286373,
				"z": -0.8117393717,
				"element": "H" 
			},
			{
				"x": -3.1707190741,
				"y": -1.9240289244,
				"z": 0.7080933334,
				"element": "H" 
			},
			{
				"x": -2.6585911802,
				"y": 0.3111036058,
				"z": 1.6737788295,
				"element": "H" 
			},
			{
				"x": -0.5434330715,
				"y": 1.4460313403,
				"z": 1.1277889921,
				"element": "H" 
			}
		],
		 "valence_orbital": [ 
			{
				"type": "occ",
				"energy": -0.28256,
				"method": "rhf"
			},
			{
				"type": "occ",
				"energy": -0.26909,
				"method": "rhf"
			},
			{
				"type": "occ",
				"energy": -0.25132,
				"method": "rhf"
			},
			{
				"type": "occ",
				"energy": -0.24627,
				"method": "rhf"
			},
			{
				"type": "occ",
				"energy": -0.19739,
				"method": "rhf"
			},
			{
				"type": "unocc",
				"energy": -0.02152,
				"method": "rhf"
			},
			{
				"type": "unocc",
				"energy": -0.00394,
				"method": "rhf"
			},
			{
				"type": "unocc",
				"energy": 0.00013,
				"method": "rhf"
			},
			{
				"type": "unocc",
				"energy": 0.00781,
				"method": "rhf"
			},
			{
				"type": "unocc",
				"energy": 0.0764,
				"method": "rhf"
			}
		],
		"cosmo_sigma_profile": { 
			"-0.025": 0.0,
			"-0.024": 0.0,
			"-0.023": 0.0,
			"-0.022": 0.0,
			"-0.021": 0.0,
			"-0.02": 0.0,
			"-0.019": 0.0,
			"-0.018": 0.0,
			"-0.017": 0.0,
			"-0.016": 0.0,
			"-0.015": 0.00695475020383,
			"-0.014": 1.0085387023,
			"-0.013": 1.61396328911,
			"-0.012": 2.17580395128,
			"-0.011": 2.83755435059,
			"-0.01": 3.02778905893,
			"-0.009": 3.99055920051,
			"-0.008": 4.15112870798,
			"-0.007": 4.86849499876,
			"-0.006": 6.06446621087,
			"-0.005": 10.1990297399,
			"-0.004": 14.0930929518,
			"-0.003": 13.8217901359,
			"-0.002": 10.7002567909,
			"-0.001": 10.2040687285,
			"0.0": 10.4703225225,
			"0.001": 15.4378157665,
			"0.002": 18.6349906475,
			"0.003": 18.447380242,
			"0.004": 15.7316372901,
			"0.005": 12.5830822706,
			"0.006": 11.7019566454,
			"0.007": 2.56837906565,
			"0.008": 2.54718644605,
			"0.009": 2.31778692021,
			"0.01": 1.85469349406,
			"0.011": 1.72699804688,
			"0.012": 1.05810571732,
			"0.013": 0.801964809846,
			"0.014": 0.974229360657,
			"0.015": 0.132704183107,
			"0.016": 0.0,
			"0.017": 0.0,
			"0.018": 0.0,
			"0.019": 0.0,
			"0.02": 0.0,
			"0.021": 0.0,
			"0.022": 0.0,
			"0.023": 0.0,
			"0.024": 0.0,
			"0.025": 0.0
		}
	}
}
