{
	 "smiles": "CC1=C2N=CC(C(O)=O)=C(O)C2=CC(Br)=C1", 
	 "Tm": 573.15, 
	 "num_atms": 24, 
	 "gaussian": { 
		 "optdone": 1, 
		 "sigma_profile": "yes", 
		 "theory": "DFT", 
		 "functional": "B3LYP", 
		 "basiset": "6-31G**", 
		 "properties": { 
			 "R2extent": 5939.5087, 
			 "electric_dipole_moment_norm": 2.99357624924, 
			 "electric_quadrupole_moment_norm": 10.6440223741, 
			 "total_energy": -3275.85540729, 
			 "HOMO_LUMO_gap": 0.16031, 
			 "cosmo_polarized_energy": -13.73, 
			 "cosmo_cavitation_energy": 30.56, 
			 "cosmo_dispersion_energy": -23.46, 
			 "cosmo_repulsion_energy": 1.79, 
			 "cosmo_total_nonelectrostatic_energy": 8.89, 
			 "SMD_solvation_energy": 4.26 
		},
		"coords": [
			{
				"x": -2.7575078508,
				"y": 0.402319596,
				"z": -1.6032347643,
				"element": "C" 
			},
			{
				"x": -1.3138644864,
				"y": 0.4011839163,
				"z": -1.1754167607,
				"element": "C" 
			},
			{
				"x": -0.9829313093,
				"y": 0.3784566829,
				"z": 0.2139042292,
				"element": "C" 
			},
			{
				"x": -2.0114040898,
				"y": 0.3579788823,
				"z": 1.1211881987,
				"element": "N" 
			},
			{
				"x": -1.6996944138,
				"y": 0.3371578146,
				"z": 2.3924710194,
				"element": "C" 
			},
			{
				"x": -0.3793931456,
				"y": 0.3338695176,
				"z": 2.9212118082,
				"element": "C" 
			},
			{
				"x": -0.055875546,
				"y": 0.3100538745,
				"z": 4.3571538705,
				"element": "C" 
			},
			{
				"x": -1.0467582449,
				"y": 0.2894727019,
				"z": 5.2662074644,
				"element": "O" 
			},
			{
				"x": 1.1036557093,
				"y": 0.3081849573,
				"z": 4.7684944295,
				"element": "O" 
			},
			{
				"x": 0.6862293771,
				"y": 0.3547882552,
				"z": 2.0023458905,
				"element": "C" 
			},
			{
				"x": 1.9580941492,
				"y": 0.353976998,
				"z": 2.3745872314,
				"element": "O" 
			},
			{
				"x": 0.3876443708,
				"y": 0.3778693032,
				"z": 0.6029773208,
				"element": "C" 
			},
			{
				"x": 1.4175648662,
				"y": 0.3994072384,
				"z": -0.3667226295,
				"element": "C" 
			},
			{
				"x": 1.0649037378,
				"y": 0.4209222238,
				"z": -1.6951293793,
				"element": "C" 
			},
			{
				"x": 2.4214328753,
				"y": 0.4502028679,
				"z": -3.0384612166,
				"element": "Br" 
			},
			{
				"x": -0.2868391871,
				"y": 0.4219241119,
				"z": -2.1019701464,
				"element": "C" 
			},
			{
				"x": -3.2788727136,
				"y": -0.4811672274,
				"z": -1.2223303272,
				"element": "H" 
			},
			{
				"x": -2.8421874796,
				"y": 0.4183470947,
				"z": -2.6926217564,
				"element": "H" 
			},
			{
				"x": -3.2851659952,
				"y": 1.2704074716,
				"z": -1.1963263781,
				"element": "H" 
			},
			{
				"x": -2.5562673859,
				"y": 0.3214009711,
				"z": 3.0720819614,
				"element": "H" 
			},
			{
				"x": -1.9158241636,
				"y": 0.2925885546,
				"z": 4.8420259908,
				"element": "H" 
			},
			{
				"x": 1.9560606992,
				"y": 0.3365054172,
				"z": 3.3752722709,
				"element": "H" 
			},
			{
				"x": 2.4530061584,
				"y": 0.398559324,
				"z": -0.0513706026,
				"element": "H" 
			},
			{
				"x": -0.5172059317,
				"y": 0.4392894523,
				"z": -3.1618377245,
				"element": "H" 
			}
		],
		 "valence_orbital": [ 
			{
				"type": "occ",
				"energy": -0.29338,
				"method": "rhf"
			},
			{
				"type": "occ",
				"energy": -0.28666,
				"method": "rhf"
			},
			{
				"type": "occ",
				"energy": -0.27465,
				"method": "rhf"
			},
			{
				"type": "occ",
				"energy": -0.26586,
				"method": "rhf"
			},
			{
				"type": "occ",
				"energy": -0.2354,
				"method": "rhf"
			},
			{
				"type": "unocc",
				"energy": -0.07509,
				"method": "rhf"
			},
			{
				"type": "unocc",
				"energy": -0.05649,
				"method": "rhf"
			},
			{
				"type": "unocc",
				"energy": 0.00092,
				"method": "rhf"
			},
			{
				"type": "unocc",
				"energy": 0.00673,
				"method": "rhf"
			},
			{
				"type": "unocc",
				"energy": 0.01144,
				"method": "rhf"
			}
		],
		"cosmo_sigma_profile": { 
			"-0.025": 0.0,
			"-0.024": 0.0,
			"-0.023": 0.0,
			"-0.022": 0.0,
			"-0.021": 0.0809902966037,
			"-0.02": 0.943820356518,
			"-0.019": 0.952248691007,
			"-0.018": 1.1068153955,
			"-0.017": 0.336797303905,
			"-0.016": 1.07761141729,
			"-0.015": 1.55727236573,
			"-0.014": 1.35536482948,
			"-0.013": 0.969293899204,
			"-0.012": 1.07029922231,
			"-0.011": 0.833711849147,
			"-0.01": 1.26174574647,
			"-0.009": 1.46766437835,
			"-0.008": 2.06962447656,
			"-0.007": 4.09970144942,
			"-0.006": 6.79678537363,
			"-0.005": 10.4123735651,
			"-0.004": 13.760873003,
			"-0.003": 15.6217488292,
			"-0.002": 19.6070066099,
			"-0.001": 21.5422363768,
			"0.0": 26.8822253545,
			"0.001": 26.5623442902,
			"0.002": 20.0798536699,
			"0.003": 12.9152222142,
			"0.004": 16.1394096127,
			"0.005": 8.73585615268,
			"0.006": 4.28146629202,
			"0.007": 5.74182781817,
			"0.008": 5.67422389315,
			"0.009": 4.60305587595,
			"0.01": 4.57991409618,
			"0.011": 2.89245592135,
			"0.012": 2.06605571445,
			"0.013": 0.673911089793,
			"0.014": 0.232294305732,
			"0.015": 0.0,
			"0.016": 0.0,
			"0.017": 0.0,
			"0.018": 0.0,
			"0.019": 0.0,
			"0.02": 0.0,
			"0.021": 0.0,
			"0.022": 0.0,
			"0.023": 0.0,
			"0.024": 0.0,
			"0.025": 0.0
		}
	}
}
