{
	 "smiles": "OC(=O)C1=C(C=C(Br)C=C1)C(O)=O", 
	 "Tm": 436.15, 
	 "num_atms": 18, 
	 "gaussian": { 
		 "optdone": 1, 
		 "sigma_profile": "yes", 
		 "theory": "DFT", 
		 "functional": "B3LYP", 
		 "basiset": "6-31G**", 
		 "properties": { 
			 "R2extent": 3803.3682, 
			 "electric_dipole_moment_norm": 3.00332865501, 
			 "electric_quadrupole_moment_norm": 11.292160257, 
			 "total_energy": -3180.18711498, 
			 "HOMO_LUMO_gap": 0.19129, 
			 "cosmo_polarized_energy": -14.74, 
			 "cosmo_cavitation_energy": 26.25, 
			 "cosmo_dispersion_energy": -19.45, 
			 "cosmo_repulsion_energy": 1.56, 
			 "cosmo_total_nonelectrostatic_energy": 8.35, 
			 "SMD_solvation_energy": 5.65 
		},
		"coords": [
			{
				"x": -2.0527012044,
				"y": 1.5082451879,
				"z": -2.8962388118,
				"element": "O" 
			},
			{
				"x": -1.1573165248,
				"y": 1.8278363527,
				"z": -1.9300630568,
				"element": "C" 
			},
			{
				"x": -0.753633054,
				"y": 2.9598089711,
				"z": -1.7663061971,
				"element": "O" 
			},
			{
				"x": -0.7065880713,
				"y": 0.6382495594,
				"z": -1.1523109652,
				"element": "C" 
			},
			{
				"x": -0.1016227415,
				"y": 0.7926497679,
				"z": 0.1108708757,
				"element": "C" 
			},
			{
				"x": 0.4669072289,
				"y": -0.311681049,
				"z": 0.7492172093,
				"element": "C" 
			},
			{
				"x": 0.3966515488,
				"y": -1.5687893822,
				"z": 0.1523674806,
				"element": "C" 
			},
			{
				"x": 1.1637003175,
				"y": -3.0685478969,
				"z": 1.0414389338,
				"element": "Br" 
			},
			{
				"x": -0.2263798381,
				"y": -1.7453564737,
				"z": -1.081548466,
				"element": "C" 
			},
			{
				"x": -0.7686565198,
				"y": -0.6373128177,
				"z": -1.7280381602,
				"element": "C" 
			},
			{
				"x": -0.0419289356,
				"y": 2.0905178852,
				"z": 0.866561614,
				"element": "C" 
			},
			{
				"x": -1.255705858,
				"y": 2.6613382551,
				"z": 1.0024375899,
				"element": "O" 
			},
			{
				"x": 0.964228418,
				"y": 2.5233295764,
				"z": 1.3826882948,
				"element": "O" 
			},
			{
				"x": -2.2378683565,
				"y": 2.3357698691,
				"z": -3.3704892769,
				"element": "H" 
			},
			{
				"x": 0.9510677417,
				"y": -0.181447918,
				"z": 1.7095327516,
				"element": "H" 
			},
			{
				"x": -0.2757180367,
				"y": -2.7285229166,
				"z": -1.5347955361,
				"element": "H" 
			},
			{
				"x": -1.2307463181,
				"y": -0.7546936538,
				"z": -2.7013032869,
				"element": "H" 
			},
			{
				"x": -1.1114897959,
				"y": 3.4984066834,
				"z": 1.4752790074,
				"element": "H" 
			}
		],
		 "valence_orbital": [ 
			{
				"type": "occ",
				"energy": -0.30162,
				"method": "rhf"
			},
			{
				"type": "occ",
				"energy": -0.29514,
				"method": "rhf"
			},
			{
				"type": "occ",
				"energy": -0.28991,
				"method": "rhf"
			},
			{
				"type": "occ",
				"energy": -0.27311,
				"method": "rhf"
			},
			{
				"type": "occ",
				"energy": -0.26179,
				"method": "rhf"
			},
			{
				"type": "unocc",
				"energy": -0.0705,
				"method": "rhf"
			},
			{
				"type": "unocc",
				"energy": -0.04236,
				"method": "rhf"
			},
			{
				"type": "unocc",
				"energy": -0.00805,
				"method": "rhf"
			},
			{
				"type": "unocc",
				"energy": 0.02169,
				"method": "rhf"
			},
			{
				"type": "unocc",
				"energy": 0.03391,
				"method": "rhf"
			}
		],
		"cosmo_sigma_profile": { 
			"-0.025": 0.0,
			"-0.024": 0.0,
			"-0.023": 0.0,
			"-0.022": 0.0,
			"-0.021": 0.0,
			"-0.02": 0.0,
			"-0.019": 0.658436918988,
			"-0.018": 1.78279542876,
			"-0.017": 2.17024841165,
			"-0.016": 1.64500577563,
			"-0.015": 1.48859384452,
			"-0.014": 1.02768583705,
			"-0.013": 1.14677013946,
			"-0.012": 1.35971783692,
			"-0.011": 1.59868614784,
			"-0.01": 1.54077955504,
			"-0.009": 1.45413557334,
			"-0.008": 4.96962768578,
			"-0.007": 8.11128393096,
			"-0.006": 5.54407094161,
			"-0.005": 7.32144444891,
			"-0.004": 9.8511926576,
			"-0.003": 9.3081947019,
			"-0.002": 12.4887871703,
			"-0.001": 15.0158260622,
			"0.0": 25.4680538148,
			"0.001": 18.2713877205,
			"0.002": 10.9154451453,
			"0.003": 15.3884784752,
			"0.004": 12.8328973641,
			"0.005": 5.40880969796,
			"0.006": 6.24718859622,
			"0.007": 4.61284629827,
			"0.008": 5.44552446454,
			"0.009": 4.69577445269,
			"0.01": 4.86207693086,
			"0.011": 9.00607741466,
			"0.012": 2.11845039943,
			"0.013": 0.0,
			"0.014": 0.0,
			"0.015": 0.0,
			"0.016": 0.0,
			"0.017": 0.0,
			"0.018": 0.0,
			"0.019": 0.0,
			"0.02": 0.0,
			"0.021": 0.0,
			"0.022": 0.0,
			"0.023": 0.0,
			"0.024": 0.0,
			"0.025": 0.0
		}
	}
}
