{
	 "smiles": "CC1=C(OC(CN2C=C(Br)C=N2)=C1)C(O)=O", 
	 "Tm": 396.15, 
	 "num_atms": 25, 
	 "gaussian": { 
		 "optdone": 1, 
		 "sigma_profile": "yes", 
		 "theory": "DFT", 
		 "functional": "B3LYP", 
		 "basiset": "6-31G**", 
		 "properties": { 
			 "R2extent": 6984.6307, 
			 "electric_dipole_moment_norm": 5.03008935308, 
			 "electric_quadrupole_moment_norm": 23.8167609233, 
			 "total_energy": -3293.02312684, 
			 "HOMO_LUMO_gap": 0.18276, 
			 "cosmo_polarized_energy": -19.85, 
			 "cosmo_cavitation_energy": 33.41, 
			 "cosmo_dispersion_energy": -23.89, 
			 "cosmo_repulsion_energy": 1.9, 
			 "cosmo_total_nonelectrostatic_energy": 11.42, 
			 "SMD_solvation_energy": 5.41 
		},
		"coords": [
			{
				"x": -3.0227953815,
				"y": -2.8266400817,
				"z": -2.0535288331,
				"element": "C" 
			},
			{
				"x": -1.7560601106,
				"y": -2.0374750986,
				"z": -1.8755590368,
				"element": "C" 
			},
			{
				"x": -0.7907175797,
				"y": -2.1590192883,
				"z": -0.897001281,
				"element": "C" 
			},
			{
				"x": 0.2210357318,
				"y": -1.2648338816,
				"z": -1.1240655103,
				"element": "O" 
			},
			{
				"x": -0.1030554843,
				"y": -0.5585843932,
				"z": -2.2350036295,
				"element": "C" 
			},
			{
				"x": 0.8532499613,
				"y": 0.5146029418,
				"z": -2.6425622125,
				"element": "C" 
			},
			{
				"x": 0.7036903152,
				"y": 1.746975306,
				"z": -1.8723427488,
				"element": "N" 
			},
			{
				"x": 1.1175637999,
				"y": 1.990126079,
				"z": -0.5994408588,
				"element": "C" 
			},
			{
				"x": 0.6664902318,
				"y": 3.2600649669,
				"z": -0.2964327114,
				"element": "C" 
			},
			{
				"x": 0.931042338,
				"y": 4.1979312806,
				"z": 1.3151830455,
				"element": "Br" 
			},
			{
				"x": -0.018354398,
				"y": 3.7044474649,
				"z": -1.4467001501,
				"element": "C" 
			},
			{
				"x": 0.0017503229,
				"y": 2.7756813116,
				"z": -2.4006826844,
				"element": "N" 
			},
			{
				"x": -1.2980360594,
				"y": -0.9911783899,
				"z": -2.7362061584,
				"element": "C" 
			},
			{
				"x": -0.5809350443,
				"y": -3.0579023301,
				"z": 0.255062098,
				"element": "C" 
			},
			{
				"x": -1.6813493589,
				"y": -3.7477464943,
				"z": 0.6709411672,
				"element": "O" 
			},
			{
				"x": 0.4834992961,
				"y": -3.2081033208,
				"z": 0.8027493558,
				"element": "O" 
			},
			{
				"x": -2.9124584402,
				"y": -3.8621222775,
				"z": -1.7173487529,
				"element": "H" 
			},
			{
				"x": -3.3089371799,
				"y": -2.8567608322,
				"z": -3.1080454707,
				"element": "H" 
			},
			{
				"x": -3.8639489284,
				"y": -2.375215386,
				"z": -1.5112863957,
				"element": "H" 
			},
			{
				"x": 0.6842476695,
				"y": 0.7871573214,
				"z": -3.6848476895,
				"element": "H" 
			},
			{
				"x": 1.8816879506,
				"y": 0.1565604562,
				"z": -2.5328125778,
				"element": "H" 
			},
			{
				"x": 1.6761274089,
				"y": 1.2708379178,
				"z": -0.0203449743,
				"element": "H" 
			},
			{
				"x": -0.5086672885,
				"y": 4.6534770722,
				"z": -1.6102550992,
				"element": "H" 
			},
			{
				"x": -1.7980075102,
				"y": -0.6122991265,
				"z": -3.6167421166,
				"element": "H" 
			},
			{
				"x": -2.4838622623,
				"y": -3.3848812176,
				"z": 0.2720732254,
				"element": "H" 
			}
		],
		 "valence_orbital": [ 
			{
				"type": "occ",
				"energy": -0.28339,
				"method": "rhf"
			},
			{
				"type": "occ",
				"energy": -0.28091,
				"method": "rhf"
			},
			{
				"type": "occ",
				"energy": -0.26731,
				"method": "rhf"
			},
			{
				"type": "occ",
				"energy": -0.25308,
				"method": "rhf"
			},
			{
				"type": "occ",
				"energy": -0.23753,
				"method": "rhf"
			},
			{
				"type": "unocc",
				"energy": -0.05477,
				"method": "rhf"
			},
			{
				"type": "unocc",
				"energy": -0.0008,
				"method": "rhf"
			},
			{
				"type": "unocc",
				"energy": 0.01393,
				"method": "rhf"
			},
			{
				"type": "unocc",
				"energy": 0.02416,
				"method": "rhf"
			},
			{
				"type": "unocc",
				"energy": 0.05034,
				"method": "rhf"
			}
		],
		"cosmo_sigma_profile": { 
			"-0.025": 0.0,
			"-0.024": 0.0,
			"-0.023": 0.0,
			"-0.022": 0.0,
			"-0.021": 0.0,
			"-0.02": 0.0,
			"-0.019": 0.0,
			"-0.018": 0.0,
			"-0.017": 0.325067133459,
			"-0.016": 1.08677644003,
			"-0.015": 1.19838992069,
			"-0.014": 0.784190173749,
			"-0.013": 0.805916371516,
			"-0.012": 1.3472435623,
			"-0.011": 0.978764189898,
			"-0.01": 1.97941964071,
			"-0.009": 5.31027101805,
			"-0.008": 11.7307111931,
			"-0.007": 10.7358767356,
			"-0.006": 15.0099418997,
			"-0.005": 16.1744193253,
			"-0.004": 13.9684765596,
			"-0.003": 14.4056812776,
			"-0.002": 17.1956253698,
			"-0.001": 16.4485817707,
			"0.0": 16.6881390939,
			"0.001": 17.247131281,
			"0.002": 20.5243494313,
			"0.003": 19.2927249137,
			"0.004": 16.902304451,
			"0.005": 8.60559847294,
			"0.006": 4.65029263734,
			"0.007": 3.40527023229,
			"0.008": 5.19244746926,
			"0.009": 4.27511659525,
			"0.01": 6.32554918788,
			"0.011": 7.01334894898,
			"0.012": 7.23585466634,
			"0.013": 3.24080070357,
			"0.014": 0.939181957572,
			"0.015": 0.165140667749,
			"0.016": 0.0,
			"0.017": 0.0,
			"0.018": 0.0,
			"0.019": 0.0,
			"0.02": 0.0,
			"0.021": 0.0,
			"0.022": 0.0,
			"0.023": 0.0,
			"0.024": 0.0,
			"0.025": 0.0
		}
	}
}
