{
	 "smiles": "NCC1=CC(F)=C(C=C1)N1CCOCC1", 
	 "Tm": 310.15, 
	 "num_atms": 30, 
	 "gaussian": { 
		 "optdone": 1, 
		 "sigma_profile": "yes", 
		 "theory": "DFT", 
		 "functional": "B3LYP", 
		 "basiset": "6-31G**", 
		 "properties": { 
			 "R2extent": 4039.7626, 
			 "electric_dipole_moment_norm": 1.76944800997, 
			 "electric_quadrupole_moment_norm": 13.1472066839, 
			 "total_energy": -712.734504575, 
			 "HOMO_LUMO_gap": 0.1915, 
			 "cosmo_polarized_energy": -11.13, 
			 "cosmo_cavitation_energy": 31.61, 
			 "cosmo_dispersion_energy": -23.44, 
			 "cosmo_repulsion_energy": 1.83, 
			 "cosmo_total_nonelectrostatic_energy": 9.99, 
			 "SMD_solvation_energy": 3.55 
		},
		"coords": [
			{
				"x": -3.8631226603,
				"y": 0.02035312,
				"z": -2.476390844,
				"element": "N" 
			},
			{
				"x": -3.646869039,
				"y": -0.9102204291,
				"z": -1.3634908576,
				"element": "C" 
			},
			{
				"x": -2.2873941435,
				"y": -0.709905722,
				"z": -0.7248557567,
				"element": "C" 
			},
			{
				"x": -1.7470890221,
				"y": 0.5745500266,
				"z": -0.5776996849,
				"element": "C" 
			},
			{
				"x": -0.5263649339,
				"y": 0.7465063274,
				"z": 0.0479800997,
				"element": "C" 
			},
			{
				"x": -0.0632249682,
				"y": 2.0143782619,
				"z": 0.2115168919,
				"element": "F" 
			},
			{
				"x": 0.252603154,
				"y": -0.3212695673,
				"z": 0.5406628229,
				"element": "C" 
			},
			{
				"x": -0.306049322,
				"y": -1.6027239098,
				"z": 0.3767294048,
				"element": "C" 
			},
			{
				"x": -1.5467191742,
				"y": -1.7877174533,
				"z": -0.2349846741,
				"element": "C" 
			},
			{
				"x": 1.4709117963,
				"y": -0.0734396391,
				"z": 1.180399096,
				"element": "N" 
			},
			{
				"x": 2.1113192985,
				"y": -1.1028776649,
				"z": 1.9831080567,
				"element": "C" 
			},
			{
				"x": 3.1823569155,
				"y": -1.8760803958,
				"z": 1.1894450077,
				"element": "C" 
			},
			{
				"x": 3.8865344889,
				"y": -1.0238449427,
				"z": 0.2856681096,
				"element": "O" 
			},
			{
				"x": 3.8518974124,
				"y": 0.338543681,
				"z": 0.676267239,
				"element": "C" 
			},
			{
				"x": 2.4199029273,
				"y": 0.8909102733,
				"z": 0.5924762236,
				"element": "C" 
			},
			{
				"x": -4.8052568852,
				"y": -0.087324977,
				"z": -2.8428144521,
				"element": "H" 
			},
			{
				"x": -3.2229084184,
				"y": -0.1970793006,
				"z": -3.2365973732,
				"element": "H" 
			},
			{
				"x": -4.4325821685,
				"y": -0.7084027385,
				"z": -0.6214733527,
				"element": "H" 
			},
			{
				"x": -3.7508486907,
				"y": -1.9758900397,
				"z": -1.6334492091,
				"element": "H" 
			},
			{
				"x": -2.2847025727,
				"y": 1.4429545409,
				"z": -0.9420783788,
				"element": "H" 
			},
			{
				"x": 0.2473093456,
				"y": -2.474338691,
				"z": 0.7079466868,
				"element": "H" 
			},
			{
				"x": -1.9314194522,
				"y": -2.7986739759,
				"z": -0.3465297253,
				"element": "H" 
			},
			{
				"x": 2.5766810263,
				"y": -0.6193877171,
				"z": 2.8520289734,
				"element": "H" 
			},
			{
				"x": 1.3599934944,
				"y": -1.7851414105,
				"z": 2.3855886452,
				"element": "H" 
			},
			{
				"x": 3.8850128085,
				"y": -2.3573470617,
				"z": 1.8898198178,
				"element": "H" 
			},
			{
				"x": 2.7283896662,
				"y": -2.6613963994,
				"z": 0.5750139937,
				"element": "H" 
			},
			{
				"x": 4.2746152552,
				"y": 0.475545533,
				"z": 1.6842549802,
				"element": "H" 
			},
			{
				"x": 4.4965918062,
				"y": 0.8816993711,
				"z": -0.0204912178,
				"element": "H" 
			},
			{
				"x": 2.3661469741,
				"y": 1.8705247462,
				"z": 1.0875793593,
				"element": "H" 
			},
			{
				"x": 2.1639850813,
				"y": 1.0404961542,
				"z": -0.4599298821,
				"element": "H" 
			}
		],
		 "valence_orbital": [ 
			{
				"type": "occ",
				"energy": -0.26929,
				"method": "rhf"
			},
			{
				"type": "occ",
				"energy": -0.25075,
				"method": "rhf"
			},
			{
				"type": "occ",
				"energy": -0.23829,
				"method": "rhf"
			},
			{
				"type": "occ",
				"energy": -0.23396,
				"method": "rhf"
			},
			{
				"type": "occ",
				"energy": -0.18614,
				"method": "rhf"
			},
			{
				"type": "unocc",
				"energy": 0.00536,
				"method": "rhf"
			},
			{
				"type": "unocc",
				"energy": 0.01479,
				"method": "rhf"
			},
			{
				"type": "unocc",
				"energy": 0.08189,
				"method": "rhf"
			},
			{
				"type": "unocc",
				"energy": 0.09085,
				"method": "rhf"
			},
			{
				"type": "unocc",
				"energy": 0.09314,
				"method": "rhf"
			}
		],
		"cosmo_sigma_profile": { 
			"-0.025": 0.0,
			"-0.024": 0.0,
			"-0.023": 0.0,
			"-0.022": 0.0,
			"-0.021": 0.0,
			"-0.02": 0.0,
			"-0.019": 0.0,
			"-0.018": 0.0,
			"-0.017": 0.0,
			"-0.016": 0.0,
			"-0.015": 0.0,
			"-0.014": 0.0,
			"-0.013": 0.0,
			"-0.012": 0.0,
			"-0.011": 0.00750691692045,
			"-0.01": 1.29364705138,
			"-0.009": 2.73285688342,
			"-0.008": 2.40103692339,
			"-0.007": 4.98612447225,
			"-0.006": 7.93144917807,
			"-0.005": 16.2468626092,
			"-0.004": 31.2210226103,
			"-0.003": 28.0416091019,
			"-0.002": 23.1507998601,
			"-0.001": 17.8932535897,
			"0.0": 11.3745855854,
			"0.001": 10.2218040136,
			"0.002": 13.0806093035,
			"0.003": 14.481347809,
			"0.004": 15.6300533704,
			"0.005": 17.9532766601,
			"0.006": 8.92901942658,
			"0.007": 3.75910657401,
			"0.008": 3.69926324917,
			"0.009": 1.88625009858,
			"0.01": 1.05229839435,
			"0.011": 2.31561742413,
			"0.012": 2.44905135857,
			"0.013": 2.20567846908,
			"0.014": 1.3344056684,
			"0.015": 0.517674092922,
			"0.016": 0.448440022122,
			"0.017": 0.379317464556,
			"0.018": 0.0,
			"0.019": 0.0,
			"0.02": 0.0,
			"0.021": 0.0,
			"0.022": 0.0,
			"0.023": 0.0,
			"0.024": 0.0,
			"0.025": 0.0
		}
	}
}
