{
	 "smiles": "NC1=CC=CC=C1C(=O)NC1=CC=CC=C1", 
	 "Tm": 405.15, 
	 "num_atms": 28, 
	 "gaussian": { 
		 "optdone": 1, 
		 "sigma_profile": "yes", 
		 "theory": "DFT", 
		 "functional": "B3LYP", 
		 "basiset": "6-31G**", 
		 "properties": { 
			 "R2extent": 4045.854, 
			 "electric_dipole_moment_norm": 4.35363803847, 
			 "electric_quadrupole_moment_norm": 19.0501940137, 
			 "total_energy": -687.358076261, 
			 "HOMO_LUMO_gap": 0.1711, 
			 "cosmo_polarized_energy": -14.91, 
			 "cosmo_cavitation_energy": 31.6, 
			 "cosmo_dispersion_energy": -22.31, 
			 "cosmo_repulsion_energy": 1.74, 
			 "cosmo_total_nonelectrostatic_energy": 11.03, 
			 "SMD_solvation_energy": 5.9 
		},
		"coords": [
			{
				"x": 0.1586350499,
				"y": 2.5042417367,
				"z": 0.2385522393,
				"element": "N" 
			},
			{
				"x": 0.617549403,
				"y": 1.5881301678,
				"z": -0.6941975704,
				"element": "C" 
			},
			{
				"x": -0.0493263164,
				"y": 1.4769615033,
				"z": -1.9315415038,
				"element": "C" 
			},
			{
				"x": 0.4318563957,
				"y": 0.6522233502,
				"z": -2.9391654402,
				"element": "C" 
			},
			{
				"x": 1.6105232474,
				"y": -0.0806956645,
				"z": -2.7587704681,
				"element": "C" 
			},
			{
				"x": 2.2814084746,
				"y": 0.0231124399,
				"z": -1.5470489758,
				"element": "C" 
			},
			{
				"x": 1.7887259582,
				"y": 0.8125834217,
				"z": -0.4949415981,
				"element": "C" 
			},
			{
				"x": 2.6211175538,
				"y": 0.8474277829,
				"z": 0.7465926056,
				"element": "C" 
			},
			{
				"x": 3.8432506362,
				"y": 0.9151355028,
				"z": 0.7044513722,
				"element": "O" 
			},
			{
				"x": 1.9929762267,
				"y": 0.8408714663,
				"z": 1.995311567,
				"element": "N" 
			},
			{
				"x": 0.7812041575,
				"y": 0.2303024075,
				"z": 2.4137999958,
				"element": "C" 
			},
			{
				"x": 0.1535383329,
				"y": -0.7964991427,
				"z": 1.6940158496,
				"element": "C" 
			},
			{
				"x": -1.0326362697,
				"y": -1.3530052896,
				"z": 2.1724654881,
				"element": "C" 
			},
			{
				"x": -1.5933765004,
				"y": -0.921967892,
				"z": 3.3759268735,
				"element": "C" 
			},
			{
				"x": -0.9558775714,
				"y": 0.0843636622,
				"z": 4.1040262984,
				"element": "C" 
			},
			{
				"x": 0.216908512,
				"y": 0.6640508854,
				"z": 3.6240477043,
				"element": "C" 
			},
			{
				"x": 0.4779380586,
				"y": 2.3974434738,
				"z": 1.1889621947,
				"element": "H" 
			},
			{
				"x": -0.8136699307,
				"y": 2.7633517719,
				"z": 0.1624596471,
				"element": "H" 
			},
			{
				"x": -0.947154591,
				"y": 2.0682079641,
				"z": -2.0948289212,
				"element": "H" 
			},
			{
				"x": -0.1116624747,
				"y": 0.5891140948,
				"z": -3.8779839418,
				"element": "H" 
			},
			{
				"x": 1.9982016481,
				"y": -0.712332776,
				"z": -3.5512007042,
				"element": "H" 
			},
			{
				"x": 3.2073910171,
				"y": -0.5173686152,
				"z": -1.3781697574,
				"element": "H" 
			},
			{
				"x": 2.6755224495,
				"y": 0.9941077012,
				"z": 2.7296383172,
				"element": "H" 
			},
			{
				"x": 0.5906453986,
				"y": -1.1582935107,
				"z": 0.7714537646,
				"element": "H" 
			},
			{
				"x": -1.5102239225,
				"y": -2.1455735627,
				"z": 1.6035311977,
				"element": "H" 
			},
			{
				"x": -2.5111225289,
				"y": -1.3691482808,
				"z": 3.7450925309,
				"element": "H" 
			},
			{
				"x": -1.3747747528,
				"y": 0.4277127103,
				"z": 5.045554007,
				"element": "H" 
			},
			{
				"x": 0.7050323384,
				"y": 1.4575426914,
				"z": 4.184367228,
				"element": "H" 
			}
		],
		 "valence_orbital": [ 
			{
				"type": "occ",
				"energy": -0.26429,
				"method": "rhf"
			},
			{
				"type": "occ",
				"energy": -0.26043,
				"method": "rhf"
			},
			{
				"type": "occ",
				"energy": -0.24252,
				"method": "rhf"
			},
			{
				"type": "occ",
				"energy": -0.22826,
				"method": "rhf"
			},
			{
				"type": "occ",
				"energy": -0.20508,
				"method": "rhf"
			},
			{
				"type": "unocc",
				"energy": -0.03398,
				"method": "rhf"
			},
			{
				"type": "unocc",
				"energy": -0.01427,
				"method": "rhf"
			},
			{
				"type": "unocc",
				"energy": -0.00194,
				"method": "rhf"
			},
			{
				"type": "unocc",
				"energy": 0.01319,
				"method": "rhf"
			},
			{
				"type": "unocc",
				"energy": 0.0516,
				"method": "rhf"
			}
		],
		"cosmo_sigma_profile": { 
			"-0.025": 0.0,
			"-0.024": 0.0,
			"-0.023": 0.0,
			"-0.022": 0.0,
			"-0.021": 0.0,
			"-0.02": 0.0,
			"-0.019": 0.0,
			"-0.018": 0.0,
			"-0.017": 0.0,
			"-0.016": 0.0,
			"-0.015": 0.0216681393042,
			"-0.014": 0.612905050639,
			"-0.013": 2.07715479312,
			"-0.012": 2.05223553457,
			"-0.011": 2.72214401803,
			"-0.01": 2.16750512784,
			"-0.009": 2.97760941891,
			"-0.008": 3.90056000811,
			"-0.007": 4.45160880925,
			"-0.006": 12.7772376535,
			"-0.005": 18.001369622,
			"-0.004": 23.036540006,
			"-0.003": 20.1247250214,
			"-0.002": 15.6890561647,
			"-0.001": 15.0715258292,
			"0.0": 13.3014052136,
			"0.001": 12.4810367309,
			"0.002": 14.8708743802,
			"0.003": 15.3503449601,
			"0.004": 18.7849756496,
			"0.005": 19.8370717172,
			"0.006": 9.20202046142,
			"0.007": 2.30855847247,
			"0.008": 2.67196698601,
			"0.009": 2.22316572648,
			"0.01": 2.27126394222,
			"0.011": 2.34227733948,
			"0.012": 3.68409080243,
			"0.013": 5.48168148087,
			"0.014": 1.70752422816,
			"0.015": 0.0666753532114,
			"0.016": 0.0,
			"0.017": 0.0,
			"0.018": 0.0,
			"0.019": 0.0,
			"0.02": 0.0,
			"0.021": 0.0,
			"0.022": 0.0,
			"0.023": 0.0,
			"0.024": 0.0,
			"0.025": 0.0
		}
	}
}
