{
	 "smiles": "OC(=O)C1=C2C=NN(CC3=CN=CC=C3)C2=NC(=C1)C1=CC=CC=C1", 
	 "Tm": 484.15, 
	 "num_atms": 39, 
	 "gaussian": { 
		 "optdone": 1, 
		 "sigma_profile": "yes", 
		 "theory": "DFT", 
		 "functional": "B3LYP", 
		 "basiset": "6-31G**", 
		 "properties": { 
			 "R2extent": 9790.1535, 
			 "electric_dipole_moment_norm": 2.80062723867, 
			 "electric_quadrupole_moment_norm": 32.0543685059, 
			 "total_energy": -1101.91009368, 
			 "HOMO_LUMO_gap": 0.15186, 
			 "cosmo_polarized_energy": -19.43, 
			 "cosmo_cavitation_energy": 44.76, 
			 "cosmo_dispersion_energy": -31.11, 
			 "cosmo_repulsion_energy": 2.3, 
			 "cosmo_total_nonelectrostatic_energy": 15.95, 
			 "SMD_solvation_energy": 5.05 
		},
		"coords": [
			{
				"x": -0.4635825882,
				"y": 3.7756248167,
				"z": 2.9594184912,
				"element": "O" 
			},
			{
				"x": 0.6337835854,
				"y": 3.4224619136,
				"z": 2.2410215245,
				"element": "C" 
			},
			{
				"x": 1.6915146514,
				"y": 3.9751568534,
				"z": 2.4194176,
				"element": "O" 
			},
			{
				"x": 0.4331065077,
				"y": 2.3198359678,
				"z": 1.2417258348,
				"element": "C" 
			},
			{
				"x": -0.8144274534,
				"y": 2.0006567721,
				"z": 0.661147433,
				"element": "C" 
			},
			{
				"x": -2.1627677844,
				"y": 2.4642552737,
				"z": 0.650495888,
				"element": "C" 
			},
			{
				"x": -2.9164155583,
				"y": 1.7192660197,
				"z": -0.1470694169,
				"element": "N" 
			},
			{
				"x": -2.1083832029,
				"y": 0.7699215381,
				"z": -0.6806203623,
				"element": "N" 
			},
			{
				"x": -2.6424200107,
				"y": -0.252691595,
				"z": -1.5738465879,
				"element": "C" 
			},
			{
				"x": -3.2592641536,
				"y": -1.4289843709,
				"z": -0.8442731543,
				"element": "C" 
			},
			{
				"x": -2.7178504094,
				"y": -2.7121642946,
				"z": -0.9723794461,
				"element": "C" 
			},
			{
				"x": -3.2117934013,
				"y": -3.8012701203,
				"z": -0.3719854544,
				"element": "N" 
			},
			{
				"x": -4.2905698854,
				"y": -3.6363833261,
				"z": 0.4015068802,
				"element": "C" 
			},
			{
				"x": -4.9116324643,
				"y": -2.4014169354,
				"z": 0.6054817753,
				"element": "C" 
			},
			{
				"x": -4.3877701446,
				"y": -1.2792160066,
				"z": -0.0301102893,
				"element": "C" 
			},
			{
				"x": -0.8239966061,
				"y": 0.8924785819,
				"z": -0.2258575233,
				"element": "C" 
			},
			{
				"x": 0.2095828956,
				"y": 0.1311274612,
				"z": -0.5830048964,
				"element": "N" 
			},
			{
				"x": 1.3921447606,
				"y": 0.4699684076,
				"z": -0.0495293749,
				"element": "C" 
			},
			{
				"x": 1.5250820452,
				"y": 1.5549802666,
				"z": 0.8632619316,
				"element": "C" 
			},
			{
				"x": 2.5643100703,
				"y": -0.3564346367,
				"z": -0.4332024737,
				"element": "C" 
			},
			{
				"x": 2.3674262247,
				"y": -1.6588324752,
				"z": -0.9231302346,
				"element": "C" 
			},
			{
				"x": 3.4523287384,
				"y": -2.4529285309,
				"z": -1.2842369033,
				"element": "C" 
			},
			{
				"x": 4.7545221337,
				"y": -1.9592249598,
				"z": -1.1705930486,
				"element": "C" 
			},
			{
				"x": 4.9621907404,
				"y": -0.6633858718,
				"z": -0.6952109255,
				"element": "C" 
			},
			{
				"x": 3.8776326281,
				"y": 0.1316763337,
				"z": -0.3280330453,
				"element": "C" 
			},
			{
				"x": -1.1748539758,
				"y": 3.1340234664,
				"z": 2.8172014139,
				"element": "H" 
			},
			{
				"x": -2.6024842123,
				"y": 3.3204480691,
				"z": 1.1454450499,
				"element": "H" 
			},
			{
				"x": -1.8122594415,
				"y": -0.587167124,
				"z": -2.1999569755,
				"element": "H" 
			},
			{
				"x": -3.3802579869,
				"y": 0.2435594833,
				"z": -2.2103318612,
				"element": "H" 
			},
			{
				"x": -1.8367553122,
				"y": -2.8665778374,
				"z": -1.5951436652,
				"element": "H" 
			},
			{
				"x": -4.6779967353,
				"y": -4.5329699256,
				"z": 0.8823890391,
				"element": "H" 
			},
			{
				"x": -5.7857205059,
				"y": -2.3265092937,
				"z": 1.2448857444,
				"element": "H" 
			},
			{
				"x": -4.8342009556,
				"y": -0.297897545,
				"z": 0.1044044302,
				"element": "H" 
			},
			{
				"x": 2.4843632588,
				"y": 1.7842750121,
				"z": 1.3092225078,
				"element": "H" 
			},
			{
				"x": 1.3543023845,
				"y": -2.03516047,
				"z": -1.0082392967,
				"element": "H" 
			},
			{
				"x": 3.2824487472,
				"y": -3.4607396704,
				"z": -1.6520258548,
				"element": "H" 
			},
			{
				"x": 5.6005826473,
				"y": -2.5789905267,
				"z": -1.4529688682,
				"element": "H" 
			},
			{
				"x": 5.9699141822,
				"y": -0.2665704213,
				"z": -0.6147995397,
				"element": "H" 
			},
			{
				"x": 4.0586665869,
				"y": 1.1449997004,
				"z": 0.0157236543,
				"element": "H" 
			}
		],
		 "valence_orbital": [ 
			{
				"type": "occ",
				"energy": -0.26848,
				"method": "rhf"
			},
			{
				"type": "occ",
				"energy": -0.26285,
				"method": "rhf"
			},
			{
				"type": "occ",
				"energy": -0.25869,
				"method": "rhf"
			},
			{
				"type": "occ",
				"energy": -0.25105,
				"method": "rhf"
			},
			{
				"type": "occ",
				"energy": -0.23844,
				"method": "rhf"
			},
			{
				"type": "unocc",
				"energy": -0.08658,
				"method": "rhf"
			},
			{
				"type": "unocc",
				"energy": -0.03992,
				"method": "rhf"
			},
			{
				"type": "unocc",
				"energy": -0.03517,
				"method": "rhf"
			},
			{
				"type": "unocc",
				"energy": -0.02064,
				"method": "rhf"
			},
			{
				"type": "unocc",
				"energy": -0.00829,
				"method": "rhf"
			}
		],
		"cosmo_sigma_profile": { 
			"-0.025": 0.0,
			"-0.024": 0.0,
			"-0.023": 0.0,
			"-0.022": 0.0,
			"-0.021": 0.0,
			"-0.02": 0.0,
			"-0.019": 0.0,
			"-0.018": 0.0429898942985,
			"-0.017": 0.774297018895,
			"-0.016": 1.28927226209,
			"-0.015": 1.06525349618,
			"-0.014": 0.681209645432,
			"-0.013": 0.961646010897,
			"-0.012": 1.57902663732,
			"-0.011": 0.919593809881,
			"-0.01": 1.70168973716,
			"-0.009": 2.61280324497,
			"-0.008": 3.79328399179,
			"-0.007": 11.8386669879,
			"-0.006": 21.5547075761,
			"-0.005": 26.0869070483,
			"-0.004": 25.7994093299,
			"-0.003": 22.0973797964,
			"-0.002": 21.2263485987,
			"-0.001": 28.4311250423,
			"0.0": 27.1312034944,
			"0.001": 28.4278029376,
			"0.002": 28.521319261,
			"0.003": 21.7512307769,
			"0.004": 19.304489455,
			"0.005": 16.4830675835,
			"0.006": 5.28165085462,
			"0.007": 6.0615097309,
			"0.008": 7.14920050956,
			"0.009": 7.12921410827,
			"0.01": 6.21248303979,
			"0.011": 6.19648814464,
			"0.012": 4.76599662585,
			"0.013": 1.27338887303,
			"0.014": 0.662601461735,
			"0.015": 1.0053015612,
			"0.016": 0.818729431452,
			"0.017": 0.319335485973,
			"0.018": 0.0,
			"0.019": 0.0,
			"0.02": 0.0,
			"0.021": 0.0,
			"0.022": 0.0,
			"0.023": 0.0,
			"0.024": 0.0,
			"0.025": 0.0
		}
	}
}
