{
	 "smiles": "O=C1CNC2=C(N1)C=C(C=C2)S(=O)(=O)N1CCCCC1", 
	 "Tm": 418.15, 
	 "num_atms": 37, 
	 "gaussian": { 
		 "optdone": 1, 
		 "sigma_profile": "yes", 
		 "theory": "DFT", 
		 "functional": "B3LYP", 
		 "basiset": "6-31G**", 
		 "properties": { 
			 "R2extent": 7561.7663, 
			 "electric_dipole_moment_norm": 5.31034479483, 
			 "electric_quadrupole_moment_norm": 26.9646244129, 
			 "total_energy": -1293.69216738, 
			 "HOMO_LUMO_gap": 0.18574, 
			 "cosmo_polarized_energy": -23.39, 
			 "cosmo_cavitation_energy": 39.73, 
			 "cosmo_dispersion_energy": -28.93, 
			 "cosmo_repulsion_energy": 2.19, 
			 "cosmo_total_nonelectrostatic_energy": 12.99, 
			 "SMD_solvation_energy": 4.16 
		},
		"coords": [
			{
				"x": 4.5730348027,
				"y": -4.043946722,
				"z": -0.7926092298,
				"element": "O" 
			},
			{
				"x": 4.0865300077,
				"y": -2.9476418124,
				"z": -1.0089395661,
				"element": "C" 
			},
			{
				"x": 4.924318137,
				"y": -1.671933071,
				"z": -1.0419566823,
				"element": "C" 
			},
			{
				"x": 4.3056449425,
				"y": -0.6405018802,
				"z": -1.8649411113,
				"element": "N" 
			},
			{
				"x": 2.9437096638,
				"y": -0.4141289308,
				"z": -1.7567298516,
				"element": "C" 
			},
			{
				"x": 2.1182915001,
				"y": -1.5114734679,
				"z": -1.408151138,
				"element": "C" 
			},
			{
				"x": 2.7381425451,
				"y": -2.7531764514,
				"z": -1.1837585544,
				"element": "N" 
			},
			{
				"x": 0.7404662703,
				"y": -1.3597972034,
				"z": -1.3375334753,
				"element": "C" 
			},
			{
				"x": 0.1692402693,
				"y": -0.1151005206,
				"z": -1.6256826068,
				"element": "C" 
			},
			{
				"x": 0.9622105111,
				"y": 0.9725638155,
				"z": -1.9872549625,
				"element": "C" 
			},
			{
				"x": 2.3469650572,
				"y": 0.8198811281,
				"z": -2.0418058455,
				"element": "C" 
			},
			{
				"x": -1.608345458,
				"y": 0.0542702942,
				"z": -1.5709939949,
				"element": "S" 
			},
			{
				"x": -2.2139436964,
				"y": -1.1728245851,
				"z": -2.1031426614,
				"element": "O" 
			},
			{
				"x": -1.9384373694,
				"y": 1.3632353304,
				"z": -2.1556067048,
				"element": "O" 
			},
			{
				"x": -1.9108114085,
				"y": 0.0425441984,
				"z": 0.096964483,
				"element": "N" 
			},
			{
				"x": -1.5587255192,
				"y": 1.2970954596,
				"z": 0.800628829,
				"element": "C" 
			},
			{
				"x": -2.0224253944,
				"y": 1.2201897983,
				"z": 2.2702236842,
				"element": "C" 
			},
			{
				"x": -1.996903361,
				"y": -0.2251619268,
				"z": 2.780238772,
				"element": "C" 
			},
			{
				"x": -2.990692039,
				"y": -1.0964269445,
				"z": 1.9772259807,
				"element": "C" 
			},
			{
				"x": -3.1813041449,
				"y": -0.5624432241,
				"z": 0.5423772017,
				"element": "C" 
			},
			{
				"x": 5.8996933614,
				"y": -1.9396024862,
				"z": -1.4527307881,
				"element": "H" 
			},
			{
				"x": 5.0788727193,
				"y": -1.3561839936,
				"z": 0.0052671616,
				"element": "H" 
			},
			{
				"x": 4.8709632807,
				"y": 0.1836278158,
				"z": -2.0161128858,
				"element": "H" 
			},
			{
				"x": 2.1666518848,
				"y": -3.5848529749,
				"z": -1.1036387643,
				"element": "H" 
			},
			{
				"x": 0.1067107044,
				"y": -2.2035289161,
				"z": -1.0834986887,
				"element": "H" 
			},
			{
				"x": 0.4947711524,
				"y": 1.9204922166,
				"z": -2.2270618219,
				"element": "H" 
			},
			{
				"x": 2.9757880895,
				"y": 1.6606323005,
				"z": -2.322249818,
				"element": "H" 
			},
			{
				"x": -2.0029346252,
				"y": 2.1678498228,
				"z": 0.3005567609,
				"element": "H" 
			},
			{
				"x": -0.4692396816,
				"y": 1.4058434007,
				"z": 0.7544081636,
				"element": "H" 
			},
			{
				"x": -1.3812961538,
				"y": 1.8679916909,
				"z": 2.8771278934,
				"element": "H" 
			},
			{
				"x": -3.0398869069,
				"y": 1.6195816833,
				"z": 2.3603932406,
				"element": "H" 
			},
			{
				"x": -0.9820679865,
				"y": -0.623889613,
				"z": 2.6679700948,
				"element": "H" 
			},
			{
				"x": -2.2329609283,
				"y": -0.2610848787,
				"z": 3.8489467932,
				"element": "H" 
			},
			{
				"x": -2.633227127,
				"y": -2.1308185064,
				"z": 1.9447017913,
				"element": "H" 
			},
			{
				"x": -3.9702294383,
				"y": -1.1133396696,
				"z": 2.4696184012,
				"element": "H" 
			},
			{
				"x": -3.9941986977,
				"y": 0.1782662145,
				"z": 0.5060773051,
				"element": "H" 
			},
			{
				"x": -3.4398749633,
				"y": -1.3644073909,
				"z": -0.148527405,
				"element": "H" 
			}
		],
		 "valence_orbital": [ 
			{
				"type": "occ",
				"energy": -0.29136,
				"method": "rhf"
			},
			{
				"type": "occ",
				"energy": -0.27123,
				"method": "rhf"
			},
			{
				"type": "occ",
				"energy": -0.25257,
				"method": "rhf"
			},
			{
				"type": "occ",
				"energy": -0.2397,
				"method": "rhf"
			},
			{
				"type": "occ",
				"energy": -0.21504,
				"method": "rhf"
			},
			{
				"type": "unocc",
				"energy": -0.0293,
				"method": "rhf"
			},
			{
				"type": "unocc",
				"energy": -0.02511,
				"method": "rhf"
			},
			{
				"type": "unocc",
				"energy": 0.01933,
				"method": "rhf"
			},
			{
				"type": "unocc",
				"energy": 0.05893,
				"method": "rhf"
			},
			{
				"type": "unocc",
				"energy": 0.06534,
				"method": "rhf"
			}
		],
		"cosmo_sigma_profile": { 
			"-0.025": 0.0,
			"-0.024": 0.0,
			"-0.023": 0.0,
			"-0.022": 0.0,
			"-0.021": 0.0,
			"-0.02": 0.0,
			"-0.019": 0.0,
			"-0.018": 0.0,
			"-0.017": 0.0,
			"-0.016": 0.256399943485,
			"-0.015": 1.43431050183,
			"-0.014": 2.66914718328,
			"-0.013": 3.32776674255,
			"-0.012": 2.38936166066,
			"-0.011": 2.85798044678,
			"-0.01": 2.47689462144,
			"-0.009": 3.31082869419,
			"-0.008": 2.76846473722,
			"-0.007": 8.98837970572,
			"-0.006": 10.32552172,
			"-0.005": 10.7501212644,
			"-0.004": 21.053704455,
			"-0.003": 33.3160934127,
			"-0.002": 34.9157172126,
			"-0.001": 29.0904563899,
			"0.0": 25.8492092334,
			"0.001": 16.5417669229,
			"0.002": 13.8027242327,
			"0.003": 16.4739785118,
			"0.004": 10.0021127895,
			"0.005": 6.27134568056,
			"0.006": 6.55026409653,
			"0.007": 4.59291323911,
			"0.008": 3.78186683573,
			"0.009": 4.2774272664,
			"0.01": 7.43859149314,
			"0.011": 9.64115479555,
			"0.012": 10.481064179,
			"0.013": 5.99250386321,
			"0.014": 1.08220620855,
			"0.015": 0.0,
			"0.016": 0.0,
			"0.017": 0.0,
			"0.018": 0.0,
			"0.019": 0.0,
			"0.02": 0.0,
			"0.021": 0.0,
			"0.022": 0.0,
			"0.023": 0.0,
			"0.024": 0.0,
			"0.025": 0.0
		}
	}
}
