{
	 "smiles": "CC(=O)NC1CNC2=C(C1)C=CC=C2", 
	 "Tm": 398.15, 
	 "num_atms": 28, 
	 "gaussian": { 
		 "optdone": 1, 
		 "sigma_profile": "yes", 
		 "theory": "DFT", 
		 "functional": "B3LYP", 
		 "basiset": "6-31G**", 
		 "properties": { 
			 "R2extent": 3642.7434, 
			 "electric_dipole_moment_norm": 3.16807709029, 
			 "electric_quadrupole_moment_norm": 18.5387832079, 
			 "total_energy": -612.352721615, 
			 "HOMO_LUMO_gap": 0.19685, 
			 "cosmo_polarized_energy": -15.15, 
			 "cosmo_cavitation_energy": 29.75, 
			 "cosmo_dispersion_energy": -21.99, 
			 "cosmo_repulsion_energy": 1.72, 
			 "cosmo_total_nonelectrostatic_energy": 9.49, 
			 "SMD_solvation_energy": 4.1 
		},
		"coords": [
			{
				"x": 1.7560132441,
				"y": -0.0201498996,
				"z": 2.8407574774,
				"element": "C" 
			},
			{
				"x": 2.3625723817,
				"y": 1.33485834,
				"z": 2.5111002098,
				"element": "C" 
			},
			{
				"x": 3.2055724416,
				"y": 1.8356493053,
				"z": 3.2458078131,
				"element": "O" 
			},
			{
				"x": 1.9911446648,
				"y": 1.9889344699,
				"z": 1.3570513792,
				"element": "N" 
			},
			{
				"x": 0.9952836771,
				"y": 1.7143161854,
				"z": 0.3200183891,
				"element": "C" 
			},
			{
				"x": -0.4593933088,
				"y": 1.8500386124,
				"z": 0.8078627398,
				"element": "C" 
			},
			{
				"x": -1.3386046493,
				"y": 1.8017156353,
				"z": -0.3496130665,
				"element": "N" 
			},
			{
				"x": -1.1644436832,
				"y": 0.7905323552,
				"z": -1.2990012846,
				"element": "C" 
			},
			{
				"x": 0.0631961432,
				"y": 0.1003164734,
				"z": -1.3963383881,
				"element": "C" 
			},
			{
				"x": 1.1899476399,
				"y": 0.377979095,
				"z": -0.4156249433,
				"element": "C" 
			},
			{
				"x": 0.2178340673,
				"y": -0.8574882702,
				"z": -2.4032606445,
				"element": "C" 
			},
			{
				"x": -0.8064493168,
				"y": -1.1541530097,
				"z": -3.3010136448,
				"element": "C" 
			},
			{
				"x": -2.0200101822,
				"y": -0.4699372847,
				"z": -3.1941481755,
				"element": "C" 
			},
			{
				"x": -2.1973843125,
				"y": 0.4918747231,
				"z": -2.2056656712,
				"element": "C" 
			},
			{
				"x": 2.3605973082,
				"y": -0.8091023677,
				"z": 2.3804757202,
				"element": "H" 
			},
			{
				"x": 1.8107276944,
				"y": -0.1468220094,
				"z": 3.9226818495,
				"element": "H" 
			},
			{
				"x": 0.7238009085,
				"y": -0.1446417788,
				"z": 2.5097583202,
				"element": "H" 
			},
			{
				"x": 2.4867950348,
				"y": 2.8670872614,
				"z": 1.2754447032,
				"element": "H" 
			},
			{
				"x": 1.1322575849,
				"y": 2.5120120143,
				"z": -0.4179645568,
				"element": "H" 
			},
			{
				"x": -0.5864730337,
				"y": 2.8143329359,
				"z": 1.3094302988,
				"element": "H" 
			},
			{
				"x": -0.6879884199,
				"y": 1.0615477809,
				"z": 1.5440038683,
				"element": "H" 
			},
			{
				"x": -2.3034649195,
				"y": 2.0359101972,
				"z": -0.1607604092,
				"element": "H" 
			},
			{
				"x": 1.2495513991,
				"y": -0.4406488512,
				"z": 0.3104937483,
				"element": "H" 
			},
			{
				"x": 2.1540021095,
				"y": 0.3931510968,
				"z": -0.9367865127,
				"element": "H" 
			},
			{
				"x": 1.1677109383,
				"y": -1.3829201263,
				"z": -2.4778788226,
				"element": "H" 
			},
			{
				"x": -0.6598852075,
				"y": -1.9035456957,
				"z": -4.0723804801,
				"element": "H" 
			},
			{
				"x": -2.8324432809,
				"y": -0.6843816127,
				"z": -3.88282266,
				"element": "H" 
			},
			{
				"x": -3.1400669234,
				"y": 1.0293344245,
				"z": -2.129127257,
				"element": "H" 
			}
		],
		 "valence_orbital": [ 
			{
				"type": "occ",
				"energy": -0.29671,
				"method": "rhf"
			},
			{
				"type": "occ",
				"energy": -0.24882,
				"method": "rhf"
			},
			{
				"type": "occ",
				"energy": -0.24359,
				"method": "rhf"
			},
			{
				"type": "occ",
				"energy": -0.2409,
				"method": "rhf"
			},
			{
				"type": "occ",
				"energy": -0.19771,
				"method": "rhf"
			},
			{
				"type": "unocc",
				"energy": -0.00086,
				"method": "rhf"
			},
			{
				"type": "unocc",
				"energy": 0.01509,
				"method": "rhf"
			},
			{
				"type": "unocc",
				"energy": 0.02822,
				"method": "rhf"
			},
			{
				"type": "unocc",
				"energy": 0.07444,
				"method": "rhf"
			},
			{
				"type": "unocc",
				"energy": 0.07735,
				"method": "rhf"
			}
		],
		"cosmo_sigma_profile": { 
			"-0.025": 0.0,
			"-0.024": 0.0,
			"-0.023": 0.0,
			"-0.022": 0.0,
			"-0.021": 0.0,
			"-0.02": 0.0,
			"-0.019": 0.0,
			"-0.018": 0.0,
			"-0.017": 0.0,
			"-0.016": 0.0,
			"-0.015": 0.0,
			"-0.014": 0.0105196446995,
			"-0.013": 0.968679619225,
			"-0.012": 2.81105873333,
			"-0.011": 1.75430774593,
			"-0.01": 2.94140895468,
			"-0.009": 2.5471201867,
			"-0.008": 2.78146966921,
			"-0.007": 3.60964458559,
			"-0.006": 7.76035757176,
			"-0.005": 18.8549817807,
			"-0.004": 23.9849518242,
			"-0.003": 24.4773031801,
			"-0.002": 21.9223742866,
			"-0.001": 19.6613873312,
			"0.0": 12.2439454854,
			"0.001": 9.54374113445,
			"0.002": 9.55210588734,
			"0.003": 8.51300592264,
			"0.004": 8.83783170487,
			"0.005": 8.36561315395,
			"0.006": 9.85223377554,
			"0.007": 8.99369252416,
			"0.008": 4.6292515231,
			"0.009": 2.09311809025,
			"0.01": 2.07097385503,
			"0.011": 1.66800953914,
			"0.012": 1.85769541619,
			"0.013": 2.74859204991,
			"0.014": 6.16973251619,
			"0.015": 2.72092101124,
			"0.016": 0.228816437756,
			"0.017": 0.0,
			"0.018": 0.0,
			"0.019": 0.0,
			"0.02": 0.0,
			"0.021": 0.0,
			"0.022": 0.0,
			"0.023": 0.0,
			"0.024": 0.0,
			"0.025": 0.0
		}
	}
}
