{
	 "smiles": "COC(=O)C1=C(C=CS1)S(N)(=O)=O", 
	 "Tm": 394.15, 
	 "num_atms": 20, 
	 "gaussian": { 
		 "optdone": 1, 
		 "sigma_profile": "yes", 
		 "theory": "DFT", 
		 "functional": "B3LYP", 
		 "basiset": "6-31G**", 
		 "properties": { 
			 "R2extent": 4076.943, 
			 "electric_dipole_moment_norm": 4.65301137437, 
			 "electric_quadrupole_moment_norm": 24.0659842807, 
			 "total_energy": -1384.78708241, 
			 "HOMO_LUMO_gap": 0.18993, 
			 "cosmo_polarized_energy": -24.16, 
			 "cosmo_cavitation_energy": 27.85, 
			 "cosmo_dispersion_energy": -20.84, 
			 "cosmo_repulsion_energy": 1.55, 
			 "cosmo_total_nonelectrostatic_energy": 8.55, 
			 "SMD_solvation_energy": 6.17 
		},
		"coords": [
			{
				"x": 1.0424166002,
				"y": -0.7383806704,
				"z": 3.502596633,
				"element": "C" 
			},
			{
				"x": 0.9583803511,
				"y": 0.1429728698,
				"z": 2.3696534434,
				"element": "O" 
			},
			{
				"x": -0.2727939811,
				"y": 0.4481612585,
				"z": 1.951141078,
				"element": "C" 
			},
			{
				"x": -1.3027721973,
				"y": 0.0386910594,
				"z": 2.4545741222,
				"element": "O" 
			},
			{
				"x": -0.2586284781,
				"y": 1.3575742521,
				"z": 0.7838575111,
				"element": "C" 
			},
			{
				"x": 0.7584533161,
				"y": 1.9447766526,
				"z": 0.0513344629,
				"element": "C" 
			},
			{
				"x": 0.2678465896,
				"y": 2.7621679421,
				"z": -1.0084245862,
				"element": "C" 
			},
			{
				"x": -1.101471926,
				"y": 2.7827242448,
				"z": -1.0636803434,
				"element": "C" 
			},
			{
				"x": -1.817569586,
				"y": 1.8145407439,
				"z": 0.1642505302,
				"element": "S" 
			},
			{
				"x": 2.5291392465,
				"y": 1.7295077032,
				"z": 0.3658830277,
				"element": "S" 
			},
			{
				"x": 3.2962760465,
				"y": 2.6486472627,
				"z": -0.7992657874,
				"element": "N" 
			},
			{
				"x": 2.8758247736,
				"y": 0.345796449,
				"z": 0.0600443919,
				"element": "O" 
			},
			{
				"x": 2.8417975743,
				"y": 2.373265462,
				"z": 1.6371828905,
				"element": "O" 
			},
			{
				"x": 2.1076245383,
				"y": -0.8670404675,
				"z": 3.6866799822,
				"element": "H" 
			},
			{
				"x": 0.5683838993,
				"y": -1.6958279212,
				"z": 3.2742334187,
				"element": "H" 
			},
			{
				"x": 0.54910713,
				"y": -0.2907899969,
				"z": 4.3685705872,
				"element": "H" 
			},
			{
				"x": 0.9005047308,
				"y": 3.3077886623,
				"z": -1.6958004385,
				"element": "H" 
			},
			{
				"x": -1.7228546432,
				"y": 3.3203078084,
				"z": -1.7670042065,
				"element": "H" 
			},
			{
				"x": 3.2302102352,
				"y": 2.2957722344,
				"z": -1.7463561169,
				"element": "H" 
			},
			{
				"x": 3.20702578,
				"y": 3.6518444506,
				"z": -0.6920706,
				"element": "H" 
			}
		],
		 "valence_orbital": [ 
			{
				"type": "occ",
				"energy": -0.30666,
				"method": "rhf"
			},
			{
				"type": "occ",
				"energy": -0.30485,
				"method": "rhf"
			},
			{
				"type": "occ",
				"energy": -0.28666,
				"method": "rhf"
			},
			{
				"type": "occ",
				"energy": -0.27786,
				"method": "rhf"
			},
			{
				"type": "occ",
				"energy": -0.26481,
				"method": "rhf"
			},
			{
				"type": "unocc",
				"energy": -0.07488,
				"method": "rhf"
			},
			{
				"type": "unocc",
				"energy": 0.00231,
				"method": "rhf"
			},
			{
				"type": "unocc",
				"energy": 0.00646,
				"method": "rhf"
			},
			{
				"type": "unocc",
				"energy": 0.03982,
				"method": "rhf"
			},
			{
				"type": "unocc",
				"energy": 0.06325,
				"method": "rhf"
			}
		],
		"cosmo_sigma_profile": { 
			"-0.025": 0.0,
			"-0.024": 0.0,
			"-0.023": 0.0,
			"-0.022": 0.0,
			"-0.021": 0.0,
			"-0.02": 0.0,
			"-0.019": 0.0,
			"-0.018": 0.0,
			"-0.017": 0.0,
			"-0.016": 0.821174244881,
			"-0.015": 2.95734044359,
			"-0.014": 2.28920175126,
			"-0.013": 3.10728238151,
			"-0.012": 4.93621698013,
			"-0.011": 3.49695572581,
			"-0.01": 4.39353678373,
			"-0.009": 4.66661123725,
			"-0.008": 5.04914565903,
			"-0.007": 7.52529249183,
			"-0.006": 10.5751729884,
			"-0.005": 11.6929166294,
			"-0.004": 13.1758599884,
			"-0.003": 12.0002955122,
			"-0.002": 9.30580179185,
			"-0.001": 11.2317634408,
			"0.0": 16.2895218439,
			"0.001": 15.8725046881,
			"0.002": 11.3507331298,
			"0.003": 5.58289901021,
			"0.004": 4.45982863827,
			"0.005": 5.01401138236,
			"0.006": 5.26694739804,
			"0.007": 5.90431747677,
			"0.008": 6.94688201154,
			"0.009": 7.08219548761,
			"0.01": 12.6767797855,
			"0.011": 17.9285027752,
			"0.012": 2.88112060557,
			"0.013": 0.0,
			"0.014": 0.0,
			"0.015": 0.0,
			"0.016": 0.0,
			"0.017": 0.0,
			"0.018": 0.0,
			"0.019": 0.0,
			"0.02": 0.0,
			"0.021": 0.0,
			"0.022": 0.0,
			"0.023": 0.0,
			"0.024": 0.0,
			"0.025": 0.0
		}
	}
}
