{
	 "smiles": "[O-][N+](=O)C1=CN=C(OC2=CC=C(Cl)C=C2)C=C1", 
	 "Tm": 367.65, 
	 "num_atms": 24, 
	 "gaussian": { 
		 "optdone": 1, 
		 "sigma_profile": "yes", 
		 "theory": "DFT", 
		 "functional": "B3LYP", 
		 "basiset": "6-31G**", 
		 "properties": { 
			 "R2extent": 7471.2948, 
			 "electric_dipole_moment_norm": 3.87922030955, 
			 "electric_quadrupole_moment_norm": 28.5299389661, 
			 "total_energy": -1218.6411313, 
			 "HOMO_LUMO_gap": 0.16779, 
			 "cosmo_polarized_energy": -12.88, 
			 "cosmo_cavitation_energy": 32.43, 
			 "cosmo_dispersion_energy": -23.53, 
			 "cosmo_repulsion_energy": 1.82, 
			 "cosmo_total_nonelectrostatic_energy": 10.72, 
			 "SMD_solvation_energy": 6.32 
		},
		"coords": [
			{
				"x": -5.611932728,
				"y": 1.4904535166,
				"z": -0.6507463151,
				"element": "O" 
			},
			{
				"x": -4.8450316714,
				"y": 0.8538403727,
				"z": -1.3733547052,
				"element": "N" 
			},
			{
				"x": -5.1809816135,
				"y": 0.2238695412,
				"z": -2.3771314516,
				"element": "O" 
			},
			{
				"x": -3.4302437359,
				"y": 0.844179132,
				"z": -1.0143688886,
				"element": "C" 
			},
			{
				"x": -2.9893337151,
				"y": 1.5393952954,
				"z": 0.1122076488,
				"element": "C" 
			},
			{
				"x": -1.7095836304,
				"y": 1.5600940033,
				"z": 0.4795011229,
				"element": "N" 
			},
			{
				"x": -0.8348142871,
				"y": 0.8870824247,
				"z": -0.2681798237,
				"element": "C" 
			},
			{
				"x": 0.4384496106,
				"y": 0.9783936511,
				"z": 0.2004369493,
				"element": "O" 
			},
			{
				"x": 1.4782901032,
				"y": 0.3362256589,
				"z": -0.4650968278,
				"element": "C" 
			},
			{
				"x": 2.1918837817,
				"y": 1.0248070103,
				"z": -1.4449103241,
				"element": "C" 
			},
			{
				"x": 3.2846817115,
				"y": 0.4115086942,
				"z": -2.057324512,
				"element": "C" 
			},
			{
				"x": 3.6456403361,
				"y": -0.8816236772,
				"z": -1.6762526781,
				"element": "C" 
			},
			{
				"x": 5.0202231621,
				"y": -1.6548481884,
				"z": -2.4456321891,
				"element": "Cl" 
			},
			{
				"x": 2.9360127883,
				"y": -1.568563044,
				"z": -0.6902433123,
				"element": "C" 
			},
			{
				"x": 1.843610964,
				"y": -0.9526879962,
				"z": -0.0796771307,
				"element": "C" 
			},
			{
				"x": -1.1812430345,
				"y": 0.156499517,
				"z": -1.4207758946,
				"element": "C" 
			},
			{
				"x": -2.5147207736,
				"y": 0.1397527159,
				"z": -1.7965122317,
				"element": "C" 
			},
			{
				"x": -3.6977488616,
				"y": 2.0886887973,
				"z": 0.7239557821,
				"element": "H" 
			},
			{
				"x": 1.8978801225,
				"y": 2.0339667891,
				"z": -1.7135189943,
				"element": "H" 
			},
			{
				"x": 3.8532438449,
				"y": 0.9327400539,
				"z": -2.819133913,
				"element": "H" 
			},
			{
				"x": 3.2365312807,
				"y": -2.5693213001,
				"z": -0.4013319488,
				"element": "H" 
			},
			{
				"x": 1.2824714948,
				"y": -1.4594985651,
				"z": 0.6982997893,
				"element": "H" 
			},
			{
				"x": -0.4321700914,
				"y": -0.3742130601,
				"z": -1.9940720817,
				"element": "H" 
			},
			{
				"x": -2.8577150579,
				"y": -0.4000413426,
				"z": -2.6709380701,
				"element": "H" 
			}
		],
		 "valence_orbital": [ 
			{
				"type": "occ",
				"energy": -0.29744,
				"method": "rhf"
			},
			{
				"type": "occ",
				"energy": -0.28978,
				"method": "rhf"
			},
			{
				"type": "occ",
				"energy": -0.28912,
				"method": "rhf"
			},
			{
				"type": "occ",
				"energy": -0.27178,
				"method": "rhf"
			},
			{
				"type": "occ",
				"energy": -0.26212,
				"method": "rhf"
			},
			{
				"type": "unocc",
				"energy": -0.09433,
				"method": "rhf"
			},
			{
				"type": "unocc",
				"energy": -0.05529,
				"method": "rhf"
			},
			{
				"type": "unocc",
				"energy": -0.03594,
				"method": "rhf"
			},
			{
				"type": "unocc",
				"energy": -0.03377,
				"method": "rhf"
			},
			{
				"type": "unocc",
				"energy": -0.00418,
				"method": "rhf"
			}
		],
		"cosmo_sigma_profile": { 
			"-0.025": 0.0,
			"-0.024": 0.0,
			"-0.023": 0.0,
			"-0.022": 0.0,
			"-0.021": 0.0,
			"-0.02": 0.0,
			"-0.019": 0.0,
			"-0.018": 0.0,
			"-0.017": 0.0,
			"-0.016": 0.0,
			"-0.015": 0.0,
			"-0.014": 0.0,
			"-0.013": 0.0,
			"-0.012": 0.0,
			"-0.011": 0.0,
			"-0.01": 0.047841623256,
			"-0.009": 1.67531178019,
			"-0.008": 9.8775664389,
			"-0.007": 14.2541449163,
			"-0.006": 13.9959201768,
			"-0.005": 13.6616455059,
			"-0.004": 15.5154988395,
			"-0.003": 20.9069052099,
			"-0.002": 21.4618045586,
			"-0.001": 17.7514400046,
			"0.0": 18.6228920663,
			"0.001": 21.0423552207,
			"0.002": 20.884300366,
			"0.003": 12.5168413736,
			"0.004": 13.9211619239,
			"0.005": 8.78567132412,
			"0.006": 4.80894269295,
			"0.007": 11.1912991809,
			"0.008": 8.28289244765,
			"0.009": 6.52072913383,
			"0.01": 4.05596433633,
			"0.011": 1.62195531779,
			"0.012": 0.666186235491,
			"0.013": 1.18988886971,
			"0.014": 0.935000452242,
			"0.015": 0.169535995622,
			"0.016": 0.0,
			"0.017": 0.0,
			"0.018": 0.0,
			"0.019": 0.0,
			"0.02": 0.0,
			"0.021": 0.0,
			"0.022": 0.0,
			"0.023": 0.0,
			"0.024": 0.0,
			"0.025": 0.0
		}
	}
}
