{
	 "smiles": "CC1=NC2=C(C(=O)NN2)C(C)=C1", 
	 "Tm": 523.15, 
	 "num_atms": 21, 
	 "gaussian": { 
		 "optdone": 1, 
		 "sigma_profile": "yes", 
		 "theory": "DFT", 
		 "functional": "B3LYP", 
		 "basiset": "6-31G**", 
		 "properties": { 
			 "R2extent": 2751.744, 
			 "electric_dipole_moment_norm": 2.38370315895, 
			 "electric_quadrupole_moment_norm": 17.9505302451, 
			 "total_energy": -549.754878093, 
			 "HOMO_LUMO_gap": 0.17575, 
			 "cosmo_polarized_energy": -13.86, 
			 "cosmo_cavitation_energy": 24.83, 
			 "cosmo_dispersion_energy": -18.63, 
			 "cosmo_repulsion_energy": 1.49, 
			 "cosmo_total_nonelectrostatic_energy": 7.68, 
			 "SMD_solvation_energy": 3.23 
		},
		"coords": [
			{
				"x": -0.3412938,
				"y": -1.9378961081,
				"z": 1.0479043693,
				"element": "C" 
			},
			{
				"x": 0.0767169983,
				"y": -0.8019082989,
				"z": 0.149859241,
				"element": "C" 
			},
			{
				"x": 1.382132916,
				"y": -0.7645667318,
				"z": -0.1793500451,
				"element": "N" 
			},
			{
				"x": 1.7265209598,
				"y": 0.2533230482,
				"z": -0.9592745835,
				"element": "C" 
			},
			{
				"x": 0.8685685288,
				"y": 1.2201898349,
				"z": -1.4996602287,
				"element": "C" 
			},
			{
				"x": 1.6754809543,
				"y": 2.1017742125,
				"z": -2.3524797632,
				"element": "C" 
			},
			{
				"x": 1.4008796508,
				"y": 3.1412169714,
				"z": -2.933895876,
				"element": "O" 
			},
			{
				"x": 2.9530640665,
				"y": 1.4999320179,
				"z": -2.3662362612,
				"element": "N" 
			},
			{
				"x": 3.0431295512,
				"y": 0.4977135222,
				"z": -1.3570652841,
				"element": "N" 
			},
			{
				"x": -0.4871454838,
				"y": 1.1907978618,
				"z": -1.1545627999,
				"element": "C" 
			},
			{
				"x": -1.4713823729,
				"y": 2.1880560784,
				"z": -1.7027130604,
				"element": "C" 
			},
			{
				"x": -0.8604680245,
				"y": 0.1503043883,
				"z": -0.2967702788,
				"element": "C" 
			},
			{
				"x": -1.4173237881,
				"y": -1.9345761234,
				"z": 1.2363159318,
				"element": "H" 
			},
			{
				"x": 0.1826348007,
				"y": -1.8736313064,
				"z": 2.0075102318,
				"element": "H" 
			},
			{
				"x": -0.0639327628,
				"y": -2.8965192012,
				"z": 0.5978903361,
				"element": "H" 
			},
			{
				"x": 3.742355613,
				"y": 2.1360885221,
				"z": -2.387170285,
				"element": "H" 
			},
			{
				"x": 3.5439819577,
				"y": -0.3285806456,
				"z": -1.6752231861,
				"element": "H" 
			},
			{
				"x": -1.9055411894,
				"y": 1.8127030221,
				"z": -2.637693767,
				"element": "H" 
			},
			{
				"x": -2.293783715,
				"y": 2.3575809651,
				"z": -1.0021280844,
				"element": "H" 
			},
			{
				"x": -0.9791829976,
				"y": 3.1337310141,
				"z": -1.9369725081,
				"element": "H" 
			},
			{
				"x": -1.894811863,
				"y": 0.0600669564,
				"z": 0.0211159017,
				"element": "H" 
			}
		],
		 "valence_orbital": [ 
			{
				"type": "occ",
				"energy": -0.2833,
				"method": "rhf"
			},
			{
				"type": "occ",
				"energy": -0.27793,
				"method": "rhf"
			},
			{
				"type": "occ",
				"energy": -0.26591,
				"method": "rhf"
			},
			{
				"type": "occ",
				"energy": -0.24864,
				"method": "rhf"
			},
			{
				"type": "occ",
				"energy": -0.22352,
				"method": "rhf"
			},
			{
				"type": "unocc",
				"energy": -0.04777,
				"method": "rhf"
			},
			{
				"type": "unocc",
				"energy": -0.00778,
				"method": "rhf"
			},
			{
				"type": "unocc",
				"energy": 0.04966,
				"method": "rhf"
			},
			{
				"type": "unocc",
				"energy": 0.08913,
				"method": "rhf"
			},
			{
				"type": "unocc",
				"energy": 0.09798,
				"method": "rhf"
			}
		],
		"cosmo_sigma_profile": { 
			"-0.025": 0.0,
			"-0.024": 0.0,
			"-0.023": 0.0,
			"-0.022": 0.0,
			"-0.021": 0.0,
			"-0.02": 0.0,
			"-0.019": 0.0,
			"-0.018": 0.0,
			"-0.017": 0.0,
			"-0.016": 0.114893124162,
			"-0.015": 2.29947319697,
			"-0.014": 2.6760285069,
			"-0.013": 1.95636540928,
			"-0.012": 2.25710886841,
			"-0.011": 1.27008128126,
			"-0.01": 1.50556861588,
			"-0.009": 2.81073300475,
			"-0.008": 2.31868270161,
			"-0.007": 1.3336189944,
			"-0.006": 4.94433554324,
			"-0.005": 12.5785190805,
			"-0.004": 13.1327898347,
			"-0.003": 13.1932459652,
			"-0.002": 16.0401845688,
			"-0.001": 23.0267014544,
			"0.0": 21.0744328829,
			"0.001": 12.7322262392,
			"0.002": 11.0419391636,
			"0.003": 7.45546114833,
			"0.004": 3.26380564006,
			"0.005": 5.62296039955,
			"0.006": 4.84751179182,
			"0.007": 3.71607079059,
			"0.008": 3.21877842493,
			"0.009": 4.20659177264,
			"0.01": 3.08097436661,
			"0.011": 2.43309949585,
			"0.012": 2.88469760336,
			"0.013": 5.92520495332,
			"0.014": 3.22578741327,
			"0.015": 0.858303332486,
			"0.016": 0.0439033670727,
			"0.017": 0.0,
			"0.018": 0.0,
			"0.019": 0.0,
			"0.02": 0.0,
			"0.021": 0.0,
			"0.022": 0.0,
			"0.023": 0.0,
			"0.024": 0.0,
			"0.025": 0.0
		}
	}
}
