{
	 "smiles": "CC1=CC=C(OC2=CC=C(C=C2)C#N)C=C1", 
	 "Tm": 343.15, 
	 "num_atms": 27, 
	 "gaussian": { 
		 "optdone": 1, 
		 "sigma_profile": "yes", 
		 "theory": "DFT", 
		 "functional": "B3LYP", 
		 "basiset": "6-31G**", 
		 "properties": { 
			 "R2extent": 5499.4924, 
			 "electric_dipole_moment_norm": 6.06774392835, 
			 "electric_quadrupole_moment_norm": 34.5370438576, 
			 "total_energy": -670.077942961, 
			 "HOMO_LUMO_gap": 0.19711, 
			 "cosmo_polarized_energy": -10.59, 
			 "cosmo_cavitation_energy": 32.9, 
			 "cosmo_dispersion_energy": -22.98, 
			 "cosmo_repulsion_energy": 1.79, 
			 "cosmo_total_nonelectrostatic_energy": 11.72, 
			 "SMD_solvation_energy": 7.28 
		},
		"coords": [
			{
				"x": -1.4485160226,
				"y": 0.6743193686,
				"z": -4.3756553815,
				"element": "C" 
			},
			{
				"x": -0.5579965621,
				"y": 0.5966433033,
				"z": -3.1577010736,
				"element": "C" 
			},
			{
				"x": -0.4907031277,
				"y": -0.5750988749,
				"z": -2.3895142174,
				"element": "C" 
			},
			{
				"x": 0.3096614942,
				"y": -0.6509620712,
				"z": -1.2506781656,
				"element": "C" 
			},
			{
				"x": 1.0550164306,
				"y": 0.4639810947,
				"z": -0.8668656697,
				"element": "C" 
			},
			{
				"x": 1.92531125,
				"y": 0.3874340717,
				"z": 0.2179509808,
				"element": "O" 
			},
			{
				"x": 1.4362937515,
				"y": 0.4292311709,
				"z": 1.4951079095,
				"element": "C" 
			},
			{
				"x": 2.370413532,
				"y": 0.1795551921,
				"z": 2.5109988949,
				"element": "C" 
			},
			{
				"x": 1.975658448,
				"y": 0.2182185553,
				"z": 3.8394762674,
				"element": "C" 
			},
			{
				"x": 0.6389081845,
				"y": 0.5064703598,
				"z": 4.1745118658,
				"element": "C" 
			},
			{
				"x": -0.2871117869,
				"y": 0.7571302859,
				"z": 3.1489961312,
				"element": "C" 
			},
			{
				"x": 0.1042242627,
				"y": 0.7207562235,
				"z": 1.8144109501,
				"element": "C" 
			},
			{
				"x": 0.2281714571,
				"y": 0.5442002719,
				"z": 5.5455740374,
				"element": "C" 
			},
			{
				"x": -0.1054348585,
				"y": 0.574533593,
				"z": 6.6602598098,
				"element": "N" 
			},
			{
				"x": 1.0124391141,
				"y": 1.6395313684,
				"z": -1.6117545309,
				"element": "C" 
			},
			{
				"x": 0.2096601744,
				"y": 1.6961028027,
				"z": -2.7520351982,
				"element": "C" 
			},
			{
				"x": -2.4772477188,
				"y": 0.9371261738,
				"z": -4.0991259275,
				"element": "H" 
			},
			{
				"x": -1.0968663503,
				"y": 1.433040404,
				"z": -5.0806140525,
				"element": "H" 
			},
			{
				"x": -1.4902153095,
				"y": -0.2837120845,
				"z": -4.9028436369,
				"element": "H" 
			},
			{
				"x": -1.0667784235,
				"y": -1.4461158554,
				"z": -2.6913550751,
				"element": "H" 
			},
			{
				"x": 0.3701148265,
				"y": -1.5647098296,
				"z": -0.6680947078,
				"element": "H" 
			},
			{
				"x": 3.3954411027,
				"y": -0.0414648078,
				"z": 2.2340112634,
				"element": "H" 
			},
			{
				"x": 2.6957810291,
				"y": 0.0242933139,
				"z": 4.6273112914,
				"element": "H" 
			},
			{
				"x": -1.3173453165,
				"y": 0.9837602981,
				"z": 3.4028593901,
				"element": "H" 
			},
			{
				"x": -0.6149780927,
				"y": 0.9185866014,
				"z": 1.0288825059,
				"element": "H" 
			},
			{
				"x": 1.6132806524,
				"y": 2.4884817892,
				"z": -1.3022975603,
				"element": "H" 
			},
			{
				"x": 0.1828178594,
				"y": 2.6120672813,
				"z": -3.3365161007,
				"element": "H" 
			}
		],
		 "valence_orbital": [ 
			{
				"type": "occ",
				"energy": -0.31993,
				"method": "rhf"
			},
			{
				"type": "occ",
				"energy": -0.27559,
				"method": "rhf"
			},
			{
				"type": "occ",
				"energy": -0.26653,
				"method": "rhf"
			},
			{
				"type": "occ",
				"energy": -0.2512,
				"method": "rhf"
			},
			{
				"type": "occ",
				"energy": -0.23647,
				"method": "rhf"
			},
			{
				"type": "unocc",
				"energy": -0.03936,
				"method": "rhf"
			},
			{
				"type": "unocc",
				"energy": -0.02652,
				"method": "rhf"
			},
			{
				"type": "unocc",
				"energy": -0.01376,
				"method": "rhf"
			},
			{
				"type": "unocc",
				"energy": -0.01191,
				"method": "rhf"
			},
			{
				"type": "unocc",
				"energy": 0.04317,
				"method": "rhf"
			}
		],
		"cosmo_sigma_profile": { 
			"-0.025": 0.0,
			"-0.024": 0.0,
			"-0.023": 0.0,
			"-0.022": 0.0,
			"-0.021": 0.0,
			"-0.02": 0.0,
			"-0.019": 0.0,
			"-0.018": 0.0,
			"-0.017": 0.0,
			"-0.016": 0.0,
			"-0.015": 0.0,
			"-0.014": 0.0,
			"-0.013": 0.0,
			"-0.012": 0.0,
			"-0.011": 0.0,
			"-0.01": 0.0,
			"-0.009": 0.0571679691507,
			"-0.008": 3.77303876318,
			"-0.007": 8.3438721954,
			"-0.006": 15.2520772722,
			"-0.005": 15.6269452826,
			"-0.004": 21.5484421052,
			"-0.003": 18.8901349042,
			"-0.002": 20.4364203447,
			"-0.001": 23.5494241951,
			"0.0": 25.9925366567,
			"0.001": 21.1746783447,
			"0.002": 24.7959150284,
			"0.003": 17.5351808605,
			"0.004": 12.1584730695,
			"0.005": 7.89542173279,
			"0.006": 4.55004576832,
			"0.007": 3.82887822951,
			"0.008": 4.00106495405,
			"0.009": 4.25843977414,
			"0.01": 2.88378472286,
			"0.011": 3.28137585842,
			"0.012": 2.56836221472,
			"0.013": 2.08600427995,
			"0.014": 0.332255743594,
			"0.015": 0.0,
			"0.016": 0.0,
			"0.017": 0.0,
			"0.018": 0.0,
			"0.019": 0.0,
			"0.02": 0.0,
			"0.021": 0.0,
			"0.022": 0.0,
			"0.023": 0.0,
			"0.024": 0.0,
			"0.025": 0.0
		}
	}
}
