{
	 "smiles": "O=C1C=CC(=O)N1C1=C(C=CC=C1)N1C(=O)C=CC1=O", 
	 "Tm": 519.15, 
	 "num_atms": 28, 
	 "gaussian": { 
		 "optdone": 1, 
		 "sigma_profile": "yes", 
		 "theory": "DFT", 
		 "functional": "B3LYP", 
		 "basiset": "6-31G**", 
		 "properties": { 
			 "R2extent": 4210.6845, 
			 "electric_dipole_moment_norm": 2.0006161301, 
			 "electric_quadrupole_moment_norm": 27.5795191595, 
			 "total_energy": -948.698151293, 
			 "HOMO_LUMO_gap": 0.14391, 
			 "cosmo_polarized_energy": -19.02, 
			 "cosmo_cavitation_energy": 34.03, 
			 "cosmo_dispersion_energy": -23.06, 
			 "cosmo_repulsion_energy": 1.75, 
			 "cosmo_total_nonelectrostatic_energy": 12.71, 
			 "SMD_solvation_energy": 9.02 
		},
		"coords": [
			{
				"x": -1.323510483,
				"y": -2.0553001843,
				"z": -2.2106994817,
				"element": "O" 
			},
			{
				"x": -0.2778134076,
				"y": -1.4485540391,
				"z": -2.1787042013,
				"element": "C" 
			},
			{
				"x": 0.9646419729,
				"y": -1.7088092871,
				"z": -2.9755458092,
				"element": "C" 
			},
			{
				"x": 1.8730949397,
				"y": -0.776297318,
				"z": -2.6785889033,
				"element": "C" 
			},
			{
				"x": 1.3020493978,
				"y": 0.1559633802,
				"z": -1.6516481994,
				"element": "C" 
			},
			{
				"x": 1.842095233,
				"y": 1.1143418302,
				"z": -1.140619965,
				"element": "O" 
			},
			{
				"x": -0.0002078161,
				"y": -0.3065871656,
				"z": -1.3893359841,
				"element": "N" 
			},
			{
				"x": -0.9204346522,
				"y": 0.2620441201,
				"z": -0.466796651,
				"element": "C" 
			},
			{
				"x": -0.5909181043,
				"y": 0.4562518225,
				"z": 0.8872309235,
				"element": "C" 
			},
			{
				"x": -1.5225406394,
				"y": 1.0529792674,
				"z": 1.7428414495,
				"element": "C" 
			},
			{
				"x": -2.778840364,
				"y": 1.4260094948,
				"z": 1.2740978453,
				"element": "C" 
			},
			{
				"x": -3.1202456516,
				"y": 1.1955967536,
				"z": -0.0589014,
				"element": "C" 
			},
			{
				"x": -2.1927003031,
				"y": 0.6213356093,
				"z": -0.923205107,
				"element": "C" 
			},
			{
				"x": 0.673995842,
				"y": 0.0769442873,
				"z": 1.4139013525,
				"element": "N" 
			},
			{
				"x": 1.254206489,
				"y": -1.2020319811,
				"z": 1.3347222661,
				"element": "C" 
			},
			{
				"x": 0.7662989592,
				"y": -2.1828332265,
				"z": 0.8138977052,
				"element": "O" 
			},
			{
				"x": 2.5856546161,
				"y": -1.0951611278,
				"z": 2.0170538116,
				"element": "C" 
			},
			{
				"x": 2.7565973226,
				"y": 0.1570395598,
				"z": 2.4481153197,
				"element": "C" 
			},
			{
				"x": 1.5424511759,
				"y": 0.9624109058,
				"z": 2.0965491568,
				"element": "C" 
			},
			{
				"x": 1.3157941135,
				"y": 2.1209292908,
				"z": 2.3594449215,
				"element": "O" 
			},
			{
				"x": 1.0286762755,
				"y": -2.5370399364,
				"z": -3.6687579149,
				"element": "H" 
			},
			{
				"x": 2.8741671538,
				"y": -0.6422544109,
				"z": -3.0667472005,
				"element": "H" 
			},
			{
				"x": -1.2489525027,
				"y": 1.2173123762,
				"z": 2.7783935542,
				"element": "H" 
			},
			{
				"x": -3.4909925149,
				"y": 1.8850471689,
				"z": 1.9525262734,
				"element": "H" 
			},
			{
				"x": -4.1020845969,
				"y": 1.4713866681,
				"z": -0.4304854141,
				"element": "H" 
			},
			{
				"x": -2.4421406724,
				"y": 0.4465803495,
				"z": -1.9631400756,
				"element": "H" 
			},
			{
				"x": 3.2443740354,
				"y": -1.9491333351,
				"z": 2.1042427667,
				"element": "H" 
			},
			{
				"x": 3.5915841818,
				"y": 0.5951291273,
				"z": 2.9786589611,
				"element": "H" 
			}
		],
		 "valence_orbital": [ 
			{
				"type": "occ",
				"energy": -0.29431,
				"method": "rhf"
			},
			{
				"type": "occ",
				"energy": -0.27623,
				"method": "rhf"
			},
			{
				"type": "occ",
				"energy": -0.27179,
				"method": "rhf"
			},
			{
				"type": "occ",
				"energy": -0.25388,
				"method": "rhf"
			},
			{
				"type": "occ",
				"energy": -0.24591,
				"method": "rhf"
			},
			{
				"type": "unocc",
				"energy": -0.102,
				"method": "rhf"
			},
			{
				"type": "unocc",
				"energy": -0.0945,
				"method": "rhf"
			},
			{
				"type": "unocc",
				"energy": -0.02402,
				"method": "rhf"
			},
			{
				"type": "unocc",
				"energy": -0.01597,
				"method": "rhf"
			},
			{
				"type": "unocc",
				"energy": 0.05419,
				"method": "rhf"
			}
		],
		"cosmo_sigma_profile": { 
			"-0.025": 0.0,
			"-0.024": 0.0,
			"-0.023": 0.0,
			"-0.022": 0.0,
			"-0.021": 0.0,
			"-0.02": 0.0,
			"-0.019": 0.0,
			"-0.018": 0.0,
			"-0.017": 0.0,
			"-0.016": 0.0,
			"-0.015": 0.0,
			"-0.014": 0.0,
			"-0.013": 0.0,
			"-0.012": 0.0,
			"-0.011": 0.0308504571989,
			"-0.01": 5.28275269917,
			"-0.009": 7.43299367474,
			"-0.008": 6.91469386751,
			"-0.007": 13.5616093826,
			"-0.006": 20.3833503463,
			"-0.005": 20.9939994946,
			"-0.004": 18.9826842731,
			"-0.003": 19.2028596943,
			"-0.002": 16.6774262083,
			"-0.001": 14.7813006072,
			"0.0": 15.7223368959,
			"0.001": 12.1738658726,
			"0.002": 10.5501083711,
			"0.003": 14.9873367458,
			"0.004": 11.3721633969,
			"0.005": 6.60468803113,
			"0.006": 7.90928361111,
			"0.007": 8.4380400298,
			"0.008": 8.59075361493,
			"0.009": 9.60429325268,
			"0.01": 15.7857139848,
			"0.011": 8.55605737578,
			"0.012": 0.833807404413,
			"0.013": 0.0,
			"0.014": 0.0,
			"0.015": 0.0,
			"0.016": 0.0,
			"0.017": 0.0,
			"0.018": 0.0,
			"0.019": 0.0,
			"0.02": 0.0,
			"0.021": 0.0,
			"0.022": 0.0,
			"0.023": 0.0,
			"0.024": 0.0,
			"0.025": 0.0
		}
	}
}
