{
	 "smiles": "NC1=C(SC2=C1C(=CC(=N2)C1=CC=CC=C1)C(F)(F)F)C#N", 
	 "Tm": 510.15, 
	 "num_atms": 30, 
	 "gaussian": { 
		 "optdone": 1, 
		 "sigma_profile": "yes", 
		 "theory": "DFT", 
		 "functional": "B3LYP", 
		 "basiset": "6-31G**", 
		 "properties": { 
			 "R2extent": 8495.5685, 
			 "electric_dipole_moment_norm": 5.50360157261, 
			 "electric_quadrupole_moment_norm": 28.0501322997, 
			 "total_energy": -1438.37760883, 
			 "HOMO_LUMO_gap": 0.12893, 
			 "cosmo_polarized_energy": -13.11, 
			 "cosmo_cavitation_energy": 38.23, 
			 "cosmo_dispersion_energy": -27.58, 
			 "cosmo_repulsion_energy": 1.95, 
			 "cosmo_total_nonelectrostatic_energy": 12.6, 
			 "SMD_solvation_energy": 6.78 
		},
		"coords": [
			{
				"x": 0.4985975019,
				"y": 2.9661910074,
				"z": 2.9050280179,
				"element": "N" 
			},
			{
				"x": 0.183908436,
				"y": 2.9258634639,
				"z": 1.5691132074,
				"element": "C" 
			},
			{
				"x": 0.0724308246,
				"y": 4.0648670431,
				"z": 0.7822360816,
				"element": "C" 
			},
			{
				"x": -0.2405317717,
				"y": 3.7434113171,
				"z": -0.9244287862,
				"element": "S" 
			},
			{
				"x": -0.2530977135,
				"y": 2.0249249435,
				"z": -0.586866739,
				"element": "C" 
			},
			{
				"x": -0.0023554162,
				"y": 1.7235013643,
				"z": 0.7800762842,
				"element": "C" 
			},
			{
				"x": 0.0125747096,
				"y": 0.3410863516,
				"z": 1.0883486514,
				"element": "C" 
			},
			{
				"x": -0.2122622436,
				"y": -0.5772409679,
				"z": 0.0764381135,
				"element": "C" 
			},
			{
				"x": -0.4453966646,
				"y": -0.1517111948,
				"z": -1.2532205002,
				"element": "C" 
			},
			{
				"x": -0.4643084197,
				"y": 1.1520597868,
				"z": -1.5619141244,
				"element": "N" 
			},
			{
				"x": -0.6913341512,
				"y": -1.1111246999,
				"z": -2.3570134022,
				"element": "C" 
			},
			{
				"x": -0.3843562475,
				"y": -2.4775356819,
				"z": -2.2380245035,
				"element": "C" 
			},
			{
				"x": -0.6299030959,
				"y": -3.3558907059,
				"z": -3.2916636818,
				"element": "C" 
			},
			{
				"x": -1.1866263866,
				"y": -2.8863699067,
				"z": -4.4825646415,
				"element": "C" 
			},
			{
				"x": -1.4895452204,
				"y": -1.5288661176,
				"z": -4.6148477778,
				"element": "C" 
			},
			{
				"x": -1.2420692869,
				"y": -0.6488314708,
				"z": -3.5653080917,
				"element": "C" 
			},
			{
				"x": 0.2791224979,
				"y": -0.1779619836,
				"z": 2.4812644642,
				"element": "C" 
			},
			{
				"x": 0.1795813737,
				"y": -1.5157553553,
				"z": 2.5610529231,
				"element": "F" 
			},
			{
				"x": -0.6146329791,
				"y": 0.3346529033,
				"z": 3.3774383018,
				"element": "F" 
			},
			{
				"x": 1.505464648,
				"y": 0.1668072705,
				"z": 2.9167455317,
				"element": "F" 
			},
			{
				"x": 0.1849060441,
				"y": 5.3775050957,
				"z": 1.2815666748,
				"element": "C" 
			},
			{
				"x": 0.2785190119,
				"y": 6.4462849501,
				"z": 1.7420382098,
				"element": "N" 
			},
			{
				"x": 0.1331585363,
				"y": 2.2331161209,
				"z": 3.4930121807,
				"element": "H" 
			},
			{
				"x": 0.481553398,
				"y": 3.8848787104,
				"z": 3.3274658176,
				"element": "H" 
			},
			{
				"x": -0.2236297376,
				"y": -1.6297218889,
				"z": 0.3210631698,
				"element": "H" 
			},
			{
				"x": 0.0708360889,
				"y": -2.862902684,
				"z": -1.3314897956,
				"element": "H" 
			},
			{
				"x": -0.3799496003,
				"y": -4.4071431346,
				"z": -3.1833366544,
				"element": "H" 
			},
			{
				"x": -1.3792035549,
				"y": -3.5722050934,
				"z": -5.3023571571,
				"element": "H" 
			},
			{
				"x": -1.9212077253,
				"y": -1.1550720091,
				"z": -5.538710208,
				"element": "H" 
			},
			{
				"x": -1.4711428557,
				"y": 0.4061825659,
				"z": -3.6614415662,
				"element": "H" 
			}
		],
		 "valence_orbital": [ 
			{
				"type": "occ",
				"energy": -0.28877,
				"method": "rhf"
			},
			{
				"type": "occ",
				"energy": -0.28044,
				"method": "rhf"
			},
			{
				"type": "occ",
				"energy": -0.26411,
				"method": "rhf"
			},
			{
				"type": "occ",
				"energy": -0.2477,
				"method": "rhf"
			},
			{
				"type": "occ",
				"energy": -0.21855,
				"method": "rhf"
			},
			{
				"type": "unocc",
				"energy": -0.08962,
				"method": "rhf"
			},
			{
				"type": "unocc",
				"energy": -0.05033,
				"method": "rhf"
			},
			{
				"type": "unocc",
				"energy": -0.02123,
				"method": "rhf"
			},
			{
				"type": "unocc",
				"energy": -0.01242,
				"method": "rhf"
			},
			{
				"type": "unocc",
				"energy": -0.00812,
				"method": "rhf"
			}
		],
		"cosmo_sigma_profile": { 
			"-0.025": 0.0,
			"-0.024": 0.0,
			"-0.023": 0.0,
			"-0.022": 0.0,
			"-0.021": 0.0,
			"-0.02": 0.0,
			"-0.019": 0.0,
			"-0.018": 0.0,
			"-0.017": 0.0,
			"-0.016": 0.0,
			"-0.015": 0.0,
			"-0.014": 0.44871718738,
			"-0.013": 0.94497294153,
			"-0.012": 2.11156590551,
			"-0.011": 1.84531221613,
			"-0.01": 2.36494711133,
			"-0.009": 3.43263382053,
			"-0.008": 3.16801140551,
			"-0.007": 5.11146841636,
			"-0.006": 10.6955858911,
			"-0.005": 15.3582793836,
			"-0.004": 19.6567328067,
			"-0.003": 18.5699947425,
			"-0.002": 28.7594805806,
			"-0.001": 28.1933265166,
			"0.0": 27.3547376765,
			"0.001": 32.6872135612,
			"0.002": 35.9512609578,
			"0.003": 18.1336965878,
			"0.004": 19.5257337466,
			"0.005": 10.2739426822,
			"0.006": 5.82204539341,
			"0.007": 3.45891332715,
			"0.008": 3.956007006,
			"0.009": 4.72573829918,
			"0.01": 2.93019014934,
			"0.011": 3.12224374651,
			"0.012": 2.3981058952,
			"0.013": 1.65712746502,
			"0.014": 0.0432663008092,
			"0.015": 0.0,
			"0.016": 0.0,
			"0.017": 0.0,
			"0.018": 0.0,
			"0.019": 0.0,
			"0.02": 0.0,
			"0.021": 0.0,
			"0.022": 0.0,
			"0.023": 0.0,
			"0.024": 0.0,
			"0.025": 0.0
		}
	}
}
