{
	 "smiles": "CNC(=O)N(C)C", 
	 "Tm": 348.65, 
	 "num_atms": 17, 
	 "gaussian": { 
		 "optdone": 1, 
		 "sigma_profile": "yes", 
		 "theory": "DFT", 
		 "functional": "B3LYP", 
		 "basiset": "6-31G**", 
		 "properties": { 
			 "R2extent": 1010.68, 
			 "electric_dipole_moment_norm": 3.36532264575, 
			 "electric_quadrupole_moment_norm": 8.86506938552, 
			 "total_energy": -343.188786496, 
			 "HOMO_LUMO_gap": 0.27989, 
			 "cosmo_polarized_energy": -10.06, 
			 "cosmo_cavitation_energy": 19.42, 
			 "cosmo_dispersion_energy": -14.39, 
			 "cosmo_repulsion_energy": 1.22, 
			 "cosmo_total_nonelectrostatic_energy": 6.25, 
			 "SMD_solvation_energy": 3.83 
		},
		"coords": [
			{
				"x": -2.6032517551,
				"y": -1.778468943,
				"z": 0.2622804154,
				"element": "C" 
			},
			{
				"x": -1.9737987335,
				"y": -0.8926406463,
				"z": -0.7162142519,
				"element": "N" 
			},
			{
				"x": -0.5967709013,
				"y": -0.7454597408,
				"z": -0.8630366654,
				"element": "C" 
			},
			{
				"x": -0.0813416998,
				"y": -0.6654761111,
				"z": -1.9743755028,
				"element": "O" 
			},
			{
				"x": 0.1418966278,
				"y": -0.7078206902,
				"z": 0.3143537747,
				"element": "N" 
			},
			{
				"x": 1.5906117763,
				"y": -0.6914057832,
				"z": 0.1634530708,
				"element": "C" 
			},
			{
				"x": -0.3473595422,
				"y": -0.0364815191,
				"z": 1.5136110472,
				"element": "C" 
			},
			{
				"x": -3.2238983659,
				"y": -1.2318221876,
				"z": 0.983499499,
				"element": "H" 
			},
			{
				"x": -1.8418285673,
				"y": -2.3331329196,
				"z": 0.8162206762,
				"element": "H" 
			},
			{
				"x": -3.24383069,
				"y": -2.5055110297,
				"z": -0.2472483085,
				"element": "H" 
			},
			{
				"x": -2.3962633196,
				"y": -0.9009899648,
				"z": -1.6343087308,
				"element": "H" 
			},
			{
				"x": 1.8683401834,
				"y": -1.2710293561,
				"z": -0.7155218886,
				"element": "H" 
			},
			{
				"x": 2.0501319039,
				"y": -1.1302764132,
				"z": 1.0555927667,
				"element": "H" 
			},
			{
				"x": 1.9798033602,
				"y": 0.3296873267,
				"z": 0.0376082912,
				"element": "H" 
			},
			{
				"x": 0.1574828123,
				"y": 0.9320550065,
				"z": 1.6437898265,
				"element": "H" 
			},
			{
				"x": -0.1569669985,
				"y": -0.6392633577,
				"z": 2.4101112745,
				"element": "H" 
			},
			{
				"x": -1.4162560908,
				"y": 0.1554363293,
				"z": 1.4393847061,
				"element": "H" 
			}
		],
		 "valence_orbital": [ 
			{
				"type": "occ",
				"energy": -0.37149,
				"method": "rhf"
			},
			{
				"type": "occ",
				"energy": -0.36806,
				"method": "rhf"
			},
			{
				"type": "occ",
				"energy": -0.26054,
				"method": "rhf"
			},
			{
				"type": "occ",
				"energy": -0.23797,
				"method": "rhf"
			},
			{
				"type": "occ",
				"energy": -0.2268,
				"method": "rhf"
			},
			{
				"type": "unocc",
				"energy": 0.05309,
				"method": "rhf"
			},
			{
				"type": "unocc",
				"energy": 0.08098,
				"method": "rhf"
			},
			{
				"type": "unocc",
				"energy": 0.10295,
				"method": "rhf"
			},
			{
				"type": "unocc",
				"energy": 0.12063,
				"method": "rhf"
			},
			{
				"type": "unocc",
				"energy": 0.13543,
				"method": "rhf"
			}
		],
		"cosmo_sigma_profile": { 
			"-0.025": 0.0,
			"-0.024": 0.0,
			"-0.023": 0.0,
			"-0.022": 0.0,
			"-0.021": 0.0,
			"-0.02": 0.0,
			"-0.019": 0.0,
			"-0.018": 0.0,
			"-0.017": 0.0,
			"-0.016": 0.0,
			"-0.015": 0.0,
			"-0.014": 0.0,
			"-0.013": 0.135377997179,
			"-0.012": 1.14580923912,
			"-0.011": 0.823957530019,
			"-0.01": 1.09679530226,
			"-0.009": 0.957501579175,
			"-0.008": 1.05375058456,
			"-0.007": 1.0380191664,
			"-0.006": 1.50101683399,
			"-0.005": 6.71603505136,
			"-0.004": 17.9929288677,
			"-0.003": 22.031198627,
			"-0.002": 24.9554479538,
			"-0.001": 22.2142149606,
			"0.0": 8.39354636331,
			"0.001": 3.88358373392,
			"0.002": 4.91838702154,
			"0.003": 3.78193784465,
			"0.004": 3.23999940707,
			"0.005": 2.71733389406,
			"0.006": 2.07997089555,
			"0.007": 1.73930078531,
			"0.008": 1.96405005178,
			"0.009": 2.10205435369,
			"0.01": 1.13797665586,
			"0.011": 0.790056104946,
			"0.012": 1.91692892507,
			"0.013": 2.04191773444,
			"0.014": 3.81693062214,
			"0.015": 4.92088641795,
			"0.016": 0.276160978589,
			"0.017": 0.0,
			"0.018": 0.0,
			"0.019": 0.0,
			"0.02": 0.0,
			"0.021": 0.0,
			"0.022": 0.0,
			"0.023": 0.0,
			"0.024": 0.0,
			"0.025": 0.0
		}
	}
}
