{
	 "smiles": "O=C1N2CCOC2=NC2=C1C=CC=C2", 
	 "Tm": 435.15, 
	 "num_atms": 22, 
	 "gaussian": { 
		 "optdone": 1, 
		 "sigma_profile": "yes", 
		 "theory": "DFT", 
		 "functional": "B3LYP", 
		 "basiset": "6-31G**", 
		 "properties": { 
			 "R2extent": 2612.5521, 
			 "electric_dipole_moment_norm": 2.12492320332, 
			 "electric_quadrupole_moment_norm": 24.1084742974, 
			 "total_energy": -645.858600102, 
			 "HOMO_LUMO_gap": 0.18262, 
			 "cosmo_polarized_energy": -14.03, 
			 "cosmo_cavitation_energy": 25.78, 
			 "cosmo_dispersion_energy": -19.8, 
			 "cosmo_repulsion_energy": 1.52, 
			 "cosmo_total_nonelectrostatic_energy": 7.5, 
			 "SMD_solvation_energy": 3.29 
		},
		"coords": [
			{
				"x": -2.7681704617,
				"y": 0.0311887494,
				"z": 0.3148721626,
				"element": "O" 
			},
			{
				"x": -1.5634049519,
				"y": 0.0565285716,
				"z": 0.0998340072,
				"element": "C" 
			},
			{
				"x": -0.8045087354,
				"y": -1.1202248298,
				"z": 0.150794966,
				"element": "N" 
			},
			{
				"x": -1.3158294979,
				"y": -2.4291214401,
				"z": 0.5364845169,
				"element": "C" 
			},
			{
				"x": -0.0928327937,
				"y": -3.3094622247,
				"z": 0.2087783795,
				"element": "C" 
			},
			{
				"x": 1.0290476683,
				"y": -2.4001994927,
				"z": 0.1186878179,
				"element": "O" 
			},
			{
				"x": 0.5601716512,
				"y": -1.1431786054,
				"z": -0.0344031075,
				"element": "C" 
			},
			{
				"x": 1.3170136991,
				"y": -0.1443477842,
				"z": -0.3076208399,
				"element": "N" 
			},
			{
				"x": 0.6617639571,
				"y": 1.0806346822,
				"z": -0.4063502289,
				"element": "C" 
			},
			{
				"x": -0.7388043272,
				"y": 1.2287219022,
				"z": -0.2241932873,
				"element": "C" 
			},
			{
				"x": -1.342991886,
				"y": 2.4912221957,
				"z": -0.3386351229,
				"element": "C" 
			},
			{
				"x": -0.5747594721,
				"y": 3.606377758,
				"z": -0.6338721074,
				"element": "C" 
			},
			{
				"x": 0.8127746677,
				"y": 3.4668112826,
				"z": -0.8155689819,
				"element": "C" 
			},
			{
				"x": 1.4240061408,
				"y": 2.2269930454,
				"z": -0.704018487,
				"element": "C" 
			},
			{
				"x": -2.2049485035,
				"y": -2.6867383564,
				"z": -0.0421894661,
				"element": "H" 
			},
			{
				"x": -1.5805316718,
				"y": -2.4378600383,
				"z": 1.5992846248,
				"element": "H" 
			},
			{
				"x": 0.133256366,
				"y": -4.0454010718,
				"z": 0.9814696267,
				"element": "H" 
			},
			{
				"x": -0.2005237896,
				"y": -3.8173072371,
				"z": -0.7553420882,
				"element": "H" 
			},
			{
				"x": -2.4157210117,
				"y": 2.5596477817,
				"z": -0.1893537255,
				"element": "H" 
			},
			{
				"x": -1.0400078271,
				"y": 4.5830305145,
				"z": -0.7241584661,
				"element": "H" 
			},
			{
				"x": 1.4152107448,
				"y": 4.3411323714,
				"z": -1.0460145557,
				"element": "H" 
			},
			{
				"x": 2.4932900345,
				"y": 2.1057522258,
				"z": -0.841385637,
				"element": "H" 
			}
		],
		 "valence_orbital": [ 
			{
				"type": "occ",
				"energy": -0.2842,
				"method": "rhf"
			},
			{
				"type": "occ",
				"energy": -0.28109,
				"method": "rhf"
			},
			{
				"type": "occ",
				"energy": -0.26662,
				"method": "rhf"
			},
			{
				"type": "occ",
				"energy": -0.2571,
				"method": "rhf"
			},
			{
				"type": "occ",
				"energy": -0.22256,
				"method": "rhf"
			},
			{
				"type": "unocc",
				"energy": -0.03994,
				"method": "rhf"
			},
			{
				"type": "unocc",
				"energy": -0.0193,
				"method": "rhf"
			},
			{
				"type": "unocc",
				"energy": 0.03374,
				"method": "rhf"
			},
			{
				"type": "unocc",
				"energy": 0.0689,
				"method": "rhf"
			},
			{
				"type": "unocc",
				"energy": 0.07532,
				"method": "rhf"
			}
		],
		"cosmo_sigma_profile": { 
			"-0.025": 0.0,
			"-0.024": 0.0,
			"-0.023": 0.0,
			"-0.022": 0.0,
			"-0.021": 0.0,
			"-0.02": 0.0,
			"-0.019": 0.0,
			"-0.018": 0.0,
			"-0.017": 0.0,
			"-0.016": 0.0,
			"-0.015": 0.0,
			"-0.014": 0.0,
			"-0.013": 0.0,
			"-0.012": 0.0,
			"-0.011": 0.0,
			"-0.01": 0.0,
			"-0.009": 0.111070009553,
			"-0.008": 8.59729943478,
			"-0.007": 18.1773241304,
			"-0.006": 17.7157897485,
			"-0.005": 17.3419253362,
			"-0.004": 14.3703178041,
			"-0.003": 10.2322978894,
			"-0.002": 9.82649356303,
			"-0.001": 8.33983100245,
			"0.0": 9.91372807334,
			"0.001": 11.0286092531,
			"0.002": 13.0647855764,
			"0.003": 15.260220103,
			"0.004": 13.2303292289,
			"0.005": 4.11388158239,
			"0.006": 4.2855864776,
			"0.007": 4.28322292958,
			"0.008": 3.6450754068,
			"0.009": 4.64396445888,
			"0.01": 3.74269125862,
			"0.011": 3.41598106847,
			"0.012": 5.26411229797,
			"0.013": 4.69795459261,
			"0.014": 0.933818772,
			"0.015": 0.685399994322,
			"0.016": 0.0616049197658,
			"0.017": 0.0,
			"0.018": 0.0,
			"0.019": 0.0,
			"0.02": 0.0,
			"0.021": 0.0,
			"0.022": 0.0,
			"0.023": 0.0,
			"0.024": 0.0,
			"0.025": 0.0
		}
	}
}
