{
	 "smiles": "COC(=O)C1=CC=C(N)C=C1", 
	 "Tm": 385.15, 
	 "num_atms": 20, 
	 "gaussian": { 
		 "optdone": 1, 
		 "sigma_profile": "yes", 
		 "theory": "DFT", 
		 "functional": "B3LYP", 
		 "basiset": "6-31G**", 
		 "properties": { 
			 "R2extent": 2822.0875, 
			 "electric_dipole_moment_norm": 3.5801307532, 
			 "electric_quadrupole_moment_norm": 18.5758854085, 
			 "total_energy": -515.492366596, 
			 "HOMO_LUMO_gap": 0.18461, 
			 "cosmo_polarized_energy": -12.95, 
			 "cosmo_cavitation_energy": 24.35, 
			 "cosmo_dispersion_energy": -18.1, 
			 "cosmo_repulsion_energy": 1.46, 
			 "cosmo_total_nonelectrostatic_energy": 7.72, 
			 "SMD_solvation_energy": 5.77 
		},
		"coords": [
			{
				"x": -0.6352060772,
				"y": -3.0158876512,
				"z": -0.0076282436,
				"element": "C" 
			},
			{
				"x": -1.0557926507,
				"y": -1.7417163945,
				"z": 0.4959783828,
				"element": "O" 
			},
			{
				"x": -0.1296087316,
				"y": -0.7520185089,
				"z": 0.4014140299,
				"element": "C" 
			},
			{
				"x": 0.9766009884,
				"y": -0.9340070187,
				"z": -0.0750111778,
				"element": "O" 
			},
			{
				"x": -0.620178435,
				"y": 0.5378159102,
				"z": 0.93523445,
				"element": "C" 
			},
			{
				"x": -1.9035472096,
				"y": 0.7018364135,
				"z": 1.47995383,
				"element": "C" 
			},
			{
				"x": -2.3128762148,
				"y": 1.9336602432,
				"z": 1.9705392688,
				"element": "C" 
			},
			{
				"x": -1.4475543174,
				"y": 3.0449061691,
				"z": 1.9303885437,
				"element": "C" 
			},
			{
				"x": -1.8721238357,
				"y": 4.2880224467,
				"z": 2.3732102096,
				"element": "N" 
			},
			{
				"x": -0.1597264912,
				"y": 2.8787582965,
				"z": 1.3822202828,
				"element": "C" 
			},
			{
				"x": 0.2416714425,
				"y": 1.6449973623,
				"z": 0.8946199975,
				"element": "C" 
			},
			{
				"x": 0.2397158729,
				"y": -3.3793574174,
				"z": 0.5379683098,
				"element": "H" 
			},
			{
				"x": -1.482387461,
				"y": -3.6863802944,
				"z": 0.139946869,
				"element": "H" 
			},
			{
				"x": -0.3807767671,
				"y": -2.9489916568,
				"z": -1.068755989,
				"element": "H" 
			},
			{
				"x": -2.57807272,
				"y": -0.146068995,
				"z": 1.5183871411,
				"element": "H" 
			},
			{
				"x": -3.3104290446,
				"y": 2.0488060087,
				"z": 2.3872127746,
				"element": "H" 
			},
			{
				"x": -1.149499004,
				"y": 4.9523605434,
				"z": 2.6095411477,
				"element": "H" 
			},
			{
				"x": -2.6467747395,
				"y": 4.2952805046,
				"z": 3.0206610014,
				"element": "H" 
			},
			{
				"x": 0.5173228578,
				"y": 3.7283835633,
				"z": 1.3413101861,
				"element": "H" 
			},
			{
				"x": 1.2328425378,
				"y": 1.5116004756,
				"z": 0.4739089853,
				"element": "H" 
			}
		],
		 "valence_orbital": [ 
			{
				"type": "occ",
				"energy": -0.31045,
				"method": "rhf"
			},
			{
				"type": "occ",
				"energy": -0.28895,
				"method": "rhf"
			},
			{
				"type": "occ",
				"energy": -0.26016,
				"method": "rhf"
			},
			{
				"type": "occ",
				"energy": -0.25275,
				"method": "rhf"
			},
			{
				"type": "occ",
				"energy": -0.21022,
				"method": "rhf"
			},
			{
				"type": "unocc",
				"energy": -0.02561,
				"method": "rhf"
			},
			{
				"type": "unocc",
				"energy": -0.00056,
				"method": "rhf"
			},
			{
				"type": "unocc",
				"energy": 0.06711,
				"method": "rhf"
			},
			{
				"type": "unocc",
				"energy": 0.08161,
				"method": "rhf"
			},
			{
				"type": "unocc",
				"energy": 0.10649,
				"method": "rhf"
			}
		],
		"cosmo_sigma_profile": { 
			"-0.025": 0.0,
			"-0.024": 0.0,
			"-0.023": 0.0,
			"-0.022": 0.0,
			"-0.021": 0.0,
			"-0.02": 0.0,
			"-0.019": 0.0,
			"-0.018": 0.0,
			"-0.017": 0.0,
			"-0.016": 0.0,
			"-0.015": 0.0,
			"-0.014": 0.0778768784135,
			"-0.013": 2.17110433236,
			"-0.012": 3.06894252599,
			"-0.011": 2.51129380453,
			"-0.01": 3.49419150772,
			"-0.009": 3.00710919403,
			"-0.008": 2.72949998963,
			"-0.007": 3.88321643787,
			"-0.006": 7.40364355202,
			"-0.005": 13.8544929295,
			"-0.004": 13.6692441983,
			"-0.003": 16.1088813748,
			"-0.002": 10.1469369713,
			"-0.001": 11.3270164187,
			"0.0": 8.26808368832,
			"0.001": 10.9300242507,
			"0.002": 11.796204377,
			"0.003": 13.1699453032,
			"0.004": 14.3740630302,
			"0.005": 15.518808444,
			"0.006": 5.4284114912,
			"0.007": 3.58107210332,
			"0.008": 1.73958831216,
			"0.009": 1.89805404808,
			"0.01": 2.72017527935,
			"0.011": 2.81750562031,
			"0.012": 4.22848991935,
			"0.013": 3.5076305165,
			"0.014": 0.0,
			"0.015": 0.0,
			"0.016": 0.0,
			"0.017": 0.0,
			"0.018": 0.0,
			"0.019": 0.0,
			"0.02": 0.0,
			"0.021": 0.0,
			"0.022": 0.0,
			"0.023": 0.0,
			"0.024": 0.0,
			"0.025": 0.0
		}
	}
}
