{
	 "smiles": "CC(C)(C)OC(=O)NC(COS(C)(=O)=O)COS(C)(=O)=O", 
	 "Tm": 370.15, 
	 "num_atms": 42, 
	 "gaussian": { 
		 "optdone": 1, 
		 "sigma_profile": "yes", 
		 "theory": "DFT", 
		 "functional": "B3LYP", 
		 "basiset": "6-31G**", 
		 "properties": { 
			 "R2extent": 8953.5182, 
			 "electric_dipole_moment_norm": 3.45101609675, 
			 "electric_quadrupole_moment_norm": 22.4873672572, 
			 "total_energy": -1846.54257893, 
			 "HOMO_LUMO_gap": 0.29125, 
			 "cosmo_polarized_energy": -24.07, 
			 "cosmo_cavitation_energy": 46.08, 
			 "cosmo_dispersion_energy": -30.61, 
			 "cosmo_repulsion_energy": 2.25, 
			 "cosmo_total_nonelectrostatic_energy": 17.72, 
			 "SMD_solvation_energy": 7.19 
		},
		"coords": [
			{
				"x": 2.4765046662,
				"y": -0.8799222199,
				"z": -3.633993986,
				"element": "C" 
			},
			{
				"x": 1.5378132472,
				"y": 0.1421606838,
				"z": -2.9875144593,
				"element": "C" 
			},
			{
				"x": 2.2437360579,
				"y": 1.4605580835,
				"z": -2.6559743907,
				"element": "C" 
			},
			{
				"x": 0.3064723194,
				"y": 0.3883886579,
				"z": -3.8620179222,
				"element": "C" 
			},
			{
				"x": 0.9443930567,
				"y": -0.4415122289,
				"z": -1.7633071172,
				"element": "O" 
			},
			{
				"x": 1.708180425,
				"y": -0.7671618614,
				"z": -0.7034812487,
				"element": "C" 
			},
			{
				"x": 2.9221543692,
				"y": -0.640903635,
				"z": -0.6132416334,
				"element": "O" 
			},
			{
				"x": 0.9420126946,
				"y": -1.2956008073,
				"z": 0.3105424689,
				"element": "N" 
			},
			{
				"x": -0.4856430535,
				"y": -1.0549701557,
				"z": 0.470275146,
				"element": "C" 
			},
			{
				"x": -0.7846054085,
				"y": 0.4111221718,
				"z": 0.8441318081,
				"element": "C" 
			},
			{
				"x": 0.1049928851,
				"y": 0.8204266515,
				"z": 1.915471257,
				"element": "O" 
			},
			{
				"x": 0.8886821144,
				"y": 2.2721292548,
				"z": 1.81895099,
				"element": "S" 
			},
			{
				"x": 2.5902807747,
				"y": 1.7083619451,
				"z": 1.9170096312,
				"element": "C" 
			},
			{
				"x": 0.5598155071,
				"y": 2.9937788925,
				"z": 3.0424162058,
				"element": "O" 
			},
			{
				"x": 0.6410716384,
				"y": 2.8618393842,
				"z": 0.503077977,
				"element": "O" 
			},
			{
				"x": -1.0825891418,
				"y": -2.0743411403,
				"z": 1.4376024953,
				"element": "C" 
			},
			{
				"x": -0.5180177865,
				"y": -1.9048291644,
				"z": 2.7624678816,
				"element": "O" 
			},
			{
				"x": -1.5709330809,
				"y": -1.6033683805,
				"z": 4.0065051282,
				"element": "S" 
			},
			{
				"x": -0.5326895063,
				"y": -0.4846154167,
				"z": 4.9428601214,
				"element": "C" 
			},
			{
				"x": -1.7640196925,
				"y": -2.8375846891,
				"z": 4.758930226,
				"element": "O" 
			},
			{
				"x": -2.7261407629,
				"y": -0.8851233033,
				"z": 3.4636483561,
				"element": "O" 
			},
			{
				"x": 1.945005705,
				"y": -1.8155896449,
				"z": -3.8340793637,
				"element": "H" 
			},
			{
				"x": 2.84361526,
				"y": -0.4870988927,
				"z": -4.587559698,
				"element": "H" 
			},
			{
				"x": 3.3306649957,
				"y": -1.0871400438,
				"z": -2.9884043089,
				"element": "H" 
			},
			{
				"x": 1.5846650173,
				"y": 2.1157818736,
				"z": -2.0784855207,
				"element": "H" 
			},
			{
				"x": 2.5067469064,
				"y": 1.972811699,
				"z": -3.5870782176,
				"element": "H" 
			},
			{
				"x": 3.1552253936,
				"y": 1.2860231724,
				"z": -2.0841554069,
				"element": "H" 
			},
			{
				"x": -0.2350068006,
				"y": -0.5451746844,
				"z": -4.040712071,
				"element": "H" 
			},
			{
				"x": 0.611908921,
				"y": 0.8007268539,
				"z": -4.8279281016,
				"element": "H" 
			},
			{
				"x": -0.3735113756,
				"y": 1.0997572954,
				"z": -3.3842099372,
				"element": "H" 
			},
			{
				"x": 1.4637989342,
				"y": -1.408578798,
				"z": 1.1692363678,
				"element": "H" 
			},
			{
				"x": -0.9659534096,
				"y": -1.23518387,
				"z": -0.4975837954,
				"element": "H" 
			},
			{
				"x": -0.6191505118,
				"y": 1.0548028924,
				"z": -0.021034699,
				"element": "H" 
			},
			{
				"x": -1.8117458162,
				"y": 0.5282817897,
				"z": 1.2003462263,
				"element": "H" 
			},
			{
				"x": 3.2118936262,
				"y": 2.6056032623,
				"z": 1.9133580252,
				"element": "H" 
			},
			{
				"x": 2.8213858935,
				"y": 1.0717340895,
				"z": 1.0605849039,
				"element": "H" 
			},
			{
				"x": 2.7164404283,
				"y": 1.1703879301,
				"z": 2.8570796779,
				"element": "H" 
			},
			{
				"x": -2.1670618264,
				"y": -1.9511818208,
				"z": 1.4775295003,
				"element": "H" 
			},
			{
				"x": -0.8392387346,
				"y": -3.089907403,
				"z": 1.1147763108,
				"element": "H" 
			},
			{
				"x": -0.3601302326,
				"y": 0.4114631845,
				"z": 4.3477985386,
				"element": "H" 
			},
			{
				"x": -1.0789439485,
				"y": -0.2536348531,
				"z": 5.8588294113,
				"element": "H" 
			},
			{
				"x": 0.3993202519,
				"y": -0.9995167546,
				"z": 5.1777332227,
				"element": "H" 
			}
		],
		 "valence_orbital": [ 
			{
				"type": "occ",
				"energy": -0.31215,
				"method": "rhf"
			},
			{
				"type": "occ",
				"energy": -0.30414,
				"method": "rhf"
			},
			{
				"type": "occ",
				"energy": -0.29925,
				"method": "rhf"
			},
			{
				"type": "occ",
				"energy": -0.28233,
				"method": "rhf"
			},
			{
				"type": "occ",
				"energy": -0.27093,
				"method": "rhf"
			},
			{
				"type": "unocc",
				"energy": 0.02032,
				"method": "rhf"
			},
			{
				"type": "unocc",
				"energy": 0.02593,
				"method": "rhf"
			},
			{
				"type": "unocc",
				"energy": 0.03038,
				"method": "rhf"
			},
			{
				"type": "unocc",
				"energy": 0.04847,
				"method": "rhf"
			},
			{
				"type": "unocc",
				"energy": 0.06022,
				"method": "rhf"
			}
		],
		"cosmo_sigma_profile": { 
			"-0.025": 0.0,
			"-0.024": 0.0,
			"-0.023": 0.0,
			"-0.022": 0.0,
			"-0.021": 0.0,
			"-0.02": 0.0,
			"-0.019": 0.0,
			"-0.018": 0.0,
			"-0.017": 0.0,
			"-0.016": 0.0,
			"-0.015": 0.0,
			"-0.014": 0.0,
			"-0.013": 0.0161626794862,
			"-0.012": 0.339867967503,
			"-0.011": 0.728113834395,
			"-0.01": 3.87172863444,
			"-0.009": 8.97335711671,
			"-0.008": 12.0129448831,
			"-0.007": 15.8391504262,
			"-0.006": 17.8338260834,
			"-0.005": 20.3522240346,
			"-0.004": 28.0562077884,
			"-0.003": 27.6425310099,
			"-0.002": 23.0082368793,
			"-0.001": 27.2147587521,
			"0.0": 35.5017079898,
			"0.001": 25.003192665,
			"0.002": 12.6863244919,
			"0.003": 12.1194624166,
			"0.004": 10.4561634063,
			"0.005": 9.10756995677,
			"0.006": 8.20069132341,
			"0.007": 8.14486682201,
			"0.008": 8.2705758924,
			"0.009": 10.6580991909,
			"0.01": 20.4715603397,
			"0.011": 10.8343385444,
			"0.012": 1.96959115352,
			"0.013": 2.18968707593,
			"0.014": 0.144150865935,
			"0.015": 0.0,
			"0.016": 0.0,
			"0.017": 0.0,
			"0.018": 0.0,
			"0.019": 0.0,
			"0.02": 0.0,
			"0.021": 0.0,
			"0.022": 0.0,
			"0.023": 0.0,
			"0.024": 0.0,
			"0.025": 0.0
		}
	}
}
