{
	 "smiles": "CC1=C(SC(=N1)C1=CC=CS1)C(O)=O", 
	 "Tm": 290.15, 
	 "num_atms": 21, 
	 "gaussian": { 
		 "optdone": 1, 
		 "sigma_profile": "yes", 
		 "theory": "DFT", 
		 "functional": "B3LYP", 
		 "basiset": "6-31G**", 
		 "properties": { 
			 "R2extent": 4932.0919, 
			 "electric_dipole_moment_norm": 5.46657233191, 
			 "electric_quadrupole_moment_norm": 16.2840375976, 
			 "total_energy": -1348.7456951, 
			 "HOMO_LUMO_gap": 0.1426, 
			 "cosmo_polarized_energy": -14.82, 
			 "cosmo_cavitation_energy": 29.1, 
			 "cosmo_dispersion_energy": -22.47, 
			 "cosmo_repulsion_energy": 1.67, 
			 "cosmo_total_nonelectrostatic_energy": 8.29, 
			 "SMD_solvation_energy": 4.5 
		},
		"coords": [
			{
				"x": 2.6580980392,
				"y": -2.0943838226,
				"z": 2.7176039485,
				"element": "C" 
			},
			{
				"x": 1.7209481481,
				"y": -1.0329272823,
				"z": 2.2232681515,
				"element": "C" 
			},
			{
				"x": 1.7923644019,
				"y": 0.3208585513,
				"z": 2.5137852104,
				"element": "C" 
			},
			{
				"x": 0.4813525079,
				"y": 1.1642456764,
				"z": 1.7089402598,
				"element": "S" 
			},
			{
				"x": -0.0579691632,
				"y": -0.3741052856,
				"z": 1.0458594608,
				"element": "C" 
			},
			{
				"x": 0.6847272927,
				"y": -1.3939012362,
				"z": 1.4062596385,
				"element": "N" 
			},
			{
				"x": -1.2131845181,
				"y": -0.4834841944,
				"z": 0.1866339878,
				"element": "C" 
			},
			{
				"x": -2.0712208697,
				"y": 0.4993068722,
				"z": -0.2645461379,
				"element": "C" 
			},
			{
				"x": -3.1011206936,
				"y": -0.0042683121,
				"z": -1.1020182268,
				"element": "C" 
			},
			{
				"x": -3.016379234,
				"y": -1.3620416709,
				"z": -1.2790271857,
				"element": "C" 
			},
			{
				"x": -1.6798299703,
				"y": -2.0537742812,
				"z": -0.428540401,
				"element": "S" 
			},
			{
				"x": 2.8065120202,
				"y": 0.9681918646,
				"z": 3.365422357,
				"element": "C" 
			},
			{
				"x": 2.724146319,
				"y": 2.3154896888,
				"z": 3.5426536064,
				"element": "O" 
			},
			{
				"x": 3.6993364284,
				"y": 0.3509994651,
				"z": 3.9045502745,
				"element": "O" 
			},
			{
				"x": 2.6689660638,
				"y": -2.1284994089,
				"z": 3.8103477562,
				"element": "H" 
			},
			{
				"x": 2.3449226435,
				"y": -3.0606622453,
				"z": 2.3197089916,
				"element": "H" 
			},
			{
				"x": 3.6859714609,
				"y": -1.8820747174,
				"z": 2.4113804815,
				"element": "H" 
			},
			{
				"x": -1.9651960203,
				"y": 1.546643642,
				"z": -0.0034392627,
				"element": "H" 
			},
			{
				"x": -3.869601037,
				"y": 0.6127240447,
				"z": -1.5524530913,
				"element": "H" 
			},
			{
				"x": -3.6671235183,
				"y": -1.9977259293,
				"z": -1.863984059,
				"element": "H" 
			},
			{
				"x": 1.9752796989,
				"y": 2.701188581,
				"z": 3.0667942396,
				"element": "H" 
			}
		],
		 "valence_orbital": [ 
			{
				"type": "occ",
				"energy": -0.2914,
				"method": "rhf"
			},
			{
				"type": "occ",
				"energy": -0.2855,
				"method": "rhf"
			},
			{
				"type": "occ",
				"energy": -0.27694,
				"method": "rhf"
			},
			{
				"type": "occ",
				"energy": -0.27013,
				"method": "rhf"
			},
			{
				"type": "occ",
				"energy": -0.22858,
				"method": "rhf"
			},
			{
				"type": "unocc",
				"energy": -0.08598,
				"method": "rhf"
			},
			{
				"type": "unocc",
				"energy": -0.02458,
				"method": "rhf"
			},
			{
				"type": "unocc",
				"energy": -0.02039,
				"method": "rhf"
			},
			{
				"type": "unocc",
				"energy": 0.01715,
				"method": "rhf"
			},
			{
				"type": "unocc",
				"energy": 0.02274,
				"method": "rhf"
			}
		],
		"cosmo_sigma_profile": { 
			"-0.025": 0.0,
			"-0.024": 0.0,
			"-0.023": 0.0,
			"-0.022": 0.0,
			"-0.021": 0.0,
			"-0.02": 0.0,
			"-0.019": 0.0,
			"-0.018": 0.426307254379,
			"-0.017": 1.3394799838,
			"-0.016": 0.78590027863,
			"-0.015": 0.634794612705,
			"-0.014": 0.989957793692,
			"-0.013": 1.01000041118,
			"-0.012": 1.09451299125,
			"-0.011": 0.683089340743,
			"-0.01": 0.918487736011,
			"-0.009": 3.62786409768,
			"-0.008": 6.32424230541,
			"-0.007": 7.56720509942,
			"-0.006": 7.54071674821,
			"-0.005": 10.09563336,
			"-0.004": 11.9187557511,
			"-0.003": 13.6669936367,
			"-0.002": 16.1721030969,
			"-0.001": 25.3249753546,
			"0.0": 23.8947702896,
			"0.001": 16.6088952178,
			"0.002": 21.5454193462,
			"0.003": 18.7858466664,
			"0.004": 9.62027167392,
			"0.005": 4.49529623302,
			"0.006": 3.81750002904,
			"0.007": 4.0268475974,
			"0.008": 4.51668494327,
			"0.009": 4.41196547042,
			"0.01": 5.46708171572,
			"0.011": 5.30782756248,
			"0.012": 3.87565051381,
			"0.013": 1.59141696287,
			"0.014": 0.0304561945527,
			"0.015": 0.0,
			"0.016": 0.0,
			"0.017": 0.0,
			"0.018": 0.0,
			"0.019": 0.0,
			"0.02": 0.0,
			"0.021": 0.0,
			"0.022": 0.0,
			"0.023": 0.0,
			"0.024": 0.0,
			"0.025": 0.0
		}
	}
}
