{
	 "smiles": "COC1=CC=C(C=C1)C1(CCC1)C(O)=O", 
	 "Tm": 369.15, 
	 "num_atms": 29, 
	 "gaussian": { 
		 "optdone": 1, 
		 "sigma_profile": "yes", 
		 "theory": "DFT", 
		 "functional": "B3LYP", 
		 "basiset": "6-31G**", 
		 "properties": { 
			 "R2extent": 4047.5045, 
			 "electric_dipole_moment_norm": 5.61132458338, 
			 "electric_quadrupole_moment_norm": 22.0422432205, 
			 "total_energy": -691.358885971, 
			 "HOMO_LUMO_gap": 0.20648, 
			 "cosmo_polarized_energy": -13.28, 
			 "cosmo_cavitation_energy": 31.32, 
			 "cosmo_dispersion_energy": -22.54, 
			 "cosmo_repulsion_energy": 1.76, 
			 "cosmo_total_nonelectrostatic_energy": 10.54, 
			 "SMD_solvation_energy": 6.97 
		},
		"coords": [
			{
				"x": 2.7599765551,
				"y": -0.6877852718,
				"z": -3.7118914569,
				"element": "C" 
			},
			{
				"x": 1.5558810055,
				"y": 0.031562816,
				"z": -3.4895642805,
				"element": "O" 
			},
			{
				"x": 1.150156539,
				"y": 0.2308149144,
				"z": -2.2053582156,
				"element": "C" 
			},
			{
				"x": 1.8332471888,
				"y": -0.2187109482,
				"z": -1.0707331104,
				"element": "C" 
			},
			{
				"x": 1.3105484965,
				"y": 0.0423105791,
				"z": 0.2006566358,
				"element": "C" 
			},
			{
				"x": 0.1105038886,
				"y": 0.742870811,
				"z": 0.3820397916,
				"element": "C" 
			},
			{
				"x": -0.5475221108,
				"y": 1.2004126814,
				"z": -0.7775609234,
				"element": "C" 
			},
			{
				"x": -0.045462381,
				"y": 0.9498889198,
				"z": -2.046108095,
				"element": "C" 
			},
			{
				"x": -0.428420943,
				"y": 1.0780166473,
				"z": 1.7676098014,
				"element": "C" 
			},
			{
				"x": -1.9732937461,
				"y": 0.8732780191,
				"z": 1.9385815149,
				"element": "C" 
			},
			{
				"x": -1.7113893168,
				"y": -0.4996592301,
				"z": 2.5993883029,
				"element": "C" 
			},
			{
				"x": -0.2513947289,
				"y": -0.0568078577,
				"z": 2.8480006729,
				"element": "C" 
			},
			{
				"x": 0.0603112061,
				"y": 2.4463938387,
				"z": 2.2877808316,
				"element": "C" 
			},
			{
				"x": 1.1102923886,
				"y": 3.0121003347,
				"z": 1.6514550668,
				"element": "O" 
			},
			{
				"x": -0.4339045355,
				"y": 2.9885748865,
				"z": 3.2489806125,
				"element": "O" 
			},
			{
				"x": 2.889430353,
				"y": -0.7301727149,
				"z": -4.7941382067,
				"element": "H" 
			},
			{
				"x": 3.62342676,
				"y": -0.1787647615,
				"z": -3.2649208453,
				"element": "H" 
			},
			{
				"x": 2.6996111713,
				"y": -1.709176332,
				"z": -3.3150698778,
				"element": "H" 
			},
			{
				"x": 2.7612633089,
				"y": -0.7710585387,
				"z": -1.1579893452,
				"element": "H" 
			},
			{
				"x": 1.8611837937,
				"y": -0.3173768431,
				"z": 1.0648411579,
				"element": "H" 
			},
			{
				"x": -1.4696187922,
				"y": 1.7662321159,
				"z": -0.68323411,
				"element": "H" 
			},
			{
				"x": -0.560104314,
				"y": 1.3013194072,
				"z": -2.9344091403,
				"element": "H" 
			},
			{
				"x": -2.3585111728,
				"y": 1.6044089718,
				"z": 2.6516464158,
				"element": "H" 
			},
			{
				"x": -2.5804870257,
				"y": 0.8912004087,
				"z": 1.0305633166,
				"element": "H" 
			},
			{
				"x": -1.7701992525,
				"y": -1.3201805138,
				"z": 1.878181689,
				"element": "H" 
			},
			{
				"x": -2.311514887,
				"y": -0.7577844597,
				"z": 3.4757336704,
				"element": "H" 
			},
			{
				"x": 0.5401823927,
				"y": -0.7907444973,
				"z": 2.6804377383,
				"element": "H" 
			},
			{
				"x": -0.1256896003,
				"y": 0.3880030742,
				"z": 3.8376028841,
				"element": "H" 
			},
			{
				"x": 1.3552977589,
				"y": 2.4573335431,
				"z": 0.8923775045,
				"element": "H" 
			}
		],
		 "valence_orbital": [ 
			{
				"type": "occ",
				"energy": -0.3084,
				"method": "rhf"
			},
			{
				"type": "occ",
				"energy": -0.30003,
				"method": "rhf"
			},
			{
				"type": "occ",
				"energy": -0.26778,
				"method": "rhf"
			},
			{
				"type": "occ",
				"energy": -0.26488,
				"method": "rhf"
			},
			{
				"type": "occ",
				"energy": -0.22721,
				"method": "rhf"
			},
			{
				"type": "unocc",
				"energy": -0.02073,
				"method": "rhf"
			},
			{
				"type": "unocc",
				"energy": -0.00896,
				"method": "rhf"
			},
			{
				"type": "unocc",
				"energy": 0.01488,
				"method": "rhf"
			},
			{
				"type": "unocc",
				"energy": 0.07892,
				"method": "rhf"
			},
			{
				"type": "unocc",
				"energy": 0.09299,
				"method": "rhf"
			}
		],
		"cosmo_sigma_profile": { 
			"-0.025": 0.0,
			"-0.024": 0.0,
			"-0.023": 0.0,
			"-0.022": 0.0,
			"-0.021": 0.0,
			"-0.02": 0.0,
			"-0.019": 0.0,
			"-0.018": 0.0,
			"-0.017": 0.0,
			"-0.016": 0.0,
			"-0.015": 0.0,
			"-0.014": 0.0,
			"-0.013": 0.243267783249,
			"-0.012": 0.606513132323,
			"-0.011": 0.412972530312,
			"-0.01": 0.821918199851,
			"-0.009": 0.855825223717,
			"-0.008": 1.07158208424,
			"-0.007": 3.4223637122,
			"-0.006": 15.7952453357,
			"-0.005": 20.9047818331,
			"-0.004": 21.6190687203,
			"-0.003": 24.2366268836,
			"-0.002": 21.7965815931,
			"-0.001": 24.2845933721,
			"0.0": 20.5066554978,
			"0.001": 15.7981885411,
			"0.002": 10.768053608,
			"0.003": 12.1540823403,
			"0.004": 9.92890454074,
			"0.005": 7.4072354127,
			"0.006": 3.88388487876,
			"0.007": 4.18254962481,
			"0.008": 3.4799077406,
			"0.009": 4.64458795365,
			"0.01": 5.69170411516,
			"0.011": 4.52177393575,
			"0.012": 5.31556136184,
			"0.013": 2.74389134159,
			"0.014": 0.434439752613,
			"0.015": 0.0,
			"0.016": 0.0,
			"0.017": 0.0,
			"0.018": 0.0,
			"0.019": 0.0,
			"0.02": 0.0,
			"0.021": 0.0,
			"0.022": 0.0,
			"0.023": 0.0,
			"0.024": 0.0,
			"0.025": 0.0
		}
	}
}
