{
	 "smiles": "CN1CCC(CCCC2CCN(C)CC2)CC1", 
	 "Tm": 286.85, 
	 "num_atms": 47, 
	 "gaussian": { 
		 "optdone": 1, 
		 "sigma_profile": "yes", 
		 "theory": "DFT", 
		 "functional": "B3LYP", 
		 "basiset": "6-31G**", 
		 "properties": { 
			 "R2extent": 6737.8472, 
			 "electric_dipole_moment_norm": 0.314581324938, 
			 "electric_quadrupole_moment_norm": 10.4951955075, 
			 "total_energy": -699.16368678, 
			 "HOMO_LUMO_gap": 0.25174, 
			 "cosmo_polarized_energy": -4.9, 
			 "cosmo_cavitation_energy": 42.75, 
			 "cosmo_dispersion_energy": -29.26, 
			 "cosmo_repulsion_energy": 2.28, 
			 "cosmo_total_nonelectrostatic_energy": 15.77, 
			 "SMD_solvation_energy": 0.53 
		},
		"coords": [
			{
				"x": 0.3234737112,
				"y": -1.2773665061,
				"z": 3.4026228893,
				"element": "C" 
			},
			{
				"x": -0.9577550951,
				"y": -0.5960075677,
				"z": 3.2872456172,
				"element": "N" 
			},
			{
				"x": -0.8651114958,
				"y": 0.8682558922,
				"z": 3.1281375587,
				"element": "C" 
			},
			{
				"x": -1.2124596496,
				"y": 1.3729541435,
				"z": 1.7074513248,
				"element": "C" 
			},
			{
				"x": -0.7289272882,
				"y": 0.3975466493,
				"z": 0.6211181094,
				"element": "C" 
			},
			{
				"x": -0.9632314557,
				"y": 0.9673142476,
				"z": -0.791841302,
				"element": "C" 
			},
			{
				"x": -0.3938059504,
				"y": 0.1422930048,
				"z": -1.9701303834,
				"element": "C" 
			},
			{
				"x": 1.0061147948,
				"y": 0.557527106,
				"z": -2.4620280898,
				"element": "C" 
			},
			{
				"x": 2.1849517985,
				"y": 0.4023886467,
				"z": -1.4823648031,
				"element": "C" 
			},
			{
				"x": 3.449292676,
				"y": 1.0913200867,
				"z": -2.0557598213,
				"element": "C" 
			},
			{
				"x": 4.7242371427,
				"y": 0.5382624881,
				"z": -1.419495683,
				"element": "C" 
			},
			{
				"x": 4.9276598259,
				"y": -0.8653081656,
				"z": -1.7967741346,
				"element": "N" 
			},
			{
				"x": 5.8703263651,
				"y": -1.5230259634,
				"z": -0.9085929931,
				"element": "C" 
			},
			{
				"x": 3.667606997,
				"y": -1.6044139319,
				"z": -1.9952132742,
				"element": "C" 
			},
			{
				"x": 2.5080387647,
				"y": -1.0785452747,
				"z": -1.1350458805,
				"element": "C" 
			},
			{
				"x": -1.4117748303,
				"y": -0.982734374,
				"z": 0.8282765264,
				"element": "C" 
			},
			{
				"x": -1.855272167,
				"y": -1.1882796416,
				"z": 2.300206977,
				"element": "C" 
			},
			{
				"x": 0.1500723552,
				"y": -2.3396942412,
				"z": 3.6083277664,
				"element": "H" 
			},
			{
				"x": 0.9756018138,
				"y": -1.2125158741,
				"z": 2.5109872088,
				"element": "H" 
			},
			{
				"x": 0.8828303819,
				"y": -0.8668516534,
				"z": 4.2499289289,
				"element": "H" 
			},
			{
				"x": 0.1563206536,
				"y": 1.1754372766,
				"z": 3.3800756531,
				"element": "H" 
			},
			{
				"x": -1.5263959482,
				"y": 1.3597950166,
				"z": 3.857225679,
				"element": "H" 
			},
			{
				"x": -0.7715188877,
				"y": 2.3661767931,
				"z": 1.5588004156,
				"element": "H" 
			},
			{
				"x": -2.298695691,
				"y": 1.5061949832,
				"z": 1.6091885203,
				"element": "H" 
			},
			{
				"x": 0.351431018,
				"y": 0.264852192,
				"z": 0.7671159823,
				"element": "H" 
			},
			{
				"x": -0.5561953369,
				"y": 1.9874917477,
				"z": -0.8405894747,
				"element": "H" 
			},
			{
				"x": -2.0486175848,
				"y": 1.0758155224,
				"z": -0.9243502294,
				"element": "H" 
			},
			{
				"x": -1.0723482939,
				"y": 0.2429376566,
				"z": -2.8261626811,
				"element": "H" 
			},
			{
				"x": -0.4067701937,
				"y": -0.9252205758,
				"z": -1.7184555321,
				"element": "H" 
			},
			{
				"x": 1.2381248938,
				"y": -0.0141104368,
				"z": -3.3727425041,
				"element": "H" 
			},
			{
				"x": 0.9589048003,
				"y": 1.6098663297,
				"z": -2.7775210498,
				"element": "H" 
			},
			{
				"x": 1.9286657736,
				"y": 0.9221623286,
				"z": -0.5507883098,
				"element": "H" 
			},
			{
				"x": 3.5043648737,
				"y": 0.9360668134,
				"z": -3.1413383872,
				"element": "H" 
			},
			{
				"x": 3.3917111892,
				"y": 2.1742067042,
				"z": -1.8989316068,
				"element": "H" 
			},
			{
				"x": 5.6018377886,
				"y": 1.1187054605,
				"z": -1.7342733469,
				"element": "H" 
			},
			{
				"x": 4.6511923994,
				"y": 0.6599352508,
				"z": -0.3188498167,
				"element": "H" 
			},
			{
				"x": 6.0889207147,
				"y": -2.5331500611,
				"z": -1.2695760403,
				"element": "H" 
			},
			{
				"x": 6.8129611303,
				"y": -0.963630586,
				"z": -0.8995876507,
				"element": "H" 
			},
			{
				"x": 5.5244032159,
				"y": -1.5998028107,
				"z": 0.1420174825,
				"element": "H" 
			},
			{
				"x": 3.37926989,
				"y": -1.5501077267,
				"z": -3.0551410399,
				"element": "H" 
			},
			{
				"x": 3.8507245178,
				"y": -2.6631320811,
				"z": -1.7847878911,
				"element": "H" 
			},
			{
				"x": 1.6270264796,
				"y": -1.7155123692,
				"z": -1.2745965849,
				"element": "H" 
			},
			{
				"x": 2.7827205033,
				"y": -1.1655185817,
				"z": -0.0764676942,
				"element": "H" 
			},
			{
				"x": -2.2947387511,
				"y": -1.0676051625,
				"z": 0.180110615,
				"element": "H" 
			},
			{
				"x": -0.7311628687,
				"y": -1.7854042026,
				"z": 0.5233764657,
				"element": "H" 
			},
			{
				"x": -1.9663483319,
				"y": -2.2561010517,
				"z": 2.5208531397,
				"element": "H" 
			},
			{
				"x": -2.8468566487,
				"y": -0.7413675005,
				"z": 2.4467393446,
				"element": "H" 
			}
		],
		 "valence_orbital": [ 
			{
				"type": "occ",
				"energy": -0.30044,
				"method": "rhf"
			},
			{
				"type": "occ",
				"energy": -0.29378,
				"method": "rhf"
			},
			{
				"type": "occ",
				"energy": -0.29251,
				"method": "rhf"
			},
			{
				"type": "occ",
				"energy": -0.19417,
				"method": "rhf"
			},
			{
				"type": "occ",
				"energy": -0.19211,
				"method": "rhf"
			},
			{
				"type": "unocc",
				"energy": 0.05963,
				"method": "rhf"
			},
			{
				"type": "unocc",
				"energy": 0.08268,
				"method": "rhf"
			},
			{
				"type": "unocc",
				"energy": 0.09121,
				"method": "rhf"
			},
			{
				"type": "unocc",
				"energy": 0.09736,
				"method": "rhf"
			},
			{
				"type": "unocc",
				"energy": 0.10584,
				"method": "rhf"
			}
		],
		"cosmo_sigma_profile": { 
			"-0.025": 0.0,
			"-0.024": 0.0,
			"-0.023": 0.0,
			"-0.022": 0.0,
			"-0.021": 0.0,
			"-0.02": 0.0,
			"-0.019": 0.0,
			"-0.018": 0.0,
			"-0.017": 0.0,
			"-0.016": 0.0,
			"-0.015": 0.0,
			"-0.014": 0.0,
			"-0.013": 0.0,
			"-0.012": 0.0,
			"-0.011": 0.0,
			"-0.01": 0.0,
			"-0.009": 0.0,
			"-0.008": 0.0,
			"-0.007": 0.0,
			"-0.006": 0.0,
			"-0.005": 0.0,
			"-0.004": 1.88585713516,
			"-0.003": 19.9023947116,
			"-0.002": 52.7645598731,
			"-0.001": 91.1361236842,
			"0.0": 81.0149962297,
			"0.001": 42.8984385766,
			"0.002": 12.792493868,
			"0.003": 3.98832473826,
			"0.004": 2.0632317168,
			"0.005": 2.34490560392,
			"0.006": 1.73877813395,
			"0.007": 2.40695412362,
			"0.008": 1.32341760476,
			"0.009": 1.15090091779,
			"0.01": 1.46395035421,
			"0.011": 1.1058952946,
			"0.012": 0.796252242541,
			"0.013": 1.59518738604,
			"0.014": 0.922891286842,
			"0.015": 1.14590149079,
			"0.016": 0.838309752851,
			"0.017": 0.707018979572,
			"0.018": 0.138248447014,
			"0.019": 0.0,
			"0.02": 0.0,
			"0.021": 0.0,
			"0.022": 0.0,
			"0.023": 0.0,
			"0.024": 0.0,
			"0.025": 0.0
		}
	}
}
