{
	 "smiles": "COC1=CC(F)=C(F)C=C1C#N", 
	 "Tm": 372.15, 
	 "num_atms": 17, 
	 "gaussian": { 
		 "optdone": 1, 
		 "sigma_profile": "yes", 
		 "theory": "DFT", 
		 "functional": "B3LYP", 
		 "basiset": "6-31G**", 
		 "properties": { 
			 "R2extent": 2320.4046, 
			 "electric_dipole_moment_norm": 4.33673259148, 
			 "electric_quadrupole_moment_norm": 18.8847689954, 
			 "total_energy": -637.467271217, 
			 "HOMO_LUMO_gap": 0.18694, 
			 "cosmo_polarized_energy": -11.01, 
			 "cosmo_cavitation_energy": 23.9, 
			 "cosmo_dispersion_energy": -16.64, 
			 "cosmo_repulsion_energy": 1.29, 
			 "cosmo_total_nonelectrostatic_energy": 8.55, 
			 "SMD_solvation_energy": 7.37 
		},
		"coords": [
			{
				"x": 1.8776208203,
				"y": 1.3319864113,
				"z": -1.0174304243,
				"element": "C" 
			},
			{
				"x": 0.9802214144,
				"y": 0.2677408002,
				"z": -1.3151362097,
				"element": "O" 
			},
			{
				"x": 0.1218622507,
				"y": -0.1474266733,
				"z": -0.358206316,
				"element": "C" 
			},
			{
				"x": 0.045386392,
				"y": 0.3986320573,
				"z": 0.9284838111,
				"element": "C" 
			},
			{
				"x": -0.8790476632,
				"y": -0.1097880947,
				"z": 1.8328121711,
				"element": "C" 
			},
			{
				"x": -0.9533602088,
				"y": 0.411559483,
				"z": 3.0641804369,
				"element": "F" 
			},
			{
				"x": -1.7348995569,
				"y": -1.1544883609,
				"z": 1.4871162289,
				"element": "C" 
			},
			{
				"x": -2.6133966182,
				"y": -1.6153134319,
				"z": 2.3922685459,
				"element": "F" 
			},
			{
				"x": -1.6694389933,
				"y": -1.7032126964,
				"z": 0.218272163,
				"element": "C" 
			},
			{
				"x": -0.7449171963,
				"y": -1.2089078065,
				"z": -0.7152034698,
				"element": "C" 
			},
			{
				"x": -0.6804600755,
				"y": -1.7785919739,
				"z": -2.0250120284,
				"element": "C" 
			},
			{
				"x": -0.6491441563,
				"y": -2.260231066,
				"z": -3.0834107111,
				"element": "N" 
			},
			{
				"x": 2.4601727974,
				"y": 1.4885202334,
				"z": -1.9251130393,
				"element": "H" 
			},
			{
				"x": 1.3363555308,
				"y": 2.2526570538,
				"z": -0.7683904968,
				"element": "H" 
			},
			{
				"x": 2.5509665917,
				"y": 1.0675805044,
				"z": -0.1932235636,
				"element": "H" 
			},
			{
				"x": 0.6843010345,
				"y": 1.2099424967,
				"z": 1.2511695522,
				"element": "H" 
			},
			{
				"x": -2.3364223633,
				"y": -2.5152589366,
				"z": -0.0466766501,
				"element": "H" 
			}
		],
		 "valence_orbital": [ 
			{
				"type": "occ",
				"energy": -0.3562,
				"method": "rhf"
			},
			{
				"type": "occ",
				"energy": -0.33301,
				"method": "rhf"
			},
			{
				"type": "occ",
				"energy": -0.33132,
				"method": "rhf"
			},
			{
				"type": "occ",
				"energy": -0.27827,
				"method": "rhf"
			},
			{
				"type": "occ",
				"energy": -0.24314,
				"method": "rhf"
			},
			{
				"type": "unocc",
				"energy": -0.0562,
				"method": "rhf"
			},
			{
				"type": "unocc",
				"energy": -0.01971,
				"method": "rhf"
			},
			{
				"type": "unocc",
				"energy": 0.03215,
				"method": "rhf"
			},
			{
				"type": "unocc",
				"energy": 0.05286,
				"method": "rhf"
			},
			{
				"type": "unocc",
				"energy": 0.07813,
				"method": "rhf"
			}
		],
		"cosmo_sigma_profile": { 
			"-0.025": 0.0,
			"-0.024": 0.0,
			"-0.023": 0.0,
			"-0.022": 0.0,
			"-0.021": 0.0,
			"-0.02": 0.0,
			"-0.019": 0.0,
			"-0.018": 0.0,
			"-0.017": 0.0,
			"-0.016": 0.0,
			"-0.015": 0.0,
			"-0.014": 0.0,
			"-0.013": 0.0,
			"-0.012": 0.0,
			"-0.011": 0.0,
			"-0.01": 1.34884776955,
			"-0.009": 4.13313617897,
			"-0.008": 3.88423838073,
			"-0.007": 8.58809243663,
			"-0.006": 10.6353086372,
			"-0.005": 9.86057106601,
			"-0.004": 11.4430414308,
			"-0.003": 10.3278145065,
			"-0.002": 17.0406629257,
			"-0.001": 22.3028752593,
			"0.0": 16.0160553406,
			"0.001": 7.20631167132,
			"0.002": 9.65328560536,
			"0.003": 21.2432264937,
			"0.004": 8.74052993615,
			"0.005": 3.3326018404,
			"0.006": 4.08240777523,
			"0.007": 5.4521116364,
			"0.008": 4.96720482543,
			"0.009": 3.41726772518,
			"0.01": 3.26809065454,
			"0.011": 2.78231206302,
			"0.012": 2.39199441315,
			"0.013": 1.42343746435,
			"0.014": 0.0264285225855,
			"0.015": 0.0,
			"0.016": 0.0,
			"0.017": 0.0,
			"0.018": 0.0,
			"0.019": 0.0,
			"0.02": 0.0,
			"0.021": 0.0,
			"0.022": 0.0,
			"0.023": 0.0,
			"0.024": 0.0,
			"0.025": 0.0
		}
	}
}
