{
	 "smiles": "CC1=CC=C2OC(=O)C=CC2=C1", 
	 "Tm": 349.35, 
	 "num_atms": 20, 
	 "gaussian": { 
		 "optdone": 1, 
		 "sigma_profile": "yes", 
		 "theory": "DFT", 
		 "functional": "B3LYP", 
		 "basiset": "6-31G**", 
		 "properties": { 
			 "R2extent": 2658.4972, 
			 "electric_dipole_moment_norm": 5.25026690941, 
			 "electric_quadrupole_moment_norm": 20.2407167628, 
			 "total_energy": -536.34333935, 
			 "HOMO_LUMO_gap": 0.16514, 
			 "cosmo_polarized_energy": -10.69, 
			 "cosmo_cavitation_energy": 24.29, 
			 "cosmo_dispersion_energy": -18.16, 
			 "cosmo_repulsion_energy": 1.43, 
			 "cosmo_total_nonelectrostatic_energy": 7.56, 
			 "SMD_solvation_energy": 5.38 
		},
		"coords": [
			{
				"x": -1.6435744683,
				"y": 0.0422189129,
				"z": -2.2330463127,
				"element": "C" 
			},
			{
				"x": -0.8795154269,
				"y": 0.314773837,
				"z": -0.9588793164,
				"element": "C" 
			},
			{
				"x": -1.4463876894,
				"y": 1.1105900936,
				"z": 0.0582682513,
				"element": "C" 
			},
			{
				"x": -0.7687945274,
				"y": 1.3795522012,
				"z": 1.2403053916,
				"element": "C" 
			},
			{
				"x": 0.50916543,
				"y": 0.8479252857,
				"z": 1.4283614616,
				"element": "C" 
			},
			{
				"x": 1.1469629825,
				"y": 1.1316923171,
				"z": 2.6014910268,
				"element": "O" 
			},
			{
				"x": 2.4255898199,
				"y": 0.6554077792,
				"z": 2.8995769165,
				"element": "C" 
			},
			{
				"x": 2.9087098147,
				"y": 0.960249736,
				"z": 3.9643351832,
				"element": "O" 
			},
			{
				"x": 3.0531303726,
				"y": -0.1742427656,
				"z": 1.8744220423,
				"element": "C" 
			},
			{
				"x": 2.4286525141,
				"y": -0.4603348719,
				"z": 0.7095669804,
				"element": "C" 
			},
			{
				"x": 1.1080287796,
				"y": 0.0498294007,
				"z": 0.4377553228,
				"element": "C" 
			},
			{
				"x": 0.3940722626,
				"y": -0.2037410324,
				"z": -0.7492587238,
				"element": "C" 
			},
			{
				"x": -1.0700278007,
				"y": -0.5919791984,
				"z": -2.9142220105,
				"element": "H" 
			},
			{
				"x": -2.5945465666,
				"y": -0.4625446036,
				"z": -2.0278809439,
				"element": "H" 
			},
			{
				"x": -1.880710059,
				"y": 0.9720356739,
				"z": -2.7626920933,
				"element": "H" 
			},
			{
				"x": -2.4408533753,
				"y": 1.5254081506,
				"z": -0.0855050666,
				"element": "H" 
			},
			{
				"x": -1.205369363,
				"y": 1.9915674207,
				"z": 2.0221005936,
				"element": "H" 
			},
			{
				"x": 4.044741729,
				"y": -0.5399153673,
				"z": 2.1125544852,
				"element": "H" 
			},
			{
				"x": 2.9141348596,
				"y": -1.0803020736,
				"z": -0.0404076604,
				"element": "H" 
			},
			{
				"x": 0.8601907119,
				"y": -0.8214908959,
				"z": -1.5133455277,
				"element": "H" 
			}
		],
		 "valence_orbital": [ 
			{
				"type": "occ",
				"energy": -0.34294,
				"method": "rhf"
			},
			{
				"type": "occ",
				"energy": -0.31264,
				"method": "rhf"
			},
			{
				"type": "occ",
				"energy": -0.27109,
				"method": "rhf"
			},
			{
				"type": "occ",
				"energy": -0.25526,
				"method": "rhf"
			},
			{
				"type": "occ",
				"energy": -0.23207,
				"method": "rhf"
			},
			{
				"type": "unocc",
				"energy": -0.06693,
				"method": "rhf"
			},
			{
				"type": "unocc",
				"energy": -0.01029,
				"method": "rhf"
			},
			{
				"type": "unocc",
				"energy": 0.00164,
				"method": "rhf"
			},
			{
				"type": "unocc",
				"energy": 0.08329,
				"method": "rhf"
			},
			{
				"type": "unocc",
				"energy": 0.0863,
				"method": "rhf"
			}
		],
		"cosmo_sigma_profile": { 
			"-0.025": 0.0,
			"-0.024": 0.0,
			"-0.023": 0.0,
			"-0.022": 0.0,
			"-0.021": 0.0,
			"-0.02": 0.0,
			"-0.019": 0.0,
			"-0.018": 0.0,
			"-0.017": 0.0,
			"-0.016": 0.0,
			"-0.015": 0.0,
			"-0.014": 0.0,
			"-0.013": 0.0,
			"-0.012": 0.0,
			"-0.011": 0.0,
			"-0.01": 0.0,
			"-0.009": 0.271445249599,
			"-0.008": 4.3834194718,
			"-0.007": 7.722632377,
			"-0.006": 9.92376825878,
			"-0.005": 11.6176877549,
			"-0.004": 15.6686743782,
			"-0.003": 16.0050198313,
			"-0.002": 15.8970309301,
			"-0.001": 17.6410267379,
			"0.0": 19.9333802038,
			"0.001": 17.2098533729,
			"0.002": 13.5455364787,
			"0.003": 11.8839323988,
			"0.004": 6.10956847918,
			"0.005": 2.27764349507,
			"0.006": 2.12554316639,
			"0.007": 1.92991679661,
			"0.008": 2.38102134511,
			"0.009": 2.3191151114,
			"0.01": 2.99159141626,
			"0.011": 3.10365047551,
			"0.012": 6.61183489153,
			"0.013": 3.06133189474,
			"0.014": 0.18196143534,
			"0.015": 0.0,
			"0.016": 0.0,
			"0.017": 0.0,
			"0.018": 0.0,
			"0.019": 0.0,
			"0.02": 0.0,
			"0.021": 0.0,
			"0.022": 0.0,
			"0.023": 0.0,
			"0.024": 0.0,
			"0.025": 0.0
		}
	}
}
