{
	 "smiles": "COC1=CC=C(C=C1)S(=O)(=O)NC(C(C)C)C(O)=O", 
	 "Tm": 446.15, 
	 "num_atms": 36, 
	 "gaussian": { 
		 "optdone": 1, 
		 "sigma_profile": "yes", 
		 "theory": "DFT", 
		 "functional": "B3LYP", 
		 "basiset": "6-31G**", 
		 "properties": { 
			 "R2extent": 6690.109, 
			 "electric_dipole_moment_norm": 8.64019666096, 
			 "electric_quadrupole_moment_norm": 10.8467701718, 
			 "total_energy": -1296.52321335, 
			 "HOMO_LUMO_gap": 0.203, 
			 "cosmo_polarized_energy": -20.3, 
			 "cosmo_cavitation_energy": 40.2, 
			 "cosmo_dispersion_energy": -27.61, 
			 "cosmo_repulsion_energy": 2.08, 
			 "cosmo_total_nonelectrostatic_energy": 14.67, 
			 "SMD_solvation_energy": 7.92 
		},
		"coords": [
			{
				"x": -3.2229442414,
				"y": 4.5912413525,
				"z": 1.4488549159,
				"element": "C" 
			},
			{
				"x": -2.2828461083,
				"y": 3.8910998341,
				"z": 2.2565661448,
				"element": "O" 
			},
			{
				"x": -1.872258144,
				"y": 2.661341494,
				"z": 1.8638511824,
				"element": "C" 
			},
			{
				"x": -2.3079847545,
				"y": 2.0132367879,
				"z": 0.6959945715,
				"element": "C" 
			},
			{
				"x": -1.8185516214,
				"y": 0.7468824172,
				"z": 0.3873155987,
				"element": "C" 
			},
			{
				"x": -0.897694423,
				"y": 0.1315697714,
				"z": 1.2370008363,
				"element": "C" 
			},
			{
				"x": -0.4672257277,
				"y": 0.7658121481,
				"z": 2.4089092808,
				"element": "C" 
			},
			{
				"x": -0.9531413309,
				"y": 2.0277577045,
				"z": 2.7176592206,
				"element": "C" 
			},
			{
				"x": -0.2881881657,
				"y": -1.4871184677,
				"z": 0.8223854009,
				"element": "S" 
			},
			{
				"x": -1.356666614,
				"y": -2.282053189,
				"z": 0.2154078264,
				"element": "O" 
			},
			{
				"x": 0.4399943773,
				"y": -1.9753008613,
				"z": 2.0188199801,
				"element": "O" 
			},
			{
				"x": 0.8188517035,
				"y": -1.235949881,
				"z": -0.4108826436,
				"element": "N" 
			},
			{
				"x": 2.2233783647,
				"y": -0.8678252591,
				"z": -0.14532398,
				"element": "C" 
			},
			{
				"x": 2.7555956661,
				"y": 0.0973180497,
				"z": -1.2291609756,
				"element": "C" 
			},
			{
				"x": 2.0955401374,
				"y": 1.4764392065,
				"z": -1.1035675491,
				"element": "C" 
			},
			{
				"x": 2.6055875602,
				"y": -0.4673622903,
				"z": -2.6500791699,
				"element": "C" 
			},
			{
				"x": 3.1421982401,
				"y": -2.1078891131,
				"z": 0.0413398944,
				"element": "C" 
			},
			{
				"x": 2.7396328157,
				"y": -3.0177411948,
				"z": 0.9376493517,
				"element": "O" 
			},
			{
				"x": 4.174841066,
				"y": -2.2474055795,
				"z": -0.5744069015,
				"element": "O" 
			},
			{
				"x": -4.1680242953,
				"y": 4.0413234687,
				"z": 1.3653375353,
				"element": "H" 
			},
			{
				"x": -3.4016838565,
				"y": 5.5400976821,
				"z": 1.9553193225,
				"element": "H" 
			},
			{
				"x": -2.8242305562,
				"y": 4.7852959242,
				"z": 0.4458245688,
				"element": "H" 
			},
			{
				"x": -3.0253469451,
				"y": 2.480296596,
				"z": 0.0327507581,
				"element": "H" 
			},
			{
				"x": -2.162253175,
				"y": 0.2341357802,
				"z": -0.5047531623,
				"element": "H" 
			},
			{
				"x": 0.2262625545,
				"y": 0.2603710726,
				"z": 3.071191406,
				"element": "H" 
			},
			{
				"x": -0.6430831351,
				"y": 2.5445398435,
				"z": 3.6193334142,
				"element": "H" 
			},
			{
				"x": 0.6535575294,
				"y": -1.9099436185,
				"z": -1.1524488719,
				"element": "H" 
			},
			{
				"x": 2.2254244499,
				"y": -0.3368770521,
				"z": 0.8152461571,
				"element": "H" 
			},
			{
				"x": 3.8270297064,
				"y": 0.1956509179,
				"z": -1.0236296543,
				"element": "H" 
			},
			{
				"x": 2.2669406192,
				"y": 1.9191276879,
				"z": -0.1157385505,
				"element": "H" 
			},
			{
				"x": 1.0136389905,
				"y": 1.4120131677,
				"z": -1.2593324318,
				"element": "H" 
			},
			{
				"x": 2.50254504,
				"y": 2.1644973399,
				"z": -1.8514547742,
				"element": "H" 
			},
			{
				"x": 3.0736707324,
				"y": 0.2081770103,
				"z": -3.3728414543,
				"element": "H" 
			},
			{
				"x": 1.5507508787,
				"y": -0.5610432703,
				"z": -2.9343990625,
				"element": "H" 
			},
			{
				"x": 3.0913261413,
				"y": -1.4416713834,
				"z": -2.7413815404,
				"element": "H" 
			},
			{
				"x": 1.9282565209,
				"y": -2.7352440968,
				"z": 1.4173433553,
				"element": "H" 
			}
		],
		 "valence_orbital": [ 
			{
				"type": "occ",
				"energy": -0.30346,
				"method": "rhf"
			},
			{
				"type": "occ",
				"energy": -0.29766,
				"method": "rhf"
			},
			{
				"type": "occ",
				"energy": -0.28506,
				"method": "rhf"
			},
			{
				"type": "occ",
				"energy": -0.25953,
				"method": "rhf"
			},
			{
				"type": "occ",
				"energy": -0.24798,
				"method": "rhf"
			},
			{
				"type": "unocc",
				"energy": -0.04498,
				"method": "rhf"
			},
			{
				"type": "unocc",
				"energy": -0.03264,
				"method": "rhf"
			},
			{
				"type": "unocc",
				"energy": 0.00514,
				"method": "rhf"
			},
			{
				"type": "unocc",
				"energy": 0.04778,
				"method": "rhf"
			},
			{
				"type": "unocc",
				"energy": 0.06933,
				"method": "rhf"
			}
		],
		"cosmo_sigma_profile": { 
			"-0.025": 0.0,
			"-0.024": 0.0,
			"-0.023": 0.0,
			"-0.022": 0.0,
			"-0.021": 0.0,
			"-0.02": 0.0,
			"-0.019": 0.0,
			"-0.018": 0.0,
			"-0.017": 0.0,
			"-0.016": 0.0,
			"-0.015": 0.354458400492,
			"-0.014": 1.05277432046,
			"-0.013": 1.36373299955,
			"-0.012": 0.764245305828,
			"-0.011": 1.42344969876,
			"-0.01": 1.73794314829,
			"-0.009": 2.45587107768,
			"-0.008": 5.75090619768,
			"-0.007": 13.3340835952,
			"-0.006": 18.6947656272,
			"-0.005": 19.7303066682,
			"-0.004": 21.1227775276,
			"-0.003": 23.0414330226,
			"-0.002": 23.2184151729,
			"-0.001": 22.3162546854,
			"0.0": 25.6721783784,
			"0.001": 31.0071767145,
			"0.002": 25.4090989458,
			"0.003": 12.2898763596,
			"0.004": 6.6569343703,
			"0.005": 5.62518669232,
			"0.006": 6.25049606076,
			"0.007": 6.04038546863,
			"0.008": 8.19380768224,
			"0.009": 7.30336991072,
			"0.01": 11.4157999479,
			"0.011": 8.89500461126,
			"0.012": 4.56809388756,
			"0.013": 1.66683469376,
			"0.014": 0.0849301402664,
			"0.015": 0.0,
			"0.016": 0.0,
			"0.017": 0.0,
			"0.018": 0.0,
			"0.019": 0.0,
			"0.02": 0.0,
			"0.021": 0.0,
			"0.022": 0.0,
			"0.023": 0.0,
			"0.024": 0.0,
			"0.025": 0.0
		}
	}
}
