{
	 "smiles": "CC(C)(C)OC(=O)N1CCCC1C(O)=O", 
	 "Tm": 407.15, 
	 "num_atms": 32, 
	 "gaussian": { 
		 "optdone": 1, 
		 "sigma_profile": "yes", 
		 "theory": "DFT", 
		 "functional": "B3LYP", 
		 "basiset": "6-31G**", 
		 "properties": { 
			 "R2extent": 3535.9458, 
			 "electric_dipole_moment_norm": 3.21453657935, 
			 "electric_quadrupole_moment_norm": 10.7194871123, 
			 "total_energy": -747.01048234, 
			 "HOMO_LUMO_gap": 0.24429, 
			 "cosmo_polarized_energy": -14.54, 
			 "cosmo_cavitation_energy": 33.86, 
			 "cosmo_dispersion_energy": -22.83, 
			 "cosmo_repulsion_energy": 1.81, 
			 "cosmo_total_nonelectrostatic_energy": 12.84, 
			 "SMD_solvation_energy": 7.1 
		},
		"coords": [
			{
				"x": -1.2082127654,
				"y": 0.4906207027,
				"z": -3.7670470649,
				"element": "C" 
			},
			{
				"x": -0.0890965621,
				"y": -0.3172745608,
				"z": -3.1015437229,
				"element": "C" 
			},
			{
				"x": 1.2567280595,
				"y": -0.0413931499,
				"z": -3.7772603475,
				"element": "C" 
			},
			{
				"x": -0.3884169772,
				"y": -1.819811984,
				"z": -3.075299449,
				"element": "C" 
			},
			{
				"x": 0.136450585,
				"y": 0.1686259717,
				"z": -1.7313904851,
				"element": "O" 
			},
			{
				"x": -0.82468807,
				"y": 0.0443641819,
				"z": -0.7804152623,
				"element": "C" 
			},
			{
				"x": -1.9749904075,
				"y": -0.3277361783,
				"z": -0.95506515,
				"element": "O" 
			},
			{
				"x": -0.3283690787,
				"y": 0.4243961074,
				"z": 0.4343605625,
				"element": "N" 
			},
			{
				"x": -1.1774781413,
				"y": 0.4657017104,
				"z": 1.6260219212,
				"element": "C" 
			},
			{
				"x": -0.4078076682,
				"y": 1.4205842235,
				"z": 2.5458345915,
				"element": "C" 
			},
			{
				"x": 1.0633546228,
				"y": 1.1171119716,
				"z": 2.2125598746,
				"element": "C" 
			},
			{
				"x": 1.0481778247,
				"y": 0.8301475076,
				"z": 0.6846213735,
				"element": "C" 
			},
			{
				"x": 2.0490956246,
				"y": -0.2687273806,
				"z": 0.3388724406,
				"element": "C" 
			},
			{
				"x": 3.2453243048,
				"y": 0.2628499789,
				"z": -0.0073811772,
				"element": "O" 
			},
			{
				"x": 1.8502867659,
				"y": -1.4587635014,
				"z": 0.4134409776,
				"element": "O" 
			},
			{
				"x": -0.9777564211,
				"y": 1.5602765596,
				"z": -3.7309079929,
				"element": "H" 
			},
			{
				"x": -1.2976145896,
				"y": 0.1979419124,
				"z": -4.8184974217,
				"element": "H" 
			},
			{
				"x": -2.161466633,
				"y": 0.3170174286,
				"z": -3.2677702187,
				"element": "H" 
			},
			{
				"x": 1.2244301469,
				"y": -0.3602187623,
				"z": -4.8233425051,
				"element": "H" 
			},
			{
				"x": 2.0603380772,
				"y": -0.5858131967,
				"z": -3.272960902,
				"element": "H" 
			},
			{
				"x": 1.4923402298,
				"y": 1.0265322953,
				"z": -3.7474748128,
				"element": "H" 
			},
			{
				"x": -1.3447766023,
				"y": -2.0186169529,
				"z": -2.5906721651,
				"element": "H" 
			},
			{
				"x": -0.4235200364,
				"y": -2.2063467444,
				"z": -4.0991256062,
				"element": "H" 
			},
			{
				"x": 0.3993811618,
				"y": -2.3509627589,
				"z": -2.5323392965,
				"element": "H" 
			},
			{
				"x": -2.1778377162,
				"y": 0.8121652213,
				"z": 1.3588092829,
				"element": "H" 
			},
			{
				"x": -1.2744690944,
				"y": -0.5338071119,
				"z": 2.0711678291,
				"element": "H" 
			},
			{
				"x": -0.6486036319,
				"y": 2.4590091598,
				"z": 2.2927115988,
				"element": "H" 
			},
			{
				"x": -0.6390321626,
				"y": 1.2674744093,
				"z": 3.6032964919,
				"element": "H" 
			},
			{
				"x": 1.7507101049,
				"y": 1.9272377777,
				"z": 2.4656320421,
				"element": "H" 
			},
			{
				"x": 1.3858375524,
				"y": 0.2177421674,
				"z": 2.7481192131,
				"element": "H" 
			},
			{
				"x": 1.3105370026,
				"y": 1.7236314508,
				"z": 0.10819345,
				"element": "H" 
			},
			{
				"x": 3.842744495,
				"y": -0.4893584557,
				"z": -0.1566480694,
				"element": "H" 
			}
		],
		 "valence_orbital": [ 
			{
				"type": "occ",
				"energy": -0.32001,
				"method": "rhf"
			},
			{
				"type": "occ",
				"energy": -0.28225,
				"method": "rhf"
			},
			{
				"type": "occ",
				"energy": -0.27882,
				"method": "rhf"
			},
			{
				"type": "occ",
				"energy": -0.2565,
				"method": "rhf"
			},
			{
				"type": "occ",
				"energy": -0.23758,
				"method": "rhf"
			},
			{
				"type": "unocc",
				"energy": 0.00671,
				"method": "rhf"
			},
			{
				"type": "unocc",
				"energy": 0.05257,
				"method": "rhf"
			},
			{
				"type": "unocc",
				"energy": 0.06891,
				"method": "rhf"
			},
			{
				"type": "unocc",
				"energy": 0.0862,
				"method": "rhf"
			},
			{
				"type": "unocc",
				"energy": 0.0942,
				"method": "rhf"
			}
		],
		"cosmo_sigma_profile": { 
			"-0.025": 0.0,
			"-0.024": 0.0,
			"-0.023": 0.0,
			"-0.022": 0.0,
			"-0.021": 0.0,
			"-0.02": 0.0,
			"-0.019": 0.035856652983,
			"-0.018": 0.780557092251,
			"-0.017": 0.90986744475,
			"-0.016": 1.08868910509,
			"-0.015": 0.416315991647,
			"-0.014": 0.746182311189,
			"-0.013": 1.05432714686,
			"-0.012": 0.387996691948,
			"-0.011": 0.983420049266,
			"-0.01": 0.749949947824,
			"-0.009": 0.388623945973,
			"-0.008": 0.336358247648,
			"-0.007": 1.11451201103,
			"-0.006": 3.15733758186,
			"-0.005": 10.8015036883,
			"-0.004": 29.6627140547,
			"-0.003": 32.8640747204,
			"-0.002": 29.2135740385,
			"-0.001": 26.7851788447,
			"0.0": 31.1394512711,
			"0.001": 20.1560768992,
			"0.002": 9.63138699963,
			"0.003": 7.92658965258,
			"0.004": 7.16335869094,
			"0.005": 7.81004353754,
			"0.006": 5.56498074978,
			"0.007": 5.37873586012,
			"0.008": 4.08152573022,
			"0.009": 4.01960325607,
			"0.01": 3.49548857787,
			"0.011": 4.9828446367,
			"0.012": 5.15996316713,
			"0.013": 3.64890960477,
			"0.014": 1.53966832349,
			"0.015": 0.0,
			"0.016": 0.0,
			"0.017": 0.0,
			"0.018": 0.0,
			"0.019": 0.0,
			"0.02": 0.0,
			"0.021": 0.0,
			"0.022": 0.0,
			"0.023": 0.0,
			"0.024": 0.0,
			"0.025": 0.0
		}
	}
}
