{
	 "smiles": "OC(=O)C1=CC=C(C=C1)N1CCCC1=O", 
	 "Tm": 524.15, 
	 "num_atms": 26, 
	 "gaussian": { 
		 "optdone": 1, 
		 "sigma_profile": "yes", 
		 "theory": "DFT", 
		 "functional": "B3LYP", 
		 "basiset": "6-31G**", 
		 "properties": { 
			 "R2extent": 4491.0864, 
			 "electric_dipole_moment_norm": 8.1272310986, 
			 "electric_quadrupole_moment_norm": 15.829442801, 
			 "total_energy": -706.253440665, 
			 "HOMO_LUMO_gap": 0.18451, 
			 "cosmo_polarized_energy": -20.64, 
			 "cosmo_cavitation_energy": 29.48, 
			 "cosmo_dispersion_energy": -22.1, 
			 "cosmo_repulsion_energy": 1.71, 
			 "cosmo_total_nonelectrostatic_energy": 9.09, 
			 "SMD_solvation_energy": 6.06 
		},
		"coords": [
			{
				"x": -4.5795452374,
				"y": 1.8954307212,
				"z": -1.3968301081,
				"element": "O" 
			},
			{
				"x": -3.2459730003,
				"y": 2.1720131537,
				"z": -1.45941776,
				"element": "C" 
			},
			{
				"x": -2.875344642,
				"y": 3.2469049499,
				"z": -1.8705843933,
				"element": "O" 
			},
			{
				"x": -2.3140146347,
				"y": 1.0964253236,
				"z": -1.0027800571,
				"element": "C" 
			},
			{
				"x": -0.9990673435,
				"y": 1.4553328096,
				"z": -0.6727424862,
				"element": "C" 
			},
			{
				"x": -0.0735657877,
				"y": 0.5130493886,
				"z": -0.2482066127,
				"element": "C" 
			},
			{
				"x": -0.441661468,
				"y": -0.8461681617,
				"z": -0.1582780604,
				"element": "C" 
			},
			{
				"x": -1.7541347215,
				"y": -1.2149261656,
				"z": -0.5085596182,
				"element": "C" 
			},
			{
				"x": -2.6718728819,
				"y": -0.2546694836,
				"z": -0.9232068697,
				"element": "C" 
			},
			{
				"x": 0.4712752716,
				"y": -1.8383130867,
				"z": 0.2502591291,
				"element": "N" 
			},
			{
				"x": 0.1403826955,
				"y": -3.2683294358,
				"z": 0.1690423889,
				"element": "C" 
			},
			{
				"x": 1.4828979658,
				"y": -3.9770651165,
				"z": 0.4201294681,
				"element": "C" 
			},
			{
				"x": 2.257258738,
				"y": -2.9806302626,
				"z": 1.2872801358,
				"element": "C" 
			},
			{
				"x": 1.6891975756,
				"y": -1.6188650794,
				"z": 0.8999495209,
				"element": "C" 
			},
			{
				"x": 2.199290504,
				"y": -0.5396360755,
				"z": 1.1383809675,
				"element": "O" 
			},
			{
				"x": -4.7259169766,
				"y": 1.0857632515,
				"z": -0.8890167146,
				"element": "H" 
			},
			{
				"x": -0.7147800388,
				"y": 2.4987970799,
				"z": -0.7570839968,
				"element": "H" 
			},
			{
				"x": 0.9292440419,
				"y": 0.8089309918,
				"z": 0.0217818155,
				"element": "H" 
			},
			{
				"x": -2.0695702565,
				"y": -2.2497460948,
				"z": -0.4596343425,
				"element": "H" 
			},
			{
				"x": -3.6632447579,
				"y": -0.5892055075,
				"z": -1.2200604797,
				"element": "H" 
			},
			{
				"x": -0.6077168401,
				"y": -3.5327679648,
				"z": 0.9295042972,
				"element": "H" 
			},
			{
				"x": -0.2782199804,
				"y": -3.5074171214,
				"z": -0.81261497,
				"element": "H" 
			},
			{
				"x": 2.0012018334,
				"y": -4.1300896475,
				"z": -0.5315200787,
				"element": "H" 
			},
			{
				"x": 1.345244817,
				"y": -4.9547476491,
				"z": 0.8871718121,
				"element": "H" 
			},
			{
				"x": 3.3393283322,
				"y": -2.9899218913,
				"z": 1.1434276857,
				"element": "H" 
			},
			{
				"x": 2.0672067919,
				"y": -3.129848926,
				"z": 2.3577093272,
				"element": "H" 
			}
		],
		 "valence_orbital": [ 
			{
				"type": "occ",
				"energy": -0.30419,
				"method": "rhf"
			},
			{
				"type": "occ",
				"energy": -0.27004,
				"method": "rhf"
			},
			{
				"type": "occ",
				"energy": -0.26699,
				"method": "rhf"
			},
			{
				"type": "occ",
				"energy": -0.26104,
				"method": "rhf"
			},
			{
				"type": "occ",
				"energy": -0.23395,
				"method": "rhf"
			},
			{
				"type": "unocc",
				"energy": -0.04944,
				"method": "rhf"
			},
			{
				"type": "unocc",
				"energy": -0.01904,
				"method": "rhf"
			},
			{
				"type": "unocc",
				"energy": 0.01102,
				"method": "rhf"
			},
			{
				"type": "unocc",
				"energy": 0.0579,
				"method": "rhf"
			},
			{
				"type": "unocc",
				"energy": 0.06765,
				"method": "rhf"
			}
		],
		"cosmo_sigma_profile": { 
			"-0.025": 0.0,
			"-0.024": 0.0,
			"-0.023": 0.0,
			"-0.022": 0.0,
			"-0.021": 0.0,
			"-0.02": 0.0,
			"-0.019": 0.135863481941,
			"-0.018": 0.852201203264,
			"-0.017": 0.766463534047,
			"-0.016": 1.08105314993,
			"-0.015": 0.923762546201,
			"-0.014": 0.679662742512,
			"-0.013": 1.11648875828,
			"-0.012": 1.32693943359,
			"-0.011": 0.611148330285,
			"-0.01": 1.72000683869,
			"-0.009": 1.15135831991,
			"-0.008": 2.30144564866,
			"-0.007": 5.515117421,
			"-0.006": 13.4535939657,
			"-0.005": 21.9159685567,
			"-0.004": 25.6295363786,
			"-0.003": 18.7637357018,
			"-0.002": 14.920036369,
			"-0.001": 15.1018988165,
			"0.0": 10.2141609089,
			"0.001": 11.590671265,
			"0.002": 11.4993970221,
			"0.003": 16.6316707617,
			"0.004": 7.95596551891,
			"0.005": 3.47293596501,
			"0.006": 4.32123400493,
			"0.007": 4.90123730826,
			"0.008": 3.81283838853,
			"0.009": 4.34756411554,
			"0.01": 6.45325285366,
			"0.011": 6.9464842796,
			"0.012": 9.17543433469,
			"0.013": 4.46581461666,
			"0.014": 0.891634151035,
			"0.015": 0.0,
			"0.016": 0.0,
			"0.017": 0.0,
			"0.018": 0.0,
			"0.019": 0.0,
			"0.02": 0.0,
			"0.021": 0.0,
			"0.022": 0.0,
			"0.023": 0.0,
			"0.024": 0.0,
			"0.025": 0.0
		}
	}
}
