{
	 "smiles": "CC1=C(C)C2=C(S1)N=C(CC#N)NC2=O", 
	 "Tm": 557.15, 
	 "num_atms": 24, 
	 "gaussian": { 
		 "optdone": 1, 
		 "sigma_profile": "yes", 
		 "theory": "DFT", 
		 "functional": "B3LYP", 
		 "basiset": "6-31G**", 
		 "properties": { 
			 "R2extent": 4542.6066, 
			 "electric_dipole_moment_norm": 3.6890690167, 
			 "electric_quadrupole_moment_norm": 12.1874656135, 
			 "total_energy": -1024.16425839, 
			 "HOMO_LUMO_gap": 0.16766, 
			 "cosmo_polarized_energy": -16.27, 
			 "cosmo_cavitation_energy": 30.74, 
			 "cosmo_dispersion_energy": -22.41, 
			 "cosmo_repulsion_energy": 1.7, 
			 "cosmo_total_nonelectrostatic_energy": 10.03, 
			 "SMD_solvation_energy": 5.05 
		},
		"coords": [
			{
				"x": 4.81112502,
				"y": 2.1578056295,
				"z": -0.4938871206,
				"element": "C" 
			},
			{
				"x": 3.3576373509,
				"y": 1.7827464022,
				"z": -0.4021352815,
				"element": "C" 
			},
			{
				"x": 2.5625170724,
				"y": 1.2170750201,
				"z": -1.3673704539,
				"element": "C" 
			},
			{
				"x": 3.0218854152,
				"y": 0.8530840806,
				"z": -2.7531593263,
				"element": "C" 
			},
			{
				"x": 1.2211428707,
				"y": 1.0096872843,
				"z": -0.8926717708,
				"element": "C" 
			},
			{
				"x": 1.0216312644,
				"y": 1.4199221286,
				"z": 0.4235700686,
				"element": "C" 
			},
			{
				"x": 2.4866354573,
				"y": 2.0701074059,
				"z": 1.0997438008,
				"element": "S" 
			},
			{
				"x": -0.1392151066,
				"y": 1.3439103056,
				"z": 1.1385550483,
				"element": "N" 
			},
			{
				"x": -1.1453667114,
				"y": 0.8334171877,
				"z": 0.4924556777,
				"element": "C" 
			},
			{
				"x": -2.4890815137,
				"y": 0.7806885688,
				"z": 1.2035635757,
				"element": "C" 
			},
			{
				"x": -3.4041481583,
				"y": -0.2371577973,
				"z": 0.6851036388,
				"element": "C" 
			},
			{
				"x": -4.116118453,
				"y": -1.0356655538,
				"z": 0.235518076,
				"element": "N" 
			},
			{
				"x": -1.0711059559,
				"y": 0.3958669005,
				"z": -0.799277557,
				"element": "N" 
			},
			{
				"x": 0.0978357121,
				"y": 0.4335705703,
				"z": -1.607980279,
				"element": "C" 
			},
			{
				"x": 0.0596374486,
				"y": 0.0071458516,
				"z": -2.7534072696,
				"element": "O" 
			},
			{
				"x": 4.9839281449,
				"y": 2.8881495654,
				"z": -1.2921239241,
				"element": "H" 
			},
			{
				"x": 5.435543969,
				"y": 1.2824199751,
				"z": -0.7045688978,
				"element": "H" 
			},
			{
				"x": 5.170818383,
				"y": 2.6001185815,
				"z": 0.4386460289,
				"element": "H" 
			},
			{
				"x": 2.4321519195,
				"y": 1.3762404751,
				"z": -3.5119633603,
				"element": "H" 
			},
			{
				"x": 2.8850425344,
				"y": -0.2157469465,
				"z": -2.9432186319,
				"element": "H" 
			},
			{
				"x": 4.0757665315,
				"y": 1.1003166306,
				"z": -2.9001899466,
				"element": "H" 
			},
			{
				"x": -2.2983603836,
				"y": 0.6103515342,
				"z": 2.2666760932,
				"element": "H" 
			},
			{
				"x": -2.9778376651,
				"y": 1.7604540579,
				"z": 1.1211959224,
				"element": "H" 
			},
			{
				"x": -1.8785651463,
				"y": -0.0299078579,
				"z": -1.243674111,
				"element": "H" 
			}
		],
		 "valence_orbital": [ 
			{
				"type": "occ",
				"energy": -0.29915,
				"method": "rhf"
			},
			{
				"type": "occ",
				"energy": -0.29706,
				"method": "rhf"
			},
			{
				"type": "occ",
				"energy": -0.2687,
				"method": "rhf"
			},
			{
				"type": "occ",
				"energy": -0.2593,
				"method": "rhf"
			},
			{
				"type": "occ",
				"energy": -0.21954,
				"method": "rhf"
			},
			{
				"type": "unocc",
				"energy": -0.05188,
				"method": "rhf"
			},
			{
				"type": "unocc",
				"energy": -0.01741,
				"method": "rhf"
			},
			{
				"type": "unocc",
				"energy": 0.00384,
				"method": "rhf"
			},
			{
				"type": "unocc",
				"energy": 0.01344,
				"method": "rhf"
			},
			{
				"type": "unocc",
				"energy": 0.01371,
				"method": "rhf"
			}
		],
		"cosmo_sigma_profile": { 
			"-0.025": 0.0,
			"-0.024": 0.0,
			"-0.023": 0.0,
			"-0.022": 0.0,
			"-0.021": 0.0,
			"-0.02": 0.0,
			"-0.019": 0.0,
			"-0.018": 0.0,
			"-0.017": 0.0,
			"-0.016": 0.0,
			"-0.015": 0.114915022248,
			"-0.014": 0.500492285938,
			"-0.013": 1.28289791578,
			"-0.012": 1.36956384993,
			"-0.011": 4.1088853668,
			"-0.01": 6.623331327,
			"-0.009": 5.9262880341,
			"-0.008": 4.92510426412,
			"-0.007": 5.66687167225,
			"-0.006": 6.1417073063,
			"-0.005": 10.1908566653,
			"-0.004": 18.2593172492,
			"-0.003": 18.8115864498,
			"-0.002": 18.0065703499,
			"-0.001": 19.7604024271,
			"0.0": 20.7411376653,
			"0.001": 19.1101895906,
			"0.002": 17.1394737318,
			"0.003": 14.2549616986,
			"0.004": 8.86346364537,
			"0.005": 5.4624102656,
			"0.006": 4.11533895972,
			"0.007": 6.10821536594,
			"0.008": 5.30023836668,
			"0.009": 4.91846098823,
			"0.01": 4.84456184101,
			"0.011": 5.05828521085,
			"0.012": 5.71831807246,
			"0.013": 4.96216672703,
			"0.014": 0.320887383102,
			"0.015": 0.0,
			"0.016": 0.0,
			"0.017": 0.0,
			"0.018": 0.0,
			"0.019": 0.0,
			"0.02": 0.0,
			"0.021": 0.0,
			"0.022": 0.0,
			"0.023": 0.0,
			"0.024": 0.0,
			"0.025": 0.0
		}
	}
}
