{
	 "smiles": "CC1=CC=CC=C1OP(=O)(OC1=CC=CC=C1C)OC1=CC=CC=C1C", 
	 "Tm": 248.15, 
	 "num_atms": 47, 
	 "gaussian": { 
		 "optdone": 1, 
		 "sigma_profile": "yes", 
		 "theory": "DFT", 
		 "functional": "B3LYP", 
		 "basiset": "6-31G**", 
		 "properties": { 
			 "R2extent": 9853.5868, 
			 "electric_dipole_moment_norm": 3.07490095775, 
			 "electric_quadrupole_moment_norm": 11.2880117049, 
			 "total_energy": -1455.23435406, 
			 "HOMO_LUMO_gap": 0.22571, 
			 "cosmo_polarized_energy": -12.2, 
			 "cosmo_cavitation_energy": 51.49, 
			 "cosmo_dispersion_energy": -33.38, 
			 "cosmo_repulsion_energy": 2.47, 
			 "cosmo_total_nonelectrostatic_energy": 20.58, 
			 "SMD_solvation_energy": 9.97 
		},
		"coords": [
			{
				"x": -1.5107512919,
				"y": 0.9091588408,
				"z": -3.8081118631,
				"element": "C" 
			},
			{
				"x": -0.2904863705,
				"y": 1.7726015477,
				"z": -3.6105344896,
				"element": "C" 
			},
			{
				"x": 0.2728887369,
				"y": 2.5046737987,
				"z": -4.6615066148,
				"element": "C" 
			},
			{
				"x": 1.3937408902,
				"y": 3.3146421924,
				"z": -4.4716573565,
				"element": "C" 
			},
			{
				"x": 1.9697816231,
				"y": 3.4085315481,
				"z": -3.2061913547,
				"element": "C" 
			},
			{
				"x": 1.4338994053,
				"y": 2.6947439686,
				"z": -2.1322218008,
				"element": "C" 
			},
			{
				"x": 0.3217249633,
				"y": 1.8835317287,
				"z": -2.3516517391,
				"element": "C" 
			},
			{
				"x": -0.2889348213,
				"y": 1.1379635524,
				"z": -1.3326196432,
				"element": "O" 
			},
			{
				"x": 0.3564885367,
				"y": 0.726191028,
				"z": 0.094724437,
				"element": "P" 
			},
			{
				"x": 1.0698136392,
				"y": 1.7860780008,
				"z": 0.8319428865,
				"element": "O" 
			},
			{
				"x": 1.29012833,
				"y": -0.5563234353,
				"z": -0.1690944487,
				"element": "O" 
			},
			{
				"x": 0.9182234319,
				"y": -1.7246476335,
				"z": -0.8540977471,
				"element": "C" 
			},
			{
				"x": 0.9447733809,
				"y": -1.7296188322,
				"z": -2.2460821835,
				"element": "C" 
			},
			{
				"x": 0.6475868639,
				"y": -2.9093922118,
				"z": -2.9300231347,
				"element": "C" 
			},
			{
				"x": 0.342518138,
				"y": -4.0663095905,
				"z": -2.2132354825,
				"element": "C" 
			},
			{
				"x": 0.3444321057,
				"y": -4.0411229431,
				"z": -0.817843555,
				"element": "C" 
			},
			{
				"x": 0.6355826636,
				"y": -2.8726967038,
				"z": -0.1020130248,
				"element": "C" 
			},
			{
				"x": 0.6558142781,
				"y": -2.8475707918,
				"z": 1.4046932997,
				"element": "C" 
			},
			{
				"x": -0.9295409844,
				"y": 0.0530810004,
				"z": 0.7956505414,
				"element": "O" 
			},
			{
				"x": -2.0454706303,
				"y": 0.8145732488,
				"z": 1.1998406615,
				"element": "C" 
			},
			{
				"x": -3.0966773002,
				"y": 0.9657400502,
				"z": 0.3009690377,
				"element": "C" 
			},
			{
				"x": -4.2428661292,
				"y": 1.6523831565,
				"z": 0.7019162806,
				"element": "C" 
			},
			{
				"x": -4.3198281033,
				"y": 2.1695389229,
				"z": 1.9950483891,
				"element": "C" 
			},
			{
				"x": -3.2554042438,
				"y": 1.9951137166,
				"z": 2.8806775487,
				"element": "C" 
			},
			{
				"x": -2.0901655991,
				"y": 1.3112374098,
				"z": 2.5092400115,
				"element": "C" 
			},
			{
				"x": -0.9431540187,
				"y": 1.1159079939,
				"z": 3.4677753236,
				"element": "C" 
			},
			{
				"x": -1.8170331102,
				"y": 0.9084409146,
				"z": -4.8573350422,
				"element": "H" 
			},
			{
				"x": -1.3257528948,
				"y": -0.1253480791,
				"z": -3.5006216336,
				"element": "H" 
			},
			{
				"x": -2.3536180921,
				"y": 1.2718684956,
				"z": -3.2089169318,
				"element": "H" 
			},
			{
				"x": -0.1828354655,
				"y": 2.4341169553,
				"z": -5.645808924,
				"element": "H" 
			},
			{
				"x": 1.8094785028,
				"y": 3.8701446653,
				"z": -5.3068221824,
				"element": "H" 
			},
			{
				"x": 2.8370496455,
				"y": 4.0410019878,
				"z": -3.0422757254,
				"element": "H" 
			},
			{
				"x": 1.8580064822,
				"y": 2.7744618849,
				"z": -1.1383487637,
				"element": "H" 
			},
			{
				"x": 1.208871712,
				"y": -0.8224113865,
				"z": -2.7783023107,
				"element": "H" 
			},
			{
				"x": 0.6661092131,
				"y": -2.9213577519,
				"z": -4.0155575876,
				"element": "H" 
			},
			{
				"x": 0.1136380287,
				"y": -4.9896171932,
				"z": -2.7369372471,
				"element": "H" 
			},
			{
				"x": 0.1207092679,
				"y": -4.9481035293,
				"z": -0.2623642966,
				"element": "H" 
			},
			{
				"x": 1.5988441666,
				"y": -2.4373137959,
				"z": 1.7799981609,
				"element": "H" 
			},
			{
				"x": -0.1469604246,
				"y": -2.2165020987,
				"z": 1.7986234264,
				"element": "H" 
			},
			{
				"x": 0.5320332382,
				"y": -3.8552011863,
				"z": 1.8092900496,
				"element": "H" 
			},
			{
				"x": -3.0045699321,
				"y": 0.5438344252,
				"z": -0.6933466069,
				"element": "H" 
			},
			{
				"x": -5.0677971518,
				"y": 1.7778949707,
				"z": 0.0072535118,
				"element": "H" 
			},
			{
				"x": -5.207902144,
				"y": 2.7050527886,
				"z": 2.3172681182,
				"element": "H" 
			},
			{
				"x": -3.32267974,
				"y": 2.3952154863,
				"z": 3.8888735153,
				"element": "H" 
			},
			{
				"x": -0.716594002,
				"y": 0.052241627,
				"z": 3.6020291634,
				"element": "H" 
			},
			{
				"x": -1.1844163524,
				"y": 1.5380328858,
				"z": 4.4465134108,
				"element": "H" 
			},
			{
				"x": -0.0327984415,
				"y": 1.5937383705,
				"z": 3.0935939163,
				"element": "H" 
			}
		],
		 "valence_orbital": [ 
			{
				"type": "occ",
				"energy": -0.2511,
				"method": "rhf"
			},
			{
				"type": "occ",
				"energy": -0.24914,
				"method": "rhf"
			},
			{
				"type": "occ",
				"energy": -0.24472,
				"method": "rhf"
			},
			{
				"type": "occ",
				"energy": -0.24086,
				"method": "rhf"
			},
			{
				"type": "occ",
				"energy": -0.23516,
				"method": "rhf"
			},
			{
				"type": "unocc",
				"energy": -0.00945,
				"method": "rhf"
			},
			{
				"type": "unocc",
				"energy": -0.0065,
				"method": "rhf"
			},
			{
				"type": "unocc",
				"energy": -0.00383,
				"method": "rhf"
			},
			{
				"type": "unocc",
				"energy": -0.00351,
				"method": "rhf"
			},
			{
				"type": "unocc",
				"energy": -0.00209,
				"method": "rhf"
			}
		],
		"cosmo_sigma_profile": { 
			"-0.025": 0.0,
			"-0.024": 0.0,
			"-0.023": 0.0,
			"-0.022": 0.0,
			"-0.021": 0.0,
			"-0.02": 0.0,
			"-0.019": 0.0,
			"-0.018": 0.0,
			"-0.017": 0.0,
			"-0.016": 0.0,
			"-0.015": 0.0,
			"-0.014": 0.0,
			"-0.013": 0.0,
			"-0.012": 0.0,
			"-0.011": 0.0,
			"-0.01": 0.0,
			"-0.009": 0.0,
			"-0.008": 0.0,
			"-0.007": 0.640227480697,
			"-0.006": 15.7673753586,
			"-0.005": 28.6435276813,
			"-0.004": 39.6962624451,
			"-0.003": 32.7771918805,
			"-0.002": 34.4864476419,
			"-0.001": 41.3525945626,
			"0.0": 44.7960934831,
			"0.001": 34.0216850121,
			"0.002": 31.741880381,
			"0.003": 31.3590860816,
			"0.004": 30.5051087594,
			"0.005": 23.0127455765,
			"0.006": 3.96872776486,
			"0.007": 2.77127484215,
			"0.008": 2.49413780386,
			"0.009": 1.39115786998,
			"0.01": 1.88386633814,
			"0.011": 1.54944750616,
			"0.012": 3.1116066821,
			"0.013": 2.2716159073,
			"0.014": 0.115234823124,
			"0.015": 0.0,
			"0.016": 0.0,
			"0.017": 0.0,
			"0.018": 0.0,
			"0.019": 0.0,
			"0.02": 0.0,
			"0.021": 0.0,
			"0.022": 0.0,
			"0.023": 0.0,
			"0.024": 0.0,
			"0.025": 0.0
		}
	}
}
