{
	 "smiles": "NS(=O)(=O)CC1(CC1)C#N", 
	 "Tm": 383.15, 
	 "num_atms": 18, 
	 "gaussian": { 
		 "optdone": 1, 
		 "sigma_profile": "yes", 
		 "theory": "DFT", 
		 "functional": "B3LYP", 
		 "basiset": "6-31G**", 
		 "properties": { 
			 "R2extent": 2850.2882, 
			 "electric_dipole_moment_norm": 2.52433921057, 
			 "electric_quadrupole_moment_norm": 15.9102789803, 
			 "total_energy": -853.376406335, 
			 "HOMO_LUMO_gap": 0.30643, 
			 "cosmo_polarized_energy": -19.95, 
			 "cosmo_cavitation_energy": 23.79, 
			 "cosmo_dispersion_energy": -17.07, 
			 "cosmo_repulsion_energy": 1.35, 
			 "cosmo_total_nonelectrostatic_energy": 8.07, 
			 "SMD_solvation_energy": 4.62 
		},
		"coords": [
			{
				"x": -3.4851503506,
				"y": -0.861324513,
				"z": 0.2410169538,
				"element": "N" 
			},
			{
				"x": -3.2948996422,
				"y": 0.7057282426,
				"z": 0.8313786452,
				"element": "S" 
			},
			{
				"x": -2.8256133186,
				"y": 0.6845103967,
				"z": 2.2208750104,
				"element": "O" 
			},
			{
				"x": -4.5054091158,
				"y": 1.4324119933,
				"z": 0.4409320695,
				"element": "O" 
			},
			{
				"x": -1.936119256,
				"y": 1.3445595143,
				"z": -0.205898403,
				"element": "C" 
			},
			{
				"x": -0.5578577965,
				"y": 0.8153365509,
				"z": 0.1449115257,
				"element": "C" 
			},
			{
				"x": 0.6379424377,
				"y": 1.7533446884,
				"z": -0.0470319423,
				"element": "C" 
			},
			{
				"x": 0.1790938227,
				"y": 1.4203725455,
				"z": 1.3356169605,
				"element": "C" 
			},
			{
				"x": -0.3296506303,
				"y": -0.5898266504,
				"z": -0.1131140563,
				"element": "C" 
			},
			{
				"x": -0.1479330356,
				"y": -1.7225106043,
				"z": -0.3008529238,
				"element": "N" 
			},
			{
				"x": -4.4773045439,
				"y": -1.0677645973,
				"z": 0.1627098735,
				"element": "H" 
			},
			{
				"x": -2.9894898724,
				"y": -1.5478988562,
				"z": 0.8037072942,
				"element": "H" 
			},
			{
				"x": -2.220188263,
				"y": 1.1314145247,
				"z": -1.2386425087,
				"element": "H" 
			},
			{
				"x": -1.9754211374,
				"y": 2.4255274073,
				"z": -0.0457087232,
				"element": "H" 
			},
			{
				"x": 0.417691341,
				"y": 2.7351935632,
				"z": -0.4545696416,
				"element": "H" 
			},
			{
				"x": 1.5569694371,
				"y": 1.3075758749,
				"z": -0.4118110627,
				"element": "H" 
			},
			{
				"x": 0.7824578869,
				"y": 0.7467793109,
				"z": 1.93367336,
				"element": "H" 
			},
			{
				"x": -0.3745179632,
				"y": 2.1570706085,
				"z": 1.9071075686,
				"element": "H" 
			}
		],
		 "valence_orbital": [ 
			{
				"type": "occ",
				"energy": -0.32726,
				"method": "rhf"
			},
			{
				"type": "occ",
				"energy": -0.31907,
				"method": "rhf"
			},
			{
				"type": "occ",
				"energy": -0.31127,
				"method": "rhf"
			},
			{
				"type": "occ",
				"energy": -0.29951,
				"method": "rhf"
			},
			{
				"type": "occ",
				"energy": -0.29332,
				"method": "rhf"
			},
			{
				"type": "unocc",
				"energy": 0.01311,
				"method": "rhf"
			},
			{
				"type": "unocc",
				"energy": 0.01845,
				"method": "rhf"
			},
			{
				"type": "unocc",
				"energy": 0.04173,
				"method": "rhf"
			},
			{
				"type": "unocc",
				"energy": 0.06046,
				"method": "rhf"
			},
			{
				"type": "unocc",
				"energy": 0.07374,
				"method": "rhf"
			}
		],
		"cosmo_sigma_profile": { 
			"-0.025": 0.0,
			"-0.024": 0.0,
			"-0.023": 0.0,
			"-0.022": 0.0,
			"-0.021": 0.0,
			"-0.02": 0.0,
			"-0.019": 0.0,
			"-0.018": 0.0,
			"-0.017": 0.0,
			"-0.016": 0.113391460498,
			"-0.015": 1.06813788946,
			"-0.014": 2.18293768765,
			"-0.013": 2.36292977121,
			"-0.012": 2.24508817454,
			"-0.011": 2.14951987318,
			"-0.01": 5.32593436396,
			"-0.009": 6.6508228482,
			"-0.008": 7.42871305867,
			"-0.007": 12.0409492623,
			"-0.006": 11.020917226,
			"-0.005": 12.2745968624,
			"-0.004": 8.93526365209,
			"-0.003": 9.84340692369,
			"-0.002": 8.86749740956,
			"-0.001": 8.05441898326,
			"0.0": 6.93747930051,
			"0.001": 6.07530856805,
			"0.002": 5.49160298427,
			"0.003": 5.24089763399,
			"0.004": 3.36410743066,
			"0.005": 4.66908804968,
			"0.006": 4.92656481375,
			"0.007": 6.04258123068,
			"0.008": 7.83522326735,
			"0.009": 7.00913679992,
			"0.01": 8.74682157644,
			"0.011": 14.0883930081,
			"0.012": 5.91649317289,
			"0.013": 1.65608136463,
			"0.014": 0.0596423404769,
			"0.015": 0.0,
			"0.016": 0.0,
			"0.017": 0.0,
			"0.018": 0.0,
			"0.019": 0.0,
			"0.02": 0.0,
			"0.021": 0.0,
			"0.022": 0.0,
			"0.023": 0.0,
			"0.024": 0.0,
			"0.025": 0.0
		}
	}
}
