{
	 "smiles": "CCCCN(CCO)CCO", 
	 "Tm": 203.15, 
	 "num_atms": 30, 
	 "gaussian": { 
		 "optdone": 1, 
		 "sigma_profile": "yes", 
		 "theory": "DFT", 
		 "functional": "B3LYP", 
		 "basiset": "6-31G**", 
		 "properties": { 
			 "R2extent": 2541.8719, 
			 "electric_dipole_moment_norm": 2.54248058793, 
			 "electric_quadrupole_moment_norm": 12.3966487665, 
			 "total_energy": -521.476919592, 
			 "HOMO_LUMO_gap": 0.2765, 
			 "cosmo_polarized_energy": -10.82, 
			 "cosmo_cavitation_energy": 30.15, 
			 "cosmo_dispersion_energy": -20.88, 
			 "cosmo_repulsion_energy": 1.7, 
			 "cosmo_total_nonelectrostatic_energy": 10.97, 
			 "SMD_solvation_energy": 4.82 
		},
		"coords": [
			{
				"x": -2.7653084708,
				"y": -1.4775899938,
				"z": 0.3741505541,
				"element": "C" 
			},
			{
				"x": -1.4566358128,
				"y": -1.6318340612,
				"z": -0.4104437497,
				"element": "C" 
			},
			{
				"x": -0.1924966784,
				"y": -1.6656582051,
				"z": 0.4644467007,
				"element": "C" 
			},
			{
				"x": 0.0039785899,
				"y": -0.4438462857,
				"z": 1.3742435053,
				"element": "C" 
			},
			{
				"x": -0.0189031942,
				"y": 0.8387098355,
				"z": 0.6587844006,
				"element": "N" 
			},
			{
				"x": -0.2519389804,
				"y": 2.0119076557,
				"z": 1.5150609864,
				"element": "C" 
			},
			{
				"x": -1.1668806794,
				"y": 3.0127966039,
				"z": 0.7977280923,
				"element": "C" 
			},
			{
				"x": -2.338736177,
				"y": 2.3689269064,
				"z": 0.3373714993,
				"element": "O" 
			},
			{
				"x": 1.0490967804,
				"y": 1.0276592947,
				"z": -0.3271503473,
				"element": "C" 
			},
			{
				"x": 2.4999419424,
				"y": 0.9690931015,
				"z": 0.1882727174,
				"element": "C" 
			},
			{
				"x": 3.419555894,
				"y": 1.3316453923,
				"z": -0.8345547184,
				"element": "O" 
			},
			{
				"x": -3.6312281449,
				"y": -1.5659352238,
				"z": -0.2898045313,
				"element": "H" 
			},
			{
				"x": -2.8316419368,
				"y": -0.5016264615,
				"z": 0.8660083895,
				"element": "H" 
			},
			{
				"x": -2.8608571513,
				"y": -2.2501884859,
				"z": 1.1464506738,
				"element": "H" 
			},
			{
				"x": -1.4921710474,
				"y": -2.5591189749,
				"z": -0.9961277489,
				"element": "H" 
			},
			{
				"x": -1.3733569423,
				"y": -0.8157998583,
				"z": -1.1385317196,
				"element": "H" 
			},
			{
				"x": 0.6873184102,
				"y": -1.8048903253,
				"z": -0.1771780497,
				"element": "H" 
			},
			{
				"x": -0.2237490921,
				"y": -2.5483184316,
				"z": 1.1174252668,
				"element": "H" 
			},
			{
				"x": -0.8155154966,
				"y": -0.4148963616,
				"z": 2.0992540085,
				"element": "H" 
			},
			{
				"x": 0.9266097173,
				"y": -0.5857175109,
				"z": 1.9646565184,
				"element": "H" 
			},
			{
				"x": -0.7676913751,
				"y": 1.6696557665,
				"z": 2.4174612574,
				"element": "H" 
			},
			{
				"x": 0.6773224968,
				"y": 2.5067061349,
				"z": 1.8422142834,
				"element": "H" 
			},
			{
				"x": -1.4680646355,
				"y": 3.8039777643,
				"z": 1.4933025823,
				"element": "H" 
			},
			{
				"x": -0.6257559633,
				"y": 3.5006299462,
				"z": -0.0312177282,
				"element": "H" 
			},
			{
				"x": -2.0112034734,
				"y": 1.5347393552,
				"z": -0.0393227589,
				"element": "H" 
			},
			{
				"x": 0.9320201387,
				"y": 0.2794351373,
				"z": -1.1229025283,
				"element": "H" 
			},
			{
				"x": 0.9111336875,
				"y": 2.0023762202,
				"z": -0.8063894468,
				"element": "H" 
			},
			{
				"x": 2.6517142794,
				"y": 1.6933775664,
				"z": 0.9945836368,
				"element": "H" 
			},
			{
				"x": 2.7325413831,
				"y": -0.0252669656,
				"z": 0.5984384642,
				"element": "H" 
			},
			{
				"x": 3.3578019318,
				"y": 0.6701504641,
				"z": -1.5359302099,
				"element": "H" 
			}
		],
		 "valence_orbital": [ 
			{
				"type": "occ",
				"energy": -0.32434,
				"method": "rhf"
			},
			{
				"type": "occ",
				"energy": -0.31429,
				"method": "rhf"
			},
			{
				"type": "occ",
				"energy": -0.28252,
				"method": "rhf"
			},
			{
				"type": "occ",
				"energy": -0.25568,
				"method": "rhf"
			},
			{
				"type": "occ",
				"energy": -0.21606,
				"method": "rhf"
			},
			{
				"type": "unocc",
				"energy": 0.06044,
				"method": "rhf"
			},
			{
				"type": "unocc",
				"energy": 0.06737,
				"method": "rhf"
			},
			{
				"type": "unocc",
				"energy": 0.09193,
				"method": "rhf"
			},
			{
				"type": "unocc",
				"energy": 0.09865,
				"method": "rhf"
			},
			{
				"type": "unocc",
				"energy": 0.10408,
				"method": "rhf"
			}
		],
		"cosmo_sigma_profile": { 
			"-0.025": 0.0,
			"-0.024": 0.0,
			"-0.023": 0.0,
			"-0.022": 0.0,
			"-0.021": 0.0,
			"-0.02": 0.0,
			"-0.019": 0.0,
			"-0.018": 0.0,
			"-0.017": 0.0,
			"-0.016": 0.0,
			"-0.015": 1.1332142649,
			"-0.014": 0.611279761479,
			"-0.013": 1.0965287287,
			"-0.012": 1.1524784635,
			"-0.011": 1.21573112354,
			"-0.01": 0.637202712003,
			"-0.009": 0.681562073871,
			"-0.008": 0.961021208753,
			"-0.007": 1.15040691815,
			"-0.006": 2.03032558266,
			"-0.005": 3.35051273426,
			"-0.004": 14.3138978011,
			"-0.003": 28.5562099526,
			"-0.002": 40.9767215346,
			"-0.001": 36.5104615699,
			"0.0": 29.9375486096,
			"0.001": 21.2142061476,
			"0.002": 9.81731401282,
			"0.003": 3.25220840183,
			"0.004": 2.2517255473,
			"0.005": 2.43116294422,
			"0.006": 2.69803995454,
			"0.007": 2.29405678679,
			"0.008": 2.36421544896,
			"0.009": 2.28138309571,
			"0.01": 2.23460424395,
			"0.011": 2.19411930583,
			"0.012": 2.84296774517,
			"0.013": 3.15123254789,
			"0.014": 4.30276585185,
			"0.015": 3.45212671525,
			"0.016": 0.202356877649,
			"0.017": 0.0,
			"0.018": 0.0,
			"0.019": 0.0,
			"0.02": 0.0,
			"0.021": 0.0,
			"0.022": 0.0,
			"0.023": 0.0,
			"0.024": 0.0,
			"0.025": 0.0
		}
	}
}
