{
	 "smiles": "CC(=O)N1CCOCC1", 
	 "Tm": 285.35, 
	 "num_atms": 20, 
	 "gaussian": { 
		 "optdone": 1, 
		 "sigma_profile": "yes", 
		 "theory": "DFT", 
		 "functional": "B3LYP", 
		 "basiset": "6-31G**", 
		 "properties": { 
			 "R2extent": 1505.3001, 
			 "electric_dipole_moment_norm": 2.80561811728, 
			 "electric_quadrupole_moment_norm": 11.7709229281, 
			 "total_energy": -440.459053147, 
			 "HOMO_LUMO_gap": 0.26626, 
			 "cosmo_polarized_energy": -11.69, 
			 "cosmo_cavitation_energy": 21.76, 
			 "cosmo_dispersion_energy": -16.5, 
			 "cosmo_repulsion_energy": 1.36, 
			 "cosmo_total_nonelectrostatic_energy": 6.61, 
			 "SMD_solvation_energy": 3.78 
		},
		"coords": [
			{
				"x": -2.0120818254,
				"y": -1.6173795839,
				"z": -0.1291479608,
				"element": "C" 
			},
			{
				"x": -0.7711814815,
				"y": -1.6537556634,
				"z": -1.008966176,
				"element": "C" 
			},
			{
				"x": -0.5352483984,
				"y": -2.6028750639,
				"z": -1.7501638174,
				"element": "O" 
			},
			{
				"x": 0.0661111691,
				"y": -0.5646350803,
				"z": -0.9352135865,
				"element": "N" 
			},
			{
				"x": 1.3070325722,
				"y": -0.569962044,
				"z": -1.7131186523,
				"element": "C" 
			},
			{
				"x": 2.4510243879,
				"y": -0.0099602806,
				"z": -0.8753093658,
				"element": "C" 
			},
			{
				"x": 2.1836650662,
				"y": 1.296352315,
				"z": -0.349333328,
				"element": "O" 
			},
			{
				"x": 0.8250491534,
				"y": 1.6962474186,
				"z": -0.4160490336,
				"element": "C" 
			},
			{
				"x": -0.1385071754,
				"y": 0.5734034585,
				"z": -0.0342907078,
				"element": "C" 
			},
			{
				"x": -1.7642023115,
				"y": -1.4604632109,
				"z": 0.9258067944,
				"element": "H" 
			},
			{
				"x": -2.525682581,
				"y": -2.5715545667,
				"z": -0.2416496526,
				"element": "H" 
			},
			{
				"x": -2.69058755,
				"y": -0.8117960502,
				"z": -0.4315093442,
				"element": "H" 
			},
			{
				"x": 1.1882320112,
				"y": 0.0120482189,
				"z": -2.6373325237,
				"element": "H" 
			},
			{
				"x": 1.5089669124,
				"y": -1.6024151738,
				"z": -2.003831924,
				"element": "H" 
			},
			{
				"x": 2.6571928536,
				"y": -0.692572687,
				"z": -0.0382754386,
				"element": "H" 
			},
			{
				"x": 3.3598187833,
				"y": 0.0578088745,
				"z": -1.4848959207,
				"element": "H" 
			},
			{
				"x": 0.5701490765,
				"y": 2.0701064914,
				"z": -1.4204686385,
				"element": "H" 
			},
			{
				"x": 0.7129605432,
				"y": 2.529572809,
				"z": 0.2839637982,
				"element": "H" 
			},
			{
				"x": -1.1666632694,
				"y": 0.9467360202,
				"z": -0.1068470409,
				"element": "H" 
			},
			{
				"x": 0.0384520634,
				"y": 0.2884937984,
				"z": 1.0132325186,
				"element": "H" 
			}
		],
		 "valence_orbital": [ 
			{
				"type": "occ",
				"energy": -0.34763,
				"method": "rhf"
			},
			{
				"type": "occ",
				"energy": -0.3128,
				"method": "rhf"
			},
			{
				"type": "occ",
				"energy": -0.25792,
				"method": "rhf"
			},
			{
				"type": "occ",
				"energy": -0.2433,
				"method": "rhf"
			},
			{
				"type": "occ",
				"energy": -0.23672,
				"method": "rhf"
			},
			{
				"type": "unocc",
				"energy": 0.02954,
				"method": "rhf"
			},
			{
				"type": "unocc",
				"energy": 0.07209,
				"method": "rhf"
			},
			{
				"type": "unocc",
				"energy": 0.10026,
				"method": "rhf"
			},
			{
				"type": "unocc",
				"energy": 0.10724,
				"method": "rhf"
			},
			{
				"type": "unocc",
				"energy": 0.11712,
				"method": "rhf"
			}
		],
		"cosmo_sigma_profile": { 
			"-0.025": 0.0,
			"-0.024": 0.0,
			"-0.023": 0.0,
			"-0.022": 0.0,
			"-0.021": 0.0,
			"-0.02": 0.0,
			"-0.019": 0.0,
			"-0.018": 0.0,
			"-0.017": 0.0,
			"-0.016": 0.0,
			"-0.015": 0.0,
			"-0.014": 0.0,
			"-0.013": 0.0,
			"-0.012": 0.0,
			"-0.011": 0.0,
			"-0.01": 0.0,
			"-0.009": 0.0,
			"-0.008": 0.0,
			"-0.007": 1.10607194598,
			"-0.006": 7.65943975434,
			"-0.005": 22.6406845538,
			"-0.004": 29.4417459583,
			"-0.003": 21.7766663119,
			"-0.002": 15.6762226973,
			"-0.001": 12.6703451371,
			"0.0": 8.01004078946,
			"0.001": 5.52193275916,
			"0.002": 4.64888750165,
			"0.003": 2.94295739624,
			"0.004": 3.36194616018,
			"0.005": 3.24782340026,
			"0.006": 2.10036040557,
			"0.007": 2.68425799241,
			"0.008": 3.36971995579,
			"0.009": 2.38176402832,
			"0.01": 1.5584300286,
			"0.011": 3.15747251059,
			"0.012": 3.11602324229,
			"0.013": 3.92623720185,
			"0.014": 5.88892581439,
			"0.015": 2.28191852009,
			"0.016": 0.299598776375,
			"0.017": 0.0,
			"0.018": 0.0,
			"0.019": 0.0,
			"0.02": 0.0,
			"0.021": 0.0,
			"0.022": 0.0,
			"0.023": 0.0,
			"0.024": 0.0,
			"0.025": 0.0
		}
	}
}
