{
	 "smiles": "OC(=O)C1CC11CCCC2=C1C=CC=C2", 
	 "Tm": 435.15, 
	 "num_atms": 29, 
	 "gaussian": { 
		 "optdone": 1, 
		 "sigma_profile": "yes", 
		 "theory": "DFT", 
		 "functional": "B3LYP", 
		 "basiset": "6-31G**", 
		 "properties": { 
			 "R2extent": 3657.4828, 
			 "electric_dipole_moment_norm": 1.1240642108, 
			 "electric_quadrupole_moment_norm": 6.99484175303, 
			 "total_energy": -654.275316597, 
			 "HOMO_LUMO_gap": 0.21393, 
			 "cosmo_polarized_energy": -9.53, 
			 "cosmo_cavitation_energy": 30.49, 
			 "cosmo_dispersion_energy": -22.19, 
			 "cosmo_repulsion_energy": 1.72, 
			 "cosmo_total_nonelectrostatic_energy": 10.02, 
			 "SMD_solvation_energy": 5.33 
		},
		"coords": [
			{
				"x": -2.2679200563,
				"y": 2.9091317861,
				"z": 1.8994343303,
				"element": "O" 
			},
			{
				"x": -2.4935395654,
				"y": 1.5960741797,
				"z": 2.1579930494,
				"element": "C" 
			},
			{
				"x": -3.5735564036,
				"y": 1.1941900754,
				"z": 2.5504375815,
				"element": "O" 
			},
			{
				"x": -1.2860162842,
				"y": 0.7772811779,
				"z": 1.8986806529,
				"element": "C" 
			},
			{
				"x": -1.1684291953,
				"y": -0.5824701246,
				"z": 2.5431858921,
				"element": "C" 
			},
			{
				"x": -1.3562110556,
				"y": -0.5368838521,
				"z": 1.0574877059,
				"element": "C" 
			},
			{
				"x": -2.6986803006,
				"y": -0.9946089676,
				"z": 0.5014986748,
				"element": "C" 
			},
			{
				"x": -2.8696534901,
				"y": -0.5500392212,
				"z": -0.9529206298,
				"element": "C" 
			},
			{
				"x": -1.7833430935,
				"y": -1.1908480403,
				"z": -1.8197757479,
				"element": "C" 
			},
			{
				"x": -0.3909479352,
				"y": -1.0482104563,
				"z": -1.2306752254,
				"element": "C" 
			},
			{
				"x": -0.1802938992,
				"y": -0.7561176863,
				"z": 0.1344823923,
				"element": "C" 
			},
			{
				"x": 1.1421985279,
				"y": -0.6521165681,
				"z": 0.5995818222,
				"element": "C" 
			},
			{
				"x": 2.2326169732,
				"y": -0.8368329322,
				"z": -0.2450918726,
				"element": "C" 
			},
			{
				"x": 2.0211004198,
				"y": -1.1315234888,
				"z": -1.5927977548,
				"element": "C" 
			},
			{
				"x": 0.7177047684,
				"y": -1.2313291382,
				"z": -2.0691679326,
				"element": "C" 
			},
			{
				"x": -3.1033188428,
				"y": 3.3649223295,
				"z": 2.0970281814,
				"element": "H" 
			},
			{
				"x": -0.3810014488,
				"y": 1.3555992433,
				"z": 1.7512360098,
				"element": "H" 
			},
			{
				"x": -2.0315873789,
				"y": -0.8912088958,
				"z": 3.1259509198,
				"element": "H" 
			},
			{
				"x": -0.2101637477,
				"y": -0.8693028604,
				"z": 2.9634730447,
				"element": "H" 
			},
			{
				"x": -2.7328406067,
				"y": -2.0922734726,
				"z": 0.5511748176,
				"element": "H" 
			},
			{
				"x": -3.5087566021,
				"y": -0.620711109,
				"z": 1.1303180925,
				"element": "H" 
			},
			{
				"x": -2.8003703463,
				"y": 0.543976862,
				"z": -1.0116345079,
				"element": "H" 
			},
			{
				"x": -3.8619390276,
				"y": -0.8263718415,
				"z": -1.325867811,
				"element": "H" 
			},
			{
				"x": -1.7937769964,
				"y": -0.7706896072,
				"z": -2.8324455468,
				"element": "H" 
			},
			{
				"x": -2.008759786,
				"y": -2.2615472173,
				"z": -1.9365559546,
				"element": "H" 
			},
			{
				"x": 1.331817089,
				"y": -0.4198796955,
				"z": 1.64319832,
				"element": "H" 
			},
			{
				"x": 3.2414413961,
				"y": -0.7512788563,
				"z": 0.1484061421,
				"element": "H" 
			},
			{
				"x": 2.8620610302,
				"y": -1.2757714942,
				"z": -2.2649256933,
				"element": "H" 
			},
			{
				"x": 0.5444658578,
				"y": -1.4529601281,
				"z": -3.1200089525,
				"element": "H" 
			}
		],
		 "valence_orbital": [ 
			{
				"type": "occ",
				"energy": -0.2982,
				"method": "rhf"
			},
			{
				"type": "occ",
				"energy": -0.29625,
				"method": "rhf"
			},
			{
				"type": "occ",
				"energy": -0.27238,
				"method": "rhf"
			},
			{
				"type": "occ",
				"energy": -0.24139,
				"method": "rhf"
			},
			{
				"type": "occ",
				"energy": -0.22966,
				"method": "rhf"
			},
			{
				"type": "unocc",
				"energy": -0.01573,
				"method": "rhf"
			},
			{
				"type": "unocc",
				"energy": -0.00041,
				"method": "rhf"
			},
			{
				"type": "unocc",
				"energy": 0.02105,
				"method": "rhf"
			},
			{
				"type": "unocc",
				"energy": 0.08178,
				"method": "rhf"
			},
			{
				"type": "unocc",
				"energy": 0.09432,
				"method": "rhf"
			}
		],
		"cosmo_sigma_profile": { 
			"-0.025": 0.0,
			"-0.024": 0.0,
			"-0.023": 0.0,
			"-0.022": 0.0,
			"-0.021": 0.0,
			"-0.02": 0.0,
			"-0.019": 0.0,
			"-0.018": 0.310289190352,
			"-0.017": 1.18495693078,
			"-0.016": 0.521722797462,
			"-0.015": 1.07692198025,
			"-0.014": 0.815747556404,
			"-0.013": 0.603731245407,
			"-0.012": 0.52712682735,
			"-0.011": 0.395505079338,
			"-0.01": 1.06175994259,
			"-0.009": 0.723314901731,
			"-0.008": 0.559100531419,
			"-0.007": 2.28794847672,
			"-0.006": 5.5801670144,
			"-0.005": 12.6131925499,
			"-0.004": 14.3188157571,
			"-0.003": 24.5366200235,
			"-0.002": 26.1238266169,
			"-0.001": 28.7887474372,
			"0.0": 25.3599144296,
			"0.001": 18.8417903336,
			"0.002": 12.0534807512,
			"0.003": 11.9151722142,
			"0.004": 9.04934252593,
			"0.005": 10.0424421726,
			"0.006": 10.2812051146,
			"0.007": 5.23552200238,
			"0.008": 2.96834114037,
			"0.009": 2.42414198683,
			"0.01": 3.05683825499,
			"0.011": 2.17952425113,
			"0.012": 4.17067920186,
			"0.013": 0.690929360975,
			"0.014": 0.0,
			"0.015": 0.0,
			"0.016": 0.0,
			"0.017": 0.0,
			"0.018": 0.0,
			"0.019": 0.0,
			"0.02": 0.0,
			"0.021": 0.0,
			"0.022": 0.0,
			"0.023": 0.0,
			"0.024": 0.0,
			"0.025": 0.0
		}
	}
}
