{
	 "smiles": "CCOC(=O)C1=C(Cl)C2=C(C=CC=C2)N=C1", 
	 "Tm": 311.15, 
	 "num_atms": 26, 
	 "gaussian": { 
		 "optdone": 1, 
		 "sigma_profile": "yes", 
		 "theory": "DFT", 
		 "functional": "B3LYP", 
		 "basiset": "6-31G**", 
		 "properties": { 
			 "R2extent": 4735.9704, 
			 "electric_dipole_moment_norm": 2.56446187728, 
			 "electric_quadrupole_moment_norm": 16.9904262295, 
			 "total_energy": -1128.71121604, 
			 "HOMO_LUMO_gap": 0.16725, 
			 "cosmo_polarized_energy": -8.86, 
			 "cosmo_cavitation_energy": 31.93, 
			 "cosmo_dispersion_energy": -23.45, 
			 "cosmo_repulsion_energy": 1.81, 
			 "cosmo_total_nonelectrostatic_energy": 10.29, 
			 "SMD_solvation_energy": 4.67 
		},
		"coords": [
			{
				"x": 1.3939319941,
				"y": 1.2669820246,
				"z": 4.7423376585,
				"element": "C" 
			},
			{
				"x": 0.3763378827,
				"y": 2.0180724857,
				"z": 3.8976961389,
				"element": "C" 
			},
			{
				"x": 0.1887269463,
				"y": 1.3785902055,
				"z": 2.6090141532,
				"element": "O" 
			},
			{
				"x": -0.7070270682,
				"y": 0.3811462097,
				"z": 2.5586642107,
				"element": "C" 
			},
			{
				"x": -1.3256479324,
				"y": -0.029011315,
				"z": 3.5231705554,
				"element": "O" 
			},
			{
				"x": -0.8491322231,
				"y": -0.2399992852,
				"z": 1.2027418493,
				"element": "C" 
			},
			{
				"x": -0.6263540417,
				"y": 0.3378740985,
				"z": -0.0371386642,
				"element": "C" 
			},
			{
				"x": -0.1549122443,
				"y": 2.0143972507,
				"z": -0.2163847365,
				"element": "Cl" 
			},
			{
				"x": -0.8232026799,
				"y": -0.4282969849,
				"z": -1.2259168563,
				"element": "C" 
			},
			{
				"x": -1.2520019592,
				"y": -1.7867621508,
				"z": -1.0607179347,
				"element": "C" 
			},
			{
				"x": -1.4557754573,
				"y": -2.5929517983,
				"z": -2.2098850325,
				"element": "C" 
			},
			{
				"x": -1.2468021027,
				"y": -2.0829777204,
				"z": -3.4708580923,
				"element": "C" 
			},
			{
				"x": -0.8261068428,
				"y": -0.7418077046,
				"z": -3.6350750575,
				"element": "C" 
			},
			{
				"x": -0.6204826736,
				"y": 0.0686685717,
				"z": -2.5409901517,
				"element": "C" 
			},
			{
				"x": -1.4859478192,
				"y": -2.3479007612,
				"z": 0.1616138789,
				"element": "N" 
			},
			{
				"x": -1.2971730886,
				"y": -1.5978150632,
				"z": 1.2184443928,
				"element": "C" 
			},
			{
				"x": 1.0221889912,
				"y": 0.272162049,
				"z": 4.9987585721,
				"element": "H" 
			},
			{
				"x": 2.3439341958,
				"y": 1.1661631915,
				"z": 4.2095698584,
				"element": "H" 
			},
			{
				"x": 1.5778030923,
				"y": 1.8151598608,
				"z": 5.6723206756,
				"element": "H" 
			},
			{
				"x": -0.5898836743,
				"y": 2.0806719087,
				"z": 4.4030829733,
				"element": "H" 
			},
			{
				"x": 0.7241731222,
				"y": 3.0226975814,
				"z": 3.6472538652,
				"element": "H" 
			},
			{
				"x": -1.7807045956,
				"y": -3.6149864212,
				"z": -2.0471049688,
				"element": "H" 
			},
			{
				"x": -1.4053437269,
				"y": -2.707759729,
				"z": -4.3448475598,
				"element": "H" 
			},
			{
				"x": -0.6637796616,
				"y": -0.3476534342,
				"z": -4.6337012857,
				"element": "H" 
			},
			{
				"x": -0.2980821613,
				"y": 1.0941716269,
				"z": -2.674076037,
				"element": "H" 
			},
			{
				"x": -1.495536272,
				"y": -2.0395346966,
				"z": 2.1917275946,
				"element": "H" 
			}
		],
		 "valence_orbital": [ 
			{
				"type": "occ",
				"energy": -0.29525,
				"method": "rhf"
			},
			{
				"type": "occ",
				"energy": -0.28631,
				"method": "rhf"
			},
			{
				"type": "occ",
				"energy": -0.26488,
				"method": "rhf"
			},
			{
				"type": "occ",
				"energy": -0.26236,
				"method": "rhf"
			},
			{
				"type": "occ",
				"energy": -0.24305,
				"method": "rhf"
			},
			{
				"type": "unocc",
				"energy": -0.0758,
				"method": "rhf"
			},
			{
				"type": "unocc",
				"energy": -0.04109,
				"method": "rhf"
			},
			{
				"type": "unocc",
				"energy": 0.00559,
				"method": "rhf"
			},
			{
				"type": "unocc",
				"energy": 0.0197,
				"method": "rhf"
			},
			{
				"type": "unocc",
				"energy": 0.02635,
				"method": "rhf"
			}
		],
		"cosmo_sigma_profile": { 
			"-0.025": 0.0,
			"-0.024": 0.0,
			"-0.023": 0.0,
			"-0.022": 0.0,
			"-0.021": 0.0,
			"-0.02": 0.0,
			"-0.019": 0.0,
			"-0.018": 0.0,
			"-0.017": 0.0,
			"-0.016": 0.0,
			"-0.015": 0.0,
			"-0.014": 0.0,
			"-0.013": 0.0,
			"-0.012": 0.0,
			"-0.011": 0.0,
			"-0.01": 0.0,
			"-0.009": 0.0,
			"-0.008": 0.0476141068176,
			"-0.007": 4.35799493614,
			"-0.006": 11.1242441493,
			"-0.005": 15.7503716376,
			"-0.004": 21.6952379854,
			"-0.003": 23.4383257809,
			"-0.002": 24.8710625208,
			"-0.001": 29.2419773412,
			"0.0": 26.9254818334,
			"0.001": 21.3220524022,
			"0.002": 20.8629160321,
			"0.003": 19.9395172474,
			"0.004": 7.4502424075,
			"0.005": 5.72566369367,
			"0.006": 3.97054217186,
			"0.007": 4.13204270723,
			"0.008": 3.19756337653,
			"0.009": 1.99208667282,
			"0.01": 3.26427569659,
			"0.011": 4.32396431266,
			"0.012": 2.54272874853,
			"0.013": 0.700685240992,
			"0.014": 0.513817970434,
			"0.015": 0.60528019227,
			"0.016": 0.0595213146523,
			"0.017": 0.0,
			"0.018": 0.0,
			"0.019": 0.0,
			"0.02": 0.0,
			"0.021": 0.0,
			"0.022": 0.0,
			"0.023": 0.0,
			"0.024": 0.0,
			"0.025": 0.0
		}
	}
}
