{
	 "smiles": "COC1=CC(C)=C(C=O)C=C1C", 
	 "Tm": 306.15, 
	 "num_atms": 24, 
	 "gaussian": { 
		 "optdone": 1, 
		 "sigma_profile": "yes", 
		 "theory": "DFT", 
		 "functional": "B3LYP", 
		 "basiset": "6-31G**", 
		 "properties": { 
			 "R2extent": 2489.6663, 
			 "electric_dipole_moment_norm": 4.17809612503, 
			 "electric_quadrupole_moment_norm": 13.7948642309, 
			 "total_energy": -538.740985739, 
			 "HOMO_LUMO_gap": 0.17839, 
			 "cosmo_polarized_energy": -8.9, 
			 "cosmo_cavitation_energy": 27.23, 
			 "cosmo_dispersion_energy": -19.7, 
			 "cosmo_repulsion_energy": 1.56, 
			 "cosmo_total_nonelectrostatic_energy": 9.1, 
			 "SMD_solvation_energy": 6.49 
		},
		"coords": [
			{
				"x": 1.9326928124,
				"y": -1.8137064171,
				"z": -1.4828782388,
				"element": "C" 
			},
			{
				"x": 1.1460347206,
				"y": -1.9232844614,
				"z": -0.3042213842,
				"element": "O" 
			},
			{
				"x": 0.3745791346,
				"y": -0.8684345218,
				"z": 0.0749566869,
				"element": "C" 
			},
			{
				"x": 0.3024127292,
				"y": 0.3396741776,
				"z": -0.6303192279,
				"element": "C" 
			},
			{
				"x": -0.507381169,
				"y": 1.393769681,
				"z": -0.1968704381,
				"element": "C" 
			},
			{
				"x": -0.5474059316,
				"y": 2.6731393186,
				"z": -0.9947606143,
				"element": "C" 
			},
			{
				"x": -1.2611255208,
				"y": 1.2081194775,
				"z": 0.9855636796,
				"element": "C" 
			},
			{
				"x": -2.1517951241,
				"y": 2.2326933661,
				"z": 1.5523154937,
				"element": "C" 
			},
			{
				"x": -2.3611577077,
				"y": 3.347712727,
				"z": 1.1020810445,
				"element": "O" 
			},
			{
				"x": -1.17243347,
				"y": -0.0146710306,
				"z": 1.6775376233,
				"element": "C" 
			},
			{
				"x": -0.3725641654,
				"y": -1.0667716857,
				"z": 1.2567979113,
				"element": "C" 
			},
			{
				"x": -0.2838030385,
				"y": -2.3719635512,
				"z": 2.0039861632,
				"element": "C" 
			},
			{
				"x": 1.3086541188,
				"y": -1.6492277157,
				"z": -2.3697591305,
				"element": "H" 
			},
			{
				"x": 2.4560367776,
				"y": -2.7656164847,
				"z": -1.5821096571,
				"element": "H" 
			},
			{
				"x": 2.667226583,
				"y": -1.0030863468,
				"z": -1.4029729591,
				"element": "H" 
			},
			{
				"x": 0.8830472732,
				"y": 0.4746698265,
				"z": -1.5356391296,
				"element": "H" 
			},
			{
				"x": 0.107938588,
				"y": 2.6019879427,
				"z": -1.8676586386,
				"element": "H" 
			},
			{
				"x": -1.5628916759,
				"y": 2.9011625885,
				"z": -1.3308378021,
				"element": "H" 
			},
			{
				"x": -0.2398217813,
				"y": 3.5300772907,
				"z": -0.3887863224,
				"element": "H" 
			},
			{
				"x": -2.662459402,
				"y": 1.9055041342,
				"z": 2.4877454157,
				"element": "H" 
			},
			{
				"x": -1.7605627522,
				"y": -0.1373936209,
				"z": 2.5854172192,
				"element": "H" 
			},
			{
				"x": -0.9227450368,
				"y": -2.3558171297,
				"z": 2.8906607393,
				"element": "H" 
			},
			{
				"x": 0.7436116702,
				"y": -2.5793604879,
				"z": 2.322677078,
				"element": "H" 
			},
			{
				"x": -0.5899876322,
				"y": -3.2136770771,
				"z": 1.3731744882,
				"element": "H" 
			}
		],
		 "valence_orbital": [ 
			{
				"type": "occ",
				"energy": -0.33089,
				"method": "rhf"
			},
			{
				"type": "occ",
				"energy": -0.31752,
				"method": "rhf"
			},
			{
				"type": "occ",
				"energy": -0.25006,
				"method": "rhf"
			},
			{
				"type": "occ",
				"energy": -0.23946,
				"method": "rhf"
			},
			{
				"type": "occ",
				"energy": -0.22489,
				"method": "rhf"
			},
			{
				"type": "unocc",
				"energy": -0.0465,
				"method": "rhf"
			},
			{
				"type": "unocc",
				"energy": -0.00248,
				"method": "rhf"
			},
			{
				"type": "unocc",
				"energy": 0.05164,
				"method": "rhf"
			},
			{
				"type": "unocc",
				"energy": 0.09032,
				"method": "rhf"
			},
			{
				"type": "unocc",
				"energy": 0.09804,
				"method": "rhf"
			}
		],
		"cosmo_sigma_profile": { 
			"-0.025": 0.0,
			"-0.024": 0.0,
			"-0.023": 0.0,
			"-0.022": 0.0,
			"-0.021": 0.0,
			"-0.02": 0.0,
			"-0.019": 0.0,
			"-0.018": 0.0,
			"-0.017": 0.0,
			"-0.016": 0.0,
			"-0.015": 0.0,
			"-0.014": 0.0,
			"-0.013": 0.0,
			"-0.012": 0.0,
			"-0.011": 0.0,
			"-0.01": 0.0,
			"-0.009": 0.0,
			"-0.008": 0.0,
			"-0.007": 1.44999369353,
			"-0.006": 13.015211029,
			"-0.005": 17.5489844483,
			"-0.004": 20.5037524381,
			"-0.003": 19.264886512,
			"-0.002": 17.6886655742,
			"-0.001": 17.6052666749,
			"0.0": 23.2069274705,
			"0.001": 19.824597975,
			"0.002": 12.6124164942,
			"0.003": 13.5447435366,
			"0.004": 12.1505586532,
			"0.005": 4.18097036314,
			"0.006": 3.82631417045,
			"0.007": 2.80077115839,
			"0.008": 3.29360361315,
			"0.009": 2.12176997998,
			"0.01": 2.01033584462,
			"0.011": 2.0011901678,
			"0.012": 3.53569210228,
			"0.013": 2.32184409248,
			"0.014": 0.73576467322,
			"0.015": 0.0,
			"0.016": 0.0,
			"0.017": 0.0,
			"0.018": 0.0,
			"0.019": 0.0,
			"0.02": 0.0,
			"0.021": 0.0,
			"0.022": 0.0,
			"0.023": 0.0,
			"0.024": 0.0,
			"0.025": 0.0
		}
	}
}
