{
	 "smiles": "NS(=O)(=O)C1=CC(F)=C(C=C1)S(=O)(=O)CCCCO", 
	 "Tm": 407.15, 
	 "num_atms": 33, 
	 "gaussian": { 
		 "optdone": 1, 
		 "sigma_profile": "yes", 
		 "theory": "DFT", 
		 "functional": "B3LYP", 
		 "basiset": "6-31G**", 
		 "properties": { 
			 "R2extent": 8263.4643, 
			 "electric_dipole_moment_norm": 5.37903307761, 
			 "electric_quadrupole_moment_norm": 19.9422251161, 
			 "total_energy": -1716.43459965, 
			 "HOMO_LUMO_gap": 0.20425, 
			 "cosmo_polarized_energy": -28.06, 
			 "cosmo_cavitation_energy": 39.7, 
			 "cosmo_dispersion_energy": -28.38, 
			 "cosmo_repulsion_energy": 2.13, 
			 "cosmo_total_nonelectrostatic_energy": 13.45, 
			 "SMD_solvation_energy": 5.74 
		},
		"coords": [
			{
				"x": -3.4168011495,
				"y": 2.3677759304,
				"z": -2.1156093562,
				"element": "N" 
			},
			{
				"x": -3.8866655951,
				"y": 2.5705915468,
				"z": -0.5042537747,
				"element": "S" 
			},
			{
				"x": -3.6057409571,
				"y": 3.9599254298,
				"z": -0.1374786141,
				"element": "O" 
			},
			{
				"x": -5.2084044946,
				"y": 1.9595253418,
				"z": -0.3551459937,
				"element": "O" 
			},
			{
				"x": -2.714517609,
				"y": 1.5342920741,
				"z": 0.3867274949,
				"element": "C" 
			},
			{
				"x": -1.533699688,
				"y": 2.1115101434,
				"z": 0.851785978,
				"element": "C" 
			},
			{
				"x": -0.6394856712,
				"y": 1.2981439134,
				"z": 1.5340333864,
				"element": "C" 
			},
			{
				"x": 0.5086652696,
				"y": 1.8365007388,
				"z": 1.983325668,
				"element": "F" 
			},
			{
				"x": -0.8964981059,
				"y": -0.0576204894,
				"z": 1.7433619565,
				"element": "C" 
			},
			{
				"x": -2.0935301204,
				"y": -0.6075725574,
				"z": 1.2798963078,
				"element": "C" 
			},
			{
				"x": -3.014006897,
				"y": 0.188068293,
				"z": 0.5992985612,
				"element": "C" 
			},
			{
				"x": 0.2120562802,
				"y": -1.1065123954,
				"z": 2.7224124007,
				"element": "S" 
			},
			{
				"x": -0.3166542676,
				"y": -2.4763025972,
				"z": 2.60286654,
				"element": "O" 
			},
			{
				"x": 0.3686690383,
				"y": -0.4733919339,
				"z": 4.0385128488,
				"element": "O" 
			},
			{
				"x": 1.8401296021,
				"y": -1.0395590089,
				"z": 1.8987433904,
				"element": "C" 
			},
			{
				"x": 2.0156887319,
				"y": -1.9760110593,
				"z": 0.7030487385,
				"element": "C" 
			},
			{
				"x": 1.3045384573,
				"y": -1.5495529806,
				"z": -0.5866250099,
				"element": "C" 
			},
			{
				"x": 1.6214828063,
				"y": -2.4699722754,
				"z": -1.7705956499,
				"element": "C" 
			},
			{
				"x": 3.0011504395,
				"y": -2.4722074536,
				"z": -2.1216505645,
				"element": "O" 
			},
			{
				"x": -4.1819649135,
				"y": 1.9595281111,
				"z": -2.6461133546,
				"element": "H" 
			},
			{
				"x": -3.1254708392,
				"y": 3.2614546658,
				"z": -2.5029780735,
				"element": "H" 
			},
			{
				"x": -1.3215476252,
				"y": 3.1648539165,
				"z": 0.7111640865,
				"element": "H" 
			},
			{
				"x": -2.2855667104,
				"y": -1.6585966668,
				"z": 1.468113641,
				"element": "H" 
			},
			{
				"x": -3.9567143872,
				"y": -0.2198625868,
				"z": 0.2536607949,
				"element": "H" 
			},
			{
				"x": 2.5075593078,
				"y": -1.313261729,
				"z": 2.7224574857,
				"element": "H" 
			},
			{
				"x": 2.0185917247,
				"y": 0.0123148516,
				"z": 1.6609362952,
				"element": "H" 
			},
			{
				"x": 1.6968356982,
				"y": -2.9827239541,
				"z": 0.9973055166,
				"element": "H" 
			},
			{
				"x": 3.0943621097,
				"y": -2.0230379472,
				"z": 0.5066375628,
				"element": "H" 
			},
			{
				"x": 0.217967799,
				"y": -1.5437249615,
				"z": -0.4407299376,
				"element": "H" 
			},
			{
				"x": 1.6017785533,
				"y": -0.5266763994,
				"z": -0.8514634763,
				"element": "H" 
			},
			{
				"x": 1.0846496486,
				"y": -2.1169881451,
				"z": -2.6572722351,
				"element": "H" 
			},
			{
				"x": 1.2625462012,
				"y": -3.4894779316,
				"z": -1.5598113722,
				"element": "H" 
			},
			{
				"x": 3.4630973631,
				"y": -3.0800318839,
				"z": -1.5324612417,
				"element": "H" 
			}
		],
		 "valence_orbital": [ 
			{
				"type": "occ",
				"energy": -0.30702,
				"method": "rhf"
			},
			{
				"type": "occ",
				"energy": -0.29788,
				"method": "rhf"
			},
			{
				"type": "occ",
				"energy": -0.29205,
				"method": "rhf"
			},
			{
				"type": "occ",
				"energy": -0.28404,
				"method": "rhf"
			},
			{
				"type": "occ",
				"energy": -0.27825,
				"method": "rhf"
			},
			{
				"type": "unocc",
				"energy": -0.074,
				"method": "rhf"
			},
			{
				"type": "unocc",
				"energy": -0.04194,
				"method": "rhf"
			},
			{
				"type": "unocc",
				"energy": 0.02504,
				"method": "rhf"
			},
			{
				"type": "unocc",
				"energy": 0.04367,
				"method": "rhf"
			},
			{
				"type": "unocc",
				"energy": 0.04942,
				"method": "rhf"
			}
		],
		"cosmo_sigma_profile": { 
			"-0.025": 0.0,
			"-0.024": 0.0,
			"-0.023": 0.0,
			"-0.022": 0.0,
			"-0.021": 0.0,
			"-0.02": 0.0,
			"-0.019": 0.0,
			"-0.018": 0.0,
			"-0.017": 0.0,
			"-0.016": 0.139075153333,
			"-0.015": 2.91379824493,
			"-0.014": 3.10138331097,
			"-0.013": 3.34860325161,
			"-0.012": 3.94528607116,
			"-0.011": 3.47350315926,
			"-0.01": 3.42770478495,
			"-0.009": 3.80460609469,
			"-0.008": 10.3695016665,
			"-0.007": 11.2175024392,
			"-0.006": 14.2488535024,
			"-0.005": 15.6685027802,
			"-0.004": 21.9764952231,
			"-0.003": 27.9395360024,
			"-0.002": 28.1023202481,
			"-0.001": 21.0668191808,
			"0.0": 15.3282686056,
			"0.001": 11.3194551284,
			"0.002": 12.5695705458,
			"0.003": 9.17638184231,
			"0.004": 6.88855224185,
			"0.005": 6.91363637787,
			"0.006": 7.43861696909,
			"0.007": 7.5812220367,
			"0.008": 8.0541385989,
			"0.009": 10.5366535455,
			"0.01": 17.2208778617,
			"0.011": 16.7343568045,
			"0.012": 4.82052709727,
			"0.013": 1.37830663212,
			"0.014": 2.27449256066,
			"0.015": 1.07168827212,
			"0.016": 0.0,
			"0.017": 0.0,
			"0.018": 0.0,
			"0.019": 0.0,
			"0.02": 0.0,
			"0.021": 0.0,
			"0.022": 0.0,
			"0.023": 0.0,
			"0.024": 0.0,
			"0.025": 0.0
		}
	}
}
