{
	 "smiles": "OC1=CC(O)=C(SC2=CC=C(O)C=C2O)C=C1", 
	 "Tm": 448.15, 
	 "num_atms": 27, 
	 "gaussian": { 
		 "optdone": 1, 
		 "sigma_profile": "yes", 
		 "theory": "DFT", 
		 "functional": "B3LYP", 
		 "basiset": "6-31G**", 
		 "properties": { 
			 "R2extent": 6167.9382, 
			 "electric_dipole_moment_norm": 0.691518083639, 
			 "electric_quadrupole_moment_norm": 13.7180279807, 
			 "total_energy": -1162.37707623, 
			 "HOMO_LUMO_gap": 0.20281, 
			 "cosmo_polarized_energy": -18.1, 
			 "cosmo_cavitation_energy": 33.64, 
			 "cosmo_dispersion_energy": -24.44, 
			 "cosmo_repulsion_energy": 1.84, 
			 "cosmo_total_nonelectrostatic_energy": 11.04, 
			 "SMD_solvation_energy": 6.6 
		},
		"coords": [
			{
				"x": 0.0223186174,
				"y": 1.1153024528,
				"z": -3.6735590644,
				"element": "O" 
			},
			{
				"x": 0.0962249642,
				"y": 0.2009961262,
				"z": -2.6665056758,
				"element": "C" 
			},
			{
				"x": -1.0241460988,
				"y": -0.4938640368,
				"z": -2.2099280944,
				"element": "C" 
			},
			{
				"x": -0.893610132,
				"y": -1.4211904245,
				"z": -1.1712629759,
				"element": "C" 
			},
			{
				"x": -2.015154047,
				"y": -2.0628438768,
				"z": -0.76065515,
				"element": "O" 
			},
			{
				"x": 0.3695208756,
				"y": -1.6564803226,
				"z": -0.5910185534,
				"element": "C" 
			},
			{
				"x": 0.4962454052,
				"y": -2.8772715755,
				"z": 0.7197326126,
				"element": "S" 
			},
			{
				"x": 0.5190964062,
				"y": -1.8995663589,
				"z": 2.2257572603,
				"element": "C" 
			},
			{
				"x": -0.6491674071,
				"y": -1.3959836904,
				"z": 2.8139278076,
				"element": "C" 
			},
			{
				"x": -0.6065646681,
				"y": -0.6562211716,
				"z": 3.9873527196,
				"element": "C" 
			},
			{
				"x": 0.6345186698,
				"y": -0.4187898786,
				"z": 4.5977897453,
				"element": "C" 
			},
			{
				"x": 0.6308541048,
				"y": 0.3070210292,
				"z": 5.750507711,
				"element": "O" 
			},
			{
				"x": 1.8110512622,
				"y": -0.9156593743,
				"z": 4.0361716311,
				"element": "C" 
			},
			{
				"x": 1.7592981094,
				"y": -1.6539177575,
				"z": 2.8495340645,
				"element": "C" 
			},
			{
				"x": 2.932423565,
				"y": -2.1065725212,
				"z": 2.3425332947,
				"element": "O" 
			},
			{
				"x": 1.4808096528,
				"y": -0.9511954507,
				"z": -1.0726653786,
				"element": "C" 
			},
			{
				"x": 1.3593688538,
				"y": -0.0238712302,
				"z": -2.0980082112,
				"element": "C" 
			},
			{
				"x": -0.8918090142,
				"y": 1.1809101191,
				"z": -3.9793757403,
				"element": "H" 
			},
			{
				"x": -2.0077006015,
				"y": -0.33186428,
				"z": -2.6421162999,
				"element": "H" 
			},
			{
				"x": -1.7490839426,
				"y": -2.7072378331,
				"z": -0.0804776151,
				"element": "H" 
			},
			{
				"x": -1.6036336482,
				"y": -1.5820159443,
				"z": 2.3312621652,
				"element": "H" 
			},
			{
				"x": -1.5066560843,
				"y": -0.2610426077,
				"z": 4.4439905523,
				"element": "H" 
			},
			{
				"x": 1.5372345989,
				"y": 0.4023335153,
				"z": 6.07120613,
				"element": "H" 
			},
			{
				"x": 2.7785716005,
				"y": -0.7417002883,
				"z": 4.4988300626,
				"element": "H" 
			},
			{
				"x": 2.7222323123,
				"y": -2.642893791,
				"z": 1.5571396573,
				"element": "H" 
			},
			{
				"x": 2.4526956475,
				"y": -1.1298774327,
				"z": -0.6231166855,
				"element": "H" 
			},
			{
				"x": 2.2148609984,
				"y": 0.527196604,
				"z": -2.4712459697,
				"element": "H" 
			}
		],
		 "valence_orbital": [ 
			{
				"type": "occ",
				"energy": -0.26738,
				"method": "rhf"
			},
			{
				"type": "occ",
				"energy": -0.24285,
				"method": "rhf"
			},
			{
				"type": "occ",
				"energy": -0.24098,
				"method": "rhf"
			},
			{
				"type": "occ",
				"energy": -0.22432,
				"method": "rhf"
			},
			{
				"type": "occ",
				"energy": -0.2168,
				"method": "rhf"
			},
			{
				"type": "unocc",
				"energy": -0.01399,
				"method": "rhf"
			},
			{
				"type": "unocc",
				"energy": -0.01262,
				"method": "rhf"
			},
			{
				"type": "unocc",
				"energy": 0.00427,
				"method": "rhf"
			},
			{
				"type": "unocc",
				"energy": 0.0063,
				"method": "rhf"
			},
			{
				"type": "unocc",
				"energy": 0.05804,
				"method": "rhf"
			}
		],
		"cosmo_sigma_profile": { 
			"-0.025": 0.0,
			"-0.024": 0.0,
			"-0.023": 0.0,
			"-0.022": 0.0,
			"-0.021": 0.0,
			"-0.02": 0.0,
			"-0.019": 0.100541425675,
			"-0.018": 1.56081244147,
			"-0.017": 2.04756134177,
			"-0.016": 2.37093213675,
			"-0.015": 2.23701816549,
			"-0.014": 1.60246007641,
			"-0.013": 2.52841978848,
			"-0.012": 3.16981307071,
			"-0.011": 2.55657600043,
			"-0.01": 3.4323551289,
			"-0.009": 5.07882799665,
			"-0.008": 5.61729447539,
			"-0.007": 7.18274212598,
			"-0.006": 11.8479202952,
			"-0.005": 11.7039483467,
			"-0.004": 12.9328543731,
			"-0.003": 10.327040047,
			"-0.002": 11.1922444978,
			"-0.001": 9.82364557632,
			"0.0": 14.4049433079,
			"0.001": 15.0869088445,
			"0.002": 18.3868137258,
			"0.003": 28.7291061822,
			"0.004": 34.5744571946,
			"0.005": 15.7702956846,
			"0.006": 5.23034540859,
			"0.007": 5.55426060557,
			"0.008": 5.31823792177,
			"0.009": 6.2650679456,
			"0.01": 6.7575439376,
			"0.011": 6.46360720604,
			"0.012": 0.418946031059,
			"0.013": 0.0,
			"0.014": 0.0,
			"0.015": 0.0,
			"0.016": 0.0,
			"0.017": 0.0,
			"0.018": 0.0,
			"0.019": 0.0,
			"0.02": 0.0,
			"0.021": 0.0,
			"0.022": 0.0,
			"0.023": 0.0,
			"0.024": 0.0,
			"0.025": 0.0
		}
	}
}
