{
	 "smiles": "FC(F)C(=O)C1=CC=CC=C1", 
	 "Tm": 322.15, 
	 "num_atms": 17, 
	 "gaussian": { 
		 "optdone": 1, 
		 "sigma_profile": "yes", 
		 "theory": "DFT", 
		 "functional": "B3LYP", 
		 "basiset": "6-31G**", 
		 "properties": { 
			 "R2extent": 2352.2855, 
			 "electric_dipole_moment_norm": 3.97526759602, 
			 "electric_quadrupole_moment_norm": 7.37508698864, 
			 "total_energy": -583.352757642, 
			 "HOMO_LUMO_gap": 0.19105, 
			 "cosmo_polarized_energy": -8.51, 
			 "cosmo_cavitation_energy": 22.29, 
			 "cosmo_dispersion_energy": -16.21, 
			 "cosmo_repulsion_energy": 1.26, 
			 "cosmo_total_nonelectrostatic_energy": 7.34, 
			 "SMD_solvation_energy": 5.3 
		},
		"coords": [
			{
				"x": 2.3211752969,
				"y": 2.7033450793,
				"z": -1.2811007361,
				"element": "F" 
			},
			{
				"x": 2.0583510356,
				"y": 1.3890400337,
				"z": -1.4347057093,
				"element": "C" 
			},
			{
				"x": 3.2531590412,
				"y": 0.7108711092,
				"z": -1.4763424531,
				"element": "F" 
			},
			{
				"x": 1.2149196354,
				"y": 0.8819537035,
				"z": -0.2395639213,
				"element": "C" 
			},
			{
				"x": 0.820419488,
				"y": 1.6929576521,
				"z": 0.5766410208,
				"element": "O" 
			},
			{
				"x": 0.8680254296,
				"y": -0.5651716645,
				"z": -0.1744348055,
				"element": "C" 
			},
			{
				"x": 1.3780530504,
				"y": -1.5236719342,
				"z": -1.0666688539,
				"element": "C" 
			},
			{
				"x": 0.9854863333,
				"y": -2.8570401375,
				"z": -0.9575027049,
				"element": "C" 
			},
			{
				"x": 0.0883215775,
				"y": -3.2455496106,
				"z": 0.0391475147,
				"element": "C" 
			},
			{
				"x": -0.4185278639,
				"y": -2.297997016,
				"z": 0.934542789,
				"element": "C" 
			},
			{
				"x": -0.0310756236,
				"y": -0.9670398853,
				"z": 0.8286428592,
				"element": "C" 
			},
			{
				"x": 1.5470397176,
				"y": 1.2370972408,
				"z": -2.3947461018,
				"element": "H" 
			},
			{
				"x": 2.094395127,
				"y": -1.2393585675,
				"z": -1.8281336535,
				"element": "H" 
			},
			{
				"x": 1.3849534217,
				"y": -3.5939456606,
				"z": -1.6477234051,
				"element": "H" 
			},
			{
				"x": -0.2147360941,
				"y": -4.2855391196,
				"z": 0.1201874356,
				"element": "H" 
			},
			{
				"x": -1.114906309,
				"y": -2.6004208812,
				"z": 1.7109437983,
				"element": "H" 
			},
			{
				"x": -0.4116532637,
				"y": -0.2128303415,
				"z": 1.5092169268,
				"element": "H" 
			}
		],
		 "valence_orbital": [ 
			{
				"type": "occ",
				"energy": -0.36598,
				"method": "rhf"
			},
			{
				"type": "occ",
				"energy": -0.35499,
				"method": "rhf"
			},
			{
				"type": "occ",
				"energy": -0.27188,
				"method": "rhf"
			},
			{
				"type": "occ",
				"energy": -0.26904,
				"method": "rhf"
			},
			{
				"type": "occ",
				"energy": -0.26629,
				"method": "rhf"
			},
			{
				"type": "unocc",
				"energy": -0.07524,
				"method": "rhf"
			},
			{
				"type": "unocc",
				"energy": -0.019,
				"method": "rhf"
			},
			{
				"type": "unocc",
				"energy": 0.01873,
				"method": "rhf"
			},
			{
				"type": "unocc",
				"energy": 0.08395,
				"method": "rhf"
			},
			{
				"type": "unocc",
				"energy": 0.11189,
				"method": "rhf"
			}
		],
		"cosmo_sigma_profile": { 
			"-0.025": 0.0,
			"-0.024": 0.0,
			"-0.023": 0.0,
			"-0.022": 0.0,
			"-0.021": 0.0,
			"-0.02": 0.0,
			"-0.019": 0.0,
			"-0.018": 0.0,
			"-0.017": 0.0,
			"-0.016": 0.0,
			"-0.015": 0.0,
			"-0.014": 0.0,
			"-0.013": 0.0,
			"-0.012": 0.0113493845997,
			"-0.011": 0.890597877903,
			"-0.01": 2.99063469198,
			"-0.009": 3.54980362923,
			"-0.008": 2.18965378639,
			"-0.007": 4.79222101937,
			"-0.006": 12.1462866443,
			"-0.005": 12.463797399,
			"-0.004": 10.8082029493,
			"-0.003": 9.22093413485,
			"-0.002": 9.05941073782,
			"-0.001": 9.02202407261,
			"0.0": 11.1409966024,
			"0.001": 12.974400701,
			"0.002": 14.9618549538,
			"0.003": 23.64706609,
			"0.004": 19.9032040461,
			"0.005": 3.01646323655,
			"0.006": 2.42182349285,
			"0.007": 1.69711796087,
			"0.008": 1.9710003449,
			"0.009": 2.9749924044,
			"0.01": 3.85053154643,
			"0.011": 2.94144534223,
			"0.012": 0.644465758123,
			"0.013": 0.0,
			"0.014": 0.0,
			"0.015": 0.0,
			"0.016": 0.0,
			"0.017": 0.0,
			"0.018": 0.0,
			"0.019": 0.0,
			"0.02": 0.0,
			"0.021": 0.0,
			"0.022": 0.0,
			"0.023": 0.0,
			"0.024": 0.0,
			"0.025": 0.0
		}
	}
}
