{
	 "smiles": "CS(=O)(=O)C1=CC(=C(Br)C=C1)S(Cl)(=O)=O", 
	 "Tm": 434.15, 
	 "num_atms": 21, 
	 "gaussian": { 
		 "optdone": 1, 
		 "sigma_profile": "yes", 
		 "theory": "DFT", 
		 "functional": "B3LYP", 
		 "basiset": "6-31G**", 
		 "properties": { 
			 "R2extent": 6071.6741, 
			 "electric_dipole_moment_norm": 5.22132670018, 
			 "electric_quadrupole_moment_norm": 21.6616752106, 
			 "total_energy": -4399.07158256, 
			 "HOMO_LUMO_gap": 0.19004, 
			 "cosmo_polarized_energy": -19.27, 
			 "cosmo_cavitation_energy": 32.66, 
			 "cosmo_dispersion_energy": -24.5, 
			 "cosmo_repulsion_energy": 1.82, 
			 "cosmo_total_nonelectrostatic_energy": 9.98, 
			 "SMD_solvation_energy": 3.12 
		},
		"coords": [
			{
				"x": -0.1068264901,
				"y": -3.1212666675,
				"z": -2.9475165302,
				"element": "C" 
			},
			{
				"x": -1.4767968708,
				"y": -2.4615717683,
				"z": -1.970350524,
				"element": "S" 
			},
			{
				"x": -1.5603051383,
				"y": -3.242748652,
				"z": -0.7293820991,
				"element": "O" 
			},
			{
				"x": -2.6311139016,
				"y": -2.3004375888,
				"z": -2.8650752234,
				"element": "O" 
			},
			{
				"x": -0.9175257147,
				"y": -0.8010043764,
				"z": -1.5244861903,
				"element": "C" 
			},
			{
				"x": -0.1819143897,
				"y": -0.6274026911,
				"z": -0.354103369,
				"element": "C" 
			},
			{
				"x": 0.2498940107,
				"y": 0.6514168634,
				"z": -0.0060082228,
				"element": "C" 
			},
			{
				"x": -0.0687361227,
				"y": 1.7515344926,
				"z": -0.8239732099,
				"element": "C" 
			},
			{
				"x": 0.4775577493,
				"y": 3.522884551,
				"z": -0.428755054,
				"element": "Br" 
			},
			{
				"x": -0.8258042822,
				"y": 1.5553334299,
				"z": -1.981558399,
				"element": "C" 
			},
			{
				"x": -1.2543492727,
				"y": 0.2793362693,
				"z": -2.3367428306,
				"element": "C" 
			},
			{
				"x": 1.2310668768,
				"y": 0.9480554466,
				"z": 1.4978069391,
				"element": "S" 
			},
			{
				"x": 1.4078301366,
				"y": -1.0008085573,
				"z": 2.3394849965,
				"element": "Cl" 
			},
			{
				"x": 2.5776868245,
				"y": 1.3362285229,
				"z": 1.1060659552,
				"element": "O" 
			},
			{
				"x": 0.4383362453,
				"y": 1.7217492212,
				"z": 2.4401544063,
				"element": "O" 
			},
			{
				"x": 0.0406941888,
				"y": -2.4971319119,
				"z": -3.8298976242,
				"element": "H" 
			},
			{
				"x": 0.7920683366,
				"y": -3.1575751676,
				"z": -2.330593959,
				"element": "H" 
			},
			{
				"x": -0.405721427,
				"y": -4.129678903,
				"z": -3.241599493,
				"element": "H" 
			},
			{
				"x": 0.026192076,
				"y": -1.4807631698,
				"z": 0.2790218504,
				"element": "H" 
			},
			{
				"x": -1.0784010574,
				"y": 2.4116993504,
				"z": -2.5957229296,
				"element": "H" 
			},
			{
				"x": -1.8605317771,
				"y": 0.1230513065,
				"z": -3.2227684893,
				"element": "H" 
			}
		],
		 "valence_orbital": [ 
			{
				"type": "occ",
				"energy": -0.31886,
				"method": "rhf"
			},
			{
				"type": "occ",
				"energy": -0.3163,
				"method": "rhf"
			},
			{
				"type": "occ",
				"energy": -0.313,
				"method": "rhf"
			},
			{
				"type": "occ",
				"energy": -0.30985,
				"method": "rhf"
			},
			{
				"type": "occ",
				"energy": -0.2891,
				"method": "rhf"
			},
			{
				"type": "unocc",
				"energy": -0.09906,
				"method": "rhf"
			},
			{
				"type": "unocc",
				"energy": -0.08525,
				"method": "rhf"
			},
			{
				"type": "unocc",
				"energy": -0.07109,
				"method": "rhf"
			},
			{
				"type": "unocc",
				"energy": -0.03488,
				"method": "rhf"
			},
			{
				"type": "unocc",
				"energy": 0.02494,
				"method": "rhf"
			}
		],
		"cosmo_sigma_profile": { 
			"-0.025": 0.0,
			"-0.024": 0.0,
			"-0.023": 0.0,
			"-0.022": 0.0,
			"-0.021": 0.0,
			"-0.02": 0.0,
			"-0.019": 0.0,
			"-0.018": 0.0,
			"-0.017": 0.0,
			"-0.016": 0.0,
			"-0.015": 0.0,
			"-0.014": 0.0,
			"-0.013": 0.0,
			"-0.012": 0.0,
			"-0.011": 0.0659818002833,
			"-0.01": 2.34431707415,
			"-0.009": 11.0272354215,
			"-0.008": 11.3331331809,
			"-0.007": 11.9022140115,
			"-0.006": 12.1576633524,
			"-0.005": 15.2036801601,
			"-0.004": 15.2994025926,
			"-0.003": 21.1978202783,
			"-0.002": 21.6173624746,
			"-0.001": 17.1013552954,
			"0.0": 13.8008538256,
			"0.001": 13.7581286957,
			"0.002": 19.4885741814,
			"0.003": 13.160711573,
			"0.004": 6.94468100335,
			"0.005": 6.45915428437,
			"0.006": 6.7128960192,
			"0.007": 12.3312195857,
			"0.008": 12.4795193459,
			"0.009": 4.3387788924,
			"0.01": 7.1607833197,
			"0.011": 9.45931529577,
			"0.012": 2.86776867622,
			"0.013": 0.0,
			"0.014": 0.0,
			"0.015": 0.0,
			"0.016": 0.0,
			"0.017": 0.0,
			"0.018": 0.0,
			"0.019": 0.0,
			"0.02": 0.0,
			"0.021": 0.0,
			"0.022": 0.0,
			"0.023": 0.0,
			"0.024": 0.0,
			"0.025": 0.0
		}
	}
}
