{
	 "smiles": "CCC(C(O)=O)C1(O)CCC(CC1)C1=CC=CC=C1", 
	 "Tm": 430.15, 
	 "num_atms": 41, 
	 "gaussian": { 
		 "optdone": 1, 
		 "sigma_profile": "yes", 
		 "theory": "DFT", 
		 "functional": "B3LYP", 
		 "basiset": "6-31G**", 
		 "properties": { 
			 "R2extent": 7332.3354, 
			 "electric_dipole_moment_norm": 0.520753098887, 
			 "electric_quadrupole_moment_norm": 13.9766658839, 
			 "total_energy": -848.659442381, 
			 "HOMO_LUMO_gap": 0.23493, 
			 "cosmo_polarized_energy": -12.93, 
			 "cosmo_cavitation_energy": 40.08, 
			 "cosmo_dispersion_energy": -28.15, 
			 "cosmo_repulsion_energy": 2.15, 
			 "cosmo_total_nonelectrostatic_energy": 14.08, 
			 "SMD_solvation_energy": 6.97 
		},
		"coords": [
			{
				"x": 3.3040502565,
				"y": -0.5210411315,
				"z": -4.5419625893,
				"element": "C" 
			},
			{
				"x": 3.621901092,
				"y": -0.2288439289,
				"z": -3.0699581533,
				"element": "C" 
			},
			{
				"x": 2.7822259326,
				"y": -0.9927038034,
				"z": -2.002801252,
				"element": "C" 
			},
			{
				"x": 3.0474919142,
				"y": -2.4831867311,
				"z": -2.1576904934,
				"element": "C" 
			},
			{
				"x": 2.1329359953,
				"y": -3.1330704917,
				"z": -2.9408400466,
				"element": "O" 
			},
			{
				"x": 3.9919572836,
				"y": -3.0737385016,
				"z": -1.6858581609,
				"element": "O" 
			},
			{
				"x": 1.2741276973,
				"y": -0.5979347176,
				"z": -1.8988721759,
				"element": "C" 
			},
			{
				"x": 0.5654549537,
				"y": -0.8628187174,
				"z": -3.1142910287,
				"element": "O" 
			},
			{
				"x": 1.1386465916,
				"y": 0.9291635769,
				"z": -1.6788205154,
				"element": "C" 
			},
			{
				"x": -0.1360367275,
				"y": 1.284908691,
				"z": -0.9067842183,
				"element": "C" 
			},
			{
				"x": -0.0463241209,
				"y": 0.7929609087,
				"z": 0.5600621921,
				"element": "C" 
			},
			{
				"x": 0.6496974329,
				"y": -0.6070016897,
				"z": 0.6151294242,
				"element": "C" 
			},
			{
				"x": 0.5874344772,
				"y": -1.3571772338,
				"z": -0.7229993319,
				"element": "C" 
			},
			{
				"x": -1.3935600962,
				"y": 0.8304556065,
				"z": 1.2645345144,
				"element": "C" 
			},
			{
				"x": -1.5924363029,
				"y": 1.6729456295,
				"z": 2.3664286975,
				"element": "C" 
			},
			{
				"x": -2.820334963,
				"y": 1.7220415788,
				"z": 3.0298261886,
				"element": "C" 
			},
			{
				"x": -3.8792895175,
				"y": 0.9219231148,
				"z": 2.6011369065,
				"element": "C" 
			},
			{
				"x": -3.6985094669,
				"y": 0.0762217729,
				"z": 1.5043132991,
				"element": "C" 
			},
			{
				"x": -2.4708957481,
				"y": 0.0338185106,
				"z": 0.8436747422,
				"element": "C" 
			},
			{
				"x": 2.2656400186,
				"y": -0.2832154115,
				"z": -4.7778702797,
				"element": "H" 
			},
			{
				"x": 3.9581450435,
				"y": 0.0736381281,
				"z": -5.1881345367,
				"element": "H" 
			},
			{
				"x": 3.4696960715,
				"y": -1.5747834933,
				"z": -4.7899318899,
				"element": "H" 
			},
			{
				"x": 4.6744434591,
				"y": -0.4636452429,
				"z": -2.8724564097,
				"element": "H" 
			},
			{
				"x": 3.5087356744,
				"y": 0.8429046018,
				"z": -2.8772188957,
				"element": "H" 
			},
			{
				"x": 3.2347940908,
				"y": -0.7538811377,
				"z": -1.0333530865,
				"element": "H" 
			},
			{
				"x": 2.4220022504,
				"y": -4.0609369047,
				"z": -2.981036662,
				"element": "H" 
			},
			{
				"x": 0.6654937143,
				"y": -1.8071949957,
				"z": -3.3029984494,
				"element": "H" 
			},
			{
				"x": 1.1443969646,
				"y": 1.4101578277,
				"z": -2.6610322919,
				"element": "H" 
			},
			{
				"x": 2.0078744446,
				"y": 1.3093973441,
				"z": -1.1267022563,
				"element": "H" 
			},
			{
				"x": -0.3059121245,
				"y": 2.3669357504,
				"z": -0.9196536106,
				"element": "H" 
			},
			{
				"x": -0.9972894461,
				"y": 0.8325852863,
				"z": -1.4107276665,
				"element": "H" 
			},
			{
				"x": 0.6053582046,
				"y": 1.4966619752,
				"z": 1.0928063044,
				"element": "H" 
			},
			{
				"x": 1.7003110588,
				"y": -0.4743325524,
				"z": 0.9027521619,
				"element": "H" 
			},
			{
				"x": 0.1988782703,
				"y": -1.2188335208,
				"z": 1.4027365208,
				"element": "H" 
			},
			{
				"x": 1.0118354598,
				"y": -2.3609466669,
				"z": -0.6061271444,
				"element": "H" 
			},
			{
				"x": -0.4570847501,
				"y": -1.5030523169,
				"z": -1.0171080339,
				"element": "H" 
			},
			{
				"x": -0.7722269042,
				"y": 2.2992081242,
				"z": 2.7099630224,
				"element": "H" 
			},
			{
				"x": -2.9471444612,
				"y": 2.3851250603,
				"z": 3.8812912219,
				"element": "H" 
			},
			{
				"x": -4.8360205732,
				"y": 0.9564275678,
				"z": 3.1143786481,
				"element": "H" 
			},
			{
				"x": -4.5166591088,
				"y": -0.5507628684,
				"z": 1.1602679984,
				"element": "H" 
			},
			{
				"x": -2.353204041,
				"y": -0.6267789974,
				"z": -0.0109726635,
				"element": "H" 
			}
		],
		 "valence_orbital": [ 
			{
				"type": "occ",
				"energy": -0.30198,
				"method": "rhf"
			},
			{
				"type": "occ",
				"energy": -0.27687,
				"method": "rhf"
			},
			{
				"type": "occ",
				"energy": -0.2564,
				"method": "rhf"
			},
			{
				"type": "occ",
				"energy": -0.24521,
				"method": "rhf"
			},
			{
				"type": "occ",
				"energy": -0.2363,
				"method": "rhf"
			},
			{
				"type": "unocc",
				"energy": -0.00137,
				"method": "rhf"
			},
			{
				"type": "unocc",
				"energy": 0.00151,
				"method": "rhf"
			},
			{
				"type": "unocc",
				"energy": 0.00516,
				"method": "rhf"
			},
			{
				"type": "unocc",
				"energy": 0.05547,
				"method": "rhf"
			},
			{
				"type": "unocc",
				"energy": 0.07892,
				"method": "rhf"
			}
		],
		"cosmo_sigma_profile": { 
			"-0.025": 0.0,
			"-0.024": 0.0,
			"-0.023": 0.0,
			"-0.022": 0.0,
			"-0.021": 0.0,
			"-0.02": 0.0,
			"-0.019": 0.117448869666,
			"-0.018": 0.704362781979,
			"-0.017": 1.04839519113,
			"-0.016": 1.0312029776,
			"-0.015": 0.330953326189,
			"-0.014": 0.786878566877,
			"-0.013": 0.584126752968,
			"-0.012": 0.528957671593,
			"-0.011": 0.842624551624,
			"-0.01": 0.80791117192,
			"-0.009": 1.03016330762,
			"-0.008": 0.977241317862,
			"-0.007": 1.707001986,
			"-0.006": 3.95981458531,
			"-0.005": 15.9432228937,
			"-0.004": 21.9726048131,
			"-0.003": 35.3765774089,
			"-0.002": 37.7546362325,
			"-0.001": 36.1383948868,
			"0.0": 32.9926286692,
			"0.001": 27.8918496687,
			"0.002": 16.288624192,
			"0.003": 11.9004264132,
			"0.004": 12.3934716399,
			"0.005": 10.9131006173,
			"0.006": 10.1003842112,
			"0.007": 6.63624079833,
			"0.008": 2.94831920167,
			"0.009": 3.01788720491,
			"0.01": 2.54933510822,
			"0.011": 5.09009735891,
			"0.012": 4.6064954968,
			"0.013": 1.83209889662,
			"0.014": 1.04983782232,
			"0.015": 0.092367131181,
			"0.016": 0.0,
			"0.017": 0.0,
			"0.018": 0.0,
			"0.019": 0.0,
			"0.02": 0.0,
			"0.021": 0.0,
			"0.022": 0.0,
			"0.023": 0.0,
			"0.024": 0.0,
			"0.025": 0.0
		}
	}
}
