{
	 "smiles": "COC1=C(OC)C(Br)=CC(CCl)=C1", 
	 "Tm": 334.15, 
	 "num_atms": 23, 
	 "gaussian": { 
		 "optdone": 1, 
		 "sigma_profile": "yes", 
		 "theory": "DFT", 
		 "functional": "B3LYP", 
		 "basiset": "6-31G**", 
		 "properties": { 
			 "R2extent": 4977.5632, 
			 "electric_dipole_moment_norm": 2.62886199143, 
			 "electric_quadrupole_moment_norm": 13.2988383711, 
			 "total_energy": -3530.99807172, 
			 "HOMO_LUMO_gap": 0.20749, 
			 "cosmo_polarized_energy": -8.96, 
			 "cosmo_cavitation_energy": 30.92, 
			 "cosmo_dispersion_energy": -22.18, 
			 "cosmo_repulsion_energy": 1.8, 
			 "cosmo_total_nonelectrostatic_energy": 10.54, 
			 "SMD_solvation_energy": 5.34 
		},
		"coords": [
			{
				"x": -3.0468006373,
				"y": 0.3514167969,
				"z": 0.1461068133,
				"element": "C" 
			},
			{
				"x": -1.8354100849,
				"y": 0.2710233969,
				"z": -0.6186524833,
				"element": "O" 
			},
			{
				"x": -0.6859506555,
				"y": 0.5742860635,
				"z": 0.0683757622,
				"element": "C" 
			},
			{
				"x": -0.191828051,
				"y": -0.296849878,
				"z": 1.0622078531,
				"element": "C" 
			},
			{
				"x": -0.8841620574,
				"y": -1.4227309877,
				"z": 1.4115689349,
				"element": "O" 
			},
			{
				"x": -0.7830089231,
				"y": -2.5051103345,
				"z": 0.471619933,
				"element": "C" 
			},
			{
				"x": 1.0019499831,
				"y": 0.0445200103,
				"z": 1.7093531484,
				"element": "C" 
			},
			{
				"x": 1.692990301,
				"y": -1.1104157797,
				"z": 3.0592883989,
				"element": "Br" 
			},
			{
				"x": 1.6974459418,
				"y": 1.206952075,
				"z": 1.3834171056,
				"element": "C" 
			},
			{
				"x": 1.210762525,
				"y": 2.0547606718,
				"z": 0.3835735673,
				"element": "C" 
			},
			{
				"x": 1.960101317,
				"y": 3.3017929023,
				"z": 0.0216202744,
				"element": "C" 
			},
			{
				"x": 3.1287064815,
				"y": 3.0383662169,
				"z": -1.3711953143,
				"element": "Cl" 
			},
			{
				"x": 0.0137524754,
				"y": 1.731064209,
				"z": -0.2657693787,
				"element": "C" 
			},
			{
				"x": -3.8538560106,
				"y": 0.080552452,
				"z": -0.5370135671,
				"element": "H" 
			},
			{
				"x": -3.206753203,
				"y": 1.374463642,
				"z": 0.5083554013,
				"element": "H" 
			},
			{
				"x": -3.0291562793,
				"y": -0.3398357366,
				"z": 0.9933697216,
				"element": "H" 
			},
			{
				"x": -1.1637032288,
				"y": -2.2073621061,
				"z": -0.5100901393,
				"element": "H" 
			},
			{
				"x": -1.393087,
				"y": -3.3139731127,
				"z": 0.8769491146,
				"element": "H" 
			},
			{
				"x": 0.2559017663,
				"y": -2.8418290006,
				"z": 0.3837615933,
				"element": "H" 
			},
			{
				"x": 2.6221043824,
				"y": 1.4392837947,
				"z": 1.9000888305,
				"element": "H" 
			},
			{
				"x": 2.5713317741,
				"y": 3.6640734412,
				"z": 0.8479831179,
				"element": "H" 
			},
			{
				"x": 1.2923067941,
				"y": 4.0966182093,
				"z": -0.3106255544,
				"element": "H" 
			},
			{
				"x": -0.3910376108,
				"y": 2.3684330542,
				"z": -1.0457931332,
				"element": "H" 
			}
		],
		 "valence_orbital": [ 
			{
				"type": "occ",
				"energy": -0.29545,
				"method": "rhf"
			},
			{
				"type": "occ",
				"energy": -0.28533,
				"method": "rhf"
			},
			{
				"type": "occ",
				"energy": -0.27529,
				"method": "rhf"
			},
			{
				"type": "occ",
				"energy": -0.24608,
				"method": "rhf"
			},
			{
				"type": "occ",
				"energy": -0.24332,
				"method": "rhf"
			},
			{
				"type": "unocc",
				"energy": -0.03583,
				"method": "rhf"
			},
			{
				"type": "unocc",
				"energy": -0.01806,
				"method": "rhf"
			},
			{
				"type": "unocc",
				"energy": 0.00318,
				"method": "rhf"
			},
			{
				"type": "unocc",
				"energy": 0.03741,
				"method": "rhf"
			},
			{
				"type": "unocc",
				"energy": 0.08395,
				"method": "rhf"
			}
		],
		"cosmo_sigma_profile": { 
			"-0.025": 0.0,
			"-0.024": 0.0,
			"-0.023": 0.0,
			"-0.022": 0.0,
			"-0.021": 0.0,
			"-0.02": 0.0,
			"-0.019": 0.0,
			"-0.018": 0.0,
			"-0.017": 0.0,
			"-0.016": 0.0,
			"-0.015": 0.0,
			"-0.014": 0.0,
			"-0.013": 0.0,
			"-0.012": 0.0,
			"-0.011": 0.0,
			"-0.01": 0.0,
			"-0.009": 0.244957092623,
			"-0.008": 6.8110519743,
			"-0.007": 7.33867447059,
			"-0.006": 9.90622656419,
			"-0.005": 14.5519767758,
			"-0.004": 19.9690503414,
			"-0.003": 26.0662869823,
			"-0.002": 19.5434125571,
			"-0.001": 14.6425838367,
			"0.0": 18.2957854772,
			"0.001": 17.0053505815,
			"0.002": 22.0141325003,
			"0.003": 16.4687055485,
			"0.004": 17.2700134996,
			"0.005": 12.0246216855,
			"0.006": 12.5321265589,
			"0.007": 8.16009869329,
			"0.008": 2.40567976518,
			"0.009": 1.76551417291,
			"0.01": 2.41582022445,
			"0.011": 1.67967451029,
			"0.012": 0.13147951438,
			"0.013": 0.0,
			"0.014": 0.0,
			"0.015": 0.0,
			"0.016": 0.0,
			"0.017": 0.0,
			"0.018": 0.0,
			"0.019": 0.0,
			"0.02": 0.0,
			"0.021": 0.0,
			"0.022": 0.0,
			"0.023": 0.0,
			"0.024": 0.0,
			"0.025": 0.0
		}
	}
}
