{
	 "smiles": "OC(=O)CC1=COC(=N1)C1=CC=CC=C1", 
	 "Tm": 422.15, 
	 "num_atms": 24, 
	 "gaussian": { 
		 "optdone": 1, 
		 "sigma_profile": "yes", 
		 "theory": "DFT", 
		 "functional": "B3LYP", 
		 "basiset": "6-31G**", 
		 "properties": { 
			 "R2extent": 4972.5621, 
			 "electric_dipole_moment_norm": 0.570693429084, 
			 "electric_quadrupole_moment_norm": 16.9115421588, 
			 "total_energy": -705.027781601, 
			 "HOMO_LUMO_gap": 0.17883, 
			 "cosmo_polarized_energy": -11.33, 
			 "cosmo_cavitation_energy": 29.46, 
			 "cosmo_dispersion_energy": -21.9, 
			 "cosmo_repulsion_energy": 1.7, 
			 "cosmo_total_nonelectrostatic_energy": 9.26, 
			 "SMD_solvation_energy": 5.36 
		},
		"coords": [
			{
				"x": -0.6900238546,
				"y": 5.3571315962,
				"z": -0.2479709801,
				"element": "O" 
			},
			{
				"x": -0.6563056321,
				"y": 4.0445948875,
				"z": -0.5772835663,
				"element": "C" 
			},
			{
				"x": -0.7755979573,
				"y": 3.6593739285,
				"z": -1.720358214,
				"element": "O" 
			},
			{
				"x": -0.4557968198,
				"y": 3.1914630385,
				"z": 0.6546654356,
				"element": "C" 
			},
			{
				"x": -0.4018693259,
				"y": 1.7149637305,
				"z": 0.4183769937,
				"element": "C" 
			},
			{
				"x": -0.5003404253,
				"y": 0.9764925499,
				"z": -0.7195547443,
				"element": "C" 
			},
			{
				"x": -0.3830164221,
				"y": -0.3446457466,
				"z": -0.3712728373,
				"element": "O" 
			},
			{
				"x": -0.2167731783,
				"y": -0.3403373571,
				"z": 0.9812528083,
				"element": "C" 
			},
			{
				"x": -0.220855465,
				"y": 0.8580478482,
				"z": 1.4964853967,
				"element": "N" 
			},
			{
				"x": -0.0599474757,
				"y": -1.6182629845,
				"z": 1.670231594,
				"element": "C" 
			},
			{
				"x": 0.1120104295,
				"y": -1.6291803937,
				"z": 3.0644095833,
				"element": "C" 
			},
			{
				"x": 0.2631684322,
				"y": -2.8371529196,
				"z": 3.7388612613,
				"element": "C" 
			},
			{
				"x": 0.244859351,
				"y": -4.0446787666,
				"z": 3.034598056,
				"element": "C" 
			},
			{
				"x": 0.0741081434,
				"y": -4.0373426875,
				"z": 1.6484789604,
				"element": "C" 
			},
			{
				"x": -0.0779316282,
				"y": -2.8323089655,
				"z": 0.9654686357,
				"element": "C" 
			},
			{
				"x": -0.8201051245,
				"y": 5.8424167459,
				"z": -1.0800256422,
				"element": "H" 
			},
			{
				"x": 0.463374896,
				"y": 3.5284764362,
				"z": 1.1508789483,
				"element": "H" 
			},
			{
				"x": -1.2581192376,
				"y": 3.4315179639,
				"z": 1.3640865886,
				"element": "H" 
			},
			{
				"x": -0.6413506483,
				"y": 1.2073902412,
				"z": -1.7599786726,
				"element": "H" 
			},
			{
				"x": 0.1241238691,
				"y": -0.6844866914,
				"z": 3.5973802478,
				"element": "H" 
			},
			{
				"x": 0.3957010154,
				"y": -2.8381801755,
				"z": 4.8168953011,
				"element": "H" 
			},
			{
				"x": 0.3630778654,
				"y": -4.9858305508,
				"z": 3.56371854,
				"element": "H" 
			},
			{
				"x": 0.0592122457,
				"y": -4.9728126921,
				"z": 1.0968250602,
				"element": "H" 
			},
			{
				"x": -0.2106030529,
				"y": -2.8243490356,
				"z": -0.111068754,
				"element": "H" 
			}
		],
		 "valence_orbital": [ 
			{
				"type": "occ",
				"energy": -0.28826,
				"method": "rhf"
			},
			{
				"type": "occ",
				"energy": -0.28521,
				"method": "rhf"
			},
			{
				"type": "occ",
				"energy": -0.27702,
				"method": "rhf"
			},
			{
				"type": "occ",
				"energy": -0.25442,
				"method": "rhf"
			},
			{
				"type": "occ",
				"energy": -0.21822,
				"method": "rhf"
			},
			{
				"type": "unocc",
				"energy": -0.03939,
				"method": "rhf"
			},
			{
				"type": "unocc",
				"energy": -0.0038,
				"method": "rhf"
			},
			{
				"type": "unocc",
				"energy": 0.00044,
				"method": "rhf"
			},
			{
				"type": "unocc",
				"energy": 0.03676,
				"method": "rhf"
			},
			{
				"type": "unocc",
				"energy": 0.07115,
				"method": "rhf"
			}
		],
		"cosmo_sigma_profile": { 
			"-0.025": 0.0,
			"-0.024": 0.0,
			"-0.023": 0.0,
			"-0.022": 0.0,
			"-0.021": 0.0,
			"-0.02": 0.0,
			"-0.019": 0.0903011486332,
			"-0.018": 0.994725303447,
			"-0.017": 0.724487975318,
			"-0.016": 0.89417764118,
			"-0.015": 0.854938679514,
			"-0.014": 0.763441865524,
			"-0.013": 0.227556400674,
			"-0.012": 0.733918574966,
			"-0.011": 0.986725538962,
			"-0.01": 0.938453447186,
			"-0.009": 0.82600616441,
			"-0.008": 3.53244954518,
			"-0.007": 7.04015313681,
			"-0.006": 12.4156777664,
			"-0.005": 15.8139977891,
			"-0.004": 17.2391187688,
			"-0.003": 12.7273193649,
			"-0.002": 12.6652734991,
			"-0.001": 13.6825496226,
			"0.0": 19.1588334873,
			"0.001": 18.4876867405,
			"0.002": 20.9550391566,
			"0.003": 16.6608282411,
			"0.004": 18.2810114509,
			"0.005": 12.5578704068,
			"0.006": 4.52335765418,
			"0.007": 4.3637266779,
			"0.008": 3.84928510357,
			"0.009": 4.35388762818,
			"0.01": 2.99681392882,
			"0.011": 3.98188215813,
			"0.012": 1.6994062545,
			"0.013": 0.97650946614,
			"0.014": 0.329866525423,
			"0.015": 0.0104322083923,
			"0.016": 0.0,
			"0.017": 0.0,
			"0.018": 0.0,
			"0.019": 0.0,
			"0.02": 0.0,
			"0.021": 0.0,
			"0.022": 0.0,
			"0.023": 0.0,
			"0.024": 0.0,
			"0.025": 0.0
		}
	}
}
