{
	 "smiles": "CC(C)CC1=CC(=CC2=CC=C(O2)C2=CC=C(C=C2)[N+]([O-])=O)C(=O)O1", 
	 "Tm": 435.15, 
	 "num_atms": 42, 
	 "gaussian": { 
		 "optdone": 1, 
		 "sigma_profile": "yes", 
		 "theory": "DFT", 
		 "functional": "B3LYP", 
		 "basiset": "6-31G**", 
		 "properties": { 
			 "R2extent": 16658.545, 
			 "electric_dipole_moment_norm": 8.95343047385, 
			 "electric_quadrupole_moment_norm": 39.5532352381, 
			 "total_energy": -1165.03035412, 
			 "HOMO_LUMO_gap": 0.10292, 
			 "cosmo_polarized_energy": -17.21, 
			 "cosmo_cavitation_energy": 47.92, 
			 "cosmo_dispersion_energy": -33.57, 
			 "cosmo_repulsion_energy": 2.5, 
			 "cosmo_total_nonelectrostatic_energy": 16.85, 
			 "SMD_solvation_energy": 11.4 
		},
		"coords": [
			{
				"x": -5.1295258571,
				"y": 0.2018644185,
				"z": -1.6569005655,
				"element": "C" 
			},
			{
				"x": -4.5678684582,
				"y": 0.0536330079,
				"z": -3.0769644182,
				"element": "C" 
			},
			{
				"x": -5.694713769,
				"y": -0.0464094515,
				"z": -4.1134532721,
				"element": "C" 
			},
			{
				"x": -3.6271787926,
				"y": -1.1741534428,
				"z": -3.1958425448,
				"element": "C" 
			},
			{
				"x": -2.395411794,
				"y": -1.084319785,
				"z": -2.366715844,
				"element": "C" 
			},
			{
				"x": -1.9250348882,
				"y": -1.8248964151,
				"z": -1.3400765905,
				"element": "C" 
			},
			{
				"x": -0.6574114143,
				"y": -1.2658996008,
				"z": -0.9223026334,
				"element": "C" 
			},
			{
				"x": 0.1303103086,
				"y": -1.7421973607,
				"z": 0.0901492137,
				"element": "C" 
			},
			{
				"x": 1.3821425022,
				"y": -1.3128682129,
				"z": 0.6138890016,
				"element": "C" 
			},
			{
				"x": 2.1345070547,
				"y": -1.8445829613,
				"z": 1.6523333813,
				"element": "C" 
			},
			{
				"x": 3.2929118099,
				"y": -1.047110484,
				"z": 1.7705264178,
				"element": "C" 
			},
			{
				"x": 3.1965574966,
				"y": -0.0659957243,
				"z": 0.8006116327,
				"element": "C" 
			},
			{
				"x": 2.0391052416,
				"y": -0.2323349619,
				"z": 0.1051652171,
				"element": "O" 
			},
			{
				"x": 4.0391032988,
				"y": 1.0451381671,
				"z": 0.4004964183,
				"element": "C" 
			},
			{
				"x": 3.6410784936,
				"y": 1.8871743856,
				"z": -0.6596120926,
				"element": "C" 
			},
			{
				"x": 4.4443752035,
				"y": 2.9522730435,
				"z": -1.0458898417,
				"element": "C" 
			},
			{
				"x": 5.6458126164,
				"y": 3.1765421879,
				"z": -0.3731218274,
				"element": "C" 
			},
			{
				"x": 6.063924522,
				"y": 2.3593044505,
				"z": 0.6786991401,
				"element": "C" 
			},
			{
				"x": 5.2588195811,
				"y": 1.2968444349,
				"z": 1.0611954335,
				"element": "C" 
			},
			{
				"x": 6.4953219211,
				"y": 4.3008911373,
				"z": -0.7794430236,
				"element": "N" 
			},
			{
				"x": 6.1049006091,
				"y": 5.0072260528,
				"z": -1.7096611035,
				"element": "O" 
			},
			{
				"x": 7.5501510482,
				"y": 4.4722511026,
				"z": -0.1654832791,
				"element": "O" 
			},
			{
				"x": -0.4337395964,
				"y": -0.0964460347,
				"z": -1.8266652091,
				"element": "C" 
			},
			{
				"x": 0.4486803942,
				"y": 0.7185308094,
				"z": -1.9219696,
				"element": "O" 
			},
			{
				"x": -1.5356120877,
				"y": -0.0454115197,
				"z": -2.6850486467,
				"element": "O" 
			},
			{
				"x": -5.7469019962,
				"y": -0.6644833847,
				"z": -1.3879309872,
				"element": "H" 
			},
			{
				"x": -5.7589589965,
				"y": 1.0942522115,
				"z": -1.5786893071,
				"element": "H" 
			},
			{
				"x": -4.3321745251,
				"y": 0.2875943254,
				"z": -0.9122992266,
				"element": "H" 
			},
			{
				"x": -3.9674232158,
				"y": 0.9434895943,
				"z": -3.3054593729,
				"element": "H" 
			},
			{
				"x": -5.2989544266,
				"y": -0.1105398383,
				"z": -5.1328316752,
				"element": "H" 
			},
			{
				"x": -6.35048591,
				"y": 0.8288991187,
				"z": -4.0634326102,
				"element": "H" 
			},
			{
				"x": -6.3141581786,
				"y": -0.934637963,
				"z": -3.9378869048,
				"element": "H" 
			},
			{
				"x": -4.1675885226,
				"y": -2.0862558836,
				"z": -2.9157601577,
				"element": "H" 
			},
			{
				"x": -3.3276901068,
				"y": -1.2854010937,
				"z": -4.2470737685,
				"element": "H" 
			},
			{
				"x": -2.4118031793,
				"y": -2.6890506413,
				"z": -0.9094731188,
				"element": "H" 
			},
			{
				"x": -0.2534835224,
				"y": -2.6178891655,
				"z": 0.6104256179,
				"element": "H" 
			},
			{
				"x": 1.8687401249,
				"y": -2.706793698,
				"z": 2.2474500674,
				"element": "H" 
			},
			{
				"x": 4.0992124471,
				"y": -1.1739155014,
				"z": 2.4778740481,
				"element": "H" 
			},
			{
				"x": 2.7029762412,
				"y": 1.6949183556,
				"z": -1.1695753726,
				"element": "H" 
			},
			{
				"x": 4.1582440459,
				"y": 3.610657144,
				"z": -1.8564509621,
				"element": "H" 
			},
			{
				"x": 7.0037894283,
				"y": 2.5692222157,
				"z": 1.1732360456,
				"element": "H" 
			},
			{
				"x": 5.5769548483,
				"y": 0.656886961,
				"z": 1.8777623205,
				"element": "H" 
			}
		],
		 "valence_orbital": [ 
			{
				"type": "occ",
				"energy": -0.28286,
				"method": "rhf"
			},
			{
				"type": "occ",
				"energy": -0.27868,
				"method": "rhf"
			},
			{
				"type": "occ",
				"energy": -0.27441,
				"method": "rhf"
			},
			{
				"type": "occ",
				"energy": -0.25389,
				"method": "rhf"
			},
			{
				"type": "occ",
				"energy": -0.20423,
				"method": "rhf"
			},
			{
				"type": "unocc",
				"energy": -0.10131,
				"method": "rhf"
			},
			{
				"type": "unocc",
				"energy": -0.07415,
				"method": "rhf"
			},
			{
				"type": "unocc",
				"energy": -0.0229,
				"method": "rhf"
			},
			{
				"type": "unocc",
				"energy": -0.01722,
				"method": "rhf"
			},
			{
				"type": "unocc",
				"energy": 0.0259,
				"method": "rhf"
			}
		],
		"cosmo_sigma_profile": { 
			"-0.025": 0.0,
			"-0.024": 0.0,
			"-0.023": 0.0,
			"-0.022": 0.0,
			"-0.021": 0.0,
			"-0.02": 0.0,
			"-0.019": 0.0,
			"-0.018": 0.0,
			"-0.017": 0.0,
			"-0.016": 0.0,
			"-0.015": 0.0,
			"-0.014": 0.0,
			"-0.013": 0.0,
			"-0.012": 0.0,
			"-0.011": 0.0,
			"-0.01": 0.240015795243,
			"-0.009": 4.36207209319,
			"-0.008": 10.6426934674,
			"-0.007": 12.5038259593,
			"-0.006": 12.2208922402,
			"-0.005": 14.5477533975,
			"-0.004": 17.5199284068,
			"-0.003": 27.1679916882,
			"-0.002": 36.3686652416,
			"-0.001": 39.2175250819,
			"0.0": 49.2948039499,
			"0.001": 52.2408044351,
			"0.002": 30.2570784168,
			"0.003": 12.8300031979,
			"0.004": 6.60000362232,
			"0.005": 6.37468235735,
			"0.006": 7.34331920869,
			"0.007": 9.44583994101,
			"0.008": 13.7777757539,
			"0.009": 9.67576595978,
			"0.01": 6.33410530812,
			"0.011": 2.13568483329,
			"0.012": 1.41459835024,
			"0.013": 0.147622314188,
			"0.014": 0.0,
			"0.015": 0.0,
			"0.016": 0.0,
			"0.017": 0.0,
			"0.018": 0.0,
			"0.019": 0.0,
			"0.02": 0.0,
			"0.021": 0.0,
			"0.022": 0.0,
			"0.023": 0.0,
			"0.024": 0.0,
			"0.025": 0.0
		}
	}
}
