{
	 "smiles": "CC(C)COC(=O)C(C)C", 
	 "Tm": 192.65, 
	 "num_atms": 26, 
	 "gaussian": { 
		 "optdone": 1, 
		 "sigma_profile": "yes", 
		 "theory": "DFT", 
		 "functional": "B3LYP", 
		 "basiset": "6-31G**", 
		 "properties": { 
			 "R2extent": 2442.684, 
			 "electric_dipole_moment_norm": 1.86943259039, 
			 "electric_quadrupole_moment_norm": 6.05903196064, 
			 "total_energy": -464.975578706, 
			 "HOMO_LUMO_gap": 0.27845, 
			 "cosmo_polarized_energy": -5.95, 
			 "cosmo_cavitation_energy": 27.97, 
			 "cosmo_dispersion_energy": -18.97, 
			 "cosmo_repulsion_energy": 1.58, 
			 "cosmo_total_nonelectrostatic_energy": 10.57, 
			 "SMD_solvation_energy": 5.86 
		},
		"coords": [
			{
				"x": -1.1293920024,
				"y": 1.3635620366,
				"z": 1.87353989,
				"element": "C" 
			},
			{
				"x": -2.5610124577,
				"y": 1.1276932764,
				"z": 1.3711559727,
				"element": "C" 
			},
			{
				"x": -3.255482179,
				"y": -0.0012233936,
				"z": 2.1465669278,
				"element": "C" 
			},
			{
				"x": -2.604764419,
				"y": 0.8918194994,
				"z": -0.1418838006,
				"element": "C" 
			},
			{
				"x": -1.9087857014,
				"y": -0.3253032493,
				"z": -0.5040472401,
				"element": "O" 
			},
			{
				"x": -0.766747028,
				"y": -0.2134584647,
				"z": -1.2287910932,
				"element": "C" 
			},
			{
				"x": -0.2832563054,
				"y": 0.8421657451,
				"z": -1.5781520422,
				"element": "O" 
			},
			{
				"x": -0.1869381132,
				"y": -1.583667866,
				"z": -1.5573435357,
				"element": "C" 
			},
			{
				"x": 0.1607099233,
				"y": -2.3692413539,
				"z": -0.2811230723,
				"element": "C" 
			},
			{
				"x": -1.14544473,
				"y": -2.3762978279,
				"z": -2.464574925,
				"element": "C" 
			},
			{
				"x": -0.5225935052,
				"y": 0.4586763883,
				"z": 1.7622808177,
				"element": "H" 
			},
			{
				"x": -1.1305825595,
				"y": 1.6314941175,
				"z": 2.9351158564,
				"element": "H" 
			},
			{
				"x": -0.6356184999,
				"y": 2.1668243774,
				"z": 1.3179880119,
				"element": "H" 
			},
			{
				"x": -3.1343243521,
				"y": 2.0538417023,
				"z": 1.5282582753,
				"element": "H" 
			},
			{
				"x": -3.259789793,
				"y": 0.2076421862,
				"z": 3.221363147,
				"element": "H" 
			},
			{
				"x": -2.7394209621,
				"y": -0.953874762,
				"z": 1.9905692834,
				"element": "H" 
			},
			{
				"x": -4.2953458311,
				"y": -0.1270746216,
				"z": 1.824867091,
				"element": "H" 
			},
			{
				"x": -3.6369725595,
				"y": 0.7513468387,
				"z": -0.4793325754,
				"element": "H" 
			},
			{
				"x": -2.1539546364,
				"y": 1.7242233809,
				"z": -0.6859613302,
				"element": "H" 
			},
			{
				"x": 0.7335779529,
				"y": -1.3697885698,
				"z": -2.1095406737,
				"element": "H" 
			},
			{
				"x": 0.8552901227,
				"y": -1.8123582379,
				"z": 0.3561188333,
				"element": "H" 
			},
			{
				"x": 0.6355945374,
				"y": -3.3201234255,
				"z": -0.5437677061,
				"element": "H" 
			},
			{
				"x": -0.7396456882,
				"y": -2.5859006001,
				"z": 0.3005472418,
				"element": "H" 
			},
			{
				"x": -1.3744788896,
				"y": -1.8252778981,
				"z": -3.3822666267,
				"element": "H" 
			},
			{
				"x": -0.6904383636,
				"y": -3.3304519816,
				"z": -2.7493900775,
				"element": "H" 
			},
			{
				"x": -2.0859839598,
				"y": -2.5852472966,
				"z": -1.9468966495,
				"element": "H" 
			}
		],
		 "valence_orbital": [ 
			{
				"type": "occ",
				"energy": -0.33739,
				"method": "rhf"
			},
			{
				"type": "occ",
				"energy": -0.33099,
				"method": "rhf"
			},
			{
				"type": "occ",
				"energy": -0.32347,
				"method": "rhf"
			},
			{
				"type": "occ",
				"energy": -0.28812,
				"method": "rhf"
			},
			{
				"type": "occ",
				"energy": -0.26204,
				"method": "rhf"
			},
			{
				"type": "unocc",
				"energy": 0.01641,
				"method": "rhf"
			},
			{
				"type": "unocc",
				"energy": 0.07395,
				"method": "rhf"
			},
			{
				"type": "unocc",
				"energy": 0.09654,
				"method": "rhf"
			},
			{
				"type": "unocc",
				"energy": 0.12186,
				"method": "rhf"
			},
			{
				"type": "unocc",
				"energy": 0.12875,
				"method": "rhf"
			}
		],
		"cosmo_sigma_profile": { 
			"-0.025": 0.0,
			"-0.024": 0.0,
			"-0.023": 0.0,
			"-0.022": 0.0,
			"-0.021": 0.0,
			"-0.02": 0.0,
			"-0.019": 0.0,
			"-0.018": 0.0,
			"-0.017": 0.0,
			"-0.016": 0.0,
			"-0.015": 0.0,
			"-0.014": 0.0,
			"-0.013": 0.0,
			"-0.012": 0.0,
			"-0.011": 0.0,
			"-0.01": 0.0,
			"-0.009": 0.0,
			"-0.008": 0.0,
			"-0.007": 0.0,
			"-0.006": 0.114379073094,
			"-0.005": 2.34844495786,
			"-0.004": 14.4447342526,
			"-0.003": 33.33066488,
			"-0.002": 35.288554816,
			"-0.001": 31.9998378566,
			"0.0": 30.9230619326,
			"0.001": 26.51912407,
			"0.002": 10.1246113164,
			"0.003": 5.54746606556,
			"0.004": 4.37225495779,
			"0.005": 3.49275720816,
			"0.006": 2.39869574994,
			"0.007": 1.88756515244,
			"0.008": 1.59589419108,
			"0.009": 1.73842180745,
			"0.01": 1.03487514851,
			"0.011": 2.7663584859,
			"0.012": 4.21053161799,
			"0.013": 1.96722642205,
			"0.014": 0.137554614962,
			"0.015": 0.0,
			"0.016": 0.0,
			"0.017": 0.0,
			"0.018": 0.0,
			"0.019": 0.0,
			"0.02": 0.0,
			"0.021": 0.0,
			"0.022": 0.0,
			"0.023": 0.0,
			"0.024": 0.0,
			"0.025": 0.0
		}
	}
}
