{
	 "smiles": "O=CC1=CN=C(C=C1)N1CCCCC1", 
	 "Tm": 316.15, 
	 "num_atms": 28, 
	 "gaussian": { 
		 "optdone": 1, 
		 "sigma_profile": "yes", 
		 "theory": "DFT", 
		 "functional": "B3LYP", 
		 "basiset": "6-31G**", 
		 "properties": { 
			 "R2extent": 4507.7685, 
			 "electric_dipole_moment_norm": 6.289235157, 
			 "electric_quadrupole_moment_norm": 24.9617422629, 
			 "total_energy": -612.334134468, 
			 "HOMO_LUMO_gap": 0.16302, 
			 "cosmo_polarized_energy": -11.13, 
			 "cosmo_cavitation_energy": 29.96, 
			 "cosmo_dispersion_energy": -22.24, 
			 "cosmo_repulsion_energy": 1.74, 
			 "cosmo_total_nonelectrostatic_energy": 9.46, 
			 "SMD_solvation_energy": 4.02 
		},
		"coords": [
			{
				"x": -5.7660982123,
				"y": -0.5262107369,
				"z": 0.2098949444,
				"element": "O" 
			},
			{
				"x": -4.8959475326,
				"y": -0.9637005255,
				"z": 0.9451301512,
				"element": "C" 
			},
			{
				"x": -3.5344036465,
				"y": -0.432220364,
				"z": 1.0523912533,
				"element": "C" 
			},
			{
				"x": -3.1160413745,
				"y": 0.6681408284,
				"z": 0.2858934436,
				"element": "C" 
			},
			{
				"x": -1.9020160958,
				"y": 1.1977121913,
				"z": 0.3352501856,
				"element": "N" 
			},
			{
				"x": -0.9873843843,
				"y": 0.6503702557,
				"z": 1.1745622844,
				"element": "C" 
			},
			{
				"x": -1.3128352418,
				"y": -0.4614286257,
				"z": 2.0020595313,
				"element": "C" 
			},
			{
				"x": -2.5866701633,
				"y": -0.9895801423,
				"z": 1.9265856289,
				"element": "C" 
			},
			{
				"x": 0.2601145429,
				"y": 1.2108946693,
				"z": 1.1885163835,
				"element": "N" 
			},
			{
				"x": 1.3057778552,
				"y": 0.6870536989,
				"z": 2.0722464666,
				"element": "C" 
			},
			{
				"x": 2.6494092231,
				"y": 1.3790644142,
				"z": 1.810492709,
				"element": "C" 
			},
			{
				"x": 2.9459574925,
				"y": 1.4301900388,
				"z": 0.3064191485,
				"element": "C" 
			},
			{
				"x": 1.8315817836,
				"y": 2.195219091,
				"z": -0.4578608696,
				"element": "C" 
			},
			{
				"x": 0.5808800395,
				"y": 2.4112535885,
				"z": 0.4104754103,
				"element": "C" 
			},
			{
				"x": -5.0999666489,
				"y": -1.8363905216,
				"z": 1.6086563481,
				"element": "H" 
			},
			{
				"x": -3.8253957898,
				"y": 1.1288617178,
				"z": -0.3990182927,
				"element": "H" 
			},
			{
				"x": -0.5869626694,
				"y": -0.8851638636,
				"z": 2.683404664,
				"element": "H" 
			},
			{
				"x": -2.8599630733,
				"y": -1.8390566722,
				"z": 2.5495894559,
				"element": "H" 
			},
			{
				"x": 1.0144978281,
				"y": 0.8019537652,
				"z": 3.1275600384,
				"element": "H" 
			},
			{
				"x": 1.4222379215,
				"y": -0.3901342376,
				"z": 1.8873813827,
				"element": "H" 
			},
			{
				"x": 2.6425525181,
				"y": 2.3916829739,
				"z": 2.2307772486,
				"element": "H" 
			},
			{
				"x": 3.4298918726,
				"y": 0.8276727027,
				"z": 2.3453790637,
				"element": "H" 
			},
			{
				"x": 3.9243606557,
				"y": 1.8882183123,
				"z": 0.1291129206,
				"element": "H" 
			},
			{
				"x": 3.0149072809,
				"y": 0.4017550308,
				"z": -0.0686007732,
				"element": "H" 
			},
			{
				"x": 2.1893795701,
				"y": 3.1777943801,
				"z": -0.7861239773,
				"element": "H" 
			},
			{
				"x": 1.5533477358,
				"y": 1.6441644491,
				"z": -1.362005542,
				"element": "H" 
			},
			{
				"x": -0.2895716619,
				"y": 2.6481088849,
				"z": -0.1975427075,
				"element": "H" 
			},
			{
				"x": 0.7391601748,
				"y": 3.2528746966,
				"z": 1.0995734997,
				"element": "H" 
			}
		],
		 "valence_orbital": [ 
			{
				"type": "occ",
				"energy": -0.29445,
				"method": "rhf"
			},
			{
				"type": "occ",
				"energy": -0.28394,
				"method": "rhf"
			},
			{
				"type": "occ",
				"energy": -0.26264,
				"method": "rhf"
			},
			{
				"type": "occ",
				"energy": -0.23646,
				"method": "rhf"
			},
			{
				"type": "occ",
				"energy": -0.20783,
				"method": "rhf"
			},
			{
				"type": "unocc",
				"energy": -0.04481,
				"method": "rhf"
			},
			{
				"type": "unocc",
				"energy": -0.0207,
				"method": "rhf"
			},
			{
				"type": "unocc",
				"energy": 0.05266,
				"method": "rhf"
			},
			{
				"type": "unocc",
				"energy": 0.07073,
				"method": "rhf"
			},
			{
				"type": "unocc",
				"energy": 0.09814,
				"method": "rhf"
			}
		],
		"cosmo_sigma_profile": { 
			"-0.025": 0.0,
			"-0.024": 0.0,
			"-0.023": 0.0,
			"-0.022": 0.0,
			"-0.021": 0.0,
			"-0.02": 0.0,
			"-0.019": 0.0,
			"-0.018": 0.0,
			"-0.017": 0.0,
			"-0.016": 0.0,
			"-0.015": 0.0,
			"-0.014": 0.0,
			"-0.013": 0.0,
			"-0.012": 0.0,
			"-0.011": 0.0,
			"-0.01": 0.0,
			"-0.009": 0.0,
			"-0.008": 0.190688191106,
			"-0.007": 4.54199063664,
			"-0.006": 7.27319108238,
			"-0.005": 12.1921017323,
			"-0.004": 19.4956414927,
			"-0.003": 30.7247102743,
			"-0.002": 31.4300569753,
			"-0.001": 25.353963621,
			"0.0": 21.11675209,
			"0.001": 21.1727616359,
			"0.002": 16.085939904,
			"0.003": 9.22485019137,
			"0.004": 5.2590047251,
			"0.005": 3.97295021488,
			"0.006": 3.21413512182,
			"0.007": 2.72890795942,
			"0.008": 3.15055178751,
			"0.009": 3.51790588059,
			"0.01": 3.30056963977,
			"0.011": 3.58514472887,
			"0.012": 4.64830405688,
			"0.013": 3.03945735706,
			"0.014": 0.829891026473,
			"0.015": 0.0111817915286,
			"0.016": 0.0,
			"0.017": 0.0,
			"0.018": 0.0,
			"0.019": 0.0,
			"0.02": 0.0,
			"0.021": 0.0,
			"0.022": 0.0,
			"0.023": 0.0,
			"0.024": 0.0,
			"0.025": 0.0
		}
	}
}
