{
	 "smiles": "CCOC(=O)C(=NOC)C1=CSC(N)=N1", 
	 "Tm": 433.15, 
	 "num_atms": 26, 
	 "gaussian": { 
		 "optdone": 1, 
		 "sigma_profile": "yes", 
		 "theory": "DFT", 
		 "functional": "B3LYP", 
		 "basiset": "6-31G**", 
		 "properties": { 
			 "R2extent": 4625.3538, 
			 "electric_dipole_moment_norm": 2.13044469771, 
			 "electric_quadrupole_moment_norm": 16.4492361902, 
			 "total_energy": -1099.52503875, 
			 "HOMO_LUMO_gap": 0.15562, 
			 "cosmo_polarized_energy": -16.23, 
			 "cosmo_cavitation_energy": 32.97, 
			 "cosmo_dispersion_energy": -24.24, 
			 "cosmo_repulsion_energy": 1.95, 
			 "cosmo_total_nonelectrostatic_energy": 10.68, 
			 "SMD_solvation_energy": 6.22 
		},
		"coords": [
			{
				"x": -1.2642176082,
				"y": -2.0371519411,
				"z": 3.6274524925,
				"element": "C" 
			},
			{
				"x": -1.2052421487,
				"y": -2.7151886753,
				"z": 2.266720376,
				"element": "C" 
			},
			{
				"x": -0.3508216903,
				"y": -1.9884390247,
				"z": 1.3515493878,
				"element": "O" 
			},
			{
				"x": -0.9170031146,
				"y": -0.9615853498,
				"z": 0.6963229047,
				"element": "C" 
			},
			{
				"x": -2.0917257476,
				"y": -0.6579904694,
				"z": 0.7990603786,
				"element": "O" 
			},
			{
				"x": 0.0625641944,
				"y": -0.2223255538,
				"z": -0.1792135359,
				"element": "C" 
			},
			{
				"x": 1.2918503785,
				"y": -0.3486360923,
				"z": 0.2060386734,
				"element": "N" 
			},
			{
				"x": 2.1920395039,
				"y": 0.4039881135,
				"z": -0.499998637,
				"element": "O" 
			},
			{
				"x": 3.4996659937,
				"y": 0.1811823094,
				"z": 0.0311658615,
				"element": "C" 
			},
			{
				"x": -0.4582465414,
				"y": 0.5708392256,
				"z": -1.312255017,
				"element": "C" 
			},
			{
				"x": -1.6938410932,
				"y": 1.1632095373,
				"z": -1.3421179089,
				"element": "C" 
			},
			{
				"x": -1.9330773124,
				"y": 1.9821541222,
				"z": -2.8580489815,
				"element": "S" 
			},
			{
				"x": -0.3108990206,
				"y": 1.4495177624,
				"z": -3.3389405492,
				"element": "C" 
			},
			{
				"x": 0.1768675947,
				"y": 1.7159396363,
				"z": -4.6007904216,
				"element": "N" 
			},
			{
				"x": 0.3168776508,
				"y": 0.7425958629,
				"z": -2.4518708288,
				"element": "N" 
			},
			{
				"x": -0.2600243573,
				"y": -1.9093081836,
				"z": 4.0416950924,
				"element": "H" 
			},
			{
				"x": -1.7426622785,
				"y": -1.0578741642,
				"z": 3.5492764158,
				"element": "H" 
			},
			{
				"x": -1.8487651264,
				"y": -2.6500162641,
				"z": 4.3218413399,
				"element": "H" 
			},
			{
				"x": -0.7446939162,
				"y": -3.7035994373,
				"z": 2.3317976653,
				"element": "H" 
			},
			{
				"x": -2.2011849166,
				"y": -2.8061047776,
				"z": 1.8266204173,
				"element": "H" 
			},
			{
				"x": 3.5468250038,
				"y": 0.4631221406,
				"z": 1.0881656307,
				"element": "H" 
			},
			{
				"x": 3.7932994993,
				"y": -0.8673828621,
				"z": -0.0807736307,
				"element": "H" 
			},
			{
				"x": 4.1618405757,
				"y": 0.8195597495,
				"z": -0.5565977809,
				"element": "H" 
			},
			{
				"x": -2.4554603407,
				"y": 1.1474492997,
				"z": -0.5804075116,
				"element": "H" 
			},
			{
				"x": -0.1031452193,
				"y": 2.5927131412,
				"z": -5.0172855524,
				"element": "H" 
			},
			{
				"x": 1.168680037,
				"y": 1.5295318946,
				"z": -4.6777062802,
				"element": "H" 
			}
		],
		 "valence_orbital": [ 
			{
				"type": "occ",
				"energy": -0.28098,
				"method": "rhf"
			},
			{
				"type": "occ",
				"energy": -0.27141,
				"method": "rhf"
			},
			{
				"type": "occ",
				"energy": -0.25888,
				"method": "rhf"
			},
			{
				"type": "occ",
				"energy": -0.24765,
				"method": "rhf"
			},
			{
				"type": "occ",
				"energy": -0.20612,
				"method": "rhf"
			},
			{
				"type": "unocc",
				"energy": -0.0505,
				"method": "rhf"
			},
			{
				"type": "unocc",
				"energy": -0.0003,
				"method": "rhf"
			},
			{
				"type": "unocc",
				"energy": 0.01527,
				"method": "rhf"
			},
			{
				"type": "unocc",
				"energy": 0.04774,
				"method": "rhf"
			},
			{
				"type": "unocc",
				"energy": 0.07422,
				"method": "rhf"
			}
		],
		"cosmo_sigma_profile": { 
			"-0.025": 0.0,
			"-0.024": 0.0,
			"-0.023": 0.0,
			"-0.022": 0.0,
			"-0.021": 0.0,
			"-0.02": 0.0,
			"-0.019": 0.0,
			"-0.018": 0.0,
			"-0.017": 0.0,
			"-0.016": 0.0,
			"-0.015": 0.475917526058,
			"-0.014": 2.14625332353,
			"-0.013": 2.34076893261,
			"-0.012": 3.01000963167,
			"-0.011": 2.643362823,
			"-0.01": 2.5173652416,
			"-0.009": 2.11491889093,
			"-0.008": 2.02436510283,
			"-0.007": 3.2792198077,
			"-0.006": 8.77953460316,
			"-0.005": 14.6572864692,
			"-0.004": 23.5775753783,
			"-0.003": 25.7835951094,
			"-0.002": 19.5423577578,
			"-0.001": 19.9848833364,
			"0.0": 19.2089445488,
			"0.001": 18.1136671286,
			"0.002": 17.4778573921,
			"0.003": 16.724763013,
			"0.004": 11.3189757683,
			"0.005": 6.84127002356,
			"0.006": 6.63986834971,
			"0.007": 5.62028100149,
			"0.008": 5.84415987636,
			"0.009": 4.68790229451,
			"0.01": 4.98689831319,
			"0.011": 5.35788329453,
			"0.012": 2.91412360802,
			"0.013": 1.36841106431,
			"0.014": 2.06552817196,
			"0.015": 1.09982959331,
			"0.016": 0.803559125866,
			"0.017": 0.154842709072,
			"0.018": 0.0,
			"0.019": 0.0,
			"0.02": 0.0,
			"0.021": 0.0,
			"0.022": 0.0,
			"0.023": 0.0,
			"0.024": 0.0,
			"0.025": 0.0
		}
	}
}
