{
	 "smiles": "CNC1=NC(CC(C)=O)=NS1", 
	 "Tm": 572.15, 
	 "num_atms": 20, 
	 "gaussian": { 
		 "optdone": 1, 
		 "sigma_profile": "yes", 
		 "theory": "DFT", 
		 "functional": "B3LYP", 
		 "basiset": "6-31G**", 
		 "properties": { 
			 "R2extent": 2919.0815, 
			 "electric_dipole_moment_norm": 5.19435241777, 
			 "electric_quadrupole_moment_norm": 9.62662670981, 
			 "total_energy": -871.723970161, 
			 "HOMO_LUMO_gap": 0.20664, 
			 "cosmo_polarized_energy": -15.24, 
			 "cosmo_cavitation_energy": 26.24, 
			 "cosmo_dispersion_energy": -19.06, 
			 "cosmo_repulsion_energy": 1.53, 
			 "cosmo_total_nonelectrostatic_energy": 8.7, 
			 "SMD_solvation_energy": 2.07 
		},
		"coords": [
			{
				"x": 2.1507380148,
				"y": 1.6589547283,
				"z": -1.1006084532,
				"element": "C" 
			},
			{
				"x": 1.36143954,
				"y": 1.2184351242,
				"z": -2.2438984971,
				"element": "N" 
			},
			{
				"x": 0.5007868718,
				"y": 0.1797449866,
				"z": -2.1457787811,
				"element": "C" 
			},
			{
				"x": 0.3975320839,
				"y": -0.5982698768,
				"z": -1.0915958326,
				"element": "N" 
			},
			{
				"x": -0.5376107553,
				"y": -1.5740620427,
				"z": -1.3468789057,
				"element": "C" 
			},
			{
				"x": -0.8376783837,
				"y": -2.5921551789,
				"z": -0.2834964269,
				"element": "C" 
			},
			{
				"x": -1.4562803263,
				"y": -2.0185583309,
				"z": 1.0018376707,
				"element": "C" 
			},
			{
				"x": -2.4827106957,
				"y": -0.9145784469,
				"z": 0.8446042302,
				"element": "C" 
			},
			{
				"x": -1.1458997242,
				"y": -2.4684436133,
				"z": 2.0859642459,
				"element": "O" 
			},
			{
				"x": -1.1746902044,
				"y": -1.6095546582,
				"z": -2.4949710081,
				"element": "N" 
			},
			{
				"x": -0.5923227172,
				"y": -0.3252050009,
				"z": -3.4399795238,
				"element": "S" 
			},
			{
				"x": 2.9244704748,
				"y": 2.3438730766,
				"z": -1.4531463129,
				"element": "H" 
			},
			{
				"x": 1.5380696764,
				"y": 2.1647416701,
				"z": -0.343969036,
				"element": "H" 
			},
			{
				"x": 2.6231174118,
				"y": 0.7933313503,
				"z": -0.6332060008,
				"element": "H" 
			},
			{
				"x": 1.2492442333,
				"y": 1.8542492217,
				"z": -3.017673422,
				"element": "H" 
			},
			{
				"x": -1.5458564685,
				"y": -3.3190567475,
				"z": -0.6973297964,
				"element": "H" 
			},
			{
				"x": 0.0721048535,
				"y": -3.1241574058,
				"z": 0.0075650624,
				"element": "H" 
			},
			{
				"x": -1.9747889385,
				"y": 0.0076945677,
				"z": 0.539857292,
				"element": "H" 
			},
			{
				"x": -2.9923091149,
				"y": -0.7491154396,
				"z": 1.7946601373,
				"element": "H" 
			},
			{
				"x": -3.2048558314,
				"y": -1.1558679841,
				"z": 0.0574433583,
				"element": "H" 
			}
		],
		 "valence_orbital": [ 
			{
				"type": "occ",
				"energy": -0.31571,
				"method": "rhf"
			},
			{
				"type": "occ",
				"energy": -0.28563,
				"method": "rhf"
			},
			{
				"type": "occ",
				"energy": -0.2774,
				"method": "rhf"
			},
			{
				"type": "occ",
				"energy": -0.24397,
				"method": "rhf"
			},
			{
				"type": "occ",
				"energy": -0.2288,
				"method": "rhf"
			},
			{
				"type": "unocc",
				"energy": -0.02216,
				"method": "rhf"
			},
			{
				"type": "unocc",
				"energy": -0.0097,
				"method": "rhf"
			},
			{
				"type": "unocc",
				"energy": -0.00423,
				"method": "rhf"
			},
			{
				"type": "unocc",
				"energy": 0.04634,
				"method": "rhf"
			},
			{
				"type": "unocc",
				"energy": 0.07205,
				"method": "rhf"
			}
		],
		"cosmo_sigma_profile": { 
			"-0.025": 0.0,
			"-0.024": 0.0,
			"-0.023": 0.0,
			"-0.022": 0.0,
			"-0.021": 0.0,
			"-0.02": 0.0,
			"-0.019": 0.0,
			"-0.018": 0.0,
			"-0.017": 0.0,
			"-0.016": 1.04217896874,
			"-0.015": 1.69389217765,
			"-0.014": 1.50254960312,
			"-0.013": 1.37588638471,
			"-0.012": 1.52118138863,
			"-0.011": 1.05045209319,
			"-0.01": 1.11296707888,
			"-0.009": 1.2027688335,
			"-0.008": 2.29711620315,
			"-0.007": 4.81699537161,
			"-0.006": 8.28582450216,
			"-0.005": 12.8700781623,
			"-0.004": 15.8614700511,
			"-0.003": 17.9818673694,
			"-0.002": 21.2732544668,
			"-0.001": 18.1142274907,
			"0.0": 13.9724461936,
			"0.001": 12.5040450023,
			"0.002": 11.9280872856,
			"0.003": 9.66740003226,
			"0.004": 9.47523445562,
			"0.005": 5.51967636243,
			"0.006": 4.08537168146,
			"0.007": 3.6377293293,
			"0.008": 3.5902236681,
			"0.009": 4.25874970721,
			"0.01": 3.94008159286,
			"0.011": 5.93321247395,
			"0.012": 5.68930765046,
			"0.013": 2.21382345729,
			"0.014": 1.22235131569,
			"0.015": 0.55698347228,
			"0.016": 0.0,
			"0.017": 0.0,
			"0.018": 0.0,
			"0.019": 0.0,
			"0.02": 0.0,
			"0.021": 0.0,
			"0.022": 0.0,
			"0.023": 0.0,
			"0.024": 0.0,
			"0.025": 0.0
		}
	}
}
