{
	 "smiles": "[O-][N+](=N/C1=CC=CC=C1)C1=CC=CC=C1", 
	 "Tm": 308.65, 
	 "num_atms": 25, 
	 "gaussian": { 
		 "optdone": 1, 
		 "sigma_profile": "yes", 
		 "theory": "DFT", 
		 "functional": "B3LYP", 
		 "basiset": "6-31G**", 
		 "properties": { 
			 "R2extent": 4148.8401, 
			 "electric_dipole_moment_norm": 1.74986503765, 
			 "electric_quadrupole_moment_norm": 13.5663418706, 
			 "total_energy": -647.947108974, 
			 "HOMO_LUMO_gap": 0.14358, 
			 "cosmo_polarized_energy": -7.13, 
			 "cosmo_cavitation_energy": 29.6, 
			 "cosmo_dispersion_energy": -22.05, 
			 "cosmo_repulsion_energy": 1.69, 
			 "cosmo_total_nonelectrostatic_energy": 9.24, 
			 "SMD_solvation_energy": 5.3 
		},
		"coords": [
			{
				"x": -1.2532068031,
				"y": -1.1838873472,
				"z": 0.4321480609,
				"element": "O" 
			},
			{
				"x": -0.643185173,
				"y": -0.3339119312,
				"z": -0.2682106398,
				"element": "N" 
			},
			{
				"x": 0.5988227386,
				"y": -0.0254173361,
				"z": -0.2283198924,
				"element": "N" 
			},
			{
				"x": 1.4785952865,
				"y": -0.6466332861,
				"z": 0.6655579659,
				"element": "C" 
			},
			{
				"x": 2.800042228,
				"y": -0.1609608556,
				"z": 0.5459652916,
				"element": "C" 
			},
			{
				"x": 3.8202322656,
				"y": -0.6535764859,
				"z": 1.3477679401,
				"element": "C" 
			},
			{
				"x": 3.5455310516,
				"y": -1.6474903676,
				"z": 2.2928544641,
				"element": "C" 
			},
			{
				"x": 2.2444281815,
				"y": -2.1352680417,
				"z": 2.4204530379,
				"element": "C" 
			},
			{
				"x": 1.2078960655,
				"y": -1.6509852719,
				"z": 1.6225461946,
				"element": "C" 
			},
			{
				"x": -1.4372002986,
				"y": 0.4029301034,
				"z": -1.2566359846,
				"element": "C" 
			},
			{
				"x": -0.8485425518,
				"y": 1.3660811495,
				"z": -2.0789212554,
				"element": "C" 
			},
			{
				"x": -1.6467728605,
				"y": 2.0381540935,
				"z": -3.0019762234,
				"element": "C" 
			},
			{
				"x": -3.0113057934,
				"y": 1.7513250039,
				"z": -3.1006696351,
				"element": "C" 
			},
			{
				"x": -3.5815498825,
				"y": 0.7851529238,
				"z": -2.2699113978,
				"element": "C" 
			},
			{
				"x": -2.7963901366,
				"y": 0.1036497163,
				"z": -1.3408943891,
				"element": "C" 
			},
			{
				"x": 2.9915042447,
				"y": 0.6099204669,
				"z": -0.1932910275,
				"element": "H" 
			},
			{
				"x": 4.8286434801,
				"y": -0.2653751324,
				"z": 1.2384555081,
				"element": "H" 
			},
			{
				"x": 4.3396830133,
				"y": -2.0369967729,
				"z": 2.9232212239,
				"element": "H" 
			},
			{
				"x": 2.026323417,
				"y": -2.9072189542,
				"z": 3.1531273262,
				"element": "H" 
			},
			{
				"x": 0.2066175083,
				"y": -2.0354888226,
				"z": 1.7301198088,
				"element": "H" 
			},
			{
				"x": 0.2092613646,
				"y": 1.5724369357,
				"z": -1.9859912843,
				"element": "H" 
			},
			{
				"x": -1.1996289482,
				"y": 2.7890031218,
				"z": -3.6463486382,
				"element": "H" 
			},
			{
				"x": -3.6264799608,
				"y": 2.2797996214,
				"z": -3.8228923558,
				"element": "H" 
			},
			{
				"x": -4.6408797338,
				"y": 0.5586426863,
				"z": -2.3425829624,
				"element": "H" 
			},
			{
				"x": -3.2093387033,
				"y": -0.650185217,
				"z": -0.6834711361,
				"element": "H" 
			}
		],
		 "valence_orbital": [ 
			{
				"type": "occ",
				"energy": -0.27021,
				"method": "rhf"
			},
			{
				"type": "occ",
				"energy": -0.26428,
				"method": "rhf"
			},
			{
				"type": "occ",
				"energy": -0.26396,
				"method": "rhf"
			},
			{
				"type": "occ",
				"energy": -0.252,
				"method": "rhf"
			},
			{
				"type": "occ",
				"energy": -0.22185,
				"method": "rhf"
			},
			{
				"type": "unocc",
				"energy": -0.07827,
				"method": "rhf"
			},
			{
				"type": "unocc",
				"energy": -0.014,
				"method": "rhf"
			},
			{
				"type": "unocc",
				"energy": -0.00058,
				"method": "rhf"
			},
			{
				"type": "unocc",
				"energy": -0.00014,
				"method": "rhf"
			},
			{
				"type": "unocc",
				"energy": 0.0397,
				"method": "rhf"
			}
		],
		"cosmo_sigma_profile": { 
			"-0.025": 0.0,
			"-0.024": 0.0,
			"-0.023": 0.0,
			"-0.022": 0.0,
			"-0.021": 0.0,
			"-0.02": 0.0,
			"-0.019": 0.0,
			"-0.018": 0.0,
			"-0.017": 0.0,
			"-0.016": 0.0,
			"-0.015": 0.0,
			"-0.014": 0.0,
			"-0.013": 0.0,
			"-0.012": 0.0,
			"-0.011": 0.0,
			"-0.01": 0.0,
			"-0.009": 0.0,
			"-0.008": 0.0,
			"-0.007": 3.50836427054,
			"-0.006": 16.4038302814,
			"-0.005": 19.0469856298,
			"-0.004": 19.5939938112,
			"-0.003": 15.9449610457,
			"-0.002": 15.3046567362,
			"-0.001": 13.5661280972,
			"0.0": 17.1283607772,
			"0.001": 20.6407783857,
			"0.002": 24.1589309709,
			"0.003": 29.4173600802,
			"0.004": 23.0286487876,
			"0.005": 8.55186114969,
			"0.006": 2.51262433143,
			"0.007": 1.90850923875,
			"0.008": 1.88044714018,
			"0.009": 3.15215366323,
			"0.01": 2.60813562335,
			"0.011": 0.196600603747,
			"0.012": 0.0,
			"0.013": 0.0,
			"0.014": 0.0,
			"0.015": 0.0,
			"0.016": 0.0,
			"0.017": 0.0,
			"0.018": 0.0,
			"0.019": 0.0,
			"0.02": 0.0,
			"0.021": 0.0,
			"0.022": 0.0,
			"0.023": 0.0,
			"0.024": 0.0,
			"0.025": 0.0
		}
	}
}
