{
	 "smiles": "ON=CC1=C(Cl)C=CC=C1F", 
	 "Tm": 406.15, 
	 "num_atms": 16, 
	 "gaussian": { 
		 "optdone": 1, 
		 "sigma_profile": "yes", 
		 "theory": "DFT", 
		 "functional": "B3LYP", 
		 "basiset": "6-31G**", 
		 "properties": { 
			 "R2extent": 2372.5291, 
			 "electric_dipole_moment_norm": 1.66369583157, 
			 "electric_quadrupole_moment_norm": 11.4805172288, 
			 "total_energy": -959.692118663, 
			 "HOMO_LUMO_gap": 0.18006, 
			 "cosmo_polarized_energy": -8.31, 
			 "cosmo_cavitation_energy": 23.1, 
			 "cosmo_dispersion_energy": -17.21, 
			 "cosmo_repulsion_energy": 1.38, 
			 "cosmo_total_nonelectrostatic_energy": 7.26, 
			 "SMD_solvation_energy": 4.77 
		},
		"coords": [
			{
				"x": -0.1237883546,
				"y": -2.3916426112,
				"z": -1.3217316111,
				"element": "O" 
			},
			{
				"x": 0.4307957214,
				"y": -1.1493511066,
				"z": -1.0040472004,
				"element": "N" 
			},
			{
				"x": -0.1880825508,
				"y": -0.6387367397,
				"z": -0.0007303965,
				"element": "C" 
			},
			{
				"x": 0.161097371,
				"y": 0.6630613489,
				"z": 0.5712452302,
				"element": "C" 
			},
			{
				"x": -0.544968971,
				"y": 1.190635933,
				"z": 1.6764895093,
				"element": "C" 
			},
			{
				"x": -1.8730204208,
				"y": 0.2891230738,
				"z": 2.3999574432,
				"element": "Cl" 
			},
			{
				"x": -0.2385587797,
				"y": 2.4253231031,
				"z": 2.244402399,
				"element": "C" 
			},
			{
				"x": 0.8026925154,
				"y": 3.1850481513,
				"z": 1.7150947591,
				"element": "C" 
			},
			{
				"x": 1.5301669581,
				"y": 2.7104660852,
				"z": 0.6257634404,
				"element": "C" 
			},
			{
				"x": 1.2028467506,
				"y": 1.4775123115,
				"z": 0.0806524056,
				"element": "C" 
			},
			{
				"x": 1.9244922047,
				"y": 1.0531085734,
				"z": -0.9667543115,
				"element": "F" 
			},
			{
				"x": 0.4129267595,
				"y": -2.671968531,
				"z": -2.0754650609,
				"element": "H" 
			},
			{
				"x": -1.011791091,
				"y": -1.1832671729,
				"z": 0.4583813383,
				"element": "H" 
			},
			{
				"x": -0.8140839684,
				"y": 2.7797773345,
				"z": 3.0912062038,
				"element": "H" 
			},
			{
				"x": 1.0459228468,
				"y": 4.1476047371,
				"z": 2.1533198417,
				"element": "H" 
			},
			{
				"x": 2.3464530089,
				"y": 3.2731055095,
				"z": 0.1872160097,
				"element": "H" 
			}
		],
		 "valence_orbital": [ 
			{
				"type": "occ",
				"energy": -0.32472,
				"method": "rhf"
			},
			{
				"type": "occ",
				"energy": -0.30406,
				"method": "rhf"
			},
			{
				"type": "occ",
				"energy": -0.27808,
				"method": "rhf"
			},
			{
				"type": "occ",
				"energy": -0.25436,
				"method": "rhf"
			},
			{
				"type": "occ",
				"energy": -0.23569,
				"method": "rhf"
			},
			{
				"type": "unocc",
				"energy": -0.05563,
				"method": "rhf"
			},
			{
				"type": "unocc",
				"energy": -0.01729,
				"method": "rhf"
			},
			{
				"type": "unocc",
				"energy": 0.01758,
				"method": "rhf"
			},
			{
				"type": "unocc",
				"energy": 0.03702,
				"method": "rhf"
			},
			{
				"type": "unocc",
				"energy": 0.07735,
				"method": "rhf"
			}
		],
		"cosmo_sigma_profile": { 
			"-0.025": 0.0,
			"-0.024": 0.0,
			"-0.023": 0.0,
			"-0.022": 0.0,
			"-0.021": 0.0,
			"-0.02": 0.0,
			"-0.019": 0.0,
			"-0.018": 0.292883243887,
			"-0.017": 1.22668792865,
			"-0.016": 0.749575469986,
			"-0.015": 0.853114878726,
			"-0.014": 1.08469528253,
			"-0.013": 0.794570100412,
			"-0.012": 0.663823071761,
			"-0.011": 0.341275974807,
			"-0.01": 0.639710003084,
			"-0.009": 0.594826329657,
			"-0.008": 3.85578339029,
			"-0.007": 7.15710471,
			"-0.006": 6.74986769967,
			"-0.005": 7.34864999722,
			"-0.004": 6.65118748004,
			"-0.003": 8.73461874442,
			"-0.002": 9.99307954535,
			"-0.001": 15.0755550465,
			"0.0": 22.4046747105,
			"0.001": 19.8283716206,
			"0.002": 18.9143486962,
			"0.003": 15.1654512029,
			"0.004": 14.5557067769,
			"0.005": 5.70133345952,
			"0.006": 3.42621224416,
			"0.007": 3.09804633323,
			"0.008": 3.38086390298,
			"0.009": 3.04138251515,
			"0.01": 3.12820294133,
			"0.011": 1.81125122723,
			"0.012": 0.634120894306,
			"0.013": 0.0,
			"0.014": 0.0,
			"0.015": 0.0,
			"0.016": 0.0,
			"0.017": 0.0,
			"0.018": 0.0,
			"0.019": 0.0,
			"0.02": 0.0,
			"0.021": 0.0,
			"0.022": 0.0,
			"0.023": 0.0,
			"0.024": 0.0,
			"0.025": 0.0
		}
	}
}
