{
	 "smiles": "FC1=C(CNC2=NN=C(Cl)C=C2)C=CC=C1", 
	 "Tm": 443.15, 
	 "num_atms": 25, 
	 "gaussian": { 
		 "optdone": 1, 
		 "sigma_profile": "yes", 
		 "theory": "DFT", 
		 "functional": "B3LYP", 
		 "basiset": "6-31G**", 
		 "properties": { 
			 "R2extent": 5020.8441, 
			 "electric_dipole_moment_norm": 4.1832820034, 
			 "electric_quadrupole_moment_norm": 15.8156692568, 
			 "total_energy": -1148.84102641, 
			 "HOMO_LUMO_gap": 0.17221, 
			 "cosmo_polarized_energy": -14.16, 
			 "cosmo_cavitation_energy": 32.11, 
			 "cosmo_dispersion_energy": -23.02, 
			 "cosmo_repulsion_energy": 1.78, 
			 "cosmo_total_nonelectrostatic_energy": 10.87, 
			 "SMD_solvation_energy": 3.13 
		},
		"coords": [
			{
				"x": 3.6499111788,
				"y": -0.5594275981,
				"z": -0.0283615761,
				"element": "F" 
			},
			{
				"x": 2.7883252149,
				"y": -1.5933520878,
				"z": 0.1851082629,
				"element": "C" 
			},
			{
				"x": 1.7053349983,
				"y": -1.3712103898,
				"z": 1.0365453852,
				"element": "C" 
			},
			{
				"x": 1.5298192285,
				"y": -0.0176344713,
				"z": 1.6974252455,
				"element": "C" 
			},
			{
				"x": 1.2166504576,
				"y": 1.0629004131,
				"z": 0.7613933825,
				"element": "N" 
			},
			{
				"x": -0.0475184622,
				"y": 1.2326943863,
				"z": 0.2521952203,
				"element": "C" 
			},
			{
				"x": -1.0473421145,
				"y": 0.5548842153,
				"z": 0.8398783842,
				"element": "N" 
			},
			{
				"x": -2.3066921058,
				"y": 0.7311875669,
				"z": 0.4281140295,
				"element": "N" 
			},
			{
				"x": -2.5594698847,
				"y": 1.5564784593,
				"z": -0.5644421159,
				"element": "C" 
			},
			{
				"x": -4.2402516673,
				"y": 1.721658901,
				"z": -1.046221875,
				"element": "Cl" 
			},
			{
				"x": -1.573057707,
				"y": 2.2926385568,
				"z": -1.2475381072,
				"element": "C" 
			},
			{
				"x": -0.2781241516,
				"y": 2.1270039097,
				"z": -0.8249346789,
				"element": "C" 
			},
			{
				"x": 0.8148509098,
				"y": -2.4326252568,
				"z": 1.2278259581,
				"element": "C" 
			},
			{
				"x": 1.0201992249,
				"y": -3.6640406829,
				"z": 0.6005007053,
				"element": "C" 
			},
			{
				"x": 2.1224217851,
				"y": -3.8487687757,
				"z": -0.2357442599,
				"element": "C" 
			},
			{
				"x": 3.0223755313,
				"y": -2.8019891167,
				"z": -0.4527810654,
				"element": "C" 
			},
			{
				"x": 0.7264991039,
				"y": -0.0662885904,
				"z": 2.4322708482,
				"element": "H" 
			},
			{
				"x": 2.4505678373,
				"y": 0.2682029361,
				"z": 2.2150774256,
				"element": "H" 
			},
			{
				"x": 1.9779624064,
				"y": 1.3318144912,
				"z": 0.1542677595,
				"element": "H" 
			},
			{
				"x": -1.835908359,
				"y": 2.9553105086,
				"z": -2.0640206409,
				"element": "H" 
			},
			{
				"x": 0.5447735477,
				"y": 2.6622212432,
				"z": -1.2901469567,
				"element": "H" 
			},
			{
				"x": -0.0503464715,
				"y": -2.2786335726,
				"z": 1.8654154613,
				"element": "H" 
			},
			{
				"x": 0.3171859898,
				"y": -4.4753883076,
				"z": 0.7610943606,
				"element": "H" 
			},
			{
				"x": 2.2847382362,
				"y": -4.8042047123,
				"z": -0.7253872863,
				"element": "H" 
			},
			{
				"x": 3.8869952734,
				"y": -2.9094320259,
				"z": -1.0988338664,
				"element": "H" 
			}
		],
		 "valence_orbital": [ 
			{
				"type": "occ",
				"energy": -0.29839,
				"method": "rhf"
			},
			{
				"type": "occ",
				"energy": -0.26101,
				"method": "rhf"
			},
			{
				"type": "occ",
				"energy": -0.2495,
				"method": "rhf"
			},
			{
				"type": "occ",
				"energy": -0.2375,
				"method": "rhf"
			},
			{
				"type": "occ",
				"energy": -0.22542,
				"method": "rhf"
			},
			{
				"type": "unocc",
				"energy": -0.05321,
				"method": "rhf"
			},
			{
				"type": "unocc",
				"energy": -0.01677,
				"method": "rhf"
			},
			{
				"type": "unocc",
				"energy": -0.00988,
				"method": "rhf"
			},
			{
				"type": "unocc",
				"energy": -0.00405,
				"method": "rhf"
			},
			{
				"type": "unocc",
				"energy": 0.03178,
				"method": "rhf"
			}
		],
		"cosmo_sigma_profile": { 
			"-0.025": 0.0,
			"-0.024": 0.0,
			"-0.023": 0.0,
			"-0.022": 0.0,
			"-0.021": 0.0,
			"-0.02": 0.0,
			"-0.019": 0.0,
			"-0.018": 0.0,
			"-0.017": 0.0,
			"-0.016": 0.0,
			"-0.015": 0.0,
			"-0.014": 0.541138911761,
			"-0.013": 1.11465839215,
			"-0.012": 1.51682097147,
			"-0.011": 1.14763325993,
			"-0.01": 1.74257116596,
			"-0.009": 4.12127858005,
			"-0.008": 5.56807593846,
			"-0.007": 6.97215675535,
			"-0.006": 11.1814941391,
			"-0.005": 16.417326432,
			"-0.004": 15.7572252776,
			"-0.003": 15.6389651256,
			"-0.002": 17.0403238336,
			"-0.001": 21.2569537163,
			"0.0": 19.4013453234,
			"0.001": 19.0189312236,
			"0.002": 17.3871519422,
			"0.003": 19.7822242243,
			"0.004": 25.8384882576,
			"0.005": 14.9501161658,
			"0.006": 5.17976287431,
			"0.007": 3.5913007006,
			"0.008": 2.40599412157,
			"0.009": 2.23216975019,
			"0.01": 2.19257627095,
			"0.011": 1.75163420639,
			"0.012": 2.03740442872,
			"0.013": 2.19787097207,
			"0.014": 1.58159568522,
			"0.015": 0.642409745767,
			"0.016": 0.0178948989788,
			"0.017": 0.0,
			"0.018": 0.0,
			"0.019": 0.0,
			"0.02": 0.0,
			"0.021": 0.0,
			"0.022": 0.0,
			"0.023": 0.0,
			"0.024": 0.0,
			"0.025": 0.0
		}
	}
}
