{
	 "smiles": "CNCCCC1=CC(=NN1)C1=CC=CC=C1", 
	 "Tm": 372.15, 
	 "num_atms": 33, 
	 "gaussian": { 
		 "optdone": 1, 
		 "sigma_profile": "yes", 
		 "theory": "DFT", 
		 "functional": "B3LYP", 
		 "basiset": "6-31G**", 
		 "properties": { 
			 "R2extent": 5638.994, 
			 "electric_dipole_moment_norm": 3.57100880565, 
			 "electric_quadrupole_moment_norm": 8.90798669902, 
			 "total_energy": -669.869584227, 
			 "HOMO_LUMO_gap": 0.19697, 
			 "cosmo_polarized_energy": -12.8, 
			 "cosmo_cavitation_energy": 35.76, 
			 "cosmo_dispersion_energy": -25.41, 
			 "cosmo_repulsion_energy": 2.0, 
			 "cosmo_total_nonelectrostatic_energy": 12.35, 
			 "SMD_solvation_energy": 4.24 
		},
		"coords": [
			{
				"x": 3.380761343,
				"y": 0.3206369254,
				"z": -3.0879898927,
				"element": "C" 
			},
			{
				"x": 2.0418078754,
				"y": 0.2765037385,
				"z": -2.5134812894,
				"element": "N" 
			},
			{
				"x": 0.9864168779,
				"y": 0.4236743596,
				"z": -3.5080658442,
				"element": "C" 
			},
			{
				"x": -0.4192076904,
				"y": 0.2824257565,
				"z": -2.9150759333,
				"element": "C" 
			},
			{
				"x": -0.7487361322,
				"y": 1.2756953404,
				"z": -1.7683102795,
				"element": "C" 
			},
			{
				"x": -0.4928440868,
				"y": 0.7642962344,
				"z": -0.3798837667,
				"element": "C" 
			},
			{
				"x": 0.6409792526,
				"y": 0.6864123456,
				"z": 0.4077757254,
				"element": "C" 
			},
			{
				"x": 0.2233690506,
				"y": 0.0822618097,
				"z": 1.6250373441,
				"element": "C" 
			},
			{
				"x": -1.0871842641,
				"y": -0.1973345686,
				"z": 1.5935885652,
				"element": "N" 
			},
			{
				"x": -1.4898385094,
				"y": 0.2212006715,
				"z": 0.3779931224,
				"element": "N" 
			},
			{
				"x": 1.0288893282,
				"y": -0.239398385,
				"z": 2.8157881089,
				"element": "C" 
			},
			{
				"x": 2.3881932154,
				"y": 0.1041760565,
				"z": 2.8855369342,
				"element": "C" 
			},
			{
				"x": 3.1456865069,
				"y": -0.2046103529,
				"z": 4.0150100672,
				"element": "C" 
			},
			{
				"x": 2.5590461697,
				"y": -0.8619444168,
				"z": 5.0974934677,
				"element": "C" 
			},
			{
				"x": 1.2059613867,
				"y": -1.2071936181,
				"z": 5.0391612705,
				"element": "C" 
			},
			{
				"x": 0.4482402867,
				"y": -0.900577146,
				"z": 3.9119207558,
				"element": "C" 
			},
			{
				"x": 4.1242450131,
				"y": 0.1412559249,
				"z": -2.3056753422,
				"element": "H" 
			},
			{
				"x": 3.5685784431,
				"y": 1.3182843194,
				"z": -3.5018249199,
				"element": "H" 
			},
			{
				"x": 3.551363184,
				"y": -0.4102719288,
				"z": -3.8998548485,
				"element": "H" 
			},
			{
				"x": 1.9123801655,
				"y": -0.5966233685,
				"z": -2.0082049102,
				"element": "H" 
			},
			{
				"x": 1.0873577888,
				"y": 1.4246397567,
				"z": -3.9523730868,
				"element": "H" 
			},
			{
				"x": 1.0866389697,
				"y": -0.2930842617,
				"z": -4.3473910669,
				"element": "H" 
			},
			{
				"x": -0.5738909799,
				"y": -0.7458529319,
				"z": -2.563108366,
				"element": "H" 
			},
			{
				"x": -1.1321820075,
				"y": 0.4330466641,
				"z": -3.7345599857,
				"element": "H" 
			},
			{
				"x": -0.1810798908,
				"y": 2.2000258595,
				"z": -1.9174511319,
				"element": "H" 
			},
			{
				"x": -1.8082159229,
				"y": 1.5539860301,
				"z": -1.8364941819,
				"element": "H" 
			},
			{
				"x": 1.6258102211,
				"y": 1.0099249073,
				"z": 0.111008591,
				"element": "H" 
			},
			{
				"x": -2.4634709131,
				"y": 0.1311399737,
				"z": 0.1305821935,
				"element": "H" 
			},
			{
				"x": 2.8571768938,
				"y": 0.6204650096,
				"z": 2.0532917396,
				"element": "H" 
			},
			{
				"x": 4.196198888,
				"y": 0.0711203028,
				"z": 4.0489991509,
				"element": "H" 
			},
			{
				"x": 3.148900479,
				"y": -1.1022604049,
				"z": 5.9775012779,
				"element": "H" 
			},
			{
				"x": 0.7392563106,
				"y": -1.7188026122,
				"z": 5.8766371195,
				"element": "H" 
			},
			{
				"x": -0.6020072528,
				"y": -1.1672179909,
				"z": 3.8622194119,
				"element": "H" 
			}
		],
		 "valence_orbital": [ 
			{
				"type": "occ",
				"energy": -0.27679,
				"method": "rhf"
			},
			{
				"type": "occ",
				"energy": -0.23884,
				"method": "rhf"
			},
			{
				"type": "occ",
				"energy": -0.23334,
				"method": "rhf"
			},
			{
				"type": "occ",
				"energy": -0.22032,
				"method": "rhf"
			},
			{
				"type": "occ",
				"energy": -0.20676,
				"method": "rhf"
			},
			{
				"type": "unocc",
				"energy": -0.00979,
				"method": "rhf"
			},
			{
				"type": "unocc",
				"energy": 0.01153,
				"method": "rhf"
			},
			{
				"type": "unocc",
				"energy": 0.03639,
				"method": "rhf"
			},
			{
				"type": "unocc",
				"energy": 0.07667,
				"method": "rhf"
			},
			{
				"type": "unocc",
				"energy": 0.0864,
				"method": "rhf"
			}
		],
		"cosmo_sigma_profile": { 
			"-0.025": 0.0,
			"-0.024": 0.0,
			"-0.023": 0.0,
			"-0.022": 0.0,
			"-0.021": 0.0,
			"-0.02": 0.0,
			"-0.019": 0.0,
			"-0.018": 0.0,
			"-0.017": 0.0,
			"-0.016": 0.803870189407,
			"-0.015": 1.13730123322,
			"-0.014": 1.30373785283,
			"-0.013": 1.22043423654,
			"-0.012": 0.573196231299,
			"-0.011": 1.33216965125,
			"-0.01": 1.72534038091,
			"-0.009": 1.3683438425,
			"-0.008": 2.12283137411,
			"-0.007": 2.31149752822,
			"-0.006": 6.42224139747,
			"-0.005": 12.48078317,
			"-0.004": 18.4647802996,
			"-0.003": 28.2312533146,
			"-0.002": 30.485455038,
			"-0.001": 35.335626705,
			"0.0": 27.2603169112,
			"0.001": 15.9550033766,
			"0.002": 11.9247197538,
			"0.003": 12.0874966349,
			"0.004": 17.086320357,
			"0.005": 19.0073099668,
			"0.006": 15.2417966449,
			"0.007": 3.85686544722,
			"0.008": 2.57432293359,
			"0.009": 2.49800042686,
			"0.01": 2.3497661451,
			"0.011": 1.90350453256,
			"0.012": 1.57550521988,
			"0.013": 1.67896010163,
			"0.014": 0.773670039063,
			"0.015": 0.413947985009,
			"0.016": 0.0,
			"0.017": 0.0,
			"0.018": 0.0,
			"0.019": 0.0,
			"0.02": 0.0,
			"0.021": 0.0,
			"0.022": 0.0,
			"0.023": 0.0,
			"0.024": 0.0,
			"0.025": 0.0
		}
	}
}
