{
	 "smiles": "OC1=CC2=C(OCC(C=O)=C2)C=C1", 
	 "Tm": 438.15, 
	 "num_atms": 21, 
	 "gaussian": { 
		 "optdone": 1, 
		 "sigma_profile": "yes", 
		 "theory": "DFT", 
		 "functional": "B3LYP", 
		 "basiset": "6-31G**", 
		 "properties": { 
			 "R2extent": 3429.6463, 
			 "electric_dipole_moment_norm": 4.0909314905, 
			 "electric_quadrupole_moment_norm": 8.32544543613, 
			 "total_energy": -611.517981475, 
			 "HOMO_LUMO_gap": 0.12813, 
			 "cosmo_polarized_energy": -14.06, 
			 "cosmo_cavitation_energy": 25.64, 
			 "cosmo_dispersion_energy": -19.06, 
			 "cosmo_repulsion_energy": 1.49, 
			 "cosmo_total_nonelectrostatic_energy": 8.07, 
			 "SMD_solvation_energy": 5.8 
		},
		"coords": [
			{
				"x": -1.4783652426,
				"y": -2.2027769124,
				"z": 0.8642155769,
				"element": "O" 
			},
			{
				"x": -0.2595129638,
				"y": -1.6753211683,
				"z": 0.5351114624,
				"element": "C" 
			},
			{
				"x": -0.2308489971,
				"y": -0.367339658,
				"z": 0.0538281129,
				"element": "C" 
			},
			{
				"x": 0.9875207073,
				"y": 0.2373823908,
				"z": -0.2883785493,
				"element": "C" 
			},
			{
				"x": 2.1898677669,
				"y": -0.493948798,
				"z": -0.1428964794,
				"element": "C" 
			},
			{
				"x": 3.3926244006,
				"y": 0.0363993491,
				"z": -0.5227633196,
				"element": "O" 
			},
			{
				"x": 3.4947671221,
				"y": 1.465058445,
				"z": -0.435273126,
				"element": "C" 
			},
			{
				"x": 2.2830600889,
				"y": 2.1607917298,
				"z": -1.008620831,
				"element": "C" 
			},
			{
				"x": 2.4131513094,
				"y": 3.4715776683,
				"z": -1.666721786,
				"element": "C" 
			},
			{
				"x": 1.4777540318,
				"y": 4.1415616694,
				"z": -2.0718092629,
				"element": "O" 
			},
			{
				"x": 1.0790983146,
				"y": 1.5594361587,
				"z": -0.8731092514,
				"element": "C" 
			},
			{
				"x": 2.1562691849,
				"y": -1.8094485941,
				"z": 0.3116075235,
				"element": "C" 
			},
			{
				"x": 0.9371255429,
				"y": -2.395537487,
				"z": 0.6538926067,
				"element": "C" 
			},
			{
				"x": -1.3605677686,
				"y": -3.1111815848,
				"z": 1.1696097674,
				"element": "H" 
			},
			{
				"x": -1.1631011889,
				"y": 0.1777504343,
				"z": -0.0552847261,
				"element": "H" 
			},
			{
				"x": 4.4076512613,
				"y": 1.7269658143,
				"z": -0.9780221961,
				"element": "H" 
			},
			{
				"x": 3.6407304281,
				"y": 1.7461774362,
				"z": 0.6217072206,
				"element": "H" 
			},
			{
				"x": 3.4588097324,
				"y": 3.8359797317,
				"z": -1.7828074795,
				"element": "H" 
			},
			{
				"x": 0.1868467669,
				"y": 2.0573036902,
				"z": -1.2437520328,
				"element": "H" 
			},
			{
				"x": 3.0852865208,
				"y": -2.3627623136,
				"z": 0.3967022066,
				"element": "H" 
			},
			{
				"x": 0.9191329818,
				"y": -3.4195680018,
				"z": 1.0207645632,
				"element": "H" 
			}
		],
		 "valence_orbital": [ 
			{
				"type": "occ",
				"energy": -0.3137,
				"method": "rhf"
			},
			{
				"type": "occ",
				"energy": -0.2941,
				"method": "rhf"
			},
			{
				"type": "occ",
				"energy": -0.25318,
				"method": "rhf"
			},
			{
				"type": "occ",
				"energy": -0.24491,
				"method": "rhf"
			},
			{
				"type": "occ",
				"energy": -0.20918,
				"method": "rhf"
			},
			{
				"type": "unocc",
				"energy": -0.08105,
				"method": "rhf"
			},
			{
				"type": "unocc",
				"energy": -0.00303,
				"method": "rhf"
			},
			{
				"type": "unocc",
				"energy": 0.01368,
				"method": "rhf"
			},
			{
				"type": "unocc",
				"energy": 0.06192,
				"method": "rhf"
			},
			{
				"type": "unocc",
				"energy": 0.06785,
				"method": "rhf"
			}
		],
		"cosmo_sigma_profile": { 
			"-0.025": 0.0,
			"-0.024": 0.0,
			"-0.023": 0.0,
			"-0.022": 0.0,
			"-0.021": 0.0,
			"-0.02": 0.0,
			"-0.019": 0.0,
			"-0.018": 0.690834776119,
			"-0.017": 1.11212654902,
			"-0.016": 0.829611978293,
			"-0.015": 1.77554188478,
			"-0.014": 0.476038311921,
			"-0.013": 0.557623911251,
			"-0.012": 0.811128242562,
			"-0.011": 1.43173455628,
			"-0.01": 1.33017351127,
			"-0.009": 1.26681566158,
			"-0.008": 3.50815743223,
			"-0.007": 11.4373606082,
			"-0.006": 14.7148058322,
			"-0.005": 13.8053300947,
			"-0.004": 12.261905644,
			"-0.003": 9.7227908299,
			"-0.002": 8.79220720049,
			"-0.001": 10.047589003,
			"0.0": 9.87838703576,
			"0.001": 13.3355196637,
			"0.002": 15.1809266952,
			"0.003": 19.5915544737,
			"0.004": 11.8858626155,
			"0.005": 5.43511356966,
			"0.006": 4.64154895311,
			"0.007": 4.24429708763,
			"0.008": 3.76782208236,
			"0.009": 5.1054492828,
			"0.01": 5.24429711375,
			"0.011": 5.96742863496,
			"0.012": 4.62289668279,
			"0.013": 1.36898631348,
			"0.014": 0.103655090823,
			"0.015": 0.0,
			"0.016": 0.0,
			"0.017": 0.0,
			"0.018": 0.0,
			"0.019": 0.0,
			"0.02": 0.0,
			"0.021": 0.0,
			"0.022": 0.0,
			"0.023": 0.0,
			"0.024": 0.0,
			"0.025": 0.0
		}
	}
}
