{
	 "smiles": "ClC(Cl)C(=O)NC1=CC2=NN(N=C2C=C1)C1CCCC1", 
	 "Tm": 392.15, 
	 "num_atms": 34, 
	 "gaussian": { 
		 "optdone": 1, 
		 "sigma_profile": "yes", 
		 "theory": "DFT", 
		 "functional": "B3LYP", 
		 "basiset": "6-31G**", 
		 "properties": { 
			 "R2extent": 11548.3115, 
			 "electric_dipole_moment_norm": 6.63096405887, 
			 "electric_quadrupole_moment_norm": 28.5587230096, 
			 "total_energy": -1718.41403229, 
			 "HOMO_LUMO_gap": 0.17321, 
			 "cosmo_polarized_energy": -16.15, 
			 "cosmo_cavitation_energy": 40.93, 
			 "cosmo_dispersion_energy": -29.46, 
			 "cosmo_repulsion_energy": 2.3, 
			 "cosmo_total_nonelectrostatic_energy": 13.77, 
			 "SMD_solvation_energy": 4.03 
		},
		"coords": [
			{
				"x": -4.9294845594,
				"y": -2.0210687251,
				"z": -3.5749163938,
				"element": "Cl" 
			},
			{
				"x": -3.8598279891,
				"y": -0.6091621254,
				"z": -3.3254408249,
				"element": "C" 
			},
			{
				"x": -4.7863110537,
				"y": 0.9371272163,
				"z": -3.3566719493,
				"element": "Cl" 
			},
			{
				"x": -2.7833070629,
				"y": -0.5739511457,
				"z": -4.4305643132,
				"element": "C" 
			},
			{
				"x": -3.0653839992,
				"y": -0.6896268978,
				"z": -5.6067859403,
				"element": "O" 
			},
			{
				"x": -1.4803191608,
				"y": -0.4447703499,
				"z": -4.0068982217,
				"element": "N" 
			},
			{
				"x": -0.9183903773,
				"y": -0.2220528665,
				"z": -2.7190690374,
				"element": "C" 
			},
			{
				"x": -1.3815171593,
				"y": 0.7821879672,
				"z": -1.887515818,
				"element": "C" 
			},
			{
				"x": -0.7473091614,
				"y": 0.9130364344,
				"z": -0.6322488715,
				"element": "C" 
			},
			{
				"x": -0.9861385275,
				"y": 1.7797601043,
				"z": 0.379601951,
				"element": "N" 
			},
			{
				"x": -0.0631015137,
				"y": 1.447161935,
				"z": 1.2764873762,
				"element": "N" 
			},
			{
				"x": 0.7628475218,
				"y": 0.4535120145,
				"z": 0.973432249,
				"element": "N" 
			},
			{
				"x": 0.3487013435,
				"y": 0.0832361084,
				"z": -0.2602472786,
				"element": "C" 
			},
			{
				"x": 0.8285240093,
				"y": -0.9167710069,
				"z": -1.1360172183,
				"element": "C" 
			},
			{
				"x": 0.1826023068,
				"y": -1.0588642946,
				"z": -2.342406698,
				"element": "C" 
			},
			{
				"x": 0.0167757191,
				"y": 2.1444799309,
				"z": 2.5681059161,
				"element": "C" 
			},
			{
				"x": 1.409430925,
				"y": 2.8049127599,
				"z": 2.7826791446,
				"element": "C" 
			},
			{
				"x": 1.8049174788,
				"y": 2.4535089867,
				"z": 4.2294243064,
				"element": "C" 
			},
			{
				"x": 1.1956355928,
				"y": 1.0577568947,
				"z": 4.4363705753,
				"element": "C" 
			},
			{
				"x": -0.186533177,
				"y": 1.1775339703,
				"z": 3.7714013663,
				"element": "C" 
			},
			{
				"x": -3.4436057583,
				"y": -0.7004590526,
				"z": -2.3266164049,
				"element": "H" 
			},
			{
				"x": -0.8319058438,
				"y": -0.5394851757,
				"z": -4.7806804198,
				"element": "H" 
			},
			{
				"x": -2.1778397354,
				"y": 1.4538348665,
				"z": -2.1871941883,
				"element": "H" 
			},
			{
				"x": 1.6635497559,
				"y": -1.5513399124,
				"z": -0.8599280924,
				"element": "H" 
			},
			{
				"x": 0.496096122,
				"y": -1.8304932182,
				"z": -3.0392988495,
				"element": "H" 
			},
			{
				"x": -0.783550006,
				"y": 2.8817083533,
				"z": 2.5079247547,
				"element": "H" 
			},
			{
				"x": 2.1194577234,
				"y": 2.3525287534,
				"z": 2.0846990324,
				"element": "H" 
			},
			{
				"x": 1.3847227213,
				"y": 3.8798332433,
				"z": 2.5841452062,
				"element": "H" 
			},
			{
				"x": 2.8878263341,
				"y": 2.4826447948,
				"z": 4.3826280499,
				"element": "H" 
			},
			{
				"x": 1.355987155,
				"y": 3.1662588984,
				"z": 4.9329497593,
				"element": "H" 
			},
			{
				"x": 1.1336881615,
				"y": 0.7621841236,
				"z": 5.488020425,
				"element": "H" 
			},
			{
				"x": 1.7968081606,
				"y": 0.3074184416,
				"z": 3.910688629,
				"element": "H" 
			},
			{
				"x": -0.8989437474,
				"y": 1.6368377449,
				"z": 4.4656375723,
				"element": "H" 
			},
			{
				"x": -0.6070021988,
				"y": 0.2201812287,
				"z": 3.4553042061,
				"element": "H" 
			}
		],
		 "valence_orbital": [ 
			{
				"type": "occ",
				"energy": -0.30665,
				"method": "rhf"
			},
			{
				"type": "occ",
				"energy": -0.29647,
				"method": "rhf"
			},
			{
				"type": "occ",
				"energy": -0.27345,
				"method": "rhf"
			},
			{
				"type": "occ",
				"energy": -0.25616,
				"method": "rhf"
			},
			{
				"type": "occ",
				"energy": -0.23746,
				"method": "rhf"
			},
			{
				"type": "unocc",
				"energy": -0.06425,
				"method": "rhf"
			},
			{
				"type": "unocc",
				"energy": -0.03362,
				"method": "rhf"
			},
			{
				"type": "unocc",
				"energy": -0.01308,
				"method": "rhf"
			},
			{
				"type": "unocc",
				"energy": 0.00566,
				"method": "rhf"
			},
			{
				"type": "unocc",
				"energy": 0.01574,
				"method": "rhf"
			}
		],
		"cosmo_sigma_profile": { 
			"-0.025": 0.0,
			"-0.024": 0.0,
			"-0.023": 0.0,
			"-0.022": 0.0,
			"-0.021": 0.0,
			"-0.02": 0.0,
			"-0.019": 0.0,
			"-0.018": 0.0,
			"-0.017": 0.0,
			"-0.016": 0.381081701961,
			"-0.015": 1.08724460641,
			"-0.014": 1.25614759376,
			"-0.013": 0.705454794844,
			"-0.012": 1.3545033661,
			"-0.011": 1.46656160994,
			"-0.01": 2.36860339692,
			"-0.009": 2.13136865775,
			"-0.008": 4.55346892972,
			"-0.007": 7.9002934881,
			"-0.006": 8.68153901609,
			"-0.005": 13.0148796879,
			"-0.004": 19.3094802509,
			"-0.003": 27.9556908829,
			"-0.002": 33.6125379196,
			"-0.001": 34.7021013163,
			"0.0": 32.2490540056,
			"0.001": 28.2426280507,
			"0.002": 23.3741405819,
			"0.003": 22.1318388271,
			"0.004": 19.2116185348,
			"0.005": 8.01581826456,
			"0.006": 5.47675713886,
			"0.007": 3.94793433251,
			"0.008": 3.56164719185,
			"0.009": 4.85224710463,
			"0.01": 3.60181224328,
			"0.011": 5.36402143574,
			"0.012": 6.52568670832,
			"0.013": 2.1012527737,
			"0.014": 0.221435439303,
			"0.015": 0.0,
			"0.016": 0.0,
			"0.017": 0.0,
			"0.018": 0.0,
			"0.019": 0.0,
			"0.02": 0.0,
			"0.021": 0.0,
			"0.022": 0.0,
			"0.023": 0.0,
			"0.024": 0.0,
			"0.025": 0.0
		}
	}
}
