{
	 "smiles": "CN1C(C(CC1=O)C(O)=O)C1=CC=CC=C1", 
	 "Tm": 400.15, 
	 "num_atms": 29, 
	 "gaussian": { 
		 "optdone": 1, 
		 "sigma_profile": "yes", 
		 "theory": "DFT", 
		 "functional": "B3LYP", 
		 "basiset": "6-31G**", 
		 "properties": { 
			 "R2extent": 3814.4586, 
			 "electric_dipole_moment_norm": 4.41197395845, 
			 "electric_quadrupole_moment_norm": 9.15746448915, 
			 "total_energy": -745.569208477, 
			 "HOMO_LUMO_gap": 0.22724, 
			 "cosmo_polarized_energy": -16.92, 
			 "cosmo_cavitation_energy": 32.07, 
			 "cosmo_dispersion_energy": -22.05, 
			 "cosmo_repulsion_energy": 1.73, 
			 "cosmo_total_nonelectrostatic_energy": 11.75, 
			 "SMD_solvation_energy": 7.05 
		},
		"coords": [
			{
				"x": -3.0786119952,
				"y": -1.9427157142,
				"z": -0.4335276617,
				"element": "C" 
			},
			{
				"x": -2.0999907526,
				"y": -0.9055814322,
				"z": -0.1764900673,
				"element": "N" 
			},
			{
				"x": -0.9203318772,
				"y": -1.1380471205,
				"z": 0.6462219734,
				"element": "C" 
			},
			{
				"x": -0.3865843664,
				"y": 0.3341409374,
				"z": 0.8554691407,
				"element": "C" 
			},
			{
				"x": -0.9286828479,
				"y": 1.1164289314,
				"z": -0.3421324181,
				"element": "C" 
			},
			{
				"x": -2.1566790319,
				"y": 0.3275180192,
				"z": -0.7857681349,
				"element": "C" 
			},
			{
				"x": -3.0325997507,
				"y": 0.6993177167,
				"z": -1.54944951,
				"element": "O" 
			},
			{
				"x": 1.1164700646,
				"y": 0.4122930492,
				"z": 1.0187846621,
				"element": "C" 
			},
			{
				"x": 1.5010434571,
				"y": -0.051600334,
				"z": 2.2330844037,
				"element": "O" 
			},
			{
				"x": 1.9017435918,
				"y": 0.8280919351,
				"z": 0.1977152583,
				"element": "O" 
			},
			{
				"x": 0.0736727756,
				"y": -2.1143924753,
				"z": 0.0237542981,
				"element": "C" 
			},
			{
				"x": 0.3126298462,
				"y": -2.1404284204,
				"z": -1.3564823481,
				"element": "C" 
			},
			{
				"x": 1.2430786337,
				"y": -3.0277504529,
				"z": -1.8981021137,
				"element": "C" 
			},
			{
				"x": 1.9468823456,
				"y": -3.9022596914,
				"z": -1.0678171011,
				"element": "C" 
			},
			{
				"x": 1.712882447,
				"y": -3.8865393385,
				"z": 0.308133992,
				"element": "C" 
			},
			{
				"x": 0.780217245,
				"y": -2.99977249,
				"z": 0.8476299244,
				"element": "C" 
			},
			{
				"x": -3.5466139637,
				"y": -2.2770891113,
				"z": 0.5002516472,
				"element": "H" 
			},
			{
				"x": -2.6202387186,
				"y": -2.8088800146,
				"z": -0.9241758959,
				"element": "H" 
			},
			{
				"x": -3.8398863352,
				"y": -1.5152139354,
				"z": -1.0880950394,
				"element": "H" 
			},
			{
				"x": -1.221865264,
				"y": -1.545254716,
				"z": 1.6190600046,
				"element": "H" 
			},
			{
				"x": -0.8351632657,
				"y": 0.701757494,
				"z": 1.7839372641,
				"element": "H" 
			},
			{
				"x": -1.2031607878,
				"y": 2.146493972,
				"z": -0.1062519709,
				"element": "H" 
			},
			{
				"x": -0.1965618004,
				"y": 1.1486796579,
				"z": -1.1556530379,
				"element": "H" 
			},
			{
				"x": 2.4721175808,
				"y": -0.0059978231,
				"z": 2.2464721372,
				"element": "H" 
			},
			{
				"x": -0.2388199836,
				"y": -1.473249354,
				"z": -2.0123132898,
				"element": "H" 
			},
			{
				"x": 1.4163495821,
				"y": -3.0367540194,
				"z": -2.9703067177,
				"element": "H" 
			},
			{
				"x": 2.6686670642,
				"y": -4.5946513206,
				"z": -1.491233185,
				"element": "H" 
			},
			{
				"x": 2.249556136,
				"y": -4.5693184438,
				"z": 0.9607936685,
				"element": "H" 
			},
			{
				"x": 0.5989799709,
				"y": -2.9917255052,
				"z": 1.9194901172,
				"element": "H" 
			}
		],
		 "valence_orbital": [ 
			{
				"type": "occ",
				"energy": -0.28426,
				"method": "rhf"
			},
			{
				"type": "occ",
				"energy": -0.25786,
				"method": "rhf"
			},
			{
				"type": "occ",
				"energy": -0.25707,
				"method": "rhf"
			},
			{
				"type": "occ",
				"energy": -0.24612,
				"method": "rhf"
			},
			{
				"type": "occ",
				"energy": -0.24201,
				"method": "rhf"
			},
			{
				"type": "unocc",
				"energy": -0.01477,
				"method": "rhf"
			},
			{
				"type": "unocc",
				"energy": -0.01047,
				"method": "rhf"
			},
			{
				"type": "unocc",
				"energy": -0.00299,
				"method": "rhf"
			},
			{
				"type": "unocc",
				"energy": 0.03159,
				"method": "rhf"
			},
			{
				"type": "unocc",
				"energy": 0.07107,
				"method": "rhf"
			}
		],
		"cosmo_sigma_profile": { 
			"-0.025": 0.0,
			"-0.024": 0.0,
			"-0.023": 0.0,
			"-0.022": 0.0,
			"-0.021": 0.0,
			"-0.02": 0.0,
			"-0.019": 0.0518742311279,
			"-0.018": 0.92789865212,
			"-0.017": 0.656749545937,
			"-0.016": 0.850472964456,
			"-0.015": 1.10804678695,
			"-0.014": 0.44183522444,
			"-0.013": 0.530614365985,
			"-0.012": 0.572387199143,
			"-0.011": 0.990643719469,
			"-0.01": 0.991304282835,
			"-0.009": 0.242536980142,
			"-0.008": 0.612096195583,
			"-0.007": 5.52048369662,
			"-0.006": 19.2440002555,
			"-0.005": 24.5389043568,
			"-0.004": 23.0229038383,
			"-0.003": 20.475539171,
			"-0.002": 22.9580602164,
			"-0.001": 15.648435693,
			"0.0": 12.1366450759,
			"0.001": 11.7513627915,
			"0.002": 11.3440382557,
			"0.003": 11.8994074453,
			"0.004": 12.6501028547,
			"0.005": 11.9607603548,
			"0.006": 6.5668686826,
			"0.007": 4.49463834937,
			"0.008": 4.43808893327,
			"0.009": 3.31842220606,
			"0.01": 3.40083082693,
			"0.011": 6.46200827162,
			"0.012": 4.03875281365,
			"0.013": 4.40286712015,
			"0.014": 4.35192104467,
			"0.015": 0.76762573597,
			"0.016": 0.0,
			"0.017": 0.0,
			"0.018": 0.0,
			"0.019": 0.0,
			"0.02": 0.0,
			"0.021": 0.0,
			"0.022": 0.0,
			"0.023": 0.0,
			"0.024": 0.0,
			"0.025": 0.0
		}
	}
}
