{
	 "smiles": "CC1=C(C2=CSC(N)=N2)C2=C(N1)C=CC=C2", 
	 "Tm": 442.15, 
	 "num_atms": 27, 
	 "gaussian": { 
		 "optdone": 1, 
		 "sigma_profile": "yes", 
		 "theory": "DFT", 
		 "functional": "B3LYP", 
		 "basiset": "6-31G**", 
		 "properties": { 
			 "R2extent": 4828.7933, 
			 "electric_dipole_moment_norm": 1.5477344895, 
			 "electric_quadrupole_moment_norm": 20.6398368804, 
			 "total_energy": -1026.36215326, 
			 "HOMO_LUMO_gap": 0.1695, 
			 "cosmo_polarized_energy": -17.1, 
			 "cosmo_cavitation_energy": 32.19, 
			 "cosmo_dispersion_energy": -24.29, 
			 "cosmo_repulsion_energy": 1.84, 
			 "cosmo_total_nonelectrostatic_energy": 9.74, 
			 "SMD_solvation_energy": 3.76 
		},
		"coords": [
			{
				"x": 3.1596592609,
				"y": -0.7151053151,
				"z": -0.9004926505,
				"element": "C" 
			},
			{
				"x": 1.7887213628,
				"y": -0.7285224335,
				"z": -0.3057726176,
				"element": "C" 
			},
			{
				"x": 0.5832558617,
				"y": -0.2423273612,
				"z": -0.7866862523,
				"element": "C" 
			},
			{
				"x": 0.3482474577,
				"y": 0.396149774,
				"z": -2.0801599812,
				"element": "C" 
			},
			{
				"x": 1.0661431501,
				"y": 0.1941858174,
				"z": -3.2318464565,
				"element": "C" 
			},
			{
				"x": 0.4424409225,
				"y": 1.1856082022,
				"z": -4.5297963432,
				"element": "S" 
			},
			{
				"x": -0.7895056339,
				"y": 1.7751442299,
				"z": -3.4061356581,
				"element": "C" 
			},
			{
				"x": -1.6906022787,
				"y": 2.745918475,
				"z": -3.788812806,
				"element": "N" 
			},
			{
				"x": -0.7120764299,
				"y": 1.2908338687,
				"z": -2.2037689127,
				"element": "N" 
			},
			{
				"x": -0.4093164795,
				"y": -0.4907243471,
				"z": 0.2405852762,
				"element": "C" 
			},
			{
				"x": 0.2545978515,
				"y": -1.1460286961,
				"z": 1.3102061821,
				"element": "C" 
			},
			{
				"x": 1.5807734186,
				"y": -1.2770038967,
				"z": 0.9463918699,
				"element": "N" 
			},
			{
				"x": -0.4051128725,
				"y": -1.5462794939,
				"z": 2.4758729021,
				"element": "C" 
			},
			{
				"x": -1.767320245,
				"y": -1.2803657035,
				"z": 2.5633883879,
				"element": "C" 
			},
			{
				"x": -2.4487223325,
				"y": -0.6313312827,
				"z": 1.5143527533,
				"element": "C" 
			},
			{
				"x": -1.7862971342,
				"y": -0.2349964966,
				"z": 0.3582328338,
				"element": "C" 
			},
			{
				"x": 3.9248604859,
				"y": -0.6248477343,
				"z": -0.1210767134,
				"element": "H" 
			},
			{
				"x": 3.3780758289,
				"y": -1.6288555396,
				"z": -1.4691818477,
				"element": "H" 
			},
			{
				"x": 3.2687805035,
				"y": 0.13163509,
				"z": -1.582902598,
				"element": "H" 
			},
			{
				"x": 1.8639398565,
				"y": -0.5067229741,
				"z": -3.4206891421,
				"element": "H" 
			},
			{
				"x": -2.4306494359,
				"y": 2.8751285776,
				"z": -3.1106932507,
				"element": "H" 
			},
			{
				"x": -2.0187744454,
				"y": 2.7063786173,
				"z": -4.7435852972,
				"element": "H" 
			},
			{
				"x": 2.3076437273,
				"y": -1.6677858781,
				"z": 1.5239157506,
				"element": "H" 
			},
			{
				"x": 0.1250330851,
				"y": -2.0461502944,
				"z": 3.2820584549,
				"element": "H" 
			},
			{
				"x": -2.312732112,
				"y": -1.5761350673,
				"z": 3.4549903103,
				"element": "H" 
			},
			{
				"x": -3.5126069708,
				"y": -0.4357956763,
				"z": 1.6151586537,
				"element": "H" 
			},
			{
				"x": -2.3061564027,
				"y": 0.2779955386,
				"z": -0.4422528477,
				"element": "H" 
			}
		],
		 "valence_orbital": [ 
			{
				"type": "occ",
				"energy": -0.26539,
				"method": "rhf"
			},
			{
				"type": "occ",
				"energy": -0.25515,
				"method": "rhf"
			},
			{
				"type": "occ",
				"energy": -0.21646,
				"method": "rhf"
			},
			{
				"type": "occ",
				"energy": -0.20954,
				"method": "rhf"
			},
			{
				"type": "occ",
				"energy": -0.17911,
				"method": "rhf"
			},
			{
				"type": "unocc",
				"energy": -0.00961,
				"method": "rhf"
			},
			{
				"type": "unocc",
				"energy": 0.00659,
				"method": "rhf"
			},
			{
				"type": "unocc",
				"energy": 0.01757,
				"method": "rhf"
			},
			{
				"type": "unocc",
				"energy": 0.03763,
				"method": "rhf"
			},
			{
				"type": "unocc",
				"energy": 0.04835,
				"method": "rhf"
			}
		],
		"cosmo_sigma_profile": { 
			"-0.025": 0.0,
			"-0.024": 0.0,
			"-0.023": 0.0,
			"-0.022": 0.0,
			"-0.021": 0.0,
			"-0.02": 0.0,
			"-0.019": 0.0,
			"-0.018": 0.0,
			"-0.017": 0.0,
			"-0.016": 0.0677133088412,
			"-0.015": 1.49453336853,
			"-0.014": 2.72143620794,
			"-0.013": 3.882200345,
			"-0.012": 3.69495896358,
			"-0.011": 3.74165388629,
			"-0.01": 4.06127339664,
			"-0.009": 3.67391934799,
			"-0.008": 3.79739354761,
			"-0.007": 4.69662522095,
			"-0.006": 7.42327195185,
			"-0.005": 12.9429568865,
			"-0.004": 13.7144563756,
			"-0.003": 17.1102909673,
			"-0.002": 16.8984335896,
			"-0.001": 15.8847735414,
			"0.0": 13.7378491532,
			"0.001": 13.1403105929,
			"0.002": 13.7870742864,
			"0.003": 16.3816232881,
			"0.004": 23.8360672012,
			"0.005": 21.0995575218,
			"0.006": 17.0982409552,
			"0.007": 12.0740691755,
			"0.008": 4.55689071364,
			"0.009": 1.74591308961,
			"0.01": 2.15435145491,
			"0.011": 1.87950286055,
			"0.012": 1.0712188162,
			"0.013": 0.620772140993,
			"0.014": 0.311891234129,
			"0.015": 0.0,
			"0.016": 0.0,
			"0.017": 0.0,
			"0.018": 0.0,
			"0.019": 0.0,
			"0.02": 0.0,
			"0.021": 0.0,
			"0.022": 0.0,
			"0.023": 0.0,
			"0.024": 0.0,
			"0.025": 0.0
		}
	}
}
