{
	 "smiles": "C[C@@H](CCC(O)=O)C1CCC2C3C(C[C@H](OC(C)=O)[C@]12C)[C@@]1(C)CC[C@H](C[C@H]1CC3=O)OC(C)=O", 
	 "Tm": 379.15, 
	 "num_atms": 77, 
	 "gaussian": { 
		 "optdone": 1, 
		 "sigma_profile": "yes", 
		 "theory": "DFT", 
		 "functional": "B3LYP", 
		 "basiset": "6-31G**", 
		 "properties": { 
			 "R2extent": 19091.8337, 
			 "electric_dipole_moment_norm": 1.44594104306, 
			 "electric_quadrupole_moment_norm": 28.5455556968, 
			 "total_energy": -1618.9040361, 
			 "HOMO_LUMO_gap": 0.22078, 
			 "cosmo_polarized_energy": -25.89, 
			 "cosmo_cavitation_energy": 67.87, 
			 "cosmo_dispersion_energy": -42.33, 
			 "cosmo_repulsion_energy": 3.14, 
			 "cosmo_total_nonelectrostatic_energy": 28.68, 
			 "SMD_solvation_energy": 13.61 
		},
		"coords": [
			{
				"x": -3.2813575925,
				"y": 2.0611488318,
				"z": 0.2469797242,
				"element": "C" 
			},
			{
				"x": -2.449293696,
				"y": 2.8008793226,
				"z": 1.3098984935,
				"element": "C" 
			},
			{
				"x": -2.6148096171,
				"y": 2.1437144806,
				"z": 2.6995743641,
				"element": "C" 
			},
			{
				"x": -2.2335095134,
				"y": 3.0594524672,
				"z": 3.8850645922,
				"element": "C" 
			},
			{
				"x": -2.4298432727,
				"y": 2.3328090821,
				"z": 5.1956221167,
				"element": "C" 
			},
			{
				"x": -1.3310464554,
				"y": 1.6110460522,
				"z": 5.5337820008,
				"element": "O" 
			},
			{
				"x": -3.4399230772,
				"y": 2.3339424983,
				"z": 5.8643474257,
				"element": "O" 
			},
			{
				"x": -0.9754270663,
				"y": 3.1419455568,
				"z": 0.932241918,
				"element": "C" 
			},
			{
				"x": -0.9279957353,
				"y": 4.0727887562,
				"z": -0.3363863794,
				"element": "C" 
			},
			{
				"x": -0.1036166598,
				"y": 3.3523512823,
				"z": -1.4364564861,
				"element": "C" 
			},
			{
				"x": 0.0441748848,
				"y": 1.9166551635,
				"z": -0.9186170269,
				"element": "C" 
			},
			{
				"x": 1.1377912863,
				"y": 1.0436978207,
				"z": -1.6050886043,
				"element": "C" 
			},
			{
				"x": 2.0132477464,
				"y": 0.1693229515,
				"z": -0.6432869538,
				"element": "C" 
			},
			{
				"x": 1.3745188646,
				"y": -0.1812794988,
				"z": 0.7393218607,
				"element": "C" 
			},
			{
				"x": 0.1625709877,
				"y": 0.6577147402,
				"z": 1.231277129,
				"element": "C" 
			},
			{
				"x": -1.056887101,
				"y": -0.0549380845,
				"z": 0.8502740774,
				"element": "O" 
			},
			{
				"x": -1.4276851126,
				"y": -1.0943311869,
				"z": 1.6432458151,
				"element": "C" 
			},
			{
				"x": -2.6887596725,
				"y": -1.750854422,
				"z": 1.1328924549,
				"element": "C" 
			},
			{
				"x": -0.821154197,
				"y": -1.4327648512,
				"z": 2.6363028343,
				"element": "O" 
			},
			{
				"x": 0.151339533,
				"y": 2.0683378875,
				"z": 0.6162894078,
				"element": "C" 
			},
			{
				"x": 1.4652718584,
				"y": 2.7610285052,
				"z": 1.0805951287,
				"element": "C" 
			},
			{
				"x": 2.6284435027,
				"y": -1.0559465098,
				"z": -1.4129867783,
				"element": "C" 
			},
			{
				"x": 3.5139332282,
				"y": -0.4951594927,
				"z": -2.5554439266,
				"element": "C" 
			},
			{
				"x": 3.5416176507,
				"y": -1.898049349,
				"z": -0.4756997339,
				"element": "C" 
			},
			{
				"x": 3.8329731682,
				"y": -3.2895972905,
				"z": -1.0505802798,
				"element": "C" 
			},
			{
				"x": 2.55518507,
				"y": -4.1444780715,
				"z": -1.1577986752,
				"element": "C" 
			},
			{
				"x": 1.2887105013,
				"y": -3.2862228181,
				"z": -1.2763855912,
				"element": "C" 
			},
			{
				"x": 1.5313568668,
				"y": -1.9848310611,
				"z": -2.0619084836,
				"element": "C" 
			},
			{
				"x": 0.1973103285,
				"y": -1.2384787352,
				"z": -2.3083717986,
				"element": "C" 
			},
			{
				"x": 0.4309789621,
				"y": 0.2124639652,
				"z": -2.6773743155,
				"element": "C" 
			},
			{
				"x": 0.0583747269,
				"y": 0.7030995799,
				"z": -3.7281299424,
				"element": "O" 
			},
			{
				"x": 2.3682598084,
				"y": -4.9449229689,
				"z": 0.0442468518,
				"element": "O" 
			},
			{
				"x": 3.0290607276,
				"y": -6.1255366647,
				"z": 0.1043920128,
				"element": "C" 
			},
			{
				"x": 2.7194775551,
				"y": -6.8443902738,
				"z": 1.3969489329,
				"element": "C" 
			},
			{
				"x": 3.7619862297,
				"y": -6.5378525904,
				"z": -0.7688681352,
				"element": "O" 
			},
			{
				"x": -4.3357743727,
				"y": 2.0462240228,
				"z": 0.54507635,
				"element": "H" 
			},
			{
				"x": -3.2311351357,
				"y": 2.5587094328,
				"z": -0.7263257949,
				"element": "H" 
			},
			{
				"x": -2.9508265337,
				"y": 1.0317083437,
				"z": 0.1116976104,
				"element": "H" 
			},
			{
				"x": -2.9109436154,
				"y": 3.7974469768,
				"z": 1.4014876233,
				"element": "H" 
			},
			{
				"x": -3.6668326164,
				"y": 1.8602325021,
				"z": 2.8268035541,
				"element": "H" 
			},
			{
				"x": -2.0359831655,
				"y": 1.2199948094,
				"z": 2.7697744505,
				"element": "H" 
			},
			{
				"x": -1.1901651741,
				"y": 3.3780701191,
				"z": 3.8122889475,
				"element": "H" 
			},
			{
				"x": -2.8733359901,
				"y": 3.9461578174,
				"z": 3.8959066315,
				"element": "H" 
			},
			{
				"x": -1.5608328841,
				"y": 1.1289553523,
				"z": 6.345994389,
				"element": "H" 
			},
			{
				"x": -0.6094776056,
				"y": 3.721460279,
				"z": 1.7857045938,
				"element": "H" 
			},
			{
				"x": -0.4862294688,
				"y": 5.0431270485,
				"z": -0.0895289596,
				"element": "H" 
			},
			{
				"x": -1.941798328,
				"y": 4.2855364516,
				"z": -0.6860083303,
				"element": "H" 
			},
			{
				"x": 0.8838423064,
				"y": 3.8138935611,
				"z": -1.5529458971,
				"element": "H" 
			},
			{
				"x": -0.5817305335,
				"y": 3.3816079862,
				"z": -2.4192692682,
				"element": "H" 
			},
			{
				"x": -0.9210583967,
				"y": 1.4230799022,
				"z": -1.078542692,
				"element": "H" 
			},
			{
				"x": 1.8067088711,
				"y": 1.7191188244,
				"z": -2.1476068785,
				"element": "H" 
			},
			{
				"x": 2.8844004518,
				"y": 0.7897918889,
				"z": -0.4093741706,
				"element": "H" 
			},
			{
				"x": 2.1573637329,
				"y": -0.1002021897,
				"z": 1.4994113676,
				"element": "H" 
			},
			{
				"x": 1.0571294803,
				"y": -1.2235459699,
				"z": 0.777804804,
				"element": "H" 
			},
			{
				"x": 0.1817995793,
				"y": 0.6895614066,
				"z": 2.3232509349,
				"element": "H" 
			},
			{
				"x": -2.6060533662,
				"y": -1.9786542766,
				"z": 0.0667794576,
				"element": "H" 
			},
			{
				"x": -3.5370076621,
				"y": -1.0705113141,
				"z": 1.2571620106,
				"element": "H" 
			},
			{
				"x": -2.8719324066,
				"y": -2.6630162527,
				"z": 1.7001473846,
				"element": "H" 
			},
			{
				"x": 1.5090007055,
				"y": 3.793525653,
				"z": 0.7265503765,
				"element": "H" 
			},
			{
				"x": 2.3743121685,
				"y": 2.2658190279,
				"z": 0.7403014657,
				"element": "H" 
			},
			{
				"x": 1.4968305515,
				"y": 2.7944921815,
				"z": 2.1755268796,
				"element": "H" 
			},
			{
				"x": 4.0869760769,
				"y": -1.2961524294,
				"z": -3.0325543658,
				"element": "H" 
			},
			{
				"x": 2.9292864008,
				"y": -0.0141511616,
				"z": -3.3448557073,
				"element": "H" 
			},
			{
				"x": 4.2300352905,
				"y": 0.2407287502,
				"z": -2.1721316704,
				"element": "H" 
			},
			{
				"x": 4.4784439648,
				"y": -1.3542033782,
				"z": -0.3028116274,
				"element": "H" 
			},
			{
				"x": 3.0786242648,
				"y": -2.0289072184,
				"z": 0.5070224794,
				"element": "H" 
			},
			{
				"x": 4.5690015565,
				"y": -3.8216634947,
				"z": -0.4417651729,
				"element": "H" 
			},
			{
				"x": 4.2774964213,
				"y": -3.2041797208,
				"z": -2.048574631,
				"element": "H" 
			},
			{
				"x": 2.6507051469,
				"y": -4.8376585671,
				"z": -1.996833701,
				"element": "H" 
			},
			{
				"x": 0.9408575468,
				"y": -3.0553114157,
				"z": -0.2637440246,
				"element": "H" 
			},
			{
				"x": 0.4888684934,
				"y": -3.8659226257,
				"z": -1.7511722166,
				"element": "H" 
			},
			{
				"x": 1.9119766099,
				"y": -2.2755417203,
				"z": -3.0500693329,
				"element": "H" 
			},
			{
				"x": -0.3916082941,
				"y": -1.2404116294,
				"z": -1.3813264881,
				"element": "H" 
			},
			{
				"x": -0.3928619453,
				"y": -1.7228410344,
				"z": -3.0905992025,
				"element": "H" 
			},
			{
				"x": 3.2724153351,
				"y": -7.7825163908,
				"z": 1.4316970968,
				"element": "H" 
			},
			{
				"x": 2.9916226835,
				"y": -6.2169060759,
				"z": 2.250710715,
				"element": "H" 
			},
			{
				"x": 1.6456151374,
				"y": -7.0410105468,
				"z": 1.4687269795,
				"element": "H" 
			}
		],
		 "valence_orbital": [ 
			{
				"type": "occ",
				"energy": -0.2889,
				"method": "rhf"
			},
			{
				"type": "occ",
				"energy": -0.27884,
				"method": "rhf"
			},
			{
				"type": "occ",
				"energy": -0.26968,
				"method": "rhf"
			},
			{
				"type": "occ",
				"energy": -0.26817,
				"method": "rhf"
			},
			{
				"type": "occ",
				"energy": -0.23378,
				"method": "rhf"
			},
			{
				"type": "unocc",
				"energy": -0.013,
				"method": "rhf"
			},
			{
				"type": "unocc",
				"energy": 0.00026,
				"method": "rhf"
			},
			{
				"type": "unocc",
				"energy": 0.00968,
				"method": "rhf"
			},
			{
				"type": "unocc",
				"energy": 0.01298,
				"method": "rhf"
			},
			{
				"type": "unocc",
				"energy": 0.05043,
				"method": "rhf"
			}
		],
		"cosmo_sigma_profile": { 
			"-0.025": 0.0,
			"-0.024": 0.0,
			"-0.023": 0.0,
			"-0.022": 0.0,
			"-0.021": 0.0,
			"-0.02": 0.0,
			"-0.019": 0.0,
			"-0.018": 0.383455705264,
			"-0.017": 1.00145987429,
			"-0.016": 0.600690322314,
			"-0.015": 1.18267689313,
			"-0.014": 0.854743763029,
			"-0.013": 0.62620915571,
			"-0.012": 0.609258405139,
			"-0.011": 0.664666610172,
			"-0.01": 0.819624538037,
			"-0.009": 0.467461849434,
			"-0.008": 0.573229877608,
			"-0.007": 2.24680487665,
			"-0.006": 8.22207928916,
			"-0.005": 21.0579135165,
			"-0.004": 48.9548704114,
			"-0.003": 81.2718929316,
			"-0.002": 90.1385028118,
			"-0.001": 63.3112687704,
			"0.0": 42.5751002855,
			"0.001": 34.4165624687,
			"0.002": 17.9722719463,
			"0.003": 10.8646891942,
			"0.004": 8.25917720109,
			"0.005": 9.45984251269,
			"0.006": 9.08664755193,
			"0.007": 7.37851710204,
			"0.008": 8.39086096655,
			"0.009": 7.83134706226,
			"0.01": 6.94170460793,
			"0.011": 10.4871573035,
			"0.012": 18.0939341784,
			"0.013": 8.76854299408,
			"0.014": 1.06942657626,
			"0.015": 0.0,
			"0.016": 0.0,
			"0.017": 0.0,
			"0.018": 0.0,
			"0.019": 0.0,
			"0.02": 0.0,
			"0.021": 0.0,
			"0.022": 0.0,
			"0.023": 0.0,
			"0.024": 0.0,
			"0.025": 0.0
		}
	}
}
