{
	 "smiles": "[O-][N+](=O)C1=CC2=C(C=C1)N=C(Br)S2", 
	 "Tm": 475.15, 
	 "num_atms": 16, 
	 "gaussian": { 
		 "optdone": 1, 
		 "sigma_profile": "yes", 
		 "theory": "DFT", 
		 "functional": "B3LYP", 
		 "basiset": "6-31G**", 
		 "properties": { 
			 "R2extent": 5565.0938, 
			 "electric_dipole_moment_norm": 3.04746103667, 
			 "electric_quadrupole_moment_norm": 13.4089118477, 
			 "total_energy": -3497.98949782, 
			 "HOMO_LUMO_gap": 0.16791, 
			 "cosmo_polarized_energy": -8.58, 
			 "cosmo_cavitation_energy": 25.9, 
			 "cosmo_dispersion_energy": -20.29, 
			 "cosmo_repulsion_energy": 1.54, 
			 "cosmo_total_nonelectrostatic_energy": 7.15, 
			 "SMD_solvation_energy": 3.28 
		},
		"coords": [
			{
				"x": -3.4332015837,
				"y": 0.3394349781,
				"z": 2.0443454064,
				"element": "O" 
			},
			{
				"x": -2.7126754817,
				"y": 1.1733534303,
				"z": 1.4982176841,
				"element": "N" 
			},
			{
				"x": -2.8892663222,
				"y": 2.390683017,
				"z": 1.5428837261,
				"element": "O" 
			},
			{
				"x": -1.5546154576,
				"y": 0.6790045306,
				"z": 0.7353421525,
				"element": "C" 
			},
			{
				"x": -0.7323707503,
				"y": 1.61375272,
				"z": 0.1132868875,
				"element": "C" 
			},
			{
				"x": 0.3529206845,
				"y": 1.1135188154,
				"z": -0.5992453,
				"element": "C" 
			},
			{
				"x": 0.6080074839,
				"y": -0.2805297249,
				"z": -0.6868434811,
				"element": "C" 
			},
			{
				"x": -0.2472047558,
				"y": -1.1888226953,
				"z": -0.0438904847,
				"element": "C" 
			},
			{
				"x": -1.3326685755,
				"y": -0.7048219431,
				"z": 0.6698010005,
				"element": "C" 
			},
			{
				"x": 1.7229266656,
				"y": -0.6361533866,
				"z": -1.4286065569,
				"element": "N" 
			},
			{
				"x": 2.299834966,
				"y": 0.4153859827,
				"z": -1.8896215359,
				"element": "C" 
			},
			{
				"x": 3.8548405654,
				"y": 0.3657977233,
				"z": -2.95182835,
				"element": "Br" 
			},
			{
				"x": 1.5845041452,
				"y": 1.9841209218,
				"z": -1.4978491229,
				"element": "S" 
			},
			{
				"x": -0.9548135274,
				"y": 2.6696017142,
				"z": 0.1997007863,
				"element": "H" 
			},
			{
				"x": -0.0452508097,
				"y": -2.2516426411,
				"z": -0.1157858737,
				"element": "H" 
			},
			{
				"x": -2.0188672467,
				"y": -1.3671834423,
				"z": 1.1815930619,
				"element": "H" 
			}
		],
		 "valence_orbital": [ 
			{
				"type": "occ",
				"energy": -0.31584,
				"method": "rhf"
			},
			{
				"type": "occ",
				"energy": -0.31406,
				"method": "rhf"
			},
			{
				"type": "occ",
				"energy": -0.29832,
				"method": "rhf"
			},
			{
				"type": "occ",
				"energy": -0.27141,
				"method": "rhf"
			},
			{
				"type": "occ",
				"energy": -0.27034,
				"method": "rhf"
			},
			{
				"type": "unocc",
				"energy": -0.10243,
				"method": "rhf"
			},
			{
				"type": "unocc",
				"energy": -0.0499,
				"method": "rhf"
			},
			{
				"type": "unocc",
				"energy": -0.04013,
				"method": "rhf"
			},
			{
				"type": "unocc",
				"energy": -0.03928,
				"method": "rhf"
			},
			{
				"type": "unocc",
				"energy": -0.00891,
				"method": "rhf"
			}
		],
		"cosmo_sigma_profile": { 
			"-0.025": 0.0,
			"-0.024": 0.0,
			"-0.023": 0.0,
			"-0.022": 0.0,
			"-0.021": 0.0,
			"-0.02": 0.0,
			"-0.019": 0.0,
			"-0.018": 0.0,
			"-0.017": 0.0,
			"-0.016": 0.0,
			"-0.015": 0.0,
			"-0.014": 0.0,
			"-0.013": 0.0,
			"-0.012": 0.0,
			"-0.011": 0.0496860105882,
			"-0.01": 1.42293525347,
			"-0.009": 2.03256247142,
			"-0.008": 4.27233821172,
			"-0.007": 6.54017790308,
			"-0.006": 8.58999622088,
			"-0.005": 8.10683766021,
			"-0.004": 12.4366852026,
			"-0.003": 16.5005023191,
			"-0.002": 20.6318991718,
			"-0.001": 27.8467793998,
			"0.0": 22.937361217,
			"0.001": 19.9288301795,
			"0.002": 15.6500173413,
			"0.003": 7.642545375,
			"0.004": 4.19681493244,
			"0.005": 4.47552803523,
			"0.006": 5.33505561385,
			"0.007": 10.0383670524,
			"0.008": 6.991815553,
			"0.009": 5.57209914749,
			"0.01": 3.02800110099,
			"0.011": 0.847851662031,
			"0.012": 0.619749800257,
			"0.013": 0.125516801894,
			"0.014": 0.0,
			"0.015": 0.0,
			"0.016": 0.0,
			"0.017": 0.0,
			"0.018": 0.0,
			"0.019": 0.0,
			"0.02": 0.0,
			"0.021": 0.0,
			"0.022": 0.0,
			"0.023": 0.0,
			"0.024": 0.0,
			"0.025": 0.0
		}
	}
}
