{
	 "smiles": "O=S1(=O)NC2=C(N1)C=CC=C2", 
	 "Tm": 451.15, 
	 "num_atms": 17, 
	 "gaussian": { 
		 "optdone": 1, 
		 "sigma_profile": "yes", 
		 "theory": "DFT", 
		 "functional": "B3LYP", 
		 "basiset": "6-31G**", 
		 "properties": { 
			 "R2extent": 2093.5895, 
			 "electric_dipole_moment_norm": 3.99987402427, 
			 "electric_quadrupole_moment_norm": 17.3172796267, 
			 "total_energy": -890.30781411, 
			 "HOMO_LUMO_gap": 0.20867, 
			 "cosmo_polarized_energy": -17.37, 
			 "cosmo_cavitation_energy": 22.35, 
			 "cosmo_dispersion_energy": -17.83, 
			 "cosmo_repulsion_energy": 1.37, 
			 "cosmo_total_nonelectrostatic_energy": 5.89, 
			 "SMD_solvation_energy": 2.51 
		},
		"coords": [
			{
				"x": -2.7617916347,
				"y": -1.1700316501,
				"z": 0.1082542007,
				"element": "O" 
			},
			{
				"x": -1.9814437861,
				"y": -0.0197288043,
				"z": 0.5324184759,
				"element": "S" 
			},
			{
				"x": -2.6690970181,
				"y": 1.2514491131,
				"z": 0.7705468587,
				"element": "O" 
			},
			{
				"x": -0.6185603422,
				"y": 0.1891030987,
				"z": -0.4876117427,
				"element": "N" 
			},
			{
				"x": 0.5355512991,
				"y": 0.4302473841,
				"z": 0.293342301,
				"element": "C" 
			},
			{
				"x": 0.3358912961,
				"y": 0.0708303861,
				"z": 1.6354415871,
				"element": "C" 
			},
			{
				"x": -0.9663794252,
				"y": -0.4370350786,
				"z": 1.8504041651,
				"element": "N" 
			},
			{
				"x": 1.3590742724,
				"y": 0.1968287204,
				"z": 2.56646987,
				"element": "C" 
			},
			{
				"x": 2.5954951181,
				"y": 0.6906679234,
				"z": 2.1335010495,
				"element": "C" 
			},
			{
				"x": 2.7940432171,
				"y": 1.0480872025,
				"z": 0.7988609645,
				"element": "C" 
			},
			{
				"x": 1.7613977468,
				"y": 0.9210690128,
				"z": -0.1379294967,
				"element": "C" 
			},
			{
				"x": -0.8142293326,
				"y": 0.8250602754,
				"z": -1.2552068098,
				"element": "H" 
			},
			{
				"x": -1.4092402033,
				"y": -0.2459657444,
				"z": 2.7444416673,
				"element": "H" 
			},
			{
				"x": 1.2002252327,
				"y": -0.0821538934,
				"z": 3.6034392297,
				"element": "H" 
			},
			{
				"x": 3.4053962841,
				"y": 0.7947917976,
				"z": 2.848332803,
				"element": "H" 
			},
			{
				"x": 3.7580186526,
				"y": 1.4295910975,
				"z": 0.4779691918,
				"element": "H" 
			},
			{
				"x": 1.9113486233,
				"y": 1.1979891593,
				"z": -1.176774315,
				"element": "H" 
			}
		],
		 "valence_orbital": [ 
			{
				"type": "occ",
				"energy": -0.34176,
				"method": "rhf"
			},
			{
				"type": "occ",
				"energy": -0.31881,
				"method": "rhf"
			},
			{
				"type": "occ",
				"energy": -0.30469,
				"method": "rhf"
			},
			{
				"type": "occ",
				"energy": -0.25364,
				"method": "rhf"
			},
			{
				"type": "occ",
				"energy": -0.22679,
				"method": "rhf"
			},
			{
				"type": "unocc",
				"energy": -0.01812,
				"method": "rhf"
			},
			{
				"type": "unocc",
				"energy": -0.00609,
				"method": "rhf"
			},
			{
				"type": "unocc",
				"energy": 0.03078,
				"method": "rhf"
			},
			{
				"type": "unocc",
				"energy": 0.04599,
				"method": "rhf"
			},
			{
				"type": "unocc",
				"energy": 0.05716,
				"method": "rhf"
			}
		],
		"cosmo_sigma_profile": { 
			"-0.025": 0.0,
			"-0.024": 0.0,
			"-0.023": 0.0,
			"-0.022": 0.0,
			"-0.021": 0.0,
			"-0.02": 0.0,
			"-0.019": 0.0,
			"-0.018": 0.286879424274,
			"-0.017": 2.88440485233,
			"-0.016": 2.70332297274,
			"-0.015": 2.50368129557,
			"-0.014": 2.8006039976,
			"-0.013": 2.32272503923,
			"-0.012": 2.22966779156,
			"-0.011": 2.41010028589,
			"-0.01": 1.74344480606,
			"-0.009": 2.01653294249,
			"-0.008": 3.39800345782,
			"-0.007": 5.69076236518,
			"-0.006": 8.14298177992,
			"-0.005": 9.27444505673,
			"-0.004": 9.80795420915,
			"-0.003": 6.40094854257,
			"-0.002": 7.31288028827,
			"-0.001": 7.61480345206,
			"0.0": 6.71832405976,
			"0.001": 7.68544226509,
			"0.002": 9.14057009593,
			"0.003": 11.8797005087,
			"0.004": 11.5401906437,
			"0.005": 10.1820070112,
			"0.006": 5.20597325556,
			"0.007": 4.3215444667,
			"0.008": 5.40339230822,
			"0.009": 11.4919950591,
			"0.01": 13.978076807,
			"0.011": 2.26976650768,
			"0.012": 0.0,
			"0.013": 0.0,
			"0.014": 0.0,
			"0.015": 0.0,
			"0.016": 0.0,
			"0.017": 0.0,
			"0.018": 0.0,
			"0.019": 0.0,
			"0.02": 0.0,
			"0.021": 0.0,
			"0.022": 0.0,
			"0.023": 0.0,
			"0.024": 0.0,
			"0.025": 0.0
		}
	}
}
