{
	 "smiles": "CCCCCCCCC=CCCCCCCCC(O)=O", 
	 "Tm": 318.15, 
	 "num_atms": 54, 
	 "gaussian": { 
		 "optdone": 1, 
		 "sigma_profile": "yes", 
		 "theory": "DFT", 
		 "functional": "B3LYP", 
		 "basiset": "6-31G**", 
		 "properties": { 
			 "R2extent": 15974.8301, 
			 "electric_dipole_moment_norm": 1.73661653223, 
			 "electric_quadrupole_moment_norm": 18.8954432404, 
			 "total_energy": -856.896807198, 
			 "HOMO_LUMO_gap": 0.2484, 
			 "cosmo_polarized_energy": -9.35, 
			 "cosmo_cavitation_energy": 54.93, 
			 "cosmo_dispersion_energy": -36.98, 
			 "cosmo_repulsion_energy": 3.05, 
			 "cosmo_total_nonelectrostatic_energy": 21.0, 
			 "SMD_solvation_energy": 8.69 
		},
		"coords": [
			{
				"x": 0.6627533089,
				"y": -4.9603959431,
				"z": -3.9130168752,
				"element": "C" 
			},
			{
				"x": 2.0373386442,
				"y": -4.6517704862,
				"z": -3.3107746755,
				"element": "C" 
			},
			{
				"x": 2.2274535575,
				"y": -5.260692431,
				"z": -1.9126131354,
				"element": "C" 
			},
			{
				"x": 3.6013509942,
				"y": -4.9969052863,
				"z": -1.2568898511,
				"element": "C" 
			},
			{
				"x": 3.6946674349,
				"y": -3.7529545779,
				"z": -0.3546054532,
				"element": "C" 
			},
			{
				"x": 3.4961658227,
				"y": -2.396554974,
				"z": -1.0454451327,
				"element": "C" 
			},
			{
				"x": 3.7292697446,
				"y": -1.2109702153,
				"z": -0.0984779178,
				"element": "C" 
			},
			{
				"x": 3.6012169772,
				"y": 0.1785137695,
				"z": -0.7611525532,
				"element": "C" 
			},
			{
				"x": 2.2218544575,
				"y": 0.4991863109,
				"z": -1.2733516251,
				"element": "C" 
			},
			{
				"x": 1.4344345776,
				"y": 1.468709673,
				"z": -0.7983038502,
				"element": "C" 
			},
			{
				"x": 0.048818168,
				"y": 1.7869781094,
				"z": -1.2903275554,
				"element": "C" 
			},
			{
				"x": -1.0311874371,
				"y": 1.625640088,
				"z": -0.2028872844,
				"element": "C" 
			},
			{
				"x": -2.43648526,
				"y": 1.9973757831,
				"z": -0.6961026852,
				"element": "C" 
			},
			{
				"x": -3.5358714075,
				"y": 1.924494002,
				"z": 0.3770489239,
				"element": "C" 
			},
			{
				"x": -3.8226856525,
				"y": 0.5064694367,
				"z": 0.8944606623,
				"element": "C" 
			},
			{
				"x": -5.027249774,
				"y": 0.4062383676,
				"z": 1.8440730191,
				"element": "C" 
			},
			{
				"x": -4.8195756761,
				"y": 1.1405322811,
				"z": 3.1850527193,
				"element": "C" 
			},
			{
				"x": -5.9825888266,
				"y": 0.9605627986,
				"z": 4.1334232648,
				"element": "C" 
			},
			{
				"x": -7.1236888349,
				"y": 1.5100309024,
				"z": 3.6408112636,
				"element": "O" 
			},
			{
				"x": -5.9492207874,
				"y": 0.3964878638,
				"z": 5.2049362316,
				"element": "O" 
			},
			{
				"x": 0.4989349172,
				"y": -6.0413391232,
				"z": -3.993456512,
				"element": "H" 
			},
			{
				"x": -0.143070361,
				"y": -4.5518466732,
				"z": -3.2921812255,
				"element": "H" 
			},
			{
				"x": 0.5582333858,
				"y": -4.5330939917,
				"z": -4.915846032,
				"element": "H" 
			},
			{
				"x": 2.1834428505,
				"y": -3.5659172669,
				"z": -3.2751523054,
				"element": "H" 
			},
			{
				"x": 2.8223869488,
				"y": -5.0393234192,
				"z": -3.974487893,
				"element": "H" 
			},
			{
				"x": 2.0767674298,
				"y": -6.3452528476,
				"z": -1.998361214,
				"element": "H" 
			},
			{
				"x": 1.4291204984,
				"y": -4.9041704615,
				"z": -1.2454441707,
				"element": "H" 
			},
			{
				"x": 3.8683444945,
				"y": -5.8650250104,
				"z": -0.6413256177,
				"element": "H" 
			},
			{
				"x": 4.3722064226,
				"y": -4.9399712905,
				"z": -2.0387498153,
				"element": "H" 
			},
			{
				"x": 2.9609325586,
				"y": -3.8493783531,
				"z": 0.4586945416,
				"element": "H" 
			},
			{
				"x": 4.6806795479,
				"y": -3.7555651071,
				"z": 0.1309722391,
				"element": "H" 
			},
			{
				"x": 2.4823261067,
				"y": -2.33848171,
				"z": -1.4585348033,
				"element": "H" 
			},
			{
				"x": 4.1834437555,
				"y": -2.317942336,
				"z": -1.9006783434,
				"element": "H" 
			},
			{
				"x": 3.0244770112,
				"y": -1.2703686734,
				"z": 0.7417058306,
				"element": "H" 
			},
			{
				"x": 4.7350469117,
				"y": -1.2959121525,
				"z": 0.3353736956,
				"element": "H" 
			},
			{
				"x": 4.3213463557,
				"y": 0.2339659042,
				"z": -1.5915333167,
				"element": "H" 
			},
			{
				"x": 3.902729997,
				"y": 0.9461270655,
				"z": -0.037988812,
				"element": "H" 
			},
			{
				"x": 1.8497942534,
				"y": -0.1156460078,
				"z": -2.0945948591,
				"element": "H" 
			},
			{
				"x": 1.8034872039,
				"y": 2.0891903992,
				"z": 0.0218368257,
				"element": "H" 
			},
			{
				"x": 0.0188040594,
				"y": 2.8238532829,
				"z": -1.6587024509,
				"element": "H" 
			},
			{
				"x": -0.195096572,
				"y": 1.1470232158,
				"z": -2.1481723294,
				"element": "H" 
			},
			{
				"x": -0.7718011187,
				"y": 2.254941692,
				"z": 0.6606490392,
				"element": "H" 
			},
			{
				"x": -1.0131639492,
				"y": 0.5901322683,
				"z": 0.1579984187,
				"element": "H" 
			},
			{
				"x": -2.4083332931,
				"y": 3.0181975998,
				"z": -1.1008334456,
				"element": "H" 
			},
			{
				"x": -2.7098840332,
				"y": 1.3458695659,
				"z": -1.5386021202,
				"element": "H" 
			},
			{
				"x": -3.2586133336,
				"y": 2.5817855567,
				"z": 1.2123968105,
				"element": "H" 
			},
			{
				"x": -4.4638497973,
				"y": 2.3389003067,
				"z": -0.0405800914,
				"element": "H" 
			},
			{
				"x": -4.0097009312,
				"y": -0.1498628925,
				"z": 0.0336687791,
				"element": "H" 
			},
			{
				"x": -2.9351317538,
				"y": 0.101282723,
				"z": 1.397492951,
				"element": "H" 
			},
			{
				"x": -5.9226839756,
				"y": 0.8054912858,
				"z": 1.3536500324,
				"element": "H" 
			},
			{
				"x": -5.2294408833,
				"y": -0.6517319804,
				"z": 2.0520936418,
				"element": "H" 
			},
			{
				"x": -4.6917709923,
				"y": 2.2142433731,
				"z": 3.0072319332,
				"element": "H" 
			},
			{
				"x": -3.9273354347,
				"y": 0.7695624203,
				"z": 3.6960138254,
				"element": "H" 
			},
			{
				"x": -7.8115983109,
				"y": 1.3342871658,
				"z": 4.3045893034,
				"element": "H" 
			}
		],
		 "valence_orbital": [ 
			{
				"type": "occ",
				"energy": -0.30888,
				"method": "rhf"
			},
			{
				"type": "occ",
				"energy": -0.30227,
				"method": "rhf"
			},
			{
				"type": "occ",
				"energy": -0.29882,
				"method": "rhf"
			},
			{
				"type": "occ",
				"energy": -0.26817,
				"method": "rhf"
			},
			{
				"type": "occ",
				"energy": -0.23672,
				"method": "rhf"
			},
			{
				"type": "unocc",
				"energy": 0.01168,
				"method": "rhf"
			},
			{
				"type": "unocc",
				"energy": 0.02646,
				"method": "rhf"
			},
			{
				"type": "unocc",
				"energy": 0.07625,
				"method": "rhf"
			},
			{
				"type": "unocc",
				"energy": 0.0869,
				"method": "rhf"
			},
			{
				"type": "unocc",
				"energy": 0.09134,
				"method": "rhf"
			}
		],
		"cosmo_sigma_profile": { 
			"-0.025": 0.0,
			"-0.024": 0.0,
			"-0.023": 0.0,
			"-0.022": 0.0,
			"-0.021": 0.0,
			"-0.02": 0.0,
			"-0.019": 0.0,
			"-0.018": 0.250920343661,
			"-0.017": 0.972343812363,
			"-0.016": 0.833996939337,
			"-0.015": 1.11638831679,
			"-0.014": 0.850083482834,
			"-0.013": 0.343702426065,
			"-0.012": 0.346272458294,
			"-0.011": 0.812215405268,
			"-0.01": 1.07010453453,
			"-0.009": 0.578097579859,
			"-0.008": 0.519271499768,
			"-0.007": 0.955008855429,
			"-0.006": 1.36440902552,
			"-0.005": 3.51464153631,
			"-0.004": 7.90264817121,
			"-0.003": 22.8135224013,
			"-0.002": 67.1091534942,
			"-0.001": 88.6330108627,
			"0.0": 85.3497733511,
			"0.001": 58.4825547711,
			"0.002": 28.9960769591,
			"0.003": 8.89249044626,
			"0.004": 6.43245261953,
			"0.005": 5.27512075723,
			"0.006": 5.41229826608,
			"0.007": 4.53211838693,
			"0.008": 3.3676789591,
			"0.009": 2.32772342667,
			"0.01": 2.38871915948,
			"0.011": 3.32271348177,
			"0.012": 5.08741133382,
			"0.013": 1.98615194918,
			"0.014": 0.0687581762309,
			"0.015": 0.0,
			"0.016": 0.0,
			"0.017": 0.0,
			"0.018": 0.0,
			"0.019": 0.0,
			"0.02": 0.0,
			"0.021": 0.0,
			"0.022": 0.0,
			"0.023": 0.0,
			"0.024": 0.0,
			"0.025": 0.0
		}
	}
}
