{
	 "smiles": "OC(=O)CCC1=NN=C(O1)C1=CC=C(Cl)C=C1", 
	 "Tm": 433.15, 
	 "num_atms": 26, 
	 "gaussian": { 
		 "optdone": 1, 
		 "sigma_profile": "yes", 
		 "theory": "DFT", 
		 "functional": "B3LYP", 
		 "basiset": "6-31G**", 
		 "properties": { 
			 "R2extent": 6661.6552, 
			 "electric_dipole_moment_norm": 3.43135930646, 
			 "electric_quadrupole_moment_norm": 14.3254547219, 
			 "total_energy": -1219.95812093, 
			 "HOMO_LUMO_gap": 0.18296, 
			 "cosmo_polarized_energy": -16.92, 
			 "cosmo_cavitation_energy": 33.95, 
			 "cosmo_dispersion_energy": -24.01, 
			 "cosmo_repulsion_energy": 1.87, 
			 "cosmo_total_nonelectrostatic_energy": 11.81, 
			 "SMD_solvation_energy": 4.66 
		},
		"coords": [
			{
				"x": 1.9561422555,
				"y": -1.479448125,
				"z": -3.2312691987,
				"element": "O" 
			},
			{
				"x": 1.0129726089,
				"y": -2.3382596323,
				"z": -2.7704225015,
				"element": "C" 
			},
			{
				"x": 1.0952343703,
				"y": -2.8824038177,
				"z": -1.6929288916,
				"element": "O" 
			},
			{
				"x": -0.102610835,
				"y": -2.5311958226,
				"z": -3.7803586391,
				"element": "C" 
			},
			{
				"x": -0.7490049166,
				"y": -1.2146060699,
				"z": -4.2646145115,
				"element": "C" 
			},
			{
				"x": -1.5558315684,
				"y": -0.5267696904,
				"z": -3.2174782506,
				"element": "C" 
			},
			{
				"x": -2.7427597621,
				"y": -0.0147825808,
				"z": -3.307182549,
				"element": "N" 
			},
			{
				"x": -3.0426100101,
				"y": 0.5147911776,
				"z": -2.0519650802,
				"element": "N" 
			},
			{
				"x": -2.0145385402,
				"y": 0.2762260053,
				"z": -1.2921853456,
				"element": "C" 
			},
			{
				"x": -1.0232829029,
				"y": -0.3800471268,
				"z": -1.9691627289,
				"element": "O" 
			},
			{
				"x": -1.8197968286,
				"y": 0.5956445893,
				"z": 0.1160876938,
				"element": "C" 
			},
			{
				"x": -0.7152300099,
				"y": 0.0968257555,
				"z": 0.8233387165,
				"element": "C" 
			},
			{
				"x": -0.5473287305,
				"y": 0.4062761177,
				"z": 2.1705985649,
				"element": "C" 
			},
			{
				"x": -1.4886406288,
				"y": 1.2156178045,
				"z": 2.8072642675,
				"element": "C" 
			},
			{
				"x": -1.2783764625,
				"y": 1.6098430084,
				"z": 4.5039049303,
				"element": "Cl" 
			},
			{
				"x": -2.5968476859,
				"y": 1.716401005,
				"z": 2.1199311143,
				"element": "C" 
			},
			{
				"x": -2.7598733793,
				"y": 1.4041986302,
				"z": 0.7749244948,
				"element": "C" 
			},
			{
				"x": 2.6310071555,
				"y": -1.415935779,
				"z": -2.5348051429,
				"element": "H" 
			},
			{
				"x": 0.3296997673,
				"y": -3.0390774689,
				"z": -4.6501859708,
				"element": "H" 
			},
			{
				"x": -0.8415157296,
				"y": -3.1977571271,
				"z": -3.331924238,
				"element": "H" 
			},
			{
				"x": 0.0375409113,
				"y": -0.5419941395,
				"z": -4.6253300676,
				"element": "H" 
			},
			{
				"x": -1.4214879022,
				"y": -1.4107631257,
				"z": -5.1028701559,
				"element": "H" 
			},
			{
				"x": 0.0026256384,
				"y": -0.5449778964,
				"z": 0.3232803077,
				"element": "H" 
			},
			{
				"x": 0.3014610911,
				"y": 0.020807385,
				"z": 2.723953957,
				"element": "H" 
			},
			{
				"x": -3.3177778816,
				"y": 2.3419909289,
				"z": 2.633940559,
				"element": "H" 
			},
			{
				"x": -3.6129700241,
				"y": 1.7819959945,
				"z": 0.221758666,
				"element": "H" 
			}
		],
		 "valence_orbital": [ 
			{
				"type": "occ",
				"energy": -0.2956,
				"method": "rhf"
			},
			{
				"type": "occ",
				"energy": -0.28698,
				"method": "rhf"
			},
			{
				"type": "occ",
				"energy": -0.28124,
				"method": "rhf"
			},
			{
				"type": "occ",
				"energy": -0.27544,
				"method": "rhf"
			},
			{
				"type": "occ",
				"energy": -0.24108,
				"method": "rhf"
			},
			{
				"type": "unocc",
				"energy": -0.05812,
				"method": "rhf"
			},
			{
				"type": "unocc",
				"energy": -0.02448,
				"method": "rhf"
			},
			{
				"type": "unocc",
				"energy": -0.00903,
				"method": "rhf"
			},
			{
				"type": "unocc",
				"energy": 0.00915,
				"method": "rhf"
			},
			{
				"type": "unocc",
				"energy": 0.02305,
				"method": "rhf"
			}
		],
		"cosmo_sigma_profile": { 
			"-0.025": 0.0,
			"-0.024": 0.0,
			"-0.023": 0.0,
			"-0.022": 0.0,
			"-0.021": 0.0,
			"-0.02": 0.0,
			"-0.019": 0.134593519068,
			"-0.018": 0.797651987391,
			"-0.017": 0.847589689106,
			"-0.016": 0.958341219949,
			"-0.015": 0.749651551434,
			"-0.014": 0.713976353157,
			"-0.013": 0.227602153327,
			"-0.012": 0.91767253994,
			"-0.011": 1.11785163185,
			"-0.01": 0.460217798126,
			"-0.009": 0.352406829088,
			"-0.008": 4.5384666725,
			"-0.007": 14.4535687039,
			"-0.006": 19.4021304016,
			"-0.005": 17.1132273927,
			"-0.004": 16.3725553626,
			"-0.003": 16.5212883941,
			"-0.002": 16.4040692561,
			"-0.001": 17.5911777125,
			"0.0": 20.4221576532,
			"0.001": 25.2682253204,
			"0.002": 25.3297982703,
			"0.003": 12.1983376572,
			"0.004": 14.3239216396,
			"0.005": 6.56966724912,
			"0.006": 5.07807912367,
			"0.007": 3.59718647352,
			"0.008": 4.16260543458,
			"0.009": 4.76583236166,
			"0.01": 3.3126183018,
			"0.011": 7.23081628404,
			"0.012": 6.58951856735,
			"0.013": 2.88689523619,
			"0.014": 1.98760163613,
			"0.015": 0.775169130581,
			"0.016": 0.0566091642601,
			"0.017": 0.0,
			"0.018": 0.0,
			"0.019": 0.0,
			"0.02": 0.0,
			"0.021": 0.0,
			"0.022": 0.0,
			"0.023": 0.0,
			"0.024": 0.0,
			"0.025": 0.0
		}
	}
}
