{
	 "smiles": "ClCC(=O)NCC1COC2=C(O1)C=CC=C2", 
	 "Tm": 486.15, 
	 "num_atms": 28, 
	 "gaussian": { 
		 "optdone": 1, 
		 "sigma_profile": "yes", 
		 "theory": "DFT", 
		 "functional": "B3LYP", 
		 "basiset": "6-31G**", 
		 "properties": { 
			 "R2extent": 6687.3782, 
			 "electric_dipole_moment_norm": 2.18572988953, 
			 "electric_quadrupole_moment_norm": 7.68354559953, 
			 "total_energy": -1167.01855992, 
			 "HOMO_LUMO_gap": 0.21473, 
			 "cosmo_polarized_energy": -15.05, 
			 "cosmo_cavitation_energy": 33.52, 
			 "cosmo_dispersion_energy": -24.53, 
			 "cosmo_repulsion_energy": 1.93, 
			 "cosmo_total_nonelectrostatic_energy": 10.92, 
			 "SMD_solvation_energy": 5.7 
		},
		"coords": [
			{
				"x": 3.144621827,
				"y": 1.4893745749,
				"z": -3.7319616714,
				"element": "Cl" 
			},
			{
				"x": 1.7781147435,
				"y": 0.3283348093,
				"z": -4.0255157146,
				"element": "C" 
			},
			{
				"x": 1.493430609,
				"y": -0.6920620217,
				"z": -2.9211722069,
				"element": "C" 
			},
			{
				"x": 0.5721233439,
				"y": -1.4773954103,
				"z": -3.1016187347,
				"element": "O" 
			},
			{
				"x": 2.2739401053,
				"y": -0.6717919527,
				"z": -1.812109274,
				"element": "N" 
			},
			{
				"x": 2.0943000676,
				"y": -1.6458285137,
				"z": -0.7460097684,
				"element": "C" 
			},
			{
				"x": 1.0001892074,
				"y": -1.2495076949,
				"z": 0.250495336,
				"element": "C" 
			},
			{
				"x": 1.3232603074,
				"y": 0.0043739736,
				"z": 1.0553638367,
				"element": "C" 
			},
			{
				"x": 0.2734667479,
				"y": 0.2944355604,
				"z": 1.9736676765,
				"element": "O" 
			},
			{
				"x": -0.1557741328,
				"y": -0.7993049599,
				"z": 2.6884568981,
				"element": "C" 
			},
			{
				"x": 0.1435238198,
				"y": -2.1089956761,
				"z": 2.279835314,
				"element": "C" 
			},
			{
				"x": 0.8716745525,
				"y": -2.3627379215,
				"z": 1.1401543392,
				"element": "O" 
			},
			{
				"x": -0.2986259017,
				"y": -3.1923066155,
				"z": 3.0398276409,
				"element": "C" 
			},
			{
				"x": -1.04591664,
				"y": -2.975670002,
				"z": 4.1965970535,
				"element": "C" 
			},
			{
				"x": -1.3614106166,
				"y": -1.6726324463,
				"z": 4.5922839058,
				"element": "C" 
			},
			{
				"x": -0.912692873,
				"y": -0.5872446629,
				"z": 3.8413120351,
				"element": "C" 
			},
			{
				"x": 2.007759144,
				"y": -0.2146115825,
				"z": -4.9425847318,
				"element": "H" 
			},
			{
				"x": 0.8789764732,
				"y": 0.9237507249,
				"z": -4.184519567,
				"element": "H" 
			},
			{
				"x": 3.0257434186,
				"y": 0.0002830059,
				"z": -1.7628404637,
				"element": "H" 
			},
			{
				"x": 1.8140584816,
				"y": -2.6051676818,
				"z": -1.188090372,
				"element": "H" 
			},
			{
				"x": 3.0451737326,
				"y": -1.7739652152,
				"z": -0.219974803,
				"element": "H" 
			},
			{
				"x": 0.0545932857,
				"y": -1.1011332982,
				"z": -0.2879890758,
				"element": "H" 
			},
			{
				"x": 1.4144531872,
				"y": 0.8776465506,
				"z": 0.4053886405,
				"element": "H" 
			},
			{
				"x": 2.2694690721,
				"y": -0.1410311299,
				"z": 1.5985953369,
				"element": "H" 
			},
			{
				"x": -0.0508350194,
				"y": -4.1930314635,
				"z": 2.7005134233,
				"element": "H" 
			},
			{
				"x": -1.3879698066,
				"y": -3.8239532047,
				"z": 4.781252653,
				"element": "H" 
			},
			{
				"x": -1.949317557,
				"y": -1.4992260464,
				"z": 5.4882329157,
				"element": "H" 
			},
			{
				"x": -1.1322295792,
				"y": 0.4356983002,
				"z": 4.1301093778,
				"element": "H" 
			}
		],
		 "valence_orbital": [ 
			{
				"type": "occ",
				"energy": -0.30321,
				"method": "rhf"
			},
			{
				"type": "occ",
				"energy": -0.27501,
				"method": "rhf"
			},
			{
				"type": "occ",
				"energy": -0.26989,
				"method": "rhf"
			},
			{
				"type": "occ",
				"energy": -0.23369,
				"method": "rhf"
			},
			{
				"type": "occ",
				"energy": -0.21103,
				"method": "rhf"
			},
			{
				"type": "unocc",
				"energy": 0.0037,
				"method": "rhf"
			},
			{
				"type": "unocc",
				"energy": 0.00438,
				"method": "rhf"
			},
			{
				"type": "unocc",
				"energy": 0.00641,
				"method": "rhf"
			},
			{
				"type": "unocc",
				"energy": 0.01656,
				"method": "rhf"
			},
			{
				"type": "unocc",
				"energy": 0.06564,
				"method": "rhf"
			}
		],
		"cosmo_sigma_profile": { 
			"-0.025": 0.0,
			"-0.024": 0.0,
			"-0.023": 0.0,
			"-0.022": 0.0,
			"-0.021": 0.0,
			"-0.02": 0.0,
			"-0.019": 0.0,
			"-0.018": 0.0,
			"-0.017": 0.0,
			"-0.016": 0.0,
			"-0.015": 0.0,
			"-0.014": 0.405646799514,
			"-0.013": 1.01249349923,
			"-0.012": 0.791214493155,
			"-0.011": 0.983159047203,
			"-0.01": 1.45214647992,
			"-0.009": 5.03337418863,
			"-0.008": 6.10967155997,
			"-0.007": 9.54802855476,
			"-0.006": 15.2523898642,
			"-0.005": 21.1156549967,
			"-0.004": 21.2893551522,
			"-0.003": 19.5365494625,
			"-0.002": 15.6338086657,
			"-0.001": 14.9769050503,
			"0.0": 13.6398312798,
			"0.001": 13.9901147688,
			"0.002": 13.0583093951,
			"0.003": 17.8340924288,
			"0.004": 19.06422133,
			"0.005": 19.862564248,
			"0.006": 11.7088010757,
			"0.007": 3.85004662301,
			"0.008": 4.18534822047,
			"0.009": 4.28839926719,
			"0.01": 2.78579315805,
			"0.011": 2.21363595672,
			"0.012": 2.31534731038,
			"0.013": 5.12849474343,
			"0.014": 1.01923799355,
			"0.015": 0.0,
			"0.016": 0.0,
			"0.017": 0.0,
			"0.018": 0.0,
			"0.019": 0.0,
			"0.02": 0.0,
			"0.021": 0.0,
			"0.022": 0.0,
			"0.023": 0.0,
			"0.024": 0.0,
			"0.025": 0.0
		}
	}
}
