{
	 "smiles": "ClCC1=C(Br)C=C2OCCOC2=C1", 
	 "Tm": 391.15, 
	 "num_atms": 21, 
	 "gaussian": { 
		 "optdone": 1, 
		 "sigma_profile": "yes", 
		 "theory": "DFT", 
		 "functional": "B3LYP", 
		 "basiset": "6-31G**", 
		 "properties": { 
			 "R2extent": 5139.825, 
			 "electric_dipole_moment_norm": 4.87121653594, 
			 "electric_quadrupole_moment_norm": 10.201149097, 
			 "total_energy": -3529.80706, 
			 "HOMO_LUMO_gap": 0.19296, 
			 "cosmo_polarized_energy": -9.87, 
			 "cosmo_cavitation_energy": 28.39, 
			 "cosmo_dispersion_energy": -21.67, 
			 "cosmo_repulsion_energy": 1.72, 
			 "cosmo_total_nonelectrostatic_energy": 8.44, 
			 "SMD_solvation_energy": 3.69 
		},
		"coords": [
			{
				"x": 0.4424604057,
				"y": -3.7799444339,
				"z": -1.7623855328,
				"element": "Cl" 
			},
			{
				"x": -0.1221576211,
				"y": -2.1620121414,
				"z": -2.4301446142,
				"element": "C" 
			},
			{
				"x": -0.5154590248,
				"y": -1.2017937549,
				"z": -1.3527328901,
				"element": "C" 
			},
			{
				"x": -1.8178079622,
				"y": -1.1149771681,
				"z": -0.8341787372,
				"element": "C" 
			},
			{
				"x": -3.2162012826,
				"y": -2.2465247859,
				"z": -1.4877554986,
				"element": "Br" 
			},
			{
				"x": -2.1464178196,
				"y": -0.1996268559,
				"z": 0.1605528063,
				"element": "C" 
			},
			{
				"x": -1.1677290915,
				"y": 0.6499478804,
				"z": 0.6749984067,
				"element": "C" 
			},
			{
				"x": -1.5301730805,
				"y": 1.5428932452,
				"z": 1.6462893366,
				"element": "O" 
			},
			{
				"x": -0.5693179887,
				"y": 2.5783795269,
				"z": 1.8721298898,
				"element": "C" 
			},
			{
				"x": 0.8323207269,
				"y": 1.9929575571,
				"z": 1.9217738099,
				"element": "C" 
			},
			{
				"x": 1.1499941172,
				"y": 1.3713636275,
				"z": 0.6747279081,
				"element": "O" 
			},
			{
				"x": 0.1497493817,
				"y": 0.5679632028,
				"z": 0.1905236508,
				"element": "C" 
			},
			{
				"x": 0.4534361046,
				"y": -0.3454436252,
				"z": -0.8133591353,
				"element": "C" 
			},
			{
				"x": -0.9519917685,
				"y": -2.3991974833,
				"z": -3.092905343,
				"element": "H" 
			},
			{
				"x": 0.7190039223,
				"y": -1.7830547716,
				"z": -3.0094791721,
				"element": "H" 
			},
			{
				"x": -3.1567772842,
				"y": -0.1252590615,
				"z": 0.5437982996,
				"element": "H" 
			},
			{
				"x": -0.6359728336,
				"y": 3.3261772105,
				"z": 1.0707672062,
				"element": "H" 
			},
			{
				"x": -0.839361256,
				"y": 3.0470019222,
				"z": 2.8214330407,
				"element": "H" 
			},
			{
				"x": 0.9036940637,
				"y": 1.2568254495,
				"z": 2.7337010613,
				"element": "H" 
			},
			{
				"x": 1.5820397773,
				"y": 2.7719816674,
				"z": 2.0791531944,
				"element": "H" 
			},
			{
				"x": 1.4786685138,
				"y": -0.3910572079,
				"z": -1.1677076871,
				"element": "H" 
			}
		],
		 "valence_orbital": [ 
			{
				"type": "occ",
				"energy": -0.29192,
				"method": "rhf"
			},
			{
				"type": "occ",
				"energy": -0.28623,
				"method": "rhf"
			},
			{
				"type": "occ",
				"energy": -0.28364,
				"method": "rhf"
			},
			{
				"type": "occ",
				"energy": -0.24665,
				"method": "rhf"
			},
			{
				"type": "occ",
				"energy": -0.22166,
				"method": "rhf"
			},
			{
				"type": "unocc",
				"energy": -0.0287,
				"method": "rhf"
			},
			{
				"type": "unocc",
				"energy": -0.01334,
				"method": "rhf"
			},
			{
				"type": "unocc",
				"energy": 0.0048,
				"method": "rhf"
			},
			{
				"type": "unocc",
				"energy": 0.04722,
				"method": "rhf"
			},
			{
				"type": "unocc",
				"energy": 0.07524,
				"method": "rhf"
			}
		],
		"cosmo_sigma_profile": { 
			"-0.025": 0.0,
			"-0.024": 0.0,
			"-0.023": 0.0,
			"-0.022": 0.0,
			"-0.021": 0.0,
			"-0.02": 0.0,
			"-0.019": 0.0,
			"-0.018": 0.0,
			"-0.017": 0.0,
			"-0.016": 0.0,
			"-0.015": 0.0,
			"-0.014": 0.0,
			"-0.013": 0.0,
			"-0.012": 0.0,
			"-0.011": 0.0,
			"-0.01": 0.0,
			"-0.009": 0.256810461571,
			"-0.008": 5.30249086803,
			"-0.007": 14.2355061403,
			"-0.006": 18.4788028201,
			"-0.005": 16.8459442938,
			"-0.004": 13.6931640056,
			"-0.003": 11.2413669622,
			"-0.002": 10.2015215473,
			"-0.001": 10.5062369727,
			"0.0": 12.0252753692,
			"0.001": 15.7977456195,
			"0.002": 26.0582939758,
			"0.003": 19.5365437658,
			"0.004": 16.2119993834,
			"0.005": 13.4954060145,
			"0.006": 11.5576409277,
			"0.007": 8.98912209856,
			"0.008": 2.64183390326,
			"0.009": 2.67356600811,
			"0.01": 1.97215601433,
			"0.011": 0.00374656205916,
			"0.012": 0.0,
			"0.013": 0.0,
			"0.014": 0.0,
			"0.015": 0.0,
			"0.016": 0.0,
			"0.017": 0.0,
			"0.018": 0.0,
			"0.019": 0.0,
			"0.02": 0.0,
			"0.021": 0.0,
			"0.022": 0.0,
			"0.023": 0.0,
			"0.024": 0.0,
			"0.025": 0.0
		}
	}
}
