{
	 "smiles": "COC1=CC2=C(C(Cl)=CC=N2)C(OC)=C1", 
	 "Tm": 366.15, 
	 "num_atms": 25, 
	 "gaussian": { 
		 "optdone": 1, 
		 "sigma_profile": "yes", 
		 "theory": "DFT", 
		 "functional": "B3LYP", 
		 "basiset": "6-31G**", 
		 "properties": { 
			 "R2extent": 3793.5572, 
			 "electric_dipole_moment_norm": 2.30848789904, 
			 "electric_quadrupole_moment_norm": 8.168732196, 
			 "total_energy": -1090.56431604, 
			 "HOMO_LUMO_gap": 0.16269, 
			 "cosmo_polarized_energy": -9.46, 
			 "cosmo_cavitation_energy": 30.35, 
			 "cosmo_dispersion_energy": -22.62, 
			 "cosmo_repulsion_energy": 1.74, 
			 "cosmo_total_nonelectrostatic_energy": 9.48, 
			 "SMD_solvation_energy": 4.98 
		},
		"coords": [
			{
				"x": -3.7057106969,
				"y": -2.5000026322,
				"z": -0.0153750127,
				"element": "C" 
			},
			{
				"x": -2.9884551984,
				"y": -1.7890079032,
				"z": 0.9852069444,
				"element": "O" 
			},
			{
				"x": -1.884246948,
				"y": -1.0942467199,
				"z": 0.6016902552,
				"element": "C" 
			},
			{
				"x": -1.3971113829,
				"y": -1.0199320467,
				"z": -0.6830472008,
				"element": "C" 
			},
			{
				"x": -0.2302682312,
				"y": -0.2573668611,
				"z": -0.9524987752,
				"element": "C" 
			},
			{
				"x": 0.457663845,
				"y": 0.4453767683,
				"z": 0.1049192432,
				"element": "C" 
			},
			{
				"x": 1.6138939284,
				"y": 1.1743734542,
				"z": -0.2911234434,
				"element": "C" 
			},
			{
				"x": 2.6135712253,
				"y": 2.1057090587,
				"z": 0.8120657259,
				"element": "Cl" 
			},
			{
				"x": 2.0141341954,
				"y": 1.1802331439,
				"z": -1.6127121357,
				"element": "C" 
			},
			{
				"x": 1.2584434226,
				"y": 0.454609587,
				"z": -2.5511679299,
				"element": "C" 
			},
			{
				"x": 0.1800842998,
				"y": -0.2399504064,
				"z": -2.2524912696,
				"element": "N" 
			},
			{
				"x": -0.0952182127,
				"y": 0.3338251091,
				"z": 1.4334100104,
				"element": "C" 
			},
			{
				"x": 0.5550266486,
				"y": 0.9955589623,
				"z": 2.4214270586,
				"element": "O" 
			},
			{
				"x": 0.0524208784,
				"y": 0.9179239951,
				"z": 3.7465564913,
				"element": "C" 
			},
			{
				"x": -1.2298932538,
				"y": -0.4149382745,
				"z": 1.6604654123,
				"element": "C" 
			},
			{
				"x": -3.0796227178,
				"y": -3.2664637521,
				"z": -0.4882286407,
				"element": "H" 
			},
			{
				"x": -4.5413781885,
				"y": -2.9789147838,
				"z": 0.4966770169,
				"element": "H" 
			},
			{
				"x": -4.0903981337,
				"y": -1.8239675814,
				"z": -0.788693548,
				"element": "H" 
			},
			{
				"x": -1.8568774945,
				"y": -1.5178361262,
				"z": -1.5255350268,
				"element": "H" 
			},
			{
				"x": 2.8937202748,
				"y": 1.7341568133,
				"z": -1.9173307661,
				"element": "H" 
			},
			{
				"x": 1.5662562164,
				"y": 0.4531213618,
				"z": -3.596357777,
				"element": "H" 
			},
			{
				"x": 0.7292082615,
				"y": 1.5191282708,
				"z": 4.3548019688,
				"element": "H" 
			},
			{
				"x": 0.0502181912,
				"y": -0.1151504501,
				"z": 4.1159193934,
				"element": "H" 
			},
			{
				"x": -0.9626993182,
				"y": 1.3282566614,
				"z": 3.8162814461,
				"element": "H" 
			},
			{
				"x": -1.6587616109,
				"y": -0.5101956484,
				"z": 2.6487405595,
				"element": "H" 
			}
		],
		 "valence_orbital": [ 
			{
				"type": "occ",
				"energy": -0.29153,
				"method": "rhf"
			},
			{
				"type": "occ",
				"energy": -0.27244,
				"method": "rhf"
			},
			{
				"type": "occ",
				"energy": -0.25521,
				"method": "rhf"
			},
			{
				"type": "occ",
				"energy": -0.23792,
				"method": "rhf"
			},
			{
				"type": "occ",
				"energy": -0.20924,
				"method": "rhf"
			},
			{
				"type": "unocc",
				"energy": -0.04655,
				"method": "rhf"
			},
			{
				"type": "unocc",
				"energy": -0.01472,
				"method": "rhf"
			},
			{
				"type": "unocc",
				"energy": 0.03109,
				"method": "rhf"
			},
			{
				"type": "unocc",
				"energy": 0.03234,
				"method": "rhf"
			},
			{
				"type": "unocc",
				"energy": 0.09397,
				"method": "rhf"
			}
		],
		"cosmo_sigma_profile": { 
			"-0.025": 0.0,
			"-0.024": 0.0,
			"-0.023": 0.0,
			"-0.022": 0.0,
			"-0.021": 0.0,
			"-0.02": 0.0,
			"-0.019": 0.0,
			"-0.018": 0.0,
			"-0.017": 0.0,
			"-0.016": 0.0,
			"-0.015": 0.0,
			"-0.014": 0.0,
			"-0.013": 0.0,
			"-0.012": 0.0,
			"-0.011": 0.0,
			"-0.01": 0.0,
			"-0.009": 0.0,
			"-0.008": 0.699817776186,
			"-0.007": 5.94194675647,
			"-0.006": 18.3397045945,
			"-0.005": 22.6392349148,
			"-0.004": 20.67708021,
			"-0.003": 20.160631323,
			"-0.002": 11.4870866463,
			"-0.001": 10.8868599113,
			"0.0": 15.7298217363,
			"0.001": 29.0698960061,
			"0.002": 21.8592239952,
			"0.003": 17.8562496681,
			"0.004": 16.0083269044,
			"0.005": 8.97316134062,
			"0.006": 5.33788380057,
			"0.007": 4.95508124805,
			"0.008": 4.94332854184,
			"0.009": 3.01767448994,
			"0.01": 1.50446361951,
			"0.011": 0.931222460984,
			"0.012": 1.0714213478,
			"0.013": 0.949327110713,
			"0.014": 0.724826325432,
			"0.015": 0.670047067772,
			"0.016": 0.467294631625,
			"0.017": 0.00589476959562,
			"0.018": 0.0,
			"0.019": 0.0,
			"0.02": 0.0,
			"0.021": 0.0,
			"0.022": 0.0,
			"0.023": 0.0,
			"0.024": 0.0,
			"0.025": 0.0
		}
	}
}
