{
	 "smiles": "CCCCCCCCCCCC1=CC=CC=C1", 
	 "Tm": 268.15, 
	 "num_atms": 45, 
	 "gaussian": { 
		 "optdone": 1, 
		 "sigma_profile": "yes", 
		 "theory": "DFT", 
		 "functional": "B3LYP", 
		 "basiset": "6-31G**", 
		 "properties": { 
			 "R2extent": 8799.7752, 
			 "electric_dipole_moment_norm": 0.214958461104, 
			 "electric_quadrupole_moment_norm": 4.13954223194, 
			 "total_energy": -664.721133145, 
			 "HOMO_LUMO_gap": 0.23556, 
			 "cosmo_polarized_energy": -3.43, 
			 "cosmo_cavitation_energy": 44.75, 
			 "cosmo_dispersion_energy": -30.15, 
			 "cosmo_repulsion_energy": 2.43, 
			 "cosmo_total_nonelectrostatic_energy": 17.02, 
			 "SMD_solvation_energy": 6.12 
		},
		"coords": [
			{
				"x": 1.1355591103,
				"y": -1.1709278753,
				"z": 5.2136888888,
				"element": "C" 
			},
			{
				"x": 0.3829391147,
				"y": -2.0846165944,
				"z": 4.2405903811,
				"element": "C" 
			},
			{
				"x": 0.9594313341,
				"y": -2.0478183897,
				"z": 2.8183196142,
				"element": "C" 
			},
			{
				"x": 0.2931160791,
				"y": -3.0177243397,
				"z": 1.8269051766,
				"element": "C" 
			},
			{
				"x": -1.2025220043,
				"y": -2.7732860178,
				"z": 1.5488171766,
				"element": "C" 
			},
			{
				"x": -1.5586539084,
				"y": -1.3983122721,
				"z": 0.9557750562,
				"element": "C" 
			},
			{
				"x": -0.9458707123,
				"y": -1.1269361692,
				"z": -0.4269627519,
				"element": "C" 
			},
			{
				"x": -1.4342626327,
				"y": 0.1645779919,
				"z": -1.1067730422,
				"element": "C" 
			},
			{
				"x": -0.9956212231,
				"y": 1.4547759781,
				"z": -0.3956991481,
				"element": "C" 
			},
			{
				"x": -1.4908884195,
				"y": 2.7697177135,
				"z": -1.0270007996,
				"element": "C" 
			},
			{
				"x": -0.7585380679,
				"y": 3.2420067317,
				"z": -2.3048536768,
				"element": "C" 
			},
			{
				"x": -1.0443487173,
				"y": 2.4704333987,
				"z": -3.5789362656,
				"element": "C" 
			},
			{
				"x": -0.0305614473,
				"y": 1.7716975617,
				"z": -4.247712424,
				"element": "C" 
			},
			{
				"x": -0.2926116466,
				"y": 1.07483789,
				"z": -5.429651874,
				"element": "C" 
			},
			{
				"x": -1.5795976958,
				"y": 1.0684790459,
				"z": -5.9679470709,
				"element": "C" 
			},
			{
				"x": -2.5991937751,
				"y": 1.767576501,
				"z": -5.3171404821,
				"element": "C" 
			},
			{
				"x": -2.3316222321,
				"y": 2.4616982437,
				"z": -4.1376886096,
				"element": "C" 
			},
			{
				"x": 2.1912476124,
				"y": -1.4561953953,
				"z": 5.2892267491,
				"element": "H" 
			},
			{
				"x": 0.7064560283,
				"y": -1.2149073884,
				"z": 6.2202273887,
				"element": "H" 
			},
			{
				"x": 1.1006775226,
				"y": -0.1262328708,
				"z": 4.8834262007,
				"element": "H" 
			},
			{
				"x": -0.6758253203,
				"y": -1.7967333522,
				"z": 4.2224293096,
				"element": "H" 
			},
			{
				"x": 0.409552133,
				"y": -3.1181456291,
				"z": 4.6132490443,
				"element": "H" 
			},
			{
				"x": 2.0308387221,
				"y": -2.2866446506,
				"z": 2.8677976907,
				"element": "H" 
			},
			{
				"x": 0.9031812164,
				"y": -1.0203059081,
				"z": 2.4332548203,
				"element": "H" 
			},
			{
				"x": 0.8474923472,
				"y": -2.9877003482,
				"z": 0.8804354219,
				"element": "H" 
			},
			{
				"x": 0.4088369092,
				"y": -4.0424498658,
				"z": 2.2062549118,
				"element": "H" 
			},
			{
				"x": -1.5553175701,
				"y": -3.5546079144,
				"z": 0.8615152909,
				"element": "H" 
			},
			{
				"x": -1.772131484,
				"y": -2.9145418087,
				"z": 2.4761602151,
				"element": "H" 
			},
			{
				"x": -2.6525136242,
				"y": -1.3320152002,
				"z": 0.8727140243,
				"element": "H" 
			},
			{
				"x": -1.2655403909,
				"y": -0.6087996059,
				"z": 1.6590206724,
				"element": "H" 
			},
			{
				"x": -1.1791544017,
				"y": -1.9765235849,
				"z": -1.0837741549,
				"element": "H" 
			},
			{
				"x": 0.1498225506,
				"y": -1.0973205188,
				"z": -0.3520061214,
				"element": "H" 
			},
			{
				"x": -2.532045029,
				"y": 0.1465803092,
				"z": -1.1703186769,
				"element": "H" 
			},
			{
				"x": -1.0731175465,
				"y": 0.174356672,
				"z": -2.1397428124,
				"element": "H" 
			},
			{
				"x": 0.1024772596,
				"y": 1.4787842385,
				"z": -0.3304619604,
				"element": "H" 
			},
			{
				"x": -1.3546475049,
				"y": 1.4287603307,
				"z": 0.6408437761,
				"element": "H" 
			},
			{
				"x": -2.568358111,
				"y": 2.696585702,
				"z": -1.2272899439,
				"element": "H" 
			},
			{
				"x": -1.3788805174,
				"y": 3.5676890061,
				"z": -0.2818167537,
				"element": "H" 
			},
			{
				"x": -1.0302184025,
				"y": 4.2931550324,
				"z": -2.4721565897,
				"element": "H" 
			},
			{
				"x": 0.3220208223,
				"y": 3.2368529525,
				"z": -2.1146476308,
				"element": "H" 
			},
			{
				"x": 0.9761437153,
				"y": 1.7732342589,
				"z": -3.8363600898,
				"element": "H" 
			},
			{
				"x": 0.5100898209,
				"y": 0.5391572668,
				"z": -5.9291253652,
				"element": "H" 
			},
			{
				"x": -1.7866489259,
				"y": 0.5284047171,
				"z": -6.8873867577,
				"element": "H" 
			},
			{
				"x": -3.6036735797,
				"y": 1.7753052022,
				"z": -5.7316627741,
				"element": "H" 
			},
			{
				"x": -3.1323174075,
				"y": 3.0084789553,
				"z": -3.6449360338,
				"element": "H" 
			}
		],
		 "valence_orbital": [ 
			{
				"type": "occ",
				"energy": -0.3018,
				"method": "rhf"
			},
			{
				"type": "occ",
				"energy": -0.29662,
				"method": "rhf"
			},
			{
				"type": "occ",
				"energy": -0.29474,
				"method": "rhf"
			},
			{
				"type": "occ",
				"energy": -0.24481,
				"method": "rhf"
			},
			{
				"type": "occ",
				"energy": -0.23399,
				"method": "rhf"
			},
			{
				"type": "unocc",
				"energy": 0.00157,
				"method": "rhf"
			},
			{
				"type": "unocc",
				"energy": 0.00505,
				"method": "rhf"
			},
			{
				"type": "unocc",
				"energy": 0.08014,
				"method": "rhf"
			},
			{
				"type": "unocc",
				"energy": 0.0914,
				"method": "rhf"
			},
			{
				"type": "unocc",
				"energy": 0.10365,
				"method": "rhf"
			}
		],
		"cosmo_sigma_profile": { 
			"-0.025": 0.0,
			"-0.024": 0.0,
			"-0.023": 0.0,
			"-0.022": 0.0,
			"-0.021": 0.0,
			"-0.02": 0.0,
			"-0.019": 0.0,
			"-0.018": 0.0,
			"-0.017": 0.0,
			"-0.016": 0.0,
			"-0.015": 0.0,
			"-0.014": 0.0,
			"-0.013": 0.0,
			"-0.012": 0.0,
			"-0.011": 0.0,
			"-0.01": 0.0,
			"-0.009": 0.0,
			"-0.008": 0.0,
			"-0.007": 0.0,
			"-0.006": 0.793777899888,
			"-0.005": 7.83513808179,
			"-0.004": 13.1052150764,
			"-0.003": 18.1322898406,
			"-0.002": 40.0660399329,
			"-0.001": 65.6912837634,
			"0.0": 69.3523907746,
			"0.001": 62.8414241093,
			"0.002": 30.3958347773,
			"0.003": 9.35287115907,
			"0.004": 9.05963640688,
			"0.005": 8.48249898061,
			"0.006": 7.82254696364,
			"0.007": 2.88521634054,
			"0.008": 0.0,
			"0.009": 0.0,
			"0.01": 0.0,
			"0.011": 0.0,
			"0.012": 0.0,
			"0.013": 0.0,
			"0.014": 0.0,
			"0.015": 0.0,
			"0.016": 0.0,
			"0.017": 0.0,
			"0.018": 0.0,
			"0.019": 0.0,
			"0.02": 0.0,
			"0.021": 0.0,
			"0.022": 0.0,
			"0.023": 0.0,
			"0.024": 0.0,
			"0.025": 0.0
		}
	}
}
