{
	 "smiles": "CCOC(=O)C1=C(NC(=O)NC2=CC=CC=C2)SC2=C1CCCC2", 
	 "Tm": 424.15, 
	 "num_atms": 44, 
	 "gaussian": { 
		 "optdone": 1, 
		 "sigma_profile": "yes", 
		 "theory": "DFT", 
		 "functional": "B3LYP", 
		 "basiset": "6-31G**", 
		 "properties": { 
			 "R2extent": 8827.2582, 
			 "electric_dipole_moment_norm": 1.89556736889, 
			 "electric_quadrupole_moment_norm": 15.7685900448, 
			 "total_energy": -1431.37481449, 
			 "HOMO_LUMO_gap": 0.16187, 
			 "cosmo_polarized_energy": -14.94, 
			 "cosmo_cavitation_energy": 47.53, 
			 "cosmo_dispersion_energy": -32.57, 
			 "cosmo_repulsion_energy": 2.51, 
			 "cosmo_total_nonelectrostatic_energy": 17.47, 
			 "SMD_solvation_energy": 8.73 
		},
		"coords": [
			{
				"x": -4.3991374724,
				"y": -3.1202418488,
				"z": 0.8755089552,
				"element": "C" 
			},
			{
				"x": -3.7724384975,
				"y": -2.080359477,
				"z": 1.7850494533,
				"element": "C" 
			},
			{
				"x": -2.8472767654,
				"y": -1.3023110847,
				"z": 0.9891777708,
				"element": "O" 
			},
			{
				"x": -2.1692565508,
				"y": -0.318183368,
				"z": 1.6561049645,
				"element": "C" 
			},
			{
				"x": -2.3522929986,
				"y": -0.1130809531,
				"z": 2.8424404008,
				"element": "O" 
			},
			{
				"x": -1.2439758141,
				"y": 0.4359041447,
				"z": 0.7966276239,
				"element": "C" 
			},
			{
				"x": -0.87881454,
				"y": 0.095240055,
				"z": -0.5035459228,
				"element": "C" 
			},
			{
				"x": -1.3711406181,
				"y": -0.9754871407,
				"z": -1.2353538189,
				"element": "N" 
			},
			{
				"x": -1.0451522571,
				"y": -1.4436092615,
				"z": -2.5049784777,
				"element": "C" 
			},
			{
				"x": -1.8992465897,
				"y": -1.945051485,
				"z": -3.2208561098,
				"element": "O" 
			},
			{
				"x": 0.2721975025,
				"y": -1.2944203973,
				"z": -2.9282283976,
				"element": "N" 
			},
			{
				"x": 1.4717226445,
				"y": -1.5871845949,
				"z": -2.2230807435,
				"element": "C" 
			},
			{
				"x": 2.6832336247,
				"y": -1.2600952097,
				"z": -2.8486452872,
				"element": "C" 
			},
			{
				"x": 3.8961275761,
				"y": -1.5548376341,
				"z": -2.230687679,
				"element": "C" 
			},
			{
				"x": 3.9190891784,
				"y": -2.1643224783,
				"z": -0.9746607683,
				"element": "C" 
			},
			{
				"x": 2.7125429576,
				"y": -2.4853559377,
				"z": -0.3519798173,
				"element": "C" 
			},
			{
				"x": 1.4916985413,
				"y": -2.2117569505,
				"z": -0.9692385054,
				"element": "C" 
			},
			{
				"x": 0.2274195328,
				"y": 1.2630336655,
				"z": -1.1785400782,
				"element": "S" 
			},
			{
				"x": 0.2137941978,
				"y": 2.20440036,
				"z": 0.3003452966,
				"element": "C" 
			},
			{
				"x": -0.6037717375,
				"y": 1.6592929992,
				"z": 1.2459161891,
				"element": "C" 
			},
			{
				"x": -0.7726556087,
				"y": 2.3060537708,
				"z": 2.6024781781,
				"element": "C" 
			},
			{
				"x": -0.2109525854,
				"y": 3.7378915081,
				"z": 2.6236762553,
				"element": "C" 
			},
			{
				"x": 1.1590885823,
				"y": 3.8253105544,
				"z": 1.9382224658,
				"element": "C" 
			},
			{
				"x": 1.051124662,
				"y": 3.4452575284,
				"z": 0.4507251625,
				"element": "C" 
			},
			{
				"x": -5.1079228064,
				"y": -3.729271238,
				"z": 1.4450901532,
				"element": "H" 
			},
			{
				"x": -4.941245198,
				"y": -2.6481684767,
				"z": 0.0507277881,
				"element": "H" 
			},
			{
				"x": -3.6395253855,
				"y": -3.7853255968,
				"z": 0.4541241214,
				"element": "H" 
			},
			{
				"x": -4.5187221124,
				"y": -1.4051619048,
				"z": 2.214407305,
				"element": "H" 
			},
			{
				"x": -3.2243397971,
				"y": -2.5349505135,
				"z": 2.6156560617,
				"element": "H" 
			},
			{
				"x": -2.2666268822,
				"y": -1.3192935954,
				"z": -0.9062175399,
				"element": "H" 
			},
			{
				"x": 0.3243922755,
				"y": -1.470363334,
				"z": -3.9241357355,
				"element": "H" 
			},
			{
				"x": 2.6667180375,
				"y": -0.7685810276,
				"z": -3.8177959067,
				"element": "H" 
			},
			{
				"x": 4.8254132262,
				"y": -1.298690156,
				"z": -2.7313461401,
				"element": "H" 
			},
			{
				"x": 4.8641035912,
				"y": -2.387390455,
				"z": -0.4893266078,
				"element": "H" 
			},
			{
				"x": 2.7143842645,
				"y": -2.9673185216,
				"z": 0.6214689514,
				"element": "H" 
			},
			{
				"x": 0.5638803975,
				"y": -2.4858073365,
				"z": -0.4813669027,
				"element": "H" 
			},
			{
				"x": -1.8275806596,
				"y": 2.3027356967,
				"z": 2.889630134,
				"element": "H" 
			},
			{
				"x": -0.2720763681,
				"y": 1.6892135757,
				"z": 3.3603780248,
				"element": "H" 
			},
			{
				"x": -0.9101234958,
				"y": 4.4119552949,
				"z": 2.110442153,
				"element": "H" 
			},
			{
				"x": -0.142461859,
				"y": 4.087414071,
				"z": 3.6598148776,
				"element": "H" 
			},
			{
				"x": 1.8595709899,
				"y": 3.1425868989,
				"z": 2.4363434726,
				"element": "H" 
			},
			{
				"x": 1.5760924193,
				"y": 4.8343253415,
				"z": 2.0308099585,
				"element": "H" 
			},
			{
				"x": 0.6015500877,
				"y": 4.2762522438,
				"z": -0.1124177708,
				"element": "H" 
			},
			{
				"x": 2.0498923104,
				"y": 3.2919522685,
				"z": 0.0233364919,
				"element": "H" 
			}
		],
		 "valence_orbital": [ 
			{
				"type": "occ",
				"energy": -0.27026,
				"method": "rhf"
			},
			{
				"type": "occ",
				"energy": -0.25634,
				"method": "rhf"
			},
			{
				"type": "occ",
				"energy": -0.24774,
				"method": "rhf"
			},
			{
				"type": "occ",
				"energy": -0.22434,
				"method": "rhf"
			},
			{
				"type": "occ",
				"energy": -0.20302,
				"method": "rhf"
			},
			{
				"type": "unocc",
				"energy": -0.04115,
				"method": "rhf"
			},
			{
				"type": "unocc",
				"energy": -0.00814,
				"method": "rhf"
			},
			{
				"type": "unocc",
				"energy": -0.00395,
				"method": "rhf"
			},
			{
				"type": "unocc",
				"energy": 0.01809,
				"method": "rhf"
			},
			{
				"type": "unocc",
				"energy": 0.02575,
				"method": "rhf"
			}
		],
		"cosmo_sigma_profile": { 
			"-0.025": 0.0,
			"-0.024": 0.0,
			"-0.023": 0.0,
			"-0.022": 0.0,
			"-0.021": 0.0,
			"-0.02": 0.0,
			"-0.019": 0.0,
			"-0.018": 0.0,
			"-0.017": 0.0,
			"-0.016": 0.0,
			"-0.015": 0.461458265069,
			"-0.014": 0.910986200061,
			"-0.013": 1.10976577805,
			"-0.012": 0.755223787693,
			"-0.011": 1.08668944938,
			"-0.01": 1.10533792919,
			"-0.009": 0.919525929648,
			"-0.008": 1.59643776853,
			"-0.007": 2.64993005877,
			"-0.006": 8.04672112118,
			"-0.005": 19.8233113904,
			"-0.004": 32.0311878767,
			"-0.003": 40.9068541391,
			"-0.002": 47.8417086669,
			"-0.001": 45.9337519172,
			"0.0": 35.1867919515,
			"0.001": 23.4440851163,
			"0.002": 21.7158245795,
			"0.003": 21.080759186,
			"0.004": 18.5561983977,
			"0.005": 12.7384766464,
			"0.006": 9.3943350983,
			"0.007": 3.05798016178,
			"0.008": 2.70211844765,
			"0.009": 2.840248039,
			"0.01": 3.55248945654,
			"0.011": 3.8762839944,
			"0.012": 7.63920606062,
			"0.013": 5.76389720738,
			"0.014": 0.467474214217,
			"0.015": 0.0,
			"0.016": 0.0,
			"0.017": 0.0,
			"0.018": 0.0,
			"0.019": 0.0,
			"0.02": 0.0,
			"0.021": 0.0,
			"0.022": 0.0,
			"0.023": 0.0,
			"0.024": 0.0,
			"0.025": 0.0
		}
	}
}
