{
	 "smiles": "FC1=C(F)C=C2NC(=O)NC2=C1", 
	 "Tm": 606.15, 
	 "num_atms": 16, 
	 "gaussian": { 
		 "optdone": 1, 
		 "sigma_profile": "yes", 
		 "theory": "DFT", 
		 "functional": "B3LYP", 
		 "basiset": "6-31G**", 
		 "properties": { 
			 "R2extent": 2535.5767, 
			 "electric_dipole_moment_norm": 0.244228601929, 
			 "electric_quadrupole_moment_norm": 19.6222112067, 
			 "total_energy": -653.572145312, 
			 "HOMO_LUMO_gap": 0.1914, 
			 "cosmo_polarized_energy": -14.52, 
			 "cosmo_cavitation_energy": 21.98, 
			 "cosmo_dispersion_energy": -16.46, 
			 "cosmo_repulsion_energy": 1.26, 
			 "cosmo_total_nonelectrostatic_energy": 6.78, 
			 "SMD_solvation_energy": 5.36 
		},
		"coords": [
			{
				"x": -2.0651379845,
				"y": 1.2249641296,
				"z": 3.3200968405,
				"element": "F" 
			},
			{
				"x": -1.3298458402,
				"y": 1.240952526,
				"z": 2.1930199681,
				"element": "C" 
			},
			{
				"x": -0.9685697428,
				"y": 2.4721538302,
				"z": 1.6437157859,
				"element": "C" 
			},
			{
				"x": -1.3684007246,
				"y": 3.5993742014,
				"z": 2.2607459997,
				"element": "F" 
			},
			{
				"x": -0.2080823185,
				"y": 2.5569995076,
				"z": 0.4782814851,
				"element": "C" 
			},
			{
				"x": 0.1760475151,
				"y": 1.3606260002,
				"z": -0.1149078371,
				"element": "C" 
			},
			{
				"x": 0.9195046286,
				"y": 1.0826649157,
				"z": -1.2555978495,
				"element": "N" 
			},
			{
				"x": 1.0477922726,
				"y": -0.2941227581,
				"z": -1.4571620904,
				"element": "C" 
			},
			{
				"x": 1.6326790022,
				"y": -0.8667948608,
				"z": -2.3560808499,
				"element": "O" 
			},
			{
				"x": 0.3489907261,
				"y": -0.8614097861,
				"z": -0.3882851943,
				"element": "N" 
			},
			{
				"x": -0.1893396806,
				"y": 0.1154839908,
				"z": 0.4405984549,
				"element": "C" 
			},
			{
				"x": -0.9474760791,
				"y": 0.0372991532,
				"z": 1.6024323031,
				"element": "C" 
			},
			{
				"x": 0.0558561356,
				"y": 3.5286717173,
				"z": 0.0772578095,
				"element": "H" 
			},
			{
				"x": 1.3338155597,
				"y": 1.747556402,
				"z": -1.8883672424,
				"element": "H" 
			},
			{
				"x": 0.2752293708,
				"y": -1.8597825895,
				"z": -0.2789911612,
				"element": "H" 
			},
			{
				"x": -1.2443628406,
				"y": -0.9021363794,
				"z": 2.0540435778,
				"element": "H" 
			}
		],
		 "valence_orbital": [ 
			{
				"type": "occ",
				"energy": -0.34473,
				"method": "rhf"
			},
			{
				"type": "occ",
				"energy": -0.30315,
				"method": "rhf"
			},
			{
				"type": "occ",
				"energy": -0.27784,
				"method": "rhf"
			},
			{
				"type": "occ",
				"energy": -0.25389,
				"method": "rhf"
			},
			{
				"type": "occ",
				"energy": -0.21402,
				"method": "rhf"
			},
			{
				"type": "unocc",
				"energy": -0.02262,
				"method": "rhf"
			},
			{
				"type": "unocc",
				"energy": 0.00843,
				"method": "rhf"
			},
			{
				"type": "unocc",
				"energy": 0.05884,
				"method": "rhf"
			},
			{
				"type": "unocc",
				"energy": 0.06504,
				"method": "rhf"
			},
			{
				"type": "unocc",
				"energy": 0.06759,
				"method": "rhf"
			}
		],
		"cosmo_sigma_profile": { 
			"-0.025": 0.0,
			"-0.024": 0.0,
			"-0.023": 0.0,
			"-0.022": 0.0,
			"-0.021": 0.0,
			"-0.02": 0.0,
			"-0.019": 0.0,
			"-0.018": 0.0,
			"-0.017": 0.476068090169,
			"-0.016": 2.94604834203,
			"-0.015": 2.8880930554,
			"-0.014": 1.36523811327,
			"-0.013": 2.70012669163,
			"-0.012": 2.30124888553,
			"-0.011": 2.01265964676,
			"-0.01": 2.2862980517,
			"-0.009": 4.07441906396,
			"-0.008": 6.09018589601,
			"-0.007": 3.96708521934,
			"-0.006": 3.84183978388,
			"-0.005": 4.29501895786,
			"-0.004": 3.8689762527,
			"-0.003": 3.83663066696,
			"-0.002": 5.00168030627,
			"-0.001": 10.3662675609,
			"0.0": 17.5388826487,
			"0.001": 24.0661347174,
			"0.002": 16.0054972241,
			"0.003": 12.4719520951,
			"0.004": 20.5733863718,
			"0.005": 4.36318568576,
			"0.006": 1.11087057395,
			"0.007": 1.31286542685,
			"0.008": 0.87715353216,
			"0.009": 0.788431473803,
			"0.01": 1.126166839,
			"0.011": 2.00906494519,
			"0.012": 1.84903456528,
			"0.013": 6.24324013885,
			"0.014": 4.42470872361,
			"0.015": 0.114708400983,
			"0.016": 0.0,
			"0.017": 0.0,
			"0.018": 0.0,
			"0.019": 0.0,
			"0.02": 0.0,
			"0.021": 0.0,
			"0.022": 0.0,
			"0.023": 0.0,
			"0.024": 0.0,
			"0.025": 0.0
		}
	}
}
