{
	 "smiles": "OCC1=CN(N=C1)C1=CC=CC=C1", 
	 "Tm": 338.15, 
	 "num_atms": 23, 
	 "gaussian": { 
		 "optdone": 1, 
		 "sigma_profile": "yes", 
		 "theory": "DFT", 
		 "functional": "B3LYP", 
		 "basiset": "6-31G**", 
		 "properties": { 
			 "R2extent": 3297.7506, 
			 "electric_dipole_moment_norm": 2.90688606416, 
			 "electric_quadrupole_moment_norm": 4.07236763935, 
			 "total_energy": -571.782794963, 
			 "HOMO_LUMO_gap": 0.19788, 
			 "cosmo_polarized_energy": -11.65, 
			 "cosmo_cavitation_energy": 27.24, 
			 "cosmo_dispersion_energy": -20.14, 
			 "cosmo_repulsion_energy": 1.59, 
			 "cosmo_total_nonelectrostatic_energy": 8.69, 
			 "SMD_solvation_energy": 4.41 
		},
		"coords": [
			{
				"x": -0.6241784661,
				"y": -3.0728337054,
				"z": -2.4339480041,
				"element": "O" 
			},
			{
				"x": -0.437247098,
				"y": -2.9340091617,
				"z": -1.0284952621,
				"element": "C" 
			},
			{
				"x": 0.1877634756,
				"y": -1.6240310949,
				"z": -0.64919084,
				"element": "C" 
			},
			{
				"x": -0.2263383463,
				"y": -0.7215717661,
				"z": 0.3102396401,
				"element": "C" 
			},
			{
				"x": 0.6486401851,
				"y": 0.3295144823,
				"z": 0.2869769916,
				"element": "N" 
			},
			{
				"x": 1.6093641259,
				"y": 0.1601653814,
				"z": -0.6600269886,
				"element": "N" 
			},
			{
				"x": 1.335306256,
				"y": -1.0115206202,
				"z": -1.2189979517,
				"element": "C" 
			},
			{
				"x": 0.6318019902,
				"y": 1.5040070333,
				"z": 1.0843159667,
				"element": "C" 
			},
			{
				"x": 1.3136433703,
				"y": 2.6435964075,
				"z": 0.6419804816,
				"element": "C" 
			},
			{
				"x": 1.2928639673,
				"y": 3.7999790508,
				"z": 1.4183179093,
				"element": "C" 
			},
			{
				"x": 0.592769215,
				"y": 3.8354202184,
				"z": 2.6265838144,
				"element": "C" 
			},
			{
				"x": -0.0806151714,
				"y": 2.6935507392,
				"z": 3.0622423362,
				"element": "C" 
			},
			{
				"x": -0.0579690432,
				"y": 1.5246253472,
				"z": 2.301965326,
				"element": "C" 
			},
			{
				"x": -1.1083525944,
				"y": -2.2930145395,
				"z": -2.7365207592,
				"element": "H" 
			},
			{
				"x": -1.381726189,
				"y": -3.0660990803,
				"z": -0.476563505,
				"element": "H" 
			},
			{
				"x": 0.2127669245,
				"y": -3.7702331023,
				"z": -0.7469290373,
				"element": "H" 
			},
			{
				"x": -1.0765188261,
				"y": -0.7425588419,
				"z": 0.9747895107,
				"element": "H" 
			},
			{
				"x": 1.960416764,
				"y": -1.3867146556,
				"z": -2.0183876735,
				"element": "H" 
			},
			{
				"x": 1.8494597489,
				"y": 2.6013028757,
				"z": -0.2980673233,
				"element": "H" 
			},
			{
				"x": 1.8237889482,
				"y": 4.6814617401,
				"z": 1.0708920573,
				"element": "H" 
			},
			{
				"x": 0.5768274027,
				"y": 4.7413361924,
				"z": 3.2246561203,
				"element": "H" 
			},
			{
				"x": -0.617762474,
				"y": 2.7027118311,
				"z": 4.006078969,
				"element": "H" 
			},
			{
				"x": -0.5553041653,
				"y": 0.6329152683,
				"z": 2.6680882216,
				"element": "H" 
			}
		],
		 "valence_orbital": [ 
			{
				"type": "occ",
				"energy": -0.29055,
				"method": "rhf"
			},
			{
				"type": "occ",
				"energy": -0.27089,
				"method": "rhf"
			},
			{
				"type": "occ",
				"energy": -0.25932,
				"method": "rhf"
			},
			{
				"type": "occ",
				"energy": -0.2506,
				"method": "rhf"
			},
			{
				"type": "occ",
				"energy": -0.22412,
				"method": "rhf"
			},
			{
				"type": "unocc",
				"energy": -0.02624,
				"method": "rhf"
			},
			{
				"type": "unocc",
				"energy": -0.00961,
				"method": "rhf"
			},
			{
				"type": "unocc",
				"energy": 0.03643,
				"method": "rhf"
			},
			{
				"type": "unocc",
				"energy": 0.04958,
				"method": "rhf"
			},
			{
				"type": "unocc",
				"energy": 0.08416,
				"method": "rhf"
			}
		],
		"cosmo_sigma_profile": { 
			"-0.025": 0.0,
			"-0.024": 0.0,
			"-0.023": 0.0,
			"-0.022": 0.0,
			"-0.021": 0.0,
			"-0.02": 0.0,
			"-0.019": 0.0,
			"-0.018": 0.0,
			"-0.017": 0.0,
			"-0.016": 0.0250226072148,
			"-0.015": 0.643067586239,
			"-0.014": 0.908365311002,
			"-0.013": 1.01848527507,
			"-0.012": 0.712419838565,
			"-0.011": 0.716894795732,
			"-0.01": 1.61901067328,
			"-0.009": 2.6757474872,
			"-0.008": 4.00867022847,
			"-0.007": 5.36888660589,
			"-0.006": 11.0867120901,
			"-0.005": 16.7936437144,
			"-0.004": 18.9220186421,
			"-0.003": 14.0435214699,
			"-0.002": 14.7431456479,
			"-0.001": 12.4073609247,
			"0.0": 11.7549291202,
			"0.001": 14.3408265244,
			"0.002": 14.9220887837,
			"0.003": 16.3557269882,
			"0.004": 16.4951011092,
			"0.005": 12.1380451987,
			"0.006": 4.46575561973,
			"0.007": 2.57424450836,
			"0.008": 3.52494132318,
			"0.009": 2.81093461665,
			"0.01": 2.28419910162,
			"0.011": 1.97448315808,
			"0.012": 2.36480991259,
			"0.013": 3.31039391645,
			"0.014": 2.22649270368,
			"0.015": 0.431519211581,
			"0.016": 0.0,
			"0.017": 0.0,
			"0.018": 0.0,
			"0.019": 0.0,
			"0.02": 0.0,
			"0.021": 0.0,
			"0.022": 0.0,
			"0.023": 0.0,
			"0.024": 0.0,
			"0.025": 0.0
		}
	}
}
