{
	 "smiles": "CC(C)NC(=S)NN", 
	 "Tm": 369.65, 
	 "num_atms": 19, 
	 "gaussian": { 
		 "optdone": 1, 
		 "sigma_profile": "yes", 
		 "theory": "DFT", 
		 "functional": "B3LYP", 
		 "basiset": "6-31G**", 
		 "properties": { 
			 "R2extent": 1913.6575, 
			 "electric_dipole_moment_norm": 5.53232289911, 
			 "electric_quadrupole_moment_norm": 6.56539707558, 
			 "total_energy": -721.48010564, 
			 "HOMO_LUMO_gap": 0.18719, 
			 "cosmo_polarized_energy": -16.8, 
			 "cosmo_cavitation_energy": 23.2, 
			 "cosmo_dispersion_energy": -17.0, 
			 "cosmo_repulsion_energy": 1.38, 
			 "cosmo_total_nonelectrostatic_energy": 7.58, 
			 "SMD_solvation_energy": 2.99 
		},
		"coords": [
			{
				"x": 2.3513472216,
				"y": 1.9591593562,
				"z": 0.8604169706,
				"element": "C" 
			},
			{
				"x": 1.9662575562,
				"y": 0.4780001001,
				"z": 0.8413254788,
				"element": "C" 
			},
			{
				"x": 2.0568205372,
				"y": -0.1252769532,
				"z": -0.5671353657,
				"element": "C" 
			},
			{
				"x": 0.6055818072,
				"y": 0.3597773117,
				"z": 1.4134205043,
				"element": "N" 
			},
			{
				"x": -0.1444978617,
				"y": -0.7851089039,
				"z": 1.5037006431,
				"element": "C" 
			},
			{
				"x": -1.8045245895,
				"y": -0.7820722567,
				"z": 1.2342222941,
				"element": "S" 
			},
			{
				"x": 0.4955882827,
				"y": -1.9501218975,
				"z": 1.846857934,
				"element": "N" 
			},
			{
				"x": 1.6232055258,
				"y": -2.0289250274,
				"z": 2.6964937166,
				"element": "N" 
			},
			{
				"x": 2.2889900044,
				"y": 2.3700381321,
				"z": 1.872347057,
				"element": "H" 
			},
			{
				"x": 1.6895585539,
				"y": 2.5427141873,
				"z": 0.2092046626,
				"element": "H" 
			},
			{
				"x": 3.3739705201,
				"y": 2.0903627797,
				"z": 0.4963220839,
				"element": "H" 
			},
			{
				"x": 2.6601766533,
				"y": -0.0554594699,
				"z": 1.4981840447,
				"element": "H" 
			},
			{
				"x": 1.3942131106,
				"y": 0.406244164,
				"z": -1.2581717034,
				"element": "H" 
			},
			{
				"x": 1.7661724086,
				"y": -1.1795639034,
				"z": -0.564678271,
				"element": "H" 
			},
			{
				"x": 3.0807641812,
				"y": -0.051667817,
				"z": -0.9485803958,
				"element": "H" 
			},
			{
				"x": 0.0039828301,
				"y": 1.1385239992,
				"z": 1.1710150723,
				"element": "H" 
			},
			{
				"x": -0.1512098107,
				"y": -2.7157530547,
				"z": 1.9878006779,
				"element": "H" 
			},
			{
				"x": 1.6242219518,
				"y": -1.2420007512,
				"z": 3.3428383621,
				"element": "H" 
			},
			{
				"x": 2.4758811172,
				"y": -1.9965699954,
				"z": 2.144416234,
				"element": "H" 
			}
		],
		 "valence_orbital": [ 
			{
				"type": "occ",
				"energy": -0.35665,
				"method": "rhf"
			},
			{
				"type": "occ",
				"energy": -0.2904,
				"method": "rhf"
			},
			{
				"type": "occ",
				"energy": -0.26464,
				"method": "rhf"
			},
			{
				"type": "occ",
				"energy": -0.21673,
				"method": "rhf"
			},
			{
				"type": "occ",
				"energy": -0.20166,
				"method": "rhf"
			},
			{
				"type": "unocc",
				"energy": -0.01447,
				"method": "rhf"
			},
			{
				"type": "unocc",
				"energy": 0.04868,
				"method": "rhf"
			},
			{
				"type": "unocc",
				"energy": 0.07066,
				"method": "rhf"
			},
			{
				"type": "unocc",
				"energy": 0.09545,
				"method": "rhf"
			},
			{
				"type": "unocc",
				"energy": 0.11605,
				"method": "rhf"
			}
		],
		"cosmo_sigma_profile": { 
			"-0.025": 0.0,
			"-0.024": 0.0,
			"-0.023": 0.0,
			"-0.022": 0.0,
			"-0.021": 0.0,
			"-0.02": 0.0,
			"-0.019": 0.0,
			"-0.018": 0.0,
			"-0.017": 0.0,
			"-0.016": 0.0,
			"-0.015": 0.0,
			"-0.014": 0.0255399432333,
			"-0.013": 0.493696846262,
			"-0.012": 3.62884984254,
			"-0.011": 4.4761814909,
			"-0.01": 5.67687017857,
			"-0.009": 4.16822874207,
			"-0.008": 4.36156515058,
			"-0.007": 4.72148194301,
			"-0.006": 3.75874677954,
			"-0.005": 6.62573417744,
			"-0.004": 13.1707886946,
			"-0.003": 18.1382663118,
			"-0.002": 15.54912817,
			"-0.001": 13.3728104329,
			"0.0": 16.8000488785,
			"0.001": 10.2038407543,
			"0.002": 4.57728789836,
			"0.003": 4.40856794974,
			"0.004": 5.49182204924,
			"0.005": 4.01270911406,
			"0.006": 3.20828738662,
			"0.007": 4.18775674413,
			"0.008": 4.32986059009,
			"0.009": 4.73509139323,
			"0.01": 6.15384576575,
			"0.011": 8.74416194458,
			"0.012": 5.16326091654,
			"0.013": 1.95856029427,
			"0.014": 0.574003543281,
			"0.015": 0.668285178847,
			"0.016": 0.0472317649127,
			"0.017": 0.0,
			"0.018": 0.0,
			"0.019": 0.0,
			"0.02": 0.0,
			"0.021": 0.0,
			"0.022": 0.0,
			"0.023": 0.0,
			"0.024": 0.0,
			"0.025": 0.0
		}
	}
}
