{
	 "smiles": "CC(=O)NC1=CC(=CC(NC(C)=O)=C1)C(O)=O", 
	 "Tm": 461.15, 
	 "num_atms": 29, 
	 "gaussian": { 
		 "optdone": 1, 
		 "sigma_profile": "yes", 
		 "theory": "DFT", 
		 "functional": "B3LYP", 
		 "basiset": "6-31G**", 
		 "properties": { 
			 "R2extent": 5405.0588, 
			 "electric_dipole_moment_norm": 2.48358426674, 
			 "electric_quadrupole_moment_norm": 24.2100098063, 
			 "total_energy": -836.839609777, 
			 "HOMO_LUMO_gap": 0.17704, 
			 "cosmo_polarized_energy": -29.29, 
			 "cosmo_cavitation_energy": 34.29, 
			 "cosmo_dispersion_energy": -24.11, 
			 "cosmo_repulsion_energy": 1.9, 
			 "cosmo_total_nonelectrostatic_energy": 12.08, 
			 "SMD_solvation_energy": 8.75 
		},
		"coords": [
			{
				"x": 0.9343416932,
				"y": -0.4154473768,
				"z": -3.9767884056,
				"element": "C" 
			},
			{
				"x": -0.1993664373,
				"y": -1.4174530921,
				"z": -3.8882134157,
				"element": "C" 
			},
			{
				"x": -0.4923414837,
				"y": -2.1472144803,
				"z": -4.8210237721,
				"element": "O" 
			},
			{
				"x": -0.9502106256,
				"y": -1.4962742579,
				"z": -2.7177299199,
				"element": "N" 
			},
			{
				"x": -0.8977092048,
				"y": -0.8039353713,
				"z": -1.4962815256,
				"element": "C" 
			},
			{
				"x": -2.1057275995,
				"y": -0.5615938149,
				"z": -0.8257618514,
				"element": "C" 
			},
			{
				"x": -2.1035460986,
				"y": 0.065587288,
				"z": 0.4187119091,
				"element": "C" 
			},
			{
				"x": -0.9041366533,
				"y": 0.4994279665,
				"z": 0.9978409851,
				"element": "C" 
			},
			{
				"x": 0.3046312265,
				"y": 0.2935883381,
				"z": 0.3206690194,
				"element": "C" 
			},
			{
				"x": 1.5488178083,
				"y": 0.6783228358,
				"z": 0.8579559842,
				"element": "N" 
			},
			{
				"x": 1.9590557927,
				"y": 1.8159877235,
				"z": 1.5467510396,
				"element": "C" 
			},
			{
				"x": 0.9461023286,
				"y": 2.9051542498,
				"z": 1.8395347033,
				"element": "C" 
			},
			{
				"x": 3.12917736,
				"y": 1.9111065802,
				"z": 1.8800669854,
				"element": "O" 
			},
			{
				"x": 0.3027470834,
				"y": -0.3858817393,
				"z": -0.9072421793,
				"element": "C" 
			},
			{
				"x": -3.4354769643,
				"y": 0.2712444225,
				"z": 1.0852354685,
				"element": "C" 
			},
			{
				"x": -3.4240114091,
				"y": 0.4187014489,
				"z": 2.436163982,
				"element": "O" 
			},
			{
				"x": -4.4785235919,
				"y": 0.3083261218,
				"z": 0.4783028417,
				"element": "O" 
			},
			{
				"x": 1.1046069664,
				"y": -0.2181388175,
				"z": -5.0354270017,
				"element": "H" 
			},
			{
				"x": 0.7214522734,
				"y": 0.5185428887,
				"z": -3.4517638641,
				"element": "H" 
			},
			{
				"x": 1.8552162778,
				"y": -0.8416000196,
				"z": -3.5640237159,
				"element": "H" 
			},
			{
				"x": -1.7545333358,
				"y": -2.0981924806,
				"z": -2.8501263479,
				"element": "H" 
			},
			{
				"x": -3.0550761398,
				"y": -0.8531779031,
				"z": -1.2621789238,
				"element": "H" 
			},
			{
				"x": -0.9008280921,
				"y": 1.0042977591,
				"z": 1.956109915,
				"element": "H" 
			},
			{
				"x": 2.3436739441,
				"y": 0.0988685538,
				"z": 0.6148775224,
				"element": "H" 
			},
			{
				"x": 0.4333698332,
				"y": 2.7036367493,
				"z": 2.7864106073,
				"element": "H" 
			},
			{
				"x": 1.5007673546,
				"y": 3.8366112826,
				"z": 1.9562966747,
				"element": "H" 
			},
			{
				"x": 0.191756747,
				"y": 3.0135087456,
				"z": 1.0571957496,
				"element": "H" 
			},
			{
				"x": 1.2503505278,
				"y": -0.5873976332,
				"z": -1.390852494,
				"element": "H" 
			},
			{
				"x": -2.5565795812,
				"y": 0.1805940326,
				"z": 2.7920900297,
				"element": "H" 
			}
		],
		 "valence_orbital": [ 
			{
				"type": "occ",
				"energy": -0.28769,
				"method": "rhf"
			},
			{
				"type": "occ",
				"energy": -0.27168,
				"method": "rhf"
			},
			{
				"type": "occ",
				"energy": -0.26974,
				"method": "rhf"
			},
			{
				"type": "occ",
				"energy": -0.25884,
				"method": "rhf"
			},
			{
				"type": "occ",
				"energy": -0.24459,
				"method": "rhf"
			},
			{
				"type": "unocc",
				"energy": -0.06755,
				"method": "rhf"
			},
			{
				"type": "unocc",
				"energy": -0.04485,
				"method": "rhf"
			},
			{
				"type": "unocc",
				"energy": -0.00094,
				"method": "rhf"
			},
			{
				"type": "unocc",
				"energy": 0.01711,
				"method": "rhf"
			},
			{
				"type": "unocc",
				"energy": 0.03356,
				"method": "rhf"
			}
		],
		"cosmo_sigma_profile": { 
			"-0.025": 0.0,
			"-0.024": 0.0,
			"-0.023": 0.0,
			"-0.022": 0.0,
			"-0.021": 0.0,
			"-0.02": 0.0,
			"-0.019": 0.165460431124,
			"-0.018": 1.1645869768,
			"-0.017": 0.970962000703,
			"-0.016": 1.13863365485,
			"-0.015": 1.80484401915,
			"-0.014": 2.2309483652,
			"-0.013": 3.59503974405,
			"-0.012": 4.06909350625,
			"-0.011": 3.7466452789,
			"-0.01": 4.23411231067,
			"-0.009": 5.90730012017,
			"-0.008": 7.05496131912,
			"-0.007": 8.14952661162,
			"-0.006": 9.13175533401,
			"-0.005": 15.5834734533,
			"-0.004": 19.579781888,
			"-0.003": 19.263748387,
			"-0.002": 21.1994980317,
			"-0.001": 17.8410278901,
			"0.0": 14.6205276878,
			"0.001": 15.6313943769,
			"0.002": 15.5627294433,
			"0.003": 5.30810699365,
			"0.004": 4.81171029511,
			"0.005": 5.66192138675,
			"0.006": 4.36541992598,
			"0.007": 5.0134772995,
			"0.008": 5.33486737035,
			"0.009": 6.0798801376,
			"0.01": 8.03967893262,
			"0.011": 8.39069316171,
			"0.012": 10.2566509382,
			"0.013": 12.0983038952,
			"0.014": 4.3065277916,
			"0.015": 0.233282880144,
			"0.016": 0.0,
			"0.017": 0.0,
			"0.018": 0.0,
			"0.019": 0.0,
			"0.02": 0.0,
			"0.021": 0.0,
			"0.022": 0.0,
			"0.023": 0.0,
			"0.024": 0.0,
			"0.025": 0.0
		}
	}
}
