{
	 "smiles": "NC1=C(C=CC(Cl)=C1)S(N)(=O)=O", 
	 "Tm": 416.15, 
	 "num_atms": 19, 
	 "gaussian": { 
		 "optdone": 1, 
		 "sigma_profile": "yes", 
		 "theory": "DFT", 
		 "functional": "B3LYP", 
		 "basiset": "6-31G**", 
		 "properties": { 
			 "R2extent": 3739.4501, 
			 "electric_dipole_moment_norm": 4.30934815256, 
			 "electric_quadrupole_moment_norm": 13.570083051, 
			 "total_energy": -1351.12760906, 
			 "HOMO_LUMO_gap": 0.19466, 
			 "cosmo_polarized_energy": -17.92, 
			 "cosmo_cavitation_energy": 25.83, 
			 "cosmo_dispersion_energy": -20.13, 
			 "cosmo_repulsion_energy": 1.56, 
			 "cosmo_total_nonelectrostatic_energy": 7.25, 
			 "SMD_solvation_energy": 3.75 
		},
		"coords": [
			{
				"x": -1.3174081877,
				"y": 0.5889062529,
				"z": -0.7331642816,
				"element": "N" 
			},
			{
				"x": -0.4134272101,
				"y": -0.2853381452,
				"z": -1.3245414214,
				"element": "C" 
			},
			{
				"x": 0.6191697682,
				"y": -0.8921601173,
				"z": -0.5700878269,
				"element": "C" 
			},
			{
				"x": 1.5068479005,
				"y": -1.7956813522,
				"z": -1.154790386,
				"element": "C" 
			},
			{
				"x": 1.3862927163,
				"y": -2.1441411606,
				"z": -2.4968692011,
				"element": "C" 
			},
			{
				"x": 0.3512992474,
				"y": -1.565659976,
				"z": -3.2342293073,
				"element": "C" 
			},
			{
				"x": 0.1655469421,
				"y": -1.9902119871,
				"z": -4.926511774,
				"element": "Cl" 
			},
			{
				"x": -0.5353222227,
				"y": -0.6508514406,
				"z": -2.6759333483,
				"element": "C" 
			},
			{
				"x": 0.7733503129,
				"y": -0.5415014679,
				"z": 1.1777950291,
				"element": "S" 
			},
			{
				"x": -0.581171969,
				"y": -1.2144642356,
				"z": 1.9102867219,
				"element": "N" 
			},
			{
				"x": 0.6295230687,
				"y": 0.910735287,
				"z": 1.3495530998,
				"element": "O" 
			},
			{
				"x": 1.92809492,
				"y": -1.2727341454,
				"z": 1.6915703388,
				"element": "O" 
			},
			{
				"x": -0.9083618845,
				"y": 1.1959970895,
				"z": -0.0275659092,
				"element": "H" 
			},
			{
				"x": -1.9144748373,
				"y": 1.0820264662,
				"z": -1.3831655628,
				"element": "H" 
			},
			{
				"x": 2.2919588381,
				"y": -2.2224637135,
				"z": -0.5399558245,
				"element": "H" 
			},
			{
				"x": 2.0705325529,
				"y": -2.8446511551,
				"z": -2.9595057004,
				"element": "H" 
			},
			{
				"x": -1.3164224113,
				"y": -0.2105135331,
				"z": -3.2869243954,
				"element": "H" 
			},
			{
				"x": -1.4416803368,
				"y": -0.8343638635,
				"z": 1.5208057466,
				"element": "H" 
			},
			{
				"x": -0.5570472077,
				"y": -2.2297288024,
				"z": 1.8778340029,
				"element": "H" 
			}
		],
		 "valence_orbital": [ 
			{
				"type": "occ",
				"energy": -0.31801,
				"method": "rhf"
			},
			{
				"type": "occ",
				"energy": -0.31381,
				"method": "rhf"
			},
			{
				"type": "occ",
				"energy": -0.30717,
				"method": "rhf"
			},
			{
				"type": "occ",
				"energy": -0.26697,
				"method": "rhf"
			},
			{
				"type": "occ",
				"energy": -0.23932,
				"method": "rhf"
			},
			{
				"type": "unocc",
				"energy": -0.04466,
				"method": "rhf"
			},
			{
				"type": "unocc",
				"energy": -0.02039,
				"method": "rhf"
			},
			{
				"type": "unocc",
				"energy": 0.01634,
				"method": "rhf"
			},
			{
				"type": "unocc",
				"energy": 0.05354,
				"method": "rhf"
			},
			{
				"type": "unocc",
				"energy": 0.06664,
				"method": "rhf"
			}
		],
		"cosmo_sigma_profile": { 
			"-0.025": 0.0,
			"-0.024": 0.0,
			"-0.023": 0.0,
			"-0.022": 0.0,
			"-0.021": 0.0,
			"-0.02": 0.0,
			"-0.019": 0.0,
			"-0.018": 0.0,
			"-0.017": 0.0,
			"-0.016": 0.227353747163,
			"-0.015": 1.4618119197,
			"-0.014": 1.92043675774,
			"-0.013": 3.88912877104,
			"-0.012": 4.6186400406,
			"-0.011": 4.29890548068,
			"-0.01": 4.15267597708,
			"-0.009": 3.78649846211,
			"-0.008": 5.36298723335,
			"-0.007": 7.53101933571,
			"-0.006": 7.29211044285,
			"-0.005": 6.94059998131,
			"-0.004": 7.58995189503,
			"-0.003": 7.99388502392,
			"-0.002": 8.88197389844,
			"-0.001": 10.5222450818,
			"0.0": 11.4995980123,
			"0.001": 19.4799642096,
			"0.002": 18.818878245,
			"0.003": 14.8433598595,
			"0.004": 13.639887971,
			"0.005": 5.36972149592,
			"0.006": 4.35244364747,
			"0.007": 4.89446575681,
			"0.008": 4.72569558016,
			"0.009": 5.26348420147,
			"0.01": 7.35153756896,
			"0.011": 8.54026081825,
			"0.012": 3.02849500416,
			"0.013": 0.167323270864,
			"0.014": 0.0,
			"0.015": 0.0,
			"0.016": 0.0,
			"0.017": 0.0,
			"0.018": 0.0,
			"0.019": 0.0,
			"0.02": 0.0,
			"0.021": 0.0,
			"0.022": 0.0,
			"0.023": 0.0,
			"0.024": 0.0,
			"0.025": 0.0
		}
	}
}
