{
	 "smiles": "CCC1=C2CCC3C(CCC4CC(O)CCC34C)C2=CC=C1C", 
	 "Tm": 445.15, 
	 "num_atms": 55, 
	 "gaussian": { 
		 "optdone": 1, 
		 "sigma_profile": "yes", 
		 "theory": "DFT", 
		 "functional": "B3LYP", 
		 "basiset": "6-31G**", 
		 "properties": { 
			 "R2extent": 8152.466, 
			 "electric_dipole_moment_norm": 1.75563620662, 
			 "electric_quadrupole_moment_norm": 7.72921675851, 
			 "total_energy": -932.866072645, 
			 "HOMO_LUMO_gap": 0.22265, 
			 "cosmo_polarized_energy": -8.69, 
			 "cosmo_cavitation_energy": 46.63, 
			 "cosmo_dispersion_energy": -33.07, 
			 "cosmo_repulsion_energy": 2.45, 
			 "cosmo_total_nonelectrostatic_energy": 16.01, 
			 "SMD_solvation_energy": 6.25 
		},
		"coords": [
			{
				"x": -0.6133011565,
				"y": -4.7264551213,
				"z": -0.590481861,
				"element": "C" 
			},
			{
				"x": -0.5137793441,
				"y": -4.1593509335,
				"z": -2.0201844674,
				"element": "C" 
			},
			{
				"x": 0.3937321618,
				"y": -2.9442158431,
				"z": -2.1170390032,
				"element": "C" 
			},
			{
				"x": -0.0979162719,
				"y": -1.647360949,
				"z": -1.8213616639,
				"element": "C" 
			},
			{
				"x": -1.5706471162,
				"y": -1.4264312139,
				"z": -1.5329604288,
				"element": "C" 
			},
			{
				"x": -1.9992721221,
				"y": 0.0205313828,
				"z": -1.7880845712,
				"element": "C" 
			},
			{
				"x": -1.1617713321,
				"y": 1.0698276989,
				"z": -1.0353018861,
				"element": "C" 
			},
			{
				"x": 0.334248236,
				"y": 0.8963929222,
				"z": -1.4629872372,
				"element": "C" 
			},
			{
				"x": 1.2680362398,
				"y": 1.4934946757,
				"z": -0.3903458214,
				"element": "C" 
			},
			{
				"x": 1.1374523124,
				"y": 0.7553657261,
				"z": 0.9477512115,
				"element": "C" 
			},
			{
				"x": -0.3272308325,
				"y": 0.3834604297,
				"z": 1.3292976842,
				"element": "C" 
			},
			{
				"x": -0.5450421032,
				"y": 0.4948392523,
				"z": 2.8621787286,
				"element": "C" 
			},
			{
				"x": -0.9699674112,
				"y": 1.9039497519,
				"z": 3.3565328318,
				"element": "C" 
			},
			{
				"x": -0.2796042973,
				"y": 2.284249847,
				"z": 4.5491280208,
				"element": "O" 
			},
			{
				"x": -0.6847371237,
				"y": 2.9859926901,
				"z": 2.3185721274,
				"element": "C" 
			},
			{
				"x": -1.3560885884,
				"y": 2.7034356199,
				"z": 0.9588376941,
				"element": "C" 
			},
			{
				"x": -1.3980582039,
				"y": 1.1890241047,
				"z": 0.5309741091,
				"element": "C" 
			},
			{
				"x": -2.8090118338,
				"y": 0.67086504,
				"z": 0.9019426967,
				"element": "C" 
			},
			{
				"x": 0.765594096,
				"y": -0.534506666,
				"z": -1.8301699604,
				"element": "C" 
			},
			{
				"x": 2.0981839562,
				"y": -0.7341342606,
				"z": -2.2166240407,
				"element": "C" 
			},
			{
				"x": 2.5771811486,
				"y": -1.9975796737,
				"z": -2.532202915,
				"element": "C" 
			},
			{
				"x": 1.746532586,
				"y": -3.1211956528,
				"z": -2.4694753147,
				"element": "C" 
			},
			{
				"x": 2.3237299262,
				"y": -4.4812922219,
				"z": -2.800629903,
				"element": "C" 
			},
			{
				"x": -1.0193542485,
				"y": -3.9845483656,
				"z": 0.1042146428,
				"element": "H" 
			},
			{
				"x": -1.2647312031,
				"y": -5.6066581357,
				"z": -0.5617736394,
				"element": "H" 
			},
			{
				"x": 0.3713303755,
				"y": -5.0221231645,
				"z": -0.2139116271,
				"element": "H" 
			},
			{
				"x": -0.1501686427,
				"y": -4.9471257887,
				"z": -2.6861457338,
				"element": "H" 
			},
			{
				"x": -1.5210094914,
				"y": -3.917874587,
				"z": -2.3736396436,
				"element": "H" 
			},
			{
				"x": -1.8094524714,
				"y": -1.7213316161,
				"z": -0.5025366171,
				"element": "H" 
			},
			{
				"x": -2.1767835843,
				"y": -2.0809630624,
				"z": -2.1682290563,
				"element": "H" 
			},
			{
				"x": -3.0659253892,
				"y": 0.1362050068,
				"z": -1.5777653241,
				"element": "H" 
			},
			{
				"x": -1.8810013172,
				"y": 0.221883071,
				"z": -2.8615983839,
				"element": "H" 
			},
			{
				"x": -1.4811172719,
				"y": 2.0399522766,
				"z": -1.437200389,
				"element": "H" 
			},
			{
				"x": 0.4650568607,
				"y": 1.4917680853,
				"z": -2.3777623689,
				"element": "H" 
			},
			{
				"x": 2.3101857701,
				"y": 1.4675530185,
				"z": -0.7228144807,
				"element": "H" 
			},
			{
				"x": 1.025622093,
				"y": 2.5543675825,
				"z": -0.2671372637,
				"element": "H" 
			},
			{
				"x": 1.5977271888,
				"y": 1.358667683,
				"z": 1.7364990743,
				"element": "H" 
			},
			{
				"x": 1.7217300119,
				"y": -0.1707297974,
				"z": 0.9019484794,
				"element": "H" 
			},
			{
				"x": -0.4659429492,
				"y": -0.670171114,
				"z": 1.0609857729,
				"element": "H" 
			},
			{
				"x": -1.2829237829,
				"y": -0.2451611495,
				"z": 3.1942807893,
				"element": "H" 
			},
			{
				"x": 0.3962194507,
				"y": 0.2425220897,
				"z": 3.3644022841,
				"element": "H" 
			},
			{
				"x": -2.0541193421,
				"y": 1.9024470639,
				"z": 3.5575091641,
				"element": "H" 
			},
			{
				"x": -0.4727626622,
				"y": 1.6216106319,
				"z": 5.224919976,
				"element": "H" 
			},
			{
				"x": -1.0217874852,
				"y": 3.9510304365,
				"z": 2.7120349363,
				"element": "H" 
			},
			{
				"x": 0.4010555717,
				"y": 3.0679578536,
				"z": 2.2050314943,
				"element": "H" 
			},
			{
				"x": -2.3880810916,
				"y": 3.0760093815,
				"z": 0.9842630868,
				"element": "H" 
			},
			{
				"x": -0.8530706523,
				"y": 3.3058538177,
				"z": 0.1971424969,
				"element": "H" 
			},
			{
				"x": -3.0422821418,
				"y": 0.877967305,
				"z": 1.9493339567,
				"element": "H" 
			},
			{
				"x": -2.9189838875,
				"y": -0.4068432022,
				"z": 0.7520698775,
				"element": "H" 
			},
			{
				"x": -3.5768948848,
				"y": 1.1743879331,
				"z": 0.3051429726,
				"element": "H" 
			},
			{
				"x": 2.7750193532,
				"y": 0.1136863218,
				"z": -2.2756987692,
				"element": "H" 
			},
			{
				"x": 3.6167927929,
				"y": -2.1195940597,
				"z": -2.8267839606,
				"element": "H" 
			},
			{
				"x": 2.1851347039,
				"y": -5.2020007008,
				"z": -1.9870136671,
				"element": "H" 
			},
			{
				"x": 1.862947683,
				"y": -4.918164732,
				"z": -3.6951441538,
				"element": "H" 
			},
			{
				"x": 3.3976077178,
				"y": -4.4051866882,
				"z": -2.9920899561,
				"element": "H" 
			}
		],
		 "valence_orbital": [ 
			{
				"type": "occ",
				"energy": -0.27567,
				"method": "rhf"
			},
			{
				"type": "occ",
				"energy": -0.27399,
				"method": "rhf"
			},
			{
				"type": "occ",
				"energy": -0.25256,
				"method": "rhf"
			},
			{
				"type": "occ",
				"energy": -0.22563,
				"method": "rhf"
			},
			{
				"type": "occ",
				"energy": -0.21846,
				"method": "rhf"
			},
			{
				"type": "unocc",
				"energy": 0.00419,
				"method": "rhf"
			},
			{
				"type": "unocc",
				"energy": 0.01379,
				"method": "rhf"
			},
			{
				"type": "unocc",
				"energy": 0.06734,
				"method": "rhf"
			},
			{
				"type": "unocc",
				"energy": 0.07756,
				"method": "rhf"
			},
			{
				"type": "unocc",
				"energy": 0.08974,
				"method": "rhf"
			}
		],
		"cosmo_sigma_profile": { 
			"-0.025": 0.0,
			"-0.024": 0.0,
			"-0.023": 0.0,
			"-0.022": 0.0,
			"-0.021": 0.0,
			"-0.02": 0.0,
			"-0.019": 0.0,
			"-0.018": 0.0,
			"-0.017": 0.0,
			"-0.016": 0.0,
			"-0.015": 0.493483151957,
			"-0.014": 0.93752491817,
			"-0.013": 1.17548807602,
			"-0.012": 0.642600863399,
			"-0.011": 0.42588987133,
			"-0.01": 1.43088977203,
			"-0.009": 0.690817367769,
			"-0.008": 0.756693807624,
			"-0.007": 0.920172409374,
			"-0.006": 0.89331032423,
			"-0.005": 2.05290851951,
			"-0.004": 13.3820202987,
			"-0.003": 33.4714753665,
			"-0.002": 56.6982724714,
			"-0.001": 63.1962704308,
			"0.0": 60.8742666607,
			"0.001": 47.5757197666,
			"0.002": 23.1185272659,
			"0.003": 8.63814205771,
			"0.004": 8.12317114298,
			"0.005": 6.6073104369,
			"0.006": 6.58138143743,
			"0.007": 6.56773938594,
			"0.008": 3.99993763254,
			"0.009": 0.845511779195,
			"0.01": 0.945581356005,
			"0.011": 1.48496532796,
			"0.012": 1.86833923006,
			"0.013": 1.07180520497,
			"0.014": 1.91091114797,
			"0.015": 1.62551470933,
			"0.016": 0.0,
			"0.017": 0.0,
			"0.018": 0.0,
			"0.019": 0.0,
			"0.02": 0.0,
			"0.021": 0.0,
			"0.022": 0.0,
			"0.023": 0.0,
			"0.024": 0.0,
			"0.025": 0.0
		}
	}
}
