{
	 "smiles": "OCN(CO)C1=NC(=NC(=N1)N(CO)CO)N(CO)CO", 
	 "Tm": 410.15, 
	 "num_atms": 39, 
	 "gaussian": { 
		 "optdone": 1, 
		 "sigma_profile": "yes", 
		 "theory": "DFT", 
		 "functional": "B3LYP", 
		 "basiset": "6-31G**", 
		 "properties": { 
			 "R2extent": 7433.3065, 
			 "electric_dipole_moment_norm": 1.86510708808, 
			 "electric_quadrupole_moment_norm": 17.66526981, 
			 "total_energy": -1133.65174646, 
			 "HOMO_LUMO_gap": 0.22697, 
			 "cosmo_polarized_energy": -25.86, 
			 "cosmo_cavitation_energy": 41.81, 
			 "cosmo_dispersion_energy": -28.68, 
			 "cosmo_repulsion_energy": 2.21, 
			 "cosmo_total_nonelectrostatic_energy": 15.34, 
			 "SMD_solvation_energy": 4.81 
		},
		"coords": [
			{
				"x": -2.5664184983,
				"y": 3.4643488902,
				"z": -3.24538561,
				"element": "O" 
			},
			{
				"x": -1.3184341628,
				"y": 2.874734883,
				"z": -2.9603458235,
				"element": "C" 
			},
			{
				"x": -1.1881551576,
				"y": 2.521980329,
				"z": -1.5502707089,
				"element": "N" 
			},
			{
				"x": -1.4823676316,
				"y": 3.5597325045,
				"z": -0.5526965175,
				"element": "C" 
			},
			{
				"x": -2.7019702142,
				"y": 3.3607603627,
				"z": 0.1107906029,
				"element": "O" 
			},
			{
				"x": -1.0007083606,
				"y": 1.2385468001,
				"z": -1.1271980151,
				"element": "C" 
			},
			{
				"x": -0.7631705285,
				"y": 0.2847401724,
				"z": -2.0437168877,
				"element": "N" 
			},
			{
				"x": -0.5348008843,
				"y": -0.9331625148,
				"z": -1.5433679761,
				"element": "C" 
			},
			{
				"x": -0.4934841438,
				"y": -1.2434859621,
				"z": -0.2313715133,
				"element": "N" 
			},
			{
				"x": -0.8150365749,
				"y": -0.2248576171,
				"z": 0.5975630594,
				"element": "C" 
			},
			{
				"x": -1.0863393173,
				"y": 1.0305898644,
				"z": 0.2060548464,
				"element": "N" 
			},
			{
				"x": -0.8708805419,
				"y": -0.5199512096,
				"z": 1.9314903345,
				"element": "N" 
			},
			{
				"x": -0.6693507124,
				"y": -1.9079064162,
				"z": 2.3575031479,
				"element": "C" 
			},
			{
				"x": 0.6384973168,
				"y": -2.3707334313,
				"z": 2.1292093456,
				"element": "O" 
			},
			{
				"x": -0.8885423535,
				"y": 0.5123198431,
				"z": 2.9657715367,
				"element": "C" 
			},
			{
				"x": 0.1662683468,
				"y": 0.3486254094,
				"z": 3.8840433726,
				"element": "O" 
			},
			{
				"x": -0.3371438203,
				"y": -1.9599482157,
				"z": -2.4442067884,
				"element": "N" 
			},
			{
				"x": 0.0075910048,
				"y": -3.2872622679,
				"z": -1.9803105346,
				"element": "C" 
			},
			{
				"x": 1.4171577618,
				"y": -3.5105505432,
				"z": -1.911813717,
				"element": "O" 
			},
			{
				"x": 0.0506659152,
				"y": -1.6648658054,
				"z": -3.8251958074,
				"element": "C" 
			},
			{
				"x": 1.4326495442,
				"y": -1.4454773302,
				"z": -3.9743741673,
				"element": "O" 
			},
			{
				"x": -3.2575484254,
				"y": 2.8471750541,
				"z": -2.9677751947,
				"element": "H" 
			},
			{
				"x": -1.1227113185,
				"y": 1.9707941269,
				"z": -3.5406601955,
				"element": "H" 
			},
			{
				"x": -0.5760209434,
				"y": 3.6368921355,
				"z": -3.2185491213,
				"element": "H" 
			},
			{
				"x": -1.5595598686,
				"y": 4.5046824144,
				"z": -1.0906324118,
				"element": "H" 
			},
			{
				"x": -0.6423489974,
				"y": 3.6020926984,
				"z": 0.1513161999,
				"element": "H" 
			},
			{
				"x": -2.566775773,
				"y": 2.5538272365,
				"z": 0.6337080581,
				"element": "H" 
			},
			{
				"x": -1.4099988734,
				"y": -2.5311902369,
				"z": 1.8428624144,
				"element": "H" 
			},
			{
				"x": -0.8389615883,
				"y": -1.9437475165,
				"z": 3.4333888097,
				"element": "H" 
			},
			{
				"x": 0.7118065839,
				"y": -2.3865462296,
				"z": 1.1616166032,
				"element": "H" 
			},
			{
				"x": -0.87473458,
				"y": 1.4810458886,
				"z": 2.4597882678,
				"element": "H" 
			},
			{
				"x": -1.8031991864,
				"y": 0.4336354976,
				"z": 3.5634311402,
				"element": "H" 
			},
			{
				"x": 0.9942528713,
				"y": 0.3101899242,
				"z": 3.3847891918,
				"element": "H" 
			},
			{
				"x": -0.3551773902,
				"y": -4.0121888437,
				"z": -2.7127705495,
				"element": "H" 
			},
			{
				"x": -0.4755162228,
				"y": -3.4628380165,
				"z": -1.0189962756,
				"element": "H" 
			},
			{
				"x": 1.765574553,
				"y": -2.9641229094,
				"z": -1.1931482822,
				"element": "H" 
			},
			{
				"x": -0.4568770897,
				"y": -0.7585157966,
				"z": -4.1461682335,
				"element": "H" 
			},
			{
				"x": -0.2961236546,
				"y": -2.5142551719,
				"z": -4.4311175413,
				"element": "H" 
			},
			{
				"x": 1.8748929157,
				"y": -2.2280080002,
				"z": -3.6091550592,
				"element": "H" 
			}
		],
		 "valence_orbital": [ 
			{
				"type": "occ",
				"energy": -0.27531,
				"method": "rhf"
			},
			{
				"type": "occ",
				"energy": -0.27,
				"method": "rhf"
			},
			{
				"type": "occ",
				"energy": -0.25763,
				"method": "rhf"
			},
			{
				"type": "occ",
				"energy": -0.2519,
				"method": "rhf"
			},
			{
				"type": "occ",
				"energy": -0.24759,
				"method": "rhf"
			},
			{
				"type": "unocc",
				"energy": -0.02062,
				"method": "rhf"
			},
			{
				"type": "unocc",
				"energy": -0.01759,
				"method": "rhf"
			},
			{
				"type": "unocc",
				"energy": 0.03838,
				"method": "rhf"
			},
			{
				"type": "unocc",
				"energy": 0.0762,
				"method": "rhf"
			},
			{
				"type": "unocc",
				"energy": 0.08036,
				"method": "rhf"
			}
		],
		"cosmo_sigma_profile": { 
			"-0.025": 0.0,
			"-0.024": 0.0,
			"-0.023": 0.0,
			"-0.022": 0.0,
			"-0.021": 0.0,
			"-0.02": 0.0,
			"-0.019": 0.0,
			"-0.018": 0.0,
			"-0.017": 0.0,
			"-0.016": 0.643877014119,
			"-0.015": 2.38998359005,
			"-0.014": 2.37757309425,
			"-0.013": 2.6903587069,
			"-0.012": 3.77812502527,
			"-0.011": 3.70797219931,
			"-0.01": 3.57740035046,
			"-0.009": 2.39341381648,
			"-0.008": 5.31903166749,
			"-0.007": 10.0043110984,
			"-0.006": 20.3873996878,
			"-0.005": 24.0168354254,
			"-0.004": 27.7081741207,
			"-0.003": 26.6608702553,
			"-0.002": 22.7141524886,
			"-0.001": 19.8912770273,
			"0.0": 19.0639943585,
			"0.001": 17.0694962614,
			"0.002": 13.2469811841,
			"0.003": 10.1963781184,
			"0.004": 11.3415445753,
			"0.005": 9.4795641283,
			"0.006": 7.79643230079,
			"0.007": 7.58716707688,
			"0.008": 7.14585926069,
			"0.009": 6.57450889202,
			"0.01": 6.76183588814,
			"0.011": 7.73713305604,
			"0.012": 8.58614061881,
			"0.013": 9.67450235088,
			"0.014": 6.29790368743,
			"0.015": 0.301315049685,
			"0.016": 0.0,
			"0.017": 0.0,
			"0.018": 0.0,
			"0.019": 0.0,
			"0.02": 0.0,
			"0.021": 0.0,
			"0.022": 0.0,
			"0.023": 0.0,
			"0.024": 0.0,
			"0.025": 0.0
		}
	}
}
