{
	 "smiles": "CN(CC(O)=O)C1=C(C=CC=C1)[N+]([O-])=O", 
	 "Tm": 343.15, 
	 "num_atms": 25, 
	 "gaussian": { 
		 "optdone": 1, 
		 "sigma_profile": "yes", 
		 "theory": "DFT", 
		 "functional": "B3LYP", 
		 "basiset": "6-31G**", 
		 "properties": { 
			 "R2extent": 3460.351, 
			 "electric_dipole_moment_norm": 4.39314027206, 
			 "electric_quadrupole_moment_norm": 12.768677121, 
			 "total_energy": -759.275836662, 
			 "HOMO_LUMO_gap": 0.13718, 
			 "cosmo_polarized_energy": -17.06, 
			 "cosmo_cavitation_energy": 28.93, 
			 "cosmo_dispersion_energy": -20.86, 
			 "cosmo_repulsion_energy": 1.61, 
			 "cosmo_total_nonelectrostatic_energy": 9.68, 
			 "SMD_solvation_energy": 7.83 
		},
		"coords": [
			{
				"x": 1.451558156,
				"y": 2.5931453493,
				"z": -2.0525950645,
				"element": "C" 
			},
			{
				"x": 1.1231890028,
				"y": 1.6544893988,
				"z": -0.9855152878,
				"element": "N" 
			},
			{
				"x": 2.1288483434,
				"y": 1.5588726895,
				"z": 0.0557425723,
				"element": "C" 
			},
			{
				"x": 3.3480870822,
				"y": 0.7316057945,
				"z": -0.3389973469,
				"element": "C" 
			},
			{
				"x": 4.0313685209,
				"y": 0.3500615091,
				"z": 0.7612105564,
				"element": "O" 
			},
			{
				"x": 3.7204833161,
				"y": 0.5118773773,
				"z": -1.4676660307,
				"element": "O" 
			},
			{
				"x": -0.2005908525,
				"y": 1.3274213304,
				"z": -0.7389710659,
				"element": "C" 
			},
			{
				"x": -0.6357078682,
				"y": 0.2138815584,
				"z": 0.0385989346,
				"element": "C" 
			},
			{
				"x": -1.9904127957,
				"y": 0.0077075688,
				"z": 0.3336447823,
				"element": "C" 
			},
			{
				"x": -2.9679792869,
				"y": 0.8442716044,
				"z": -0.1783086013,
				"element": "C" 
			},
			{
				"x": -2.5743761938,
				"y": 1.9059308658,
				"z": -0.9997244152,
				"element": "C" 
			},
			{
				"x": -1.2336389713,
				"y": 2.143419222,
				"z": -1.2639681584,
				"element": "C" 
			},
			{
				"x": 0.2571649714,
				"y": -0.8639512255,
				"z": 0.4738737201,
				"element": "N" 
			},
			{
				"x": 1.3097390809,
				"y": -1.0443223256,
				"z": -0.14616997,
				"element": "O" 
			},
			{
				"x": -0.1157239714,
				"y": -1.5790577323,
				"z": 1.4069652497,
				"element": "O" 
			},
			{
				"x": 0.8639342863,
				"y": 2.3684147921,
				"z": -2.9447889682,
				"element": "H" 
			},
			{
				"x": 1.2821956331,
				"y": 3.6442616068,
				"z": -1.7678075463,
				"element": "H" 
			},
			{
				"x": 2.5025134097,
				"y": 2.455464614,
				"z": -2.3079600401,
				"element": "H" 
			},
			{
				"x": 2.5024286139,
				"y": 2.5683152034,
				"z": 0.2966145894,
				"element": "H" 
			},
			{
				"x": 1.71109974,
				"y": 1.1676178818,
				"z": 0.981464901,
				"element": "H" 
			},
			{
				"x": 4.8101442078,
				"y": -0.1387100345,
				"z": 0.4458973611,
				"element": "H" 
			},
			{
				"x": -2.2426814717,
				"y": -0.8490155398,
				"z": 0.9454907989,
				"element": "H" 
			},
			{
				"x": -4.0145453951,
				"y": 0.66453037,
				"z": 0.0417329013,
				"element": "H" 
			},
			{
				"x": -3.319416634,
				"y": 2.574811353,
				"z": -1.4212324208,
				"element": "H" 
			},
			{
				"x": -0.9662809238,
				"y": 3.0075567685,
				"z": -1.8581314509,
				"element": "H" 
			}
		],
		 "valence_orbital": [ 
			{
				"type": "occ",
				"energy": -0.29762,
				"method": "rhf"
			},
			{
				"type": "occ",
				"energy": -0.28527,
				"method": "rhf"
			},
			{
				"type": "occ",
				"energy": -0.27711,
				"method": "rhf"
			},
			{
				"type": "occ",
				"energy": -0.26879,
				"method": "rhf"
			},
			{
				"type": "occ",
				"energy": -0.21764,
				"method": "rhf"
			},
			{
				"type": "unocc",
				"energy": -0.08046,
				"method": "rhf"
			},
			{
				"type": "unocc",
				"energy": -0.01303,
				"method": "rhf"
			},
			{
				"type": "unocc",
				"energy": -0.00128,
				"method": "rhf"
			},
			{
				"type": "unocc",
				"energy": 0.01476,
				"method": "rhf"
			},
			{
				"type": "unocc",
				"energy": 0.07336,
				"method": "rhf"
			}
		],
		"cosmo_sigma_profile": { 
			"-0.025": 0.0,
			"-0.024": 0.0,
			"-0.023": 0.0,
			"-0.022": 0.0,
			"-0.021": 0.0,
			"-0.02": 0.0,
			"-0.019": 0.135189591556,
			"-0.018": 0.819964632175,
			"-0.017": 0.823363012714,
			"-0.016": 1.02062044347,
			"-0.015": 0.754503168599,
			"-0.014": 1.14181167448,
			"-0.013": 0.356528361707,
			"-0.012": 0.521850976686,
			"-0.011": 0.841165006837,
			"-0.01": 1.16586669671,
			"-0.009": 1.66037839393,
			"-0.008": 3.91242076823,
			"-0.007": 9.59696661181,
			"-0.006": 15.7908623989,
			"-0.005": 20.4528333043,
			"-0.004": 18.2367516005,
			"-0.003": 15.5086599291,
			"-0.002": 15.7951295032,
			"-0.001": 9.12607476768,
			"0.0": 9.4758462004,
			"0.001": 12.3449194979,
			"0.002": 13.7362163339,
			"0.003": 13.4401232206,
			"0.004": 8.81224337778,
			"0.005": 4.63894579175,
			"0.006": 5.49792593473,
			"0.007": 7.59643736647,
			"0.008": 11.8112341228,
			"0.009": 7.43311442056,
			"0.01": 6.81177024646,
			"0.011": 7.18008023441,
			"0.012": 3.46257362123,
			"0.013": 0.0360668753256,
			"0.014": 0.0,
			"0.015": 0.0,
			"0.016": 0.0,
			"0.017": 0.0,
			"0.018": 0.0,
			"0.019": 0.0,
			"0.02": 0.0,
			"0.021": 0.0,
			"0.022": 0.0,
			"0.023": 0.0,
			"0.024": 0.0,
			"0.025": 0.0
		}
	}
}
