{
	 "smiles": "OCC(O)CC(F)(F)C(F)(F)C(F)(F)C(F)(F)C(F)(F)C(F)(F)C(F)(F)C(F)(F)F", 
	 "Tm": 388.15, 
	 "num_atms": 37, 
	 "gaussian": { 
		 "optdone": 1, 
		 "sigma_profile": "yes", 
		 "theory": "DFT", 
		 "functional": "B3LYP", 
		 "basiset": "6-31G**", 
		 "properties": { 
			 "R2extent": 10973.276, 
			 "electric_dipole_moment_norm": 1.77700303601, 
			 "electric_quadrupole_moment_norm": 7.90340069274, 
			 "total_energy": -2271.03696109, 
			 "HOMO_LUMO_gap": 0.28548, 
			 "cosmo_polarized_energy": -10.54, 
			 "cosmo_cavitation_energy": 44.61, 
			 "cosmo_dispersion_energy": -29.25, 
			 "cosmo_repulsion_energy": 1.95, 
			 "cosmo_total_nonelectrostatic_energy": 17.3, 
			 "SMD_solvation_energy": 12.29 
		},
		"coords": [
			{
				"x": -1.0160992394,
				"y": 3.0410870694,
				"z": -3.8743051589,
				"element": "O" 
			},
			{
				"x": -0.2509237861,
				"y": 1.8459801367,
				"z": -3.9743110066,
				"element": "C" 
			},
			{
				"x": 1.1588886603,
				"y": 2.1694344311,
				"z": -3.477142266,
				"element": "C" 
			},
			{
				"x": 1.9300609073,
				"y": 1.0013864845,
				"z": -3.7065259939,
				"element": "O" 
			},
			{
				"x": 1.1882870091,
				"y": 2.6780682889,
				"z": -2.0190453347,
				"element": "C" 
			},
			{
				"x": 1.1391791493,
				"y": 1.6047281842,
				"z": -0.9446036822,
				"element": "C" 
			},
			{
				"x": 2.3112743874,
				"y": 0.8870559766,
				"z": -0.9356017321,
				"element": "F" 
			},
			{
				"x": 0.1172370116,
				"y": 0.7249310564,
				"z": -1.1525898457,
				"element": "F" 
			},
			{
				"x": 0.9660820285,
				"y": 2.1987763304,
				"z": 0.4766167264,
				"element": "C" 
			},
			{
				"x": 1.959653411,
				"y": 3.114041449,
				"z": 0.6500713267,
				"element": "F" 
			},
			{
				"x": -0.2230615873,
				"y": 2.8482898738,
				"z": 0.5310349717,
				"element": "F" 
			},
			{
				"x": 1.0614484182,
				"y": 1.2647561801,
				"z": 1.7264502514,
				"element": "C" 
			},
			{
				"x": 2.3035219287,
				"y": 0.7290572954,
				"z": 1.7707821138,
				"element": "F" 
			},
			{
				"x": 0.9171018818,
				"y": 2.0892159529,
				"z": 2.7902371427,
				"element": "F" 
			},
			{
				"x": -0.0118065094,
				"y": 0.1225074209,
				"z": 1.8911454183,
				"element": "C" 
			},
			{
				"x": -0.3744375626,
				"y": 0.0739710929,
				"z": 3.1912432291,
				"element": "F" 
			},
			{
				"x": -1.1096886653,
				"y": 0.4329209098,
				"z": 1.1596270627,
				"element": "F" 
			},
			{
				"x": 0.4848892544,
				"y": -1.3002661994,
				"z": 1.5137813291,
				"element": "C" 
			},
			{
				"x": 1.0867500399,
				"y": -1.2828539877,
				"z": 0.3057209909,
				"element": "F" 
			},
			{
				"x": 1.3928358073,
				"y": -1.6690596345,
				"z": 2.4486012696,
				"element": "F" 
			},
			{
				"x": -0.5898175336,
				"y": -2.4365123688,
				"z": 1.509984152,
				"element": "C" 
			},
			{
				"x": -1.1062608456,
				"y": -2.541639051,
				"z": 2.7525904049,
				"element": "F" 
			},
			{
				"x": 0.0999760548,
				"y": -3.5707712302,
				"z": 1.2248499579,
				"element": "F" 
			},
			{
				"x": -1.7705437147,
				"y": -2.3261586113,
				"z": 0.4992986022,
				"element": "C" 
			},
			{
				"x": -2.756209599,
				"y": -1.5920516935,
				"z": 1.0601804665,
				"element": "F" 
			},
			{
				"x": -1.3558170007,
				"y": -1.7249151994,
				"z": -0.6387865128,
				"element": "F" 
			},
			{
				"x": -2.3862428178,
				"y": -3.6973690245,
				"z": 0.1089854764,
				"element": "C" 
			},
			{
				"x": -1.5627190632,
				"y": -4.3776952023,
				"z": -0.6932615877,
				"element": "F" 
			},
			{
				"x": -2.6364146733,
				"y": -4.4227216191,
				"z": 1.2078577486,
				"element": "F" 
			},
			{
				"x": -3.5379626731,
				"y": -3.4842627936,
				"z": -0.5392315138,
				"element": "F" 
			},
			{
				"x": -1.9319475191,
				"y": 2.8335287195,
				"z": -4.0927465729,
				"element": "H" 
			},
			{
				"x": -0.6741486271,
				"y": 1.0311517612,
				"z": -3.3754460127,
				"element": "H" 
			},
			{
				"x": -0.1660366929,
				"y": 1.4980823128,
				"z": -5.0138778754,
				"element": "H" 
			},
			{
				"x": 1.5249163788,
				"y": 3.0081611754,
				"z": -4.091323723,
				"element": "H" 
			},
			{
				"x": 2.7201456907,
				"y": 1.0298287087,
				"z": -3.1537551535,
				"element": "H" 
			},
			{
				"x": 0.34203443,
				"y": 3.3572383358,
				"z": -1.8844302196,
				"element": "H" 
			},
			{
				"x": 2.1008556611,
				"y": 3.2530774689,
				"z": -1.8372744491,
				"element": "H" 
			}
		],
		 "valence_orbital": [ 
			{
				"type": "occ",
				"energy": -0.35405,
				"method": "rhf"
			},
			{
				"type": "occ",
				"energy": -0.33969,
				"method": "rhf"
			},
			{
				"type": "occ",
				"energy": -0.32929,
				"method": "rhf"
			},
			{
				"type": "occ",
				"energy": -0.27842,
				"method": "rhf"
			},
			{
				"type": "occ",
				"energy": -0.27688,
				"method": "rhf"
			},
			{
				"type": "unocc",
				"energy": 0.0086,
				"method": "rhf"
			},
			{
				"type": "unocc",
				"energy": 0.01727,
				"method": "rhf"
			},
			{
				"type": "unocc",
				"energy": 0.03948,
				"method": "rhf"
			},
			{
				"type": "unocc",
				"energy": 0.04439,
				"method": "rhf"
			},
			{
				"type": "unocc",
				"energy": 0.05999,
				"method": "rhf"
			}
		],
		"cosmo_sigma_profile": { 
			"-0.025": 0.0,
			"-0.024": 0.0,
			"-0.023": 0.0,
			"-0.022": 0.0,
			"-0.021": 0.0,
			"-0.02": 0.0,
			"-0.019": 0.0,
			"-0.018": 0.0,
			"-0.017": 0.0796983496963,
			"-0.016": 1.10789928759,
			"-0.015": 1.04460244538,
			"-0.014": 1.67164356652,
			"-0.013": 1.78751261777,
			"-0.012": 1.88827612258,
			"-0.011": 1.86214003521,
			"-0.01": 1.72306753882,
			"-0.009": 1.81211120753,
			"-0.008": 2.45483993479,
			"-0.007": 3.67874758513,
			"-0.006": 5.10582402637,
			"-0.005": 7.59359624618,
			"-0.004": 14.0449610553,
			"-0.003": 16.2774952429,
			"-0.002": 19.8400056484,
			"-0.001": 26.5032904584,
			"0.0": 56.4371431939,
			"0.001": 113.677049125,
			"0.002": 40.968842795,
			"0.003": 7.75221974294,
			"0.004": 2.75901193831,
			"0.005": 3.28959500999,
			"0.006": 3.34932335549,
			"0.007": 2.95085407364,
			"0.008": 3.01874324256,
			"0.009": 1.22960223496,
			"0.01": 2.83795459475,
			"0.011": 2.06702954109,
			"0.012": 2.54064118629,
			"0.013": 2.4981008853,
			"0.014": 0.652482812609,
			"0.015": 0.0,
			"0.016": 0.0,
			"0.017": 0.0,
			"0.018": 0.0,
			"0.019": 0.0,
			"0.02": 0.0,
			"0.021": 0.0,
			"0.022": 0.0,
			"0.023": 0.0,
			"0.024": 0.0,
			"0.025": 0.0
		}
	}
}
