{
	 "smiles": "COC1=C(C=C(C=C1)C(O)=O)S(=O)(=O)N1CCCCC1C", 
	 "Tm": 451.15, 
	 "num_atms": 40, 
	 "gaussian": { 
		 "optdone": 1, 
		 "sigma_profile": "yes", 
		 "theory": "DFT", 
		 "functional": "B3LYP", 
		 "basiset": "6-31G**", 
		 "properties": { 
			 "R2extent": 7714.9218, 
			 "electric_dipole_moment_norm": 7.91788304157, 
			 "electric_quadrupole_moment_norm": 31.0151370331, 
			 "total_energy": -1373.92364199, 
			 "HOMO_LUMO_gap": 0.18109, 
			 "cosmo_polarized_energy": -24.56, 
			 "cosmo_cavitation_energy": 42.04, 
			 "cosmo_dispersion_energy": -29.27, 
			 "cosmo_repulsion_energy": 2.2, 
			 "cosmo_total_nonelectrostatic_energy": 14.97, 
			 "SMD_solvation_energy": 7.41 
		},
		"coords": [
			{
				"x": 2.6337230131,
				"y": -2.0345419789,
				"z": -1.8064529395,
				"element": "C" 
			},
			{
				"x": 1.2255055866,
				"y": -1.7650360516,
				"z": -1.676086827,
				"element": "O" 
			},
			{
				"x": 0.7425510708,
				"y": -0.7477780361,
				"z": -2.4511115821,
				"element": "C" 
			},
			{
				"x": 0.4311117402,
				"y": 0.5064894655,
				"z": -1.8926490121,
				"element": "C" 
			},
			{
				"x": -0.1307727099,
				"y": 1.5026578433,
				"z": -2.6882089903,
				"element": "C" 
			},
			{
				"x": -0.4058894639,
				"y": 1.2671308982,
				"z": -4.0411545887,
				"element": "C" 
			},
			{
				"x": -0.0719427536,
				"y": 0.0248752813,
				"z": -4.5976853485,
				"element": "C" 
			},
			{
				"x": 0.4976088023,
				"y": -0.971019762,
				"z": -3.8102116093,
				"element": "C" 
			},
			{
				"x": -1.0099982658,
				"y": 2.3895770943,
				"z": -4.8318714775,
				"element": "C" 
			},
			{
				"x": -1.6314383951,
				"y": 2.052881999,
				"z": -5.9951784515,
				"element": "O" 
			},
			{
				"x": -0.9654534958,
				"y": 3.5444333751,
				"z": -4.483125207,
				"element": "O" 
			},
			{
				"x": 0.7749287167,
				"y": 0.904464293,
				"z": -0.1506187517,
				"element": "S" 
			},
			{
				"x": 0.4858927086,
				"y": 2.3356608943,
				"z": -0.0309267469,
				"element": "O" 
			},
			{
				"x": 2.0988533009,
				"y": 0.3678103668,
				"z": 0.1781057259,
				"element": "O" 
			},
			{
				"x": -0.3358541926,
				"y": 0.0976681446,
				"z": 0.7837084233,
				"element": "N" 
			},
			{
				"x": -1.7440310953,
				"y": 0.5315588106,
				"z": 0.6891153965,
				"element": "C" 
			},
			{
				"x": -2.5199608634,
				"y": 0.0244967914,
				"z": 1.9062710668,
				"element": "C" 
			},
			{
				"x": -2.4846068705,
				"y": -1.5196501606,
				"z": 2.0169931852,
				"element": "C" 
			},
			{
				"x": -1.2976892365,
				"y": -2.1217494343,
				"z": 1.2366356011,
				"element": "C" 
			},
			{
				"x": -0.0223778657,
				"y": -1.2664121911,
				"z": 1.3089595816,
				"element": "C" 
			},
			{
				"x": 0.5845135934,
				"y": -1.1803271587,
				"z": 2.714940407,
				"element": "C" 
			},
			{
				"x": 2.8240145158,
				"y": -2.9306546868,
				"z": -1.2144415144,
				"element": "H" 
			},
			{
				"x": 3.2125279574,
				"y": -1.1967417891,
				"z": -1.4095567087,
				"element": "H" 
			},
			{
				"x": 2.900067468,
				"y": -2.2251899824,
				"z": -2.8524036813,
				"element": "H" 
			},
			{
				"x": -0.3432822796,
				"y": 2.4768432509,
				"z": -2.2630712993,
				"element": "H" 
			},
			{
				"x": -0.2234198632,
				"y": -0.1723836125,
				"z": -5.656144543,
				"element": "H" 
			},
			{
				"x": 0.747795216,
				"y": -1.9391497359,
				"z": -4.2320004601,
				"element": "H" 
			},
			{
				"x": -1.7431733152,
				"y": 1.094324684,
				"z": -6.0538346655,
				"element": "H" 
			},
			{
				"x": -1.7556132257,
				"y": 1.6222296576,
				"z": 0.6569779707,
				"element": "H" 
			},
			{
				"x": -2.2114724902,
				"y": 0.1617815443,
				"z": -0.2376543358,
				"element": "H" 
			},
			{
				"x": -2.0832398617,
				"y": 0.4823476477,
				"z": 2.7999920704,
				"element": "H" 
			},
			{
				"x": -3.5509537753,
				"y": 0.3876028401,
				"z": 1.8392925858,
				"element": "H" 
			},
			{
				"x": -3.4148863458,
				"y": -1.9508178498,
				"z": 1.6310775489,
				"element": "H" 
			},
			{
				"x": -2.4303163564,
				"y": -1.80785462,
				"z": 3.0719169879,
				"element": "H" 
			},
			{
				"x": -1.5686012051,
				"y": -2.237179355,
				"z": 0.1805806125,
				"element": "H" 
			},
			{
				"x": -1.0675968965,
				"y": -3.1270954259,
				"z": 1.6057769307,
				"element": "H" 
			},
			{
				"x": 0.7182131145,
				"y": -1.7113960221,
				"z": 0.6429739775,
				"element": "H" 
			},
			{
				"x": 0.8453587012,
				"y": -2.1827498066,
				"z": 3.0740385337,
				"element": "H" 
			},
			{
				"x": -0.1064096592,
				"y": -0.7291849888,
				"z": 3.4331408184,
				"element": "H" 
			},
			{
				"x": 1.4940149764,
				"y": -0.5762222337,
				"z": 2.6891913162,
				"element": "H" 
			}
		],
		 "valence_orbital": [ 
			{
				"type": "occ",
				"energy": -0.29886,
				"method": "rhf"
			},
			{
				"type": "occ",
				"energy": -0.28654,
				"method": "rhf"
			},
			{
				"type": "occ",
				"energy": -0.28061,
				"method": "rhf"
			},
			{
				"type": "occ",
				"energy": -0.26756,
				"method": "rhf"
			},
			{
				"type": "occ",
				"energy": -0.24467,
				"method": "rhf"
			},
			{
				"type": "unocc",
				"energy": -0.06358,
				"method": "rhf"
			},
			{
				"type": "unocc",
				"energy": -0.04487,
				"method": "rhf"
			},
			{
				"type": "unocc",
				"energy": 0.02819,
				"method": "rhf"
			},
			{
				"type": "unocc",
				"energy": 0.04588,
				"method": "rhf"
			},
			{
				"type": "unocc",
				"energy": 0.06159,
				"method": "rhf"
			}
		],
		"cosmo_sigma_profile": { 
			"-0.025": 0.0,
			"-0.024": 0.0,
			"-0.023": 0.0,
			"-0.022": 0.0,
			"-0.021": 0.0,
			"-0.02": 0.0,
			"-0.019": 0.475449326403,
			"-0.018": 1.07713053822,
			"-0.017": 1.09708124225,
			"-0.016": 1.04499748648,
			"-0.015": 1.23887829064,
			"-0.014": 0.764089420243,
			"-0.013": 1.19117974948,
			"-0.012": 1.30385326145,
			"-0.011": 1.2143855907,
			"-0.01": 1.5472316859,
			"-0.009": 1.83858772909,
			"-0.008": 4.11986974992,
			"-0.007": 5.70662692455,
			"-0.006": 8.2837160339,
			"-0.005": 9.30891417789,
			"-0.004": 24.0362278597,
			"-0.003": 45.1970774453,
			"-0.002": 41.6914691708,
			"-0.001": 30.6431245604,
			"0.0": 33.97961508,
			"0.001": 23.4821369614,
			"0.002": 10.1023388768,
			"0.003": 8.96918323282,
			"0.004": 7.20382010821,
			"0.005": 6.95040946526,
			"0.006": 7.06706306158,
			"0.007": 7.08038429015,
			"0.008": 6.83668053467,
			"0.009": 7.35959799505,
			"0.01": 10.4610556986,
			"0.011": 11.3127585646,
			"0.012": 7.54986691797,
			"0.013": 0.974560653673,
			"0.014": 0.0,
			"0.015": 0.0,
			"0.016": 0.0,
			"0.017": 0.0,
			"0.018": 0.0,
			"0.019": 0.0,
			"0.02": 0.0,
			"0.021": 0.0,
			"0.022": 0.0,
			"0.023": 0.0,
			"0.024": 0.0,
			"0.025": 0.0
		}
	}
}
