{
	 "smiles": "CC1=NC(C(O)=O)=C(Cl)C=N1", 
	 "Tm": 404.15, 
	 "num_atms": 16, 
	 "gaussian": { 
		 "optdone": 1, 
		 "sigma_profile": "yes", 
		 "theory": "DFT", 
		 "functional": "B3LYP", 
		 "basiset": "6-31G**", 
		 "properties": { 
			 "R2extent": 2239.7074, 
			 "electric_dipole_moment_norm": 1.41655779974, 
			 "electric_quadrupole_moment_norm": 7.47178282473, 
			 "total_energy": -951.795914376, 
			 "HOMO_LUMO_gap": 0.1782, 
			 "cosmo_polarized_energy": -11.7, 
			 "cosmo_cavitation_energy": 23.18, 
			 "cosmo_dispersion_energy": -17.31, 
			 "cosmo_repulsion_energy": 1.41, 
			 "cosmo_total_nonelectrostatic_energy": 7.28, 
			 "SMD_solvation_energy": 2.7 
		},
		"coords": [
			{
				"x": 0.0311588472,
				"y": -2.2131362475,
				"z": -1.6309704113,
				"element": "C" 
			},
			{
				"x": -0.1061266153,
				"y": -0.948420746,
				"z": -0.8305676801,
				"element": "C" 
			},
			{
				"x": 0.8860002487,
				"y": -0.6227278864,
				"z": 0.0024007813,
				"element": "N" 
			},
			{
				"x": 0.7834698009,
				"y": 0.5129250853,
				"z": 0.7081801541,
				"element": "C" 
			},
			{
				"x": 1.9541265661,
				"y": 0.8592510111,
				"z": 1.594512911,
				"element": "C" 
			},
			{
				"x": 2.6186928016,
				"y": -0.2371054032,
				"z": 2.0029948449,
				"element": "O" 
			},
			{
				"x": 2.2724865469,
				"y": 1.9874276342,
				"z": 1.8978422278,
				"element": "O" 
			},
			{
				"x": -0.3459579459,
				"y": 1.3312114656,
				"z": 0.5826460365,
				"element": "C" 
			},
			{
				"x": -0.6184088897,
				"y": 2.8026254163,
				"z": 1.4685611421,
				"element": "Cl" 
			},
			{
				"x": -1.3383194688,
				"y": 0.8948199602,
				"z": -0.3051793015,
				"element": "C" 
			},
			{
				"x": -1.2281199661,
				"y": -0.2242045719,
				"z": -1.0110299409,
				"element": "N" 
			},
			{
				"x": 0.0826927154,
				"y": -1.978488149,
				"z": -2.6996306807,
				"element": "H" 
			},
			{
				"x": -0.8465777901,
				"y": -2.8500060405,
				"z": -1.4858811603,
				"element": "H" 
			},
			{
				"x": 0.9321223736,
				"y": -2.7517147472,
				"z": -1.3370467909,
				"element": "H" 
			},
			{
				"x": 3.3591562664,
				"y": 0.0894132088,
				"z": 2.5418124349,
				"element": "H" 
			},
			{
				"x": -2.2433954908,
				"y": 1.4847300104,
				"z": -0.4341445669,
				"element": "H" 
			}
		],
		 "valence_orbital": [ 
			{
				"type": "occ",
				"energy": -0.32719,
				"method": "rhf"
			},
			{
				"type": "occ",
				"energy": -0.32128,
				"method": "rhf"
			},
			{
				"type": "occ",
				"energy": -0.29613,
				"method": "rhf"
			},
			{
				"type": "occ",
				"energy": -0.27408,
				"method": "rhf"
			},
			{
				"type": "occ",
				"energy": -0.26043,
				"method": "rhf"
			},
			{
				"type": "unocc",
				"energy": -0.08223,
				"method": "rhf"
			},
			{
				"type": "unocc",
				"energy": -0.04588,
				"method": "rhf"
			},
			{
				"type": "unocc",
				"energy": 0.01892,
				"method": "rhf"
			},
			{
				"type": "unocc",
				"energy": 0.02285,
				"method": "rhf"
			},
			{
				"type": "unocc",
				"energy": 0.07297,
				"method": "rhf"
			}
		],
		"cosmo_sigma_profile": { 
			"-0.025": 0.0,
			"-0.024": 0.0,
			"-0.023": 0.0,
			"-0.022": 0.0,
			"-0.021": 0.0,
			"-0.02": 0.00938936562639,
			"-0.019": 0.743582913233,
			"-0.018": 0.878973181401,
			"-0.017": 0.935100985799,
			"-0.016": 0.64150058086,
			"-0.015": 1.21357223194,
			"-0.014": 0.690090441411,
			"-0.013": 0.548001371727,
			"-0.012": 0.603017428655,
			"-0.011": 0.804005921531,
			"-0.01": 0.54886495563,
			"-0.009": 2.11282511474,
			"-0.008": 3.31650961961,
			"-0.007": 2.83369833109,
			"-0.006": 5.37539878057,
			"-0.005": 10.5135523239,
			"-0.004": 15.9091276055,
			"-0.003": 21.0819937075,
			"-0.002": 17.4273127476,
			"-0.001": 14.7778281004,
			"0.0": 11.1446180073,
			"0.001": 8.71340659689,
			"0.002": 9.17794416375,
			"0.003": 11.9024319716,
			"0.004": 6.7808439216,
			"0.005": 4.4714564068,
			"0.006": 3.93527024253,
			"0.007": 4.69434584566,
			"0.008": 4.13972315699,
			"0.009": 4.77129286822,
			"0.01": 6.05967084468,
			"0.011": 5.94812022821,
			"0.012": 2.28635923873,
			"0.013": 1.70797456395,
			"0.014": 1.22017720986,
			"0.015": 0.175197858537,
			"0.016": 0.0,
			"0.017": 0.0,
			"0.018": 0.0,
			"0.019": 0.0,
			"0.02": 0.0,
			"0.021": 0.0,
			"0.022": 0.0,
			"0.023": 0.0,
			"0.024": 0.0,
			"0.025": 0.0
		}
	}
}
