{
	 "smiles": "CC1=CC=C(C=C1N)C(N)=O", 
	 "Tm": 402.15, 
	 "num_atms": 21, 
	 "gaussian": { 
		 "optdone": 1, 
		 "sigma_profile": "yes", 
		 "theory": "DFT", 
		 "functional": "B3LYP", 
		 "basiset": "6-31G**", 
		 "properties": { 
			 "R2extent": 2278.0359, 
			 "electric_dipole_moment_norm": 5.32595039876, 
			 "electric_quadrupole_moment_norm": 16.1443582353, 
			 "total_energy": -495.634564098, 
			 "HOMO_LUMO_gap": 0.17881, 
			 "cosmo_polarized_energy": -17.86, 
			 "cosmo_cavitation_energy": 24.6, 
			 "cosmo_dispersion_energy": -18.27, 
			 "cosmo_repulsion_energy": 1.48, 
			 "cosmo_total_nonelectrostatic_energy": 7.8, 
			 "SMD_solvation_energy": 4.92 
		},
		"coords": [
			{
				"x": -0.9186244218,
				"y": -2.9331718288,
				"z": -0.6704878801,
				"element": "C" 
			},
			{
				"x": -0.0030413126,
				"y": -1.7899935905,
				"z": -0.3127665344,
				"element": "C" 
			},
			{
				"x": 1.386828516,
				"y": -1.9330937376,
				"z": -0.3491146708,
				"element": "C" 
			},
			{
				"x": 2.2459208788,
				"y": -0.8807068149,
				"z": -0.0438234224,
				"element": "C" 
			},
			{
				"x": 1.7112409174,
				"y": 0.3574447445,
				"z": 0.3252529079,
				"element": "C" 
			},
			{
				"x": 0.3218757039,
				"y": 0.5239344278,
				"z": 0.3651751799,
				"element": "C" 
			},
			{
				"x": -0.5429980446,
				"y": -0.5328477622,
				"z": 0.0472777076,
				"element": "C" 
			},
			{
				"x": -1.92634861,
				"y": -0.3284481303,
				"z": 0.0176823416,
				"element": "N" 
			},
			{
				"x": 2.6734475813,
				"y": 1.461184445,
				"z": 0.6548784462,
				"element": "C" 
			},
			{
				"x": 2.1638376737,
				"y": 2.5194333107,
				"z": 1.3774430604,
				"element": "N" 
			},
			{
				"x": 3.8427045477,
				"y": 1.4406650605,
				"z": 0.2902864324,
				"element": "O" 
			},
			{
				"x": -1.5921483142,
				"y": -2.6635695997,
				"z": -1.4936302951,
				"element": "H" 
			},
			{
				"x": -0.3474948423,
				"y": -3.8129891665,
				"z": -0.97630168,
				"element": "H" 
			},
			{
				"x": -1.551695216,
				"y": -3.2357670608,
				"z": 0.1762424029,
				"element": "H" 
			},
			{
				"x": 1.8016120699,
				"y": -2.8979938725,
				"z": -0.6305324823,
				"element": "H" 
			},
			{
				"x": 3.3229540783,
				"y": -0.9940685302,
				"z": -0.0859922468,
				"element": "H" 
			},
			{
				"x": -0.1069936615,
				"y": 1.4957900687,
				"z": 0.5977133819,
				"element": "H" 
			},
			{
				"x": -2.2473314766,
				"y": 0.4815954552,
				"z": 0.5298060855,
				"element": "H" 
			},
			{
				"x": -2.492134445,
				"y": -1.1422623534,
				"z": 0.2134667946,
				"element": "H" 
			},
			{
				"x": 1.3600237581,
				"y": 2.3788728511,
				"z": 1.9696013851,
				"element": "H" 
			},
			{
				"x": 2.8545646196,
				"y": 3.1806920838,
				"z": 1.7031230859,
				"element": "H" 
			}
		],
		 "valence_orbital": [ 
			{
				"type": "occ",
				"energy": -0.30793,
				"method": "rhf"
			},
			{
				"type": "occ",
				"energy": -0.26569,
				"method": "rhf"
			},
			{
				"type": "occ",
				"energy": -0.24601,
				"method": "rhf"
			},
			{
				"type": "occ",
				"energy": -0.24129,
				"method": "rhf"
			},
			{
				"type": "occ",
				"energy": -0.2052,
				"method": "rhf"
			},
			{
				"type": "unocc",
				"energy": -0.02639,
				"method": "rhf"
			},
			{
				"type": "unocc",
				"energy": 0.01142,
				"method": "rhf"
			},
			{
				"type": "unocc",
				"energy": 0.06481,
				"method": "rhf"
			},
			{
				"type": "unocc",
				"energy": 0.07247,
				"method": "rhf"
			},
			{
				"type": "unocc",
				"energy": 0.08704,
				"method": "rhf"
			}
		],
		"cosmo_sigma_profile": { 
			"-0.025": 0.0,
			"-0.024": 0.0,
			"-0.023": 0.0,
			"-0.022": 0.0,
			"-0.021": 0.0,
			"-0.02": 0.0,
			"-0.019": 0.0,
			"-0.018": 0.0,
			"-0.017": 0.0,
			"-0.016": 0.0,
			"-0.015": 0.0,
			"-0.014": 0.563643625544,
			"-0.013": 2.40758974048,
			"-0.012": 4.14096393628,
			"-0.011": 5.75439950525,
			"-0.01": 4.85461851354,
			"-0.009": 5.54116129553,
			"-0.008": 5.53904356165,
			"-0.007": 5.50011731257,
			"-0.006": 4.77492205599,
			"-0.005": 8.37828863112,
			"-0.004": 11.3205935681,
			"-0.003": 10.9454859599,
			"-0.002": 12.6416049812,
			"-0.001": 10.5779647965,
			"0.0": 13.3795895412,
			"0.001": 9.98858237709,
			"0.002": 9.8329167524,
			"0.003": 9.03523774375,
			"0.004": 10.0188425277,
			"0.005": 12.4972841506,
			"0.006": 9.87983863178,
			"0.007": 2.3274770441,
			"0.008": 3.31041440659,
			"0.009": 3.1382421826,
			"0.01": 1.94360383771,
			"0.011": 2.895736272,
			"0.012": 2.17850149678,
			"0.013": 4.19808706972,
			"0.014": 5.71412509737,
			"0.015": 0.802572068065,
			"0.016": 0.0,
			"0.017": 0.0,
			"0.018": 0.0,
			"0.019": 0.0,
			"0.02": 0.0,
			"0.021": 0.0,
			"0.022": 0.0,
			"0.023": 0.0,
			"0.024": 0.0,
			"0.025": 0.0
		}
	}
}
