{
	 "smiles": "O=C1OC2=C(O1)C=CC=C2", 
	 "Tm": 390.15, 
	 "num_atms": 14, 
	 "gaussian": { 
		 "optdone": 1, 
		 "sigma_profile": "yes", 
		 "theory": "DFT", 
		 "functional": "B3LYP", 
		 "basiset": "6-31G**", 
		 "properties": { 
			 "R2extent": 1403.3139, 
			 "electric_dipole_moment_norm": 4.5484523181, 
			 "electric_quadrupole_moment_norm": 4.72709514607, 
			 "total_energy": -494.82596736, 
			 "HOMO_LUMO_gap": 0.22049, 
			 "cosmo_polarized_energy": -7.65, 
			 "cosmo_cavitation_energy": 18.98, 
			 "cosmo_dispersion_energy": -14.69, 
			 "cosmo_repulsion_energy": 1.18, 
			 "cosmo_total_nonelectrostatic_energy": 5.47, 
			 "SMD_solvation_energy": 5.39 
		},
		"coords": [
			{
				"x": -0.3159661683,
				"y": 2.5798192751,
				"z": 0.6502007297,
				"element": "O" 
			},
			{
				"x": 0.0293334835,
				"y": 1.4574368518,
				"z": 0.4500646013,
				"element": "C" 
			},
			{
				"x": 1.2448381841,
				"y": 0.9168674847,
				"z": 0.8135285614,
				"element": "O" 
			},
			{
				"x": 1.2503086176,
				"y": -0.4003530836,
				"z": 0.4003193786,
				"element": "C" 
			},
			{
				"x": 0.0363037481,
				"y": -0.6637177582,
				"z": -0.2172233859,
				"element": "C" 
			},
			{
				"x": -0.7203895985,
				"y": 0.4905302313,
				"z": -0.1861640064,
				"element": "O" 
			},
			{
				"x": -0.2751139937,
				"y": -1.9017531493,
				"z": -0.7451681239,
				"element": "C" 
			},
			{
				"x": 0.7165049208,
				"y": -2.887461316,
				"z": -0.6197165088,
				"element": "C" 
			},
			{
				"x": 1.9411531258,
				"y": -2.6217883236,
				"z": 0.003223595,
				"element": "C" 
			},
			{
				"x": 2.2385378207,
				"y": -1.3564473058,
				"z": 0.5334589686,
				"element": "C" 
			},
			{
				"x": -1.2273681518,
				"y": -2.0943179872,
				"z": -1.2252223256,
				"element": "H" 
			},
			{
				"x": 0.5258440336,
				"y": -3.8792644734,
				"z": -1.0167137062,
				"element": "H" 
			},
			{
				"x": 2.6813549103,
				"y": -3.4116510336,
				"z": 0.0797162223,
				"element": "H" 
			},
			{
				"x": 3.1827590677,
				"y": -1.1375994121,
				"z": 1.018096,
				"element": "H" 
			}
		],
		 "valence_orbital": [ 
			{
				"type": "occ",
				"energy": -0.37664,
				"method": "rhf"
			},
			{
				"type": "occ",
				"energy": -0.344,
				"method": "rhf"
			},
			{
				"type": "occ",
				"energy": -0.31462,
				"method": "rhf"
			},
			{
				"type": "occ",
				"energy": -0.27347,
				"method": "rhf"
			},
			{
				"type": "occ",
				"energy": -0.24944,
				"method": "rhf"
			},
			{
				"type": "unocc",
				"energy": -0.02895,
				"method": "rhf"
			},
			{
				"type": "unocc",
				"energy": -0.01328,
				"method": "rhf"
			},
			{
				"type": "unocc",
				"energy": 0.02161,
				"method": "rhf"
			},
			{
				"type": "unocc",
				"energy": 0.06643,
				"method": "rhf"
			},
			{
				"type": "unocc",
				"energy": 0.11472,
				"method": "rhf"
			}
		],
		"cosmo_sigma_profile": { 
			"-0.025": 0.0,
			"-0.024": 0.0,
			"-0.023": 0.0,
			"-0.022": 0.0,
			"-0.021": 0.0,
			"-0.02": 0.0,
			"-0.019": 0.0,
			"-0.018": 0.0,
			"-0.017": 0.0,
			"-0.016": 0.0,
			"-0.015": 0.0,
			"-0.014": 0.0,
			"-0.013": 0.0,
			"-0.012": 0.0,
			"-0.011": 0.0,
			"-0.01": 0.0,
			"-0.009": 0.74906300321,
			"-0.008": 5.24033820485,
			"-0.007": 8.22726883861,
			"-0.006": 10.4501509581,
			"-0.005": 11.2134323293,
			"-0.004": 8.97111339196,
			"-0.003": 8.89125179427,
			"-0.002": 8.69151458259,
			"-0.001": 10.761391813,
			"0.0": 11.352339809,
			"0.001": 10.8196565035,
			"0.002": 11.3563975073,
			"0.003": 11.3137489845,
			"0.004": 7.9233863788,
			"0.005": 5.63126326122,
			"0.006": 5.17407040553,
			"0.007": 3.35148640389,
			"0.008": 2.21629490684,
			"0.009": 3.87373663908,
			"0.01": 6.61543600165,
			"0.011": 1.18897111674,
			"0.012": 0.0,
			"0.013": 0.0,
			"0.014": 0.0,
			"0.015": 0.0,
			"0.016": 0.0,
			"0.017": 0.0,
			"0.018": 0.0,
			"0.019": 0.0,
			"0.02": 0.0,
			"0.021": 0.0,
			"0.022": 0.0,
			"0.023": 0.0,
			"0.024": 0.0,
			"0.025": 0.0
		}
	}
}
