{
	 "smiles": "NC(=O)C1=CC(OC(F)(F)F)=CC=C1", 
	 "Tm": 389.15, 
	 "num_atms": 20, 
	 "gaussian": { 
		 "optdone": 1, 
		 "sigma_profile": "yes", 
		 "theory": "DFT", 
		 "functional": "B3LYP", 
		 "basiset": "6-31G**", 
		 "properties": { 
			 "R2extent": 3230.8888, 
			 "electric_dipole_moment_norm": 1.89261330969, 
			 "electric_quadrupole_moment_norm": 17.54028039, 
			 "total_energy": -813.206912292, 
			 "HOMO_LUMO_gap": 0.20492, 
			 "cosmo_polarized_energy": -12.18, 
			 "cosmo_cavitation_energy": 26.47, 
			 "cosmo_dispersion_energy": -18.85, 
			 "cosmo_repulsion_energy": 1.44, 
			 "cosmo_total_nonelectrostatic_energy": 9.05, 
			 "SMD_solvation_energy": 6.9 
		},
		"coords": [
			{
				"x": -0.9089783037,
				"y": 0.6479276364,
				"z": -2.9293321634,
				"element": "N" 
			},
			{
				"x": -0.355420732,
				"y": 1.5277699401,
				"z": -2.0311683201,
				"element": "C" 
			},
			{
				"x": -0.0506227385,
				"y": 2.6707423966,
				"z": -2.3459205407,
				"element": "O" 
			},
			{
				"x": -0.1202830065,
				"y": 1.0009826973,
				"z": -0.6405435579,
				"element": "C" 
			},
			{
				"x": -0.0621909148,
				"y": -0.3702780289,
				"z": -0.3545247448,
				"element": "C" 
			},
			{
				"x": 0.1550354111,
				"y": -0.7752271451,
				"z": 0.9605781359,
				"element": "C" 
			},
			{
				"x": 0.2698173702,
				"y": -2.1146797014,
				"z": 1.350383038,
				"element": "O" 
			},
			{
				"x": -0.4002901721,
				"y": -3.0855950851,
				"z": 0.6846818482,
				"element": "C" 
			},
			{
				"x": -0.3072980231,
				"y": -4.2030851733,
				"z": 1.4018269108,
				"element": "F" 
			},
			{
				"x": -1.7003328567,
				"y": -2.787000124,
				"z": 0.5063410373,
				"element": "F" 
			},
			{
				"x": 0.1207084168,
				"y": -3.3306759769,
				"z": -0.5396090946,
				"element": "F" 
			},
			{
				"x": 0.3310744292,
				"y": 0.1510339587,
				"z": 1.986388915,
				"element": "C" 
			},
			{
				"x": 0.2960337496,
				"y": 1.5123147113,
				"z": 1.6860413492,
				"element": "C" 
			},
			{
				"x": 0.0732695706,
				"y": 1.9394871719,
				"z": 0.3786795341,
				"element": "C" 
			},
			{
				"x": -1.1623903762,
				"y": 1.0448988822,
				"z": -3.8227734633,
				"element": "H" 
			},
			{
				"x": -1.450591893,
				"y": -0.1401259751,
				"z": -2.6102755363,
				"element": "H" 
			},
			{
				"x": -0.1400845913,
				"y": -1.1053280677,
				"z": -1.1447470852,
				"element": "H" 
			},
			{
				"x": 0.4991222191,
				"y": -0.2068711063,
				"z": 2.9963464175,
				"element": "H" 
			},
			{
				"x": 0.4399702167,
				"y": 2.2388717761,
				"z": 2.4796824379,
				"element": "H" 
			},
			{
				"x": 0.0483522246,
				"y": 2.9920372132,
				"z": 0.1204448825,
				"element": "H" 
			}
		],
		 "valence_orbital": [ 
			{
				"type": "occ",
				"energy": -0.35444,
				"method": "rhf"
			},
			{
				"type": "occ",
				"energy": -0.27982,
				"method": "rhf"
			},
			{
				"type": "occ",
				"energy": -0.27423,
				"method": "rhf"
			},
			{
				"type": "occ",
				"energy": -0.26141,
				"method": "rhf"
			},
			{
				"type": "occ",
				"energy": -0.25393,
				"method": "rhf"
			},
			{
				"type": "unocc",
				"energy": -0.04901,
				"method": "rhf"
			},
			{
				"type": "unocc",
				"energy": -0.01924,
				"method": "rhf"
			},
			{
				"type": "unocc",
				"energy": 0.04943,
				"method": "rhf"
			},
			{
				"type": "unocc",
				"energy": 0.06896,
				"method": "rhf"
			},
			{
				"type": "unocc",
				"energy": 0.09477,
				"method": "rhf"
			}
		],
		"cosmo_sigma_profile": { 
			"-0.025": 0.0,
			"-0.024": 0.0,
			"-0.023": 0.0,
			"-0.022": 0.0,
			"-0.021": 0.0,
			"-0.02": 0.0,
			"-0.019": 0.0,
			"-0.018": 0.0,
			"-0.017": 0.0,
			"-0.016": 0.0,
			"-0.015": 0.298281259063,
			"-0.014": 1.82562381412,
			"-0.013": 2.37060235206,
			"-0.012": 2.90545428096,
			"-0.011": 2.3016203028,
			"-0.01": 2.81361755858,
			"-0.009": 1.94171326758,
			"-0.008": 3.14235653794,
			"-0.007": 6.35033669882,
			"-0.006": 7.08754134532,
			"-0.005": 8.51969240407,
			"-0.004": 6.27158952283,
			"-0.003": 8.29105128776,
			"-0.002": 11.7329006531,
			"-0.001": 15.1882993671,
			"0.0": 20.193689285,
			"0.001": 29.8505605367,
			"0.002": 37.8382233554,
			"0.003": 12.799635049,
			"0.004": 5.89975971927,
			"0.005": 3.38897674807,
			"0.006": 2.65361630887,
			"0.007": 2.21287419452,
			"0.008": 2.11286352416,
			"0.009": 1.28012217508,
			"0.01": 1.34154781624,
			"0.011": 1.37149192764,
			"0.012": 2.75282489334,
			"0.013": 5.10970429163,
			"0.014": 2.4564014729,
			"0.015": 0.0307749221089,
			"0.016": 0.0,
			"0.017": 0.0,
			"0.018": 0.0,
			"0.019": 0.0,
			"0.02": 0.0,
			"0.021": 0.0,
			"0.022": 0.0,
			"0.023": 0.0,
			"0.024": 0.0,
			"0.025": 0.0
		}
	}
}
