{
	 "smiles": "NC(=S)NN=CC1=C(Cl)C=CC=C1", 
	 "Tm": 484.15, 
	 "num_atms": 21, 
	 "gaussian": { 
		 "optdone": 1, 
		 "sigma_profile": "yes", 
		 "theory": "DFT", 
		 "functional": "B3LYP", 
		 "basiset": "6-31G**", 
		 "properties": { 
			 "R2extent": 4164.2426, 
			 "electric_dipole_moment_norm": 2.12477388444, 
			 "electric_quadrupole_moment_norm": 28.0371980966, 
			 "total_energy": -1332.27099641, 
			 "HOMO_LUMO_gap": 0.15387, 
			 "cosmo_polarized_energy": -18.34, 
			 "cosmo_cavitation_energy": 29.18, 
			 "cosmo_dispersion_energy": -22.02, 
			 "cosmo_repulsion_energy": 1.71, 
			 "cosmo_total_nonelectrostatic_energy": 8.88, 
			 "SMD_solvation_energy": 3.87 
		},
		"coords": [
			{
				"x": -2.9196684999,
				"y": -0.3064406549,
				"z": 2.7964140451,
				"element": "N" 
			},
			{
				"x": -1.7248789986,
				"y": 0.0045499644,
				"z": 2.1912041871,
				"element": "C" 
			},
			{
				"x": -0.4004978579,
				"y": 0.4607321182,
				"z": 3.1138480377,
				"element": "S" 
			},
			{
				"x": -1.8155614224,
				"y": -0.0702683783,
				"z": 0.8239104435,
				"element": "N" 
			},
			{
				"x": -0.939498553,
				"y": 0.0813066488,
				"z": -0.2167996893,
				"element": "N" 
			},
			{
				"x": 0.3039360915,
				"y": 0.3570907174,
				"z": -0.0329986847,
				"element": "C" 
			},
			{
				"x": 1.2536071639,
				"y": 0.5090845274,
				"z": -1.1439543869,
				"element": "C" 
			},
			{
				"x": 1.0156297241,
				"y": 0.3644996796,
				"z": -2.5291618287,
				"element": "C" 
			},
			{
				"x": -0.5568882802,
				"y": -0.0512893951,
				"z": -3.1880010733,
				"element": "Cl" 
			},
			{
				"x": 2.0408379924,
				"y": 0.5465031416,
				"z": -3.4588645933,
				"element": "C" 
			},
			{
				"x": 3.3283146781,
				"y": 0.8760258898,
				"z": -3.0395524649,
				"element": "C" 
			},
			{
				"x": 3.5951832513,
				"y": 1.0245130106,
				"z": -1.6783621158,
				"element": "C" 
			},
			{
				"x": 2.5703671258,
				"y": 0.8415644983,
				"z": -0.7584974122,
				"element": "C" 
			},
			{
				"x": -3.5630088459,
				"y": -0.9432302997,
				"z": 2.3442250468,
				"element": "H" 
			},
			{
				"x": -2.8729283096,
				"y": -0.3720336734,
				"z": 3.8024515781,
				"element": "H" 
			},
			{
				"x": -2.740799749,
				"y": -0.2385627854,
				"z": 0.4526385403,
				"element": "H" 
			},
			{
				"x": 0.7227774602,
				"y": 0.5000211173,
				"z": 0.9598117994,
				"element": "H" 
			},
			{
				"x": 1.8174525309,
				"y": 0.4264630921,
				"z": -4.5131906582,
				"element": "H" 
			},
			{
				"x": 4.11378003,
				"y": 1.013998997,
				"z": -3.7763798927,
				"element": "H" 
			},
			{
				"x": 4.5928270159,
				"y": 1.2805222105,
				"z": -1.3357955912,
				"element": "H" 
			},
			{
				"x": 2.7745174523,
				"y": 0.9567495739,
				"z": 0.3023547132,
				"element": "H" 
			}
		],
		 "valence_orbital": [ 
			{
				"type": "occ",
				"energy": -0.27575,
				"method": "rhf"
			},
			{
				"type": "occ",
				"energy": -0.25062,
				"method": "rhf"
			},
			{
				"type": "occ",
				"energy": -0.24248,
				"method": "rhf"
			},
			{
				"type": "occ",
				"energy": -0.22234,
				"method": "rhf"
			},
			{
				"type": "occ",
				"energy": -0.21333,
				"method": "rhf"
			},
			{
				"type": "unocc",
				"energy": -0.05946,
				"method": "rhf"
			},
			{
				"type": "unocc",
				"energy": -0.01313,
				"method": "rhf"
			},
			{
				"type": "unocc",
				"energy": -0.00504,
				"method": "rhf"
			},
			{
				"type": "unocc",
				"energy": 0.03474,
				"method": "rhf"
			},
			{
				"type": "unocc",
				"energy": 0.04736,
				"method": "rhf"
			}
		],
		"cosmo_sigma_profile": { 
			"-0.025": 0.0,
			"-0.024": 0.0,
			"-0.023": 0.0,
			"-0.022": 0.0,
			"-0.021": 0.0,
			"-0.02": 0.0213720102661,
			"-0.019": 0.512261586303,
			"-0.018": 1.20093689953,
			"-0.017": 1.36048091424,
			"-0.016": 1.67648224197,
			"-0.015": 2.65720056275,
			"-0.014": 2.55546627162,
			"-0.013": 3.15740372184,
			"-0.012": 2.68082520499,
			"-0.011": 2.44803251745,
			"-0.01": 2.30737102661,
			"-0.009": 2.06673471897,
			"-0.008": 1.34448948125,
			"-0.007": 7.57585465548,
			"-0.006": 11.4678749489,
			"-0.005": 11.3749993192,
			"-0.004": 8.42074229309,
			"-0.003": 7.82783164149,
			"-0.002": 9.16510022891,
			"-0.001": 12.4007803867,
			"0.0": 13.3033818246,
			"0.001": 20.8233867026,
			"0.002": 22.4279403116,
			"0.003": 22.0594845384,
			"0.004": 17.8549290165,
			"0.005": 12.1513009931,
			"0.006": 6.47898993174,
			"0.007": 7.73475334813,
			"0.008": 6.91665774024,
			"0.009": 6.89005669267,
			"0.01": 7.13471207816,
			"0.011": 2.4892432114,
			"0.012": 0.0795566333065,
			"0.013": 0.0,
			"0.014": 0.0,
			"0.015": 0.0,
			"0.016": 0.0,
			"0.017": 0.0,
			"0.018": 0.0,
			"0.019": 0.0,
			"0.02": 0.0,
			"0.021": 0.0,
			"0.022": 0.0,
			"0.023": 0.0,
			"0.024": 0.0,
			"0.025": 0.0
		}
	}
}
