{
	 "smiles": "CC1=CSC(=N1)N1CCC(=O)CC1", 
	 "Tm": 333.15, 
	 "num_atms": 25, 
	 "gaussian": { 
		 "optdone": 1, 
		 "sigma_profile": "yes", 
		 "theory": "DFT", 
		 "functional": "B3LYP", 
		 "basiset": "6-31G**", 
		 "properties": { 
			 "R2extent": 3649.5246, 
			 "electric_dipole_moment_norm": 1.32187921914, 
			 "electric_quadrupole_moment_norm": 8.57832579178, 
			 "total_energy": -933.096971552, 
			 "HOMO_LUMO_gap": 0.16889, 
			 "cosmo_polarized_energy": -11.69, 
			 "cosmo_cavitation_energy": 28.96, 
			 "cosmo_dispersion_energy": -22.01, 
			 "cosmo_repulsion_energy": 1.72, 
			 "cosmo_total_nonelectrostatic_energy": 8.67, 
			 "SMD_solvation_energy": 3.43 
		},
		"coords": [
			{
				"x": -0.5960211742,
				"y": 4.4706311672,
				"z": 1.2060434776,
				"element": "C" 
			},
			{
				"x": -0.9018390827,
				"y": 3.0027196724,
				"z": 1.1569075852,
				"element": "C" 
			},
			{
				"x": -1.4887062542,
				"y": 2.2818179255,
				"z": 2.1527566923,
				"element": "C" 
			},
			{
				"x": -1.6577916161,
				"y": 0.6054903795,
				"z": 1.6759500758,
				"element": "S" 
			},
			{
				"x": -0.9058504163,
				"y": 1.037316065,
				"z": 0.1223413716,
				"element": "C" 
			},
			{
				"x": -0.5751666794,
				"y": 2.2974157647,
				"z": 0.0121080437,
				"element": "N" 
			},
			{
				"x": -0.7024409144,
				"y": 0.0967776476,
				"z": -0.8465656557,
				"element": "N" 
			},
			{
				"x": -1.0930825553,
				"y": -1.2941797941,
				"z": -0.6275447503,
				"element": "C" 
			},
			{
				"x": -1.0431503099,
				"y": -2.0981943723,
				"z": -1.9323830704,
				"element": "C" 
			},
			{
				"x": 0.2985355657,
				"y": -1.9850330918,
				"z": -2.6479026342,
				"element": "C" 
			},
			{
				"x": 0.767948169,
				"y": -2.8920773165,
				"z": -3.3040308741,
				"element": "O" 
			},
			{
				"x": 0.9937721278,
				"y": -0.6392913474,
				"z": -2.4802538455,
				"element": "C" 
			},
			{
				"x": 0.0237927246,
				"y": 0.4711802057,
				"z": -2.0645183529,
				"element": "C" 
			},
			{
				"x": -0.9022707562,
				"y": 4.9084582885,
				"z": 2.1592641623,
				"element": "H" 
			},
			{
				"x": -1.1124872841,
				"y": 5.0001793497,
				"z": 0.3978752137,
				"element": "H" 
			},
			{
				"x": 0.4770883967,
				"y": 4.6461656993,
				"z": 1.0717550455,
				"element": "H" 
			},
			{
				"x": -1.8345911095,
				"y": 2.6165918081,
				"z": 3.119566529,
				"element": "H" 
			},
			{
				"x": -0.4406095466,
				"y": -1.7651758081,
				"z": 0.1247031003,
				"element": "H" 
			},
			{
				"x": -2.1129346773,
				"y": -1.3253004378,
				"z": -0.2229834776,
				"element": "H" 
			},
			{
				"x": -1.811485344,
				"y": -1.7225104659,
				"z": -2.6228119653,
				"element": "H" 
			},
			{
				"x": -1.2623237317,
				"y": -3.1527451502,
				"z": -1.7494148166,
				"element": "H" 
			},
			{
				"x": 1.7666621726,
				"y": -0.7630606013,
				"z": -1.7088280877,
				"element": "H" 
			},
			{
				"x": 1.5123017822,
				"y": -0.3909406165,
				"z": -3.4112731684,
				"element": "H" 
			},
			{
				"x": 0.5530569732,
				"y": 1.4013218673,
				"z": -1.8547914378,
				"element": "H" 
			},
			{
				"x": -0.6818064599,
				"y": 0.6831431614,
				"z": -2.8812691605,
				"element": "H" 
			}
		],
		 "valence_orbital": [ 
			{
				"type": "occ",
				"energy": -0.29031,
				"method": "rhf"
			},
			{
				"type": "occ",
				"energy": -0.26727,
				"method": "rhf"
			},
			{
				"type": "occ",
				"energy": -0.261,
				"method": "rhf"
			},
			{
				"type": "occ",
				"energy": -0.24968,
				"method": "rhf"
			},
			{
				"type": "occ",
				"energy": -0.19515,
				"method": "rhf"
			},
			{
				"type": "unocc",
				"energy": -0.02626,
				"method": "rhf"
			},
			{
				"type": "unocc",
				"energy": 0.00787,
				"method": "rhf"
			},
			{
				"type": "unocc",
				"energy": 0.02154,
				"method": "rhf"
			},
			{
				"type": "unocc",
				"energy": 0.06258,
				"method": "rhf"
			},
			{
				"type": "unocc",
				"energy": 0.07302,
				"method": "rhf"
			}
		],
		"cosmo_sigma_profile": { 
			"-0.025": 0.0,
			"-0.024": 0.0,
			"-0.023": 0.0,
			"-0.022": 0.0,
			"-0.021": 0.0,
			"-0.02": 0.0,
			"-0.019": 0.0,
			"-0.018": 0.0,
			"-0.017": 0.0,
			"-0.016": 0.0,
			"-0.015": 0.0,
			"-0.014": 0.0,
			"-0.013": 0.0,
			"-0.012": 0.0,
			"-0.011": 0.0,
			"-0.01": 0.0,
			"-0.009": 0.0,
			"-0.008": 1.46694671554,
			"-0.007": 8.81442778637,
			"-0.006": 14.8491151605,
			"-0.005": 23.6081918973,
			"-0.004": 25.6886682013,
			"-0.003": 21.5368979682,
			"-0.002": 16.0619912183,
			"-0.001": 12.171201344,
			"0.0": 15.4195592384,
			"0.001": 11.8048573201,
			"0.002": 10.8112398714,
			"0.003": 11.314660998,
			"0.004": 10.3795228254,
			"0.005": 12.1658829683,
			"0.006": 7.35828065636,
			"0.007": 3.66848582216,
			"0.008": 2.41531385215,
			"0.009": 3.97014848777,
			"0.01": 3.31352579595,
			"0.011": 4.92137277611,
			"0.012": 5.01302207841,
			"0.013": 3.30946265201,
			"0.014": 0.437561091038,
			"0.015": 0.0,
			"0.016": 0.0,
			"0.017": 0.0,
			"0.018": 0.0,
			"0.019": 0.0,
			"0.02": 0.0,
			"0.021": 0.0,
			"0.022": 0.0,
			"0.023": 0.0,
			"0.024": 0.0,
			"0.025": 0.0
		}
	}
}
