{
	 "smiles": "IC1=CC(I)=C(I)C(I)=C1I", 
	 "Tm": 445.15, 
	 "num_atms": 12, 
	 "gaussian": { 
		 "optdone": 1, 
		 "sigma_profile": "yes", 
		 "theory": "DFT", 
		 "functional": "B3LYP", 
		 "basiset": "6-31G**", 
		 "properties": { 
			 "R2extent": 4696.4612, 
			 "electric_dipole_moment_norm": 0.233093007188, 
			 "electric_quadrupole_moment_norm": 7.35853787515, 
			 "total_energy": -286.129522639, 
			 "HOMO_LUMO_gap": 0.13412, 
			 "cosmo_polarized_energy": -4.83, 
			 "cosmo_cavitation_energy": 31.07, 
			 "cosmo_dispersion_energy": -29.0, 
			 "cosmo_repulsion_energy": 2.13, 
			 "cosmo_total_nonelectrostatic_energy": 4.21, 
			 "SMD_solvation_energy": 1.34 
		},
		"coords": [
			{
				"x": 4.3542134453,
				"y": 1.0136932969,
				"z": 1.1615118901,
				"element": "I" 
			},
			{
				"x": 3.3020316265,
				"y": -0.5875586699,
				"z": 0.2599511105,
				"element": "C" 
			},
			{
				"x": 2.2843373428,
				"y": -0.204673803,
				"z": -0.6107827117,
				"element": "C" 
			},
			{
				"x": 1.5141996419,
				"y": -1.1597618839,
				"z": -1.2704627173,
				"element": "C" 
			},
			{
				"x": 0.0203454191,
				"y": -0.3734094385,
				"z": -2.5487212549,
				"element": "I" 
			},
			{
				"x": 1.7524258934,
				"y": -2.5303994066,
				"z": -1.0672826848,
				"element": "C" 
			},
			{
				"x": 0.5614367301,
				"y": -3.9499273158,
				"z": -2.0872939076,
				"element": "I" 
			},
			{
				"x": 2.7868478742,
				"y": -2.9210503817,
				"z": -0.1821990483,
				"element": "C" 
			},
			{
				"x": 3.1680611906,
				"y": -4.9823814573,
				"z": 0.1432313137,
				"element": "I" 
			},
			{
				"x": 3.5692188502,
				"y": -1.9489434717,
				"z": 0.4878147429,
				"element": "C" 
			},
			{
				"x": 5.123010824,
				"y": -2.4899984045,
				"z": 1.8170839142,
				"element": "I" 
			},
			{
				"x": 2.0898711618,
				"y": 0.8463109361,
				"z": -0.7765506467,
				"element": "H" 
			}
		],
		 "valence_orbital": [ 
			{
				"type": "occ",
				"energy": -0.2803,
				"method": "rhf"
			},
			{
				"type": "occ",
				"energy": -0.26388,
				"method": "rhf"
			},
			{
				"type": "occ",
				"energy": -0.25456,
				"method": "rhf"
			},
			{
				"type": "occ",
				"energy": -0.25017,
				"method": "rhf"
			},
			{
				"type": "occ",
				"energy": -0.24059,
				"method": "rhf"
			},
			{
				"type": "unocc",
				"energy": -0.10647,
				"method": "rhf"
			},
			{
				"type": "unocc",
				"energy": -0.06382,
				"method": "rhf"
			},
			{
				"type": "unocc",
				"energy": -0.05711,
				"method": "rhf"
			},
			{
				"type": "unocc",
				"energy": -0.05563,
				"method": "rhf"
			},
			{
				"type": "unocc",
				"energy": -0.04985,
				"method": "rhf"
			}
		],
		"cosmo_sigma_profile": { 
			"-0.025": 0.0,
			"-0.024": 0.0,
			"-0.023": 0.0,
			"-0.022": 0.0,
			"-0.021": 0.0,
			"-0.02": 0.0,
			"-0.019": 0.0,
			"-0.018": 0.0,
			"-0.017": 0.0,
			"-0.016": 0.0,
			"-0.015": 0.0,
			"-0.014": 0.0,
			"-0.013": 0.0,
			"-0.012": 0.0,
			"-0.011": 0.0,
			"-0.01": 0.0,
			"-0.009": 1.08419894892,
			"-0.008": 7.05381851436,
			"-0.007": 7.00039873974,
			"-0.006": 9.96460002642,
			"-0.005": 8.68564056942,
			"-0.004": 8.84911254118,
			"-0.003": 10.9296989957,
			"-0.002": 18.7999912732,
			"-0.001": 32.9061936303,
			"0.0": 33.9862432287,
			"0.001": 24.2422489516,
			"0.002": 27.9900101439,
			"0.003": 52.6228278828,
			"0.004": 30.1228627388,
			"0.005": 0.0,
			"0.006": 0.0,
			"0.007": 0.0,
			"0.008": 0.0,
			"0.009": 0.0,
			"0.01": 0.0,
			"0.011": 0.0,
			"0.012": 0.0,
			"0.013": 0.0,
			"0.014": 0.0,
			"0.015": 0.0,
			"0.016": 0.0,
			"0.017": 0.0,
			"0.018": 0.0,
			"0.019": 0.0,
			"0.02": 0.0,
			"0.021": 0.0,
			"0.022": 0.0,
			"0.023": 0.0,
			"0.024": 0.0,
			"0.025": 0.0
		}
	}
}
