{
	 "smiles": "[O-][N+](=O)C1=CNC(=C1)C(=O)CCl", 
	 "Tm": 473.15, 
	 "num_atms": 17, 
	 "gaussian": { 
		 "optdone": 1, 
		 "sigma_profile": "yes", 
		 "theory": "DFT", 
		 "functional": "B3LYP", 
		 "basiset": "6-31G**", 
		 "properties": { 
			 "R2extent": 3865.8108, 
			 "electric_dipole_moment_norm": 1.68162263008, 
			 "electric_quadrupole_moment_norm": 31.1393814253, 
			 "total_energy": -1026.90797102, 
			 "HOMO_LUMO_gap": 0.18257, 
			 "cosmo_polarized_energy": -18.58, 
			 "cosmo_cavitation_energy": 25.08, 
			 "cosmo_dispersion_energy": -18.35, 
			 "cosmo_repulsion_energy": 1.48, 
			 "cosmo_total_nonelectrostatic_energy": 8.21, 
			 "SMD_solvation_energy": 7.08 
		},
		"coords": [
			{
				"x": -1.939198679,
				"y": -2.7854898636,
				"z": -4.0065655508,
				"element": "O" 
			},
			{
				"x": -1.0514174556,
				"y": -1.9954106414,
				"z": -3.6750126138,
				"element": "N" 
			},
			{
				"x": -0.3653334972,
				"y": -1.3261443175,
				"z": -4.4495251391,
				"element": "O" 
			},
			{
				"x": -0.7960473817,
				"y": -1.842760544,
				"z": -2.2713030525,
				"element": "C" 
			},
			{
				"x": -1.4788657741,
				"y": -2.5222138241,
				"z": -1.2675770302,
				"element": "C" 
			},
			{
				"x": -0.9507661554,
				"y": -2.1077204899,
				"z": -0.0976340515,
				"element": "N" 
			},
			{
				"x": 0.054332104,
				"y": -1.1791932549,
				"z": -0.3153128093,
				"element": "C" 
			},
			{
				"x": 0.1697499569,
				"y": -0.9960279207,
				"z": -1.6848326756,
				"element": "C" 
			},
			{
				"x": 0.7364077226,
				"y": -0.6244837288,
				"z": 0.8598179259,
				"element": "C" 
			},
			{
				"x": 0.4142679661,
				"y": -0.9818953699,
				"z": 1.9812754338,
				"element": "O" 
			},
			{
				"x": 1.837113386,
				"y": 0.3949291458,
				"z": 0.574330054,
				"element": "C" 
			},
			{
				"x": 2.6152191849,
				"y": 1.0202581141,
				"z": 2.055552928,
				"element": "Cl" 
			},
			{
				"x": -2.2761079968,
				"y": -3.244496502,
				"z": -1.3421253943,
				"element": "H" 
			},
			{
				"x": -1.2084409033,
				"y": -2.3959389164,
				"z": 0.8376288466,
				"element": "H" 
			},
			{
				"x": 0.8479659795,
				"y": -0.347589666,
				"z": -2.2175720733,
				"element": "H" 
			},
			{
				"x": 2.6095869592,
				"y": -0.0639120698,
				"z": -0.0487731852,
				"element": "H" 
			},
			{
				"x": 1.418634584,
				"y": 1.2427898491,
				"z": 0.0252283874,
				"element": "H" 
			}
		],
		 "valence_orbital": [ 
			{
				"type": "occ",
				"energy": -0.31138,
				"method": "rhf"
			},
			{
				"type": "occ",
				"energy": -0.30301,
				"method": "rhf"
			},
			{
				"type": "occ",
				"energy": -0.29657,
				"method": "rhf"
			},
			{
				"type": "occ",
				"energy": -0.28846,
				"method": "rhf"
			},
			{
				"type": "occ",
				"energy": -0.27062,
				"method": "rhf"
			},
			{
				"type": "unocc",
				"energy": -0.08805,
				"method": "rhf"
			},
			{
				"type": "unocc",
				"energy": -0.07661,
				"method": "rhf"
			},
			{
				"type": "unocc",
				"energy": 0.01044,
				"method": "rhf"
			},
			{
				"type": "unocc",
				"energy": 0.03448,
				"method": "rhf"
			},
			{
				"type": "unocc",
				"energy": 0.05497,
				"method": "rhf"
			}
		],
		"cosmo_sigma_profile": { 
			"-0.025": 0.0,
			"-0.024": 0.0,
			"-0.023": 0.0,
			"-0.022": 0.0,
			"-0.021": 0.0,
			"-0.02": 0.0,
			"-0.019": 0.0,
			"-0.018": 0.134127850801,
			"-0.017": 0.913559943741,
			"-0.016": 0.948829188616,
			"-0.015": 1.05971123983,
			"-0.014": 1.17744224776,
			"-0.013": 0.651274586084,
			"-0.012": 1.26476244777,
			"-0.011": 2.74477111172,
			"-0.01": 6.04279146642,
			"-0.009": 11.8302072475,
			"-0.008": 6.76615720764,
			"-0.007": 7.04587795588,
			"-0.006": 5.11240047136,
			"-0.005": 7.69756043596,
			"-0.004": 7.88317951357,
			"-0.003": 8.90863613662,
			"-0.002": 12.0448203397,
			"-0.001": 15.2771784058,
			"0.0": 12.3997591379,
			"0.001": 9.65943600005,
			"0.002": 7.2220573723,
			"0.003": 6.41504564443,
			"0.004": 8.63731715233,
			"0.005": 9.87699840221,
			"0.006": 9.57722205702,
			"0.007": 7.97305487152,
			"0.008": 13.8509460063,
			"0.009": 6.68034806167,
			"0.01": 7.30396714645,
			"0.011": 3.94222453138,
			"0.012": 1.88895837242,
			"0.013": 0.425711742244,
			"0.014": 0.0,
			"0.015": 0.0,
			"0.016": 0.0,
			"0.017": 0.0,
			"0.018": 0.0,
			"0.019": 0.0,
			"0.02": 0.0,
			"0.021": 0.0,
			"0.022": 0.0,
			"0.023": 0.0,
			"0.024": 0.0,
			"0.025": 0.0
		}
	}
}
