{
	 "smiles": "NC(CC1=CC=CC2=CC=CC=C12)=NO", 
	 "Tm": 401.15, 
	 "num_atms": 27, 
	 "gaussian": { 
		 "optdone": 1, 
		 "sigma_profile": "yes", 
		 "theory": "DFT", 
		 "functional": "B3LYP", 
		 "basiset": "6-31G**", 
		 "properties": { 
			 "R2extent": 3306.7563, 
			 "electric_dipole_moment_norm": 1.4007481501, 
			 "electric_quadrupole_moment_norm": 6.45652982879, 
			 "total_energy": -649.196834379, 
			 "HOMO_LUMO_gap": 0.16903, 
			 "cosmo_polarized_energy": -11.94, 
			 "cosmo_cavitation_energy": 29.98, 
			 "cosmo_dispersion_energy": -21.75, 
			 "cosmo_repulsion_energy": 1.7, 
			 "cosmo_total_nonelectrostatic_energy": 9.92, 
			 "SMD_solvation_energy": 4.49 
		},
		"coords": [
			{
				"x": -2.6052100543,
				"y": 1.1375561102,
				"z": 1.0004446101,
				"element": "N" 
			},
			{
				"x": -2.4269243393,
				"y": -0.2408069431,
				"z": 1.0483634164,
				"element": "C" 
			},
			{
				"x": -1.0848175702,
				"y": -0.7102543883,
				"z": 1.5798019267,
				"element": "C" 
			},
			{
				"x": 0.0906780519,
				"y": -0.2133083185,
				"z": 0.7558889966,
				"element": "C" 
			},
			{
				"x": 0.893106204,
				"y": 0.799992061,
				"z": 1.2469244336,
				"element": "C" 
			},
			{
				"x": 1.9944303223,
				"y": 1.2997900702,
				"z": 0.510986119,
				"element": "C" 
			},
			{
				"x": 2.290367889,
				"y": 0.7768121281,
				"z": -0.7244214467,
				"element": "C" 
			},
			{
				"x": 1.4990224645,
				"y": -0.2675250354,
				"z": -1.2757396732,
				"element": "C" 
			},
			{
				"x": 1.7948706298,
				"y": -0.8221396708,
				"z": -2.5497983539,
				"element": "C" 
			},
			{
				"x": 1.0253892553,
				"y": -1.833720229,
				"z": -3.0774349153,
				"element": "C" 
			},
			{
				"x": -0.0778640314,
				"y": -2.3350383207,
				"z": -2.3479611383,
				"element": "C" 
			},
			{
				"x": -0.3958761693,
				"y": -1.8213833316,
				"z": -1.1089004798,
				"element": "C" 
			},
			{
				"x": 0.3796728878,
				"y": -0.7751681215,
				"z": -0.5332884067,
				"element": "C" 
			},
			{
				"x": -3.4217713478,
				"y": -0.9836625345,
				"z": 0.7100332381,
				"element": "N" 
			},
			{
				"x": -3.140246925,
				"y": -2.3666033077,
				"z": 0.9201277654,
				"element": "O" 
			},
			{
				"x": -3.4429185643,
				"y": 1.4110754908,
				"z": 0.5006907207,
				"element": "H" 
			},
			{
				"x": -1.7836136978,
				"y": 1.6429149269,
				"z": 0.6907042553,
				"element": "H" 
			},
			{
				"x": -1.0973796413,
				"y": -1.7986878581,
				"z": 1.6403333278,
				"element": "H" 
			},
			{
				"x": -0.9871532784,
				"y": -0.3261949723,
				"z": 2.6010493663,
				"element": "H" 
			},
			{
				"x": 0.6801653738,
				"y": 1.2161143199,
				"z": 2.228645249,
				"element": "H" 
			},
			{
				"x": 2.6032368043,
				"y": 2.0944063828,
				"z": 0.9324928084,
				"element": "H" 
			},
			{
				"x": 3.1349904746,
				"y": 1.1512201438,
				"z": -1.2971208012,
				"element": "H" 
			},
			{
				"x": 2.645674344,
				"y": -0.4307643385,
				"z": -3.1019279568,
				"element": "H" 
			},
			{
				"x": 1.2628930618,
				"y": -2.2495905859,
				"z": -4.0524447297,
				"element": "H" 
			},
			{
				"x": -0.6812303184,
				"y": -3.1338116427,
				"z": -2.7699154058,
				"element": "H" 
			},
			{
				"x": -1.2492042456,
				"y": -2.2205415614,
				"z": -0.5700319556,
				"element": "H" 
			},
			{
				"x": -3.9479875799,
				"y": -2.7748804735,
				"z": 0.5847990299,
				"element": "H" 
			}
		],
		 "valence_orbital": [ 
			{
				"type": "occ",
				"energy": -0.28219,
				"method": "rhf"
			},
			{
				"type": "occ",
				"energy": -0.26304,
				"method": "rhf"
			},
			{
				"type": "occ",
				"energy": -0.24326,
				"method": "rhf"
			},
			{
				"type": "occ",
				"energy": -0.2145,
				"method": "rhf"
			},
			{
				"type": "occ",
				"energy": -0.20836,
				"method": "rhf"
			},
			{
				"type": "unocc",
				"energy": -0.03933,
				"method": "rhf"
			},
			{
				"type": "unocc",
				"energy": -0.01057,
				"method": "rhf"
			},
			{
				"type": "unocc",
				"energy": 0.02547,
				"method": "rhf"
			},
			{
				"type": "unocc",
				"energy": 0.04077,
				"method": "rhf"
			},
			{
				"type": "unocc",
				"energy": 0.0765,
				"method": "rhf"
			}
		],
		"cosmo_sigma_profile": { 
			"-0.025": 0.0,
			"-0.024": 0.0,
			"-0.023": 0.0,
			"-0.022": 0.0,
			"-0.021": 0.0,
			"-0.02": 0.0,
			"-0.019": 0.0,
			"-0.018": 0.0,
			"-0.017": 0.130507826342,
			"-0.016": 0.973045532015,
			"-0.015": 0.960221762459,
			"-0.014": 0.831925406752,
			"-0.013": 0.706273062796,
			"-0.012": 1.85604691219,
			"-0.011": 2.20072455839,
			"-0.01": 2.92386875809,
			"-0.009": 3.07114774035,
			"-0.008": 2.34985374744,
			"-0.007": 2.14008533568,
			"-0.006": 13.2544314309,
			"-0.005": 17.5893071215,
			"-0.004": 17.9680208551,
			"-0.003": 17.1134707609,
			"-0.002": 14.9035294966,
			"-0.001": 13.9326650248,
			"0.0": 11.4183868086,
			"0.001": 13.5591398184,
			"0.002": 13.8270935896,
			"0.003": 16.2890314312,
			"0.004": 24.3608562819,
			"0.005": 19.2006804477,
			"0.006": 6.01154438443,
			"0.007": 3.43086742467,
			"0.008": 4.42585711795,
			"0.009": 3.36123925517,
			"0.01": 3.20141249166,
			"0.011": 2.22499605291,
			"0.012": 1.44810945074,
			"0.013": 1.4609824134,
			"0.014": 1.15631717524,
			"0.015": 0.229287486035,
			"0.016": 0.0,
			"0.017": 0.0,
			"0.018": 0.0,
			"0.019": 0.0,
			"0.02": 0.0,
			"0.021": 0.0,
			"0.022": 0.0,
			"0.023": 0.0,
			"0.024": 0.0,
			"0.025": 0.0
		}
	}
}
