{
	 "smiles": "CC1=CC(CC2=CN=C(N)S2)=CC=C1", 
	 "Tm": 374.15, 
	 "num_atms": 26, 
	 "gaussian": { 
		 "optdone": 1, 
		 "sigma_profile": "yes", 
		 "theory": "DFT", 
		 "functional": "B3LYP", 
		 "basiset": "6-31G**", 
		 "properties": { 
			 "R2extent": 5471.6434, 
			 "electric_dipole_moment_norm": 1.73407544819, 
			 "electric_quadrupole_moment_norm": 12.7624430326, 
			 "total_energy": -934.09908585, 
			 "HOMO_LUMO_gap": 0.19927, 
			 "cosmo_polarized_energy": -11.68, 
			 "cosmo_cavitation_energy": 31.6, 
			 "cosmo_dispersion_energy": -22.88, 
			 "cosmo_repulsion_energy": 1.79, 
			 "cosmo_total_nonelectrostatic_energy": 10.52, 
			 "SMD_solvation_energy": 3.19 
		},
		"coords": [
			{
				"x": 2.0055784326,
				"y": 0.4259994538,
				"z": -0.2857119756,
				"element": "C" 
			},
			{
				"x": 0.8468089799,
				"y": 0.6768306376,
				"z": -1.2230095949,
				"element": "C" 
			},
			{
				"x": -0.4205070695,
				"y": 0.9999992621,
				"z": -0.7304011131,
				"element": "C" 
			},
			{
				"x": -1.5099392966,
				"y": 1.2183801214,
				"z": -1.5850123009,
				"element": "C" 
			},
			{
				"x": -2.8721158469,
				"y": 1.6012635579,
				"z": -1.0204001647,
				"element": "C" 
			},
			{
				"x": -3.403278737,
				"y": 0.688447494,
				"z": 0.047151436,
				"element": "C" 
			},
			{
				"x": -3.6832260439,
				"y": 0.9647483473,
				"z": 1.3512805163,
				"element": "C" 
			},
			{
				"x": -4.1602037405,
				"y": -0.0625868916,
				"z": 2.1403458422,
				"element": "N" 
			},
			{
				"x": -4.2648411872,
				"y": -1.155401414,
				"z": 1.441726101,
				"element": "C" 
			},
			{
				"x": -4.7814411025,
				"y": -2.3365343973,
				"z": 1.9317139265,
				"element": "N" 
			},
			{
				"x": -3.7792994731,
				"y": -1.0102050872,
				"z": -0.2541950237,
				"element": "S" 
			},
			{
				"x": -1.3168373467,
				"y": 1.1047434129,
				"z": -2.9641463861,
				"element": "C" 
			},
			{
				"x": -0.0563026084,
				"y": 0.7836197574,
				"z": -3.4747452438,
				"element": "C" 
			},
			{
				"x": 1.0165247719,
				"y": 0.5729636773,
				"z": -2.6125603739,
				"element": "C" 
			},
			{
				"x": 2.2530677461,
				"y": -0.641628459,
				"z": -0.2373547041,
				"element": "H" 
			},
			{
				"x": 1.7766762212,
				"y": 0.7567485633,
				"z": 0.7311640484,
				"element": "H" 
			},
			{
				"x": 2.9088123333,
				"y": 0.9500351411,
				"z": -0.6163891837,
				"element": "H" 
			},
			{
				"x": -0.5710606821,
				"y": 1.078040192,
				"z": 0.3441619945,
				"element": "H" 
			},
			{
				"x": -3.5891412055,
				"y": 1.6775518782,
				"z": -1.8475074101,
				"element": "H" 
			},
			{
				"x": -2.8148381386,
				"y": 2.6043570825,
				"z": -0.5769690841,
				"element": "H" 
			},
			{
				"x": -3.5457974728,
				"y": 1.944113458,
				"z": 1.7983246869,
				"element": "H" 
			},
			{
				"x": -4.8381547495,
				"y": -2.3415994031,
				"z": 2.9423251792,
				"element": "H" 
			},
			{
				"x": -4.4045399264,
				"y": -3.1898800021,
				"z": 1.5436956501,
				"element": "H" 
			},
			{
				"x": -2.1511946626,
				"y": 1.2709515547,
				"z": -3.6412338142,
				"element": "H" 
			},
			{
				"x": 0.086297581,
				"y": 0.6987693196,
				"z": -4.5486151448,
				"element": "H" 
			},
			{
				"x": 1.9953532238,
				"y": 0.3249727434,
				"z": -3.0163378634,
				"element": "H" 
			}
		],
		 "valence_orbital": [ 
			{
				"type": "occ",
				"energy": -0.26834,
				"method": "rhf"
			},
			{
				"type": "occ",
				"energy": -0.26669,
				"method": "rhf"
			},
			{
				"type": "occ",
				"energy": -0.24019,
				"method": "rhf"
			},
			{
				"type": "occ",
				"energy": -0.23451,
				"method": "rhf"
			},
			{
				"type": "occ",
				"energy": -0.20357,
				"method": "rhf"
			},
			{
				"type": "unocc",
				"energy": -0.0043,
				"method": "rhf"
			},
			{
				"type": "unocc",
				"energy": 0.00123,
				"method": "rhf"
			},
			{
				"type": "unocc",
				"energy": 0.00695,
				"method": "rhf"
			},
			{
				"type": "unocc",
				"energy": 0.01906,
				"method": "rhf"
			},
			{
				"type": "unocc",
				"energy": 0.07003,
				"method": "rhf"
			}
		],
		"cosmo_sigma_profile": { 
			"-0.025": 0.0,
			"-0.024": 0.0,
			"-0.023": 0.0,
			"-0.022": 0.0,
			"-0.021": 0.0,
			"-0.02": 0.0,
			"-0.019": 0.0,
			"-0.018": 0.0,
			"-0.017": 0.0,
			"-0.016": 0.0,
			"-0.015": 0.0164897452838,
			"-0.014": 1.89570292117,
			"-0.013": 2.11603830348,
			"-0.012": 2.42167889577,
			"-0.011": 3.62549140224,
			"-0.01": 2.03327650017,
			"-0.009": 1.56680981708,
			"-0.008": 1.74258866549,
			"-0.007": 3.01867481707,
			"-0.006": 5.25262127959,
			"-0.005": 14.2902334894,
			"-0.004": 20.269756737,
			"-0.003": 22.6328552697,
			"-0.002": 19.7155551899,
			"-0.001": 19.1732476232,
			"0.0": 20.2905200713,
			"0.001": 16.6698837782,
			"0.002": 16.3154521107,
			"0.003": 17.1649727683,
			"0.004": 17.8696352529,
			"0.005": 14.8579591324,
			"0.006": 10.9117429427,
			"0.007": 5.40530545494,
			"0.008": 3.27501465878,
			"0.009": 1.6589269504,
			"0.01": 1.70649565821,
			"0.011": 1.52892219156,
			"0.012": 1.77298724124,
			"0.013": 1.10575038482,
			"0.014": 1.1944975217,
			"0.015": 0.704151153857,
			"0.016": 0.692576714953,
			"0.017": 0.0139529044392,
			"0.018": 0.0,
			"0.019": 0.0,
			"0.02": 0.0,
			"0.021": 0.0,
			"0.022": 0.0,
			"0.023": 0.0,
			"0.024": 0.0,
			"0.025": 0.0
		}
	}
}
