{
	 "smiles": "NC1=CC2=C(C=C1)N=C(S)O2", 
	 "Tm": 482.15, 
	 "num_atms": 17, 
	 "gaussian": { 
		 "optdone": 1, 
		 "sigma_profile": "yes", 
		 "theory": "DFT", 
		 "functional": "B3LYP", 
		 "basiset": "6-31G**", 
		 "properties": { 
			 "R2extent": 2421.3205, 
			 "electric_dipole_moment_norm": 3.70300088577, 
			 "electric_quadrupole_moment_norm": 13.3035692981, 
			 "total_energy": -853.26448934, 
			 "HOMO_LUMO_gap": 0.18038, 
			 "cosmo_polarized_energy": -12.52, 
			 "cosmo_cavitation_energy": 23.38, 
			 "cosmo_dispersion_energy": -18.39, 
			 "cosmo_repulsion_energy": 1.42, 
			 "cosmo_total_nonelectrostatic_energy": 6.42, 
			 "SMD_solvation_energy": 1.76 
		},
		"coords": [
			{
				"x": -0.8042907794,
				"y": 3.5526395268,
				"z": 1.7963347781,
				"element": "N" 
			},
			{
				"x": -0.3293155011,
				"y": 2.2564614135,
				"z": 1.5748962208,
				"element": "C" 
			},
			{
				"x": -0.2545304679,
				"y": 1.7457370028,
				"z": 0.2658626125,
				"element": "C" 
			},
			{
				"x": 0.2859529559,
				"y": 0.4786070294,
				"z": 0.1370142612,
				"element": "C" 
			},
			{
				"x": 0.7472934564,
				"y": -0.3032897287,
				"z": 1.2018586025,
				"element": "C" 
			},
			{
				"x": 0.6703140201,
				"y": 0.2084246551,
				"z": 2.4983582877,
				"element": "C" 
			},
			{
				"x": 0.133131786,
				"y": 1.4815617514,
				"z": 2.6667291104,
				"element": "C" 
			},
			{
				"x": 1.219740433,
				"y": -1.5232766957,
				"z": 0.7019290985,
				"element": "N" 
			},
			{
				"x": 1.0327752229,
				"y": -1.4260580598,
				"z": -0.5696906208,
				"element": "C" 
			},
			{
				"x": 1.4260846359,
				"y": -2.6509699949,
				"z": -1.7697460878,
				"element": "S" 
			},
			{
				"x": 0.46985792,
				"y": -0.2494847648,
				"z": -1.0207582626,
				"element": "O" 
			},
			{
				"x": -1.4298320063,
				"y": 3.9072167263,
				"z": 1.0858058284,
				"element": "H" 
			},
			{
				"x": -1.1647808235,
				"y": 3.7198912439,
				"z": 2.7257905223,
				"element": "H" 
			},
			{
				"x": -0.5953907983,
				"y": 2.3169646103,
				"z": -0.5910708336,
				"element": "H" 
			},
			{
				"x": 1.0170428207,
				"y": -0.37098806,
				"z": 3.3472872709,
				"element": "H" 
			},
			{
				"x": 0.0679992474,
				"y": 1.9051889453,
				"z": 3.6654791844,
				"element": "H" 
			},
			{
				"x": 1.0031478782,
				"y": -1.918625601,
				"z": -2.817779973,
				"element": "H" 
			}
		],
		 "valence_orbital": [ 
			{
				"type": "occ",
				"energy": -0.31701,
				"method": "rhf"
			},
			{
				"type": "occ",
				"energy": -0.2899,
				"method": "rhf"
			},
			{
				"type": "occ",
				"energy": -0.26498,
				"method": "rhf"
			},
			{
				"type": "occ",
				"energy": -0.24488,
				"method": "rhf"
			},
			{
				"type": "occ",
				"energy": -0.19564,
				"method": "rhf"
			},
			{
				"type": "unocc",
				"energy": -0.01526,
				"method": "rhf"
			},
			{
				"type": "unocc",
				"energy": 0.00722,
				"method": "rhf"
			},
			{
				"type": "unocc",
				"energy": 0.01108,
				"method": "rhf"
			},
			{
				"type": "unocc",
				"energy": 0.04676,
				"method": "rhf"
			},
			{
				"type": "unocc",
				"energy": 0.06377,
				"method": "rhf"
			}
		],
		"cosmo_sigma_profile": { 
			"-0.025": 0.0,
			"-0.024": 0.0,
			"-0.023": 0.0,
			"-0.022": 0.0,
			"-0.021": 0.0,
			"-0.02": 0.0,
			"-0.019": 0.0,
			"-0.018": 0.0,
			"-0.017": 0.0,
			"-0.016": 0.0,
			"-0.015": 0.0,
			"-0.014": 0.0,
			"-0.013": 1.04033614542,
			"-0.012": 4.66204135743,
			"-0.011": 4.76307933248,
			"-0.01": 4.13723392767,
			"-0.009": 4.81580794122,
			"-0.008": 4.77632162796,
			"-0.007": 6.39543918209,
			"-0.006": 7.62799632275,
			"-0.005": 7.35349474988,
			"-0.004": 7.52308346023,
			"-0.003": 7.24861364591,
			"-0.002": 9.49822636268,
			"-0.001": 8.84035336123,
			"0.0": 12.2302159099,
			"0.001": 12.8413348668,
			"0.002": 15.2907193578,
			"0.003": 15.3766341196,
			"0.004": 16.794299096,
			"0.005": 15.0491315439,
			"0.006": 7.32289970691,
			"0.007": 3.59329865142,
			"0.008": 1.52909921097,
			"0.009": 1.78040787271,
			"0.01": 2.15362170802,
			"0.011": 2.05505800535,
			"0.012": 1.07840524939,
			"0.013": 1.98925704611,
			"0.014": 1.44371808341,
			"0.015": 0.812795155915,
			"0.016": 0.102159442754,
			"0.017": 0.0,
			"0.018": 0.0,
			"0.019": 0.0,
			"0.02": 0.0,
			"0.021": 0.0,
			"0.022": 0.0,
			"0.023": 0.0,
			"0.024": 0.0,
			"0.025": 0.0
		}
	}
}
