{
	 "smiles": "COC1=CC2=C(C=C1)N=C(C)N=C2Cl", 
	 "Tm": 393.15, 
	 "num_atms": 23, 
	 "gaussian": { 
		 "optdone": 1, 
		 "sigma_profile": "yes", 
		 "theory": "DFT", 
		 "functional": "B3LYP", 
		 "basiset": "6-31G**", 
		 "properties": { 
			 "R2extent": 3971.4713, 
			 "electric_dipole_moment_norm": 2.75477445175, 
			 "electric_quadrupole_moment_norm": 10.8379530826, 
			 "total_energy": -1031.41419133, 
			 "HOMO_LUMO_gap": 0.16302, 
			 "cosmo_polarized_energy": -8.23, 
			 "cosmo_cavitation_energy": 28.89, 
			 "cosmo_dispersion_energy": -21.58, 
			 "cosmo_repulsion_energy": 1.7, 
			 "cosmo_total_nonelectrostatic_energy": 9.01, 
			 "SMD_solvation_energy": 2.6 
		},
		"coords": [
			{
				"x": -2.574839484,
				"y": 1.3254083398,
				"z": -2.3196766601,
				"element": "C" 
			},
			{
				"x": -1.2082611118,
				"y": 1.5555553465,
				"z": -2.00205697,
				"element": "O" 
			},
			{
				"x": -0.601473907,
				"y": 0.7069763309,
				"z": -1.1316249184,
				"element": "C" 
			},
			{
				"x": -1.2089305996,
				"y": -0.3751328777,
				"z": -0.5216161161,
				"element": "C" 
			},
			{
				"x": -0.456115996,
				"y": -1.1796503051,
				"z": 0.3680365168,
				"element": "C" 
			},
			{
				"x": 0.9140872447,
				"y": -0.8854937333,
				"z": 0.6386116305,
				"element": "C" 
			},
			{
				"x": 1.5021119856,
				"y": 0.235477437,
				"z": -0.0083295334,
				"element": "C" 
			},
			{
				"x": 0.7651124459,
				"y": 1.0082422782,
				"z": -0.8679124527,
				"element": "C" 
			},
			{
				"x": 1.6690833371,
				"y": -1.6365540062,
				"z": 1.4882289836,
				"element": "N" 
			},
			{
				"x": 1.0857893549,
				"y": -2.6656313472,
				"z": 2.066433858,
				"element": "C" 
			},
			{
				"x": 1.8808796182,
				"y": -3.5215750317,
				"z": 3.0111531617,
				"element": "C" 
			},
			{
				"x": -0.220091051,
				"y": -3.0391575665,
				"z": 1.8799257568,
				"element": "N" 
			},
			{
				"x": -0.9366313605,
				"y": -2.3216123685,
				"z": 1.0699631489,
				"element": "C" 
			},
			{
				"x": -2.618031411,
				"y": -2.8236822921,
				"z": 0.845775854,
				"element": "Cl" 
			},
			{
				"x": -3.2097216694,
				"y": 1.3910995658,
				"z": -1.4273898891,
				"element": "H" 
			},
			{
				"x": -2.8561699976,
				"y": 2.1098956672,
				"z": -3.023032597,
				"element": "H" 
			},
			{
				"x": -2.7166263855,
				"y": 0.3450899357,
				"z": -2.7913173163,
				"element": "H" 
			},
			{
				"x": -2.2448369993,
				"y": -0.6262553227,
				"z": -0.7040143822,
				"element": "H" 
			},
			{
				"x": 2.5436468851,
				"y": 0.453073673,
				"z": 0.2019238953,
				"element": "H" 
			},
			{
				"x": 1.1979429297,
				"y": 1.8673918321,
				"z": -1.370153454,
				"element": "H" 
			},
			{
				"x": 1.8986930728,
				"y": -4.55874057,
				"z": 2.6601689385,
				"element": "H" 
			},
			{
				"x": 2.9010214552,
				"y": -3.1452799732,
				"z": 3.0914920028,
				"element": "H" 
			},
			{
				"x": 1.4133616435,
				"y": -3.5291450122,
				"z": 4.0014105422,
				"element": "H" 
			}
		],
		 "valence_orbital": [ 
			{
				"type": "occ",
				"energy": -0.30817,
				"method": "rhf"
			},
			{
				"type": "occ",
				"energy": -0.29827,
				"method": "rhf"
			},
			{
				"type": "occ",
				"energy": -0.26818,
				"method": "rhf"
			},
			{
				"type": "occ",
				"energy": -0.25509,
				"method": "rhf"
			},
			{
				"type": "occ",
				"energy": -0.22879,
				"method": "rhf"
			},
			{
				"type": "unocc",
				"energy": -0.06577,
				"method": "rhf"
			},
			{
				"type": "unocc",
				"energy": -0.0287,
				"method": "rhf"
			},
			{
				"type": "unocc",
				"energy": 0.01267,
				"method": "rhf"
			},
			{
				"type": "unocc",
				"energy": 0.02999,
				"method": "rhf"
			},
			{
				"type": "unocc",
				"energy": 0.07425,
				"method": "rhf"
			}
		],
		"cosmo_sigma_profile": { 
			"-0.025": 0.0,
			"-0.024": 0.0,
			"-0.023": 0.0,
			"-0.022": 0.0,
			"-0.021": 0.0,
			"-0.02": 0.0,
			"-0.019": 0.0,
			"-0.018": 0.0,
			"-0.017": 0.0,
			"-0.016": 0.0,
			"-0.015": 0.0,
			"-0.014": 0.0,
			"-0.013": 0.0,
			"-0.012": 0.0,
			"-0.011": 0.0,
			"-0.01": 0.0,
			"-0.009": 0.0,
			"-0.008": 0.382550391468,
			"-0.007": 4.82394973671,
			"-0.006": 12.1719406321,
			"-0.005": 16.6524064146,
			"-0.004": 18.5387887967,
			"-0.003": 18.8214624231,
			"-0.002": 19.2004875917,
			"-0.001": 23.9192062553,
			"0.0": 22.3395927979,
			"0.001": 24.4047510295,
			"0.002": 19.1925552815,
			"0.003": 12.6935989008,
			"0.004": 10.380550771,
			"0.005": 6.00312393921,
			"0.006": 5.07748312985,
			"0.007": 3.74687976946,
			"0.008": 4.11671855353,
			"0.009": 3.5868253502,
			"0.01": 2.03526204343,
			"0.011": 1.14774672721,
			"0.012": 2.20559716282,
			"0.013": 1.5217382808,
			"0.014": 0.629919970117,
			"0.015": 0.117387399036,
			"0.016": 0.0,
			"0.017": 0.0,
			"0.018": 0.0,
			"0.019": 0.0,
			"0.02": 0.0,
			"0.021": 0.0,
			"0.022": 0.0,
			"0.023": 0.0,
			"0.024": 0.0,
			"0.025": 0.0
		}
	}
}
