{
	 "smiles": "CCOC(=O)C1=C(N)SN=N1", 
	 "Tm": 397.15, 
	 "num_atms": 18, 
	 "gaussian": { 
		 "optdone": 1, 
		 "sigma_profile": "yes", 
		 "theory": "DFT", 
		 "functional": "B3LYP", 
		 "basiset": "6-31G**", 
		 "properties": { 
			 "R2extent": 3266.873, 
			 "electric_dipole_moment_norm": 6.72793807938, 
			 "electric_quadrupole_moment_norm": 17.0346939744, 
			 "total_energy": -907.612559242, 
			 "HOMO_LUMO_gap": 0.19926, 
			 "cosmo_polarized_energy": -17.48, 
			 "cosmo_cavitation_energy": 24.4, 
			 "cosmo_dispersion_energy": -18.51, 
			 "cosmo_repulsion_energy": 1.46, 
			 "cosmo_total_nonelectrostatic_energy": 7.36, 
			 "SMD_solvation_energy": 3.46 
		},
		"coords": [
			{
				"x": -0.9891456133,
				"y": 1.8159186052,
				"z": -0.2662388715,
				"element": "C" 
			},
			{
				"x": -1.0059265397,
				"y": 0.8823898867,
				"z": 0.9340383014,
				"element": "C" 
			},
			{
				"x": -0.3662650806,
				"y": -0.3838307028,
				"z": 0.6293425126,
				"element": "O" 
			},
			{
				"x": 0.9999617316,
				"y": -0.4181026048,
				"z": 0.7757241719,
				"element": "C" 
			},
			{
				"x": 1.6489032819,
				"y": 0.5349246361,
				"z": 1.1456310716,
				"element": "O" 
			},
			{
				"x": 1.5369194127,
				"y": -1.740448865,
				"z": 0.4321221688,
				"element": "C" 
			},
			{
				"x": 0.8335974215,
				"y": -2.8854902072,
				"z": -0.0014304357,
				"element": "C" 
			},
			{
				"x": -0.4952729547,
				"y": -2.9874294966,
				"z": -0.1836796513,
				"element": "N" 
			},
			{
				"x": 1.9351537708,
				"y": -4.1819878781,
				"z": -0.2740757205,
				"element": "S" 
			},
			{
				"x": 3.3506269702,
				"y": -3.0628748883,
				"z": 0.2326477969,
				"element": "N" 
			},
			{
				"x": 2.8867804532,
				"y": -1.9482423715,
				"z": 0.5224324394,
				"element": "N" 
			},
			{
				"x": -1.4632535797,
				"y": 1.3488310083,
				"z": -1.1348263968,
				"element": "H" 
			},
			{
				"x": -1.5376264696,
				"y": 2.733484301,
				"z": -0.0286005944,
				"element": "H" 
			},
			{
				"x": 0.0369120881,
				"y": 2.0871315597,
				"z": -0.5249151415,
				"element": "H" 
			},
			{
				"x": -2.0249234892,
				"y": 0.6102400059,
				"z": 1.2204017903,
				"element": "H" 
			},
			{
				"x": -0.4959483683,
				"y": 1.3296194658,
				"z": 1.7894858012,
				"element": "H" 
			},
			{
				"x": -0.9184251422,
				"y": -3.8397843833,
				"z": -0.507681814,
				"element": "H" 
			},
			{
				"x": -1.0579678927,
				"y": -2.1666480712,
				"z": -0.0068774283,
				"element": "H" 
			}
		],
		 "valence_orbital": [ 
			{
				"type": "occ",
				"energy": -0.30766,
				"method": "rhf"
			},
			{
				"type": "occ",
				"energy": -0.28202,
				"method": "rhf"
			},
			{
				"type": "occ",
				"energy": -0.28168,
				"method": "rhf"
			},
			{
				"type": "occ",
				"energy": -0.25613,
				"method": "rhf"
			},
			{
				"type": "occ",
				"energy": -0.24267,
				"method": "rhf"
			},
			{
				"type": "unocc",
				"energy": -0.04341,
				"method": "rhf"
			},
			{
				"type": "unocc",
				"energy": -0.03774,
				"method": "rhf"
			},
			{
				"type": "unocc",
				"energy": -0.0244,
				"method": "rhf"
			},
			{
				"type": "unocc",
				"energy": 0.06503,
				"method": "rhf"
			},
			{
				"type": "unocc",
				"energy": 0.07542,
				"method": "rhf"
			}
		],
		"cosmo_sigma_profile": { 
			"-0.025": 0.0,
			"-0.024": 0.0,
			"-0.023": 0.0,
			"-0.022": 0.0,
			"-0.021": 0.0,
			"-0.02": 0.0,
			"-0.019": 0.0,
			"-0.018": 0.0,
			"-0.017": 0.291707372631,
			"-0.016": 1.69057638036,
			"-0.015": 1.27966881769,
			"-0.014": 1.51883799779,
			"-0.013": 1.64494530516,
			"-0.012": 2.12724160453,
			"-0.011": 2.71831355569,
			"-0.01": 1.47271356479,
			"-0.009": 1.82279903877,
			"-0.008": 1.65791498404,
			"-0.007": 1.45314862351,
			"-0.006": 4.40195989799,
			"-0.005": 7.14475697443,
			"-0.004": 12.7607969383,
			"-0.003": 16.5204017684,
			"-0.002": 21.5231831214,
			"-0.001": 22.3070997629,
			"0.0": 20.860720257,
			"0.001": 12.5979524088,
			"0.002": 10.0074048254,
			"0.003": 8.44336319117,
			"0.004": 3.9855152692,
			"0.005": 2.63236123602,
			"0.006": 4.01377820418,
			"0.007": 4.17649265179,
			"0.008": 4.81379426985,
			"0.009": 4.79405348902,
			"0.01": 4.99688567823,
			"0.011": 4.92066922308,
			"0.012": 5.65094037685,
			"0.013": 2.34333556739,
			"0.014": 0.438713118556,
			"0.015": 0.0,
			"0.016": 0.0,
			"0.017": 0.0,
			"0.018": 0.0,
			"0.019": 0.0,
			"0.02": 0.0,
			"0.021": 0.0,
			"0.022": 0.0,
			"0.023": 0.0,
			"0.024": 0.0,
			"0.025": 0.0
		}
	}
}
