{
	 "smiles": "CC1CCCC(=O)C1=O", 
	 "Tm": 331.15, 
	 "num_atms": 19, 
	 "gaussian": { 
		 "optdone": 1, 
		 "sigma_profile": "yes", 
		 "theory": "DFT", 
		 "functional": "B3LYP", 
		 "basiset": "6-31G**", 
		 "properties": { 
			 "R2extent": 1715.6387, 
			 "electric_dipole_moment_norm": 4.72577030758, 
			 "electric_quadrupole_moment_norm": 8.29734504525, 
			 "total_energy": -423.207469037, 
			 "HOMO_LUMO_gap": 0.15956, 
			 "cosmo_polarized_energy": -11.41, 
			 "cosmo_cavitation_energy": 21.48, 
			 "cosmo_dispersion_energy": -15.69, 
			 "cosmo_repulsion_energy": 1.31, 
			 "cosmo_total_nonelectrostatic_energy": 7.09, 
			 "SMD_solvation_energy": 4.68 
		},
		"coords": [
			{
				"x": 0.6881333777,
				"y": -0.590738648,
				"z": -1.752982708,
				"element": "C" 
			},
			{
				"x": -0.1867319904,
				"y": -1.187248733,
				"z": -0.6270889286,
				"element": "C" 
			},
			{
				"x": -1.2314127221,
				"y": -2.1980590587,
				"z": -1.1531859262,
				"element": "C" 
			},
			{
				"x": -2.3586709826,
				"y": -1.5356709243,
				"z": -1.9581593801,
				"element": "C" 
			},
			{
				"x": -3.1050997621,
				"y": -0.4853351321,
				"z": -1.1142105297,
				"element": "C" 
			},
			{
				"x": -2.1663939007,
				"y": 0.5323219015,
				"z": -0.4888868298,
				"element": "C" 
			},
			{
				"x": -2.3979268772,
				"y": 1.7207971075,
				"z": -0.4297975673,
				"element": "O" 
			},
			{
				"x": -0.8523466587,
				"y": -0.0362991053,
				"z": 0.1226261631,
				"element": "C" 
			},
			{
				"x": -0.3932511194,
				"y": 0.460740838,
				"z": 1.1289971809,
				"element": "O" 
			},
			{
				"x": 1.1922145925,
				"y": -1.3931219057,
				"z": -2.3013056982,
				"element": "H" 
			},
			{
				"x": 0.1019444882,
				"y": -0.0101817745,
				"z": -2.47308834,
				"element": "H" 
			},
			{
				"x": 1.4504752422,
				"y": 0.072067623,
				"z": -1.3344242211,
				"element": "H" 
			},
			{
				"x": 0.4769921945,
				"y": -1.6805838758,
				"z": 0.0915413686,
				"element": "H" 
			},
			{
				"x": -1.6699418705,
				"y": -2.7342930691,
				"z": -0.3009789535,
				"element": "H" 
			},
			{
				"x": -0.7218977234,
				"y": -2.9525377608,
				"z": -1.7641855062,
				"element": "H" 
			},
			{
				"x": -3.0679730539,
				"y": -2.2955946591,
				"z": -2.3031127711,
				"element": "H" 
			},
			{
				"x": -1.9542797159,
				"y": -1.061671343,
				"z": -2.8603695289,
				"element": "H" 
			},
			{
				"x": -3.6116937242,
				"y": -0.9964657958,
				"z": -0.2804125853,
				"element": "H" 
			},
			{
				"x": -3.872239794,
				"y": 0.0501743149,
				"z": -1.6808752385,
				"element": "H" 
			}
		],
		 "valence_orbital": [ 
			{
				"type": "occ",
				"energy": -0.35448,
				"method": "rhf"
			},
			{
				"type": "occ",
				"energy": -0.34431,
				"method": "rhf"
			},
			{
				"type": "occ",
				"energy": -0.33805,
				"method": "rhf"
			},
			{
				"type": "occ",
				"energy": -0.28701,
				"method": "rhf"
			},
			{
				"type": "occ",
				"energy": -0.23297,
				"method": "rhf"
			},
			{
				"type": "unocc",
				"energy": -0.07341,
				"method": "rhf"
			},
			{
				"type": "unocc",
				"energy": 0.01678,
				"method": "rhf"
			},
			{
				"type": "unocc",
				"energy": 0.07587,
				"method": "rhf"
			},
			{
				"type": "unocc",
				"energy": 0.10046,
				"method": "rhf"
			},
			{
				"type": "unocc",
				"energy": 0.11418,
				"method": "rhf"
			}
		],
		"cosmo_sigma_profile": { 
			"-0.025": 0.0,
			"-0.024": 0.0,
			"-0.023": 0.0,
			"-0.022": 0.0,
			"-0.021": 0.0,
			"-0.02": 0.0,
			"-0.019": 0.0,
			"-0.018": 0.0,
			"-0.017": 0.0,
			"-0.016": 0.0,
			"-0.015": 0.0,
			"-0.014": 0.0,
			"-0.013": 0.0,
			"-0.012": 0.0,
			"-0.011": 0.0,
			"-0.01": 0.0938073293924,
			"-0.009": 0.952758639194,
			"-0.008": 1.99225114612,
			"-0.007": 3.88182913219,
			"-0.006": 5.544533442,
			"-0.005": 10.0123132785,
			"-0.004": 23.3648086563,
			"-0.003": 24.372048065,
			"-0.002": 24.2631047836,
			"-0.001": 16.7578803795,
			"0.0": 10.569579926,
			"0.001": 2.38577052769,
			"0.002": 1.84880329862,
			"0.003": 2.90509677431,
			"0.004": 2.09001200923,
			"0.005": 2.65094996695,
			"0.006": 2.49037176138,
			"0.007": 2.38033874496,
			"0.008": 3.39976496656,
			"0.009": 5.16004550126,
			"0.01": 6.95268110922,
			"0.011": 8.23979440018,
			"0.012": 4.72479175621,
			"0.013": 0.629467886681,
			"0.014": 0.0,
			"0.015": 0.0,
			"0.016": 0.0,
			"0.017": 0.0,
			"0.018": 0.0,
			"0.019": 0.0,
			"0.02": 0.0,
			"0.021": 0.0,
			"0.022": 0.0,
			"0.023": 0.0,
			"0.024": 0.0,
			"0.025": 0.0
		}
	}
}
