{
	 "smiles": "ClCC1(CCl)CCC(CCl)(CCl)C1=O", 
	 "Tm": 345.15, 
	 "num_atms": 26, 
	 "gaussian": { 
		 "optdone": 1, 
		 "sigma_profile": "yes", 
		 "theory": "DFT", 
		 "functional": "B3LYP", 
		 "basiset": "6-31G**", 
		 "properties": { 
			 "R2extent": 4516.0348, 
			 "electric_dipole_moment_norm": 2.39960127104, 
			 "electric_quadrupole_moment_norm": 10.5309042228, 
			 "total_energy": -2266.19215596, 
			 "HOMO_LUMO_gap": 0.20729, 
			 "cosmo_polarized_energy": -11.78, 
			 "cosmo_cavitation_energy": 32.91, 
			 "cosmo_dispersion_energy": -23.39, 
			 "cosmo_repulsion_energy": 1.82, 
			 "cosmo_total_nonelectrostatic_energy": 11.35, 
			 "SMD_solvation_energy": 4.43 
		},
		"coords": [
			{
				"x": -2.9203358775,
				"y": -1.9889376734,
				"z": 0.7997713747,
				"element": "Cl" 
			},
			{
				"x": -1.8906970808,
				"y": -0.5210767933,
				"z": 0.4999849917,
				"element": "C" 
			},
			{
				"x": -0.3925912783,
				"y": -0.769191168,
				"z": 0.7672051549,
				"element": "C" 
			},
			{
				"x": -0.2223263275,
				"y": -1.0427385484,
				"z": 2.2707884886,
				"element": "C" 
			},
			{
				"x": 1.4955515836,
				"y": -1.3761585,
				"z": 2.7731360761,
				"element": "Cl" 
			},
			{
				"x": 0.2302530288,
				"y": -1.8266507165,
				"z": -0.1718944332,
				"element": "C" 
			},
			{
				"x": 1.5712564623,
				"y": -1.2501002972,
				"z": -0.6970908211,
				"element": "C" 
			},
			{
				"x": 1.5064308751,
				"y": 0.297280915,
				"z": -0.574311064,
				"element": "C" 
			},
			{
				"x": 2.8481762815,
				"y": 0.7833264128,
				"z": 0.0226716255,
				"element": "C" 
			},
			{
				"x": 3.0513479697,
				"y": 2.5789799146,
				"z": 0.1644647702,
				"element": "Cl" 
			},
			{
				"x": 1.2611098484,
				"y": 1.0318210738,
				"z": -1.9010690536,
				"element": "C" 
			},
			{
				"x": -0.1958130763,
				"y": 0.4222310488,
				"z": -2.8070345331,
				"element": "Cl" 
			},
			{
				"x": 0.3277950172,
				"y": 0.5555759973,
				"z": 0.3953942235,
				"element": "C" 
			},
			{
				"x": -0.0209314292,
				"y": 1.6416509335,
				"z": 0.7958034241,
				"element": "O" 
			},
			{
				"x": -2.2733912697,
				"y": 0.2744878473,
				"z": 1.1395260361,
				"element": "H" 
			},
			{
				"x": -2.0476124782,
				"y": -0.2484862079,
				"z": -0.5434976209,
				"element": "H" 
			},
			{
				"x": -0.7956151901,
				"y": -1.9199120575,
				"z": 2.568113834,
				"element": "H" 
			},
			{
				"x": -0.540542963,
				"y": -0.1741733996,
				"z": 2.8493216836,
				"element": "H" 
			},
			{
				"x": -0.4486423222,
				"y": -2.0086693991,
				"z": -1.0080148207,
				"element": "H" 
			},
			{
				"x": 0.3811508342,
				"y": -2.7824780859,
				"z": 0.3346579939,
				"element": "H" 
			},
			{
				"x": 1.7617505969,
				"y": -1.5599917337,
				"z": -1.7278486618,
				"element": "H" 
			},
			{
				"x": 2.3961341228,
				"y": -1.6285731919,
				"z": -0.0865756628,
				"element": "H" 
			},
			{
				"x": 2.9780931609,
				"y": 0.3777984217,
				"z": 1.0258380539,
				"element": "H" 
			},
			{
				"x": 3.6677659668,
				"y": 0.4371732352,
				"z": -0.6104716069,
				"element": "H" 
			},
			{
				"x": 2.1092599753,
				"y": 0.9047526918,
				"z": -2.5760927581,
				"element": "H" 
			},
			{
				"x": 1.0858235694,
				"y": 2.0913592808,
				"z": -1.7237766947,
				"element": "H" 
			}
		],
		 "valence_orbital": [ 
			{
				"type": "occ",
				"energy": -0.3097,
				"method": "rhf"
			},
			{
				"type": "occ",
				"energy": -0.30739,
				"method": "rhf"
			},
			{
				"type": "occ",
				"energy": -0.30471,
				"method": "rhf"
			},
			{
				"type": "occ",
				"energy": -0.29805,
				"method": "rhf"
			},
			{
				"type": "occ",
				"energy": -0.26561,
				"method": "rhf"
			},
			{
				"type": "unocc",
				"energy": -0.05832,
				"method": "rhf"
			},
			{
				"type": "unocc",
				"energy": 0.00473,
				"method": "rhf"
			},
			{
				"type": "unocc",
				"energy": 0.00687,
				"method": "rhf"
			},
			{
				"type": "unocc",
				"energy": 0.01668,
				"method": "rhf"
			},
			{
				"type": "unocc",
				"energy": 0.01733,
				"method": "rhf"
			}
		],
		"cosmo_sigma_profile": { 
			"-0.025": 0.0,
			"-0.024": 0.0,
			"-0.023": 0.0,
			"-0.022": 0.0,
			"-0.021": 0.0,
			"-0.02": 0.0,
			"-0.019": 0.0,
			"-0.018": 0.0,
			"-0.017": 0.0,
			"-0.016": 0.0,
			"-0.015": 0.0,
			"-0.014": 0.0,
			"-0.013": 0.0,
			"-0.012": 0.0,
			"-0.011": 0.0,
			"-0.01": 0.406788650113,
			"-0.009": 2.76492285437,
			"-0.008": 7.6010406208,
			"-0.007": 8.93308179441,
			"-0.006": 12.5243425321,
			"-0.005": 18.3741513707,
			"-0.004": 20.991851565,
			"-0.003": 18.9988222458,
			"-0.002": 19.1305434973,
			"-0.001": 18.9150905393,
			"0.0": 17.7911776805,
			"0.001": 14.8374818951,
			"0.002": 14.7303598882,
			"0.003": 16.6097334121,
			"0.004": 18.1497582605,
			"0.005": 21.5278653389,
			"0.006": 21.0874064769,
			"0.007": 2.61975937809,
			"0.008": 1.88677188116,
			"0.009": 2.46119209076,
			"0.01": 4.17857138895,
			"0.011": 1.80642591254,
			"0.012": 0.119862321561,
			"0.013": 0.0,
			"0.014": 0.0,
			"0.015": 0.0,
			"0.016": 0.0,
			"0.017": 0.0,
			"0.018": 0.0,
			"0.019": 0.0,
			"0.02": 0.0,
			"0.021": 0.0,
			"0.022": 0.0,
			"0.023": 0.0,
			"0.024": 0.0,
			"0.025": 0.0
		}
	}
}
