{
	 "smiles": "CC(C)(C)C1=CC=C(C=C1)C1=NN=C(N)N1", 
	 "Tm": 487.15, 
	 "num_atms": 32, 
	 "gaussian": { 
		 "optdone": 1, 
		 "sigma_profile": "yes", 
		 "theory": "DFT", 
		 "functional": "B3LYP", 
		 "basiset": "6-31G**", 
		 "properties": { 
			 "R2extent": 5788.3194, 
			 "electric_dipole_moment_norm": 4.94907053092, 
			 "electric_quadrupole_moment_norm": 27.8065658302, 
			 "total_energy": -685.928935587, 
			 "HOMO_LUMO_gap": 0.17718, 
			 "cosmo_polarized_energy": -22.95, 
			 "cosmo_cavitation_energy": 34.51, 
			 "cosmo_dispersion_energy": -24.96, 
			 "cosmo_repulsion_energy": 1.93, 
			 "cosmo_total_nonelectrostatic_energy": 11.47, 
			 "SMD_solvation_energy": 3.75 
		},
		"coords": [
			{
				"x": 0.3048008499,
				"y": 0.855208392,
				"z": 3.9307469284,
				"element": "C" 
			},
			{
				"x": 0.7418108383,
				"y": 1.5665302624,
				"z": 2.6361189725,
				"element": "C" 
			},
			{
				"x": 0.3529686566,
				"y": 3.0600640447,
				"z": 2.7512014502,
				"element": "C" 
			},
			{
				"x": 2.2799256961,
				"y": 1.44573872,
				"z": 2.5147260132,
				"element": "C" 
			},
			{
				"x": 0.0817459835,
				"y": 0.9615542944,
				"z": 1.384872828,
				"element": "C" 
			},
			{
				"x": 0.3678553384,
				"y": 1.4904221169,
				"z": 0.1113914759,
				"element": "C" 
			},
			{
				"x": -0.2008908016,
				"y": 0.9744303503,
				"z": -1.0445155913,
				"element": "C" 
			},
			{
				"x": -1.0962844142,
				"y": -0.1073055844,
				"z": -0.9778117873,
				"element": "C" 
			},
			{
				"x": -1.3943574837,
				"y": -0.638981469,
				"z": 0.2825543112,
				"element": "C" 
			},
			{
				"x": -0.8136392769,
				"y": -0.1140559363,
				"z": 1.4383280427,
				"element": "C" 
			},
			{
				"x": -1.6781939451,
				"y": -0.6308785409,
				"z": -2.2126686861,
				"element": "C" 
			},
			{
				"x": -1.5672815219,
				"y": -0.0932613278,
				"z": -3.4074999018,
				"element": "N" 
			},
			{
				"x": -2.2708577234,
				"y": -0.8756127395,
				"z": -4.3046999531,
				"element": "N" 
			},
			{
				"x": -2.7778876913,
				"y": -1.8793606407,
				"z": -3.6259764206,
				"element": "C" 
			},
			{
				"x": -3.4863971554,
				"y": -2.9549734703,
				"z": -4.1474341716,
				"element": "N" 
			},
			{
				"x": -2.4501465248,
				"y": -1.7773565529,
				"z": -2.3007408975,
				"element": "N" 
			},
			{
				"x": 0.5778264237,
				"y": -0.2052874437,
				"z": 3.9257532815,
				"element": "H" 
			},
			{
				"x": 0.7995949756,
				"y": 1.3182226239,
				"z": 4.790575298,
				"element": "H" 
			},
			{
				"x": -0.77556124,
				"y": 0.9306417691,
				"z": 4.0930292682,
				"element": "H" 
			},
			{
				"x": 0.8222619128,
				"y": 3.5087557231,
				"z": 3.6340530192,
				"element": "H" 
			},
			{
				"x": 0.6738525135,
				"y": 3.6333605891,
				"z": 1.8765657141,
				"element": "H" 
			},
			{
				"x": -0.7315983167,
				"y": 3.1762459419,
				"z": 2.8466573758,
				"element": "H" 
			},
			{
				"x": 2.5858510797,
				"y": 0.3970585211,
				"z": 2.4397023135,
				"element": "H" 
			},
			{
				"x": 2.7666662719,
				"y": 1.8798992553,
				"z": 3.3953914246,
				"element": "H" 
			},
			{
				"x": 2.6613106499,
				"y": 1.9682084121,
				"z": 1.6325694683,
				"element": "H" 
			},
			{
				"x": 1.0553520708,
				"y": 2.3259119341,
				"z": 0.0177310467,
				"element": "H" 
			},
			{
				"x": 0.034897654,
				"y": 1.394389113,
				"z": -2.016394603,
				"element": "H" 
			},
			{
				"x": -2.0975362357,
				"y": -1.462267415,
				"z": 0.3838972667,
				"element": "H" 
			},
			{
				"x": -1.076837655,
				"y": -0.5591710515,
				"z": 2.3908625871,
				"element": "H" 
			},
			{
				"x": -4.3924246635,
				"y": -3.0986944586,
				"z": -3.7129837535,
				"element": "H" 
			},
			{
				"x": -3.5968500116,
				"y": -2.8333430728,
				"z": -5.1481921747,
				"element": "H" 
			},
			{
				"x": -2.5935762539,
				"y": -2.4797923601,
				"z": -1.5924101454,
				"element": "H" 
			}
		],
		 "valence_orbital": [ 
			{
				"type": "occ",
				"energy": -0.294,
				"method": "rhf"
			},
			{
				"type": "occ",
				"energy": -0.2615,
				"method": "rhf"
			},
			{
				"type": "occ",
				"energy": -0.25159,
				"method": "rhf"
			},
			{
				"type": "occ",
				"energy": -0.24463,
				"method": "rhf"
			},
			{
				"type": "occ",
				"energy": -0.20508,
				"method": "rhf"
			},
			{
				"type": "unocc",
				"energy": -0.0279,
				"method": "rhf"
			},
			{
				"type": "unocc",
				"energy": -0.00271,
				"method": "rhf"
			},
			{
				"type": "unocc",
				"energy": 0.05037,
				"method": "rhf"
			},
			{
				"type": "unocc",
				"energy": 0.05633,
				"method": "rhf"
			},
			{
				"type": "unocc",
				"energy": 0.07644,
				"method": "rhf"
			}
		],
		"cosmo_sigma_profile": { 
			"-0.025": 0.0,
			"-0.024": 0.0,
			"-0.023": 0.0,
			"-0.022": 0.0,
			"-0.021": 0.0,
			"-0.02": 0.0,
			"-0.019": 0.0,
			"-0.018": 0.00692608690883,
			"-0.017": 0.925038926104,
			"-0.016": 1.48226686415,
			"-0.015": 1.05970731691,
			"-0.014": 2.93445641088,
			"-0.013": 4.63175950291,
			"-0.012": 4.38259808837,
			"-0.011": 3.71917833765,
			"-0.01": 3.38623024689,
			"-0.009": 2.91385223082,
			"-0.008": 3.28585999044,
			"-0.007": 2.37524494,
			"-0.006": 4.31388114754,
			"-0.005": 9.26848485395,
			"-0.004": 9.98545301245,
			"-0.003": 23.5265129928,
			"-0.002": 26.7836882187,
			"-0.001": 23.039406129,
			"0.0": 23.8453962417,
			"0.001": 31.1359793192,
			"0.002": 16.9805937463,
			"0.003": 11.7010922071,
			"0.004": 11.4842768666,
			"0.005": 13.1821448185,
			"0.006": 5.20600869061,
			"0.007": 2.20169614707,
			"0.008": 2.4692246732,
			"0.009": 2.48292769537,
			"0.01": 2.75192927713,
			"0.011": 2.46182286595,
			"0.012": 3.15905231735,
			"0.013": 2.71116896816,
			"0.014": 3.59027198265,
			"0.015": 3.79752793176,
			"0.016": 2.36834564327,
			"0.017": 1.73293577714,
			"0.018": 0.283145786546,
			"0.019": 0.0,
			"0.02": 0.0,
			"0.021": 0.0,
			"0.022": 0.0,
			"0.023": 0.0,
			"0.024": 0.0,
			"0.025": 0.0
		}
	}
}
