{
	 "smiles": "ClCC1=NC(=NO1)C1=CC(Cl)=CC=C1", 
	 "Tm": 313.15, 
	 "num_atms": 20, 
	 "gaussian": { 
		 "optdone": 1, 
		 "sigma_profile": "yes", 
		 "theory": "DFT", 
		 "functional": "B3LYP", 
		 "basiset": "6-31G**", 
		 "properties": { 
			 "R2extent": 6725.3649, 
			 "electric_dipole_moment_norm": 1.62687388878, 
			 "electric_quadrupole_moment_norm": 17.6037876842, 
			 "total_energy": -1451.6492994, 
			 "HOMO_LUMO_gap": 0.18503, 
			 "cosmo_polarized_energy": -9.06, 
			 "cosmo_cavitation_energy": 29.34, 
			 "cosmo_dispersion_energy": -21.88, 
			 "cosmo_repulsion_energy": 1.74, 
			 "cosmo_total_nonelectrostatic_energy": 9.2, 
			 "SMD_solvation_energy": 2.82 
		},
		"coords": [
			{
				"x": 2.8262368488,
				"y": -1.6893801941,
				"z": -5.0040604981,
				"element": "Cl" 
			},
			{
				"x": 3.0583041634,
				"y": -1.7013529715,
				"z": -3.2035044837,
				"element": "C" 
			},
			{
				"x": 1.9062577755,
				"y": -1.08068599,
				"z": -2.4984325039,
				"element": "C" 
			},
			{
				"x": 1.8294485541,
				"y": 0.1136978218,
				"z": -1.9949334561,
				"element": "N" 
			},
			{
				"x": 0.5483870877,
				"y": 0.1334879233,
				"z": -1.4757501726,
				"element": "C" 
			},
			{
				"x": -0.1188276807,
				"y": -0.9877903463,
				"z": -1.6515519431,
				"element": "N" 
			},
			{
				"x": 0.7876940008,
				"y": -1.8054655963,
				"z": -2.3342849349,
				"element": "O" 
			},
			{
				"x": -0.0190521485,
				"y": 1.2999382571,
				"z": -0.7860144267,
				"element": "C" 
			},
			{
				"x": 0.7631574686,
				"y": 2.453815066,
				"z": -0.6433947646,
				"element": "C" 
			},
			{
				"x": 0.2253288177,
				"y": 3.5585925119,
				"z": 0.0110221142,
				"element": "C" 
			},
			{
				"x": 1.203650349,
				"y": 5.006621736,
				"z": 0.1923920112,
				"element": "Cl" 
			},
			{
				"x": -1.0711676501,
				"y": 3.5402536845,
				"z": 0.5246135133,
				"element": "C" 
			},
			{
				"x": -1.8408246157,
				"y": 2.3839282712,
				"z": 0.3751054859,
				"element": "C" 
			},
			{
				"x": -1.3253461603,
				"y": 1.2664339282,
				"z": -0.2747528514,
				"element": "C" 
			},
			{
				"x": 3.1812434046,
				"y": -2.7434811943,
				"z": -2.9089307719,
				"element": "H" 
			},
			{
				"x": 3.9598868389,
				"y": -1.1318247248,
				"z": -2.9865913633,
				"element": "H" 
			},
			{
				"x": 1.7707269786,
				"y": 2.4777770226,
				"z": -1.0402759588,
				"element": "H" 
			},
			{
				"x": -1.4677034027,
				"y": 4.4137243768,
				"z": 1.030053414,
				"element": "H" 
			},
			{
				"x": -2.8512838203,
				"y": 2.3607668836,
				"z": 0.7713066802,
				"element": "H" 
			},
			{
				"x": -1.9224168093,
				"y": 0.3687435343,
				"z": -0.3912150895,
				"element": "H" 
			}
		],
		 "valence_orbital": [ 
			{
				"type": "occ",
				"energy": -0.3185,
				"method": "rhf"
			},
			{
				"type": "occ",
				"energy": -0.31277,
				"method": "rhf"
			},
			{
				"type": "occ",
				"energy": -0.30995,
				"method": "rhf"
			},
			{
				"type": "occ",
				"energy": -0.26643,
				"method": "rhf"
			},
			{
				"type": "occ",
				"energy": -0.25339,
				"method": "rhf"
			},
			{
				"type": "unocc",
				"energy": -0.06836,
				"method": "rhf"
			},
			{
				"type": "unocc",
				"energy": -0.04467,
				"method": "rhf"
			},
			{
				"type": "unocc",
				"energy": -0.02189,
				"method": "rhf"
			},
			{
				"type": "unocc",
				"energy": 0.02339,
				"method": "rhf"
			},
			{
				"type": "unocc",
				"energy": 0.02855,
				"method": "rhf"
			}
		],
		"cosmo_sigma_profile": { 
			"-0.025": 0.0,
			"-0.024": 0.0,
			"-0.023": 0.0,
			"-0.022": 0.0,
			"-0.021": 0.0,
			"-0.02": 0.0,
			"-0.019": 0.0,
			"-0.018": 0.0,
			"-0.017": 0.0,
			"-0.016": 0.0,
			"-0.015": 0.0,
			"-0.014": 0.0,
			"-0.013": 0.0,
			"-0.012": 0.0,
			"-0.011": 0.59894850357,
			"-0.01": 4.03825806829,
			"-0.009": 4.47593355767,
			"-0.008": 5.46132868914,
			"-0.007": 9.77251661425,
			"-0.006": 11.3207600383,
			"-0.005": 10.3281671258,
			"-0.004": 8.9552579465,
			"-0.003": 10.506752053,
			"-0.002": 13.4944880498,
			"-0.001": 16.8152577605,
			"0.0": 22.8333992039,
			"0.001": 24.1763885009,
			"0.002": 25.9360697355,
			"0.003": 19.2644872187,
			"0.004": 20.5258721019,
			"0.005": 17.42384859,
			"0.006": 4.98795358974,
			"0.007": 2.39481024578,
			"0.008": 2.1284899694,
			"0.009": 2.41695894394,
			"0.01": 2.17393798945,
			"0.011": 1.10306739405,
			"0.012": 0.244398608908,
			"0.013": 0.0,
			"0.014": 0.0,
			"0.015": 0.0,
			"0.016": 0.0,
			"0.017": 0.0,
			"0.018": 0.0,
			"0.019": 0.0,
			"0.02": 0.0,
			"0.021": 0.0,
			"0.022": 0.0,
			"0.023": 0.0,
			"0.024": 0.0,
			"0.025": 0.0
		}
	}
}
