{
	 "smiles": "[O-][N+](=O)C1=C(C=C(F)C=C1)C(F)(F)F", 
	 "Tm": 296.15, 
	 "num_atms": 17, 
	 "gaussian": { 
		 "optdone": 1, 
		 "sigma_profile": "yes", 
		 "theory": "DFT", 
		 "functional": "B3LYP", 
		 "basiset": "6-31G**", 
		 "properties": { 
			 "R2extent": 2955.9266, 
			 "electric_dipole_moment_norm": 4.19342615292, 
			 "electric_quadrupole_moment_norm": 10.6231982204, 
			 "total_energy": -872.997283005, 
			 "HOMO_LUMO_gap": 0.18575, 
			 "cosmo_polarized_energy": -8.48, 
			 "cosmo_cavitation_energy": 24.15, 
			 "cosmo_dispersion_energy": -17.2, 
			 "cosmo_repulsion_energy": 1.26, 
			 "cosmo_total_nonelectrostatic_energy": 8.21, 
			 "SMD_solvation_energy": 7.9 
		},
		"coords": [
			{
				"x": 2.7941620751,
				"y": -0.235860137,
				"z": 1.664509885,
				"element": "O" 
			},
			{
				"x": 2.4010349761,
				"y": -0.198922928,
				"z": 0.5037434174,
				"element": "N" 
			},
			{
				"x": 3.1140638515,
				"y": -0.313062456,
				"z": -0.4923986263,
				"element": "O" 
			},
			{
				"x": 0.9517639207,
				"y": -0.0503191905,
				"z": 0.2723998813,
				"element": "C" 
			},
			{
				"x": 0.1019283161,
				"y": 0.6311124224,
				"z": 1.1629906028,
				"element": "C" 
			},
			{
				"x": -1.2601842625,
				"y": 0.6720796791,
				"z": 0.8638179622,
				"element": "C" 
			},
			{
				"x": -1.7424290688,
				"y": 0.0391153619,
				"z": -0.2773235128,
				"element": "C" 
			},
			{
				"x": -3.0578541907,
				"y": 0.087472527,
				"z": -0.529090098,
				"element": "F" 
			},
			{
				"x": -0.90478303,
				"y": -0.6233641578,
				"z": -1.165160036,
				"element": "C" 
			},
			{
				"x": 0.4562583369,
				"y": -0.6539455092,
				"z": -0.8830408932,
				"element": "C" 
			},
			{
				"x": 0.5642873995,
				"y": 1.3758394074,
				"z": 2.4091291493,
				"element": "C" 
			},
			{
				"x": 0.8376590505,
				"y": 0.5469642145,
				"z": 3.4266607224,
				"element": "F" 
			},
			{
				"x": -0.41287218,
				"y": 2.2108554524,
				"z": 2.8381729708,
				"element": "F" 
			},
			{
				"x": 1.644030666,
				"y": 2.1366270967,
				"z": 2.1626196626,
				"element": "F" 
			},
			{
				"x": -1.9483536047,
				"y": 1.2059329057,
				"z": 1.5056307486,
				"element": "H" 
			},
			{
				"x": -1.3138280066,
				"y": -1.0971924104,
				"z": -2.0500060624,
				"element": "H" 
			},
			{
				"x": 1.155015751,
				"y": -1.146232278,
				"z": -1.5475557735,
				"element": "H" 
			}
		],
		 "valence_orbital": [ 
			{
				"type": "occ",
				"energy": -0.32112,
				"method": "rhf"
			},
			{
				"type": "occ",
				"energy": -0.32018,
				"method": "rhf"
			},
			{
				"type": "occ",
				"energy": -0.31063,
				"method": "rhf"
			},
			{
				"type": "occ",
				"energy": -0.30647,
				"method": "rhf"
			},
			{
				"type": "occ",
				"energy": -0.28574,
				"method": "rhf"
			},
			{
				"type": "unocc",
				"energy": -0.09999,
				"method": "rhf"
			},
			{
				"type": "unocc",
				"energy": -0.05934,
				"method": "rhf"
			},
			{
				"type": "unocc",
				"energy": -0.02312,
				"method": "rhf"
			},
			{
				"type": "unocc",
				"energy": 0.06124,
				"method": "rhf"
			},
			{
				"type": "unocc",
				"energy": 0.09936,
				"method": "rhf"
			}
		],
		"cosmo_sigma_profile": { 
			"-0.025": 0.0,
			"-0.024": 0.0,
			"-0.023": 0.0,
			"-0.022": 0.0,
			"-0.021": 0.0,
			"-0.02": 0.0,
			"-0.019": 0.0,
			"-0.018": 0.0,
			"-0.017": 0.0,
			"-0.016": 0.0,
			"-0.015": 0.0,
			"-0.014": 0.0,
			"-0.013": 0.0,
			"-0.012": 0.0,
			"-0.011": 0.0,
			"-0.01": 0.580660087575,
			"-0.009": 4.48825431633,
			"-0.008": 6.22253683554,
			"-0.007": 6.31949449376,
			"-0.006": 5.98575012139,
			"-0.005": 7.323510395,
			"-0.004": 8.07632836271,
			"-0.003": 15.7601432348,
			"-0.002": 21.8527357148,
			"-0.001": 14.0305992867,
			"0.0": 11.2002194064,
			"0.001": 12.8595644934,
			"0.002": 27.0198663639,
			"0.003": 19.7156550926,
			"0.004": 4.32845002029,
			"0.005": 4.47576332447,
			"0.006": 7.10019474898,
			"0.007": 9.4729091899,
			"0.008": 4.743877712,
			"0.009": 3.27553629782,
			"0.01": 0.547206479597,
			"0.011": 0.0,
			"0.012": 0.0,
			"0.013": 0.0,
			"0.014": 0.0,
			"0.015": 0.0,
			"0.016": 0.0,
			"0.017": 0.0,
			"0.018": 0.0,
			"0.019": 0.0,
			"0.02": 0.0,
			"0.021": 0.0,
			"0.022": 0.0,
			"0.023": 0.0,
			"0.024": 0.0,
			"0.025": 0.0
		}
	}
}
