{
	 "smiles": "OC(=O)C1CC(=O)C(=C(O)C2CC2)C(=O)C1", 
	 "Tm": 417.15, 
	 "num_atms": 28, 
	 "gaussian": { 
		 "optdone": 1, 
		 "sigma_profile": "yes", 
		 "theory": "DFT", 
		 "functional": "B3LYP", 
		 "basiset": "6-31G**", 
		 "properties": { 
			 "R2extent": 4488.328, 
			 "electric_dipole_moment_norm": 2.9646406224, 
			 "electric_quadrupole_moment_norm": 27.4803674897, 
			 "total_energy": -802.487264987, 
			 "HOMO_LUMO_gap": 0.16753, 
			 "cosmo_polarized_energy": -23.23, 
			 "cosmo_cavitation_energy": 31.75, 
			 "cosmo_dispersion_energy": -22.9, 
			 "cosmo_repulsion_energy": 1.8, 
			 "cosmo_total_nonelectrostatic_energy": 10.65, 
			 "SMD_solvation_energy": 7.27 
		},
		"coords": [
			{
				"x": 1.7369389583,
				"y": 0.2897941525,
				"z": 3.5969632223,
				"element": "O" 
			},
			{
				"x": 2.0607070384,
				"y": -0.0031137429,
				"z": 2.3152845864,
				"element": "C" 
			},
			{
				"x": 3.2054700892,
				"y": -0.1636260115,
				"z": 1.9501710378,
				"element": "O" 
			},
			{
				"x": 0.8362852459,
				"y": -0.0517362315,
				"z": 1.420527231,
				"element": "C" 
			},
			{
				"x": 1.0483416768,
				"y": -1.0084190859,
				"z": 0.2496801329,
				"element": "C" 
			},
			{
				"x": -0.075244223,
				"y": -1.0071615733,
				"z": -0.7830686573,
				"element": "C" 
			},
			{
				"x": -0.2333217165,
				"y": -2.0276332748,
				"z": -1.4509883781,
				"element": "O" 
			},
			{
				"x": -0.8979260623,
				"y": 0.2168781669,
				"z": -0.9414854881,
				"element": "C" 
			},
			{
				"x": -1.8948101465,
				"y": 0.2536022438,
				"z": -1.9080567933,
				"element": "C" 
			},
			{
				"x": -2.6587811836,
				"y": 1.3424157351,
				"z": -2.0198792425,
				"element": "O" 
			},
			{
				"x": -2.1874695412,
				"y": -0.8507557138,
				"z": -2.8619567961,
				"element": "C" 
			},
			{
				"x": -3.4244720957,
				"y": -0.8612028647,
				"z": -3.7413978237,
				"element": "C" 
			},
			{
				"x": -3.3275018021,
				"y": -1.8142919172,
				"z": -2.5823886847,
				"element": "C" 
			},
			{
				"x": -0.6500980288,
				"y": 1.4038063454,
				"z": -0.0757570648,
				"element": "C" 
			},
			{
				"x": -1.3338679656,
				"y": 2.4167577346,
				"z": -0.0901423926,
				"element": "O" 
			},
			{
				"x": 0.5538516608,
				"y": 1.3565374588,
				"z": 0.8683808139,
				"element": "C" 
			},
			{
				"x": 2.5768610955,
				"y": 0.3465396948,
				"z": 4.0837572152,
				"element": "H" 
			},
			{
				"x": -0.0162207056,
				"y": -0.368735773,
				"z": 2.0320095287,
				"element": "H" 
			},
			{
				"x": 1.1749620984,
				"y": -2.043936536,
				"z": 0.5757311254,
				"element": "H" 
			},
			{
				"x": 1.9794474188,
				"y": -0.7315597675,
				"z": -0.2627222575,
				"element": "H" 
			},
			{
				"x": -3.1879382773,
				"y": 1.2582442715,
				"z": -2.8278099532,
				"element": "H" 
			},
			{
				"x": -1.3026827189,
				"y": -1.3325693514,
				"z": -3.2562486319,
				"element": "H" 
			},
			{
				"x": -4.1801694557,
				"y": -0.0801268447,
				"z": -3.6693350816,
				"element": "H" 
			},
			{
				"x": -3.2985178659,
				"y": -1.238579768,
				"z": -4.7509439168,
				"element": "H" 
			},
			{
				"x": -3.9558267613,
				"y": -1.61106033,
				"z": -1.720592097,
				"element": "H" 
			},
			{
				"x": -3.1329808469,
				"y": -2.8655102164,
				"z": -2.7636474485,
				"element": "H" 
			},
			{
				"x": 0.3636984753,
				"y": 2.0823958772,
				"z": 1.6619425901,
				"element": "H" 
			},
			{
				"x": 1.4357656395,
				"y": 1.7011473219,
				"z": 0.3094732242,
				"element": "H" 
			}
		],
		 "valence_orbital": [ 
			{
				"type": "occ",
				"energy": -0.32186,
				"method": "rhf"
			},
			{
				"type": "occ",
				"energy": -0.2813,
				"method": "rhf"
			},
			{
				"type": "occ",
				"energy": -0.24651,
				"method": "rhf"
			},
			{
				"type": "occ",
				"energy": -0.24509,
				"method": "rhf"
			},
			{
				"type": "occ",
				"energy": -0.22837,
				"method": "rhf"
			},
			{
				"type": "unocc",
				"energy": -0.06084,
				"method": "rhf"
			},
			{
				"type": "unocc",
				"energy": -0.01367,
				"method": "rhf"
			},
			{
				"type": "unocc",
				"energy": 0.00933,
				"method": "rhf"
			},
			{
				"type": "unocc",
				"energy": 0.04961,
				"method": "rhf"
			},
			{
				"type": "unocc",
				"energy": 0.07201,
				"method": "rhf"
			}
		],
		"cosmo_sigma_profile": { 
			"-0.025": 0.0,
			"-0.024": 0.0,
			"-0.023": 0.0,
			"-0.022": 0.0,
			"-0.021": 0.0,
			"-0.02": 0.0,
			"-0.019": 0.139585009541,
			"-0.018": 1.65354066877,
			"-0.017": 1.7784516235,
			"-0.016": 1.69925583464,
			"-0.015": 1.65531923869,
			"-0.014": 1.0835594718,
			"-0.013": 1.38755880183,
			"-0.012": 2.47205012275,
			"-0.011": 2.13203805711,
			"-0.01": 1.52448025759,
			"-0.009": 1.73535534453,
			"-0.008": 2.73264901729,
			"-0.007": 6.81178572049,
			"-0.006": 18.5850877755,
			"-0.005": 21.2876815453,
			"-0.004": 19.8548251652,
			"-0.003": 18.6275035015,
			"-0.002": 16.9461725866,
			"-0.001": 16.3010202024,
			"0.0": 12.6704986829,
			"0.001": 11.0654511706,
			"0.002": 9.44133560511,
			"0.003": 7.23652069354,
			"0.004": 7.03910019723,
			"0.005": 5.45389166799,
			"0.006": 6.57017353844,
			"0.007": 5.4031096195,
			"0.008": 5.55296023592,
			"0.009": 7.28145815272,
			"0.01": 5.77119053765,
			"0.011": 7.98364723959,
			"0.012": 8.45169718312,
			"0.013": 6.61042275264,
			"0.014": 3.42834250463,
			"0.015": 1.62370430805,
			"0.016": 0.415514492283,
			"0.017": 0.0,
			"0.018": 0.0,
			"0.019": 0.0,
			"0.02": 0.0,
			"0.021": 0.0,
			"0.022": 0.0,
			"0.023": 0.0,
			"0.024": 0.0,
			"0.025": 0.0
		}
	}
}
