{
	 "smiles": "OC(=O)CC1=C(F)C=C(C=C1)C(F)(F)F", 
	 "Tm": 352.65, 
	 "num_atms": 21, 
	 "gaussian": { 
		 "optdone": 1, 
		 "sigma_profile": "yes", 
		 "theory": "DFT", 
		 "functional": "B3LYP", 
		 "basiset": "6-31G**", 
		 "properties": { 
			 "R2extent": 4649.8511, 
			 "electric_dipole_moment_norm": 3.40248951945, 
			 "electric_quadrupole_moment_norm": 6.27199674187, 
			 "total_energy": -896.401276616, 
			 "HOMO_LUMO_gap": 0.22351, 
			 "cosmo_polarized_energy": -11.35, 
			 "cosmo_cavitation_energy": 28.23, 
			 "cosmo_dispersion_energy": -19.58, 
			 "cosmo_repulsion_energy": 1.47, 
			 "cosmo_total_nonelectrostatic_energy": 10.12, 
			 "SMD_solvation_energy": 7.55 
		},
		"coords": [
			{
				"x": -2.9019536368,
				"y": 4.3042181185,
				"z": -0.5301456603,
				"element": "O" 
			},
			{
				"x": -2.5020568262,
				"y": 3.1189960135,
				"z": -0.0105100849,
				"element": "C" 
			},
			{
				"x": -2.6851015635,
				"y": 2.8079844136,
				"z": 1.1423310252,
				"element": "O" 
			},
			{
				"x": -1.8053816572,
				"y": 2.2816474085,
				"z": -1.0749530263,
				"element": "C" 
			},
			{
				"x": -1.3545903148,
				"y": 0.936199298,
				"z": -0.5740486441,
				"element": "C" 
			},
			{
				"x": -2.2957170487,
				"y": -0.0577117237,
				"z": -0.2964909602,
				"element": "C" 
			},
			{
				"x": -3.5993643655,
				"y": 0.2252883153,
				"z": -0.5002816467,
				"element": "F" 
			},
			{
				"x": -1.9501225095,
				"y": -1.3197209431,
				"z": 0.1594823376,
				"element": "C" 
			},
			{
				"x": -0.596704516,
				"y": -1.6093299362,
				"z": 0.3505106097,
				"element": "C" 
			},
			{
				"x": 0.3760354012,
				"y": -0.6443589719,
				"z": 0.0833487475,
				"element": "C" 
			},
			{
				"x": -0.0089880106,
				"y": 0.6153819633,
				"z": -0.3752086474,
				"element": "C" 
			},
			{
				"x": -0.1966199082,
				"y": -2.9529569005,
				"z": 0.9000103824,
				"element": "C" 
			},
			{
				"x": 1.0317204614,
				"y": -3.3217669125,
				"z": 0.4751896367,
				"element": "F" 
			},
			{
				"x": -0.1603036688,
				"y": -2.9464694889,
				"z": 2.2517789872,
				"element": "F" 
			},
			{
				"x": -1.0635763632,
				"y": -3.9228029985,
				"z": 0.5346372095,
				"element": "F" 
			},
			{
				"x": -3.3349365376,
				"y": 4.7861727233,
				"z": 0.1944533485,
				"element": "H" 
			},
			{
				"x": -0.9572430059,
				"y": 2.8614154683,
				"z": -1.4536902255,
				"element": "H" 
			},
			{
				"x": -2.5049152277,
				"y": 2.1790536775,
				"z": -1.91242759,
				"element": "H" 
			},
			{
				"x": -2.7225033522,
				"y": -2.0550417192,
				"z": 0.3501918191,
				"element": "H" 
			},
			{
				"x": 1.4246338182,
				"y": -0.8796623323,
				"z": 0.2244702918,
				"element": "H" 
			},
			{
				"x": 0.7489888315,
				"y": 1.364564527,
				"z": -0.5858479099,
				"element": "H" 
			}
		],
		 "valence_orbital": [ 
			{
				"type": "occ",
				"energy": -0.35759,
				"method": "rhf"
			},
			{
				"type": "occ",
				"energy": -0.32806,
				"method": "rhf"
			},
			{
				"type": "occ",
				"energy": -0.28717,
				"method": "rhf"
			},
			{
				"type": "occ",
				"energy": -0.2737,
				"method": "rhf"
			},
			{
				"type": "occ",
				"energy": -0.26,
				"method": "rhf"
			},
			{
				"type": "unocc",
				"energy": -0.03649,
				"method": "rhf"
			},
			{
				"type": "unocc",
				"energy": -0.01777,
				"method": "rhf"
			},
			{
				"type": "unocc",
				"energy": 0.00232,
				"method": "rhf"
			},
			{
				"type": "unocc",
				"energy": 0.06992,
				"method": "rhf"
			},
			{
				"type": "unocc",
				"energy": 0.08706,
				"method": "rhf"
			}
		],
		"cosmo_sigma_profile": { 
			"-0.025": 0.0,
			"-0.024": 0.0,
			"-0.023": 0.0,
			"-0.022": 0.0,
			"-0.021": 0.0,
			"-0.02": 0.0,
			"-0.019": 0.0553956658129,
			"-0.018": 0.768501576393,
			"-0.017": 1.14060493761,
			"-0.016": 0.745288761959,
			"-0.015": 0.953162856137,
			"-0.014": 0.556111172999,
			"-0.013": 0.382154111167,
			"-0.012": 0.703453002989,
			"-0.011": 1.09788739583,
			"-0.01": 0.664277146794,
			"-0.009": 0.753019841317,
			"-0.008": 6.78993217801,
			"-0.007": 9.77217092661,
			"-0.006": 10.9332898415,
			"-0.005": 9.1906573317,
			"-0.004": 10.1877345785,
			"-0.003": 10.487138576,
			"-0.002": 10.4210190921,
			"-0.001": 13.4520282656,
			"0.0": 16.0487363456,
			"0.001": 19.6231854307,
			"0.002": 30.3166281054,
			"0.003": 35.1836990454,
			"0.004": 9.59692766609,
			"0.005": 3.79111835565,
			"0.006": 1.97506997055,
			"0.007": 4.15240223418,
			"0.008": 2.73079464398,
			"0.009": 3.84623515126,
			"0.01": 2.81485930091,
			"0.011": 4.67166611637,
			"0.012": 2.09920827582,
			"0.013": 0.0,
			"0.014": 0.0,
			"0.015": 0.0,
			"0.016": 0.0,
			"0.017": 0.0,
			"0.018": 0.0,
			"0.019": 0.0,
			"0.02": 0.0,
			"0.021": 0.0,
			"0.022": 0.0,
			"0.023": 0.0,
			"0.024": 0.0,
			"0.025": 0.0
		}
	}
}
