{
	 "smiles": "CC(Cl)C(=O)C1=CC=C(NC(C)=O)C=C1", 
	 "Tm": 465.15, 
	 "num_atms": 27, 
	 "gaussian": { 
		 "optdone": 1, 
		 "sigma_profile": "yes", 
		 "theory": "DFT", 
		 "functional": "B3LYP", 
		 "basiset": "6-31G**", 
		 "properties": { 
			 "R2extent": 5673.2887, 
			 "electric_dipole_moment_norm": 1.67653712753, 
			 "electric_quadrupole_moment_norm": 22.246449968, 
			 "total_energy": -1091.81845334, 
			 "HOMO_LUMO_gap": 0.16404, 
			 "cosmo_polarized_energy": -16.28, 
			 "cosmo_cavitation_energy": 32.74, 
			 "cosmo_dispersion_energy": -23.6, 
			 "cosmo_repulsion_energy": 1.85, 
			 "cosmo_total_nonelectrostatic_energy": 10.99, 
			 "SMD_solvation_energy": 6.62 
		},
		"coords": [
			{
				"x": -2.9236650605,
				"y": -3.7472648228,
				"z": -0.9663390688,
				"element": "C" 
			},
			{
				"x": -2.7290919397,
				"y": -2.2605739468,
				"z": -0.7338546909,
				"element": "C" 
			},
			{
				"x": -3.436038047,
				"y": -1.3039165002,
				"z": -2.1374973922,
				"element": "Cl" 
			},
			{
				"x": -1.2435123894,
				"y": -1.8674632444,
				"z": -0.6037510056,
				"element": "C" 
			},
			{
				"x": -0.3881374325,
				"y": -2.6672169144,
				"z": -0.9509309469,
				"element": "O" 
			},
			{
				"x": -0.8806977686,
				"y": -0.5431780694,
				"z": -0.028695087,
				"element": "C" 
			},
			{
				"x": -1.8172437754,
				"y": 0.4189785408,
				"z": 0.3856929986,
				"element": "C" 
			},
			{
				"x": -1.3997930161,
				"y": 1.6270846522,
				"z": 0.9253551564,
				"element": "C" 
			},
			{
				"x": -0.0306231239,
				"y": 1.9169479253,
				"z": 1.0773457705,
				"element": "C" 
			},
			{
				"x": 0.3121985906,
				"y": 3.1451027916,
				"z": 1.6584933578,
				"element": "N" 
			},
			{
				"x": 1.4101759214,
				"y": 3.9943210386,
				"z": 1.5343167346,
				"element": "C" 
			},
			{
				"x": 2.5376198292,
				"y": 3.622044611,
				"z": 0.5944328097,
				"element": "C" 
			},
			{
				"x": 1.4164550228,
				"y": 5.0326923368,
				"z": 2.1760597887,
				"element": "O" 
			},
			{
				"x": 0.9104773678,
				"y": 0.9456286066,
				"z": 0.6885280207,
				"element": "C" 
			},
			{
				"x": 0.4835819765,
				"y": -0.2533400918,
				"z": 0.1354936089,
				"element": "C" 
			},
			{
				"x": -2.5512100072,
				"y": -4.2994554996,
				"z": -0.0971962507,
				"element": "H" 
			},
			{
				"x": -3.9825705688,
				"y": -3.976740957,
				"z": -1.1023136887,
				"element": "H" 
			},
			{
				"x": -2.3604506134,
				"y": -4.0769139645,
				"z": -1.8402335219,
				"element": "H" 
			},
			{
				"x": -3.2909228416,
				"y": -1.9215006289,
				"z": 0.1389791651,
				"element": "H" 
			},
			{
				"x": -2.8806025921,
				"y": 0.2466132715,
				"z": 0.2626926642,
				"element": "H" 
			},
			{
				"x": -2.1357374082,
				"y": 2.3700938788,
				"z": 1.2202635831,
				"element": "H" 
			},
			{
				"x": -0.4102972452,
				"y": 3.587218118,
				"z": 2.2150096133,
				"element": "H" 
			},
			{
				"x": 2.1852157367,
				"y": 3.1423105246,
				"z": -0.3215553542,
				"element": "H" 
			},
			{
				"x": 3.2402399306,
				"y": 2.9429415419,
				"z": 1.0890983241,
				"element": "H" 
			},
			{
				"x": 3.0715581981,
				"y": 4.5416622778,
				"z": 0.3541047133,
				"element": "H" 
			},
			{
				"x": 1.9682211955,
				"y": 1.1109173931,
				"z": 0.8437232095,
				"element": "H" 
			},
			{
				"x": 1.2049500606,
				"y": -1.0060928687,
				"z": -0.1640225115,
				"element": "H" 
			}
		],
		 "valence_orbital": [ 
			{
				"type": "occ",
				"energy": -0.30401,
				"method": "rhf"
			},
			{
				"type": "occ",
				"energy": -0.27551,
				"method": "rhf"
			},
			{
				"type": "occ",
				"energy": -0.2671,
				"method": "rhf"
			},
			{
				"type": "occ",
				"energy": -0.26205,
				"method": "rhf"
			},
			{
				"type": "occ",
				"energy": -0.23889,
				"method": "rhf"
			},
			{
				"type": "unocc",
				"energy": -0.07485,
				"method": "rhf"
			},
			{
				"type": "unocc",
				"energy": -0.02474,
				"method": "rhf"
			},
			{
				"type": "unocc",
				"energy": -0.01111,
				"method": "rhf"
			},
			{
				"type": "unocc",
				"energy": 0.01855,
				"method": "rhf"
			},
			{
				"type": "unocc",
				"energy": 0.05408,
				"method": "rhf"
			}
		],
		"cosmo_sigma_profile": { 
			"-0.025": 0.0,
			"-0.024": 0.0,
			"-0.023": 0.0,
			"-0.022": 0.0,
			"-0.021": 0.0,
			"-0.02": 0.0,
			"-0.019": 0.0,
			"-0.018": 0.0,
			"-0.017": 0.0,
			"-0.016": 0.0,
			"-0.015": 0.208533093143,
			"-0.014": 1.21119056678,
			"-0.013": 1.43439895938,
			"-0.012": 0.744302812894,
			"-0.011": 1.17134732636,
			"-0.01": 1.4032378977,
			"-0.009": 3.98740310806,
			"-0.008": 7.99104474766,
			"-0.007": 9.3622985159,
			"-0.006": 11.6940207836,
			"-0.005": 17.1701099986,
			"-0.004": 19.3816016739,
			"-0.003": 16.2228110054,
			"-0.002": 18.8623190886,
			"-0.001": 19.0926722721,
			"0.0": 17.2659067806,
			"0.001": 16.9492542182,
			"0.002": 18.7150172719,
			"0.003": 19.9598737199,
			"0.004": 11.6086048474,
			"0.005": 10.2718598226,
			"0.006": 6.84261450434,
			"0.007": 3.23665416499,
			"0.008": 3.16394587483,
			"0.009": 3.45188568453,
			"0.01": 3.4350489126,
			"0.011": 6.20053590435,
			"0.012": 4.44015427158,
			"0.013": 5.15744594555,
			"0.014": 1.47115557965,
			"0.015": 0.0158138037854,
			"0.016": 0.0,
			"0.017": 0.0,
			"0.018": 0.0,
			"0.019": 0.0,
			"0.02": 0.0,
			"0.021": 0.0,
			"0.022": 0.0,
			"0.023": 0.0,
			"0.024": 0.0,
			"0.025": 0.0
		}
	}
}
