{
	 "smiles": "CC1=NN(CCO)C(C)=C1C=O", 
	 "Tm": 341.15, 
	 "num_atms": 24, 
	 "gaussian": { 
		 "optdone": 1, 
		 "sigma_profile": "yes", 
		 "theory": "DFT", 
		 "functional": "B3LYP", 
		 "basiset": "6-31G**", 
		 "properties": { 
			 "R2extent": 3016.3494, 
			 "electric_dipole_moment_norm": 4.47511820403, 
			 "electric_quadrupole_moment_norm": 17.9305229689, 
			 "total_energy": -572.018603514, 
			 "HOMO_LUMO_gap": 0.20705, 
			 "cosmo_polarized_energy": -14.4, 
			 "cosmo_cavitation_energy": 27.14, 
			 "cosmo_dispersion_energy": -19.58, 
			 "cosmo_repulsion_energy": 1.58, 
			 "cosmo_total_nonelectrostatic_energy": 9.14, 
			 "SMD_solvation_energy": 4.9 
		},
		"coords": [
			{
				"x": -0.2150549757,
				"y": -2.6121638359,
				"z": -1.9917196368,
				"element": "C" 
			},
			{
				"x": 0.3292463993,
				"y": -1.2490269214,
				"z": -1.7115517292,
				"element": "C" 
			},
			{
				"x": -0.3840243971,
				"y": -0.3419636573,
				"z": -1.0595165381,
				"element": "N" 
			},
			{
				"x": 0.4106437814,
				"y": 0.7717877659,
				"z": -0.9713129312,
				"element": "N" 
			},
			{
				"x": -0.1273243238,
				"y": 1.9661041796,
				"z": -0.3205717387,
				"element": "C" 
			},
			{
				"x": -0.8909926588,
				"y": 1.624799372,
				"z": 0.9662837593,
				"element": "C" 
			},
			{
				"x": -2.1118101266,
				"y": 0.9712286189,
				"z": 0.7199407799,
				"element": "O" 
			},
			{
				"x": 1.612839012,
				"y": 0.5923059276,
				"z": -1.5653375489,
				"element": "C" 
			},
			{
				"x": 2.6650304181,
				"y": 1.6551632249,
				"z": -1.6213201022,
				"element": "C" 
			},
			{
				"x": 1.6074283487,
				"y": -0.7172881875,
				"z": -2.063563017,
				"element": "C" 
			},
			{
				"x": 2.6726054246,
				"y": -1.395601706,
				"z": -2.7829748264,
				"element": "C" 
			},
			{
				"x": 2.6110182949,
				"y": -2.544553352,
				"z": -3.1956831664,
				"element": "O" 
			},
			{
				"x": 0.4206249303,
				"y": -3.3835941683,
				"z": -1.5472768296,
				"element": "H" 
			},
			{
				"x": -0.2315379488,
				"y": -2.810038087,
				"z": -3.067412954,
				"element": "H" 
			},
			{
				"x": -1.227229151,
				"y": -2.7002333548,
				"z": -1.5908774137,
				"element": "H" 
			},
			{
				"x": -0.8049175089,
				"y": 2.4801218716,
				"z": -1.0125761228,
				"element": "H" 
			},
			{
				"x": 0.7123544752,
				"y": 2.6301343679,
				"z": -0.0997419797,
				"element": "H" 
			},
			{
				"x": -1.1239389641,
				"y": 2.5650995494,
				"z": 1.4786399381,
				"element": "H" 
			},
			{
				"x": -0.2267915673,
				"y": 1.0434880317,
				"z": 1.6277744526,
				"element": "H" 
			},
			{
				"x": -1.8873655744,
				"y": 0.1992197801,
				"z": 0.1694578338,
				"element": "H" 
			},
			{
				"x": 2.9849692148,
				"y": 1.9607847604,
				"z": -0.6187477203,
				"element": "H" 
			},
			{
				"x": 2.3085932475,
				"y": 2.5494148314,
				"z": -2.1442563894,
				"element": "H" 
			},
			{
				"x": 3.5456087055,
				"y": 1.2893209012,
				"z": -2.1513831386,
				"element": "H" 
			},
			{
				"x": 3.5931249441,
				"y": -0.7927099126,
				"z": -2.9502729807,
				"element": "H" 
			}
		],
		 "valence_orbital": [ 
			{
				"type": "occ",
				"energy": -0.29872,
				"method": "rhf"
			},
			{
				"type": "occ",
				"energy": -0.26579,
				"method": "rhf"
			},
			{
				"type": "occ",
				"energy": -0.26053,
				"method": "rhf"
			},
			{
				"type": "occ",
				"energy": -0.25221,
				"method": "rhf"
			},
			{
				"type": "occ",
				"energy": -0.24761,
				"method": "rhf"
			},
			{
				"type": "unocc",
				"energy": -0.04056,
				"method": "rhf"
			},
			{
				"type": "unocc",
				"energy": 0.00385,
				"method": "rhf"
			},
			{
				"type": "unocc",
				"energy": 0.06881,
				"method": "rhf"
			},
			{
				"type": "unocc",
				"energy": 0.09575,
				"method": "rhf"
			},
			{
				"type": "unocc",
				"energy": 0.10102,
				"method": "rhf"
			}
		],
		"cosmo_sigma_profile": { 
			"-0.025": 0.0,
			"-0.024": 0.0,
			"-0.023": 0.0,
			"-0.022": 0.0,
			"-0.021": 0.0,
			"-0.02": 0.0,
			"-0.019": 0.0,
			"-0.018": 0.0,
			"-0.017": 0.0,
			"-0.016": 0.0,
			"-0.015": 0.0,
			"-0.014": 0.0,
			"-0.013": 0.0,
			"-0.012": 0.0,
			"-0.011": 0.0,
			"-0.01": 0.0,
			"-0.009": 0.0,
			"-0.008": 1.68936795953,
			"-0.007": 7.84333047073,
			"-0.006": 15.6758200916,
			"-0.005": 18.9401162759,
			"-0.004": 22.8468297724,
			"-0.003": 19.3906268429,
			"-0.002": 20.4174525096,
			"-0.001": 14.5676903198,
			"0.0": 15.9427207438,
			"0.001": 13.0008269049,
			"0.002": 12.001057896,
			"0.003": 6.1358377241,
			"0.004": 6.01782462769,
			"0.005": 4.2903213835,
			"0.006": 3.96617541011,
			"0.007": 3.77292295812,
			"0.008": 3.5869056656,
			"0.009": 3.02913752325,
			"0.01": 3.27990964215,
			"0.011": 3.34956821415,
			"0.012": 5.18196821513,
			"0.013": 4.17205169231,
			"0.014": 3.09319867526,
			"0.015": 1.66665185139,
			"0.016": 0.00333697302576,
			"0.017": 0.0,
			"0.018": 0.0,
			"0.019": 0.0,
			"0.02": 0.0,
			"0.021": 0.0,
			"0.022": 0.0,
			"0.023": 0.0,
			"0.024": 0.0,
			"0.025": 0.0
		}
	}
}
