{
	 "smiles": "COC1=CC=C(C=C1)C1=CC(=CC(=C1)C1=CC=C(OC)C=C1)C1=CC=C(OC)C=C1", 
	 "Tm": 417.15, 
	 "num_atms": 54, 
	 "gaussian": { 
		 "optdone": 1, 
		 "sigma_profile": "yes", 
		 "theory": "DFT", 
		 "functional": "B3LYP", 
		 "basiset": "6-31G**", 
		 "properties": { 
			 "R2extent": 20240.6347, 
			 "electric_dipole_moment_norm": 1.98454912008, 
			 "electric_quadrupole_moment_norm": 29.5495567442, 
			 "total_energy": -1268.99947718, 
			 "HOMO_LUMO_gap": 0.17791, 
			 "cosmo_polarized_energy": -15.46, 
			 "cosmo_cavitation_energy": 58.01, 
			 "cosmo_dispersion_energy": -41.15, 
			 "cosmo_repulsion_energy": 3.05, 
			 "cosmo_total_nonelectrostatic_energy": 19.91, 
			 "SMD_solvation_energy": 11.27 
		},
		"coords": [
			{
				"x": 0.5857428305,
				"y": 6.5582025245,
				"z": 4.5623182892,
				"element": "C" 
			},
			{
				"x": 1.5248999028,
				"y": 5.9422983137,
				"z": 3.6965817671,
				"element": "O" 
			},
			{
				"x": 1.14366549,
				"y": 4.8142309474,
				"z": 3.028635143,
				"element": "C" 
			},
			{
				"x": -0.1117614729,
				"y": 4.20588098,
				"z": 3.1395033074,
				"element": "C" 
			},
			{
				"x": -0.3869348568,
				"y": 3.0508676431,
				"z": 2.4044378226,
				"element": "C" 
			},
			{
				"x": 0.5613139883,
				"y": 2.4738688743,
				"z": 1.5491248253,
				"element": "C" 
			},
			{
				"x": 1.8169293607,
				"y": 3.1048185134,
				"z": 1.4541650344,
				"element": "C" 
			},
			{
				"x": 2.1073432804,
				"y": 4.2525145326,
				"z": 2.1779377317,
				"element": "C" 
			},
			{
				"x": 0.2542096301,
				"y": 1.244236796,
				"z": 0.7750306217,
				"element": "C" 
			},
			{
				"x": -1.0154261623,
				"y": 1.0498369592,
				"z": 0.2108112732,
				"element": "C" 
			},
			{
				"x": -1.319120757,
				"y": -0.101125244,
				"z": -0.5316291606,
				"element": "C" 
			},
			{
				"x": -0.3169875969,
				"y": -1.066598206,
				"z": -0.7096208276,
				"element": "C" 
			},
			{
				"x": 0.9664626994,
				"y": -0.8992155493,
				"z": -0.1683288402,
				"element": "C" 
			},
			{
				"x": 1.2338924446,
				"y": 0.2608348719,
				"z": 0.5734197961,
				"element": "C" 
			},
			{
				"x": 2.0119453145,
				"y": -1.9368376822,
				"z": -0.3577099499,
				"element": "C" 
			},
			{
				"x": 2.9170498791,
				"y": -2.2612083946,
				"z": 0.6714718833,
				"element": "C" 
			},
			{
				"x": 3.8961361118,
				"y": -3.2287950857,
				"z": 0.4965433296,
				"element": "C" 
			},
			{
				"x": 4.0045213732,
				"y": -3.9117980472,
				"z": -0.7239784069,
				"element": "C" 
			},
			{
				"x": 4.9985141274,
				"y": -4.844819547,
				"z": -0.7973665621,
				"element": "O" 
			},
			{
				"x": 5.1459025861,
				"y": -5.5732377363,
				"z": -2.0051322775,
				"element": "C" 
			},
			{
				"x": 3.1162348878,
				"y": -3.6075069367,
				"z": -1.7617182346,
				"element": "C" 
			},
			{
				"x": 2.137370482,
				"y": -2.6304630589,
				"z": -1.5688452404,
				"element": "C" 
			},
			{
				"x": -2.670560775,
				"y": -0.2937512427,
				"z": -1.1158077039,
				"element": "C" 
			},
			{
				"x": -2.8422661856,
				"y": -0.8889637067,
				"z": -2.3806604543,
				"element": "C" 
			},
			{
				"x": -4.1029412479,
				"y": -1.0720079634,
				"z": -2.9305702977,
				"element": "C" 
			},
			{
				"x": -5.2460884311,
				"y": -0.66171583,
				"z": -2.2285694438,
				"element": "C" 
			},
			{
				"x": -6.4394762209,
				"y": -0.8843205791,
				"z": -2.8531914516,
				"element": "O" 
			},
			{
				"x": -7.6273790577,
				"y": -0.4804013635,
				"z": -2.1923142306,
				"element": "C" 
			},
			{
				"x": -5.1016095067,
				"y": -0.0672535763,
				"z": -0.9698905675,
				"element": "C" 
			},
			{
				"x": -3.8253169813,
				"y": 0.1082008234,
				"z": -0.431136605,
				"element": "C" 
			},
			{
				"x": 1.0878046139,
				"y": 7.4324191505,
				"z": 4.9798769822,
				"element": "H" 
			},
			{
				"x": -0.3128374055,
				"y": 6.8828173222,
				"z": 4.0215286425,
				"element": "H" 
			},
			{
				"x": 0.2878683702,
				"y": 5.8894096256,
				"z": 5.3804279268,
				"element": "H" 
			},
			{
				"x": -0.8730482004,
				"y": 4.6103821169,
				"z": 3.7961082643,
				"element": "H" 
			},
			{
				"x": -1.3569762874,
				"y": 2.5765183288,
				"z": 2.5213641726,
				"element": "H" 
			},
			{
				"x": 2.5677513101,
				"y": 2.701077748,
				"z": 0.781454359,
				"element": "H" 
			},
			{
				"x": 3.0722948007,
				"y": 4.7419165963,
				"z": 2.0940111248,
				"element": "H" 
			},
			{
				"x": -1.7630995319,
				"y": 1.8307938542,
				"z": 0.3072319782,
				"element": "H" 
			},
			{
				"x": -0.5544424478,
				"y": -1.9868273726,
				"z": -1.2340129683,
				"element": "H" 
			},
			{
				"x": 2.2217929591,
				"y": 0.4009929833,
				"z": 1.0008225454,
				"element": "H" 
			},
			{
				"x": 2.8334384462,
				"y": -1.7628457823,
				"z": 1.632694115,
				"element": "H" 
			},
			{
				"x": 4.5849396684,
				"y": -3.4836518326,
				"z": 1.295475749,
				"element": "H" 
			},
			{
				"x": 5.3792467869,
				"y": -4.9138127597,
				"z": -2.8512934507,
				"element": "H" 
			},
			{
				"x": 4.2441316643,
				"y": -6.1527134654,
				"z": -2.2422574082,
				"element": "H" 
			},
			{
				"x": 5.9800315693,
				"y": -6.2582446494,
				"z": -1.8449177991,
				"element": "H" 
			},
			{
				"x": 3.1814228157,
				"y": -4.1107035054,
				"z": -2.7192356678,
				"element": "H" 
			},
			{
				"x": 1.4724238894,
				"y": -2.3881775379,
				"z": -2.3927141425,
				"element": "H" 
			},
			{
				"x": -1.9686370796,
				"y": -1.1901049223,
				"z": -2.9511097786,
				"element": "H" 
			},
			{
				"x": -4.2304402759,
				"y": -1.5215528016,
				"z": -3.9100410037,
				"element": "H" 
			},
			{
				"x": -7.6423713241,
				"y": 0.6020520325,
				"z": -2.0097868657,
				"element": "H" 
			},
			{
				"x": -8.4490180082,
				"y": -0.7422677329,
				"z": -2.8608975959,
				"element": "H" 
			},
			{
				"x": -7.7593494132,
				"y": -1.0053584405,
				"z": -1.2371888513,
				"element": "H" 
			},
			{
				"x": -5.9662467557,
				"y": 0.2501958059,
				"z": -0.3989779357,
				"element": "H" 
			},
			{
				"x": -3.7322453014,
				"y": 0.5469132085,
				"z": 0.5580270371,
				"element": "H" 
			}
		],
		 "valence_orbital": [ 
			{
				"type": "occ",
				"energy": -0.24767,
				"method": "rhf"
			},
			{
				"type": "occ",
				"energy": -0.24736,
				"method": "rhf"
			},
			{
				"type": "occ",
				"energy": -0.21319,
				"method": "rhf"
			},
			{
				"type": "occ",
				"energy": -0.20013,
				"method": "rhf"
			},
			{
				"type": "occ",
				"energy": -0.19927,
				"method": "rhf"
			},
			{
				"type": "unocc",
				"energy": -0.02136,
				"method": "rhf"
			},
			{
				"type": "unocc",
				"energy": -0.02048,
				"method": "rhf"
			},
			{
				"type": "unocc",
				"energy": 0.00043,
				"method": "rhf"
			},
			{
				"type": "unocc",
				"energy": 0.00083,
				"method": "rhf"
			},
			{
				"type": "unocc",
				"energy": 0.00125,
				"method": "rhf"
			}
		],
		"cosmo_sigma_profile": { 
			"-0.025": 0.0,
			"-0.024": 0.0,
			"-0.023": 0.0,
			"-0.022": 0.0,
			"-0.021": 0.0,
			"-0.02": 0.0,
			"-0.019": 0.0,
			"-0.018": 0.0,
			"-0.017": 0.0,
			"-0.016": 0.0,
			"-0.015": 0.0,
			"-0.014": 0.0,
			"-0.013": 0.0,
			"-0.012": 0.0,
			"-0.011": 0.0,
			"-0.01": 0.0,
			"-0.009": 0.0,
			"-0.008": 0.0,
			"-0.007": 0.79085262954,
			"-0.006": 22.1562742826,
			"-0.005": 56.6265677743,
			"-0.004": 50.5876741405,
			"-0.003": 48.5373143346,
			"-0.002": 28.4363068305,
			"-0.001": 23.6498156447,
			"0.0": 23.9228265139,
			"0.001": 20.056592104,
			"0.002": 27.932526273,
			"0.003": 36.7237783776,
			"0.004": 44.2292869156,
			"0.005": 44.867871171,
			"0.006": 16.1535080224,
			"0.007": 3.66752322036,
			"0.008": 5.12858193462,
			"0.009": 4.11525320845,
			"0.01": 4.24777156143,
			"0.011": 1.23627055601,
			"0.012": 0.0,
			"0.013": 0.0,
			"0.014": 0.0,
			"0.015": 0.0,
			"0.016": 0.0,
			"0.017": 0.0,
			"0.018": 0.0,
			"0.019": 0.0,
			"0.02": 0.0,
			"0.021": 0.0,
			"0.022": 0.0,
			"0.023": 0.0,
			"0.024": 0.0,
			"0.025": 0.0
		}
	}
}
