{
	 "smiles": "[O-][N+](=O)C1=CC(=CC=C1)C(=O)CC#N", 
	 "Tm": 423.15, 
	 "num_atms": 20, 
	 "gaussian": { 
		 "optdone": 1, 
		 "sigma_profile": "yes", 
		 "theory": "DFT", 
		 "functional": "B3LYP", 
		 "basiset": "6-31G**", 
		 "properties": { 
			 "R2extent": 3152.4101, 
			 "electric_dipole_moment_norm": 4.55657267362, 
			 "electric_quadrupole_moment_norm": 21.0291589651, 
			 "total_energy": -681.620623272, 
			 "HOMO_LUMO_gap": 0.1814, 
			 "cosmo_polarized_energy": -16.66, 
			 "cosmo_cavitation_energy": 27.08, 
			 "cosmo_dispersion_energy": -18.59, 
			 "cosmo_repulsion_energy": 1.46, 
			 "cosmo_total_nonelectrostatic_energy": 9.96, 
			 "SMD_solvation_energy": 8.87 
		},
		"coords": [
			{
				"x": 1.6955214248,
				"y": -1.1481130112,
				"z": 3.2718277657,
				"element": "O" 
			},
			{
				"x": 1.5739252748,
				"y": 0.0591857023,
				"z": 3.0755477005,
				"element": "N" 
			},
			{
				"x": 1.9050277694,
				"y": 0.9409386342,
				"z": 3.8652147358,
				"element": "O" 
			},
			{
				"x": 0.9907458018,
				"y": 0.4839022005,
				"z": 1.7884101511,
				"element": "C" 
			},
			{
				"x": 0.5642218804,
				"y": -0.4931933499,
				"z": 0.8945907849,
				"element": "C" 
			},
			{
				"x": 0.0254930004,
				"y": -0.0910840343,
				"z": -0.3330626308,
				"element": "C" 
			},
			{
				"x": -0.0736691131,
				"y": 1.2797156916,
				"z": -0.6305506932,
				"element": "C" 
			},
			{
				"x": 0.3523019346,
				"y": 2.2380131284,
				"z": 0.284660629,
				"element": "C" 
			},
			{
				"x": 0.8923539838,
				"y": 1.8450081523,
				"z": 1.5100356425,
				"element": "C" 
			},
			{
				"x": -0.4374357378,
				"y": -1.0618949479,
				"z": -1.3715819125,
				"element": "C" 
			},
			{
				"x": -0.8134243007,
				"y": -0.6925016453,
				"z": -2.466905335,
				"element": "O" 
			},
			{
				"x": -0.411532783,
				"y": -2.577486843,
				"z": -1.0615098721,
				"element": "C" 
			},
			{
				"x": -1.3223184726,
				"y": -2.959425026,
				"z": 0.0175247785,
				"element": "C" 
			},
			{
				"x": -2.0540665376,
				"y": -3.2433231383,
				"z": 0.8725095042,
				"element": "N" 
			},
			{
				"x": 0.6582876164,
				"y": -1.5316071919,
				"z": 1.185192279,
				"element": "H" 
			},
			{
				"x": -0.4906630424,
				"y": 1.5657876649,
				"z": -1.5900856902,
				"element": "H" 
			},
			{
				"x": 0.2677374722,
				"y": 3.2934457745,
				"z": 0.0475332364,
				"element": "H" 
			},
			{
				"x": 1.2359159763,
				"y": 2.5628056631,
				"z": 2.244545006,
				"element": "H" 
			},
			{
				"x": 0.6063368404,
				"y": -2.8922007249,
				"z": -0.8004320848,
				"element": "H" 
			},
			{
				"x": -0.6998589884,
				"y": -3.088472699,
				"z": -1.9835639951,
				"element": "H" 
			}
		],
		 "valence_orbital": [ 
			{
				"type": "occ",
				"energy": -0.32244,
				"method": "rhf"
			},
			{
				"type": "occ",
				"energy": -0.3067,
				"method": "rhf"
			},
			{
				"type": "occ",
				"energy": -0.302,
				"method": "rhf"
			},
			{
				"type": "occ",
				"energy": -0.30055,
				"method": "rhf"
			},
			{
				"type": "occ",
				"energy": -0.2888,
				"method": "rhf"
			},
			{
				"type": "unocc",
				"energy": -0.1074,
				"method": "rhf"
			},
			{
				"type": "unocc",
				"energy": -0.09294,
				"method": "rhf"
			},
			{
				"type": "unocc",
				"energy": -0.0288,
				"method": "rhf"
			},
			{
				"type": "unocc",
				"energy": 0.00299,
				"method": "rhf"
			},
			{
				"type": "unocc",
				"energy": 0.01866,
				"method": "rhf"
			}
		],
		"cosmo_sigma_profile": { 
			"-0.025": 0.0,
			"-0.024": 0.0,
			"-0.023": 0.0,
			"-0.022": 0.0,
			"-0.021": 0.0,
			"-0.02": 0.0,
			"-0.019": 0.0,
			"-0.018": 0.0,
			"-0.017": 0.0,
			"-0.016": 0.0,
			"-0.015": 0.0,
			"-0.014": 0.00266646967247,
			"-0.013": 0.426583507256,
			"-0.012": 1.19436864353,
			"-0.011": 3.59466135016,
			"-0.01": 3.97137180753,
			"-0.009": 4.90294965407,
			"-0.008": 8.72870134078,
			"-0.007": 12.5466874081,
			"-0.006": 12.2937338825,
			"-0.005": 11.4456016636,
			"-0.004": 11.0447857749,
			"-0.003": 11.2182649739,
			"-0.002": 15.8353830442,
			"-0.001": 19.7033774504,
			"0.0": 14.7270159306,
			"0.001": 7.69319689322,
			"0.002": 6.11306001063,
			"0.003": 5.19481187354,
			"0.004": 4.86837460549,
			"0.005": 7.8343825033,
			"0.006": 8.25397659026,
			"0.007": 13.718366762,
			"0.008": 10.0950063627,
			"0.009": 9.83408074461,
			"0.01": 7.51651467842,
			"0.011": 3.37438813979,
			"0.012": 2.21565242525,
			"0.013": 0.763924901494,
			"0.014": 0.0,
			"0.015": 0.0,
			"0.016": 0.0,
			"0.017": 0.0,
			"0.018": 0.0,
			"0.019": 0.0,
			"0.02": 0.0,
			"0.021": 0.0,
			"0.022": 0.0,
			"0.023": 0.0,
			"0.024": 0.0,
			"0.025": 0.0
		}
	}
}
