{
	 "smiles": "CN(C)C1=CC2=CC3=CC=CC=C3C(=O)N2C=C1", 
	 "Tm": 430.15, 
	 "num_atms": 32, 
	 "gaussian": { 
		 "optdone": 1, 
		 "sigma_profile": "yes", 
		 "theory": "DFT", 
		 "functional": "B3LYP", 
		 "basiset": "6-31G**", 
		 "properties": { 
			 "R2extent": 5712.8626, 
			 "electric_dipole_moment_norm": 6.13019167319, 
			 "electric_quadrupole_moment_norm": 22.0983817695, 
			 "total_energy": -764.77383123, 
			 "HOMO_LUMO_gap": 0.124, 
			 "cosmo_polarized_energy": -13.13, 
			 "cosmo_cavitation_energy": 34.46, 
			 "cosmo_dispersion_energy": -25.69, 
			 "cosmo_repulsion_energy": 1.9, 
			 "cosmo_total_nonelectrostatic_energy": 10.66, 
			 "SMD_solvation_energy": 6.06 
		},
		"coords": [
			{
				"x": -1.2245550962,
				"y": 1.9148111898,
				"z": 4.4413742264,
				"element": "C" 
			},
			{
				"x": -1.4339371965,
				"y": 1.819470128,
				"z": 3.0029229529,
				"element": "N" 
			},
			{
				"x": -2.0751682047,
				"y": 2.9300697603,
				"z": 2.3188404824,
				"element": "C" 
			},
			{
				"x": -0.7564870464,
				"y": 0.8796039901,
				"z": 2.2554816042,
				"element": "C" 
			},
			{
				"x": -0.7494183512,
				"y": 0.8823117763,
				"z": 0.8725785261,
				"element": "C" 
			},
			{
				"x": -0.0765438318,
				"y": -0.1115239186,
				"z": 0.0987826827,
				"element": "C" 
			},
			{
				"x": -0.0686466216,
				"y": -0.1272379363,
				"z": -1.2820430214,
				"element": "C" 
			},
			{
				"x": 0.618079065,
				"y": -1.1353967728,
				"z": -2.0038233844,
				"element": "C" 
			},
			{
				"x": 0.6423805156,
				"y": -1.177724637,
				"z": -3.4242630503,
				"element": "C" 
			},
			{
				"x": 1.3218261291,
				"y": -2.176103246,
				"z": -4.0918725316,
				"element": "C" 
			},
			{
				"x": 2.0122144156,
				"y": -3.1839432459,
				"z": -3.3816166794,
				"element": "C" 
			},
			{
				"x": 2.0060544224,
				"y": -3.1684282745,
				"z": -2.0004596299,
				"element": "C" 
			},
			{
				"x": 1.3174816878,
				"y": -2.1566015678,
				"z": -1.2989044648,
				"element": "C" 
			},
			{
				"x": 1.3402163003,
				"y": -2.1827475662,
				"z": 0.1527875172,
				"element": "C" 
			},
			{
				"x": 1.9154896509,
				"y": -3.0195968817,
				"z": 0.8458458179,
				"element": "O" 
			},
			{
				"x": 0.6150842181,
				"y": -1.1200910017,
				"z": 0.7990602433,
				"element": "N" 
			},
			{
				"x": 0.6244636704,
				"y": -1.116283674,
				"z": 2.1805747964,
				"element": "C" 
			},
			{
				"x": -0.0173400435,
				"y": -0.177489307,
				"z": 2.9118444214,
				"element": "C" 
			},
			{
				"x": -1.4782533446,
				"y": 0.9758766563,
				"z": 4.9443328337,
				"element": "H" 
			},
			{
				"x": -0.1910701309,
				"y": 2.180686987,
				"z": 4.7070002031,
				"element": "H" 
			},
			{
				"x": -1.8845781217,
				"y": 2.6849810355,
				"z": 4.8424642326,
				"element": "H" 
			},
			{
				"x": -2.611281924,
				"y": 3.5413588202,
				"z": 3.0457197746,
				"element": "H" 
			},
			{
				"x": -1.3540243406,
				"y": 3.571256376,
				"z": 1.7897490886,
				"element": "H" 
			},
			{
				"x": -2.8034504401,
				"y": 2.5639550396,
				"z": 1.5861968156,
				"element": "H" 
			},
			{
				"x": -1.2614765433,
				"y": 1.6486138037,
				"z": 0.30678625,
				"element": "H" 
			},
			{
				"x": -0.6041056028,
				"y": 0.6524162945,
				"z": -1.8119631235,
				"element": "H" 
			},
			{
				"x": 0.114152515,
				"y": -0.4068938925,
				"z": -3.9792215602,
				"element": "H" 
			},
			{
				"x": 1.3260437069,
				"y": -2.1875413192,
				"z": -5.1787500867,
				"element": "H" 
			},
			{
				"x": 2.5423587148,
				"y": -3.962997762,
				"z": -3.9206159547,
				"element": "H" 
			},
			{
				"x": 2.5240737015,
				"y": -3.9244064323,
				"z": -1.4198469985,
				"element": "H" 
			},
			{
				"x": 1.1925036021,
				"y": -1.9317818307,
				"z": 2.6072812376,
				"element": "H" 
			},
			{
				"x": 0.0412145245,
				"y": -0.2408225913,
				"z": 3.9893567784,
				"element": "H" 
			}
		],
		 "valence_orbital": [ 
			{
				"type": "occ",
				"energy": -0.25156,
				"method": "rhf"
			},
			{
				"type": "occ",
				"energy": -0.25109,
				"method": "rhf"
			},
			{
				"type": "occ",
				"energy": -0.2422,
				"method": "rhf"
			},
			{
				"type": "occ",
				"energy": -0.231,
				"method": "rhf"
			},
			{
				"type": "occ",
				"energy": -0.1659,
				"method": "rhf"
			},
			{
				"type": "unocc",
				"energy": -0.0419,
				"method": "rhf"
			},
			{
				"type": "unocc",
				"energy": -0.02259,
				"method": "rhf"
			},
			{
				"type": "unocc",
				"energy": 0.00208,
				"method": "rhf"
			},
			{
				"type": "unocc",
				"energy": 0.05705,
				"method": "rhf"
			},
			{
				"type": "unocc",
				"energy": 0.07362,
				"method": "rhf"
			}
		],
		"cosmo_sigma_profile": { 
			"-0.025": 0.0,
			"-0.024": 0.0,
			"-0.023": 0.0,
			"-0.022": 0.0,
			"-0.021": 0.0,
			"-0.02": 0.0,
			"-0.019": 0.0,
			"-0.018": 0.0,
			"-0.017": 0.0,
			"-0.016": 0.0,
			"-0.015": 0.0,
			"-0.014": 0.0,
			"-0.013": 0.0,
			"-0.012": 0.0,
			"-0.011": 0.0,
			"-0.01": 0.0,
			"-0.009": 0.0,
			"-0.008": 1.10751811989,
			"-0.007": 5.76705704913,
			"-0.006": 13.9032078188,
			"-0.005": 23.2335103159,
			"-0.004": 25.9928798515,
			"-0.003": 25.8236396912,
			"-0.002": 25.9108478428,
			"-0.001": 21.4031938897,
			"0.0": 17.0242976107,
			"0.001": 15.9204868309,
			"0.002": 16.8645599064,
			"0.003": 20.1745773121,
			"0.004": 20.986374623,
			"0.005": 19.4817738702,
			"0.006": 5.88853654914,
			"0.007": 1.75514653667,
			"0.008": 1.90679462494,
			"0.009": 0.651239290237,
			"0.01": 1.52980503681,
			"0.011": 2.31230331008,
			"0.012": 1.71542685206,
			"0.013": 4.27523853789,
			"0.014": 1.69483399986,
			"0.015": 0.0,
			"0.016": 0.0,
			"0.017": 0.0,
			"0.018": 0.0,
			"0.019": 0.0,
			"0.02": 0.0,
			"0.021": 0.0,
			"0.022": 0.0,
			"0.023": 0.0,
			"0.024": 0.0,
			"0.025": 0.0
		}
	}
}
