{
	 "smiles": "NC(=O)C1=CC(N)=C(C=C1)N1CCSCC1", 
	 "Tm": 470.15, 
	 "num_atms": 31, 
	 "gaussian": { 
		 "optdone": 1, 
		 "sigma_profile": "yes", 
		 "theory": "DFT", 
		 "functional": "B3LYP", 
		 "basiset": "6-31G**", 
		 "properties": { 
			 "R2extent": 5890.0192, 
			 "electric_dipole_moment_norm": 3.88417754615, 
			 "electric_quadrupole_moment_norm": 19.8096750753, 
			 "total_energy": -1065.88730199, 
			 "HOMO_LUMO_gap": 0.1724, 
			 "cosmo_polarized_energy": -19.69, 
			 "cosmo_cavitation_energy": 34.16, 
			 "cosmo_dispersion_energy": -25.46, 
			 "cosmo_repulsion_energy": 1.93, 
			 "cosmo_total_nonelectrostatic_energy": 10.64, 
			 "SMD_solvation_energy": 5.19 
		},
		"coords": [
			{
				"x": -2.8430004746,
				"y": -3.1399759626,
				"z": 1.7638339761,
				"element": "N" 
			},
			{
				"x": -2.4295139872,
				"y": -2.0033020091,
				"z": 2.4263868828,
				"element": "C" 
			},
			{
				"x": -2.7243693179,
				"y": -1.8018387218,
				"z": 3.5984498312,
				"element": "O" 
			},
			{
				"x": -1.5837535667,
				"y": -1.0491451709,
				"z": 1.6371684153,
				"element": "C" 
			},
			{
				"x": -0.8944908828,
				"y": -1.4255401774,
				"z": 0.4769667221,
				"element": "C" 
			},
			{
				"x": -0.1084337651,
				"y": -0.507063754,
				"z": -0.228032252,
				"element": "C" 
			},
			{
				"x": 0.5841875308,
				"y": -0.8697530279,
				"z": -1.385170998,
				"element": "N" 
			},
			{
				"x": -0.0273900259,
				"y": 0.8335828457,
				"z": 0.2315269196,
				"element": "C" 
			},
			{
				"x": -0.7147527605,
				"y": 1.1904717806,
				"z": 1.3980136863,
				"element": "C" 
			},
			{
				"x": -1.4732238839,
				"y": 0.2630561912,
				"z": 2.1075257074,
				"element": "C" 
			},
			{
				"x": 0.7750404441,
				"y": 1.7373227715,
				"z": -0.52773963,
				"element": "N" 
			},
			{
				"x": 0.0985853604,
				"y": 2.2136417786,
				"z": -1.7544786945,
				"element": "C" 
			},
			{
				"x": 0.9563820751,
				"y": 3.2169368198,
				"z": -2.5186327882,
				"element": "C" 
			},
			{
				"x": 1.1157502029,
				"y": 4.8230757668,
				"z": -1.6213271169,
				"element": "S" 
			},
			{
				"x": 0.9892044292,
				"y": 4.1819888452,
				"z": 0.1043056303,
				"element": "C" 
			},
			{
				"x": 1.5424782812,
				"y": 2.7566301239,
				"z": 0.209209144,
				"element": "C" 
			},
			{
				"x": -2.9260246891,
				"y": -3.1282491408,
				"z": 0.7588545471,
				"element": "H" 
			},
			{
				"x": -3.5192065079,
				"y": -3.6985225219,
				"z": 2.2651798577,
				"element": "H" 
			},
			{
				"x": -0.9133358589,
				"y": -2.459114954,
				"z": 0.1403447156,
				"element": "H" 
			},
			{
				"x": 0.800542705,
				"y": -1.8556837801,
				"z": -1.4516856381,
				"element": "H" 
			},
			{
				"x": 1.3995243061,
				"y": -0.2827388521,
				"z": -1.5303896505,
				"element": "H" 
			},
			{
				"x": -0.6563456313,
				"y": 2.2138407462,
				"z": 1.7565334827,
				"element": "H" 
			},
			{
				"x": -1.997205938,
				"y": 0.5376288447,
				"z": 3.0158117178,
				"element": "H" 
			},
			{
				"x": -0.874173997,
				"y": 2.6761147683,
				"z": -1.5222908422,
				"element": "H" 
			},
			{
				"x": -0.1014930643,
				"y": 1.3425363633,
				"z": -2.3883634207,
				"element": "H" 
			},
			{
				"x": 0.487540243,
				"y": 3.4501666161,
				"z": -3.4776939078,
				"element": "H" 
			},
			{
				"x": 1.9487205195,
				"y": 2.8003975051,
				"z": -2.7174955196,
				"element": "H" 
			},
			{
				"x": 1.5788501562,
				"y": 4.8599693942,
				"z": 0.7274319406,
				"element": "H" 
			},
			{
				"x": -0.050770652,
				"y": 4.2301606126,
				"z": 0.4402421091,
				"element": "H" 
			},
			{
				"x": 1.5889127998,
				"y": 2.4516980283,
				"z": 1.2582695276,
				"element": "H" 
			},
			{
				"x": 2.5759659498,
				"y": 2.7648082704,
				"z": -0.1612543548,
				"element": "H" 
			}
		],
		 "valence_orbital": [ 
			{
				"type": "occ",
				"energy": -0.26384,
				"method": "rhf"
			},
			{
				"type": "occ",
				"energy": -0.24391,
				"method": "rhf"
			},
			{
				"type": "occ",
				"energy": -0.22597,
				"method": "rhf"
			},
			{
				"type": "occ",
				"energy": -0.22189,
				"method": "rhf"
			},
			{
				"type": "occ",
				"energy": -0.20204,
				"method": "rhf"
			},
			{
				"type": "unocc",
				"energy": -0.02964,
				"method": "rhf"
			},
			{
				"type": "unocc",
				"energy": 0.00561,
				"method": "rhf"
			},
			{
				"type": "unocc",
				"energy": 0.0335,
				"method": "rhf"
			},
			{
				"type": "unocc",
				"energy": 0.0525,
				"method": "rhf"
			},
			{
				"type": "unocc",
				"energy": 0.06428,
				"method": "rhf"
			}
		],
		"cosmo_sigma_profile": { 
			"-0.025": 0.0,
			"-0.024": 0.0,
			"-0.023": 0.0,
			"-0.022": 0.0,
			"-0.021": 0.0,
			"-0.02": 0.0,
			"-0.019": 0.0,
			"-0.018": 0.0,
			"-0.017": 0.0,
			"-0.016": 0.0,
			"-0.015": 0.0,
			"-0.014": 0.633249073714,
			"-0.013": 2.23527925377,
			"-0.012": 3.40073777725,
			"-0.011": 3.77822520265,
			"-0.01": 4.5903789503,
			"-0.009": 4.6424177734,
			"-0.008": 5.09647003627,
			"-0.007": 5.64985256462,
			"-0.006": 11.0444676877,
			"-0.005": 16.8819309732,
			"-0.004": 21.6423179521,
			"-0.003": 24.7812963676,
			"-0.002": 23.1347795673,
			"-0.001": 15.6838481552,
			"0.0": 12.9933691951,
			"0.001": 12.4828549616,
			"0.002": 13.2342559297,
			"0.003": 12.8212928377,
			"0.004": 11.9457318025,
			"0.005": 15.1398320834,
			"0.006": 11.3184872074,
			"0.007": 5.77938405294,
			"0.008": 4.95164750538,
			"0.009": 4.63038826379,
			"0.01": 5.25217670408,
			"0.011": 3.64355843138,
			"0.012": 2.91189499901,
			"0.013": 4.02625734124,
			"0.014": 5.33236896777,
			"0.015": 0.866486252858,
			"0.016": 0.0,
			"0.017": 0.0,
			"0.018": 0.0,
			"0.019": 0.0,
			"0.02": 0.0,
			"0.021": 0.0,
			"0.022": 0.0,
			"0.023": 0.0,
			"0.024": 0.0,
			"0.025": 0.0
		}
	}
}
