{
	 "smiles": "CNCCC1=CNC2=C1C=CC=C2", 
	 "Tm": 361.15, 
	 "num_atms": 27, 
	 "gaussian": { 
		 "optdone": 1, 
		 "sigma_profile": "yes", 
		 "theory": "DFT", 
		 "functional": "B3LYP", 
		 "basiset": "6-31G**", 
		 "properties": { 
			 "R2extent": 2627.5462, 
			 "electric_dipole_moment_norm": 2.3442742395, 
			 "electric_quadrupole_moment_norm": 9.06787411194, 
			 "total_energy": -537.107386632, 
			 "HOMO_LUMO_gap": 0.18994, 
			 "cosmo_polarized_energy": -10.33, 
			 "cosmo_cavitation_energy": 28.87, 
			 "cosmo_dispersion_energy": -20.79, 
			 "cosmo_repulsion_energy": 1.66, 
			 "cosmo_total_nonelectrostatic_energy": 9.75, 
			 "SMD_solvation_energy": 3.56 
		},
		"coords": [
			{
				"x": 0.7764533667,
				"y": -2.8690079462,
				"z": -0.9400232907,
				"element": "C" 
			},
			{
				"x": -0.567002139,
				"y": -2.6575009491,
				"z": -0.4050272484,
				"element": "N" 
			},
			{
				"x": -0.6152786768,
				"y": -2.3225599067,
				"z": 1.0222197829,
				"element": "C" 
			},
			{
				"x": -0.7949995991,
				"y": -0.81509294,
				"z": 1.3078487053,
				"element": "C" 
			},
			{
				"x": 0.3270857651,
				"y": 0.093715445,
				"z": 0.8877979735,
				"element": "C" 
			},
			{
				"x": 1.3256261473,
				"y": 0.5796842711,
				"z": 1.6957578019,
				"element": "C" 
			},
			{
				"x": 2.1635567693,
				"y": 1.4133480137,
				"z": 0.9743601531,
				"element": "N" 
			},
			{
				"x": 1.7089963808,
				"y": 1.4947635049,
				"z": -0.3256832505,
				"element": "C" 
			},
			{
				"x": 0.5539292216,
				"y": 0.6691641574,
				"z": -0.4187849513,
				"element": "C" 
			},
			{
				"x": -0.1102303227,
				"y": 0.5693704362,
				"z": -1.6549105994,
				"element": "C" 
			},
			{
				"x": 0.3755014629,
				"y": 1.2873932862,
				"z": -2.7405773881,
				"element": "C" 
			},
			{
				"x": 1.5196572147,
				"y": 2.1042859683,
				"z": -2.623061464,
				"element": "C" 
			},
			{
				"x": 2.203272271,
				"y": 2.2170676186,
				"z": -1.4178122589,
				"element": "C" 
			},
			{
				"x": 1.3364307943,
				"y": -1.9314014713,
				"z": -0.9242472673,
				"element": "H" 
			},
			{
				"x": 1.3639371778,
				"y": -3.6242346147,
				"z": -0.3859910107,
				"element": "H" 
			},
			{
				"x": 0.7037298137,
				"y": -3.1913728348,
				"z": -1.9836140923,
				"element": "H" 
			},
			{
				"x": -1.1161942686,
				"y": -3.494821507,
				"z": -0.5669868138,
				"element": "H" 
			},
			{
				"x": -1.475802131,
				"y": -2.8380890426,
				"z": 1.46702508,
				"element": "H" 
			},
			{
				"x": 0.279635919,
				"y": -2.6876227822,
				"z": 1.5558507153,
				"element": "H" 
			},
			{
				"x": -0.9530751225,
				"y": -0.7061065597,
				"z": 2.3892173277,
				"element": "H" 
			},
			{
				"x": -1.7245093052,
				"y": -0.4931230477,
				"z": 0.8226254086,
				"element": "H" 
			},
			{
				"x": 1.5030751128,
				"y": 0.4045271089,
				"z": 2.7482232448,
				"element": "H" 
			},
			{
				"x": 2.9547818794,
				"y": 1.9095015948,
				"z": 1.3493024039,
				"element": "H" 
			},
			{
				"x": -0.9713315187,
				"y": -0.0841073173,
				"z": -1.7539500285,
				"element": "H" 
			},
			{
				"x": -0.1288011045,
				"y": 1.2172231779,
				"z": -3.7001905859,
				"element": "H" 
			},
			{
				"x": 1.8757686815,
				"y": 2.652617732,
				"z": -3.4905969816,
				"element": "H" 
			},
			{
				"x": 3.0870862101,
				"y": 2.8430786047,
				"z": -1.3284713655,
				"element": "H" 
			}
		],
		 "valence_orbital": [ 
			{
				"type": "occ",
				"energy": -0.31562,
				"method": "rhf"
			},
			{
				"type": "occ",
				"energy": -0.25951,
				"method": "rhf"
			},
			{
				"type": "occ",
				"energy": -0.21413,
				"method": "rhf"
			},
			{
				"type": "occ",
				"energy": -0.21015,
				"method": "rhf"
			},
			{
				"type": "occ",
				"energy": -0.18854,
				"method": "rhf"
			},
			{
				"type": "unocc",
				"energy": 0.0014,
				"method": "rhf"
			},
			{
				"type": "unocc",
				"energy": 0.03776,
				"method": "rhf"
			},
			{
				"type": "unocc",
				"energy": 0.06826,
				"method": "rhf"
			},
			{
				"type": "unocc",
				"energy": 0.0861,
				"method": "rhf"
			},
			{
				"type": "unocc",
				"energy": 0.09772,
				"method": "rhf"
			}
		],
		"cosmo_sigma_profile": { 
			"-0.025": 0.0,
			"-0.024": 0.0,
			"-0.023": 0.0,
			"-0.022": 0.0,
			"-0.021": 0.0,
			"-0.02": 0.0,
			"-0.019": 0.0,
			"-0.018": 0.0,
			"-0.017": 0.0,
			"-0.016": 0.00331853161808,
			"-0.015": 1.37073315257,
			"-0.014": 1.38883708297,
			"-0.013": 1.39192220801,
			"-0.012": 0.979102424107,
			"-0.011": 1.1187488965,
			"-0.01": 1.76767110648,
			"-0.009": 2.9683552321,
			"-0.008": 2.86994481147,
			"-0.007": 4.43209374247,
			"-0.006": 5.85776078179,
			"-0.005": 7.45360383581,
			"-0.004": 10.8563908287,
			"-0.003": 16.7619966611,
			"-0.002": 21.4757022039,
			"-0.001": 24.8333479798,
			"0.0": 25.8248649086,
			"0.001": 16.8916488556,
			"0.002": 10.5263128902,
			"0.003": 10.7152981121,
			"0.004": 11.9048442669,
			"0.005": 14.7421677079,
			"0.006": 13.5389643244,
			"0.007": 9.17330270419,
			"0.008": 4.05294495243,
			"0.009": 0.931767363327,
			"0.01": 1.37154531713,
			"0.011": 0.659787268252,
			"0.012": 0.823081229564,
			"0.013": 0.491160091143,
			"0.014": 0.0006015728397,
			"0.015": 0.0,
			"0.016": 0.0,
			"0.017": 0.0,
			"0.018": 0.0,
			"0.019": 0.0,
			"0.02": 0.0,
			"0.021": 0.0,
			"0.022": 0.0,
			"0.023": 0.0,
			"0.024": 0.0,
			"0.025": 0.0
		}
	}
}
