{
	 "smiles": "OCC1=CC=C(S1)C1=CC=CO1", 
	 "Tm": 329.65, 
	 "num_atms": 20, 
	 "gaussian": { 
		 "optdone": 1, 
		 "sigma_profile": "yes", 
		 "theory": "DFT", 
		 "functional": "B3LYP", 
		 "basiset": "6-31G**", 
		 "properties": { 
			 "R2extent": 3534.6022, 
			 "electric_dipole_moment_norm": 1.68967713484, 
			 "electric_quadrupole_moment_norm": 10.6897821881, 
			 "total_energy": -896.366178478, 
			 "HOMO_LUMO_gap": 0.15728, 
			 "cosmo_polarized_energy": -9.23, 
			 "cosmo_cavitation_energy": 26.21, 
			 "cosmo_dispersion_energy": -19.75, 
			 "cosmo_repulsion_energy": 1.53, 
			 "cosmo_total_nonelectrostatic_energy": 7.98, 
			 "SMD_solvation_energy": 5.11 
		},
		"coords": [
			{
				"x": -3.8383217575,
				"y": 1.7628562924,
				"z": 1.0181228182,
				"element": "O" 
			},
			{
				"x": -4.0213433633,
				"y": 1.1945701436,
				"z": -0.2729531868,
				"element": "C" 
			},
			{
				"x": -2.9949640093,
				"y": 0.1570684256,
				"z": -0.6222313992,
				"element": "C" 
			},
			{
				"x": -3.1830402667,
				"y": -1.0887021427,
				"z": -1.1625167722,
				"element": "C" 
			},
			{
				"x": -1.9730244656,
				"y": -1.8005187016,
				"z": -1.3963693149,
				"element": "C" 
			},
			{
				"x": -0.8524562264,
				"y": -1.0935449379,
				"z": -1.0202173333,
				"element": "C" 
			},
			{
				"x": -1.2909440171,
				"y": 0.4728448288,
				"z": -0.3709197526,
				"element": "S" 
			},
			{
				"x": 0.5269245598,
				"y": -1.5119933888,
				"z": -1.0926270439,
				"element": "C" 
			},
			{
				"x": 1.7225690986,
				"y": -0.9131814249,
				"z": -0.7827646938,
				"element": "C" 
			},
			{
				"x": 2.7463160107,
				"y": -1.8632483888,
				"z": -1.0869985701,
				"element": "C" 
			},
			{
				"x": 2.1093670911,
				"y": -2.9700100313,
				"z": -1.5604275942,
				"element": "C" 
			},
			{
				"x": 0.7597900733,
				"y": -2.7762974257,
				"z": -1.5709601418,
				"element": "O" 
			},
			{
				"x": -3.8025254351,
				"y": 1.0341963043,
				"z": 1.6527610652,
				"element": "H" 
			},
			{
				"x": -5.0181928701,
				"y": 0.740225153,
				"z": -0.3888001356,
				"element": "H" 
			},
			{
				"x": -3.9722358015,
				"y": 2.0437456801,
				"z": -0.964289364,
				"element": "H" 
			},
			{
				"x": -4.1670158181,
				"y": -1.4847294575,
				"z": -1.391828003,
				"element": "H" 
			},
			{
				"x": -1.9201278074,
				"y": -2.7978687753,
				"z": -1.815226939,
				"element": "H" 
			},
			{
				"x": 1.8541707542,
				"y": 0.0841657734,
				"z": -0.3883755346,
				"element": "H" 
			},
			{
				"x": 3.8126064436,
				"y": -1.7354591927,
				"z": -0.96905525,
				"element": "H" 
			},
			{
				"x": 2.4476478067,
				"y": -3.9310187341,
				"z": -1.9150228544,
				"element": "H" 
			}
		],
		 "valence_orbital": [ 
			{
				"type": "occ",
				"energy": -0.2864,
				"method": "rhf"
			},
			{
				"type": "occ",
				"energy": -0.28074,
				"method": "rhf"
			},
			{
				"type": "occ",
				"energy": -0.26647,
				"method": "rhf"
			},
			{
				"type": "occ",
				"energy": -0.25187,
				"method": "rhf"
			},
			{
				"type": "occ",
				"energy": -0.19795,
				"method": "rhf"
			},
			{
				"type": "unocc",
				"energy": -0.04067,
				"method": "rhf"
			},
			{
				"type": "unocc",
				"energy": 0.02678,
				"method": "rhf"
			},
			{
				"type": "unocc",
				"energy": 0.02906,
				"method": "rhf"
			},
			{
				"type": "unocc",
				"energy": 0.06011,
				"method": "rhf"
			},
			{
				"type": "unocc",
				"energy": 0.07591,
				"method": "rhf"
			}
		],
		"cosmo_sigma_profile": { 
			"-0.025": 0.0,
			"-0.024": 0.0,
			"-0.023": 0.0,
			"-0.022": 0.0,
			"-0.021": 0.0,
			"-0.02": 0.0,
			"-0.019": 0.0,
			"-0.018": 0.0,
			"-0.017": 0.0,
			"-0.016": 0.125279348454,
			"-0.015": 1.07127830495,
			"-0.014": 0.834386791053,
			"-0.013": 0.905180668983,
			"-0.012": 0.797344913936,
			"-0.011": 0.937890573584,
			"-0.01": 0.63385021938,
			"-0.009": 2.20103575058,
			"-0.008": 2.34159644479,
			"-0.007": 7.37744088703,
			"-0.006": 11.492703964,
			"-0.005": 15.2100457458,
			"-0.004": 14.9079531889,
			"-0.003": 12.7226286812,
			"-0.002": 11.8682835011,
			"-0.001": 9.44979821771,
			"0.0": 11.2917066743,
			"0.001": 12.7560132782,
			"0.002": 17.2700045474,
			"0.003": 24.9206424109,
			"0.004": 22.3799696265,
			"0.005": 14.5437346588,
			"0.006": 3.9656223406,
			"0.007": 2.10379197242,
			"0.008": 1.15176033914,
			"0.009": 1.15502852464,
			"0.01": 1.50355011041,
			"0.011": 1.14752230646,
			"0.012": 1.07760918284,
			"0.013": 2.22473827928,
			"0.014": 1.37249698278,
			"0.015": 0.0,
			"0.016": 0.0,
			"0.017": 0.0,
			"0.018": 0.0,
			"0.019": 0.0,
			"0.02": 0.0,
			"0.021": 0.0,
			"0.022": 0.0,
			"0.023": 0.0,
			"0.024": 0.0,
			"0.025": 0.0
		}
	}
}
