{
	 "smiles": "O=C(CNC1=CC(=CC=C1)C#C)N1CCOCC1", 
	 "Tm": 459.15, 
	 "num_atms": 34, 
	 "gaussian": { 
		 "optdone": 1, 
		 "sigma_profile": "yes", 
		 "theory": "DFT", 
		 "functional": "B3LYP", 
		 "basiset": "6-31G**", 
		 "properties": { 
			 "R2extent": 7497.1663, 
			 "electric_dipole_moment_norm": 3.70658079907, 
			 "electric_quadrupole_moment_norm": 11.6395753535, 
			 "total_energy": -803.005015, 
			 "HOMO_LUMO_gap": 0.17378, 
			 "cosmo_polarized_energy": -16.09, 
			 "cosmo_cavitation_energy": 37.72, 
			 "cosmo_dispersion_energy": -26.98, 
			 "cosmo_repulsion_energy": 2.08, 
			 "cosmo_total_nonelectrostatic_energy": 12.82, 
			 "SMD_solvation_energy": 6.34 
		},
		"coords": [
			{
				"x": -1.3445554045,
				"y": 0.2718170817,
				"z": 1.3997709439,
				"element": "O" 
			},
			{
				"x": -1.1213335218,
				"y": 0.2393746705,
				"z": 0.1903592676,
				"element": "C" 
			},
			{
				"x": 0.2596050805,
				"y": -0.1656507537,
				"z": -0.3381144783,
				"element": "C" 
			},
			{
				"x": 1.0501373842,
				"y": -0.6292953879,
				"z": 0.7664572146,
				"element": "N" 
			},
			{
				"x": 2.423350576,
				"y": -0.766499855,
				"z": 0.7086500516,
				"element": "C" 
			},
			{
				"x": 3.1235282251,
				"y": -0.7581312106,
				"z": -0.5096065313,
				"element": "C" 
			},
			{
				"x": 4.5200797734,
				"y": -0.9265853323,
				"z": -0.5369741219,
				"element": "C" 
			},
			{
				"x": 5.2323995679,
				"y": -1.1053103605,
				"z": 0.6603841684,
				"element": "C" 
			},
			{
				"x": 4.5338998173,
				"y": -1.1144971423,
				"z": 1.8686072346,
				"element": "C" 
			},
			{
				"x": 3.1549378713,
				"y": -0.9488970152,
				"z": 1.9025812428,
				"element": "C" 
			},
			{
				"x": 5.2086722192,
				"y": -0.9141717079,
				"z": -1.7915253022,
				"element": "C" 
			},
			{
				"x": 5.7908817692,
				"y": -0.9030918329,
				"z": -2.852790516,
				"element": "C" 
			},
			{
				"x": -2.060009663,
				"y": 0.5632950731,
				"z": -0.7466289605,
				"element": "N" 
			},
			{
				"x": -3.388961876,
				"y": 0.9953743162,
				"z": -0.3161800364,
				"element": "C" 
			},
			{
				"x": -3.7470185261,
				"y": 2.3380414877,
				"z": -0.9638399213,
				"element": "C" 
			},
			{
				"x": -3.3429909631,
				"y": 2.4253482765,
				"z": -2.3361086451,
				"element": "O" 
			},
			{
				"x": -3.0086498285,
				"y": 1.1796913214,
				"z": -2.9140387965,
				"element": "C" 
			},
			{
				"x": -1.8108164473,
				"y": 0.5508529871,
				"z": -2.1938418083,
				"element": "C" 
			},
			{
				"x": 0.1486784689,
				"y": -0.9395197045,
				"z": -1.1129252793,
				"element": "H" 
			},
			{
				"x": 0.7117218245,
				"y": 0.7079449625,
				"z": -0.8424279529,
				"element": "H" 
			},
			{
				"x": 0.6211250669,
				"y": -0.4302770035,
				"z": 1.6626353679,
				"element": "H" 
			},
			{
				"x": 2.5980791578,
				"y": -0.6317764441,
				"z": -1.4489652438,
				"element": "H" 
			},
			{
				"x": 6.3085275124,
				"y": -1.2336325748,
				"z": 0.634037101,
				"element": "H" 
			},
			{
				"x": 5.074841785,
				"y": -1.2508921674,
				"z": 2.8008927457,
				"element": "H" 
			},
			{
				"x": 2.6252821918,
				"y": -0.9591009584,
				"z": 2.8517541868,
				"element": "H" 
			},
			{
				"x": 6.3076600987,
				"y": -0.8944273328,
				"z": -3.7839442068,
				"element": "H" 
			},
			{
				"x": -3.3710002502,
				"y": 1.0834533668,
				"z": 0.7704101322,
				"element": "H" 
			},
			{
				"x": -4.12977005,
				"y": 0.2278099808,
				"z": -0.5736284287,
				"element": "H" 
			},
			{
				"x": -4.8319063289,
				"y": 2.5013472689,
				"z": -0.8851254062,
				"element": "H" 
			},
			{
				"x": -3.2414203834,
				"y": 3.1560815307,
				"z": -0.4390400058,
				"element": "H" 
			},
			{
				"x": -3.8655637476,
				"y": 0.4883492143,
				"z": -2.918492442,
				"element": "H" 
			},
			{
				"x": -2.7435873141,
				"y": 1.3775978771,
				"z": -3.9559704785,
				"element": "H" 
			},
			{
				"x": -0.914660758,
				"y": 1.1390799935,
				"z": -2.422311812,
				"element": "H" 
			},
			{
				"x": -1.6497633275,
				"y": -0.471302625,
				"z": -2.5658592831,
				"element": "H" 
			}
		],
		 "valence_orbital": [ 
			{
				"type": "occ",
				"energy": -0.26568,
				"method": "rhf"
			},
			{
				"type": "occ",
				"energy": -0.26423,
				"method": "rhf"
			},
			{
				"type": "occ",
				"energy": -0.25331,
				"method": "rhf"
			},
			{
				"type": "occ",
				"energy": -0.22657,
				"method": "rhf"
			},
			{
				"type": "occ",
				"energy": -0.19266,
				"method": "rhf"
			},
			{
				"type": "unocc",
				"energy": -0.01888,
				"method": "rhf"
			},
			{
				"type": "unocc",
				"energy": 0.01342,
				"method": "rhf"
			},
			{
				"type": "unocc",
				"energy": 0.01922,
				"method": "rhf"
			},
			{
				"type": "unocc",
				"energy": 0.06281,
				"method": "rhf"
			},
			{
				"type": "unocc",
				"energy": 0.06507,
				"method": "rhf"
			}
		],
		"cosmo_sigma_profile": { 
			"-0.025": 0.0,
			"-0.024": 0.0,
			"-0.023": 0.0,
			"-0.022": 0.0,
			"-0.021": 0.0,
			"-0.02": 0.0,
			"-0.019": 0.0,
			"-0.018": 0.0,
			"-0.017": 0.0,
			"-0.016": 0.0,
			"-0.015": 0.0,
			"-0.014": 0.0,
			"-0.013": 0.0,
			"-0.012": 0.406901826231,
			"-0.011": 1.15592059079,
			"-0.01": 2.22449779813,
			"-0.009": 1.39229233775,
			"-0.008": 2.71496302618,
			"-0.007": 6.6450965119,
			"-0.006": 23.4050654469,
			"-0.005": 37.1110337404,
			"-0.004": 28.3518837449,
			"-0.003": 21.5436854635,
			"-0.002": 17.0380282721,
			"-0.001": 15.3955366811,
			"0.0": 12.5161162077,
			"0.001": 13.5562432397,
			"0.002": 11.7406815299,
			"0.003": 15.2555780787,
			"0.004": 18.697408898,
			"0.005": 21.6931636347,
			"0.006": 17.6768694236,
			"0.007": 10.1582161164,
			"0.008": 3.16161915546,
			"0.009": 2.17554810243,
			"0.01": 3.0399709889,
			"0.011": 3.29337406596,
			"0.012": 4.00185282023,
			"0.013": 4.9170315856,
			"0.014": 0.263612817917,
			"0.015": 0.0,
			"0.016": 0.0,
			"0.017": 0.0,
			"0.018": 0.0,
			"0.019": 0.0,
			"0.02": 0.0,
			"0.021": 0.0,
			"0.022": 0.0,
			"0.023": 0.0,
			"0.024": 0.0,
			"0.025": 0.0
		}
	}
}
