{
	 "smiles": "CCOC(=O)C1=CSC(=N1)C1COC2=CC=CC=C2O1", 
	 "Tm": 341.35, 
	 "num_atms": 33, 
	 "gaussian": { 
		 "optdone": 1, 
		 "sigma_profile": "yes", 
		 "theory": "DFT", 
		 "functional": "B3LYP", 
		 "basiset": "6-31G**", 
		 "properties": { 
			 "R2extent": 7759.7092, 
			 "electric_dipole_moment_norm": 2.13969553442, 
			 "electric_quadrupole_moment_norm": 10.7745805779, 
			 "total_energy": -1295.14330278, 
			 "HOMO_LUMO_gap": 0.16687, 
			 "cosmo_polarized_energy": -14.4, 
			 "cosmo_cavitation_energy": 39.05, 
			 "cosmo_dispersion_energy": -28.44, 
			 "cosmo_repulsion_energy": 2.17, 
			 "cosmo_total_nonelectrostatic_energy": 12.78, 
			 "SMD_solvation_energy": 6.43 
		},
		"coords": [
			{
				"x": 4.3497011552,
				"y": -0.1276528414,
				"z": -3.7298662042,
				"element": "C" 
			},
			{
				"x": 4.7754113639,
				"y": -0.6475976972,
				"z": -2.3649325028,
				"element": "C" 
			},
			{
				"x": 3.6298995336,
				"y": -1.0078248277,
				"z": -1.5567105747,
				"element": "O" 
			},
			{
				"x": 3.051013627,
				"y": -0.0020740866,
				"z": -0.8561064029,
				"element": "C" 
			},
			{
				"x": 3.4334058909,
				"y": 1.147540077,
				"z": -0.8623472993,
				"element": "O" 
			},
			{
				"x": 1.8899346715,
				"y": -0.5049760034,
				"z": -0.0751012925,
				"element": "C" 
			},
			{
				"x": 1.4567824278,
				"y": -1.806686555,
				"z": -0.0430645952,
				"element": "C" 
			},
			{
				"x": 0.0815544341,
				"y": -1.9566604219,
				"z": 0.9853356408,
				"element": "S" 
			},
			{
				"x": 0.1869014632,
				"y": -0.2249735757,
				"z": 1.2971914392,
				"element": "C" 
			},
			{
				"x": 1.1600816563,
				"y": 0.3782300167,
				"z": 0.6910373388,
				"element": "N" 
			},
			{
				"x": -0.7563899326,
				"y": 0.4651330815,
				"z": 2.2589349011,
				"element": "C" 
			},
			{
				"x": -1.25808089,
				"y": 1.8038522758,
				"z": 1.714145478,
				"element": "C" 
			},
			{
				"x": -2.0953046873,
				"y": 1.6084551657,
				"z": 0.5803111788,
				"element": "O" 
			},
			{
				"x": -3.0691640014,
				"y": 0.6599896373,
				"z": 0.7742280092,
				"element": "C" 
			},
			{
				"x": -4.1923805439,
				"y": 0.6704267599,
				"z": -0.0540465618,
				"element": "C" 
			},
			{
				"x": -5.1938929312,
				"y": -0.2840885194,
				"z": 0.1140495476,
				"element": "C" 
			},
			{
				"x": -5.0807388032,
				"y": -1.24815371,
				"z": 1.1201150605,
				"element": "C" 
			},
			{
				"x": -3.9572052276,
				"y": -1.2674135695,
				"z": 1.9450644284,
				"element": "C" 
			},
			{
				"x": -2.9483940097,
				"y": -0.3206588305,
				"z": 1.7697495276,
				"element": "C" 
			},
			{
				"x": -1.8465524146,
				"y": -0.3892964502,
				"z": 2.6029777754,
				"element": "O" 
			},
			{
				"x": 5.2345300475,
				"y": 0.065567944,
				"z": -4.3455778606,
				"element": "H" 
			},
			{
				"x": 3.7233819779,
				"y": -0.8595071013,
				"z": -4.2485049083,
				"element": "H" 
			},
			{
				"x": 3.7926647097,
				"y": 0.8067078538,
				"z": -3.6276001937,
				"element": "H" 
			},
			{
				"x": 5.3651946164,
				"y": 0.0977409357,
				"z": -1.8261063229,
				"element": "H" 
			},
			{
				"x": 5.3494562353,
				"y": -1.5735454783,
				"z": -2.4492486704,
				"element": "H" 
			},
			{
				"x": 1.8721550271,
				"y": -2.6517398533,
				"z": -0.5711759835,
				"element": "H" 
			},
			{
				"x": -0.2207072244,
				"y": 0.6463610416,
				"z": 3.1985815757,
				"element": "H" 
			},
			{
				"x": -0.4150296215,
				"y": 2.4119788136,
				"z": 1.3847305898,
				"element": "H" 
			},
			{
				"x": -1.8113495269,
				"y": 2.3254411281,
				"z": 2.5069187409,
				"element": "H" 
			},
			{
				"x": -4.2569324446,
				"y": 1.4373670538,
				"z": -0.8191903807,
				"element": "H" 
			},
			{
				"x": -6.0643521557,
				"y": -0.2688612575,
				"z": -0.5343241012,
				"element": "H" 
			},
			{
				"x": -5.8620150949,
				"y": -1.9885285749,
				"z": 1.2604303852,
				"element": "H" 
			},
			{
				"x": -3.8374793279,
				"y": -2.0099524307,
				"z": 2.7276022378,
				"element": "H" 
			}
		],
		 "valence_orbital": [ 
			{
				"type": "occ",
				"energy": -0.28691,
				"method": "rhf"
			},
			{
				"type": "occ",
				"energy": -0.27252,
				"method": "rhf"
			},
			{
				"type": "occ",
				"energy": -0.25684,
				"method": "rhf"
			},
			{
				"type": "occ",
				"energy": -0.23853,
				"method": "rhf"
			},
			{
				"type": "occ",
				"energy": -0.21603,
				"method": "rhf"
			},
			{
				"type": "unocc",
				"energy": -0.04916,
				"method": "rhf"
			},
			{
				"type": "unocc",
				"energy": -0.01582,
				"method": "rhf"
			},
			{
				"type": "unocc",
				"energy": 0.00113,
				"method": "rhf"
			},
			{
				"type": "unocc",
				"energy": 0.01263,
				"method": "rhf"
			},
			{
				"type": "unocc",
				"energy": 0.01521,
				"method": "rhf"
			}
		],
		"cosmo_sigma_profile": { 
			"-0.025": 0.0,
			"-0.024": 0.0,
			"-0.023": 0.0,
			"-0.022": 0.0,
			"-0.021": 0.0,
			"-0.02": 0.0,
			"-0.019": 0.0,
			"-0.018": 0.0,
			"-0.017": 0.0,
			"-0.016": 0.0,
			"-0.015": 0.0,
			"-0.014": 0.0,
			"-0.013": 0.0,
			"-0.012": 0.0,
			"-0.011": 0.119303325799,
			"-0.01": 1.32436924122,
			"-0.009": 4.55089016649,
			"-0.008": 4.52855587021,
			"-0.007": 8.78898476544,
			"-0.006": 14.9081032188,
			"-0.005": 19.3285795525,
			"-0.004": 24.2557571237,
			"-0.003": 25.2836213382,
			"-0.002": 25.1362119324,
			"-0.001": 25.1312926124,
			"0.0": 30.8645407083,
			"0.001": 26.4035576192,
			"0.002": 18.7234754659,
			"0.003": 16.916921802,
			"0.004": 15.5786674368,
			"0.005": 15.1081686857,
			"0.006": 8.16652007601,
			"0.007": 4.3472922731,
			"0.008": 3.9585221788,
			"0.009": 4.32554792595,
			"0.01": 4.33144218403,
			"0.011": 3.58252105773,
			"0.012": 3.87354961022,
			"0.013": 1.82161141915,
			"0.014": 1.58597440347,
			"0.015": 0.783099975714,
			"0.016": 0.00945397685879,
			"0.017": 0.0,
			"0.018": 0.0,
			"0.019": 0.0,
			"0.02": 0.0,
			"0.021": 0.0,
			"0.022": 0.0,
			"0.023": 0.0,
			"0.024": 0.0,
			"0.025": 0.0
		}
	}
}
