{
	 "smiles": "CCC1=CC2=CC=CC=C2C2=CC=CC=C12", 
	 "Tm": 335.65, 
	 "num_atms": 30, 
	 "gaussian": { 
		 "optdone": 1, 
		 "sigma_profile": "yes", 
		 "theory": "DFT", 
		 "functional": "B3LYP", 
		 "basiset": "6-31G**", 
		 "properties": { 
			 "R2extent": 4223.9913, 
			 "electric_dipole_moment_norm": 0.326151590522, 
			 "electric_quadrupole_moment_norm": 11.3555296706, 
			 "total_energy": -618.17555512, 
			 "HOMO_LUMO_gap": 0.17177, 
			 "cosmo_polarized_energy": -5.84, 
			 "cosmo_cavitation_energy": 31.81, 
			 "cosmo_dispersion_energy": -23.51, 
			 "cosmo_repulsion_energy": 1.78, 
			 "cosmo_total_nonelectrostatic_energy": 10.08, 
			 "SMD_solvation_energy": 4.77 
		},
		"coords": [
			{
				"x": 2.4761131618,
				"y": -3.5554333984,
				"z": -0.043529667,
				"element": "C" 
			},
			{
				"x": 2.7587445667,
				"y": -2.5594028434,
				"z": -1.1845293226,
				"element": "C" 
			},
			{
				"x": 2.0632622886,
				"y": -1.2240642699,
				"z": -1.0103848453,
				"element": "C" 
			},
			{
				"x": 2.7651172311,
				"y": -0.1553100878,
				"z": -0.5323729616,
				"element": "C" 
			},
			{
				"x": 2.17225622,
				"y": 1.1273619389,
				"z": -0.2990169309,
				"element": "C" 
			},
			{
				"x": 2.9456151742,
				"y": 2.1999616419,
				"z": 0.2043539857,
				"element": "C" 
			},
			{
				"x": 2.3797382441,
				"y": 3.4379574917,
				"z": 0.4362057043,
				"element": "C" 
			},
			{
				"x": 1.0124189078,
				"y": 3.6371708234,
				"z": 0.1675670445,
				"element": "C" 
			},
			{
				"x": 0.2383562163,
				"y": 2.602403655,
				"z": -0.3264704219,
				"element": "C" 
			},
			{
				"x": 0.7891836008,
				"y": 1.3230132406,
				"z": -0.5751238527,
				"element": "C" 
			},
			{
				"x": 0.0169370089,
				"y": 0.203790498,
				"z": -1.0993998793,
				"element": "C" 
			},
			{
				"x": -1.3573673606,
				"y": 0.3242431434,
				"z": -1.4134251089,
				"element": "C" 
			},
			{
				"x": -2.0856245203,
				"y": -0.7378602135,
				"z": -1.9156219871,
				"element": "C" 
			},
			{
				"x": -1.4600626551,
				"y": -1.9775429311,
				"z": -2.1297491389,
				"element": "C" 
			},
			{
				"x": -0.118996271,
				"y": -2.1283595337,
				"z": -1.8330850402,
				"element": "C" 
			},
			{
				"x": 0.6533051774,
				"y": -1.0597652424,
				"z": -1.3137654861,
				"element": "C" 
			},
			{
				"x": 1.4080564611,
				"y": -3.7742380723,
				"z": 0.0467384997,
				"element": "H" 
			},
			{
				"x": 3.0028681928,
				"y": -4.5004238552,
				"z": -0.2133718607,
				"element": "H" 
			},
			{
				"x": 2.8107187097,
				"y": -3.147188279,
				"z": 0.9152787707,
				"element": "H" 
			},
			{
				"x": 2.4819401861,
				"y": -3.0121177751,
				"z": -2.14420164,
				"element": "H" 
			},
			{
				"x": 3.8384400565,
				"y": -2.381536674,
				"z": -1.2376105521,
				"element": "H" 
			},
			{
				"x": 3.8243782707,
				"y": -0.2684849938,
				"z": -0.3102287552,
				"element": "H" 
			},
			{
				"x": 4.0000167022,
				"y": 2.03049283,
				"z": 0.4078742624,
				"element": "H" 
			},
			{
				"x": 2.9836223864,
				"y": 4.2533926467,
				"z": 0.8235835183,
				"element": "H" 
			},
			{
				"x": 0.5605804934,
				"y": 4.6082539136,
				"z": 0.3483394234,
				"element": "H" 
			},
			{
				"x": -0.8114945145,
				"y": 2.7893273238,
				"z": -0.5223153772,
				"element": "H" 
			},
			{
				"x": -1.8614658407,
				"y": 1.2718552587,
				"z": -1.2615587663,
				"element": "H" 
			},
			{
				"x": -3.1393734233,
				"y": -0.610759046,
				"z": -2.1462962764,
				"element": "H" 
			},
			{
				"x": -2.0266327595,
				"y": -2.8143204481,
				"z": -2.5279453117,
				"element": "H" 
			},
			{
				"x": 0.3524480882,
				"y": -3.089216742,
				"z": -2.0053380272,
				"element": "H" 
			}
		],
		 "valence_orbital": [ 
			{
				"type": "occ",
				"energy": -0.30178,
				"method": "rhf"
			},
			{
				"type": "occ",
				"energy": -0.27883,
				"method": "rhf"
			},
			{
				"type": "occ",
				"energy": -0.25661,
				"method": "rhf"
			},
			{
				"type": "occ",
				"energy": -0.22015,
				"method": "rhf"
			},
			{
				"type": "occ",
				"energy": -0.20707,
				"method": "rhf"
			},
			{
				"type": "unocc",
				"energy": -0.0353,
				"method": "rhf"
			},
			{
				"type": "unocc",
				"energy": -0.02971,
				"method": "rhf"
			},
			{
				"type": "unocc",
				"energy": 0.00927,
				"method": "rhf"
			},
			{
				"type": "unocc",
				"energy": 0.03849,
				"method": "rhf"
			},
			{
				"type": "unocc",
				"energy": 0.07784,
				"method": "rhf"
			}
		],
		"cosmo_sigma_profile": { 
			"-0.025": 0.0,
			"-0.024": 0.0,
			"-0.023": 0.0,
			"-0.022": 0.0,
			"-0.021": 0.0,
			"-0.02": 0.0,
			"-0.019": 0.0,
			"-0.018": 0.0,
			"-0.017": 0.0,
			"-0.016": 0.0,
			"-0.015": 0.0,
			"-0.014": 0.0,
			"-0.013": 0.0,
			"-0.012": 0.0,
			"-0.011": 0.0,
			"-0.01": 0.0,
			"-0.009": 0.0152431045674,
			"-0.008": 1.0081012973,
			"-0.007": 1.67026488085,
			"-0.006": 8.0871850587,
			"-0.005": 18.4291563351,
			"-0.004": 21.2214795255,
			"-0.003": 24.959145884,
			"-0.002": 20.1679521716,
			"-0.001": 23.0776315233,
			"0.0": 21.3104182055,
			"0.001": 19.5787889938,
			"0.002": 16.2961136701,
			"0.003": 19.9952725577,
			"0.004": 28.1714224777,
			"0.005": 23.3153970474,
			"0.006": 6.66494206394,
			"0.007": 0.0,
			"0.008": 0.0,
			"0.009": 0.0,
			"0.01": 0.0,
			"0.011": 0.0,
			"0.012": 0.0,
			"0.013": 0.0,
			"0.014": 0.0,
			"0.015": 0.0,
			"0.016": 0.0,
			"0.017": 0.0,
			"0.018": 0.0,
			"0.019": 0.0,
			"0.02": 0.0,
			"0.021": 0.0,
			"0.022": 0.0,
			"0.023": 0.0,
			"0.024": 0.0,
			"0.025": 0.0
		}
	}
}
