{
	 "smiles": "[O-][N+](=O)C1=CC=C2NC=C(C=O)C2=C1", 
	 "Tm": 573.15, 
	 "num_atms": 20, 
	 "gaussian": { 
		 "optdone": 1, 
		 "sigma_profile": "yes", 
		 "theory": "DFT", 
		 "functional": "B3LYP", 
		 "basiset": "6-31G**", 
		 "properties": { 
			 "R2extent": 4312.4288, 
			 "electric_dipole_moment_norm": 6.59654214494, 
			 "electric_quadrupole_moment_norm": 18.8973097966, 
			 "total_energy": -681.645086887, 
			 "HOMO_LUMO_gap": 0.15587, 
			 "cosmo_polarized_energy": -19.53, 
			 "cosmo_cavitation_energy": 26.1, 
			 "cosmo_dispersion_energy": -19.05, 
			 "cosmo_repulsion_energy": 1.47, 
			 "cosmo_total_nonelectrostatic_energy": 8.52, 
			 "SMD_solvation_energy": 7.71 
		},
		"coords": [
			{
				"x": -2.3778136876,
				"y": -4.2436619634,
				"z": 2.2228755892,
				"element": "O" 
			},
			{
				"x": -2.9519189899,
				"y": -3.2281058864,
				"z": 1.828769501,
				"element": "N" 
			},
			{
				"x": -4.1746887977,
				"y": -3.0832266876,
				"z": 1.802898965,
				"element": "O" 
			},
			{
				"x": -2.1214824069,
				"y": -2.1113959408,
				"z": 1.3564943044,
				"element": "C" 
			},
			{
				"x": -2.7674739194,
				"y": -0.9460299571,
				"z": 0.9037277403,
				"element": "C" 
			},
			{
				"x": -2.0134785621,
				"y": 0.125314052,
				"z": 0.4516523834,
				"element": "C" 
			},
			{
				"x": -0.6206563443,
				"y": -0.009395808,
				"z": 0.4689937826,
				"element": "C" 
			},
			{
				"x": 0.3644561318,
				"y": 0.8807512667,
				"z": 0.0838742785,
				"element": "N" 
			},
			{
				"x": 1.5984218221,
				"y": 0.3204482588,
				"z": 0.2771232203,
				"element": "C" 
			},
			{
				"x": 1.4569354651,
				"y": -0.951728641,
				"z": 0.7939181583,
				"element": "C" 
			},
			{
				"x": 2.5720950153,
				"y": -1.8372596,
				"z": 1.1215195671,
				"element": "C" 
			},
			{
				"x": 3.7463810981,
				"y": -1.5405317285,
				"z": 0.9708048316,
				"element": "O" 
			},
			{
				"x": 0.0347015031,
				"y": -1.1870040809,
				"z": 0.9265081051,
				"element": "C" 
			},
			{
				"x": -0.7402745934,
				"y": -2.2603452619,
				"z": 1.3798803549,
				"element": "C" 
			},
			{
				"x": -3.8488643306,
				"y": -0.9111817954,
				"z": 0.9183947592,
				"element": "H" 
			},
			{
				"x": -2.4928911554,
				"y": 1.0328321427,
				"z": 0.0983913662,
				"element": "H" 
			},
			{
				"x": 0.1999686162,
				"y": 1.8050751836,
				"z": -0.2845221922,
				"element": "H" 
			},
			{
				"x": 2.5087921667,
				"y": 0.8508731879,
				"z": 0.0391148984,
				"element": "H" 
			},
			{
				"x": 2.2850176006,
				"y": -2.8298348971,
				"z": 1.5295272691,
				"element": "H" 
			},
			{
				"x": -0.3105266318,
				"y": -3.1858918436,
				"z": 1.7416531174,
				"element": "H" 
			}
		],
		 "valence_orbital": [ 
			{
				"type": "occ",
				"energy": -0.30532,
				"method": "rhf"
			},
			{
				"type": "occ",
				"energy": -0.28842,
				"method": "rhf"
			},
			{
				"type": "occ",
				"energy": -0.26645,
				"method": "rhf"
			},
			{
				"type": "occ",
				"energy": -0.25716,
				"method": "rhf"
			},
			{
				"type": "occ",
				"energy": -0.24331,
				"method": "rhf"
			},
			{
				"type": "unocc",
				"energy": -0.08744,
				"method": "rhf"
			},
			{
				"type": "unocc",
				"energy": -0.05657,
				"method": "rhf"
			},
			{
				"type": "unocc",
				"energy": -0.0333,
				"method": "rhf"
			},
			{
				"type": "unocc",
				"energy": 0.01272,
				"method": "rhf"
			},
			{
				"type": "unocc",
				"energy": 0.04799,
				"method": "rhf"
			}
		],
		"cosmo_sigma_profile": { 
			"-0.025": 0.0,
			"-0.024": 0.0,
			"-0.023": 0.0,
			"-0.022": 0.0,
			"-0.021": 0.0,
			"-0.02": 0.0,
			"-0.019": 0.0,
			"-0.018": 0.413876937467,
			"-0.017": 2.24158004851,
			"-0.016": 1.36847486569,
			"-0.015": 1.74900809263,
			"-0.014": 1.26352783508,
			"-0.013": 1.5752001095,
			"-0.012": 1.16157287891,
			"-0.011": 1.90384490718,
			"-0.01": 3.14680277004,
			"-0.009": 3.05418103475,
			"-0.008": 5.33128122524,
			"-0.007": 8.52058160997,
			"-0.006": 9.51778398554,
			"-0.005": 8.99237985127,
			"-0.004": 8.68203853958,
			"-0.003": 9.98345798537,
			"-0.002": 9.35285339645,
			"-0.001": 14.1761450071,
			"0.0": 19.9949385532,
			"0.001": 21.8100419705,
			"0.002": 14.7875035106,
			"0.003": 5.74182405876,
			"0.004": 4.92448291736,
			"0.005": 5.08044872925,
			"0.006": 3.85980028568,
			"0.007": 7.14716582873,
			"0.008": 11.5019213783,
			"0.009": 6.10913953703,
			"0.01": 5.99997465216,
			"0.011": 3.80450091609,
			"0.012": 4.60080936138,
			"0.013": 2.25286219695,
			"0.014": 0.422820905729,
			"0.015": 0.0,
			"0.016": 0.0,
			"0.017": 0.0,
			"0.018": 0.0,
			"0.019": 0.0,
			"0.02": 0.0,
			"0.021": 0.0,
			"0.022": 0.0,
			"0.023": 0.0,
			"0.024": 0.0,
			"0.025": 0.0
		}
	}
}
