{
	 "smiles": "CC1=CC=C(C=C1S(Cl)(=O)=O)[N+]([O-])=O", 
	 "Tm": 317.15, 
	 "num_atms": 20, 
	 "gaussian": { 
		 "optdone": 1, 
		 "sigma_profile": "yes", 
		 "theory": "DFT", 
		 "functional": "B3LYP", 
		 "basiset": "6-31G**", 
		 "properties": { 
			 "R2extent": 4386.1188, 
			 "electric_dipole_moment_norm": 5.21879929294, 
			 "electric_quadrupole_moment_norm": 13.1122124171, 
			 "total_energy": -1484.21858937, 
			 "HOMO_LUMO_gap": 0.19095, 
			 "cosmo_polarized_energy": -12.06, 
			 "cosmo_cavitation_energy": 28.2, 
			 "cosmo_dispersion_energy": -21.06, 
			 "cosmo_repulsion_energy": 1.6, 
			 "cosmo_total_nonelectrostatic_energy": 8.73, 
			 "SMD_solvation_energy": 5.98 
		},
		"coords": [
			{
				"x": 3.088825502,
				"y": 0.4911472174,
				"z": 0.4318177972,
				"element": "C" 
			},
			{
				"x": 1.5882115467,
				"y": 0.4898258556,
				"z": 0.2945996468,
				"element": "C" 
			},
			{
				"x": 1.0054304547,
				"y": 0.7184298218,
				"z": -0.9619424242,
				"element": "C" 
			},
			{
				"x": -0.3728872537,
				"y": 0.7281915751,
				"z": -1.1524164455,
				"element": "C" 
			},
			{
				"x": -1.2026424914,
				"y": 0.5001256377,
				"z": -0.0592593346,
				"element": "C" 
			},
			{
				"x": -0.6898657589,
				"y": 0.2651589929,
				"z": 1.2102328995,
				"element": "C" 
			},
			{
				"x": 0.694638751,
				"y": 0.2676436178,
				"z": 1.3649122789,
				"element": "C" 
			},
			{
				"x": 1.2715465027,
				"y": 0.0013880708,
				"z": 3.049502477,
				"element": "S" 
			},
			{
				"x": 2.0056866124,
				"y": -1.9975668546,
				"z": 2.924361373,
				"element": "Cl" 
			},
			{
				"x": 2.4259032195,
				"y": 0.8471766369,
				"z": 3.3243149455,
				"element": "O" 
			},
			{
				"x": 0.1215427357,
				"y": -0.0418770902,
				"z": 3.9412796078,
				"element": "O" 
			},
			{
				"x": -2.6639647415,
				"y": 0.5061481214,
				"z": -0.2468674176,
				"element": "N" 
			},
			{
				"x": -3.0838590801,
				"y": 0.7140524843,
				"z": -1.3833397135,
				"element": "O" 
			},
			{
				"x": -3.3624916441,
				"y": 0.3031013683,
				"z": 0.7428051711,
				"element": "O" 
			},
			{
				"x": 3.4235183456,
				"y": 1.3127552448,
				"z": 1.0703277621,
				"element": "H" 
			},
			{
				"x": 3.5553171485,
				"y": 0.5924413134,
				"z": -0.5499446285,
				"element": "H" 
			},
			{
				"x": 3.4506554551,
				"y": -0.4328513791,
				"z": 0.8924695155,
				"element": "H" 
			},
			{
				"x": 1.6585610068,
				"y": 0.8931638752,
				"z": -1.811088377,
				"element": "H" 
			},
			{
				"x": -0.8120606537,
				"y": 0.9062683816,
				"z": -2.1262152174,
				"element": "H" 
			},
			{
				"x": -1.3534656573,
				"y": 0.090077109,
				"z": 2.0473500839,
				"element": "H" 
			}
		],
		 "valence_orbital": [ 
			{
				"type": "occ",
				"energy": -0.32746,
				"method": "rhf"
			},
			{
				"type": "occ",
				"energy": -0.32536,
				"method": "rhf"
			},
			{
				"type": "occ",
				"energy": -0.3112,
				"method": "rhf"
			},
			{
				"type": "occ",
				"energy": -0.31069,
				"method": "rhf"
			},
			{
				"type": "occ",
				"energy": -0.30342,
				"method": "rhf"
			},
			{
				"type": "unocc",
				"energy": -0.11247,
				"method": "rhf"
			},
			{
				"type": "unocc",
				"energy": -0.10147,
				"method": "rhf"
			},
			{
				"type": "unocc",
				"energy": -0.06392,
				"method": "rhf"
			},
			{
				"type": "unocc",
				"energy": -0.03016,
				"method": "rhf"
			},
			{
				"type": "unocc",
				"energy": 0.03784,
				"method": "rhf"
			}
		],
		"cosmo_sigma_profile": { 
			"-0.025": 0.0,
			"-0.024": 0.0,
			"-0.023": 0.0,
			"-0.022": 0.0,
			"-0.021": 0.0,
			"-0.02": 0.0,
			"-0.019": 0.0,
			"-0.018": 0.0,
			"-0.017": 0.0,
			"-0.016": 0.0,
			"-0.015": 0.0,
			"-0.014": 0.0,
			"-0.013": 0.0,
			"-0.012": 0.0,
			"-0.011": 0.0,
			"-0.01": 0.0632650585821,
			"-0.009": 2.77102343311,
			"-0.008": 6.1753922416,
			"-0.007": 7.41612649516,
			"-0.006": 9.07059137702,
			"-0.005": 13.209939218,
			"-0.004": 17.7931591038,
			"-0.003": 24.8558853628,
			"-0.002": 25.5006857006,
			"-0.001": 16.300443931,
			"0.0": 11.9218143215,
			"0.001": 10.6978598837,
			"0.002": 11.6410197696,
			"0.003": 14.5181345026,
			"0.004": 7.39809425824,
			"0.005": 6.60457782292,
			"0.006": 9.166563,
			"0.007": 15.914867434,
			"0.008": 12.4545713559,
			"0.009": 5.09914618074,
			"0.01": 0.598447347064,
			"0.011": 0.0,
			"0.012": 0.0,
			"0.013": 0.0,
			"0.014": 0.0,
			"0.015": 0.0,
			"0.016": 0.0,
			"0.017": 0.0,
			"0.018": 0.0,
			"0.019": 0.0,
			"0.02": 0.0,
			"0.021": 0.0,
			"0.022": 0.0,
			"0.023": 0.0,
			"0.024": 0.0,
			"0.025": 0.0
		}
	}
}
