{
	 "smiles": "CNC(=O)C1=CC(N)=CC=C1", 
	 "Tm": 396.15, 
	 "num_atms": 21, 
	 "gaussian": { 
		 "optdone": 1, 
		 "sigma_profile": "yes", 
		 "theory": "DFT", 
		 "functional": "B3LYP", 
		 "basiset": "6-31G**", 
		 "properties": { 
			 "R2extent": 2136.8851, 
			 "electric_dipole_moment_norm": 5.29592661769, 
			 "electric_quadrupole_moment_norm": 13.0368225389, 
			 "total_energy": -495.617627073, 
			 "HOMO_LUMO_gap": 0.18344, 
			 "cosmo_polarized_energy": -16.73, 
			 "cosmo_cavitation_energy": 24.72, 
			 "cosmo_dispersion_energy": -18.08, 
			 "cosmo_repulsion_energy": 1.48, 
			 "cosmo_total_nonelectrostatic_energy": 8.12, 
			 "SMD_solvation_energy": 4.55 
		},
		"coords": [
			{
				"x": 1.9936958505,
				"y": 1.7847670589,
				"z": 1.565809676,
				"element": "C" 
			},
			{
				"x": 2.2283743366,
				"y": 0.4440589605,
				"z": 2.0825601166,
				"element": "N" 
			},
			{
				"x": 1.3303596341,
				"y": -0.5910282501,
				"z": 2.220841391,
				"element": "C" 
			},
			{
				"x": 1.5335260496,
				"y": -1.4849552683,
				"z": 3.0372970117,
				"element": "O" 
			},
			{
				"x": 0.1226996243,
				"y": -0.622644378,
				"z": 1.3250695206,
				"element": "C" 
			},
			{
				"x": 0.1845014002,
				"y": -0.2646196573,
				"z": -0.0260176562,
				"element": "C" 
			},
			{
				"x": -0.9450656271,
				"y": -0.3812130786,
				"z": -0.8537036757,
				"element": "C" 
			},
			{
				"x": -0.858526329,
				"y": -0.0962215755,
				"z": -2.2178885212,
				"element": "N" 
			},
			{
				"x": -2.1449361165,
				"y": -0.8491522353,
				"z": -0.2915490903,
				"element": "C" 
			},
			{
				"x": -2.1990637304,
				"y": -1.2130761478,
				"z": 1.0527176506,
				"element": "C" 
			},
			{
				"x": -1.0715730921,
				"y": -1.1167710567,
				"z": 1.8654077051,
				"element": "C" 
			},
			{
				"x": 0.9477731793,
				"y": 1.8980523941,
				"z": 1.2809952274,
				"element": "H" 
			},
			{
				"x": 2.2186034716,
				"y": 2.5329713265,
				"z": 2.3343161301,
				"element": "H" 
			},
			{
				"x": 2.6150891947,
				"y": 2.0018404753,
				"z": 0.68756775,
				"element": "H" 
			},
			{
				"x": 3.0044271085,
				"y": 0.335190683,
				"z": 2.7233683311,
				"element": "H" 
			},
			{
				"x": 1.1238727546,
				"y": 0.0724145886,
				"z": -0.45612718,
				"element": "H" 
			},
			{
				"x": -1.7349611628,
				"y": 0.1270255654,
				"z": -2.6685980854,
				"element": "H" 
			},
			{
				"x": -0.1234966658,
				"y": 0.5452591696,
				"z": -2.4810537826,
				"element": "H" 
			},
			{
				"x": -3.0288956159,
				"y": -0.9407838079,
				"z": -0.9181976051,
				"element": "H" 
			},
			{
				"x": -3.1339675802,
				"y": -1.5812620226,
				"z": 1.4658770271,
				"element": "H" 
			},
			{
				"x": -1.0935366842,
				"y": -1.4236527437,
				"z": 2.9047080592,
				"element": "H" 
			}
		],
		 "valence_orbital": [ 
			{
				"type": "occ",
				"energy": -0.30831,
				"method": "rhf"
			},
			{
				"type": "occ",
				"energy": -0.25373,
				"method": "rhf"
			},
			{
				"type": "occ",
				"energy": -0.2479,
				"method": "rhf"
			},
			{
				"type": "occ",
				"energy": -0.23492,
				"method": "rhf"
			},
			{
				"type": "occ",
				"energy": -0.2053,
				"method": "rhf"
			},
			{
				"type": "unocc",
				"energy": -0.02186,
				"method": "rhf"
			},
			{
				"type": "unocc",
				"energy": 0.01123,
				"method": "rhf"
			},
			{
				"type": "unocc",
				"energy": 0.06204,
				"method": "rhf"
			},
			{
				"type": "unocc",
				"energy": 0.0779,
				"method": "rhf"
			},
			{
				"type": "unocc",
				"energy": 0.08823,
				"method": "rhf"
			}
		],
		"cosmo_sigma_profile": { 
			"-0.025": 0.0,
			"-0.024": 0.0,
			"-0.023": 0.0,
			"-0.022": 0.0,
			"-0.021": 0.0,
			"-0.02": 0.0,
			"-0.019": 0.0,
			"-0.018": 0.0,
			"-0.017": 0.0,
			"-0.016": 0.0,
			"-0.015": 0.0,
			"-0.014": 0.0124965271754,
			"-0.013": 1.20111656476,
			"-0.012": 4.21636182089,
			"-0.011": 3.46719235166,
			"-0.01": 4.46912337263,
			"-0.009": 4.18988695307,
			"-0.008": 3.2641014574,
			"-0.007": 4.53478600169,
			"-0.006": 7.08508405395,
			"-0.005": 11.9950580313,
			"-0.004": 14.942742097,
			"-0.003": 16.3561994081,
			"-0.002": 17.7466588773,
			"-0.001": 11.4176482567,
			"0.0": 8.99367051486,
			"0.001": 9.20430007671,
			"0.002": 7.81170962698,
			"0.003": 8.15765070508,
			"0.004": 9.66247991733,
			"0.005": 10.9689069032,
			"0.006": 9.94312777221,
			"0.007": 2.06626938415,
			"0.008": 2.45048215476,
			"0.009": 2.35000695268,
			"0.01": 2.54479986524,
			"0.011": 1.90169231441,
			"0.012": 2.8362461276,
			"0.013": 3.01907292367,
			"0.014": 6.49472184329,
			"0.015": 2.11729664971,
			"0.016": 0.0317042306241,
			"0.017": 0.0,
			"0.018": 0.0,
			"0.019": 0.0,
			"0.02": 0.0,
			"0.021": 0.0,
			"0.022": 0.0,
			"0.023": 0.0,
			"0.024": 0.0,
			"0.025": 0.0
		}
	}
}
