{
	 "smiles": "ClS(=O)(=O)C1=C(Br)C=CC=C1", 
	 "Tm": 323.65, 
	 "num_atms": 15, 
	 "gaussian": { 
		 "optdone": 1, 
		 "sigma_profile": "yes", 
		 "theory": "DFT", 
		 "functional": "B3LYP", 
		 "basiset": "6-31G**", 
		 "properties": { 
			 "R2extent": 3491.1002, 
			 "electric_dipole_moment_norm": 5.5632421069, 
			 "electric_quadrupole_moment_norm": 7.73773353315, 
			 "total_energy": -3811.19939074, 
			 "HOMO_LUMO_gap": 0.17987, 
			 "cosmo_polarized_energy": -9.31, 
			 "cosmo_cavitation_energy": 24.73, 
			 "cosmo_dispersion_energy": -19.21, 
			 "cosmo_repulsion_energy": 1.48, 
			 "cosmo_total_nonelectrostatic_energy": 7.01, 
			 "SMD_solvation_energy": 2.06 
		},
		"coords": [
			{
				"x": -0.5630914435,
				"y": 2.7218918894,
				"z": -2.5403147,
				"element": "Cl" 
			},
			{
				"x": -1.2344919444,
				"y": 0.7224769471,
				"z": -2.2861437763,
				"element": "S" 
			},
			{
				"x": -0.8152294471,
				"y": 0.0058828609,
				"z": -3.4845715452,
				"element": "O" 
			},
			{
				"x": -2.6326662712,
				"y": 0.7855590471,
				"z": -1.8892594793,
				"element": "O" 
			},
			{
				"x": -0.2038351301,
				"y": 0.1645972363,
				"z": -0.9172258466,
				"element": "C" 
			},
			{
				"x": -0.3561908222,
				"y": 0.5923689407,
				"z": 0.4102944104,
				"element": "C" 
			},
			{
				"x": -1.6216277029,
				"y": 1.8960350703,
				"z": 0.9592702251,
				"element": "Br" 
			},
			{
				"x": 0.4750119082,
				"y": 0.0505517743,
				"z": 1.3929680641,
				"element": "C" 
			},
			{
				"x": 1.4398703075,
				"y": -0.8984423003,
				"z": 1.0582033023,
				"element": "C" 
			},
			{
				"x": 1.5907736102,
				"y": -1.3165798863,
				"z": -0.2638030139,
				"element": "C" 
			},
			{
				"x": 0.7700296496,
				"y": -0.7827789025,
				"z": -1.253444998,
				"element": "C" 
			},
			{
				"x": 0.3583779677,
				"y": 0.3811881024,
				"z": 2.418491803,
				"element": "H" 
			},
			{
				"x": 2.0751082685,
				"y": -1.3071878566,
				"z": 1.8379770005,
				"element": "H" 
			},
			{
				"x": 2.3419267923,
				"y": -2.0536357697,
				"z": -0.5274679024,
				"element": "H" 
			},
			{
				"x": 0.8669342573,
				"y": -1.0904271531,
				"z": -2.2876735439,
				"element": "H" 
			}
		],
		 "valence_orbital": [ 
			{
				"type": "occ",
				"energy": -0.33426,
				"method": "rhf"
			},
			{
				"type": "occ",
				"energy": -0.31456,
				"method": "rhf"
			},
			{
				"type": "occ",
				"energy": -0.30081,
				"method": "rhf"
			},
			{
				"type": "occ",
				"energy": -0.29777,
				"method": "rhf"
			},
			{
				"type": "occ",
				"energy": -0.27166,
				"method": "rhf"
			},
			{
				"type": "unocc",
				"energy": -0.09179,
				"method": "rhf"
			},
			{
				"type": "unocc",
				"energy": -0.05537,
				"method": "rhf"
			},
			{
				"type": "unocc",
				"energy": -0.04571,
				"method": "rhf"
			},
			{
				"type": "unocc",
				"energy": -0.01586,
				"method": "rhf"
			},
			{
				"type": "unocc",
				"energy": 0.05411,
				"method": "rhf"
			}
		],
		"cosmo_sigma_profile": { 
			"-0.025": 0.0,
			"-0.024": 0.0,
			"-0.023": 0.0,
			"-0.022": 0.0,
			"-0.021": 0.0,
			"-0.02": 0.0,
			"-0.019": 0.0,
			"-0.018": 0.0,
			"-0.017": 0.0,
			"-0.016": 0.0,
			"-0.015": 0.0,
			"-0.014": 0.0,
			"-0.013": 0.0,
			"-0.012": 0.0,
			"-0.011": 0.0,
			"-0.01": 0.0,
			"-0.009": 1.1276485248,
			"-0.008": 8.13228513295,
			"-0.007": 9.3559246557,
			"-0.006": 9.7415135724,
			"-0.005": 8.05245464525,
			"-0.004": 10.3710002442,
			"-0.003": 9.61068839624,
			"-0.002": 12.7752246688,
			"-0.001": 20.63616258,
			"0.0": 20.6455703923,
			"0.001": 20.0530576597,
			"0.002": 15.1929580978,
			"0.003": 22.2921967649,
			"0.004": 8.11195215642,
			"0.005": 4.7048181,
			"0.006": 3.66237107327,
			"0.007": 7.01083129329,
			"0.008": 10.743127235,
			"0.009": 2.89785532401,
			"0.01": 0.0,
			"0.011": 0.0,
			"0.012": 0.0,
			"0.013": 0.0,
			"0.014": 0.0,
			"0.015": 0.0,
			"0.016": 0.0,
			"0.017": 0.0,
			"0.018": 0.0,
			"0.019": 0.0,
			"0.02": 0.0,
			"0.021": 0.0,
			"0.022": 0.0,
			"0.023": 0.0,
			"0.024": 0.0,
			"0.025": 0.0
		}
	}
}
