{
	 "smiles": "CF", 
	 "Tm": 130.15, 
	 "num_atms": 5, 
	 "gaussian": { 
		 "optdone": 1, 
		 "sigma_profile": "yes", 
		 "theory": "DFT", 
		 "functional": "B3LYP", 
		 "basiset": "6-31G**", 
		 "properties": { 
			 "R2extent": 521.9129, 
			 "electric_dipole_moment_norm": 1.70064515699, 
			 "electric_quadrupole_moment_norm": 5.38000293587, 
			 "total_energy": -139.736320574, 
			 "HOMO_LUMO_gap": 0.43826, 
			 "cosmo_polarized_energy": -2.63, 
			 "cosmo_cavitation_energy": 8.24, 
			 "cosmo_dispersion_energy": -6.02, 
			 "cosmo_repulsion_energy": 0.61, 
			 "cosmo_total_nonelectrostatic_energy": 2.83, 
			 "SMD_solvation_energy": 3.11 
		},
		"coords": [
			{
				"x": -0.5746946223,
				"y": -1.8768970271,
				"z": 1.2138827338,
				"element": "C" 
			},
			{
				"x": 0.3039488588,
				"y": -2.1641646659,
				"z": 2.2414532798,
				"element": "F" 
			},
			{
				"x": -1.1982534433,
				"y": -1.0185827737,
				"z": 1.4896513125,
				"element": "H" 
			},
			{
				"x": -0.0132576344,
				"y": -1.6374818234,
				"z": 0.3033615608,
				"element": "H" 
			},
			{
				"x": -1.2177431588,
				"y": -2.74407371,
				"z": 1.0239511131,
				"element": "H" 
			}
		],
		 "valence_orbital": [ 
			{
				"type": "occ",
				"energy": -0.47563,
				"method": "rhf"
			},
			{
				"type": "occ",
				"energy": -0.47126,
				"method": "rhf"
			},
			{
				"type": "occ",
				"energy": -0.47126,
				"method": "rhf"
			},
			{
				"type": "occ",
				"energy": -0.33196,
				"method": "rhf"
			},
			{
				"type": "occ",
				"energy": -0.33196,
				"method": "rhf"
			},
			{
				"type": "unocc",
				"energy": 0.1063,
				"method": "rhf"
			},
			{
				"type": "unocc",
				"energy": 0.1332,
				"method": "rhf"
			},
			{
				"type": "unocc",
				"energy": 0.16462,
				"method": "rhf"
			},
			{
				"type": "unocc",
				"energy": 0.16462,
				"method": "rhf"
			},
			{
				"type": "unocc",
				"energy": 0.51773,
				"method": "rhf"
			}
		],
		"cosmo_sigma_profile": { 
			"-0.025": 0.0,
			"-0.024": 0.0,
			"-0.023": 0.0,
			"-0.022": 0.0,
			"-0.021": 0.0,
			"-0.02": 0.0,
			"-0.019": 0.0,
			"-0.018": 0.0,
			"-0.017": 0.0,
			"-0.016": 0.0,
			"-0.015": 0.0,
			"-0.014": 0.0,
			"-0.013": 0.0,
			"-0.012": 0.0,
			"-0.011": 0.0,
			"-0.01": 0.0,
			"-0.009": 0.0,
			"-0.008": 0.0,
			"-0.007": 0.0,
			"-0.006": 2.58240573539,
			"-0.005": 9.00739693241,
			"-0.004": 10.7022495482,
			"-0.003": 7.2048759785,
			"-0.002": 4.10724358001,
			"-0.001": 3.14800963604,
			"0.0": 1.97256441435,
			"0.001": 2.31409062784,
			"0.002": 1.73548337087,
			"0.003": 1.97463918374,
			"0.004": 2.02777803705,
			"0.005": 2.12006634261,
			"0.006": 6.93232961778,
			"0.007": 9.10126626003,
			"0.008": 0.0522563241491,
			"0.009": 0.0,
			"0.01": 0.0,
			"0.011": 0.0,
			"0.012": 0.0,
			"0.013": 0.0,
			"0.014": 0.0,
			"0.015": 0.0,
			"0.016": 0.0,
			"0.017": 0.0,
			"0.018": 0.0,
			"0.019": 0.0,
			"0.02": 0.0,
			"0.021": 0.0,
			"0.022": 0.0,
			"0.023": 0.0,
			"0.024": 0.0,
			"0.025": 0.0
		}
	}
}
