{
	 "smiles": "CCOC1=C(C)C=C(C=C1)C(O)=O", 
	 "Tm": 472.15, 
	 "num_atms": 25, 
	 "gaussian": { 
		 "optdone": 1, 
		 "sigma_profile": "yes", 
		 "theory": "DFT", 
		 "functional": "B3LYP", 
		 "basiset": "6-31G**", 
		 "properties": { 
			 "R2extent": 4277.8335, 
			 "electric_dipole_moment_norm": 6.5644853157, 
			 "electric_quadrupole_moment_norm": 23.8214816546, 
			 "total_energy": -613.983611307, 
			 "HOMO_LUMO_gap": 0.19546, 
			 "cosmo_polarized_energy": -15.46, 
			 "cosmo_cavitation_energy": 28.81, 
			 "cosmo_dispersion_energy": -20.89, 
			 "cosmo_repulsion_energy": 1.67, 
			 "cosmo_total_nonelectrostatic_energy": 9.59, 
			 "SMD_solvation_energy": 6.49 
		},
		"coords": [
			{
				"x": 1.335279917,
				"y": 1.7617820795,
				"z": -2.4958235828,
				"element": "C" 
			},
			{
				"x": 1.039651718,
				"y": 0.3368136986,
				"z": -2.0630934211,
				"element": "C" 
			},
			{
				"x": 0.6378322625,
				"y": 0.3780174234,
				"z": -0.6913657881,
				"element": "O" 
			},
			{
				"x": 0.3193620981,
				"y": -0.7808673799,
				"z": -0.0552902946,
				"element": "C" 
			},
			{
				"x": -0.0698033654,
				"y": -0.6383573005,
				"z": 1.2984333843,
				"element": "C" 
			},
			{
				"x": -0.1098796248,
				"y": 0.7304413706,
				"z": 1.9269864763,
				"element": "C" 
			},
			{
				"x": -0.4090132569,
				"y": -1.7841848371,
				"z": 2.0052838496,
				"element": "C" 
			},
			{
				"x": -0.3591012894,
				"y": -3.063114575,
				"z": 1.4241804545,
				"element": "C" 
			},
			{
				"x": 0.0145163638,
				"y": -3.175053856,
				"z": 0.0819351518,
				"element": "C" 
			},
			{
				"x": 0.3528788591,
				"y": -2.0429544663,
				"z": -0.6597121657,
				"element": "C" 
			},
			{
				"x": -0.7495649745,
				"y": -4.2286090381,
				"z": 2.2721951538,
				"element": "C" 
			},
			{
				"x": -0.3509336316,
				"y": -5.4605145556,
				"z": 1.8440860065,
				"element": "O" 
			},
			{
				"x": -1.3860214278,
				"y": -4.1292347148,
				"z": 3.2962823544,
				"element": "O" 
			},
			{
				"x": 2.136660468,
				"y": 2.1912099869,
				"z": -1.8883700577,
				"element": "H" 
			},
			{
				"x": 0.4465034411,
				"y": 2.3896602601,
				"z": -2.3889050443,
				"element": "H" 
			},
			{
				"x": 1.6475804565,
				"y": 1.777573935,
				"z": -3.5443686829,
				"element": "H" 
			},
			{
				"x": 1.9290380524,
				"y": -0.2994835595,
				"z": -2.1695358185,
				"element": "H" 
			},
			{
				"x": 0.2360813784,
				"y": -0.1002248053,
				"z": -2.6716628615,
				"element": "H" 
			},
			{
				"x": -0.7937329402,
				"y": 1.3940506278,
				"z": 1.3868117005,
				"element": "H" 
			},
			{
				"x": 0.8752101522,
				"y": 1.2088312653,
				"z": 1.8984393565,
				"element": "H" 
			},
			{
				"x": -0.4357905786,
				"y": 0.6695628269,
				"z": 2.9679449619,
				"element": "H" 
			},
			{
				"x": -0.7231612533,
				"y": -1.709600515,
				"z": 3.0415804346,
				"element": "H" 
			},
			{
				"x": 0.0089184409,
				"y": -4.1375864833,
				"z": -0.4243604994,
				"element": "H" 
			},
			{
				"x": 0.6284331711,
				"y": -2.1525361681,
				"z": -1.7012759297,
				"element": "H" 
			},
			{
				"x": 0.2882555632,
				"y": -5.3678212195,
				"z": 1.1246048615,
				"element": "H" 
			}
		],
		 "valence_orbital": [ 
			{
				"type": "occ",
				"energy": -0.33094,
				"method": "rhf"
			},
			{
				"type": "occ",
				"energy": -0.30496,
				"method": "rhf"
			},
			{
				"type": "occ",
				"energy": -0.26534,
				"method": "rhf"
			},
			{
				"type": "occ",
				"energy": -0.2577,
				"method": "rhf"
			},
			{
				"type": "occ",
				"energy": -0.23183,
				"method": "rhf"
			},
			{
				"type": "unocc",
				"energy": -0.03637,
				"method": "rhf"
			},
			{
				"type": "unocc",
				"energy": -0.01267,
				"method": "rhf"
			},
			{
				"type": "unocc",
				"energy": 0.05848,
				"method": "rhf"
			},
			{
				"type": "unocc",
				"energy": 0.06781,
				"method": "rhf"
			},
			{
				"type": "unocc",
				"energy": 0.08566,
				"method": "rhf"
			}
		],
		"cosmo_sigma_profile": { 
			"-0.025": 0.0,
			"-0.024": 0.0,
			"-0.023": 0.0,
			"-0.022": 0.0,
			"-0.021": 0.0,
			"-0.02": 0.0,
			"-0.019": 0.0361352096314,
			"-0.018": 0.532212979066,
			"-0.017": 0.990394671394,
			"-0.016": 1.1407970516,
			"-0.015": 0.811553857467,
			"-0.014": 0.970609093553,
			"-0.013": 0.684369148897,
			"-0.012": 0.9735808551,
			"-0.011": 1.70443809709,
			"-0.01": 1.1991449213,
			"-0.009": 1.08757574023,
			"-0.008": 1.49637938865,
			"-0.007": 3.5115700889,
			"-0.006": 6.78758132037,
			"-0.005": 13.8595644937,
			"-0.004": 19.8081588207,
			"-0.003": 20.6755023646,
			"-0.002": 19.7468811436,
			"-0.001": 17.2540685317,
			"0.0": 22.774994305,
			"0.001": 16.0081448696,
			"0.002": 12.2694219133,
			"0.003": 13.3670739261,
			"0.004": 11.8988715294,
			"0.005": 4.8212301129,
			"0.006": 3.9117792594,
			"0.007": 3.96629902185,
			"0.008": 4.22051014248,
			"0.009": 3.34284957189,
			"0.01": 3.25543722616,
			"0.011": 5.40910714299,
			"0.012": 6.01416007274,
			"0.013": 2.76718278856,
			"0.014": 0.514745067189,
			"0.015": 0.0,
			"0.016": 0.0,
			"0.017": 0.0,
			"0.018": 0.0,
			"0.019": 0.0,
			"0.02": 0.0,
			"0.021": 0.0,
			"0.022": 0.0,
			"0.023": 0.0,
			"0.024": 0.0,
			"0.025": 0.0
		}
	}
}
