{
	 "smiles": "CC(C)(C)OC(=O)NC(CN)C1=CC=CC=C1", 
	 "Tm": 339.15, 
	 "num_atms": 37, 
	 "gaussian": { 
		 "optdone": 1, 
		 "sigma_profile": "yes", 
		 "theory": "DFT", 
		 "functional": "B3LYP", 
		 "basiset": "6-31G**", 
		 "properties": { 
			 "R2extent": 5841.7156, 
			 "electric_dipole_moment_norm": 2.68088052886, 
			 "electric_quadrupole_moment_norm": 11.7128717264, 
			 "total_energy": -767.425102672, 
			 "HOMO_LUMO_gap": 0.21968, 
			 "cosmo_polarized_energy": -13.64, 
			 "cosmo_cavitation_energy": 38.74, 
			 "cosmo_dispersion_energy": -26.59, 
			 "cosmo_repulsion_energy": 2.1, 
			 "cosmo_total_nonelectrostatic_energy": 14.25, 
			 "SMD_solvation_energy": 6.25 
		},
		"coords": [
			{
				"x": 1.8073087927,
				"y": 2.008283437,
				"z": -3.1470581784,
				"element": "C" 
			},
			{
				"x": 1.3289892549,
				"y": 2.3863068684,
				"z": -1.7426503232,
				"element": "C" 
			},
			{
				"x": 0.2424088363,
				"y": 3.4649628667,
				"z": -1.8104483032,
				"element": "C" 
			},
			{
				"x": 2.509723933,
				"y": 2.8066292812,
				"z": -0.8607844182,
				"element": "C" 
			},
			{
				"x": 0.7565555781,
				"y": 1.1236654416,
				"z": -1.2499502228,
				"element": "O" 
			},
			{
				"x": 0.2153631343,
				"y": 1.0429018414,
				"z": -0.0084030321,
				"element": "C" 
			},
			{
				"x": 0.1294484452,
				"y": 1.9478535622,
				"z": 0.8073678883,
				"element": "O" 
			},
			{
				"x": -0.2215375928,
				"y": -0.2352248655,
				"z": 0.2094857565,
				"element": "N" 
			},
			{
				"x": -0.9515649876,
				"y": -0.6110323795,
				"z": 1.416793411,
				"element": "C" 
			},
			{
				"x": -2.4759603225,
				"y": -0.4025343111,
				"z": 1.2169639646,
				"element": "C" 
			},
			{
				"x": -3.1254668412,
				"y": -1.2059504767,
				"z": 0.1848800129,
				"element": "N" 
			},
			{
				"x": -0.5494769642,
				"y": -2.0176053672,
				"z": 1.8671648705,
				"element": "C" 
			},
			{
				"x": 0.7332831846,
				"y": -2.5153244736,
				"z": 1.5907169268,
				"element": "C" 
			},
			{
				"x": 1.1275825339,
				"y": -3.7790534318,
				"z": 2.0310606603,
				"element": "C" 
			},
			{
				"x": 0.2454031396,
				"y": -4.5777283764,
				"z": 2.7599172238,
				"element": "C" 
			},
			{
				"x": -1.0308248858,
				"y": -4.0949348737,
				"z": 3.0482953806,
				"element": "C" 
			},
			{
				"x": -1.4230339864,
				"y": -2.8293047299,
				"z": 2.6074958277,
				"element": "C" 
			},
			{
				"x": 2.2635108949,
				"y": 2.8748827174,
				"z": -3.6346801039,
				"element": "H" 
			},
			{
				"x": 0.9694991952,
				"y": 1.666359069,
				"z": -3.7618504778,
				"element": "H" 
			},
			{
				"x": 2.5500973221,
				"y": 1.2065680876,
				"z": -3.0995775358,
				"element": "H" 
			},
			{
				"x": -0.6021284402,
				"y": 3.1160774315,
				"z": -2.4133738634,
				"element": "H" 
			},
			{
				"x": -0.1161747473,
				"y": 3.7211465473,
				"z": -0.8133160233,
				"element": "H" 
			},
			{
				"x": 0.6473156645,
				"y": 4.3655681608,
				"z": -2.2834470596,
				"element": "H" 
			},
			{
				"x": 3.0004235206,
				"y": 3.6832303357,
				"z": -1.2962048269,
				"element": "H" 
			},
			{
				"x": 2.1751768886,
				"y": 3.0537145518,
				"z": 0.1469952712,
				"element": "H" 
			},
			{
				"x": 3.2466583341,
				"y": 1.9991716399,
				"z": -0.8028829614,
				"element": "H" 
			},
			{
				"x": -0.1656584605,
				"y": -0.8840324806,
				"z": -0.5612917402,
				"element": "H" 
			},
			{
				"x": -0.6288793206,
				"y": 0.107280017,
				"z": 2.1805510145,
				"element": "H" 
			},
			{
				"x": -2.620772086,
				"y": 0.6545818717,
				"z": 0.9718784527,
				"element": "H" 
			},
			{
				"x": -2.9953214285,
				"y": -0.565622707,
				"z": 2.1677964435,
				"element": "H" 
			},
			{
				"x": -2.9665001951,
				"y": -2.1965192066,
				"z": 0.3543310368,
				"element": "H" 
			},
			{
				"x": -2.7234417665,
				"y": -0.9935552813,
				"z": -0.7248299169,
				"element": "H" 
			},
			{
				"x": 1.431006825,
				"y": -1.9002064141,
				"z": 1.0316092685,
				"element": "H" 
			},
			{
				"x": 2.1278293345,
				"y": -4.1379198415,
				"z": 1.8046630636,
				"element": "H" 
			},
			{
				"x": 0.5497265041,
				"y": -5.5629275122,
				"z": 3.1010642144,
				"element": "H" 
			},
			{
				"x": -1.7283040545,
				"y": -4.7026978455,
				"z": 3.6178708723,
				"element": "H" 
			},
			{
				"x": -2.4189652368,
				"y": -2.4775091541,
				"z": 2.8561474267,
				"element": "H" 
			}
		],
		 "valence_orbital": [ 
			{
				"type": "occ",
				"energy": -0.26653,
				"method": "rhf"
			},
			{
				"type": "occ",
				"energy": -0.26418,
				"method": "rhf"
			},
			{
				"type": "occ",
				"energy": -0.25464,
				"method": "rhf"
			},
			{
				"type": "occ",
				"energy": -0.24784,
				"method": "rhf"
			},
			{
				"type": "occ",
				"energy": -0.2274,
				"method": "rhf"
			},
			{
				"type": "unocc",
				"energy": -0.00772,
				"method": "rhf"
			},
			{
				"type": "unocc",
				"energy": -0.00677,
				"method": "rhf"
			},
			{
				"type": "unocc",
				"energy": 0.05309,
				"method": "rhf"
			},
			{
				"type": "unocc",
				"energy": 0.07432,
				"method": "rhf"
			},
			{
				"type": "unocc",
				"energy": 0.08973,
				"method": "rhf"
			}
		],
		"cosmo_sigma_profile": { 
			"-0.025": 0.0,
			"-0.024": 0.0,
			"-0.023": 0.0,
			"-0.022": 0.0,
			"-0.021": 0.0,
			"-0.02": 0.0,
			"-0.019": 0.0,
			"-0.018": 0.0,
			"-0.017": 0.0,
			"-0.016": 0.0,
			"-0.015": 0.0,
			"-0.014": 0.0,
			"-0.013": 0.560976088288,
			"-0.012": 0.89347441448,
			"-0.011": 1.09010490932,
			"-0.01": 1.3335219973,
			"-0.009": 3.00589216507,
			"-0.008": 3.74400563944,
			"-0.007": 3.47285872861,
			"-0.006": 8.64004420642,
			"-0.005": 15.309220157,
			"-0.004": 26.7036207396,
			"-0.003": 34.0358826494,
			"-0.002": 26.8569468078,
			"-0.001": 27.7198759007,
			"0.0": 35.0793466082,
			"0.001": 29.3979238824,
			"0.002": 12.8797892187,
			"0.003": 13.2537119926,
			"0.004": 11.0312157254,
			"0.005": 11.8865908635,
			"0.006": 11.5088967168,
			"0.007": 4.19930543221,
			"0.008": 2.56865007368,
			"0.009": 2.1558062049,
			"0.01": 2.69832445846,
			"0.011": 2.15091958731,
			"0.012": 2.01671799448,
			"0.013": 3.54734989154,
			"0.014": 1.70691834646,
			"0.015": 0.700290734781,
			"0.016": 0.618334768986,
			"0.017": 0.584802743352,
			"0.018": 0.646031588943,
			"0.019": 0.702341319815,
			"0.02": 0.224203497848,
			"0.021": 0.0,
			"0.022": 0.0,
			"0.023": 0.0,
			"0.024": 0.0,
			"0.025": 0.0
		}
	}
}
