{
	 "smiles": "CC1=CC=C(C=C1)N1N=NN=C1S", 
	 "Tm": 386.15, 
	 "num_atms": 21, 
	 "gaussian": { 
		 "optdone": 1, 
		 "sigma_profile": "yes", 
		 "theory": "DFT", 
		 "functional": "B3LYP", 
		 "basiset": "6-31G**", 
		 "properties": { 
			 "R2extent": 3796.9281, 
			 "electric_dipole_moment_norm": 5.6885353317, 
			 "electric_quadrupole_moment_norm": 19.6926730321, 
			 "total_energy": -926.807522603, 
			 "HOMO_LUMO_gap": 0.20888, 
			 "cosmo_polarized_energy": -12.54, 
			 "cosmo_cavitation_energy": 27.37, 
			 "cosmo_dispersion_energy": -20.48, 
			 "cosmo_repulsion_energy": 1.57, 
			 "cosmo_total_nonelectrostatic_energy": 8.46, 
			 "SMD_solvation_energy": 2.64 
		},
		"coords": [
			{
				"x": 0.7013300011,
				"y": 2.6924001174,
				"z": -1.6315966875,
				"element": "C" 
			},
			{
				"x": 0.2560288133,
				"y": 1.4886194944,
				"z": -0.8365071563,
				"element": "C" 
			},
			{
				"x": 1.1511871165,
				"y": 0.8148644813,
				"z": 0.0086133904,
				"element": "C" 
			},
			{
				"x": 0.7654409441,
				"y": -0.3169385511,
				"z": 0.7196806173,
				"element": "C" 
			},
			{
				"x": -0.5461846738,
				"y": -0.7844801699,
				"z": 0.6002423221,
				"element": "C" 
			},
			{
				"x": -1.4649275992,
				"y": -0.1203652432,
				"z": -0.2139826903,
				"element": "C" 
			},
			{
				"x": -1.0533916614,
				"y": 1.0022496237,
				"z": -0.931895516,
				"element": "C" 
			},
			{
				"x": -0.9380384513,
				"y": -1.9375983413,
				"z": 1.3416142107,
				"element": "N" 
			},
			{
				"x": -0.5413617711,
				"y": -2.1131660842,
				"z": 2.6416129739,
				"element": "N" 
			},
			{
				"x": -1.0171686579,
				"y": -3.246951067,
				"z": 3.0205695315,
				"element": "N" 
			},
			{
				"x": -1.7247647904,
				"y": -3.85200963,
				"z": 2.0288781304,
				"element": "N" 
			},
			{
				"x": -1.662717843,
				"y": -3.031217534,
				"z": 0.9945224366,
				"element": "C" 
			},
			{
				"x": -2.3594482933,
				"y": -3.3277880396,
				"z": -0.5931392067,
				"element": "S" 
			},
			{
				"x": -0.1498993083,
				"y": 3.3042645556,
				"z": -1.9425333106,
				"element": "H" 
			},
			{
				"x": 1.3809686048,
				"y": 3.3247990952,
				"z": -1.0522199503,
				"element": "H" 
			},
			{
				"x": 1.2365300632,
				"y": 2.388179299,
				"z": -2.5395729278,
				"element": "H" 
			},
			{
				"x": 2.1701911636,
				"y": 1.1791068149,
				"z": 0.1077292118,
				"element": "H" 
			},
			{
				"x": 1.4602675625,
				"y": -0.8359628437,
				"z": 1.369904608,
				"element": "H" 
			},
			{
				"x": -2.4942906708,
				"y": -0.4584214656,
				"z": -0.2706713956,
				"element": "H" 
			},
			{
				"x": -1.7714753505,
				"y": 1.5164111837,
				"z": -1.5646013087,
				"element": "H" 
			},
			{
				"x": -2.7675751983,
				"y": -4.5642956955,
				"z": -0.2477472826,
				"element": "H" 
			}
		],
		 "valence_orbital": [ 
			{
				"type": "occ",
				"energy": -0.29673,
				"method": "rhf"
			},
			{
				"type": "occ",
				"energy": -0.28904,
				"method": "rhf"
			},
			{
				"type": "occ",
				"energy": -0.27361,
				"method": "rhf"
			},
			{
				"type": "occ",
				"energy": -0.26309,
				"method": "rhf"
			},
			{
				"type": "occ",
				"energy": -0.25112,
				"method": "rhf"
			},
			{
				"type": "unocc",
				"energy": -0.04224,
				"method": "rhf"
			},
			{
				"type": "unocc",
				"energy": -0.02867,
				"method": "rhf"
			},
			{
				"type": "unocc",
				"energy": -0.0004,
				"method": "rhf"
			},
			{
				"type": "unocc",
				"energy": 0.0031,
				"method": "rhf"
			},
			{
				"type": "unocc",
				"energy": 0.02283,
				"method": "rhf"
			}
		],
		"cosmo_sigma_profile": { 
			"-0.025": 0.0,
			"-0.024": 0.0,
			"-0.023": 0.0,
			"-0.022": 0.0,
			"-0.021": 0.0,
			"-0.02": 0.0,
			"-0.019": 0.0,
			"-0.018": 0.0,
			"-0.017": 0.0,
			"-0.016": 0.0,
			"-0.015": 0.0,
			"-0.014": 0.0141518172302,
			"-0.013": 1.33653139628,
			"-0.012": 1.51191948838,
			"-0.011": 1.4011119184,
			"-0.01": 1.40121006434,
			"-0.009": 1.27563308466,
			"-0.008": 1.28430381505,
			"-0.007": 5.97359602268,
			"-0.006": 10.4430727175,
			"-0.005": 16.9954322857,
			"-0.004": 18.7961069533,
			"-0.003": 15.701302769,
			"-0.002": 16.2767644689,
			"-0.001": 20.1324756836,
			"0.0": 19.0311829535,
			"0.001": 14.6788836521,
			"0.002": 12.9744844177,
			"0.003": 17.0128786233,
			"0.004": 9.11719980167,
			"0.005": 5.4027756994,
			"0.006": 3.24382354727,
			"0.007": 4.6820233016,
			"0.008": 4.80632214716,
			"0.009": 4.05029148066,
			"0.01": 5.39837972285,
			"0.011": 3.36620212442,
			"0.012": 2.60163579118,
			"0.013": 2.1677119983,
			"0.014": 0.891490265903,
			"0.015": 0.117103677935,
			"0.016": 0.0,
			"0.017": 0.0,
			"0.018": 0.0,
			"0.019": 0.0,
			"0.02": 0.0,
			"0.021": 0.0,
			"0.022": 0.0,
			"0.023": 0.0,
			"0.024": 0.0,
			"0.025": 0.0
		}
	}
}
