{
	 "smiles": "CC(=O)N1CCC2=C1C(=CC(Br)=C2)[N+]([O-])=O", 
	 "Tm": 470.15, 
	 "num_atms": 25, 
	 "gaussian": { 
		 "optdone": 1, 
		 "sigma_profile": "yes", 
		 "theory": "DFT", 
		 "functional": "B3LYP", 
		 "basiset": "6-31G**", 
		 "properties": { 
			 "R2extent": 6261.7589, 
			 "electric_dipole_moment_norm": 4.61277324286, 
			 "electric_quadrupole_moment_norm": 10.9189359234, 
			 "total_energy": -3292.97157193, 
			 "HOMO_LUMO_gap": 0.1363, 
			 "cosmo_polarized_energy": -13.45, 
			 "cosmo_cavitation_energy": 31.05, 
			 "cosmo_dispersion_energy": -22.88, 
			 "cosmo_repulsion_energy": 1.78, 
			 "cosmo_total_nonelectrostatic_energy": 9.95, 
			 "SMD_solvation_energy": 6.43 
		},
		"coords": [
			{
				"x": 2.5713566412,
				"y": -1.6704715192,
				"z": 0.0446919879,
				"element": "C" 
			},
			{
				"x": 1.5268026375,
				"y": -1.6860616347,
				"z": 1.1397948371,
				"element": "C" 
			},
			{
				"x": 1.3951093846,
				"y": -2.6452858913,
				"z": 1.8826100984,
				"element": "O" 
			},
			{
				"x": 0.6248538721,
				"y": -0.6184304321,
				"z": 1.2471344902,
				"element": "N" 
			},
			{
				"x": -0.660647442,
				"y": -0.8552146679,
				"z": 1.9476968233,
				"element": "C" 
			},
			{
				"x": -1.6932440248,
				"y": -0.1087050446,
				"z": 1.0778207745,
				"element": "C" 
			},
			{
				"x": -0.8406887154,
				"y": 0.9245068351,
				"z": 0.3747591558,
				"element": "C" 
			},
			{
				"x": 0.5221662914,
				"y": 0.5822122581,
				"z": 0.5347168895,
				"element": "C" 
			},
			{
				"x": 1.4853846799,
				"y": 1.4722719369,
				"z": 0.0347086261,
				"element": "C" 
			},
			{
				"x": 1.098099574,
				"y": 2.5926560794,
				"z": -0.7173476448,
				"element": "C" 
			},
			{
				"x": -0.2461283717,
				"y": 2.8630906319,
				"z": -0.906494487,
				"element": "C" 
			},
			{
				"x": -0.7683814128,
				"y": 4.3965626673,
				"z": -1.9104121154,
				"element": "Br" 
			},
			{
				"x": -1.2323431007,
				"y": 2.0420808828,
				"z": -0.3384842654,
				"element": "C" 
			},
			{
				"x": 2.9095025121,
				"y": 1.3813500623,
				"z": 0.370010776,
				"element": "N" 
			},
			{
				"x": 3.7110335916,
				"y": 1.9438922676,
				"z": -0.3740841332,
				"element": "O" 
			},
			{
				"x": 3.2109255999,
				"y": 0.7855165571,
				"z": 1.4048550495,
				"element": "O" 
			},
			{
				"x": 2.6369385864,
				"y": -2.6901051066,
				"z": -0.339675303,
				"element": "H" 
			},
			{
				"x": 3.5434284708,
				"y": -1.4017946804,
				"z": 0.4645245069,
				"element": "H" 
			},
			{
				"x": 2.3438271816,
				"y": -0.9883756583,
				"z": -0.7772531099,
				"element": "H" 
			},
			{
				"x": -0.8245020248,
				"y": -1.927855984,
				"z": 2.0338128017,
				"element": "H" 
			},
			{
				"x": -0.6083887605,
				"y": -0.4324503397,
				"z": 2.9571265759,
				"element": "H" 
			},
			{
				"x": -2.1608847613,
				"y": -0.7835060858,
				"z": 0.3492773181,
				"element": "H" 
			},
			{
				"x": -2.4925544274,
				"y": 0.3390186984,
				"z": 1.6737747383,
				"element": "H" 
			},
			{
				"x": 1.869165998,
				"y": 3.2435121569,
				"z": -1.1070064161,
				"element": "H" 
			},
			{
				"x": -2.2820319797,
				"y": 2.2854860109,
				"z": -0.4616579741,
				"element": "H" 
			}
		],
		 "valence_orbital": [ 
			{
				"type": "occ",
				"energy": -0.30285,
				"method": "rhf"
			},
			{
				"type": "occ",
				"energy": -0.29583,
				"method": "rhf"
			},
			{
				"type": "occ",
				"energy": -0.2856,
				"method": "rhf"
			},
			{
				"type": "occ",
				"energy": -0.26609,
				"method": "rhf"
			},
			{
				"type": "occ",
				"energy": -0.23585,
				"method": "rhf"
			},
			{
				"type": "unocc",
				"energy": -0.09955,
				"method": "rhf"
			},
			{
				"type": "unocc",
				"energy": -0.04296,
				"method": "rhf"
			},
			{
				"type": "unocc",
				"energy": -0.0256,
				"method": "rhf"
			},
			{
				"type": "unocc",
				"energy": -0.00877,
				"method": "rhf"
			},
			{
				"type": "unocc",
				"energy": 0.01612,
				"method": "rhf"
			}
		],
		"cosmo_sigma_profile": { 
			"-0.025": 0.0,
			"-0.024": 0.0,
			"-0.023": 0.0,
			"-0.022": 0.0,
			"-0.021": 0.0,
			"-0.02": 0.0,
			"-0.019": 0.0,
			"-0.018": 0.0,
			"-0.017": 0.0,
			"-0.016": 0.0,
			"-0.015": 0.0,
			"-0.014": 0.0,
			"-0.013": 0.0,
			"-0.012": 0.0,
			"-0.011": 0.0,
			"-0.01": 0.0,
			"-0.009": 0.512227273478,
			"-0.008": 2.45929261012,
			"-0.007": 5.03165104992,
			"-0.006": 16.9596745799,
			"-0.005": 27.3585718882,
			"-0.004": 23.7436092721,
			"-0.003": 22.5188155234,
			"-0.002": 18.3827856382,
			"-0.001": 17.8868027639,
			"0.0": 19.1647355763,
			"0.001": 13.8903621434,
			"0.002": 9.59451498596,
			"0.003": 13.7674549276,
			"0.004": 14.2715085913,
			"0.005": 5.08795383326,
			"0.006": 6.12588796125,
			"0.007": 9.97256294897,
			"0.008": 6.81929353717,
			"0.009": 4.81303147507,
			"0.01": 2.90228759941,
			"0.011": 1.6132428912,
			"0.012": 4.40750957904,
			"0.013": 3.17779540652,
			"0.014": 0.734803461311,
			"0.015": 0.0,
			"0.016": 0.0,
			"0.017": 0.0,
			"0.018": 0.0,
			"0.019": 0.0,
			"0.02": 0.0,
			"0.021": 0.0,
			"0.022": 0.0,
			"0.023": 0.0,
			"0.024": 0.0,
			"0.025": 0.0
		}
	}
}
