{
	 "smiles": "OC1N=C(C2=CC=CC=C2)C2=CC(Cl)=CC=C2NC1=O", 
	 "Tm": 478.15, 
	 "num_atms": 31, 
	 "gaussian": { 
		 "optdone": 1, 
		 "sigma_profile": "yes", 
		 "theory": "DFT", 
		 "functional": "B3LYP", 
		 "basiset": "6-31G**", 
		 "properties": { 
			 "R2extent": 6761.6085, 
			 "electric_dipole_moment_norm": 4.11022800584, 
			 "electric_quadrupole_moment_norm": 21.4281848158, 
			 "total_energy": -1298.37056347, 
			 "HOMO_LUMO_gap": 0.17794, 
			 "cosmo_polarized_energy": -17.71, 
			 "cosmo_cavitation_energy": 36.82, 
			 "cosmo_dispersion_energy": -26.56, 
			 "cosmo_repulsion_energy": 2.04, 
			 "cosmo_total_nonelectrostatic_energy": 12.31, 
			 "SMD_solvation_energy": 4.12 
		},
		"coords": [
			{
				"x": 2.6587536318,
				"y": -0.2269861422,
				"z": -2.5574597139,
				"element": "O" 
			},
			{
				"x": 1.4374324046,
				"y": 0.2600548697,
				"z": -2.110316825,
				"element": "C" 
			},
			{
				"x": 1.182813652,
				"y": -0.1008234512,
				"z": -0.7264139079,
				"element": "N" 
			},
			{
				"x": 0.0038678568,
				"y": 0.0378180447,
				"z": -0.2313623729,
				"element": "C" 
			},
			{
				"x": -0.2007939218,
				"y": -0.4163058839,
				"z": 1.177474945,
				"element": "C" 
			},
			{
				"x": -1.1537608208,
				"y": 0.1745867173,
				"z": 2.0227145368,
				"element": "C" 
			},
			{
				"x": -1.2836669742,
				"y": -0.2449889008,
				"z": 3.3471981989,
				"element": "C" 
			},
			{
				"x": -0.4691715631,
				"y": -1.263470876,
				"z": 3.8428194501,
				"element": "C" 
			},
			{
				"x": 0.4850726803,
				"y": -1.8554008747,
				"z": 3.0098126866,
				"element": "C" 
			},
			{
				"x": 0.622349388,
				"y": -1.4331626632,
				"z": 1.6908985748,
				"element": "C" 
			},
			{
				"x": -1.1557175858,
				"y": 0.6205846396,
				"z": -0.9730317625,
				"element": "C" 
			},
			{
				"x": -2.4317799944,
				"y": 0.0435100873,
				"z": -0.8415648449,
				"element": "C" 
			},
			{
				"x": -3.5332460975,
				"y": 0.5985361945,
				"z": -1.4785080106,
				"element": "C" 
			},
			{
				"x": -5.1087312082,
				"y": -0.1544400328,
				"z": -1.3052619449,
				"element": "Cl" 
			},
			{
				"x": -3.4046166256,
				"y": 1.7566561722,
				"z": -2.2495099826,
				"element": "C" 
			},
			{
				"x": -2.1486691911,
				"y": 2.3267881342,
				"z": -2.4039632865,
				"element": "C" 
			},
			{
				"x": -1.0167170623,
				"y": 1.7652529539,
				"z": -1.7921937114,
				"element": "C" 
			},
			{
				"x": 0.2245188366,
				"y": 2.4021299734,
				"z": -1.9785250053,
				"element": "N" 
			},
			{
				"x": 1.4414355723,
				"y": 1.7962282985,
				"z": -2.1862679403,
				"element": "C" 
			},
			{
				"x": 2.4647649848,
				"y": 2.4274439092,
				"z": -2.3956420242,
				"element": "O" 
			},
			{
				"x": 3.2918200371,
				"y": 0.5051094344,
				"z": -2.4574471495,
				"element": "H" 
			},
			{
				"x": 0.6470919504,
				"y": -0.134552465,
				"z": -2.76921786,
				"element": "H" 
			},
			{
				"x": -1.7838339221,
				"y": 0.97672334,
				"z": 1.6525430782,
				"element": "H" 
			},
			{
				"x": -2.0194062428,
				"y": 0.2278973721,
				"z": 3.9911567392,
				"element": "H" 
			},
			{
				"x": -0.5752728878,
				"y": -1.5941513192,
				"z": 4.8720361271,
				"element": "H" 
			},
			{
				"x": 1.1217340587,
				"y": -2.6490099984,
				"z": 3.3901096946,
				"element": "H" 
			},
			{
				"x": 1.3657367978,
				"y": -1.8757384307,
				"z": 1.0370243362,
				"element": "H" 
			},
			{
				"x": -2.5531029596,
				"y": -0.8408892343,
				"z": -0.2276181991,
				"element": "H" 
			},
			{
				"x": -4.2721825427,
				"y": 2.1919225948,
				"z": -2.7323927708,
				"element": "H" 
			},
			{
				"x": -2.0317773003,
				"y": 3.2129866026,
				"z": -3.0212880288,
				"element": "H" 
			},
			{
				"x": 0.2250550488,
				"y": 3.400490934,
				"z": -2.1493030263,
				"element": "H" 
			}
		],
		 "valence_orbital": [ 
			{
				"type": "occ",
				"energy": -0.27898,
				"method": "rhf"
			},
			{
				"type": "occ",
				"energy": -0.26323,
				"method": "rhf"
			},
			{
				"type": "occ",
				"energy": -0.25723,
				"method": "rhf"
			},
			{
				"type": "occ",
				"energy": -0.24436,
				"method": "rhf"
			},
			{
				"type": "occ",
				"energy": -0.24419,
				"method": "rhf"
			},
			{
				"type": "unocc",
				"energy": -0.06625,
				"method": "rhf"
			},
			{
				"type": "unocc",
				"energy": -0.04003,
				"method": "rhf"
			},
			{
				"type": "unocc",
				"energy": -0.03035,
				"method": "rhf"
			},
			{
				"type": "unocc",
				"energy": -0.00651,
				"method": "rhf"
			},
			{
				"type": "unocc",
				"energy": 0.00975,
				"method": "rhf"
			}
		],
		"cosmo_sigma_profile": { 
			"-0.025": 0.0,
			"-0.024": 0.0,
			"-0.023": 0.0,
			"-0.022": 0.0,
			"-0.021": 0.0,
			"-0.02": 0.0,
			"-0.019": 0.0,
			"-0.018": 0.0,
			"-0.017": 0.055902324301,
			"-0.016": 0.893747479365,
			"-0.015": 1.31555136016,
			"-0.014": 1.35583036464,
			"-0.013": 0.974186219297,
			"-0.012": 1.5132462691,
			"-0.011": 1.61261197302,
			"-0.01": 2.77353484366,
			"-0.009": 1.92260757818,
			"-0.008": 4.54052140673,
			"-0.007": 9.34896861059,
			"-0.006": 14.7377862168,
			"-0.005": 18.2443332151,
			"-0.004": 20.5231905691,
			"-0.003": 19.0102054273,
			"-0.002": 19.5881215595,
			"-0.001": 21.0436213357,
			"0.0": 22.7640487368,
			"0.001": 24.5421912993,
			"0.002": 21.9741243261,
			"0.003": 18.9236258071,
			"0.004": 22.7540538875,
			"0.005": 13.7206451018,
			"0.006": 2.22748208174,
			"0.007": 4.15053267246,
			"0.008": 3.40071918931,
			"0.009": 2.8878017022,
			"0.01": 4.11451920424,
			"0.011": 5.32353370173,
			"0.012": 5.79992721887,
			"0.013": 3.20038401716,
			"0.014": 1.7786343632,
			"0.015": 0.575662806924,
			"0.016": 0.0,
			"0.017": 0.0,
			"0.018": 0.0,
			"0.019": 0.0,
			"0.02": 0.0,
			"0.021": 0.0,
			"0.022": 0.0,
			"0.023": 0.0,
			"0.024": 0.0,
			"0.025": 0.0
		}
	}
}
