{
	 "smiles": "ClC1=CC(Br)=CC(Cl)=C1S(Cl)(=O)=O", 
	 "Tm": 318.15, 
	 "num_atms": 15, 
	 "gaussian": { 
		 "optdone": 1, 
		 "sigma_profile": "yes", 
		 "theory": "DFT", 
		 "functional": "B3LYP", 
		 "basiset": "6-31G**", 
		 "properties": { 
			 "R2extent": 6787.7384, 
			 "electric_dipole_moment_norm": 4.58595685326, 
			 "electric_quadrupole_moment_norm": 7.43277615363, 
			 "total_energy": -4730.35724513, 
			 "HOMO_LUMO_gap": 0.18257, 
			 "cosmo_polarized_energy": -8.61, 
			 "cosmo_cavitation_energy": 28.7, 
			 "cosmo_dispersion_energy": -22.26, 
			 "cosmo_repulsion_energy": 1.71, 
			 "cosmo_total_nonelectrostatic_energy": 8.15, 
			 "SMD_solvation_energy": 2.1 
		},
		"coords": [
			{
				"x": -3.2157080242,
				"y": -1.2983719792,
				"z": 0.510669874,
				"element": "Cl" 
			},
			{
				"x": -1.5419001657,
				"y": -1.4960621062,
				"z": 0.9501979745,
				"element": "C" 
			},
			{
				"x": -1.1708506405,
				"y": -2.8106477205,
				"z": 1.2448623332,
				"element": "C" 
			},
			{
				"x": 0.1415958452,
				"y": -3.0968221383,
				"z": 1.5948108295,
				"element": "C" 
			},
			{
				"x": 0.6336449035,
				"y": -4.8848480499,
				"z": 1.9931650869,
				"element": "Br" 
			},
			{
				"x": 1.1029474622,
				"y": -2.0945527782,
				"z": 1.6503318154,
				"element": "C" 
			},
			{
				"x": 0.7377587651,
				"y": -0.7814059004,
				"z": 1.3616492676,
				"element": "C" 
			},
			{
				"x": 2.0317297415,
				"y": 0.3828432053,
				"z": 1.4231363407,
				"element": "Cl" 
			},
			{
				"x": -0.5945983644,
				"y": -0.4480974007,
				"z": 1.018485802,
				"element": "C" 
			},
			{
				"x": -1.0359570772,
				"y": 1.2919551881,
				"z": 0.7246881725,
				"element": "S" 
			},
			{
				"x": -0.0543080525,
				"y": 1.6370077756,
				"z": -1.127797045,
				"element": "Cl" 
			},
			{
				"x": -0.3845953046,
				"y": 2.112734423,
				"z": 1.7320809438,
				"element": "O" 
			},
			{
				"x": -2.4533481281,
				"y": 1.4272610647,
				"z": 0.4457645512,
				"element": "O" 
			},
			{
				"x": -1.9155794166,
				"y": -3.5939434508,
				"z": 1.1936599848,
				"element": "H" 
			},
			{
				"x": 2.1290684563,
				"y": -2.3184501325,
				"z": 1.910794069,
				"element": "H" 
			}
		],
		 "valence_orbital": [ 
			{
				"type": "occ",
				"energy": -0.32504,
				"method": "rhf"
			},
			{
				"type": "occ",
				"energy": -0.32036,
				"method": "rhf"
			},
			{
				"type": "occ",
				"energy": -0.31811,
				"method": "rhf"
			},
			{
				"type": "occ",
				"energy": -0.28881,
				"method": "rhf"
			},
			{
				"type": "occ",
				"energy": -0.28505,
				"method": "rhf"
			},
			{
				"type": "unocc",
				"energy": -0.10248,
				"method": "rhf"
			},
			{
				"type": "unocc",
				"energy": -0.07324,
				"method": "rhf"
			},
			{
				"type": "unocc",
				"energy": -0.06459,
				"method": "rhf"
			},
			{
				"type": "unocc",
				"energy": -0.04398,
				"method": "rhf"
			},
			{
				"type": "unocc",
				"energy": -0.00194,
				"method": "rhf"
			}
		],
		"cosmo_sigma_profile": { 
			"-0.025": 0.0,
			"-0.024": 0.0,
			"-0.023": 0.0,
			"-0.022": 0.0,
			"-0.021": 0.0,
			"-0.02": 0.0,
			"-0.019": 0.0,
			"-0.018": 0.0,
			"-0.017": 0.0,
			"-0.016": 0.0,
			"-0.015": 0.0,
			"-0.014": 0.0,
			"-0.013": 0.0,
			"-0.012": 0.0,
			"-0.011": 0.0108917723353,
			"-0.01": 1.56658940433,
			"-0.009": 3.14457325064,
			"-0.008": 3.7129741962,
			"-0.007": 4.36551372547,
			"-0.006": 6.83933531535,
			"-0.005": 7.71058899679,
			"-0.004": 13.5592929114,
			"-0.003": 21.8633988897,
			"-0.002": 30.2850849225,
			"-0.001": 18.2827393751,
			"0.0": 16.3513668245,
			"0.001": 22.4329134297,
			"0.002": 30.2724702159,
			"0.003": 27.9508819107,
			"0.004": 5.42515402257,
			"0.005": 4.23538019981,
			"0.006": 5.4044091328,
			"0.007": 9.4043642013,
			"0.008": 8.70386148941,
			"0.009": 0.509433917492,
			"0.01": 0.0,
			"0.011": 0.0,
			"0.012": 0.0,
			"0.013": 0.0,
			"0.014": 0.0,
			"0.015": 0.0,
			"0.016": 0.0,
			"0.017": 0.0,
			"0.018": 0.0,
			"0.019": 0.0,
			"0.02": 0.0,
			"0.021": 0.0,
			"0.022": 0.0,
			"0.023": 0.0,
			"0.024": 0.0,
			"0.025": 0.0
		}
	}
}
