{
	 "smiles": "CCOC1=CC=C(C=C1)C1=NN=C2SC(NN12)C1=CC=CC=C1O", 
	 "Tm": 450.15, 
	 "num_atms": 40, 
	 "gaussian": { 
		 "optdone": 1, 
		 "sigma_profile": "yes", 
		 "theory": "DFT", 
		 "functional": "B3LYP", 
		 "basiset": "6-31G**", 
		 "properties": { 
			 "R2extent": 11729.3301, 
			 "electric_dipole_moment_norm": 5.59142802779, 
			 "electric_quadrupole_moment_norm": 33.7839127758, 
			 "total_energy": -1425.01133271, 
			 "HOMO_LUMO_gap": 0.16064, 
			 "cosmo_polarized_energy": -27.61, 
			 "cosmo_cavitation_energy": 45.07, 
			 "cosmo_dispersion_energy": -32.44, 
			 "cosmo_repulsion_energy": 2.41, 
			 "cosmo_total_nonelectrostatic_energy": 15.03, 
			 "SMD_solvation_energy": 5.22 
		},
		"coords": [
			{
				"x": 3.2423423315,
				"y": -1.1701397005,
				"z": 4.9521852868,
				"element": "C" 
			},
			{
				"x": 4.2244525399,
				"y": -1.3826823383,
				"z": 3.8046600141,
				"element": "C" 
			},
			{
				"x": 3.9452976843,
				"y": -0.5436414687,
				"z": 2.6802302698,
				"element": "O" 
			},
			{
				"x": 2.966927719,
				"y": -0.8903868995,
				"z": 1.7953769153,
				"element": "C" 
			},
			{
				"x": 2.1999398692,
				"y": -2.064039514,
				"z": 1.8517431347,
				"element": "C" 
			},
			{
				"x": 1.2454499167,
				"y": -2.3161814714,
				"z": 0.8703249453,
				"element": "C" 
			},
			{
				"x": 1.0256425745,
				"y": -1.4139028359,
				"z": -0.1815250125,
				"element": "C" 
			},
			{
				"x": 1.7938832772,
				"y": -0.236087143,
				"z": -0.2238602763,
				"element": "C" 
			},
			{
				"x": 2.750042119,
				"y": 0.0196639095,
				"z": 0.7497348862,
				"element": "C" 
			},
			{
				"x": -0.0063969039,
				"y": -1.7277386061,
				"z": -1.1694827115,
				"element": "C" 
			},
			{
				"x": -0.8962579341,
				"y": -2.7023289895,
				"z": -1.0609047504,
				"element": "N" 
			},
			{
				"x": -1.7283590244,
				"y": -2.6927667437,
				"z": -2.1729755699,
				"element": "N" 
			},
			{
				"x": -1.2934235399,
				"y": -1.7265152491,
				"z": -2.9376033778,
				"element": "C" 
			},
			{
				"x": -1.7947370902,
				"y": -0.9668849706,
				"z": -4.4419917945,
				"element": "S" 
			},
			{
				"x": -0.6592067756,
				"y": 0.5111559547,
				"z": -4.0029350505,
				"element": "C" 
			},
			{
				"x": 0.3464126129,
				"y": 0.0029203581,
				"z": -3.0434346321,
				"element": "N" 
			},
			{
				"x": -0.214296857,
				"y": -1.1029293551,
				"z": -2.3790814285,
				"element": "N" 
			},
			{
				"x": -1.4135703374,
				"y": 1.7474349743,
				"z": -3.5819557998,
				"element": "C" 
			},
			{
				"x": -1.4380310872,
				"y": 2.8370986404,
				"z": -4.460916031,
				"element": "C" 
			},
			{
				"x": -2.1312206419,
				"y": 4.0105493581,
				"z": -4.1653626671,
				"element": "C" 
			},
			{
				"x": -2.8193450795,
				"y": 4.1059570494,
				"z": -2.9567606183,
				"element": "C" 
			},
			{
				"x": -2.8098914116,
				"y": 3.0380689206,
				"z": -2.0607656243,
				"element": "C" 
			},
			{
				"x": -2.1162982318,
				"y": 1.8632897963,
				"z": -2.3658394839,
				"element": "C" 
			},
			{
				"x": -2.0880411305,
				"y": 0.8021439179,
				"z": -1.5172732071,
				"element": "O" 
			},
			{
				"x": 3.5345251704,
				"y": -1.7804638041,
				"z": 5.8133588366,
				"element": "H" 
			},
			{
				"x": 2.2226734971,
				"y": -1.4447306842,
				"z": 4.6691734224,
				"element": "H" 
			},
			{
				"x": 3.240366968,
				"y": -0.1202016374,
				"z": 5.2585556049,
				"element": "H" 
			},
			{
				"x": 4.2632561182,
				"y": -2.4345482287,
				"z": 3.4949136441,
				"element": "H" 
			},
			{
				"x": 5.2340435637,
				"y": -1.0958785217,
				"z": 4.1123258435,
				"element": "H" 
			},
			{
				"x": 2.336308141,
				"y": -2.7854917215,
				"z": 2.6483597782,
				"element": "H" 
			},
			{
				"x": 0.6492024302,
				"y": -3.2214155955,
				"z": 0.9100605892,
				"element": "H" 
			},
			{
				"x": 1.6313178587,
				"y": 0.4860196394,
				"z": -1.0165498085,
				"element": "H" 
			},
			{
				"x": 3.3470441932,
				"y": 0.9254328241,
				"z": 0.7232772704,
				"element": "H" 
			},
			{
				"x": -0.1247273761,
				"y": 0.7507810482,
				"z": -4.9234312489,
				"element": "H" 
			},
			{
				"x": 1.1371705583,
				"y": -0.3561420298,
				"z": -3.5803984426,
				"element": "H" 
			},
			{
				"x": -0.8996707494,
				"y": 2.7592190297,
				"z": -5.4026713596,
				"element": "H" 
			},
			{
				"x": -2.1304068639,
				"y": 4.8369267,
				"z": -4.8683915597,
				"element": "H" 
			},
			{
				"x": -3.3645505193,
				"y": 5.0105158556,
				"z": -2.70429022,
				"element": "H" 
			},
			{
				"x": -3.3434199982,
				"y": 3.1100006289,
				"z": -1.1154613258,
				"element": "H" 
			},
			{
				"x": -2.6549475908,
				"y": 0.9690189032,
				"z": -0.7533184408,
				"element": "H" 
			}
		],
		 "valence_orbital": [ 
			{
				"type": "occ",
				"energy": -0.25081,
				"method": "rhf"
			},
			{
				"type": "occ",
				"energy": -0.24142,
				"method": "rhf"
			},
			{
				"type": "occ",
				"energy": -0.23639,
				"method": "rhf"
			},
			{
				"type": "occ",
				"energy": -0.23231,
				"method": "rhf"
			},
			{
				"type": "occ",
				"energy": -0.19533,
				"method": "rhf"
			},
			{
				"type": "unocc",
				"energy": -0.03469,
				"method": "rhf"
			},
			{
				"type": "unocc",
				"energy": -0.0157,
				"method": "rhf"
			},
			{
				"type": "unocc",
				"energy": -0.00537,
				"method": "rhf"
			},
			{
				"type": "unocc",
				"energy": -0.00154,
				"method": "rhf"
			},
			{
				"type": "unocc",
				"energy": 0.00723,
				"method": "rhf"
			}
		],
		"cosmo_sigma_profile": { 
			"-0.025": 0.0,
			"-0.024": 0.0,
			"-0.023": 0.0,
			"-0.022": 0.0,
			"-0.021": 0.0,
			"-0.02": 0.0,
			"-0.019": 0.0250313278619,
			"-0.018": 0.96943153597,
			"-0.017": 0.957400647161,
			"-0.016": 1.65854949115,
			"-0.015": 2.9779446724,
			"-0.014": 3.0068315962,
			"-0.013": 2.7335559476,
			"-0.012": 1.92513280245,
			"-0.011": 2.31486580685,
			"-0.01": 5.32669795227,
			"-0.009": 4.64111252683,
			"-0.008": 4.61374135599,
			"-0.007": 6.44205687323,
			"-0.006": 14.3697186994,
			"-0.005": 20.4967942906,
			"-0.004": 26.5329113889,
			"-0.003": 25.5831613827,
			"-0.002": 21.5543381499,
			"-0.001": 20.7995327776,
			"0.0": 22.0863428365,
			"0.001": 20.7246848828,
			"0.002": 23.0542663532,
			"0.003": 28.1759987082,
			"0.004": 32.5039976777,
			"0.005": 22.0540234344,
			"0.006": 11.0849087563,
			"0.007": 6.65532985695,
			"0.008": 4.27889201589,
			"0.009": 4.11405362107,
			"0.01": 2.94558810477,
			"0.011": 2.50770971527,
			"0.012": 2.53032989437,
			"0.013": 2.8573742989,
			"0.014": 4.36076890704,
			"0.015": 2.47840496242,
			"0.016": 2.22594784035,
			"0.017": 0.514530237854,
			"0.018": 0.0,
			"0.019": 0.0,
			"0.02": 0.0,
			"0.021": 0.0,
			"0.022": 0.0,
			"0.023": 0.0,
			"0.024": 0.0,
			"0.025": 0.0
		}
	}
}
