{
	 "smiles": "NC1=CC2=C(NC(=O)C(=O)N2)C=C1", 
	 "Tm": 626.15, 
	 "num_atms": 20, 
	 "gaussian": { 
		 "optdone": 1, 
		 "sigma_profile": "yes", 
		 "theory": "DFT", 
		 "functional": "B3LYP", 
		 "basiset": "6-31G**", 
		 "properties": { 
			 "R2extent": 2666.5573, 
			 "electric_dipole_moment_norm": 7.93323873207, 
			 "electric_quadrupole_moment_norm": 20.6190613462, 
			 "total_energy": -623.803586429, 
			 "HOMO_LUMO_gap": 0.15681, 
			 "cosmo_polarized_energy": -25.94, 
			 "cosmo_cavitation_energy": 24.91, 
			 "cosmo_dispersion_energy": -18.81, 
			 "cosmo_repulsion_energy": 1.47, 
			 "cosmo_total_nonelectrostatic_energy": 7.58, 
			 "SMD_solvation_energy": 5.56 
		},
		"coords": [
			{
				"x": -1.9273955603,
				"y": 3.1040283969,
				"z": -0.1632910382,
				"element": "N" 
			},
			{
				"x": -1.2792294668,
				"y": 1.875885882,
				"z": -0.018150045,
				"element": "C" 
			},
			{
				"x": 0.0008585781,
				"y": 1.6764957343,
				"z": -0.5533907039,
				"element": "C" 
			},
			{
				"x": 0.6217383179,
				"y": 0.4291500672,
				"z": -0.4622468406,
				"element": "C" 
			},
			{
				"x": -0.0268754323,
				"y": -0.6446555004,
				"z": 0.1696832272,
				"element": "C" 
			},
			{
				"x": 0.6389876087,
				"y": -1.8739748773,
				"z": 0.2388525803,
				"element": "N" 
			},
			{
				"x": 1.8934510348,
				"y": -2.1558929417,
				"z": -0.2569418481,
				"element": "C" 
			},
			{
				"x": 2.410928471,
				"y": -3.2530244241,
				"z": -0.1594450971,
				"element": "O" 
			},
			{
				"x": 2.6027208522,
				"y": -0.9842202134,
				"z": -0.9474409627,
				"element": "C" 
			},
			{
				"x": 3.7121932702,
				"y": -1.0952907151,
				"z": -1.4314470884,
				"element": "O" 
			},
			{
				"x": 1.8952611079,
				"y": 0.2037416482,
				"z": -0.9849839213,
				"element": "N" 
			},
			{
				"x": -1.301883998,
				"y": -0.4450783194,
				"z": 0.7028308754,
				"element": "C" 
			},
			{
				"x": -1.9233752915,
				"y": 0.7950276733,
				"z": 0.6130452479,
				"element": "C" 
			},
			{
				"x": -1.3186779233,
				"y": 3.9021836994,
				"z": -0.2824826524,
				"element": "H" 
			},
			{
				"x": -2.6527863146,
				"y": 3.2867303373,
				"z": 0.516498941,
				"element": "H" 
			},
			{
				"x": 0.5169227954,
				"y": 2.4935065948,
				"z": -1.051409756,
				"element": "H" 
			},
			{
				"x": 0.1810414294,
				"y": -2.656514864,
				"z": 0.6906595724,
				"element": "H" 
			},
			{
				"x": 2.3801195832,
				"y": 0.9626257846,
				"z": -1.4492388035,
				"element": "H" 
			},
			{
				"x": -1.8095034754,
				"y": -1.2703962425,
				"z": 1.1947618379,
				"element": "H" 
			},
			{
				"x": -2.9176955867,
				"y": 0.9298722799,
				"z": 1.028436475,
				"element": "H" 
			}
		],
		 "valence_orbital": [ 
			{
				"type": "occ",
				"energy": -0.28307,
				"method": "rhf"
			},
			{
				"type": "occ",
				"energy": -0.28242,
				"method": "rhf"
			},
			{
				"type": "occ",
				"energy": -0.25311,
				"method": "rhf"
			},
			{
				"type": "occ",
				"energy": -0.24155,
				"method": "rhf"
			},
			{
				"type": "occ",
				"energy": -0.20116,
				"method": "rhf"
			},
			{
				"type": "unocc",
				"energy": -0.04435,
				"method": "rhf"
			},
			{
				"type": "unocc",
				"energy": -0.00888,
				"method": "rhf"
			},
			{
				"type": "unocc",
				"energy": 0.0022,
				"method": "rhf"
			},
			{
				"type": "unocc",
				"energy": 0.06527,
				"method": "rhf"
			},
			{
				"type": "unocc",
				"energy": 0.07603,
				"method": "rhf"
			}
		],
		"cosmo_sigma_profile": { 
			"-0.025": 0.0,
			"-0.024": 0.0,
			"-0.023": 0.0,
			"-0.022": 0.0,
			"-0.021": 0.0,
			"-0.02": 0.0,
			"-0.019": 0.0,
			"-0.018": 0.0,
			"-0.017": 0.0,
			"-0.016": 1.21463786534,
			"-0.015": 2.47863992945,
			"-0.014": 2.93833042361,
			"-0.013": 2.75424880087,
			"-0.012": 5.71535036371,
			"-0.011": 4.80831045803,
			"-0.01": 5.29213223754,
			"-0.009": 6.08983143069,
			"-0.008": 5.73740933191,
			"-0.007": 7.77367531064,
			"-0.006": 8.27961498316,
			"-0.005": 9.13673070325,
			"-0.004": 9.31656236044,
			"-0.003": 7.83624398696,
			"-0.002": 8.29624647446,
			"-0.001": 10.5133260399,
			"0.0": 9.2129391701,
			"0.001": 8.79195662062,
			"0.002": 8.93205811196,
			"0.003": 8.62472171102,
			"0.004": 11.0610869418,
			"0.005": 8.68711896,
			"0.006": 3.42477504791,
			"0.007": 2.61494849951,
			"0.008": 3.35386543094,
			"0.009": 2.97335468279,
			"0.01": 2.85688304809,
			"0.011": 5.18589471771,
			"0.012": 9.44090302897,
			"0.013": 9.25029980883,
			"0.014": 3.2966573706,
			"0.015": 2.15891251627,
			"0.016": 0.697729531826,
			"0.017": 0.0,
			"0.018": 0.0,
			"0.019": 0.0,
			"0.02": 0.0,
			"0.021": 0.0,
			"0.022": 0.0,
			"0.023": 0.0,
			"0.024": 0.0,
			"0.025": 0.0
		}
	}
}
