{
	 "smiles": "OC(=O)C1(Br)CCCC1", 
	 "Tm": 340.15, 
	 "num_atms": 18, 
	 "gaussian": { 
		 "optdone": 1, 
		 "sigma_profile": "yes", 
		 "theory": "DFT", 
		 "functional": "B3LYP", 
		 "basiset": "6-31G**", 
		 "properties": { 
			 "R2extent": 2098.2823, 
			 "electric_dipole_moment_norm": 2.14997131609, 
			 "electric_quadrupole_moment_norm": 8.82281995509, 
			 "total_energy": -2955.9350842, 
			 "HOMO_LUMO_gap": 0.22842, 
			 "cosmo_polarized_energy": -9.07, 
			 "cosmo_cavitation_energy": 22.54, 
			 "cosmo_dispersion_energy": -16.89, 
			 "cosmo_repulsion_energy": 1.39, 
			 "cosmo_total_nonelectrostatic_energy": 7.05, 
			 "SMD_solvation_energy": 3.5 
		},
		"coords": [
			{
				"x": 3.0416835877,
				"y": -0.0940182057,
				"z": -0.5553545713,
				"element": "O" 
			},
			{
				"x": 2.3332029096,
				"y": 1.0458088743,
				"z": -0.7028706063,
				"element": "C" 
			},
			{
				"x": 2.7957624063,
				"y": 2.0554729112,
				"z": -1.1852578556,
				"element": "O" 
			},
			{
				"x": 0.896285335,
				"y": 0.8970868964,
				"z": -0.2330555233,
				"element": "C" 
			},
			{
				"x": 1.0074393627,
				"y": 0.9066915208,
				"z": 1.7873554252,
				"element": "Br" 
			},
			{
				"x": -0.0319034788,
				"y": 2.0250520345,
				"z": -0.6841007941,
				"element": "C" 
			},
			{
				"x": -1.4589193302,
				"y": 1.4733154018,
				"z": -0.4694002531,
				"element": "C" 
			},
			{
				"x": -1.3243314588,
				"y": -0.0805705428,
				"z": -0.4623706042,
				"element": "C" 
			},
			{
				"x": 0.1748856577,
				"y": -0.3787405436,
				"z": -0.6860745306,
				"element": "C" 
			},
			{
				"x": 3.9406793626,
				"y": 0.1019224826,
				"z": -0.8685470642,
				"element": "H" 
			},
			{
				"x": 0.1664938011,
				"y": 2.9675270126,
				"z": -0.1723851891,
				"element": "H" 
			},
			{
				"x": 0.1677354722,
				"y": 2.1915590773,
				"z": -1.7498665633,
				"element": "H" 
			},
			{
				"x": -1.8607444235,
				"y": 1.8222979491,
				"z": 0.4853519596,
				"element": "H" 
			},
			{
				"x": -2.1370830241,
				"y": 1.8272920138,
				"z": -1.2508006313,
				"element": "H" 
			},
			{
				"x": -1.6473010498,
				"y": -0.4850444799,
				"z": 0.5003918875,
				"element": "H" 
			},
			{
				"x": -1.9382047152,
				"y": -0.5560386203,
				"z": -1.2324044257,
				"element": "H" 
			},
			{
				"x": 0.385209318,
				"y": -0.5024423114,
				"z": -1.7574201647,
				"element": "H" 
			},
			{
				"x": 0.5360102675,
				"y": -1.2744714709,
				"z": -0.1793904955,
				"element": "H" 
			}
		],
		 "valence_orbital": [ 
			{
				"type": "occ",
				"energy": -0.3318,
				"method": "rhf"
			},
			{
				"type": "occ",
				"energy": -0.32407,
				"method": "rhf"
			},
			{
				"type": "occ",
				"energy": -0.29397,
				"method": "rhf"
			},
			{
				"type": "occ",
				"energy": -0.27463,
				"method": "rhf"
			},
			{
				"type": "occ",
				"energy": -0.27093,
				"method": "rhf"
			},
			{
				"type": "unocc",
				"energy": -0.04251,
				"method": "rhf"
			},
			{
				"type": "unocc",
				"energy": 0.03135,
				"method": "rhf"
			},
			{
				"type": "unocc",
				"energy": 0.0667,
				"method": "rhf"
			},
			{
				"type": "unocc",
				"energy": 0.08523,
				"method": "rhf"
			},
			{
				"type": "unocc",
				"energy": 0.10506,
				"method": "rhf"
			}
		],
		"cosmo_sigma_profile": { 
			"-0.025": 0.0,
			"-0.024": 0.0,
			"-0.023": 0.0,
			"-0.022": 0.0,
			"-0.021": 0.0,
			"-0.02": 0.0,
			"-0.019": 0.504810757474,
			"-0.018": 0.823624008926,
			"-0.017": 1.04667512557,
			"-0.016": 1.0702378965,
			"-0.015": 0.266242933865,
			"-0.014": 0.610404485634,
			"-0.013": 0.967583883774,
			"-0.012": 0.834599907506,
			"-0.011": 0.686773035708,
			"-0.01": 0.45193407685,
			"-0.009": 0.408979535813,
			"-0.008": 1.86159295317,
			"-0.007": 2.46536546997,
			"-0.006": 3.01501409848,
			"-0.005": 5.6918020978,
			"-0.004": 9.71747964082,
			"-0.003": 18.8671732729,
			"-0.002": 20.7991768737,
			"-0.001": 19.8547791077,
			"0.0": 17.3190435664,
			"0.001": 11.0594851879,
			"0.002": 8.54368144679,
			"0.003": 8.31440502652,
			"0.004": 8.90235768551,
			"0.005": 10.7724204685,
			"0.006": 5.58245114094,
			"0.007": 4.01934116125,
			"0.008": 3.42935728592,
			"0.009": 2.14408764627,
			"0.01": 3.18422604805,
			"0.011": 4.69077521285,
			"0.012": 0.997818329935,
			"0.013": 0.0,
			"0.014": 0.0,
			"0.015": 0.0,
			"0.016": 0.0,
			"0.017": 0.0,
			"0.018": 0.0,
			"0.019": 0.0,
			"0.02": 0.0,
			"0.021": 0.0,
			"0.022": 0.0,
			"0.023": 0.0,
			"0.024": 0.0,
			"0.025": 0.0
		}
	}
}
