{
	 "smiles": "CC1=CC=C(S1)C=CC(O)=O", 
	 "Tm": 434.15, 
	 "num_atms": 19, 
	 "gaussian": { 
		 "optdone": 1, 
		 "sigma_profile": "yes", 
		 "theory": "DFT", 
		 "functional": "B3LYP", 
		 "basiset": "6-31G**", 
		 "properties": { 
			 "R2extent": 3069.8346, 
			 "electric_dipole_moment_norm": 1.56339298962, 
			 "electric_quadrupole_moment_norm": 8.34018600632, 
			 "total_energy": -858.30032452, 
			 "HOMO_LUMO_gap": 0.14942, 
			 "cosmo_polarized_energy": -9.01, 
			 "cosmo_cavitation_energy": 25.12, 
			 "cosmo_dispersion_energy": -19.08, 
			 "cosmo_repulsion_energy": 1.49, 
			 "cosmo_total_nonelectrostatic_energy": 7.53, 
			 "SMD_solvation_energy": 5.38 
		},
		"coords": [
			{
				"x": 1.2200755518,
				"y": -1.5306021254,
				"z": -3.7214083692,
				"element": "C" 
			},
			{
				"x": 0.6760569495,
				"y": -0.6723822595,
				"z": -2.6194195259,
				"element": "C" 
			},
			{
				"x": 1.3553140199,
				"y": 0.234034089,
				"z": -1.8371534099,
				"element": "C" 
			},
			{
				"x": 0.5497835619,
				"y": 0.8916253365,
				"z": -0.8749246799,
				"element": "C" 
			},
			{
				"x": -0.7753423271,
				"y": 0.4940068789,
				"z": -0.9065248654,
				"element": "C" 
			},
			{
				"x": -0.9997952312,
				"y": -0.7236803456,
				"z": -2.1675649946,
				"element": "S" 
			},
			{
				"x": -1.9432794015,
				"y": 0.8670364504,
				"z": -0.1460942637,
				"element": "C" 
			},
			{
				"x": -2.1613696423,
				"y": 1.7409274585,
				"z": 0.8718559378,
				"element": "C" 
			},
			{
				"x": -1.2090976644,
				"y": 2.6260601193,
				"z": 1.5467831062,
				"element": "C" 
			},
			{
				"x": -1.8364929541,
				"y": 3.3447217194,
				"z": 2.5196500718,
				"element": "O" 
			},
			{
				"x": -0.0139186075,
				"y": 2.7665631721,
				"z": 1.3380709555,
				"element": "O" 
			},
			{
				"x": 0.7373390758,
				"y": -1.3156383222,
				"z": -4.6815177412,
				"element": "H" 
			},
			{
				"x": 1.0779763255,
				"y": -2.5974867927,
				"z": -3.5153536351,
				"element": "H" 
			},
			{
				"x": 2.2921349688,
				"y": -1.3496717114,
				"z": -3.8358087925,
				"element": "H" 
			},
			{
				"x": 2.4175624121,
				"y": 0.4205390853,
				"z": -1.9560835281,
				"element": "H" 
			},
			{
				"x": 0.9005132977,
				"y": 1.6334997165,
				"z": -0.1713478059,
				"element": "H" 
			},
			{
				"x": -2.8410137695,
				"y": 0.3323114439,
				"z": -0.4558928376,
				"element": "H" 
			},
			{
				"x": -3.1741630692,
				"y": 1.8100494355,
				"z": 1.2542739587,
				"element": "H" 
			},
			{
				"x": -1.1470834961,
				"y": 3.9013866516,
				"z": 2.9168604189,
				"element": "H" 
			}
		],
		 "valence_orbital": [ 
			{
				"type": "occ",
				"energy": -0.31383,
				"method": "rhf"
			},
			{
				"type": "occ",
				"energy": -0.2974,
				"method": "rhf"
			},
			{
				"type": "occ",
				"energy": -0.26852,
				"method": "rhf"
			},
			{
				"type": "occ",
				"energy": -0.25416,
				"method": "rhf"
			},
			{
				"type": "occ",
				"energy": -0.21748,
				"method": "rhf"
			},
			{
				"type": "unocc",
				"energy": -0.06806,
				"method": "rhf"
			},
			{
				"type": "unocc",
				"energy": 0.00873,
				"method": "rhf"
			},
			{
				"type": "unocc",
				"energy": 0.01573,
				"method": "rhf"
			},
			{
				"type": "unocc",
				"energy": 0.065,
				"method": "rhf"
			},
			{
				"type": "unocc",
				"energy": 0.08664,
				"method": "rhf"
			}
		],
		"cosmo_sigma_profile": { 
			"-0.025": 0.0,
			"-0.024": 0.0,
			"-0.023": 0.0,
			"-0.022": 0.0,
			"-0.021": 0.0,
			"-0.02": 0.0,
			"-0.019": 0.0,
			"-0.018": 0.169893568383,
			"-0.017": 0.977247647645,
			"-0.016": 0.942128491155,
			"-0.015": 0.503128523108,
			"-0.014": 0.682051788892,
			"-0.013": 0.890626719343,
			"-0.012": 0.533883249736,
			"-0.011": 0.54439917597,
			"-0.01": 1.1759476044,
			"-0.009": 0.725777598908,
			"-0.008": 1.68331779901,
			"-0.007": 4.12392231904,
			"-0.006": 9.22103991808,
			"-0.005": 13.7053118637,
			"-0.004": 12.1508889774,
			"-0.003": 14.1740963265,
			"-0.002": 13.6234313807,
			"-0.001": 16.5075683454,
			"0.0": 13.9298782949,
			"0.001": 12.9735129179,
			"0.002": 15.946598393,
			"0.003": 23.6788185468,
			"0.004": 19.2611474296,
			"0.005": 5.38252095315,
			"0.006": 2.22004714934,
			"0.007": 3.20983214902,
			"0.008": 3.36624990034,
			"0.009": 2.93230054711,
			"0.01": 3.39399533661,
			"0.011": 1.83226347806,
			"0.012": 1.87319551458,
			"0.013": 0.432931524221,
			"0.014": 0.0,
			"0.015": 0.0,
			"0.016": 0.0,
			"0.017": 0.0,
			"0.018": 0.0,
			"0.019": 0.0,
			"0.02": 0.0,
			"0.021": 0.0,
			"0.022": 0.0,
			"0.023": 0.0,
			"0.024": 0.0,
			"0.025": 0.0
		}
	}
}
