{
	 "smiles": "NC1=C(O)C(Br)=CC(Cl)=C1", 
	 "Tm": 357.15, 
	 "num_atms": 15, 
	 "gaussian": { 
		 "optdone": 1, 
		 "sigma_profile": "yes", 
		 "theory": "DFT", 
		 "functional": "B3LYP", 
		 "basiset": "6-31G**", 
		 "properties": { 
			 "R2extent": 3964.9503, 
			 "electric_dipole_moment_norm": 3.94052098586, 
			 "electric_quadrupole_moment_norm": 8.60676935615, 
			 "total_energy": -3393.21905943, 
			 "HOMO_LUMO_gap": 0.19645, 
			 "cosmo_polarized_energy": -10.32, 
			 "cosmo_cavitation_energy": 23.33, 
			 "cosmo_dispersion_energy": -18.13, 
			 "cosmo_repulsion_energy": 1.49, 
			 "cosmo_total_nonelectrostatic_energy": 6.69, 
			 "SMD_solvation_energy": 3.29 
		},
		"coords": [
			{
				"x": 0.8907551527,
				"y": -1.7714792044,
				"z": 0.3860050247,
				"element": "N" 
			},
			{
				"x": 0.1543263674,
				"y": -0.5334247087,
				"z": 0.4387535283,
				"element": "C" 
			},
			{
				"x": -0.6421388936,
				"y": -0.3779049533,
				"z": 1.5925132428,
				"element": "C" 
			},
			{
				"x": -0.6598458909,
				"y": -1.3502800142,
				"z": 2.5220782419,
				"element": "O" 
			},
			{
				"x": -1.397415875,
				"y": 0.7929732008,
				"z": 1.7386196315,
				"element": "C" 
			},
			{
				"x": -2.4790899558,
				"y": 1.0251526059,
				"z": 3.285402323,
				"element": "Br" 
			},
			{
				"x": -1.3657781369,
				"y": 1.7888947336,
				"z": 0.764909417,
				"element": "C" 
			},
			{
				"x": -0.5710637672,
				"y": 1.6132120572,
				"z": -0.3669301565,
				"element": "C" 
			},
			{
				"x": -0.5313699868,
				"y": 2.8707199868,
				"z": -1.5956762008,
				"element": "Cl" 
			},
			{
				"x": 0.1909532331,
				"y": 0.4586725399,
				"z": -0.539400203,
				"element": "C" 
			},
			{
				"x": 1.8935268732,
				"y": -1.6099567419,
				"z": 0.3417817222,
				"element": "H" 
			},
			{
				"x": 0.6329908958,
				"y": -2.3270533997,
				"z": -0.4254901078,
				"element": "H" 
			},
			{
				"x": -0.0509094741,
				"y": -2.030625623,
				"z": 2.1629827396,
				"element": "H" 
			},
			{
				"x": -1.9544346172,
				"y": 2.6890151171,
				"z": 0.8903805417,
				"element": "H" 
			},
			{
				"x": 0.8055940754,
				"y": 0.333284404,
				"z": -1.4246297446,
				"element": "H" 
			}
		],
		 "valence_orbital": [ 
			{
				"type": "occ",
				"energy": -0.30483,
				"method": "rhf"
			},
			{
				"type": "occ",
				"energy": -0.29569,
				"method": "rhf"
			},
			{
				"type": "occ",
				"energy": -0.28279,
				"method": "rhf"
			},
			{
				"type": "occ",
				"energy": -0.25426,
				"method": "rhf"
			},
			{
				"type": "occ",
				"energy": -0.22384,
				"method": "rhf"
			},
			{
				"type": "unocc",
				"energy": -0.02739,
				"method": "rhf"
			},
			{
				"type": "unocc",
				"energy": -0.00598,
				"method": "rhf"
			},
			{
				"type": "unocc",
				"energy": -0.00322,
				"method": "rhf"
			},
			{
				"type": "unocc",
				"energy": 0.04336,
				"method": "rhf"
			},
			{
				"type": "unocc",
				"energy": 0.06007,
				"method": "rhf"
			}
		],
		"cosmo_sigma_profile": { 
			"-0.025": 0.0,
			"-0.024": 0.0,
			"-0.023": 0.0,
			"-0.022": 0.0,
			"-0.021": 0.0,
			"-0.02": 0.0,
			"-0.019": 0.0,
			"-0.018": 0.0,
			"-0.017": 0.0,
			"-0.016": 0.0,
			"-0.015": 0.0,
			"-0.014": 0.0,
			"-0.013": 0.746086238126,
			"-0.012": 2.64300634138,
			"-0.011": 3.75767932376,
			"-0.01": 3.44323680826,
			"-0.009": 2.81378719445,
			"-0.008": 4.98746597462,
			"-0.007": 7.86043654299,
			"-0.006": 5.517723104,
			"-0.005": 5.98850306036,
			"-0.004": 6.88762995527,
			"-0.003": 8.00303319809,
			"-0.002": 9.38007451447,
			"-0.001": 9.93743655077,
			"0.0": 11.5065059863,
			"0.001": 19.3967523469,
			"0.002": 25.6680965775,
			"0.003": 16.4789457292,
			"0.004": 19.9586453618,
			"0.005": 12.9661787887,
			"0.006": 3.69564428488,
			"0.007": 1.90931152488,
			"0.008": 1.95290482299,
			"0.009": 2.13323182965,
			"0.01": 2.16119693577,
			"0.011": 1.99339386029,
			"0.012": 0.0898418226524,
			"0.013": 0.0,
			"0.014": 0.0,
			"0.015": 0.0,
			"0.016": 0.0,
			"0.017": 0.0,
			"0.018": 0.0,
			"0.019": 0.0,
			"0.02": 0.0,
			"0.021": 0.0,
			"0.022": 0.0,
			"0.023": 0.0,
			"0.024": 0.0,
			"0.025": 0.0
		}
	}
}
