{
	 "smiles": "CCOC(=O)C1=C(N)C(=C(SC)S1)S(C)(=O)=O", 
	 "Tm": 385.15, 
	 "num_atms": 30, 
	 "gaussian": { 
		 "optdone": 1, 
		 "sigma_profile": "yes", 
		 "theory": "DFT", 
		 "functional": "B3LYP", 
		 "basiset": "6-31G**", 
		 "properties": { 
			 "R2extent": 6923.3078, 
			 "electric_dipole_moment_norm": 3.18985261258, 
			 "electric_quadrupole_moment_norm": 24.7738582679, 
			 "total_energy": -1900.95033293, 
			 "HOMO_LUMO_gap": 0.15866, 
			 "cosmo_polarized_energy": -18.49, 
			 "cosmo_cavitation_energy": 37.35, 
			 "cosmo_dispersion_energy": -28.18, 
			 "cosmo_repulsion_energy": 2.08, 
			 "cosmo_total_nonelectrostatic_energy": 11.26, 
			 "SMD_solvation_energy": 7.06 
		},
		"coords": [
			{
				"x": -2.0280036121,
				"y": -2.3007871844,
				"z": -3.7813763044,
				"element": "C" 
			},
			{
				"x": -0.7997868985,
				"y": -1.4768110502,
				"z": -4.1362034171,
				"element": "C" 
			},
			{
				"x": -0.0527250479,
				"y": -1.1016550617,
				"z": -2.9522119573,
				"element": "O" 
			},
			{
				"x": -0.4750398688,
				"y": 0.0281653875,
				"z": -2.3058652523,
				"element": "C" 
			},
			{
				"x": -1.4108856602,
				"y": 0.7098758588,
				"z": -2.6932022849,
				"element": "O" 
			},
			{
				"x": 0.3110798138,
				"y": 0.3160443658,
				"z": -1.123339184,
				"element": "C" 
			},
			{
				"x": 1.3847870777,
				"y": -0.3577354143,
				"z": -0.546749799,
				"element": "C" 
			},
			{
				"x": 2.0039085735,
				"y": -1.4597269718,
				"z": -1.0647031121,
				"element": "N" 
			},
			{
				"x": 1.8232097985,
				"y": 0.3002413621,
				"z": 0.6633019077,
				"element": "C" 
			},
			{
				"x": 1.0939976556,
				"y": 1.4391786674,
				"z": 0.9836580925,
				"element": "C" 
			},
			{
				"x": 1.3269845399,
				"y": 2.4898919041,
				"z": 2.3739148206,
				"element": "S" 
			},
			{
				"x": 0.133361767,
				"y": 3.8267097761,
				"z": 2.018156968,
				"element": "C" 
			},
			{
				"x": -0.1507822409,
				"y": 1.7313162195,
				"z": -0.193230045,
				"element": "S" 
			},
			{
				"x": 3.2297627914,
				"y": -0.2740916459,
				"z": 1.585614973,
				"element": "S" 
			},
			{
				"x": 4.6419582214,
				"y": 0.4051072628,
				"z": 0.6879877464,
				"element": "C" 
			},
			{
				"x": 3.2946206292,
				"y": -1.7442421277,
				"z": 1.4453201382,
				"element": "O" 
			},
			{
				"x": 3.1984384672,
				"y": 0.3378758724,
				"z": 2.9210641088,
				"element": "O" 
			},
			{
				"x": -1.7517629026,
				"y": -3.1884744319,
				"z": -3.2043821477,
				"element": "H" 
			},
			{
				"x": -2.7329197254,
				"y": -1.7037029355,
				"z": -3.1982069455,
				"element": "H" 
			},
			{
				"x": -2.5308798194,
				"y": -2.6296264447,
				"z": -4.6970348794,
				"element": "H" 
			},
			{
				"x": -0.0881951185,
				"y": -2.0513012226,
				"z": -4.7344713565,
				"element": "H" 
			},
			{
				"x": -1.0765702856,
				"y": -0.568187605,
				"z": -4.6748427475,
				"element": "H" 
			},
			{
				"x": 2.4871076863,
				"y": -2.0498688442,
				"z": -0.3967732014,
				"element": "H" 
			},
			{
				"x": 1.5152118486,
				"y": -1.9065203465,
				"z": -1.8278501595,
				"element": "H" 
			},
			{
				"x": 0.360063084,
				"y": 4.332387317,
				"z": 1.0770779717,
				"element": "H" 
			},
			{
				"x": -0.8942007707,
				"y": 3.456233777,
				"z": 2.0119975655,
				"element": "H" 
			},
			{
				"x": 0.2496571309,
				"y": 4.5333733992,
				"z": 2.8424823737,
				"element": "H" 
			},
			{
				"x": 4.6030374526,
				"y": 0.0486730903,
				"z": -0.3427668662,
				"element": "H" 
			},
			{
				"x": 5.5384462772,
				"y": 0.0346929727,
				"z": 1.1897323336,
				"element": "H" 
			},
			{
				"x": 4.5974191359,
				"y": 1.494064054,
				"z": 0.7349006603,
				"element": "H" 
			}
		],
		 "valence_orbital": [ 
			{
				"type": "occ",
				"energy": -0.29712,
				"method": "rhf"
			},
			{
				"type": "occ",
				"energy": -0.28693,
				"method": "rhf"
			},
			{
				"type": "occ",
				"energy": -0.27522,
				"method": "rhf"
			},
			{
				"type": "occ",
				"energy": -0.24488,
				"method": "rhf"
			},
			{
				"type": "occ",
				"energy": -0.21285,
				"method": "rhf"
			},
			{
				"type": "unocc",
				"energy": -0.05419,
				"method": "rhf"
			},
			{
				"type": "unocc",
				"energy": -0.0048,
				"method": "rhf"
			},
			{
				"type": "unocc",
				"energy": 0.00237,
				"method": "rhf"
			},
			{
				"type": "unocc",
				"energy": 0.02066,
				"method": "rhf"
			},
			{
				"type": "unocc",
				"energy": 0.0522,
				"method": "rhf"
			}
		],
		"cosmo_sigma_profile": { 
			"-0.025": 0.0,
			"-0.024": 0.0,
			"-0.023": 0.0,
			"-0.022": 0.0,
			"-0.021": 0.0,
			"-0.02": 0.0,
			"-0.019": 0.0,
			"-0.018": 0.0,
			"-0.017": 0.0,
			"-0.016": 0.0,
			"-0.015": 0.0,
			"-0.014": 0.0,
			"-0.013": 0.0,
			"-0.012": 0.0,
			"-0.011": 0.494543289533,
			"-0.01": 1.31864517186,
			"-0.009": 4.01101872449,
			"-0.008": 7.35086144763,
			"-0.007": 10.7398755791,
			"-0.006": 14.8998858372,
			"-0.005": 20.6698009004,
			"-0.004": 26.7375547581,
			"-0.003": 27.9213326218,
			"-0.002": 20.9500050788,
			"-0.001": 22.9297134318,
			"0.0": 25.4908516422,
			"0.001": 21.0498724041,
			"0.002": 18.5360630525,
			"0.003": 11.1937501557,
			"0.004": 6.87141618369,
			"0.005": 7.42508369052,
			"0.006": 6.86186519955,
			"0.007": 6.27757827251,
			"0.008": 5.24178863336,
			"0.009": 7.47379549732,
			"0.01": 5.89032789922,
			"0.011": 10.5269072737,
			"0.012": 7.96723689122,
			"0.013": 1.20632323857,
			"0.014": 0.0,
			"0.015": 0.0,
			"0.016": 0.0,
			"0.017": 0.0,
			"0.018": 0.0,
			"0.019": 0.0,
			"0.02": 0.0,
			"0.021": 0.0,
			"0.022": 0.0,
			"0.023": 0.0,
			"0.024": 0.0,
			"0.025": 0.0
		}
	}
}
