{
	 "smiles": "ClC1=CC=C(C=C1)C(=O)C1=NC=CC=C1", 
	 "Tm": 337.15, 
	 "num_atms": 23, 
	 "gaussian": { 
		 "optdone": 1, 
		 "sigma_profile": "yes", 
		 "theory": "DFT", 
		 "functional": "B3LYP", 
		 "basiset": "6-31G**", 
		 "properties": { 
			 "R2extent": 4829.4348, 
			 "electric_dipole_moment_norm": 3.78178039156, 
			 "electric_quadrupole_moment_norm": 11.3548521514, 
			 "total_energy": -1052.26271325, 
			 "HOMO_LUMO_gap": 0.16645, 
			 "cosmo_polarized_energy": -8.12, 
			 "cosmo_cavitation_energy": 29.75, 
			 "cosmo_dispersion_energy": -22.11, 
			 "cosmo_repulsion_energy": 1.7, 
			 "cosmo_total_nonelectrostatic_energy": 9.34, 
			 "SMD_solvation_energy": 4.71 
		},
		"coords": [
			{
				"x": -4.6825947821,
				"y": 1.8203222106,
				"z": -0.9582401143,
				"element": "Cl" 
			},
			{
				"x": -3.0387141592,
				"y": 1.3602207863,
				"z": -0.5494447803,
				"element": "C" 
			},
			{
				"x": -2.55309701,
				"y": 1.6229123221,
				"z": 0.7335730339,
				"element": "C" 
			},
			{
				"x": -1.2495134094,
				"y": 1.2582037038,
				"z": 1.0448506568,
				"element": "C" 
			},
			{
				"x": -0.4227455872,
				"y": 0.6216628807,
				"z": 0.1004830907,
				"element": "C" 
			},
			{
				"x": -0.9377745077,
				"y": 0.3697611438,
				"z": -1.1825688125,
				"element": "C" 
			},
			{
				"x": -2.2411224662,
				"y": 0.7406203456,
				"z": -1.5099414668,
				"element": "C" 
			},
			{
				"x": 0.9743631309,
				"y": 0.3167359541,
				"z": 0.5503151914,
				"element": "C" 
			},
			{
				"x": 1.3832662423,
				"y": 0.7883950558,
				"z": 1.6077225527,
				"element": "O" 
			},
			{
				"x": 1.9311993457,
				"y": -0.558226986,
				"z": -0.2346291714,
				"element": "C" 
			},
			{
				"x": 1.4830845038,
				"y": -1.3042049728,
				"z": -1.2570341122,
				"element": "N" 
			},
			{
				"x": 2.356534557,
				"y": -2.0913892679,
				"z": -1.8922484662,
				"element": "C" 
			},
			{
				"x": 3.7077526601,
				"y": -2.1742215504,
				"z": -1.5516575862,
				"element": "C" 
			},
			{
				"x": 4.1715944871,
				"y": -1.3956479742,
				"z": -0.4913393891,
				"element": "C" 
			},
			{
				"x": 3.2706414455,
				"y": -0.5772073131,
				"z": 0.1823678796,
				"element": "C" 
			},
			{
				"x": -3.1876169134,
				"y": 2.1066218688,
				"z": 1.4678244321,
				"element": "H" 
			},
			{
				"x": -0.8426061515,
				"y": 1.4623243034,
				"z": 2.028900633,
				"element": "H" 
			},
			{
				"x": -0.3220445503,
				"y": -0.1292776249,
				"z": -1.9174004559,
				"element": "H" 
			},
			{
				"x": -2.635824467,
				"y": 0.5489236479,
				"z": -2.5015018045,
				"element": "H" 
			},
			{
				"x": 1.9574327934,
				"y": -2.6853747068,
				"z": -2.7122826746,
				"element": "H" 
			},
			{
				"x": 4.3721586021,
				"y": -2.8308219163,
				"z": -2.1044104021,
				"element": "H" 
			},
			{
				"x": 5.215578039,
				"y": -1.4287064558,
				"z": -0.1936243716,
				"element": "H" 
			},
			{
				"x": 3.5654481972,
				"y": 0.0404745454,
				"z": 1.0218861375,
				"element": "H" 
			}
		],
		 "valence_orbital": [ 
			{
				"type": "occ",
				"energy": -0.28242,
				"method": "rhf"
			},
			{
				"type": "occ",
				"energy": -0.2746,
				"method": "rhf"
			},
			{
				"type": "occ",
				"energy": -0.26383,
				"method": "rhf"
			},
			{
				"type": "occ",
				"energy": -0.25433,
				"method": "rhf"
			},
			{
				"type": "occ",
				"energy": -0.24778,
				"method": "rhf"
			},
			{
				"type": "unocc",
				"energy": -0.08133,
				"method": "rhf"
			},
			{
				"type": "unocc",
				"energy": -0.03644,
				"method": "rhf"
			},
			{
				"type": "unocc",
				"energy": -0.02135,
				"method": "rhf"
			},
			{
				"type": "unocc",
				"energy": -0.01221,
				"method": "rhf"
			},
			{
				"type": "unocc",
				"energy": 0.02973,
				"method": "rhf"
			}
		],
		"cosmo_sigma_profile": { 
			"-0.025": 0.0,
			"-0.024": 0.0,
			"-0.023": 0.0,
			"-0.022": 0.0,
			"-0.021": 0.0,
			"-0.02": 0.0,
			"-0.019": 0.0,
			"-0.018": 0.0,
			"-0.017": 0.0,
			"-0.016": 0.0,
			"-0.015": 0.0,
			"-0.014": 0.0,
			"-0.013": 0.0,
			"-0.012": 0.0,
			"-0.011": 0.0,
			"-0.01": 0.0,
			"-0.009": 0.0,
			"-0.008": 2.49194280419,
			"-0.007": 11.3943462496,
			"-0.006": 14.3775591881,
			"-0.005": 13.8326486117,
			"-0.004": 11.5993943829,
			"-0.003": 13.0934912143,
			"-0.002": 16.1974606279,
			"-0.001": 16.8388485048,
			"0.0": 23.8089488417,
			"0.001": 31.9266629878,
			"0.002": 31.0657452805,
			"0.003": 19.3502180037,
			"0.004": 13.435552047,
			"0.005": 5.6421955303,
			"0.006": 2.90719414587,
			"0.007": 2.79202299864,
			"0.008": 2.03285182797,
			"0.009": 2.62712608663,
			"0.01": 2.97928803664,
			"0.011": 3.43585709575,
			"0.012": 1.06875172207,
			"0.013": 0.0,
			"0.014": 0.0,
			"0.015": 0.0,
			"0.016": 0.0,
			"0.017": 0.0,
			"0.018": 0.0,
			"0.019": 0.0,
			"0.02": 0.0,
			"0.021": 0.0,
			"0.022": 0.0,
			"0.023": 0.0,
			"0.024": 0.0,
			"0.025": 0.0
		}
	}
}
