{
	 "smiles": "NNC(=O)NC1=C(Cl)C=C(Cl)C=C1", 
	 "Tm": 427.15, 
	 "num_atms": 20, 
	 "gaussian": { 
		 "optdone": 1, 
		 "sigma_profile": "yes", 
		 "theory": "DFT", 
		 "functional": "B3LYP", 
		 "basiset": "6-31G**", 
		 "properties": { 
			 "R2extent": 4475.4837, 
			 "electric_dipole_moment_norm": 2.13596158439, 
			 "electric_quadrupole_moment_norm": 3.19649620679, 
			 "total_energy": -1430.81964714, 
			 "HOMO_LUMO_gap": 0.20219, 
			 "cosmo_polarized_energy": -13.02, 
			 "cosmo_cavitation_energy": 28.27, 
			 "cosmo_dispersion_energy": -21.32, 
			 "cosmo_repulsion_energy": 1.7, 
			 "cosmo_total_nonelectrostatic_energy": 8.66, 
			 "SMD_solvation_energy": 5.29 
		},
		"coords": [
			{
				"x": -0.5575002923,
				"y": 2.1979975898,
				"z": -4.421124738,
				"element": "N" 
			},
			{
				"x": -0.8799602022,
				"y": 1.8812289622,
				"z": -3.0829346864,
				"element": "N" 
			},
			{
				"x": -0.5455001812,
				"y": 0.6197636594,
				"z": -2.6036901008,
				"element": "C" 
			},
			{
				"x": -0.1249729031,
				"y": -0.2661383721,
				"z": -3.3363201416,
				"element": "O" 
			},
			{
				"x": -0.7624581083,
				"y": 0.4992219526,
				"z": -1.2388034117,
				"element": "N" 
			},
			{
				"x": -0.5074408621,
				"y": -0.6097674725,
				"z": -0.4252881341,
				"element": "C" 
			},
			{
				"x": -0.8421565376,
				"y": -0.5460630671,
				"z": 0.9421948459,
				"element": "C" 
			},
			{
				"x": -1.5855121965,
				"y": 0.9158406957,
				"z": 1.5958346159,
				"element": "Cl" 
			},
			{
				"x": -0.6074475626,
				"y": -1.6049233812,
				"z": 1.8131300453,
				"element": "C" 
			},
			{
				"x": -0.0211489558,
				"y": -2.7655997679,
				"z": 1.3157826952,
				"element": "C" 
			},
			{
				"x": 0.2817935709,
				"y": -4.1101492195,
				"z": 2.4032645555,
				"element": "Cl" 
			},
			{
				"x": 0.3219607547,
				"y": -2.8642052004,
				"z": -0.0309773154,
				"element": "C" 
			},
			{
				"x": 0.0806155726,
				"y": -1.7983664603,
				"z": -0.8925474964,
				"element": "C" 
			},
			{
				"x": 0.258229122,
				"y": 1.6416478287,
				"z": -4.6811626844,
				"element": "H" 
			},
			{
				"x": -1.3201494818,
				"y": 1.8575889755,
				"z": -5.0038381733,
				"element": "H" 
			},
			{
				"x": -0.752872857,
				"y": 2.6688469272,
				"z": -2.4601567182,
				"element": "H" 
			},
			{
				"x": -1.2493758789,
				"y": 1.2586161962,
				"z": -0.7819679132,
				"element": "H" 
			},
			{
				"x": -0.8784931974,
				"y": -1.5196690303,
				"z": 2.8580757376,
				"element": "H" 
			},
			{
				"x": 0.775703341,
				"y": -3.7725358433,
				"z": -0.4109298698,
				"element": "H" 
			},
			{
				"x": 0.3341868556,
				"y": -1.8678349725,
				"z": -1.9409411121,
				"element": "H" 
			}
		],
		 "valence_orbital": [ 
			{
				"type": "occ",
				"energy": -0.29661,
				"method": "rhf"
			},
			{
				"type": "occ",
				"energy": -0.28313,
				"method": "rhf"
			},
			{
				"type": "occ",
				"energy": -0.26883,
				"method": "rhf"
			},
			{
				"type": "occ",
				"energy": -0.26471,
				"method": "rhf"
			},
			{
				"type": "occ",
				"energy": -0.22754,
				"method": "rhf"
			},
			{
				"type": "unocc",
				"energy": -0.02535,
				"method": "rhf"
			},
			{
				"type": "unocc",
				"energy": -0.02293,
				"method": "rhf"
			},
			{
				"type": "unocc",
				"energy": -0.00071,
				"method": "rhf"
			},
			{
				"type": "unocc",
				"energy": 0.04135,
				"method": "rhf"
			},
			{
				"type": "unocc",
				"energy": 0.04462,
				"method": "rhf"
			}
		],
		"cosmo_sigma_profile": { 
			"-0.025": 0.0,
			"-0.024": 0.0,
			"-0.023": 0.0,
			"-0.022": 0.0,
			"-0.021": 0.0,
			"-0.02": 0.0,
			"-0.019": 0.0,
			"-0.018": 0.0464061252043,
			"-0.017": 0.757395149219,
			"-0.016": 1.00203743127,
			"-0.015": 1.34506984345,
			"-0.014": 1.79130577265,
			"-0.013": 1.09041080971,
			"-0.012": 1.67410539229,
			"-0.011": 3.05172297098,
			"-0.01": 3.14661313608,
			"-0.009": 3.87702548758,
			"-0.008": 4.59367974388,
			"-0.007": 6.82831179155,
			"-0.006": 6.70907761807,
			"-0.005": 8.59182087426,
			"-0.004": 9.19901397386,
			"-0.003": 7.98142268795,
			"-0.002": 12.6756551867,
			"-0.001": 15.1286654905,
			"0.0": 20.216317264,
			"0.001": 25.9202505522,
			"0.002": 26.8894535551,
			"0.003": 20.7909420145,
			"0.004": 17.1656046954,
			"0.005": 7.82338485023,
			"0.006": 3.13108229195,
			"0.007": 2.89437424554,
			"0.008": 1.41478490512,
			"0.009": 1.86204862982,
			"0.01": 2.7904341838,
			"0.011": 2.1255611951,
			"0.012": 3.76416050127,
			"0.013": 1.90706559794,
			"0.014": 0.852230227833,
			"0.015": 0.62716772531,
			"0.016": 0.539412110959,
			"0.017": 0.256651949807,
			"0.018": 0.0,
			"0.019": 0.0,
			"0.02": 0.0,
			"0.021": 0.0,
			"0.022": 0.0,
			"0.023": 0.0,
			"0.024": 0.0,
			"0.025": 0.0
		}
	}
}
