{
	 "smiles": "NC1=CC(NS(N)(=O)=O)=CC=C1", 
	 "Tm": 351.15, 
	 "num_atms": 21, 
	 "gaussian": { 
		 "optdone": 1, 
		 "sigma_profile": "yes", 
		 "theory": "DFT", 
		 "functional": "B3LYP", 
		 "basiset": "6-31G**", 
		 "properties": { 
			 "R2extent": 3099.8358, 
			 "electric_dipole_moment_norm": 7.37158614343, 
			 "electric_quadrupole_moment_norm": 18.1506658269, 
			 "total_energy": -946.881740904, 
			 "HOMO_LUMO_gap": 0.20357, 
			 "cosmo_polarized_energy": -23.89, 
			 "cosmo_cavitation_energy": 26.25, 
			 "cosmo_dispersion_energy": -20.03, 
			 "cosmo_repulsion_energy": 1.56, 
			 "cosmo_total_nonelectrostatic_energy": 7.78, 
			 "SMD_solvation_energy": 3.83 
		},
		"coords": [
			{
				"x": -0.4439541482,
				"y": -2.0169435848,
				"z": 2.307727078,
				"element": "N" 
			},
			{
				"x": -0.3223743232,
				"y": -0.873327461,
				"z": 1.5233809633,
				"element": "C" 
			},
			{
				"x": -0.3233882875,
				"y": -0.9668086615,
				"z": 0.1228148889,
				"element": "C" 
			},
			{
				"x": -0.2807403362,
				"y": 0.1858365422,
				"z": -0.67004828,
				"element": "C" 
			},
			{
				"x": -0.3270144096,
				"y": 0.0375383668,
				"z": -2.0804308602,
				"element": "N" 
			},
			{
				"x": 0.6695498424,
				"y": 0.9248217231,
				"z": -3.1334214139,
				"element": "S" 
			},
			{
				"x": 2.2380502603,
				"y": 0.8951515276,
				"z": -2.5380613594,
				"element": "N" 
			},
			{
				"x": 0.6628971827,
				"y": 0.1347938005,
				"z": -4.3566258745,
				"element": "O" 
			},
			{
				"x": 0.2607686194,
				"y": 2.3189044257,
				"z": -3.0695691846,
				"element": "O" 
			},
			{
				"x": -0.2137618769,
				"y": 1.4547060234,
				"z": -0.0766295436,
				"element": "C" 
			},
			{
				"x": -0.182046279,
				"y": 1.5348437299,
				"z": 1.3167787692,
				"element": "C" 
			},
			{
				"x": -0.2368378655,
				"y": 0.3989829855,
				"z": 2.1176728923,
				"element": "C" 
			},
			{
				"x": -0.1007179272,
				"y": -1.9368689403,
				"z": 3.2542731237,
				"element": "H" 
			},
			{
				"x": -0.1730276682,
				"y": -2.8863199804,
				"z": 1.8707825029,
				"element": "H" 
			},
			{
				"x": -0.3721099888,
				"y": -1.9459174594,
				"z": -0.349616026,
				"element": "H" 
			},
			{
				"x": -0.4085962696,
				"y": -0.9145905747,
				"z": -2.420427742,
				"element": "H" 
			},
			{
				"x": 2.6161130269,
				"y": -0.0464699818,
				"z": -2.4941387756,
				"element": "H" 
			},
			{
				"x": 2.3158605565,
				"y": 1.3880744412,
				"z": -1.6526638839,
				"element": "H" 
			},
			{
				"x": -0.223761371,
				"y": 2.3466190872,
				"z": -0.6908789326,
				"element": "H" 
			},
			{
				"x": -0.1294987185,
				"y": 2.5125691766,
				"z": 1.7874356558,
				"element": "H" 
			},
			{
				"x": -0.2284100187,
				"y": 0.487604814,
				"z": 3.2005460021,
				"element": "H" 
			}
		],
		 "valence_orbital": [ 
			{
				"type": "occ",
				"energy": -0.31378,
				"method": "rhf"
			},
			{
				"type": "occ",
				"energy": -0.31025,
				"method": "rhf"
			},
			{
				"type": "occ",
				"energy": -0.2918,
				"method": "rhf"
			},
			{
				"type": "occ",
				"energy": -0.23749,
				"method": "rhf"
			},
			{
				"type": "occ",
				"energy": -0.21279,
				"method": "rhf"
			},
			{
				"type": "unocc",
				"energy": -0.00922,
				"method": "rhf"
			},
			{
				"type": "unocc",
				"energy": 0.00105,
				"method": "rhf"
			},
			{
				"type": "unocc",
				"energy": 0.047,
				"method": "rhf"
			},
			{
				"type": "unocc",
				"energy": 0.06906,
				"method": "rhf"
			},
			{
				"type": "unocc",
				"energy": 0.07407,
				"method": "rhf"
			}
		],
		"cosmo_sigma_profile": { 
			"-0.025": 0.0,
			"-0.024": 0.0,
			"-0.023": 0.0,
			"-0.022": 0.0,
			"-0.021": 0.0,
			"-0.02": 0.0,
			"-0.019": 0.0,
			"-0.018": 0.0,
			"-0.017": 0.0,
			"-0.016": 0.593711104868,
			"-0.015": 2.51002432792,
			"-0.014": 3.1379390719,
			"-0.013": 4.56048652546,
			"-0.012": 6.32268170738,
			"-0.011": 5.92483649804,
			"-0.01": 6.4280638687,
			"-0.009": 5.47583382386,
			"-0.008": 6.76275705294,
			"-0.007": 6.58053620322,
			"-0.006": 7.26674831215,
			"-0.005": 7.45608688869,
			"-0.004": 8.66969250137,
			"-0.003": 8.61031729184,
			"-0.002": 6.21179533328,
			"-0.001": 8.50744270609,
			"0.0": 7.52213103118,
			"0.001": 5.72609380057,
			"0.002": 7.95682966009,
			"0.003": 9.15570952409,
			"0.004": 10.6505380384,
			"0.005": 12.9077794881,
			"0.006": 14.4725486789,
			"0.007": 8.33822439812,
			"0.008": 6.25924652419,
			"0.009": 6.90909570825,
			"0.01": 10.3524007706,
			"0.011": 9.98261326513,
			"0.012": 1.6179230269,
			"0.013": 0.70896543381,
			"0.014": 0.421507653233,
			"0.015": 0.0265832576503,
			"0.016": 0.0,
			"0.017": 0.0,
			"0.018": 0.0,
			"0.019": 0.0,
			"0.02": 0.0,
			"0.021": 0.0,
			"0.022": 0.0,
			"0.023": 0.0,
			"0.024": 0.0,
			"0.025": 0.0
		}
	}
}
