{
	 "smiles": "NC1=CC(CS(=O)C2CCOCC2)=CC=C1", 
	 "Tm": 399.15, 
	 "num_atms": 33, 
	 "gaussian": { 
		 "optdone": 1, 
		 "sigma_profile": "yes", 
		 "theory": "DFT", 
		 "functional": "B3LYP", 
		 "basiset": "6-31G**", 
		 "properties": { 
			 "R2extent": 5141.3743, 
			 "electric_dipole_moment_norm": 3.78732235887, 
			 "electric_quadrupole_moment_norm": 18.8732175733, 
			 "total_energy": -1070.85328551, 
			 "HOMO_LUMO_gap": 0.19211, 
			 "cosmo_polarized_energy": -18.86, 
			 "cosmo_cavitation_energy": 35.73, 
			 "cosmo_dispersion_energy": -25.59, 
			 "cosmo_repulsion_energy": 1.97, 
			 "cosmo_total_nonelectrostatic_energy": 12.11, 
			 "SMD_solvation_energy": 4.74 
		},
		"coords": [
			{
				"x": 2.6335521825,
				"y": -0.5085242694,
				"z": 4.3717324862,
				"element": "N" 
			},
			{
				"x": 2.4014173315,
				"y": -0.0268733736,
				"z": 3.0849330892,
				"element": "C" 
			},
			{
				"x": 1.3211108999,
				"y": 0.8327140462,
				"z": 2.827198014,
				"element": "C" 
			},
			{
				"x": 1.1104147075,
				"y": 1.3723983593,
				"z": 1.5527888184,
				"element": "C" 
			},
			{
				"x": -0.0711213721,
				"y": 2.2655859601,
				"z": 1.3066448175,
				"element": "C" 
			},
			{
				"x": -1.7017103732,
				"y": 1.3437582355,
				"z": 1.3514122393,
				"element": "S" 
			},
			{
				"x": -2.7915278945,
				"y": 2.3661704944,
				"z": 1.0896684096,
				"element": "O" 
			},
			{
				"x": -1.5193900119,
				"y": 0.3397837792,
				"z": -0.2070860882,
				"element": "C" 
			},
			{
				"x": -1.6461877465,
				"y": 1.2003959121,
				"z": -1.4651064985,
				"element": "C" 
			},
			{
				"x": -1.4981297642,
				"y": 0.3063487179,
				"z": -2.720662977,
				"element": "C" 
			},
			{
				"x": -1.8139965667,
				"y": -1.0599889417,
				"z": -2.4719082649,
				"element": "O" 
			},
			{
				"x": -2.9504998416,
				"y": -1.1892558816,
				"z": -1.6315545778,
				"element": "C" 
			},
			{
				"x": -2.6260355249,
				"y": -0.7378412835,
				"z": -0.1892557055,
				"element": "C" 
			},
			{
				"x": 1.9916577293,
				"y": 1.0436683609,
				"z": 0.5125830902,
				"element": "C" 
			},
			{
				"x": 3.0689298204,
				"y": 0.1920238301,
				"z": 0.7633163614,
				"element": "C" 
			},
			{
				"x": 3.2777239174,
				"y": -0.3429237246,
				"z": 2.0306959437,
				"element": "C" 
			},
			{
				"x": 3.1821000292,
				"y": -1.3551035212,
				"z": 4.4274948795,
				"element": "H" 
			},
			{
				"x": 1.8270942443,
				"y": -0.5348789998,
				"z": 4.979852994,
				"element": "H" 
			},
			{
				"x": 0.6423985123,
				"y": 1.0902824959,
				"z": 3.6374954362,
				"element": "H" 
			},
			{
				"x": -0.0150588694,
				"y": 2.798878587,
				"z": 0.3549687261,
				"element": "H" 
			},
			{
				"x": -0.2080286981,
				"y": 3.0050727051,
				"z": 2.1011040396,
				"element": "H" 
			},
			{
				"x": -0.5311655424,
				"y": -0.1263009593,
				"z": -0.1477441681,
				"element": "H" 
			},
			{
				"x": -2.6176362238,
				"y": 1.7036667916,
				"z": -1.4370777903,
				"element": "H" 
			},
			{
				"x": -0.8892015585,
				"y": 1.9901505118,
				"z": -1.497283863,
				"element": "H" 
			},
			{
				"x": -0.4614667887,
				"y": 0.303481706,
				"z": -3.072152829,
				"element": "H" 
			},
			{
				"x": -2.1293071287,
				"y": 0.6989825838,
				"z": -3.5346150476,
				"element": "H" 
			},
			{
				"x": -3.7925384436,
				"y": -0.6058912082,
				"z": -2.037343816,
				"element": "H" 
			},
			{
				"x": -3.239002006,
				"y": -2.2435596976,
				"z": -1.6570240258,
				"element": "H" 
			},
			{
				"x": -2.2999534841,
				"y": -1.5869397114,
				"z": 0.4193092617,
				"element": "H" 
			},
			{
				"x": -3.5363927304,
				"y": -0.3334436193,
				"z": 0.2705120748,
				"element": "H" 
			},
			{
				"x": 1.8429520435,
				"y": 1.4618252654,
				"z": -0.4786143303,
				"element": "H" 
			},
			{
				"x": 3.7563610412,
				"y": -0.05867658,
				"z": -0.0397246539,
				"element": "H" 
			},
			{
				"x": 4.1234381103,
				"y": -1.0005865711,
				"z": 2.2150439546,
				"element": "H" 
			}
		],
		 "valence_orbital": [ 
			{
				"type": "occ",
				"energy": -0.26601,
				"method": "rhf"
			},
			{
				"type": "occ",
				"energy": -0.2505,
				"method": "rhf"
			},
			{
				"type": "occ",
				"energy": -0.24004,
				"method": "rhf"
			},
			{
				"type": "occ",
				"energy": -0.21825,
				"method": "rhf"
			},
			{
				"type": "occ",
				"energy": -0.2078,
				"method": "rhf"
			},
			{
				"type": "unocc",
				"energy": -0.01569,
				"method": "rhf"
			},
			{
				"type": "unocc",
				"energy": 0.00521,
				"method": "rhf"
			},
			{
				"type": "unocc",
				"energy": 0.04562,
				"method": "rhf"
			},
			{
				"type": "unocc",
				"energy": 0.04989,
				"method": "rhf"
			},
			{
				"type": "unocc",
				"energy": 0.06668,
				"method": "rhf"
			}
		],
		"cosmo_sigma_profile": { 
			"-0.025": 0.0,
			"-0.024": 0.0,
			"-0.023": 0.0,
			"-0.022": 0.0,
			"-0.021": 0.0,
			"-0.02": 0.0,
			"-0.019": 0.0,
			"-0.018": 0.0,
			"-0.017": 0.0,
			"-0.016": 0.0,
			"-0.015": 0.0,
			"-0.014": 0.0,
			"-0.013": 0.432422079556,
			"-0.012": 2.50309727023,
			"-0.011": 2.97420938359,
			"-0.01": 2.42849427184,
			"-0.009": 3.51413807375,
			"-0.008": 3.46408720726,
			"-0.007": 6.78727585378,
			"-0.006": 11.2575391507,
			"-0.005": 18.2807290507,
			"-0.004": 32.9590597001,
			"-0.003": 34.9290036585,
			"-0.002": 25.5866114913,
			"-0.001": 18.3438740641,
			"0.0": 12.3927204819,
			"0.001": 10.5628140889,
			"0.002": 11.948112554,
			"0.003": 11.9296061094,
			"0.004": 11.2536621501,
			"0.005": 10.6583850995,
			"0.006": 11.5472213189,
			"0.007": 5.73143852292,
			"0.008": 3.17007591568,
			"0.009": 2.93833182335,
			"0.01": 2.79120352062,
			"0.011": 2.88768952185,
			"0.012": 3.52153234179,
			"0.013": 3.69115788725,
			"0.014": 4.60934411628,
			"0.015": 5.00960426876,
			"0.016": 2.55531347728,
			"0.017": 0.108305147957,
			"0.018": 0.0,
			"0.019": 0.0,
			"0.02": 0.0,
			"0.021": 0.0,
			"0.022": 0.0,
			"0.023": 0.0,
			"0.024": 0.0,
			"0.025": 0.0
		}
	}
}
