{
	 "smiles": "CS(=O)(=O)OC1CCCC(C1)S(C)(=O)=O", 
	 "Tm": 393.15, 
	 "num_atms": 31, 
	 "gaussian": { 
		 "optdone": 1, 
		 "sigma_profile": "yes", 
		 "theory": "DFT", 
		 "functional": "B3LYP", 
		 "basiset": "6-31G**", 
		 "properties": { 
			 "R2extent": 5381.1066, 
			 "electric_dipole_moment_norm": 2.98186535746, 
			 "electric_quadrupole_moment_norm": 29.2255100344, 
			 "total_energy": -1486.87282298, 
			 "HOMO_LUMO_gap": 0.32016, 
			 "cosmo_polarized_energy": -24.18, 
			 "cosmo_cavitation_energy": 35.16, 
			 "cosmo_dispersion_energy": -25.59, 
			 "cosmo_repulsion_energy": 1.92, 
			 "cosmo_total_nonelectrostatic_energy": 11.48, 
			 "SMD_solvation_energy": 4.39 
		},
		"coords": [
			{
				"x": 2.9749336855,
				"y": 0.9009997231,
				"z": 3.713748158,
				"element": "C" 
			},
			{
				"x": 3.0788580851,
				"y": 0.7497822202,
				"z": 1.9293400418,
				"element": "S" 
			},
			{
				"x": 3.4834934366,
				"y": 2.0253051351,
				"z": 1.336449459,
				"element": "O" 
			},
			{
				"x": 3.8042521859,
				"y": -0.4730000958,
				"z": 1.5921699603,
				"element": "O" 
			},
			{
				"x": 1.4732943994,
				"y": 0.5277370656,
				"z": 1.6606750916,
				"element": "O" 
			},
			{
				"x": 0.9551675444,
				"y": 0.9234501868,
				"z": 0.3459543811,
				"element": "C" 
			},
			{
				"x": 1.4052995863,
				"y": -0.0753734019,
				"z": -0.738450517,
				"element": "C" 
			},
			{
				"x": 0.3257102904,
				"y": -0.2261747676,
				"z": -1.8184993644,
				"element": "C" 
			},
			{
				"x": -0.9748723459,
				"y": -0.8308365303,
				"z": -1.236455726,
				"element": "C" 
			},
			{
				"x": -1.1975819475,
				"y": -0.3889445409,
				"z": 0.2286416365,
				"element": "C" 
			},
			{
				"x": -0.5706820014,
				"y": 0.9833085224,
				"z": 0.5074620931,
				"element": "C" 
			},
			{
				"x": -2.9767253498,
				"y": -0.3091891824,
				"z": 0.6676655889,
				"element": "S" 
			},
			{
				"x": -3.5473650477,
				"y": -2.0191280827,
				"z": 0.5119111104,
				"element": "C" 
			},
			{
				"x": -3.6726563647,
				"y": 0.493300172,
				"z": -0.3545034288,
				"element": "O" 
			},
			{
				"x": -3.066984627,
				"y": 0.0602788542,
				"z": 2.0908553522,
				"element": "O" 
			},
			{
				"x": 2.3928615522,
				"y": 1.7892444975,
				"z": 3.9573408734,
				"element": "H" 
			},
			{
				"x": 3.9986139781,
				"y": 0.9934335387,
				"z": 4.0798064933,
				"element": "H" 
			},
			{
				"x": 2.5068334805,
				"y": 0.0000356842,
				"z": 4.1104301681,
				"element": "H" 
			},
			{
				"x": 1.3384734211,
				"y": 1.9265627621,
				"z": 0.1389103728,
				"element": "H" 
			},
			{
				"x": 2.3582624624,
				"y": 0.2440986639,
				"z": -1.1699620974,
				"element": "H" 
			},
			{
				"x": 1.5878320087,
				"y": -1.0443160322,
				"z": -0.2604823024,
				"element": "H" 
			},
			{
				"x": 0.6916947674,
				"y": -0.8588669387,
				"z": -2.6328650678,
				"element": "H" 
			},
			{
				"x": 0.1136806044,
				"y": 0.7527878934,
				"z": -2.2648505288,
				"element": "H" 
			},
			{
				"x": -1.8272477902,
				"y": -0.5135955301,
				"z": -1.8459160026,
				"element": "H" 
			},
			{
				"x": -0.926603981,
				"y": -1.924453345,
				"z": -1.2808654201,
				"element": "H" 
			},
			{
				"x": -0.781135796,
				"y": -1.1161864849,
				"z": 0.9343214624,
				"element": "H" 
			},
			{
				"x": -0.8167358383,
				"y": 1.3287866174,
				"z": 1.5138936614,
				"element": "H" 
			},
			{
				"x": -0.9784364236,
				"y": 1.7138629901,
				"z": -0.1988616593,
				"element": "H" 
			},
			{
				"x": -2.9994776505,
				"y": -2.6487283405,
				"z": 1.214664312,
				"element": "H" 
			},
			{
				"x": -4.6077317881,
				"y": -2.0021913719,
				"z": 0.7705936736,
				"element": "H" 
			},
			{
				"x": -3.4177245366,
				"y": -2.3606898819,
				"z": -0.5157217753,
				"element": "H" 
			}
		],
		 "valence_orbital": [ 
			{
				"type": "occ",
				"energy": -0.31526,
				"method": "rhf"
			},
			{
				"type": "occ",
				"energy": -0.31112,
				"method": "rhf"
			},
			{
				"type": "occ",
				"energy": -0.29451,
				"method": "rhf"
			},
			{
				"type": "occ",
				"energy": -0.29412,
				"method": "rhf"
			},
			{
				"type": "occ",
				"energy": -0.28326,
				"method": "rhf"
			},
			{
				"type": "unocc",
				"energy": 0.0369,
				"method": "rhf"
			},
			{
				"type": "unocc",
				"energy": 0.05094,
				"method": "rhf"
			},
			{
				"type": "unocc",
				"energy": 0.05502,
				"method": "rhf"
			},
			{
				"type": "unocc",
				"energy": 0.06399,
				"method": "rhf"
			},
			{
				"type": "unocc",
				"energy": 0.06919,
				"method": "rhf"
			}
		],
		"cosmo_sigma_profile": { 
			"-0.025": 0.0,
			"-0.024": 0.0,
			"-0.023": 0.0,
			"-0.022": 0.0,
			"-0.021": 0.0,
			"-0.02": 0.0,
			"-0.019": 0.0,
			"-0.018": 0.0,
			"-0.017": 0.0,
			"-0.016": 0.0,
			"-0.015": 0.0,
			"-0.014": 0.0,
			"-0.013": 0.0,
			"-0.012": 0.0,
			"-0.011": 0.287375520911,
			"-0.01": 2.76293346467,
			"-0.009": 8.20038959358,
			"-0.008": 12.094451033,
			"-0.007": 14.4551464151,
			"-0.006": 21.2920853491,
			"-0.005": 21.5426964913,
			"-0.004": 29.8038000633,
			"-0.003": 23.3793199749,
			"-0.002": 17.876856758,
			"-0.001": 13.8478945016,
			"0.0": 9.01351114996,
			"0.001": 6.98239065511,
			"0.002": 6.20123184909,
			"0.003": 5.40676144512,
			"0.004": 6.90979436896,
			"0.005": 5.52911715035,
			"0.006": 5.6137196846,
			"0.007": 5.14013718368,
			"0.008": 5.22337172136,
			"0.009": 6.53857740912,
			"0.01": 15.4931004278,
			"0.011": 16.3403613595,
			"0.012": 10.1643164282,
			"0.013": 2.71029702572,
			"0.014": 0.0104850326952,
			"0.015": 0.275095318528,
			"0.016": 0.553488836774,
			"0.017": 0.0453012410023,
			"0.018": 0.0477890758503,
			"0.019": 0.332855966516,
			"0.02": 0.141290944975,
			"0.021": 0.0720703036591,
			"0.022": 0.0,
			"0.023": 0.00546840505188,
			"0.024": 0.129870160294,
			"0.025": 0.0828067696538
		}
	}
}
