{
	 "smiles": "NC1=CC(=CC=C1)C1=NN=NN1C1CC1", 
	 "Tm": 411.15, 
	 "num_atms": 26, 
	 "gaussian": { 
		 "optdone": 1, 
		 "sigma_profile": "yes", 
		 "theory": "DFT", 
		 "functional": "B3LYP", 
		 "basiset": "6-31G**", 
		 "properties": { 
			 "R2extent": 3387.5203, 
			 "electric_dipole_moment_norm": 7.77427437772, 
			 "electric_quadrupole_moment_norm": 14.5060255753, 
			 "total_energy": -661.370076379, 
			 "HOMO_LUMO_gap": 0.1721, 
			 "cosmo_polarized_energy": -20.17, 
			 "cosmo_cavitation_energy": 29.99, 
			 "cosmo_dispersion_energy": -21.47, 
			 "cosmo_repulsion_energy": 1.68, 
			 "cosmo_total_nonelectrostatic_energy": 10.2, 
			 "SMD_solvation_energy": 2.61 
		},
		"coords": [
			{
				"x": -1.2579145998,
				"y": 3.5812246192,
				"z": 0.7193233897,
				"element": "N" 
			},
			{
				"x": -1.4660985657,
				"y": 2.2226268821,
				"z": 0.4800708118,
				"element": "C" 
			},
			{
				"x": -0.5126917912,
				"y": 1.4704516425,
				"z": -0.2254643211,
				"element": "C" 
			},
			{
				"x": -0.7426366054,
				"y": 0.1212878219,
				"z": -0.525453305,
				"element": "C" 
			},
			{
				"x": -1.9440477343,
				"y": -0.4887297108,
				"z": -0.1261583906,
				"element": "C" 
			},
			{
				"x": -2.8868265979,
				"y": 0.2580977942,
				"z": 0.5744948723,
				"element": "C" 
			},
			{
				"x": -2.6581664852,
				"y": 1.5972901638,
				"z": 0.8823719743,
				"element": "C" 
			},
			{
				"x": 0.2143352265,
				"y": -0.6991180475,
				"z": -1.2808204241,
				"element": "C" 
			},
			{
				"x": -0.1221232847,
				"y": -1.7928352708,
				"z": -1.9548248541,
				"element": "N" 
			},
			{
				"x": 1.0164730925,
				"y": -2.2790234086,
				"z": -2.5011973554,
				"element": "N" 
			},
			{
				"x": 2.0318000188,
				"y": -1.5418101443,
				"z": -2.2004094679,
				"element": "N" 
			},
			{
				"x": 1.5605018143,
				"y": -0.5305669788,
				"z": -1.4188431635,
				"element": "N" 
			},
			{
				"x": 2.468669995,
				"y": 0.4600558282,
				"z": -0.9030558034,
				"element": "C" 
			},
			{
				"x": 2.7048048451,
				"y": 0.5311298902,
				"z": 0.5865953967,
				"element": "C" 
			},
			{
				"x": 3.7715909323,
				"y": -0.0170503926,
				"z": -0.323456202,
				"element": "C" 
			},
			{
				"x": -1.7915393317,
				"y": 3.9729749437,
				"z": 1.4826128679,
				"element": "H" 
			},
			{
				"x": -0.2925774019,
				"y": 3.8784570995,
				"z": 0.7393217569,
				"element": "H" 
			},
			{
				"x": 0.3955204942,
				"y": 1.9610621592,
				"z": -0.55652637,
				"element": "H" 
			},
			{
				"x": -2.1173941166,
				"y": -1.5288048791,
				"z": -0.3738235563,
				"element": "H" 
			},
			{
				"x": -3.8148948826,
				"y": -0.2094390588,
				"z": 0.8903453687,
				"element": "H" 
			},
			{
				"x": -3.4052723072,
				"y": 2.1688868087,
				"z": 1.4273089644,
				"element": "H" 
			},
			{
				"x": 2.4748324664,
				"y": 1.3835088953,
				"z": -1.4758708732,
				"element": "H" 
			},
			{
				"x": 2.1572203897,
				"y": -0.1697636977,
				"z": 1.2077383855,
				"element": "H" 
			},
			{
				"x": 2.8379672688,
				"y": 1.5153509831,
				"z": 1.0243418321,
				"element": "H" 
			},
			{
				"x": 3.9435851821,
				"y": -1.0870921115,
				"z": -0.3258245135,
				"element": "H" 
			},
			{
				"x": 4.6504819784,
				"y": 0.5857281687,
				"z": -0.5262970201,
				"element": "H" 
			}
		],
		 "valence_orbital": [ 
			{
				"type": "occ",
				"energy": -0.29455,
				"method": "rhf"
			},
			{
				"type": "occ",
				"energy": -0.2835,
				"method": "rhf"
			},
			{
				"type": "occ",
				"energy": -0.26704,
				"method": "rhf"
			},
			{
				"type": "occ",
				"energy": -0.2485,
				"method": "rhf"
			},
			{
				"type": "occ",
				"energy": -0.214,
				"method": "rhf"
			},
			{
				"type": "unocc",
				"energy": -0.0419,
				"method": "rhf"
			},
			{
				"type": "unocc",
				"energy": 0.00174,
				"method": "rhf"
			},
			{
				"type": "unocc",
				"energy": 0.00883,
				"method": "rhf"
			},
			{
				"type": "unocc",
				"energy": 0.05102,
				"method": "rhf"
			},
			{
				"type": "unocc",
				"energy": 0.07018,
				"method": "rhf"
			}
		],
		"cosmo_sigma_profile": { 
			"-0.025": 0.0,
			"-0.024": 0.0,
			"-0.023": 0.0,
			"-0.022": 0.0,
			"-0.021": 0.0,
			"-0.02": 0.0,
			"-0.019": 0.0,
			"-0.018": 0.0,
			"-0.017": 0.0,
			"-0.016": 0.0,
			"-0.015": 0.0,
			"-0.014": 0.0,
			"-0.013": 0.791320587878,
			"-0.012": 2.75915247236,
			"-0.011": 3.22325394486,
			"-0.01": 3.20179232972,
			"-0.009": 3.87332426674,
			"-0.008": 7.91097500962,
			"-0.007": 7.73282773575,
			"-0.006": 17.3914625116,
			"-0.005": 16.5358820609,
			"-0.004": 17.2420361756,
			"-0.003": 14.5468843071,
			"-0.002": 13.2263640866,
			"-0.001": 14.2181620978,
			"0.0": 10.6128769052,
			"0.001": 12.2103969164,
			"0.002": 11.7364798019,
			"0.003": 11.7973621712,
			"0.004": 13.2610838086,
			"0.005": 14.3194902321,
			"0.006": 5.58004403865,
			"0.007": 5.40813004237,
			"0.008": 4.97195096818,
			"0.009": 5.67265280711,
			"0.01": 5.40830272775,
			"0.011": 5.38101199833,
			"0.012": 4.24099145892,
			"0.013": 3.19566796704,
			"0.014": 2.30780716325,
			"0.015": 0.427696256579,
			"0.016": 0.0,
			"0.017": 0.0,
			"0.018": 0.0,
			"0.019": 0.0,
			"0.02": 0.0,
			"0.021": 0.0,
			"0.022": 0.0,
			"0.023": 0.0,
			"0.024": 0.0,
			"0.025": 0.0
		}
	}
}
