{
	 "smiles": "CC1=CC=C(C=C1)N1C(C(CC1=O)C(O)=O)C1=CC=CS1", 
	 "Tm": 449.15, 
	 "num_atms": 36, 
	 "gaussian": { 
		 "optdone": 1, 
		 "sigma_profile": "yes", 
		 "theory": "DFT", 
		 "functional": "B3LYP", 
		 "basiset": "6-31G**", 
		 "properties": { 
			 "R2extent": 7794.2177, 
			 "electric_dipole_moment_norm": 3.44453615745, 
			 "electric_quadrupole_moment_norm": 8.80848560026, 
			 "total_energy": -1297.37453802, 
			 "HOMO_LUMO_gap": 0.18832, 
			 "cosmo_polarized_energy": -17.03, 
			 "cosmo_cavitation_energy": 40.46, 
			 "cosmo_dispersion_energy": -28.26, 
			 "cosmo_repulsion_energy": 2.12, 
			 "cosmo_total_nonelectrostatic_energy": 14.32, 
			 "SMD_solvation_energy": 8.15 
		},
		"coords": [
			{
				"x": -0.7343709835,
				"y": -1.8801921155,
				"z": -5.1360424934,
				"element": "C" 
			},
			{
				"x": -0.8748414092,
				"y": -1.4672417186,
				"z": -3.6902628729,
				"element": "C" 
			},
			{
				"x": -0.5516118008,
				"y": -2.3367839999,
				"z": -2.6454947297,
				"element": "C" 
			},
			{
				"x": -0.659373215,
				"y": -1.9497307063,
				"z": -1.3099181781,
				"element": "C" 
			},
			{
				"x": -1.1067013127,
				"y": -0.6622825768,
				"z": -0.9751420252,
				"element": "C" 
			},
			{
				"x": -1.4352114668,
				"y": 0.2251934401,
				"z": -2.0166942869,
				"element": "C" 
			},
			{
				"x": -1.3165689634,
				"y": -0.1839015469,
				"z": -3.3413668594,
				"element": "C" 
			},
			{
				"x": -1.2553818068,
				"y": -0.2925308631,
				"z": 0.3915484438,
				"element": "N" 
			},
			{
				"x": -1.0888139226,
				"y": -1.2747528443,
				"z": 1.4744926702,
				"element": "C" 
			},
			{
				"x": -1.8571397642,
				"y": -0.5783778065,
				"z": 2.6524647018,
				"element": "C" 
			},
			{
				"x": -1.6194750862,
				"y": 0.9034664155,
				"z": 2.3944430977,
				"element": "C" 
			},
			{
				"x": -1.5013872124,
				"y": 0.9908195633,
				"z": 0.877630679,
				"element": "C" 
			},
			{
				"x": -1.6075747714,
				"y": 2.0105161064,
				"z": 0.2190401953,
				"element": "O" 
			},
			{
				"x": -1.4461614875,
				"y": -1.0573211464,
				"z": 4.0279028499,
				"element": "C" 
			},
			{
				"x": -1.8952433435,
				"y": -2.3157759121,
				"z": 4.2551921995,
				"element": "O" 
			},
			{
				"x": -0.8083239767,
				"y": -0.4272737239,
				"z": 4.8391799682,
				"element": "O" 
			},
			{
				"x": 0.3730754237,
				"y": -1.5627285216,
				"z": 1.7534894351,
				"element": "C" 
			},
			{
				"x": 1.4588837029,
				"y": -0.759528618,
				"z": 1.517931109,
				"element": "C" 
			},
			{
				"x": 2.698165085,
				"y": -1.3522144333,
				"z": 1.9073973465,
				"element": "C" 
			},
			{
				"x": 2.5450285578,
				"y": -2.6057404482,
				"z": 2.4284183929,
				"element": "C" 
			},
			{
				"x": 0.8781409576,
				"y": -3.0835067853,
				"z": 2.4579942798,
				"element": "S" 
			},
			{
				"x": -0.6162073324,
				"y": -2.9633429561,
				"z": -5.2326631571,
				"element": "H" 
			},
			{
				"x": 0.1407151346,
				"y": -1.4110582482,
				"z": -5.6028714426,
				"element": "H" 
			},
			{
				"x": -1.6091390739,
				"y": -1.5833360207,
				"z": -5.7246118146,
				"element": "H" 
			},
			{
				"x": -0.2020253875,
				"y": -3.3412043214,
				"z": -2.871239219,
				"element": "H" 
			},
			{
				"x": -0.3727525245,
				"y": -2.6565835735,
				"z": -0.5413248608,
				"element": "H" 
			},
			{
				"x": -1.7727856787,
				"y": 1.2232307418,
				"z": -1.7799765689,
				"element": "H" 
			},
			{
				"x": -1.5807627899,
				"y": 0.5212130917,
				"z": -4.1262164865,
				"element": "H" 
			},
			{
				"x": -1.6026312259,
				"y": -2.2034364397,
				"z": 1.2097573774,
				"element": "H" 
			},
			{
				"x": -2.9172948427,
				"y": -0.8227233593,
				"z": 2.5222616859,
				"element": "H" 
			},
			{
				"x": -2.4214346279,
				"y": 1.5555451765,
				"z": 2.7448689417,
				"element": "H" 
			},
			{
				"x": -0.6886225108,
				"y": 1.2388373696,
				"z": 2.8638262949,
				"element": "H" 
			},
			{
				"x": -1.5588726972,
				"y": -2.5753848743,
				"z": 5.1296856367,
				"element": "H" 
			},
			{
				"x": 1.3800129738,
				"y": 0.2179299373,
				"z": 1.0564106981,
				"element": "H" 
			},
			{
				"x": 3.6597056739,
				"y": -0.8643591431,
				"z": 1.796546218,
				"element": "H" 
			},
			{
				"x": 3.304881705,
				"y": -3.2779391394,
				"z": 2.8022427738,
				"element": "H" 
			}
		],
		 "valence_orbital": [ 
			{
				"type": "occ",
				"energy": -0.25921,
				"method": "rhf"
			},
			{
				"type": "occ",
				"energy": -0.25395,
				"method": "rhf"
			},
			{
				"type": "occ",
				"energy": -0.24753,
				"method": "rhf"
			},
			{
				"type": "occ",
				"energy": -0.23758,
				"method": "rhf"
			},
			{
				"type": "occ",
				"energy": -0.2139,
				"method": "rhf"
			},
			{
				"type": "unocc",
				"energy": -0.02558,
				"method": "rhf"
			},
			{
				"type": "unocc",
				"energy": -0.01338,
				"method": "rhf"
			},
			{
				"type": "unocc",
				"energy": -0.00535,
				"method": "rhf"
			},
			{
				"type": "unocc",
				"energy": 0.00253,
				"method": "rhf"
			},
			{
				"type": "unocc",
				"energy": 0.018,
				"method": "rhf"
			}
		],
		"cosmo_sigma_profile": { 
			"-0.025": 0.0,
			"-0.024": 0.0,
			"-0.023": 0.0,
			"-0.022": 0.0,
			"-0.021": 0.0,
			"-0.02": 0.0,
			"-0.019": 0.106380301426,
			"-0.018": 0.932078474947,
			"-0.017": 0.793402445221,
			"-0.016": 0.946493480212,
			"-0.015": 0.680178674858,
			"-0.014": 0.702042404508,
			"-0.013": 0.448501088596,
			"-0.012": 0.612857657554,
			"-0.011": 0.833144825856,
			"-0.01": 0.746634687151,
			"-0.009": 0.87270872762,
			"-0.008": 7.68263340105,
			"-0.007": 12.8874631421,
			"-0.006": 17.2696518663,
			"-0.005": 19.2699801425,
			"-0.004": 23.3448676425,
			"-0.003": 24.6857270439,
			"-0.002": 21.308066851,
			"-0.001": 22.7495515156,
			"0.0": 21.5500771321,
			"0.001": 20.2730447573,
			"0.002": 20.51908174,
			"0.003": 20.5723189821,
			"0.004": 22.2160577821,
			"0.005": 18.7383992489,
			"0.006": 11.4128215251,
			"0.007": 4.83139016866,
			"0.008": 4.01045025709,
			"0.009": 3.68815000644,
			"0.01": 4.48124264974,
			"0.011": 7.18113828549,
			"0.012": 4.36605288752,
			"0.013": 2.353371316,
			"0.014": 0.563064183352,
			"0.015": 0.0,
			"0.016": 0.0,
			"0.017": 0.0,
			"0.018": 0.0,
			"0.019": 0.0,
			"0.02": 0.0,
			"0.021": 0.0,
			"0.022": 0.0,
			"0.023": 0.0,
			"0.024": 0.0,
			"0.025": 0.0
		}
	}
}
