{
	 "smiles": "COC1=CC=C(C=C1OC)C(C)=O", 
	 "Tm": 323.15, 
	 "num_atms": 25, 
	 "gaussian": { 
		 "optdone": 1, 
		 "sigma_profile": "yes", 
		 "theory": "DFT", 
		 "functional": "B3LYP", 
		 "basiset": "6-31G**", 
		 "properties": { 
			 "R2extent": 3050.2298, 
			 "electric_dipole_moment_norm": 4.47872517576, 
			 "electric_quadrupole_moment_norm": 14.7575847489, 
			 "total_energy": -613.940034917, 
			 "HOMO_LUMO_gap": 0.17265, 
			 "cosmo_polarized_energy": -11.68, 
			 "cosmo_cavitation_energy": 28.69, 
			 "cosmo_dispersion_energy": -20.51, 
			 "cosmo_repulsion_energy": 1.63, 
			 "cosmo_total_nonelectrostatic_energy": 9.81, 
			 "SMD_solvation_energy": 7.28 
		},
		"coords": [
			{
				"x": -3.2091143204,
				"y": 2.1128088364,
				"z": 0.5302506353,
				"element": "C" 
			},
			{
				"x": -2.4537685681,
				"y": 1.8050505852,
				"z": -0.6464289717,
				"element": "O" 
			},
			{
				"x": -1.7191794263,
				"y": 0.6518282963,
				"z": -0.6317958945,
				"element": "C" 
			},
			{
				"x": -2.0050956681,
				"y": -0.3250553799,
				"z": -1.5861654931,
				"element": "C" 
			},
			{
				"x": -1.2532666916,
				"y": -1.4931347079,
				"z": -1.6636274103,
				"element": "C" 
			},
			{
				"x": -0.19706289,
				"y": -1.7067819006,
				"z": -0.7710859498,
				"element": "C" 
			},
			{
				"x": 0.1032162697,
				"y": -0.7239070342,
				"z": 0.1900255423,
				"element": "C" 
			},
			{
				"x": -0.6391393677,
				"y": 0.4547618813,
				"z": 0.2627496518,
				"element": "C" 
			},
			{
				"x": -0.3922262041,
				"y": 1.4726601591,
				"z": 1.1409976658,
				"element": "O" 
			},
			{
				"x": 0.7090746347,
				"y": 1.3442154906,
				"z": 2.0264814858,
				"element": "C" 
			},
			{
				"x": 0.5790492202,
				"y": -2.9811011727,
				"z": -0.8808689815,
				"element": "C" 
			},
			{
				"x": 1.7324976578,
				"y": -3.2276931538,
				"z": 0.0804109223,
				"element": "C" 
			},
			{
				"x": 0.2951906451,
				"y": -3.8159565385,
				"z": -1.727948138,
				"element": "O" 
			},
			{
				"x": -3.7752859079,
				"y": 3.0155502781,
				"z": 0.2933253533,
				"element": "H" 
			},
			{
				"x": -2.5606257139,
				"y": 2.2989400675,
				"z": 1.3896814643,
				"element": "H" 
			},
			{
				"x": -3.9084938667,
				"y": 1.3004351569,
				"z": 0.7652858208,
				"element": "H" 
			},
			{
				"x": -2.8301899697,
				"y": -0.1370327315,
				"z": -2.2656882254,
				"element": "H" 
			},
			{
				"x": -1.4709548799,
				"y": -2.2574170616,
				"z": -2.4010158433,
				"element": "H" 
			},
			{
				"x": 0.9276717137,
				"y": -0.8775079522,
				"z": 0.8742918767,
				"element": "H" 
			},
			{
				"x": 1.6549395992,
				"y": 1.2385191349,
				"z": 1.4801297699,
				"element": "H" 
			},
			{
				"x": 0.7334448315,
				"y": 2.2650110951,
				"z": 2.6109602475,
				"element": "H" 
			},
			{
				"x": 0.5881541315,
				"y": 0.4895090801,
				"z": 2.7047360775,
				"element": "H" 
			},
			{
				"x": 2.173092967,
				"y": -4.1983922639,
				"z": -0.1483365319,
				"element": "H" 
			},
			{
				"x": 1.3881471659,
				"y": -3.2222438069,
				"z": 1.1206059957,
				"element": "H" 
			},
			{
				"x": 2.4991246381,
				"y": -2.4506663579,
				"z": -0.0156710696,
				"element": "H" 
			}
		],
		 "valence_orbital": [ 
			{
				"type": "occ",
				"energy": -0.31893,
				"method": "rhf"
			},
			{
				"type": "occ",
				"energy": -0.2839,
				"method": "rhf"
			},
			{
				"type": "occ",
				"energy": -0.24893,
				"method": "rhf"
			},
			{
				"type": "occ",
				"energy": -0.24279,
				"method": "rhf"
			},
			{
				"type": "occ",
				"energy": -0.22137,
				"method": "rhf"
			},
			{
				"type": "unocc",
				"energy": -0.04872,
				"method": "rhf"
			},
			{
				"type": "unocc",
				"energy": 0.00209,
				"method": "rhf"
			},
			{
				"type": "unocc",
				"energy": 0.04765,
				"method": "rhf"
			},
			{
				"type": "unocc",
				"energy": 0.07809,
				"method": "rhf"
			},
			{
				"type": "unocc",
				"energy": 0.08945,
				"method": "rhf"
			}
		],
		"cosmo_sigma_profile": { 
			"-0.025": 0.0,
			"-0.024": 0.0,
			"-0.023": 0.0,
			"-0.022": 0.0,
			"-0.021": 0.0,
			"-0.02": 0.0,
			"-0.019": 0.0,
			"-0.018": 0.0,
			"-0.017": 0.0,
			"-0.016": 0.0,
			"-0.015": 0.0,
			"-0.014": 0.0,
			"-0.013": 0.0,
			"-0.012": 0.0,
			"-0.011": 0.0,
			"-0.01": 0.0,
			"-0.009": 0.0,
			"-0.008": 0.0124421282883,
			"-0.007": 3.4124545887,
			"-0.006": 14.8978321151,
			"-0.005": 22.5944592443,
			"-0.004": 22.8812030863,
			"-0.003": 25.466885984,
			"-0.002": 19.2110267918,
			"-0.001": 16.2368326236,
			"0.0": 12.9468463822,
			"0.001": 12.4698616313,
			"0.002": 13.816521132,
			"0.003": 16.7433903572,
			"0.004": 11.3549301334,
			"0.005": 4.69176639614,
			"0.006": 3.95554463507,
			"0.007": 3.47642935835,
			"0.008": 3.77198205174,
			"0.009": 4.59541106421,
			"0.01": 3.9967739524,
			"0.011": 4.19699537559,
			"0.012": 4.44378041425,
			"0.013": 2.05972541546,
			"0.014": 0.323784325642,
			"0.015": 0.0,
			"0.016": 0.0,
			"0.017": 0.0,
			"0.018": 0.0,
			"0.019": 0.0,
			"0.02": 0.0,
			"0.021": 0.0,
			"0.022": 0.0,
			"0.023": 0.0,
			"0.024": 0.0,
			"0.025": 0.0
		}
	}
}
