{
	 "smiles": "ClCC(=O)NC1=CN=C(OC2=CC=C(Br)C=C2)C=C1", 
	 "Tm": 388.15, 
	 "num_atms": 29, 
	 "gaussian": { 
		 "optdone": 1, 
		 "sigma_profile": "yes", 
		 "theory": "DFT", 
		 "functional": "B3LYP", 
		 "basiset": "6-31G**", 
		 "properties": { 
			 "R2extent": 14753.0315, 
			 "electric_dipole_moment_norm": 4.4789919022, 
			 "electric_quadrupole_moment_norm": 6.59373819696, 
			 "total_energy": -3792.96528932, 
			 "HOMO_LUMO_gap": 0.18248, 
			 "cosmo_polarized_energy": -15.22, 
			 "cosmo_cavitation_energy": 38.85, 
			 "cosmo_dispersion_energy": -28.91, 
			 "cosmo_repulsion_energy": 2.24, 
			 "cosmo_total_nonelectrostatic_energy": 12.18, 
			 "SMD_solvation_energy": 5.17 
		},
		"coords": [
			{
				"x": 5.1884471218,
				"y": -0.7768705662,
				"z": -3.7789348444,
				"element": "Cl" 
			},
			{
				"x": 3.7684923978,
				"y": -1.8690849398,
				"z": -3.4763112783,
				"element": "C" 
			},
			{
				"x": 2.7046252969,
				"y": -1.3768759226,
				"z": -2.4887025369,
				"element": "C" 
			},
			{
				"x": 1.748508864,
				"y": -2.1148350366,
				"z": -2.2960114168,
				"element": "O" 
			},
			{
				"x": 2.9102750058,
				"y": -0.1632568988,
				"z": -1.9076282579,
				"element": "N" 
			},
			{
				"x": 2.0858240525,
				"y": 0.5016776096,
				"z": -0.9746848564,
				"element": "C" 
			},
			{
				"x": 0.8847044077,
				"y": -0.0177528779,
				"z": -0.4750156475,
				"element": "C" 
			},
			{
				"x": 0.1289575202,
				"y": 0.6450157728,
				"z": 0.4138470117,
				"element": "N" 
			},
			{
				"x": 0.5295163393,
				"y": 1.8328104095,
				"z": 0.8309059833,
				"element": "C" 
			},
			{
				"x": -0.1977788431,
				"y": 2.5260659333,
				"z": 1.7597759661,
				"element": "O" 
			},
			{
				"x": -1.4634034193,
				"y": 2.1217426012,
				"z": 2.1581109171,
				"element": "C" 
			},
			{
				"x": -1.7129709077,
				"y": 2.1433950296,
				"z": 3.5294997659,
				"element": "C" 
			},
			{
				"x": -2.9893723912,
				"y": 1.8523258563,
				"z": 4.0104694581,
				"element": "C" 
			},
			{
				"x": -4.0010815604,
				"y": 1.5371739896,
				"z": 3.1063540055,
				"element": "C" 
			},
			{
				"x": -5.753142949,
				"y": 1.1306055781,
				"z": 3.7560236622,
				"element": "Br" 
			},
			{
				"x": -3.756308333,
				"y": 1.5155444548,
				"z": 1.7334510069,
				"element": "C" 
			},
			{
				"x": -2.4818093656,
				"y": 1.8127411024,
				"z": 1.254065762,
				"element": "C" 
			},
			{
				"x": 1.7115688066,
				"y": 2.4517944003,
				"z": 0.3964392874,
				"element": "C" 
			},
			{
				"x": 2.4925917419,
				"y": 1.7671631569,
				"z": -0.5167803981,
				"element": "C" 
			},
			{
				"x": 3.2854040223,
				"y": -2.0414148988,
				"z": -4.4382579507,
				"element": "H" 
			},
			{
				"x": 4.1647022885,
				"y": -2.8149101452,
				"z": -3.1061699734,
				"element": "H" 
			},
			{
				"x": 3.7566144203,
				"y": 0.3204403618,
				"z": -2.1805446921,
				"element": "H" 
			},
			{
				"x": 0.5307122432,
				"y": -0.9878826243,
				"z": -0.7987775812,
				"element": "H" 
			},
			{
				"x": -0.9056493647,
				"y": 2.3932721354,
				"z": 4.2096070867,
				"element": "H" 
			},
			{
				"x": -3.1911451965,
				"y": 1.8681485165,
				"z": 5.0752511177,
				"element": "H" 
			},
			{
				"x": -4.5543171245,
				"y": 1.2711763302,
				"z": 1.0418237179,
				"element": "H" 
			},
			{
				"x": -2.2823836097,
				"y": 1.7948172009,
				"z": 0.190125313,
				"element": "H" 
			},
			{
				"x": 1.9883296102,
				"y": 3.4291442873,
				"z": 0.773959746,
				"element": "H" 
			},
			{
				"x": 3.4176889258,
				"y": 2.2086291838,
				"z": -0.8798903736,
				"element": "H" 
			}
		],
		 "valence_orbital": [ 
			{
				"type": "occ",
				"energy": -0.28301,
				"method": "rhf"
			},
			{
				"type": "occ",
				"energy": -0.27065,
				"method": "rhf"
			},
			{
				"type": "occ",
				"energy": -0.26012,
				"method": "rhf"
			},
			{
				"type": "occ",
				"energy": -0.24217,
				"method": "rhf"
			},
			{
				"type": "occ",
				"energy": -0.21986,
				"method": "rhf"
			},
			{
				"type": "unocc",
				"energy": -0.03738,
				"method": "rhf"
			},
			{
				"type": "unocc",
				"energy": -0.03036,
				"method": "rhf"
			},
			{
				"type": "unocc",
				"energy": -0.01193,
				"method": "rhf"
			},
			{
				"type": "unocc",
				"energy": -0.00489,
				"method": "rhf"
			},
			{
				"type": "unocc",
				"energy": 0.0003,
				"method": "rhf"
			}
		],
		"cosmo_sigma_profile": { 
			"-0.025": 0.0,
			"-0.024": 0.0,
			"-0.023": 0.0,
			"-0.022": 0.0,
			"-0.021": 0.0,
			"-0.02": 0.0,
			"-0.019": 0.0,
			"-0.018": 0.0,
			"-0.017": 0.0,
			"-0.016": 0.0,
			"-0.015": 0.396893282635,
			"-0.014": 0.90943224823,
			"-0.013": 0.855700263325,
			"-0.012": 1.07432319549,
			"-0.011": 0.768516929259,
			"-0.01": 1.84348172945,
			"-0.009": 6.1045600483,
			"-0.008": 7.9268390072,
			"-0.007": 14.313582806,
			"-0.006": 15.7008877311,
			"-0.005": 17.2933715763,
			"-0.004": 13.1873380103,
			"-0.003": 15.0643007224,
			"-0.002": 16.0592883287,
			"-0.001": 16.9319911212,
			"0.0": 27.8443412127,
			"0.001": 32.7036455565,
			"0.002": 31.4304662451,
			"0.003": 29.9939742389,
			"0.004": 22.2969871948,
			"0.005": 18.9536432725,
			"0.006": 5.01191053474,
			"0.007": 3.68123557881,
			"0.008": 3.23827541049,
			"0.009": 2.55611791863,
			"0.01": 2.76811463608,
			"0.011": 3.18882827599,
			"0.012": 4.13919321298,
			"0.013": 1.96869447044,
			"0.014": 0.00958155155054,
			"0.015": 0.0,
			"0.016": 0.0,
			"0.017": 0.0,
			"0.018": 0.0,
			"0.019": 0.0,
			"0.02": 0.0,
			"0.021": 0.0,
			"0.022": 0.0,
			"0.023": 0.0,
			"0.024": 0.0,
			"0.025": 0.0
		}
	}
}
