{
	 "smiles": "NC1=C(C(=O)N2CCOCC2)C2=C(CCCC2)S1", 
	 "Tm": 364.15, 
	 "num_atms": 36, 
	 "gaussian": { 
		 "optdone": 1, 
		 "sigma_profile": "yes", 
		 "theory": "DFT", 
		 "functional": "B3LYP", 
		 "basiset": "6-31G**", 
		 "properties": { 
			 "R2extent": 5386.2994, 
			 "electric_dipole_moment_norm": 1.82098727618, 
			 "electric_quadrupole_moment_norm": 6.19448095243, 
			 "total_energy": -1164.37265391, 
			 "HOMO_LUMO_gap": 0.17581, 
			 "cosmo_polarized_energy": -12.46, 
			 "cosmo_cavitation_energy": 36.77, 
			 "cosmo_dispersion_energy": -27.22, 
			 "cosmo_repulsion_energy": 2.07, 
			 "cosmo_total_nonelectrostatic_energy": 11.62, 
			 "SMD_solvation_energy": 4.72 
		},
		"coords": [
			{
				"x": -3.5539723122,
				"y": 0.6014450693,
				"z": -1.0431943971,
				"element": "N" 
			},
			{
				"x": -2.3895636998,
				"y": 0.9245519214,
				"z": -0.3845371625,
				"element": "C" 
			},
			{
				"x": -1.1343672999,
				"y": 0.3667539004,
				"z": -0.5772078662,
				"element": "C" 
			},
			{
				"x": -0.9743776666,
				"y": -0.6678834626,
				"z": -1.6279161698,
				"element": "C" 
			},
			{
				"x": -1.5768298481,
				"y": -0.5815514369,
				"z": -2.7065499378,
				"element": "O" 
			},
			{
				"x": -0.1441919002,
				"y": -1.7517281388,
				"z": -1.3763752535,
				"element": "N" 
			},
			{
				"x": -0.0125755339,
				"y": -2.7382607666,
				"z": -2.4543614129,
				"element": "C" 
			},
			{
				"x": 1.2656445667,
				"y": -3.5457290573,
				"z": -2.2471132264,
				"element": "C" 
			},
			{
				"x": 1.2919551327,
				"y": -4.1680961584,
				"z": -0.9676112885,
				"element": "O" 
			},
			{
				"x": 1.2135589947,
				"y": -3.1999406034,
				"z": 0.0672855871,
				"element": "C" 
			},
			{
				"x": -0.0625204246,
				"y": -2.3662010979,
				"z": -0.0433468451,
				"element": "C" 
			},
			{
				"x": -0.132551608,
				"y": 0.957697657,
				"z": 0.2933880864,
				"element": "C" 
			},
			{
				"x": -0.6462600152,
				"y": 1.8828712487,
				"z": 1.1556652322,
				"element": "C" 
			},
			{
				"x": 0.1200884056,
				"y": 2.7040252073,
				"z": 2.1562580091,
				"element": "C" 
			},
			{
				"x": 1.617863231,
				"y": 2.7060959816,
				"z": 1.7996753465,
				"element": "C" 
			},
			{
				"x": 2.1023878487,
				"y": 1.2987206552,
				"z": 1.426314617,
				"element": "C" 
			},
			{
				"x": 1.3652235447,
				"y": 0.757455227,
				"z": 0.1903212494,
				"element": "C" 
			},
			{
				"x": -2.3826161073,
				"y": 2.0805690641,
				"z": 0.928781619,
				"element": "S" 
			},
			{
				"x": -4.2859947842,
				"y": 1.2968964666,
				"z": -1.0243147705,
				"element": "H" 
			},
			{
				"x": -3.3646375921,
				"y": 0.2210026379,
				"z": -1.9662982868,
				"element": "H" 
			},
			{
				"x": 0.0038689333,
				"y": -2.2103822198,
				"z": -3.408955711,
				"element": "H" 
			},
			{
				"x": -0.8816565243,
				"y": -3.4133875203,
				"z": -2.4633462745,
				"element": "H" 
			},
			{
				"x": 2.1425380528,
				"y": -2.8879541274,
				"z": -2.365859946,
				"element": "H" 
			},
			{
				"x": 1.3313834668,
				"y": -4.3499405264,
				"z": -2.9854118648,
				"element": "H" 
			},
			{
				"x": 2.0974655697,
				"y": -2.5409636865,
				"z": 0.0369267282,
				"element": "H" 
			},
			{
				"x": 1.2235717805,
				"y": -3.7494563364,
				"z": 1.0132487053,
				"element": "H" 
			},
			{
				"x": -0.9297112251,
				"y": -3.0279585296,
				"z": 0.1094015967,
				"element": "H" 
			},
			{
				"x": -0.0912341451,
				"y": -1.5965346701,
				"z": 0.7284144336,
				"element": "H" 
			},
			{
				"x": -0.258689577,
				"y": 3.7330139021,
				"z": 2.1898868404,
				"element": "H" 
			},
			{
				"x": -0.0185822263,
				"y": 2.2960676917,
				"z": 3.1688540821,
				"element": "H" 
			},
			{
				"x": 2.1971530325,
				"y": 3.1029456041,
				"z": 2.6409473569,
				"element": "H" 
			},
			{
				"x": 1.7853722951,
				"y": 3.3809655099,
				"z": 0.9503072254,
				"element": "H" 
			},
			{
				"x": 1.936174008,
				"y": 0.622628666,
				"z": 2.2761604863,
				"element": "H" 
			},
			{
				"x": 3.1817257659,
				"y": 1.3060835477,
				"z": 1.2365610775,
				"element": "H" 
			},
			{
				"x": 1.6195265202,
				"y": -0.2929374188,
				"z": 0.0288994571,
				"element": "H" 
			},
			{
				"x": 1.7221313413,
				"y": 1.2818157991,
				"z": -0.7085973229,
				"element": "H" 
			}
		],
		 "valence_orbital": [ 
			{
				"type": "occ",
				"energy": -0.26819,
				"method": "rhf"
			},
			{
				"type": "occ",
				"energy": -0.25712,
				"method": "rhf"
			},
			{
				"type": "occ",
				"energy": -0.23744,
				"method": "rhf"
			},
			{
				"type": "occ",
				"energy": -0.23367,
				"method": "rhf"
			},
			{
				"type": "occ",
				"energy": -0.1876,
				"method": "rhf"
			},
			{
				"type": "unocc",
				"energy": -0.01179,
				"method": "rhf"
			},
			{
				"type": "unocc",
				"energy": 0.0096,
				"method": "rhf"
			},
			{
				"type": "unocc",
				"energy": 0.02079,
				"method": "rhf"
			},
			{
				"type": "unocc",
				"energy": 0.07616,
				"method": "rhf"
			},
			{
				"type": "unocc",
				"energy": 0.09164,
				"method": "rhf"
			}
		],
		"cosmo_sigma_profile": { 
			"-0.025": 0.0,
			"-0.024": 0.0,
			"-0.023": 0.0,
			"-0.022": 0.0,
			"-0.021": 0.0,
			"-0.02": 0.0,
			"-0.019": 0.0,
			"-0.018": 0.0,
			"-0.017": 0.0,
			"-0.016": 0.0,
			"-0.015": 0.0,
			"-0.014": 0.565195581461,
			"-0.013": 1.31045407106,
			"-0.012": 1.5410612015,
			"-0.011": 1.13700575306,
			"-0.01": 1.6718463049,
			"-0.009": 2.48927077424,
			"-0.008": 1.67855883177,
			"-0.007": 1.33638686549,
			"-0.006": 3.50251304664,
			"-0.005": 13.7059840685,
			"-0.004": 29.5027514111,
			"-0.003": 34.1012321773,
			"-0.002": 36.4956540489,
			"-0.001": 33.5310608293,
			"0.0": 23.5374185877,
			"0.001": 17.8502210619,
			"0.002": 11.7585940103,
			"0.003": 13.1059954368,
			"0.004": 13.8441263448,
			"0.005": 12.7024864094,
			"0.006": 6.70449215378,
			"0.007": 2.84842732154,
			"0.008": 2.88863254025,
			"0.009": 4.33680603494,
			"0.01": 3.69363725374,
			"0.011": 2.95546097286,
			"0.012": 4.13880039525,
			"0.013": 5.43345059125,
			"0.014": 1.32556539909,
			"0.015": 0.0,
			"0.016": 0.0,
			"0.017": 0.0,
			"0.018": 0.0,
			"0.019": 0.0,
			"0.02": 0.0,
			"0.021": 0.0,
			"0.022": 0.0,
			"0.023": 0.0,
			"0.024": 0.0,
			"0.025": 0.0
		}
	}
}
