{
	 "smiles": "OC(=O)C1CCCN1S(=O)(=O)C1=CC(=CC=C1)[N+]([O-])=O", 
	 "Tm": 456.15, 
	 "num_atms": 32, 
	 "gaussian": { 
		 "optdone": 1, 
		 "sigma_profile": "yes", 
		 "theory": "DFT", 
		 "functional": "B3LYP", 
		 "basiset": "6-31G**", 
		 "properties": { 
			 "R2extent": 6704.8674, 
			 "electric_dipole_moment_norm": 2.28001441662, 
			 "electric_quadrupole_moment_norm": 33.6384205469, 
			 "total_energy": -1385.27104048, 
			 "HOMO_LUMO_gap": 0.15397, 
			 "cosmo_polarized_energy": -23.11, 
			 "cosmo_cavitation_energy": 37.6, 
			 "cosmo_dispersion_energy": -26.32, 
			 "cosmo_repulsion_energy": 1.97, 
			 "cosmo_total_nonelectrostatic_energy": 13.24, 
			 "SMD_solvation_energy": 8.63 
		},
		"coords": [
			{
				"x": 1.3861943046,
				"y": 0.92315995,
				"z": -2.7650142642,
				"element": "O" 
			},
			{
				"x": 2.6470181059,
				"y": 0.4579164894,
				"z": -2.6888777883,
				"element": "C" 
			},
			{
				"x": 3.46189334,
				"y": 0.6234996712,
				"z": -3.5626972961,
				"element": "O" 
			},
			{
				"x": 2.9905195759,
				"y": -0.3054176489,
				"z": -1.3937699682,
				"element": "C" 
			},
			{
				"x": 4.1135960131,
				"y": 0.3903923121,
				"z": -0.6013687097,
				"element": "C" 
			},
			{
				"x": 3.347904452,
				"y": 1.3146231999,
				"z": 0.3571806926,
				"element": "C" 
			},
			{
				"x": 2.1545447946,
				"y": 0.4534409239,
				"z": 0.7857963359,
				"element": "C" 
			},
			{
				"x": 1.8222639077,
				"y": -0.31227099,
				"z": -0.4553845635,
				"element": "N" 
			},
			{
				"x": 1.0088134276,
				"y": -1.8045391834,
				"z": -0.233992505,
				"element": "S" 
			},
			{
				"x": 1.2677275504,
				"y": -2.3205184959,
				"z": 1.1127123763,
				"element": "O" 
			},
			{
				"x": 1.2814338515,
				"y": -2.599948204,
				"z": -1.4324867931,
				"element": "O" 
			},
			{
				"x": -0.7149013009,
				"y": -1.2917308549,
				"z": -0.2916971193,
				"element": "C" 
			},
			{
				"x": -1.4204954783,
				"y": -1.1551310904,
				"z": 0.9001259885,
				"element": "C" 
			},
			{
				"x": -2.7537811147,
				"y": -0.7618334396,
				"z": 0.8144226538,
				"element": "C" 
			},
			{
				"x": -3.384619941,
				"y": -0.517581715,
				"z": -0.4029223112,
				"element": "C" 
			},
			{
				"x": -2.6546525336,
				"y": -0.6731950261,
				"z": -1.5819368104,
				"element": "C" 
			},
			{
				"x": -1.3162863331,
				"y": -1.0642257567,
				"z": -1.5347670926,
				"element": "C" 
			},
			{
				"x": -3.5242998484,
				"y": -0.6015066969,
				"z": 2.0638035554,
				"element": "N" 
			},
			{
				"x": -4.7035753365,
				"y": -0.2717178595,
				"z": 1.9615079589,
				"element": "O" 
			},
			{
				"x": -2.9335644341,
				"y": -0.8045845514,
				"z": 3.1216495624,
				"element": "O" 
			},
			{
				"x": 0.9696517976,
				"y": 0.6963177476,
				"z": -1.908782397,
				"element": "H" 
			},
			{
				"x": 3.2592171821,
				"y": -1.3187443089,
				"z": -1.6968749574,
				"element": "H" 
			},
			{
				"x": 4.7998726876,
				"y": 0.911146424,
				"z": -1.271327033,
				"element": "H" 
			},
			{
				"x": 4.6818710763,
				"y": -0.3565331831,
				"z": -0.0377990001,
				"element": "H" 
			},
			{
				"x": 3.942397623,
				"y": 1.6358017534,
				"z": 1.2160193934,
				"element": "H" 
			},
			{
				"x": 3.0042531501,
				"y": 2.2124060318,
				"z": -0.1687239303,
				"element": "H" 
			},
			{
				"x": 1.2880477992,
				"y": 1.0371772466,
				"z": 1.1093717434,
				"element": "H" 
			},
			{
				"x": 2.4305873735,
				"y": -0.2367539806,
				"z": 1.5892293787,
				"element": "H" 
			},
			{
				"x": -0.9632064308,
				"y": -1.3591879194,
				"z": 1.8600638497,
				"element": "H" 
			},
			{
				"x": -4.425049525,
				"y": -0.2174525521,
				"z": -0.4090668592,
				"element": "H" 
			},
			{
				"x": -3.1319144284,
				"y": -0.4952248392,
				"z": -2.539769125,
				"element": "H" 
			},
			{
				"x": -0.7452613079,
				"y": -1.2005834539,
				"z": -2.4473249651,
				"element": "H" 
			}
		],
		 "valence_orbital": [ 
			{
				"type": "occ",
				"energy": -0.319,
				"method": "rhf"
			},
			{
				"type": "occ",
				"energy": -0.31188,
				"method": "rhf"
			},
			{
				"type": "occ",
				"energy": -0.31012,
				"method": "rhf"
			},
			{
				"type": "occ",
				"energy": -0.30089,
				"method": "rhf"
			},
			{
				"type": "occ",
				"energy": -0.26664,
				"method": "rhf"
			},
			{
				"type": "unocc",
				"energy": -0.11267,
				"method": "rhf"
			},
			{
				"type": "unocc",
				"energy": -0.0709,
				"method": "rhf"
			},
			{
				"type": "unocc",
				"energy": -0.03252,
				"method": "rhf"
			},
			{
				"type": "unocc",
				"energy": -0.00171,
				"method": "rhf"
			},
			{
				"type": "unocc",
				"energy": 0.02609,
				"method": "rhf"
			}
		],
		"cosmo_sigma_profile": { 
			"-0.025": 0.0,
			"-0.024": 0.0,
			"-0.023": 0.0,
			"-0.022": 0.0,
			"-0.021": 0.0,
			"-0.02": 0.0,
			"-0.019": 0.0,
			"-0.018": 0.0,
			"-0.017": 0.0,
			"-0.016": 0.0,
			"-0.015": 0.0,
			"-0.014": 0.0120308551873,
			"-0.013": 0.0778042149966,
			"-0.012": 0.218164690861,
			"-0.011": 1.03871271204,
			"-0.01": 1.52530866648,
			"-0.009": 4.37021383842,
			"-0.008": 10.3832424256,
			"-0.007": 11.1433374861,
			"-0.006": 18.1089753677,
			"-0.005": 30.1441337588,
			"-0.004": 26.5029973267,
			"-0.003": 26.7726641848,
			"-0.002": 26.9861473795,
			"-0.001": 20.6704243182,
			"0.0": 11.8886838068,
			"0.001": 6.68638753951,
			"0.002": 7.40302918807,
			"0.003": 6.9440793802,
			"0.004": 6.7089241252,
			"0.005": 7.62966924687,
			"0.006": 9.80781383949,
			"0.007": 14.8009021395,
			"0.008": 12.0523255049,
			"0.009": 12.2619126243,
			"0.01": 12.4062846014,
			"0.011": 6.62300307539,
			"0.012": 5.06574207287,
			"0.013": 1.43838737727,
			"0.014": 0.0152061969085,
			"0.015": 0.0,
			"0.016": 0.0,
			"0.017": 0.0,
			"0.018": 0.0,
			"0.019": 0.0,
			"0.02": 0.0,
			"0.021": 0.0,
			"0.022": 0.0,
			"0.023": 0.0,
			"0.024": 0.0,
			"0.025": 0.0
		}
	}
}
