{
	 "smiles": "CC1=CC=C(C=C1)S(=O)(=O)N(CCCl)CCCl", 
	 "Tm": 319.15, 
	 "num_atms": 32, 
	 "gaussian": { 
		 "optdone": 1, 
		 "sigma_profile": "yes", 
		 "theory": "DFT", 
		 "functional": "B3LYP", 
		 "basiset": "6-31G**", 
		 "properties": { 
			 "R2extent": 7662.0052, 
			 "electric_dipole_moment_norm": 5.06893575122, 
			 "electric_quadrupole_moment_norm": 12.1119842549, 
			 "total_energy": -1951.92470799, 
			 "HOMO_LUMO_gap": 0.20991, 
			 "cosmo_polarized_energy": -16.16, 
			 "cosmo_cavitation_energy": 39.59, 
			 "cosmo_dispersion_energy": -27.69, 
			 "cosmo_repulsion_energy": 2.17, 
			 "cosmo_total_nonelectrostatic_energy": 14.07, 
			 "SMD_solvation_energy": 5.0 
		},
		"coords": [
			{
				"x": 0.6607433977,
				"y": 2.7786704193,
				"z": -3.4463808454,
				"element": "C" 
			},
			{
				"x": 0.522016059,
				"y": 2.0374103819,
				"z": -2.1388699306,
				"element": "C" 
			},
			{
				"x": -0.0538107986,
				"y": 2.6543331888,
				"z": -1.0193869745,
				"element": "C" 
			},
			{
				"x": -0.1574635684,
				"y": 1.9875470222,
				"z": 0.20050421,
				"element": "C" 
			},
			{
				"x": 0.3135644052,
				"y": 0.6767784442,
				"z": 0.3011550461,
				"element": "C" 
			},
			{
				"x": 0.9055618338,
				"y": 0.0423009072,
				"z": -0.7944483789,
				"element": "C" 
			},
			{
				"x": 1.001441485,
				"y": 0.7253734287,
				"z": -2.0045599949,
				"element": "C" 
			},
			{
				"x": 0.1503976606,
				"y": -0.2097406869,
				"z": 1.8526120819,
				"element": "S" 
			},
			{
				"x": 1.1547342005,
				"y": -1.2755685163,
				"z": 1.857039016,
				"element": "O" 
			},
			{
				"x": 0.0647594688,
				"y": 0.7968227341,
				"z": 2.9146696982,
				"element": "O" 
			},
			{
				"x": -1.3516356453,
				"y": -0.9712971269,
				"z": 1.8181884523,
				"element": "N" 
			},
			{
				"x": -2.5389583463,
				"y": -0.2325231107,
				"z": 2.25872881,
				"element": "C" 
			},
			{
				"x": -2.7604369182,
				"y": -0.3771531119,
				"z": 3.7656348983,
				"element": "C" 
			},
			{
				"x": -4.3097156901,
				"y": 0.4372977531,
				"z": 4.2450443019,
				"element": "Cl" 
			},
			{
				"x": -1.4874658934,
				"y": -2.3471021294,
				"z": 1.3370257918,
				"element": "C" 
			},
			{
				"x": -1.958819811,
				"y": -2.4038544906,
				"z": -0.1194236711,
				"element": "C" 
			},
			{
				"x": -2.1971396236,
				"y": -4.1251049559,
				"z": -0.6345146658,
				"element": "Cl" 
			},
			{
				"x": -0.0984660379,
				"y": 3.5591698307,
				"z": -3.5472311311,
				"element": "H" 
			},
			{
				"x": 0.5718547863,
				"y": 2.1021061951,
				"z": -4.3013890251,
				"element": "H" 
			},
			{
				"x": 1.6416203515,
				"y": 3.2647705653,
				"z": -3.5169141935,
				"element": "H" 
			},
			{
				"x": -0.4189266054,
				"y": 3.6746874563,
				"z": -1.0999360965,
				"element": "H" 
			},
			{
				"x": -0.5734238644,
				"y": 2.4825240378,
				"z": 1.0711417693,
				"element": "H" 
			},
			{
				"x": 1.3048824171,
				"y": -0.960724184,
				"z": -0.6875335078,
				"element": "H" 
			},
			{
				"x": 1.4646633127,
				"y": 0.2352690736,
				"z": -2.8568181989,
				"element": "H" 
			},
			{
				"x": -2.446609819,
				"y": 0.8252414039,
				"z": 2.0016799125,
				"element": "H" 
			},
			{
				"x": -3.4064063075,
				"y": -0.618601348,
				"z": 1.7147212575,
				"element": "H" 
			},
			{
				"x": -1.9531621625,
				"y": 0.0986636974,
				"z": 4.3198606442,
				"element": "H" 
			},
			{
				"x": -2.847516712,
				"y": -1.4241009273,
				"z": 4.0602990052,
				"element": "H" 
			},
			{
				"x": -2.204700105,
				"y": -2.871340704,
				"z": 1.9776148914,
				"element": "H" 
			},
			{
				"x": -0.5269845713,
				"y": -2.8521536711,
				"z": 1.4449120996,
				"element": "H" 
			},
			{
				"x": -2.9162926488,
				"y": -1.8989024227,
				"z": -0.2587451834,
				"element": "H" 
			},
			{
				"x": -1.2239042495,
				"y": -1.9651991539,
				"z": -0.7946800887,
				"element": "H" 
			}
		],
		 "valence_orbital": [ 
			{
				"type": "occ",
				"energy": -0.30556,
				"method": "rhf"
			},
			{
				"type": "occ",
				"energy": -0.29894,
				"method": "rhf"
			},
			{
				"type": "occ",
				"energy": -0.28337,
				"method": "rhf"
			},
			{
				"type": "occ",
				"energy": -0.27832,
				"method": "rhf"
			},
			{
				"type": "occ",
				"energy": -0.25561,
				"method": "rhf"
			},
			{
				"type": "unocc",
				"energy": -0.0457,
				"method": "rhf"
			},
			{
				"type": "unocc",
				"energy": -0.03126,
				"method": "rhf"
			},
			{
				"type": "unocc",
				"energy": 0.0078,
				"method": "rhf"
			},
			{
				"type": "unocc",
				"energy": 0.02523,
				"method": "rhf"
			},
			{
				"type": "unocc",
				"energy": 0.04678,
				"method": "rhf"
			}
		],
		"cosmo_sigma_profile": { 
			"-0.025": 0.0,
			"-0.024": 0.0,
			"-0.023": 0.0,
			"-0.022": 0.0,
			"-0.021": 0.0,
			"-0.02": 0.0,
			"-0.019": 0.0,
			"-0.018": 0.0,
			"-0.017": 0.0,
			"-0.016": 0.0,
			"-0.015": 0.0,
			"-0.014": 0.0,
			"-0.013": 0.0,
			"-0.012": 0.0,
			"-0.011": 0.0227981054954,
			"-0.01": 0.120693047725,
			"-0.009": 2.21661451165,
			"-0.008": 6.74463313331,
			"-0.007": 11.9470863221,
			"-0.006": 19.1784851501,
			"-0.005": 24.7059380972,
			"-0.004": 26.5893926083,
			"-0.003": 24.5939601223,
			"-0.002": 21.2141487271,
			"-0.001": 21.8560729498,
			"0.0": 21.423928786,
			"0.001": 18.4494472039,
			"0.002": 17.4062237999,
			"0.003": 22.230053129,
			"0.004": 13.7787322957,
			"0.005": 15.1658235859,
			"0.006": 22.2904337045,
			"0.007": 7.04552921536,
			"0.008": 3.90550143263,
			"0.009": 3.71082529686,
			"0.01": 5.89637358812,
			"0.011": 6.14468382151,
			"0.012": 1.27840967164,
			"0.013": 0.0,
			"0.014": 0.0,
			"0.015": 0.0,
			"0.016": 0.0,
			"0.017": 0.0,
			"0.018": 0.0,
			"0.019": 0.0,
			"0.02": 0.0,
			"0.021": 0.0,
			"0.022": 0.0,
			"0.023": 0.0,
			"0.024": 0.0,
			"0.025": 0.0
		}
	}
}
