{
	 "smiles": "CC(C)(C)OC(=O)N1CCN(CC1)C1=NN=C(N)N1", 
	 "Tm": 452.15, 
	 "num_atms": 39, 
	 "gaussian": { 
		 "optdone": 1, 
		 "sigma_profile": "yes", 
		 "theory": "DFT", 
		 "functional": "B3LYP", 
		 "basiset": "6-31G**", 
		 "properties": { 
			 "R2extent": 5077.0522, 
			 "electric_dipole_moment_norm": 3.8229085694, 
			 "electric_quadrupole_moment_norm": 23.9132676931, 
			 "total_energy": -910.18326672, 
			 "HOMO_LUMO_gap": 0.23414, 
			 "cosmo_polarized_energy": -28.12, 
			 "cosmo_cavitation_energy": 39.67, 
			 "cosmo_dispersion_energy": -26.89, 
			 "cosmo_repulsion_energy": 2.07, 
			 "cosmo_total_nonelectrostatic_energy": 14.85, 
			 "SMD_solvation_energy": 3.07 
		},
		"coords": [
			{
				"x": -3.121383751,
				"y": 1.09329673,
				"z": -2.4392905925,
				"element": "C" 
			},
			{
				"x": -2.1868760647,
				"y": 1.7442928981,
				"z": -1.4160980793,
				"element": "C" 
			},
			{
				"x": -2.5269024087,
				"y": 1.276305812,
				"z": 0.0026207767,
				"element": "C" 
			},
			{
				"x": -2.2024112384,
				"y": 3.269818772,
				"z": -1.5539759789,
				"element": "C" 
			},
			{
				"x": -0.8676700467,
				"y": 1.2223952052,
				"z": -1.8191238712,
				"element": "O" 
			},
			{
				"x": 0.2363666417,
				"y": 1.4986894181,
				"z": -1.0951841328,
				"element": "C" 
			},
			{
				"x": 0.2998045035,
				"y": 2.2704893127,
				"z": -0.1490239595,
				"element": "O" 
			},
			{
				"x": 1.3305219485,
				"y": 0.8110371043,
				"z": -1.582634876,
				"element": "N" 
			},
			{
				"x": 2.5489801161,
				"y": 0.8026016011,
				"z": -0.777121604,
				"element": "C" 
			},
			{
				"x": 2.9967303825,
				"y": -0.6646310704,
				"z": -0.5366210527,
				"element": "C" 
			},
			{
				"x": 1.8586984278,
				"y": -1.5847005465,
				"z": -0.5147901767,
				"element": "N" 
			},
			{
				"x": 1.1732063446,
				"y": -1.6495282902,
				"z": -1.8185276036,
				"element": "C" 
			},
			{
				"x": 1.2337118475,
				"y": -0.2787664305,
				"z": -2.546802581,
				"element": "C" 
			},
			{
				"x": 1.0250451923,
				"y": -1.5705786898,
				"z": 0.5965166389,
				"element": "C" 
			},
			{
				"x": -0.2746829999,
				"y": -1.7429303751,
				"z": 0.6088549845,
				"element": "N" 
			},
			{
				"x": -0.6879907251,
				"y": -1.7324360378,
				"z": 1.9474051379,
				"element": "N" 
			},
			{
				"x": 0.3761357882,
				"y": -1.5599267091,
				"z": 2.6780716058,
				"element": "C" 
			},
			{
				"x": 0.4577536718,
				"y": -1.5557376045,
				"z": 4.0708449545,
				"element": "N" 
			},
			{
				"x": 1.5008687699,
				"y": -1.432880979,
				"z": 1.8858384581,
				"element": "N" 
			},
			{
				"x": -4.1509757405,
				"y": 1.4208124271,
				"z": -2.2673269537,
				"element": "H" 
			},
			{
				"x": -3.0863199743,
				"y": 0.0034823989,
				"z": -2.3535551422,
				"element": "H" 
			},
			{
				"x": -2.8354466679,
				"y": 1.3726134522,
				"z": -3.4580126619,
				"element": "H" 
			},
			{
				"x": -3.5785779417,
				"y": 1.4965599742,
				"z": 0.214608505,
				"element": "H" 
			},
			{
				"x": -1.9057002076,
				"y": 1.7817425812,
				"z": 0.7420868919,
				"element": "H" 
			},
			{
				"x": -2.3689065625,
				"y": 0.1982449837,
				"z": 0.096994186,
				"element": "H" 
			},
			{
				"x": -1.5029235164,
				"y": 3.7283264337,
				"z": -0.8545228615,
				"element": "H" 
			},
			{
				"x": -3.2092967909,
				"y": 3.6471586927,
				"z": -1.3466429696,
				"element": "H" 
			},
			{
				"x": -1.9320329198,
				"y": 3.564858318,
				"z": -2.5731324983,
				"element": "H" 
			},
			{
				"x": 2.3188155774,
				"y": 1.308641073,
				"z": 0.1610807655,
				"element": "H" 
			},
			{
				"x": 3.3556209722,
				"y": 1.3608694201,
				"z": -1.2743268762,
				"element": "H" 
			},
			{
				"x": 3.6643854425,
				"y": -1.0041299957,
				"z": -1.3358766427,
				"element": "H" 
			},
			{
				"x": 3.573282678,
				"y": -0.7373463072,
				"z": 0.3900133475,
				"element": "H" 
			},
			{
				"x": 1.6474719994,
				"y": -2.4228807547,
				"z": -2.4363828674,
				"element": "H" 
			},
			{
				"x": 0.1395484209,
				"y": -1.9381028827,
				"z": -1.62963716,
				"element": "H" 
			},
			{
				"x": 2.1157133878,
				"y": -0.2282784006,
				"z": -3.1980236958,
				"element": "H" 
			},
			{
				"x": 0.3551527201,
				"y": -0.1351844594,
				"z": -3.1718230195,
				"element": "H" 
			},
			{
				"x": -0.4622501828,
				"y": -1.749397499,
				"z": 4.4529521556,
				"element": "H" 
			},
			{
				"x": 0.7917331727,
				"y": -0.6702593374,
				"z": 4.4425426497,
				"element": "H" 
			},
			{
				"x": 2.4544997335,
				"y": -1.5126402386,
				"z": 2.2017267995,
				"element": "H" 
			}
		],
		 "valence_orbital": [ 
			{
				"type": "occ",
				"energy": -0.27007,
				"method": "rhf"
			},
			{
				"type": "occ",
				"energy": -0.25411,
				"method": "rhf"
			},
			{
				"type": "occ",
				"energy": -0.24414,
				"method": "rhf"
			},
			{
				"type": "occ",
				"energy": -0.23577,
				"method": "rhf"
			},
			{
				"type": "occ",
				"energy": -0.19136,
				"method": "rhf"
			},
			{
				"type": "unocc",
				"energy": 0.04278,
				"method": "rhf"
			},
			{
				"type": "unocc",
				"energy": 0.05089,
				"method": "rhf"
			},
			{
				"type": "unocc",
				"energy": 0.06162,
				"method": "rhf"
			},
			{
				"type": "unocc",
				"energy": 0.06901,
				"method": "rhf"
			},
			{
				"type": "unocc",
				"energy": 0.08281,
				"method": "rhf"
			}
		],
		"cosmo_sigma_profile": { 
			"-0.025": 0.0,
			"-0.024": 0.0,
			"-0.023": 0.0,
			"-0.022": 0.0,
			"-0.021": 0.0,
			"-0.02": 0.0,
			"-0.019": 0.0,
			"-0.018": 0.0,
			"-0.017": 0.643245198299,
			"-0.016": 1.33904284395,
			"-0.015": 1.58739273563,
			"-0.014": 1.37689416569,
			"-0.013": 3.21753843121,
			"-0.012": 4.36851137697,
			"-0.011": 4.76171527091,
			"-0.01": 3.90647542449,
			"-0.009": 3.31591415234,
			"-0.008": 3.46919570991,
			"-0.007": 3.69503620124,
			"-0.006": 7.62501719838,
			"-0.005": 16.7505939796,
			"-0.004": 28.59097783,
			"-0.003": 27.3411210122,
			"-0.002": 23.0164910615,
			"-0.001": 21.1596041265,
			"0.0": 28.5813304113,
			"0.001": 23.0129847698,
			"0.002": 12.3336047501,
			"0.003": 12.2656149726,
			"0.004": 11.0331227507,
			"0.005": 11.5015622219,
			"0.006": 9.2439021842,
			"0.007": 7.10862664294,
			"0.008": 6.26213502195,
			"0.009": 4.97768609433,
			"0.01": 2.98676488561,
			"0.011": 4.1348622483,
			"0.012": 4.57109322116,
			"0.013": 4.92666414818,
			"0.014": 3.87369937565,
			"0.015": 3.11018622118,
			"0.016": 1.59707052337,
			"0.017": 1.35152944918,
			"0.018": 0.545091747053,
			"0.019": 0.0024278376758,
			"0.02": 0.0,
			"0.021": 0.0,
			"0.022": 0.0,
			"0.023": 0.0,
			"0.024": 0.0,
			"0.025": 0.0
		}
	}
}
