{
	 "smiles": "CC(C)CSCC(C)C", 
	 "Tm": 167.15, 
	 "num_atms": 27, 
	 "gaussian": { 
		 "optdone": 1, 
		 "sigma_profile": "yes", 
		 "theory": "DFT", 
		 "functional": "B3LYP", 
		 "basiset": "6-31G**", 
		 "properties": { 
			 "R2extent": 2372.2753, 
			 "electric_dipole_moment_norm": 1.62706712216, 
			 "electric_quadrupole_moment_norm": 3.07774664649, 
			 "total_energy": -713.912532695, 
			 "HOMO_LUMO_gap": 0.25696, 
			 "cosmo_polarized_energy": -4.12, 
			 "cosmo_cavitation_energy": 28.94, 
			 "cosmo_dispersion_energy": -20.68, 
			 "cosmo_repulsion_energy": 1.68, 
			 "cosmo_total_nonelectrostatic_energy": 9.94, 
			 "SMD_solvation_energy": 4.68 
		},
		"coords": [
			{
				"x": 0.7558064569,
				"y": 0.782979701,
				"z": -3.5630578657,
				"element": "C" 
			},
			{
				"x": 0.085434213,
				"y": 0.5514241458,
				"z": -2.1988086799,
				"element": "C" 
			},
			{
				"x": -1.3090686369,
				"y": 1.1877853282,
				"z": -2.1532132558,
				"element": "C" 
			},
			{
				"x": 1.0010535314,
				"y": 1.0820484162,
				"z": -1.0792998388,
				"element": "C" 
			},
			{
				"x": 0.4923779784,
				"y": 0.7097454252,
				"z": 0.6462296217,
				"element": "S" 
			},
			{
				"x": 0.9714609971,
				"y": -1.0702222311,
				"z": 0.7422927478,
				"element": "C" 
			},
			{
				"x": 0.8088672379,
				"y": -1.6657020821,
				"z": 2.1541049507,
				"element": "C" 
			},
			{
				"x": -0.6515148522,
				"y": -1.6582439792,
				"z": 2.6307492087,
				"element": "C" 
			},
			{
				"x": 1.7432582914,
				"y": -1.0120369661,
				"z": 3.1829740302,
				"element": "C" 
			},
			{
				"x": 0.1353113689,
				"y": 0.3914977888,
				"z": -4.3761951923,
				"element": "H" 
			},
			{
				"x": 0.9074719722,
				"y": 1.8533479288,
				"z": -3.7488230098,
				"element": "H" 
			},
			{
				"x": 1.7338087052,
				"y": 0.2924679512,
				"z": -3.6213777366,
				"element": "H" 
			},
			{
				"x": -0.0268587154,
				"y": -0.533032829,
				"z": -2.0608691557,
				"element": "H" 
			},
			{
				"x": -1.2473542311,
				"y": 2.269486639,
				"z": -2.3272975084,
				"element": "H" 
			},
			{
				"x": -1.7845457893,
				"y": 1.0300583571,
				"z": -1.1812924726,
				"element": "H" 
			},
			{
				"x": -1.9585213762,
				"y": 0.7636725951,
				"z": -2.9264081623,
				"element": "H" 
			},
			{
				"x": 1.0481847398,
				"y": 2.176418522,
				"z": -1.1260435404,
				"element": "H" 
			},
			{
				"x": 2.0247166569,
				"y": 0.7135422739,
				"z": -1.2140854854,
				"element": "H" 
			},
			{
				"x": 0.3588375389,
				"y": -1.639260055,
				"z": 0.0352415485,
				"element": "H" 
			},
			{
				"x": 2.0180096983,
				"y": -1.1509249607,
				"z": 0.4257358169,
				"element": "H" 
			},
			{
				"x": 1.1159289332,
				"y": -2.717361549,
				"z": 2.0510295341,
				"element": "H" 
			},
			{
				"x": -0.7484868272,
				"y": -2.1867278127,
				"z": 3.5850783407,
				"element": "H" 
			},
			{
				"x": -1.3100686535,
				"y": -2.1488361811,
				"z": 1.9057082611,
				"element": "H" 
			},
			{
				"x": -1.0192103406,
				"y": -0.6371437141,
				"z": 2.7751697109,
				"element": "H" 
			},
			{
				"x": 2.7872244048,
				"y": -1.0503200549,
				"z": 2.8530268625,
				"element": "H" 
			},
			{
				"x": 1.4853046344,
				"y": 0.0390672091,
				"z": 3.3454160436,
				"element": "H" 
			},
			{
				"x": 1.6761720639,
				"y": -1.5282298664,
				"z": 4.1466152263,
				"element": "H" 
			}
		],
		 "valence_orbital": [ 
			{
				"type": "occ",
				"energy": -0.32975,
				"method": "rhf"
			},
			{
				"type": "occ",
				"energy": -0.32665,
				"method": "rhf"
			},
			{
				"type": "occ",
				"energy": -0.31471,
				"method": "rhf"
			},
			{
				"type": "occ",
				"energy": -0.28723,
				"method": "rhf"
			},
			{
				"type": "occ",
				"energy": -0.21191,
				"method": "rhf"
			},
			{
				"type": "unocc",
				"energy": 0.04505,
				"method": "rhf"
			},
			{
				"type": "unocc",
				"energy": 0.07616,
				"method": "rhf"
			},
			{
				"type": "unocc",
				"energy": 0.07963,
				"method": "rhf"
			},
			{
				"type": "unocc",
				"energy": 0.10685,
				"method": "rhf"
			},
			{
				"type": "unocc",
				"energy": 0.11915,
				"method": "rhf"
			}
		],
		"cosmo_sigma_profile": { 
			"-0.025": 0.0,
			"-0.024": 0.0,
			"-0.023": 0.0,
			"-0.022": 0.0,
			"-0.021": 0.0,
			"-0.02": 0.0,
			"-0.019": 0.0,
			"-0.018": 0.0,
			"-0.017": 0.0,
			"-0.016": 0.0,
			"-0.015": 0.0,
			"-0.014": 0.0,
			"-0.013": 0.0,
			"-0.012": 0.0,
			"-0.011": 0.0,
			"-0.01": 0.0,
			"-0.009": 0.0,
			"-0.008": 0.0,
			"-0.007": 0.0,
			"-0.006": 0.0,
			"-0.005": 1.20913213168,
			"-0.004": 9.18212547316,
			"-0.003": 26.2786616744,
			"-0.002": 41.2101191568,
			"-0.001": 34.9841304444,
			"0.0": 31.6406065946,
			"0.001": 32.5583211659,
			"0.002": 19.5140100088,
			"0.003": 4.84862618105,
			"0.004": 4.24802495052,
			"0.005": 3.27384736645,
			"0.006": 3.94631161215,
			"0.007": 3.47873616445,
			"0.008": 2.43595065931,
			"0.009": 2.86776397631,
			"0.01": 1.42288881049,
			"0.011": 0.749772958562,
			"0.012": 0.356465490975,
			"0.013": 0.0,
			"0.014": 0.0,
			"0.015": 0.0,
			"0.016": 0.0,
			"0.017": 0.0,
			"0.018": 0.0,
			"0.019": 0.0,
			"0.02": 0.0,
			"0.021": 0.0,
			"0.022": 0.0,
			"0.023": 0.0,
			"0.024": 0.0,
			"0.025": 0.0
		}
	}
}
