{
	 "smiles": "CC1=CN(N=C1)[N+]([O-])=O", 
	 "Tm": 315.15, 
	 "num_atms": 14, 
	 "gaussian": { 
		 "optdone": 1, 
		 "sigma_profile": "yes", 
		 "theory": "DFT", 
		 "functional": "B3LYP", 
		 "basiset": "6-31G**", 
		 "properties": { 
			 "R2extent": 2421.6473, 
			 "electric_dipole_moment_norm": 4.51992730251, 
			 "electric_quadrupole_moment_norm": 13.1439377022, 
			 "total_energy": -469.982865803, 
			 "HOMO_LUMO_gap": 0.1824, 
			 "cosmo_polarized_energy": -8.93, 
			 "cosmo_cavitation_energy": 19.36, 
			 "cosmo_dispersion_energy": -14.33, 
			 "cosmo_repulsion_energy": 1.19, 
			 "cosmo_total_nonelectrostatic_energy": 6.22, 
			 "SMD_solvation_energy": 5.76 
		},
		"coords": [
			{
				"x": 0.0628530132,
				"y": -0.4882259954,
				"z": -0.8793098695,
				"element": "C" 
			},
			{
				"x": -0.0806143776,
				"y": 0.3978185305,
				"z": 0.320864855,
				"element": "C" 
			},
			{
				"x": -1.0518795872,
				"y": 1.3357692842,
				"z": 0.5712117322,
				"element": "C" 
			},
			{
				"x": -0.7365625395,
				"y": 1.8723796194,
				"z": 1.7988651584,
				"element": "N" 
			},
			{
				"x": 0.3700194354,
				"y": 1.3503647322,
				"z": 2.3647325313,
				"element": "N" 
			},
			{
				"x": 0.7691005331,
				"y": 0.4581150858,
				"z": 1.4731031218,
				"element": "C" 
			},
			{
				"x": -1.4753452817,
				"y": 2.8914463639,
				"z": 2.4653285466,
				"element": "N" 
			},
			{
				"x": -1.0578703877,
				"y": 3.249999531,
				"z": 3.5438210816,
				"element": "O" 
			},
			{
				"x": -2.4581682158,
				"y": 3.2841397452,
				"z": 1.8525747261,
				"element": "O" 
			},
			{
				"x": -0.7382971937,
				"y": -0.3093898468,
				"z": -1.6007563722,
				"element": "H" 
			},
			{
				"x": 1.017048639,
				"y": -0.3159942747,
				"z": -1.3891691641,
				"element": "H" 
			},
			{
				"x": 0.0303014511,
				"y": -1.5466317081,
				"z": -0.5985152842,
				"element": "H" 
			},
			{
				"x": -1.9133502405,
				"y": 1.6692516145,
				"z": 0.0168097937,
				"element": "H" 
			},
			{
				"x": 1.6588647519,
				"y": -0.1260426818,
				"z": 1.6720391434,
				"element": "H" 
			}
		],
		 "valence_orbital": [ 
			{
				"type": "occ",
				"energy": -0.3341,
				"method": "rhf"
			},
			{
				"type": "occ",
				"energy": -0.32422,
				"method": "rhf"
			},
			{
				"type": "occ",
				"energy": -0.31193,
				"method": "rhf"
			},
			{
				"type": "occ",
				"energy": -0.28876,
				"method": "rhf"
			},
			{
				"type": "occ",
				"energy": -0.27049,
				"method": "rhf"
			},
			{
				"type": "unocc",
				"energy": -0.08809,
				"method": "rhf"
			},
			{
				"type": "unocc",
				"energy": 0.00904,
				"method": "rhf"
			},
			{
				"type": "unocc",
				"energy": 0.04036,
				"method": "rhf"
			},
			{
				"type": "unocc",
				"energy": 0.08022,
				"method": "rhf"
			},
			{
				"type": "unocc",
				"energy": 0.0965,
				"method": "rhf"
			}
		],
		"cosmo_sigma_profile": { 
			"-0.025": 0.0,
			"-0.024": 0.0,
			"-0.023": 0.0,
			"-0.022": 0.0,
			"-0.021": 0.0,
			"-0.02": 0.0,
			"-0.019": 0.0,
			"-0.018": 0.0,
			"-0.017": 0.0,
			"-0.016": 0.0,
			"-0.015": 0.0,
			"-0.014": 0.0,
			"-0.013": 0.0,
			"-0.012": 0.0,
			"-0.011": 0.0433270167171,
			"-0.01": 1.07660335774,
			"-0.009": 3.37265186116,
			"-0.008": 3.94311841144,
			"-0.007": 4.09359884559,
			"-0.006": 6.99994626204,
			"-0.005": 10.3663364439,
			"-0.004": 13.2330385115,
			"-0.003": 13.0836169061,
			"-0.002": 13.0373728941,
			"-0.001": 14.2091725879,
			"0.0": 10.8891101683,
			"0.001": 9.3647148915,
			"0.002": 6.27482208706,
			"0.003": 2.58291982696,
			"0.004": 4.94733578742,
			"0.005": 6.95158949294,
			"0.006": 11.012749471,
			"0.007": 7.32127371317,
			"0.008": 3.99165363969,
			"0.009": 1.64044157951,
			"0.01": 1.62263837497,
			"0.011": 1.41734881956,
			"0.012": 1.4693706153,
			"0.013": 1.11702717306,
			"0.014": 1.06904082953,
			"0.015": 0.0441116629108,
			"0.016": 0.0,
			"0.017": 0.0,
			"0.018": 0.0,
			"0.019": 0.0,
			"0.02": 0.0,
			"0.021": 0.0,
			"0.022": 0.0,
			"0.023": 0.0,
			"0.024": 0.0,
			"0.025": 0.0
		}
	}
}
