{
	 "smiles": "C[C@@H](CCC(O)=O)[C@H]1CCC2C3C(CC[C@]12C)[C@@]1(C)CCCC[C@H]1CC3=O", 
	 "Tm": 418.15, 
	 "num_atms": 65, 
	 "gaussian": { 
		 "optdone": 1, 
		 "sigma_profile": "yes", 
		 "theory": "DFT", 
		 "functional": "B3LYP", 
		 "basiset": "6-31G**", 
		 "properties": { 
			 "R2extent": 11754.0737, 
			 "electric_dipole_moment_norm": 4.5415470591, 
			 "electric_quadrupole_moment_norm": 32.8831668393, 
			 "total_energy": -1163.17479426, 
			 "HOMO_LUMO_gap": 0.22299, 
			 "cosmo_polarized_energy": -21.13, 
			 "cosmo_cavitation_energy": 55.58, 
			 "cosmo_dispersion_energy": -36.89, 
			 "cosmo_repulsion_energy": 2.73, 
			 "cosmo_total_nonelectrostatic_energy": 21.42, 
			 "SMD_solvation_energy": 9.14 
		},
		"coords": [
			{
				"x": -3.0644823019,
				"y": 1.4067636693,
				"z": -4.050747116,
				"element": "C" 
			},
			{
				"x": -2.8277016816,
				"y": 0.8326390698,
				"z": -2.6407572556,
				"element": "C" 
			},
			{
				"x": -3.7987802165,
				"y": -0.3543777617,
				"z": -2.4301649394,
				"element": "C" 
			},
			{
				"x": -4.0635417009,
				"y": -0.7139736719,
				"z": -0.9663276631,
				"element": "C" 
			},
			{
				"x": -5.0030363143,
				"y": -1.9030439762,
				"z": -0.8054710399,
				"element": "C" 
			},
			{
				"x": -5.3164732171,
				"y": -2.2232446747,
				"z": 0.4825604226,
				"element": "O" 
			},
			{
				"x": -5.4590349869,
				"y": -2.551584323,
				"z": -1.7125782927,
				"element": "O" 
			},
			{
				"x": -1.3561811537,
				"y": 0.4292141499,
				"z": -2.3265487675,
				"element": "C" 
			},
			{
				"x": -0.5421420496,
				"y": -0.1807247194,
				"z": -3.4954740635,
				"element": "C" 
			},
			{
				"x": 0.9542250842,
				"y": 0.0108463962,
				"z": -3.1205812132,
				"element": "C" 
			},
			{
				"x": 0.9804740348,
				"y": 0.799498114,
				"z": -1.7806263574,
				"element": "C" 
			},
			{
				"x": 1.2756228085,
				"y": -0.1454846865,
				"z": -0.5918254553,
				"element": "C" 
			},
			{
				"x": 0.9378436063,
				"y": 0.4557812391,
				"z": 0.8056901743,
				"element": "C" 
			},
			{
				"x": -0.5301940515,
				"y": 0.9204718374,
				"z": 0.7882540948,
				"element": "C" 
			},
			{
				"x": -0.775368149,
				"y": 1.9673889099,
				"z": -0.302735256,
				"element": "C" 
			},
			{
				"x": -0.4018181722,
				"y": 1.5196295944,
				"z": -1.730963419,
				"element": "C" 
			},
			{
				"x": -0.3398539816,
				"y": 2.7826358634,
				"z": -2.6158367677,
				"element": "C" 
			},
			{
				"x": 1.3108529235,
				"y": -0.4612973258,
				"z": 2.0281363422,
				"element": "C" 
			},
			{
				"x": 1.1918739277,
				"y": 0.4000772345,
				"z": 3.3089034816,
				"element": "C" 
			},
			{
				"x": 0.3698153602,
				"y": -1.6929094662,
				"z": 2.1397532591,
				"element": "C" 
			},
			{
				"x": 0.7770309496,
				"y": -2.6898981498,
				"z": 3.239989617,
				"element": "C" 
			},
			{
				"x": 2.2333536628,
				"y": -3.1496913232,
				"z": 3.0884889684,
				"element": "C" 
			},
			{
				"x": 3.1906538491,
				"y": -1.9509691084,
				"z": 3.0034286198,
				"element": "C" 
			},
			{
				"x": 2.7947615761,
				"y": -0.944316663,
				"z": 1.8987034332,
				"element": "C" 
			},
			{
				"x": 3.1161610798,
				"y": -1.5367509885,
				"z": 0.5042107343,
				"element": "C" 
			},
			{
				"x": 2.7412647776,
				"y": -0.5751776669,
				"z": -0.6003138584,
				"element": "C" 
			},
			{
				"x": 3.5598938301,
				"y": -0.1467649061,
				"z": -1.3947053587,
				"element": "O" 
			},
			{
				"x": -4.0797838191,
				"y": 1.8115908061,
				"z": -4.1221122856,
				"element": "H" 
			},
			{
				"x": -2.9717273105,
				"y": 0.6307632433,
				"z": -4.8180507063,
				"element": "H" 
			},
			{
				"x": -2.3701279909,
				"y": 2.2103100711,
				"z": -4.3039823535,
				"element": "H" 
			},
			{
				"x": -3.1133323989,
				"y": 1.6164370851,
				"z": -1.9227444869,
				"element": "H" 
			},
			{
				"x": -4.7629232599,
				"y": -0.1237920345,
				"z": -2.8965836516,
				"element": "H" 
			},
			{
				"x": -3.424217566,
				"y": -1.2412660487,
				"z": -2.9542195197,
				"element": "H" 
			},
			{
				"x": -3.1319253189,
				"y": -0.9545925855,
				"z": -0.4356188623,
				"element": "H" 
			},
			{
				"x": -4.4986264604,
				"y": 0.1444609057,
				"z": -0.4337986956,
				"element": "H" 
			},
			{
				"x": -4.881435066,
				"y": -1.6105953676,
				"z": 1.0923745763,
				"element": "H" 
			},
			{
				"x": -1.413152066,
				"y": -0.349624233,
				"z": -1.554856078,
				"element": "H" 
			},
			{
				"x": -0.7977208117,
				"y": -1.2327882609,
				"z": -3.6585510681,
				"element": "H" 
			},
			{
				"x": -0.7616925218,
				"y": 0.3355304658,
				"z": -4.4335486958,
				"element": "H" 
			},
			{
				"x": 1.4819298956,
				"y": 0.5656956962,
				"z": -3.9012721223,
				"element": "H" 
			},
			{
				"x": 1.4799467849,
				"y": -0.9430055062,
				"z": -3.0274063201,
				"element": "H" 
			},
			{
				"x": 1.7869173507,
				"y": 1.5400160699,
				"z": -1.7942789631,
				"element": "H" 
			},
			{
				"x": 0.6836063027,
				"y": -1.0674870622,
				"z": -0.7018464864,
				"element": "H" 
			},
			{
				"x": 1.5593515742,
				"y": 1.3598801203,
				"z": 0.9119419352,
				"element": "H" 
			},
			{
				"x": -0.8113930358,
				"y": 1.3505616115,
				"z": 1.7550254697,
				"element": "H" 
			},
			{
				"x": -1.1854960038,
				"y": 0.0540483984,
				"z": 0.6350279011,
				"element": "H" 
			},
			{
				"x": -0.1840197335,
				"y": 2.8601597303,
				"z": -0.0558324216,
				"element": "H" 
			},
			{
				"x": -1.8236175327,
				"y": 2.2936004889,
				"z": -0.278728184,
				"element": "H" 
			},
			{
				"x": 0.4343490251,
				"y": 3.4630773274,
				"z": -2.2442116096,
				"element": "H" 
			},
			{
				"x": -1.2890204114,
				"y": 3.3287518547,
				"z": -2.6004713474,
				"element": "H" 
			},
			{
				"x": -0.1005028567,
				"y": 2.5545449098,
				"z": -3.6584618968,
				"element": "H" 
			},
			{
				"x": 1.5274322124,
				"y": -0.1334233528,
				"z": 4.2002310643,
				"element": "H" 
			},
			{
				"x": 0.1591106898,
				"y": 0.7080675623,
				"z": 3.4951999757,
				"element": "H" 
			},
			{
				"x": 1.8007079935,
				"y": 1.3071361171,
				"z": 3.2226158855,
				"element": "H" 
			},
			{
				"x": 0.3411943549,
				"y": -2.2271694681,
				"z": 1.1808521127,
				"element": "H" 
			},
			{
				"x": -0.6550045235,
				"y": -1.3524622596,
				"z": 2.3266870893,
				"element": "H" 
			},
			{
				"x": 0.1027421447,
				"y": -3.5543141393,
				"z": 3.2133221402,
				"element": "H" 
			},
			{
				"x": 0.6409773574,
				"y": -2.2298615903,
				"z": 4.2269757374,
				"element": "H" 
			},
			{
				"x": 2.5183499202,
				"y": -3.7938350576,
				"z": 3.9286332251,
				"element": "H" 
			},
			{
				"x": 2.3270343314,
				"y": -3.7695783957,
				"z": 2.1869491255,
				"element": "H" 
			},
			{
				"x": 4.2151789096,
				"y": -2.2967242979,
				"z": 2.819202887,
				"element": "H" 
			},
			{
				"x": 3.2157242403,
				"y": -1.44200281,
				"z": 3.9741010358,
				"element": "H" 
			},
			{
				"x": 3.4330501289,
				"y": -0.0560428009,
				"z": 2.0123010636,
				"element": "H" 
			},
			{
				"x": 2.5616371468,
				"y": -2.4715381329,
				"z": 0.352084955,
				"element": "H" 
			},
			{
				"x": 4.1830588306,
				"y": -1.7631657265,
				"z": 0.4219872514,
				"element": "H" 
			}
		],
		 "valence_orbital": [ 
			{
				"type": "occ",
				"energy": -0.29269,
				"method": "rhf"
			},
			{
				"type": "occ",
				"energy": -0.28673,
				"method": "rhf"
			},
			{
				"type": "occ",
				"energy": -0.28559,
				"method": "rhf"
			},
			{
				"type": "occ",
				"energy": -0.27082,
				"method": "rhf"
			},
			{
				"type": "occ",
				"energy": -0.23549,
				"method": "rhf"
			},
			{
				"type": "unocc",
				"energy": -0.0125,
				"method": "rhf"
			},
			{
				"type": "unocc",
				"energy": 0.00978,
				"method": "rhf"
			},
			{
				"type": "unocc",
				"energy": 0.04597,
				"method": "rhf"
			},
			{
				"type": "unocc",
				"energy": 0.06415,
				"method": "rhf"
			},
			{
				"type": "unocc",
				"energy": 0.0679,
				"method": "rhf"
			}
		],
		"cosmo_sigma_profile": { 
			"-0.025": 0.0,
			"-0.024": 0.0,
			"-0.023": 0.0,
			"-0.022": 0.0,
			"-0.021": 0.0,
			"-0.02": 0.0,
			"-0.019": 0.242767090666,
			"-0.018": 1.1417588658,
			"-0.017": 1.0138303669,
			"-0.016": 0.77605954101,
			"-0.015": 1.02132902654,
			"-0.014": 0.847396240993,
			"-0.013": 0.909733381146,
			"-0.012": 1.32441264985,
			"-0.011": 1.80158388125,
			"-0.01": 1.13529065087,
			"-0.009": 0.470029705302,
			"-0.008": 1.66155413541,
			"-0.007": 2.63652726954,
			"-0.006": 6.01192246764,
			"-0.005": 9.47694860205,
			"-0.004": 15.4464902154,
			"-0.003": 32.8209592439,
			"-0.002": 74.5976780825,
			"-0.001": 75.5591170757,
			"0.0": 61.4385941461,
			"0.001": 49.3168970631,
			"0.002": 23.3345436159,
			"0.003": 5.79747868582,
			"0.004": 3.80729570928,
			"0.005": 4.36055928533,
			"0.006": 2.57842099463,
			"0.007": 5.36914023069,
			"0.008": 4.96176360388,
			"0.009": 3.62960033513,
			"0.01": 6.46882164522,
			"0.011": 8.56105134863,
			"0.012": 9.67003077765,
			"0.013": 6.24628684412,
			"0.014": 1.12357704609,
			"0.015": 0.0,
			"0.016": 0.0,
			"0.017": 0.0,
			"0.018": 0.0,
			"0.019": 0.0,
			"0.02": 0.0,
			"0.021": 0.0,
			"0.022": 0.0,
			"0.023": 0.0,
			"0.024": 0.0,
			"0.025": 0.0
		}
	}
}
