{
	 "smiles": "FC1=CC=C(NC(=O)C2=CC3=C(OCO3)C=C2)C=C1", 
	 "Tm": 460.15, 
	 "num_atms": 29, 
	 "gaussian": { 
		 "optdone": 1, 
		 "sigma_profile": "yes", 
		 "theory": "DFT", 
		 "functional": "B3LYP", 
		 "basiset": "6-31G**", 
		 "properties": { 
			 "R2extent": 8450.0389, 
			 "electric_dipole_moment_norm": 4.59804275861, 
			 "electric_quadrupole_moment_norm": 6.70850706417, 
			 "total_energy": -919.765759959, 
			 "HOMO_LUMO_gap": 0.17247, 
			 "cosmo_polarized_energy": -15.03, 
			 "cosmo_cavitation_energy": 34.5, 
			 "cosmo_dispersion_energy": -25.76, 
			 "cosmo_repulsion_energy": 1.91, 
			 "cosmo_total_nonelectrostatic_energy": 10.66, 
			 "SMD_solvation_energy": 7.41 
		},
		"coords": [
			{
				"x": 1.3139646593,
				"y": -6.8317858155,
				"z": -1.4823968577,
				"element": "F" 
			},
			{
				"x": 1.0701219821,
				"y": -5.592264071,
				"z": -1.0027532545,
				"element": "C" 
			},
			{
				"x": 0.7163437515,
				"y": -5.4406844644,
				"z": 0.3326628324,
				"element": "C" 
			},
			{
				"x": 0.4674604903,
				"y": -4.1602362964,
				"z": 0.8183266649,
				"element": "C" 
			},
			{
				"x": 0.5677326679,
				"y": -3.0377509919,
				"z": -0.0200004376,
				"element": "C" 
			},
			{
				"x": 0.3087918043,
				"y": -1.7758894204,
				"z": 0.5558118841,
				"element": "N" 
			},
			{
				"x": 0.2768599424,
				"y": -0.5393740731,
				"z": -0.0542677637,
				"element": "C" 
			},
			{
				"x": 0.4399384212,
				"y": -0.3727364763,
				"z": -1.2594591669,
				"element": "O" 
			},
			{
				"x": 0.0023542943,
				"y": 0.6165298045,
				"z": 0.8642313564,
				"element": "C" 
			},
			{
				"x": -0.5313230532,
				"y": 1.7774411129,
				"z": 0.2588494031,
				"element": "C" 
			},
			{
				"x": -0.7812206916,
				"y": 2.8544107065,
				"z": 1.0776743445,
				"element": "C" 
			},
			{
				"x": -0.5103770071,
				"y": 2.8243632858,
				"z": 2.4469601756,
				"element": "C" 
			},
			{
				"x": -0.86023735,
				"y": 4.0180897246,
				"z": 3.0162086844,
				"element": "O" 
			},
			{
				"x": -1.2892882521,
				"y": 4.8621655195,
				"z": 1.9363379293,
				"element": "C" 
			},
			{
				"x": -1.3161276421,
				"y": 4.0736152179,
				"z": 0.742543228,
				"element": "O" 
			},
			{
				"x": 0.0311387252,
				"y": 1.7102097739,
				"z": 3.0576933449,
				"element": "C" 
			},
			{
				"x": 0.2855559857,
				"y": 0.5983030915,
				"z": 2.2363627628,
				"element": "C" 
			},
			{
				"x": 0.9256696762,
				"y": -3.2156402253,
				"z": -1.3667056854,
				"element": "C" 
			},
			{
				"x": 1.176703912,
				"y": -4.4986003829,
				"z": -1.8522169946,
				"element": "C" 
			},
			{
				"x": 0.6401258756,
				"y": -6.3120293479,
				"z": 0.9737273715,
				"element": "H" 
			},
			{
				"x": 0.1922591457,
				"y": -4.0318148506,
				"z": 1.8626949219,
				"element": "H" 
			},
			{
				"x": 0.0165988297,
				"y": -1.8003778179,
				"z": 1.5211686459,
				"element": "H" 
			},
			{
				"x": -0.7221618087,
				"y": 1.7932143741,
				"z": -0.8069371153,
				"element": "H" 
			},
			{
				"x": -0.5774154036,
				"y": 5.6895298499,
				"z": 1.8169880517,
				"element": "H" 
			},
			{
				"x": -2.2946328305,
				"y": 5.2405154934,
				"z": 2.1494200885,
				"element": "H" 
			},
			{
				"x": 0.2598123961,
				"y": 1.7020263657,
				"z": 4.1170782998,
				"element": "H" 
			},
			{
				"x": 0.7580250911,
				"y": -0.269412616,
				"z": 2.6864714777,
				"element": "H" 
			},
			{
				"x": 0.995297493,
				"y": -2.3538905491,
				"z": -2.0144026687,
				"element": "H" 
			},
			{
				"x": 1.4533288951,
				"y": -4.6537269214,
				"z": -2.8895715231,
				"element": "H" 
			}
		],
		 "valence_orbital": [ 
			{
				"type": "occ",
				"energy": -0.26385,
				"method": "rhf"
			},
			{
				"type": "occ",
				"energy": -0.25993,
				"method": "rhf"
			},
			{
				"type": "occ",
				"energy": -0.25326,
				"method": "rhf"
			},
			{
				"type": "occ",
				"energy": -0.22475,
				"method": "rhf"
			},
			{
				"type": "occ",
				"energy": -0.21323,
				"method": "rhf"
			},
			{
				"type": "unocc",
				"energy": -0.04076,
				"method": "rhf"
			},
			{
				"type": "unocc",
				"energy": -0.01214,
				"method": "rhf"
			},
			{
				"type": "unocc",
				"energy": -0.01015,
				"method": "rhf"
			},
			{
				"type": "unocc",
				"energy": 0.012,
				"method": "rhf"
			},
			{
				"type": "unocc",
				"energy": 0.06557,
				"method": "rhf"
			}
		],
		"cosmo_sigma_profile": { 
			"-0.025": 0.0,
			"-0.024": 0.0,
			"-0.023": 0.0,
			"-0.022": 0.0,
			"-0.021": 0.0,
			"-0.02": 0.0,
			"-0.019": 0.0,
			"-0.018": 0.0,
			"-0.017": 0.0,
			"-0.016": 0.0573463110698,
			"-0.015": 0.856209665144,
			"-0.014": 1.07630611007,
			"-0.013": 1.57812996122,
			"-0.012": 0.877574078829,
			"-0.011": 1.88930725949,
			"-0.01": 1.57926409229,
			"-0.009": 1.3320401002,
			"-0.008": 8.19549780183,
			"-0.007": 16.0995807853,
			"-0.006": 16.4292735419,
			"-0.005": 13.5819924792,
			"-0.004": 12.23159675,
			"-0.003": 12.0182204214,
			"-0.002": 13.104112229,
			"-0.001": 13.9773807145,
			"0.0": 17.0834861281,
			"0.001": 24.6300369749,
			"0.002": 27.5504658812,
			"0.003": 28.3653013507,
			"0.004": 26.3813464361,
			"0.005": 11.9949761682,
			"0.006": 4.1276288796,
			"0.007": 5.40472483537,
			"0.008": 3.38914679695,
			"0.009": 4.94013276668,
			"0.01": 2.07541571943,
			"0.011": 2.08815382139,
			"0.012": 2.46172312105,
			"0.013": 2.40665005367,
			"0.014": 0.326469323133,
			"0.015": 0.0,
			"0.016": 0.0,
			"0.017": 0.0,
			"0.018": 0.0,
			"0.019": 0.0,
			"0.02": 0.0,
			"0.021": 0.0,
			"0.022": 0.0,
			"0.023": 0.0,
			"0.024": 0.0,
			"0.025": 0.0
		}
	}
}
