{
	 "smiles": "OCC1=C(Cl)C=CC(Cl)=C1", 
	 "Tm": 351.15, 
	 "num_atms": 16, 
	 "gaussian": { 
		 "optdone": 1, 
		 "sigma_profile": "yes", 
		 "theory": "DFT", 
		 "functional": "B3LYP", 
		 "basiset": "6-31G**", 
		 "properties": { 
			 "R2extent": 2938.1322, 
			 "electric_dipole_moment_norm": 1.56455687337, 
			 "electric_quadrupole_moment_norm": 6.66694965258, 
			 "total_energy": -1265.95891707, 
			 "HOMO_LUMO_gap": 0.2184, 
			 "cosmo_polarized_energy": -7.21, 
			 "cosmo_cavitation_energy": 23.39, 
			 "cosmo_dispersion_energy": -17.66, 
			 "cosmo_repulsion_energy": 1.43, 
			 "cosmo_total_nonelectrostatic_energy": 7.16, 
			 "SMD_solvation_energy": 3.38 
		},
		"coords": [
			{
				"x": -2.7075250375,
				"y": -0.9104545532,
				"z": -0.5426964336,
				"element": "O" 
			},
			{
				"x": -1.6718320749,
				"y": -0.6439475811,
				"z": -1.4752231568,
				"element": "C" 
			},
			{
				"x": -0.2873039369,
				"y": -0.9992252317,
				"z": -0.9607097947,
				"element": "C" 
			},
			{
				"x": 0.3538928513,
				"y": -0.2607796967,
				"z": 0.0433710874,
				"element": "C" 
			},
			{
				"x": -0.4540258789,
				"y": 1.1417089974,
				"z": 0.7533420918,
				"element": "Cl" 
			},
			{
				"x": 1.6215545953,
				"y": -0.5932189975,
				"z": 0.5142345482,
				"element": "C" 
			},
			{
				"x": 2.2894263066,
				"y": -1.6937878738,
				"z": -0.0212341017,
				"element": "C" 
			},
			{
				"x": 1.6667965857,
				"y": -2.4404085546,
				"z": -1.0193003044,
				"element": "C" 
			},
			{
				"x": 2.4933187413,
				"y": -3.8296493373,
				"z": -1.7034276774,
				"element": "Cl" 
			},
			{
				"x": 0.3967444284,
				"y": -2.1028427575,
				"z": -1.4833517894,
				"element": "C" 
			},
			{
				"x": -2.6259131915,
				"y": -0.2682127535,
				"z": 0.1752320059,
				"element": "H" 
			},
			{
				"x": -1.680602219,
				"y": 0.4079242708,
				"z": -1.796334603,
				"element": "H" 
			},
			{
				"x": -1.8916270568,
				"y": -1.2563645535,
				"z": -2.3538081196,
				"element": "H" 
			},
			{
				"x": 2.0844526709,
				"y": 0.0034836722,
				"z": 1.2922729382,
				"element": "H" 
			},
			{
				"x": 3.2770755454,
				"y": -1.9652346714,
				"z": 0.3336243267,
				"element": "H" 
			},
			{
				"x": -0.0700323294,
				"y": -2.7020903786,
				"z": -2.2580910176,
				"element": "H" 
			}
		],
		 "valence_orbital": [ 
			{
				"type": "occ",
				"energy": -0.32528,
				"method": "rhf"
			},
			{
				"type": "occ",
				"energy": -0.32225,
				"method": "rhf"
			},
			{
				"type": "occ",
				"energy": -0.28037,
				"method": "rhf"
			},
			{
				"type": "occ",
				"energy": -0.27378,
				"method": "rhf"
			},
			{
				"type": "occ",
				"energy": -0.25144,
				"method": "rhf"
			},
			{
				"type": "unocc",
				"energy": -0.03304,
				"method": "rhf"
			},
			{
				"type": "unocc",
				"energy": -0.02963,
				"method": "rhf"
			},
			{
				"type": "unocc",
				"energy": 0.00868,
				"method": "rhf"
			},
			{
				"type": "unocc",
				"energy": 0.02832,
				"method": "rhf"
			},
			{
				"type": "unocc",
				"energy": 0.08914,
				"method": "rhf"
			}
		],
		"cosmo_sigma_profile": { 
			"-0.025": 0.0,
			"-0.024": 0.0,
			"-0.023": 0.0,
			"-0.022": 0.0,
			"-0.021": 0.0,
			"-0.02": 0.0,
			"-0.019": 0.0,
			"-0.018": 0.0,
			"-0.017": 0.0,
			"-0.016": 0.0,
			"-0.015": 0.0,
			"-0.014": 0.0,
			"-0.013": 0.0665696896948,
			"-0.012": 0.62306913479,
			"-0.011": 0.909075552153,
			"-0.01": 0.495385864488,
			"-0.009": 0.660550609551,
			"-0.008": 5.50557772746,
			"-0.007": 8.98158680349,
			"-0.006": 8.00159951739,
			"-0.005": 9.45226355742,
			"-0.004": 10.0135754456,
			"-0.003": 11.8094434446,
			"-0.002": 11.6095405928,
			"-0.001": 13.0188038008,
			"0.0": 14.6283307497,
			"0.001": 23.0128097685,
			"0.002": 23.0242066687,
			"0.003": 14.5970292947,
			"0.004": 16.6362679343,
			"0.005": 5.11047613332,
			"0.006": 1.93463912021,
			"0.007": 0.773599968398,
			"0.008": 0.654855682575,
			"0.009": 1.78610997572,
			"0.01": 1.11549017166,
			"0.011": 1.16203276109,
			"0.012": 2.10385321866,
			"0.013": 1.61186617361,
			"0.014": 1.86618426291,
			"0.015": 0.00421371561676,
			"0.016": 0.0,
			"0.017": 0.0,
			"0.018": 0.0,
			"0.019": 0.0,
			"0.02": 0.0,
			"0.021": 0.0,
			"0.022": 0.0,
			"0.023": 0.0,
			"0.024": 0.0,
			"0.025": 0.0
		}
	}
}
