{
	 "smiles": "CCN1N=C(C(C(O)=O)=C1C(F)(F)F)C(F)(F)F", 
	 "Tm": 363.15, 
	 "num_atms": 24, 
	 "gaussian": { 
		 "optdone": 1, 
		 "sigma_profile": "yes", 
		 "theory": "DFT", 
		 "functional": "B3LYP", 
		 "basiset": "6-31G**", 
		 "properties": { 
			 "R2extent": 4490.8268, 
			 "electric_dipole_moment_norm": 4.42505453752, 
			 "electric_quadrupole_moment_norm": 17.2453303816, 
			 "total_energy": -1167.45878244, 
			 "HOMO_LUMO_gap": 0.22807, 
			 "cosmo_polarized_energy": -12.48, 
			 "cosmo_cavitation_energy": 31.29, 
			 "cosmo_dispersion_energy": -21.47, 
			 "cosmo_repulsion_energy": 1.57, 
			 "cosmo_total_nonelectrostatic_energy": 11.39, 
			 "SMD_solvation_energy": 7.77 
		},
		"coords": [
			{
				"x": 1.8728180584,
				"y": 0.8269560475,
				"z": -2.834315332,
				"element": "C" 
			},
			{
				"x": 1.3347719818,
				"y": -0.4352105251,
				"z": -2.1624768228,
				"element": "C" 
			},
			{
				"x": 0.2732809238,
				"y": -0.1418708265,
				"z": -1.1822167472,
				"element": "N" 
			},
			{
				"x": -0.9892036394,
				"y": -0.1403926734,
				"z": -1.6467091642,
				"element": "N" 
			},
			{
				"x": -1.7551594546,
				"y": 0.1883589422,
				"z": -0.6154182627,
				"element": "C" 
			},
			{
				"x": -0.9876105214,
				"y": 0.4006331271,
				"z": 0.5563132991,
				"element": "C" 
			},
			{
				"x": -1.5244972649,
				"y": 0.750832362,
				"z": 1.8868642349,
				"element": "C" 
			},
			{
				"x": -0.6502055732,
				"y": 0.4979750774,
				"z": 2.8866633784,
				"element": "O" 
			},
			{
				"x": -2.6344990664,
				"y": 1.198471793,
				"z": 2.0770797595,
				"element": "O" 
			},
			{
				"x": 0.3279827231,
				"y": 0.1865945129,
				"z": 0.1394220502,
				"element": "C" 
			},
			{
				"x": 1.6006028607,
				"y": 0.2889130468,
				"z": 0.9404354556,
				"element": "C" 
			},
			{
				"x": 2.6958742889,
				"y": 0.2924248056,
				"z": 0.1393006471,
				"element": "F" 
			},
			{
				"x": 1.633816069,
				"y": 1.4271069275,
				"z": 1.6500133009,
				"element": "F" 
			},
			{
				"x": 1.7379387203,
				"y": -0.742934161,
				"z": 1.7887135438,
				"element": "F" 
			},
			{
				"x": -3.2485871634,
				"y": 0.2674155323,
				"z": -0.8031283227,
				"element": "C" 
			},
			{
				"x": -3.8909884333,
				"y": -0.5116327108,
				"z": 0.0881958141,
				"element": "F" 
			},
			{
				"x": -3.5941138527,
				"y": -0.1477519778,
				"z": -2.0350513268,
				"element": "F" 
			},
			{
				"x": -3.6969758997,
				"y": 1.5265301269,
				"z": -0.6551182218,
				"element": "F" 
			},
			{
				"x": 1.0634376816,
				"y": 1.3765807573,
				"z": -3.3219772965,
				"element": "H" 
			},
			{
				"x": 2.3616422515,
				"y": 1.4813233984,
				"z": -2.1089038849,
				"element": "H" 
			},
			{
				"x": 2.6085276873,
				"y": 0.5492102329,
				"z": -3.5950645206,
				"element": "H" 
			},
			{
				"x": 0.8582036816,
				"y": -1.0915202529,
				"z": -2.8919836406,
				"element": "H" 
			},
			{
				"x": 2.1245018851,
				"y": -0.9902414422,
				"z": -1.6583573652,
				"element": "H" 
			},
			{
				"x": -1.089757944,
				"y": 0.77762788,
				"z": 3.7070194243,
				"element": "H" 
			}
		],
		 "valence_orbital": [ 
			{
				"type": "occ",
				"energy": -0.33094,
				"method": "rhf"
			},
			{
				"type": "occ",
				"energy": -0.32773,
				"method": "rhf"
			},
			{
				"type": "occ",
				"energy": -0.29598,
				"method": "rhf"
			},
			{
				"type": "occ",
				"energy": -0.29394,
				"method": "rhf"
			},
			{
				"type": "occ",
				"energy": -0.28391,
				"method": "rhf"
			},
			{
				"type": "unocc",
				"energy": -0.05584,
				"method": "rhf"
			},
			{
				"type": "unocc",
				"energy": -0.02197,
				"method": "rhf"
			},
			{
				"type": "unocc",
				"energy": 0.06492,
				"method": "rhf"
			},
			{
				"type": "unocc",
				"energy": 0.07355,
				"method": "rhf"
			},
			{
				"type": "unocc",
				"energy": 0.07945,
				"method": "rhf"
			}
		],
		"cosmo_sigma_profile": { 
			"-0.025": 0.0,
			"-0.024": 0.0,
			"-0.023": 0.0,
			"-0.022": 0.0,
			"-0.021": 0.0,
			"-0.02": 0.0,
			"-0.019": 0.662469100894,
			"-0.018": 0.74541325887,
			"-0.017": 0.916769126172,
			"-0.016": 1.20330833331,
			"-0.015": 0.774643487152,
			"-0.014": 0.162740205599,
			"-0.013": 0.386831127931,
			"-0.012": 1.27955489676,
			"-0.011": 1.04288806505,
			"-0.01": 0.826464804167,
			"-0.009": 1.06132484864,
			"-0.008": 2.28670934006,
			"-0.007": 4.84254951329,
			"-0.006": 6.54661710374,
			"-0.005": 11.4605292394,
			"-0.004": 16.5051217453,
			"-0.003": 18.6390363941,
			"-0.002": 20.5200985208,
			"-0.001": 19.2884082776,
			"0.0": 16.5066791168,
			"0.001": 19.5924955486,
			"0.002": 41.7233800064,
			"0.003": 22.5307034907,
			"0.004": 8.5564834176,
			"0.005": 6.00533075177,
			"0.006": 5.53550318465,
			"0.007": 3.70157433823,
			"0.008": 3.85264660081,
			"0.009": 3.78985636096,
			"0.01": 4.23765914036,
			"0.011": 4.537439903,
			"0.012": 0.546771862304,
			"0.013": 0.0,
			"0.014": 0.0,
			"0.015": 0.0,
			"0.016": 0.0,
			"0.017": 0.0,
			"0.018": 0.0,
			"0.019": 0.0,
			"0.02": 0.0,
			"0.021": 0.0,
			"0.022": 0.0,
			"0.023": 0.0,
			"0.024": 0.0,
			"0.025": 0.0
		}
	}
}
