{
	 "smiles": "CSC(NC1=CC=CC=C1)=NC#N", 
	 "Tm": 459.15, 
	 "num_atms": 22, 
	 "gaussian": { 
		 "optdone": 1, 
		 "sigma_profile": "yes", 
		 "theory": "DFT", 
		 "functional": "B3LYP", 
		 "basiset": "6-31G**", 
		 "properties": { 
			 "R2extent": 4098.6609, 
			 "electric_dipole_moment_norm": 5.80337037074, 
			 "electric_quadrupole_moment_norm": 23.8588908634, 
			 "total_energy": -910.799452558, 
			 "HOMO_LUMO_gap": 0.1764, 
			 "cosmo_polarized_energy": -15.66, 
			 "cosmo_cavitation_energy": 28.63, 
			 "cosmo_dispersion_energy": -20.97, 
			 "cosmo_repulsion_energy": 1.61, 
			 "cosmo_total_nonelectrostatic_energy": 9.27, 
			 "SMD_solvation_energy": 6.59 
		},
		"coords": [
			{
				"x": 2.2538814755,
				"y": -4.2764031448,
				"z": 1.9136423989,
				"element": "C" 
			},
			{
				"x": 2.5732937171,
				"y": -2.8109478803,
				"z": 0.8592769073,
				"element": "S" 
			},
			{
				"x": 0.9576831292,
				"y": -2.0181541048,
				"z": 0.753696081,
				"element": "C" 
			},
			{
				"x": 1.0759899777,
				"y": -0.6669325453,
				"z": 0.8509634713,
				"element": "N" 
			},
			{
				"x": 0.1482627013,
				"y": 0.3727659358,
				"z": 0.5956725321,
				"element": "C" 
			},
			{
				"x": 0.6475555372,
				"y": 1.6822177803,
				"z": 0.6947726758,
				"element": "C" 
			},
			{
				"x": -0.184679196,
				"y": 2.7715905397,
				"z": 0.4599271267,
				"element": "C" 
			},
			{
				"x": -1.5247682177,
				"y": 2.5713753589,
				"z": 0.1209358863,
				"element": "C" 
			},
			{
				"x": -2.0170275771,
				"y": 1.2699970817,
				"z": 0.0252094203,
				"element": "C" 
			},
			{
				"x": -1.1976386086,
				"y": 0.165326923,
				"z": 0.2628337935,
				"element": "C" 
			},
			{
				"x": -0.195526092,
				"y": -2.5858984212,
				"z": 0.5680656444,
				"element": "N" 
			},
			{
				"x": -0.341178814,
				"y": -3.8729903044,
				"z": 0.2891818339,
				"element": "C" 
			},
			{
				"x": -0.5805906666,
				"y": -4.9910622189,
				"z": 0.0365689151,
				"element": "N" 
			},
			{
				"x": 1.6394646944,
				"y": -5.0121901478,
				"z": 1.3973290897,
				"element": "H" 
			},
			{
				"x": 3.2442870906,
				"y": -4.6908247568,
				"z": 2.1136977763,
				"element": "H" 
			},
			{
				"x": 1.7923852416,
				"y": -3.9771630675,
				"z": 2.8554542905,
				"element": "H" 
			},
			{
				"x": 1.9921731458,
				"y": -0.3519963188,
				"z": 1.1392205903,
				"element": "H" 
			},
			{
				"x": 1.6922799319,
				"y": 1.8436127936,
				"z": 0.9516718951,
				"element": "H" 
			},
			{
				"x": 0.2171734105,
				"y": 3.7771755688,
				"z": 0.5400281966,
				"element": "H" 
			},
			{
				"x": -2.17594057,
				"y": 3.4200441114,
				"z": -0.0635138403,
				"element": "H" 
			},
			{
				"x": -3.0581857062,
				"y": 1.101499742,
				"z": -0.2337528307,
				"element": "H" 
			},
			{
				"x": -1.5882946047,
				"y": -0.8396429247,
				"z": 0.199818146,
				"element": "H" 
			}
		],
		 "valence_orbital": [ 
			{
				"type": "occ",
				"energy": -0.29218,
				"method": "rhf"
			},
			{
				"type": "occ",
				"energy": -0.26676,
				"method": "rhf"
			},
			{
				"type": "occ",
				"energy": -0.26469,
				"method": "rhf"
			},
			{
				"type": "occ",
				"energy": -0.25872,
				"method": "rhf"
			},
			{
				"type": "occ",
				"energy": -0.23241,
				"method": "rhf"
			},
			{
				"type": "unocc",
				"energy": -0.05601,
				"method": "rhf"
			},
			{
				"type": "unocc",
				"energy": -0.01518,
				"method": "rhf"
			},
			{
				"type": "unocc",
				"energy": 0.00148,
				"method": "rhf"
			},
			{
				"type": "unocc",
				"energy": 0.017,
				"method": "rhf"
			},
			{
				"type": "unocc",
				"energy": 0.04349,
				"method": "rhf"
			}
		],
		"cosmo_sigma_profile": { 
			"-0.025": 0.0,
			"-0.024": 0.0,
			"-0.023": 0.0,
			"-0.022": 0.0,
			"-0.021": 0.0,
			"-0.02": 0.0,
			"-0.019": 0.0,
			"-0.018": 0.0,
			"-0.017": 0.0,
			"-0.016": 0.840173565673,
			"-0.015": 1.00714874849,
			"-0.014": 1.20234620213,
			"-0.013": 1.14341045357,
			"-0.012": 1.1981064007,
			"-0.011": 1.37380166217,
			"-0.01": 1.17947118121,
			"-0.009": 1.4177636726,
			"-0.008": 3.43650529884,
			"-0.007": 7.39475557301,
			"-0.006": 12.6416326653,
			"-0.005": 13.8406178422,
			"-0.004": 16.8555320869,
			"-0.003": 18.368944403,
			"-0.002": 15.5211136424,
			"-0.001": 13.5836018293,
			"0.0": 14.0036611366,
			"0.001": 14.704602253,
			"0.002": 19.7585118329,
			"0.003": 17.8292957273,
			"0.004": 15.5900885558,
			"0.005": 13.8478693594,
			"0.006": 3.92211716548,
			"0.007": 2.21058545092,
			"0.008": 2.32531853781,
			"0.009": 2.48190918687,
			"0.01": 2.59560376783,
			"0.011": 2.9502691799,
			"0.012": 2.74650949639,
			"0.013": 3.03231605231,
			"0.014": 2.72533912164,
			"0.015": 0.930822457183,
			"0.016": 0.0,
			"0.017": 0.0,
			"0.018": 0.0,
			"0.019": 0.0,
			"0.02": 0.0,
			"0.021": 0.0,
			"0.022": 0.0,
			"0.023": 0.0,
			"0.024": 0.0,
			"0.025": 0.0
		}
	}
}
