{
	 "smiles": "NC(=O)NC(=O)C=C/C(O)=O", 
	 "Tm": 430.65, 
	 "num_atms": 17, 
	 "gaussian": { 
		 "optdone": 1, 
		 "sigma_profile": "yes", 
		 "theory": "DFT", 
		 "functional": "B3LYP", 
		 "basiset": "6-31G**", 
		 "properties": { 
			 "R2extent": 1861.6123, 
			 "electric_dipole_moment_norm": 4.23904271033, 
			 "electric_quadrupole_moment_norm": 11.1224127958, 
			 "total_energy": -604.565508329, 
			 "HOMO_LUMO_gap": 0.18619, 
			 "cosmo_polarized_energy": -19.61, 
			 "cosmo_cavitation_energy": 22.68, 
			 "cosmo_dispersion_energy": -16.4, 
			 "cosmo_repulsion_energy": 1.37, 
			 "cosmo_total_nonelectrostatic_energy": 7.65, 
			 "SMD_solvation_energy": 6.87 
		},
		"coords": [
			{
				"x": 2.1030724456,
				"y": -0.1820424727,
				"z": 0.1239614023,
				"element": "N" 
			},
			{
				"x": 2.1348400023,
				"y": 1.1424649451,
				"z": 0.4554859782,
				"element": "C" 
			},
			{
				"x": 3.1272984701,
				"y": 1.7675539997,
				"z": 0.7830126639,
				"element": "O" 
			},
			{
				"x": 0.8740521731,
				"y": 1.7935475725,
				"z": 0.4012006681,
				"element": "N" 
			},
			{
				"x": -0.2838439223,
				"y": 1.5445941957,
				"z": -0.3056590091,
				"element": "C" 
			},
			{
				"x": -1.3103487699,
				"y": 2.161917198,
				"z": -0.0730278104,
				"element": "O" 
			},
			{
				"x": -0.2583752859,
				"y": 0.6684228628,
				"z": -1.5360309136,
				"element": "C" 
			},
			{
				"x": -0.7510077135,
				"y": -0.568524368,
				"z": -1.6699509687,
				"element": "C" 
			},
			{
				"x": -1.1169803587,
				"y": -1.3988771313,
				"z": -0.5065110274,
				"element": "C" 
			},
			{
				"x": -2.002185163,
				"y": -2.3630635706,
				"z": -0.815950754,
				"element": "O" 
			},
			{
				"x": -0.6556562953,
				"y": -1.2679702125,
				"z": 0.6188149755,
				"element": "O" 
			},
			{
				"x": 1.2566151659,
				"y": -0.7025544667,
				"z": 0.3410503598,
				"element": "H" 
			},
			{
				"x": 2.9831827405,
				"y": -0.6546633701,
				"z": 0.2716925702,
				"element": "H" 
			},
			{
				"x": 0.8293966543,
				"y": 2.6272459706,
				"z": 0.9759627628,
				"element": "H" 
			},
			{
				"x": 0.0300125924,
				"y": 1.2146363774,
				"z": -2.4326058277,
				"element": "H" 
			},
			{
				"x": -0.8891638854,
				"y": -1.0083481384,
				"z": -2.6523160931,
				"element": "H" 
			},
			{
				"x": -2.1709088503,
				"y": -2.8618393913,
				"z": 0.001571023,
				"element": "H" 
			}
		],
		 "valence_orbital": [ 
			{
				"type": "occ",
				"energy": -0.31024,
				"method": "rhf"
			},
			{
				"type": "occ",
				"energy": -0.28733,
				"method": "rhf"
			},
			{
				"type": "occ",
				"energy": -0.28392,
				"method": "rhf"
			},
			{
				"type": "occ",
				"energy": -0.27663,
				"method": "rhf"
			},
			{
				"type": "occ",
				"energy": -0.25918,
				"method": "rhf"
			},
			{
				"type": "unocc",
				"energy": -0.07299,
				"method": "rhf"
			},
			{
				"type": "unocc",
				"energy": -0.02097,
				"method": "rhf"
			},
			{
				"type": "unocc",
				"energy": 0.04316,
				"method": "rhf"
			},
			{
				"type": "unocc",
				"energy": 0.05207,
				"method": "rhf"
			},
			{
				"type": "unocc",
				"energy": 0.06371,
				"method": "rhf"
			}
		],
		"cosmo_sigma_profile": { 
			"-0.025": 0.0,
			"-0.024": 0.0,
			"-0.023": 0.0,
			"-0.022": 0.0,
			"-0.021": 0.0,
			"-0.02": 0.0490912322341,
			"-0.019": 0.702951889079,
			"-0.018": 1.10287492368,
			"-0.017": 0.791394166162,
			"-0.016": 1.08620559192,
			"-0.015": 1.68772463453,
			"-0.014": 2.21332755872,
			"-0.013": 2.42293894361,
			"-0.012": 2.41647516436,
			"-0.011": 2.81284916437,
			"-0.01": 5.64701614468,
			"-0.009": 4.97067169107,
			"-0.008": 7.32289874243,
			"-0.007": 7.12016763198,
			"-0.006": 6.62487297186,
			"-0.005": 7.12921979293,
			"-0.004": 9.4854285481,
			"-0.003": 9.26610098426,
			"-0.002": 8.84897096927,
			"-0.001": 6.81162678018,
			"0.0": 8.60386931638,
			"0.001": 7.85741718114,
			"0.002": 5.77658639828,
			"0.003": 5.5962734463,
			"0.004": 9.02158955619,
			"0.005": 4.87613390863,
			"0.006": 5.74070864433,
			"0.007": 5.53008171827,
			"0.008": 6.39634872024,
			"0.009": 4.34166650032,
			"0.01": 5.70498071017,
			"0.011": 7.4997045018,
			"0.012": 8.20354552497,
			"0.013": 5.99476708548,
			"0.014": 0.727779610086,
			"0.015": 0.0,
			"0.016": 0.0,
			"0.017": 0.0,
			"0.018": 0.0,
			"0.019": 0.0,
			"0.02": 0.0,
			"0.021": 0.0,
			"0.022": 0.0,
			"0.023": 0.0,
			"0.024": 0.0,
			"0.025": 0.0
		}
	}
}
