{
	 "smiles": "COCCOC1=C(NC(=O)C(C)Cl)C=C(C=C1)C(F)(F)F", 
	 "Tm": 333.15, 
	 "num_atms": 36, 
	 "gaussian": { 
		 "optdone": 1, 
		 "sigma_profile": "yes", 
		 "theory": "DFT", 
		 "functional": "B3LYP", 
		 "basiset": "6-31G**", 
		 "properties": { 
			 "R2extent": 8799.0867, 
			 "electric_dipole_moment_norm": 4.09168368034, 
			 "electric_quadrupole_moment_norm": 18.4464188844, 
			 "total_energy": -1544.56997503, 
			 "HOMO_LUMO_gap": 0.19629, 
			 "cosmo_polarized_energy": -12.92, 
			 "cosmo_cavitation_energy": 43.1, 
			 "cosmo_dispersion_energy": -28.63, 
			 "cosmo_repulsion_energy": 2.13, 
			 "cosmo_total_nonelectrostatic_energy": 16.6, 
			 "SMD_solvation_energy": 9.12 
		},
		"coords": [
			{
				"x": -2.7944100933,
				"y": -2.53404414,
				"z": 2.0687591676,
				"element": "C" 
			},
			{
				"x": -3.5109856419,
				"y": -3.260401282,
				"z": 1.0824326857,
				"element": "O" 
			},
			{
				"x": -3.8996357835,
				"y": -2.5156024661,
				"z": -0.0504278779,
				"element": "C" 
			},
			{
				"x": -2.8003432423,
				"y": -2.3259293783,
				"z": -1.0889429339,
				"element": "C" 
			},
			{
				"x": -1.9239183123,
				"y": -1.276539519,
				"z": -0.663474322,
				"element": "O" 
			},
			{
				"x": -0.8496651982,
				"y": -0.9515437312,
				"z": -1.4437175151,
				"element": "C" 
			},
			{
				"x": -0.0878683972,
				"y": 0.1514619529,
				"z": -0.9820158008,
				"element": "C" 
			},
			{
				"x": -0.5449555813,
				"y": 0.7731624498,
				"z": 0.1953296765,
				"element": "N" 
			},
			{
				"x": 0.0099921374,
				"y": 1.8325207604,
				"z": 0.8451846702,
				"element": "C" 
			},
			{
				"x": 1.0318910627,
				"y": 2.4203429144,
				"z": 0.5120369167,
				"element": "O" 
			},
			{
				"x": -0.6825472846,
				"y": 2.3313079445,
				"z": 2.1275151532,
				"element": "C" 
			},
			{
				"x": 0.2256906523,
				"y": 2.1546316878,
				"z": 3.3411427384,
				"element": "C" 
			},
			{
				"x": -2.32230982,
				"y": 1.5698533454,
				"z": 2.4570618308,
				"element": "Cl" 
			},
			{
				"x": 1.0343997494,
				"y": 0.5580226195,
				"z": -1.7020420132,
				"element": "C" 
			},
			{
				"x": 1.3929031464,
				"y": -0.1211508133,
				"z": -2.872622081,
				"element": "C" 
			},
			{
				"x": 0.6400322692,
				"y": -1.1983618383,
				"z": -3.3291510086,
				"element": "C" 
			},
			{
				"x": -0.4853300568,
				"y": -1.6141041621,
				"z": -2.613817942,
				"element": "C" 
			},
			{
				"x": 2.6396344752,
				"y": 0.2968999473,
				"z": -3.6011268829,
				"element": "C" 
			},
			{
				"x": 2.626255793,
				"y": -0.1013584772,
				"z": -4.8940668592,
				"element": "F" 
			},
			{
				"x": 2.8041741576,
				"y": 1.6379655939,
				"z": -3.5910262317,
				"element": "F" 
			},
			{
				"x": 3.7518444292,
				"y": -0.2348068537,
				"z": -3.0397291817,
				"element": "F" 
			},
			{
				"x": -2.706849774,
				"y": -3.1902211713,
				"z": 2.9381146555,
				"element": "H" 
			},
			{
				"x": -3.3317468249,
				"y": -1.6211747583,
				"z": 2.3659033913,
				"element": "H" 
			},
			{
				"x": -1.7896928885,
				"y": -2.2500018523,
				"z": 1.7324241892,
				"element": "H" 
			},
			{
				"x": -4.7040620039,
				"y": -3.0882626085,
				"z": -0.5261061588,
				"element": "H" 
			},
			{
				"x": -4.305778797,
				"y": -1.5311986554,
				"z": 0.2323775275,
				"element": "H" 
			},
			{
				"x": -2.2415414938,
				"y": -3.2632812684,
				"z": -1.200976148,
				"element": "H" 
			},
			{
				"x": -3.2433885249,
				"y": -2.0583282419,
				"z": -2.0585653889,
				"element": "H" 
			},
			{
				"x": -1.4054587662,
				"y": 0.3945896621,
				"z": 0.571693,
				"element": "H" 
			},
			{
				"x": -0.901829047,
				"y": 3.3877047717,
				"z": 1.9642821884,
				"element": "H" 
			},
			{
				"x": 0.3988534479,
				"y": 1.0952428239,
				"z": 3.548960296,
				"element": "H" 
			},
			{
				"x": 1.1839385927,
				"y": 2.6330635647,
				"z": 3.1235368611,
				"element": "H" 
			},
			{
				"x": -0.217320871,
				"y": 2.6193007666,
				"z": 4.2243273779,
				"element": "H" 
			},
			{
				"x": 1.6084228386,
				"y": 1.4026309326,
				"z": -1.3487547798,
				"element": "H" 
			},
			{
				"x": 0.9207515273,
				"y": -1.7119133372,
				"z": -4.2412825042,
				"element": "H" 
			},
			{
				"x": -1.0687458762,
				"y": -2.4515771828,
				"z": -2.9752366961,
				"element": "H" 
			}
		],
		 "valence_orbital": [ 
			{
				"type": "occ",
				"energy": -0.31146,
				"method": "rhf"
			},
			{
				"type": "occ",
				"energy": -0.26845,
				"method": "rhf"
			},
			{
				"type": "occ",
				"energy": -0.26637,
				"method": "rhf"
			},
			{
				"type": "occ",
				"energy": -0.25697,
				"method": "rhf"
			},
			{
				"type": "occ",
				"energy": -0.22848,
				"method": "rhf"
			},
			{
				"type": "unocc",
				"energy": -0.03219,
				"method": "rhf"
			},
			{
				"type": "unocc",
				"energy": -0.01757,
				"method": "rhf"
			},
			{
				"type": "unocc",
				"energy": 0.00201,
				"method": "rhf"
			},
			{
				"type": "unocc",
				"energy": 0.02651,
				"method": "rhf"
			},
			{
				"type": "unocc",
				"energy": 0.07054,
				"method": "rhf"
			}
		],
		"cosmo_sigma_profile": { 
			"-0.025": 0.0,
			"-0.024": 0.0,
			"-0.023": 0.0,
			"-0.022": 0.0,
			"-0.021": 0.0,
			"-0.02": 0.0,
			"-0.019": 0.0,
			"-0.018": 0.0,
			"-0.017": 0.0,
			"-0.016": 0.0,
			"-0.015": 0.0,
			"-0.014": 0.0,
			"-0.013": 0.0,
			"-0.012": 0.0,
			"-0.011": 0.0,
			"-0.01": 0.0,
			"-0.009": 1.04495446801,
			"-0.008": 3.25863059008,
			"-0.007": 7.6462111036,
			"-0.006": 17.1091018409,
			"-0.005": 22.4950190933,
			"-0.004": 24.1062821177,
			"-0.003": 26.7379230107,
			"-0.002": 29.1606071486,
			"-0.001": 30.5409318862,
			"0.0": 29.2421354329,
			"0.001": 26.1947565124,
			"0.002": 32.2719248505,
			"0.003": 45.9998908539,
			"0.004": 14.0162365248,
			"0.005": 9.46626228665,
			"0.006": 4.23454490975,
			"0.007": 2.4847196637,
			"0.008": 3.04924616881,
			"0.009": 2.05551036841,
			"0.01": 3.16346547681,
			"0.011": 3.46237116946,
			"0.012": 3.81909985605,
			"0.013": 2.26339091554,
			"0.014": 0.226972842292,
			"0.015": 0.0,
			"0.016": 0.0,
			"0.017": 0.0,
			"0.018": 0.0,
			"0.019": 0.0,
			"0.02": 0.0,
			"0.021": 0.0,
			"0.022": 0.0,
			"0.023": 0.0,
			"0.024": 0.0,
			"0.025": 0.0
		}
	}
}
