{
	 "smiles": "CCCC(=O)N(C)C", 
	 "Tm": 233.15, 
	 "num_atms": 21, 
	 "gaussian": { 
		 "optdone": 1, 
		 "sigma_profile": "yes", 
		 "theory": "DFT", 
		 "functional": "B3LYP", 
		 "basiset": "6-31G**", 
		 "properties": { 
			 "R2extent": 1401.7402, 
			 "electric_dipole_moment_norm": 3.52103247642, 
			 "electric_quadrupole_moment_norm": 6.78295920672, 
			 "total_energy": -366.466511866, 
			 "HOMO_LUMO_gap": 0.26371, 
			 "cosmo_polarized_energy": -9.22, 
			 "cosmo_cavitation_energy": 22.72, 
			 "cosmo_dispersion_energy": -16.4, 
			 "cosmo_repulsion_energy": 1.38, 
			 "cosmo_total_nonelectrostatic_energy": 7.69, 
			 "SMD_solvation_energy": 4.5 
		},
		"coords": [
			{
				"x": 1.6690980335,
				"y": 0.6764497723,
				"z": -1.4769649946,
				"element": "C" 
			},
			{
				"x": 0.3544215108,
				"y": -0.0685183388,
				"z": -1.7318776703,
				"element": "C" 
			},
			{
				"x": -0.2862041419,
				"y": -0.6466368937,
				"z": -0.4499333025,
				"element": "C" 
			},
			{
				"x": -0.6568549951,
				"y": 0.4285061732,
				"z": 0.5705754289,
				"element": "C" 
			},
			{
				"x": 0.1324664668,
				"y": 0.7207795339,
				"z": 1.4668337164,
				"element": "O" 
			},
			{
				"x": -1.8673839322,
				"y": 1.0758424591,
				"z": 0.4387044412,
				"element": "N" 
			},
			{
				"x": -2.2178098435,
				"y": 2.1096005269,
				"z": 1.4024149826,
				"element": "C" 
			},
			{
				"x": -2.8659232117,
				"y": 0.827641404,
				"z": -0.5858682875,
				"element": "C" 
			},
			{
				"x": 2.0790712119,
				"y": 1.0728481287,
				"z": -2.4116597058,
				"element": "H" 
			},
			{
				"x": 2.4175541435,
				"y": 0.0090510615,
				"z": -1.0365822751,
				"element": "H" 
			},
			{
				"x": 1.5312111494,
				"y": 1.5094309041,
				"z": -0.7820565078,
				"element": "H" 
			},
			{
				"x": -0.356745492,
				"y": 0.6007341085,
				"z": -2.2332325715,
				"element": "H" 
			},
			{
				"x": 0.5324554172,
				"y": -0.8987810161,
				"z": -2.4265328691,
				"element": "H" 
			},
			{
				"x": 0.4417690415,
				"y": -1.2823802389,
				"z": 0.0610427294,
				"element": "H" 
			},
			{
				"x": -1.1418214865,
				"y": -1.2784975735,
				"z": -0.7092642038,
				"element": "H" 
			},
			{
				"x": -1.4061059222,
				"y": 2.1953060789,
				"z": 2.1224693434,
				"element": "H" 
			},
			{
				"x": -3.1480920664,
				"y": 1.8499004484,
				"z": 1.9241506312,
				"element": "H" 
			},
			{
				"x": -2.3657362179,
				"y": 3.0738128496,
				"z": 0.8988166235,
				"element": "H" 
			},
			{
				"x": -3.0916439417,
				"y": 1.7535129706,
				"z": -1.1317608314,
				"element": "H" 
			},
			{
				"x": -2.5250820817,
				"y": 0.0888191163,
				"z": -1.3074483343,
				"element": "H" 
			},
			{
				"x": -3.8035436418,
				"y": 0.4676785249,
				"z": -0.1398263433,
				"element": "H" 
			}
		],
		 "valence_orbital": [ 
			{
				"type": "occ",
				"energy": -0.34581,
				"method": "rhf"
			},
			{
				"type": "occ",
				"energy": -0.33535,
				"method": "rhf"
			},
			{
				"type": "occ",
				"energy": -0.32756,
				"method": "rhf"
			},
			{
				"type": "occ",
				"energy": -0.23554,
				"method": "rhf"
			},
			{
				"type": "occ",
				"energy": -0.23302,
				"method": "rhf"
			},
			{
				"type": "unocc",
				"energy": 0.03069,
				"method": "rhf"
			},
			{
				"type": "unocc",
				"energy": 0.08058,
				"method": "rhf"
			},
			{
				"type": "unocc",
				"energy": 0.11152,
				"method": "rhf"
			},
			{
				"type": "unocc",
				"energy": 0.12448,
				"method": "rhf"
			},
			{
				"type": "unocc",
				"energy": 0.13796,
				"method": "rhf"
			}
		],
		"cosmo_sigma_profile": { 
			"-0.025": 0.0,
			"-0.024": 0.0,
			"-0.023": 0.0,
			"-0.022": 0.0,
			"-0.021": 0.0,
			"-0.02": 0.0,
			"-0.019": 0.0,
			"-0.018": 0.0,
			"-0.017": 0.0,
			"-0.016": 0.0,
			"-0.015": 0.0,
			"-0.014": 0.0,
			"-0.013": 0.0,
			"-0.012": 0.0,
			"-0.011": 0.0,
			"-0.01": 0.0,
			"-0.009": 0.0,
			"-0.008": 0.0,
			"-0.007": 0.775394191266,
			"-0.006": 2.25716479909,
			"-0.005": 6.79771993093,
			"-0.004": 17.3555193488,
			"-0.003": 24.3515149958,
			"-0.002": 31.9322386148,
			"-0.001": 28.3044636036,
			"0.0": 17.5338158514,
			"0.001": 12.4320964739,
			"0.002": 6.90587108215,
			"0.003": 2.62459211458,
			"0.004": 2.01230293541,
			"0.005": 2.671590463,
			"0.006": 1.84714370214,
			"0.007": 1.51180123291,
			"0.008": 1.47362633125,
			"0.009": 2.05388036958,
			"0.01": 1.39729741756,
			"0.011": 1.31850267246,
			"0.012": 1.65887616259,
			"0.013": 2.05112650192,
			"0.014": 3.84155768899,
			"0.015": 2.92455484863,
			"0.016": 0.45386137318,
			"0.017": 0.0,
			"0.018": 0.0,
			"0.019": 0.0,
			"0.02": 0.0,
			"0.021": 0.0,
			"0.022": 0.0,
			"0.023": 0.0,
			"0.024": 0.0,
			"0.025": 0.0
		}
	}
}
