{
	 "smiles": "CC1=NN(CC(O)=O)C(C)=C1", 
	 "Tm": 461.15, 
	 "num_atms": 21, 
	 "gaussian": { 
		 "optdone": 1, 
		 "sigma_profile": "yes", 
		 "theory": "DFT", 
		 "functional": "B3LYP", 
		 "basiset": "6-31G**", 
		 "properties": { 
			 "R2extent": 2032.014, 
			 "electric_dipole_moment_norm": 5.76595572824, 
			 "electric_quadrupole_moment_norm": 11.7163720494, 
			 "total_energy": -532.729209452, 
			 "HOMO_LUMO_gap": 0.24329, 
			 "cosmo_polarized_energy": -12.57, 
			 "cosmo_cavitation_energy": 24.74, 
			 "cosmo_dispersion_energy": -18.11, 
			 "cosmo_repulsion_energy": 1.49, 
			 "cosmo_total_nonelectrostatic_energy": 8.12, 
			 "SMD_solvation_energy": 5.06 
		},
		"coords": [
			{
				"x": 1.5061116725,
				"y": -1.8138445086,
				"z": 2.683109573,
				"element": "C" 
			},
			{
				"x": 0.3474744216,
				"y": -1.4262496381,
				"z": 1.8169029563,
				"element": "C" 
			},
			{
				"x": 0.5415132026,
				"y": -0.7725887951,
				"z": 0.6692869893,
				"element": "N" 
			},
			{
				"x": -0.697728873,
				"y": -0.5512594483,
				"z": 0.1509620743,
				"element": "N" 
			},
			{
				"x": -0.8120729823,
				"y": 0.0968899821,
				"z": -1.1477739211,
				"element": "C" 
			},
			{
				"x": 0.0648816196,
				"y": 1.3534476589,
				"z": -1.3465758497,
				"element": "C" 
			},
			{
				"x": 1.2169585265,
				"y": 1.3965867943,
				"z": -0.681098562,
				"element": "O" 
			},
			{
				"x": -0.2852732358,
				"y": 2.2043323315,
				"z": -2.1308517547,
				"element": "O" 
			},
			{
				"x": -1.6792215807,
				"y": -1.0725929874,
				"z": 0.941173395,
				"element": "C" 
			},
			{
				"x": -3.1353721948,
				"y": -0.9930031762,
				"z": 0.6078164425,
				"element": "C" 
			},
			{
				"x": -1.0325332248,
				"y": -1.6445028484,
				"z": 2.0253656225,
				"element": "C" 
			},
			{
				"x": 1.5191914419,
				"y": -2.8933789089,
				"z": 2.8667921861,
				"element": "H" 
			},
			{
				"x": 2.4465988418,
				"y": -1.5351575767,
				"z": 2.2027782216,
				"element": "H" 
			},
			{
				"x": 1.4570014946,
				"y": -1.3166767809,
				"z": 3.6580015461,
				"element": "H" 
			},
			{
				"x": -0.5442521151,
				"y": -0.6117810961,
				"z": -1.9427202895,
				"element": "H" 
			},
			{
				"x": -1.8459650799,
				"y": 0.3999392905,
				"z": -1.3046866136,
				"element": "H" 
			},
			{
				"x": 1.2892402108,
				"y": 0.5941959168,
				"z": -0.0947184217,
				"element": "H" 
			},
			{
				"x": -3.7179077905,
				"y": -1.4654401291,
				"z": 1.4011225533,
				"element": "H" 
			},
			{
				"x": -3.3710547303,
				"y": -1.5069522592,
				"z": -0.3310852253,
				"element": "H" 
			},
			{
				"x": -3.4785396457,
				"y": 0.0435749305,
				"z": 0.514493181,
				"element": "H" 
			},
			{
				"x": -1.5013499792,
				"y": -2.1470387516,
				"z": 2.8589058966,
				"element": "H" 
			}
		],
		 "valence_orbital": [ 
			{
				"type": "occ",
				"energy": -0.30899,
				"method": "rhf"
			},
			{
				"type": "occ",
				"energy": -0.3001,
				"method": "rhf"
			},
			{
				"type": "occ",
				"energy": -0.27409,
				"method": "rhf"
			},
			{
				"type": "occ",
				"energy": -0.2569,
				"method": "rhf"
			},
			{
				"type": "occ",
				"energy": -0.24665,
				"method": "rhf"
			},
			{
				"type": "unocc",
				"energy": -0.00336,
				"method": "rhf"
			},
			{
				"type": "unocc",
				"energy": 0.01866,
				"method": "rhf"
			},
			{
				"type": "unocc",
				"energy": 0.0521,
				"method": "rhf"
			},
			{
				"type": "unocc",
				"energy": 0.07637,
				"method": "rhf"
			},
			{
				"type": "unocc",
				"energy": 0.1078,
				"method": "rhf"
			}
		],
		"cosmo_sigma_profile": { 
			"-0.025": 0.0,
			"-0.024": 0.0,
			"-0.023": 0.0,
			"-0.022": 0.0,
			"-0.021": 0.0,
			"-0.02": 0.0,
			"-0.019": 0.0,
			"-0.018": 0.0,
			"-0.017": 0.0,
			"-0.016": 0.0,
			"-0.015": 0.0,
			"-0.014": 0.0,
			"-0.013": 0.0,
			"-0.012": 0.0,
			"-0.011": 0.0,
			"-0.01": 0.0,
			"-0.009": 1.81381946048,
			"-0.008": 5.05918285445,
			"-0.007": 6.11994272923,
			"-0.006": 11.6645108684,
			"-0.005": 17.1540542477,
			"-0.004": 17.0066197219,
			"-0.003": 15.1845230244,
			"-0.002": 19.6464651504,
			"-0.001": 19.5244749413,
			"0.0": 12.5211180344,
			"0.001": 9.21651588909,
			"0.002": 7.94862712871,
			"0.003": 7.58331386656,
			"0.004": 6.81269791988,
			"0.005": 5.97681908413,
			"0.006": 4.3584653295,
			"0.007": 2.1568876932,
			"0.008": 3.5045218611,
			"0.009": 3.25029255088,
			"0.01": 4.68756898041,
			"0.011": 5.7311717463,
			"0.012": 5.9344764006,
			"0.013": 2.85633342457,
			"0.014": 0.305335635267,
			"0.015": 0.0,
			"0.016": 0.0,
			"0.017": 0.0,
			"0.018": 0.0,
			"0.019": 0.0,
			"0.02": 0.0,
			"0.021": 0.0,
			"0.022": 0.0,
			"0.023": 0.0,
			"0.024": 0.0,
			"0.025": 0.0
		}
	}
}
