{
	 "smiles": "CC1(C)C2CCC1(C)C(=O)C2(CCC(Br)C1=CC=CC=C1)C1(CCC(Br)C2=CC=CC=C2)C2CCC(C)(C1=O)C2(C)C", 
	 "Tm": 441.15, 
	 "num_atms": 90, 
	 "gaussian": { 
		 "optdone": 1, 
		 "sigma_profile": "yes", 
		 "theory": "DFT", 
		 "functional": "B3LYP", 
		 "basiset": "6-31G**", 
		 "properties": { 
			 "R2extent": 24633.9661, 
			 "electric_dipole_moment_norm": 3.96455721235, 
			 "electric_quadrupole_moment_norm": 30.791808133, 
			 "total_energy": -6770.18772446, 
			 "HOMO_LUMO_gap": 0.18962, 
			 "cosmo_polarized_energy": -19.23, 
			 "cosmo_cavitation_energy": 79.17, 
			 "cosmo_dispersion_energy": -46.88, 
			 "cosmo_repulsion_energy": 3.37, 
			 "cosmo_total_nonelectrostatic_energy": 35.67, 
			 "SMD_solvation_energy": 10.15 
		},
		"coords": [
			{
				"x": 3.3279376385,
				"y": -3.3282061992,
				"z": 2.2391121182,
				"element": "C" 
			},
			{
				"x": 3.1837403651,
				"y": -1.9546767217,
				"z": 1.543514479,
				"element": "C" 
			},
			{
				"x": 4.0108651065,
				"y": -2.0658760136,
				"z": 0.2561318921,
				"element": "C" 
			},
			{
				"x": 1.6779309595,
				"y": -1.4547395843,
				"z": 1.4699301641,
				"element": "C" 
			},
			{
				"x": 1.3613550007,
				"y": -1.4137863664,
				"z": 2.9950365551,
				"element": "C" 
			},
			{
				"x": 2.6530557746,
				"y": -0.8036334986,
				"z": 3.6056604624,
				"element": "C" 
			},
			{
				"x": 3.6279936711,
				"y": -0.7256732798,
				"z": 2.3940105476,
				"element": "C" 
			},
			{
				"x": 5.0912964578,
				"y": -0.5686062159,
				"z": 2.7771769811,
				"element": "C" 
			},
			{
				"x": 3.138612398,
				"y": 0.4056593829,
				"z": 1.4568636773,
				"element": "C" 
			},
			{
				"x": 3.7872888222,
				"y": 1.4104453626,
				"z": 1.2533886626,
				"element": "O" 
			},
			{
				"x": 1.6983820357,
				"y": 0.0420759732,
				"z": 0.9056615603,
				"element": "C" 
			},
			{
				"x": 0.756221506,
				"y": 1.0277434327,
				"z": 1.730979894,
				"element": "C" 
			},
			{
				"x": -0.7453181109,
				"y": 0.7043578909,
				"z": 2.0074728032,
				"element": "C" 
			},
			{
				"x": -1.8003626705,
				"y": 1.5333854553,
				"z": 1.2672059305,
				"element": "C" 
			},
			{
				"x": -1.5396388962,
				"y": 3.5001974273,
				"z": 1.6783384563,
				"element": "Br" 
			},
			{
				"x": -3.2232922533,
				"y": 1.1493577556,
				"z": 1.577152394,
				"element": "C" 
			},
			{
				"x": -4.0989399427,
				"y": 0.8539785318,
				"z": 0.5236264993,
				"element": "C" 
			},
			{
				"x": -5.4115391723,
				"y": 0.4491597546,
				"z": 0.7744118189,
				"element": "C" 
			},
			{
				"x": -5.8679127521,
				"y": 0.3386739019,
				"z": 2.0883243518,
				"element": "C" 
			},
			{
				"x": -5.0066205589,
				"y": 0.6434510811,
				"z": 3.1465181916,
				"element": "C" 
			},
			{
				"x": -3.6971853827,
				"y": 1.0470007227,
				"z": 2.8935230112,
				"element": "C" 
			},
			{
				"x": 1.306418807,
				"y": 0.2313954221,
				"z": -0.6930297935,
				"element": "C" 
			},
			{
				"x": 0.0446864648,
				"y": -0.6987013829,
				"z": -0.931548243,
				"element": "C" 
			},
			{
				"x": 0.2161965473,
				"y": -2.0969580216,
				"z": -1.5704251665,
				"element": "C" 
			},
			{
				"x": -1.1240481978,
				"y": -2.8482680484,
				"z": -1.5633310808,
				"element": "C" 
			},
			{
				"x": -0.9684733024,
				"y": -4.4356129389,
				"z": -2.7978188174,
				"element": "Br" 
			},
			{
				"x": -1.6083524342,
				"y": -3.2973673607,
				"z": -0.2078629024,
				"element": "C" 
			},
			{
				"x": -0.8948757189,
				"y": -4.2338816893,
				"z": 0.5567247079,
				"element": "C" 
			},
			{
				"x": -1.3302226561,
				"y": -4.5857220642,
				"z": 1.8324689132,
				"element": "C" 
			},
			{
				"x": -2.4843224833,
				"y": -4.0054967142,
				"z": 2.3690874919,
				"element": "C" 
			},
			{
				"x": -3.2039221668,
				"y": -3.0781796242,
				"z": 1.6166873456,
				"element": "C" 
			},
			{
				"x": -2.7702485182,
				"y": -2.7333762569,
				"z": 0.3335580655,
				"element": "C" 
			},
			{
				"x": 0.9478175758,
				"y": 1.7171706359,
				"z": -1.1468578647,
				"element": "C" 
			},
			{
				"x": 2.0758207635,
				"y": 2.7025268225,
				"z": -0.7498043832,
				"element": "C" 
			},
			{
				"x": 3.2389552129,
				"y": 2.3032309726,
				"z": -1.6963413533,
				"element": "C" 
			},
			{
				"x": 2.6037653263,
				"y": 1.2427015914,
				"z": -2.6409311199,
				"element": "C" 
			},
			{
				"x": 3.3720050012,
				"y": 0.9849524372,
				"z": -3.9268466264,
				"element": "C" 
			},
			{
				"x": 2.3803805376,
				"y": -0.0347219831,
				"z": -1.8116423848,
				"element": "C" 
			},
			{
				"x": 2.8423260374,
				"y": -1.1144232795,
				"z": -2.1181518263,
				"element": "O" 
			},
			{
				"x": 1.1182471497,
				"y": 1.7357168921,
				"z": -2.7225837975,
				"element": "C" 
			},
			{
				"x": 0.9398229241,
				"y": 3.1498462104,
				"z": -3.3223421763,
				"element": "C" 
			},
			{
				"x": 0.2233073295,
				"y": 0.8272106126,
				"z": -3.5908405517,
				"element": "C" 
			},
			{
				"x": 2.9176847062,
				"y": -3.3861508757,
				"z": 3.2469864512,
				"element": "H" 
			},
			{
				"x": 4.3852462581,
				"y": -3.6028318692,
				"z": 2.3052829051,
				"element": "H" 
			},
			{
				"x": 2.8340332146,
				"y": -4.098809599,
				"z": 1.635666279,
				"element": "H" 
			},
			{
				"x": 5.0024305179,
				"y": -2.456780967,
				"z": 0.5087475302,
				"element": "H" 
			},
			{
				"x": 3.5587744068,
				"y": -2.7439959831,
				"z": -0.4686156584,
				"element": "H" 
			},
			{
				"x": 4.1694118694,
				"y": -1.1149361631,
				"z": -0.2471798108,
				"element": "H" 
			},
			{
				"x": 1.0116863838,
				"y": -2.1280511594,
				"z": 0.9374896751,
				"element": "H" 
			},
			{
				"x": 1.182575257,
				"y": -2.4274999329,
				"z": 3.3576719482,
				"element": "H" 
			},
			{
				"x": 0.4697907981,
				"y": -0.853486389,
				"z": 3.2560132874,
				"element": "H" 
			},
			{
				"x": 2.4943093403,
				"y": 0.1735566328,
				"z": 4.07319589,
				"element": "H" 
			},
			{
				"x": 3.0894249066,
				"y": -1.4464429369,
				"z": 4.3770250946,
				"element": "H" 
			},
			{
				"x": 5.4173377914,
				"y": -1.4021045859,
				"z": 3.4080985218,
				"element": "H" 
			},
			{
				"x": 5.7383265633,
				"y": -0.526096339,
				"z": 1.8971248965,
				"element": "H" 
			},
			{
				"x": 5.2436786918,
				"y": 0.361098182,
				"z": 3.3335970178,
				"element": "H" 
			},
			{
				"x": 0.812715038,
				"y": 2.0104707255,
				"z": 1.2717984286,
				"element": "H" 
			},
			{
				"x": 1.2201322407,
				"y": 1.1770080416,
				"z": 2.7068355164,
				"element": "H" 
			},
			{
				"x": -0.9912162904,
				"y": -0.3418350258,
				"z": 1.800280321,
				"element": "H" 
			},
			{
				"x": -0.9276398135,
				"y": 0.8335441902,
				"z": 3.0788584342,
				"element": "H" 
			},
			{
				"x": -1.645429027,
				"y": 1.5016122867,
				"z": 0.1910625565,
				"element": "H" 
			},
			{
				"x": -3.7510966248,
				"y": 0.9468825365,
				"z": -0.5023049205,
				"element": "H" 
			},
			{
				"x": -6.0759425482,
				"y": 0.2267012211,
				"z": -0.0555498992,
				"element": "H" 
			},
			{
				"x": -6.889363542,
				"y": 0.0282408564,
				"z": 2.2878350963,
				"element": "H" 
			},
			{
				"x": -5.359048743,
				"y": 0.572866686,
				"z": 4.1715087928,
				"element": "H" 
			},
			{
				"x": -3.0461891402,
				"y": 1.3044944363,
				"z": 3.7233232167,
				"element": "H" 
			},
			{
				"x": -0.4465186499,
				"y": -0.841644029,
				"z": 0.0284476538,
				"element": "H" 
			},
			{
				"x": -0.6775547035,
				"y": -0.148675288,
				"z": -1.5387268161,
				"element": "H" 
			},
			{
				"x": 0.9737005017,
				"y": -2.6885512765,
				"z": -1.0534633228,
				"element": "H" 
			},
			{
				"x": 0.563021401,
				"y": -2.0201325159,
				"z": -2.600978772,
				"element": "H" 
			},
			{
				"x": -1.8946673931,
				"y": -2.2483658194,
				"z": -2.0505382838,
				"element": "H" 
			},
			{
				"x": -0.0127584164,
				"y": -4.7062012792,
				"z": 0.1344682352,
				"element": "H" 
			},
			{
				"x": -0.7728571355,
				"y": -5.3196202845,
				"z": 2.4076075256,
				"element": "H" 
			},
			{
				"x": -2.8213408636,
				"y": -4.282042887,
				"z": 3.3639231047,
				"element": "H" 
			},
			{
				"x": -4.1017363223,
				"y": -2.6190791467,
				"z": 2.0195996635,
				"element": "H" 
			},
			{
				"x": -3.340089626,
				"y": -2.0123868572,
				"z": -0.2458960155,
				"element": "H" 
			},
			{
				"x": -0.0393032614,
				"y": 2.0435839023,
				"z": -0.8166180063,
				"element": "H" 
			},
			{
				"x": 1.7436993561,
				"y": 3.729925452,
				"z": -0.9132764972,
				"element": "H" 
			},
			{
				"x": 2.3881254316,
				"y": 2.6322854662,
				"z": 0.2849757823,
				"element": "H" 
			},
			{
				"x": 4.0916360924,
				"y": 1.9048638745,
				"z": -1.1415070574,
				"element": "H" 
			},
			{
				"x": 3.6078439579,
				"y": 3.1460902057,
				"z": -2.2898417708,
				"element": "H" 
			},
			{
				"x": 4.3805664679,
				"y": 0.6232132907,
				"z": -3.7044149739,
				"element": "H" 
			},
			{
				"x": 3.4636197609,
				"y": 1.9041526499,
				"z": -4.5146890645,
				"element": "H" 
			},
			{
				"x": 2.8875517099,
				"y": 0.2229133103,
				"z": -4.5436831294,
				"element": "H" 
			},
			{
				"x": -0.0900447945,
				"y": 3.4915962881,
				"z": -3.1641534352,
				"element": "H" 
			},
			{
				"x": 1.1084128453,
				"y": 3.1212686405,
				"z": -4.4035276136,
				"element": "H" 
			},
			{
				"x": 1.604038436,
				"y": 3.9085779981,
				"z": -2.9117376657,
				"element": "H" 
			},
			{
				"x": 0.3675486423,
				"y": -0.2398463527,
				"z": -3.4334786759,
				"element": "H" 
			},
			{
				"x": 0.4425849209,
				"y": 1.0131220082,
				"z": -4.6471496815,
				"element": "H" 
			},
			{
				"x": -0.8379648082,
				"y": 1.0577676547,
				"z": -3.4429016407,
				"element": "H" 
			}
		],
		 "valence_orbital": [ 
			{
				"type": "occ",
				"energy": -0.25987,
				"method": "rhf"
			},
			{
				"type": "occ",
				"energy": -0.25307,
				"method": "rhf"
			},
			{
				"type": "occ",
				"energy": -0.2485,
				"method": "rhf"
			},
			{
				"type": "occ",
				"energy": -0.2353,
				"method": "rhf"
			},
			{
				"type": "occ",
				"energy": -0.23035,
				"method": "rhf"
			},
			{
				"type": "unocc",
				"energy": -0.04073,
				"method": "rhf"
			},
			{
				"type": "unocc",
				"energy": -0.03361,
				"method": "rhf"
			},
			{
				"type": "unocc",
				"energy": -0.02316,
				"method": "rhf"
			},
			{
				"type": "unocc",
				"energy": -0.01925,
				"method": "rhf"
			},
			{
				"type": "unocc",
				"energy": -0.01623,
				"method": "rhf"
			}
		],
		"cosmo_sigma_profile": { 
			"-0.025": 0.0,
			"-0.024": 0.0,
			"-0.023": 0.0,
			"-0.022": 0.0,
			"-0.021": 0.0,
			"-0.02": 0.0,
			"-0.019": 0.0,
			"-0.018": 0.0,
			"-0.017": 0.0,
			"-0.016": 0.0,
			"-0.015": 0.0,
			"-0.014": 0.0,
			"-0.013": 0.0,
			"-0.012": 0.0,
			"-0.011": 0.0,
			"-0.01": 0.0,
			"-0.009": 0.0,
			"-0.008": 0.663308750386,
			"-0.007": 6.39021708035,
			"-0.006": 19.4010256097,
			"-0.005": 30.9820348113,
			"-0.004": 41.2328637549,
			"-0.003": 59.3558382263,
			"-0.002": 74.6877519211,
			"-0.001": 71.9307756287,
			"0.0": 65.7994533447,
			"0.001": 70.7798115839,
			"0.002": 44.1988387172,
			"0.003": 31.3627894598,
			"0.004": 26.7656853203,
			"0.005": 31.1083549744,
			"0.006": 22.9637724884,
			"0.007": 9.88479628306,
			"0.008": 3.57018235924,
			"0.009": 3.12173055185,
			"0.01": 3.37864369118,
			"0.011": 2.99768964766,
			"0.012": 3.03687663608,
			"0.013": 0.927168969509,
			"0.014": 0.0,
			"0.015": 0.0,
			"0.016": 0.0,
			"0.017": 0.0,
			"0.018": 0.0,
			"0.019": 0.0,
			"0.02": 0.0,
			"0.021": 0.0,
			"0.022": 0.0,
			"0.023": 0.0,
			"0.024": 0.0,
			"0.025": 0.0
		}
	}
}
