{
	 "smiles": "N1C(NC(=C1C1=CC=CC=C1)C1=CC=CC=C1)C1=CC=NC=C1", 
	 "Tm": 533.15, 
	 "num_atms": 40, 
	 "gaussian": { 
		 "optdone": 1, 
		 "sigma_profile": "yes", 
		 "theory": "DFT", 
		 "functional": "B3LYP", 
		 "basiset": "6-31G**", 
		 "properties": { 
			 "R2extent": 7938.0404, 
			 "electric_dipole_moment_norm": 0.727859787322, 
			 "electric_quadrupole_moment_norm": 17.0623716505, 
			 "total_energy": -936.60111684, 
			 "HOMO_LUMO_gap": 0.1244, 
			 "cosmo_polarized_energy": -14.44, 
			 "cosmo_cavitation_energy": 43.34, 
			 "cosmo_dispersion_energy": -29.91, 
			 "cosmo_repulsion_energy": 2.27, 
			 "cosmo_total_nonelectrostatic_energy": 15.7, 
			 "SMD_solvation_energy": 3.01 
		},
		"coords": [
			{
				"x": -1.1266406085,
				"y": 0.1578504171,
				"z": -1.5840494491,
				"element": "N" 
			},
			{
				"x": -2.0579561161,
				"y": -0.1304369391,
				"z": -0.4789716193,
				"element": "C" 
			},
			{
				"x": -1.2279431624,
				"y": -0.9733130288,
				"z": 0.4025439246,
				"element": "N" 
			},
			{
				"x": 0.1386352509,
				"y": -0.763288334,
				"z": 0.0629515742,
				"element": "C" 
			},
			{
				"x": 0.2015625012,
				"y": -0.0922057991,
				"z": -1.1171773276,
				"element": "C" 
			},
			{
				"x": 1.3250288016,
				"y": 0.3432939056,
				"z": -1.9511366892,
				"element": "C" 
			},
			{
				"x": 1.1603426609,
				"y": 0.4470444953,
				"z": -3.3462903198,
				"element": "C" 
			},
			{
				"x": 2.2003010901,
				"y": 0.9008147035,
				"z": -4.1568820418,
				"element": "C" 
			},
			{
				"x": 3.4252587893,
				"y": 1.2636538532,
				"z": -3.5956028429,
				"element": "C" 
			},
			{
				"x": 3.5982716124,
				"y": 1.1741599344,
				"z": -2.2108850466,
				"element": "C" 
			},
			{
				"x": 2.5612564556,
				"y": 0.7292027048,
				"z": -1.3961362495,
				"element": "C" 
			},
			{
				"x": 1.1845892956,
				"y": -1.3870789015,
				"z": 0.8880142859,
				"element": "C" 
			},
			{
				"x": 1.1218971318,
				"y": -1.3107339799,
				"z": 2.2915929337,
				"element": "C" 
			},
			{
				"x": 2.0938143972,
				"y": -1.9156210923,
				"z": 3.0872599153,
				"element": "C" 
			},
			{
				"x": 3.15040983,
				"y": -2.6117167009,
				"z": 2.4979396235,
				"element": "C" 
			},
			{
				"x": 3.2224693374,
				"y": -2.7002399694,
				"z": 1.105252076,
				"element": "C" 
			},
			{
				"x": 2.2486323988,
				"y": -2.1024744682,
				"z": 0.3086244095,
				"element": "C" 
			},
			{
				"x": -2.6128371433,
				"y": 1.1123928845,
				"z": 0.2170365171,
				"element": "C" 
			},
			{
				"x": -1.7892849348,
				"y": 2.1773222794,
				"z": 0.6065345787,
				"element": "C" 
			},
			{
				"x": -2.3610031036,
				"y": 3.2646239886,
				"z": 1.2657475828,
				"element": "C" 
			},
			{
				"x": -3.6665392181,
				"y": 3.3630084038,
				"z": 1.5552841919,
				"element": "N" 
			},
			{
				"x": -4.4470401939,
				"y": 2.344011183,
				"z": 1.1788939709,
				"element": "C" 
			},
			{
				"x": -3.9738664291,
				"y": 1.2100484423,
				"z": 0.5147482967,
				"element": "C" 
			},
			{
				"x": -1.2487992342,
				"y": 1.085152958,
				"z": -1.9799622115,
				"element": "H" 
			},
			{
				"x": -2.9129615503,
				"y": -0.7159459845,
				"z": -0.8463861268,
				"element": "H" 
			},
			{
				"x": -1.4606569136,
				"y": -0.9215091907,
				"z": 1.3873439698,
				"element": "H" 
			},
			{
				"x": 0.2156733802,
				"y": 0.1471255154,
				"z": -3.7889929665,
				"element": "H" 
			},
			{
				"x": 2.052818262,
				"y": 0.9658550479,
				"z": -5.2314488177,
				"element": "H" 
			},
			{
				"x": 4.234761198,
				"y": 1.618209617,
				"z": -4.2269357629,
				"element": "H" 
			},
			{
				"x": 4.5428795348,
				"y": 1.4675513559,
				"z": -1.7612162938,
				"element": "H" 
			},
			{
				"x": 2.6990180982,
				"y": 0.6878506314,
				"z": -0.3211637685,
				"element": "H" 
			},
			{
				"x": 0.318345529,
				"y": -0.7542856621,
				"z": 2.7677643084,
				"element": "H" 
			},
			{
				"x": 2.0270300665,
				"y": -1.8386881606,
				"z": 4.1688681866,
				"element": "H" 
			},
			{
				"x": 3.9069763723,
				"y": -3.0849497897,
				"z": 3.1169428044,
				"element": "H" 
			},
			{
				"x": 4.0334743376,
				"y": -3.2505659543,
				"z": 0.636490918,
				"element": "H" 
			},
			{
				"x": 2.2981857927,
				"y": -2.1944108622,
				"z": -0.7709741645,
				"element": "H" 
			},
			{
				"x": -0.7227487523,
				"y": 2.1594327954,
				"z": 0.4042627302,
				"element": "H" 
			},
			{
				"x": -1.7387024693,
				"y": 4.1020580948,
				"z": 1.5769467097,
				"element": "H" 
			},
			{
				"x": -5.505836804,
				"y": 2.4374928742,
				"z": 1.4154476076,
				"element": "H" 
			},
			{
				"x": -4.6600154906,
				"y": 0.4165087316,
				"z": 0.2297205828,
				"element": "H" 
			}
		],
		 "valence_orbital": [ 
			{
				"type": "occ",
				"energy": -0.25427,
				"method": "rhf"
			},
			{
				"type": "occ",
				"energy": -0.24932,
				"method": "rhf"
			},
			{
				"type": "occ",
				"energy": -0.24678,
				"method": "rhf"
			},
			{
				"type": "occ",
				"energy": -0.24482,
				"method": "rhf"
			},
			{
				"type": "occ",
				"energy": -0.16442,
				"method": "rhf"
			},
			{
				"type": "unocc",
				"energy": -0.04002,
				"method": "rhf"
			},
			{
				"type": "unocc",
				"energy": -0.0263,
				"method": "rhf"
			},
			{
				"type": "unocc",
				"energy": -0.01767,
				"method": "rhf"
			},
			{
				"type": "unocc",
				"energy": -0.00688,
				"method": "rhf"
			},
			{
				"type": "unocc",
				"energy": 0.00558,
				"method": "rhf"
			}
		],
		"cosmo_sigma_profile": { 
			"-0.025": 0.0,
			"-0.024": 0.0,
			"-0.023": 0.0,
			"-0.022": 0.0,
			"-0.021": 0.0,
			"-0.02": 0.0,
			"-0.019": 0.0,
			"-0.018": 0.0,
			"-0.017": 0.0,
			"-0.016": 0.0,
			"-0.015": 0.0,
			"-0.014": 0.0,
			"-0.013": 0.0315577033699,
			"-0.012": 0.766677402655,
			"-0.011": 2.12265473001,
			"-0.01": 1.91676205965,
			"-0.009": 2.9710281077,
			"-0.008": 2.73481829619,
			"-0.007": 5.9481993442,
			"-0.006": 18.2814960198,
			"-0.005": 28.6339566284,
			"-0.004": 31.0940049791,
			"-0.003": 30.51577444,
			"-0.002": 21.5689671255,
			"-0.001": 22.9920391268,
			"0.0": 21.3761554202,
			"0.001": 22.4858368677,
			"0.002": 28.722607829,
			"0.003": 23.7912729312,
			"0.004": 20.3171984196,
			"0.005": 21.4707932352,
			"0.006": 16.2336431205,
			"0.007": 4.65799978762,
			"0.008": 3.51996723611,
			"0.009": 2.21860848944,
			"0.01": 2.85191104556,
			"0.011": 2.21436895829,
			"0.012": 2.55487754714,
			"0.013": 1.77265899649,
			"0.014": 1.00333282438,
			"0.015": 0.919056712608,
			"0.016": 1.03440833438,
			"0.017": 0.271572906959,
			"0.018": 0.0,
			"0.019": 0.0,
			"0.02": 0.0,
			"0.021": 0.0,
			"0.022": 0.0,
			"0.023": 0.0,
			"0.024": 0.0,
			"0.025": 0.0
		}
	}
}
