{
	 "smiles": "ClC1=CN=C(Cl)N=C1", 
	 "Tm": 329.15, 
	 "num_atms": 10, 
	 "gaussian": { 
		 "optdone": 1, 
		 "sigma_profile": "yes", 
		 "theory": "DFT", 
		 "functional": "B3LYP", 
		 "basiset": "6-31G**", 
		 "properties": { 
			 "R2extent": 1969.3335, 
			 "electric_dipole_moment_norm": 2.25927390548, 
			 "electric_quadrupole_moment_norm": 3.18469986027, 
			 "total_energy": -1183.50152208, 
			 "HOMO_LUMO_gap": 0.20643, 
			 "cosmo_polarized_energy": -6.49, 
			 "cosmo_cavitation_energy": 18.62, 
			 "cosmo_dispersion_energy": -14.42, 
			 "cosmo_repulsion_energy": 1.2, 
			 "cosmo_total_nonelectrostatic_energy": 5.4, 
			 "SMD_solvation_energy": -0.03 
		},
		"coords": [
			{
				"x": 0.0650427298,
				"y": -3.4847642664,
				"z": 0.3383044152,
				"element": "Cl" 
			},
			{
				"x": 0.3346468208,
				"y": -1.8044455069,
				"z": 0.7050714174,
				"element": "C" 
			},
			{
				"x": 0.6051828898,
				"y": -0.876249938,
				"z": -0.3004695977,
				"element": "C" 
			},
			{
				"x": 0.812453381,
				"y": 0.4136624222,
				"z": -0.0219994542,
				"element": "N" 
			},
			{
				"x": 0.7444423686,
				"y": 0.7490230864,
				"z": 1.2624382363,
				"element": "C" 
			},
			{
				"x": 1.0147306882,
				"y": 2.4354367613,
				"z": 1.6304836988,
				"element": "Cl" 
			},
			{
				"x": 0.4953907288,
				"y": -0.0424822815,
				"z": 2.300883656,
				"element": "N" 
			},
			{
				"x": 0.2889023452,
				"y": -1.3312285797,
				"z": 2.0164941416,
				"element": "C" 
			},
			{
				"x": 0.6557061734,
				"y": -1.1753379737,
				"z": -1.3444919424,
				"element": "H" 
			},
			{
				"x": 0.0832018745,
				"y": -1.9989137237,
				"z": 2.849485429,
				"element": "H" 
			}
		],
		 "valence_orbital": [ 
			{
				"type": "occ",
				"energy": -0.34426,
				"method": "rhf"
			},
			{
				"type": "occ",
				"energy": -0.34076,
				"method": "rhf"
			},
			{
				"type": "occ",
				"energy": -0.32778,
				"method": "rhf"
			},
			{
				"type": "occ",
				"energy": -0.2805,
				"method": "rhf"
			},
			{
				"type": "occ",
				"energy": -0.27884,
				"method": "rhf"
			},
			{
				"type": "unocc",
				"energy": -0.07241,
				"method": "rhf"
			},
			{
				"type": "unocc",
				"energy": -0.05551,
				"method": "rhf"
			},
			{
				"type": "unocc",
				"energy": 0.00656,
				"method": "rhf"
			},
			{
				"type": "unocc",
				"energy": 0.0288,
				"method": "rhf"
			},
			{
				"type": "unocc",
				"energy": 0.09665,
				"method": "rhf"
			}
		],
		"cosmo_sigma_profile": { 
			"-0.025": 0.0,
			"-0.024": 0.0,
			"-0.023": 0.0,
			"-0.022": 0.0,
			"-0.021": 0.0,
			"-0.02": 0.0,
			"-0.019": 0.0,
			"-0.018": 0.0,
			"-0.017": 0.0,
			"-0.016": 0.0,
			"-0.015": 0.0,
			"-0.014": 0.0,
			"-0.013": 0.0,
			"-0.012": 0.0,
			"-0.011": 0.0150243130142,
			"-0.01": 2.72932968106,
			"-0.009": 3.62730198024,
			"-0.008": 3.60791689181,
			"-0.007": 3.38657404426,
			"-0.006": 4.69361153169,
			"-0.005": 6.54417050489,
			"-0.004": 11.4820988727,
			"-0.003": 15.2310055525,
			"-0.002": 10.0860239673,
			"-0.001": 11.3705349248,
			"0.0": 9.12245312022,
			"0.001": 11.6305208697,
			"0.002": 13.2967473521,
			"0.003": 19.2059833287,
			"0.004": 9.80237337904,
			"0.005": 3.83343627035,
			"0.006": 3.41553052309,
			"0.007": 2.52432185042,
			"0.008": 2.52285732649,
			"0.009": 1.6944206341,
			"0.01": 1.69897685727,
			"0.011": 1.96484753425,
			"0.012": 1.71222243803,
			"0.013": 0.543707380943,
			"0.014": 0.0,
			"0.015": 0.0,
			"0.016": 0.0,
			"0.017": 0.0,
			"0.018": 0.0,
			"0.019": 0.0,
			"0.02": 0.0,
			"0.021": 0.0,
			"0.022": 0.0,
			"0.023": 0.0,
			"0.024": 0.0,
			"0.025": 0.0
		}
	}
}
