{
	 "smiles": "COC1=CC(=CC(OC)=C1OC)C(=O)NC1=CC2=NN(C)N=C2C=C1", 
	 "Tm": 386.15, 
	 "num_atms": 43, 
	 "gaussian": { 
		 "optdone": 1, 
		 "sigma_profile": "yes", 
		 "theory": "DFT", 
		 "functional": "B3LYP", 
		 "basiset": "6-31G**", 
		 "properties": { 
			 "R2extent": 15299.8137, 
			 "electric_dipole_moment_norm": 3.90047683623, 
			 "electric_quadrupole_moment_norm": 20.8376127759, 
			 "total_energy": -1178.49611499, 
			 "HOMO_LUMO_gap": 0.1609, 
			 "cosmo_polarized_energy": -20.66, 
			 "cosmo_cavitation_energy": 47.83, 
			 "cosmo_dispersion_energy": -33.98, 
			 "cosmo_repulsion_energy": 2.57, 
			 "cosmo_total_nonelectrostatic_energy": 16.42, 
			 "SMD_solvation_energy": 8.62 
		},
		"coords": [
			{
				"x": 4.0531233334,
				"y": -1.9225482936,
				"z": 0.8938582939,
				"element": "C" 
			},
			{
				"x": 3.4550961193,
				"y": -0.6212871456,
				"z": 0.906266797,
				"element": "O" 
			},
			{
				"x": 2.1540690074,
				"y": -0.5577061673,
				"z": 1.3363172336,
				"element": "C" 
			},
			{
				"x": 1.1840867516,
				"y": -0.0998801123,
				"z": 0.4421564284,
				"element": "C" 
			},
			{
				"x": -0.1423205588,
				"y": 0.0765348634,
				"z": 0.8575764136,
				"element": "C" 
			},
			{
				"x": -0.4944145245,
				"y": -0.2191932291,
				"z": 2.1794777236,
				"element": "C" 
			},
			{
				"x": 0.4625322521,
				"y": -0.6898958771,
				"z": 3.0742293251,
				"element": "C" 
			},
			{
				"x": 0.0997012683,
				"y": -0.9246421711,
				"z": 4.3793721681,
				"element": "O" 
			},
			{
				"x": 0.1085814385,
				"y": -2.3012715034,
				"z": 4.7766270646,
				"element": "C" 
			},
			{
				"x": 1.7998656971,
				"y": -0.8535890213,
				"z": 2.664614167,
				"element": "C" 
			},
			{
				"x": 2.7586382947,
				"y": -1.2991319907,
				"z": 3.5434589205,
				"element": "O" 
			},
			{
				"x": 3.1990752045,
				"y": -0.3076613587,
				"z": 4.4856391259,
				"element": "C" 
			},
			{
				"x": -1.2372298163,
				"y": 0.588130071,
				"z": -0.037989802,
				"element": "C" 
			},
			{
				"x": -2.254337582,
				"y": 1.0958829081,
				"z": 0.4219306419,
				"element": "O" 
			},
			{
				"x": -1.0117937542,
				"y": 0.4218840394,
				"z": -1.3881569921,
				"element": "N" 
			},
			{
				"x": -1.8286716624,
				"y": 0.8096541143,
				"z": -2.4703015353,
				"element": "C" 
			},
			{
				"x": -3.0257138864,
				"y": 1.4905743669,
				"z": -2.3197312492,
				"element": "C" 
			},
			{
				"x": -3.7177356947,
				"y": 1.8147371974,
				"z": -3.5079632718,
				"element": "C" 
			},
			{
				"x": -4.8953393593,
				"y": 2.4629696475,
				"z": -3.6717944194,
				"element": "N" 
			},
			{
				"x": -5.0471032479,
				"y": 2.4651487737,
				"z": -4.9933796707,
				"element": "N" 
			},
			{
				"x": -6.181359964,
				"y": 3.1303197862,
				"z": -5.6120387688,
				"element": "C" 
			},
			{
				"x": -4.0997027958,
				"y": 1.8965257614,
				"z": -5.7309219769,
				"element": "N" 
			},
			{
				"x": -3.2232718409,
				"y": 1.4619803668,
				"z": -4.7971479955,
				"element": "C" 
			},
			{
				"x": -2.0014727143,
				"y": 0.7641351711,
				"z": -4.9286250549,
				"element": "C" 
			},
			{
				"x": -1.330368355,
				"y": 0.4553515369,
				"z": -3.7708235462,
				"element": "C" 
			},
			{
				"x": 4.0969207458,
				"y": -2.3517914724,
				"z": 1.8980173316,
				"element": "H" 
			},
			{
				"x": 3.500585848,
				"y": -2.5978269555,
				"z": 0.2276553446,
				"element": "H" 
			},
			{
				"x": 5.0643775257,
				"y": -1.7851636303,
				"z": 0.5059036976,
				"element": "H" 
			},
			{
				"x": 1.5234411134,
				"y": 0.1695921467,
				"z": -0.5531347374,
				"element": "H" 
			},
			{
				"x": -1.515307116,
				"y": -0.0694479624,
				"z": 2.5105850737,
				"element": "H" 
			},
			{
				"x": 1.1071777118,
				"y": -2.7380510721,
				"z": 4.6795294559,
				"element": "H" 
			},
			{
				"x": -0.2005831563,
				"y": -2.3173336468,
				"z": 5.8235007919,
				"element": "H" 
			},
			{
				"x": -0.6067388705,
				"y": -2.881018106,
				"z": 4.1800688781,
				"element": "H" 
			},
			{
				"x": 3.9435316118,
				"y": -0.7969637836,
				"z": 5.1165840427,
				"element": "H" 
			},
			{
				"x": 2.3644779991,
				"y": 0.0424148754,
				"z": 5.1005087196,
				"element": "H" 
			},
			{
				"x": 3.6604189195,
				"y": 0.5391041949,
				"z": 3.9652213076,
				"element": "H" 
			},
			{
				"x": -0.1967349946,
				"y": -0.1168069071,
				"z": -1.6387835695,
				"element": "H" 
			},
			{
				"x": -3.4033068084,
				"y": 1.7514952095,
				"z": -1.3426844335,
				"element": "H" 
			},
			{
				"x": -5.9859562582,
				"y": 4.2027635505,
				"z": -5.7035209958,
				"element": "H" 
			},
			{
				"x": -7.0588772732,
				"y": 2.9739552458,
				"z": -4.9847140823,
				"element": "H" 
			},
			{
				"x": -6.328684458,
				"y": 2.697029423,
				"z": -6.6003066513,
				"element": "H" 
			},
			{
				"x": -1.6118842101,
				"y": 0.4883158271,
				"z": -5.9024530198,
				"element": "H" 
			},
			{
				"x": -0.3835919405,
				"y": -0.0768886705,
				"z": -3.8316271744,
				"element": "H" 
			}
		],
		 "valence_orbital": [ 
			{
				"type": "occ",
				"energy": -0.25727,
				"method": "rhf"
			},
			{
				"type": "occ",
				"energy": -0.24308,
				"method": "rhf"
			},
			{
				"type": "occ",
				"energy": -0.2363,
				"method": "rhf"
			},
			{
				"type": "occ",
				"energy": -0.23557,
				"method": "rhf"
			},
			{
				"type": "occ",
				"energy": -0.20991,
				"method": "rhf"
			},
			{
				"type": "unocc",
				"energy": -0.04901,
				"method": "rhf"
			},
			{
				"type": "unocc",
				"energy": -0.03363,
				"method": "rhf"
			},
			{
				"type": "unocc",
				"energy": -0.006,
				"method": "rhf"
			},
			{
				"type": "unocc",
				"energy": 0.0257,
				"method": "rhf"
			},
			{
				"type": "unocc",
				"energy": 0.0351,
				"method": "rhf"
			}
		],
		"cosmo_sigma_profile": { 
			"-0.025": 0.0,
			"-0.024": 0.0,
			"-0.023": 0.0,
			"-0.022": 0.0,
			"-0.021": 0.0,
			"-0.02": 0.0,
			"-0.019": 0.0,
			"-0.018": 0.0,
			"-0.017": 0.0,
			"-0.016": 0.111784376301,
			"-0.015": 1.1745788819,
			"-0.014": 1.30152507641,
			"-0.013": 1.63733335914,
			"-0.012": 0.944145646762,
			"-0.011": 1.93528578985,
			"-0.01": 1.17066229378,
			"-0.009": 1.88790083295,
			"-0.008": 3.50442485169,
			"-0.007": 10.4692258458,
			"-0.006": 14.3213313447,
			"-0.005": 25.0928780895,
			"-0.004": 32.1641653636,
			"-0.003": 38.6408724939,
			"-0.002": 31.9204095384,
			"-0.001": 24.3247892154,
			"0.0": 24.4023036843,
			"0.001": 26.9808319328,
			"0.002": 32.889199153,
			"0.003": 30.2583288386,
			"0.004": 16.588656727,
			"0.005": 10.2529627375,
			"0.006": 7.74039671818,
			"0.007": 7.43662374623,
			"0.008": 6.24603839974,
			"0.009": 6.4550285856,
			"0.01": 5.93742863415,
			"0.011": 5.65061157937,
			"0.012": 5.62588066809,
			"0.013": 3.51936570977,
			"0.014": 1.3385025378,
			"0.015": 0.0703500788501,
			"0.016": 0.0,
			"0.017": 0.0,
			"0.018": 0.0,
			"0.019": 0.0,
			"0.02": 0.0,
			"0.021": 0.0,
			"0.022": 0.0,
			"0.023": 0.0,
			"0.024": 0.0,
			"0.025": 0.0
		}
	}
}
