{
	 "smiles": "CC1=CC=C(S1)C1=NC2=C(N1)C=CC=C2", 
	 "Tm": 533.15, 
	 "num_atms": 25, 
	 "gaussian": { 
		 "optdone": 1, 
		 "sigma_profile": "yes", 
		 "theory": "DFT", 
		 "functional": "B3LYP", 
		 "basiset": "6-31G**", 
		 "properties": { 
			 "R2extent": 5360.9578, 
			 "electric_dipole_moment_norm": 3.3187665058, 
			 "electric_quadrupole_moment_norm": 18.3650447002, 
			 "total_energy": -971.006311163, 
			 "HOMO_LUMO_gap": 0.15256, 
			 "cosmo_polarized_energy": -12.69, 
			 "cosmo_cavitation_energy": 30.77, 
			 "cosmo_dispersion_energy": -23.46, 
			 "cosmo_repulsion_energy": 1.77, 
			 "cosmo_total_nonelectrostatic_energy": 9.07, 
			 "SMD_solvation_energy": 2.74 
		},
		"coords": [
			{
				"x": -0.0609844761,
				"y": -2.8588802786,
				"z": -5.6268606184,
				"element": "C" 
			},
			{
				"x": 0.1614099112,
				"y": -1.7377427179,
				"z": -4.6577674352,
				"element": "C" 
			},
			{
				"x": 0.3740774292,
				"y": -0.4082304682,
				"z": -4.9185532178,
				"element": "C" 
			},
			{
				"x": 0.5497140918,
				"y": 0.3908901826,
				"z": -3.7549527151,
				"element": "C" 
			},
			{
				"x": 0.4714688159,
				"y": -0.3302929842,
				"z": -2.5877110125,
				"element": "C" 
			},
			{
				"x": 0.1759376753,
				"y": -2.0243735449,
				"z": -2.9316385772,
				"element": "S" 
			},
			{
				"x": 0.6068058688,
				"y": 0.1872802845,
				"z": -1.2405131713,
				"element": "C" 
			},
			{
				"x": 0.8296165868,
				"y": 1.4546129901,
				"z": -0.9501430649,
				"element": "N" 
			},
			{
				"x": 0.8882159513,
				"y": 1.5068342468,
				"z": 0.4300054962,
				"element": "C" 
			},
			{
				"x": 0.6920969911,
				"y": 0.216766479,
				"z": 0.9859973873,
				"element": "C" 
			},
			{
				"x": 0.5143506292,
				"y": -0.6079803653,
				"z": -0.1097592286,
				"element": "N" 
			},
			{
				"x": 0.7020266991,
				"y": -0.0198728513,
				"z": 2.3610910431,
				"element": "C" 
			},
			{
				"x": 0.9166626302,
				"y": 1.0835329744,
				"z": 3.1846684129,
				"element": "C" 
			},
			{
				"x": 1.1136707771,
				"y": 2.3736620903,
				"z": 2.6514933419,
				"element": "C" 
			},
			{
				"x": 1.1023326437,
				"y": 2.6014842754,
				"z": 1.2793015911,
				"element": "C" 
			},
			{
				"x": -0.0330886836,
				"y": -2.470593812,
				"z": -6.6485464939,
				"element": "H" 
			},
			{
				"x": -1.0329021126,
				"y": -3.3432077714,
				"z": -5.4782724353,
				"element": "H" 
			},
			{
				"x": 0.708928286,
				"y": -3.6342482648,
				"z": -5.5413193714,
				"element": "H" 
			},
			{
				"x": 0.403504237,
				"y": -0.0132913142,
				"z": -5.9285230976,
				"element": "H" 
			},
			{
				"x": 0.7282239222,
				"y": 1.4589653647,
				"z": -3.7534809714,
				"element": "H" 
			},
			{
				"x": 0.3485060925,
				"y": -1.602257302,
				"z": -0.0892933441,
				"element": "H" 
			},
			{
				"x": 0.5506206073,
				"y": -1.0123146972,
				"z": 2.7751906287,
				"element": "H" 
			},
			{
				"x": 0.9323928033,
				"y": 0.9456525719,
				"z": 4.2617369728,
				"element": "H" 
			},
			{
				"x": 1.2775205428,
				"y": 3.2051103632,
				"z": 3.3306679668,
				"element": "H" 
			},
			{
				"x": 1.2533920805,
				"y": 3.5923945494,
				"z": 0.8635819137,
				"element": "H" 
			}
		],
		 "valence_orbital": [ 
			{
				"type": "occ",
				"energy": -0.26834,
				"method": "rhf"
			},
			{
				"type": "occ",
				"energy": -0.2579,
				"method": "rhf"
			},
			{
				"type": "occ",
				"energy": -0.25499,
				"method": "rhf"
			},
			{
				"type": "occ",
				"energy": -0.22329,
				"method": "rhf"
			},
			{
				"type": "occ",
				"energy": -0.20014,
				"method": "rhf"
			},
			{
				"type": "unocc",
				"energy": -0.04758,
				"method": "rhf"
			},
			{
				"type": "unocc",
				"energy": 0.01039,
				"method": "rhf"
			},
			{
				"type": "unocc",
				"energy": 0.01171,
				"method": "rhf"
			},
			{
				"type": "unocc",
				"energy": 0.02814,
				"method": "rhf"
			},
			{
				"type": "unocc",
				"energy": 0.05048,
				"method": "rhf"
			}
		],
		"cosmo_sigma_profile": { 
			"-0.025": 0.0,
			"-0.024": 0.0,
			"-0.023": 0.0,
			"-0.022": 0.0,
			"-0.021": 0.0,
			"-0.02": 0.0,
			"-0.019": 0.0,
			"-0.018": 0.0,
			"-0.017": 0.194129508719,
			"-0.016": 0.824498590768,
			"-0.015": 1.2885793269,
			"-0.014": 0.769041286198,
			"-0.013": 1.22626424015,
			"-0.012": 1.21501363142,
			"-0.011": 1.25136782262,
			"-0.01": 1.58759846658,
			"-0.009": 0.815754831299,
			"-0.008": 1.65778906329,
			"-0.007": 3.23153470048,
			"-0.006": 9.897083923,
			"-0.005": 17.9742801195,
			"-0.004": 19.438314898,
			"-0.003": 20.2638797761,
			"-0.002": 17.9901183679,
			"-0.001": 16.8829386434,
			"0.0": 15.9103297271,
			"0.001": 15.6299577758,
			"0.002": 17.6864318992,
			"0.003": 20.3654370924,
			"0.004": 23.4879271085,
			"0.005": 15.6148924608,
			"0.006": 10.03147113,
			"0.007": 3.46498441444,
			"0.008": 1.89875557188,
			"0.009": 1.23636770931,
			"0.01": 0.820511222822,
			"0.011": 1.21858987324,
			"0.012": 1.55784651323,
			"0.013": 1.06769238031,
			"0.014": 1.15059491321,
			"0.015": 0.534857231197,
			"0.016": 0.824169199669,
			"0.017": 0.0133196856225,
			"0.018": 0.0,
			"0.019": 0.0,
			"0.02": 0.0,
			"0.021": 0.0,
			"0.022": 0.0,
			"0.023": 0.0,
			"0.024": 0.0,
			"0.025": 0.0
		}
	}
}
