{
	 "smiles": "CC1=CC(C)=C(C(C)=C1)S(=O)(=O)N1CCCC1C(O)=O", 
	 "Tm": 358.15, 
	 "num_atms": 39, 
	 "gaussian": { 
		 "optdone": 1, 
		 "sigma_profile": "yes", 
		 "theory": "DFT", 
		 "functional": "B3LYP", 
		 "basiset": "6-31G**", 
		 "properties": { 
			 "R2extent": 5952.6626, 
			 "electric_dipole_moment_norm": 3.96504048151, 
			 "electric_quadrupole_moment_norm": 19.1684201639, 
			 "total_energy": -1298.7306519, 
			 "HOMO_LUMO_gap": 0.21254, 
			 "cosmo_polarized_energy": -16.82, 
			 "cosmo_cavitation_energy": 40.65, 
			 "cosmo_dispersion_energy": -27.99, 
			 "cosmo_repulsion_energy": 2.11, 
			 "cosmo_total_nonelectrostatic_energy": 14.77, 
			 "SMD_solvation_energy": 7.19 
		},
		"coords": [
			{
				"x": 4.0178442245,
				"y": -2.815641327,
				"z": 2.4647782779,
				"element": "C" 
			},
			{
				"x": 3.1140070888,
				"y": -1.6601785114,
				"z": 2.1104609383,
				"element": "C" 
			},
			{
				"x": 3.6231859083,
				"y": -0.4944260111,
				"z": 1.5410566066,
				"element": "C" 
			},
			{
				"x": 2.815041541,
				"y": 0.5907723156,
				"z": 1.1741439058,
				"element": "C" 
			},
			{
				"x": 3.5255941493,
				"y": 1.7949295379,
				"z": 0.5898437893,
				"element": "C" 
			},
			{
				"x": 1.4209917404,
				"y": 0.467396752,
				"z": 1.3939563965,
				"element": "C" 
			},
			{
				"x": 0.867495857,
				"y": -0.6940804362,
				"z": 1.9920339397,
				"element": "C" 
			},
			{
				"x": -0.6046997398,
				"y": -0.8967791583,
				"z": 2.2680164389,
				"element": "C" 
			},
			{
				"x": 1.7378249767,
				"y": -1.7323606347,
				"z": 2.332184061,
				"element": "C" 
			},
			{
				"x": 0.3043775426,
				"y": 1.8363459894,
				"z": 1.007004131,
				"element": "S" 
			},
			{
				"x": 1.0413310289,
				"y": 2.8698790566,
				"z": 0.2631944244,
				"element": "O" 
			},
			{
				"x": -0.4369983438,
				"y": 2.2291250919,
				"z": 2.2122929575,
				"element": "O" 
			},
			{
				"x": -0.8342010865,
				"y": 1.1053248045,
				"z": -0.0264193343,
				"element": "N" 
			},
			{
				"x": -2.2335996373,
				"y": 1.597419879,
				"z": 0.0450738251,
				"element": "C" 
			},
			{
				"x": -2.4443710395,
				"y": 2.3057114956,
				"z": -1.2963670283,
				"element": "C" 
			},
			{
				"x": -1.6583641584,
				"y": 1.4175086344,
				"z": -2.2715103263,
				"element": "C" 
			},
			{
				"x": -0.429249609,
				"y": 0.9435854976,
				"z": -1.4332239608,
				"element": "C" 
			},
			{
				"x": -0.0993598722,
				"y": -0.5069097349,
				"z": -1.760447157,
				"element": "C" 
			},
			{
				"x": 0.7002420483,
				"y": -0.5759544007,
				"z": -2.8512993858,
				"element": "O" 
			},
			{
				"x": -0.5194452068,
				"y": -1.4866885726,
				"z": -1.1886898269,
				"element": "O" 
			},
			{
				"x": 3.7021456538,
				"y": -3.2986535312,
				"z": 3.394660131,
				"element": "H" 
			},
			{
				"x": 3.9990807616,
				"y": -3.582035596,
				"z": 1.6799583203,
				"element": "H" 
			},
			{
				"x": 5.055631146,
				"y": -2.4917341948,
				"z": 2.5827392565,
				"element": "H" 
			},
			{
				"x": 4.694628155,
				"y": -0.4112899712,
				"z": 1.3783352953,
				"element": "H" 
			},
			{
				"x": 4.6030329917,
				"y": 1.6111983574,
				"z": 0.5922248101,
				"element": "H" 
			},
			{
				"x": 3.326209052,
				"y": 2.7064790923,
				"z": 1.1563618376,
				"element": "H" 
			},
			{
				"x": 3.2115016228,
				"y": 2.0007803286,
				"z": -0.4357848358,
				"element": "H" 
			},
			{
				"x": -1.1354780786,
				"y": -1.0791780595,
				"z": 1.3290995067,
				"element": "H" 
			},
			{
				"x": -0.7407676492,
				"y": -1.7650599403,
				"z": 2.9175558426,
				"element": "H" 
			},
			{
				"x": -1.0545546131,
				"y": -0.0272483917,
				"z": 2.7501706414,
				"element": "H" 
			},
			{
				"x": 1.3184495122,
				"y": -2.6249580177,
				"z": 2.7895303133,
				"element": "H" 
			},
			{
				"x": -2.3663979273,
				"y": 2.2336503767,
				"z": 0.9195550672,
				"element": "H" 
			},
			{
				"x": -2.8991894066,
				"y": 0.7311705149,
				"z": 0.1452584868,
				"element": "H" 
			},
			{
				"x": -2.0115076215,
				"y": 3.3110437463,
				"z": -1.2582723543,
				"element": "H" 
			},
			{
				"x": -3.5002203872,
				"y": 2.3949336463,
				"z": -1.5684605168,
				"element": "H" 
			},
			{
				"x": -2.2659263454,
				"y": 0.5535080548,
				"z": -2.5623390405,
				"element": "H" 
			},
			{
				"x": -1.3428323979,
				"y": 1.9295149589,
				"z": -3.1829309932,
				"element": "H" 
			},
			{
				"x": 0.4397585802,
				"y": 1.5679125958,
				"z": -1.6591418751,
				"element": "H" 
			},
			{
				"x": 0.8263895391,
				"y": -1.5215142372,
				"z": -3.0389025656,
				"element": "H" 
			}
		],
		 "valence_orbital": [ 
			{
				"type": "occ",
				"energy": -0.28994,
				"method": "rhf"
			},
			{
				"type": "occ",
				"energy": -0.28186,
				"method": "rhf"
			},
			{
				"type": "occ",
				"energy": -0.25672,
				"method": "rhf"
			},
			{
				"type": "occ",
				"energy": -0.24321,
				"method": "rhf"
			},
			{
				"type": "occ",
				"energy": -0.24219,
				"method": "rhf"
			},
			{
				"type": "unocc",
				"energy": -0.02965,
				"method": "rhf"
			},
			{
				"type": "unocc",
				"energy": -0.00299,
				"method": "rhf"
			},
			{
				"type": "unocc",
				"energy": 0.00134,
				"method": "rhf"
			},
			{
				"type": "unocc",
				"energy": 0.05924,
				"method": "rhf"
			},
			{
				"type": "unocc",
				"energy": 0.06865,
				"method": "rhf"
			}
		],
		"cosmo_sigma_profile": { 
			"-0.025": 0.0,
			"-0.024": 0.0,
			"-0.023": 0.0,
			"-0.022": 0.0,
			"-0.021": 0.0,
			"-0.02": 0.0,
			"-0.019": 0.0833443196353,
			"-0.018": 0.941192826994,
			"-0.017": 1.01258698652,
			"-0.016": 0.516026851247,
			"-0.015": 0.884910576691,
			"-0.014": 0.937285363621,
			"-0.013": 0.33032345641,
			"-0.012": 0.675241881286,
			"-0.011": 1.20482472183,
			"-0.01": 0.879264262254,
			"-0.009": 0.244901440729,
			"-0.008": 0.590401941438,
			"-0.007": 1.01265647333,
			"-0.006": 6.73990407023,
			"-0.005": 22.5244463624,
			"-0.004": 33.5980642384,
			"-0.003": 35.9185229362,
			"-0.002": 32.6240337349,
			"-0.001": 33.6292118676,
			"0.0": 30.8722330234,
			"0.001": 18.7879385871,
			"0.002": 13.2801153521,
			"0.003": 13.7504841096,
			"0.004": 13.737696569,
			"0.005": 7.28679796094,
			"0.006": 5.7282819422,
			"0.007": 7.00707349276,
			"0.008": 6.10234152087,
			"0.009": 6.46908201296,
			"0.01": 6.92740683938,
			"0.011": 9.26274451027,
			"0.012": 5.65757735105,
			"0.013": 0.177208727519,
			"0.014": 0.00107693117588,
			"0.015": 0.0,
			"0.016": 0.0,
			"0.017": 0.0,
			"0.018": 0.0,
			"0.019": 0.0,
			"0.02": 0.0,
			"0.021": 0.0,
			"0.022": 0.0,
			"0.023": 0.0,
			"0.024": 0.0,
			"0.025": 0.0
		}
	}
}
