{
	 "smiles": "C1=CC=C(C=C1)P(C#CP(C1=CC=CC=C1)C1=CC=CC=C1)C1=CC=CC=C1", 
	 "Tm": 359.15, 
	 "num_atms": 48, 
	 "gaussian": { 
		 "optdone": 1, 
		 "sigma_profile": "yes", 
		 "theory": "DFT", 
		 "functional": "B3LYP", 
		 "basiset": "6-31G**", 
		 "properties": { 
			 "R2extent": 14730.7323, 
			 "electric_dipole_moment_norm": 2.06394956818, 
			 "electric_quadrupole_moment_norm": 8.04945529213, 
			 "total_energy": -1685.46085276, 
			 "HOMO_LUMO_gap": 0.19287, 
			 "cosmo_polarized_energy": -11.77, 
			 "cosmo_cavitation_energy": 56.75, 
			 "cosmo_dispersion_energy": -37.81, 
			 "cosmo_repulsion_energy": 3.16, 
			 "cosmo_total_nonelectrostatic_energy": 22.1, 
			 "SMD_solvation_energy": 10.65 
		},
		"coords": [
			{
				"x": 4.3699711574,
				"y": -1.5694416898,
				"z": 2.6295627008,
				"element": "C" 
			},
			{
				"x": 3.1066485082,
				"y": -0.9959577334,
				"z": 2.8032482251,
				"element": "C" 
			},
			{
				"x": 2.1443233604,
				"y": -1.1046495858,
				"z": 1.8007671326,
				"element": "C" 
			},
			{
				"x": 2.4345143219,
				"y": -1.7897061557,
				"z": 0.6108665623,
				"element": "C" 
			},
			{
				"x": 3.7016211909,
				"y": -2.3656680126,
				"z": 0.4473446048,
				"element": "C" 
			},
			{
				"x": 4.6670235373,
				"y": -2.2537920444,
				"z": 1.4512380703,
				"element": "C" 
			},
			{
				"x": 1.2200082659,
				"y": -1.9857379231,
				"z": -0.7796382928,
				"element": "P" 
			},
			{
				"x": 1.0100035266,
				"y": -0.3091405448,
				"z": -1.2999322782,
				"element": "C" 
			},
			{
				"x": 0.8925387874,
				"y": 0.809226343,
				"z": -1.7853158288,
				"element": "C" 
			},
			{
				"x": 0.8844842669,
				"y": 2.4798827378,
				"z": -2.3640888193,
				"element": "P" 
			},
			{
				"x": 0.2497707743,
				"y": 2.2917979525,
				"z": -4.0935088832,
				"element": "C" 
			},
			{
				"x": 0.2170225342,
				"y": 3.4497431686,
				"z": -4.8881990136,
				"element": "C" 
			},
			{
				"x": -0.2261303018,
				"y": 3.3925088148,
				"z": -6.2087527724,
				"element": "C" 
			},
			{
				"x": -0.6251633083,
				"y": 2.1727507008,
				"z": -6.760840863,
				"element": "C" 
			},
			{
				"x": -0.5810959452,
				"y": 1.0144946757,
				"z": -5.9839877384,
				"element": "C" 
			},
			{
				"x": -0.1486663243,
				"y": 1.0718156688,
				"z": -4.6569257162,
				"element": "C" 
			},
			{
				"x": -0.5964850403,
				"y": 3.154678958,
				"z": -1.467040668,
				"element": "C" 
			},
			{
				"x": -0.3711365392,
				"y": 4.139091316,
				"z": -0.4953454446,
				"element": "C" 
			},
			{
				"x": -1.4378184691,
				"y": 4.6843583202,
				"z": 0.2239618172,
				"element": "C" 
			},
			{
				"x": -2.7403228535,
				"y": 4.2536218078,
				"z": -0.0275657475,
				"element": "C" 
			},
			{
				"x": -2.9755254849,
				"y": 3.27645659,
				"z": -0.9995957498,
				"element": "C" 
			},
			{
				"x": -1.9111092854,
				"y": 2.730011137,
				"z": -1.7154977167,
				"element": "C" 
			},
			{
				"x": -0.3667988323,
				"y": -2.3106696768,
				"z": 0.1191511307,
				"element": "C" 
			},
			{
				"x": -1.3690690074,
				"y": -1.3516255395,
				"z": 0.3214278796,
				"element": "C" 
			},
			{
				"x": -2.5507801645,
				"y": -1.6947952696,
				"z": 0.9828203919,
				"element": "C" 
			},
			{
				"x": -2.7438760616,
				"y": -2.9943177051,
				"z": 1.4528035816,
				"element": "C" 
			},
			{
				"x": -1.7519814436,
				"y": -3.9574257698,
				"z": 1.2520070223,
				"element": "C" 
			},
			{
				"x": -0.5767590576,
				"y": -3.620300699,
				"z": 0.5821627125,
				"element": "C" 
			},
			{
				"x": 5.1179072716,
				"y": -1.4838123262,
				"z": 3.4128566448,
				"element": "H" 
			},
			{
				"x": 2.8727149835,
				"y": -0.463425367,
				"z": 3.7209750621,
				"element": "H" 
			},
			{
				"x": 1.1633917074,
				"y": -0.6607826445,
				"z": 1.942229463,
				"element": "H" 
			},
			{
				"x": 3.9325632682,
				"y": -2.9029429881,
				"z": -0.4686629926,
				"element": "H" 
			},
			{
				"x": 5.6462093142,
				"y": -2.7034078523,
				"z": 1.3126567572,
				"element": "H" 
			},
			{
				"x": 0.5406939584,
				"y": 4.4010270657,
				"z": -4.4722529834,
				"element": "H" 
			},
			{
				"x": -0.2509993089,
				"y": 4.2974025345,
				"z": -6.8094558747,
				"element": "H" 
			},
			{
				"x": -0.962376261,
				"y": 2.1256562058,
				"z": -7.7923894258,
				"element": "H" 
			},
			{
				"x": -0.8855036833,
				"y": 0.0618419254,
				"z": -6.4087209656,
				"element": "H" 
			},
			{
				"x": -0.1151760088,
				"y": 0.1674636779,
				"z": -4.0572951369,
				"element": "H" 
			},
			{
				"x": 0.6426552639,
				"y": 4.4796176362,
				"z": -0.3020898733,
				"element": "H" 
			},
			{
				"x": -1.2501960349,
				"y": 5.4464803196,
				"z": 0.9750765497,
				"element": "H" 
			},
			{
				"x": -3.5715458918,
				"y": 4.6793651662,
				"z": 0.5274957431,
				"element": "H" 
			},
			{
				"x": -3.9897232934,
				"y": 2.9424154686,
				"z": -1.2008414602,
				"element": "H" 
			},
			{
				"x": -2.1001262561,
				"y": 1.9772412117,
				"z": -2.4751395764,
				"element": "H" 
			},
			{
				"x": -1.2266385167,
				"y": -0.3385557164,
				"z": -0.0418449218,
				"element": "H" 
			},
			{
				"x": -3.3193004432,
				"y": -0.9414295494,
				"z": 1.1328596679,
				"element": "H" 
			},
			{
				"x": -3.6633209144,
				"y": -3.2578584238,
				"z": 1.9678349181,
				"element": "H" 
			},
			{
				"x": -1.8973329602,
				"y": -4.9731316471,
				"z": 1.6091307613,
				"element": "H" 
			},
			{
				"x": 0.1831916932,
				"y": -4.3806745385,
				"z": 0.4178513442,
				"element": "H" 
			}
		],
		 "valence_orbital": [ 
			{
				"type": "occ",
				"energy": -0.25091,
				"method": "rhf"
			},
			{
				"type": "occ",
				"energy": -0.24859,
				"method": "rhf"
			},
			{
				"type": "occ",
				"energy": -0.24725,
				"method": "rhf"
			},
			{
				"type": "occ",
				"energy": -0.2206,
				"method": "rhf"
			},
			{
				"type": "occ",
				"energy": -0.2195,
				"method": "rhf"
			},
			{
				"type": "unocc",
				"energy": -0.02663,
				"method": "rhf"
			},
			{
				"type": "unocc",
				"energy": -0.02555,
				"method": "rhf"
			},
			{
				"type": "unocc",
				"energy": -0.01866,
				"method": "rhf"
			},
			{
				"type": "unocc",
				"energy": -0.01826,
				"method": "rhf"
			},
			{
				"type": "unocc",
				"energy": -0.00677,
				"method": "rhf"
			}
		],
		"cosmo_sigma_profile": { 
			"-0.025": 0.0,
			"-0.024": 0.0,
			"-0.023": 0.0,
			"-0.022": 0.0,
			"-0.021": 0.0,
			"-0.02": 0.0,
			"-0.019": 0.0,
			"-0.018": 0.0,
			"-0.017": 0.0,
			"-0.016": 0.0,
			"-0.015": 0.0,
			"-0.014": 0.0,
			"-0.013": 0.0,
			"-0.012": 0.0,
			"-0.011": 0.0,
			"-0.01": 0.0,
			"-0.009": 0.0,
			"-0.008": 0.0,
			"-0.007": 0.740246076495,
			"-0.006": 25.669214339,
			"-0.005": 38.1405327697,
			"-0.004": 44.0885575472,
			"-0.003": 36.0439444249,
			"-0.002": 33.934186707,
			"-0.001": 32.8972712362,
			"0.0": 33.3572895877,
			"0.001": 36.2802032607,
			"0.002": 35.8624532447,
			"0.003": 40.1532027593,
			"0.004": 43.1760181277,
			"0.005": 44.9454381756,
			"0.006": 7.29650939407,
			"0.007": 2.01716876815,
			"0.008": 1.72403638688,
			"0.009": 1.5010196531,
			"0.01": 1.33099137529,
			"0.011": 0.706743170152,
			"0.012": 0.0,
			"0.013": 0.0,
			"0.014": 0.0,
			"0.015": 0.0,
			"0.016": 0.0,
			"0.017": 0.0,
			"0.018": 0.0,
			"0.019": 0.0,
			"0.02": 0.0,
			"0.021": 0.0,
			"0.022": 0.0,
			"0.023": 0.0,
			"0.024": 0.0,
			"0.025": 0.0
		}
	}
}
