{
	 "smiles": "ClC1=C(C=CC(=C1)N=C=S)C#N", 
	 "Tm": 349.15, 
	 "num_atms": 15, 
	 "gaussian": { 
		 "optdone": 1, 
		 "sigma_profile": "yes", 
		 "theory": "DFT", 
		 "functional": "B3LYP", 
		 "basiset": "6-31G**", 
		 "properties": { 
			 "R2extent": 4038.418, 
			 "electric_dipole_moment_norm": 2.4069767718, 
			 "electric_quadrupole_moment_norm": 23.1846818035, 
			 "total_energy": -1274.51296443, 
			 "HOMO_LUMO_gap": 0.16287, 
			 "cosmo_polarized_energy": -10.48, 
			 "cosmo_cavitation_energy": 26.38, 
			 "cosmo_dispersion_energy": -19.08, 
			 "cosmo_repulsion_energy": 1.5, 
			 "cosmo_total_nonelectrostatic_energy": 8.8, 
			 "SMD_solvation_energy": 6.18 
		},
		"coords": [
			{
				"x": -2.3702589773,
				"y": 2.4830865163,
				"z": -0.546715668,
				"element": "Cl" 
			},
			{
				"x": -1.1455424753,
				"y": 1.2581262639,
				"z": -0.3603608894,
				"element": "C" 
			},
			{
				"x": -1.3613294441,
				"y": -0.0438712277,
				"z": -0.855614322,
				"element": "C" 
			},
			{
				"x": -0.3486563733,
				"y": -1.0066409085,
				"z": -0.6862115562,
				"element": "C" 
			},
			{
				"x": 0.8402827979,
				"y": -0.6924427345,
				"z": -0.0471049345,
				"element": "C" 
			},
			{
				"x": 1.038560935,
				"y": 0.6118047059,
				"z": 0.4408455331,
				"element": "C" 
			},
			{
				"x": 0.0410112339,
				"y": 1.5887388266,
				"z": 0.2825343594,
				"element": "C" 
			},
			{
				"x": 2.2045305938,
				"y": 0.9365722384,
				"z": 1.0728901578,
				"element": "N" 
			},
			{
				"x": 3.2203297777,
				"y": 1.2195025647,
				"z": 1.6235694872,
				"element": "C" 
			},
			{
				"x": 4.5761676436,
				"y": 1.596516513,
				"z": 2.3580892422,
				"element": "S" 
			},
			{
				"x": -2.5744058343,
				"y": -0.4070975843,
				"z": -1.5204687571,
				"element": "C" 
			},
			{
				"x": -3.5460085969,
				"y": -0.7405156844,
				"z": -2.0659109439,
				"element": "N" 
			},
			{
				"x": -0.5132415308,
				"y": -2.0086272144,
				"z": -1.0667490757,
				"element": "H" 
			},
			{
				"x": 1.6176262209,
				"y": -1.4365040453,
				"z": 0.0813996362,
				"element": "H" 
			},
			{
				"x": 0.1991340292,
				"y": 2.5913517703,
				"z": 0.6601077309,
				"element": "H" 
			}
		],
		 "valence_orbital": [ 
			{
				"type": "occ",
				"energy": -0.33784,
				"method": "rhf"
			},
			{
				"type": "occ",
				"energy": -0.30921,
				"method": "rhf"
			},
			{
				"type": "occ",
				"energy": -0.28753,
				"method": "rhf"
			},
			{
				"type": "occ",
				"energy": -0.27337,
				"method": "rhf"
			},
			{
				"type": "occ",
				"energy": -0.25482,
				"method": "rhf"
			},
			{
				"type": "unocc",
				"energy": -0.09195,
				"method": "rhf"
			},
			{
				"type": "unocc",
				"energy": -0.05246,
				"method": "rhf"
			},
			{
				"type": "unocc",
				"energy": -0.01994,
				"method": "rhf"
			},
			{
				"type": "unocc",
				"energy": -0.00275,
				"method": "rhf"
			},
			{
				"type": "unocc",
				"energy": 0.00333,
				"method": "rhf"
			}
		],
		"cosmo_sigma_profile": { 
			"-0.025": 0.0,
			"-0.024": 0.0,
			"-0.023": 0.0,
			"-0.022": 0.0,
			"-0.021": 0.0,
			"-0.02": 0.0,
			"-0.019": 0.0,
			"-0.018": 0.0,
			"-0.017": 0.0,
			"-0.016": 0.0,
			"-0.015": 0.0,
			"-0.014": 0.0,
			"-0.013": 0.0,
			"-0.012": 0.0,
			"-0.011": 0.0,
			"-0.01": 1.27000495498,
			"-0.009": 5.70161593943,
			"-0.008": 7.28566315355,
			"-0.007": 6.56459423027,
			"-0.006": 6.02990237433,
			"-0.005": 6.0344630271,
			"-0.004": 9.65178500713,
			"-0.003": 18.3573709362,
			"-0.002": 26.9904207648,
			"-0.001": 24.0883167612,
			"0.0": 16.9323216971,
			"0.001": 12.4086794905,
			"0.002": 14.5241341668,
			"0.003": 16.1442568659,
			"0.004": 12.2038942389,
			"0.005": 15.8825962701,
			"0.006": 3.35375403582,
			"0.007": 3.04109495436,
			"0.008": 3.58966590781,
			"0.009": 3.20312725136,
			"0.01": 2.79942421144,
			"0.011": 2.61569806468,
			"0.012": 2.04004159519,
			"0.013": 0.391809567156,
			"0.014": 0.0,
			"0.015": 0.0,
			"0.016": 0.0,
			"0.017": 0.0,
			"0.018": 0.0,
			"0.019": 0.0,
			"0.02": 0.0,
			"0.021": 0.0,
			"0.022": 0.0,
			"0.023": 0.0,
			"0.024": 0.0,
			"0.025": 0.0
		}
	}
}
