{
	 "smiles": "CCOC(=O)CCC(=O)OCC", 
	 "Tm": 252.65, 
	 "num_atms": 26, 
	 "gaussian": { 
		 "optdone": 1, 
		 "sigma_profile": "yes", 
		 "theory": "DFT", 
		 "functional": "B3LYP", 
		 "basiset": "6-31G**", 
		 "properties": { 
			 "R2extent": 2565.1764, 
			 "electric_dipole_moment_norm": 2.45657989286, 
			 "electric_quadrupole_moment_norm": 8.47641102, 
			 "total_energy": -614.218327099, 
			 "HOMO_LUMO_gap": 0.27086, 
			 "cosmo_polarized_energy": -10.94, 
			 "cosmo_cavitation_energy": 29.88, 
			 "cosmo_dispersion_energy": -19.73, 
			 "cosmo_repulsion_energy": 1.61, 
			 "cosmo_total_nonelectrostatic_energy": 11.75, 
			 "SMD_solvation_energy": 6.96 
		},
		"coords": [
			{
				"x": 2.0682259578,
				"y": 0.0190169931,
				"z": 2.3725346183,
				"element": "C" 
			},
			{
				"x": 1.7305814486,
				"y": 0.8576733637,
				"z": 1.1488818926,
				"element": "C" 
			},
			{
				"x": 0.9454705266,
				"y": 0.0945174633,
				"z": 0.1984304472,
				"element": "O" 
			},
			{
				"x": 1.6249191258,
				"y": -0.7168193575,
				"z": -0.643490565,
				"element": "C" 
			},
			{
				"x": 2.8339130387,
				"y": -0.7728337825,
				"z": -0.7085509551,
				"element": "O" 
			},
			{
				"x": 0.6675536112,
				"y": -1.5580014042,
				"z": -1.4665481224,
				"element": "C" 
			},
			{
				"x": -0.0783055418,
				"y": -2.6058648673,
				"z": -0.6085068178,
				"element": "C" 
			},
			{
				"x": -1.0873512403,
				"y": -2.0137214816,
				"z": 0.3602688426,
				"element": "C" 
			},
			{
				"x": -1.067660187,
				"y": -2.1629473662,
				"z": 1.5630245258,
				"element": "O" 
			},
			{
				"x": -2.0409194064,
				"y": -1.3251663977,
				"z": -0.3062165575,
				"element": "O" 
			},
			{
				"x": -3.06576934,
				"y": -0.6895315602,
				"z": 0.4950334333,
				"element": "C" 
			},
			{
				"x": -2.6278310244,
				"y": 0.6925401654,
				"z": 0.9547731961,
				"element": "C" 
			},
			{
				"x": 2.7567272427,
				"y": -0.7869037233,
				"z": 2.106556407,
				"element": "H" 
			},
			{
				"x": 2.549343992,
				"y": 0.6441246399,
				"z": 3.132168123,
				"element": "H" 
			},
			{
				"x": 1.1626070686,
				"y": -0.4203312829,
				"z": 2.8000146384,
				"element": "H" 
			},
			{
				"x": 1.0916067044,
				"y": 1.7058353378,
				"z": 1.4054510011,
				"element": "H" 
			},
			{
				"x": 2.6321970873,
				"y": 1.2195293252,
				"z": 0.6490083103,
				"element": "H" 
			},
			{
				"x": -0.0639963977,
				"y": -0.9075072837,
				"z": -1.9546243913,
				"element": "H" 
			},
			{
				"x": 1.2593593981,
				"y": -2.0634163142,
				"z": -2.2319261968,
				"element": "H" 
			},
			{
				"x": -0.6190054111,
				"y": -3.2781040566,
				"z": -1.2841872474,
				"element": "H" 
			},
			{
				"x": 0.6247441225,
				"y": -3.2049113991,
				"z": -0.0255655127,
				"element": "H" 
			},
			{
				"x": -3.2964644588,
				"y": -1.3346943088,
				"z": 1.3459936568,
				"element": "H" 
			},
			{
				"x": -3.934184934,
				"y": -0.6355300208,
				"z": -0.1661087874,
				"element": "H" 
			},
			{
				"x": -1.7690060228,
				"y": 0.617890241,
				"z": 1.6254823187,
				"element": "H" 
			},
			{
				"x": -2.352893432,
				"y": 1.31831747,
				"z": 0.1009436769,
				"element": "H" 
			},
			{
				"x": -3.446861928,
				"y": 1.1812396073,
				"z": 1.4931600651,
				"element": "H" 
			}
		],
		 "valence_orbital": [ 
			{
				"type": "occ",
				"energy": -0.33604,
				"method": "rhf"
			},
			{
				"type": "occ",
				"energy": -0.3003,
				"method": "rhf"
			},
			{
				"type": "occ",
				"energy": -0.29586,
				"method": "rhf"
			},
			{
				"type": "occ",
				"energy": -0.26968,
				"method": "rhf"
			},
			{
				"type": "occ",
				"energy": -0.26933,
				"method": "rhf"
			},
			{
				"type": "unocc",
				"energy": 0.00153,
				"method": "rhf"
			},
			{
				"type": "unocc",
				"energy": 0.01756,
				"method": "rhf"
			},
			{
				"type": "unocc",
				"energy": 0.08793,
				"method": "rhf"
			},
			{
				"type": "unocc",
				"energy": 0.10782,
				"method": "rhf"
			},
			{
				"type": "unocc",
				"energy": 0.11469,
				"method": "rhf"
			}
		],
		"cosmo_sigma_profile": { 
			"-0.025": 0.0,
			"-0.024": 0.0,
			"-0.023": 0.0,
			"-0.022": 0.0,
			"-0.021": 0.0,
			"-0.02": 0.0,
			"-0.019": 0.0,
			"-0.018": 0.0,
			"-0.017": 0.0,
			"-0.016": 0.0,
			"-0.015": 0.0,
			"-0.014": 0.0,
			"-0.013": 0.0,
			"-0.012": 0.0,
			"-0.011": 0.0,
			"-0.01": 0.0,
			"-0.009": 0.0,
			"-0.008": 0.0,
			"-0.007": 1.59639016882,
			"-0.006": 10.1499062391,
			"-0.005": 19.4942339741,
			"-0.004": 27.3677441039,
			"-0.003": 30.8367477618,
			"-0.002": 25.780450396,
			"-0.001": 18.7353483333,
			"0.0": 20.2458012208,
			"0.001": 11.7634783004,
			"0.002": 9.69925391176,
			"0.003": 7.52704673436,
			"0.004": 9.68200863876,
			"0.005": 7.87641492038,
			"0.006": 4.88813653916,
			"0.007": 3.44394539903,
			"0.008": 3.4968142374,
			"0.009": 3.36017359067,
			"0.01": 3.33101917079,
			"0.011": 5.15290180189,
			"0.012": 7.45351379865,
			"0.013": 1.66808748061,
			"0.014": 0.000367742365819,
			"0.015": 0.0,
			"0.016": 0.0,
			"0.017": 0.0,
			"0.018": 0.0,
			"0.019": 0.0,
			"0.02": 0.0,
			"0.021": 0.0,
			"0.022": 0.0,
			"0.023": 0.0,
			"0.024": 0.0,
			"0.025": 0.0
		}
	}
}
