{
	 "smiles": "CC1CCCC(NC(=O)NC(=O)CCl)C1C", 
	 "Tm": 405.15, 
	 "num_atms": 35, 
	 "gaussian": { 
		 "optdone": 1, 
		 "sigma_profile": "yes", 
		 "theory": "DFT", 
		 "functional": "B3LYP", 
		 "basiset": "6-31G**", 
		 "properties": { 
			 "R2extent": 5666.193, 
			 "electric_dipole_moment_norm": 2.20414480922, 
			 "electric_quadrupole_moment_norm": 12.4070245393, 
			 "total_energy": -1150.83321658, 
			 "HOMO_LUMO_gap": 0.22356, 
			 "cosmo_polarized_energy": -11.85, 
			 "cosmo_cavitation_energy": 36.86, 
			 "cosmo_dispersion_energy": -25.79, 
			 "cosmo_repulsion_energy": 2.03, 
			 "cosmo_total_nonelectrostatic_energy": 13.1, 
			 "SMD_solvation_energy": 6.47 
		},
		"coords": [
			{
				"x": 1.8990153487,
				"y": 0.642048167,
				"z": -1.5551573837,
				"element": "C" 
			},
			{
				"x": 0.7244547082,
				"y": 1.1595277769,
				"z": -2.4060949078,
				"element": "C" 
			},
			{
				"x": 0.0236129335,
				"y": 0.0165410058,
				"z": -3.1765489969,
				"element": "C" 
			},
			{
				"x": -0.8806738392,
				"y": -0.8428283335,
				"z": -2.2802490092,
				"element": "C" 
			},
			{
				"x": -1.9259125975,
				"y": 0.0272804223,
				"z": -1.5647490019,
				"element": "C" 
			},
			{
				"x": -1.2889877963,
				"y": 1.1690120209,
				"z": -0.7540237136,
				"element": "C" 
			},
			{
				"x": -0.6677510861,
				"y": 0.6114901385,
				"z": 0.4529230324,
				"element": "N" 
			},
			{
				"x": -0.4739601335,
				"y": 1.3675852297,
				"z": 1.5520617829,
				"element": "C" 
			},
			{
				"x": -0.7841123193,
				"y": 2.541355727,
				"z": 1.6953073016,
				"element": "O" 
			},
			{
				"x": 0.1579098031,
				"y": 0.6970879791,
				"z": 2.6541252551,
				"element": "N" 
			},
			{
				"x": 0.6401345089,
				"y": -0.5714712968,
				"z": 2.7194552055,
				"element": "C" 
			},
			{
				"x": 0.5910416209,
				"y": -1.3995086289,
				"z": 1.8120574275,
				"element": "O" 
			},
			{
				"x": 1.2994439099,
				"y": -1.0232882809,
				"z": 4.0237846732,
				"element": "C" 
			},
			{
				"x": 1.3850310295,
				"y": 0.1923214271,
				"z": 5.3595062886,
				"element": "Cl" 
			},
			{
				"x": -0.2950110934,
				"y": 2.0167831933,
				"z": -1.6003346398,
				"element": "C" 
			},
			{
				"x": -1.0669830005,
				"y": 2.985349621,
				"z": -2.5144359784,
				"element": "C" 
			},
			{
				"x": 2.65041742,
				"y": 0.1649621147,
				"z": -2.1947073899,
				"element": "H" 
			},
			{
				"x": 1.5964272701,
				"y": -0.0910516814,
				"z": -0.8029558658,
				"element": "H" 
			},
			{
				"x": 2.3888744702,
				"y": 1.4671532633,
				"z": -1.0264896754,
				"element": "H" 
			},
			{
				"x": 1.1659094841,
				"y": 1.8304377866,
				"z": -3.1564142941,
				"element": "H" 
			},
			{
				"x": 0.7784518185,
				"y": -0.6105683135,
				"z": -3.6666630058,
				"element": "H" 
			},
			{
				"x": -0.5885420141,
				"y": 0.4428173275,
				"z": -3.9822233501,
				"element": "H" 
			},
			{
				"x": -1.3869889188,
				"y": -1.6079231744,
				"z": -2.8802182294,
				"element": "H" 
			},
			{
				"x": -0.2742677393,
				"y": -1.3924518295,
				"z": -1.5479056355,
				"element": "H" 
			},
			{
				"x": -2.5930529091,
				"y": 0.4701342375,
				"z": -2.3137545378,
				"element": "H" 
			},
			{
				"x": -2.5579869562,
				"y": -0.5776940409,
				"z": -0.9042288373,
				"element": "H" 
			},
			{
				"x": -2.0755418629,
				"y": 1.8440528567,
				"z": -0.4009843264,
				"element": "H" 
			},
			{
				"x": -0.347378847,
				"y": -0.3512328178,
				"z": 0.4912028153,
				"element": "H" 
			},
			{
				"x": 0.2637228634,
				"y": 1.3005493699,
				"z": 3.4609226386,
				"element": "H" 
			},
			{
				"x": 2.3196146243,
				"y": -1.3332687131,
				"z": 3.7951040344,
				"element": "H" 
			},
			{
				"x": 0.7472129601,
				"y": -1.8855098325,
				"z": 4.3991392294,
				"element": "H" 
			},
			{
				"x": 0.264254396,
				"y": 2.6342659999,
				"z": -0.8872359051,
				"element": "H" 
			},
			{
				"x": -1.7488877251,
				"y": 3.6131809216,
				"z": -1.9311752363,
				"element": "H" 
			},
			{
				"x": -1.6615357758,
				"y": 2.4652289725,
				"z": -3.2730713006,
				"element": "H" 
			},
			{
				"x": -0.3743545553,
				"y": 3.6494313843,
				"z": -3.0417684635,
				"element": "H" 
			}
		],
		 "valence_orbital": [ 
			{
				"type": "occ",
				"energy": -0.29681,
				"method": "rhf"
			},
			{
				"type": "occ",
				"energy": -0.28949,
				"method": "rhf"
			},
			{
				"type": "occ",
				"energy": -0.28852,
				"method": "rhf"
			},
			{
				"type": "occ",
				"energy": -0.27048,
				"method": "rhf"
			},
			{
				"type": "occ",
				"energy": -0.24837,
				"method": "rhf"
			},
			{
				"type": "unocc",
				"energy": -0.02481,
				"method": "rhf"
			},
			{
				"type": "unocc",
				"energy": 0.00237,
				"method": "rhf"
			},
			{
				"type": "unocc",
				"energy": 0.06691,
				"method": "rhf"
			},
			{
				"type": "unocc",
				"energy": 0.07326,
				"method": "rhf"
			},
			{
				"type": "unocc",
				"energy": 0.09058,
				"method": "rhf"
			}
		],
		"cosmo_sigma_profile": { 
			"-0.025": 0.0,
			"-0.024": 0.0,
			"-0.023": 0.0,
			"-0.022": 0.0,
			"-0.021": 0.0,
			"-0.02": 0.0,
			"-0.019": 0.0,
			"-0.018": 0.0,
			"-0.017": 0.0,
			"-0.016": 0.0,
			"-0.015": 0.0,
			"-0.014": 0.0,
			"-0.013": 0.0,
			"-0.012": 0.0,
			"-0.011": 0.533333701388,
			"-0.01": 2.96898483613,
			"-0.009": 5.57010349644,
			"-0.008": 5.01443494253,
			"-0.007": 5.32907662077,
			"-0.006": 7.33966238872,
			"-0.005": 7.52007267746,
			"-0.004": 6.51259522325,
			"-0.003": 22.1370014363,
			"-0.002": 40.0514449656,
			"-0.001": 42.3924383713,
			"0.0": 40.9663104202,
			"0.001": 34.0773795327,
			"0.002": 16.7946511593,
			"0.003": 6.42743847091,
			"0.004": 8.09559337314,
			"0.005": 8.95030417259,
			"0.006": 3.1729070405,
			"0.007": 2.58925828858,
			"0.008": 2.91983149018,
			"0.009": 2.3064240739,
			"0.01": 3.36687032547,
			"0.011": 2.66635861205,
			"0.012": 3.73545922445,
			"0.013": 5.38726231604,
			"0.014": 2.34844745317,
			"0.015": 0.0,
			"0.016": 0.0,
			"0.017": 0.0,
			"0.018": 0.0,
			"0.019": 0.0,
			"0.02": 0.0,
			"0.021": 0.0,
			"0.022": 0.0,
			"0.023": 0.0,
			"0.024": 0.0,
			"0.025": 0.0
		}
	}
}
