{
	 "smiles": "CC(=O)C1=C2C=CC=CC2=CC2=C1C=CC=C2", 
	 "Tm": 347.15, 
	 "num_atms": 29, 
	 "gaussian": { 
		 "optdone": 1, 
		 "sigma_profile": "yes", 
		 "theory": "DFT", 
		 "functional": "B3LYP", 
		 "basiset": "6-31G**", 
		 "properties": { 
			 "R2extent": 3993.1739, 
			 "electric_dipole_moment_norm": 2.78945371354, 
			 "electric_quadrupole_moment_norm": 14.1157799094, 
			 "total_energy": -692.167833414, 
			 "HOMO_LUMO_gap": 0.12845, 
			 "cosmo_polarized_energy": -9.77, 
			 "cosmo_cavitation_energy": 32.15, 
			 "cosmo_dispersion_energy": -23.27, 
			 "cosmo_repulsion_energy": 1.76, 
			 "cosmo_total_nonelectrostatic_energy": 10.64, 
			 "SMD_solvation_energy": 5.55 
		},
		"coords": [
			{
				"x": 3.2561975845,
				"y": -0.6466790634,
				"z": -0.2652887549,
				"element": "C" 
			},
			{
				"x": 2.0819627973,
				"y": -1.1880491839,
				"z": -1.0646344475,
				"element": "C" 
			},
			{
				"x": 2.2519934428,
				"y": -1.7937942903,
				"z": -2.1080116399,
				"element": "O" 
			},
			{
				"x": 0.6969290018,
				"y": -0.846640972,
				"z": -0.560349803,
				"element": "C" 
			},
			{
				"x": 0.2201276906,
				"y": -1.4126422759,
				"z": 0.6424914369,
				"element": "C" 
			},
			{
				"x": 0.9498881227,
				"y": -2.4017526377,
				"z": 1.3793921619,
				"element": "C" 
			},
			{
				"x": 0.454959379,
				"y": -2.9310280998,
				"z": 2.5428878487,
				"element": "C" 
			},
			{
				"x": -0.8086549763,
				"y": -2.5149568006,
				"z": 3.0517096984,
				"element": "C" 
			},
			{
				"x": -1.5504529013,
				"y": -1.5893209601,
				"z": 2.3682722925,
				"element": "C" 
			},
			{
				"x": -1.0738325441,
				"y": -1.0157128254,
				"z": 1.1480187285,
				"element": "C" 
			},
			{
				"x": -1.8325993826,
				"y": -0.0851829919,
				"z": 0.4311360497,
				"element": "C" 
			},
			{
				"x": -1.3844246639,
				"y": 0.4564317551,
				"z": -0.7778548725,
				"element": "C" 
			},
			{
				"x": -0.0965515573,
				"y": 0.0592318274,
				"z": -1.3014634996,
				"element": "C" 
			},
			{
				"x": 0.3263649611,
				"y": 0.6315206766,
				"z": -2.5453711074,
				"element": "C" 
			},
			{
				"x": -0.4624389075,
				"y": 1.5301971065,
				"z": -3.2148371135,
				"element": "C" 
			},
			{
				"x": -1.728116374,
				"y": 1.9232984277,
				"z": -2.6926941478,
				"element": "C" 
			},
			{
				"x": -2.1733619867,
				"y": 1.3985638221,
				"z": -1.5097311476,
				"element": "C" 
			},
			{
				"x": 3.109147026,
				"y": -0.7415880823,
				"z": 0.8130252657,
				"element": "H" 
			},
			{
				"x": 4.1780885693,
				"y": -1.1415491713,
				"z": -0.5774094494,
				"element": "H" 
			},
			{
				"x": 3.3424672936,
				"y": 0.4265357013,
				"z": -0.4803517239,
				"element": "H" 
			},
			{
				"x": 1.8984075817,
				"y": -2.7605495623,
				"z": 0.992741443,
				"element": "H" 
			},
			{
				"x": 1.0248849466,
				"y": -3.6843735081,
				"z": 3.0788596177,
				"element": "H" 
			},
			{
				"x": -1.1833876846,
				"y": -2.9451490521,
				"z": 3.975687146,
				"element": "H" 
			},
			{
				"x": -2.523593574,
				"y": -1.2768642115,
				"z": 2.7381614342,
				"element": "H" 
			},
			{
				"x": -2.8011096185,
				"y": 0.2202326093,
				"z": 0.8206868752,
				"element": "H" 
			},
			{
				"x": 1.2750980404,
				"y": 0.3252583884,
				"z": -2.9701597737,
				"element": "H" 
			},
			{
				"x": -0.1234173845,
				"y": 1.9448380109,
				"z": -4.1597375566,
				"element": "H" 
			},
			{
				"x": -2.3367848196,
				"y": 2.6370825739,
				"z": -3.2399526874,
				"element": "H" 
			},
			{
				"x": -3.1387900627,
				"y": 1.6877427891,
				"z": -1.1026222735,
				"element": "H" 
			}
		],
		 "valence_orbital": [ 
			{
				"type": "occ",
				"energy": -0.2997,
				"method": "rhf"
			},
			{
				"type": "occ",
				"energy": -0.26013,
				"method": "rhf"
			},
			{
				"type": "occ",
				"energy": -0.24656,
				"method": "rhf"
			},
			{
				"type": "occ",
				"energy": -0.24402,
				"method": "rhf"
			},
			{
				"type": "occ",
				"energy": -0.19911,
				"method": "rhf"
			},
			{
				"type": "unocc",
				"energy": -0.07066,
				"method": "rhf"
			},
			{
				"type": "unocc",
				"energy": -0.02381,
				"method": "rhf"
			},
			{
				"type": "unocc",
				"energy": -0.01764,
				"method": "rhf"
			},
			{
				"type": "unocc",
				"energy": 0.00132,
				"method": "rhf"
			},
			{
				"type": "unocc",
				"energy": 0.04059,
				"method": "rhf"
			}
		],
		"cosmo_sigma_profile": { 
			"-0.025": 0.0,
			"-0.024": 0.0,
			"-0.023": 0.0,
			"-0.022": 0.0,
			"-0.021": 0.0,
			"-0.02": 0.0,
			"-0.019": 0.0,
			"-0.018": 0.0,
			"-0.017": 0.0,
			"-0.016": 0.0,
			"-0.015": 0.0,
			"-0.014": 0.0,
			"-0.013": 0.0,
			"-0.012": 0.0,
			"-0.011": 0.0,
			"-0.01": 0.0,
			"-0.009": 0.0,
			"-0.008": 0.0,
			"-0.007": 3.44656538563,
			"-0.006": 19.787186761,
			"-0.005": 23.7602835517,
			"-0.004": 25.225286659,
			"-0.003": 18.8167892805,
			"-0.002": 19.9880465285,
			"-0.001": 17.3872274666,
			"0.0": 12.369490367,
			"0.001": 12.8208750797,
			"0.002": 19.5436275189,
			"0.003": 31.143549386,
			"0.004": 24.2834917064,
			"0.005": 11.5140885779,
			"0.006": 2.32662052169,
			"0.007": 1.9089168634,
			"0.008": 1.24369939255,
			"0.009": 1.58964038829,
			"0.01": 2.86018008665,
			"0.011": 3.42583806969,
			"0.012": 3.54746275235,
			"0.013": 1.0219808745,
			"0.014": 0.0,
			"0.015": 0.0,
			"0.016": 0.0,
			"0.017": 0.0,
			"0.018": 0.0,
			"0.019": 0.0,
			"0.02": 0.0,
			"0.021": 0.0,
			"0.022": 0.0,
			"0.023": 0.0,
			"0.024": 0.0,
			"0.025": 0.0
		}
	}
}
