{
	 "smiles": "NCCOCCN", 
	 "Tm": 497.15, 
	 "num_atms": 19, 
	 "gaussian": { 
		 "optdone": 1, 
		 "sigma_profile": "yes", 
		 "theory": "DFT", 
		 "functional": "B3LYP", 
		 "basiset": "6-31G**", 
		 "properties": { 
			 "R2extent": 1449.7879, 
			 "electric_dipole_moment_norm": 2.74314910094, 
			 "electric_quadrupole_moment_norm": 8.78134005377, 
			 "total_energy": -344.358644668, 
			 "HOMO_LUMO_gap": 0.30206, 
			 "cosmo_polarized_energy": -11.42, 
			 "cosmo_cavitation_energy": 21.39, 
			 "cosmo_dispersion_energy": -15.79, 
			 "cosmo_repulsion_energy": 1.4, 
			 "cosmo_total_nonelectrostatic_energy": 7.0, 
			 "SMD_solvation_energy": 1.11 
		},
		"coords": [
			{
				"x": 1.7457103502,
				"y": -0.2850593606,
				"z": -1.331621936,
				"element": "N" 
			},
			{
				"x": 0.8245017343,
				"y": 0.7001616918,
				"z": -0.7667963277,
				"element": "C" 
			},
			{
				"x": -0.6117444096,
				"y": 0.2329099372,
				"z": -0.992180071,
				"element": "C" 
			},
			{
				"x": -0.8888905716,
				"y": -1.0044636146,
				"z": -0.3418960813,
				"element": "O" 
			},
			{
				"x": -1.2185510373,
				"y": -0.8973279978,
				"z": 1.0319430819,
				"element": "C" 
			},
			{
				"x": -1.5656315761,
				"y": -2.2934224977,
				"z": 1.5562487671,
				"element": "C" 
			},
			{
				"x": -1.9395196235,
				"y": -2.3478193936,
				"z": 2.9685538724,
				"element": "N" 
			},
			{
				"x": 1.5260625496,
				"y": -1.1941585949,
				"z": -0.9310354181,
				"element": "H" 
			},
			{
				"x": 2.7041809804,
				"y": -0.0689740786,
				"z": -1.0722183585,
				"element": "H" 
			},
			{
				"x": 0.9585606276,
				"y": 1.6579687674,
				"z": -1.2865132218,
				"element": "H" 
			},
			{
				"x": 0.9753143683,
				"y": 0.904741364,
				"z": 0.3091866192,
				"element": "H" 
			},
			{
				"x": -1.3237784468,
				"y": 1.0067533429,
				"z": -0.6658200941,
				"element": "H" 
			},
			{
				"x": -0.7611066517,
				"y": 0.0477143162,
				"z": -2.0605907599,
				"element": "H" 
			},
			{
				"x": -2.0801220398,
				"y": -0.2191615491,
				"z": 1.1670176316,
				"element": "H" 
			},
			{
				"x": -0.3842962329,
				"y": -0.4785145008,
				"z": 1.62050602,
				"element": "H" 
			},
			{
				"x": -2.3880192222,
				"y": -2.6992223112,
				"z": 0.9569412498,
				"element": "H" 
			},
			{
				"x": -0.7069372311,
				"y": -2.9547809499,
				"z": 1.3938761523,
				"element": "H" 
			},
			{
				"x": -1.186439297,
				"y": -1.9842380497,
				"z": 3.5482435054,
				"element": "H" 
			},
			{
				"x": -2.7489942707,
				"y": -1.756406521,
				"z": 3.1424553687,
				"element": "H" 
			}
		],
		 "valence_orbital": [ 
			{
				"type": "occ",
				"energy": -0.34424,
				"method": "rhf"
			},
			{
				"type": "occ",
				"energy": -0.31258,
				"method": "rhf"
			},
			{
				"type": "occ",
				"energy": -0.25883,
				"method": "rhf"
			},
			{
				"type": "occ",
				"energy": -0.23669,
				"method": "rhf"
			},
			{
				"type": "occ",
				"energy": -0.22806,
				"method": "rhf"
			},
			{
				"type": "unocc",
				"energy": 0.074,
				"method": "rhf"
			},
			{
				"type": "unocc",
				"energy": 0.07957,
				"method": "rhf"
			},
			{
				"type": "unocc",
				"energy": 0.11526,
				"method": "rhf"
			},
			{
				"type": "unocc",
				"energy": 0.12098,
				"method": "rhf"
			},
			{
				"type": "unocc",
				"energy": 0.13263,
				"method": "rhf"
			}
		],
		"cosmo_sigma_profile": { 
			"-0.025": 0.0,
			"-0.024": 0.0,
			"-0.023": 0.0,
			"-0.022": 0.0,
			"-0.021": 0.0,
			"-0.02": 0.0,
			"-0.019": 0.0,
			"-0.018": 0.0,
			"-0.017": 0.0,
			"-0.016": 0.0,
			"-0.015": 0.0,
			"-0.014": 0.0,
			"-0.013": 0.0,
			"-0.012": 0.0,
			"-0.011": 0.0,
			"-0.01": 1.28876136829,
			"-0.009": 4.41386540635,
			"-0.008": 4.02238304951,
			"-0.007": 6.43475239148,
			"-0.006": 5.91324663299,
			"-0.005": 5.08469199084,
			"-0.004": 11.6902159744,
			"-0.003": 26.8416813578,
			"-0.002": 23.9146990246,
			"-0.001": 15.9680980491,
			"0.0": 9.67734481545,
			"0.001": 5.24024346886,
			"0.002": 4.60931590738,
			"0.003": 3.64268501818,
			"0.004": 3.37864206781,
			"0.005": 4.20811932783,
			"0.006": 2.78672237246,
			"0.007": 2.62087471435,
			"0.008": 2.59898855622,
			"0.009": 2.69502790395,
			"0.01": 1.77136278142,
			"0.011": 2.10277359919,
			"0.012": 2.68858660376,
			"0.013": 2.71520831918,
			"0.014": 0.714371473745,
			"0.015": 1.53530951357,
			"0.016": 1.40674441632,
			"0.017": 0.8063590742,
			"0.018": 1.59084846201,
			"0.019": 1.1083446717,
			"0.02": 0.708357796199,
			"0.021": 0.0,
			"0.022": 0.0,
			"0.023": 0.0,
			"0.024": 0.0,
			"0.025": 0.0
		}
	}
}
