{
	 "smiles": "COC(=O)C1=CC(NC(=O)C(C)Cl)=C(C=C1)C(=O)OC", 
	 "Tm": 402.15, 
	 "num_atms": 34, 
	 "gaussian": { 
		 "optdone": 1, 
		 "sigma_profile": "yes", 
		 "theory": "DFT", 
		 "functional": "B3LYP", 
		 "basiset": "6-31G**", 
		 "properties": { 
			 "R2extent": 8223.0299, 
			 "electric_dipole_moment_norm": 1.8394473681, 
			 "electric_quadrupole_moment_norm": 26.9029451878, 
			 "total_energy": -1394.92395335, 
			 "HOMO_LUMO_gap": 0.17805, 
			 "cosmo_polarized_energy": -17.67, 
			 "cosmo_cavitation_energy": 40.87, 
			 "cosmo_dispersion_energy": -28.0, 
			 "cosmo_repulsion_energy": 2.15, 
			 "cosmo_total_nonelectrostatic_energy": 15.02, 
			 "SMD_solvation_energy": 9.81 
		},
		"coords": [
			{
				"x": -4.8493486121,
				"y": -1.0368899507,
				"z": -5.0186300185,
				"element": "C" 
			},
			{
				"x": -4.0068207992,
				"y": -0.3743177297,
				"z": -4.0616809543,
				"element": "O" 
			},
			{
				"x": -3.1766285592,
				"y": -1.1822749372,
				"z": -3.368768737,
				"element": "C" 
			},
			{
				"x": -3.1272664119,
				"y": -2.3863248687,
				"z": -3.5290394327,
				"element": "O" 
			},
			{
				"x": -2.3342732912,
				"y": -0.4286032094,
				"z": -2.3936139465,
				"element": "C" 
			},
			{
				"x": -1.4539846783,
				"y": -1.166251351,
				"z": -1.6005577107,
				"element": "C" 
			},
			{
				"x": -0.6191033523,
				"y": -0.5404581317,
				"z": -0.6702291097,
				"element": "C" 
			},
			{
				"x": 0.2096170096,
				"y": -1.3808623056,
				"z": 0.1112227284,
				"element": "N" 
			},
			{
				"x": 0.3771340243,
				"y": -1.2920460881,
				"z": 1.4628529173,
				"element": "C" 
			},
			{
				"x": -0.0525409447,
				"y": -0.3904024665,
				"z": 2.1671927008,
				"element": "O" 
			},
			{
				"x": 1.1999526321,
				"y": -2.3934533978,
				"z": 2.1541666774,
				"element": "C" 
			},
			{
				"x": 2.5059261987,
				"y": -1.8302062568,
				"z": 2.707753962,
				"element": "C" 
			},
			{
				"x": 1.548234501,
				"y": -3.8561522777,
				"z": 1.0986641783,
				"element": "Cl" 
			},
			{
				"x": -0.6553133585,
				"y": 0.8645328902,
				"z": -0.5469594734,
				"element": "C" 
			},
			{
				"x": -1.5848042275,
				"y": 1.5849943935,
				"z": -1.3118965969,
				"element": "C" 
			},
			{
				"x": -2.4151569911,
				"y": 0.9602243323,
				"z": -2.2334999321,
				"element": "C" 
			},
			{
				"x": 0.2533585796,
				"y": 1.6992460116,
				"z": 0.3041753315,
				"element": "C" 
			},
			{
				"x": -0.0759946244,
				"y": 2.7622159223,
				"z": 0.7869625748,
				"element": "O" 
			},
			{
				"x": 1.5058653272,
				"y": 1.2047181715,
				"z": 0.3757774343,
				"element": "O" 
			},
			{
				"x": 2.4090299423,
				"y": 1.9777877248,
				"z": 1.1832290579,
				"element": "C" 
			},
			{
				"x": -5.4451905459,
				"y": -0.2495760784,
				"z": -5.4797173187,
				"element": "H" 
			},
			{
				"x": -4.2455620917,
				"y": -1.5528196315,
				"z": -5.7692417668,
				"element": "H" 
			},
			{
				"x": -5.4934944272,
				"y": -1.7666980811,
				"z": -4.5220854018,
				"element": "H" 
			},
			{
				"x": -1.4437884624,
				"y": -2.246445959,
				"z": -1.7083415592,
				"element": "H" 
			},
			{
				"x": 0.5003766446,
				"y": -2.2499838258,
				"z": -0.3181369241,
				"element": "H" 
			},
			{
				"x": 0.5755413278,
				"y": -2.7788710782,
				"z": 2.9614103134,
				"element": "H" 
			},
			{
				"x": 3.0371632152,
				"y": -2.5883149464,
				"z": 3.2868532257,
				"element": "H" 
			},
			{
				"x": 3.1541305765,
				"y": -1.4842787346,
				"z": 1.8982695025,
				"element": "H" 
			},
			{
				"x": 2.2655697025,
				"y": -0.9845437702,
				"z": 3.3573763694,
				"element": "H" 
			},
			{
				"x": -1.6220990021,
				"y": 2.6597563302,
				"z": -1.1728028803,
				"element": "H" 
			},
			{
				"x": -3.1135248532,
				"y": 1.5355451787,
				"z": -2.8289218623,
				"element": "H" 
			},
			{
				"x": 3.3693181128,
				"y": 1.4653843193,
				"z": 1.1220755829,
				"element": "H" 
			},
			{
				"x": 2.0551441972,
				"y": 2.0138019849,
				"z": 2.2162822597,
				"element": "H" 
			},
			{
				"x": 2.4931332418,
				"y": 2.9972678166,
				"z": 0.7995588087,
				"element": "H" 
			}
		],
		 "valence_orbital": [ 
			{
				"type": "occ",
				"energy": -0.28354,
				"method": "rhf"
			},
			{
				"type": "occ",
				"energy": -0.28116,
				"method": "rhf"
			},
			{
				"type": "occ",
				"energy": -0.27261,
				"method": "rhf"
			},
			{
				"type": "occ",
				"energy": -0.26138,
				"method": "rhf"
			},
			{
				"type": "occ",
				"energy": -0.24625,
				"method": "rhf"
			},
			{
				"type": "unocc",
				"energy": -0.0682,
				"method": "rhf"
			},
			{
				"type": "unocc",
				"energy": -0.0295,
				"method": "rhf"
			},
			{
				"type": "unocc",
				"energy": 0.0042,
				"method": "rhf"
			},
			{
				"type": "unocc",
				"energy": 0.00754,
				"method": "rhf"
			},
			{
				"type": "unocc",
				"energy": 0.02491,
				"method": "rhf"
			}
		],
		"cosmo_sigma_profile": { 
			"-0.025": 0.0,
			"-0.024": 0.0,
			"-0.023": 0.0,
			"-0.022": 0.0,
			"-0.021": 0.0,
			"-0.02": 0.0,
			"-0.019": 0.0,
			"-0.018": 0.0,
			"-0.017": 0.0,
			"-0.016": 0.0,
			"-0.015": 0.0,
			"-0.014": 0.401270535016,
			"-0.013": 1.06069479954,
			"-0.012": 0.935521208875,
			"-0.011": 0.983156700053,
			"-0.01": 0.816813816472,
			"-0.009": 2.99796799276,
			"-0.008": 3.63961465003,
			"-0.007": 6.3146151257,
			"-0.006": 18.0145611462,
			"-0.005": 25.8150192292,
			"-0.004": 29.538692061,
			"-0.003": 31.4068662164,
			"-0.002": 25.4044938391,
			"-0.001": 24.3601942705,
			"0.0": 22.5225595714,
			"0.001": 25.4659105065,
			"0.002": 19.6868267023,
			"0.003": 12.6068370571,
			"0.004": 11.918065055,
			"0.005": 13.862121893,
			"0.006": 7.75696149861,
			"0.007": 5.99243063914,
			"0.008": 6.37846231491,
			"0.009": 4.08771782569,
			"0.01": 6.28311795533,
			"0.011": 9.49428457654,
			"0.012": 8.54831292237,
			"0.013": 0.678249895395,
			"0.014": 0.0,
			"0.015": 0.0,
			"0.016": 0.0,
			"0.017": 0.0,
			"0.018": 0.0,
			"0.019": 0.0,
			"0.02": 0.0,
			"0.021": 0.0,
			"0.022": 0.0,
			"0.023": 0.0,
			"0.024": 0.0,
			"0.025": 0.0
		}
	}
}
