{
	 "smiles": "CC1=NC2=CC=CC=C2C(C(O)=O)=C1C(O)=O", 
	 "Tm": 502.15, 
	 "num_atms": 26, 
	 "gaussian": { 
		 "optdone": 1, 
		 "sigma_profile": "yes", 
		 "theory": "DFT", 
		 "functional": "B3LYP", 
		 "basiset": "6-31G**", 
		 "properties": { 
			 "R2extent": 4419.9511, 
			 "electric_dipole_moment_norm": 3.52351039874, 
			 "electric_quadrupole_moment_norm": 20.7408200508, 
			 "total_energy": -818.37480018, 
			 "HOMO_LUMO_gap": 0.16378, 
			 "cosmo_polarized_energy": -17.09, 
			 "cosmo_cavitation_energy": 30.54, 
			 "cosmo_dispersion_energy": -22.3, 
			 "cosmo_repulsion_energy": 1.71, 
			 "cosmo_total_nonelectrostatic_energy": 9.95, 
			 "SMD_solvation_energy": 5.61 
		},
		"coords": [
			{
				"x": 2.5670138149,
				"y": 2.5940809375,
				"z": 2.0750136037,
				"element": "C" 
			},
			{
				"x": 1.5320625048,
				"y": 1.7727134634,
				"z": 1.3462614167,
				"element": "C" 
			},
			{
				"x": 0.9487456098,
				"y": 0.8074271558,
				"z": 2.0217922715,
				"element": "N" 
			},
			{
				"x": -0.0057570619,
				"y": 0.0447672393,
				"z": 1.415764109,
				"element": "C" 
			},
			{
				"x": -0.5979241225,
				"y": -0.9912334649,
				"z": 2.1832875159,
				"element": "C" 
			},
			{
				"x": -1.5712855544,
				"y": -1.7940481733,
				"z": 1.6352183839,
				"element": "C" 
			},
			{
				"x": -1.9916481413,
				"y": -1.5892470899,
				"z": 0.2994734629,
				"element": "C" 
			},
			{
				"x": -1.4394033346,
				"y": -0.5897139547,
				"z": -0.4705634038,
				"element": "C" 
			},
			{
				"x": -0.4272680404,
				"y": 0.2547531676,
				"z": 0.0643491678,
				"element": "C" 
			},
			{
				"x": 0.235055238,
				"y": 1.2906260837,
				"z": -0.6715092416,
				"element": "C" 
			},
			{
				"x": -0.2358233174,
				"y": 1.5890125985,
				"z": -2.0833533115,
				"element": "C" 
			},
			{
				"x": 0.7033062255,
				"y": 1.7580059754,
				"z": -3.0337007652,
				"element": "O" 
			},
			{
				"x": -1.4088988842,
				"y": 1.6630640309,
				"z": -2.364020743,
				"element": "O" 
			},
			{
				"x": 1.2156270751,
				"y": 2.0361045136,
				"z": -0.0309558117,
				"element": "C" 
			},
			{
				"x": 1.9529727417,
				"y": 3.1662303855,
				"z": -0.6860372888,
				"element": "C" 
			},
			{
				"x": 2.8441439667,
				"y": 2.7167489734,
				"z": -1.6250551461,
				"element": "O" 
			},
			{
				"x": 1.8490035927,
				"y": 4.3359633977,
				"z": -0.4124006626,
				"element": "O" 
			},
			{
				"x": 2.25909318,
				"y": 3.6416747291,
				"z": 2.1460200502,
				"element": "H" 
			},
			{
				"x": 2.6962993629,
				"y": 2.1858003898,
				"z": 3.0774316246,
				"element": "H" 
			},
			{
				"x": 3.532969826,
				"y": 2.5750754609,
				"z": 1.5566828701,
				"element": "H" 
			},
			{
				"x": -0.251482302,
				"y": -1.1167818319,
				"z": 3.2035128697,
				"element": "H" 
			},
			{
				"x": -2.0216415798,
				"y": -2.5863948218,
				"z": 2.2258381857,
				"element": "H" 
			},
			{
				"x": -2.7630931163,
				"y": -2.2256145832,
				"z": -0.1235601533,
				"element": "H" 
			},
			{
				"x": -1.7845593704,
				"y": -0.4294585722,
				"z": -1.4833626835,
				"element": "H" 
			},
			{
				"x": 1.6030724609,
				"y": 1.7127498547,
				"z": -2.6659700099,
				"element": "H" 
			},
			{
				"x": 3.2667192263,
				"y": 3.5055941353,
				"z": -2.0100563105,
				"element": "H" 
			}
		],
		 "valence_orbital": [ 
			{
				"type": "occ",
				"energy": -0.30999,
				"method": "rhf"
			},
			{
				"type": "occ",
				"energy": -0.28561,
				"method": "rhf"
			},
			{
				"type": "occ",
				"energy": -0.26677,
				"method": "rhf"
			},
			{
				"type": "occ",
				"energy": -0.2616,
				"method": "rhf"
			},
			{
				"type": "occ",
				"energy": -0.2445,
				"method": "rhf"
			},
			{
				"type": "unocc",
				"energy": -0.08072,
				"method": "rhf"
			},
			{
				"type": "unocc",
				"energy": -0.04406,
				"method": "rhf"
			},
			{
				"type": "unocc",
				"energy": -0.01951,
				"method": "rhf"
			},
			{
				"type": "unocc",
				"energy": -0.01376,
				"method": "rhf"
			},
			{
				"type": "unocc",
				"energy": 0.03041,
				"method": "rhf"
			}
		],
		"cosmo_sigma_profile": { 
			"-0.025": 0.0,
			"-0.024": 0.0,
			"-0.023": 0.0,
			"-0.022": 0.0,
			"-0.021": 0.0,
			"-0.02": 0.318390923838,
			"-0.019": 0.981391216881,
			"-0.018": 1.24152949055,
			"-0.017": 0.87870206963,
			"-0.016": 0.824667790462,
			"-0.015": 0.416120775415,
			"-0.014": 0.944641695875,
			"-0.013": 1.40912614643,
			"-0.012": 1.10758462536,
			"-0.011": 2.20102217025,
			"-0.01": 1.56378637121,
			"-0.009": 2.7287344871,
			"-0.008": 1.89749185117,
			"-0.007": 5.12162576764,
			"-0.006": 13.4418595828,
			"-0.005": 17.925388075,
			"-0.004": 15.1188396742,
			"-0.003": 14.5780667739,
			"-0.002": 18.656010841,
			"-0.001": 19.5780364701,
			"0.0": 14.8746001732,
			"0.001": 14.9206237657,
			"0.002": 16.996941934,
			"0.003": 16.8085271725,
			"0.004": 9.46091905637,
			"0.005": 5.79684558722,
			"0.006": 6.26944286654,
			"0.007": 4.6297966121,
			"0.008": 6.44821054473,
			"0.009": 8.25239783998,
			"0.01": 10.2872651733,
			"0.011": 5.72581785164,
			"0.012": 2.54060274362,
			"0.013": 0.793286036996,
			"0.014": 0.171465601251,
			"0.015": 0.0,
			"0.016": 0.0,
			"0.017": 0.0,
			"0.018": 0.0,
			"0.019": 0.0,
			"0.02": 0.0,
			"0.021": 0.0,
			"0.022": 0.0,
			"0.023": 0.0,
			"0.024": 0.0,
			"0.025": 0.0
		}
	}
}
