{
	 "smiles": "NC1=CC=C(N)C=C1", 
	 "Tm": 419.15, 
	 "num_atms": 16, 
	 "gaussian": { 
		 "optdone": 1, 
		 "sigma_profile": "yes", 
		 "theory": "DFT", 
		 "functional": "B3LYP", 
		 "basiset": "6-31G**", 
		 "properties": { 
			 "R2extent": 1218.7544, 
			 "electric_dipole_moment_norm": 2.37093797894, 
			 "electric_quadrupole_moment_norm": 6.32724489727, 
			 "total_energy": -342.963570102, 
			 "HOMO_LUMO_gap": 0.18035, 
			 "cosmo_polarized_energy": -11.92, 
			 "cosmo_cavitation_energy": 19.43, 
			 "cosmo_dispersion_energy": -14.75, 
			 "cosmo_repulsion_energy": 1.24, 
			 "cosmo_total_nonelectrostatic_energy": 5.92, 
			 "SMD_solvation_energy": 3.23 
		},
		"coords": [
			{
				"x": -1.7539092298,
				"y": 1.9340650046,
				"z": 1.3936517516,
				"element": "N" 
			},
			{
				"x": -0.7296454674,
				"y": 1.4651546881,
				"z": 0.5488190051,
				"element": "C" 
			},
			{
				"x": 0.583919997,
				"y": 1.9424088679,
				"z": 0.6686277147,
				"element": "C" 
			},
			{
				"x": 1.6098386512,
				"y": 1.4349481825,
				"z": -0.124972879,
				"element": "C" 
			},
			{
				"x": 1.3649368308,
				"y": 0.4290768177,
				"z": -1.0714596691,
				"element": "C" 
			},
			{
				"x": 2.413007784,
				"y": -0.1271287994,
				"z": -1.8297034802,
				"element": "N" 
			},
			{
				"x": 0.0512650744,
				"y": -0.0477697313,
				"z": -1.1916712157,
				"element": "C" 
			},
			{
				"x": -0.974657533,
				"y": 0.4596901906,
				"z": -0.3980649903,
				"element": "C" 
			},
			{
				"x": -1.6023226011,
				"y": 2.8753426573,
				"z": 1.733052078,
				"element": "H" 
			},
			{
				"x": -2.6803804259,
				"y": 1.8498211427,
				"z": 0.9952480402,
				"element": "H" 
			},
			{
				"x": 0.8069379583,
				"y": 2.7206318812,
				"z": 1.3951494825,
				"element": "H" 
			},
			{
				"x": 2.6184264084,
				"y": 1.8246036975,
				"z": -0.0061454539,
				"element": "H" 
			},
			{
				"x": 3.1902270027,
				"y": 0.5046805281,
				"z": -1.974349301,
				"element": "H" 
			},
			{
				"x": 2.1122068143,
				"y": -0.5209041998,
				"z": -2.7121073312,
				"element": "H" 
			},
			{
				"x": -0.1709342988,
				"y": -0.8290190802,
				"z": -1.9151912165,
				"element": "H" 
			},
			{
				"x": -1.982416965,
				"y": 0.0669981523,
				"z": -0.5138825353,
				"element": "H" 
			}
		],
		 "valence_orbital": [ 
			{
				"type": "occ",
				"energy": -0.32894,
				"method": "rhf"
			},
			{
				"type": "occ",
				"energy": -0.32824,
				"method": "rhf"
			},
			{
				"type": "occ",
				"energy": -0.25625,
				"method": "rhf"
			},
			{
				"type": "occ",
				"energy": -0.2372,
				"method": "rhf"
			},
			{
				"type": "occ",
				"energy": -0.16981,
				"method": "rhf"
			},
			{
				"type": "unocc",
				"energy": 0.01054,
				"method": "rhf"
			},
			{
				"type": "unocc",
				"energy": 0.03962,
				"method": "rhf"
			},
			{
				"type": "unocc",
				"energy": 0.08541,
				"method": "rhf"
			},
			{
				"type": "unocc",
				"energy": 0.09529,
				"method": "rhf"
			},
			{
				"type": "unocc",
				"energy": 0.11673,
				"method": "rhf"
			}
		],
		"cosmo_sigma_profile": { 
			"-0.025": 0.0,
			"-0.024": 0.0,
			"-0.023": 0.0,
			"-0.022": 0.0,
			"-0.021": 0.0,
			"-0.02": 0.0,
			"-0.019": 0.0,
			"-0.018": 0.0,
			"-0.017": 0.0,
			"-0.016": 0.0,
			"-0.015": 0.0,
			"-0.014": 0.0,
			"-0.013": 0.0,
			"-0.012": 1.104485875,
			"-0.011": 5.04653761635,
			"-0.01": 5.24709950328,
			"-0.009": 5.62619190628,
			"-0.008": 6.60288726916,
			"-0.007": 5.94965151361,
			"-0.006": 6.55388419589,
			"-0.005": 9.85269554373,
			"-0.004": 8.96923821895,
			"-0.003": 8.80497004051,
			"-0.002": 7.89590733478,
			"-0.001": 5.68681578146,
			"0.0": 6.80992181486,
			"0.001": 4.99103640998,
			"0.002": 5.77431766757,
			"0.003": 5.08040384628,
			"0.004": 6.50087594785,
			"0.005": 6.9525404015,
			"0.006": 8.5521307912,
			"0.007": 10.3571086983,
			"0.008": 8.5240443406,
			"0.009": 1.93471677785,
			"0.01": 1.60075979841,
			"0.011": 1.68441007399,
			"0.012": 1.29670578618,
			"0.013": 1.67104286546,
			"0.014": 1.18864725928,
			"0.015": 1.17608165665,
			"0.016": 1.47135042835,
			"0.017": 0.182935868708,
			"0.018": 0.0,
			"0.019": 0.0,
			"0.02": 0.0,
			"0.021": 0.0,
			"0.022": 0.0,
			"0.023": 0.0,
			"0.024": 0.0,
			"0.025": 0.0
		}
	}
}
