{
	 "smiles": "CC(C)(C)C1=CC=C(C=C1)C1=NN=C(CCl)O1", 
	 "Tm": 339.15, 
	 "num_atms": 32, 
	 "gaussian": { 
		 "optdone": 1, 
		 "sigma_profile": "yes", 
		 "theory": "DFT", 
		 "functional": "B3LYP", 
		 "basiset": "6-31G**", 
		 "properties": { 
			 "R2extent": 8512.923, 
			 "electric_dipole_moment_norm": 4.04001418438, 
			 "electric_quadrupole_moment_norm": 18.7578769907, 
			 "total_energy": -1149.33485209, 
			 "HOMO_LUMO_gap": 0.1806, 
			 "cosmo_polarized_energy": -11.52, 
			 "cosmo_cavitation_energy": 37.05, 
			 "cosmo_dispersion_energy": -26.51, 
			 "cosmo_repulsion_energy": 2.05, 
			 "cosmo_total_nonelectrostatic_energy": 12.6, 
			 "SMD_solvation_energy": 4.47 
		},
		"coords": [
			{
				"x": -2.1035198884,
				"y": -2.0576488543,
				"z": 2.1057246467,
				"element": "C" 
			},
			{
				"x": -2.2874968086,
				"y": -1.3867370833,
				"z": 0.7313214776,
				"element": "C" 
			},
			{
				"x": -3.4961140764,
				"y": -0.4239321484,
				"z": 0.8209929249,
				"element": "C" 
			},
			{
				"x": -2.5874358399,
				"y": -2.4918039928,
				"z": -0.3100718246,
				"element": "C" 
			},
			{
				"x": -1.0409679322,
				"y": -0.5988490427,
				"z": 0.2928144239,
				"element": "C" 
			},
			{
				"x": 0.120148242,
				"y": -0.5138008172,
				"z": 1.074336053,
				"element": "C" 
			},
			{
				"x": 1.2348297561,
				"y": 0.2087181664,
				"z": 0.6507684137,
				"element": "C" 
			},
			{
				"x": 1.218100746,
				"y": 0.8733836837,
				"z": -0.5810912419,
				"element": "C" 
			},
			{
				"x": 0.0638288012,
				"y": 0.8007479947,
				"z": -1.3786895384,
				"element": "C" 
			},
			{
				"x": -1.0373034846,
				"y": 0.0775521098,
				"z": -0.942586757,
				"element": "C" 
			},
			{
				"x": 2.3653500249,
				"y": 1.6363558823,
				"z": -1.0509110498,
				"element": "C" 
			},
			{
				"x": 2.4932881502,
				"y": 2.3157428257,
				"z": -2.1571626808,
				"element": "N" 
			},
			{
				"x": 3.7679034329,
				"y": 2.8674793318,
				"z": -2.140633559,
				"element": "N" 
			},
			{
				"x": 4.3202914826,
				"y": 2.4807564064,
				"z": -1.0332825427,
				"element": "C" 
			},
			{
				"x": 5.6832185273,
				"y": 2.7861311818,
				"z": -0.5498060611,
				"element": "C" 
			},
			{
				"x": 5.6740236813,
				"y": 3.8985295452,
				"z": 0.894935707,
				"element": "Cl" 
			},
			{
				"x": 3.4974498288,
				"y": 1.6937527867,
				"z": -0.2859710019,
				"element": "O" 
			},
			{
				"x": -1.2779312509,
				"y": -2.7769524577,
				"z": 2.1020546141,
				"element": "H" 
			},
			{
				"x": -1.9166899823,
				"y": -1.3240213279,
				"z": 2.8968085774,
				"element": "H" 
			},
			{
				"x": -3.0139024227,
				"y": -2.6037328988,
				"z": 2.372386601,
				"element": "H" 
			},
			{
				"x": -4.394474639,
				"y": -0.9716546148,
				"z": 1.1265784391,
				"element": "H" 
			},
			{
				"x": -3.3141013069,
				"y": 0.366908398,
				"z": 1.5559434433,
				"element": "H" 
			},
			{
				"x": -3.7094985077,
				"y": 0.0548681181,
				"z": -0.1391163242,
				"element": "H" 
			},
			{
				"x": -1.7501374848,
				"y": -3.1926732774,
				"z": -0.3907569844,
				"element": "H" 
			},
			{
				"x": -2.7727873135,
				"y": -2.0765795361,
				"z": -1.3049749809,
				"element": "H" 
			},
			{
				"x": -3.4775455488,
				"y": -3.0583969582,
				"z": -0.014963605,
				"element": "H" 
			},
			{
				"x": 0.1693403096,
				"y": -1.01460865,
				"z": 2.0338403775,
				"element": "H" 
			},
			{
				"x": 2.1178935946,
				"y": 0.2580767558,
				"z": 1.2792887804,
				"element": "H" 
			},
			{
				"x": 0.0476002097,
				"y": 1.3155207049,
				"z": -2.3334725096,
				"element": "H" 
			},
			{
				"x": -1.9149363669,
				"y": 0.0396514453,
				"z": -1.5803864152,
				"element": "H" 
			},
			{
				"x": 6.2315682495,
				"y": 3.2883562361,
				"z": -1.3445969914,
				"element": "H" 
			},
			{
				"x": 6.209707817,
				"y": 1.8849600868,
				"z": -0.2339204117,
				"element": "H" 
			}
		],
		 "valence_orbital": [ 
			{
				"type": "occ",
				"energy": -0.30836,
				"method": "rhf"
			},
			{
				"type": "occ",
				"energy": -0.29996,
				"method": "rhf"
			},
			{
				"type": "occ",
				"energy": -0.28209,
				"method": "rhf"
			},
			{
				"type": "occ",
				"energy": -0.26312,
				"method": "rhf"
			},
			{
				"type": "occ",
				"energy": -0.23926,
				"method": "rhf"
			},
			{
				"type": "unocc",
				"energy": -0.05866,
				"method": "rhf"
			},
			{
				"type": "unocc",
				"energy": -0.02254,
				"method": "rhf"
			},
			{
				"type": "unocc",
				"energy": -0.01281,
				"method": "rhf"
			},
			{
				"type": "unocc",
				"energy": 0.04157,
				"method": "rhf"
			},
			{
				"type": "unocc",
				"energy": 0.0569,
				"method": "rhf"
			}
		],
		"cosmo_sigma_profile": { 
			"-0.025": 0.0,
			"-0.024": 0.0,
			"-0.023": 0.0,
			"-0.022": 0.0,
			"-0.021": 0.0,
			"-0.02": 0.0,
			"-0.019": 0.0,
			"-0.018": 0.0,
			"-0.017": 0.0,
			"-0.016": 0.0,
			"-0.015": 0.0,
			"-0.014": 0.0,
			"-0.013": 0.0,
			"-0.012": 0.0,
			"-0.011": 0.0964352625003,
			"-0.01": 2.99675374139,
			"-0.009": 4.43512662116,
			"-0.008": 3.969271132,
			"-0.007": 4.74421954182,
			"-0.006": 9.52488622308,
			"-0.005": 13.9458245514,
			"-0.004": 13.9358742498,
			"-0.003": 28.5282651357,
			"-0.002": 28.681685486,
			"-0.001": 30.1364749178,
			"0.0": 28.6569532559,
			"0.001": 34.4248527509,
			"0.002": 19.9539648436,
			"0.003": 18.3765751331,
			"0.004": 17.443206545,
			"0.005": 12.6144654935,
			"0.006": 4.30797422627,
			"0.007": 1.66969398156,
			"0.008": 2.44521849481,
			"0.009": 1.86822571715,
			"0.01": 3.0530478349,
			"0.011": 3.2500500737,
			"0.012": 2.64886990653,
			"0.013": 2.27238238281,
			"0.014": 1.61305607914,
			"0.015": 0.138528680405,
			"0.016": 0.0,
			"0.017": 0.0,
			"0.018": 0.0,
			"0.019": 0.0,
			"0.02": 0.0,
			"0.021": 0.0,
			"0.022": 0.0,
			"0.023": 0.0,
			"0.024": 0.0,
			"0.025": 0.0
		}
	}
}
