{
	 "smiles": "N1C=CN=C1C1=CC=CC=C1", 
	 "Tm": 422.15, 
	 "num_atms": 19, 
	 "gaussian": { 
		 "optdone": 1, 
		 "sigma_profile": "yes", 
		 "theory": "DFT", 
		 "functional": "B3LYP", 
		 "basiset": "6-31G**", 
		 "properties": { 
			 "R2extent": 2283.6392, 
			 "electric_dipole_moment_norm": 3.16289614436, 
			 "electric_quadrupole_moment_norm": 12.0872075861, 
			 "total_energy": -457.283576688, 
			 "HOMO_LUMO_gap": 0.17898, 
			 "cosmo_polarized_energy": -12.8, 
			 "cosmo_cavitation_energy": 22.97, 
			 "cosmo_dispersion_energy": -17.4, 
			 "cosmo_repulsion_energy": 1.37, 
			 "cosmo_total_nonelectrostatic_energy": 6.94, 
			 "SMD_solvation_energy": 2.76 
		},
		"coords": [
			{
				"x": 0.7992259388,
				"y": 2.7360253561,
				"z": -0.5816628543,
				"element": "N" 
			},
			{
				"x": 0.5635449768,
				"y": 3.9194370928,
				"z": -1.2462940164,
				"element": "C" 
			},
			{
				"x": -0.7849511132,
				"y": 3.9175256932,
				"z": -1.5110231274,
				"element": "C" 
			},
			{
				"x": -1.3714115116,
				"y": 2.7756490059,
				"z": -1.0302809979,
				"element": "N" 
			},
			{
				"x": -0.398425877,
				"y": 2.0707746009,
				"z": -0.4703044409,
				"element": "C" 
			},
			{
				"x": -0.5631177661,
				"y": 0.7667007238,
				"z": 0.1784416046,
				"element": "C" 
			},
			{
				"x": -1.8456372203,
				"y": 0.1928176532,
				"z": 0.2255883385,
				"element": "C" 
			},
			{
				"x": -2.0444018148,
				"y": -1.0435819075,
				"z": 0.8322938061,
				"element": "C" 
			},
			{
				"x": -0.9711722856,
				"y": -1.7330630838,
				"z": 1.4038340587,
				"element": "C" 
			},
			{
				"x": 0.306022795,
				"y": -1.1715861637,
				"z": 1.362118412,
				"element": "C" 
			},
			{
				"x": 0.5095127384,
				"y": 0.0668394905,
				"z": 0.7553009814,
				"element": "C" 
			},
			{
				"x": 1.6942505027,
				"y": 2.4223903448,
				"z": -0.2413394851,
				"element": "H" 
			},
			{
				"x": 1.3504078652,
				"y": 4.6260356545,
				"z": -1.4602835405,
				"element": "H" 
			},
			{
				"x": -1.3612711573,
				"y": 4.6768380472,
				"z": -2.0211819204,
				"element": "H" 
			},
			{
				"x": -2.6691935816,
				"y": 0.7383900991,
				"z": -0.2216095427,
				"element": "H" 
			},
			{
				"x": -3.0422032101,
				"y": -1.4723498529,
				"z": 0.859741042,
				"element": "H" 
			},
			{
				"x": -1.1284240018,
				"y": -2.6978743203,
				"z": 1.876831494,
				"element": "H" 
			},
			{
				"x": 1.1481183521,
				"y": -1.697613385,
				"z": 1.8027500808,
				"element": "H" 
			},
			{
				"x": 1.5152263703,
				"y": 0.4796449513,
				"z": 0.7377801073,
				"element": "H" 
			}
		],
		 "valence_orbital": [ 
			{
				"type": "occ",
				"energy": -0.28391,
				"method": "rhf"
			},
			{
				"type": "occ",
				"energy": -0.27063,
				"method": "rhf"
			},
			{
				"type": "occ",
				"energy": -0.26458,
				"method": "rhf"
			},
			{
				"type": "occ",
				"energy": -0.25104,
				"method": "rhf"
			},
			{
				"type": "occ",
				"energy": -0.20582,
				"method": "rhf"
			},
			{
				"type": "unocc",
				"energy": -0.02684,
				"method": "rhf"
			},
			{
				"type": "unocc",
				"energy": -0.0009,
				"method": "rhf"
			},
			{
				"type": "unocc",
				"energy": 0.05423,
				"method": "rhf"
			},
			{
				"type": "unocc",
				"energy": 0.0598,
				"method": "rhf"
			},
			{
				"type": "unocc",
				"energy": 0.08484,
				"method": "rhf"
			}
		],
		"cosmo_sigma_profile": { 
			"-0.025": 0.0,
			"-0.024": 0.0,
			"-0.023": 0.0,
			"-0.022": 0.0,
			"-0.021": 0.0,
			"-0.02": 0.0,
			"-0.019": 0.0,
			"-0.018": 0.0,
			"-0.017": 0.37640088623,
			"-0.016": 1.22974106653,
			"-0.015": 1.54365207084,
			"-0.014": 1.26629696747,
			"-0.013": 1.24167824224,
			"-0.012": 1.15455338639,
			"-0.011": 1.81731904084,
			"-0.01": 1.22888198756,
			"-0.009": 1.83868374997,
			"-0.008": 3.79382352594,
			"-0.007": 3.68228470976,
			"-0.006": 8.2395600085,
			"-0.005": 11.9631235153,
			"-0.004": 12.8199620652,
			"-0.003": 13.0929124589,
			"-0.002": 9.64510284586,
			"-0.001": 8.83008119418,
			"0.0": 8.88033984576,
			"0.001": 9.92640526316,
			"0.002": 12.5917203468,
			"0.003": 14.386931276,
			"0.004": 16.2218848849,
			"0.005": 16.8272213198,
			"0.006": 7.57741603676,
			"0.007": 2.64101823066,
			"0.008": 1.96389027885,
			"0.009": 1.56196268107,
			"0.01": 1.76472985422,
			"0.011": 1.56454181523,
			"0.012": 1.07817939972,
			"0.013": 1.08285965321,
			"0.014": 1.08802900261,
			"0.015": 0.913218780333,
			"0.016": 0.968340046777,
			"0.017": 0.068776697454,
			"0.018": 0.0,
			"0.019": 0.0,
			"0.02": 0.0,
			"0.021": 0.0,
			"0.022": 0.0,
			"0.023": 0.0,
			"0.024": 0.0,
			"0.025": 0.0
		}
	}
}
