{
	 "smiles": "FC1=CC=C(C=C1)C1=CSC2=C1C(=O)NC=N2", 
	 "Tm": 505.15, 
	 "num_atms": 24, 
	 "gaussian": { 
		 "optdone": 1, 
		 "sigma_profile": "yes", 
		 "theory": "DFT", 
		 "functional": "B3LYP", 
		 "basiset": "6-31G**", 
		 "properties": { 
			 "R2extent": 5146.7728, 
			 "electric_dipole_moment_norm": 2.66127887302, 
			 "electric_quadrupole_moment_norm": 22.0183022715, 
			 "total_energy": -1144.25721417, 
			 "HOMO_LUMO_gap": 0.16463, 
			 "cosmo_polarized_energy": -14.95, 
			 "cosmo_cavitation_energy": 30.87, 
			 "cosmo_dispersion_energy": -23.2, 
			 "cosmo_repulsion_energy": 1.69, 
			 "cosmo_total_nonelectrostatic_energy": 9.37, 
			 "SMD_solvation_energy": 4.56 
		},
		"coords": [
			{
				"x": -0.0518188238,
				"y": -4.5125723011,
				"z": -3.1783417385,
				"element": "F" 
			},
			{
				"x": -0.0271645807,
				"y": -3.4506499096,
				"z": -2.3457784504,
				"element": "C" 
			},
			{
				"x": 0.2905910519,
				"y": -3.6485617172,
				"z": -1.0066764733,
				"element": "C" 
			},
			{
				"x": 0.3177123229,
				"y": -2.5513844159,
				"z": -0.1498420434,
				"element": "C" 
			},
			{
				"x": 0.0276449711,
				"y": -1.2597927404,
				"z": -0.6209438988,
				"element": "C" 
			},
			{
				"x": -0.2819628058,
				"y": -1.0996803382,
				"z": -1.9826068398,
				"element": "C" 
			},
			{
				"x": -0.3133599694,
				"y": -2.1888292642,
				"z": -2.85171607,
				"element": "C" 
			},
			{
				"x": -0.0219257399,
				"y": -0.0839315949,
				"z": 0.2813286902,
				"element": "C" 
			},
			{
				"x": -1.0310623006,
				"y": 0.843535639,
				"z": 0.1956869356,
				"element": "C" 
			},
			{
				"x": -0.8995367187,
				"y": 2.1509721366,
				"z": 1.3323221818,
				"element": "S" 
			},
			{
				"x": 0.5650550676,
				"y": 1.4654231814,
				"z": 1.978316163,
				"element": "C" 
			},
			{
				"x": 0.9106796988,
				"y": 0.2763693502,
				"z": 1.3275463417,
				"element": "C" 
			},
			{
				"x": 2.1421720455,
				"y": -0.3825610312,
				"z": 1.7420457148,
				"element": "C" 
			},
			{
				"x": 2.6502375337,
				"y": -1.4123127033,
				"z": 1.3208260269,
				"element": "O" 
			},
			{
				"x": 2.7846379633,
				"y": 0.3296068117,
				"z": 2.7878078133,
				"element": "N" 
			},
			{
				"x": 2.3340803162,
				"y": 1.4876099628,
				"z": 3.3483057412,
				"element": "C" 
			},
			{
				"x": 1.2430061861,
				"y": 2.0899799311,
				"z": 2.9848115086,
				"element": "N" 
			},
			{
				"x": 0.5124280203,
				"y": -4.6488340463,
				"z": -0.6510094582,
				"element": "H" 
			},
			{
				"x": 0.5768693013,
				"y": -2.698442755,
				"z": 0.8907093415,
				"element": "H" 
			},
			{
				"x": -0.4802950123,
				"y": -0.1053403503,
				"z": -2.3708262319,
				"element": "H" 
			},
			{
				"x": -0.542914485,
				"y": -2.0700537034,
				"z": -3.9050539535,
				"element": "H" 
			},
			{
				"x": -1.8798966255,
				"y": 0.807007661,
				"z": -0.4728308312,
				"element": "H" 
			},
			{
				"x": 3.6485470471,
				"y": -0.091589656,
				"z": 3.1087061832,
				"element": "H" 
			},
			{
				"x": 2.9456755359,
				"y": 1.9085318533,
				"z": 4.1425133475,
				"element": "H" 
			}
		],
		 "valence_orbital": [ 
			{
				"type": "occ",
				"energy": -0.27612,
				"method": "rhf"
			},
			{
				"type": "occ",
				"energy": -0.27126,
				"method": "rhf"
			},
			{
				"type": "occ",
				"energy": -0.25476,
				"method": "rhf"
			},
			{
				"type": "occ",
				"energy": -0.24345,
				"method": "rhf"
			},
			{
				"type": "occ",
				"energy": -0.218,
				"method": "rhf"
			},
			{
				"type": "unocc",
				"energy": -0.05337,
				"method": "rhf"
			},
			{
				"type": "unocc",
				"energy": -0.02528,
				"method": "rhf"
			},
			{
				"type": "unocc",
				"energy": -0.00764,
				"method": "rhf"
			},
			{
				"type": "unocc",
				"energy": -0.00611,
				"method": "rhf"
			},
			{
				"type": "unocc",
				"energy": 0.01625,
				"method": "rhf"
			}
		],
		"cosmo_sigma_profile": { 
			"-0.025": 0.0,
			"-0.024": 0.0,
			"-0.023": 0.0,
			"-0.022": 0.0,
			"-0.021": 0.0,
			"-0.02": 0.0,
			"-0.019": 0.0,
			"-0.018": 0.0114813229708,
			"-0.017": 1.24359469024,
			"-0.016": 1.68264833152,
			"-0.015": 1.27233921436,
			"-0.014": 0.856445868686,
			"-0.013": 1.33618735885,
			"-0.012": 1.05615250077,
			"-0.011": 2.08664611675,
			"-0.01": 3.42226309786,
			"-0.009": 3.07425333157,
			"-0.008": 4.69048331808,
			"-0.007": 6.93234812342,
			"-0.006": 9.73448663985,
			"-0.005": 10.78616111,
			"-0.004": 13.3016313883,
			"-0.003": 13.4966705028,
			"-0.002": 15.7674549994,
			"-0.001": 12.3550324007,
			"0.0": 18.8735623745,
			"0.001": 28.485420029,
			"0.002": 24.8259154608,
			"0.003": 21.6384600542,
			"0.004": 20.7722444151,
			"0.005": 7.59318780247,
			"0.006": 3.4570774014,
			"0.007": 2.59579676033,
			"0.008": 2.23940217157,
			"0.009": 3.40136287873,
			"0.01": 2.12810325132,
			"0.011": 3.10890060617,
			"0.012": 3.97803400352,
			"0.013": 4.90188815345,
			"0.014": 0.739987947346,
			"0.015": 0.00131263815377,
			"0.016": 0.0,
			"0.017": 0.0,
			"0.018": 0.0,
			"0.019": 0.0,
			"0.02": 0.0,
			"0.021": 0.0,
			"0.022": 0.0,
			"0.023": 0.0,
			"0.024": 0.0,
			"0.025": 0.0
		}
	}
}
