{
	 "smiles": "NC1=CC(CO)=NC=C1", 
	 "Tm": 373.15, 
	 "num_atms": 17, 
	 "gaussian": { 
		 "optdone": 1, 
		 "sigma_profile": "yes", 
		 "theory": "DFT", 
		 "functional": "B3LYP", 
		 "basiset": "6-31G**", 
		 "properties": { 
			 "R2extent": 2012.3043, 
			 "electric_dipole_moment_norm": 5.70798461456, 
			 "electric_quadrupole_moment_norm": 18.3075198358, 
			 "total_energy": -418.182936114, 
			 "HOMO_LUMO_gap": 0.21988, 
			 "cosmo_polarized_energy": -13.45, 
			 "cosmo_cavitation_energy": 20.51, 
			 "cosmo_dispersion_energy": -15.75, 
			 "cosmo_repulsion_energy": 1.31, 
			 "cosmo_total_nonelectrostatic_energy": 6.07, 
			 "SMD_solvation_energy": 2.77 
		},
		"coords": [
			{
				"x": -0.3166200772,
				"y": 1.347022074,
				"z": 2.1695709385,
				"element": "N" 
			},
			{
				"x": 0.5111451794,
				"y": 0.5757214533,
				"z": 1.3799527679,
				"element": "C" 
			},
			{
				"x": 0.7535663459,
				"y": -0.775389362,
				"z": 1.6725056056,
				"element": "C" 
			},
			{
				"x": 1.5589759474,
				"y": -1.5235497133,
				"z": 0.8169658987,
				"element": "C" 
			},
			{
				"x": 1.8592257146,
				"y": -2.9948197475,
				"z": 1.0732963835,
				"element": "C" 
			},
			{
				"x": 2.7225610666,
				"y": -3.5327987812,
				"z": 0.1074671049,
				"element": "O" 
			},
			{
				"x": 2.127194245,
				"y": -1.0194265862,
				"z": -0.2865109028,
				"element": "N" 
			},
			{
				"x": 1.8948470871,
				"y": 0.2725386413,
				"z": -0.5651890258,
				"element": "C" 
			},
			{
				"x": 1.109525017,
				"y": 1.1037627497,
				"z": 0.2171214773,
				"element": "C" 
			},
			{
				"x": -0.492100654,
				"y": 1.0231811572,
				"z": 3.1089858879,
				"element": "H" 
			},
			{
				"x": -0.2294256673,
				"y": 2.3489719606,
				"z": 2.0892495387,
				"element": "H" 
			},
			{
				"x": 0.3159917993,
				"y": -1.2350760382,
				"z": 2.5556542239,
				"element": "H" 
			},
			{
				"x": 0.9055512896,
				"y": -3.5492783542,
				"z": 1.0930669002,
				"element": "H" 
			},
			{
				"x": 2.2976616496,
				"y": -3.0973361004,
				"z": 2.0797765608,
				"element": "H" 
			},
			{
				"x": 2.8812443449,
				"y": -2.7973490729,
				"z": -0.5152647705,
				"element": "H" 
			},
			{
				"x": 2.3671730141,
				"y": 0.6615424307,
				"z": -1.465220021,
				"element": "H" 
			},
			{
				"x": 0.9561836982,
				"y": 2.1416832892,
				"z": -0.0636285678,
				"element": "H" 
			}
		],
		 "valence_orbital": [ 
			{
				"type": "occ",
				"energy": -0.31365,
				"method": "rhf"
			},
			{
				"type": "occ",
				"energy": -0.26538,
				"method": "rhf"
			},
			{
				"type": "occ",
				"energy": -0.26457,
				"method": "rhf"
			},
			{
				"type": "occ",
				"energy": -0.23896,
				"method": "rhf"
			},
			{
				"type": "occ",
				"energy": -0.2312,
				"method": "rhf"
			},
			{
				"type": "unocc",
				"energy": -0.01132,
				"method": "rhf"
			},
			{
				"type": "unocc",
				"energy": -0.00406,
				"method": "rhf"
			},
			{
				"type": "unocc",
				"energy": 0.06605,
				"method": "rhf"
			},
			{
				"type": "unocc",
				"energy": 0.10561,
				"method": "rhf"
			},
			{
				"type": "unocc",
				"energy": 0.11128,
				"method": "rhf"
			}
		],
		"cosmo_sigma_profile": { 
			"-0.025": 0.0,
			"-0.024": 0.0,
			"-0.023": 0.0,
			"-0.022": 0.0,
			"-0.021": 0.0,
			"-0.02": 0.0,
			"-0.019": 0.0,
			"-0.018": 0.0,
			"-0.017": 0.0,
			"-0.016": 0.0,
			"-0.015": 0.0,
			"-0.014": 0.389036756017,
			"-0.013": 2.71784072583,
			"-0.012": 2.80636672993,
			"-0.011": 2.87166516642,
			"-0.01": 3.32550792374,
			"-0.009": 3.46485624867,
			"-0.008": 2.78909668315,
			"-0.007": 4.21217558253,
			"-0.006": 7.54809935227,
			"-0.005": 8.76202641079,
			"-0.004": 12.2768248855,
			"-0.003": 10.2206093888,
			"-0.002": 8.98673770458,
			"-0.001": 6.77478078056,
			"0.0": 7.82300745391,
			"0.001": 8.2061245406,
			"0.002": 8.0720650129,
			"0.003": 13.042845258,
			"0.004": 14.9531782794,
			"0.005": 6.29876885879,
			"0.006": 4.12052926117,
			"0.007": 3.38302981901,
			"0.008": 4.05655678819,
			"0.009": 3.50908828102,
			"0.01": 1.98863176687,
			"0.011": 2.09930372089,
			"0.012": 1.26154831026,
			"0.013": 1.77522668998,
			"0.014": 1.95402450314,
			"0.015": 2.34867550614,
			"0.016": 0.140398273877,
			"0.017": 0.0,
			"0.018": 0.0,
			"0.019": 0.0,
			"0.02": 0.0,
			"0.021": 0.0,
			"0.022": 0.0,
			"0.023": 0.0,
			"0.024": 0.0,
			"0.025": 0.0
		}
	}
}
