{
	 "smiles": "COC(=O)C1=CC=C(C=C1)C1=NC(C)=CS1", 
	 "Tm": 355.15, 
	 "num_atms": 27, 
	 "gaussian": { 
		 "optdone": 1, 
		 "sigma_profile": "yes", 
		 "theory": "DFT", 
		 "functional": "B3LYP", 
		 "basiset": "6-31G**", 
		 "properties": { 
			 "R2extent": 6125.2384, 
			 "electric_dipole_moment_norm": 2.5525834717, 
			 "electric_quadrupole_moment_norm": 16.0384945363, 
			 "total_energy": -1067.3115874, 
			 "HOMO_LUMO_gap": 0.15448, 
			 "cosmo_polarized_energy": -9.68, 
			 "cosmo_cavitation_energy": 33.43, 
			 "cosmo_dispersion_energy": -25.06, 
			 "cosmo_repulsion_energy": 1.9, 
			 "cosmo_total_nonelectrostatic_energy": 10.27, 
			 "SMD_solvation_energy": 6.01 
		},
		"coords": [
			{
				"x": -2.5744745984,
				"y": -2.8394540633,
				"z": -4.2981820097,
				"element": "C" 
			},
			{
				"x": -1.8105238375,
				"y": -2.3590165357,
				"z": -3.1820059566,
				"element": "O" 
			},
			{
				"x": -1.9562945468,
				"y": -1.0409738512,
				"z": -2.9098385582,
				"element": "C" 
			},
			{
				"x": -2.6786653624,
				"y": -0.3068109049,
				"z": -3.5563184632,
				"element": "O" 
			},
			{
				"x": -1.1390384143,
				"y": -0.6064531153,
				"z": -1.7435419079,
				"element": "C" 
			},
			{
				"x": -1.2025340575,
				"y": 0.7411757653,
				"z": -1.3599966254,
				"element": "C" 
			},
			{
				"x": -0.462004036,
				"y": 1.2015487481,
				"z": -0.28046072,
				"element": "C" 
			},
			{
				"x": 0.3632926197,
				"y": 0.3210519365,
				"z": 0.4443936398,
				"element": "C" 
			},
			{
				"x": 0.4228611877,
				"y": -1.0279488191,
				"z": 0.0554509966,
				"element": "C" 
			},
			{
				"x": -0.3192140516,
				"y": -1.4885825641,
				"z": -1.0261420585,
				"element": "C" 
			},
			{
				"x": 1.133188711,
				"y": 0.8417168085,
				"z": 1.5811691693,
				"element": "C" 
			},
			{
				"x": 1.1037190452,
				"y": 2.0892199378,
				"z": 1.9712750208,
				"element": "N" 
			},
			{
				"x": 1.9146798387,
				"y": 2.3176921821,
				"z": 3.0589841391,
				"element": "C" 
			},
			{
				"x": 1.9961463189,
				"y": 3.7006355781,
				"z": 3.6352634268,
				"element": "C" 
			},
			{
				"x": 2.5851672587,
				"y": 1.2136849307,
				"z": 3.5158986146,
				"element": "C" 
			},
			{
				"x": 2.1988031231,
				"y": -0.1749728761,
				"z": 2.5582449725,
				"element": "S" 
			},
			{
				"x": -2.2897638636,
				"y": -2.3154058455,
				"z": -5.2140409883,
				"element": "H" 
			},
			{
				"x": -3.6434128265,
				"y": -2.6900422668,
				"z": -4.1263269231,
				"element": "H" 
			},
			{
				"x": -2.3440250712,
				"y": -3.901931818,
				"z": -4.3773227342,
				"element": "H" 
			},
			{
				"x": -1.8414321875,
				"y": 1.4112761439,
				"z": -1.9250827716,
				"element": "H" 
			},
			{
				"x": -0.5045913355,
				"y": 2.2411481766,
				"z": 0.0233325792,
				"element": "H" 
			},
			{
				"x": 1.0528280388,
				"y": -1.7258010033,
				"z": 0.5997656527,
				"element": "H" 
			},
			{
				"x": -0.2674079925,
				"y": -2.5305199152,
				"z": -1.3194120965,
				"element": "H" 
			},
			{
				"x": 2.6819410945,
				"y": 3.7366306722,
				"z": 4.4851428014,
				"element": "H" 
			},
			{
				"x": 1.0096341706,
				"y": 4.0375464228,
				"z": 3.9709567104,
				"element": "H" 
			},
			{
				"x": 2.3419397651,
				"y": 4.4134760118,
				"z": 2.8793175465,
				"element": "H" 
			},
			{
				"x": 3.2722810093,
				"y": 1.1437102642,
				"z": 4.3471765435,
				"element": "H" 
			}
		],
		 "valence_orbital": [ 
			{
				"type": "occ",
				"energy": -0.27623,
				"method": "rhf"
			},
			{
				"type": "occ",
				"energy": -0.27505,
				"method": "rhf"
			},
			{
				"type": "occ",
				"energy": -0.27329,
				"method": "rhf"
			},
			{
				"type": "occ",
				"energy": -0.26144,
				"method": "rhf"
			},
			{
				"type": "occ",
				"energy": -0.2243,
				"method": "rhf"
			},
			{
				"type": "unocc",
				"energy": -0.06982,
				"method": "rhf"
			},
			{
				"type": "unocc",
				"energy": -0.01195,
				"method": "rhf"
			},
			{
				"type": "unocc",
				"energy": -0.00491,
				"method": "rhf"
			},
			{
				"type": "unocc",
				"energy": 0.01793,
				"method": "rhf"
			},
			{
				"type": "unocc",
				"energy": 0.04139,
				"method": "rhf"
			}
		],
		"cosmo_sigma_profile": { 
			"-0.025": 0.0,
			"-0.024": 0.0,
			"-0.023": 0.0,
			"-0.022": 0.0,
			"-0.021": 0.0,
			"-0.02": 0.0,
			"-0.019": 0.0,
			"-0.018": 0.0,
			"-0.017": 0.0,
			"-0.016": 0.0,
			"-0.015": 0.0,
			"-0.014": 0.0,
			"-0.013": 0.0,
			"-0.012": 0.0,
			"-0.011": 0.0,
			"-0.01": 0.0,
			"-0.009": 1.38409266774,
			"-0.008": 2.30233568898,
			"-0.007": 4.67094021063,
			"-0.006": 12.8930313049,
			"-0.005": 17.7062663447,
			"-0.004": 21.7006465442,
			"-0.003": 23.0507406206,
			"-0.002": 19.8511872493,
			"-0.001": 21.2718859403,
			"0.0": 24.7915246457,
			"0.001": 27.7489485353,
			"0.002": 29.0892146399,
			"0.003": 25.3868805221,
			"0.004": 7.98398522318,
			"0.005": 6.0013584653,
			"0.006": 3.94466884867,
			"0.007": 2.54160865126,
			"0.008": 3.05769051147,
			"0.009": 3.08452200505,
			"0.01": 2.45516003487,
			"0.011": 4.30618994586,
			"0.012": 4.56770396404,
			"0.013": 0.171468871031,
			"0.014": 0.0,
			"0.015": 0.0,
			"0.016": 0.0,
			"0.017": 0.0,
			"0.018": 0.0,
			"0.019": 0.0,
			"0.02": 0.0,
			"0.021": 0.0,
			"0.022": 0.0,
			"0.023": 0.0,
			"0.024": 0.0,
			"0.025": 0.0
		}
	}
}
