{
	 "smiles": "NC1=CC=C(C=C1)C(=O)NCC(O)=O", 
	 "Tm": 472.15, 
	 "num_atms": 24, 
	 "gaussian": { 
		 "optdone": 1, 
		 "sigma_profile": "yes", 
		 "theory": "DFT", 
		 "functional": "B3LYP", 
		 "basiset": "6-31G**", 
		 "properties": { 
			 "R2extent": 3832.8709, 
			 "electric_dipole_moment_norm": 3.62331983407, 
			 "electric_quadrupole_moment_norm": 25.9325729803, 
			 "total_energy": -684.184712611, 
			 "HOMO_LUMO_gap": 0.18957, 
			 "cosmo_polarized_energy": -22.16, 
			 "cosmo_cavitation_energy": 29.11, 
			 "cosmo_dispersion_energy": -20.95, 
			 "cosmo_repulsion_energy": 1.69, 
			 "cosmo_total_nonelectrostatic_energy": 9.85, 
			 "SMD_solvation_energy": 6.21 
		},
		"coords": [
			{
				"x": -0.3835628967,
				"y": -4.0740386874,
				"z": -1.2021829958,
				"element": "N" 
			},
			{
				"x": -0.2418878722,
				"y": -2.8231847556,
				"z": -0.6190296256,
				"element": "C" 
			},
			{
				"x": -0.0978517104,
				"y": -2.6917965827,
				"z": 0.7766851636,
				"element": "C" 
			},
			{
				"x": -0.0128071619,
				"y": -1.4375068529,
				"z": 1.3612149538,
				"element": "C" 
			},
			{
				"x": -0.0374358398,
				"y": -0.2689336278,
				"z": 0.5832898861,
				"element": "C" 
			},
			{
				"x": -0.1991782349,
				"y": -0.4015409598,
				"z": -0.8048171837,
				"element": "C" 
			},
			{
				"x": -0.3025527261,
				"y": -1.6537007433,
				"z": -1.3995719953,
				"element": "C" 
			},
			{
				"x": 0.0039301078,
				"y": 1.0427512299,
				"z": 1.2953970665,
				"element": "C" 
			},
			{
				"x": -0.4704718279,
				"y": 1.1790909028,
				"z": 2.4183243803,
				"element": "O" 
			},
			{
				"x": 0.5434278137,
				"y": 2.1405464706,
				"z": 0.6328681407,
				"element": "N" 
			},
			{
				"x": 1.670962285,
				"y": 2.1148629014,
				"z": -0.279467808,
				"element": "C" 
			},
			{
				"x": 2.9866595143,
				"y": 2.6483347893,
				"z": 0.2800992084,
				"element": "C" 
			},
			{
				"x": 2.8310781794,
				"y": 3.3244653443,
				"z": 1.4394822949,
				"element": "O" 
			},
			{
				"x": 4.0522303336,
				"y": 2.5172080601,
				"z": -0.2770073291,
				"element": "O" 
			},
			{
				"x": -0.0370716219,
				"y": -4.8585808733,
				"z": -0.6694677581,
				"element": "H" 
			},
			{
				"x": -0.1694686454,
				"y": -4.1380164871,
				"z": -2.1867505175,
				"element": "H" 
			},
			{
				"x": -0.066333193,
				"y": -3.5843964511,
				"z": 1.3966079156,
				"element": "H" 
			},
			{
				"x": 0.0727084276,
				"y": -1.337979788,
				"z": 2.4383201382,
				"element": "H" 
			},
			{
				"x": -0.280112697,
				"y": 0.4837445762,
				"z": -1.4284412984,
				"element": "H" 
			},
			{
				"x": -0.4463500729,
				"y": -1.7340632276,
				"z": -2.4741094228,
				"element": "H" 
			},
			{
				"x": 0.5022882217,
				"y": 2.9592229519,
				"z": 1.2293663324,
				"element": "H" 
			},
			{
				"x": 1.865309782,
				"y": 1.0954422946,
				"z": -0.6133824693,
				"element": "H" 
			},
			{
				"x": 1.4682675097,
				"y": 2.7054022349,
				"z": -1.1844768146,
				"element": "H" 
			},
			{
				"x": 3.7142223254,
				"y": 3.6389672807,
				"z": 1.6964497377,
				"element": "H" 
			}
		],
		 "valence_orbital": [ 
			{
				"type": "occ",
				"energy": -0.29808,
				"method": "rhf"
			},
			{
				"type": "occ",
				"energy": -0.2567,
				"method": "rhf"
			},
			{
				"type": "occ",
				"energy": -0.25285,
				"method": "rhf"
			},
			{
				"type": "occ",
				"energy": -0.23845,
				"method": "rhf"
			},
			{
				"type": "occ",
				"energy": -0.21056,
				"method": "rhf"
			},
			{
				"type": "unocc",
				"energy": -0.02099,
				"method": "rhf"
			},
			{
				"type": "unocc",
				"energy": -0.00771,
				"method": "rhf"
			},
			{
				"type": "unocc",
				"energy": 0.00243,
				"method": "rhf"
			},
			{
				"type": "unocc",
				"energy": 0.05997,
				"method": "rhf"
			},
			{
				"type": "unocc",
				"energy": 0.06505,
				"method": "rhf"
			}
		],
		"cosmo_sigma_profile": { 
			"-0.025": 0.0,
			"-0.024": 0.0,
			"-0.023": 0.0,
			"-0.022": 0.0,
			"-0.021": 0.0,
			"-0.02": 0.0,
			"-0.019": 0.309656246307,
			"-0.018": 1.15152866627,
			"-0.017": 0.768917568241,
			"-0.016": 1.00120249406,
			"-0.015": 0.589435179566,
			"-0.014": 0.977791154867,
			"-0.013": 2.21617620904,
			"-0.012": 3.56443071799,
			"-0.011": 3.83273025534,
			"-0.01": 5.2146072499,
			"-0.009": 4.08749640049,
			"-0.008": 5.17542906118,
			"-0.007": 10.8110241322,
			"-0.006": 14.9040626038,
			"-0.005": 14.1662387047,
			"-0.004": 12.5781017413,
			"-0.003": 12.0668992625,
			"-0.002": 9.20200670676,
			"-0.001": 9.74146536522,
			"0.0": 9.79566634422,
			"0.001": 10.8140693658,
			"0.002": 10.9903964475,
			"0.003": 11.0186826582,
			"0.004": 12.2238267657,
			"0.005": 16.9292693429,
			"0.006": 6.48746145194,
			"0.007": 5.16572681415,
			"0.008": 3.98340717631,
			"0.009": 3.93208575609,
			"0.01": 4.6566689328,
			"0.011": 6.19211174297,
			"0.012": 6.41779636258,
			"0.013": 4.62664755137,
			"0.014": 4.6930758976,
			"0.015": 0.553226923234,
			"0.016": 0.0,
			"0.017": 0.0,
			"0.018": 0.0,
			"0.019": 0.0,
			"0.02": 0.0,
			"0.021": 0.0,
			"0.022": 0.0,
			"0.023": 0.0,
			"0.024": 0.0,
			"0.025": 0.0
		}
	}
}
