{
	 "smiles": "OCC1=CC=C(C=C1)C1=CSC=C1", 
	 "Tm": 426.15, 
	 "num_atms": 23, 
	 "gaussian": { 
		 "optdone": 1, 
		 "sigma_profile": "yes", 
		 "theory": "DFT", 
		 "functional": "B3LYP", 
		 "basiset": "6-31G**", 
		 "properties": { 
			 "R2extent": 4466.6611, 
			 "electric_dipole_moment_norm": 1.39469970961, 
			 "electric_quadrupole_moment_norm": 7.93042401073, 
			 "total_energy": -898.58942277, 
			 "HOMO_LUMO_gap": 0.18733, 
			 "cosmo_polarized_energy": -9.34, 
			 "cosmo_cavitation_energy": 28.59, 
			 "cosmo_dispersion_energy": -21.55, 
			 "cosmo_repulsion_energy": 1.65, 
			 "cosmo_total_nonelectrostatic_energy": 8.69, 
			 "SMD_solvation_energy": 4.83 
		},
		"coords": [
			{
				"x": -1.764162643,
				"y": -2.5550296898,
				"z": 4.1455803175,
				"element": "O" 
			},
			{
				"x": -1.9023431801,
				"y": -1.2805722884,
				"z": 3.5326220504,
				"element": "C" 
			},
			{
				"x": -0.8912674779,
				"y": -1.0196484178,
				"z": 2.4333890289,
				"element": "C" 
			},
			{
				"x": -0.4385004118,
				"y": 0.2761390108,
				"z": 2.1622333873,
				"element": "C" 
			},
			{
				"x": 0.4653032932,
				"y": 0.5176750712,
				"z": 1.1297668649,
				"element": "C" 
			},
			{
				"x": 0.9534456216,
				"y": -0.5336117896,
				"z": 0.3355406469,
				"element": "C" 
			},
			{
				"x": 0.495595504,
				"y": -1.8332682189,
				"z": 0.6140292735,
				"element": "C" 
			},
			{
				"x": -0.4077818368,
				"y": -2.072154618,
				"z": 1.6457159735,
				"element": "C" 
			},
			{
				"x": 1.9230731856,
				"y": -0.2775481987,
				"z": -0.7496828277,
				"element": "C" 
			},
			{
				"x": 2.8928634905,
				"y": -1.1659948372,
				"z": -1.1554286793,
				"element": "C" 
			},
			{
				"x": 3.8589875352,
				"y": -0.54332748,
				"z": -2.4490825069,
				"element": "S" 
			},
			{
				"x": 2.9586702279,
				"y": 0.9393693624,
				"z": -2.4650152823,
				"element": "C" 
			},
			{
				"x": 1.9761779768,
				"y": 0.938069658,
				"z": -1.5181240314,
				"element": "C" 
			},
			{
				"x": -0.862961425,
				"y": -2.6131362215,
				"z": 4.4905054528,
				"element": "H" 
			},
			{
				"x": -2.9185274349,
				"y": -1.2734748006,
				"z": 3.119460977,
				"element": "H" 
			},
			{
				"x": -1.8578980114,
				"y": -0.4668285164,
				"z": 4.2741628095,
				"element": "H" 
			},
			{
				"x": -0.7882373764,
				"y": 1.1067689365,
				"z": 2.7715311752,
				"element": "H" 
			},
			{
				"x": 0.820988499,
				"y": 1.5292998227,
				"z": 0.9577805512,
				"element": "H" 
			},
			{
				"x": 0.8339473506,
				"y": -2.6606342095,
				"z": -0.0031705825,
				"element": "H" 
			},
			{
				"x": -0.7534363667,
				"y": -3.081312708,
				"z": 1.8485548116,
				"element": "H" 
			},
			{
				"x": 3.1155444429,
				"y": -2.1380737542,
				"z": -0.7386174849,
				"element": "H" 
			},
			{
				"x": 3.1979362897,
				"y": 1.7129201659,
				"z": -3.1812521142,
				"element": "H" 
			},
			{
				"x": 1.283282747,
				"y": 1.7604737214,
				"z": -1.3826998111,
				"element": "H" 
			}
		],
		 "valence_orbital": [ 
			{
				"type": "occ",
				"energy": -0.28204,
				"method": "rhf"
			},
			{
				"type": "occ",
				"energy": -0.26807,
				"method": "rhf"
			},
			{
				"type": "occ",
				"energy": -0.25285,
				"method": "rhf"
			},
			{
				"type": "occ",
				"energy": -0.243,
				"method": "rhf"
			},
			{
				"type": "occ",
				"energy": -0.21648,
				"method": "rhf"
			},
			{
				"type": "unocc",
				"energy": -0.02915,
				"method": "rhf"
			},
			{
				"type": "unocc",
				"energy": -0.00563,
				"method": "rhf"
			},
			{
				"type": "unocc",
				"energy": 0.00351,
				"method": "rhf"
			},
			{
				"type": "unocc",
				"energy": 0.03229,
				"method": "rhf"
			},
			{
				"type": "unocc",
				"energy": 0.0745,
				"method": "rhf"
			}
		],
		"cosmo_sigma_profile": { 
			"-0.025": 0.0,
			"-0.024": 0.0,
			"-0.023": 0.0,
			"-0.022": 0.0,
			"-0.021": 0.0,
			"-0.02": 0.0,
			"-0.019": 0.0,
			"-0.018": 0.0,
			"-0.017": 0.0,
			"-0.016": 0.038591571337,
			"-0.015": 0.57903721854,
			"-0.014": 0.819436026196,
			"-0.013": 1.27733993259,
			"-0.012": 0.794656435498,
			"-0.011": 0.413913930671,
			"-0.01": 0.893526257441,
			"-0.009": 1.16429287873,
			"-0.008": 4.47494712698,
			"-0.007": 4.23648345763,
			"-0.006": 11.2316636315,
			"-0.005": 17.0730453918,
			"-0.004": 19.9495265302,
			"-0.003": 16.1424115065,
			"-0.002": 15.2933206528,
			"-0.001": 13.292389261,
			"0.0": 13.0836717175,
			"0.001": 12.7852539939,
			"0.002": 16.58492944,
			"0.003": 17.5071930287,
			"0.004": 24.5377459627,
			"0.005": 20.665235682,
			"0.006": 7.10441219434,
			"0.007": 0.678943826013,
			"0.008": 0.727693742334,
			"0.009": 1.41585449459,
			"0.01": 1.29133623056,
			"0.011": 1.3870990741,
			"0.012": 1.28168833113,
			"0.013": 1.27791140825,
			"0.014": 2.25434292378,
			"0.015": 0.0506761116453,
			"0.016": 0.0,
			"0.017": 0.0,
			"0.018": 0.0,
			"0.019": 0.0,
			"0.02": 0.0,
			"0.021": 0.0,
			"0.022": 0.0,
			"0.023": 0.0,
			"0.024": 0.0,
			"0.025": 0.0
		}
	}
}
