{
	 "smiles": "CCC1=CC=C(Cl)C=C1", 
	 "Tm": 210.35, 
	 "num_atms": 18, 
	 "gaussian": { 
		 "optdone": 1, 
		 "sigma_profile": "yes", 
		 "theory": "DFT", 
		 "functional": "B3LYP", 
		 "basiset": "6-31G**", 
		 "properties": { 
			 "R2extent": 2655.9464, 
			 "electric_dipole_moment_norm": 2.32521088506, 
			 "electric_quadrupole_moment_norm": 9.52092055266, 
			 "total_energy": -770.480039611, 
			 "HOMO_LUMO_gap": 0.22613, 
			 "cosmo_polarized_energy": -3.73, 
			 "cosmo_cavitation_energy": 23.12, 
			 "cosmo_dispersion_energy": -17.01, 
			 "cosmo_repulsion_energy": 1.41, 
			 "cosmo_total_nonelectrostatic_energy": 7.52, 
			 "SMD_solvation_energy": 3.66 
		},
		"coords": [
			{
				"x": -0.4229196349,
				"y": 2.105057103,
				"z": 0.7091205302,
				"element": "C" 
			},
			{
				"x": -1.3581863546,
				"y": 0.9071525791,
				"z": 0.4633980553,
				"element": "C" 
			},
			{
				"x": -0.6650405717,
				"y": -0.4271390643,
				"z": 0.6401314843,
				"element": "C" 
			},
			{
				"x": -0.0175676003,
				"y": -1.0521735351,
				"z": -0.4339933599,
				"element": "C" 
			},
			{
				"x": 0.6566018251,
				"y": -2.2627265138,
				"z": -0.2741592981,
				"element": "C" 
			},
			{
				"x": 0.6842695527,
				"y": -2.8610194353,
				"z": 0.9845471558,
				"element": "C" 
			},
			{
				"x": 1.5274193387,
				"y": -4.3910315944,
				"z": 1.1997158025,
				"element": "Cl" 
			},
			{
				"x": 0.0486541715,
				"y": -2.267486464,
				"z": 2.0739472825,
				"element": "C" 
			},
			{
				"x": -0.6195780582,
				"y": -1.0568982248,
				"z": 1.8911279098,
				"element": "C" 
			},
			{
				"x": -0.019213797,
				"y": 2.0853922504,
				"z": 1.7265996427,
				"element": "H" 
			},
			{
				"x": -0.9559348399,
				"y": 3.0517833461,
				"z": 0.5729778708,
				"element": "H" 
			},
			{
				"x": 0.4248556346,
				"y": 2.0894948369,
				"z": 0.016544053,
				"element": "H" 
			},
			{
				"x": -1.7697341515,
				"y": 0.972930364,
				"z": -0.5507474038,
				"element": "H" 
			},
			{
				"x": -2.2111518549,
				"y": 0.968834138,
				"z": 1.1495753882,
				"element": "H" 
			},
			{
				"x": -0.042304565,
				"y": -0.5885536685,
				"z": -1.4172908429,
				"element": "H" 
			},
			{
				"x": 1.1505625644,
				"y": -2.7393387276,
				"z": -1.1138530285,
				"element": "H" 
			},
			{
				"x": 0.0735323024,
				"y": -2.7477720018,
				"z": 3.0460346132,
				"element": "H" 
			},
			{
				"x": -1.1188639615,
				"y": -0.5970053878,
				"z": 2.7406241447,
				"element": "H" 
			}
		],
		 "valence_orbital": [ 
			{
				"type": "occ",
				"energy": -0.34127,
				"method": "rhf"
			},
			{
				"type": "occ",
				"energy": -0.32196,
				"method": "rhf"
			},
			{
				"type": "occ",
				"energy": -0.30842,
				"method": "rhf"
			},
			{
				"type": "occ",
				"energy": -0.25999,
				"method": "rhf"
			},
			{
				"type": "occ",
				"energy": -0.2373,
				"method": "rhf"
			},
			{
				"type": "unocc",
				"energy": -0.01117,
				"method": "rhf"
			},
			{
				"type": "unocc",
				"energy": -0.00914,
				"method": "rhf"
			},
			{
				"type": "unocc",
				"energy": 0.03254,
				"method": "rhf"
			},
			{
				"type": "unocc",
				"energy": 0.09809,
				"method": "rhf"
			},
			{
				"type": "unocc",
				"energy": 0.12378,
				"method": "rhf"
			}
		],
		"cosmo_sigma_profile": { 
			"-0.025": 0.0,
			"-0.024": 0.0,
			"-0.023": 0.0,
			"-0.022": 0.0,
			"-0.021": 0.0,
			"-0.02": 0.0,
			"-0.019": 0.0,
			"-0.018": 0.0,
			"-0.017": 0.0,
			"-0.016": 0.0,
			"-0.015": 0.0,
			"-0.014": 0.0,
			"-0.013": 0.0,
			"-0.012": 0.0,
			"-0.011": 0.0,
			"-0.01": 0.0,
			"-0.009": 0.0,
			"-0.008": 0.0,
			"-0.007": 2.03273974153,
			"-0.006": 6.18052507087,
			"-0.005": 9.82749762727,
			"-0.004": 11.4395734967,
			"-0.003": 16.1238237368,
			"-0.002": 18.1699993061,
			"-0.001": 18.715709145,
			"0.0": 19.9559486392,
			"0.001": 17.8565043092,
			"0.002": 16.5209873039,
			"0.003": 14.2942256538,
			"0.004": 18.2706648226,
			"0.005": 15.160140153,
			"0.006": 0.953147346115,
			"0.007": 0.0,
			"0.008": 0.0,
			"0.009": 0.0,
			"0.01": 0.0,
			"0.011": 0.0,
			"0.012": 0.0,
			"0.013": 0.0,
			"0.014": 0.0,
			"0.015": 0.0,
			"0.016": 0.0,
			"0.017": 0.0,
			"0.018": 0.0,
			"0.019": 0.0,
			"0.02": 0.0,
			"0.021": 0.0,
			"0.022": 0.0,
			"0.023": 0.0,
			"0.024": 0.0,
			"0.025": 0.0
		}
	}
}
