{
	 "smiles": "CC(=O)OC1=CC=CC=C1C(O)=O", 
	 "Tm": 415.15, 
	 "num_atms": 21, 
	 "gaussian": { 
		 "optdone": 1, 
		 "sigma_profile": "yes", 
		 "theory": "DFT", 
		 "functional": "B3LYP", 
		 "basiset": "6-31G**", 
		 "properties": { 
			 "R2extent": 2540.059, 
			 "electric_dipole_moment_norm": 4.59292224733, 
			 "electric_quadrupole_moment_norm": 24.4744723896, 
			 "total_energy": -648.694240887, 
			 "HOMO_LUMO_gap": 0.21092, 
			 "cosmo_polarized_energy": -15.23, 
			 "cosmo_cavitation_energy": 26.06, 
			 "cosmo_dispersion_energy": -18.78, 
			 "cosmo_repulsion_energy": 1.48, 
			 "cosmo_total_nonelectrostatic_energy": 8.77, 
			 "SMD_solvation_energy": 6.87 
		},
		"coords": [
			{
				"x": 0.9143053477,
				"y": -3.3379312501,
				"z": 0.5205319945,
				"element": "C" 
			},
			{
				"x": 1.2620449383,
				"y": -1.8732760881,
				"z": 0.5308228245,
				"element": "C" 
			},
			{
				"x": 2.3042886399,
				"y": -1.3780969895,
				"z": 0.8598322702,
				"element": "O" 
			},
			{
				"x": 0.1675168671,
				"y": -1.1347442759,
				"z": 0.0850943619,
				"element": "O" 
			},
			{
				"x": 0.2561203912,
				"y": 0.2597138258,
				"z": -0.0648717845,
				"element": "C" 
			},
			{
				"x": 0.6835176993,
				"y": 1.053367145,
				"z": 0.9973029138,
				"element": "C" 
			},
			{
				"x": 0.7105640721,
				"y": 2.4383728129,
				"z": 0.846162732,
				"element": "C" 
			},
			{
				"x": 0.310680651,
				"y": 3.0236908216,
				"z": -0.3572744611,
				"element": "C" 
			},
			{
				"x": -0.1201807794,
				"y": 2.218462282,
				"z": -1.4053627873,
				"element": "C" 
			},
			{
				"x": -0.1616416869,
				"y": 0.8210475818,
				"z": -1.2837142052,
				"element": "C" 
			},
			{
				"x": -0.6589479844,
				"y": 0.0638410977,
				"z": -2.4931046382,
				"element": "C" 
			},
			{
				"x": -0.8978810679,
				"y": -1.2564277253,
				"z": -2.356464334,
				"element": "O" 
			},
			{
				"x": -0.8554709756,
				"y": 0.61636974,
				"z": -3.5518989047,
				"element": "O" 
			},
			{
				"x": -0.00905179,
				"y": -3.5141031706,
				"z": 1.07910637,
				"element": "H" 
			},
			{
				"x": 1.7352286251,
				"y": -3.903880567,
				"z": 0.958873652,
				"element": "H" 
			},
			{
				"x": 0.7478497018,
				"y": -3.673014147,
				"z": -0.5086135275,
				"element": "H" 
			},
			{
				"x": 0.998035217,
				"y": 0.5892168447,
				"z": 1.9231410042,
				"element": "H" 
			},
			{
				"x": 1.0454932146,
				"y": 3.0572534757,
				"z": 1.6730093024,
				"element": "H" 
			},
			{
				"x": 0.3326236592,
				"y": 4.1024238974,
				"z": -0.4749901415,
				"element": "H" 
			},
			{
				"x": -0.4374543638,
				"y": 2.6412112206,
				"z": -2.3520914081,
				"element": "H" 
			},
			{
				"x": -0.7000403764,
				"y": -1.5283965316,
				"z": -1.4433912333,
				"element": "H" 
			}
		],
		 "valence_orbital": [ 
			{
				"type": "occ",
				"energy": -0.31002,
				"method": "rhf"
			},
			{
				"type": "occ",
				"energy": -0.30615,
				"method": "rhf"
			},
			{
				"type": "occ",
				"energy": -0.2734,
				"method": "rhf"
			},
			{
				"type": "occ",
				"energy": -0.26829,
				"method": "rhf"
			},
			{
				"type": "occ",
				"energy": -0.26468,
				"method": "rhf"
			},
			{
				"type": "unocc",
				"energy": -0.05376,
				"method": "rhf"
			},
			{
				"type": "unocc",
				"energy": -0.03054,
				"method": "rhf"
			},
			{
				"type": "unocc",
				"energy": -0.01009,
				"method": "rhf"
			},
			{
				"type": "unocc",
				"energy": 0.05269,
				"method": "rhf"
			},
			{
				"type": "unocc",
				"energy": 0.07145,
				"method": "rhf"
			}
		],
		"cosmo_sigma_profile": { 
			"-0.025": 0.0,
			"-0.024": 0.0,
			"-0.023": 0.0,
			"-0.022": 0.0,
			"-0.021": 0.0,
			"-0.02": 0.0,
			"-0.019": 0.0,
			"-0.018": 0.0,
			"-0.017": 0.0,
			"-0.016": 0.0,
			"-0.015": 0.0,
			"-0.014": 0.0,
			"-0.013": 0.0,
			"-0.012": 0.0354536346879,
			"-0.011": 0.611794532797,
			"-0.01": 1.69854993314,
			"-0.009": 3.90968476684,
			"-0.008": 5.29634177727,
			"-0.007": 12.2544314315,
			"-0.006": 16.2711996487,
			"-0.005": 17.523241082,
			"-0.004": 14.997103956,
			"-0.003": 15.0412233876,
			"-0.002": 12.2754165732,
			"-0.001": 9.55194408798,
			"0.0": 11.5999104238,
			"0.001": 12.2999675127,
			"0.002": 14.1948195657,
			"0.003": 11.7452531929,
			"0.004": 3.95907597366,
			"0.005": 4.52958660724,
			"0.006": 3.97052579192,
			"0.007": 3.80683978452,
			"0.008": 4.33563132062,
			"0.009": 5.92965583307,
			"0.01": 8.68966975976,
			"0.011": 7.66463633399,
			"0.012": 4.82751219482,
			"0.013": 1.82922260607,
			"0.014": 0.202888656443,
			"0.015": 0.0,
			"0.016": 0.0,
			"0.017": 0.0,
			"0.018": 0.0,
			"0.019": 0.0,
			"0.02": 0.0,
			"0.021": 0.0,
			"0.022": 0.0,
			"0.023": 0.0,
			"0.024": 0.0,
			"0.025": 0.0
		}
	}
}
