{
	 "smiles": "OC(=O)CC1=CC=C(C=C1)S(=O)(=O)C(F)F", 
	 "Tm": 413.15, 
	 "num_atms": 24, 
	 "gaussian": { 
		 "optdone": 1, 
		 "sigma_profile": "yes", 
		 "theory": "DFT", 
		 "functional": "B3LYP", 
		 "basiset": "6-31G**", 
		 "properties": { 
			 "R2extent": 5885.1028, 
			 "electric_dipole_moment_norm": 4.68521003798, 
			 "electric_quadrupole_moment_norm": 8.65520211145, 
			 "total_energy": -1246.46897626, 
			 "HOMO_LUMO_gap": 0.2248, 
			 "cosmo_polarized_energy": -19.4, 
			 "cosmo_cavitation_energy": 31.89, 
			 "cosmo_dispersion_energy": -22.45, 
			 "cosmo_repulsion_energy": 1.7, 
			 "cosmo_total_nonelectrostatic_energy": 11.14, 
			 "SMD_solvation_energy": 6.81 
		},
		"coords": [
			{
				"x": -3.3189592637,
				"y": -2.3091066975,
				"z": 2.8463757514,
				"element": "O" 
			},
			{
				"x": -2.8373509651,
				"y": -1.7570661278,
				"z": 1.7069105952,
				"element": "C" 
			},
			{
				"x": -3.3691891799,
				"y": -1.8935030079,
				"z": 0.6306590759,
				"element": "O" 
			},
			{
				"x": -1.5663550664,
				"y": -0.968274628,
				"z": 1.9952969131,
				"element": "C" 
			},
			{
				"x": -0.9713843564,
				"y": -0.3222745298,
				"z": 0.7680873008,
				"element": "C" 
			},
			{
				"x": -0.0328727104,
				"y": -1.0108544702,
				"z": -0.0116494532,
				"element": "C" 
			},
			{
				"x": 0.516867432,
				"y": -0.4264289211,
				"z": -1.1498248297,
				"element": "C" 
			},
			{
				"x": 0.1184078574,
				"y": 0.865126237,
				"z": -1.4998672656,
				"element": "C" 
			},
			{
				"x": -0.8137980245,
				"y": 1.5755263444,
				"z": -0.7411259383,
				"element": "C" 
			},
			{
				"x": -1.3515464368,
				"y": 0.9731056488,
				"z": 0.3934175497,
				"element": "C" 
			},
			{
				"x": 0.8142531716,
				"y": 1.6256662253,
				"z": -2.9602590778,
				"element": "S" 
			},
			{
				"x": 2.0909426443,
				"y": 0.9760879601,
				"z": -3.2859654524,
				"element": "O" 
			},
			{
				"x": 0.6872201998,
				"y": 3.0854657807,
				"z": -2.8562913936,
				"element": "O" 
			},
			{
				"x": -0.3681526459,
				"y": 1.1121511623,
				"z": -4.3031535523,
				"element": "C" 
			},
			{
				"x": -0.3966447252,
				"y": -0.2353175459,
				"z": -4.3615707263,
				"element": "F" 
			},
			{
				"x": -1.5982845657,
				"y": 1.5720679014,
				"z": -3.9947952927,
				"element": "F" 
			},
			{
				"x": -4.1230455272,
				"y": -2.7942855542,
				"z": 2.5953032528,
				"element": "H" 
			},
			{
				"x": -1.8118668737,
				"y": -0.2215799734,
				"z": 2.7589090674,
				"element": "H" 
			},
			{
				"x": -0.8556608126,
				"y": -1.6559960612,
				"z": 2.4674317772,
				"element": "H" 
			},
			{
				"x": 0.2734451357,
				"y": -2.0128060749,
				"z": 0.2755572508,
				"element": "H" 
			},
			{
				"x": 1.2557198033,
				"y": -0.9468191233,
				"z": -1.7488979682,
				"element": "H" 
			},
			{
				"x": -1.0909632467,
				"y": 2.5836962659,
				"z": -1.0281387579,
				"element": "H" 
			},
			{
				"x": -2.0729215291,
				"y": 1.5174590442,
				"z": 0.9963484924,
				"element": "H" 
			},
			{
				"x": -0.0172603151,
				"y": 1.5375601451,
				"z": -5.2499573189,
				"element": "H" 
			}
		],
		 "valence_orbital": [ 
			{
				"type": "occ",
				"energy": -0.31094,
				"method": "rhf"
			},
			{
				"type": "occ",
				"energy": -0.29283,
				"method": "rhf"
			},
			{
				"type": "occ",
				"energy": -0.29138,
				"method": "rhf"
			},
			{
				"type": "occ",
				"energy": -0.27852,
				"method": "rhf"
			},
			{
				"type": "occ",
				"energy": -0.27814,
				"method": "rhf"
			},
			{
				"type": "unocc",
				"energy": -0.05334,
				"method": "rhf"
			},
			{
				"type": "unocc",
				"energy": -0.03023,
				"method": "rhf"
			},
			{
				"type": "unocc",
				"energy": -0.00203,
				"method": "rhf"
			},
			{
				"type": "unocc",
				"energy": 0.05113,
				"method": "rhf"
			},
			{
				"type": "unocc",
				"energy": 0.05954,
				"method": "rhf"
			}
		],
		"cosmo_sigma_profile": { 
			"-0.025": 0.0,
			"-0.024": 0.0,
			"-0.023": 0.0,
			"-0.022": 0.0,
			"-0.021": 0.0,
			"-0.02": 0.0,
			"-0.019": 0.0633963710294,
			"-0.018": 0.784110429328,
			"-0.017": 0.881989464654,
			"-0.016": 0.770541413208,
			"-0.015": 0.923560259647,
			"-0.014": 0.904177627126,
			"-0.013": 2.61788915388,
			"-0.012": 3.44456861926,
			"-0.011": 2.35429752719,
			"-0.01": 1.79410919261,
			"-0.009": 1.7526848676,
			"-0.008": 10.2097426843,
			"-0.007": 16.0416287042,
			"-0.006": 14.3072728766,
			"-0.005": 10.4556032057,
			"-0.004": 10.2116794364,
			"-0.003": 11.8043503001,
			"-0.002": 11.1581707222,
			"-0.001": 11.3992580767,
			"0.0": 16.191441666,
			"0.001": 21.6155137465,
			"0.002": 28.4582019036,
			"0.003": 13.2342196685,
			"0.004": 5.46590152862,
			"0.005": 5.51794015338,
			"0.006": 5.42434845337,
			"0.007": 6.51146624989,
			"0.008": 5.74413901551,
			"0.009": 9.3670111859,
			"0.01": 12.251693644,
			"0.011": 10.2714225791,
			"0.012": 2.79180559618,
			"0.013": 0.025430940643,
			"0.014": 0.0,
			"0.015": 0.0,
			"0.016": 0.0,
			"0.017": 0.0,
			"0.018": 0.0,
			"0.019": 0.0,
			"0.02": 0.0,
			"0.021": 0.0,
			"0.022": 0.0,
			"0.023": 0.0,
			"0.024": 0.0,
			"0.025": 0.0
		}
	}
}
