{
	 "smiles": "CC12CCC3=C(C=CC4=CC(O)=CC=C34)C1CCC2=O", 
	 "Tm": 531.15, 
	 "num_atms": 38, 
	 "gaussian": { 
		 "optdone": 1, 
		 "sigma_profile": "yes", 
		 "theory": "DFT", 
		 "functional": "B3LYP", 
		 "basiset": "6-31G**", 
		 "properties": { 
			 "R2extent": 6271.5627, 
			 "electric_dipole_moment_norm": 1.33322734745, 
			 "electric_quadrupole_moment_norm": 22.5811959548, 
			 "total_energy": -847.237262045, 
			 "HOMO_LUMO_gap": 0.16571, 
			 "cosmo_polarized_energy": -14.24, 
			 "cosmo_cavitation_energy": 37.96, 
			 "cosmo_dispersion_energy": -27.34, 
			 "cosmo_repulsion_energy": 2.03, 
			 "cosmo_total_nonelectrostatic_energy": 12.65, 
			 "SMD_solvation_energy": 6.11 
		},
		"coords": [
			{
				"x": 1.1222950163,
				"y": -1.0664502086,
				"z": -3.8043294434,
				"element": "C" 
			},
			{
				"x": 0.2497746065,
				"y": -0.969588565,
				"z": -2.53332025,
				"element": "C" 
			},
			{
				"x": -0.6545850179,
				"y": 0.2650449159,
				"z": -2.6090214309,
				"element": "C" 
			},
			{
				"x": -1.5244371673,
				"y": 0.4258539287,
				"z": -1.3597400555,
				"element": "C" 
			},
			{
				"x": -0.7229566862,
				"y": 0.3493212244,
				"z": -0.0737286344,
				"element": "C" 
			},
			{
				"x": 0.5122917396,
				"y": -0.2818239678,
				"z": -0.051085526,
				"element": "C" 
			},
			{
				"x": 1.2828404248,
				"y": -0.2669512642,
				"z": 1.1484079249,
				"element": "C" 
			},
			{
				"x": 0.8276298255,
				"y": 0.3239649857,
				"z": 2.2967899779,
				"element": "C" 
			},
			{
				"x": -0.4561551009,
				"y": 0.9348697931,
				"z": 2.3300595593,
				"element": "C" 
			},
			{
				"x": -0.9581529024,
				"y": 1.5244511466,
				"z": 3.5146527427,
				"element": "C" 
			},
			{
				"x": -2.2097035851,
				"y": 2.1048977663,
				"z": 3.5356169504,
				"element": "C" 
			},
			{
				"x": -2.6514323256,
				"y": 2.6590323908,
				"z": 4.704565006,
				"element": "O" 
			},
			{
				"x": -3.0008016478,
				"y": 2.1106602262,
				"z": 2.3620811718,
				"element": "C" 
			},
			{
				"x": -2.525129441,
				"y": 1.5489611705,
				"z": 1.1972135986,
				"element": "C" 
			},
			{
				"x": -1.2402412187,
				"y": 0.9453641349,
				"z": 1.1293062643,
				"element": "C" 
			},
			{
				"x": 1.116938912,
				"y": -1.011066041,
				"z": -1.2484286953,
				"element": "C" 
			},
			{
				"x": 1.2890607394,
				"y": -2.5383222649,
				"z": -0.9652403681,
				"element": "C" 
			},
			{
				"x": -0.0577964751,
				"y": -3.1635450513,
				"z": -1.3513434906,
				"element": "C" 
			},
			{
				"x": -0.5954642876,
				"y": -2.2626761735,
				"z": -2.4605753735,
				"element": "C" 
			},
			{
				"x": -1.537092525,
				"y": -2.5078354847,
				"z": -3.1852803184,
				"element": "O" 
			},
			{
				"x": 0.4881461634,
				"y": -1.1742747909,
				"z": -4.6892364314,
				"element": "H" 
			},
			{
				"x": 1.7257332946,
				"y": -0.1591253972,
				"z": -3.9164492066,
				"element": "H" 
			},
			{
				"x": 1.8053040494,
				"y": -1.9218814602,
				"z": -3.77393313,
				"element": "H" 
			},
			{
				"x": -1.2921999225,
				"y": 0.1837375249,
				"z": -3.4956328545,
				"element": "H" 
			},
			{
				"x": -0.0252706196,
				"y": 1.1553128063,
				"z": -2.7361150722,
				"element": "H" 
			},
			{
				"x": -2.0411221528,
				"y": 1.3891271242,
				"z": -1.4183491787,
				"element": "H" 
			},
			{
				"x": -2.315559927,
				"y": -0.3376556949,
				"z": -1.3629635412,
				"element": "H" 
			},
			{
				"x": 2.2653852395,
				"y": -0.7332027821,
				"z": 1.1411941391,
				"element": "H" 
			},
			{
				"x": 1.4374346746,
				"y": 0.3289318162,
				"z": 3.196361983,
				"element": "H" 
			},
			{
				"x": -0.3598976707,
				"y": 1.5192017792,
				"z": 4.4205802971,
				"element": "H" 
			},
			{
				"x": -3.5362029129,
				"y": 3.0212746235,
				"z": 4.5685523214,
				"element": "H" 
			},
			{
				"x": -3.9914078057,
				"y": 2.5611748572,
				"z": 2.3839891465,
				"element": "H" 
			},
			{
				"x": -3.1627634485,
				"y": 1.5613951048,
				"z": 0.3207155011,
				"element": "H" 
			},
			{
				"x": 2.1020414569,
				"y": -0.5678347944,
				"z": -1.4438960402,
				"element": "H" 
			},
			{
				"x": 2.0858156783,
				"y": -2.9403900906,
				"z": -1.6010840827,
				"element": "H" 
			},
			{
				"x": 1.5702993618,
				"y": -2.7393112252,
				"z": 0.0708653479,
				"element": "H" 
			},
			{
				"x": -0.0157931869,
				"y": -4.2080084243,
				"z": -1.6719270979,
				"element": "H" 
			},
			{
				"x": -0.7717251552,
				"y": -3.1106336386,
				"z": -0.5183717108,
				"element": "H" 
			}
		],
		 "valence_orbital": [ 
			{
				"type": "occ",
				"energy": -0.30033,
				"method": "rhf"
			},
			{
				"type": "occ",
				"energy": -0.26657,
				"method": "rhf"
			},
			{
				"type": "occ",
				"energy": -0.2355,
				"method": "rhf"
			},
			{
				"type": "occ",
				"energy": -0.22798,
				"method": "rhf"
			},
			{
				"type": "occ",
				"energy": -0.20162,
				"method": "rhf"
			},
			{
				"type": "unocc",
				"energy": -0.03591,
				"method": "rhf"
			},
			{
				"type": "unocc",
				"energy": -0.01818,
				"method": "rhf"
			},
			{
				"type": "unocc",
				"energy": 6e-05,
				"method": "rhf"
			},
			{
				"type": "unocc",
				"energy": 0.03593,
				"method": "rhf"
			},
			{
				"type": "unocc",
				"energy": 0.06916,
				"method": "rhf"
			}
		],
		"cosmo_sigma_profile": { 
			"-0.025": 0.0,
			"-0.024": 0.0,
			"-0.023": 0.0,
			"-0.022": 0.0,
			"-0.021": 0.0,
			"-0.02": 0.0,
			"-0.019": 0.0,
			"-0.018": 0.288780202122,
			"-0.017": 0.905249671963,
			"-0.016": 1.24474790225,
			"-0.015": 1.45513243443,
			"-0.014": 0.806341324357,
			"-0.013": 0.688593248948,
			"-0.012": 0.966942244459,
			"-0.011": 1.03382110373,
			"-0.01": 1.20529691179,
			"-0.009": 1.20503637072,
			"-0.008": 1.08152074549,
			"-0.007": 1.4275098294,
			"-0.006": 5.79752378242,
			"-0.005": 16.8580293962,
			"-0.004": 27.1975877416,
			"-0.003": 35.952384104,
			"-0.002": 32.5903348814,
			"-0.001": 27.7750213476,
			"0.0": 26.4026076844,
			"0.001": 14.2332995546,
			"0.002": 11.4743300188,
			"0.003": 11.4577574952,
			"0.004": 18.2192779419,
			"0.005": 24.7936623656,
			"0.006": 8.041007465,
			"0.007": 3.78860086537,
			"0.008": 2.02293272861,
			"0.009": 3.17606857353,
			"0.01": 3.85131947684,
			"0.011": 4.71606024481,
			"0.012": 5.41672845403,
			"0.013": 2.13632530939,
			"0.014": 0.154557765052,
			"0.015": 0.0,
			"0.016": 0.0,
			"0.017": 0.0,
			"0.018": 0.0,
			"0.019": 0.0,
			"0.02": 0.0,
			"0.021": 0.0,
			"0.022": 0.0,
			"0.023": 0.0,
			"0.024": 0.0,
			"0.025": 0.0
		}
	}
}
