{
	 "smiles": "CC1(C)OC2CC3C4CCC5=CC(=O)C=CC5(C)C4C(O)CC3(C)C2(O1)C(=O)CO", 
	 "Tm": 547.15, 
	 "num_atms": 62, 
	 "gaussian": { 
		 "optdone": 1, 
		 "sigma_profile": "yes", 
		 "theory": "DFT", 
		 "functional": "B3LYP", 
		 "basiset": "6-31G**", 
		 "properties": { 
			 "R2extent": 13372.4639, 
			 "electric_dipole_moment_norm": 5.43853166305, 
			 "electric_quadrupole_moment_norm": 40.419556003, 
			 "total_energy": -1385.1121079, 
			 "HOMO_LUMO_gap": 0.17708, 
			 "cosmo_polarized_energy": -26.32, 
			 "cosmo_cavitation_energy": 53.74, 
			 "cosmo_dispersion_energy": -36.8, 
			 "cosmo_repulsion_energy": 2.66, 
			 "cosmo_total_nonelectrostatic_energy": 19.6, 
			 "SMD_solvation_energy": 9.47 
		},
		"coords": [
			{
				"x": 1.5333906773,
				"y": -2.7912227395,
				"z": 4.874334128,
				"element": "C" 
			},
			{
				"x": 0.5506594709,
				"y": -2.3934156114,
				"z": 3.7756385991,
				"element": "C" 
			},
			{
				"x": -0.902395144,
				"y": -2.5244775976,
				"z": 4.2312319861,
				"element": "C" 
			},
			{
				"x": 0.8036712961,
				"y": -3.1973935089,
				"z": 2.6201904947,
				"element": "O" 
			},
			{
				"x": 0.9087926421,
				"y": -2.3569811231,
				"z": 1.4764041324,
				"element": "C" 
			},
			{
				"x": -0.4047468138,
				"y": -2.1023553257,
				"z": 0.7074953595,
				"element": "C" 
			},
			{
				"x": -0.7628555543,
				"y": -0.59511051,
				"z": 0.8583980785,
				"element": "C" 
			},
			{
				"x": -1.6077801499,
				"y": -0.07936545,
				"z": -0.3603920332,
				"element": "C" 
			},
			{
				"x": -2.9111072787,
				"y": 0.6513192208,
				"z": 0.0481751083,
				"element": "C" 
			},
			{
				"x": -2.8166994517,
				"y": 2.1849270447,
				"z": 0.0272940115,
				"element": "C" 
			},
			{
				"x": -2.4440093233,
				"y": 2.5930280971,
				"z": -1.368925383,
				"element": "C" 
			},
			{
				"x": -3.3231378435,
				"y": 3.2194405026,
				"z": -2.1740725911,
				"element": "C" 
			},
			{
				"x": -3.0646803319,
				"y": 3.4965886322,
				"z": -3.5984849921,
				"element": "C" 
			},
			{
				"x": -3.8775460821,
				"y": 4.0865337186,
				"z": -4.3078979516,
				"element": "O" 
			},
			{
				"x": -1.779280236,
				"y": 2.9929505068,
				"z": -4.1189506983,
				"element": "C" 
			},
			{
				"x": -0.8832439429,
				"y": 2.3874122926,
				"z": -3.3267086138,
				"element": "C" 
			},
			{
				"x": -1.0531313123,
				"y": 2.1873532709,
				"z": -1.8308911706,
				"element": "C" 
			},
			{
				"x": -0.0415697138,
				"y": 3.1867294866,
				"z": -1.1858301758,
				"element": "C" 
			},
			{
				"x": -0.8024336336,
				"y": 0.6336029139,
				"z": -1.5274955805,
				"element": "C" 
			},
			{
				"x": 0.6660864749,
				"y": 0.1644128497,
				"z": -1.4331025564,
				"element": "C" 
			},
			{
				"x": 1.4145933056,
				"y": 0.7157058689,
				"z": -2.5180456897,
				"element": "O" 
			},
			{
				"x": 1.3888218991,
				"y": 0.4415828428,
				"z": -0.0991254437,
				"element": "C" 
			},
			{
				"x": 0.5866030341,
				"y": 0.1115657386,
				"z": 1.2027195404,
				"element": "C" 
			},
			{
				"x": 0.3805844499,
				"y": 1.375783279,
				"z": 2.0546229594,
				"element": "C" 
			},
			{
				"x": 1.3276540247,
				"y": -0.9817519947,
				"z": 2.0439660032,
				"element": "C" 
			},
			{
				"x": 0.774208506,
				"y": -1.0338062339,
				"z": 3.3674516315,
				"element": "O" 
			},
			{
				"x": 2.8412109161,
				"y": -0.7380012867,
				"z": 2.2180042421,
				"element": "C" 
			},
			{
				"x": 3.2634349424,
				"y": 0.3166246897,
				"z": 2.6624486823,
				"element": "O" 
			},
			{
				"x": 3.8519927414,
				"y": -1.8300329838,
				"z": 1.8773180789,
				"element": "C" 
			},
			{
				"x": 5.1375413936,
				"y": -1.4750190045,
				"z": 2.2905532926,
				"element": "O" 
			},
			{
				"x": 1.3621178642,
				"y": -2.1884260115,
				"z": 5.7700409435,
				"element": "H" 
			},
			{
				"x": 1.4025664851,
				"y": -3.8462848021,
				"z": 5.1302625803,
				"element": "H" 
			},
			{
				"x": 2.5634950242,
				"y": -2.63876821,
				"z": 4.5447847649,
				"element": "H" 
			},
			{
				"x": -1.0903762896,
				"y": -1.8689762963,
				"z": 5.0860503262,
				"element": "H" 
			},
			{
				"x": -1.5851373987,
				"y": -2.2489035102,
				"z": 3.4247798179,
				"element": "H" 
			},
			{
				"x": -1.109086573,
				"y": -3.5561098809,
				"z": 4.5284599567,
				"element": "H" 
			},
			{
				"x": 1.6575985075,
				"y": -2.8168779372,
				"z": 0.826539472,
				"element": "H" 
			},
			{
				"x": -1.1961545766,
				"y": -2.7563774463,
				"z": 1.084088611,
				"element": "H" 
			},
			{
				"x": -0.2671933251,
				"y": -2.364291218,
				"z": -0.3462758499,
				"element": "H" 
			},
			{
				"x": -1.3882217539,
				"y": -0.4978818874,
				"z": 1.7514380293,
				"element": "H" 
			},
			{
				"x": -1.9574801753,
				"y": -1.0075868629,
				"z": -0.8256249531,
				"element": "H" 
			},
			{
				"x": -3.7063038839,
				"y": 0.3709336859,
				"z": -0.6528379238,
				"element": "H" 
			},
			{
				"x": -3.2333090829,
				"y": 0.3006311068,
				"z": 1.0352973439,
				"element": "H" 
			},
			{
				"x": -3.7791021457,
				"y": 2.6237498734,
				"z": 0.3083201554,
				"element": "H" 
			},
			{
				"x": -2.0782750426,
				"y": 2.5324300332,
				"z": 0.7590164026,
				"element": "H" 
			},
			{
				"x": -4.2984316086,
				"y": 3.5276175095,
				"z": -1.8042317605,
				"element": "H" 
			},
			{
				"x": -1.594818003,
				"y": 3.1439318392,
				"z": -5.1790356832,
				"element": "H" 
			},
			{
				"x": 0.0614898418,
				"y": 2.0366985692,
				"z": -3.7291000469,
				"element": "H" 
			},
			{
				"x": -0.3159730496,
				"y": 4.2029921361,
				"z": -1.481422144,
				"element": "H" 
			},
			{
				"x": -0.0424764601,
				"y": 3.1456961401,
				"z": -0.0964233991,
				"element": "H" 
			},
			{
				"x": 0.9685652191,
				"y": 2.9858733262,
				"z": -1.5456596356,
				"element": "H" 
			},
			{
				"x": -1.1844854985,
				"y": 0.1654483151,
				"z": -2.4408477957,
				"element": "H" 
			},
			{
				"x": 0.6231988491,
				"y": -0.9276115904,
				"z": -1.5672822604,
				"element": "H" 
			},
			{
				"x": 2.3157825217,
				"y": 0.371149817,
				"z": -2.4678031375,
				"element": "H" 
			},
			{
				"x": 1.6958874686,
				"y": 1.4883055764,
				"z": -0.0794810064,
				"element": "H" 
			},
			{
				"x": 2.3262646804,
				"y": -0.1310873472,
				"z": -0.1362820794,
				"element": "H" 
			},
			{
				"x": -0.2426767473,
				"y": 2.1009151649,
				"z": 1.5302079631,
				"element": "H" 
			},
			{
				"x": 1.3375673969,
				"y": 1.8467485255,
				"z": 2.2884980526,
				"element": "H" 
			},
			{
				"x": -0.1119943499,
				"y": 1.1243917566,
				"z": 2.9955439085,
				"element": "H" 
			},
			{
				"x": 3.8081917832,
				"y": -1.9902579995,
				"z": 0.7830188758,
				"element": "H" 
			},
			{
				"x": 3.5324340881,
				"y": -2.7773421741,
				"z": 2.335504435,
				"element": "H" 
			},
			{
				"x": 5.061207272,
				"y": -0.551557787,
				"z": 2.5922325881,
				"element": "H" 
			}
		],
		 "valence_orbital": [ 
			{
				"type": "occ",
				"energy": -0.26958,
				"method": "rhf"
			},
			{
				"type": "occ",
				"energy": -0.26099,
				"method": "rhf"
			},
			{
				"type": "occ",
				"energy": -0.25871,
				"method": "rhf"
			},
			{
				"type": "occ",
				"energy": -0.252,
				"method": "rhf"
			},
			{
				"type": "occ",
				"energy": -0.22693,
				"method": "rhf"
			},
			{
				"type": "unocc",
				"energy": -0.04985,
				"method": "rhf"
			},
			{
				"type": "unocc",
				"energy": -0.04898,
				"method": "rhf"
			},
			{
				"type": "unocc",
				"energy": 0.00666,
				"method": "rhf"
			},
			{
				"type": "unocc",
				"energy": 0.03147,
				"method": "rhf"
			},
			{
				"type": "unocc",
				"energy": 0.05734,
				"method": "rhf"
			}
		],
		"cosmo_sigma_profile": { 
			"-0.025": 0.0,
			"-0.024": 0.0,
			"-0.023": 0.0,
			"-0.022": 0.0,
			"-0.021": 0.0,
			"-0.02": 0.0,
			"-0.019": 0.0,
			"-0.018": 0.0,
			"-0.017": 0.00279915774196,
			"-0.016": 0.773647115772,
			"-0.015": 1.21692546549,
			"-0.014": 0.985061639314,
			"-0.013": 1.32367422381,
			"-0.012": 1.08668787279,
			"-0.011": 1.33066192398,
			"-0.01": 1.78416418107,
			"-0.009": 3.20647308192,
			"-0.008": 4.98008813553,
			"-0.007": 7.50281467312,
			"-0.006": 10.8333645766,
			"-0.005": 20.0596081704,
			"-0.004": 39.7351708586,
			"-0.003": 44.2587715223,
			"-0.002": 44.9706774672,
			"-0.001": 46.6227777845,
			"0.0": 42.9137469968,
			"0.001": 27.0423545703,
			"0.002": 19.6445714563,
			"0.003": 13.2812273404,
			"0.004": 11.5504325817,
			"0.005": 8.98523139972,
			"0.006": 7.80445199784,
			"0.007": 7.46154737023,
			"0.008": 8.00107711227,
			"0.009": 7.04757782654,
			"0.01": 8.24744037358,
			"0.011": 5.3258991237,
			"0.012": 5.04840577432,
			"0.013": 6.45593160448,
			"0.014": 6.39684037841,
			"0.015": 1.8110821735,
			"0.016": 0.0123069038635,
			"0.017": 0.0,
			"0.018": 0.0,
			"0.019": 0.0,
			"0.02": 0.0,
			"0.021": 0.0,
			"0.022": 0.0,
			"0.023": 0.0,
			"0.024": 0.0,
			"0.025": 0.0
		}
	}
}
