{
	 "smiles": "OC(=O)C1=CC=C(S1)C1=C2C=CC=CC2=CC=C1", 
	 "Tm": 523.15, 
	 "num_atms": 28, 
	 "gaussian": { 
		 "optdone": 1, 
		 "sigma_profile": "yes", 
		 "theory": "DFT", 
		 "functional": "B3LYP", 
		 "basiset": "6-31G**", 
		 "properties": { 
			 "R2extent": 7026.2467, 
			 "electric_dipole_moment_norm": 5.73137039895, 
			 "electric_quadrupole_moment_norm": 27.1607902171, 
			 "total_energy": -1126.26677319, 
			 "HOMO_LUMO_gap": 0.14868, 
			 "cosmo_polarized_energy": -14.49, 
			 "cosmo_cavitation_energy": 34.03, 
			 "cosmo_dispersion_energy": -25.27, 
			 "cosmo_repulsion_energy": 1.87, 
			 "cosmo_total_nonelectrostatic_energy": 10.63, 
			 "SMD_solvation_energy": 6.23 
		},
		"coords": [
			{
				"x": -2.5468702889,
				"y": -3.0778653652,
				"z": -5.1545257511,
				"element": "O" 
			},
			{
				"x": -3.3114308644,
				"y": -2.6076514023,
				"z": -4.1316062121,
				"element": "C" 
			},
			{
				"x": -4.5023677437,
				"y": -2.8181310933,
				"z": -4.1206908433,
				"element": "O" 
			},
			{
				"x": -2.6305446326,
				"y": -1.8478454518,
				"z": -3.0595235729,
				"element": "C" 
			},
			{
				"x": -3.281631984,
				"y": -1.1807813671,
				"z": -2.0482153784,
				"element": "C" 
			},
			{
				"x": -2.4041735847,
				"y": -0.5232268368,
				"z": -1.1511603994,
				"element": "C" 
			},
			{
				"x": -1.0681203751,
				"y": -0.6784158999,
				"z": -1.4629630873,
				"element": "C" 
			},
			{
				"x": -0.8984066573,
				"y": -1.6786389935,
				"z": -2.8889270766,
				"element": "S" 
			},
			{
				"x": 0.1253558843,
				"y": -0.1152962248,
				"z": -0.8063112552,
				"element": "C" 
			},
			{
				"x": 0.3126917036,
				"y": -0.1962151498,
				"z": 0.6195291226,
				"element": "C" 
			},
			{
				"x": -0.5697752513,
				"y": -0.8961540844,
				"z": 1.4876439025,
				"element": "C" 
			},
			{
				"x": -0.3474668433,
				"y": -0.9392981587,
				"z": 2.8466978551,
				"element": "C" 
			},
			{
				"x": 0.7715238759,
				"y": -0.2872350143,
				"z": 3.4149627313,
				"element": "C" 
			},
			{
				"x": 1.6607778661,
				"y": 0.3770788954,
				"z": 2.6026800106,
				"element": "C" 
			},
			{
				"x": 1.4680045966,
				"y": 0.43330988,
				"z": 1.1956409265,
				"element": "C" 
			},
			{
				"x": 2.4073951952,
				"y": 1.0862024395,
				"z": 0.3544936641,
				"element": "C" 
			},
			{
				"x": 2.2266619296,
				"y": 1.1162050004,
				"z": -1.0082790895,
				"element": "C" 
			},
			{
				"x": 1.0849848293,
				"y": 0.5191776631,
				"z": -1.5831870748,
				"element": "C" 
			},
			{
				"x": -1.6360534555,
				"y": -2.7552633035,
				"z": -5.0973569657,
				"element": "H" 
			},
			{
				"x": -4.362834523,
				"y": -1.1675702636,
				"z": -1.9827566547,
				"element": "H" 
			},
			{
				"x": -2.7376811688,
				"y": 0.0782221421,
				"z": -0.3139019913,
				"element": "H" 
			},
			{
				"x": -1.4204926971,
				"y": -1.4189773954,
				"z": 1.0671857974,
				"element": "H" 
			},
			{
				"x": -1.0337690784,
				"y": -1.4859651461,
				"z": 3.4868166983,
				"element": "H" 
			},
			{
				"x": 0.9321109635,
				"y": -0.3242859082,
				"z": 4.4883455221,
				"element": "H" 
			},
			{
				"x": 2.5346700824,
				"y": 0.8660903739,
				"z": 3.0251758766,
				"element": "H" 
			},
			{
				"x": 3.2753300764,
				"y": 1.5574096435,
				"z": 0.808020722,
				"element": "H" 
			},
			{
				"x": 2.9488517285,
				"y": 1.6129136114,
				"z": -1.6489805754,
				"element": "H" 
			},
			{
				"x": 0.9352604167,
				"y": 0.5865074094,
				"z": -2.6565069017,
				"element": "H" 
			}
		],
		 "valence_orbital": [ 
			{
				"type": "occ",
				"energy": -0.27504,
				"method": "rhf"
			},
			{
				"type": "occ",
				"energy": -0.27264,
				"method": "rhf"
			},
			{
				"type": "occ",
				"energy": -0.25653,
				"method": "rhf"
			},
			{
				"type": "occ",
				"energy": -0.25539,
				"method": "rhf"
			},
			{
				"type": "occ",
				"energy": -0.22069,
				"method": "rhf"
			},
			{
				"type": "unocc",
				"energy": -0.07201,
				"method": "rhf"
			},
			{
				"type": "unocc",
				"energy": -0.04413,
				"method": "rhf"
			},
			{
				"type": "unocc",
				"energy": -0.02413,
				"method": "rhf"
			},
			{
				"type": "unocc",
				"energy": -0.00401,
				"method": "rhf"
			},
			{
				"type": "unocc",
				"energy": 0.00986,
				"method": "rhf"
			}
		],
		"cosmo_sigma_profile": { 
			"-0.025": 0.0,
			"-0.024": 0.0,
			"-0.023": 0.0,
			"-0.022": 0.0,
			"-0.021": 0.0,
			"-0.02": 0.0,
			"-0.019": 0.0318184475629,
			"-0.018": 0.527610271481,
			"-0.017": 0.728938900887,
			"-0.016": 0.837767317459,
			"-0.015": 0.656463520947,
			"-0.014": 0.727129774311,
			"-0.013": 1.25480732812,
			"-0.012": 1.31508772079,
			"-0.011": 0.996703382662,
			"-0.01": 0.64684056437,
			"-0.009": 0.635193005745,
			"-0.008": 2.28247062793,
			"-0.007": 6.30946901783,
			"-0.006": 15.3640858082,
			"-0.005": 19.6253106992,
			"-0.004": 21.0002431791,
			"-0.003": 17.3177085125,
			"-0.002": 16.7686574129,
			"-0.001": 17.4711110108,
			"0.0": 19.4967155305,
			"0.001": 24.3757408948,
			"0.002": 24.97462559,
			"0.003": 26.9491021157,
			"0.004": 18.7860954683,
			"0.005": 9.79177503519,
			"0.006": 2.53835778473,
			"0.007": 2.54793401996,
			"0.008": 2.24397128804,
			"0.009": 3.2788548904,
			"0.01": 4.9386786735,
			"0.011": 5.13272572517,
			"0.012": 5.13413948318,
			"0.013": 1.49118852674,
			"0.014": 0.0192428628478,
			"0.015": 0.0,
			"0.016": 0.0,
			"0.017": 0.0,
			"0.018": 0.0,
			"0.019": 0.0,
			"0.02": 0.0,
			"0.021": 0.0,
			"0.022": 0.0,
			"0.023": 0.0,
			"0.024": 0.0,
			"0.025": 0.0
		}
	}
}
