{
	 "smiles": "OC(=O)C1=CC2=C(ON=C2C2CC2)N=C1", 
	 "Tm": 480.15, 
	 "num_atms": 23, 
	 "gaussian": { 
		 "optdone": 1, 
		 "sigma_profile": "yes", 
		 "theory": "DFT", 
		 "functional": "B3LYP", 
		 "basiset": "6-31G**", 
		 "properties": { 
			 "R2extent": 3784.3637, 
			 "electric_dipole_moment_norm": 3.00756006923, 
			 "electric_quadrupole_moment_norm": 16.4244808, 
			 "total_energy": -721.001543413, 
			 "HOMO_LUMO_gap": 0.1929, 
			 "cosmo_polarized_energy": -14.16, 
			 "cosmo_cavitation_energy": 28.5, 
			 "cosmo_dispersion_energy": -21.01, 
			 "cosmo_repulsion_energy": 1.62, 
			 "cosmo_total_nonelectrostatic_energy": 9.11, 
			 "SMD_solvation_energy": 4.11 
		},
		"coords": [
			{
				"x": -0.4139261752,
				"y": 3.6881247946,
				"z": -3.0211819259,
				"element": "O" 
			},
			{
				"x": 0.3440068316,
				"y": 2.6678719848,
				"z": -2.5534298287,
				"element": "C" 
			},
			{
				"x": 1.4205620499,
				"y": 2.3790721116,
				"z": -3.0373719692,
				"element": "O" 
			},
			{
				"x": -0.2787679739,
				"y": 1.9594804776,
				"z": -1.4071325601,
				"element": "C" 
			},
			{
				"x": 0.415751364,
				"y": 0.885902768,
				"z": -0.8412695337,
				"element": "C" 
			},
			{
				"x": -0.1950133946,
				"y": 0.2433429431,
				"z": 0.2313112245,
				"element": "C" 
			},
			{
				"x": -1.4473071773,
				"y": 0.7213965227,
				"z": 0.6535298783,
				"element": "C" 
			},
			{
				"x": -1.8878777954,
				"y": -0.0110568033,
				"z": 1.6934450907,
				"element": "O" 
			},
			{
				"x": -0.9149675397,
				"y": -1.0005767511,
				"z": 1.9771461042,
				"element": "N" 
			},
			{
				"x": 0.0716633711,
				"y": -0.8536989849,
				"z": 1.1262922539,
				"element": "C" 
			},
			{
				"x": 1.2571155288,
				"y": -1.7345547128,
				"z": 1.1501610481,
				"element": "C" 
			},
			{
				"x": 1.7837101025,
				"y": -2.2637670102,
				"z": 2.4750815982,
				"element": "C" 
			},
			{
				"x": 1.1064718284,
				"y": -3.2007447815,
				"z": 1.5251096135,
				"element": "C" 
			},
			{
				"x": -2.1397119795,
				"y": 1.7333998439,
				"z": 0.1470740113,
				"element": "N" 
			},
			{
				"x": -1.5377213525,
				"y": 2.3368976122,
				"z": -0.8805251466,
				"element": "C" 
			},
			{
				"x": 0.0834515872,
				"y": 4.0755472275,
				"z": -3.7602386472,
				"element": "H" 
			},
			{
				"x": 1.3804766726,
				"y": 0.5979105121,
				"z": -1.2460470237,
				"element": "H" 
			},
			{
				"x": 1.994479788,
				"y": -1.4966015417,
				"z": 0.389699743,
				"element": "H" 
			},
			{
				"x": 1.2383981942,
				"y": -1.9602198223,
				"z": 3.3627200545,
				"element": "H" 
			},
			{
				"x": 2.8611064667,
				"y": -2.3252087413,
				"z": 2.5926156833,
				"element": "H" 
			},
			{
				"x": 1.7097257829,
				"y": -3.9181454185,
				"z": 0.9775722336,
				"element": "H" 
			},
			{
				"x": 0.1023841951,
				"y": -3.5318553386,
				"z": 1.7692176237,
				"element": "H" 
			},
			{
				"x": -2.0699103749,
				"y": 3.171783108,
				"z": -1.3262795257,
				"element": "H" 
			}
		],
		 "valence_orbital": [ 
			{
				"type": "occ",
				"energy": -0.31217,
				"method": "rhf"
			},
			{
				"type": "occ",
				"energy": -0.29579,
				"method": "rhf"
			},
			{
				"type": "occ",
				"energy": -0.28206,
				"method": "rhf"
			},
			{
				"type": "occ",
				"energy": -0.27421,
				"method": "rhf"
			},
			{
				"type": "occ",
				"energy": -0.26401,
				"method": "rhf"
			},
			{
				"type": "unocc",
				"energy": -0.07111,
				"method": "rhf"
			},
			{
				"type": "unocc",
				"energy": -0.05446,
				"method": "rhf"
			},
			{
				"type": "unocc",
				"energy": 0.0091,
				"method": "rhf"
			},
			{
				"type": "unocc",
				"energy": 0.05563,
				"method": "rhf"
			},
			{
				"type": "unocc",
				"energy": 0.06485,
				"method": "rhf"
			}
		],
		"cosmo_sigma_profile": { 
			"-0.025": 0.0,
			"-0.024": 0.0,
			"-0.023": 0.0,
			"-0.022": 0.0,
			"-0.021": 0.0,
			"-0.02": 0.0,
			"-0.019": 0.236907000925,
			"-0.018": 0.904847039329,
			"-0.017": 1.29961311321,
			"-0.016": 0.664801505531,
			"-0.015": 0.344291967647,
			"-0.014": 0.790489321418,
			"-0.013": 1.24783321497,
			"-0.012": 0.421055480345,
			"-0.011": 0.693563288455,
			"-0.01": 0.579167228675,
			"-0.009": 2.37327820139,
			"-0.008": 4.01279807425,
			"-0.007": 5.21528937872,
			"-0.006": 8.1162427927,
			"-0.005": 12.2231365552,
			"-0.004": 14.2243376322,
			"-0.003": 22.5868807347,
			"-0.002": 24.5448881991,
			"-0.001": 22.2197465328,
			"0.0": 15.0669024396,
			"0.001": 14.4761324544,
			"0.002": 11.032546217,
			"0.003": 8.90554279255,
			"0.004": 7.50930800574,
			"0.005": 6.48508141109,
			"0.006": 7.80118714283,
			"0.007": 8.89400805837,
			"0.008": 5.34954281952,
			"0.009": 4.31596430739,
			"0.01": 4.04250379556,
			"0.011": 7.16285978955,
			"0.012": 3.28347985725,
			"0.013": 1.37075689613,
			"0.014": 0.400814671504,
			"0.015": 0.0,
			"0.016": 0.0,
			"0.017": 0.0,
			"0.018": 0.0,
			"0.019": 0.0,
			"0.02": 0.0,
			"0.021": 0.0,
			"0.022": 0.0,
			"0.023": 0.0,
			"0.024": 0.0,
			"0.025": 0.0
		}
	}
}
