{
	 "smiles": "CC(C)C1=C(O)C=C(C)C(SC#N)=C1", 
	 "Tm": 377.15, 
	 "num_atms": 27, 
	 "gaussian": { 
		 "optdone": 1, 
		 "sigma_profile": "yes", 
		 "theory": "DFT", 
		 "functional": "B3LYP", 
		 "basiset": "6-31G**", 
		 "properties": { 
			 "R2extent": 3791.9422, 
			 "electric_dipole_moment_norm": 5.00045008574, 
			 "electric_quadrupole_moment_norm": 24.8454949784, 
			 "total_energy": -955.153675387, 
			 "HOMO_LUMO_gap": 0.21035, 
			 "cosmo_polarized_energy": -11.96, 
			 "cosmo_cavitation_energy": 32.28, 
			 "cosmo_dispersion_energy": -22.66, 
			 "cosmo_repulsion_energy": 1.76, 
			 "cosmo_total_nonelectrostatic_energy": 11.38, 
			 "SMD_solvation_energy": 7.52 
		},
		"coords": [
			{
				"x": 1.145496124,
				"y": -0.6370724178,
				"z": -3.5352037002,
				"element": "C" 
			},
			{
				"x": 0.5761431991,
				"y": -1.5007010839,
				"z": -2.3893635749,
				"element": "C" 
			},
			{
				"x": -0.9136413871,
				"y": -1.7936005256,
				"z": -2.6165635574,
				"element": "C" 
			},
			{
				"x": 0.8754471072,
				"y": -0.8659945447,
				"z": -1.0374478265,
				"element": "C" 
			},
			{
				"x": 2.1615559407,
				"y": -0.9810472905,
				"z": -0.4742327906,
				"element": "C" 
			},
			{
				"x": 3.0902438187,
				"y": -1.692216789,
				"z": -1.1792601274,
				"element": "O" 
			},
			{
				"x": 2.473145719,
				"y": -0.3941737036,
				"z": 0.7550154634,
				"element": "C" 
			},
			{
				"x": 1.5302218266,
				"y": 0.3323156666,
				"z": 1.4879582456,
				"element": "C" 
			},
			{
				"x": 1.9069577131,
				"y": 0.9543011093,
				"z": 2.8084794961,
				"element": "C" 
			},
			{
				"x": 0.2496457808,
				"y": 0.4591272481,
				"z": 0.9214331688,
				"element": "C" 
			},
			{
				"x": -1.0910352839,
				"y": 1.2940561972,
				"z": 1.7953551208,
				"element": "S" 
			},
			{
				"x": -0.6051365167,
				"y": 2.9279930694,
				"z": 1.6908648327,
				"element": "C" 
			},
			{
				"x": -0.3019587055,
				"y": 4.0542931588,
				"z": 1.6661320745,
				"element": "N" 
			},
			{
				"x": -0.060312737,
				"y": -0.1300166845,
				"z": -0.3109699616,
				"element": "C" 
			},
			{
				"x": 0.6539745387,
				"y": 0.3417339313,
				"z": -3.5639006576,
				"element": "H" 
			},
			{
				"x": 0.9827681466,
				"y": -1.1263522744,
				"z": -4.5017895913,
				"element": "H" 
			},
			{
				"x": 2.2197411785,
				"y": -0.4771940432,
				"z": -3.4124284496,
				"element": "H" 
			},
			{
				"x": 1.1114171319,
				"y": -2.4579476518,
				"z": -2.4093309534,
				"element": "H" 
			},
			{
				"x": -1.0443841825,
				"y": -2.3557205357,
				"z": -3.5465437815,
				"element": "H" 
			},
			{
				"x": -1.5015944902,
				"y": -0.8738573401,
				"z": -2.7127324536,
				"element": "H" 
			},
			{
				"x": -1.3407200339,
				"y": -2.3863295396,
				"z": -1.8012058209,
				"element": "H" 
			},
			{
				"x": 3.9220685726,
				"y": -1.7080737617,
				"z": -0.6881808936,
				"element": "H" 
			},
			{
				"x": 3.4780854454,
				"y": -0.5094339784,
				"z": 1.1577097543,
				"element": "H" 
			},
			{
				"x": 1.8912114873,
				"y": 2.048394775,
				"z": 2.7513777399,
				"element": "H" 
			},
			{
				"x": 2.9105547808,
				"y": 0.6463581397,
				"z": 3.11190484,
				"element": "H" 
			},
			{
				"x": 1.2051366526,
				"y": 0.6672728871,
				"z": 3.5981024883,
				"element": "H" 
			},
			{
				"x": -1.0628318268,
				"y": -0.0062140182,
				"z": -0.7044790844,
				"element": "H" 
			}
		],
		 "valence_orbital": [ 
			{
				"type": "occ",
				"energy": -0.33456,
				"method": "rhf"
			},
			{
				"type": "occ",
				"energy": -0.31738,
				"method": "rhf"
			},
			{
				"type": "occ",
				"energy": -0.2662,
				"method": "rhf"
			},
			{
				"type": "occ",
				"energy": -0.25731,
				"method": "rhf"
			},
			{
				"type": "occ",
				"energy": -0.23354,
				"method": "rhf"
			},
			{
				"type": "unocc",
				"energy": -0.02319,
				"method": "rhf"
			},
			{
				"type": "unocc",
				"energy": -0.01791,
				"method": "rhf"
			},
			{
				"type": "unocc",
				"energy": -0.01112,
				"method": "rhf"
			},
			{
				"type": "unocc",
				"energy": 0.04834,
				"method": "rhf"
			},
			{
				"type": "unocc",
				"energy": 0.05195,
				"method": "rhf"
			}
		],
		"cosmo_sigma_profile": { 
			"-0.025": 0.0,
			"-0.024": 0.0,
			"-0.023": 0.0,
			"-0.022": 0.0,
			"-0.021": 0.0,
			"-0.02": 0.0,
			"-0.019": 0.030906522692,
			"-0.018": 0.703932842407,
			"-0.017": 1.18277730254,
			"-0.016": 1.45087506383,
			"-0.015": 1.00036434119,
			"-0.014": 0.821121186623,
			"-0.013": 0.603203728335,
			"-0.012": 0.761614737708,
			"-0.011": 1.62184618795,
			"-0.01": 1.26442059016,
			"-0.009": 0.953505552952,
			"-0.008": 0.960030912727,
			"-0.007": 1.88505363614,
			"-0.006": 4.07576239583,
			"-0.005": 7.07624320957,
			"-0.004": 11.5790741268,
			"-0.003": 21.5052235217,
			"-0.002": 27.677515459,
			"-0.001": 34.8024896504,
			"0.0": 30.6100365481,
			"0.001": 29.190155955,
			"0.002": 19.3452343448,
			"0.003": 16.5018326072,
			"0.004": 10.5796009806,
			"0.005": 5.10629021454,
			"0.006": 3.2688293385,
			"0.007": 4.30071086502,
			"0.008": 5.08591280916,
			"0.009": 4.11819425262,
			"0.01": 3.53203401942,
			"0.011": 2.55503827723,
			"0.012": 2.63354247374,
			"0.013": 0.799008692377,
			"0.014": 0.0,
			"0.015": 0.0,
			"0.016": 0.0,
			"0.017": 0.0,
			"0.018": 0.0,
			"0.019": 0.0,
			"0.02": 0.0,
			"0.021": 0.0,
			"0.022": 0.0,
			"0.023": 0.0,
			"0.024": 0.0,
			"0.025": 0.0
		}
	}
}
