{
	 "smiles": "NC1=CC=C(OC2=CC(F)=CC=C2)C=C1", 
	 "Tm": 346.15, 
	 "num_atms": 25, 
	 "gaussian": { 
		 "optdone": 1, 
		 "sigma_profile": "yes", 
		 "theory": "DFT", 
		 "functional": "B3LYP", 
		 "basiset": "6-31G**", 
		 "properties": { 
			 "R2extent": 4846.1964, 
			 "electric_dipole_moment_norm": 4.47972517461, 
			 "electric_quadrupole_moment_norm": 9.11742073725, 
			 "total_energy": -693.105063857, 
			 "HOMO_LUMO_gap": 0.19474, 
			 "cosmo_polarized_energy": -10.49, 
			 "cosmo_cavitation_energy": 30.2, 
			 "cosmo_dispersion_energy": -21.74, 
			 "cosmo_repulsion_energy": 1.69, 
			 "cosmo_total_nonelectrostatic_energy": 10.15, 
			 "SMD_solvation_energy": 5.8 
		},
		"coords": [
			{
				"x": 4.4232205192,
				"y": 0.872847249,
				"z": -2.6705103345,
				"element": "N" 
			},
			{
				"x": 3.1034299949,
				"y": 1.0428369929,
				"z": -2.2459117507,
				"element": "C" 
			},
			{
				"x": 2.1331658215,
				"y": 0.0578815647,
				"z": -2.5024278744,
				"element": "C" 
			},
			{
				"x": 0.8046441706,
				"y": 0.2531271327,
				"z": -2.1331324525,
				"element": "C" 
			},
			{
				"x": 0.4246227134,
				"y": 1.4359431053,
				"z": -1.5003662541,
				"element": "C" 
			},
			{
				"x": -0.9167375896,
				"y": 1.6642202498,
				"z": -1.2043110298,
				"element": "O" 
			},
			{
				"x": -1.414162107,
				"y": 1.2953404071,
				"z": 0.021908687,
				"element": "C" 
			},
			{
				"x": -2.7723351254,
				"y": 1.5693725572,
				"z": 0.2230239168,
				"element": "C" 
			},
			{
				"x": -3.3423011898,
				"y": 1.2235537099,
				"z": 1.4385775211,
				"element": "C" 
			},
			{
				"x": -4.6523285251,
				"y": 1.4880300385,
				"z": 1.6323064198,
				"element": "F" 
			},
			{
				"x": -2.620338709,
				"y": 0.6170932333,
				"z": 2.4628540574,
				"element": "C" 
			},
			{
				"x": -1.26978376,
				"y": 0.355196375,
				"z": 2.2367130586,
				"element": "C" 
			},
			{
				"x": -0.6544072629,
				"y": 0.6865985631,
				"z": 1.0271820092,
				"element": "C" 
			},
			{
				"x": 1.3719665494,
				"y": 2.4252123366,
				"z": -1.2399357407,
				"element": "C" 
			},
			{
				"x": 2.7004983599,
				"y": 2.2301092478,
				"z": -1.609142233,
				"element": "C" 
			},
			{
				"x": 4.7170343856,
				"y": -0.0871298022,
				"z": -2.7867348404,
				"element": "H" 
			},
			{
				"x": 5.1101487118,
				"y": 1.4169146677,
				"z": -2.1670144896,
				"element": "H" 
			},
			{
				"x": 2.4229630464,
				"y": -0.8624136437,
				"z": -3.0032315236,
				"element": "H" 
			},
			{
				"x": 0.0559313514,
				"y": -0.505361453,
				"z": -2.3383529616,
				"element": "H" 
			},
			{
				"x": -3.3598935519,
				"y": 2.0406386393,
				"z": -0.5557389179,
				"element": "H" 
			},
			{
				"x": -3.1109076089,
				"y": 0.365578688,
				"z": 3.3959755047,
				"element": "H" 
			},
			{
				"x": -0.6804605751,
				"y": -0.1172232211,
				"z": 3.0171948093,
				"element": "H" 
			},
			{
				"x": 0.3957019219,
				"y": 0.4770555233,
				"z": 0.8657873479,
				"element": "H" 
			},
			{
				"x": 1.0616897669,
				"y": 3.3452516139,
				"z": -0.7549115276,
				"element": "H" 
			},
			{
				"x": 3.4338386917,
				"y": 3.0079262248,
				"z": -1.4118014014,
				"element": "H" 
			}
		],
		 "valence_orbital": [ 
			{
				"type": "occ",
				"energy": -0.30363,
				"method": "rhf"
			},
			{
				"type": "occ",
				"energy": -0.25656,
				"method": "rhf"
			},
			{
				"type": "occ",
				"energy": -0.2433,
				"method": "rhf"
			},
			{
				"type": "occ",
				"energy": -0.22212,
				"method": "rhf"
			},
			{
				"type": "occ",
				"energy": -0.20527,
				"method": "rhf"
			},
			{
				"type": "unocc",
				"energy": -0.01053,
				"method": "rhf"
			},
			{
				"type": "unocc",
				"energy": 0.00466,
				"method": "rhf"
			},
			{
				"type": "unocc",
				"energy": 0.01252,
				"method": "rhf"
			},
			{
				"type": "unocc",
				"energy": 0.01523,
				"method": "rhf"
			},
			{
				"type": "unocc",
				"energy": 0.07387,
				"method": "rhf"
			}
		],
		"cosmo_sigma_profile": { 
			"-0.025": 0.0,
			"-0.024": 0.0,
			"-0.023": 0.0,
			"-0.022": 0.0,
			"-0.021": 0.0,
			"-0.02": 0.0,
			"-0.019": 0.0,
			"-0.018": 0.0,
			"-0.017": 0.0,
			"-0.016": 0.0,
			"-0.015": 0.0,
			"-0.014": 0.0,
			"-0.013": 0.423306143014,
			"-0.012": 2.53168283941,
			"-0.011": 2.87571481032,
			"-0.01": 2.98640355062,
			"-0.009": 3.51235079839,
			"-0.008": 2.51158666714,
			"-0.007": 6.74543774003,
			"-0.006": 14.4341773364,
			"-0.005": 13.6165002581,
			"-0.004": 14.9602549391,
			"-0.003": 12.7870422422,
			"-0.002": 11.3570064699,
			"-0.001": 11.8358669087,
			"0.0": 13.7820566292,
			"0.001": 19.9722153286,
			"0.002": 18.8254589535,
			"0.003": 22.2553712385,
			"0.004": 29.1449452592,
			"0.005": 20.4531891832,
			"0.006": 5.97543255562,
			"0.007": 2.15324879936,
			"0.008": 2.36641849085,
			"0.009": 2.31157391705,
			"0.01": 0.946175774748,
			"0.011": 0.833272219792,
			"0.012": 0.594191381924,
			"0.013": 0.749547383815,
			"0.014": 0.662686109743,
			"0.015": 0.124099198563,
			"0.016": 0.0,
			"0.017": 0.0,
			"0.018": 0.0,
			"0.019": 0.0,
			"0.02": 0.0,
			"0.021": 0.0,
			"0.022": 0.0,
			"0.023": 0.0,
			"0.024": 0.0,
			"0.025": 0.0
		}
	}
}
