{
	 "smiles": "FC(F)C(F)(F)C(F)Cl", 
	 "Tm": 358.15, 
	 "num_atms": 11, 
	 "gaussian": { 
		 "optdone": 1, 
		 "sigma_profile": "yes", 
		 "theory": "DFT", 
		 "functional": "B3LYP", 
		 "basiset": "6-31G**", 
		 "properties": { 
			 "R2extent": 1329.9733, 
			 "electric_dipole_moment_norm": 1.32220055211, 
			 "electric_quadrupole_moment_norm": 5.07782582608, 
			 "total_energy": -1074.88687147, 
			 "HOMO_LUMO_gap": 0.31697, 
			 "cosmo_polarized_energy": -4.96, 
			 "cosmo_cavitation_energy": 18.91, 
			 "cosmo_dispersion_energy": -13.33, 
			 "cosmo_repulsion_energy": 1.02, 
			 "cosmo_total_nonelectrostatic_energy": 6.6, 
			 "SMD_solvation_energy": 4.97 
		},
		"coords": [
			{
				"x": 0.8051476151,
				"y": -1.3790507685,
				"z": 2.2171448148,
				"element": "F" 
			},
			{
				"x": 0.2029107681,
				"y": -0.5174190722,
				"z": 1.3606664912,
				"element": "C" 
			},
			{
				"x": -1.049938235,
				"y": -0.2525220018,
				"z": 1.8077360978,
				"element": "F" 
			},
			{
				"x": 0.1112562556,
				"y": -1.2061779464,
				"z": -0.0098509836,
				"element": "C" 
			},
			{
				"x": -0.5215934681,
				"y": -2.3989624927,
				"z": 0.1383708032,
				"element": "F" 
			},
			{
				"x": 1.3787398119,
				"y": -1.4423392008,
				"z": -0.4453056499,
				"element": "F" 
			},
			{
				"x": -0.6365583401,
				"y": -0.4503318504,
				"z": -1.1202010978,
				"element": "C" 
			},
			{
				"x": -1.9337388353,
				"y": -0.2864507687,
				"z": -0.7667902139,
				"element": "F" 
			},
			{
				"x": 0.1154257979,
				"y": 1.1530815531,
				"z": -1.4383553502,
				"element": "Cl" 
			},
			{
				"x": 0.7807387357,
				"y": 0.4100717976,
				"z": 1.311490073,
				"element": "H" 
			},
			{
				"x": -0.5678901059,
				"y": -1.0276992491,
				"z": -2.0453049847,
				"element": "H" 
			}
		],
		 "valence_orbital": [ 
			{
				"type": "occ",
				"energy": -0.39864,
				"method": "rhf"
			},
			{
				"type": "occ",
				"energy": -0.38977,
				"method": "rhf"
			},
			{
				"type": "occ",
				"energy": -0.35936,
				"method": "rhf"
			},
			{
				"type": "occ",
				"energy": -0.34402,
				"method": "rhf"
			},
			{
				"type": "occ",
				"energy": -0.32638,
				"method": "rhf"
			},
			{
				"type": "unocc",
				"energy": -0.00941,
				"method": "rhf"
			},
			{
				"type": "unocc",
				"energy": 0.04392,
				"method": "rhf"
			},
			{
				"type": "unocc",
				"energy": 0.07467,
				"method": "rhf"
			},
			{
				"type": "unocc",
				"energy": 0.11166,
				"method": "rhf"
			},
			{
				"type": "unocc",
				"energy": 0.1255,
				"method": "rhf"
			}
		],
		"cosmo_sigma_profile": { 
			"-0.025": 0.0,
			"-0.024": 0.0,
			"-0.023": 0.0,
			"-0.022": 0.0,
			"-0.021": 0.0,
			"-0.02": 0.0,
			"-0.019": 0.0,
			"-0.018": 0.0,
			"-0.017": 0.0,
			"-0.016": 0.0,
			"-0.015": 0.0,
			"-0.014": 0.0,
			"-0.013": 0.0,
			"-0.012": 2.138072117,
			"-0.011": 3.20988899801,
			"-0.01": 3.65129114626,
			"-0.009": 2.76539775005,
			"-0.008": 2.68253625483,
			"-0.007": 2.43904303521,
			"-0.006": 3.42458765016,
			"-0.005": 3.59717789427,
			"-0.004": 2.74484460884,
			"-0.003": 4.92274182705,
			"-0.002": 6.67666699613,
			"-0.001": 5.45010213732,
			"0.0": 7.52339567908,
			"0.001": 16.0814647845,
			"0.002": 36.9726094725,
			"0.003": 42.7164415914,
			"0.004": 6.32820915439,
			"0.005": 0.0,
			"0.006": 0.0,
			"0.007": 0.0,
			"0.008": 0.0,
			"0.009": 0.0,
			"0.01": 0.0,
			"0.011": 0.0,
			"0.012": 0.0,
			"0.013": 0.0,
			"0.014": 0.0,
			"0.015": 0.0,
			"0.016": 0.0,
			"0.017": 0.0,
			"0.018": 0.0,
			"0.019": 0.0,
			"0.02": 0.0,
			"0.021": 0.0,
			"0.022": 0.0,
			"0.023": 0.0,
			"0.024": 0.0,
			"0.025": 0.0
		}
	}
}
