{
	 "smiles": "COC", 
	 "Tm": 133.15, 
	 "num_atms": 9, 
	 "gaussian": { 
		 "optdone": 1, 
		 "sigma_profile": "yes", 
		 "theory": "DFT", 
		 "functional": "B3LYP", 
		 "basiset": "6-31G**", 
		 "properties": { 
			 "R2extent": 313.9716, 
			 "electric_dipole_moment_norm": 1.26613526134, 
			 "electric_quadrupole_moment_norm": 4.10725320257, 
			 "total_energy": -155.03025872, 
			 "HOMO_LUMO_gap": 0.34405, 
			 "cosmo_polarized_energy": -3.33, 
			 "cosmo_cavitation_energy": 11.65, 
			 "cosmo_dispersion_energy": -8.88, 
			 "cosmo_repulsion_energy": 0.85, 
			 "cosmo_total_nonelectrostatic_energy": 3.62, 
			 "SMD_solvation_energy": 3.45 
		},
		"coords": [
			{
				"x": 0.6671433195,
				"y": 1.6224096451,
				"z": 1.0001024319,
				"element": "C" 
			},
			{
				"x": 0.8385168368,
				"y": 0.2676064418,
				"z": 1.3503173879,
				"element": "O" 
			},
			{
				"x": 0.642316641,
				"y": -0.5982144789,
				"z": 0.2551603836,
				"element": "C" 
			},
			{
				"x": 0.8364371791,
				"y": 2.2167586162,
				"z": 1.9014188939,
				"element": "H" 
			},
			{
				"x": 1.383624088,
				"y": 1.9406819433,
				"z": 0.2249298862,
				"element": "H" 
			},
			{
				"x": -0.3501998948,
				"y": 1.825228391,
				"z": 0.6267264749,
				"element": "H" 
			},
			{
				"x": 1.3574458013,
				"y": -0.398984098,
				"z": -0.5599668494,
				"element": "H" 
			},
			{
				"x": -0.3763687812,
				"y": -0.5143938769,
				"z": -0.1581046113,
				"element": "H" 
			},
			{
				"x": 0.7935848105,
				"y": -1.6190925837,
				"z": 0.6146160023,
				"element": "H" 
			}
		],
		 "valence_orbital": [ 
			{
				"type": "occ",
				"energy": -0.465,
				"method": "rhf"
			},
			{
				"type": "occ",
				"energy": -0.39214,
				"method": "rhf"
			},
			{
				"type": "occ",
				"energy": -0.37444,
				"method": "rhf"
			},
			{
				"type": "occ",
				"energy": -0.31422,
				"method": "rhf"
			},
			{
				"type": "occ",
				"energy": -0.25138,
				"method": "rhf"
			},
			{
				"type": "unocc",
				"energy": 0.09267,
				"method": "rhf"
			},
			{
				"type": "unocc",
				"energy": 0.14311,
				"method": "rhf"
			},
			{
				"type": "unocc",
				"energy": 0.14887,
				"method": "rhf"
			},
			{
				"type": "unocc",
				"energy": 0.15198,
				"method": "rhf"
			},
			{
				"type": "unocc",
				"energy": 0.16665,
				"method": "rhf"
			}
		],
		"cosmo_sigma_profile": { 
			"-0.025": 0.0,
			"-0.024": 0.0,
			"-0.023": 0.0,
			"-0.022": 0.0,
			"-0.021": 0.0,
			"-0.02": 0.0,
			"-0.019": 0.0,
			"-0.018": 0.0,
			"-0.017": 0.0,
			"-0.016": 0.0,
			"-0.015": 0.0,
			"-0.014": 0.0,
			"-0.013": 0.0,
			"-0.012": 0.0,
			"-0.011": 0.0,
			"-0.01": 0.0,
			"-0.009": 0.0,
			"-0.008": 0.0,
			"-0.007": 0.0,
			"-0.006": 0.0,
			"-0.005": 2.38747011939,
			"-0.004": 7.43428963972,
			"-0.003": 19.348496526,
			"-0.002": 20.4452856101,
			"-0.001": 13.5251931917,
			"0.0": 4.66809172779,
			"0.001": 2.7880858579,
			"0.002": 2.53413520415,
			"0.003": 1.69573189627,
			"0.004": 1.56514851223,
			"0.005": 1.26992819776,
			"0.006": 2.03840039169,
			"0.007": 1.16542711898,
			"0.008": 1.23398046389,
			"0.009": 1.58475655649,
			"0.01": 1.191642534,
			"0.011": 1.36144003497,
			"0.012": 1.28148371382,
			"0.013": 2.22215605982,
			"0.014": 0.894677644359,
			"0.015": 0.0,
			"0.016": 0.0,
			"0.017": 0.0,
			"0.018": 0.0,
			"0.019": 0.0,
			"0.02": 0.0,
			"0.021": 0.0,
			"0.022": 0.0,
			"0.023": 0.0,
			"0.024": 0.0,
			"0.025": 0.0
		}
	}
}
