{
	 "smiles": "BrCCCOC1=CC2=NC3=CC(OCCCBr)=CC=C3C=C2C=C1", 
	 "Tm": 415.15, 
	 "num_atms": 43, 
	 "gaussian": { 
		 "optdone": 1, 
		 "sigma_profile": "yes", 
		 "theory": "DFT", 
		 "functional": "B3LYP", 
		 "basiset": "6-31G**", 
		 "properties": { 
			 "R2extent": 22578.6775, 
			 "electric_dipole_moment_norm": 4.92584161438, 
			 "electric_quadrupole_moment_norm": 37.7653212653, 
			 "total_energy": -6083.48755928, 
			 "HOMO_LUMO_gap": 0.13119, 
			 "cosmo_polarized_energy": -20.62, 
			 "cosmo_cavitation_energy": 50.98, 
			 "cosmo_dispersion_energy": -36.97, 
			 "cosmo_repulsion_energy": 2.84, 
			 "cosmo_total_nonelectrostatic_energy": 16.85, 
			 "SMD_solvation_energy": 4.07 
		},
		"coords": [
			{
				"x": 0.5419201619,
				"y": 0.5928955988,
				"z": 6.0001207436,
				"element": "Br" 
			},
			{
				"x": 1.0603241413,
				"y": 2.4538227015,
				"z": 6.4314111024,
				"element": "C" 
			},
			{
				"x": 0.4342099532,
				"y": 3.5138960106,
				"z": 5.5319945135,
				"element": "C" 
			},
			{
				"x": 0.9925816511,
				"y": 3.6228495119,
				"z": 4.1158170064,
				"element": "C" 
			},
			{
				"x": 0.4685495617,
				"y": 2.5609690838,
				"z": 3.330543176,
				"element": "O" 
			},
			{
				"x": 0.8498870451,
				"y": 2.4330356848,
				"z": 2.0269738328,
				"element": "C" 
			},
			{
				"x": 0.3259089971,
				"y": 1.3599588709,
				"z": 1.3376599526,
				"element": "C" 
			},
			{
				"x": 0.6535860619,
				"y": 1.1398619025,
				"z": -0.0265575731,
				"element": "C" 
			},
			{
				"x": 0.1145305592,
				"y": 0.0761048181,
				"z": -0.6569054905,
				"element": "N" 
			},
			{
				"x": 0.4261073284,
				"y": -0.1316707641,
				"z": -1.9447588473,
				"element": "C" 
			},
			{
				"x": -0.1534434879,
				"y": -1.2621190509,
				"z": -2.602644697,
				"element": "C" 
			},
			{
				"x": 0.1323687298,
				"y": -1.5221063309,
				"z": -3.9222244615,
				"element": "C" 
			},
			{
				"x": -0.3428372965,
				"y": -2.5627412315,
				"z": -4.6645453351,
				"element": "O" 
			},
			{
				"x": -1.1877653938,
				"y": -3.5641044002,
				"z": -4.0900891031,
				"element": "C" 
			},
			{
				"x": -2.6629022574,
				"y": -3.3496709786,
				"z": -4.4490739356,
				"element": "C" 
			},
			{
				"x": -3.2869443587,
				"y": -2.1232695024,
				"z": -3.7977744294,
				"element": "C" 
			},
			{
				"x": -5.1864409022,
				"y": -1.930812996,
				"z": -4.3333285503,
				"element": "Br" 
			},
			{
				"x": 1.0118089104,
				"y": -0.6616565085,
				"z": -4.6600509911,
				"element": "C" 
			},
			{
				"x": 1.578184957,
				"y": 0.4260462351,
				"z": -4.0621349999,
				"element": "C" 
			},
			{
				"x": 1.3125912718,
				"y": 0.7337503746,
				"z": -2.6911362597,
				"element": "C" 
			},
			{
				"x": 1.8622861617,
				"y": 1.8292484108,
				"z": -2.0271785577,
				"element": "C" 
			},
			{
				"x": 1.5517599307,
				"y": 2.0638520729,
				"z": -0.6829979817,
				"element": "C" 
			},
			{
				"x": 2.0722705579,
				"y": 3.158759787,
				"z": 0.0624038122,
				"element": "C" 
			},
			{
				"x": 1.7377158377,
				"y": 3.347685856,
				"z": 1.3794735988,
				"element": "C" 
			},
			{
				"x": 0.7490651283,
				"y": 2.5898088956,
				"z": 7.4665871635,
				"element": "H" 
			},
			{
				"x": 2.1501682377,
				"y": 2.4693286824,
				"z": 6.3818944565,
				"element": "H" 
			},
			{
				"x": -0.6512869956,
				"y": 3.3826072978,
				"z": 5.4831504177,
				"element": "H" 
			},
			{
				"x": 0.616065447,
				"y": 4.4804262002,
				"z": 6.0236574731,
				"element": "H" 
			},
			{
				"x": 0.699019549,
				"y": 4.5905755517,
				"z": 3.6842914297,
				"element": "H" 
			},
			{
				"x": 2.0921259221,
				"y": 3.5841587071,
				"z": 4.1350782026,
				"element": "H" 
			},
			{
				"x": -0.343242568,
				"y": 0.6680260817,
				"z": 1.835193473,
				"element": "H" 
			},
			{
				"x": -0.8130185392,
				"y": -1.8760051043,
				"z": -2.0033860085,
				"element": "H" 
			},
			{
				"x": -1.0350552739,
				"y": -3.6365081574,
				"z": -3.0087478682,
				"element": "H" 
			},
			{
				"x": -0.8545217401,
				"y": -4.5077895301,
				"z": -4.5332846987,
				"element": "H" 
			},
			{
				"x": -3.2166925766,
				"y": -4.2463327493,
				"z": -4.1474707004,
				"element": "H" 
			},
			{
				"x": -2.7485690181,
				"y": -3.271007742,
				"z": -5.5375261013,
				"element": "H" 
			},
			{
				"x": -2.8061943651,
				"y": -1.1952702282,
				"z": -4.101358234,
				"element": "H" 
			},
			{
				"x": -3.3022925007,
				"y": -2.1849554628,
				"z": -2.7097274335,
				"element": "H" 
			},
			{
				"x": 1.205460696,
				"y": -0.9099665476,
				"z": -5.6981229725,
				"element": "H" 
			},
			{
				"x": 2.2443717234,
				"y": 1.0748419512,
				"z": -4.6250163724,
				"element": "H" 
			},
			{
				"x": 2.5342810553,
				"y": 2.5037322612,
				"z": -2.5546767759,
				"element": "H" 
			},
			{
				"x": 2.747046819,
				"y": 3.854269658,
				"z": -0.4303169529,
				"element": "H" 
			},
			{
				"x": 2.1487108781,
				"y": 4.1916750788,
				"z": 1.9199849771,
				"element": "H" 
			}
		],
		 "valence_orbital": [ 
			{
				"type": "occ",
				"energy": -0.26209,
				"method": "rhf"
			},
			{
				"type": "occ",
				"energy": -0.25565,
				"method": "rhf"
			},
			{
				"type": "occ",
				"energy": -0.24538,
				"method": "rhf"
			},
			{
				"type": "occ",
				"energy": -0.21854,
				"method": "rhf"
			},
			{
				"type": "occ",
				"energy": -0.19896,
				"method": "rhf"
			},
			{
				"type": "unocc",
				"energy": -0.06777,
				"method": "rhf"
			},
			{
				"type": "unocc",
				"energy": -0.01111,
				"method": "rhf"
			},
			{
				"type": "unocc",
				"energy": 0.00261,
				"method": "rhf"
			},
			{
				"type": "unocc",
				"energy": 0.00494,
				"method": "rhf"
			},
			{
				"type": "unocc",
				"energy": 0.00801,
				"method": "rhf"
			}
		],
		"cosmo_sigma_profile": { 
			"-0.025": 0.0,
			"-0.024": 0.0,
			"-0.023": 0.0,
			"-0.022": 0.0,
			"-0.021": 0.0,
			"-0.02": 0.0,
			"-0.019": 0.0,
			"-0.018": 0.0,
			"-0.017": 0.0,
			"-0.016": 0.0,
			"-0.015": 0.0,
			"-0.014": 0.0,
			"-0.013": 0.0,
			"-0.012": 0.0,
			"-0.011": 0.0,
			"-0.01": 0.0769543916075,
			"-0.009": 1.05463780542,
			"-0.008": 2.52732943998,
			"-0.007": 19.3862620138,
			"-0.006": 34.3821444054,
			"-0.005": 39.4428769218,
			"-0.004": 32.7790714458,
			"-0.003": 24.2712014072,
			"-0.002": 22.9357673708,
			"-0.001": 18.7380022272,
			"0.0": 19.0665034316,
			"0.001": 23.0412386688,
			"0.002": 34.1528576717,
			"0.003": 35.1683735343,
			"0.004": 27.9595463827,
			"0.005": 19.8707837008,
			"0.006": 24.4484131506,
			"0.007": 13.9131801616,
			"0.008": 4.57075450644,
			"0.009": 5.7372010649,
			"0.01": 2.02401716224,
			"0.011": 1.40253106639,
			"0.012": 0.788333615547,
			"0.013": 1.13580460179,
			"0.014": 0.963234267773,
			"0.015": 0.535343080009,
			"0.016": 0.690434203664,
			"0.017": 0.190142923141,
			"0.018": 0.0,
			"0.019": 0.0,
			"0.02": 0.0,
			"0.021": 0.0,
			"0.022": 0.0,
			"0.023": 0.0,
			"0.024": 0.0,
			"0.025": 0.0
		}
	}
}
