{
	 "smiles": "CC1(NC(=O)NC1=O)C1=CC=C(OC(F)(F)F)C=C1", 
	 "Tm": 425.15, 
	 "num_atms": 28, 
	 "gaussian": { 
		 "optdone": 1, 
		 "sigma_profile": "yes", 
		 "theory": "DFT", 
		 "functional": "B3LYP", 
		 "basiset": "6-31G**", 
		 "properties": { 
			 "R2extent": 8141.5658, 
			 "electric_dipole_moment_norm": 2.22001347293, 
			 "electric_quadrupole_moment_norm": 16.3693990152, 
			 "total_energy": -1059.33504137, 
			 "HOMO_LUMO_gap": 0.22099, 
			 "cosmo_polarized_energy": -16.46, 
			 "cosmo_cavitation_energy": 34.23, 
			 "cosmo_dispersion_energy": -24.04, 
			 "cosmo_repulsion_energy": 1.79, 
			 "cosmo_total_nonelectrostatic_energy": 11.98, 
			 "SMD_solvation_energy": 9.08 
		},
		"coords": [
			{
				"x": -0.8617516539,
				"y": 2.0740098568,
				"z": 2.6943512766,
				"element": "C" 
			},
			{
				"x": -0.4073809022,
				"y": 0.7963192782,
				"z": 1.9580874149,
				"element": "C" 
			},
			{
				"x": 1.0490477406,
				"y": 0.7329638512,
				"z": 1.8453198803,
				"element": "N" 
			},
			{
				"x": 1.6224379899,
				"y": -0.254214347,
				"z": 2.6129720233,
				"element": "C" 
			},
			{
				"x": 2.7988085456,
				"y": -0.4724584241,
				"z": 2.8059921364,
				"element": "O" 
			},
			{
				"x": 0.5424044573,
				"y": -0.9853828637,
				"z": 3.1496403885,
				"element": "N" 
			},
			{
				"x": -0.6866043936,
				"y": -0.4376311227,
				"z": 2.8618878357,
				"element": "C" 
			},
			{
				"x": -1.7701557653,
				"y": -0.8197379593,
				"z": 3.2495031541,
				"element": "O" 
			},
			{
				"x": -1.1184931287,
				"y": 0.642730576,
				"z": 0.6086209839,
				"element": "C" 
			},
			{
				"x": -2.5156352732,
				"y": 0.5423010105,
				"z": 0.5606776639,
				"element": "C" 
			},
			{
				"x": -3.1937871752,
				"y": 0.4221008249,
				"z": -0.6513826272,
				"element": "C" 
			},
			{
				"x": -2.4587239964,
				"y": 0.4171672524,
				"z": -1.8370030766,
				"element": "C" 
			},
			{
				"x": -3.0145080993,
				"y": 0.2876587465,
				"z": -3.112288749,
				"element": "O" 
			},
			{
				"x": -4.3213309685,
				"y": 0.5696723659,
				"z": -3.3354195432,
				"element": "C" 
			},
			{
				"x": -4.5196505562,
				"y": 0.5249855607,
				"z": -4.6515943625,
				"element": "F" 
			},
			{
				"x": -4.6703451104,
				"y": 1.7882965852,
				"z": -2.8845058249,
				"element": "F" 
			},
			{
				"x": -5.151213901,
				"y": -0.3233885817,
				"z": -2.7546315771,
				"element": "F" 
			},
			{
				"x": -1.0697009574,
				"y": 0.5055677284,
				"z": -1.8153537639,
				"element": "C" 
			},
			{
				"x": -0.4059644621,
				"y": 0.60932262,
				"z": -0.5947782704,
				"element": "C" 
			},
			{
				"x": -1.9363172454,
				"y": 2.0426390721,
				"z": 2.884012503,
				"element": "H" 
			},
			{
				"x": -0.3425191504,
				"y": 2.1698358841,
				"z": 3.6527216796,
				"element": "H" 
			},
			{
				"x": -0.6445043089,
				"y": 2.9553090652,
				"z": 2.0831858699,
				"element": "H" 
			},
			{
				"x": 1.6151335443,
				"y": 1.5235801918,
				"z": 1.5753533677,
				"element": "H" 
			},
			{
				"x": 0.6799176074,
				"y": -1.7908446212,
				"z": 3.7436005988,
				"element": "H" 
			},
			{
				"x": -3.0851688603,
				"y": 0.5175515984,
				"z": 1.4828079472,
				"element": "H" 
			},
			{
				"x": -4.2712632614,
				"y": 0.3240506969,
				"z": -0.6592461802,
				"element": "H" 
			},
			{
				"x": -0.5243131915,
				"y": 0.4879196514,
				"z": -2.7526680119,
				"element": "H" 
			},
			{
				"x": 0.6770824762,
				"y": 0.6567755029,
				"z": -0.5831627369,
				"element": "H" 
			}
		],
		 "valence_orbital": [ 
			{
				"type": "occ",
				"energy": -0.29661,
				"method": "rhf"
			},
			{
				"type": "occ",
				"energy": -0.28092,
				"method": "rhf"
			},
			{
				"type": "occ",
				"energy": -0.27351,
				"method": "rhf"
			},
			{
				"type": "occ",
				"energy": -0.26901,
				"method": "rhf"
			},
			{
				"type": "occ",
				"energy": -0.24959,
				"method": "rhf"
			},
			{
				"type": "unocc",
				"energy": -0.0286,
				"method": "rhf"
			},
			{
				"type": "unocc",
				"energy": -0.0217,
				"method": "rhf"
			},
			{
				"type": "unocc",
				"energy": -0.00582,
				"method": "rhf"
			},
			{
				"type": "unocc",
				"energy": 0.05041,
				"method": "rhf"
			},
			{
				"type": "unocc",
				"energy": 0.06527,
				"method": "rhf"
			}
		],
		"cosmo_sigma_profile": { 
			"-0.025": 0.0,
			"-0.024": 0.0,
			"-0.023": 0.0,
			"-0.022": 0.0,
			"-0.021": 0.0,
			"-0.02": 0.0,
			"-0.019": 0.0,
			"-0.018": 0.0,
			"-0.017": 0.522668951332,
			"-0.016": 1.42045285425,
			"-0.015": 2.29216326285,
			"-0.014": 2.21682474944,
			"-0.013": 1.54957080246,
			"-0.012": 2.20659580008,
			"-0.011": 2.2431880858,
			"-0.01": 1.80782841461,
			"-0.009": 2.04964360333,
			"-0.008": 3.20607255721,
			"-0.007": 5.67840468167,
			"-0.006": 12.4651217519,
			"-0.005": 14.6079182021,
			"-0.004": 12.4907523908,
			"-0.003": 15.4851325444,
			"-0.002": 18.0173149551,
			"-0.001": 22.9266578202,
			"0.0": 18.8687707104,
			"0.001": 30.3697748365,
			"0.002": 38.5734371939,
			"0.003": 16.8151711575,
			"0.004": 8.56679787183,
			"0.005": 4.31358457659,
			"0.006": 2.8134418479,
			"0.007": 2.72768543596,
			"0.008": 3.08482460632,
			"0.009": 3.1212973131,
			"0.01": 2.99589186468,
			"0.011": 6.47655897238,
			"0.012": 8.30320122319,
			"0.013": 4.88708694512,
			"0.014": 0.276359394169,
			"0.015": 0.0,
			"0.016": 0.0,
			"0.017": 0.0,
			"0.018": 0.0,
			"0.019": 0.0,
			"0.02": 0.0,
			"0.021": 0.0,
			"0.022": 0.0,
			"0.023": 0.0,
			"0.024": 0.0,
			"0.025": 0.0
		}
	}
}
