{
	 "smiles": "CC(NO)C1=CC=CC=C1", 
	 "Tm": 347.15, 
	 "num_atms": 21, 
	 "gaussian": { 
		 "optdone": 1, 
		 "sigma_profile": "yes", 
		 "theory": "DFT", 
		 "functional": "B3LYP", 
		 "basiset": "6-31G**", 
		 "properties": { 
			 "R2extent": 1674.4272, 
			 "electric_dipole_moment_norm": 3.0778762337, 
			 "electric_quadrupole_moment_norm": 10.1063372866, 
			 "total_energy": -441.395031068, 
			 "HOMO_LUMO_gap": 0.21963, 
			 "cosmo_polarized_energy": -10.57, 
			 "cosmo_cavitation_energy": 23.68, 
			 "cosmo_dispersion_energy": -17.19, 
			 "cosmo_repulsion_energy": 1.4, 
			 "cosmo_total_nonelectrostatic_energy": 7.89, 
			 "SMD_solvation_energy": 3.9 
		},
		"coords": [
			{
				"x": 0.1304032309,
				"y": 2.709847213,
				"z": -0.0137231541,
				"element": "C" 
			},
			{
				"x": -0.1983443279,
				"y": 1.5256422051,
				"z": -0.927952427,
				"element": "C" 
			},
			{
				"x": -1.650891872,
				"y": 1.2744936816,
				"z": -0.8357707323,
				"element": "N" 
			},
			{
				"x": -2.0492918887,
				"y": 0.2639094773,
				"z": -1.7590075654,
				"element": "O" 
			},
			{
				"x": 0.6367958593,
				"y": 0.2745737278,
				"z": -0.6603560644,
				"element": "C" 
			},
			{
				"x": 0.8778106133,
				"y": -0.1913943886,
				"z": 0.6425670256,
				"element": "C" 
			},
			{
				"x": 1.5854704304,
				"y": -1.3727165975,
				"z": 0.8615524521,
				"element": "C" 
			},
			{
				"x": 2.0598013781,
				"y": -2.1200555728,
				"z": -0.2200356142,
				"element": "C" 
			},
			{
				"x": 1.8204558336,
				"y": -1.6767327628,
				"z": -1.5201852292,
				"element": "C" 
			},
			{
				"x": 1.1132859766,
				"y": -0.4904131403,
				"z": -1.7354341356,
				"element": "C" 
			},
			{
				"x": -0.0998465776,
				"y": 2.4939038378,
				"z": 1.0354171194,
				"element": "H" 
			},
			{
				"x": -0.4605175638,
				"y": 3.5794851337,
				"z": -0.3109776374,
				"element": "H" 
			},
			{
				"x": 1.1926769444,
				"y": 2.9612141538,
				"z": -0.0763037514,
				"element": "H" 
			},
			{
				"x": -0.0275893908,
				"y": 1.8284779584,
				"z": -1.9671287489,
				"element": "H" 
			},
			{
				"x": -1.8599300632,
				"y": 0.9106196879,
				"z": 0.0982972243,
				"element": "H" 
			},
			{
				"x": -1.4747861442,
				"y": -0.5091804229,
				"z": -1.6016009571,
				"element": "H" 
			},
			{
				"x": 0.5175814318,
				"y": 0.375577486,
				"z": 1.4969142961,
				"element": "H" 
			},
			{
				"x": 1.7693671997,
				"y": -1.710557558,
				"z": 1.8776468721,
				"element": "H" 
			},
			{
				"x": 2.6116062112,
				"y": -3.0396166402,
				"z": -0.0479822914,
				"element": "H" 
			},
			{
				"x": 2.1837329431,
				"y": -2.2501800122,
				"z": -2.3683493936,
				"element": "H" 
			},
			{
				"x": 0.9373097761,
				"y": -0.1433974669,
				"z": -2.7507872874,
				"element": "H" 
			}
		],
		 "valence_orbital": [ 
			{
				"type": "occ",
				"energy": -0.33989,
				"method": "rhf"
			},
			{
				"type": "occ",
				"energy": -0.2794,
				"method": "rhf"
			},
			{
				"type": "occ",
				"energy": -0.26055,
				"method": "rhf"
			},
			{
				"type": "occ",
				"energy": -0.25822,
				"method": "rhf"
			},
			{
				"type": "occ",
				"energy": -0.23358,
				"method": "rhf"
			},
			{
				"type": "unocc",
				"energy": -0.01395,
				"method": "rhf"
			},
			{
				"type": "unocc",
				"energy": -0.01097,
				"method": "rhf"
			},
			{
				"type": "unocc",
				"energy": 0.08035,
				"method": "rhf"
			},
			{
				"type": "unocc",
				"energy": 0.09295,
				"method": "rhf"
			},
			{
				"type": "unocc",
				"energy": 0.09581,
				"method": "rhf"
			}
		],
		"cosmo_sigma_profile": { 
			"-0.025": 0.0,
			"-0.024": 0.0,
			"-0.023": 0.0,
			"-0.022": 0.0,
			"-0.021": 0.0,
			"-0.02": 0.0,
			"-0.019": 0.0,
			"-0.018": 0.0,
			"-0.017": 0.0,
			"-0.016": 0.0,
			"-0.015": 0.0,
			"-0.014": 0.0,
			"-0.013": 0.0,
			"-0.012": 0.153839771121,
			"-0.011": 1.00669611507,
			"-0.01": 2.36308509569,
			"-0.009": 3.08149629829,
			"-0.008": 3.1604018467,
			"-0.007": 3.23037263643,
			"-0.006": 7.94204121984,
			"-0.005": 14.1923553783,
			"-0.004": 17.0600210745,
			"-0.003": 17.853018327,
			"-0.002": 15.4491804644,
			"-0.001": 15.4785870109,
			"0.0": 14.3933972922,
			"0.001": 11.994519512,
			"0.002": 7.96551347445,
			"0.003": 8.3503353708,
			"0.004": 8.42017161627,
			"0.005": 9.23758195451,
			"0.006": 6.11732902266,
			"0.007": 0.873806573176,
			"0.008": 1.08751034497,
			"0.009": 1.60460480282,
			"0.01": 1.47101666784,
			"0.011": 1.83771394647,
			"0.012": 2.27549673943,
			"0.013": 3.68645037709,
			"0.014": 4.06083664671,
			"0.015": 0.710363023914,
			"0.016": 0.824862438175,
			"0.017": 0.406607377339,
			"0.018": 0.0,
			"0.019": 0.0,
			"0.02": 0.0,
			"0.021": 0.0,
			"0.022": 0.0,
			"0.023": 0.0,
			"0.024": 0.0,
			"0.025": 0.0
		}
	}
}
