{
	 "smiles": "CNC(=O)C1=CN=C(C)S1", 
	 "Tm": 446.15, 
	 "num_atms": 18, 
	 "gaussian": { 
		 "optdone": 1, 
		 "sigma_profile": "yes", 
		 "theory": "DFT", 
		 "functional": "B3LYP", 
		 "basiset": "6-31G**", 
		 "properties": { 
			 "R2extent": 1968.465, 
			 "electric_dipole_moment_norm": 2.71822128238, 
			 "electric_quadrupole_moment_norm": 19.6497417673, 
			 "total_energy": -816.378130759, 
			 "HOMO_LUMO_gap": 0.19692, 
			 "cosmo_polarized_energy": -13.42, 
			 "cosmo_cavitation_energy": 23.54, 
			 "cosmo_dispersion_energy": -18.01, 
			 "cosmo_repulsion_energy": 1.42, 
			 "cosmo_total_nonelectrostatic_energy": 6.95, 
			 "SMD_solvation_energy": 2.63 
		},
		"coords": [
			{
				"x": 2.6994412704,
				"y": 0.8550080809,
				"z": -1.2972219423,
				"element": "C" 
			},
			{
				"x": 2.4933906442,
				"y": 0.5963096167,
				"z": 0.1170074701,
				"element": "N" 
			},
			{
				"x": 1.4021935205,
				"y": 0.0850749159,
				"z": 0.7684959431,
				"element": "C" 
			},
			{
				"x": 1.3397130261,
				"y": 0.1071319858,
				"z": 1.9978107654,
				"element": "O" 
			},
			{
				"x": 0.2871530341,
				"y": -0.4991311274,
				"z": -0.0198447683,
				"element": "C" 
			},
			{
				"x": 0.1615407764,
				"y": -0.9769108264,
				"z": -1.3024882009,
				"element": "C" 
			},
			{
				"x": -1.0493347706,
				"y": -1.5246724515,
				"z": -1.6397066473,
				"element": "N" 
			},
			{
				"x": -1.8783811314,
				"y": -1.4831950172,
				"z": -0.6267381197,
				"element": "C" 
			},
			{
				"x": -3.2857788706,
				"y": -1.9937683803,
				"z": -0.6893366611,
				"element": "C" 
			},
			{
				"x": -1.2129388001,
				"y": -0.7783594982,
				"z": 0.8300886737,
				"element": "S" 
			},
			{
				"x": 3.4448696027,
				"y": 1.6468605702,
				"z": -1.4004698661,
				"element": "H" 
			},
			{
				"x": 3.0681423087,
				"y": -0.024492312,
				"z": -1.8411490493,
				"element": "H" 
			},
			{
				"x": 1.7767616043,
				"y": 1.1982976976,
				"z": -1.7727016559,
				"element": "H" 
			},
			{
				"x": 3.1836967916,
				"y": 0.9432637204,
				"z": 0.7686390422,
				"element": "H" 
			},
			{
				"x": 0.9454093131,
				"y": -0.9765470494,
				"z": -2.048306763,
				"element": "H" 
			},
			{
				"x": -3.4653764872,
				"y": -2.770054494,
				"z": 0.0617019128,
				"element": "H" 
			},
			{
				"x": -3.4576867317,
				"y": -2.414999917,
				"z": -1.6813801538,
				"element": "H" 
			},
			{
				"x": -4.0108151004,
				"y": -1.1913155143,
				"z": -0.5160999797,
				"element": "H" 
			}
		],
		 "valence_orbital": [ 
			{
				"type": "occ",
				"energy": -0.28694,
				"method": "rhf"
			},
			{
				"type": "occ",
				"energy": -0.28118,
				"method": "rhf"
			},
			{
				"type": "occ",
				"energy": -0.25425,
				"method": "rhf"
			},
			{
				"type": "occ",
				"energy": -0.24983,
				"method": "rhf"
			},
			{
				"type": "occ",
				"energy": -0.24642,
				"method": "rhf"
			},
			{
				"type": "unocc",
				"energy": -0.0495,
				"method": "rhf"
			},
			{
				"type": "unocc",
				"energy": 0.01872,
				"method": "rhf"
			},
			{
				"type": "unocc",
				"energy": 0.0258,
				"method": "rhf"
			},
			{
				"type": "unocc",
				"energy": 0.07565,
				"method": "rhf"
			},
			{
				"type": "unocc",
				"energy": 0.08625,
				"method": "rhf"
			}
		],
		"cosmo_sigma_profile": { 
			"-0.025": 0.0,
			"-0.024": 0.0,
			"-0.023": 0.0,
			"-0.022": 0.0,
			"-0.021": 0.0,
			"-0.02": 0.0,
			"-0.019": 0.0,
			"-0.018": 0.0,
			"-0.017": 0.0,
			"-0.016": 0.0,
			"-0.015": 0.0,
			"-0.014": 0.777390354737,
			"-0.013": 1.10379567673,
			"-0.012": 0.886106587472,
			"-0.011": 1.03997991023,
			"-0.01": 1.34116406064,
			"-0.009": 0.761959676743,
			"-0.008": 2.73172558902,
			"-0.007": 5.23453836969,
			"-0.006": 11.7677743958,
			"-0.005": 15.5568613053,
			"-0.004": 15.6638142044,
			"-0.003": 15.7776252307,
			"-0.002": 16.8273320741,
			"-0.001": 13.0207339383,
			"0.0": 12.3978657854,
			"0.001": 14.1408141766,
			"0.002": 13.0015612534,
			"0.003": 8.88566493596,
			"0.004": 4.13393397877,
			"0.005": 3.5614139309,
			"0.006": 3.19775128952,
			"0.007": 2.3609895107,
			"0.008": 3.7906060869,
			"0.009": 2.19060236211,
			"0.01": 1.63305573534,
			"0.011": 2.54570840455,
			"0.012": 3.69386787905,
			"0.013": 4.75251983394,
			"0.014": 5.48566160486,
			"0.015": 0.84782252296,
			"0.016": 0.0965498852039,
			"0.017": 0.0,
			"0.018": 0.0,
			"0.019": 0.0,
			"0.02": 0.0,
			"0.021": 0.0,
			"0.022": 0.0,
			"0.023": 0.0,
			"0.024": 0.0,
			"0.025": 0.0
		}
	}
}
