{
	 "smiles": "C1C2C=CC1C=C2", 
	 "Tm": 253.55, 
	 "num_atms": 15, 
	 "gaussian": { 
		 "optdone": 1, 
		 "sigma_profile": "yes", 
		 "theory": "DFT", 
		 "functional": "B3LYP", 
		 "basiset": "6-31G**", 
		 "properties": { 
			 "R2extent": 751.088, 
			 "electric_dipole_moment_norm": 0.0245703072834, 
			 "electric_quadrupole_moment_norm": 2.13270457635, 
			 "total_energy": -271.484548101, 
			 "HOMO_LUMO_gap": 0.21686, 
			 "cosmo_polarized_energy": -2.08, 
			 "cosmo_cavitation_energy": 17.02, 
			 "cosmo_dispersion_energy": -13.23, 
			 "cosmo_repulsion_energy": 1.12, 
			 "cosmo_total_nonelectrostatic_energy": 4.92, 
			 "SMD_solvation_energy": 2.58 
		},
		"coords": [
			{
				"x": -0.2299853467,
				"y": 1.5028879428,
				"z": 1.2911720354,
				"element": "C" 
			},
			{
				"x": -0.7675340649,
				"y": 0.3526058822,
				"z": 0.3839214183,
				"element": "C" 
			},
			{
				"x": -0.8656766161,
				"y": -0.7519925633,
				"z": 1.4588918443,
				"element": "C" 
			},
			{
				"x": 0.1677164843,
				"y": -0.5857875474,
				"z": 2.2891792415,
				"element": "C" 
			},
			{
				"x": 0.9693131346,
				"y": 0.6319351713,
				"z": 1.779347611,
				"element": "C" 
			},
			{
				"x": 1.5511471568,
				"y": 0.2591927092,
				"z": 0.3980941692,
				"element": "C" 
			},
			{
				"x": 0.5177477243,
				"y": 0.0929826959,
				"z": -0.4321718624,
				"element": "C" 
			},
			{
				"x": 0.0796350397,
				"y": 2.3888970378,
				"z": 0.7284210797,
				"element": "H" 
			},
			{
				"x": -0.9198906745,
				"y": 1.7783450318,
				"z": 2.0947409361,
				"element": "H" 
			},
			{
				"x": -1.6734947384,
				"y": 0.5407329159,
				"z": -0.1947712596,
				"element": "H" 
			},
			{
				"x": -1.6156534258,
				"y": -1.5341919066,
				"z": 1.4713972445,
				"element": "H" 
			},
			{
				"x": 0.4536774373,
				"y": -1.2013471225,
				"z": 3.1340257843,
				"element": "H" 
			},
			{
				"x": 1.6676017059,
				"y": 1.0780937936,
				"z": 2.489544985,
				"element": "H" 
			},
			{
				"x": 2.6051768876,
				"y": 0.11279905,
				"z": 0.1930480675,
				"element": "H" 
			},
			{
				"x": 0.5358192961,
				"y": -0.2200530909,
				"z": -1.469541295,
				"element": "H" 
			}
		],
		 "valence_orbital": [ 
			{
				"type": "occ",
				"energy": -0.34174,
				"method": "rhf"
			},
			{
				"type": "occ",
				"energy": -0.32666,
				"method": "rhf"
			},
			{
				"type": "occ",
				"energy": -0.32205,
				"method": "rhf"
			},
			{
				"type": "occ",
				"energy": -0.24778,
				"method": "rhf"
			},
			{
				"type": "occ",
				"energy": -0.21762,
				"method": "rhf"
			},
			{
				"type": "unocc",
				"energy": -0.00076,
				"method": "rhf"
			},
			{
				"type": "unocc",
				"energy": 0.05444,
				"method": "rhf"
			},
			{
				"type": "unocc",
				"energy": 0.10842,
				"method": "rhf"
			},
			{
				"type": "unocc",
				"energy": 0.1434,
				"method": "rhf"
			},
			{
				"type": "unocc",
				"energy": 0.15017,
				"method": "rhf"
			}
		],
		"cosmo_sigma_profile": { 
			"-0.025": 0.0,
			"-0.024": 0.0,
			"-0.023": 0.0,
			"-0.022": 0.0,
			"-0.021": 0.0,
			"-0.02": 0.0,
			"-0.019": 0.0,
			"-0.018": 0.0,
			"-0.017": 0.0,
			"-0.016": 0.0,
			"-0.015": 0.0,
			"-0.014": 0.0,
			"-0.013": 0.0,
			"-0.012": 0.0,
			"-0.011": 0.0,
			"-0.01": 0.0,
			"-0.009": 0.0,
			"-0.008": 0.0,
			"-0.007": 0.0,
			"-0.006": 1.3614141165,
			"-0.005": 6.3499134255,
			"-0.004": 8.99733292371,
			"-0.003": 12.0918957477,
			"-0.002": 15.5264629366,
			"-0.001": 18.3803155107,
			"0.0": 18.6614667326,
			"0.001": 17.906594677,
			"0.002": 9.73965688905,
			"0.003": 6.4684996074,
			"0.004": 5.69257485553,
			"0.005": 4.909688781,
			"0.006": 3.45220293906,
			"0.007": 2.98233619852,
			"0.008": 1.6976938868,
			"0.009": 0.376862481288,
			"0.01": 0.0,
			"0.011": 0.0,
			"0.012": 0.0,
			"0.013": 0.0,
			"0.014": 0.0,
			"0.015": 0.0,
			"0.016": 0.0,
			"0.017": 0.0,
			"0.018": 0.0,
			"0.019": 0.0,
			"0.02": 0.0,
			"0.021": 0.0,
			"0.022": 0.0,
			"0.023": 0.0,
			"0.024": 0.0,
			"0.025": 0.0
		}
	}
}
