{
	 "smiles": "ClC(=O)C1=C(Cl)C2=CC=CC=C2S1", 
	 "Tm": 387.15, 
	 "num_atms": 17, 
	 "gaussian": { 
		 "optdone": 1, 
		 "sigma_profile": "yes", 
		 "theory": "DFT", 
		 "functional": "B3LYP", 
		 "basiset": "6-31G**", 
		 "properties": { 
			 "R2extent": 5048.8807, 
			 "electric_dipole_moment_norm": 5.30702071411, 
			 "electric_quadrupole_moment_norm": 14.5431244349, 
			 "total_energy": -1739.16493276, 
			 "HOMO_LUMO_gap": 0.1479, 
			 "cosmo_polarized_energy": -6.9, 
			 "cosmo_cavitation_energy": 26.86, 
			 "cosmo_dispersion_energy": -20.69, 
			 "cosmo_repulsion_energy": 1.57, 
			 "cosmo_total_nonelectrostatic_energy": 7.75, 
			 "SMD_solvation_energy": 4.41 
		},
		"coords": [
			{
				"x": 1.5382681816,
				"y": -4.0345877735,
				"z": 3.4141780382,
				"element": "Cl" 
			},
			{
				"x": 1.336511112,
				"y": -3.7995894163,
				"z": 1.6048924709,
				"element": "C" 
			},
			{
				"x": 1.6231537322,
				"y": -4.6891005392,
				"z": 0.8621771624,
				"element": "O" 
			},
			{
				"x": 0.8197133739,
				"y": -2.4803002699,
				"z": 1.2513672038,
				"element": "C" 
			},
			{
				"x": 0.5679384829,
				"y": -2.0247956563,
				"z": -0.0273315865,
				"element": "C" 
			},
			{
				"x": 0.8169882147,
				"y": -2.9342739031,
				"z": -1.4754157145,
				"element": "Cl" 
			},
			{
				"x": 0.0619559278,
				"y": -0.6829409354,
				"z": -0.0766970336,
				"element": "C" 
			},
			{
				"x": -0.2994227608,
				"y": 0.0920290571,
				"z": -1.1966570798,
				"element": "C" 
			},
			{
				"x": -0.7691942771,
				"y": 1.3790378071,
				"z": -0.9997479266,
				"element": "C" 
			},
			{
				"x": -0.8870567344,
				"y": 1.9134627419,
				"z": 0.3002107907,
				"element": "C" 
			},
			{
				"x": -0.5369051555,
				"y": 1.1680430237,
				"z": 1.4176093639,
				"element": "C" 
			},
			{
				"x": -0.0608469973,
				"y": -0.1352645914,
				"z": 1.2233943534,
				"element": "C" 
			},
			{
				"x": 0.4390219734,
				"y": -1.2590439518,
				"z": 2.4648154622,
				"element": "S" 
			},
			{
				"x": -0.2058690178,
				"y": -0.3262215557,
				"z": -2.1931377119,
				"element": "H" 
			},
			{
				"x": -1.0508752527,
				"y": 1.9862826615,
				"z": -1.8541099384,
				"element": "H" 
			},
			{
				"x": -1.2580862419,
				"y": 2.9255880694,
				"z": 0.4301423333,
				"element": "H" 
			},
			{
				"x": -0.629194561,
				"y": 1.5832752322,
				"z": 2.4161098125,
				"element": "H" 
			}
		],
		 "valence_orbital": [ 
			{
				"type": "occ",
				"energy": -0.32062,
				"method": "rhf"
			},
			{
				"type": "occ",
				"energy": -0.29889,
				"method": "rhf"
			},
			{
				"type": "occ",
				"energy": -0.29357,
				"method": "rhf"
			},
			{
				"type": "occ",
				"energy": -0.2668,
				"method": "rhf"
			},
			{
				"type": "occ",
				"energy": -0.24345,
				"method": "rhf"
			},
			{
				"type": "unocc",
				"energy": -0.09555,
				"method": "rhf"
			},
			{
				"type": "unocc",
				"energy": -0.02817,
				"method": "rhf"
			},
			{
				"type": "unocc",
				"energy": -0.02134,
				"method": "rhf"
			},
			{
				"type": "unocc",
				"energy": -0.00973,
				"method": "rhf"
			},
			{
				"type": "unocc",
				"energy": 0.02508,
				"method": "rhf"
			}
		],
		"cosmo_sigma_profile": { 
			"-0.025": 0.0,
			"-0.024": 0.0,
			"-0.023": 0.0,
			"-0.022": 0.0,
			"-0.021": 0.0,
			"-0.02": 0.0,
			"-0.019": 0.0,
			"-0.018": 0.0,
			"-0.017": 0.0,
			"-0.016": 0.0,
			"-0.015": 0.0,
			"-0.014": 0.0,
			"-0.013": 0.0,
			"-0.012": 0.0,
			"-0.011": 0.0,
			"-0.01": 0.0,
			"-0.009": 0.375475043677,
			"-0.008": 3.11325488116,
			"-0.007": 6.92396887252,
			"-0.006": 9.68375061219,
			"-0.005": 10.563382049,
			"-0.004": 10.9799918914,
			"-0.003": 12.2693175286,
			"-0.002": 20.6886735827,
			"-0.001": 20.5494951989,
			"0.0": 21.2198481076,
			"0.001": 24.8316089009,
			"0.002": 28.5787607827,
			"0.003": 23.8524076221,
			"0.004": 11.2212536659,
			"0.005": 5.51489521355,
			"0.006": 2.32396930333,
			"0.007": 3.1782898231,
			"0.008": 5.057282473,
			"0.009": 2.95413337463,
			"0.01": 0.0512492699789,
			"0.011": 0.0,
			"0.012": 0.0,
			"0.013": 0.0,
			"0.014": 0.0,
			"0.015": 0.0,
			"0.016": 0.0,
			"0.017": 0.0,
			"0.018": 0.0,
			"0.019": 0.0,
			"0.02": 0.0,
			"0.021": 0.0,
			"0.022": 0.0,
			"0.023": 0.0,
			"0.024": 0.0,
			"0.025": 0.0
		}
	}
}
