{
	 "smiles": "CCC(C)(CC)CC", 
	 "Tm": 182.15, 
	 "num_atms": 26, 
	 "gaussian": { 
		 "optdone": 1, 
		 "sigma_profile": "yes", 
		 "theory": "DFT", 
		 "functional": "B3LYP", 
		 "basiset": "6-31G**", 
		 "properties": { 
			 "R2extent": 1488.2349, 
			 "electric_dipole_moment_norm": 0.0153499185666, 
			 "electric_quadrupole_moment_norm": 0.181683323395, 
			 "total_energy": -315.722909956, 
			 "HOMO_LUMO_gap": 0.37499, 
			 "cosmo_polarized_energy": -0.72, 
			 "cosmo_cavitation_energy": 24.99, 
			 "cosmo_dispersion_energy": -17.96, 
			 "cosmo_repulsion_energy": 1.47, 
			 "cosmo_total_nonelectrostatic_energy": 8.51, 
			 "SMD_solvation_energy": 4.39 
		},
		"coords": [
			{
				"x": -2.0212639369,
				"y": 0.8243233921,
				"z": 0.2808422567,
				"element": "C" 
			},
			{
				"x": -0.8825073518,
				"y": -0.2039245946,
				"z": 0.2260487986,
				"element": "C" 
			},
			{
				"x": 0.4790491718,
				"y": 0.2071987399,
				"z": 0.8556354711,
				"element": "C" 
			},
			{
				"x": 1.0484072716,
				"y": 1.4439382345,
				"z": 0.1286969377,
				"element": "C" 
			},
			{
				"x": 0.2589828408,
				"y": 0.5259245752,
				"z": 2.3619645317,
				"element": "C" 
			},
			{
				"x": 1.4949983862,
				"y": 0.913063481,
				"z": 3.1862821329,
				"element": "C" 
			},
			{
				"x": 1.4680559405,
				"y": -0.9870400939,
				"z": 0.7349458304,
				"element": "C" 
			},
			{
				"x": 1.7890096462,
				"y": -1.4934498499,
				"z": -0.678431312,
				"element": "C" 
			},
			{
				"x": -2.3219863879,
				"y": 1.061430248,
				"z": 1.3057650261,
				"element": "H" 
			},
			{
				"x": -2.9057777759,
				"y": 0.4326984425,
				"z": -0.2327798326,
				"element": "H" 
			},
			{
				"x": -1.749479806,
				"y": 1.7631369966,
				"z": -0.2125681833,
				"element": "H" 
			},
			{
				"x": -1.2195511853,
				"y": -1.1297303308,
				"z": 0.7135256681,
				"element": "H" 
			},
			{
				"x": -0.7137104222,
				"y": -0.462084896,
				"z": -0.8260229632,
				"element": "H" 
			},
			{
				"x": 0.4504493233,
				"y": 2.3386315683,
				"z": 0.3310634749,
				"element": "H" 
			},
			{
				"x": 1.0639677819,
				"y": 1.2993955949,
				"z": -0.9565849938,
				"element": "H" 
			},
			{
				"x": 2.0746748052,
				"y": 1.657874487,
				"z": 0.4449396013,
				"element": "H" 
			},
			{
				"x": -0.4665972886,
				"y": 1.3440950236,
				"z": 2.4403894303,
				"element": "H" 
			},
			{
				"x": -0.218259757,
				"y": -0.3464989218,
				"z": 2.8304715668,
				"element": "H" 
			},
			{
				"x": 1.999949446,
				"y": 1.7944379057,
				"z": 2.7777795596,
				"element": "H" 
			},
			{
				"x": 2.2298543217,
				"y": 0.1044491918,
				"z": 3.2432984363,
				"element": "H" 
			},
			{
				"x": 1.200782563,
				"y": 1.155064662,
				"z": 4.2131255628,
				"element": "H" 
			},
			{
				"x": 2.4132034628,
				"y": -0.7037121115,
				"z": 1.2128867025,
				"element": "H" 
			},
			{
				"x": 1.0693447186,
				"y": -1.8230619204,
				"z": 1.3269565998,
				"element": "H" 
			},
			{
				"x": 0.9075911595,
				"y": -1.8908350231,
				"z": -1.1906454035,
				"element": "H" 
			},
			{
				"x": 2.2141855811,
				"y": -0.7058320851,
				"z": -1.3089869381,
				"element": "H" 
			},
			{
				"x": 2.5259274915,
				"y": -2.302192716,
				"z": -0.6291979613,
				"element": "H" 
			}
		],
		 "valence_orbital": [ 
			{
				"type": "occ",
				"energy": -0.3285,
				"method": "rhf"
			},
			{
				"type": "occ",
				"energy": -0.32849,
				"method": "rhf"
			},
			{
				"type": "occ",
				"energy": -0.30253,
				"method": "rhf"
			},
			{
				"type": "occ",
				"energy": -0.29347,
				"method": "rhf"
			},
			{
				"type": "occ",
				"energy": -0.29345,
				"method": "rhf"
			},
			{
				"type": "unocc",
				"energy": 0.08154,
				"method": "rhf"
			},
			{
				"type": "unocc",
				"energy": 0.1111,
				"method": "rhf"
			},
			{
				"type": "unocc",
				"energy": 0.11112,
				"method": "rhf"
			},
			{
				"type": "unocc",
				"energy": 0.12098,
				"method": "rhf"
			},
			{
				"type": "unocc",
				"energy": 0.14598,
				"method": "rhf"
			}
		],
		"cosmo_sigma_profile": { 
			"-0.025": 0.0,
			"-0.024": 0.0,
			"-0.023": 0.0,
			"-0.022": 0.0,
			"-0.021": 0.0,
			"-0.02": 0.0,
			"-0.019": 0.0,
			"-0.018": 0.0,
			"-0.017": 0.0,
			"-0.016": 0.0,
			"-0.015": 0.0,
			"-0.014": 0.0,
			"-0.013": 0.0,
			"-0.012": 0.0,
			"-0.011": 0.0,
			"-0.01": 0.0,
			"-0.009": 0.0,
			"-0.008": 0.0,
			"-0.007": 0.0,
			"-0.006": 0.0,
			"-0.005": 0.0,
			"-0.004": 0.0,
			"-0.003": 3.28555219597,
			"-0.002": 27.8090928514,
			"-0.001": 40.5124211965,
			"0.0": 44.2818212785,
			"0.001": 46.6567687165,
			"0.002": 26.1884773121,
			"0.003": 2.25493186108,
			"0.004": 0.0,
			"0.005": 0.0,
			"0.006": 0.0,
			"0.007": 0.0,
			"0.008": 0.0,
			"0.009": 0.0,
			"0.01": 0.0,
			"0.011": 0.0,
			"0.012": 0.0,
			"0.013": 0.0,
			"0.014": 0.0,
			"0.015": 0.0,
			"0.016": 0.0,
			"0.017": 0.0,
			"0.018": 0.0,
			"0.019": 0.0,
			"0.02": 0.0,
			"0.021": 0.0,
			"0.022": 0.0,
			"0.023": 0.0,
			"0.024": 0.0,
			"0.025": 0.0
		}
	}
}
