{
	 "smiles": "BrC1=C(Br)C(Br)=NN1", 
	 "Tm": 464.15, 
	 "num_atms": 9, 
	 "gaussian": { 
		 "optdone": 1, 
		 "sigma_profile": "yes", 
		 "theory": "DFT", 
		 "functional": "B3LYP", 
		 "basiset": "6-31G**", 
		 "properties": { 
			 "R2extent": 3734.4685, 
			 "electric_dipole_moment_norm": 2.62136874552, 
			 "electric_quadrupole_moment_norm": 5.51635177631, 
			 "total_energy": -7938.59066777, 
			 "HOMO_LUMO_gap": 0.21972, 
			 "cosmo_polarized_energy": -8.33, 
			 "cosmo_cavitation_energy": 20.98, 
			 "cosmo_dispersion_energy": -16.91, 
			 "cosmo_repulsion_energy": 1.42, 
			 "cosmo_total_nonelectrostatic_energy": 5.49, 
			 "SMD_solvation_energy": -0.6 
		},
		"coords": [
			{
				"x": -1.5846480308,
				"y": 0.9396893451,
				"z": -2.0945712748,
				"element": "Br" 
			},
			{
				"x": -0.4495795837,
				"y": 0.2805264124,
				"z": -0.7671482368,
				"element": "C" 
			},
			{
				"x": 0.8320932599,
				"y": 0.6535206638,
				"z": -0.4011805188,
				"element": "C" 
			},
			{
				"x": 1.8841222035,
				"y": 1.9990032159,
				"z": -1.1558331882,
				"element": "Br" 
			},
			{
				"x": 1.1470960813,
				"y": -0.2201079963,
				"z": 0.6684029571,
				"element": "C" 
			},
			{
				"x": 2.7473569207,
				"y": -0.2675403926,
				"z": 1.6469925964,
				"element": "Br" 
			},
			{
				"x": 0.1581560717,
				"y": -1.058426589,
				"z": 0.944266515,
				"element": "N" 
			},
			{
				"x": -0.8072882998,
				"y": -0.7354621255,
				"z": 0.0556335393,
				"element": "N" 
			},
			{
				"x": -1.6810086229,
				"y": -1.2400025338,
				"z": 0.0598376107,
				"element": "H" 
			}
		],
		 "valence_orbital": [ 
			{
				"type": "occ",
				"energy": -0.31735,
				"method": "rhf"
			},
			{
				"type": "occ",
				"energy": -0.30274,
				"method": "rhf"
			},
			{
				"type": "occ",
				"energy": -0.29408,
				"method": "rhf"
			},
			{
				"type": "occ",
				"energy": -0.25883,
				"method": "rhf"
			},
			{
				"type": "occ",
				"energy": -0.25147,
				"method": "rhf"
			},
			{
				"type": "unocc",
				"energy": -0.03175,
				"method": "rhf"
			},
			{
				"type": "unocc",
				"energy": -0.01652,
				"method": "rhf"
			},
			{
				"type": "unocc",
				"energy": 0.01003,
				"method": "rhf"
			},
			{
				"type": "unocc",
				"energy": 0.02275,
				"method": "rhf"
			},
			{
				"type": "unocc",
				"energy": 0.03169,
				"method": "rhf"
			}
		],
		"cosmo_sigma_profile": { 
			"-0.025": 0.0,
			"-0.024": 0.0,
			"-0.023": 0.0,
			"-0.022": 0.0,
			"-0.021": 0.0,
			"-0.02": 0.0,
			"-0.019": 0.189618858204,
			"-0.018": 1.40110765647,
			"-0.017": 1.37697973131,
			"-0.016": 1.08847050256,
			"-0.015": 1.13481369015,
			"-0.014": 0.527264868915,
			"-0.013": 1.62805063655,
			"-0.012": 0.778762289267,
			"-0.011": 0.662079536594,
			"-0.01": 1.03093647998,
			"-0.009": 0.928251861472,
			"-0.008": 1.48272150515,
			"-0.007": 2.36596884458,
			"-0.006": 4.12970407429,
			"-0.005": 5.05562872819,
			"-0.004": 5.8510003422,
			"-0.003": 6.30830793666,
			"-0.002": 9.77148405526,
			"-0.001": 17.3890756133,
			"0.0": 19.1456297156,
			"0.001": 19.2451425276,
			"0.002": 24.1502445263,
			"0.003": 27.5119496054,
			"0.004": 14.2622254697,
			"0.005": 2.9062273948,
			"0.006": 1.43118563814,
			"0.007": 0.893119143158,
			"0.008": 1.5096852873,
			"0.009": 1.33743004343,
			"0.01": 1.07423413226,
			"0.011": 1.09813703495,
			"0.012": 0.93963597458,
			"0.013": 0.798569217665,
			"0.014": 0.0612497571055,
			"0.015": 0.0,
			"0.016": 0.0,
			"0.017": 0.0,
			"0.018": 0.0,
			"0.019": 0.0,
			"0.02": 0.0,
			"0.021": 0.0,
			"0.022": 0.0,
			"0.023": 0.0,
			"0.024": 0.0,
			"0.025": 0.0
		}
	}
}
