{
	 "smiles": "OP(O)(=O)CCCl", 
	 "Tm": 345.35, 
	 "num_atms": 13, 
	 "gaussian": { 
		 "optdone": 1, 
		 "sigma_profile": "yes", 
		 "theory": "DFT", 
		 "functional": "B3LYP", 
		 "basiset": "6-31G**", 
		 "properties": { 
			 "R2extent": 2191.823, 
			 "electric_dipole_moment_norm": 2.45571739009, 
			 "electric_quadrupole_moment_norm": 8.35710397805, 
			 "total_energy": -1107.12387473, 
			 "HOMO_LUMO_gap": 0.30354, 
			 "cosmo_polarized_energy": -16.59, 
			 "cosmo_cavitation_energy": 20.44, 
			 "cosmo_dispersion_energy": -15.53, 
			 "cosmo_repulsion_energy": 1.32, 
			 "cosmo_total_nonelectrostatic_energy": 6.24, 
			 "SMD_solvation_energy": 5.59 
		},
		"coords": [
			{
				"x": 1.0229444895,
				"y": -1.5258556903,
				"z": -2.0814401652,
				"element": "O" 
			},
			{
				"x": 0.3658921129,
				"y": -0.7591759635,
				"z": -0.8107681028,
				"element": "P" 
			},
			{
				"x": 1.5935048304,
				"y": 0.0887929124,
				"z": -0.1636958849,
				"element": "O" 
			},
			{
				"x": -0.333059098,
				"y": -1.6325137778,
				"z": 0.1673551266,
				"element": "O" 
			},
			{
				"x": -0.6050611844,
				"y": 0.5192411271,
				"z": -1.6613150397,
				"element": "C" 
			},
			{
				"x": -1.7780952002,
				"y": -0.0769223858,
				"z": -2.4304355376,
				"element": "C" 
			},
			{
				"x": -2.7666877479,
				"y": 1.2268821956,
				"z": -3.2177117475,
				"element": "Cl" 
			},
			{
				"x": 1.3278466644,
				"y": -2.4115864574,
				"z": -1.8357641883,
				"element": "H" 
			},
			{
				"x": 1.671678518,
				"y": -0.123424839,
				"z": 0.7778829099,
				"element": "H" 
			},
			{
				"x": -0.9596648527,
				"y": 1.2129684082,
				"z": -0.8932269566,
				"element": "H" 
			},
			{
				"x": 0.0624455262,
				"y": 1.0735182408,
				"z": -2.3278978835,
				"element": "H" 
			},
			{
				"x": -2.4504449108,
				"y": -0.6249251844,
				"z": -1.7699856156,
				"element": "H" 
			},
			{
				"x": -1.4385991475,
				"y": -0.735998586,
				"z": -3.2292969148,
				"element": "H" 
			}
		],
		 "valence_orbital": [ 
			{
				"type": "occ",
				"energy": -0.34824,
				"method": "rhf"
			},
			{
				"type": "occ",
				"energy": -0.30777,
				"method": "rhf"
			},
			{
				"type": "occ",
				"energy": -0.30169,
				"method": "rhf"
			},
			{
				"type": "occ",
				"energy": -0.29948,
				"method": "rhf"
			},
			{
				"type": "occ",
				"energy": -0.29508,
				"method": "rhf"
			},
			{
				"type": "unocc",
				"energy": 0.00846,
				"method": "rhf"
			},
			{
				"type": "unocc",
				"energy": 0.03456,
				"method": "rhf"
			},
			{
				"type": "unocc",
				"energy": 0.0687,
				"method": "rhf"
			},
			{
				"type": "unocc",
				"energy": 0.08555,
				"method": "rhf"
			},
			{
				"type": "unocc",
				"energy": 0.11597,
				"method": "rhf"
			}
		],
		"cosmo_sigma_profile": { 
			"-0.025": 0.0,
			"-0.024": 0.0,
			"-0.023": 0.0,
			"-0.022": 0.0,
			"-0.021": 0.0,
			"-0.02": 0.0316983641611,
			"-0.019": 1.38956960147,
			"-0.018": 1.844032878,
			"-0.017": 2.11339390566,
			"-0.016": 1.71995049499,
			"-0.015": 1.19245158441,
			"-0.014": 1.58238778538,
			"-0.013": 1.07988871668,
			"-0.012": 1.48981037683,
			"-0.011": 1.44355939514,
			"-0.01": 1.65400829274,
			"-0.009": 1.64117720016,
			"-0.008": 4.14449626082,
			"-0.007": 9.47130239569,
			"-0.006": 8.75223818917,
			"-0.005": 9.92018994715,
			"-0.004": 7.44605990032,
			"-0.003": 6.86025211924,
			"-0.002": 5.80298496279,
			"-0.001": 6.3915598181,
			"0.0": 6.55621221092,
			"0.001": 6.72319812903,
			"0.002": 5.96267228851,
			"0.003": 5.86473983647,
			"0.004": 7.22949907611,
			"0.005": 9.29719714063,
			"0.006": 12.3568432139,
			"0.007": 5.72424235639,
			"0.008": 2.90404657234,
			"0.009": 3.86038963336,
			"0.01": 3.38997182738,
			"0.011": 1.80098152763,
			"0.012": 1.37004618887,
			"0.013": 1.456480987,
			"0.014": 5.46296973241,
			"0.015": 4.04238404213,
			"0.016": 0.0,
			"0.017": 0.0,
			"0.018": 0.0,
			"0.019": 0.0,
			"0.02": 0.0,
			"0.021": 0.0,
			"0.022": 0.0,
			"0.023": 0.0,
			"0.024": 0.0,
			"0.025": 0.0
		}
	}
}
