{
	 "smiles": "ClC1=C(COC2=C(C=CC=C2)C(NC(=O)C2=CC=CC=C2)NC(=O)C2=CC=CC=C2)C=CC=C1", 
	 "Tm": 515.15, 
	 "num_atms": 57, 
	 "gaussian": { 
		 "optdone": 1, 
		 "sigma_profile": "yes", 
		 "theory": "DFT", 
		 "functional": "B3LYP", 
		 "basiset": "6-31G**", 
		 "properties": { 
			 "R2extent": 14086.7466, 
			 "electric_dipole_moment_norm": 6.48784436389, 
			 "electric_quadrupole_moment_norm": 25.5672405418, 
			 "total_energy": -1876.22280076, 
			 "HOMO_LUMO_gap": 0.1906, 
			 "cosmo_polarized_energy": -23.87, 
			 "cosmo_cavitation_energy": 62.63, 
			 "cosmo_dispersion_energy": -37.26, 
			 "cosmo_repulsion_energy": 2.77, 
			 "cosmo_total_nonelectrostatic_energy": 28.13, 
			 "SMD_solvation_energy": 10.79 
		},
		"coords": [
			{
				"x": -0.9481623508,
				"y": -2.6186730208,
				"z": 0.2952617636,
				"element": "Cl" 
			},
			{
				"x": -1.3892039327,
				"y": -3.0619417608,
				"z": -1.348343177,
				"element": "C" 
			},
			{
				"x": -2.271051996,
				"y": -2.258016953,
				"z": -2.0885823892,
				"element": "C" 
			},
			{
				"x": -2.8696962029,
				"y": -0.9843973142,
				"z": -1.5279284725,
				"element": "C" 
			},
			{
				"x": -1.9106859133,
				"y": 0.0343433107,
				"z": -1.2241978795,
				"element": "O" 
			},
			{
				"x": -1.4513181386,
				"y": 0.8851777961,
				"z": -2.1910269859,
				"element": "C" 
			},
			{
				"x": -0.6292286393,
				"y": 1.9331615688,
				"z": -1.7172353403,
				"element": "C" 
			},
			{
				"x": -0.1364766848,
				"y": 2.8668062781,
				"z": -2.6286719533,
				"element": "C" 
			},
			{
				"x": -0.4401538649,
				"y": 2.7786861925,
				"z": -3.9903933903,
				"element": "C" 
			},
			{
				"x": -1.2417530762,
				"y": 1.7363849983,
				"z": -4.444672542,
				"element": "C" 
			},
			{
				"x": -1.7463705783,
				"y": 0.7854772272,
				"z": -3.5528878852,
				"element": "C" 
			},
			{
				"x": -0.3625813348,
				"y": 2.0257542161,
				"z": -0.2152877698,
				"element": "C" 
			},
			{
				"x": -1.5474420743,
				"y": 2.5765639854,
				"z": 0.4455081325,
				"element": "N" 
			},
			{
				"x": -2.3194676967,
				"y": 1.9504529843,
				"z": 1.4150509391,
				"element": "C" 
			},
			{
				"x": -3.5235788387,
				"y": 2.1717102177,
				"z": 1.473058479,
				"element": "O" 
			},
			{
				"x": -1.6457479545,
				"y": 1.0568777361,
				"z": 2.4132805234,
				"element": "C" 
			},
			{
				"x": -0.3396546504,
				"y": 1.2717730999,
				"z": 2.8762328465,
				"element": "C" 
			},
			{
				"x": 0.198073234,
				"y": 0.4441431691,
				"z": 3.8644385932,
				"element": "C" 
			},
			{
				"x": -0.5590550751,
				"y": -0.604079846,
				"z": 4.3904277884,
				"element": "C" 
			},
			{
				"x": -1.8659510285,
				"y": -0.8140679434,
				"z": 3.9404693253,
				"element": "C" 
			},
			{
				"x": -2.410512905,
				"y": 0.0203022439,
				"z": 2.9675122935,
				"element": "C" 
			},
			{
				"x": 0.791958615,
				"y": 2.8706421533,
				"z": 0.1359059232,
				"element": "N" 
			},
			{
				"x": 2.101022965,
				"y": 2.7382577431,
				"z": -0.300383397,
				"element": "C" 
			},
			{
				"x": 2.8018752838,
				"y": 3.7355806097,
				"z": -0.4451419747,
				"element": "O" 
			},
			{
				"x": 2.6504774596,
				"y": 1.3658201494,
				"z": -0.5546266935,
				"element": "C" 
			},
			{
				"x": 2.3194192171,
				"y": 0.2460974528,
				"z": 0.2205958059,
				"element": "C" 
			},
			{
				"x": 2.9214603876,
				"y": -0.9868519753,
				"z": -0.0350242217,
				"element": "C" 
			},
			{
				"x": 3.8516444655,
				"y": -1.1121232245,
				"z": -1.0677913196,
				"element": "C" 
			},
			{
				"x": 4.1964223253,
				"y": 0.0045754753,
				"z": -1.8344696899,
				"element": "C" 
			},
			{
				"x": 3.6089659055,
				"y": 1.238953869,
				"z": -1.5706513552,
				"element": "C" 
			},
			{
				"x": -2.6293188649,
				"y": -2.7067658976,
				"z": -3.3668558741,
				"element": "C" 
			},
			{
				"x": -2.1190728917,
				"y": -3.8889396072,
				"z": -3.9014044518,
				"element": "C" 
			},
			{
				"x": -1.2262843147,
				"y": -4.6539219527,
				"z": -3.1519549989,
				"element": "C" 
			},
			{
				"x": -0.8627087483,
				"y": -4.2432954548,
				"z": -1.8695635881,
				"element": "C" 
			},
			{
				"x": -3.6329486161,
				"y": -0.5949491505,
				"z": -2.2105405807,
				"element": "H" 
			},
			{
				"x": -3.347607934,
				"y": -1.1859788645,
				"z": -0.5658867625,
				"element": "H" 
			},
			{
				"x": 0.5037142921,
				"y": 3.6682199653,
				"z": -2.2741927479,
				"element": "H" 
			},
			{
				"x": -0.0451762704,
				"y": 3.5142543945,
				"z": -4.6836740201,
				"element": "H" 
			},
			{
				"x": -1.4777475941,
				"y": 1.6474028986,
				"z": -5.5011917239,
				"element": "H" 
			},
			{
				"x": -2.3488326881,
				"y": -0.0301846853,
				"z": -3.9291133408,
				"element": "H" 
			},
			{
				"x": -0.1994757078,
				"y": 1.0193462935,
				"z": 0.1665820828,
				"element": "H" 
			},
			{
				"x": -2.1422374359,
				"y": 3.1295503898,
				"z": -0.1620209623,
				"element": "H" 
			},
			{
				"x": 0.2478425027,
				"y": 2.092664794,
				"z": 2.4776565402,
				"element": "H" 
			},
			{
				"x": 1.2058135881,
				"y": 0.6246202285,
				"z": 4.2274387322,
				"element": "H" 
			},
			{
				"x": -0.1368554531,
				"y": -1.2491756305,
				"z": 5.155779915,
				"element": "H" 
			},
			{
				"x": -2.4613123795,
				"y": -1.6221691213,
				"z": 4.3554054961,
				"element": "H" 
			},
			{
				"x": -3.4326578932,
				"y": -0.1077918831,
				"z": 2.6274999509,
				"element": "H" 
			},
			{
				"x": 0.5525173677,
				"y": 3.8479889799,
				"z": 0.2643603729,
				"element": "H" 
			},
			{
				"x": 1.6207262701,
				"y": 0.3366658902,
				"z": 1.0456606513,
				"element": "H" 
			},
			{
				"x": 2.6628649346,
				"y": -1.846802988,
				"z": 0.5754389709,
				"element": "H" 
			},
			{
				"x": 4.3136042229,
				"y": -2.0744499321,
				"z": -1.2697932422,
				"element": "H" 
			},
			{
				"x": 4.9280417879,
				"y": -0.0869087638,
				"z": -2.6320646133,
				"element": "H" 
			},
			{
				"x": 3.8826296584,
				"y": 2.1217165284,
				"z": -2.1386030894,
				"element": "H" 
			},
			{
				"x": -3.332710737,
				"y": -2.1167231478,
				"z": -3.9491324174,
				"element": "H" 
			},
			{
				"x": -2.4160986539,
				"y": -4.207805923,
				"z": -4.8955558183,
				"element": "H" 
			},
			{
				"x": -0.8159516082,
				"y": -5.5743912788,
				"z": -3.5560464445,
				"element": "H" 
			},
			{
				"x": -0.1821837562,
				"y": -4.8354665204,
				"z": -1.267854013,
				"element": "H" 
			}
		],
		 "valence_orbital": [ 
			{
				"type": "occ",
				"energy": -0.25386,
				"method": "rhf"
			},
			{
				"type": "occ",
				"energy": -0.25235,
				"method": "rhf"
			},
			{
				"type": "occ",
				"energy": -0.2446,
				"method": "rhf"
			},
			{
				"type": "occ",
				"energy": -0.23718,
				"method": "rhf"
			},
			{
				"type": "occ",
				"energy": -0.22687,
				"method": "rhf"
			},
			{
				"type": "unocc",
				"energy": -0.03627,
				"method": "rhf"
			},
			{
				"type": "unocc",
				"energy": -0.03323,
				"method": "rhf"
			},
			{
				"type": "unocc",
				"energy": -0.0315,
				"method": "rhf"
			},
			{
				"type": "unocc",
				"energy": -0.02508,
				"method": "rhf"
			},
			{
				"type": "unocc",
				"energy": -0.01323,
				"method": "rhf"
			}
		],
		"cosmo_sigma_profile": { 
			"-0.025": 0.0,
			"-0.024": 0.0,
			"-0.023": 0.0,
			"-0.022": 0.0,
			"-0.021": 0.0,
			"-0.02": 0.0,
			"-0.019": 0.0,
			"-0.018": 0.0,
			"-0.017": 0.0,
			"-0.016": 0.0,
			"-0.015": 0.0,
			"-0.014": 0.0,
			"-0.013": 0.729281614311,
			"-0.012": 1.70180810826,
			"-0.011": 2.16413865237,
			"-0.01": 2.24839624452,
			"-0.009": 3.50229145392,
			"-0.008": 4.67222926446,
			"-0.007": 11.9937530566,
			"-0.006": 29.8759565858,
			"-0.005": 38.2536018654,
			"-0.004": 41.7537395941,
			"-0.003": 32.6298070999,
			"-0.002": 30.5213222253,
			"-0.001": 30.7225695104,
			"0.0": 32.9089336629,
			"0.001": 39.9287505957,
			"0.002": 48.1836499202,
			"0.003": 52.4615085018,
			"0.004": 44.450586289,
			"0.005": 16.8536316507,
			"0.006": 4.39446192494,
			"0.007": 3.57471394808,
			"0.008": 2.23310193776,
			"0.009": 2.5822083806,
			"0.01": 2.72775854851,
			"0.011": 4.33764241023,
			"0.012": 4.47861052104,
			"0.013": 10.6396530243,
			"0.014": 3.41149935802,
			"0.015": 0.0,
			"0.016": 0.0,
			"0.017": 0.0,
			"0.018": 0.0,
			"0.019": 0.0,
			"0.02": 0.0,
			"0.021": 0.0,
			"0.022": 0.0,
			"0.023": 0.0,
			"0.024": 0.0,
			"0.025": 0.0
		}
	}
}
