{
	 "smiles": "ClC1=CC=C(C=C1)C1=CC=C(O1)C=C1C(=O)NC(=S)NC1=O", 
	 "Tm": 553.15, 
	 "num_atms": 31, 
	 "gaussian": { 
		 "optdone": 1, 
		 "sigma_profile": "yes", 
		 "theory": "DFT", 
		 "functional": "B3LYP", 
		 "basiset": "6-31G**", 
		 "properties": { 
			 "R2extent": 13258.0804, 
			 "electric_dipole_moment_norm": 6.24814302413, 
			 "electric_quadrupole_moment_norm": 16.3805550846, 
			 "total_energy": -1770.60106884, 
			 "HOMO_LUMO_gap": 0.11375, 
			 "cosmo_polarized_energy": -19.72, 
			 "cosmo_cavitation_energy": 41.2, 
			 "cosmo_dispersion_energy": -30.41, 
			 "cosmo_repulsion_energy": 2.22, 
			 "cosmo_total_nonelectrostatic_energy": 13.01, 
			 "SMD_solvation_energy": 7.12 
		},
		"coords": [
			{
				"x": -5.1391872735,
				"y": 1.6824517453,
				"z": 4.3866505018,
				"element": "Cl" 
			},
			{
				"x": -3.9656161917,
				"y": 1.4689120638,
				"z": 3.1026658372,
				"element": "C" 
			},
			{
				"x": -2.7762056369,
				"y": 0.7859157573,
				"z": 3.3638692443,
				"element": "C" 
			},
			{
				"x": -1.8460333747,
				"y": 0.6173151125,
				"z": 2.3438026447,
				"element": "C" 
			},
			{
				"x": -2.0995095779,
				"y": 1.1304768905,
				"z": 1.0569399647,
				"element": "C" 
			},
			{
				"x": -3.3046469846,
				"y": 1.8149543837,
				"z": 0.8177977726,
				"element": "C" 
			},
			{
				"x": -4.2374898393,
				"y": 1.986070693,
				"z": 1.8338624599,
				"element": "C" 
			},
			{
				"x": -1.123163685,
				"y": 0.9502284061,
				"z": -0.0031420058,
				"element": "C" 
			},
			{
				"x": -1.0773424098,
				"y": 1.3257136875,
				"z": -1.3395482139,
				"element": "C" 
			},
			{
				"x": 0.1465940116,
				"y": 0.8520864269,
				"z": -1.839064735,
				"element": "C" 
			},
			{
				"x": 0.7997850796,
				"y": 0.2069378523,
				"z": -0.7907905871,
				"element": "C" 
			},
			{
				"x": 0.0041513555,
				"y": 0.2800682486,
				"z": 0.3209879321,
				"element": "O" 
			},
			{
				"x": 2.0607793844,
				"y": -0.4256000396,
				"z": -0.8210996473,
				"element": "C" 
			},
			{
				"x": 2.8472860802,
				"y": -1.0965842395,
				"z": 0.0866864117,
				"element": "C" 
			},
			{
				"x": 4.1341649832,
				"y": -1.5858440321,
				"z": -0.4677118163,
				"element": "C" 
			},
			{
				"x": 4.5040671418,
				"y": -1.4295280066,
				"z": -1.6229313552,
				"element": "O" 
			},
			{
				"x": 4.9606923235,
				"y": -2.2729995653,
				"z": 0.4271625857,
				"element": "N" 
			},
			{
				"x": 4.7178646156,
				"y": -2.5433828106,
				"z": 1.7488734389,
				"element": "C" 
			},
			{
				"x": 5.7892815105,
				"y": -3.37468672,
				"z": 2.7122130388,
				"element": "S" 
			},
			{
				"x": 3.5170325763,
				"y": -2.0693842396,
				"z": 2.2050253221,
				"element": "N" 
			},
			{
				"x": 2.5279279477,
				"y": -1.3559321043,
				"z": 1.5003787416,
				"element": "C" 
			},
			{
				"x": 1.5191473898,
				"y": -1.0222999303,
				"z": 2.1020822084,
				"element": "O" 
			},
			{
				"x": -2.5832497294,
				"y": 0.3917778059,
				"z": 4.3552565117,
				"element": "H" 
			},
			{
				"x": -0.9176687944,
				"y": 0.0883390403,
				"z": 2.5336597982,
				"element": "H" 
			},
			{
				"x": -3.5178489204,
				"y": 2.2175995439,
				"z": -0.1674377352,
				"element": "H" 
			},
			{
				"x": -5.1664429409,
				"y": 2.5136349792,
				"z": 1.6496175754,
				"element": "H" 
			},
			{
				"x": -1.835099445,
				"y": 1.8726695788,
				"z": -1.8803318101,
				"element": "H" 
			},
			{
				"x": 0.5306619658,
				"y": 0.9565038796,
				"z": -2.8443196416,
				"element": "H" 
			},
			{
				"x": 2.522848154,
				"y": -0.3669624607,
				"z": -1.8056231384,
				"element": "H" 
			},
			{
				"x": 5.8389424378,
				"y": -2.6065447795,
				"z": 0.0491769311,
				"element": "H" 
			},
			{
				"x": 3.303077846,
				"y": -2.2505071672,
				"z": 3.178191765,
				"element": "H" 
			}
		],
		 "valence_orbital": [ 
			{
				"type": "occ",
				"energy": -0.27897,
				"method": "rhf"
			},
			{
				"type": "occ",
				"energy": -0.27877,
				"method": "rhf"
			},
			{
				"type": "occ",
				"energy": -0.24508,
				"method": "rhf"
			},
			{
				"type": "occ",
				"energy": -0.22837,
				"method": "rhf"
			},
			{
				"type": "occ",
				"energy": -0.22688,
				"method": "rhf"
			},
			{
				"type": "unocc",
				"energy": -0.11313,
				"method": "rhf"
			},
			{
				"type": "unocc",
				"energy": -0.05333,
				"method": "rhf"
			},
			{
				"type": "unocc",
				"energy": -0.03102,
				"method": "rhf"
			},
			{
				"type": "unocc",
				"energy": -0.0255,
				"method": "rhf"
			},
			{
				"type": "unocc",
				"energy": -0.00441,
				"method": "rhf"
			}
		],
		"cosmo_sigma_profile": { 
			"-0.025": 0.0,
			"-0.024": 0.0,
			"-0.023": 0.0,
			"-0.022": 0.0,
			"-0.021": 0.0,
			"-0.02": 0.0,
			"-0.019": 0.0,
			"-0.018": 0.0,
			"-0.017": 0.0,
			"-0.016": 0.689125197223,
			"-0.015": 1.51334188369,
			"-0.014": 2.110185737,
			"-0.013": 0.68240386959,
			"-0.012": 0.98633773964,
			"-0.011": 1.73424989924,
			"-0.01": 4.09375545176,
			"-0.009": 7.42888701647,
			"-0.008": 10.960315271,
			"-0.007": 12.8686359969,
			"-0.006": 12.7425742215,
			"-0.005": 14.2529584682,
			"-0.004": 13.8198033185,
			"-0.003": 17.9551985537,
			"-0.002": 20.8813780542,
			"-0.001": 32.2235423777,
			"0.0": 29.6262375994,
			"0.001": 28.6509790688,
			"0.002": 29.8056245291,
			"0.003": 14.8725227668,
			"0.004": 17.0683625973,
			"0.005": 9.92063787047,
			"0.006": 7.8611893376,
			"0.007": 8.16565629366,
			"0.008": 9.59824243789,
			"0.009": 10.8752787009,
			"0.01": 7.59364507852,
			"0.011": 4.6000810995,
			"0.012": 4.39413255612,
			"0.013": 0.280252845672,
			"0.014": 0.0,
			"0.015": 0.0,
			"0.016": 0.0,
			"0.017": 0.0,
			"0.018": 0.0,
			"0.019": 0.0,
			"0.02": 0.0,
			"0.021": 0.0,
			"0.022": 0.0,
			"0.023": 0.0,
			"0.024": 0.0,
			"0.025": 0.0
		}
	}
}
