{
	 "smiles": "[O-][N+](=O)C1=CC=C(F)C2=NON=C12", 
	 "Tm": 325.15, 
	 "num_atms": 15, 
	 "gaussian": { 
		 "optdone": 1, 
		 "sigma_profile": "yes", 
		 "theory": "DFT", 
		 "functional": "B3LYP", 
		 "basiset": "6-31G**", 
		 "properties": { 
			 "R2extent": 3429.7228, 
			 "electric_dipole_moment_norm": 4.72216899105, 
			 "electric_quadrupole_moment_norm": 15.8947434349, 
			 "total_energy": -719.384345519, 
			 "HOMO_LUMO_gap": 0.14942, 
			 "cosmo_polarized_energy": -12.57, 
			 "cosmo_cavitation_energy": 22.0, 
			 "cosmo_dispersion_energy": -16.34, 
			 "cosmo_repulsion_energy": 1.24, 
			 "cosmo_total_nonelectrostatic_energy": 6.9, 
			 "SMD_solvation_energy": 6.09 
		},
		"coords": [
			{
				"x": 2.1102291013,
				"y": -3.6885917802,
				"z": -1.3203814822,
				"element": "O" 
			},
			{
				"x": 1.4557032916,
				"y": -2.9636933015,
				"z": -2.0636286191,
				"element": "N" 
			},
			{
				"x": 1.6209945421,
				"y": -2.8468532297,
				"z": -3.2786183833,
				"element": "O" 
			},
			{
				"x": 0.3906139986,
				"y": -2.1738261776,
				"z": -1.4477726058,
				"element": "C" 
			},
			{
				"x": -0.3736793147,
				"y": -1.3447476793,
				"z": -2.2272660736,
				"element": "C" 
			},
			{
				"x": -1.4285223546,
				"y": -0.5463669248,
				"z": -1.6910062193,
				"element": "C" 
			},
			{
				"x": -1.714035229,
				"y": -0.5856782826,
				"z": -0.3555198374,
				"element": "C" 
			},
			{
				"x": -2.6895128721,
				"y": 0.1449676869,
				"z": 0.1763521144,
				"element": "F" 
			},
			{
				"x": -0.9434542388,
				"y": -1.4349389794,
				"z": 0.4922757998,
				"element": "C" 
			},
			{
				"x": -1.0319118377,
				"y": -1.6382247209,
				"z": 1.7940946185,
				"element": "N" 
			},
			{
				"x": -0.0531683538,
				"y": -2.5423705139,
				"z": 2.05641334,
				"element": "O" 
			},
			{
				"x": 0.6615888951,
				"y": -2.9240235963,
				"z": 0.952929333,
				"element": "N" 
			},
			{
				"x": 0.1199074489,
				"y": -2.2407221561,
				"z": -0.0437791482,
				"element": "C" 
			},
			{
				"x": -0.1555104752,
				"y": -1.3060372976,
				"z": -3.2879264669,
				"element": "H" 
			},
			{
				"x": -2.0091426017,
				"y": 0.096106953,
				"z": -2.3425663698,
				"element": "H" 
			}
		],
		 "valence_orbital": [ 
			{
				"type": "occ",
				"energy": -0.33312,
				"method": "rhf"
			},
			{
				"type": "occ",
				"energy": -0.32138,
				"method": "rhf"
			},
			{
				"type": "occ",
				"energy": -0.32109,
				"method": "rhf"
			},
			{
				"type": "occ",
				"energy": -0.30461,
				"method": "rhf"
			},
			{
				"type": "occ",
				"energy": -0.28225,
				"method": "rhf"
			},
			{
				"type": "unocc",
				"energy": -0.13283,
				"method": "rhf"
			},
			{
				"type": "unocc",
				"energy": -0.08099,
				"method": "rhf"
			},
			{
				"type": "unocc",
				"energy": -0.03262,
				"method": "rhf"
			},
			{
				"type": "unocc",
				"energy": -0.00216,
				"method": "rhf"
			},
			{
				"type": "unocc",
				"energy": 0.05628,
				"method": "rhf"
			}
		],
		"cosmo_sigma_profile": { 
			"-0.025": 0.0,
			"-0.024": 0.0,
			"-0.023": 0.0,
			"-0.022": 0.0,
			"-0.021": 0.0,
			"-0.02": 0.0,
			"-0.019": 0.0,
			"-0.018": 0.0,
			"-0.017": 0.0,
			"-0.016": 0.0,
			"-0.015": 0.0,
			"-0.014": 0.0,
			"-0.013": 0.0,
			"-0.012": 0.0,
			"-0.011": 0.499080558645,
			"-0.01": 4.53727440558,
			"-0.009": 3.78291943121,
			"-0.008": 4.43866180934,
			"-0.007": 8.18642822788,
			"-0.006": 11.1256428533,
			"-0.005": 13.5207234494,
			"-0.004": 12.5106740398,
			"-0.003": 13.9079148243,
			"-0.002": 8.68597926879,
			"-0.001": 6.58317832137,
			"0.0": 6.49159988671,
			"0.001": 9.88560096718,
			"0.002": 13.3946073069,
			"0.003": 9.45094533768,
			"0.004": 8.66952236205,
			"0.005": 6.2006709204,
			"0.006": 5.50812803391,
			"0.007": 11.4231211334,
			"0.008": 9.19928519252,
			"0.009": 6.40805943652,
			"0.01": 2.61203811352,
			"0.011": 1.80819008425,
			"0.012": 0.517523188298,
			"0.013": 0.0,
			"0.014": 0.0,
			"0.015": 0.0,
			"0.016": 0.0,
			"0.017": 0.0,
			"0.018": 0.0,
			"0.019": 0.0,
			"0.02": 0.0,
			"0.021": 0.0,
			"0.022": 0.0,
			"0.023": 0.0,
			"0.024": 0.0,
			"0.025": 0.0
		}
	}
}
