{
	 "smiles": "CN1C(C=O)=NC2=C1C(=O)NC(=O)N2C", 
	 "Tm": 558.15, 
	 "num_atms": 23, 
	 "gaussian": { 
		 "optdone": 1, 
		 "sigma_profile": "yes", 
		 "theory": "DFT", 
		 "functional": "B3LYP", 
		 "basiset": "6-31G**", 
		 "properties": { 
			 "R2extent": 3209.348, 
			 "electric_dipole_moment_norm": 1.24896223322, 
			 "electric_quadrupole_moment_norm": 13.5051949012, 
			 "total_energy": -754.389472477, 
			 "HOMO_LUMO_gap": 0.14521, 
			 "cosmo_polarized_energy": -14.97, 
			 "cosmo_cavitation_energy": 27.87, 
			 "cosmo_dispersion_energy": -20.53, 
			 "cosmo_repulsion_energy": 1.57, 
			 "cosmo_total_nonelectrostatic_energy": 8.91, 
			 "SMD_solvation_energy": 5.91 
		},
		"coords": [
			{
				"x": 2.5793377856,
				"y": 0.1114830568,
				"z": 1.0248292496,
				"element": "C" 
			},
			{
				"x": 1.1262739292,
				"y": 0.2158723422,
				"z": 0.8387917254,
				"element": "N" 
			},
			{
				"x": 0.1410694162,
				"y": 0.1333733379,
				"z": 1.784584302,
				"element": "C" 
			},
			{
				"x": 0.3736917235,
				"y": -0.0837344095,
				"z": 3.2146983528,
				"element": "C" 
			},
			{
				"x": 1.4745448626,
				"y": -0.2163219247,
				"z": 3.7224034262,
				"element": "O" 
			},
			{
				"x": -1.0913147556,
				"y": 0.2733178649,
				"z": 1.2672232039,
				"element": "N" 
			},
			{
				"x": -0.8786869385,
				"y": 0.4504412691,
				"z": -0.0507535295,
				"element": "C" 
			},
			{
				"x": 0.4806793244,
				"y": 0.4213097752,
				"z": -0.3558140018,
				"element": "C" 
			},
			{
				"x": 0.9761656929,
				"y": 0.5874746608,
				"z": -1.703471774,
				"element": "C" 
			},
			{
				"x": 2.1378072963,
				"y": 0.5806383913,
				"z": -2.0901464637,
				"element": "O" 
			},
			{
				"x": -0.0999107873,
				"y": 0.7710014004,
				"z": -2.5854238008,
				"element": "N" 
			},
			{
				"x": -1.4816874699,
				"y": 0.8101381152,
				"z": -2.3415422657,
				"element": "C" 
			},
			{
				"x": -2.2775917753,
				"y": 0.9825842668,
				"z": -3.2486014669,
				"element": "O" 
			},
			{
				"x": -1.8514724122,
				"y": 0.6394827113,
				"z": -1.0089279469,
				"element": "N" 
			},
			{
				"x": -3.2656318488,
				"y": 0.6618282474,
				"z": -0.6360534751,
				"element": "C" 
			},
			{
				"x": 2.8266043582,
				"y": -0.8583786389,
				"z": 1.4582651611,
				"element": "H" 
			},
			{
				"x": 2.9202145184,
				"y": 0.8902845923,
				"z": 1.7081397751,
				"element": "H" 
			},
			{
				"x": 3.0410561005,
				"y": 0.226694384,
				"z": 0.045611952,
				"element": "H" 
			},
			{
				"x": -0.5641748278,
				"y": -0.1184055498,
				"z": 3.8012880192,
				"element": "H" 
			},
			{
				"x": 0.145186253,
				"y": 0.8973061247,
				"z": -3.5601560796,
				"element": "H" 
			},
			{
				"x": -3.5460860885,
				"y": -0.2877961441,
				"z": -0.1735589014,
				"element": "H" 
			},
			{
				"x": -3.838586152,
				"y": 0.8221911705,
				"z": -1.5469312405,
				"element": "H" 
			},
			{
				"x": -3.452388205,
				"y": 1.4689149562,
				"z": 0.0767457786,
				"element": "H" 
			}
		],
		 "valence_orbital": [ 
			{
				"type": "occ",
				"energy": -0.29868,
				"method": "rhf"
			},
			{
				"type": "occ",
				"energy": -0.29494,
				"method": "rhf"
			},
			{
				"type": "occ",
				"energy": -0.28192,
				"method": "rhf"
			},
			{
				"type": "occ",
				"energy": -0.27353,
				"method": "rhf"
			},
			{
				"type": "occ",
				"energy": -0.23707,
				"method": "rhf"
			},
			{
				"type": "unocc",
				"energy": -0.09186,
				"method": "rhf"
			},
			{
				"type": "unocc",
				"energy": -0.01671,
				"method": "rhf"
			},
			{
				"type": "unocc",
				"energy": 0.01038,
				"method": "rhf"
			},
			{
				"type": "unocc",
				"energy": 0.05887,
				"method": "rhf"
			},
			{
				"type": "unocc",
				"energy": 0.08407,
				"method": "rhf"
			}
		],
		"cosmo_sigma_profile": { 
			"-0.025": 0.0,
			"-0.024": 0.0,
			"-0.023": 0.0,
			"-0.022": 0.0,
			"-0.021": 0.0,
			"-0.02": 0.0,
			"-0.019": 0.0,
			"-0.018": 0.0,
			"-0.017": 0.0,
			"-0.016": 0.679180229146,
			"-0.015": 0.944414971343,
			"-0.014": 0.65619671986,
			"-0.013": 0.770679396264,
			"-0.012": 0.88919835638,
			"-0.011": 0.806527323473,
			"-0.01": 0.708040135735,
			"-0.009": 0.524850409676,
			"-0.008": 1.94223502521,
			"-0.007": 6.78050382008,
			"-0.006": 13.7085875668,
			"-0.005": 20.2872233964,
			"-0.004": 28.0084440331,
			"-0.003": 30.8835250223,
			"-0.002": 17.1617156507,
			"-0.001": 11.4651713036,
			"0.0": 7.60069256389,
			"0.001": 6.53524317865,
			"0.002": 6.07318977951,
			"0.003": 5.86642087381,
			"0.004": 5.36575784744,
			"0.005": 6.10479124507,
			"0.006": 4.44506432731,
			"0.007": 5.04478500131,
			"0.008": 5.20559546714,
			"0.009": 6.16594969302,
			"0.01": 6.90011565543,
			"0.011": 8.55687657955,
			"0.012": 10.2729468099,
			"0.013": 2.95597067786,
			"0.014": 0.039179494115,
			"0.015": 0.0,
			"0.016": 0.0,
			"0.017": 0.0,
			"0.018": 0.0,
			"0.019": 0.0,
			"0.02": 0.0,
			"0.021": 0.0,
			"0.022": 0.0,
			"0.023": 0.0,
			"0.024": 0.0,
			"0.025": 0.0
		}
	}
}
