{
	 "smiles": "CCCCCCCCC=C/CCCCCCCC(=O)O[C@H]1CC[C@]2(C)[C@H]3CC[C@]4(C)[C@H](CC[C@H]4[C@@H]3CC=C2C1)[C@H](C)CCCC(C)C", 
	 "Tm": 318.65, 
	 "num_atms": 125, 
	 "gaussian": { 
		 "optdone": 1, 
		 "sigma_profile": "yes", 
		 "theory": "DFT", 
		 "functional": "B3LYP", 
		 "basiset": "6-31G**", 
		 "properties": { 
			 "R2extent": 91248.6766, 
			 "electric_dipole_moment_norm": 1.4820314774, 
			 "electric_quadrupole_moment_norm": 7.13210842458, 
			 "total_energy": -1912.31911936, 
			 "HOMO_LUMO_gap": 0.2398, 
			 "cosmo_polarized_energy": -8.71, 
			 "cosmo_cavitation_energy": 109.95, 
			 "cosmo_dispersion_energy": -71.89, 
			 "cosmo_repulsion_energy": 5.42, 
			 "cosmo_total_nonelectrostatic_energy": 43.48, 
			 "SMD_solvation_energy": 15.12 
		},
		"coords": [
			{
				"x": 10.0344387506,
				"y": -4.4882429522,
				"z": 1.1904831962,
				"element": "C" 
			},
			{
				"x": 10.953477636,
				"y": -5.6358339529,
				"z": 1.6247195348,
				"element": "C" 
			},
			{
				"x": 10.2600871895,
				"y": -6.8406312811,
				"z": 2.2864830853,
				"element": "C" 
			},
			{
				"x": 9.2704563309,
				"y": -7.6259484011,
				"z": 1.3969394616,
				"element": "C" 
			},
			{
				"x": 7.8054835962,
				"y": -7.1675456083,
				"z": 1.479047717,
				"element": "C" 
			},
			{
				"x": 6.8716839356,
				"y": -7.994512595,
				"z": 0.5840642558,
				"element": "C" 
			},
			{
				"x": 5.4044681819,
				"y": -7.5332571099,
				"z": 0.5810561981,
				"element": "C" 
			},
			{
				"x": 4.6645695187,
				"y": -7.6294568106,
				"z": 1.936797622,
				"element": "C" 
			},
			{
				"x": 4.6101223569,
				"y": -9.0235723486,
				"z": 2.5073514408,
				"element": "C" 
			},
			{
				"x": 3.5529789758,
				"y": -9.8440066844,
				"z": 2.5666877292,
				"element": "C" 
			},
			{
				"x": 2.1445237768,
				"y": -9.5809528192,
				"z": 2.1032390668,
				"element": "C" 
			},
			{
				"x": 1.1211387138,
				"y": -9.6635708602,
				"z": 3.2540921353,
				"element": "C" 
			},
			{
				"x": -0.3474697676,
				"y": -9.5598403308,
				"z": 2.8068273186,
				"element": "C" 
			},
			{
				"x": -0.7583377534,
				"y": -8.2333874578,
				"z": 2.1424426271,
				"element": "C" 
			},
			{
				"x": -0.6477064816,
				"y": -7.0076416984,
				"z": 3.0616189959,
				"element": "C" 
			},
			{
				"x": -1.2078374105,
				"y": -5.7071205957,
				"z": 2.4637439703,
				"element": "C" 
			},
			{
				"x": -0.4165477429,
				"y": -5.1916040432,
				"z": 1.2442852067,
				"element": "C" 
			},
			{
				"x": -0.9643247324,
				"y": -3.8820879726,
				"z": 0.7081953908,
				"element": "C" 
			},
			{
				"x": -1.5050122519,
				"y": -3.7549919302,
				"z": -0.3725272874,
				"element": "O" 
			},
			{
				"x": -0.7771413348,
				"y": -2.8883873696,
				"z": 1.6006571645,
				"element": "O" 
			},
			{
				"x": -1.2681294584,
				"y": -1.5370602141,
				"z": 1.3416228022,
				"element": "C" 
			},
			{
				"x": -0.6333582098,
				"y": -0.8588906876,
				"z": 0.1014124149,
				"element": "C" 
			},
			{
				"x": -1.630826121,
				"y": -0.6446028584,
				"z": -1.0457600882,
				"element": "C" 
			},
			{
				"x": -2.8815489391,
				"y": 0.206603415,
				"z": -0.6392076524,
				"element": "C" 
			},
			{
				"x": -4.0820600545,
				"y": -0.2894389244,
				"z": -1.4852953354,
				"element": "C" 
			},
			{
				"x": -2.6278311943,
				"y": 1.7397665818,
				"z": -0.834684216,
				"element": "C" 
			},
			{
				"x": -2.4329968809,
				"y": 2.1583360147,
				"z": -2.3094052901,
				"element": "C" 
			},
			{
				"x": -2.2031613293,
				"y": 3.6706662549,
				"z": -2.5092412016,
				"element": "C" 
			},
			{
				"x": -3.3393062122,
				"y": 4.5121966367,
				"z": -1.8928579876,
				"element": "C" 
			},
			{
				"x": -4.661780529,
				"y": 4.28797792,
				"z": -2.6602183102,
				"element": "C" 
			},
			{
				"x": -3.0658476942,
				"y": 6.0475993082,
				"z": -1.723340559,
				"element": "C" 
			},
			{
				"x": -3.9935115362,
				"y": 6.4496036482,
				"z": -0.5254383704,
				"element": "C" 
			},
			{
				"x": -4.3638227203,
				"y": 5.1430775722,
				"z": 0.2281445113,
				"element": "C" 
			},
			{
				"x": -3.4384820686,
				"y": 4.0910837581,
				"z": -0.3992332581,
				"element": "C" 
			},
			{
				"x": -3.7262592984,
				"y": 2.6038133554,
				"z": -0.1542474288,
				"element": "C" 
			},
			{
				"x": -3.8207339913,
				"y": 2.3026709549,
				"z": 1.3522052913,
				"element": "C" 
			},
			{
				"x": -3.6018551201,
				"y": 0.857509983,
				"z": 1.6960045627,
				"element": "C" 
			},
			{
				"x": -3.1743963087,
				"y": -0.0760727491,
				"z": 0.8379668668,
				"element": "C" 
			},
			{
				"x": -2.8069564335,
				"y": -1.4657443622,
				"z": 1.30680038,
				"element": "C" 
			},
			{
				"x": -3.2231925958,
				"y": 6.9936100878,
				"z": -2.9417015763,
				"element": "C" 
			},
			{
				"x": -2.3603087796,
				"y": 6.575050723,
				"z": -4.1443588681,
				"element": "C" 
			},
			{
				"x": -2.9045398674,
				"y": 8.4547161682,
				"z": -2.5341501083,
				"element": "C" 
			},
			{
				"x": -3.3466770652,
				"y": 9.5222403295,
				"z": -3.5475089378,
				"element": "C" 
			},
			{
				"x": -2.9691021463,
				"y": 10.9626384715,
				"z": -3.1557467522,
				"element": "C" 
			},
			{
				"x": -3.5954717343,
				"y": 11.5214869745,
				"z": -1.8607481843,
				"element": "C" 
			},
			{
				"x": -3.0388073432,
				"y": 12.9231052251,
				"z": -1.5672816735,
				"element": "C" 
			},
			{
				"x": -5.1302035762,
				"y": 11.5522796313,
				"z": -1.9176561346,
				"element": "C" 
			},
			{
				"x": 9.4289540997,
				"y": -4.1233757217,
				"z": 2.0283643194,
				"element": "H" 
			},
			{
				"x": 9.3493688367,
				"y": -4.7927761562,
				"z": 0.3930170554,
				"element": "H" 
			},
			{
				"x": 10.6190548913,
				"y": -3.642935849,
				"z": 0.8115869826,
				"element": "H" 
			},
			{
				"x": 11.6993586189,
				"y": -5.2428701042,
				"z": 2.3281616819,
				"element": "H" 
			},
			{
				"x": 11.5211459445,
				"y": -5.9908697499,
				"z": 0.7533852789,
				"element": "H" 
			},
			{
				"x": 11.0484188206,
				"y": -7.5253344214,
				"z": 2.6238187899,
				"element": "H" 
			},
			{
				"x": 9.7445051873,
				"y": -6.5088294669,
				"z": 3.1991665712,
				"element": "H" 
			},
			{
				"x": 9.3049328445,
				"y": -8.6869811286,
				"z": 1.6782361001,
				"element": "H" 
			},
			{
				"x": 9.6094729917,
				"y": -7.5874269964,
				"z": 0.3515229692,
				"element": "H" 
			},
			{
				"x": 7.4789976988,
				"y": -7.2345179784,
				"z": 2.5257997966,
				"element": "H" 
			},
			{
				"x": 7.7212310219,
				"y": -6.1083405681,
				"z": 1.2053744973,
				"element": "H" 
			},
			{
				"x": 7.2457664869,
				"y": -7.9531687449,
				"z": -0.4480422281,
				"element": "H" 
			},
			{
				"x": 6.9254775276,
				"y": -9.0513700307,
				"z": 0.8780279754,
				"element": "H" 
			},
			{
				"x": 5.358801115,
				"y": -6.4909052565,
				"z": 0.236289176,
				"element": "H" 
			},
			{
				"x": 4.8503184042,
				"y": -8.1279141414,
				"z": -0.1559286886,
				"element": "H" 
			},
			{
				"x": 5.157709824,
				"y": -6.9692398392,
				"z": 2.663073012,
				"element": "H" 
			},
			{
				"x": 3.6539608339,
				"y": -7.2290241368,
				"z": 1.8041877087,
				"element": "H" 
			},
			{
				"x": 5.5522888587,
				"y": -9.4010482314,
				"z": 2.9049937895,
				"element": "H" 
			},
			{
				"x": 3.7046309303,
				"y": -10.8262373233,
				"z": 3.0176832091,
				"element": "H" 
			},
			{
				"x": 1.8734433367,
				"y": -10.3310469403,
				"z": 1.3443444698,
				"element": "H" 
			},
			{
				"x": 2.0757565047,
				"y": -8.6081952743,
				"z": 1.6064676627,
				"element": "H" 
			},
			{
				"x": 1.2568390273,
				"y": -10.6199022162,
				"z": 3.776559137,
				"element": "H" 
			},
			{
				"x": 1.3515017422,
				"y": -8.886455855,
				"z": 3.9933928844,
				"element": "H" 
			},
			{
				"x": -0.9918038984,
				"y": -9.7293701414,
				"z": 3.6803995455,
				"element": "H" 
			},
			{
				"x": -0.5608495432,
				"y": -10.3814670415,
				"z": 2.1094414544,
				"element": "H" 
			},
			{
				"x": -1.7996638861,
				"y": -8.3249206627,
				"z": 1.8042374299,
				"element": "H" 
			},
			{
				"x": -0.1634611067,
				"y": -8.0777224755,
				"z": 1.2339045323,
				"element": "H" 
			},
			{
				"x": -1.1878739891,
				"y": -7.2183219323,
				"z": 3.9947970284,
				"element": "H" 
			},
			{
				"x": 0.3996521257,
				"y": -6.8443905824,
				"z": 3.349134694,
				"element": "H" 
			},
			{
				"x": -1.2060963844,
				"y": -4.9253137112,
				"z": 3.230666871,
				"element": "H" 
			},
			{
				"x": -2.2556956973,
				"y": -5.8600286994,
				"z": 2.172429282,
				"element": "H" 
			},
			{
				"x": 0.6305209447,
				"y": -5.0381323112,
				"z": 1.5334717629,
				"element": "H" 
			},
			{
				"x": -0.4457346092,
				"y": -5.9066475874,
				"z": 0.4195865897,
				"element": "H" 
			},
			{
				"x": -0.9255375774,
				"y": -1.0179173919,
				"z": 2.239815919,
				"element": "H" 
			},
			{
				"x": -0.2238922199,
				"y": 0.1072743157,
				"z": 0.420477473,
				"element": "H" 
			},
			{
				"x": 0.2186780324,
				"y": -1.4532017715,
				"z": -0.2420200916,
				"element": "H" 
			},
			{
				"x": -1.1173987154,
				"y": -0.1779788512,
				"z": -1.8918332277,
				"element": "H" 
			},
			{
				"x": -1.9597541076,
				"y": -1.6277417089,
				"z": -1.3903235472,
				"element": "H" 
			},
			{
				"x": -4.3364934476,
				"y": -1.3197134454,
				"z": -1.2173831454,
				"element": "H" 
			},
			{
				"x": -3.8449721183,
				"y": -0.2844771469,
				"z": -2.5540925332,
				"element": "H" 
			},
			{
				"x": -4.9763176879,
				"y": 0.320578038,
				"z": -1.3282276951,
				"element": "H" 
			},
			{
				"x": -1.6869074986,
				"y": 1.9669102285,
				"z": -0.306353965,
				"element": "H" 
			},
			{
				"x": -3.3058538098,
				"y": 1.8532473372,
				"z": -2.8969534094,
				"element": "H" 
			},
			{
				"x": -1.5822333323,
				"y": 1.6211311578,
				"z": -2.7424358451,
				"element": "H" 
			},
			{
				"x": -2.0871423692,
				"y": 3.8660554988,
				"z": -3.5798210956,
				"element": "H" 
			},
			{
				"x": -1.2538678847,
				"y": 3.9601710795,
				"z": -2.036182845,
				"element": "H" 
			},
			{
				"x": -4.995828159,
				"y": 3.2484491057,
				"z": -2.6206168662,
				"element": "H" 
			},
			{
				"x": -5.4758585311,
				"y": 4.9029656885,
				"z": -2.2653499922,
				"element": "H" 
			},
			{
				"x": -4.5437057402,
				"y": 4.5471472324,
				"z": -3.7172293352,
				"element": "H" 
			},
			{
				"x": -2.0212043175,
				"y": 6.1357297866,
				"z": -1.3859892598,
				"element": "H" 
			},
			{
				"x": -3.4893799008,
				"y": 7.157705445,
				"z": 0.1386158341,
				"element": "H" 
			},
			{
				"x": -4.8930921277,
				"y": 6.9581928469,
				"z": -0.8911262838,
				"element": "H" 
			},
			{
				"x": -4.2245423798,
				"y": 5.2337910727,
				"z": 1.3096594162,
				"element": "H" 
			},
			{
				"x": -5.4160767727,
				"y": 4.8794648613,
				"z": 0.0678491777,
				"element": "H" 
			},
			{
				"x": -2.4338389074,
				"y": 4.2737784633,
				"z": 0.0193898965,
				"element": "H" 
			},
			{
				"x": -4.6952718384,
				"y": 2.3502802001,
				"z": -0.6046357283,
				"element": "H" 
			},
			{
				"x": -3.0700139491,
				"y": 2.9010264581,
				"z": 1.8949046152,
				"element": "H" 
			},
			{
				"x": -4.7899566952,
				"y": 2.6424795573,
				"z": 1.7417592472,
				"element": "H" 
			},
			{
				"x": -3.7627420519,
				"y": 0.5782837892,
				"z": 2.7380390775,
				"element": "H" 
			},
			{
				"x": -3.1844808794,
				"y": -2.2280533701,
				"z": 0.6192020526,
				"element": "H" 
			},
			{
				"x": -3.2134925801,
				"y": -1.6746263705,
				"z": 2.3010413925,
				"element": "H" 
			},
			{
				"x": -4.278465764,
				"y": 6.9662932171,
				"z": -3.2529612095,
				"element": "H" 
			},
			{
				"x": -2.6779501258,
				"y": 5.6199418995,
				"z": -4.5681312141,
				"element": "H" 
			},
			{
				"x": -2.4136795849,
				"y": 7.3133676022,
				"z": -4.949752648,
				"element": "H" 
			},
			{
				"x": -1.3068410568,
				"y": 6.4783101707,
				"z": -3.8550991184,
				"element": "H" 
			},
			{
				"x": -3.3833482332,
				"y": 8.6718891297,
				"z": -1.5744563997,
				"element": "H" 
			},
			{
				"x": -1.8214964915,
				"y": 8.5448342849,
				"z": -2.3588919676,
				"element": "H" 
			},
			{
				"x": -4.4319665582,
				"y": 9.4469069264,
				"z": -3.6981141501,
				"element": "H" 
			},
			{
				"x": -2.8972527844,
				"y": 9.3181714732,
				"z": -4.5265295622,
				"element": "H" 
			},
			{
				"x": -3.241042096,
				"y": 11.633135851,
				"z": -3.9839998156,
				"element": "H" 
			},
			{
				"x": -1.8751428639,
				"y": 11.0244578629,
				"z": -3.0664264825,
				"element": "H" 
			},
			{
				"x": -3.3017169812,
				"y": 10.869848704,
				"z": -1.025627209,
				"element": "H" 
			},
			{
				"x": -3.4401527483,
				"y": 13.3235216189,
				"z": -0.6298252555,
				"element": "H" 
			},
			{
				"x": -3.3038580117,
				"y": 13.6250557185,
				"z": -2.3677692881,
				"element": "H" 
			},
			{
				"x": -1.9462108152,
				"y": 12.9107861043,
				"z": -1.4860865847,
				"element": "H" 
			},
			{
				"x": -5.5481237831,
				"y": 11.9748510624,
				"z": -0.9973341366,
				"element": "H" 
			},
			{
				"x": -5.5592308622,
				"y": 10.5534148894,
				"z": -2.0446862913,
				"element": "H" 
			},
			{
				"x": -5.4770574565,
				"y": 12.172212258,
				"z": -2.7540189686,
				"element": "H" 
			}
		],
		 "valence_orbital": [ 
			{
				"type": "occ",
				"energy": -0.27377,
				"method": "rhf"
			},
			{
				"type": "occ",
				"energy": -0.26182,
				"method": "rhf"
			},
			{
				"type": "occ",
				"energy": -0.25751,
				"method": "rhf"
			},
			{
				"type": "occ",
				"energy": -0.23557,
				"method": "rhf"
			},
			{
				"type": "occ",
				"energy": -0.2262,
				"method": "rhf"
			},
			{
				"type": "unocc",
				"energy": 0.0136,
				"method": "rhf"
			},
			{
				"type": "unocc",
				"energy": 0.02695,
				"method": "rhf"
			},
			{
				"type": "unocc",
				"energy": 0.0294,
				"method": "rhf"
			},
			{
				"type": "unocc",
				"energy": 0.07201,
				"method": "rhf"
			},
			{
				"type": "unocc",
				"energy": 0.07295,
				"method": "rhf"
			}
		],
		"cosmo_sigma_profile": { 
			"-0.025": 0.0,
			"-0.024": 0.0,
			"-0.023": 0.0,
			"-0.022": 0.0,
			"-0.021": 0.0,
			"-0.02": 0.0,
			"-0.019": 0.0,
			"-0.018": 0.0,
			"-0.017": 0.0,
			"-0.016": 0.0,
			"-0.015": 0.0,
			"-0.014": 0.0,
			"-0.013": 0.0,
			"-0.012": 0.0,
			"-0.011": 0.0,
			"-0.01": 0.0,
			"-0.009": 0.0,
			"-0.008": 0.0,
			"-0.007": 0.0,
			"-0.006": 0.0,
			"-0.005": 2.43469019399,
			"-0.004": 10.9380504455,
			"-0.003": 46.0799426574,
			"-0.002": 128.234097976,
			"-0.001": 188.766779481,
			"0.0": 189.340325671,
			"0.001": 137.808478977,
			"0.002": 76.3173959179,
			"0.003": 17.36064798,
			"0.004": 9.45717705973,
			"0.005": 8.1276074558,
			"0.006": 7.44306657683,
			"0.007": 5.09084992864,
			"0.008": 3.5141315134,
			"0.009": 2.11570972515,
			"0.01": 1.09666802098,
			"0.011": 2.08892227986,
			"0.012": 2.0817451966,
			"0.013": 1.95707903426,
			"0.014": 0.424428846096,
			"0.015": 0.0,
			"0.016": 0.0,
			"0.017": 0.0,
			"0.018": 0.0,
			"0.019": 0.0,
			"0.02": 0.0,
			"0.021": 0.0,
			"0.022": 0.0,
			"0.023": 0.0,
			"0.024": 0.0,
			"0.025": 0.0
		}
	}
}
