{
	 "smiles": "C1COCO1", 
	 "Tm": 247.15, 
	 "num_atms": 11, 
	 "gaussian": { 
		 "optdone": 1, 
		 "sigma_profile": "yes", 
		 "theory": "DFT", 
		 "functional": "B3LYP", 
		 "basiset": "6-31G**", 
		 "properties": { 
			 "R2extent": 352.4604, 
			 "electric_dipole_moment_norm": 1.18297273426, 
			 "electric_quadrupole_moment_norm": 4.59720754589, 
			 "total_energy": -268.347370204, 
			 "HOMO_LUMO_gap": 0.34911, 
			 "cosmo_polarized_energy": -5.29, 
			 "cosmo_cavitation_energy": 13.51, 
			 "cosmo_dispersion_energy": -10.89, 
			 "cosmo_repulsion_energy": 0.98, 
			 "cosmo_total_nonelectrostatic_energy": 3.6, 
			 "SMD_solvation_energy": 2.9 
		},
		"coords": [
			{
				"x": -1.0858257214,
				"y": 0.5612637153,
				"z": -0.5680804628,
				"element": "C" 
			},
			{
				"x": -0.4066485829,
				"y": 1.3230768824,
				"z": 0.5661820377,
				"element": "C" 
			},
			{
				"x": 0.9547866843,
				"y": 0.9260872136,
				"z": 0.4189544394,
				"element": "O" 
			},
			{
				"x": 0.9463047099,
				"y": -0.3838285717,
				"z": -0.12392124,
				"element": "C" 
			},
			{
				"x": -0.3681608322,
				"y": -0.6706825133,
				"z": -0.5717271867,
				"element": "O" 
			},
			{
				"x": -2.1430730349,
				"y": 0.3440761521,
				"z": -0.3954393044,
				"element": "H" 
			},
			{
				"x": -0.9743338179,
				"y": 1.0915057247,
				"z": -1.5259480247,
				"element": "H" 
			},
			{
				"x": -0.4606337903,
				"y": 2.4109054715,
				"z": 0.4741882334,
				"element": "H" 
			},
			{
				"x": -0.8077010996,
				"y": 1.0197077991,
				"z": 1.5450661474,
				"element": "H" 
			},
			{
				"x": 1.2161962559,
				"y": -1.137498875,
				"z": 0.6309685923,
				"element": "H" 
			},
			{
				"x": 1.6712892291,
				"y": -0.4095129987,
				"z": -0.9512432317,
				"element": "H" 
			}
		],
		 "valence_orbital": [ 
			{
				"type": "occ",
				"energy": -0.41003,
				"method": "rhf"
			},
			{
				"type": "occ",
				"energy": -0.34519,
				"method": "rhf"
			},
			{
				"type": "occ",
				"energy": -0.33544,
				"method": "rhf"
			},
			{
				"type": "occ",
				"energy": -0.27264,
				"method": "rhf"
			},
			{
				"type": "occ",
				"energy": -0.2513,
				"method": "rhf"
			},
			{
				"type": "unocc",
				"energy": 0.09781,
				"method": "rhf"
			},
			{
				"type": "unocc",
				"energy": 0.116,
				"method": "rhf"
			},
			{
				"type": "unocc",
				"energy": 0.12749,
				"method": "rhf"
			},
			{
				"type": "unocc",
				"energy": 0.14231,
				"method": "rhf"
			},
			{
				"type": "unocc",
				"energy": 0.14395,
				"method": "rhf"
			}
		],
		"cosmo_sigma_profile": { 
			"-0.025": 0.0,
			"-0.024": 0.0,
			"-0.023": 0.0,
			"-0.022": 0.0,
			"-0.021": 0.0,
			"-0.02": 0.0,
			"-0.019": 0.0,
			"-0.018": 0.0,
			"-0.017": 0.0,
			"-0.016": 0.0,
			"-0.015": 0.0,
			"-0.014": 0.0,
			"-0.013": 0.0,
			"-0.012": 0.0,
			"-0.011": 0.0,
			"-0.01": 0.0,
			"-0.009": 0.0,
			"-0.008": 0.0,
			"-0.007": 0.133627823087,
			"-0.006": 4.31092139412,
			"-0.005": 13.8127756402,
			"-0.004": 19.5233495416,
			"-0.003": 14.1822210257,
			"-0.002": 9.06721125995,
			"-0.001": 5.21933822513,
			"0.0": 4.71157992659,
			"0.001": 2.90955077075,
			"0.002": 3.62458685018,
			"0.003": 3.0539462172,
			"0.004": 2.28651832427,
			"0.005": 2.14806324248,
			"0.006": 2.71402680357,
			"0.007": 2.80948579731,
			"0.008": 2.02799895714,
			"0.009": 1.99655700805,
			"0.01": 2.41291008618,
			"0.011": 2.78850840447,
			"0.012": 3.96639697768,
			"0.013": 2.07847941834,
			"0.014": 0.0,
			"0.015": 0.0,
			"0.016": 0.0,
			"0.017": 0.0,
			"0.018": 0.0,
			"0.019": 0.0,
			"0.02": 0.0,
			"0.021": 0.0,
			"0.022": 0.0,
			"0.023": 0.0,
			"0.024": 0.0,
			"0.025": 0.0
		}
	}
}
