{
	 "smiles": "CS(=O)(=O)C1=CC2=C(OCC(=O)N2)C=C1", 
	 "Tm": 503.15, 
	 "num_atms": 24, 
	 "gaussian": { 
		 "optdone": 1, 
		 "sigma_profile": "yes", 
		 "theory": "DFT", 
		 "functional": "B3LYP", 
		 "basiset": "6-31G**", 
		 "properties": { 
			 "R2extent": 4603.1867, 
			 "electric_dipole_moment_norm": 3.63831964236, 
			 "electric_quadrupole_moment_norm": 26.7429464729, 
			 "total_energy": -1102.15677722, 
			 "HOMO_LUMO_gap": 0.19502, 
			 "cosmo_polarized_energy": -22.0, 
			 "cosmo_cavitation_energy": 29.77, 
			 "cosmo_dispersion_energy": -22.47, 
			 "cosmo_repulsion_energy": 1.7, 
			 "cosmo_total_nonelectrostatic_energy": 9.0, 
			 "SMD_solvation_energy": 5.7 
		},
		"coords": [
			{
				"x": -1.5311814741,
				"y": 4.3092475301,
				"z": -0.9086910511,
				"element": "C" 
			},
			{
				"x": -2.2954393358,
				"y": 2.7179629783,
				"z": -1.3054842238,
				"element": "S" 
			},
			{
				"x": -3.4768522739,
				"y": 2.5703621721,
				"z": -0.4400196261,
				"element": "O" 
			},
			{
				"x": -2.4052657304,
				"y": 2.6371895526,
				"z": -2.769772792,
				"element": "O" 
			},
			{
				"x": -1.0748931049,
				"y": 1.5116065674,
				"z": -0.7734677082,
				"element": "C" 
			},
			{
				"x": -1.1902006952,
				"y": 0.9616205618,
				"z": 0.5046344334,
				"element": "C" 
			},
			{
				"x": -0.2438738148,
				"y": 0.0319483493,
				"z": 0.9305348026,
				"element": "C" 
			},
			{
				"x": 0.7996020534,
				"y": -0.3469994888,
				"z": 0.0639622283,
				"element": "C" 
			},
			{
				"x": 1.7586053102,
				"y": -1.2219866075,
				"z": 0.4817918449,
				"element": "O" 
			},
			{
				"x": 1.3510026412,
				"y": -2.1816320479,
				"z": 1.4634667294,
				"element": "C" 
			},
			{
				"x": 0.4910255973,
				"y": -1.6112617615,
				"z": 2.5876872597,
				"element": "C" 
			},
			{
				"x": 0.4496474552,
				"y": -2.1119420457,
				"z": 3.6966771777,
				"element": "O" 
			},
			{
				"x": -0.268102119,
				"y": -0.5286033873,
				"z": 2.2162887057,
				"element": "N" 
			},
			{
				"x": 0.8927244959,
				"y": 0.2018298532,
				"z": -1.2139171437,
				"element": "C" 
			},
			{
				"x": -0.0464555512,
				"y": 1.1395282281,
				"z": -1.6406690784,
				"element": "C" 
			},
			{
				"x": -1.3541056233,
				"y": 4.3651008046,
				"z": 0.1661939413,
				"element": "H" 
			},
			{
				"x": -2.2454277779,
				"y": 5.0756305779,
				"z": -1.2168894094,
				"element": "H" 
			},
			{
				"x": -0.6002146459,
				"y": 4.4106812944,
				"z": -1.4679186959,
				"element": "H" 
			},
			{
				"x": -2.0183537286,
				"y": 1.2495812758,
				"z": 1.1447978899,
				"element": "H" 
			},
			{
				"x": 0.792626385,
				"y": -2.9988328577,
				"z": 0.9828644675,
				"element": "H" 
			},
			{
				"x": 2.2611361539,
				"y": -2.5921186587,
				"z": 1.9000878538,
				"element": "H" 
			},
			{
				"x": -0.9107035463,
				"y": -0.1710651453,
				"z": 2.9119896502,
				"element": "H" 
			},
			{
				"x": 1.704584057,
				"y": -0.1198561594,
				"z": -1.8571422963,
				"element": "H" 
			},
			{
				"x": -0.0035847276,
				"y": 1.5537084143,
				"z": -2.6418049594,
				"element": "H" 
			}
		],
		 "valence_orbital": [ 
			{
				"type": "occ",
				"energy": -0.29892,
				"method": "rhf"
			},
			{
				"type": "occ",
				"energy": -0.29256,
				"method": "rhf"
			},
			{
				"type": "occ",
				"energy": -0.27919,
				"method": "rhf"
			},
			{
				"type": "occ",
				"energy": -0.2665,
				"method": "rhf"
			},
			{
				"type": "occ",
				"energy": -0.23932,
				"method": "rhf"
			},
			{
				"type": "unocc",
				"energy": -0.0443,
				"method": "rhf"
			},
			{
				"type": "unocc",
				"energy": -0.03701,
				"method": "rhf"
			},
			{
				"type": "unocc",
				"energy": 0.00689,
				"method": "rhf"
			},
			{
				"type": "unocc",
				"energy": 0.05932,
				"method": "rhf"
			},
			{
				"type": "unocc",
				"energy": 0.0645,
				"method": "rhf"
			}
		],
		"cosmo_sigma_profile": { 
			"-0.025": 0.0,
			"-0.024": 0.0,
			"-0.023": 0.0,
			"-0.022": 0.0,
			"-0.021": 0.0,
			"-0.02": 0.0,
			"-0.019": 0.0,
			"-0.018": 0.0,
			"-0.017": 0.0268594333026,
			"-0.016": 1.12977256891,
			"-0.015": 1.49019215373,
			"-0.014": 1.54725925311,
			"-0.013": 1.24868066532,
			"-0.012": 0.841177077152,
			"-0.011": 1.22461470299,
			"-0.01": 0.791495073337,
			"-0.009": 4.60136585327,
			"-0.008": 14.2179014392,
			"-0.007": 14.2949129771,
			"-0.006": 16.1046647905,
			"-0.005": 15.899866524,
			"-0.004": 15.8199739592,
			"-0.003": 12.015268402,
			"-0.002": 10.6729921861,
			"-0.001": 10.7493167316,
			"0.0": 13.5235188494,
			"0.001": 15.9421210059,
			"0.002": 12.9083831363,
			"0.003": 6.66004875559,
			"0.004": 5.20855602739,
			"0.005": 5.52630470377,
			"0.006": 4.43061458223,
			"0.007": 3.91564609305,
			"0.008": 5.11916273103,
			"0.009": 5.80237018747,
			"0.01": 6.61448896,
			"0.011": 10.8279148501,
			"0.012": 14.3023187224,
			"0.013": 4.23158091578,
			"0.014": 0.0713923417406,
			"0.015": 0.0,
			"0.016": 0.0,
			"0.017": 0.0,
			"0.018": 0.0,
			"0.019": 0.0,
			"0.02": 0.0,
			"0.021": 0.0,
			"0.022": 0.0,
			"0.023": 0.0,
			"0.024": 0.0,
			"0.025": 0.0
		}
	}
}
