{
	 "smiles": "COC(=O)[C@@H]1C[C@@H](O)CN1C(=O)C12CC3CC(CC(C3)C1)C2", 
	 "Tm": 432.15, 
	 "num_atms": 47, 
	 "gaussian": { 
		 "optdone": 1, 
		 "sigma_profile": "yes", 
		 "theory": "DFT", 
		 "functional": "B3LYP", 
		 "basiset": "6-31G**", 
		 "properties": { 
			 "R2extent": 7429.4671, 
			 "electric_dipole_moment_norm": 2.1833470567, 
			 "electric_quadrupole_moment_norm": 14.1179681679, 
			 "total_energy": -1018.55766132, 
			 "HOMO_LUMO_gap": 0.2507, 
			 "cosmo_polarized_energy": -18.35, 
			 "cosmo_cavitation_energy": 43.41, 
			 "cosmo_dispersion_energy": -30.71, 
			 "cosmo_repulsion_energy": 2.33, 
			 "cosmo_total_nonelectrostatic_energy": 15.02, 
			 "SMD_solvation_energy": 6.67 
		},
		"coords": [
			{
				"x": -5.1060728113,
				"y": 0.4600272227,
				"z": 2.3982835442,
				"element": "C" 
			},
			{
				"x": -4.1742322083,
				"y": 1.2278398171,
				"z": 1.6182844953,
				"element": "O" 
			},
			{
				"x": -3.4012450262,
				"y": 0.513984432,
				"z": 0.7803679966,
				"element": "C" 
			},
			{
				"x": -3.4860465617,
				"y": -0.6856052724,
				"z": 0.6271695441,
				"element": "O" 
			},
			{
				"x": -2.4773633598,
				"y": 1.4341800517,
				"z": -0.0224718499,
				"element": "C" 
			},
			{
				"x": -3.0657279522,
				"y": 1.7152852684,
				"z": -1.4181847427,
				"element": "C" 
			},
			{
				"x": -2.5131821991,
				"y": 0.5640899362,
				"z": -2.2714571548,
				"element": "C" 
			},
			{
				"x": -2.5827218314,
				"y": 0.7498960814,
				"z": -3.6686833697,
				"element": "O" 
			},
			{
				"x": -1.0793896105,
				"y": 0.4016276172,
				"z": -1.7270807237,
				"element": "C" 
			},
			{
				"x": -1.2009525028,
				"y": 0.7603808127,
				"z": -0.3121874963,
				"element": "N" 
			},
			{
				"x": -0.4345606038,
				"y": 0.4293536315,
				"z": 0.783136862,
				"element": "C" 
			},
			{
				"x": -0.8575331348,
				"y": 0.7479331599,
				"z": 1.8960087551,
				"element": "O" 
			},
			{
				"x": 0.9027520458,
				"y": -0.3296782496,
				"z": 0.645065515,
				"element": "C" 
			},
			{
				"x": 1.8546095609,
				"y": 0.250840986,
				"z": -0.4356034945,
				"element": "C" 
			},
			{
				"x": 3.1772402034,
				"y": -0.5472262584,
				"z": -0.467219992,
				"element": "C" 
			},
			{
				"x": 3.8797767879,
				"y": -0.4513032574,
				"z": 0.9001817953,
				"element": "C" 
			},
			{
				"x": 2.9536357809,
				"y": -1.0341971587,
				"z": 1.9851650801,
				"element": "C" 
			},
			{
				"x": 2.6627207902,
				"y": -2.5155754848,
				"z": 1.6722334423,
				"element": "C" 
			},
			{
				"x": 1.9592445835,
				"y": -2.6177473474,
				"z": 0.3047288436,
				"element": "C" 
			},
			{
				"x": 2.8735546591,
				"y": -2.0259764648,
				"z": -0.7884205992,
				"element": "C" 
			},
			{
				"x": 0.6301405069,
				"y": -1.8337844714,
				"z": 0.3451292697,
				"element": "C" 
			},
			{
				"x": 1.6309253587,
				"y": -0.2451154046,
				"z": 2.0144358753,
				"element": "C" 
			},
			{
				"x": -5.7853685194,
				"y": -0.098591091,
				"z": 1.749364111,
				"element": "H" 
			},
			{
				"x": -4.571549512,
				"y": -0.2431399634,
				"z": 3.0413442091,
				"element": "H" 
			},
			{
				"x": -5.6560309914,
				"y": 1.1848459752,
				"z": 2.9982486256,
				"element": "H" 
			},
			{
				"x": -2.312745053,
				"y": 2.3406251146,
				"z": 0.5624441866,
				"element": "H" 
			},
			{
				"x": -2.6783398878,
				"y": 2.6711463237,
				"z": -1.7950668679,
				"element": "H" 
			},
			{
				"x": -4.156698352,
				"y": 1.7704712784,
				"z": -1.4216229013,
				"element": "H" 
			},
			{
				"x": -3.0796222825,
				"y": -0.3476116032,
				"z": -2.0632989957,
				"element": "H" 
			},
			{
				"x": -2.1349153504,
				"y": 1.5798018121,
				"z": -3.8844514506,
				"element": "H" 
			},
			{
				"x": -0.7045077115,
				"y": -0.6118718389,
				"z": -1.8706952892,
				"element": "H" 
			},
			{
				"x": -0.4119236425,
				"y": 1.0921918579,
				"z": -2.2654620253,
				"element": "H" 
			},
			{
				"x": 2.0568878428,
				"y": 1.307461097,
				"z": -0.2160766535,
				"element": "H" 
			},
			{
				"x": 1.402821136,
				"y": 0.2138856677,
				"z": -1.4302431222,
				"element": "H" 
			},
			{
				"x": 3.8245912121,
				"y": -0.1269450247,
				"z": -1.2476383526,
				"element": "H" 
			},
			{
				"x": 4.8312824412,
				"y": -0.9986593302,
				"z": 0.8750312941,
				"element": "H" 
			},
			{
				"x": 4.1189254926,
				"y": 0.595506397,
				"z": 1.1292122243,
				"element": "H" 
			},
			{
				"x": 3.4376861274,
				"y": -0.9533037233,
				"z": 2.9666951239,
				"element": "H" 
			},
			{
				"x": 2.0283576975,
				"y": -2.9496705603,
				"z": 2.455727729,
				"element": "H" 
			},
			{
				"x": 3.5967822001,
				"y": -3.0926371853,
				"z": 1.6598066783,
				"element": "H" 
			},
			{
				"x": 1.743566893,
				"y": -3.6691432552,
				"z": 0.0757095598,
				"element": "H" 
			},
			{
				"x": 3.8091424799,
				"y": -2.5972189695,
				"z": -0.8457105132,
				"element": "H" 
			},
			{
				"x": 2.3906731663,
				"y": -2.108526614,
				"z": -1.7715573692,
				"element": "H" 
			},
			{
				"x": -0.0311087402,
				"y": -2.239582495,
				"z": 1.120025985,
				"element": "H" 
			},
			{
				"x": 0.1055511109,
				"y": -1.9576224088,
				"z": -0.6088760236,
				"element": "H" 
			},
			{
				"x": 0.9695424889,
				"y": -0.6270039836,
				"z": 2.7966720314,
				"element": "H" 
			},
			{
				"x": 1.8193272786,
				"y": 0.8064628758,
				"z": 2.2601362103,
				"element": "H" 
			}
		],
		 "valence_orbital": [ 
			{
				"type": "occ",
				"energy": -0.27869,
				"method": "rhf"
			},
			{
				"type": "occ",
				"energy": -0.2749,
				"method": "rhf"
			},
			{
				"type": "occ",
				"energy": -0.26929,
				"method": "rhf"
			},
			{
				"type": "occ",
				"energy": -0.24086,
				"method": "rhf"
			},
			{
				"type": "occ",
				"energy": -0.23909,
				"method": "rhf"
			},
			{
				"type": "unocc",
				"energy": 0.01161,
				"method": "rhf"
			},
			{
				"type": "unocc",
				"energy": 0.0246,
				"method": "rhf"
			},
			{
				"type": "unocc",
				"energy": 0.06125,
				"method": "rhf"
			},
			{
				"type": "unocc",
				"energy": 0.07054,
				"method": "rhf"
			},
			{
				"type": "unocc",
				"energy": 0.09515,
				"method": "rhf"
			}
		],
		"cosmo_sigma_profile": { 
			"-0.025": 0.0,
			"-0.024": 0.0,
			"-0.023": 0.0,
			"-0.022": 0.0,
			"-0.021": 0.0,
			"-0.02": 0.0,
			"-0.019": 0.0,
			"-0.018": 0.0,
			"-0.017": 0.0,
			"-0.016": 0.339850879399,
			"-0.015": 1.16105940477,
			"-0.014": 1.1753361161,
			"-0.013": 1.2328557155,
			"-0.012": 1.4330232573,
			"-0.011": 1.36260764432,
			"-0.01": 0.574945421873,
			"-0.009": 1.141871168,
			"-0.008": 1.505940842,
			"-0.007": 3.65085712514,
			"-0.006": 12.5662766181,
			"-0.005": 18.5164699085,
			"-0.004": 21.7963309101,
			"-0.003": 23.7911084225,
			"-0.002": 46.3960263079,
			"-0.001": 47.9913363548,
			"0.0": 42.7670142057,
			"0.001": 28.1748523142,
			"0.002": 12.2371553643,
			"0.003": 5.95350633896,
			"0.004": 5.43687190501,
			"0.005": 5.54657646137,
			"0.006": 4.95083874144,
			"0.007": 7.00865702745,
			"0.008": 6.62039088905,
			"0.009": 4.94242782183,
			"0.01": 4.9422545169,
			"0.011": 5.14694246039,
			"0.012": 7.12741942539,
			"0.013": 4.89807215292,
			"0.014": 3.9665945125,
			"0.015": 0.26603059826,
			"0.016": 0.0,
			"0.017": 0.0,
			"0.018": 0.0,
			"0.019": 0.0,
			"0.02": 0.0,
			"0.021": 0.0,
			"0.022": 0.0,
			"0.023": 0.0,
			"0.024": 0.0,
			"0.025": 0.0
		}
	}
}
