{
	 "smiles": "NC1=C2C=NC=CC2=C(OC2=CC=C(F)C=C2)C=C1", 
	 "Tm": 423.15, 
	 "num_atms": 30, 
	 "gaussian": { 
		 "optdone": 1, 
		 "sigma_profile": "yes", 
		 "theory": "DFT", 
		 "functional": "B3LYP", 
		 "basiset": "6-31G**", 
		 "properties": { 
			 "R2extent": 6670.7959, 
			 "electric_dipole_moment_norm": 3.07992270195, 
			 "electric_quadrupole_moment_norm": 22.0296146405, 
			 "total_energy": -862.779827219, 
			 "HOMO_LUMO_gap": 0.14927, 
			 "cosmo_polarized_energy": -13.5, 
			 "cosmo_cavitation_energy": 35.0, 
			 "cosmo_dispersion_energy": -25.19, 
			 "cosmo_repulsion_energy": 1.88, 
			 "cosmo_total_nonelectrostatic_energy": 11.69, 
			 "SMD_solvation_energy": 4.88 
		},
		"coords": [
			{
				"x": -2.5573797829,
				"y": 1.3983729986,
				"z": 2.4207761782,
				"element": "N" 
			},
			{
				"x": -1.7069828352,
				"y": 0.7778879093,
				"z": 1.504940287,
				"element": "C" 
			},
			{
				"x": -0.3202609373,
				"y": 1.1425049116,
				"z": 1.4428962428,
				"element": "C" 
			},
			{
				"x": 0.2610442026,
				"y": 2.1284263897,
				"z": 2.2848859147,
				"element": "C" 
			},
			{
				"x": 1.5217421944,
				"y": 2.5134982802,
				"z": 2.2392439687,
				"element": "N" 
			},
			{
				"x": 2.3227605026,
				"y": 1.9121857794,
				"z": 1.3191346645,
				"element": "C" 
			},
			{
				"x": 1.899836627,
				"y": 0.9205597078,
				"z": 0.4648213093,
				"element": "C" 
			},
			{
				"x": 0.547985854,
				"y": 0.4961878567,
				"z": 0.5074103816,
				"element": "C" 
			},
			{
				"x": 0.0297633111,
				"y": -0.5379914902,
				"z": -0.3181292957,
				"element": "C" 
			},
			{
				"x": 0.9291460638,
				"y": -1.1947991876,
				"z": -1.1424123915,
				"element": "O" 
			},
			{
				"x": 0.6187218384,
				"y": -1.4303392954,
				"z": -2.4680698447,
				"element": "C" 
			},
			{
				"x": -0.1573338604,
				"y": -0.5590821043,
				"z": -3.2392212254,
				"element": "C" 
			},
			{
				"x": -0.370724677,
				"y": -0.8368723107,
				"z": -4.5897336361,
				"element": "C" 
			},
			{
				"x": 0.2006108197,
				"y": -1.974324772,
				"z": -5.1482672366,
				"element": "C" 
			},
			{
				"x": -0.0079707155,
				"y": -2.2407890265,
				"z": -6.4565100291,
				"element": "F" 
			},
			{
				"x": 0.9805851816,
				"y": -2.8448925914,
				"z": -4.3951370868,
				"element": "C" 
			},
			{
				"x": 1.1862267248,
				"y": -2.5703350679,
				"z": -3.0441801904,
				"element": "C" 
			},
			{
				"x": -1.2938853227,
				"y": -0.9059028268,
				"z": -0.2138645311,
				"element": "C" 
			},
			{
				"x": -2.159103053,
				"y": -0.2409958467,
				"z": 0.6787329871,
				"element": "C" 
			},
			{
				"x": -3.5391100558,
				"y": 1.212145801,
				"z": 2.2673155383,
				"element": "H" 
			},
			{
				"x": -2.390475387,
				"y": 2.3827850893,
				"z": 2.5765570576,
				"element": "H" 
			},
			{
				"x": -0.3472936851,
				"y": 2.603483338,
				"z": 3.0536261023,
				"element": "H" 
			},
			{
				"x": 3.3541490823,
				"y": 2.2567656317,
				"z": 1.2974687594,
				"element": "H" 
			},
			{
				"x": 2.5839962398,
				"y": 0.4553430878,
				"z": -0.2352248654,
				"element": "H" 
			},
			{
				"x": -0.5894653964,
				"y": 0.3275222836,
				"z": -2.7893861473,
				"element": "H" 
			},
			{
				"x": -0.9672473225,
				"y": -0.1773764629,
				"z": -5.2108122912,
				"element": "H" 
			},
			{
				"x": 1.4108924607,
				"y": -3.7229947784,
				"z": -4.8641726009,
				"element": "H" 
			},
			{
				"x": 1.7869931221,
				"y": -3.2273089673,
				"z": -2.4244509849,
				"element": "H" 
			},
			{
				"x": -1.67965977,
				"y": -1.7054147007,
				"z": -0.8380385812,
				"element": "H" 
			},
			{
				"x": -3.203761424,
				"y": -0.5384496356,
				"z": 0.718501547,
				"element": "H" 
			}
		],
		 "valence_orbital": [ 
			{
				"type": "occ",
				"energy": -0.26483,
				"method": "rhf"
			},
			{
				"type": "occ",
				"energy": -0.26011,
				"method": "rhf"
			},
			{
				"type": "occ",
				"energy": -0.25214,
				"method": "rhf"
			},
			{
				"type": "occ",
				"energy": -0.23163,
				"method": "rhf"
			},
			{
				"type": "occ",
				"energy": -0.19619,
				"method": "rhf"
			},
			{
				"type": "unocc",
				"energy": -0.04692,
				"method": "rhf"
			},
			{
				"type": "unocc",
				"energy": -0.02513,
				"method": "rhf"
			},
			{
				"type": "unocc",
				"energy": -0.01348,
				"method": "rhf"
			},
			{
				"type": "unocc",
				"energy": 0.00612,
				"method": "rhf"
			},
			{
				"type": "unocc",
				"energy": 0.03795,
				"method": "rhf"
			}
		],
		"cosmo_sigma_profile": { 
			"-0.025": 0.0,
			"-0.024": 0.0,
			"-0.023": 0.0,
			"-0.022": 0.0,
			"-0.021": 0.0,
			"-0.02": 0.0,
			"-0.019": 0.0,
			"-0.018": 0.0,
			"-0.017": 0.0,
			"-0.016": 0.0,
			"-0.015": 0.0,
			"-0.014": 0.0663007612764,
			"-0.013": 1.63117041261,
			"-0.012": 3.16495750147,
			"-0.011": 2.80806116618,
			"-0.01": 3.18452101338,
			"-0.009": 4.08270065874,
			"-0.008": 3.51785403213,
			"-0.007": 9.04565819554,
			"-0.006": 14.8727829498,
			"-0.005": 16.7161331963,
			"-0.004": 14.9588697514,
			"-0.003": 13.1821049879,
			"-0.002": 14.1518772994,
			"-0.001": 13.7686482491,
			"0.0": 15.676398733,
			"0.001": 24.8629167336,
			"0.002": 34.5744770547,
			"0.003": 32.9034702696,
			"0.004": 25.3082686611,
			"0.005": 11.3646811932,
			"0.006": 3.72090860981,
			"0.007": 3.14035342831,
			"0.008": 2.95701191726,
			"0.009": 1.69177602549,
			"0.01": 1.82549691965,
			"0.011": 2.21827066784,
			"0.012": 1.48344796308,
			"0.013": 1.21976356509,
			"0.014": 1.22847885014,
			"0.015": 0.620732180734,
			"0.016": 1.10277975646,
			"0.017": 0.412169136611,
			"0.018": 0.0,
			"0.019": 0.0,
			"0.02": 0.0,
			"0.021": 0.0,
			"0.022": 0.0,
			"0.023": 0.0,
			"0.024": 0.0,
			"0.025": 0.0
		}
	}
}
