{
	 "smiles": "CCOC(=O)C1=CC2=C(C=C1)N=C(CCC(O)=O)C(=O)N2CC", 
	 "Tm": 456.15, 
	 "num_atms": 41, 
	 "gaussian": { 
		 "optdone": 1, 
		 "sigma_profile": "yes", 
		 "theory": "DFT", 
		 "functional": "B3LYP", 
		 "basiset": "6-31G**", 
		 "properties": { 
			 "R2extent": 10340.6929, 
			 "electric_dipole_moment_norm": 4.33382297862, 
			 "electric_quadrupole_moment_norm": 23.3721640767, 
			 "total_energy": -1106.24026232, 
			 "HOMO_LUMO_gap": 0.15195, 
			 "cosmo_polarized_energy": -19.87, 
			 "cosmo_cavitation_energy": 45.42, 
			 "cosmo_dispersion_energy": -30.96, 
			 "cosmo_repulsion_energy": 2.4, 
			 "cosmo_total_nonelectrostatic_energy": 16.86, 
			 "SMD_solvation_energy": 9.27 
		},
		"coords": [
			{
				"x": 0.7488259118,
				"y": 2.6023089264,
				"z": 6.2178454533,
				"element": "C" 
			},
			{
				"x": 1.9814792824,
				"y": 1.9858634993,
				"z": 5.5849226496,
				"element": "C" 
			},
			{
				"x": 1.6198510384,
				"y": 1.5612417885,
				"z": 4.2502254006,
				"element": "O" 
			},
			{
				"x": 2.6068493508,
				"y": 0.9811926174,
				"z": 3.5317564848,
				"element": "C" 
			},
			{
				"x": 3.7334308135,
				"y": 0.8158058296,
				"z": 3.9575508055,
				"element": "O" 
			},
			{
				"x": 2.1601675849,
				"y": 0.5697607193,
				"z": 2.1676089566,
				"element": "C" 
			},
			{
				"x": 0.852117377,
				"y": 0.7853537528,
				"z": 1.7322726059,
				"element": "C" 
			},
			{
				"x": 0.4655661448,
				"y": 0.3855766545,
				"z": 0.4430824967,
				"element": "C" 
			},
			{
				"x": 1.4230972281,
				"y": -0.2252202601,
				"z": -0.407863093,
				"element": "C" 
			},
			{
				"x": 2.7352431776,
				"y": -0.4321990537,
				"z": 0.0539593518,
				"element": "C" 
			},
			{
				"x": 3.1071588996,
				"y": -0.0431551573,
				"z": 1.3274653314,
				"element": "C" 
			},
			{
				"x": 1.1094710312,
				"y": -0.6275581177,
				"z": -1.6940269917,
				"element": "N" 
			},
			{
				"x": -0.087738289,
				"y": -0.4327267789,
				"z": -2.1418258476,
				"element": "C" 
			},
			{
				"x": -0.4526954873,
				"y": -0.8461265403,
				"z": -3.5420343451,
				"element": "C" 
			},
			{
				"x": 0.6613412868,
				"y": -1.5899442137,
				"z": -4.2811044598,
				"element": "C" 
			},
			{
				"x": 1.9233784514,
				"y": -0.796345112,
				"z": -4.5546648939,
				"element": "C" 
			},
			{
				"x": 1.6737234375,
				"y": 0.5237339155,
				"z": -4.753758392,
				"element": "O" 
			},
			{
				"x": 3.0340860975,
				"y": -1.2659010125,
				"z": -4.6550849932,
				"element": "O" 
			},
			{
				"x": -1.1725260991,
				"y": 0.2033266959,
				"z": -1.3485655859,
				"element": "C" 
			},
			{
				"x": -2.2983968065,
				"y": 0.3922396415,
				"z": -1.8048154066,
				"element": "O" 
			},
			{
				"x": -0.8290591054,
				"y": 0.5609100566,
				"z": -0.0466643687,
				"element": "N" 
			},
			{
				"x": -1.892941642,
				"y": 1.1686757159,
				"z": 0.7714500175,
				"element": "C" 
			},
			{
				"x": -1.8839814148,
				"y": 2.697510742,
				"z": 0.7118181927,
				"element": "C" 
			},
			{
				"x": 0.4027276397,
				"y": 3.4659720509,
				"z": 5.6426012239,
				"element": "H" 
			},
			{
				"x": 0.9826347853,
				"y": 2.9377638491,
				"z": 7.2329189528,
				"element": "H" 
			},
			{
				"x": -0.0669909721,
				"y": 1.8759336962,
				"z": 6.2763008436,
				"element": "H" 
			},
			{
				"x": 2.8096595428,
				"y": 2.6979353295,
				"z": 5.5148687355,
				"element": "H" 
			},
			{
				"x": 2.3423377773,
				"y": 1.1171747482,
				"z": 6.1443397508,
				"element": "H" 
			},
			{
				"x": 0.1555003283,
				"y": 1.2693522748,
				"z": 2.4019481241,
				"element": "H" 
			},
			{
				"x": 3.4339641775,
				"y": -0.9040547383,
				"z": -0.6288466281,
				"element": "H" 
			},
			{
				"x": 4.1139135584,
				"y": -0.1942524808,
				"z": 1.6989444233,
				"element": "H" 
			},
			{
				"x": -1.3551990356,
				"y": -1.4672574915,
				"z": -3.4932473823,
				"element": "H" 
			},
			{
				"x": -0.7572020438,
				"y": 0.0495990314,
				"z": -4.0956178815,
				"element": "H" 
			},
			{
				"x": 0.2790914087,
				"y": -1.9135032224,
				"z": -5.257827699,
				"element": "H" 
			},
			{
				"x": 0.9714526354,
				"y": -2.4877239373,
				"z": -3.7429513142,
				"element": "H" 
			},
			{
				"x": 2.5361650313,
				"y": 0.9277250616,
				"z": -4.946749524,
				"element": "H" 
			},
			{
				"x": -1.7856752078,
				"y": 0.8033284572,
				"z": 1.7954189023,
				"element": "H" 
			},
			{
				"x": -2.8318249852,
				"y": 0.7867981729,
				"z": 0.3697771995,
				"element": "H" 
			},
			{
				"x": -2.0474110728,
				"y": 3.0348320914,
				"z": -0.3149865895,
				"element": "H" 
			},
			{
				"x": -0.9369811889,
				"y": 3.1132978486,
				"z": 1.0683340373,
				"element": "H" 
			},
			{
				"x": -2.6897106478,
				"y": 3.0980549496,
				"z": 1.3350254565,
				"element": "H" 
			}
		],
		 "valence_orbital": [ 
			{
				"type": "occ",
				"energy": -0.28025,
				"method": "rhf"
			},
			{
				"type": "occ",
				"energy": -0.26495,
				"method": "rhf"
			},
			{
				"type": "occ",
				"energy": -0.25793,
				"method": "rhf"
			},
			{
				"type": "occ",
				"energy": -0.25187,
				"method": "rhf"
			},
			{
				"type": "occ",
				"energy": -0.23197,
				"method": "rhf"
			},
			{
				"type": "unocc",
				"energy": -0.08002,
				"method": "rhf"
			},
			{
				"type": "unocc",
				"energy": -0.03283,
				"method": "rhf"
			},
			{
				"type": "unocc",
				"energy": -0.01227,
				"method": "rhf"
			},
			{
				"type": "unocc",
				"energy": 0.02017,
				"method": "rhf"
			},
			{
				"type": "unocc",
				"energy": 0.03802,
				"method": "rhf"
			}
		],
		"cosmo_sigma_profile": { 
			"-0.025": 0.0,
			"-0.024": 0.0,
			"-0.023": 0.0,
			"-0.022": 0.0,
			"-0.021": 0.0,
			"-0.02": 0.0,
			"-0.019": 0.0,
			"-0.018": 0.324357545875,
			"-0.017": 1.261592036,
			"-0.016": 0.657208883141,
			"-0.015": 0.722730553361,
			"-0.014": 0.630443793899,
			"-0.013": 0.727450110543,
			"-0.012": 0.451703654961,
			"-0.011": 0.952157647751,
			"-0.01": 1.06412514272,
			"-0.009": 0.766298274211,
			"-0.008": 1.50724152909,
			"-0.007": 6.18669296066,
			"-0.006": 12.0776662248,
			"-0.005": 26.2365267343,
			"-0.004": 38.0657833059,
			"-0.003": 41.9947514698,
			"-0.002": 34.4608069878,
			"-0.001": 28.0941993381,
			"0.0": 31.0380970265,
			"0.001": 23.6726727606,
			"0.002": 19.1064963737,
			"0.003": 14.0021151886,
			"0.004": 9.40534792517,
			"0.005": 9.61246201312,
			"0.006": 6.29857049716,
			"0.007": 6.47245068877,
			"0.008": 6.13775800413,
			"0.009": 6.25645414225,
			"0.01": 5.30584474179,
			"0.011": 8.39916045369,
			"0.012": 11.7358221877,
			"0.013": 5.52921210197,
			"0.014": 0.131108369985,
			"0.015": 0.0,
			"0.016": 0.0,
			"0.017": 0.0,
			"0.018": 0.0,
			"0.019": 0.0,
			"0.02": 0.0,
			"0.021": 0.0,
			"0.022": 0.0,
			"0.023": 0.0,
			"0.024": 0.0,
			"0.025": 0.0
		}
	}
}
