{
	 "smiles": "COC(=O)CCCC1=CSC(N)=N1", 
	 "Tm": 343.15, 
	 "num_atms": 25, 
	 "gaussian": { 
		 "optdone": 1, 
		 "sigma_profile": "yes", 
		 "theory": "DFT", 
		 "functional": "B3LYP", 
		 "basiset": "6-31G**", 
		 "properties": { 
			 "R2extent": 3329.3287, 
			 "electric_dipole_moment_norm": 2.11779943337, 
			 "electric_quadrupole_moment_norm": 11.4029308697, 
			 "total_energy": -970.230668167, 
			 "HOMO_LUMO_gap": 0.20418, 
			 "cosmo_polarized_energy": -15.62, 
			 "cosmo_cavitation_energy": 30.47, 
			 "cosmo_dispersion_energy": -20.97, 
			 "cosmo_repulsion_energy": 1.65, 
			 "cosmo_total_nonelectrostatic_energy": 11.14, 
			 "SMD_solvation_energy": 4.72 
		},
		"coords": [
			{
				"x": -1.2856678201,
				"y": -1.6825910647,
				"z": 1.0573503922,
				"element": "C" 
			},
			{
				"x": -0.4443762955,
				"y": -0.5486106993,
				"z": 1.3276787174,
				"element": "O" 
			},
			{
				"x": 0.5493327407,
				"y": -0.3473803404,
				"z": 0.4339253067,
				"element": "C" 
			},
			{
				"x": 0.7477185467,
				"y": -1.0707608501,
				"z": -0.5186468375,
				"element": "O" 
			},
			{
				"x": 1.4019841894,
				"y": 0.8584993414,
				"z": 0.7888433362,
				"element": "C" 
			},
			{
				"x": 1.5530204907,
				"y": 1.8473935218,
				"z": -0.3865607911,
				"element": "C" 
			},
			{
				"x": 0.4767937016,
				"y": 2.951569823,
				"z": -0.4325732508,
				"element": "C" 
			},
			{
				"x": -0.937713026,
				"y": 2.4416606844,
				"z": -0.4768198509,
				"element": "C" 
			},
			{
				"x": -1.9261164575,
				"y": 2.774154831,
				"z": 0.4003788509,
				"element": "C" 
			},
			{
				"x": -3.4081732583,
				"y": 1.9375315992,
				"z": -0.0058296377,
				"element": "S" 
			},
			{
				"x": -2.5470501009,
				"y": 1.2044981556,
				"z": -1.367070215,
				"element": "C" 
			},
			{
				"x": -3.1535627961,
				"y": 0.2582270298,
				"z": -2.1663006913,
				"element": "N" 
			},
			{
				"x": -1.3020513349,
				"y": 1.5605231813,
				"z": -1.4834407354,
				"element": "N" 
			},
			{
				"x": -0.6962186853,
				"y": -2.6028554366,
				"z": 1.0327969109,
				"element": "H" 
			},
			{
				"x": -2.0093955147,
				"y": -1.7121771147,
				"z": 1.872040109,
				"element": "H" 
			},
			{
				"x": -1.7941489194,
				"y": -1.5611483029,
				"z": 0.0978089315,
				"element": "H" 
			},
			{
				"x": 1.0042270456,
				"y": 1.3481861825,
				"z": 1.6819021852,
				"element": "H" 
			},
			{
				"x": 2.3889932815,
				"y": 0.4553392846,
				"z": 1.0449390942,
				"element": "H" 
			},
			{
				"x": 2.531105902,
				"y": 2.3368582737,
				"z": -0.3210060553,
				"element": "H" 
			},
			{
				"x": 1.5419218768,
				"y": 1.2779585076,
				"z": -1.3205826116,
				"element": "H" 
			},
			{
				"x": 0.5852023221,
				"y": 3.6095314132,
				"z": 0.4376154184,
				"element": "H" 
			},
			{
				"x": 0.6616311555,
				"y": 3.5702793802,
				"z": -1.3209133849,
				"element": "H" 
			},
			{
				"x": -1.8842559419,
				"y": 3.4451889345,
				"z": 1.2457404695,
				"element": "H" 
			},
			{
				"x": -4.1375279067,
				"y": 0.3872236543,
				"z": -2.3566670959,
				"element": "H" 
			},
			{
				"x": -2.6045731952,
				"y": 0.0398000107,
				"z": -2.9883085645,
				"element": "H" 
			}
		],
		 "valence_orbital": [ 
			{
				"type": "occ",
				"energy": -0.28706,
				"method": "rhf"
			},
			{
				"type": "occ",
				"energy": -0.26892,
				"method": "rhf"
			},
			{
				"type": "occ",
				"energy": -0.26739,
				"method": "rhf"
			},
			{
				"type": "occ",
				"energy": -0.25669,
				"method": "rhf"
			},
			{
				"type": "occ",
				"energy": -0.2071,
				"method": "rhf"
			},
			{
				"type": "unocc",
				"energy": -0.00292,
				"method": "rhf"
			},
			{
				"type": "unocc",
				"energy": 0.01551,
				"method": "rhf"
			},
			{
				"type": "unocc",
				"energy": 0.02715,
				"method": "rhf"
			},
			{
				"type": "unocc",
				"energy": 0.06299,
				"method": "rhf"
			},
			{
				"type": "unocc",
				"energy": 0.07207,
				"method": "rhf"
			}
		],
		"cosmo_sigma_profile": { 
			"-0.025": 0.0,
			"-0.024": 0.0,
			"-0.023": 0.0,
			"-0.022": 0.0,
			"-0.021": 0.0,
			"-0.02": 0.0,
			"-0.019": 0.0,
			"-0.018": 0.0,
			"-0.017": 0.0,
			"-0.016": 0.0,
			"-0.015": 0.290650633579,
			"-0.014": 1.43347004851,
			"-0.013": 3.05992258065,
			"-0.012": 1.97349763845,
			"-0.011": 2.54883329257,
			"-0.01": 2.61766444175,
			"-0.009": 2.46399987228,
			"-0.008": 3.10392301054,
			"-0.007": 3.8910290792,
			"-0.006": 8.55905376442,
			"-0.005": 10.7146349994,
			"-0.004": 20.8005216457,
			"-0.003": 23.4681319647,
			"-0.002": 22.4790188395,
			"-0.001": 17.8150027193,
			"0.0": 14.8299667034,
			"0.001": 12.7789639254,
			"0.002": 14.9632573255,
			"0.003": 12.9174799762,
			"0.004": 13.1685456263,
			"0.005": 9.83166256873,
			"0.006": 6.58878201206,
			"0.007": 5.4890760698,
			"0.008": 4.80219383798,
			"0.009": 4.13725893471,
			"0.01": 2.63831784347,
			"0.011": 3.83840505645,
			"0.012": 6.50374862754,
			"0.013": 3.30409433237,
			"0.014": 0.524185573202,
			"0.015": 0.308521899313,
			"0.016": 0.0,
			"0.017": 0.0,
			"0.018": 0.0,
			"0.019": 0.0,
			"0.02": 0.0,
			"0.021": 0.0,
			"0.022": 0.0,
			"0.023": 0.0,
			"0.024": 0.0,
			"0.025": 0.0
		}
	}
}
