{
	 "smiles": "N#CC1=CC2=C(OCO2)C=C1", 
	 "Tm": 366.65, 
	 "num_atms": 16, 
	 "gaussian": { 
		 "optdone": 1, 
		 "sigma_profile": "yes", 
		 "theory": "DFT", 
		 "functional": "B3LYP", 
		 "basiset": "6-31G**", 
		 "properties": { 
			 "R2extent": 2150.8214, 
			 "electric_dipole_moment_norm": 5.32943328601, 
			 "electric_quadrupole_moment_norm": 11.3267488402, 
			 "total_energy": -513.018188247, 
			 "HOMO_LUMO_gap": 0.18447, 
			 "cosmo_polarized_energy": -10.67, 
			 "cosmo_cavitation_energy": 21.57, 
			 "cosmo_dispersion_energy": -15.98, 
			 "cosmo_repulsion_energy": 1.28, 
			 "cosmo_total_nonelectrostatic_energy": 6.87, 
			 "SMD_solvation_energy": 5.91 
		},
		"coords": [
			{
				"x": -1.4649646024,
				"y": -2.2136858829,
				"z": -2.5825395348,
				"element": "N" 
			},
			{
				"x": -0.922932823,
				"y": -1.7202746411,
				"z": -1.6785775773,
				"element": "C" 
			},
			{
				"x": -0.2550997464,
				"y": -1.1139151156,
				"z": -0.565856569,
				"element": "C" 
			},
			{
				"x": -0.1611582242,
				"y": -1.8258078243,
				"z": 0.6571013541,
				"element": "C" 
			},
			{
				"x": 0.4919477426,
				"y": -1.1908059675,
				"z": 1.6889157986,
				"element": "C" 
			},
			{
				"x": 1.0368320596,
				"y": 0.0874018762,
				"z": 1.5484345011,
				"element": "C" 
			},
			{
				"x": 1.6223881661,
				"y": 0.4713980691,
				"z": 2.7211974512,
				"element": "O" 
			},
			{
				"x": 1.4363397224,
				"y": -0.6161891863,
				"z": 3.640567744,
				"element": "C" 
			},
			{
				"x": 0.7185762965,
				"y": -1.6523033995,
				"z": 2.9589892359,
				"element": "O" 
			},
			{
				"x": 0.9541549109,
				"y": 0.794971825,
				"z": 0.3637714873,
				"element": "C" 
			},
			{
				"x": 0.2933846139,
				"y": 0.1705394483,
				"z": -0.7042422213,
				"element": "C" 
			},
			{
				"x": -0.5830563083,
				"y": -2.8170545543,
				"z": 0.7678151146,
				"element": "H" 
			},
			{
				"x": 2.4147163508,
				"y": -0.9947054433,
				"z": 3.95857922,
				"element": "H" 
			},
			{
				"x": 0.8523295673,
				"y": -0.2690685147,
				"z": 4.5008433733,
				"element": "H" 
			},
			{
				"x": 1.3811963863,
				"y": 1.786233807,
				"z": 0.2678239268,
				"element": "H" 
			},
			{
				"x": 0.202145888,
				"y": 0.684365504,
				"z": -1.6544233044,
				"element": "H" 
			}
		],
		 "valence_orbital": [ 
			{
				"type": "occ",
				"energy": -0.35417,
				"method": "rhf"
			},
			{
				"type": "occ",
				"energy": -0.32772,
				"method": "rhf"
			},
			{
				"type": "occ",
				"energy": -0.31588,
				"method": "rhf"
			},
			{
				"type": "occ",
				"energy": -0.26896,
				"method": "rhf"
			},
			{
				"type": "occ",
				"energy": -0.22828,
				"method": "rhf"
			},
			{
				"type": "unocc",
				"energy": -0.04381,
				"method": "rhf"
			},
			{
				"type": "unocc",
				"energy": -0.01996,
				"method": "rhf"
			},
			{
				"type": "unocc",
				"energy": 0.03884,
				"method": "rhf"
			},
			{
				"type": "unocc",
				"energy": 0.07914,
				"method": "rhf"
			},
			{
				"type": "unocc",
				"energy": 0.08319,
				"method": "rhf"
			}
		],
		"cosmo_sigma_profile": { 
			"-0.025": 0.0,
			"-0.024": 0.0,
			"-0.023": 0.0,
			"-0.022": 0.0,
			"-0.021": 0.0,
			"-0.02": 0.0,
			"-0.019": 0.0,
			"-0.018": 0.0,
			"-0.017": 0.0,
			"-0.016": 0.0,
			"-0.015": 0.0,
			"-0.014": 0.0,
			"-0.013": 0.0,
			"-0.012": 0.0,
			"-0.011": 0.0,
			"-0.01": 0.0,
			"-0.009": 1.62471641168,
			"-0.008": 12.2954529668,
			"-0.007": 12.8307320812,
			"-0.006": 11.0820445289,
			"-0.005": 8.45001941777,
			"-0.004": 7.62410049853,
			"-0.003": 7.91381549347,
			"-0.002": 8.64988612137,
			"-0.001": 12.1396344826,
			"0.0": 14.68889734,
			"0.001": 17.128874165,
			"0.002": 13.1817654434,
			"0.003": 5.19592785358,
			"0.004": 5.11426921277,
			"0.005": 4.01001702845,
			"0.006": 4.85401409347,
			"0.007": 5.65028271604,
			"0.008": 6.19691899439,
			"0.009": 5.38232814291,
			"0.01": 3.27271832312,
			"0.011": 3.05418357803,
			"0.012": 2.39732628316,
			"0.013": 2.04880795892,
			"0.014": 0.28474640942,
			"0.015": 0.0,
			"0.016": 0.0,
			"0.017": 0.0,
			"0.018": 0.0,
			"0.019": 0.0,
			"0.02": 0.0,
			"0.021": 0.0,
			"0.022": 0.0,
			"0.023": 0.0,
			"0.024": 0.0,
			"0.025": 0.0
		}
	}
}
