{
	 "smiles": "NS(=O)(=O)C1=C(C=CC=C1Cl)[N+]([O-])=O", 
	 "Tm": 417.15, 
	 "num_atms": 19, 
	 "gaussian": { 
		 "optdone": 1, 
		 "sigma_profile": "yes", 
		 "theory": "DFT", 
		 "functional": "B3LYP", 
		 "basiset": "6-31G**", 
		 "properties": { 
			 "R2extent": 2971.8919, 
			 "electric_dipole_moment_norm": 4.87993941048, 
			 "electric_quadrupole_moment_norm": 20.2960571481, 
			 "total_energy": -1500.23035654, 
			 "HOMO_LUMO_gap": 0.17685, 
			 "cosmo_polarized_energy": -17.8, 
			 "cosmo_cavitation_energy": 26.79, 
			 "cosmo_dispersion_energy": -20.53, 
			 "cosmo_repulsion_energy": 1.56, 
			 "cosmo_total_nonelectrostatic_energy": 7.81, 
			 "SMD_solvation_energy": 6.16 
		},
		"coords": [
			{
				"x": 1.0434957034,
				"y": -0.6672471783,
				"z": -1.8915171959,
				"element": "N" 
			},
			{
				"x": 0.3821541054,
				"y": 0.7828067749,
				"z": -1.3763168999,
				"element": "S" 
			},
			{
				"x": -0.8239728551,
				"y": 1.1616938526,
				"z": -2.1117218201,
				"element": "O" 
			},
			{
				"x": 1.4942869517,
				"y": 1.7193765321,
				"z": -1.2733064526,
				"element": "O" 
			},
			{
				"x": -0.2177920381,
				"y": 0.3186103159,
				"z": 0.2900127941,
				"element": "C" 
			},
			{
				"x": -1.5259725195,
				"y": -0.1811357956,
				"z": 0.4365170068,
				"element": "C" 
			},
			{
				"x": -2.1350624122,
				"y": -0.346082838,
				"z": 1.6735646878,
				"element": "C" 
			},
			{
				"x": -1.4098479416,
				"y": -0.0561464738,
				"z": 2.8270160223,
				"element": "C" 
			},
			{
				"x": -0.0955834725,
				"y": 0.3785535662,
				"z": 2.7261158094,
				"element": "C" 
			},
			{
				"x": 0.5023191652,
				"y": 0.5643077883,
				"z": 1.4714161708,
				"element": "C" 
			},
			{
				"x": 2.1677052011,
				"y": 1.0789802631,
				"z": 1.4932667747,
				"element": "Cl" 
			},
			{
				"x": -2.3214319164,
				"y": -0.6776764165,
				"z": -0.7109639245,
				"element": "N" 
			},
			{
				"x": -3.508356463,
				"y": -0.3872193758,
				"z": -0.7353711696,
				"element": "O" 
			},
			{
				"x": -1.7549757423,
				"y": -1.4306875205,
				"z": -1.503245097,
				"element": "O" 
			},
			{
				"x": 0.3238651146,
				"y": -1.2861474195,
				"z": -2.2582198255,
				"element": "H" 
			},
			{
				"x": 1.7980616075,
				"y": -0.479973366,
				"z": -2.5468051206,
				"element": "H" 
			},
			{
				"x": -3.1528729938,
				"y": -0.7140247729,
				"z": 1.7147733176,
				"element": "H" 
			},
			{
				"x": -1.8657490511,
				"y": -0.1850507404,
				"z": 3.8029938526,
				"element": "H" 
			},
			{
				"x": 0.4899295567,
				"y": 0.5863628043,
				"z": 3.6142910697,
				"element": "H" 
			}
		],
		 "valence_orbital": [ 
			{
				"type": "occ",
				"energy": -0.3196,
				"method": "rhf"
			},
			{
				"type": "occ",
				"energy": -0.31472,
				"method": "rhf"
			},
			{
				"type": "occ",
				"energy": -0.30034,
				"method": "rhf"
			},
			{
				"type": "occ",
				"energy": -0.28978,
				"method": "rhf"
			},
			{
				"type": "occ",
				"energy": -0.28118,
				"method": "rhf"
			},
			{
				"type": "unocc",
				"energy": -0.10433,
				"method": "rhf"
			},
			{
				"type": "unocc",
				"energy": -0.06409,
				"method": "rhf"
			},
			{
				"type": "unocc",
				"energy": -0.0433,
				"method": "rhf"
			},
			{
				"type": "unocc",
				"energy": -0.00633,
				"method": "rhf"
			},
			{
				"type": "unocc",
				"energy": 0.05507,
				"method": "rhf"
			}
		],
		"cosmo_sigma_profile": { 
			"-0.025": 0.0,
			"-0.024": 0.0,
			"-0.023": 0.0,
			"-0.022": 0.0,
			"-0.021": 0.0,
			"-0.02": 0.0,
			"-0.019": 0.0,
			"-0.018": 0.0,
			"-0.017": 0.0,
			"-0.016": 0.708658082101,
			"-0.015": 1.26126381022,
			"-0.014": 2.1359262022,
			"-0.013": 2.12627447062,
			"-0.012": 2.37802297434,
			"-0.011": 1.6727137919,
			"-0.01": 2.22839586813,
			"-0.009": 8.8538152611,
			"-0.008": 9.01727476184,
			"-0.007": 7.598258615,
			"-0.006": 5.56369881351,
			"-0.005": 6.95789467535,
			"-0.004": 9.05637015854,
			"-0.003": 12.1538872582,
			"-0.002": 16.3353112781,
			"-0.001": 17.2200620715,
			"0.0": 13.5265353504,
			"0.001": 8.84934084217,
			"0.002": 10.2296012256,
			"0.003": 13.0683583483,
			"0.004": 8.73419095316,
			"0.005": 7.64053090346,
			"0.006": 10.3080546872,
			"0.007": 10.1794948851,
			"0.008": 8.13840730996,
			"0.009": 8.00541384153,
			"0.01": 9.34191561553,
			"0.011": 4.15833657598,
			"0.012": 0.0,
			"0.013": 0.0,
			"0.014": 0.0,
			"0.015": 0.0,
			"0.016": 0.0,
			"0.017": 0.0,
			"0.018": 0.0,
			"0.019": 0.0,
			"0.02": 0.0,
			"0.021": 0.0,
			"0.022": 0.0,
			"0.023": 0.0,
			"0.024": 0.0,
			"0.025": 0.0
		}
	}
}
