{
	 "smiles": "COC1=CC=C(F)C(CBr)=C1F", 
	 "Tm": 328.15, 
	 "num_atms": 19, 
	 "gaussian": { 
		 "optdone": 1, 
		 "sigma_profile": "yes", 
		 "theory": "DFT", 
		 "functional": "B3LYP", 
		 "basiset": "6-31G**", 
		 "properties": { 
			 "R2extent": 3440.9358, 
			 "electric_dipole_moment_norm": 4.27989161545, 
			 "electric_quadrupole_moment_norm": 11.0885954665, 
			 "total_energy": -3155.35161848, 
			 "HOMO_LUMO_gap": 0.18479, 
			 "cosmo_polarized_energy": -8.24, 
			 "cosmo_cavitation_energy": 26.4, 
			 "cosmo_dispersion_energy": -19.23, 
			 "cosmo_repulsion_energy": 1.51, 
			 "cosmo_total_nonelectrostatic_energy": 8.67, 
			 "SMD_solvation_energy": 5.0 
		},
		"coords": [
			{
				"x": -3.7718933417,
				"y": 1.9575398959,
				"z": -1.5171972834,
				"element": "C" 
			},
			{
				"x": -2.3842636074,
				"y": 2.1466553786,
				"z": -1.2843623492,
				"element": "O" 
			},
			{
				"x": -1.7333483526,
				"y": 1.2084674456,
				"z": -0.5455550299,
				"element": "C" 
			},
			{
				"x": -2.3047803807,
				"y": 0.0690673956,
				"z": 0.026928224,
				"element": "C" 
			},
			{
				"x": -1.5241725085,
				"y": -0.8210441764,
				"z": 0.7748702981,
				"element": "C" 
			},
			{
				"x": -0.1756043284,
				"y": -0.5651941546,
				"z": 0.9386404516,
				"element": "C" 
			},
			{
				"x": 0.5810568401,
				"y": -1.4163516864,
				"z": 1.6636730792,
				"element": "F" 
			},
			{
				"x": 0.4467751051,
				"y": 0.5632207078,
				"z": 0.3859948674,
				"element": "C" 
			},
			{
				"x": 1.8982477409,
				"y": 0.8288220825,
				"z": 0.5743387855,
				"element": "C" 
			},
			{
				"x": 3.0125684059,
				"y": -0.0223285541,
				"z": -0.8582841432,
				"element": "Br" 
			},
			{
				"x": -0.3587952454,
				"y": 1.4260984945,
				"z": -0.352365547,
				"element": "C" 
			},
			{
				"x": 0.1950142466,
				"y": 2.522681719,
				"z": -0.8984220178,
				"element": "F" 
			},
			{
				"x": -4.0907479097,
				"y": 2.8046738589,
				"z": -2.1255649269,
				"element": "H" 
			},
			{
				"x": -4.3419757162,
				"y": 1.9510642869,
				"z": -0.5791557167,
				"element": "H" 
			},
			{
				"x": -3.9661043117,
				"y": 1.0258845001,
				"z": -2.0639660541,
				"element": "H" 
			},
			{
				"x": -3.36058183,
				"y": -0.135347516,
				"z": -0.1006066037,
				"element": "H" 
			},
			{
				"x": -1.9597067038,
				"y": -1.7056284264,
				"z": 1.2249483669,
				"element": "H" 
			},
			{
				"x": 2.2731390633,
				"y": 0.3990305037,
				"z": 1.499025633,
				"element": "H" 
			},
			{
				"x": 2.1335728342,
				"y": 1.887288245,
				"z": 0.5083599662,
				"element": "H" 
			}
		],
		 "valence_orbital": [ 
			{
				"type": "occ",
				"energy": -0.32421,
				"method": "rhf"
			},
			{
				"type": "occ",
				"energy": -0.27458,
				"method": "rhf"
			},
			{
				"type": "occ",
				"energy": -0.26777,
				"method": "rhf"
			},
			{
				"type": "occ",
				"energy": -0.25679,
				"method": "rhf"
			},
			{
				"type": "occ",
				"energy": -0.22751,
				"method": "rhf"
			},
			{
				"type": "unocc",
				"energy": -0.04272,
				"method": "rhf"
			},
			{
				"type": "unocc",
				"energy": -0.00112,
				"method": "rhf"
			},
			{
				"type": "unocc",
				"energy": 0.02601,
				"method": "rhf"
			},
			{
				"type": "unocc",
				"energy": 0.06579,
				"method": "rhf"
			},
			{
				"type": "unocc",
				"energy": 0.09246,
				"method": "rhf"
			}
		],
		"cosmo_sigma_profile": { 
			"-0.025": 0.0,
			"-0.024": 0.0,
			"-0.023": 0.0,
			"-0.022": 0.0,
			"-0.021": 0.0,
			"-0.02": 0.0,
			"-0.019": 0.0,
			"-0.018": 0.0,
			"-0.017": 0.0,
			"-0.016": 0.0,
			"-0.015": 0.0,
			"-0.014": 0.0,
			"-0.013": 0.0,
			"-0.012": 0.0,
			"-0.011": 0.0,
			"-0.01": 0.0,
			"-0.009": 0.0762694461458,
			"-0.008": 4.02812461816,
			"-0.007": 8.26289289004,
			"-0.006": 14.4641298289,
			"-0.005": 15.6399411465,
			"-0.004": 15.0854613377,
			"-0.003": 12.6368058153,
			"-0.002": 8.82868703387,
			"-0.001": 12.0891128674,
			"0.0": 15.3487771544,
			"0.001": 19.7643280364,
			"0.002": 17.7647376117,
			"0.003": 20.5116123624,
			"0.004": 19.4459068642,
			"0.005": 10.9394711238,
			"0.006": 12.7848032172,
			"0.007": 2.13529893179,
			"0.008": 1.79741689415,
			"0.009": 1.70559251359,
			"0.01": 1.19881677113,
			"0.011": 0.00304125227994,
			"0.012": 0.0,
			"0.013": 0.0,
			"0.014": 0.0,
			"0.015": 0.0,
			"0.016": 0.0,
			"0.017": 0.0,
			"0.018": 0.0,
			"0.019": 0.0,
			"0.02": 0.0,
			"0.021": 0.0,
			"0.022": 0.0,
			"0.023": 0.0,
			"0.024": 0.0,
			"0.025": 0.0
		}
	}
}
