{
	 "smiles": "NNC(=O)C1COC2=C(O1)C=CC=C2", 
	 "Tm": 385.15, 
	 "num_atms": 24, 
	 "gaussian": { 
		 "optdone": 1, 
		 "sigma_profile": "yes", 
		 "theory": "DFT", 
		 "functional": "B3LYP", 
		 "basiset": "6-31G**", 
		 "properties": { 
			 "R2extent": 3251.4246, 
			 "electric_dipole_moment_norm": 1.4994939513, 
			 "electric_quadrupole_moment_norm": 4.01557972901, 
			 "total_energy": -684.120171319, 
			 "HOMO_LUMO_gap": 0.21298, 
			 "cosmo_polarized_energy": -13.62, 
			 "cosmo_cavitation_energy": 27.75, 
			 "cosmo_dispersion_energy": -20.37, 
			 "cosmo_repulsion_energy": 1.62, 
			 "cosmo_total_nonelectrostatic_energy": 9.0, 
			 "SMD_solvation_energy": 5.88 
		},
		"coords": [
			{
				"x": 0.1056890386,
				"y": -0.9405422681,
				"z": 2.27143687,
				"element": "N" 
			},
			{
				"x": 0.0912439393,
				"y": -0.1643013514,
				"z": 1.0965799845,
				"element": "N" 
			},
			{
				"x": 1.1700292591,
				"y": -0.0810605655,
				"z": 0.2802882696,
				"element": "C" 
			},
			{
				"x": 2.2098455467,
				"y": -0.705267603,
				"z": 0.4599050828,
				"element": "O" 
			},
			{
				"x": 1.0419208026,
				"y": 0.9105854591,
				"z": -0.8892909159,
				"element": "C" 
			},
			{
				"x": 1.4891838205,
				"y": 0.2683008784,
				"z": -2.1984064113,
				"element": "C" 
			},
			{
				"x": 0.5661768852,
				"y": -0.7396887041,
				"z": -2.6052684866,
				"element": "O" 
			},
			{
				"x": -0.7393862324,
				"y": -0.3156439211,
				"z": -2.6001870698,
				"element": "C" 
			},
			{
				"x": -1.1494951923,
				"y": 0.7763081944,
				"z": -1.8204998082,
				"element": "C" 
			},
			{
				"x": -0.2707847639,
				"y": 1.4694110136,
				"z": -1.0083322913,
				"element": "O" 
			},
			{
				"x": -2.4816785337,
				"y": 1.1891842484,
				"z": -1.8410768024,
				"element": "C" 
			},
			{
				"x": -3.4110370492,
				"y": 0.5048807824,
				"z": -2.6234772255,
				"element": "C" 
			},
			{
				"x": -3.0088108581,
				"y": -0.596377852,
				"z": -3.3845328228,
				"element": "C" 
			},
			{
				"x": -1.6747320412,
				"y": -1.0005396242,
				"z": -3.3770435955,
				"element": "C" 
			},
			{
				"x": 0.0725125574,
				"y": -1.9211223183,
				"z": 1.9915930711,
				"element": "H" 
			},
			{
				"x": 1.0245537289,
				"y": -0.8138170947,
				"z": 2.6967627318,
				"element": "H" 
			},
			{
				"x": -0.6940005691,
				"y": 0.4573374667,
				"z": 0.974317648,
				"element": "H" 
			},
			{
				"x": 1.7051505456,
				"y": 1.7524413471,
				"z": -0.6601520716,
				"element": "H" 
			},
			{
				"x": 1.5710577133,
				"y": 1.0377026487,
				"z": -2.9774130695,
				"element": "H" 
			},
			{
				"x": 2.4511812668,
				"y": -0.2229142009,
				"z": -2.0526741094,
				"element": "H" 
			},
			{
				"x": -2.7676304994,
				"y": 2.0440780987,
				"z": -1.2360373059,
				"element": "H" 
			},
			{
				"x": -4.4465691146,
				"y": 0.8300551761,
				"z": -2.6337712238,
				"element": "H" 
			},
			{
				"x": -3.7297729312,
				"y": -1.1354687715,
				"z": -3.9910260616,
				"element": "H" 
			},
			{
				"x": -1.3307473188,
				"y": -1.844441039,
				"z": -3.9663943866,
				"element": "H" 
			}
		],
		 "valence_orbital": [ 
			{
				"type": "occ",
				"energy": -0.29006,
				"method": "rhf"
			},
			{
				"type": "occ",
				"energy": -0.26501,
				"method": "rhf"
			},
			{
				"type": "occ",
				"energy": -0.26143,
				"method": "rhf"
			},
			{
				"type": "occ",
				"energy": -0.23943,
				"method": "rhf"
			},
			{
				"type": "occ",
				"energy": -0.21726,
				"method": "rhf"
			},
			{
				"type": "unocc",
				"energy": -0.00428,
				"method": "rhf"
			},
			{
				"type": "unocc",
				"energy": 0.00945,
				"method": "rhf"
			},
			{
				"type": "unocc",
				"energy": 0.01618,
				"method": "rhf"
			},
			{
				"type": "unocc",
				"energy": 0.07214,
				"method": "rhf"
			},
			{
				"type": "unocc",
				"energy": 0.08543,
				"method": "rhf"
			}
		],
		"cosmo_sigma_profile": { 
			"-0.025": 0.0,
			"-0.024": 0.0,
			"-0.023": 0.0,
			"-0.022": 0.0,
			"-0.021": 0.0,
			"-0.02": 0.0,
			"-0.019": 0.0,
			"-0.018": 0.0,
			"-0.017": 0.0,
			"-0.016": 0.0,
			"-0.015": 0.0,
			"-0.014": 0.0,
			"-0.013": 0.248325559703,
			"-0.012": 1.16790266233,
			"-0.011": 3.11609267953,
			"-0.01": 3.88115148755,
			"-0.009": 3.84471943821,
			"-0.008": 5.95018904539,
			"-0.007": 8.53180984365,
			"-0.006": 15.5126562635,
			"-0.005": 15.8613520396,
			"-0.004": 15.1112977363,
			"-0.003": 14.907634727,
			"-0.002": 11.4239788273,
			"-0.001": 10.8379371559,
			"0.0": 11.3155393299,
			"0.001": 10.5811201157,
			"0.002": 11.0627001501,
			"0.003": 14.6441425418,
			"0.004": 13.0857135429,
			"0.005": 13.0551317183,
			"0.006": 7.174190776,
			"0.007": 3.16705459593,
			"0.008": 4.18523353627,
			"0.009": 4.39207358516,
			"0.01": 3.3499848774,
			"0.011": 2.58088627496,
			"0.012": 2.38464230392,
			"0.013": 5.43671992867,
			"0.014": 2.05314860432,
			"0.015": 0.540628811152,
			"0.016": 0.530382135866,
			"0.017": 0.0944826966951,
			"0.018": 0.0,
			"0.019": 0.0,
			"0.02": 0.0,
			"0.021": 0.0,
			"0.022": 0.0,
			"0.023": 0.0,
			"0.024": 0.0,
			"0.025": 0.0
		}
	}
}
