{
	 "smiles": "ClC1=C(Cl)C=C(C=C1)C#N", 
	 "Tm": 345.15, 
	 "num_atms": 13, 
	 "gaussian": { 
		 "optdone": 1, 
		 "sigma_profile": "yes", 
		 "theory": "DFT", 
		 "functional": "B3LYP", 
		 "basiset": "6-31G**", 
		 "properties": { 
			 "R2extent": 2570.7342, 
			 "electric_dipole_moment_norm": 2.60545484897, 
			 "electric_quadrupole_moment_norm": 17.6713722518, 
			 "total_energy": -1243.66573461, 
			 "HOMO_LUMO_gap": 0.19777, 
			 "cosmo_polarized_energy": -8.25, 
			 "cosmo_cavitation_energy": 22.46, 
			 "cosmo_dispersion_energy": -16.31, 
			 "cosmo_repulsion_energy": 1.32, 
			 "cosmo_total_nonelectrostatic_energy": 7.48, 
			 "SMD_solvation_energy": 4.81 
		},
		"coords": [
			{
				"x": 0.8096415189,
				"y": 3.5775513772,
				"z": -1.627567157,
				"element": "Cl" 
			},
			{
				"x": 0.4731707685,
				"y": 1.9123649277,
				"z": -1.2504717062,
				"element": "C" 
			},
			{
				"x": 0.2367725074,
				"y": 1.494806351,
				"z": 0.0691053938,
				"element": "C" 
			},
			{
				"x": 0.2672982294,
				"y": 2.6193248256,
				"z": 1.3992883916,
				"element": "Cl" 
			},
			{
				"x": -0.0296559709,
				"y": 0.1529210808,
				"z": 0.3349996943,
				"element": "C" 
			},
			{
				"x": -0.0616526793,
				"y": -0.7783056862,
				"z": -0.7124708661,
				"element": "C" 
			},
			{
				"x": 0.1749891622,
				"y": -0.358980533,
				"z": -2.0316332261,
				"element": "C" 
			},
			{
				"x": 0.4400669294,
				"y": 0.9794267134,
				"z": -2.2916016722,
				"element": "C" 
			},
			{
				"x": -0.3364818459,
				"y": -2.1569241833,
				"z": -0.430359211,
				"element": "C" 
			},
			{
				"x": -0.5589656573,
				"y": -3.2762659334,
				"z": -0.206635321,
				"element": "N" 
			},
			{
				"x": -0.2113776552,
				"y": -0.1638816559,
				"z": 1.3550650684,
				"element": "H" 
			},
			{
				"x": 0.1502788498,
				"y": -1.0789757553,
				"z": -2.841764329,
				"element": "H" 
			},
			{
				"x": 0.624515843,
				"y": 1.3167384716,
				"z": -3.3051550594,
				"element": "H" 
			}
		],
		 "valence_orbital": [ 
			{
				"type": "occ",
				"energy": -0.34369,
				"method": "rhf"
			},
			{
				"type": "occ",
				"energy": -0.33898,
				"method": "rhf"
			},
			{
				"type": "occ",
				"energy": -0.32801,
				"method": "rhf"
			},
			{
				"type": "occ",
				"energy": -0.2869,
				"method": "rhf"
			},
			{
				"type": "occ",
				"energy": -0.27054,
				"method": "rhf"
			},
			{
				"type": "unocc",
				"energy": -0.07277,
				"method": "rhf"
			},
			{
				"type": "unocc",
				"energy": -0.04878,
				"method": "rhf"
			},
			{
				"type": "unocc",
				"energy": -0.01696,
				"method": "rhf"
			},
			{
				"type": "unocc",
				"energy": 0.02043,
				"method": "rhf"
			},
			{
				"type": "unocc",
				"energy": 0.04691,
				"method": "rhf"
			}
		],
		"cosmo_sigma_profile": { 
			"-0.025": 0.0,
			"-0.024": 0.0,
			"-0.023": 0.0,
			"-0.022": 0.0,
			"-0.021": 0.0,
			"-0.02": 0.0,
			"-0.019": 0.0,
			"-0.018": 0.0,
			"-0.017": 0.0,
			"-0.016": 0.0,
			"-0.015": 0.0,
			"-0.014": 0.0,
			"-0.013": 0.0,
			"-0.012": 0.0,
			"-0.011": 0.0,
			"-0.01": 1.1538489219,
			"-0.009": 5.13458051884,
			"-0.008": 7.13542124717,
			"-0.007": 5.63784902059,
			"-0.006": 5.54478362821,
			"-0.005": 5.42354550372,
			"-0.004": 7.10953663124,
			"-0.003": 11.502120769,
			"-0.002": 17.1111236524,
			"-0.001": 26.7380226044,
			"0.0": 17.1406283153,
			"0.001": 11.6015700931,
			"0.002": 13.6074299021,
			"0.003": 18.3879710375,
			"0.004": 9.55984694489,
			"0.005": 3.96608848629,
			"0.006": 2.38042830835,
			"0.007": 3.1986138904,
			"0.008": 3.38216167954,
			"0.009": 3.30452005115,
			"0.01": 2.72917170895,
			"0.011": 2.59220307857,
			"0.012": 2.3644069102,
			"0.013": 0.47817397625,
			"0.014": 0.0,
			"0.015": 0.0,
			"0.016": 0.0,
			"0.017": 0.0,
			"0.018": 0.0,
			"0.019": 0.0,
			"0.02": 0.0,
			"0.021": 0.0,
			"0.022": 0.0,
			"0.023": 0.0,
			"0.024": 0.0,
			"0.025": 0.0
		}
	}
}
