{
	 "smiles": "CC1=CC=NC=C1C", 
	 "Tm": 262.15, 
	 "num_atms": 17, 
	 "gaussian": { 
		 "optdone": 1, 
		 "sigma_profile": "yes", 
		 "theory": "DFT", 
		 "functional": "B3LYP", 
		 "basiset": "6-31G**", 
		 "properties": { 
			 "R2extent": 1064.9131, 
			 "electric_dipole_moment_norm": 2.84628463791, 
			 "electric_quadrupole_moment_norm": 8.07516988614, 
			 "total_energy": -326.928526762, 
			 "HOMO_LUMO_gap": 0.23014, 
			 "cosmo_polarized_energy": -6.34, 
			 "cosmo_cavitation_energy": 19.96, 
			 "cosmo_dispersion_energy": -14.8, 
			 "cosmo_repulsion_energy": 1.21, 
			 "cosmo_total_nonelectrostatic_energy": 6.37, 
			 "SMD_solvation_energy": 2.18 
		},
		"coords": [
			{
				"x": -0.5079513997,
				"y": -1.2353041578,
				"z": 1.6505591975,
				"element": "C" 
			},
			{
				"x": -0.2264346617,
				"y": -0.8300701233,
				"z": 0.2257959755,
				"element": "C" 
			},
			{
				"x": -1.2663691937,
				"y": -0.6169277211,
				"z": -0.6831719821,
				"element": "C" 
			},
			{
				"x": -0.9752815033,
				"y": -0.2426582552,
				"z": -1.9945885713,
				"element": "C" 
			},
			{
				"x": 0.269593532,
				"y": -0.0699253762,
				"z": -2.4504819901,
				"element": "N" 
			},
			{
				"x": 1.2616374629,
				"y": -0.2751821114,
				"z": -1.5764159813,
				"element": "C" 
			},
			{
				"x": 1.0919367599,
				"y": -0.6520511778,
				"z": -0.2393846701,
				"element": "C" 
			},
			{
				"x": 2.2881537961,
				"y": -0.8555889681,
				"z": 0.6556205834,
				"element": "C" 
			},
			{
				"x": -1.5818403125,
				"y": -1.3256405659,
				"z": 1.8320851593,
				"element": "H" 
			},
			{
				"x": -0.1050197764,
				"y": -0.5038839258,
				"z": 2.3612136023,
				"element": "H" 
			},
			{
				"x": -0.0418264068,
				"y": -2.1980331628,
				"z": 1.8918917034,
				"element": "H" 
			},
			{
				"x": -2.2998161647,
				"y": -0.7419832591,
				"z": -0.3709010427,
				"element": "H" 
			},
			{
				"x": -1.7797919972,
				"y": -0.0746772571,
				"z": -2.7089427287,
				"element": "H" 
			},
			{
				"x": 2.2714518392,
				"y": -0.1308347493,
				"z": -1.9614862984,
				"element": "H" 
			},
			{
				"x": 3.2188830563,
				"y": -0.6704986766,
				"z": 0.1125840961,
				"element": "H" 
			},
			{
				"x": 2.3299047815,
				"y": -1.8777153376,
				"z": 1.051114467,
				"element": "H" 
			},
			{
				"x": 2.2668701882,
				"y": -0.1821251748,
				"z": 1.5210084801,
				"element": "H" 
			}
		],
		 "valence_orbital": [ 
			{
				"type": "occ",
				"energy": -0.37486,
				"method": "rhf"
			},
			{
				"type": "occ",
				"energy": -0.34654,
				"method": "rhf"
			},
			{
				"type": "occ",
				"energy": -0.26668,
				"method": "rhf"
			},
			{
				"type": "occ",
				"energy": -0.24748,
				"method": "rhf"
			},
			{
				"type": "occ",
				"energy": -0.24542,
				"method": "rhf"
			},
			{
				"type": "unocc",
				"energy": -0.01528,
				"method": "rhf"
			},
			{
				"type": "unocc",
				"energy": -0.00122,
				"method": "rhf"
			},
			{
				"type": "unocc",
				"energy": 0.0877,
				"method": "rhf"
			},
			{
				"type": "unocc",
				"energy": 0.11351,
				"method": "rhf"
			},
			{
				"type": "unocc",
				"energy": 0.12763,
				"method": "rhf"
			}
		],
		"cosmo_sigma_profile": { 
			"-0.025": 0.0,
			"-0.024": 0.0,
			"-0.023": 0.0,
			"-0.022": 0.0,
			"-0.021": 0.0,
			"-0.02": 0.0,
			"-0.019": 0.0,
			"-0.018": 0.0,
			"-0.017": 0.0,
			"-0.016": 0.0,
			"-0.015": 0.0,
			"-0.014": 0.0,
			"-0.013": 0.0,
			"-0.012": 0.0,
			"-0.011": 0.0,
			"-0.01": 0.0,
			"-0.009": 0.0,
			"-0.008": 0.0,
			"-0.007": 0.0734265903097,
			"-0.006": 3.46938086616,
			"-0.005": 12.3063017669,
			"-0.004": 20.2002449308,
			"-0.003": 16.1313735656,
			"-0.002": 15.1638183348,
			"-0.001": 18.1616497245,
			"0.0": 18.8633381453,
			"0.001": 8.70250406352,
			"0.002": 7.98999374141,
			"0.003": 11.3215273265,
			"0.004": 8.27453036979,
			"0.005": 3.13711445734,
			"0.006": 1.85540988455,
			"0.007": 1.34414117995,
			"0.008": 1.28576627483,
			"0.009": 1.91098560617,
			"0.01": 1.08480533107,
			"0.011": 0.702890537848,
			"0.012": 1.16157078416,
			"0.013": 0.98153685295,
			"0.014": 0.870134553343,
			"0.015": 1.09416175328,
			"0.016": 0.971218310547,
			"0.017": 0.65296084141,
			"0.018": 0.173672791841,
			"0.019": 0.0,
			"0.02": 0.0,
			"0.021": 0.0,
			"0.022": 0.0,
			"0.023": 0.0,
			"0.024": 0.0,
			"0.025": 0.0
		}
	}
}
