{
	 "smiles": "NCC1=CC2=C(CCC2)NC1=O", 
	 "Tm": 403.15, 
	 "num_atms": 24, 
	 "gaussian": { 
		 "optdone": 1, 
		 "sigma_profile": "yes", 
		 "theory": "DFT", 
		 "functional": "B3LYP", 
		 "basiset": "6-31G**", 
		 "properties": { 
			 "R2extent": 2353.0181, 
			 "electric_dipole_moment_norm": 5.71349434584, 
			 "electric_quadrupole_moment_norm": 9.74365820213, 
			 "total_energy": -534.932817671, 
			 "HOMO_LUMO_gap": 0.16843, 
			 "cosmo_polarized_energy": -14.7, 
			 "cosmo_cavitation_energy": 26.28, 
			 "cosmo_dispersion_energy": -19.79, 
			 "cosmo_repulsion_energy": 1.6, 
			 "cosmo_total_nonelectrostatic_energy": 8.09, 
			 "SMD_solvation_energy": 2.8 
		},
		"coords": [
			{
				"x": 1.2070166878,
				"y": 3.5571174587,
				"z": -0.3322150623,
				"element": "N" 
			},
			{
				"x": 0.7963891445,
				"y": 2.756275038,
				"z": 0.8276054854,
				"element": "C" 
			},
			{
				"x": 0.4989824119,
				"y": 1.2977709414,
				"z": 0.5459180687,
				"element": "C" 
			},
			{
				"x": 1.1777281864,
				"y": 0.2605168401,
				"z": 1.1356804662,
				"element": "C" 
			},
			{
				"x": 0.8551227938,
				"y": -1.0949656401,
				"z": 0.8466372488,
				"element": "C" 
			},
			{
				"x": -0.1485346793,
				"y": -1.3534864568,
				"z": -0.0436052643,
				"element": "C" 
			},
			{
				"x": -0.3545412327,
				"y": -2.8228088432,
				"z": -0.2931530478,
				"element": "C" 
			},
			{
				"x": 0.4471973311,
				"y": -3.4607785439,
				"z": 0.8751278737,
				"element": "C" 
			},
			{
				"x": 1.4769230127,
				"y": -2.3865972259,
				"z": 1.3287067573,
				"element": "C" 
			},
			{
				"x": -0.8241320475,
				"y": -0.3342911391,
				"z": -0.6463227141,
				"element": "N" 
			},
			{
				"x": -0.5724400708,
				"y": 1.0296629411,
				"z": -0.4130379436,
				"element": "C" 
			},
			{
				"x": -1.2408346402,
				"y": 1.8835868253,
				"z": -1.0031272212,
				"element": "O" 
			},
			{
				"x": 0.4409576609,
				"y": 3.5334380079,
				"z": -1.0028650522,
				"element": "H" 
			},
			{
				"x": 1.9992991076,
				"y": 3.1077650678,
				"z": -0.7874899006,
				"element": "H" 
			},
			{
				"x": 1.5744175777,
				"y": 2.8202426607,
				"z": 1.5976521138,
				"element": "H" 
			},
			{
				"x": -0.1019945107,
				"y": 3.2296384536,
				"z": 1.2415963693,
				"element": "H" 
			},
			{
				"x": 1.9710388779,
				"y": 0.485675415,
				"z": 1.8471986484,
				"element": "H" 
			},
			{
				"x": 0.0542261465,
				"y": -3.1062291626,
				"z": -1.2737142253,
				"element": "H" 
			},
			{
				"x": -1.4106647747,
				"y": -3.1171869746,
				"z": -0.2929466116,
				"element": "H" 
			},
			{
				"x": -0.2382282917,
				"y": -3.6748740694,
				"z": 1.7012683886,
				"element": "H" 
			},
			{
				"x": 0.9187061983,
				"y": -4.4044332284,
				"z": 0.5891048997,
				"element": "H" 
			},
			{
				"x": 1.6413165022,
				"y": -2.4098579923,
				"z": 2.4118712645,
				"element": "H" 
			},
			{
				"x": 2.4575343431,
				"y": -2.5515167161,
				"z": 0.8599153473,
				"element": "H" 
			},
			{
				"x": -1.5760857346,
				"y": -0.5154636569,
				"z": -1.3008058885,
				"element": "H" 
			}
		],
		 "valence_orbital": [ 
			{
				"type": "occ",
				"energy": -0.31621,
				"method": "rhf"
			},
			{
				"type": "occ",
				"energy": -0.29254,
				"method": "rhf"
			},
			{
				"type": "occ",
				"energy": -0.25156,
				"method": "rhf"
			},
			{
				"type": "occ",
				"energy": -0.22175,
				"method": "rhf"
			},
			{
				"type": "occ",
				"energy": -0.20276,
				"method": "rhf"
			},
			{
				"type": "unocc",
				"energy": -0.03433,
				"method": "rhf"
			},
			{
				"type": "unocc",
				"energy": 0.01819,
				"method": "rhf"
			},
			{
				"type": "unocc",
				"energy": 0.07907,
				"method": "rhf"
			},
			{
				"type": "unocc",
				"energy": 0.08455,
				"method": "rhf"
			},
			{
				"type": "unocc",
				"energy": 0.10707,
				"method": "rhf"
			}
		],
		"cosmo_sigma_profile": { 
			"-0.025": 0.0,
			"-0.024": 0.0,
			"-0.023": 0.0,
			"-0.022": 0.0,
			"-0.021": 0.0,
			"-0.02": 0.0,
			"-0.019": 0.0,
			"-0.018": 0.0,
			"-0.017": 0.0,
			"-0.016": 0.0214970368736,
			"-0.015": 0.76421942372,
			"-0.014": 1.3268069308,
			"-0.013": 0.98048609989,
			"-0.012": 1.08335788878,
			"-0.011": 0.88395244849,
			"-0.01": 0.731367839544,
			"-0.009": 2.38391417123,
			"-0.008": 2.39217313547,
			"-0.007": 2.36210931978,
			"-0.006": 5.54777599677,
			"-0.005": 10.6918925324,
			"-0.004": 16.9654676132,
			"-0.003": 23.0637265893,
			"-0.002": 26.6230643934,
			"-0.001": 20.714693026,
			"0.0": 20.9748915999,
			"0.001": 16.4603336558,
			"0.002": 8.1587497529,
			"0.003": 8.37011829565,
			"0.004": 4.82948252875,
			"0.005": 2.7087517311,
			"0.006": 1.78348725195,
			"0.007": 2.52301915738,
			"0.008": 1.29147012378,
			"0.009": 2.54439914755,
			"0.01": 1.67640041121,
			"0.011": 1.29485091769,
			"0.012": 2.90801336561,
			"0.013": 2.10421105322,
			"0.014": 4.75230879559,
			"0.015": 3.75938841159,
			"0.016": 0.445309992376,
			"0.017": 0.70402881073,
			"0.018": 1.0663336707,
			"0.019": 0.518460721577,
			"0.02": 0.434707408039,
			"0.021": 0.0532986493376,
			"0.022": 0.0,
			"0.023": 0.0,
			"0.024": 0.0,
			"0.025": 0.0
		}
	}
}
