{
	 "smiles": "FC(F)(F)C(F)(F)N(C(F)(F)C(F)(F)F)C(F)(F)C(F)(F)F", 
	 "Tm": 163.15, 
	 "num_atms": 22, 
	 "gaussian": { 
		 "optdone": 1, 
		 "sigma_profile": "yes", 
		 "theory": "DFT", 
		 "functional": "B3LYP", 
		 "basiset": "6-31G**", 
		 "properties": { 
			 "R2extent": 5656.2761, 
			 "electric_dipole_moment_norm": 0.0962298290552, 
			 "electric_quadrupole_moment_norm": 0.228587554342, 
			 "total_energy": -1780.95303468, 
			 "HOMO_LUMO_gap": 0.36383, 
			 "cosmo_polarized_energy": -1.49, 
			 "cosmo_cavitation_energy": 31.17, 
			 "cosmo_dispersion_energy": -20.67, 
			 "cosmo_repulsion_energy": 1.29, 
			 "cosmo_total_nonelectrostatic_energy": 11.8, 
			 "SMD_solvation_energy": 9.92 
		},
		"coords": [
			{
				"x": -0.2076796284,
				"y": -3.1970313522,
				"z": 1.5683416727,
				"element": "F" 
			},
			{
				"x": 0.3077985676,
				"y": -2.0433531494,
				"z": 2.0082834112,
				"element": "C" 
			},
			{
				"x": -0.6925773211,
				"y": -1.2671850596,
				"z": 2.4386912699,
				"element": "F" 
			},
			{
				"x": 1.1283190341,
				"y": -2.296525473,
				"z": 3.0348446383,
				"element": "F" 
			},
			{
				"x": 1.1301853807,
				"y": -1.3634961426,
				"z": 0.868192358,
				"element": "C" 
			},
			{
				"x": 2.0859628998,
				"y": -2.2533837568,
				"z": 0.5313326477,
				"element": "F" 
			},
			{
				"x": 1.7452493436,
				"y": -0.2813027119,
				"z": 1.3820419256,
				"element": "F" 
			},
			{
				"x": 0.3836685625,
				"y": -1.0031477551,
				"z": -0.3339932023,
				"element": "N" 
			},
			{
				"x": -0.5719222088,
				"y": 0.0957894118,
				"z": -0.2841489845,
				"element": "C" 
			},
			{
				"x": -0.4237423729,
				"y": 0.7416261518,
				"z": 0.8901976989,
				"element": "F" 
			},
			{
				"x": -1.8483435677,
				"y": -0.348990647,
				"z": -0.3485746646,
				"element": "F" 
			},
			{
				"x": -0.3953888631,
				"y": 1.2075441078,
				"z": -1.3674337228,
				"element": "C" 
			},
			{
				"x": -0.7238895615,
				"y": 0.7960937799,
				"z": -2.5939846823,
				"element": "F" 
			},
			{
				"x": -1.193853485,
				"y": 2.231634839,
				"z": -1.0405019477,
				"element": "F" 
			},
			{
				"x": 0.8744083359,
				"y": 1.6298165399,
				"z": -1.3655764925,
				"element": "F" 
			},
			{
				"x": 0.3591052515,
				"y": -1.9352167424,
				"z": -1.4557404085,
				"element": "C" 
			},
			{
				"x": -0.7686922119,
				"y": -1.7345127087,
				"z": -2.1680993744,
				"element": "F" 
			},
			{
				"x": 0.3548587274,
				"y": -3.2124486217,
				"z": -1.0225586308,
				"element": "F" 
			},
			{
				"x": 1.5370277051,
				"y": -1.7928818811,
				"z": -2.4708360535,
				"element": "C" 
			},
			{
				"x": 2.7197313468,
				"y": -2.0556161284,
				"z": -1.9112682491,
				"element": "F" 
			},
			{
				"x": 1.564314861,
				"y": -0.5480048858,
				"z": -2.9643147357,
				"element": "F" 
			},
			{
				"x": 1.3359592045,
				"y": -2.6532078145,
				"z": -3.4766944736,
				"element": "F" 
			}
		],
		 "valence_orbital": [ 
			{
				"type": "occ",
				"energy": -0.42496,
				"method": "rhf"
			},
			{
				"type": "occ",
				"energy": -0.39924,
				"method": "rhf"
			},
			{
				"type": "occ",
				"energy": -0.39605,
				"method": "rhf"
			},
			{
				"type": "occ",
				"energy": -0.38726,
				"method": "rhf"
			},
			{
				"type": "occ",
				"energy": -0.33462,
				"method": "rhf"
			},
			{
				"type": "unocc",
				"energy": 0.02921,
				"method": "rhf"
			},
			{
				"type": "unocc",
				"energy": 0.03245,
				"method": "rhf"
			},
			{
				"type": "unocc",
				"energy": 0.07011,
				"method": "rhf"
			},
			{
				"type": "unocc",
				"energy": 0.07683,
				"method": "rhf"
			},
			{
				"type": "unocc",
				"energy": 0.09576,
				"method": "rhf"
			}
		],
		"cosmo_sigma_profile": { 
			"-0.025": 0.0,
			"-0.024": 0.0,
			"-0.023": 0.0,
			"-0.022": 0.0,
			"-0.021": 0.0,
			"-0.02": 0.0,
			"-0.019": 0.0,
			"-0.018": 0.0,
			"-0.017": 0.0,
			"-0.016": 0.0,
			"-0.015": 0.0,
			"-0.014": 0.0,
			"-0.013": 0.0,
			"-0.012": 0.0,
			"-0.011": 0.0,
			"-0.01": 0.0,
			"-0.009": 0.0343234054836,
			"-0.008": 0.506768942335,
			"-0.007": 0.741930619702,
			"-0.006": 1.31249109437,
			"-0.005": 2.03493680709,
			"-0.004": 3.41768199722,
			"-0.003": 9.69309471156,
			"-0.002": 16.4253366751,
			"-0.001": 29.1811451891,
			"0.0": 64.811005804,
			"0.001": 111.840397777,
			"0.002": 11.2146950121,
			"0.003": 0.0,
			"0.004": 0.0,
			"0.005": 0.0,
			"0.006": 0.0,
			"0.007": 0.0,
			"0.008": 0.0,
			"0.009": 0.0,
			"0.01": 0.0,
			"0.011": 0.0,
			"0.012": 0.0,
			"0.013": 0.0,
			"0.014": 0.0,
			"0.015": 0.0,
			"0.016": 0.0,
			"0.017": 0.0,
			"0.018": 0.0,
			"0.019": 0.0,
			"0.02": 0.0,
			"0.021": 0.0,
			"0.022": 0.0,
			"0.023": 0.0,
			"0.024": 0.0,
			"0.025": 0.0
		}
	}
}
