{
	 "smiles": "NC1=CN2C=NN=C2C=C1", 
	 "Tm": 443.15, 
	 "num_atms": 16, 
	 "gaussian": { 
		 "optdone": 1, 
		 "sigma_profile": "yes", 
		 "theory": "DFT", 
		 "functional": "B3LYP", 
		 "basiset": "6-31G**", 
		 "properties": { 
			 "R2extent": 1934.0169, 
			 "electric_dipole_moment_norm": 7.10408568149, 
			 "electric_quadrupole_moment_norm": 17.1146243538, 
			 "total_energy": -451.221284679, 
			 "HOMO_LUMO_gap": 0.16742, 
			 "cosmo_polarized_energy": -21.32, 
			 "cosmo_cavitation_energy": 20.32, 
			 "cosmo_dispersion_energy": -15.47, 
			 "cosmo_repulsion_energy": 1.23, 
			 "cosmo_total_nonelectrostatic_energy": 6.08, 
			 "SMD_solvation_energy": 2.29 
		},
		"coords": [
			{
				"x": 2.2944241364,
				"y": -3.5777634291,
				"z": -0.5867573673,
				"element": "N" 
			},
			{
				"x": 1.3701881238,
				"y": -2.5845288203,
				"z": -0.2491038169,
				"element": "C" 
			},
			{
				"x": 0.1809118492,
				"y": -2.8763100859,
				"z": 0.3693813137,
				"element": "C" 
			},
			{
				"x": -0.7228266011,
				"y": -1.8541502817,
				"z": 0.5999331468,
				"element": "N" 
			},
			{
				"x": -1.9650745842,
				"y": -1.8179945062,
				"z": 1.1748586828,
				"element": "C" 
			},
			{
				"x": -2.4320028823,
				"y": -0.5820518684,
				"z": 1.1789164033,
				"element": "N" 
			},
			{
				"x": -1.5086236543,
				"y": 0.2364804107,
				"z": 0.6054974704,
				"element": "N" 
			},
			{
				"x": -0.475186901,
				"y": -0.5269476745,
				"z": 0.2544891712,
				"element": "C" 
			},
			{
				"x": 0.7570759993,
				"y": -0.219537383,
				"z": -0.377058187,
				"element": "C" 
			},
			{
				"x": 1.6503998461,
				"y": -1.2226477948,
				"z": -0.6254076398,
				"element": "C" 
			},
			{
				"x": 3.2584007803,
				"y": -3.2720869258,
				"z": -0.5721095248,
				"element": "H" 
			},
			{
				"x": 2.1822969725,
				"y": -4.452924687,
				"z": -0.0923578295,
				"element": "H" 
			},
			{
				"x": -0.1117535372,
				"y": -3.8699644024,
				"z": 0.6854815867,
				"element": "H" 
			},
			{
				"x": -2.4694271699,
				"y": -2.6906072652,
				"z": 1.5619119,
				"element": "H" 
			},
			{
				"x": 0.9537780699,
				"y": 0.8102376789,
				"z": -0.6510251167,
				"element": "H" 
			},
			{
				"x": 2.5909195526,
				"y": -1.0080029654,
				"z": -1.124450193,
				"element": "H" 
			}
		],
		 "valence_orbital": [ 
			{
				"type": "occ",
				"energy": -0.31368,
				"method": "rhf"
			},
			{
				"type": "occ",
				"energy": -0.30491,
				"method": "rhf"
			},
			{
				"type": "occ",
				"energy": -0.242,
				"method": "rhf"
			},
			{
				"type": "occ",
				"energy": -0.23962,
				"method": "rhf"
			},
			{
				"type": "occ",
				"energy": -0.21051,
				"method": "rhf"
			},
			{
				"type": "unocc",
				"energy": -0.04309,
				"method": "rhf"
			},
			{
				"type": "unocc",
				"energy": 0.00802,
				"method": "rhf"
			},
			{
				"type": "unocc",
				"energy": 0.05526,
				"method": "rhf"
			},
			{
				"type": "unocc",
				"energy": 0.0635,
				"method": "rhf"
			},
			{
				"type": "unocc",
				"energy": 0.09297,
				"method": "rhf"
			}
		],
		"cosmo_sigma_profile": { 
			"-0.025": 0.0,
			"-0.024": 0.0,
			"-0.023": 0.0,
			"-0.022": 0.0,
			"-0.021": 0.0,
			"-0.02": 0.0,
			"-0.019": 0.0,
			"-0.018": 0.0,
			"-0.017": 0.0,
			"-0.016": 0.0,
			"-0.015": 0.0,
			"-0.014": 0.236674499262,
			"-0.013": 2.38656392664,
			"-0.012": 3.60176439878,
			"-0.011": 3.55929885376,
			"-0.01": 7.68953500706,
			"-0.009": 6.74570037739,
			"-0.008": 7.26834274681,
			"-0.007": 7.69239604318,
			"-0.006": 6.80508263675,
			"-0.005": 7.15712078745,
			"-0.004": 5.2882072052,
			"-0.003": 6.06911368199,
			"-0.002": 5.42895739121,
			"-0.001": 11.1140403245,
			"0.0": 11.0783897258,
			"0.001": 10.2583819625,
			"0.002": 11.5352216838,
			"0.003": 7.17007885267,
			"0.004": 3.78451093181,
			"0.005": 2.69849191756,
			"0.006": 3.21736611037,
			"0.007": 2.88711013416,
			"0.008": 2.46030218329,
			"0.009": 1.86937608817,
			"0.01": 2.74259494935,
			"0.011": 3.18365150848,
			"0.012": 3.35967442864,
			"0.013": 3.1811979135,
			"0.014": 3.94556200078,
			"0.015": 3.55216721423,
			"0.016": 2.55194338742,
			"0.017": 2.29423488554,
			"0.018": 0.437887857011,
			"0.019": 0.0,
			"0.02": 0.0,
			"0.021": 0.0,
			"0.022": 0.0,
			"0.023": 0.0,
			"0.024": 0.0,
			"0.025": 0.0
		}
	}
}
