{
	 "smiles": "COC1=C(OC)C=C2N=C(O)C=NC2=C1", 
	 "Tm": 540.15, 
	 "num_atms": 25, 
	 "gaussian": { 
		 "optdone": 1, 
		 "sigma_profile": "yes", 
		 "theory": "DFT", 
		 "functional": "B3LYP", 
		 "basiset": "6-31G**", 
		 "properties": { 
			 "R2extent": 4261.7127, 
			 "electric_dipole_moment_norm": 1.87572697374, 
			 "electric_quadrupole_moment_norm": 8.10915153022, 
			 "total_energy": -722.23656394, 
			 "HOMO_LUMO_gap": 0.16493, 
			 "cosmo_polarized_energy": -10.4, 
			 "cosmo_cavitation_energy": 29.34, 
			 "cosmo_dispersion_energy": -21.59, 
			 "cosmo_repulsion_energy": 1.68, 
			 "cosmo_total_nonelectrostatic_energy": 9.43, 
			 "SMD_solvation_energy": 3.95 
		},
		"coords": [
			{
				"x": 0.7261981076,
				"y": 1.4638839124,
				"z": -2.1947752941,
				"element": "C" 
			},
			{
				"x": 0.4388577616,
				"y": 1.8045863701,
				"z": -0.8318827123,
				"element": "O" 
			},
			{
				"x": -0.217950425,
				"y": 0.8276650348,
				"z": -0.1203267483,
				"element": "C" 
			},
			{
				"x": 0.4695927911,
				"y": -0.3617355664,
				"z": 0.2825587474,
				"element": "C" 
			},
			{
				"x": 1.7765370864,
				"y": -0.5693521622,
				"z": -0.0832459599,
				"element": "O" 
			},
			{
				"x": 2.7323234989,
				"y": 0.2920194017,
				"z": 0.5517404458,
				"element": "C" 
			},
			{
				"x": -0.1885205319,
				"y": -1.3370383389,
				"z": 1.0030081116,
				"element": "C" 
			},
			{
				"x": -1.5440637889,
				"y": -1.1665864699,
				"z": 1.3675016176,
				"element": "C" 
			},
			{
				"x": -2.1868893187,
				"y": -2.1376772327,
				"z": 2.0842965148,
				"element": "N" 
			},
			{
				"x": -3.4355741887,
				"y": -1.9013600913,
				"z": 2.3964764604,
				"element": "C" 
			},
			{
				"x": -4.1275818886,
				"y": -2.8196119615,
				"z": 3.1027895098,
				"element": "O" 
			},
			{
				"x": -4.1230711661,
				"y": -0.7031313449,
				"z": 2.0245064234,
				"element": "C" 
			},
			{
				"x": -3.5283282256,
				"y": 0.2415954231,
				"z": 1.3392458668,
				"element": "N" 
			},
			{
				"x": -2.2208477218,
				"y": 0.03440703,
				"z": 0.9935044758,
				"element": "C" 
			},
			{
				"x": -1.5339878282,
				"y": 1.0162581026,
				"z": 0.240048722,
				"element": "C" 
			},
			{
				"x": 1.3610210438,
				"y": 0.5746239298,
				"z": -2.2577385369,
				"element": "H" 
			},
			{
				"x": 1.2500615942,
				"y": 2.3223484748,
				"z": -2.6195867215,
				"element": "H" 
			},
			{
				"x": -0.2021360184,
				"y": 1.2925657569,
				"z": -2.7536078802,
				"element": "H" 
			},
			{
				"x": 2.7320415595,
				"y": 0.1315846946,
				"z": 1.6368896895,
				"element": "H" 
			},
			{
				"x": 3.7068645937,
				"y": 0.0138396809,
				"z": 0.1462468469,
				"element": "H" 
			},
			{
				"x": 2.5261333244,
				"y": 1.3441726076,
				"z": 0.335602942,
				"element": "H" 
			},
			{
				"x": 0.3356565896,
				"y": -2.2395145012,
				"z": 1.2968352196,
				"element": "H" 
			},
			{
				"x": -3.5167202422,
				"y": -3.556791061,
				"z": 3.2649511734,
				"element": "H" 
			},
			{
				"x": -5.1626219339,
				"y": -0.567606151,
				"z": 2.3143249837,
				"element": "H" 
			},
			{
				"x": -2.0566946728,
				"y": 1.9193544619,
				"z": -0.0549638974,
				"element": "H" 
			}
		],
		 "valence_orbital": [ 
			{
				"type": "occ",
				"energy": -0.29277,
				"method": "rhf"
			},
			{
				"type": "occ",
				"energy": -0.26977,
				"method": "rhf"
			},
			{
				"type": "occ",
				"energy": -0.25513,
				"method": "rhf"
			},
			{
				"type": "occ",
				"energy": -0.23938,
				"method": "rhf"
			},
			{
				"type": "occ",
				"energy": -0.22784,
				"method": "rhf"
			},
			{
				"type": "unocc",
				"energy": -0.06291,
				"method": "rhf"
			},
			{
				"type": "unocc",
				"energy": -0.01294,
				"method": "rhf"
			},
			{
				"type": "unocc",
				"energy": 0.01131,
				"method": "rhf"
			},
			{
				"type": "unocc",
				"energy": 0.08059,
				"method": "rhf"
			},
			{
				"type": "unocc",
				"energy": 0.08286,
				"method": "rhf"
			}
		],
		"cosmo_sigma_profile": { 
			"-0.025": 0.0,
			"-0.024": 0.0,
			"-0.023": 0.0,
			"-0.022": 0.0,
			"-0.021": 0.0,
			"-0.02": 0.0,
			"-0.019": 0.0,
			"-0.018": 0.25013004989,
			"-0.017": 1.26009933936,
			"-0.016": 0.546190288996,
			"-0.015": 0.597979552663,
			"-0.014": 0.501930450422,
			"-0.013": 0.79465240202,
			"-0.012": 0.720802149906,
			"-0.011": 0.501479045169,
			"-0.01": 1.14230472054,
			"-0.009": 0.980326405083,
			"-0.008": 1.54015102524,
			"-0.007": 3.93293345615,
			"-0.006": 6.54375983864,
			"-0.005": 12.7001745589,
			"-0.004": 16.5957775853,
			"-0.003": 25.8119411006,
			"-0.002": 25.4026763056,
			"-0.001": 19.2371181851,
			"0.0": 18.2132541855,
			"0.001": 18.0830004136,
			"0.002": 19.4744039843,
			"0.003": 11.2887038911,
			"0.004": 7.58334874899,
			"0.005": 6.9907384147,
			"0.006": 5.59391557862,
			"0.007": 5.24203740951,
			"0.008": 5.65396553886,
			"0.009": 5.27281941124,
			"0.01": 4.88860590904,
			"0.011": 3.27100240545,
			"0.012": 2.09320459413,
			"0.013": 0.658950671659,
			"0.014": 0.656350351844,
			"0.015": 0.27510746693,
			"0.016": 0.0,
			"0.017": 0.0,
			"0.018": 0.0,
			"0.019": 0.0,
			"0.02": 0.0,
			"0.021": 0.0,
			"0.022": 0.0,
			"0.023": 0.0,
			"0.024": 0.0,
			"0.025": 0.0
		}
	}
}
