{
	 "smiles": "NC1=C2C=C3C=CC=CC3=CC2=CC=C1", 
	 "Tm": 389.15, 
	 "num_atms": 26, 
	 "gaussian": { 
		 "optdone": 1, 
		 "sigma_profile": "yes", 
		 "theory": "DFT", 
		 "functional": "B3LYP", 
		 "basiset": "6-31G**", 
		 "properties": { 
			 "R2extent": 3420.8533, 
			 "electric_dipole_moment_norm": 1.67512478938, 
			 "electric_quadrupole_moment_norm": 13.5612085796, 
			 "total_energy": -594.890940043, 
			 "HOMO_LUMO_gap": 0.12437, 
			 "cosmo_polarized_energy": -10.11, 
			 "cosmo_cavitation_energy": 29.0, 
			 "cosmo_dispersion_energy": -21.84, 
			 "cosmo_repulsion_energy": 1.65, 
			 "cosmo_total_nonelectrostatic_energy": 8.81, 
			 "SMD_solvation_energy": 4.23 
		},
		"coords": [
			{
				"x": 2.5855456826,
				"y": 0.858875582,
				"z": -1.3624939538,
				"element": "N" 
			},
			{
				"x": 2.1804561685,
				"y": 0.670296314,
				"z": -0.0366544105,
				"element": "C" 
			},
			{
				"x": 0.7772092867,
				"y": 0.4613827553,
				"z": 0.2468108521,
				"element": "C" 
			},
			{
				"x": -0.1945434272,
				"y": 0.4297655172,
				"z": -0.7598545034,
				"element": "C" 
			},
			{
				"x": -1.5564206023,
				"y": 0.2537694826,
				"z": -0.474454287,
				"element": "C" 
			},
			{
				"x": -2.5529859002,
				"y": 0.2233306676,
				"z": -1.4982050681,
				"element": "C" 
			},
			{
				"x": -3.8774138085,
				"y": 0.0551557625,
				"z": -1.1877096281,
				"element": "C" 
			},
			{
				"x": -4.2862526803,
				"y": -0.0961018402,
				"z": 0.169906578,
				"element": "C" 
			},
			{
				"x": -3.3604666119,
				"y": -0.0781824016,
				"z": 1.1801810048,
				"element": "C" 
			},
			{
				"x": -1.9691076275,
				"y": 0.0937699382,
				"z": 0.8987014223,
				"element": "C" 
			},
			{
				"x": -0.9930587395,
				"y": 0.098597387,
				"z": 1.9028969304,
				"element": "C" 
			},
			{
				"x": 0.3687538348,
				"y": 0.2674817116,
				"z": 1.6210142521,
				"element": "C" 
			},
			{
				"x": 1.3585543396,
				"y": 0.2388963449,
				"z": 2.6513025913,
				"element": "C" 
			},
			{
				"x": 2.6815135258,
				"y": 0.3984014269,
				"z": 2.3356286615,
				"element": "C" 
			},
			{
				"x": 3.0942376941,
				"y": 0.6263214883,
				"z": 0.9961363023,
				"element": "C" 
			},
			{
				"x": 3.545448875,
				"y": 1.1658845442,
				"z": -1.4519420443,
				"element": "H" 
			},
			{
				"x": 1.9703066777,
				"y": 1.4453232645,
				"z": -1.9115933118,
				"element": "H" 
			},
			{
				"x": 0.1006380925,
				"y": 0.5083837857,
				"z": -1.8022262446,
				"element": "H" 
			},
			{
				"x": -2.2386930589,
				"y": 0.3387826629,
				"z": -2.5326405849,
				"element": "H" 
			},
			{
				"x": -4.6247416215,
				"y": 0.036085013,
				"z": -1.9757018066,
				"element": "H" 
			},
			{
				"x": -5.3400730561,
				"y": -0.2277678422,
				"z": 0.3981048608,
				"element": "H" 
			},
			{
				"x": -3.6695403866,
				"y": -0.1964828175,
				"z": 2.215671673,
				"element": "H" 
			},
			{
				"x": -1.2997276218,
				"y": -0.0416191534,
				"z": 2.9371482699,
				"element": "H" 
			},
			{
				"x": 1.0420372269,
				"y": 0.0832927087,
				"z": 3.6784967548,
				"element": "H" 
			},
			{
				"x": 3.4359826252,
				"y": 0.372619499,
				"z": 3.1169678429,
				"element": "H" 
			},
			{
				"x": 4.1489411128,
				"y": 0.7820381985,
				"z": 0.782107847,
				"element": "H" 
			}
		],
		 "valence_orbital": [ 
			{
				"type": "occ",
				"energy": -0.2957,
				"method": "rhf"
			},
			{
				"type": "occ",
				"energy": -0.27697,
				"method": "rhf"
			},
			{
				"type": "occ",
				"energy": -0.23441,
				"method": "rhf"
			},
			{
				"type": "occ",
				"energy": -0.22603,
				"method": "rhf"
			},
			{
				"type": "occ",
				"energy": -0.17905,
				"method": "rhf"
			},
			{
				"type": "unocc",
				"energy": -0.05468,
				"method": "rhf"
			},
			{
				"type": "unocc",
				"energy": -0.00784,
				"method": "rhf"
			},
			{
				"type": "unocc",
				"energy": 0.01631,
				"method": "rhf"
			},
			{
				"type": "unocc",
				"energy": 0.05372,
				"method": "rhf"
			},
			{
				"type": "unocc",
				"energy": 0.07019,
				"method": "rhf"
			}
		],
		"cosmo_sigma_profile": { 
			"-0.025": 0.0,
			"-0.024": 0.0,
			"-0.023": 0.0,
			"-0.022": 0.0,
			"-0.021": 0.0,
			"-0.02": 0.0,
			"-0.019": 0.0,
			"-0.018": 0.0,
			"-0.017": 0.0,
			"-0.016": 0.0,
			"-0.015": 0.0,
			"-0.014": 0.0,
			"-0.013": 0.260226950638,
			"-0.012": 2.13121240905,
			"-0.011": 3.20144759844,
			"-0.01": 2.86082926117,
			"-0.009": 3.26936524825,
			"-0.008": 2.50743610956,
			"-0.007": 2.98470982991,
			"-0.006": 10.6284047031,
			"-0.005": 19.2566510402,
			"-0.004": 17.5563028885,
			"-0.003": 16.9845808482,
			"-0.002": 13.3976231541,
			"-0.001": 11.8425081677,
			"0.0": 8.80472963227,
			"0.001": 12.2029289656,
			"0.002": 12.6482913886,
			"0.003": 14.2424517127,
			"0.004": 33.5657307132,
			"0.005": 25.1253289594,
			"0.006": 10.8933721153,
			"0.007": 2.80237081332,
			"0.008": 0.795897009021,
			"0.009": 1.11477740774,
			"0.01": 0.742640236101,
			"0.011": 0.319934018805,
			"0.012": 0.407124487045,
			"0.013": 1.08944373742,
			"0.014": 0.396326835174,
			"0.015": 0.146347720358,
			"0.016": 0.0,
			"0.017": 0.0,
			"0.018": 0.0,
			"0.019": 0.0,
			"0.02": 0.0,
			"0.021": 0.0,
			"0.022": 0.0,
			"0.023": 0.0,
			"0.024": 0.0,
			"0.025": 0.0
		}
	}
}
