{
	 "smiles": "CC1=C(Br)C2=C(C=CC=C2)C(Br)=C1C", 
	 "Tm": 437.15, 
	 "num_atms": 24, 
	 "gaussian": { 
		 "optdone": 1, 
		 "sigma_profile": "yes", 
		 "theory": "DFT", 
		 "functional": "B3LYP", 
		 "basiset": "6-31G**", 
		 "properties": { 
			 "R2extent": 6061.3991, 
			 "electric_dipole_moment_norm": 0.485178462012, 
			 "electric_quadrupole_moment_norm": 9.47886912822, 
			 "total_energy": -5606.13203223, 
			 "HOMO_LUMO_gap": 0.16674, 
			 "cosmo_polarized_energy": -4.28, 
			 "cosmo_cavitation_energy": 30.11, 
			 "cosmo_dispersion_energy": -23.42, 
			 "cosmo_repulsion_energy": 1.78, 
			 "cosmo_total_nonelectrostatic_energy": 8.48, 
			 "SMD_solvation_energy": 3.01 
		},
		"coords": [
			{
				"x": -2.1038810596,
				"y": -1.2648717327,
				"z": -1.4783750145,
				"element": "C" 
			},
			{
				"x": -1.4352521337,
				"y": -0.8197251228,
				"z": -0.2002809646,
				"element": "C" 
			},
			{
				"x": -0.4400491024,
				"y": 0.1367933963,
				"z": -0.1599647063,
				"element": "C" 
			},
			{
				"x": 0.1464905395,
				"y": 0.9669714749,
				"z": -1.7980182642,
				"element": "Br" 
			},
			{
				"x": 0.1901188435,
				"y": 0.5540741816,
				"z": 1.0505235687,
				"element": "C" 
			},
			{
				"x": -0.2374094907,
				"y": -0.0553528455,
				"z": 2.278442495,
				"element": "C" 
			},
			{
				"x": 0.3838951256,
				"y": 0.3519494511,
				"z": 3.4895395619,
				"element": "C" 
			},
			{
				"x": 1.3736325222,
				"y": 1.3073892527,
				"z": 3.5010386332,
				"element": "C" 
			},
			{
				"x": 1.793532251,
				"y": 1.9063128263,
				"z": 2.294625535,
				"element": "C" 
			},
			{
				"x": 1.2147488173,
				"y": 1.5369859609,
				"z": 1.102487081,
				"element": "C" 
			},
			{
				"x": -1.267797422,
				"y": -1.0406260053,
				"z": 2.2146938524,
				"element": "C" 
			},
			{
				"x": -1.8276773142,
				"y": -1.8482161894,
				"z": 3.873230903,
				"element": "Br" 
			},
			{
				"x": -1.8658989162,
				"y": -1.4297815644,
				"z": 1.0324180616,
				"element": "C" 
			},
			{
				"x": -2.9567982954,
				"y": -2.4706836217,
				"z": 0.9603962578,
				"element": "C" 
			},
			{
				"x": -1.9910290331,
				"y": -2.3446592463,
				"z": -1.6243788363,
				"element": "H" 
			},
			{
				"x": -1.6879846846,
				"y": -0.7617626431,
				"z": -2.3480893138,
				"element": "H" 
			},
			{
				"x": -3.1797743524,
				"y": -1.0584578492,
				"z": -1.4503547999,
				"element": "H" 
			},
			{
				"x": 0.0634064552,
				"y": -0.1060825637,
				"z": 4.4164045829,
				"element": "H" 
			},
			{
				"x": 1.8308975429,
				"y": 1.5993925498,
				"z": 4.441668412,
				"element": "H" 
			},
			{
				"x": 2.5747940348,
				"y": 2.6604183356,
				"z": 2.3044241351,
				"element": "H" 
			},
			{
				"x": 1.5386392113,
				"y": 1.9979491334,
				"z": 0.1782541197,
				"element": "H" 
			},
			{
				"x": -2.6454523715,
				"y": -3.322856398,
				"z": 0.3457390192,
				"element": "H" 
			},
			{
				"x": -3.861203795,
				"y": -2.0594603145,
				"z": 0.4989317965,
				"element": "H" 
			},
			{
				"x": -3.2220473725,
				"y": -2.8465004659,
				"z": 1.9457438848,
				"element": "H" 
			}
		],
		 "valence_orbital": [ 
			{
				"type": "occ",
				"energy": -0.28735,
				"method": "rhf"
			},
			{
				"type": "occ",
				"energy": -0.28449,
				"method": "rhf"
			},
			{
				"type": "occ",
				"energy": -0.26658,
				"method": "rhf"
			},
			{
				"type": "occ",
				"energy": -0.24847,
				"method": "rhf"
			},
			{
				"type": "occ",
				"energy": -0.21749,
				"method": "rhf"
			},
			{
				"type": "unocc",
				"energy": -0.05075,
				"method": "rhf"
			},
			{
				"type": "unocc",
				"energy": -0.02255,
				"method": "rhf"
			},
			{
				"type": "unocc",
				"energy": 0.00494,
				"method": "rhf"
			},
			{
				"type": "unocc",
				"energy": 0.00644,
				"method": "rhf"
			},
			{
				"type": "unocc",
				"energy": 0.02402,
				"method": "rhf"
			}
		],
		"cosmo_sigma_profile": { 
			"-0.025": 0.0,
			"-0.024": 0.0,
			"-0.023": 0.0,
			"-0.022": 0.0,
			"-0.021": 0.0,
			"-0.02": 0.0,
			"-0.019": 0.0,
			"-0.018": 0.0,
			"-0.017": 0.0,
			"-0.016": 0.0,
			"-0.015": 0.0,
			"-0.014": 0.0,
			"-0.013": 0.0,
			"-0.012": 0.0,
			"-0.011": 0.0,
			"-0.01": 0.0,
			"-0.009": 0.0,
			"-0.008": 0.0,
			"-0.007": 0.594322706787,
			"-0.006": 7.60897526351,
			"-0.005": 14.7977753582,
			"-0.004": 17.084081081,
			"-0.003": 17.1044438495,
			"-0.002": 19.1985116768,
			"-0.001": 24.508727723,
			"0.0": 23.6446115934,
			"0.001": 31.9522289406,
			"0.002": 37.8676728128,
			"0.003": 23.0285164526,
			"0.004": 22.0450242645,
			"0.005": 7.84401135821,
			"0.006": 0.0,
			"0.007": 0.0,
			"0.008": 0.0,
			"0.009": 0.0,
			"0.01": 0.0,
			"0.011": 0.0,
			"0.012": 0.0,
			"0.013": 0.0,
			"0.014": 0.0,
			"0.015": 0.0,
			"0.016": 0.0,
			"0.017": 0.0,
			"0.018": 0.0,
			"0.019": 0.0,
			"0.02": 0.0,
			"0.021": 0.0,
			"0.022": 0.0,
			"0.023": 0.0,
			"0.024": 0.0,
			"0.025": 0.0
		}
	}
}
