{
	 "smiles": "C1C2=CC=CC=C2CC2=CC=CC=C12", 
	 "Tm": 383.15, 
	 "num_atms": 26, 
	 "gaussian": { 
		 "optdone": 1, 
		 "sigma_profile": "yes", 
		 "theory": "DFT", 
		 "functional": "B3LYP", 
		 "basiset": "6-31G**", 
		 "properties": { 
			 "R2extent": 2985.7415, 
			 "electric_dipole_moment_norm": 0.340646121364, 
			 "electric_quadrupole_moment_norm": 6.15030820529, 
			 "total_energy": -540.74193471, 
			 "HOMO_LUMO_gap": 0.22741, 
			 "cosmo_polarized_energy": -5.44, 
			 "cosmo_cavitation_energy": 28.28, 
			 "cosmo_dispersion_energy": -21.11, 
			 "cosmo_repulsion_energy": 1.63, 
			 "cosmo_total_nonelectrostatic_energy": 8.8, 
			 "SMD_solvation_energy": 3.96 
		},
		"coords": [
			{
				"x": 1.462245988,
				"y": 0.987409712,
				"z": 0.3369502393,
				"element": "C" 
			},
			{
				"x": 1.473254209,
				"y": 0.2355142259,
				"z": -0.9793370679,
				"element": "C" 
			},
			{
				"x": 2.4701806055,
				"y": 0.4439085757,
				"z": -1.9374653003,
				"element": "C" 
			},
			{
				"x": 2.4692418027,
				"y": -0.2710394142,
				"z": -3.1356635543,
				"element": "C" 
			},
			{
				"x": 1.4576612773,
				"y": -1.1991650891,
				"z": -3.3877275428,
				"element": "C" 
			},
			{
				"x": 0.4549300463,
				"y": -1.4051389816,
				"z": -2.439616849,
				"element": "C" 
			},
			{
				"x": 0.4553235293,
				"y": -0.6985177316,
				"z": -1.2329749923,
				"element": "C" 
			},
			{
				"x": -0.6132349473,
				"y": -0.9172238107,
				"z": -0.1801813142,
				"element": "C" 
			},
			{
				"x": -0.9619349924,
				"y": 0.3591399717,
				"z": 0.5596406363,
				"element": "C" 
			},
			{
				"x": -2.2631044778,
				"y": 0.6232305124,
				"z": 0.9983965633,
				"element": "C" 
			},
			{
				"x": -2.5580696196,
				"y": 1.7976460529,
				"z": 1.6916141449,
				"element": "C" 
			},
			{
				"x": -1.5465890028,
				"y": 2.7258987338,
				"z": 1.943615979,
				"element": "C" 
			},
			{
				"x": -0.2480455858,
				"y": 2.4724985999,
				"z": 1.5004467706,
				"element": "C" 
			},
			{
				"x": 0.0559513146,
				"y": 1.293243245,
				"z": 0.8132405026,
				"element": "C" 
			},
			{
				"x": 2.0475886062,
				"y": 1.909517854,
				"z": 0.2556471489,
				"element": "H" 
			},
			{
				"x": 1.9709826387,
				"y": 0.3754459864,
				"z": 1.1003244218,
				"element": "H" 
			},
			{
				"x": 3.2517783174,
				"y": 1.1748807034,
				"z": -1.7434270013,
				"element": "H" 
			},
			{
				"x": 3.2492787675,
				"y": -0.098138329,
				"z": -3.8716823858,
				"element": "H" 
			},
			{
				"x": 1.4443114943,
				"y": -1.7542149732,
				"z": -4.321439923,
				"element": "H" 
			},
			{
				"x": -0.3397885898,
				"y": -2.1205439388,
				"z": -2.6383230924,
				"element": "H" 
			},
			{
				"x": -1.5101726863,
				"y": -1.3553910434,
				"z": -0.6307677569,
				"element": "H" 
			},
			{
				"x": -0.2486881894,
				"y": -1.6615782934,
				"z": 0.547210753,
				"element": "H" 
			},
			{
				"x": -3.0517917363,
				"y": -0.0966998811,
				"z": 0.7921454757,
				"element": "H" 
			},
			{
				"x": -3.5736163471,
				"y": 1.9904933449,
				"z": 2.0256057426,
				"element": "H" 
			},
			{
				"x": -1.7688164317,
				"y": 3.6467966087,
				"z": 2.4752537868,
				"element": "H" 
			},
			{
				"x": 0.5394240095,
				"y": 3.1991273596,
				"z": 1.6869146154,
				"element": "H" 
			}
		],
		 "valence_orbital": [ 
			{
				"type": "occ",
				"energy": -0.31891,
				"method": "rhf"
			},
			{
				"type": "occ",
				"energy": -0.24391,
				"method": "rhf"
			},
			{
				"type": "occ",
				"energy": -0.23846,
				"method": "rhf"
			},
			{
				"type": "occ",
				"energy": -0.23567,
				"method": "rhf"
			},
			{
				"type": "occ",
				"energy": -0.23183,
				"method": "rhf"
			},
			{
				"type": "unocc",
				"energy": -0.00442,
				"method": "rhf"
			},
			{
				"type": "unocc",
				"energy": 0.00368,
				"method": "rhf"
			},
			{
				"type": "unocc",
				"energy": 0.00821,
				"method": "rhf"
			},
			{
				"type": "unocc",
				"energy": 0.01238,
				"method": "rhf"
			},
			{
				"type": "unocc",
				"energy": 0.09867,
				"method": "rhf"
			}
		],
		"cosmo_sigma_profile": { 
			"-0.025": 0.0,
			"-0.024": 0.0,
			"-0.023": 0.0,
			"-0.022": 0.0,
			"-0.021": 0.0,
			"-0.02": 0.0,
			"-0.019": 0.0,
			"-0.018": 0.0,
			"-0.017": 0.0,
			"-0.016": 0.0,
			"-0.015": 0.0,
			"-0.014": 0.0,
			"-0.013": 0.0,
			"-0.012": 0.0,
			"-0.011": 0.0,
			"-0.01": 0.0,
			"-0.009": 0.0,
			"-0.008": 0.0,
			"-0.007": 0.0,
			"-0.006": 1.77795517644,
			"-0.005": 20.4990814414,
			"-0.004": 27.8954568248,
			"-0.003": 27.6900799396,
			"-0.002": 20.2362536262,
			"-0.001": 19.1949812167,
			"0.0": 13.5051050365,
			"0.001": 13.8292269018,
			"0.002": 12.4957309682,
			"0.003": 13.6790556851,
			"0.004": 16.4705230957,
			"0.005": 14.3804794027,
			"0.006": 16.203557724,
			"0.007": 7.42374376176,
			"0.008": 0.0,
			"0.009": 0.0,
			"0.01": 0.0,
			"0.011": 0.0,
			"0.012": 0.0,
			"0.013": 0.0,
			"0.014": 0.0,
			"0.015": 0.0,
			"0.016": 0.0,
			"0.017": 0.0,
			"0.018": 0.0,
			"0.019": 0.0,
			"0.02": 0.0,
			"0.021": 0.0,
			"0.022": 0.0,
			"0.023": 0.0,
			"0.024": 0.0,
			"0.025": 0.0
		}
	}
}
