{
	 "smiles": "CCC(CO)NCCNC(CC)CO", 
	 "Tm": 362.15, 
	 "num_atms": 38, 
	 "gaussian": { 
		 "optdone": 1, 
		 "sigma_profile": "yes", 
		 "theory": "DFT", 
		 "functional": "B3LYP", 
		 "basiset": "6-31G**", 
		 "properties": { 
			 "R2extent": 4725.2525, 
			 "electric_dipole_moment_norm": 3.86639301158, 
			 "electric_quadrupole_moment_norm": 10.5477968557, 
			 "total_energy": -655.470024415, 
			 "HOMO_LUMO_gap": 0.28782, 
			 "cosmo_polarized_energy": -10.96, 
			 "cosmo_cavitation_energy": 36.28, 
			 "cosmo_dispersion_energy": -25.02, 
			 "cosmo_repulsion_energy": 2.01, 
			 "cosmo_total_nonelectrostatic_energy": 13.27, 
			 "SMD_solvation_energy": 4.87 
		},
		"coords": [
			{
				"x": -0.0280449375,
				"y": -3.8967136072,
				"z": 1.6455243257,
				"element": "C" 
			},
			{
				"x": 0.3277476808,
				"y": -2.4035508258,
				"z": 1.6279992014,
				"element": "C" 
			},
			{
				"x": -0.8019353645,
				"y": -1.4377811313,
				"z": 1.2146145844,
				"element": "C" 
			},
			{
				"x": -1.9905364155,
				"y": -1.4095453271,
				"z": 2.1951278783,
				"element": "C" 
			},
			{
				"x": -3.0233671473,
				"y": -0.5820606648,
				"z": 1.6804580733,
				"element": "O" 
			},
			{
				"x": -1.3505110586,
				"y": -1.6619002367,
				"z": -0.1391887946,
				"element": "N" 
			},
			{
				"x": -0.6759547156,
				"y": -0.9543832543,
				"z": -1.2392622197,
				"element": "C" 
			},
			{
				"x": -1.3297055836,
				"y": 0.3915677876,
				"z": -1.5707363696,
				"element": "C" 
			},
			{
				"x": -1.2840376843,
				"y": 1.3358280745,
				"z": -0.4513003075,
				"element": "N" 
			},
			{
				"x": -1.6633543873,
				"y": 2.7214630374,
				"z": -0.7958767443,
				"element": "C" 
			},
			{
				"x": -2.2157784739,
				"y": 3.4540690421,
				"z": 0.4379540893,
				"element": "C" 
			},
			{
				"x": -3.5544861801,
				"y": 2.9213738353,
				"z": 0.9647708268,
				"element": "C" 
			},
			{
				"x": -0.3985359317,
				"y": 3.4199562443,
				"z": -1.3349543301,
				"element": "C" 
			},
			{
				"x": 0.6734348287,
				"y": 3.2878551432,
				"z": -0.4225049277,
				"element": "O" 
			},
			{
				"x": -0.3559297613,
				"y": -4.2544610574,
				"z": 0.6621113147,
				"element": "H" 
			},
			{
				"x": 0.8468540387,
				"y": -4.4932770079,
				"z": 1.9214859896,
				"element": "H" 
			},
			{
				"x": -0.8213053466,
				"y": -4.1265344522,
				"z": 2.3633658371,
				"element": "H" 
			},
			{
				"x": 0.6810066859,
				"y": -2.1066691382,
				"z": 2.6244288037,
				"element": "H" 
			},
			{
				"x": 1.1769761714,
				"y": -2.2463147106,
				"z": 0.9506438349,
				"element": "H" 
			},
			{
				"x": -0.3817316792,
				"y": -0.4268228639,
				"z": 1.2043795599,
				"element": "H" 
			},
			{
				"x": -2.3699993653,
				"y": -2.4282716152,
				"z": 2.3762481022,
				"element": "H" 
			},
			{
				"x": -1.6798156187,
				"y": -0.9968664517,
				"z": 3.1604765907,
				"element": "H" 
			},
			{
				"x": -3.0716160575,
				"y": -0.8589354086,
				"z": 0.7457278317,
				"element": "H" 
			},
			{
				"x": -1.3988470769,
				"y": -2.6562163847,
				"z": -0.3359070437,
				"element": "H" 
			},
			{
				"x": 0.3918057365,
				"y": -0.7921878694,
				"z": -1.025463182,
				"element": "H" 
			},
			{
				"x": -0.7311700216,
				"y": -1.5812509015,
				"z": -2.1365942351,
				"element": "H" 
			},
			{
				"x": -2.3622522942,
				"y": 0.2095667374,
				"z": -1.9191171365,
				"element": "H" 
			},
			{
				"x": -0.7837224888,
				"y": 0.8282880662,
				"z": -2.4152192231,
				"element": "H" 
			},
			{
				"x": -1.8804507112,
				"y": 0.9901494899,
				"z": 0.2964477345,
				"element": "H" 
			},
			{
				"x": -2.43707156,
				"y": 2.7389582025,
				"z": -1.5858884019,
				"element": "H" 
			},
			{
				"x": -1.4535484661,
				"y": 3.4266330105,
				"z": 1.2251971718,
				"element": "H" 
			},
			{
				"x": -2.3331870713,
				"y": 4.5101956657,
				"z": 0.1659010663,
				"element": "H" 
			},
			{
				"x": -3.4842481547,
				"y": 1.900863902,
				"z": 1.3550523826,
				"element": "H" 
			},
			{
				"x": -4.3185526738,
				"y": 2.9296238524,
				"z": 0.1780253816,
				"element": "H" 
			},
			{
				"x": -3.9195123271,
				"y": 3.552184292,
				"z": 1.7820674943,
				"element": "H" 
			},
			{
				"x": -0.134480101,
				"y": 3.0024441539,
				"z": -2.3226177512,
				"element": "H" 
			},
			{
				"x": -0.590603642,
				"y": 4.4890983703,
				"z": -1.4810038353,
				"element": "H" 
			},
			{
				"x": 0.5722671555,
				"y": 2.3777240012,
				"z": -0.0904735721,
				"element": "H" 
			}
		],
		 "valence_orbital": [ 
			{
				"type": "occ",
				"energy": -0.30294,
				"method": "rhf"
			},
			{
				"type": "occ",
				"energy": -0.26431,
				"method": "rhf"
			},
			{
				"type": "occ",
				"energy": -0.24847,
				"method": "rhf"
			},
			{
				"type": "occ",
				"energy": -0.24088,
				"method": "rhf"
			},
			{
				"type": "occ",
				"energy": -0.22736,
				"method": "rhf"
			},
			{
				"type": "unocc",
				"energy": 0.06046,
				"method": "rhf"
			},
			{
				"type": "unocc",
				"energy": 0.08312,
				"method": "rhf"
			},
			{
				"type": "unocc",
				"energy": 0.08811,
				"method": "rhf"
			},
			{
				"type": "unocc",
				"energy": 0.09617,
				"method": "rhf"
			},
			{
				"type": "unocc",
				"energy": 0.10738,
				"method": "rhf"
			}
		],
		"cosmo_sigma_profile": { 
			"-0.025": 0.0,
			"-0.024": 0.0,
			"-0.023": 0.0,
			"-0.022": 0.0,
			"-0.021": 0.0,
			"-0.02": 0.0,
			"-0.019": 0.0,
			"-0.018": 0.0,
			"-0.017": 0.0,
			"-0.016": 0.0,
			"-0.015": 0.0,
			"-0.014": 0.0,
			"-0.013": 0.0,
			"-0.012": 0.0,
			"-0.011": 0.0,
			"-0.01": 0.416654973405,
			"-0.009": 1.34739447534,
			"-0.008": 1.792031892,
			"-0.007": 2.64705504531,
			"-0.006": 3.13647789042,
			"-0.005": 5.26056422297,
			"-0.004": 13.8521032007,
			"-0.003": 35.5171850571,
			"-0.002": 49.1057129447,
			"-0.001": 46.0766521391,
			"0.0": 35.8656932682,
			"0.001": 27.5864173395,
			"0.002": 13.0430047131,
			"0.003": 5.49653718062,
			"0.004": 5.96680399529,
			"0.005": 4.44683233614,
			"0.006": 3.83901661727,
			"0.007": 2.43870406595,
			"0.008": 2.56255856321,
			"0.009": 2.38330521401,
			"0.01": 2.62286754167,
			"0.011": 2.3335372295,
			"0.012": 2.1309862545,
			"0.013": 2.1251998079,
			"0.014": 2.91956541945,
			"0.015": 2.92427192549,
			"0.016": 0.788731730239,
			"0.017": 0.0,
			"0.018": 0.0,
			"0.019": 0.0,
			"0.02": 0.0,
			"0.021": 0.0,
			"0.022": 0.0,
			"0.023": 0.0,
			"0.024": 0.0,
			"0.025": 0.0
		}
	}
}
