{
	 "smiles": "COC1=CC(CCNC(=O)C(OCC#C)C2=CC=C(Cl)C=C2)=CC=C1OCC#C", 
	 "Tm": 370.15, 
	 "num_atms": 51, 
	 "gaussian": { 
		 "optdone": 1, 
		 "sigma_profile": "yes", 
		 "theory": "DFT", 
		 "functional": "B3LYP", 
		 "basiset": "6-31G**", 
		 "properties": { 
			 "R2extent": 21830.1949, 
			 "electric_dipole_moment_norm": 3.81155022268, 
			 "electric_quadrupole_moment_norm": 27.5708025469, 
			 "total_energy": -1705.3708344, 
			 "HOMO_LUMO_gap": 0.1869, 
			 "cosmo_polarized_energy": -22.55, 
			 "cosmo_cavitation_energy": 60.03, 
			 "cosmo_dispersion_energy": -39.09, 
			 "cosmo_repulsion_energy": 3.01, 
			 "cosmo_total_nonelectrostatic_energy": 23.96, 
			 "SMD_solvation_energy": 13.34 
		},
		"coords": [
			{
				"x": -2.4236473401,
				"y": 4.8233044739,
				"z": -0.0121051091,
				"element": "C" 
			},
			{
				"x": -3.1108587791,
				"y": 4.3156813503,
				"z": 1.1194826537,
				"element": "O" 
			},
			{
				"x": -2.6979052789,
				"y": 3.1246254873,
				"z": 1.6358749707,
				"element": "C" 
			},
			{
				"x": -1.6370198381,
				"y": 2.366777882,
				"z": 1.1469302503,
				"element": "C" 
			},
			{
				"x": -1.2704124817,
				"y": 1.1480777148,
				"z": 1.7487038495,
				"element": "C" 
			},
			{
				"x": -0.1394748065,
				"y": 0.3330878103,
				"z": 1.1620476543,
				"element": "C" 
			},
			{
				"x": -0.5838322635,
				"y": -0.4569352004,
				"z": -0.0878292826,
				"element": "C" 
			},
			{
				"x": 0.5055750801,
				"y": -1.1848826868,
				"z": -0.7247752474,
				"element": "N" 
			},
			{
				"x": 1.3373440109,
				"y": -0.5909333763,
				"z": -1.6176448954,
				"element": "C" 
			},
			{
				"x": 1.2023221611,
				"y": 0.5567566682,
				"z": -2.0325624548,
				"element": "O" 
			},
			{
				"x": 2.5189079918,
				"y": -1.4713121569,
				"z": -2.0872304201,
				"element": "C" 
			},
			{
				"x": 2.2665174384,
				"y": -2.8576918797,
				"z": -1.8624199849,
				"element": "O" 
			},
			{
				"x": 1.4829197505,
				"y": -3.4841693502,
				"z": -2.8810468017,
				"element": "C" 
			},
			{
				"x": 2.1810015843,
				"y": -3.6012773466,
				"z": -4.1648877126,
				"element": "C" 
			},
			{
				"x": 2.7531904392,
				"y": -3.6903600688,
				"z": -5.2243469901,
				"element": "C" 
			},
			{
				"x": 3.8052338089,
				"y": -1.0743967255,
				"z": -1.3712122422,
				"element": "C" 
			},
			{
				"x": 4.2224959792,
				"y": 0.2639778677,
				"z": -1.3803078591,
				"element": "C" 
			},
			{
				"x": 5.4034490699,
				"y": 0.6449404568,
				"z": -0.746751832,
				"element": "C" 
			},
			{
				"x": 6.1723150039,
				"y": -0.3222794862,
				"z": -0.0993726722,
				"element": "C" 
			},
			{
				"x": 7.6656896721,
				"y": 0.152074541,
				"z": 0.7021369868,
				"element": "Cl" 
			},
			{
				"x": 5.7769752962,
				"y": -1.6572857235,
				"z": -0.0799651978,
				"element": "C" 
			},
			{
				"x": 4.5922771131,
				"y": -2.0280256352,
				"z": -0.7189825323,
				"element": "C" 
			},
			{
				"x": -1.9965403217,
				"y": 0.7048278841,
				"z": 2.8497337111,
				"element": "C" 
			},
			{
				"x": -3.0682223558,
				"y": 1.45440568,
				"z": 3.3547249692,
				"element": "C" 
			},
			{
				"x": -3.4246850306,
				"y": 2.6613638753,
				"z": 2.7624011544,
				"element": "C" 
			},
			{
				"x": -4.438753716,
				"y": 3.4834858455,
				"z": 3.1788442207,
				"element": "O" 
			},
			{
				"x": -5.0949468825,
				"y": 3.1841265969,
				"z": 4.4057260831,
				"element": "C" 
			},
			{
				"x": -6.0632422318,
				"y": 2.0852332074,
				"z": 4.3168699662,
				"element": "C" 
			},
			{
				"x": -6.8734389852,
				"y": 1.1918992431,
				"z": 4.2597248244,
				"element": "C" 
			},
			{
				"x": -2.9140742792,
				"y": 5.7652232399,
				"z": -0.2626865883,
				"element": "H" 
			},
			{
				"x": -1.3649700404,
				"y": 5.0143875051,
				"z": 0.2070183326,
				"element": "H" 
			},
			{
				"x": -2.4921431544,
				"y": 4.1407076626,
				"z": -0.8690978383,
				"element": "H" 
			},
			{
				"x": -1.0700816954,
				"y": 2.7188508714,
				"z": 0.2919362057,
				"element": "H" 
			},
			{
				"x": 0.2503868624,
				"y": -0.3656414426,
				"z": 1.911411246,
				"element": "H" 
			},
			{
				"x": 0.6895189616,
				"y": 0.9859381581,
				"z": 0.8673225664,
				"element": "H" 
			},
			{
				"x": -0.9881879784,
				"y": 0.2349235008,
				"z": -0.8304853314,
				"element": "H" 
			},
			{
				"x": -1.3735193931,
				"y": -1.1681862842,
				"z": 0.1741858079,
				"element": "H" 
			},
			{
				"x": 0.7759349087,
				"y": -2.1002600651,
				"z": -0.3921982078,
				"element": "H" 
			},
			{
				"x": 2.6346418094,
				"y": -1.277755171,
				"z": -3.1616383137,
				"element": "H" 
			},
			{
				"x": 1.2452136198,
				"y": -4.4793911186,
				"z": -2.4914483617,
				"element": "H" 
			},
			{
				"x": 0.5325752222,
				"y": -2.947973375,
				"z": -3.0206893065,
				"element": "H" 
			},
			{
				"x": 3.2601979287,
				"y": -3.7741370167,
				"z": -6.1581279037,
				"element": "H" 
			},
			{
				"x": 3.6099091314,
				"y": 1.0092452802,
				"z": -1.8769087882,
				"element": "H" 
			},
			{
				"x": 5.7250819134,
				"y": 1.6805255077,
				"z": -0.754776789,
				"element": "H" 
			},
			{
				"x": 6.3865095236,
				"y": -2.3983464835,
				"z": 0.425466964,
				"element": "H" 
			},
			{
				"x": 4.2804965696,
				"y": -3.0654283311,
				"z": -0.7168076134,
				"element": "H" 
			},
			{
				"x": -1.7352274445,
				"y": -0.2338492566,
				"z": 3.3309953484,
				"element": "H" 
			},
			{
				"x": -3.6313611166,
				"y": 1.0735046799,
				"z": 4.1982557265,
				"element": "H" 
			},
			{
				"x": -5.6155320584,
				"y": 4.1085063907,
				"z": 4.6751256277,
				"element": "H" 
			},
			{
				"x": -4.3578113397,
				"y": 2.9753760214,
				"z": 5.1943096185,
				"element": "H" 
			},
			{
				"x": -7.587492039,
				"y": 0.4032827781,
				"z": 4.1989775382,
				"element": "H" 
			}
		],
		 "valence_orbital": [ 
			{
				"type": "occ",
				"energy": -0.25786,
				"method": "rhf"
			},
			{
				"type": "occ",
				"energy": -0.25225,
				"method": "rhf"
			},
			{
				"type": "occ",
				"energy": -0.23395,
				"method": "rhf"
			},
			{
				"type": "occ",
				"energy": -0.23266,
				"method": "rhf"
			},
			{
				"type": "occ",
				"energy": -0.20061,
				"method": "rhf"
			},
			{
				"type": "unocc",
				"energy": -0.01371,
				"method": "rhf"
			},
			{
				"type": "unocc",
				"energy": -0.00957,
				"method": "rhf"
			},
			{
				"type": "unocc",
				"energy": 0.00791,
				"method": "rhf"
			},
			{
				"type": "unocc",
				"energy": 0.01173,
				"method": "rhf"
			},
			{
				"type": "unocc",
				"energy": 0.01608,
				"method": "rhf"
			}
		],
		"cosmo_sigma_profile": { 
			"-0.025": 0.0,
			"-0.024": 0.0,
			"-0.023": 0.0,
			"-0.022": 0.0,
			"-0.021": 0.0,
			"-0.02": 0.0,
			"-0.019": 0.0,
			"-0.018": 0.0,
			"-0.017": 0.0,
			"-0.016": 0.0,
			"-0.015": 0.0,
			"-0.014": 0.0,
			"-0.013": 0.376253823479,
			"-0.012": 2.67442815554,
			"-0.011": 3.57234502437,
			"-0.01": 3.33158888123,
			"-0.009": 2.92517595211,
			"-0.008": 9.12094564491,
			"-0.007": 14.4652110843,
			"-0.006": 24.6590333712,
			"-0.005": 37.1491553646,
			"-0.004": 35.5594053623,
			"-0.003": 35.0005912013,
			"-0.002": 29.538765325,
			"-0.001": 27.9827984525,
			"0.0": 29.5116636895,
			"0.001": 27.3127050829,
			"0.002": 35.7302175126,
			"0.003": 38.0566371569,
			"0.004": 40.7709406513,
			"0.005": 33.9409708888,
			"0.006": 22.5002819439,
			"0.007": 4.34322125345,
			"0.008": 3.06017059899,
			"0.009": 3.17438507283,
			"0.01": 2.84167485502,
			"0.011": 2.42397839809,
			"0.012": 4.01713063158,
			"0.013": 4.42695886831,
			"0.014": 3.55246290248,
			"0.015": 0.222822376556,
			"0.016": 0.0,
			"0.017": 0.0,
			"0.018": 0.0,
			"0.019": 0.0,
			"0.02": 0.0,
			"0.021": 0.0,
			"0.022": 0.0,
			"0.023": 0.0,
			"0.024": 0.0,
			"0.025": 0.0
		}
	}
}
