{
	 "smiles": "CC(C)(C)OC(=O)N1CCCC(C)(C1)C(O)=O", 
	 "Tm": 391.15, 
	 "num_atms": 38, 
	 "gaussian": { 
		 "optdone": 1, 
		 "sigma_profile": "yes", 
		 "theory": "DFT", 
		 "functional": "B3LYP", 
		 "basiset": "6-31G**", 
		 "properties": { 
			 "R2extent": 5076.3539, 
			 "electric_dipole_moment_norm": 1.28870684797, 
			 "electric_quadrupole_moment_norm": 12.348444992, 
			 "total_energy": -825.640094802, 
			 "HOMO_LUMO_gap": 0.23575, 
			 "cosmo_polarized_energy": -13.23, 
			 "cosmo_cavitation_energy": 37.92, 
			 "cosmo_dispersion_energy": -25.72, 
			 "cosmo_repulsion_energy": 2.01, 
			 "cosmo_total_nonelectrostatic_energy": 14.21, 
			 "SMD_solvation_energy": 7.84 
		},
		"coords": [
			{
				"x": 3.2580688236,
				"y": -0.7961789326,
				"z": -0.7729142288,
				"element": "C" 
			},
			{
				"x": 1.9716296093,
				"y": -0.3551374723,
				"z": -1.4798215917,
				"element": "C" 
			},
			{
				"x": 2.279688481,
				"y": 0.6657208938,
				"z": -2.5788382686,
				"element": "C" 
			},
			{
				"x": 1.1855095845,
				"y": -1.5419735233,
				"z": -2.0479459615,
				"element": "C" 
			},
			{
				"x": 1.1252069319,
				"y": 0.4151773199,
				"z": -0.5578751976,
				"element": "O" 
			},
			{
				"x": 0.6397823314,
				"y": -0.1484095632,
				"z": 0.5769952693,
				"element": "C" 
			},
			{
				"x": 0.828786888,
				"y": -1.3037877064,
				"z": 0.9354219389,
				"element": "O" 
			},
			{
				"x": -0.0999051091,
				"y": 0.7660792454,
				"z": 1.2811600949,
				"element": "N" 
			},
			{
				"x": -0.3127366896,
				"y": 2.1460839305,
				"z": 0.8116446067,
				"element": "C" 
			},
			{
				"x": -0.9229436647,
				"y": 2.9800901331,
				"z": 1.9389765485,
				"element": "C" 
			},
			{
				"x": -2.2528604232,
				"y": 2.3931737667,
				"z": 2.4508418761,
				"element": "C" 
			},
			{
				"x": -2.2340424743,
				"y": 0.8393446353,
				"z": 2.5435874716,
				"element": "C" 
			},
			{
				"x": -2.9109585477,
				"y": 0.3519322658,
				"z": 3.8416932222,
				"element": "C" 
			},
			{
				"x": -0.7732233206,
				"y": 0.3272175888,
				"z": 2.5013978784,
				"element": "C" 
			},
			{
				"x": -2.9682192929,
				"y": 0.2377663828,
				"z": 1.3353339639,
				"element": "C" 
			},
			{
				"x": -3.016614501,
				"y": -1.1138945759,
				"z": 1.397867033,
				"element": "O" 
			},
			{
				"x": -3.4577320133,
				"y": 0.851723365,
				"z": 0.4107970983,
				"element": "O" 
			},
			{
				"x": 3.9316048165,
				"y": -1.2680435297,
				"z": -1.4958951881,
				"element": "H" 
			},
			{
				"x": 3.0403712158,
				"y": -1.5067409803,
				"z": 0.0245185824,
				"element": "H" 
			},
			{
				"x": 3.7725549008,
				"y": 0.0708409396,
				"z": -0.3460827376,
				"element": "H" 
			},
			{
				"x": 1.3566627649,
				"y": 1.015693017,
				"z": -3.0501512627,
				"element": "H" 
			},
			{
				"x": 2.9115539318,
				"y": 0.2114491532,
				"z": -3.3479144632,
				"element": "H" 
			},
			{
				"x": 2.8054724632,
				"y": 1.5316546644,
				"z": -2.1657986269,
				"element": "H" 
			},
			{
				"x": 0.2563168779,
				"y": -1.1938649109,
				"z": -2.5105061471,
				"element": "H" 
			},
			{
				"x": 0.9444418138,
				"y": -2.259331605,
				"z": -1.2634003989,
				"element": "H" 
			},
			{
				"x": 1.7811098737,
				"y": -2.0431624963,
				"z": -2.8180658731,
				"element": "H" 
			},
			{
				"x": -0.9782790782,
				"y": 2.1485952053,
				"z": -0.0607925867,
				"element": "H" 
			},
			{
				"x": 0.6441576632,
				"y": 2.5683272088,
				"z": 0.4942712742,
				"element": "H" 
			},
			{
				"x": -0.1987349622,
				"y": 3.0507142689,
				"z": 2.7597197628,
				"element": "H" 
			},
			{
				"x": -1.0795219057,
				"y": 4.0015593166,
				"z": 1.5770624244,
				"element": "H" 
			},
			{
				"x": -3.067830646,
				"y": 2.6915586977,
				"z": 1.786927777,
				"element": "H" 
			},
			{
				"x": -2.470655296,
				"y": 2.8101668782,
				"z": 3.4397899053,
				"element": "H" 
			},
			{
				"x": -2.9399264948,
				"y": -0.7387542418,
				"z": 3.894938528,
				"element": "H" 
			},
			{
				"x": -3.9370836248,
				"y": 0.7276583132,
				"z": 3.9097490506,
				"element": "H" 
			},
			{
				"x": -2.3593814622,
				"y": 0.7282022212,
				"z": 4.7093649327,
				"element": "H" 
			},
			{
				"x": -0.2509538975,
				"y": 0.697132966,
				"z": 3.3953443944,
				"element": "H" 
			},
			{
				"x": -0.7339523653,
				"y": -0.7611664282,
				"z": 2.5214170599,
				"element": "H" 
			},
			{
				"x": -3.4656632022,
				"y": -1.4075164113,
				"z": 0.587781839,
				"element": "H" 
			}
		],
		 "valence_orbital": [ 
			{
				"type": "occ",
				"energy": -0.31871,
				"method": "rhf"
			},
			{
				"type": "occ",
				"energy": -0.28166,
				"method": "rhf"
			},
			{
				"type": "occ",
				"energy": -0.27389,
				"method": "rhf"
			},
			{
				"type": "occ",
				"energy": -0.25436,
				"method": "rhf"
			},
			{
				"type": "occ",
				"energy": -0.23013,
				"method": "rhf"
			},
			{
				"type": "unocc",
				"energy": 0.00562,
				"method": "rhf"
			},
			{
				"type": "unocc",
				"energy": 0.0595,
				"method": "rhf"
			},
			{
				"type": "unocc",
				"energy": 0.06882,
				"method": "rhf"
			},
			{
				"type": "unocc",
				"energy": 0.08664,
				"method": "rhf"
			},
			{
				"type": "unocc",
				"energy": 0.09147,
				"method": "rhf"
			}
		],
		"cosmo_sigma_profile": { 
			"-0.025": 0.0,
			"-0.024": 0.0,
			"-0.023": 0.0,
			"-0.022": 0.0,
			"-0.021": 0.0,
			"-0.02": 0.0,
			"-0.019": 0.0,
			"-0.018": 0.769982198749,
			"-0.017": 0.873396352299,
			"-0.016": 1.00092269312,
			"-0.015": 0.380471500085,
			"-0.014": 0.852527836012,
			"-0.013": 0.472320353787,
			"-0.012": 0.813849613116,
			"-0.011": 1.18826061392,
			"-0.01": 0.472016121093,
			"-0.009": 0.381469148194,
			"-0.008": 0.585634924308,
			"-0.007": 0.917668886322,
			"-0.006": 1.01933510974,
			"-0.005": 6.01696282513,
			"-0.004": 26.8600914385,
			"-0.003": 37.7997680613,
			"-0.002": 38.7724767366,
			"-0.001": 35.2571095267,
			"0.0": 39.4010436379,
			"0.001": 28.2432440979,
			"0.002": 11.6496087897,
			"0.003": 8.30041325253,
			"0.004": 8.38995614522,
			"0.005": 6.09774874885,
			"0.006": 6.98160816337,
			"0.007": 5.27775705547,
			"0.008": 4.79551149875,
			"0.009": 2.36901811193,
			"0.01": 3.40663955645,
			"0.011": 5.09926933599,
			"0.012": 4.74998635404,
			"0.013": 2.77935806941,
			"0.014": 1.57522768658,
			"0.015": 0.0,
			"0.016": 0.0,
			"0.017": 0.0,
			"0.018": 0.0,
			"0.019": 0.0,
			"0.02": 0.0,
			"0.021": 0.0,
			"0.022": 0.0,
			"0.023": 0.0,
			"0.024": 0.0,
			"0.025": 0.0
		}
	}
}
