{
	 "smiles": "CNS(=O)(=O)C1=CC2=C(CCN2)C=C1", 
	 "Tm": 360.15, 
	 "num_atms": 26, 
	 "gaussian": { 
		 "optdone": 1, 
		 "sigma_profile": "yes", 
		 "theory": "DFT", 
		 "functional": "B3LYP", 
		 "basiset": "6-31G**", 
		 "properties": { 
			 "R2extent": 3835.3939, 
			 "electric_dipole_moment_norm": 5.97297326463, 
			 "electric_quadrupole_moment_norm": 18.9315725673, 
			 "total_energy": -1008.25791746, 
			 "HOMO_LUMO_gap": 0.1784, 
			 "cosmo_polarized_energy": -17.25, 
			 "cosmo_cavitation_energy": 30.28, 
			 "cosmo_dispersion_energy": -22.67, 
			 "cosmo_repulsion_energy": 1.76, 
			 "cosmo_total_nonelectrostatic_energy": 9.36, 
			 "SMD_solvation_energy": 2.46 
		},
		"coords": [
			{
				"x": 0.4836248411,
				"y": -4.1349859283,
				"z": -0.641751933,
				"element": "C" 
			},
			{
				"x": 0.94370227,
				"y": -3.2969259542,
				"z": -1.7549577327,
				"element": "N" 
			},
			{
				"x": 1.9692256662,
				"y": -2.001983685,
				"z": -1.3676872307,
				"element": "S" 
			},
			{
				"x": 2.629231365,
				"y": -1.6694992835,
				"z": -2.6345372143,
				"element": "O" 
			},
			{
				"x": 2.7552506914,
				"y": -2.3063828785,
				"z": -0.1633040219,
				"element": "O" 
			},
			{
				"x": 0.8032271096,
				"y": -0.7096630526,
				"z": -0.9384524462,
				"element": "C" 
			},
			{
				"x": 0.7110721208,
				"y": -0.3181505333,
				"z": 0.4017020614,
				"element": "C" 
			},
			{
				"x": -0.1985232082,
				"y": 0.6949641555,
				"z": 0.7079318929,
				"element": "C" 
			},
			{
				"x": -0.9858304253,
				"y": 1.289074408,
				"z": -0.2962301114,
				"element": "C" 
			},
			{
				"x": -1.8301091826,
				"y": 2.3700096531,
				"z": 0.3458933799,
				"element": "C" 
			},
			{
				"x": -1.7293747961,
				"y": 2.0174865562,
				"z": 1.8512030642,
				"element": "C" 
			},
			{
				"x": -0.4506399116,
				"y": 1.2887858036,
				"z": 1.9450362468,
				"element": "N" 
			},
			{
				"x": -0.8631411973,
				"y": 0.889073507,
				"z": -1.6195385142,
				"element": "C" 
			},
			{
				"x": 0.0406245278,
				"y": -0.1273657483,
				"z": -1.9528977193,
				"element": "C" 
			},
			{
				"x": -0.1498287396,
				"y": -4.9234466692,
				"z": -1.0556203303,
				"element": "H" 
			},
			{
				"x": -0.1310533023,
				"y": -3.5297479487,
				"z": 0.0299568276,
				"element": "H" 
			},
			{
				"x": 1.299501642,
				"y": -4.5833548824,
				"z": -0.0636841324,
				"element": "H" 
			},
			{
				"x": 1.4091415088,
				"y": -3.8159149441,
				"z": -2.4966465711,
				"element": "H" 
			},
			{
				"x": 1.3409529493,
				"y": -0.7863837177,
				"z": 1.1496877484,
				"element": "H" 
			},
			{
				"x": -2.8646238296,
				"y": 2.3942158752,
				"z": -0.0077548882,
				"element": "H" 
			},
			{
				"x": -1.3921151978,
				"y": 3.3579629737,
				"z": 0.1513179015,
				"element": "H" 
			},
			{
				"x": -1.7244424487,
				"y": 2.9007333721,
				"z": 2.4956389483,
				"element": "H" 
			},
			{
				"x": -2.5768385512,
				"y": 1.3801232214,
				"z": 2.1485536313,
				"element": "H" 
			},
			{
				"x": -0.3080410055,
				"y": 0.7200720121,
				"z": 2.7693009094,
				"element": "H" 
			},
			{
				"x": -1.4654662992,
				"y": 1.3537786329,
				"z": -2.3954246356,
				"element": "H" 
			},
			{
				"x": 0.157173403,
				"y": -0.4579749449,
				"z": -2.9782351303,
				"element": "H" 
			}
		],
		 "valence_orbital": [ 
			{
				"type": "occ",
				"energy": -0.29946,
				"method": "rhf"
			},
			{
				"type": "occ",
				"energy": -0.29041,
				"method": "rhf"
			},
			{
				"type": "occ",
				"energy": -0.2696,
				"method": "rhf"
			},
			{
				"type": "occ",
				"energy": -0.25459,
				"method": "rhf"
			},
			{
				"type": "occ",
				"energy": -0.20633,
				"method": "rhf"
			},
			{
				"type": "unocc",
				"energy": -0.02793,
				"method": "rhf"
			},
			{
				"type": "unocc",
				"energy": -0.00018,
				"method": "rhf"
			},
			{
				"type": "unocc",
				"energy": 0.06875,
				"method": "rhf"
			},
			{
				"type": "unocc",
				"energy": 0.07838,
				"method": "rhf"
			},
			{
				"type": "unocc",
				"energy": 0.09082,
				"method": "rhf"
			}
		],
		"cosmo_sigma_profile": { 
			"-0.025": 0.0,
			"-0.024": 0.0,
			"-0.023": 0.0,
			"-0.022": 0.0,
			"-0.021": 0.0,
			"-0.02": 0.0,
			"-0.019": 0.0,
			"-0.018": 0.0,
			"-0.017": 0.0,
			"-0.016": 0.0,
			"-0.015": 0.0980930784939,
			"-0.014": 0.991968847048,
			"-0.013": 1.99400573278,
			"-0.012": 2.58138738886,
			"-0.011": 2.59260168509,
			"-0.01": 1.92034732867,
			"-0.009": 2.77382220189,
			"-0.008": 3.03716714399,
			"-0.007": 3.8730619185,
			"-0.006": 9.01153536523,
			"-0.005": 14.0350616687,
			"-0.004": 24.7388240355,
			"-0.003": 26.1029209807,
			"-0.002": 25.5046891841,
			"-0.001": 15.5520984928,
			"0.0": 8.24489261173,
			"0.001": 9.59752544426,
			"0.002": 11.0230753283,
			"0.003": 12.7942402264,
			"0.004": 12.4130811183,
			"0.005": 7.17258977846,
			"0.006": 6.29700405373,
			"0.007": 3.71469408252,
			"0.008": 4.2883498736,
			"0.009": 4.75378277923,
			"0.01": 6.88622279025,
			"0.011": 10.1420742613,
			"0.012": 6.7800314766,
			"0.013": 0.49892444097,
			"0.014": 0.0,
			"0.015": 0.0,
			"0.016": 0.0,
			"0.017": 0.0,
			"0.018": 0.0,
			"0.019": 0.0,
			"0.02": 0.0,
			"0.021": 0.0,
			"0.022": 0.0,
			"0.023": 0.0,
			"0.024": 0.0,
			"0.025": 0.0
		}
	}
}
