{
	 "smiles": "C1=CC2=C(C=C1)C1=C3C2=CC=CC3=C2C3=C(C=CC=C3)C3=C2C1=CC=C3", 
	 "Tm": 578.15, 
	 "num_atms": 40, 
	 "gaussian": { 
		 "optdone": 1, 
		 "sigma_profile": "yes", 
		 "theory": "DFT", 
		 "functional": "B3LYP", 
		 "basiset": "6-31G**", 
		 "properties": { 
			 "R2extent": 9244.774, 
			 "electric_dipole_moment_norm": 0.0, 
			 "electric_quadrupole_moment_norm": 17.0324374454, 
			 "total_energy": -999.247016352, 
			 "HOMO_LUMO_gap": 0.10083, 
			 "cosmo_polarized_energy": -9.52, 
			 "cosmo_cavitation_energy": 42.33, 
			 "cosmo_dispersion_energy": -31.29, 
			 "cosmo_repulsion_energy": 2.19, 
			 "cosmo_total_nonelectrostatic_energy": 13.23, 
			 "SMD_solvation_energy": 5.13 
		},
		"coords": [
			{
				"x": 4.0986250419,
				"y": 2.2787549086,
				"z": -3.8044613146,
				"element": "C" 
			},
			{
				"x": 3.1952998709,
				"y": 1.2531085266,
				"z": -4.1099897005,
				"element": "C" 
			},
			{
				"x": 2.2242742818,
				"y": 0.9081143249,
				"z": -3.1772519102,
				"element": "C" 
			},
			{
				"x": 2.1422728933,
				"y": 1.5855090849,
				"z": -1.9222986718,
				"element": "C" 
			},
			{
				"x": 3.0493529849,
				"y": 2.6051343564,
				"z": -1.6326017854,
				"element": "C" 
			},
			{
				"x": 4.0239416751,
				"y": 2.945211533,
				"z": -2.5789980533,
				"element": "C" 
			},
			{
				"x": 1.0234892536,
				"y": 1.0000457937,
				"z": -1.1606670531,
				"element": "C" 
			},
			{
				"x": 0.4615152193,
				"y": -0.0116546265,
				"z": -1.9725682772,
				"element": "C" 
			},
			{
				"x": 1.1600612526,
				"y": -0.1065845576,
				"z": -3.2147578916,
				"element": "C" 
			},
			{
				"x": 0.759647803,
				"y": -1.0375696381,
				"z": -4.1431511818,
				"element": "C" 
			},
			{
				"x": -0.3466319046,
				"y": -1.8835256838,
				"z": -3.8344440517,
				"element": "C" 
			},
			{
				"x": -1.0285551866,
				"y": -1.8010631002,
				"z": -2.6388274104,
				"element": "C" 
			},
			{
				"x": -0.6458622461,
				"y": -0.8469067957,
				"z": -1.6444192957,
				"element": "C" 
			},
			{
				"x": -1.2190879955,
				"y": -0.6175023599,
				"z": -0.3730373893,
				"element": "C" 
			},
			{
				"x": -2.3378724742,
				"y": -1.2029653552,
				"z": 0.388594045,
				"element": "C" 
			},
			{
				"x": -2.4198733341,
				"y": -0.5255696914,
				"z": 1.6435469031,
				"element": "C" 
			},
			{
				"x": -3.3908982424,
				"y": -0.8705646566,
				"z": 2.5762860065,
				"element": "C" 
			},
			{
				"x": -4.2942237454,
				"y": -1.8962100555,
				"z": 2.2707574437,
				"element": "C" 
			},
			{
				"x": -4.2195412147,
				"y": -2.5626665499,
				"z": 1.0452933887,
				"element": "C" 
			},
			{
				"x": -3.2449523926,
				"y": -2.2225902081,
				"z": 0.0988975521,
				"element": "C" 
			},
			{
				"x": -1.3556621184,
				"y": 0.489129653,
				"z": 1.6810527852,
				"element": "C" 
			},
			{
				"x": -0.6571139941,
				"y": 0.3941991097,
				"z": 0.4388628824,
				"element": "C" 
			},
			{
				"x": 0.4502631224,
				"y": 1.2294496976,
				"z": 0.1107131897,
				"element": "C" 
			},
			{
				"x": 0.8329553897,
				"y": 2.1836069306,
				"z": 1.1051225415,
				"element": "C" 
			},
			{
				"x": 0.1510302532,
				"y": 2.2660727662,
				"z": 2.3007369385,
				"element": "C" 
			},
			{
				"x": -0.9552520298,
				"y": 1.4201170786,
				"z": 2.6094439635,
				"element": "C" 
			},
			{
				"x": 4.8618153486,
				"y": 2.5573461801,
				"z": -4.5251404752,
				"element": "H" 
			},
			{
				"x": 3.2562672421,
				"y": 0.7367163849,
				"z": -5.0643269641,
				"element": "H" 
			},
			{
				"x": 3.014591943,
				"y": 3.1393248596,
				"z": -0.6893106113,
				"element": "H" 
			},
			{
				"x": 4.7307502213,
				"y": 3.7388901283,
				"z": -2.3546082194,
				"element": "H" 
			},
			{
				"x": 1.263734999,
				"y": -1.1423411567,
				"z": -5.0999638264,
				"element": "H" 
			},
			{
				"x": -0.660495135,
				"y": -2.6183273145,
				"z": -4.5705596726,
				"element": "H" 
			},
			{
				"x": -1.8623118663,
				"y": -2.4692360953,
				"z": -2.4571610398,
				"element": "H" 
			},
			{
				"x": -3.4518651069,
				"y": -0.3541710023,
				"z": 3.5306224407,
				"element": "H" 
			},
			{
				"x": -5.0574148113,
				"y": -2.1748023777,
				"z": 2.9914353507,
				"element": "H" 
			},
			{
				"x": -4.9263508938,
				"y": -3.3563446512,
				"z": 0.8209053514,
				"element": "H" 
			},
			{
				"x": -3.2101902559,
				"y": -2.7567809863,
				"z": -0.8443934353,
				"element": "H" 
			},
			{
				"x": 1.666712952,
				"y": 2.8517804301,
				"z": 0.9234584237,
				"element": "H" 
			},
			{
				"x": 0.4648927487,
				"y": 3.0008743293,
				"z": 3.0368527659,
				"element": "H" 
			},
			{
				"x": -1.4593395489,
				"y": 1.5248907866,
				"z": 3.5662562584,
				"element": "H" 
			}
		],
		 "valence_orbital": [ 
			{
				"type": "occ",
				"energy": -0.25059,
				"method": "rhf"
			},
			{
				"type": "occ",
				"energy": -0.24527,
				"method": "rhf"
			},
			{
				"type": "occ",
				"energy": -0.22,
				"method": "rhf"
			},
			{
				"type": "occ",
				"energy": -0.21682,
				"method": "rhf"
			},
			{
				"type": "occ",
				"energy": -0.19419,
				"method": "rhf"
			},
			{
				"type": "unocc",
				"energy": -0.09336,
				"method": "rhf"
			},
			{
				"type": "unocc",
				"energy": -0.03225,
				"method": "rhf"
			},
			{
				"type": "unocc",
				"energy": -0.02381,
				"method": "rhf"
			},
			{
				"type": "unocc",
				"energy": -0.00434,
				"method": "rhf"
			},
			{
				"type": "unocc",
				"energy": 0.00431,
				"method": "rhf"
			}
		],
		"cosmo_sigma_profile": { 
			"-0.025": 0.0,
			"-0.024": 0.0,
			"-0.023": 0.0,
			"-0.022": 0.0,
			"-0.021": 0.0,
			"-0.02": 0.0,
			"-0.019": 0.0,
			"-0.018": 0.0,
			"-0.017": 0.0,
			"-0.016": 0.0,
			"-0.015": 0.0,
			"-0.014": 0.0,
			"-0.013": 0.0,
			"-0.012": 0.0,
			"-0.011": 0.0,
			"-0.01": 0.0,
			"-0.009": 0.583209276098,
			"-0.008": 3.01213123279,
			"-0.007": 5.37323712051,
			"-0.006": 23.2674981936,
			"-0.005": 27.666773077,
			"-0.004": 28.0633257566,
			"-0.003": 22.113464597,
			"-0.002": 18.3843775673,
			"-0.001": 16.4394102834,
			"0.0": 18.1478974131,
			"0.001": 19.6649928412,
			"0.002": 31.0062221927,
			"0.003": 63.4633885889,
			"0.004": 37.8505006576,
			"0.005": 22.2346958806,
			"0.006": 6.40018485553,
			"0.007": 0.0,
			"0.008": 0.0,
			"0.009": 0.0,
			"0.01": 0.0,
			"0.011": 0.0,
			"0.012": 0.0,
			"0.013": 0.0,
			"0.014": 0.0,
			"0.015": 0.0,
			"0.016": 0.0,
			"0.017": 0.0,
			"0.018": 0.0,
			"0.019": 0.0,
			"0.02": 0.0,
			"0.021": 0.0,
			"0.022": 0.0,
			"0.023": 0.0,
			"0.024": 0.0,
			"0.025": 0.0
		}
	}
}
