{
	 "smiles": "CCCCCCCCCCSCCCCCCCCCC", 
	 "Tm": 300.15, 
	 "num_atms": 63, 
	 "gaussian": { 
		 "optdone": 1, 
		 "sigma_profile": "yes", 
		 "theory": "DFT", 
		 "functional": "B3LYP", 
		 "basiset": "6-31G**", 
		 "properties": { 
			 "R2extent": 15898.9581, 
			 "electric_dipole_moment_norm": 1.82561765438, 
			 "electric_quadrupole_moment_norm": 9.9776153604, 
			 "total_energy": -1185.68541828, 
			 "HOMO_LUMO_gap": 0.26041, 
			 "cosmo_polarized_energy": -4.92, 
			 "cosmo_cavitation_energy": 61.64, 
			 "cosmo_dispersion_energy": -39.99, 
			 "cosmo_repulsion_energy": 3.22, 
			 "cosmo_total_nonelectrostatic_energy": 24.86, 
			 "SMD_solvation_energy": 7.56 
		},
		"coords": [
			{
				"x": -8.8378873052,
				"y": 0.2022937282,
				"z": -1.055570457,
				"element": "C" 
			},
			{
				"x": -7.4323462621,
				"y": 0.3580540827,
				"z": -1.6458892467,
				"element": "C" 
			},
			{
				"x": -6.777284377,
				"y": 1.69843011,
				"z": -1.2845014938,
				"element": "C" 
			},
			{
				"x": -5.4003850762,
				"y": 1.9369967205,
				"z": -1.9294208989,
				"element": "C" 
			},
			{
				"x": -4.2835114736,
				"y": 0.9599243257,
				"z": -1.5205836811,
				"element": "C" 
			},
			{
				"x": -3.9063635921,
				"y": 1.0041638747,
				"z": -0.0333489178,
				"element": "C" 
			},
			{
				"x": -2.7307615469,
				"y": 0.0835819564,
				"z": 0.3211266034,
				"element": "C" 
			},
			{
				"x": -2.3514560001,
				"y": 0.1311285123,
				"z": 1.8083347981,
				"element": "C" 
			},
			{
				"x": -1.1277317052,
				"y": -0.7199199226,
				"z": 2.1929746119,
				"element": "C" 
			},
			{
				"x": -1.3641390779,
				"y": -2.2303409565,
				"z": 2.0637703034,
				"element": "C" 
			},
			{
				"x": 0.0016752435,
				"y": -3.299346023,
				"z": 2.6840102025,
				"element": "S" 
			},
			{
				"x": 0.9922467402,
				"y": -3.6072472136,
				"z": 1.1622032519,
				"element": "C" 
			},
			{
				"x": 1.9339287354,
				"y": -2.4876568395,
				"z": 0.6980732325,
				"element": "C" 
			},
			{
				"x": 3.056775816,
				"y": -2.1639826077,
				"z": 1.6903684553,
				"element": "C" 
			},
			{
				"x": 4.0793614764,
				"y": -1.116108796,
				"z": 1.2149636941,
				"element": "C" 
			},
			{
				"x": 3.5117578412,
				"y": 0.3053063395,
				"z": 0.9836014589,
				"element": "C" 
			},
			{
				"x": 3.1349385582,
				"y": 0.649712712,
				"z": -0.4703695692,
				"element": "C" 
			},
			{
				"x": 4.3501040394,
				"y": 0.8751672539,
				"z": -1.3865270103,
				"element": "C" 
			},
			{
				"x": 4.0111950681,
				"y": 1.2574760578,
				"z": -2.8449935451,
				"element": "C" 
			},
			{
				"x": 3.906598342,
				"y": 0.0918514196,
				"z": -3.8452303364,
				"element": "C" 
			},
			{
				"x": 2.7762998462,
				"y": -0.9118148746,
				"z": -3.5899880689,
				"element": "C" 
			},
			{
				"x": -9.5079066782,
				"y": 0.992377579,
				"z": -1.4137483438,
				"element": "H" 
			},
			{
				"x": -9.2835953562,
				"y": -0.7602460458,
				"z": -1.3274515887,
				"element": "H" 
			},
			{
				"x": -8.8166684731,
				"y": 0.260935748,
				"z": 0.0388247972,
				"element": "H" 
			},
			{
				"x": -6.8029975521,
				"y": -0.4715921438,
				"z": -1.2994529731,
				"element": "H" 
			},
			{
				"x": -7.4816398324,
				"y": 0.2645743721,
				"z": -2.7397408097,
				"element": "H" 
			},
			{
				"x": -6.6997489309,
				"y": 1.7797663234,
				"z": -0.1918135994,
				"element": "H" 
			},
			{
				"x": -7.4481439507,
				"y": 2.5113980677,
				"z": -1.5946076029,
				"element": "H" 
			},
			{
				"x": -5.0747262949,
				"y": 2.9595617899,
				"z": -1.6939885923,
				"element": "H" 
			},
			{
				"x": -5.5142666046,
				"y": 1.901022157,
				"z": -3.0216092001,
				"element": "H" 
			},
			{
				"x": -4.5653879869,
				"y": -0.0661222654,
				"z": -1.7926528209,
				"element": "H" 
			},
			{
				"x": -3.390022872,
				"y": 1.1898486116,
				"z": -2.1170740255,
				"element": "H" 
			},
			{
				"x": -3.6544864107,
				"y": 2.0376530426,
				"z": 0.2458176813,
				"element": "H" 
			},
			{
				"x": -4.7729033172,
				"y": 0.7276849268,
				"z": 0.582098805,
				"element": "H" 
			},
			{
				"x": -1.8555355576,
				"y": 0.3632103571,
				"z": -0.2832132451,
				"element": "H" 
			},
			{
				"x": -2.9842939589,
				"y": -0.9446199244,
				"z": 0.0295506893,
				"element": "H" 
			},
			{
				"x": -3.2144910906,
				"y": -0.1796763241,
				"z": 2.4148556868,
				"element": "H" 
			},
			{
				"x": -2.148521552,
				"y": 1.1739816991,
				"z": 2.0867785593,
				"element": "H" 
			},
			{
				"x": -0.2685542627,
				"y": -0.4248456434,
				"z": 1.5780309886,
				"element": "H" 
			},
			{
				"x": -0.8490923715,
				"y": -0.5024805105,
				"z": 3.2305289862,
				"element": "H" 
			},
			{
				"x": -2.2393195685,
				"y": -2.5181009323,
				"z": 2.6571119049,
				"element": "H" 
			},
			{
				"x": -1.5729673955,
				"y": -2.5246593417,
				"z": 1.0301831192,
				"element": "H" 
			},
			{
				"x": 1.5708190669,
				"y": -4.5064841116,
				"z": 1.4023270039,
				"element": "H" 
			},
			{
				"x": 0.2952329241,
				"y": -3.8826251502,
				"z": 0.3632990445,
				"element": "H" 
			},
			{
				"x": 1.3477139836,
				"y": -1.5889589026,
				"z": 0.4765910796,
				"element": "H" 
			},
			{
				"x": 2.3749328783,
				"y": -2.8076945712,
				"z": -0.2581276609,
				"element": "H" 
			},
			{
				"x": 3.5940362728,
				"y": -3.0947577256,
				"z": 1.9219048765,
				"element": "H" 
			},
			{
				"x": 2.6099013922,
				"y": -1.8303286355,
				"z": 2.6351141948,
				"element": "H" 
			},
			{
				"x": 4.5723852249,
				"y": -1.475204023,
				"z": 0.3012742268,
				"element": "H" 
			},
			{
				"x": 4.8700933084,
				"y": -1.0645342048,
				"z": 1.9732709136,
				"element": "H" 
			},
			{
				"x": 4.2462094022,
				"y": 1.0472274283,
				"z": 1.3244321241,
				"element": "H" 
			},
			{
				"x": 2.6333236575,
				"y": 0.4444865834,
				"z": 1.6280360262,
				"element": "H" 
			},
			{
				"x": 2.5348008333,
				"y": 1.5701339046,
				"z": -0.4695979255,
				"element": "H" 
			},
			{
				"x": 2.4871752183,
				"y": -0.1299382675,
				"z": -0.8854413766,
				"element": "H" 
			},
			{
				"x": 4.9957845509,
				"y": -0.0139348239,
				"z": -1.3877871578,
				"element": "H" 
			},
			{
				"x": 4.9544881008,
				"y": 1.6768518202,
				"z": -0.9410456334,
				"element": "H" 
			},
			{
				"x": 3.0770869474,
				"y": 1.8372962538,
				"z": -2.861815161,
				"element": "H" 
			},
			{
				"x": 4.7882008183,
				"y": 1.9368857096,
				"z": -3.2174705407,
				"element": "H" 
			},
			{
				"x": 4.8658689568,
				"y": -0.4438306492,
				"z": -3.8643839593,
				"element": "H" 
			},
			{
				"x": 3.7801653385,
				"y": 0.5152451994,
				"z": -4.8503883312,
				"element": "H" 
			},
			{
				"x": 1.8025809918,
				"y": -0.4107276859,
				"z": -3.5385907132,
				"element": "H" 
			},
			{
				"x": 2.7247741439,
				"y": -1.6539033084,
				"z": -4.3940806777,
				"element": "H" 
			},
			{
				"x": 2.9187807163,
				"y": -1.4577462425,
				"z": -2.6520521558,
				"element": "H" 
			}
		],
		 "valence_orbital": [ 
			{
				"type": "occ",
				"energy": -0.30194,
				"method": "rhf"
			},
			{
				"type": "occ",
				"energy": -0.3004,
				"method": "rhf"
			},
			{
				"type": "occ",
				"energy": -0.29957,
				"method": "rhf"
			},
			{
				"type": "occ",
				"energy": -0.28711,
				"method": "rhf"
			},
			{
				"type": "occ",
				"energy": -0.21319,
				"method": "rhf"
			},
			{
				"type": "unocc",
				"energy": 0.04722,
				"method": "rhf"
			},
			{
				"type": "unocc",
				"energy": 0.06805,
				"method": "rhf"
			},
			{
				"type": "unocc",
				"energy": 0.07174,
				"method": "rhf"
			},
			{
				"type": "unocc",
				"energy": 0.08053,
				"method": "rhf"
			},
			{
				"type": "unocc",
				"energy": 0.08905,
				"method": "rhf"
			}
		],
		"cosmo_sigma_profile": { 
			"-0.025": 0.0,
			"-0.024": 0.0,
			"-0.023": 0.0,
			"-0.022": 0.0,
			"-0.021": 0.0,
			"-0.02": 0.0,
			"-0.019": 0.0,
			"-0.018": 0.0,
			"-0.017": 0.0,
			"-0.016": 0.0,
			"-0.015": 0.0,
			"-0.014": 0.0,
			"-0.013": 0.0,
			"-0.012": 0.0,
			"-0.011": 0.0,
			"-0.01": 0.0,
			"-0.009": 0.0,
			"-0.008": 0.0,
			"-0.007": 0.0,
			"-0.006": 0.0,
			"-0.005": 3.75712818054,
			"-0.004": 9.28266411244,
			"-0.003": 17.1617855174,
			"-0.002": 67.1667256043,
			"-0.001": 111.996114514,
			"0.0": 107.481631084,
			"0.001": 85.4307286692,
			"0.002": 42.5709922702,
			"0.003": 4.7642707528,
			"0.004": 3.65501501866,
			"0.005": 2.51137901796,
			"0.006": 3.97888147496,
			"0.007": 4.03134925238,
			"0.008": 2.76435921309,
			"0.009": 2.71958147674,
			"0.01": 1.89390407193,
			"0.011": 1.46490210111,
			"0.012": 0.534392810541,
			"0.013": 0.0,
			"0.014": 0.0,
			"0.015": 0.0,
			"0.016": 0.0,
			"0.017": 0.0,
			"0.018": 0.0,
			"0.019": 0.0,
			"0.02": 0.0,
			"0.021": 0.0,
			"0.022": 0.0,
			"0.023": 0.0,
			"0.024": 0.0,
			"0.025": 0.0
		}
	}
}
