{
	 "smiles": "CCOC(=O)C1=C(N)SC(=C1C)C1=CC=CC=C1", 
	 "Tm": 368.15, 
	 "num_atms": 33, 
	 "gaussian": { 
		 "optdone": 1, 
		 "sigma_profile": "yes", 
		 "theory": "DFT", 
		 "functional": "B3LYP", 
		 "basiset": "6-31G**", 
		 "properties": { 
			 "R2extent": 6512.257, 
			 "electric_dipole_moment_norm": 0.64873222519, 
			 "electric_quadrupole_moment_norm": 11.8138421777, 
			 "total_energy": -1145.9429132, 
			 "HOMO_LUMO_gap": 0.16717, 
			 "cosmo_polarized_energy": -10.2, 
			 "cosmo_cavitation_energy": 37.6, 
			 "cosmo_dispersion_energy": -27.42, 
			 "cosmo_repulsion_energy": 2.09, 
			 "cosmo_total_nonelectrostatic_energy": 12.27, 
			 "SMD_solvation_energy": 6.73 
		},
		"coords": [
			{
				"x": 2.9799733533,
				"y": -2.6990998795,
				"z": -4.2163553976,
				"element": "C" 
			},
			{
				"x": 3.5342595902,
				"y": -2.3097461763,
				"z": -2.8585421734,
				"element": "C" 
			},
			{
				"x": 2.521456135,
				"y": -1.5326433994,
				"z": -2.1836456087,
				"element": "O" 
			},
			{
				"x": 2.8462745847,
				"y": -1.086553956,
				"z": -0.9476071386,
				"element": "C" 
			},
			{
				"x": 3.94503395,
				"y": -1.337916483,
				"z": -0.4477045042,
				"element": "O" 
			},
			{
				"x": 1.8043618684,
				"y": -0.3022872125,
				"z": -0.2927722079,
				"element": "C" 
			},
			{
				"x": 2.0674825565,
				"y": 0.2303882347,
				"z": 0.9744789567,
				"element": "C" 
			},
			{
				"x": 3.2290203143,
				"y": 0.1570936602,
				"z": 1.6694376076,
				"element": "N" 
			},
			{
				"x": 0.7024597981,
				"y": 1.120716797,
				"z": 1.5870595518,
				"element": "S" 
			},
			{
				"x": -0.2513766158,
				"y": 0.767366036,
				"z": 0.1292967106,
				"element": "C" 
			},
			{
				"x": 0.4633624551,
				"y": 0.0094488233,
				"z": -0.7620668128,
				"element": "C" 
			},
			{
				"x": -0.1185989282,
				"y": -0.5094903874,
				"z": -2.0516342158,
				"element": "C" 
			},
			{
				"x": -1.6227507266,
				"y": 1.3015524453,
				"z": 0.0604769021,
				"element": "C" 
			},
			{
				"x": -2.0850608745,
				"y": 1.9707537036,
				"z": -1.0883773863,
				"element": "C" 
			},
			{
				"x": -3.3834908161,
				"y": 2.4753519699,
				"z": -1.1488443128,
				"element": "C" 
			},
			{
				"x": -4.2429916982,
				"y": 2.3445991541,
				"z": -0.0564853928,
				"element": "C" 
			},
			{
				"x": -3.7921655959,
				"y": 1.7013477243,
				"z": 1.0980853529,
				"element": "C" 
			},
			{
				"x": -2.4998339277,
				"y": 1.1828163227,
				"z": 1.1552498722,
				"element": "C" 
			},
			{
				"x": 2.0716965795,
				"y": -3.2998190115,
				"z": -4.1124060794,
				"element": "H" 
			},
			{
				"x": 3.7213949336,
				"y": -3.2895785966,
				"z": -4.7637822979,
				"element": "H" 
			},
			{
				"x": 2.7401851952,
				"y": -1.8126270725,
				"z": -4.8106856652,
				"element": "H" 
			},
			{
				"x": 3.777542057,
				"y": -3.185455329,
				"z": -2.2484898458,
				"element": "H" 
			},
			{
				"x": 4.4452003227,
				"y": -1.7090597272,
				"z": -2.9443545242,
				"element": "H" 
			},
			{
				"x": 3.9186539138,
				"y": -0.4731178205,
				"z": 1.2682857245,
				"element": "H" 
			},
			{
				"x": 3.2398770048,
				"y": 0.3563507893,
				"z": 2.6563595036,
				"element": "H" 
			},
			{
				"x": 0.380658887,
				"y": -0.0734489251,
				"z": -2.9232244367,
				"element": "H" 
			},
			{
				"x": 0.0177800205,
				"y": -1.59114506,
				"z": -2.1273599326,
				"element": "H" 
			},
			{
				"x": -1.1845615886,
				"y": -0.2866228917,
				"z": -2.1138631708,
				"element": "H" 
			},
			{
				"x": -1.4108159605,
				"y": 2.112448876,
				"z": -1.9267621983,
				"element": "H" 
			},
			{
				"x": -3.7181022644,
				"y": 2.9871818075,
				"z": -2.0469154168,
				"element": "H" 
			},
			{
				"x": -5.2515926059,
				"y": 2.7449113336,
				"z": -0.1021077733,
				"element": "H" 
			},
			{
				"x": -4.4516777092,
				"y": 1.594172968,
				"z": 1.9547766248,
				"element": "H" 
			},
			{
				"x": -2.1659542081,
				"y": 0.6649112827,
				"z": 2.0498796851,
				"element": "H" 
			}
		],
		 "valence_orbital": [ 
			{
				"type": "occ",
				"energy": -0.26886,
				"method": "rhf"
			},
			{
				"type": "occ",
				"energy": -0.25115,
				"method": "rhf"
			},
			{
				"type": "occ",
				"energy": -0.24907,
				"method": "rhf"
			},
			{
				"type": "occ",
				"energy": -0.2441,
				"method": "rhf"
			},
			{
				"type": "occ",
				"energy": -0.18728,
				"method": "rhf"
			},
			{
				"type": "unocc",
				"energy": -0.02011,
				"method": "rhf"
			},
			{
				"type": "unocc",
				"energy": -0.01377,
				"method": "rhf"
			},
			{
				"type": "unocc",
				"energy": -0.00348,
				"method": "rhf"
			},
			{
				"type": "unocc",
				"energy": 0.02105,
				"method": "rhf"
			},
			{
				"type": "unocc",
				"energy": 0.03856,
				"method": "rhf"
			}
		],
		"cosmo_sigma_profile": { 
			"-0.025": 0.0,
			"-0.024": 0.0,
			"-0.023": 0.0,
			"-0.022": 0.0,
			"-0.021": 0.0,
			"-0.02": 0.0,
			"-0.019": 0.0,
			"-0.018": 0.0,
			"-0.017": 0.0,
			"-0.016": 0.0135795853027,
			"-0.015": 0.868668975267,
			"-0.014": 1.09483540238,
			"-0.013": 1.30279974413,
			"-0.012": 1.28291545776,
			"-0.011": 1.23566933091,
			"-0.01": 1.52841800732,
			"-0.009": 2.01373253339,
			"-0.008": 2.02781449818,
			"-0.007": 1.65966763187,
			"-0.006": 4.98091114823,
			"-0.005": 14.4011311395,
			"-0.004": 23.9949741321,
			"-0.003": 27.6863640376,
			"-0.002": 25.2264186887,
			"-0.001": 26.6781532017,
			"0.0": 28.1252234128,
			"0.001": 26.1343329281,
			"0.002": 24.2358262003,
			"0.003": 25.4458681468,
			"0.004": 24.6797430785,
			"0.005": 16.7782016789,
			"0.006": 7.60213595438,
			"0.007": 1.81627081989,
			"0.008": 2.12811212686,
			"0.009": 1.77940948528,
			"0.01": 1.24935524628,
			"0.011": 2.00987720673,
			"0.012": 1.92455191105,
			"0.013": 0.802814273644,
			"0.014": 0.0,
			"0.015": 0.0,
			"0.016": 0.0,
			"0.017": 0.0,
			"0.018": 0.0,
			"0.019": 0.0,
			"0.02": 0.0,
			"0.021": 0.0,
			"0.022": 0.0,
			"0.023": 0.0,
			"0.024": 0.0,
			"0.025": 0.0
		}
	}
}
