{
	 "smiles": "OC(=O)C1(CCOCC1)C1=CC=C(Br)C=C1", 
	 "Tm": 469.15, 
	 "num_atms": 29, 
	 "gaussian": { 
		 "optdone": 1, 
		 "sigma_profile": "yes", 
		 "theory": "DFT", 
		 "functional": "B3LYP", 
		 "basiset": "6-31G**", 
		 "properties": { 
			 "R2extent": 6859.5477, 
			 "electric_dipole_moment_norm": 3.19261365185, 
			 "electric_quadrupole_moment_norm": 20.2388985926, 
			 "total_energy": -3262.18387326, 
			 "HOMO_LUMO_gap": 0.20975, 
			 "cosmo_polarized_energy": -15.84, 
			 "cosmo_cavitation_energy": 32.77, 
			 "cosmo_dispersion_energy": -24.01, 
			 "cosmo_repulsion_energy": 1.86, 
			 "cosmo_total_nonelectrostatic_energy": 10.62, 
			 "SMD_solvation_energy": 5.07 
		},
		"coords": [
			{
				"x": -0.6274204059,
				"y": 2.6888503047,
				"z": -1.4108589737,
				"element": "O" 
			},
			{
				"x": -0.029875271,
				"y": 2.3101969406,
				"z": -0.2553150391,
				"element": "C" 
			},
			{
				"x": 0.716116721,
				"y": 3.0655761562,
				"z": 0.3174135651,
				"element": "O" 
			},
			{
				"x": -0.4392314136,
				"y": 0.915472509,
				"z": 0.2920130587,
				"element": "C" 
			},
			{
				"x": 0.5982066045,
				"y": 0.4681914722,
				"z": 1.3551933557,
				"element": "C" 
			},
			{
				"x": 0.0822364543,
				"y": -0.697286629,
				"z": 2.1990832601,
				"element": "C" 
			},
			{
				"x": -1.1299769766,
				"y": -0.3644759143,
				"z": 2.8647328227,
				"element": "O" 
			},
			{
				"x": -2.1605651037,
				"y": -0.0561336328,
				"z": 1.942608468,
				"element": "C" 
			},
			{
				"x": -1.785823026,
				"y": 1.1340672764,
				"z": 1.0485333996,
				"element": "C" 
			},
			{
				"x": -0.5264186484,
				"y": -0.0764629166,
				"z": -0.8826885731,
				"element": "C" 
			},
			{
				"x": -1.7329211307,
				"y": -0.6126634898,
				"z": -1.3589297744,
				"element": "C" 
			},
			{
				"x": -1.7694798432,
				"y": -1.4770609178,
				"z": -2.4574842479,
				"element": "C" 
			},
			{
				"x": -0.5842477551,
				"y": -1.8119269975,
				"z": -3.1027193208,
				"element": "C" 
			},
			{
				"x": -0.6208011398,
				"y": -2.9936422616,
				"z": -4.5999247545,
				"element": "Br" 
			},
			{
				"x": 0.6322600822,
				"y": -1.2851914413,
				"z": -2.6674385979,
				"element": "C" 
			},
			{
				"x": 0.6501575336,
				"y": -0.4275909804,
				"z": -1.5714427272,
				"element": "C" 
			},
			{
				"x": -1.1131649554,
				"y": 1.9388045607,
				"z": -1.7891103936,
				"element": "H" 
			},
			{
				"x": 0.8007906948,
				"y": 1.3244028286,
				"z": 2.0030886552,
				"element": "H" 
			},
			{
				"x": 1.5489841581,
				"y": 0.1954940547,
				"z": 0.8873606919,
				"element": "H" 
			},
			{
				"x": -0.061988978,
				"y": -1.5965206335,
				"z": 1.5764942547,
				"element": "H" 
			},
			{
				"x": 0.8025595267,
				"y": -0.9450777626,
				"z": 2.9838014079,
				"element": "H" 
			},
			{
				"x": -3.0448647596,
				"y": 0.1906623883,
				"z": 2.5380923339,
				"element": "H" 
			},
			{
				"x": -2.4004525241,
				"y": -0.9445769803,
				"z": 1.3367738965,
				"element": "H" 
			},
			{
				"x": -2.603503213,
				"y": 1.3690767043,
				"z": 0.3581085027,
				"element": "H" 
			},
			{
				"x": -1.6582467882,
				"y": 2.0109506875,
				"z": 1.6920718056,
				"element": "H" 
			},
			{
				"x": -2.6723481179,
				"y": -0.3730628818,
				"z": -0.8744850453,
				"element": "H" 
			},
			{
				"x": -2.7134725143,
				"y": -1.8846589528,
				"z": -2.8009191051,
				"element": "H" 
			},
			{
				"x": 1.552252461,
				"y": -1.5386050701,
				"z": -3.1818205758,
				"element": "H" 
			},
			{
				"x": 1.6036383284,
				"y": -0.0133084209,
				"z": -1.2577323498,
				"element": "H" 
			}
		],
		 "valence_orbital": [ 
			{
				"type": "occ",
				"energy": -0.29988,
				"method": "rhf"
			},
			{
				"type": "occ",
				"energy": -0.28305,
				"method": "rhf"
			},
			{
				"type": "occ",
				"energy": -0.27797,
				"method": "rhf"
			},
			{
				"type": "occ",
				"energy": -0.2631,
				"method": "rhf"
			},
			{
				"type": "occ",
				"energy": -0.2488,
				"method": "rhf"
			},
			{
				"type": "unocc",
				"energy": -0.03905,
				"method": "rhf"
			},
			{
				"type": "unocc",
				"energy": -0.03696,
				"method": "rhf"
			},
			{
				"type": "unocc",
				"energy": -0.00659,
				"method": "rhf"
			},
			{
				"type": "unocc",
				"energy": 0.00788,
				"method": "rhf"
			},
			{
				"type": "unocc",
				"energy": 0.06874,
				"method": "rhf"
			}
		],
		"cosmo_sigma_profile": { 
			"-0.025": 0.0,
			"-0.024": 0.0,
			"-0.023": 0.0,
			"-0.022": 0.0,
			"-0.021": 0.0,
			"-0.02": 0.0,
			"-0.019": 0.0,
			"-0.018": 0.0,
			"-0.017": 0.0,
			"-0.016": 0.0,
			"-0.015": 0.05215284073,
			"-0.014": 0.881110724589,
			"-0.013": 1.14511782889,
			"-0.012": 1.48696456168,
			"-0.011": 0.90189280406,
			"-0.01": 1.08157745895,
			"-0.009": 1.06555729052,
			"-0.008": 5.25982961602,
			"-0.007": 10.9224308074,
			"-0.006": 11.7786815753,
			"-0.005": 14.6354768591,
			"-0.004": 21.2808871316,
			"-0.003": 27.4901091778,
			"-0.002": 23.7343419287,
			"-0.001": 15.5901252478,
			"0.0": 13.5392522641,
			"0.001": 18.0412880247,
			"0.002": 18.4927814081,
			"0.003": 14.3383841271,
			"0.004": 14.9142051728,
			"0.005": 7.70478834364,
			"0.006": 3.58253939145,
			"0.007": 3.94051508444,
			"0.008": 4.27445912317,
			"0.009": 4.15799412656,
			"0.01": 6.12012213116,
			"0.011": 6.36112138722,
			"0.012": 5.72979964485,
			"0.013": 3.33240279457,
			"0.014": 0.368795222842,
			"0.015": 0.0,
			"0.016": 0.0,
			"0.017": 0.0,
			"0.018": 0.0,
			"0.019": 0.0,
			"0.02": 0.0,
			"0.021": 0.0,
			"0.022": 0.0,
			"0.023": 0.0,
			"0.024": 0.0,
			"0.025": 0.0
		}
	}
}
