{
	 "smiles": "CC1=C(CCO)N=C(O1)C1=CC=CC=C1", 
	 "Tm": 346.65, 
	 "num_atms": 28, 
	 "gaussian": { 
		 "optdone": 1, 
		 "sigma_profile": "yes", 
		 "theory": "DFT", 
		 "functional": "B3LYP", 
		 "basiset": "6-31G**", 
		 "properties": { 
			 "R2extent": 4823.7269, 
			 "electric_dipole_moment_norm": 1.54652603276, 
			 "electric_quadrupole_moment_norm": 7.99092583309, 
			 "total_energy": -670.309976414, 
			 "HOMO_LUMO_gap": 0.17117, 
			 "cosmo_polarized_energy": -10.23, 
			 "cosmo_cavitation_energy": 31.88, 
			 "cosmo_dispersion_energy": -23.22, 
			 "cosmo_repulsion_energy": 1.85, 
			 "cosmo_total_nonelectrostatic_energy": 10.51, 
			 "SMD_solvation_energy": 4.35 
		},
		"coords": [
			{
				"x": 0.8479129811,
				"y": 2.7840313287,
				"z": -1.4955962392,
				"element": "C" 
			},
			{
				"x": 0.6579559311,
				"y": 1.633469923,
				"z": -0.5756875706,
				"element": "C" 
			},
			{
				"x": 1.0691367231,
				"y": 0.3316555651,
				"z": -0.5562712589,
				"element": "C" 
			},
			{
				"x": 1.9268897933,
				"y": -0.4210274888,
				"z": -1.5299670481,
				"element": "C" 
			},
			{
				"x": 3.4280403849,
				"y": -0.2011235001,
				"z": -1.3334564978,
				"element": "C" 
			},
			{
				"x": 3.7266335358,
				"y": 1.1428828113,
				"z": -1.6985037914,
				"element": "O" 
			},
			{
				"x": 0.5755945076,
				"y": -0.2832642718,
				"z": 0.5889689308,
				"element": "N" 
			},
			{
				"x": -0.1071106905,
				"y": 0.6393503781,
				"z": 1.2066494208,
				"element": "C" 
			},
			{
				"x": -0.1036451305,
				"y": 1.8375452373,
				"z": 0.5531425119,
				"element": "O" 
			},
			{
				"x": -0.841859349,
				"y": 0.5323426099,
				"z": 2.4632978036,
				"element": "C" 
			},
			{
				"x": -1.5307698111,
				"y": 1.6308881822,
				"z": 3.0022092839,
				"element": "C" 
			},
			{
				"x": -2.2233482745,
				"y": 1.5001497372,
				"z": 4.2044176092,
				"element": "C" 
			},
			{
				"x": -2.2374649889,
				"y": 0.2783144077,
				"z": 4.880670845,
				"element": "C" 
			},
			{
				"x": -1.5527319622,
				"y": -0.8175663709,
				"z": 4.3467341378,
				"element": "C" 
			},
			{
				"x": -0.8586516988,
				"y": -0.695425295,
				"z": 3.1467329646,
				"element": "C" 
			},
			{
				"x": 1.1980866664,
				"y": 3.6661082509,
				"z": -0.9481312599,
				"element": "H" 
			},
			{
				"x": 1.6035697682,
				"y": 2.5311097475,
				"z": -2.240339286,
				"element": "H" 
			},
			{
				"x": -0.0850987026,
				"y": 3.0592952287,
				"z": -2.0027151157,
				"element": "H" 
			},
			{
				"x": 1.7120210883,
				"y": -1.4883756281,
				"z": -1.4161047157,
				"element": "H" 
			},
			{
				"x": 1.6780240699,
				"y": -0.1451194179,
				"z": -2.5611577238,
				"element": "H" 
			},
			{
				"x": 3.9847092801,
				"y": -0.9128314867,
				"z": -1.9638737722,
				"element": "H" 
			},
			{
				"x": 3.6938696571,
				"y": -0.4010779242,
				"z": -0.2847755182,
				"element": "H" 
			},
			{
				"x": 4.6342710918,
				"y": 1.3362826745,
				"z": -1.4351637265,
				"element": "H" 
			},
			{
				"x": -1.5191237042,
				"y": 2.5792825969,
				"z": 2.4757969962,
				"element": "H" 
			},
			{
				"x": -2.7536370159,
				"y": 2.3550921847,
				"z": 4.6141013566,
				"element": "H" 
			},
			{
				"x": -2.7784090861,
				"y": 0.1798504309,
				"z": 5.817410794,
				"element": "H" 
			},
			{
				"x": -1.5607617024,
				"y": -1.7703742089,
				"z": 4.8683795691,
				"element": "H" 
			},
			{
				"x": -0.3234033619,
				"y": -1.5371657023,
				"z": 2.7204313006,
				"element": "H" 
			}
		],
		 "valence_orbital": [ 
			{
				"type": "occ",
				"energy": -0.27573,
				"method": "rhf"
			},
			{
				"type": "occ",
				"energy": -0.2704,
				"method": "rhf"
			},
			{
				"type": "occ",
				"energy": -0.2662,
				"method": "rhf"
			},
			{
				"type": "occ",
				"energy": -0.24919,
				"method": "rhf"
			},
			{
				"type": "occ",
				"energy": -0.20356,
				"method": "rhf"
			},
			{
				"type": "unocc",
				"energy": -0.03239,
				"method": "rhf"
			},
			{
				"type": "unocc",
				"energy": 0.00145,
				"method": "rhf"
			},
			{
				"type": "unocc",
				"energy": 0.04085,
				"method": "rhf"
			},
			{
				"type": "unocc",
				"energy": 0.07083,
				"method": "rhf"
			},
			{
				"type": "unocc",
				"energy": 0.08452,
				"method": "rhf"
			}
		],
		"cosmo_sigma_profile": { 
			"-0.025": 0.0,
			"-0.024": 0.0,
			"-0.023": 0.0,
			"-0.022": 0.0,
			"-0.021": 0.0,
			"-0.02": 0.0,
			"-0.019": 0.0,
			"-0.018": 0.0,
			"-0.017": 0.0,
			"-0.016": 0.440764496118,
			"-0.015": 0.930049553032,
			"-0.014": 1.19274338352,
			"-0.013": 0.932757723974,
			"-0.012": 0.919509504541,
			"-0.011": 0.587011537749,
			"-0.01": 0.854503262449,
			"-0.009": 0.796574061835,
			"-0.008": 0.986221092044,
			"-0.007": 1.14076382547,
			"-0.006": 7.24730964058,
			"-0.005": 14.9553959637,
			"-0.004": 21.774602297,
			"-0.003": 26.2669375429,
			"-0.002": 23.4867285615,
			"-0.001": 21.2196509516,
			"0.0": 20.5535666463,
			"0.001": 18.8097206708,
			"0.002": 17.4035526409,
			"0.003": 17.8180257464,
			"0.004": 16.6086243856,
			"0.005": 15.2161212633,
			"0.006": 4.29511988846,
			"0.007": 2.96953533594,
			"0.008": 4.07055834145,
			"0.009": 3.02788967392,
			"0.01": 2.62448845943,
			"0.011": 1.88588892686,
			"0.012": 1.24026462801,
			"0.013": 1.40556046813,
			"0.014": 1.0737784214,
			"0.015": 0.142338452141,
			"0.016": 0.0,
			"0.017": 0.0,
			"0.018": 0.0,
			"0.019": 0.0,
			"0.02": 0.0,
			"0.021": 0.0,
			"0.022": 0.0,
			"0.023": 0.0,
			"0.024": 0.0,
			"0.025": 0.0
		}
	}
}
