{
	 "smiles": "CC(C)(C)OC(=O)N1CCN(CCN)CC1", 
	 "Tm": 308.15, 
	 "num_atms": 39, 
	 "gaussian": { 
		 "optdone": 1, 
		 "sigma_profile": "yes", 
		 "theory": "DFT", 
		 "functional": "B3LYP", 
		 "basiset": "6-31G**", 
		 "properties": { 
			 "R2extent": 6395.5778, 
			 "electric_dipole_moment_norm": 2.93957641336, 
			 "electric_quadrupole_moment_norm": 8.41474281009, 
			 "total_energy": -747.759474524, 
			 "HOMO_LUMO_gap": 0.27313, 
			 "cosmo_polarized_energy": -12.56, 
			 "cosmo_cavitation_energy": 38.6, 
			 "cosmo_dispersion_energy": -27.27, 
			 "cosmo_repulsion_energy": 2.17, 
			 "cosmo_total_nonelectrostatic_energy": 13.51, 
			 "SMD_solvation_energy": 3.12 
		},
		"coords": [
			{
				"x": -2.1509863894,
				"y": 3.712245594,
				"z": 1.0184170348,
				"element": "C" 
			},
			{
				"x": -1.3801963493,
				"y": 2.7564876797,
				"z": 1.9356536469,
				"element": "C" 
			},
			{
				"x": -0.1980028182,
				"y": 3.4736795644,
				"z": 2.593869789,
				"element": "C" 
			},
			{
				"x": -2.2819603332,
				"y": 2.1146241883,
				"z": 2.9957567895,
				"element": "C" 
			},
			{
				"x": -0.7160344213,
				"y": 1.7146516548,
				"z": 1.138666834,
				"element": "O" 
			},
			{
				"x": -1.4400760023,
				"y": 0.8500539719,
				"z": 0.3837329972,
				"element": "C" 
			},
			{
				"x": -2.6611821751,
				"y": 0.834197831,
				"z": 0.3021306106,
				"element": "O" 
			},
			{
				"x": -0.6222410483,
				"y": -0.0121915809,
				"z": -0.3005849474,
				"element": "N" 
			},
			{
				"x": 0.8271407968,
				"y": -0.0941518806,
				"z": -0.1524116188,
				"element": "C" 
			},
			{
				"x": 1.48576097,
				"y": -0.2407389887,
				"z": -1.5261332724,
				"element": "C" 
			},
			{
				"x": 0.9344418855,
				"y": -1.388215365,
				"z": -2.2482465919,
				"element": "N" 
			},
			{
				"x": 1.641579108,
				"y": -1.646892481,
				"z": -3.5022479149,
				"element": "C" 
			},
			{
				"x": 1.4372730982,
				"y": -3.0736485202,
				"z": -4.0427105169,
				"element": "C" 
			},
			{
				"x": 2.1872629903,
				"y": -3.381673824,
				"z": -5.2614579216,
				"element": "N" 
			},
			{
				"x": -0.50880308,
				"y": -1.2125416112,
				"z": -2.4341531695,
				"element": "C" 
			},
			{
				"x": -1.2165010998,
				"y": -1.0888539196,
				"z": -1.084963923,
				"element": "C" 
			},
			{
				"x": -2.5436508878,
				"y": 4.5488044498,
				"z": 1.6057710188,
				"element": "H" 
			},
			{
				"x": -1.4856908461,
				"y": 4.1198763196,
				"z": 0.2504197889,
				"element": "H" 
			},
			{
				"x": -2.9813318236,
				"y": 3.200140381,
				"z": 0.5322825865,
				"element": "H" 
			},
			{
				"x": 0.3789637525,
				"y": 2.779856101,
				"z": 3.2124199022,
				"element": "H" 
			},
			{
				"x": 0.4681427826,
				"y": 3.8970802012,
				"z": 1.8362243804,
				"element": "H" 
			},
			{
				"x": -0.558638821,
				"y": 4.287033538,
				"z": 3.2305762527,
				"element": "H" 
			},
			{
				"x": -2.6809061266,
				"y": 2.8905393351,
				"z": 3.6573979346,
				"element": "H" 
			},
			{
				"x": -1.7073751826,
				"y": 1.4106375425,
				"z": 3.6062999672,
				"element": "H" 
			},
			{
				"x": -3.112603063,
				"y": 1.5839531131,
				"z": 2.5306520247,
				"element": "H" 
			},
			{
				"x": 1.0880498685,
				"y": -0.9677542793,
				"z": 0.4637245471,
				"element": "H" 
			},
			{
				"x": 1.187563501,
				"y": 0.8024221384,
				"z": 0.3483172322,
				"element": "H" 
			},
			{
				"x": 2.5618077571,
				"y": -0.3954954315,
				"z": -1.388174189,
				"element": "H" 
			},
			{
				"x": 1.3528040239,
				"y": 0.7037712428,
				"z": -2.0904639233,
				"element": "H" 
			},
			{
				"x": 1.3693898929,
				"y": -0.9134623904,
				"z": -4.2895831602,
				"element": "H" 
			},
			{
				"x": 2.7143333105,
				"y": -1.5109950409,
				"z": -3.313155642,
				"element": "H" 
			},
			{
				"x": 1.7259186515,
				"y": -3.7863484595,
				"z": -3.2622037048,
				"element": "H" 
			},
			{
				"x": 0.3775591872,
				"y": -3.2572466595,
				"z": -4.2524717073,
				"element": "H" 
			},
			{
				"x": 1.9255692746,
				"y": -2.7371976924,
				"z": -6.0045074264,
				"element": "H" 
			},
			{
				"x": 3.1830025156,
				"y": -3.2425014785,
				"z": -5.102533298,
				"element": "H" 
			},
			{
				"x": -0.7292024114,
				"y": -0.3147655034,
				"z": -3.0454432008,
				"element": "H" 
			},
			{
				"x": -0.9158062898,
				"y": -2.0792750152,
				"z": -2.9627757073,
				"element": "H" 
			},
			{
				"x": -1.1215218723,
				"y": -2.0404598109,
				"z": -0.5411950726,
				"element": "H" 
			},
			{
				"x": -2.2755523259,
				"y": -0.867144914,
				"z": -1.2152964295,
				"element": "H" 
			}
		],
		 "valence_orbital": [ 
			{
				"type": "occ",
				"energy": -0.2832,
				"method": "rhf"
			},
			{
				"type": "occ",
				"energy": -0.25594,
				"method": "rhf"
			},
			{
				"type": "occ",
				"energy": -0.24201,
				"method": "rhf"
			},
			{
				"type": "occ",
				"energy": -0.23095,
				"method": "rhf"
			},
			{
				"type": "occ",
				"energy": -0.21768,
				"method": "rhf"
			},
			{
				"type": "unocc",
				"energy": 0.05545,
				"method": "rhf"
			},
			{
				"type": "unocc",
				"energy": 0.07847,
				"method": "rhf"
			},
			{
				"type": "unocc",
				"energy": 0.08405,
				"method": "rhf"
			},
			{
				"type": "unocc",
				"energy": 0.09529,
				"method": "rhf"
			},
			{
				"type": "unocc",
				"energy": 0.10507,
				"method": "rhf"
			}
		],
		"cosmo_sigma_profile": { 
			"-0.025": 0.0,
			"-0.024": 0.0,
			"-0.023": 0.0,
			"-0.022": 0.0,
			"-0.021": 0.0,
			"-0.02": 0.0,
			"-0.019": 0.0,
			"-0.018": 0.0,
			"-0.017": 0.0,
			"-0.016": 0.0,
			"-0.015": 0.0,
			"-0.014": 0.0,
			"-0.013": 0.0,
			"-0.012": 0.0,
			"-0.011": 0.0,
			"-0.01": 0.323983526842,
			"-0.009": 2.3078344695,
			"-0.008": 3.07740310819,
			"-0.007": 2.93632612762,
			"-0.006": 3.35795475297,
			"-0.005": 7.39066287449,
			"-0.004": 27.7528647968,
			"-0.003": 38.2056569193,
			"-0.002": 43.1167155279,
			"-0.001": 39.6021794259,
			"0.0": 35.5108467008,
			"0.001": 28.2914820808,
			"0.002": 12.1354619023,
			"0.003": 8.26918374059,
			"0.004": 6.94899546141,
			"0.005": 6.53082581076,
			"0.006": 4.40931797065,
			"0.007": 2.87529473058,
			"0.008": 3.25809530097,
			"0.009": 2.69648952192,
			"0.01": 3.18156975727,
			"0.011": 1.95360535899,
			"0.012": 3.31642725593,
			"0.013": 3.60583202406,
			"0.014": 2.99601879132,
			"0.015": 0.526411545296,
			"0.016": 0.370712750001,
			"0.017": 0.820589878953,
			"0.018": 0.767179922242,
			"0.019": 0.587965354173,
			"0.02": 0.470652315224,
			"0.021": 0.00708563940613,
			"0.022": 0.0,
			"0.023": 0.0,
			"0.024": 0.0,
			"0.025": 0.0
		}
	}
}
