{
	 "smiles": "CC(C)(C)OC(=O)NC(CC1=CC=CC=C1)C(O)C(F)(F)F", 
	 "Tm": 423.15, 
	 "num_atms": 42, 
	 "gaussian": { 
		 "optdone": 1, 
		 "sigma_profile": "yes", 
		 "theory": "DFT", 
		 "functional": "B3LYP", 
		 "basiset": "6-31G**", 
		 "properties": { 
			 "R2extent": 8201.7235, 
			 "electric_dipole_moment_norm": 4.14447947395, 
			 "electric_quadrupole_moment_norm": 17.9523105326, 
			 "total_energy": -1163.64150583, 
			 "HOMO_LUMO_gap": 0.2345, 
			 "cosmo_polarized_energy": -14.24, 
			 "cosmo_cavitation_energy": 43.81, 
			 "cosmo_dispersion_energy": -28.25, 
			 "cosmo_repulsion_energy": 2.1, 
			 "cosmo_total_nonelectrostatic_energy": 17.66, 
			 "SMD_solvation_energy": 8.38 
		},
		"coords": [
			{
				"x": 1.2750313742,
				"y": -1.5723617622,
				"z": 0.8607634369,
				"element": "C" 
			},
			{
				"x": 0.561557518,
				"y": -2.2631219749,
				"z": -0.3052647348,
				"element": "C" 
			},
			{
				"x": -0.2306245494,
				"y": -3.4783792096,
				"z": 0.1832443176,
				"element": "C" 
			},
			{
				"x": 1.5218043404,
				"y": -2.6553127722,
				"z": -1.4323016206,
				"element": "C" 
			},
			{
				"x": -0.5037370817,
				"y": -1.3872206348,
				"z": -0.8350790603,
				"element": "O" 
			},
			{
				"x": -0.2204266269,
				"y": -0.1925025766,
				"z": -1.3867221187,
				"element": "C" 
			},
			{
				"x": 0.9007100659,
				"y": 0.3057648981,
				"z": -1.4612409468,
				"element": "O" 
			},
			{
				"x": -1.3658590616,
				"y": 0.3617504503,
				"z": -1.8785267849,
				"element": "N" 
			},
			{
				"x": -1.5516159588,
				"y": 1.7319838271,
				"z": -2.3631915939,
				"element": "C" 
			},
			{
				"x": -1.7835428408,
				"y": 2.7680419167,
				"z": -1.2171925088,
				"element": "C" 
			},
			{
				"x": -0.8767385825,
				"y": 2.7087014993,
				"z": -0.0033754169,
				"element": "C" 
			},
			{
				"x": -1.2706021028,
				"y": 1.9747817243,
				"z": 1.1240465063,
				"element": "C" 
			},
			{
				"x": -0.4700220328,
				"y": 1.9248953524,
				"z": 2.2672171134,
				"element": "C" 
			},
			{
				"x": 0.73882426,
				"y": 2.6203858469,
				"z": 2.3019438708,
				"element": "C" 
			},
			{
				"x": 1.1379504286,
				"y": 3.3626886184,
				"z": 1.1879546426,
				"element": "C" 
			},
			{
				"x": 0.3381478556,
				"y": 3.4069522746,
				"z": 0.0466608593,
				"element": "C" 
			},
			{
				"x": -0.5145481292,
				"y": 2.2172107854,
				"z": -3.4091916109,
				"element": "C" 
			},
			{
				"x": 0.7569090285,
				"y": 2.5312797775,
				"z": -2.9257742875,
				"element": "O" 
			},
			{
				"x": -0.4178475387,
				"y": 1.2731818338,
				"z": -4.6196132676,
				"element": "C" 
			},
			{
				"x": 0.230148831,
				"y": 0.1245833191,
				"z": -4.3438591844,
				"element": "F" 
			},
			{
				"x": -1.654420318,
				"y": 0.9452237467,
				"z": -5.0794914702,
				"element": "F" 
			},
			{
				"x": 0.2375600565,
				"y": 1.8718081968,
				"z": -5.6312582949,
				"element": "F" 
			},
			{
				"x": 0.5495042296,
				"y": -1.2486197644,
				"z": 1.612981513,
				"element": "H" 
			},
			{
				"x": 1.9663272177,
				"y": -2.2780466497,
				"z": 1.3329882279,
				"element": "H" 
			},
			{
				"x": 1.8355069983,
				"y": -0.7016697258,
				"z": 0.5211091719,
				"element": "H" 
			},
			{
				"x": 0.4503450087,
				"y": -4.2225252572,
				"z": 0.606411013,
				"element": "H" 
			},
			{
				"x": -0.779038444,
				"y": -3.9407385819,
				"z": -0.6425623945,
				"element": "H" 
			},
			{
				"x": -0.9482472408,
				"y": -3.1871896309,
				"z": 0.955771175,
				"element": "H" 
			},
			{
				"x": 2.0724718139,
				"y": -1.7894676822,
				"z": -1.8004142661,
				"element": "H" 
			},
			{
				"x": 2.237735037,
				"y": -3.3951629853,
				"z": -1.0600483647,
				"element": "H" 
			},
			{
				"x": 0.9703762177,
				"y": -3.1047325176,
				"z": -2.2640356324,
				"element": "H" 
			},
			{
				"x": -2.2002536809,
				"y": -0.1808409667,
				"z": -1.7113134676,
				"element": "H" 
			},
			{
				"x": -2.4901428183,
				"y": 1.6884444409,
				"z": -2.9243522056,
				"element": "H" 
			},
			{
				"x": -2.8144564362,
				"y": 2.6254080168,
				"z": -0.8729874587,
				"element": "H" 
			},
			{
				"x": -1.7457017511,
				"y": 3.7681720907,
				"z": -1.6639598937,
				"element": "H" 
			},
			{
				"x": -2.2201150039,
				"y": 1.4444042646,
				"z": 1.1117511801,
				"element": "H" 
			},
			{
				"x": -0.7973837337,
				"y": 1.3537679186,
				"z": 3.1317621441,
				"element": "H" 
			},
			{
				"x": 1.3621072642,
				"y": 2.5900736707,
				"z": 3.1911645477,
				"element": "H" 
			},
			{
				"x": 2.0759584861,
				"y": 3.9105020944,
				"z": 1.2075623341,
				"element": "H" 
			},
			{
				"x": 0.6647110691,
				"y": 3.9644672386,
				"z": -0.8248890622,
				"element": "H" 
			},
			{
				"x": -0.934534011,
				"y": 3.1430498972,
				"z": -3.8227906046,
				"element": "H" 
			},
			{
				"x": 1.042670842,
				"y": 1.765668992,
				"z": -2.3776958023,
				"element": "H" 
			}
		],
		 "valence_orbital": [ 
			{
				"type": "occ",
				"energy": -0.27875,
				"method": "rhf"
			},
			{
				"type": "occ",
				"energy": -0.27292,
				"method": "rhf"
			},
			{
				"type": "occ",
				"energy": -0.26699,
				"method": "rhf"
			},
			{
				"type": "occ",
				"energy": -0.24562,
				"method": "rhf"
			},
			{
				"type": "occ",
				"energy": -0.23688,
				"method": "rhf"
			},
			{
				"type": "unocc",
				"energy": -0.00238,
				"method": "rhf"
			},
			{
				"type": "unocc",
				"energy": 0.00203,
				"method": "rhf"
			},
			{
				"type": "unocc",
				"energy": 0.04035,
				"method": "rhf"
			},
			{
				"type": "unocc",
				"energy": 0.05731,
				"method": "rhf"
			},
			{
				"type": "unocc",
				"energy": 0.08523,
				"method": "rhf"
			}
		],
		"cosmo_sigma_profile": { 
			"-0.025": 0.0,
			"-0.024": 0.0,
			"-0.023": 0.0,
			"-0.022": 0.0,
			"-0.021": 0.0,
			"-0.02": 0.0,
			"-0.019": 0.0,
			"-0.018": 0.0,
			"-0.017": 0.0,
			"-0.016": 0.0,
			"-0.015": 0.407074620665,
			"-0.014": 1.05594504367,
			"-0.013": 1.04631079599,
			"-0.012": 1.38497112003,
			"-0.011": 1.04567055364,
			"-0.01": 1.09019085297,
			"-0.009": 1.02219162446,
			"-0.008": 4.68840896515,
			"-0.007": 5.73629520521,
			"-0.006": 7.17780373427,
			"-0.005": 16.9965081446,
			"-0.004": 27.0844289073,
			"-0.003": 29.8704381621,
			"-0.002": 27.1296072648,
			"-0.001": 27.6242160891,
			"0.0": 32.2671909278,
			"0.001": 29.2951012039,
			"0.002": 26.2890544727,
			"0.003": 42.2481829788,
			"0.004": 18.1325081081,
			"0.005": 13.2685321195,
			"0.006": 10.8347344097,
			"0.007": 5.22510837651,
			"0.008": 3.38148853086,
			"0.009": 4.1463146386,
			"0.01": 1.64691263415,
			"0.011": 0.342761188587,
			"0.012": 1.46099841599,
			"0.013": 1.15742539565,
			"0.014": 0.372104647176,
			"0.015": 0.0,
			"0.016": 0.0,
			"0.017": 0.0,
			"0.018": 0.0,
			"0.019": 0.0,
			"0.02": 0.0,
			"0.021": 0.0,
			"0.022": 0.0,
			"0.023": 0.0,
			"0.024": 0.0,
			"0.025": 0.0
		}
	}
}
