{
	 "smiles": "OC(=O)C1=CC=CC(C2=CC=CC=C2)=C1O", 
	 "Tm": 459.15, 
	 "num_atms": 26, 
	 "gaussian": { 
		 "optdone": 1, 
		 "sigma_profile": "yes", 
		 "theory": "DFT", 
		 "functional": "B3LYP", 
		 "basiset": "6-31G**", 
		 "properties": { 
			 "R2extent": 4478.3616, 
			 "electric_dipole_moment_norm": 1.89472481907, 
			 "electric_quadrupole_moment_norm": 12.4294414746, 
			 "total_energy": -727.114921916, 
			 "HOMO_LUMO_gap": 0.1616, 
			 "cosmo_polarized_energy": -10.35, 
			 "cosmo_cavitation_energy": 30.1, 
			 "cosmo_dispersion_energy": -22.51, 
			 "cosmo_repulsion_energy": 1.73, 
			 "cosmo_total_nonelectrostatic_energy": 9.32, 
			 "SMD_solvation_energy": 6.35 
		},
		"coords": [
			{
				"x": -3.5673425869,
				"y": -0.8611988038,
				"z": 3.6511463067,
				"element": "O" 
			},
			{
				"x": -3.2598693148,
				"y": -0.6133864036,
				"z": 2.3630499086,
				"element": "C" 
			},
			{
				"x": -4.1347685431,
				"y": -0.2498681031,
				"z": 1.5715380722,
				"element": "O" 
			},
			{
				"x": -1.8507450318,
				"y": -0.8100431168,
				"z": 2.0146650882,
				"element": "C" 
			},
			{
				"x": -0.9131062751,
				"y": -1.2366269423,
				"z": 2.9741308302,
				"element": "C" 
			},
			{
				"x": 0.410409714,
				"y": -1.4228760394,
				"z": 2.6163598707,
				"element": "C" 
			},
			{
				"x": 0.8051706263,
				"y": -1.1826792843,
				"z": 1.2938909,
				"element": "C" 
			},
			{
				"x": -0.0866689402,
				"y": -0.7601681009,
				"z": 0.3041263043,
				"element": "C" 
			},
			{
				"x": 0.3914200583,
				"y": -0.5456015126,
				"z": -1.0884874875,
				"element": "C" 
			},
			{
				"x": 0.008353892,
				"y": 0.5761290879,
				"z": -1.8437583638,
				"element": "C" 
			},
			{
				"x": 0.5137340669,
				"y": 0.7755931443,
				"z": -3.1272774382,
				"element": "C" 
			},
			{
				"x": 1.4063571795,
				"y": -0.1406720864,
				"z": -3.6874373624,
				"element": "C" 
			},
			{
				"x": 1.7893553512,
				"y": -1.2629407642,
				"z": -2.9519253983,
				"element": "C" 
			},
			{
				"x": 1.2861076095,
				"y": -1.4623455178,
				"z": -1.6668463788,
				"element": "C" 
			},
			{
				"x": -1.4431838869,
				"y": -0.5679038852,
				"z": 0.6748820448,
				"element": "C" 
			},
			{
				"x": -2.316584596,
				"y": -0.1717263283,
				"z": -0.2632500391,
				"element": "O" 
			},
			{
				"x": -4.5203839897,
				"y": -0.6931697081,
				"z": 3.7365762219,
				"element": "H" 
			},
			{
				"x": -1.2469630572,
				"y": -1.4109515514,
				"z": 3.9904909291,
				"element": "H" 
			},
			{
				"x": 1.1404502582,
				"y": -1.7433334905,
				"z": 3.3522160952,
				"element": "H" 
			},
			{
				"x": 1.8486030424,
				"y": -1.3100229557,
				"z": 1.0207032427,
				"element": "H" 
			},
			{
				"x": -0.6864080767,
				"y": 1.2918565014,
				"z": -1.4206877048,
				"element": "H" 
			},
			{
				"x": 0.2093633956,
				"y": 1.6526341824,
				"z": -3.6916549641,
				"element": "H" 
			},
			{
				"x": 1.7951260036,
				"y": 0.0161546386,
				"z": -4.6895506581,
				"element": "H" 
			},
			{
				"x": 2.4743109504,
				"y": -1.9894009877,
				"z": -3.3802133847,
				"element": "H" 
			},
			{
				"x": 1.5724897984,
				"y": -2.3502813778,
				"z": -1.1103652146,
				"element": "H" 
			},
			{
				"x": -3.202727648,
				"y": -0.1068705947,
				"z": 0.1718785801,
				"element": "H" 
			}
		],
		 "valence_orbital": [ 
			{
				"type": "occ",
				"energy": -0.2919,
				"method": "rhf"
			},
			{
				"type": "occ",
				"energy": -0.27662,
				"method": "rhf"
			},
			{
				"type": "occ",
				"energy": -0.24544,
				"method": "rhf"
			},
			{
				"type": "occ",
				"energy": -0.24468,
				"method": "rhf"
			},
			{
				"type": "occ",
				"energy": -0.21736,
				"method": "rhf"
			},
			{
				"type": "unocc",
				"energy": -0.05576,
				"method": "rhf"
			},
			{
				"type": "unocc",
				"energy": -0.0178,
				"method": "rhf"
			},
			{
				"type": "unocc",
				"energy": 0.00423,
				"method": "rhf"
			},
			{
				"type": "unocc",
				"energy": 0.02137,
				"method": "rhf"
			},
			{
				"type": "unocc",
				"energy": 0.05342,
				"method": "rhf"
			}
		],
		"cosmo_sigma_profile": { 
			"-0.025": 0.0,
			"-0.024": 0.0,
			"-0.023": 0.0,
			"-0.022": 0.0,
			"-0.021": 0.0,
			"-0.02": 0.0,
			"-0.019": 0.394831433459,
			"-0.018": 0.728040948176,
			"-0.017": 1.21233894221,
			"-0.016": 0.551501321275,
			"-0.015": 1.01238128918,
			"-0.014": 0.521631402443,
			"-0.013": 0.915831387624,
			"-0.012": 0.706946971599,
			"-0.011": 0.634244334214,
			"-0.01": 0.476280679612,
			"-0.009": 0.283781867687,
			"-0.008": 0.998171305436,
			"-0.007": 2.70237111644,
			"-0.006": 9.33174857332,
			"-0.005": 15.9986486065,
			"-0.004": 18.6760760301,
			"-0.003": 22.8041064113,
			"-0.002": 16.5420192376,
			"-0.001": 15.0056308237,
			"0.0": 16.4447151164,
			"0.001": 18.7660570189,
			"0.002": 19.7652694194,
			"0.003": 19.6542248001,
			"0.004": 16.7940778927,
			"0.005": 12.7156035219,
			"0.006": 11.9900683745,
			"0.007": 4.48408937636,
			"0.008": 3.26716819694,
			"0.009": 2.80630744203,
			"0.01": 3.1468366102,
			"0.011": 2.17207151015,
			"0.012": 0.12707624355,
			"0.013": 0.0,
			"0.014": 0.0,
			"0.015": 0.0,
			"0.016": 0.0,
			"0.017": 0.0,
			"0.018": 0.0,
			"0.019": 0.0,
			"0.02": 0.0,
			"0.021": 0.0,
			"0.022": 0.0,
			"0.023": 0.0,
			"0.024": 0.0,
			"0.025": 0.0
		}
	}
}
