{
	 "smiles": "CN1N=C(C=C1CO)C1=CC=CO1", 
	 "Tm": 357.15, 
	 "num_atms": 23, 
	 "gaussian": { 
		 "optdone": 1, 
		 "sigma_profile": "yes", 
		 "theory": "DFT", 
		 "functional": "B3LYP", 
		 "basiset": "6-31G**", 
		 "properties": { 
			 "R2extent": 3092.9628, 
			 "electric_dipole_moment_norm": 1.82925922439, 
			 "electric_quadrupole_moment_norm": 14.2815191485, 
			 "total_energy": -608.876377306, 
			 "HOMO_LUMO_gap": 0.1888, 
			 "cosmo_polarized_energy": -15.15, 
			 "cosmo_cavitation_energy": 27.64, 
			 "cosmo_dispersion_energy": -20.21, 
			 "cosmo_repulsion_energy": 1.6, 
			 "cosmo_total_nonelectrostatic_energy": 9.03, 
			 "SMD_solvation_energy": 4.82 
		},
		"coords": [
			{
				"x": -0.0078990377,
				"y": 2.6236079527,
				"z": -2.3913402195,
				"element": "C" 
			},
			{
				"x": 0.0396677216,
				"y": 1.5641632861,
				"z": -1.4013910249,
				"element": "N" 
			},
			{
				"x": -0.393367338,
				"y": 0.3286332191,
				"z": -1.744434964,
				"element": "N" 
			},
			{
				"x": -0.274372702,
				"y": -0.3999476126,
				"z": -0.6275552189,
				"element": "C" 
			},
			{
				"x": 0.229697506,
				"y": 0.3822118024,
				"z": 0.4443009985,
				"element": "C" 
			},
			{
				"x": 0.4170753811,
				"y": 1.6423038137,
				"z": -0.0903810304,
				"element": "C" 
			},
			{
				"x": 0.9334111454,
				"y": 2.8922130631,
				"z": 0.5658398414,
				"element": "C" 
			},
			{
				"x": 1.6837981118,
				"y": 2.6086888552,
				"z": 1.7333289007,
				"element": "O" 
			},
			{
				"x": -0.6307638261,
				"y": -1.8061727164,
				"z": -0.5911046339,
				"element": "C" 
			},
			{
				"x": -0.608402065,
				"y": -2.737401985,
				"z": 0.4150588561,
				"element": "C" 
			},
			{
				"x": -1.0784714936,
				"y": -3.9630033509,
				"z": -0.153188472,
				"element": "C" 
			},
			{
				"x": -1.3523017745,
				"y": -3.6910981052,
				"z": -1.4595276462,
				"element": "C" 
			},
			{
				"x": -1.0860991991,
				"y": -2.3860544154,
				"z": -1.7427110578,
				"element": "O" 
			},
			{
				"x": -0.815159707,
				"y": 3.3340112023,
				"z": -2.1810549205,
				"element": "H" 
			},
			{
				"x": 0.9421994212,
				"y": 3.1651519796,
				"z": -2.4262007412,
				"element": "H" 
			},
			{
				"x": -0.1894780636,
				"y": 2.151242688,
				"z": -3.355985257,
				"element": "H" 
			},
			{
				"x": 0.4252565017,
				"y": 0.0827628146,
				"z": 1.4624876521,
				"element": "H" 
			},
			{
				"x": 1.5146035537,
				"y": 3.4875798676,
				"z": -0.1583420113,
				"element": "H" 
			},
			{
				"x": 0.1041164178,
				"y": 3.5291511886,
				"z": 0.8977378089,
				"element": "H" 
			},
			{
				"x": 2.3838241012,
				"y": 1.9905540026,
				"z": 1.4831673765,
				"element": "H" 
			},
			{
				"x": -0.2968478445,
				"y": -2.5684124936,
				"z": 1.435708088,
				"element": "H" 
			},
			{
				"x": -1.1956457824,
				"y": -4.9142045606,
				"z": 0.3457763308,
				"element": "H" 
			},
			{
				"x": -1.724041028,
				"y": -4.2826804957,
				"z": -2.2815886553,
				"element": "H" 
			}
		],
		 "valence_orbital": [ 
			{
				"type": "occ",
				"energy": -0.27987,
				"method": "rhf"
			},
			{
				"type": "occ",
				"energy": -0.27778,
				"method": "rhf"
			},
			{
				"type": "occ",
				"energy": -0.26633,
				"method": "rhf"
			},
			{
				"type": "occ",
				"energy": -0.24001,
				"method": "rhf"
			},
			{
				"type": "occ",
				"energy": -0.19657,
				"method": "rhf"
			},
			{
				"type": "unocc",
				"energy": -0.00777,
				"method": "rhf"
			},
			{
				"type": "unocc",
				"energy": 0.02662,
				"method": "rhf"
			},
			{
				"type": "unocc",
				"energy": 0.06501,
				"method": "rhf"
			},
			{
				"type": "unocc",
				"energy": 0.07517,
				"method": "rhf"
			},
			{
				"type": "unocc",
				"energy": 0.08725,
				"method": "rhf"
			}
		],
		"cosmo_sigma_profile": { 
			"-0.025": 0.0,
			"-0.024": 0.0,
			"-0.023": 0.0,
			"-0.022": 0.0,
			"-0.021": 0.0,
			"-0.02": 0.0,
			"-0.019": 0.0,
			"-0.018": 0.0,
			"-0.017": 0.0,
			"-0.016": 0.206653774254,
			"-0.015": 1.16725675492,
			"-0.014": 0.700908072157,
			"-0.013": 0.727147398899,
			"-0.012": 0.66420072309,
			"-0.011": 1.00703990589,
			"-0.01": 1.01975550869,
			"-0.009": 1.75271078766,
			"-0.008": 3.36107301124,
			"-0.007": 9.86108870538,
			"-0.006": 21.3430446507,
			"-0.005": 16.9203628641,
			"-0.004": 17.9660622082,
			"-0.003": 16.1637803712,
			"-0.002": 11.7906581976,
			"-0.001": 7.97006443191,
			"0.0": 8.11814279209,
			"0.001": 7.91396142508,
			"0.002": 10.4623558032,
			"0.003": 16.6114035656,
			"0.004": 17.3759258489,
			"0.005": 14.0947768152,
			"0.006": 6.06313230788,
			"0.007": 3.66293415794,
			"0.008": 2.93566097799,
			"0.009": 3.05059109751,
			"0.01": 3.36497433149,
			"0.011": 3.48682522395,
			"0.012": 2.74561689302,
			"0.013": 3.83757123243,
			"0.014": 2.15484486411,
			"0.015": 1.08997278849,
			"0.016": 0.655629562328,
			"0.017": 0.0,
			"0.018": 0.0,
			"0.019": 0.0,
			"0.02": 0.0,
			"0.021": 0.0,
			"0.022": 0.0,
			"0.023": 0.0,
			"0.024": 0.0,
			"0.025": 0.0
		}
	}
}
