{
	 "smiles": "NCC1=CN(N=C1)C1=CC(Cl)=CC=C1", 
	 "Tm": 362.15, 
	 "num_atms": 24, 
	 "gaussian": { 
		 "optdone": 1, 
		 "sigma_profile": "yes", 
		 "theory": "DFT", 
		 "functional": "B3LYP", 
		 "basiset": "6-31G**", 
		 "properties": { 
			 "R2extent": 4463.6985, 
			 "electric_dipole_moment_norm": 0.641674816398, 
			 "electric_quadrupole_moment_norm": 3.99458440266, 
			 "total_energy": -1011.51047024, 
			 "HOMO_LUMO_gap": 0.18966, 
			 "cosmo_polarized_energy": -11.44, 
			 "cosmo_cavitation_energy": 30.26, 
			 "cosmo_dispersion_energy": -22.2, 
			 "cosmo_repulsion_energy": 1.76, 
			 "cosmo_total_nonelectrostatic_energy": 9.81, 
			 "SMD_solvation_energy": 3.11 
		},
		"coords": [
			{
				"x": 3.8378575407,
				"y": -2.6974220664,
				"z": -0.2835027269,
				"element": "N" 
			},
			{
				"x": 2.7863026982,
				"y": -2.6757485171,
				"z": 0.747400229,
				"element": "C" 
			},
			{
				"x": 1.4116908188,
				"y": -2.2607059627,
				"z": 0.2869233578,
				"element": "C" 
			},
			{
				"x": 0.7995913418,
				"y": -1.0321460035,
				"z": 0.4338239862,
				"element": "C" 
			},
			{
				"x": -0.4250678206,
				"y": -1.1054820331,
				"z": -0.176305446,
				"element": "N" 
			},
			{
				"x": -0.6437955867,
				"y": -2.3354510145,
				"z": -0.7119774832,
				"element": "N" 
			},
			{
				"x": 0.4556482872,
				"y": -3.0245645178,
				"z": -0.4363986606,
				"element": "C" 
			},
			{
				"x": -1.4217224885,
				"y": -0.1038270903,
				"z": -0.2751442069,
				"element": "C" 
			},
			{
				"x": -1.0900406523,
				"y": 1.2393726619,
				"z": -0.063198428,
				"element": "C" 
			},
			{
				"x": -2.0946175575,
				"y": 2.2006546301,
				"z": -0.1477600279,
				"element": "C" 
			},
			{
				"x": -1.6741425568,
				"y": 3.8861122217,
				"z": 0.1242194424,
				"element": "Cl" 
			},
			{
				"x": -3.4112198972,
				"y": 1.8634961425,
				"z": -0.4538428734,
				"element": "C" 
			},
			{
				"x": -3.7150408534,
				"y": 0.5190024319,
				"z": -0.6778454083,
				"element": "C" 
			},
			{
				"x": -2.7370728434,
				"y": -0.4674925779,
				"z": -0.5881684371,
				"element": "C" 
			},
			{
				"x": 3.5742983008,
				"y": -3.3490964673,
				"z": -1.0199721514,
				"element": "H" 
			},
			{
				"x": 3.8825436262,
				"y": -1.7846302174,
				"z": -0.732561911,
				"element": "H" 
			},
			{
				"x": 3.1182532419,
				"y": -2.0060240859,
				"z": 1.5485823533,
				"element": "H" 
			},
			{
				"x": 2.7395021134,
				"y": -3.6783439078,
				"z": 1.1878453651,
				"element": "H" 
			},
			{
				"x": 1.1292631818,
				"y": -0.142809484,
				"z": 0.9490668876,
				"element": "H" 
			},
			{
				"x": 0.5310966253,
				"y": -4.0550749477,
				"z": -0.7612599018,
				"element": "H" 
			},
			{
				"x": -0.0720734045,
				"y": 1.5446937558,
				"z": 0.14330524,
				"element": "H" 
			},
			{
				"x": -4.1726058701,
				"y": 2.6320221669,
				"z": -0.517624988,
				"element": "H" 
			},
			{
				"x": -4.7351774101,
				"y": 0.2367452623,
				"z": -0.9197489161,
				"element": "H" 
			},
			{
				"x": -2.9661708351,
				"y": -1.5115803797,
				"z": -0.7573552949,
				"element": "H" 
			}
		],
		 "valence_orbital": [ 
			{
				"type": "occ",
				"energy": -0.29615,
				"method": "rhf"
			},
			{
				"type": "occ",
				"energy": -0.26179,
				"method": "rhf"
			},
			{
				"type": "occ",
				"energy": -0.2569,
				"method": "rhf"
			},
			{
				"type": "occ",
				"energy": -0.24508,
				"method": "rhf"
			},
			{
				"type": "occ",
				"energy": -0.22564,
				"method": "rhf"
			},
			{
				"type": "unocc",
				"energy": -0.03598,
				"method": "rhf"
			},
			{
				"type": "unocc",
				"energy": -0.02089,
				"method": "rhf"
			},
			{
				"type": "unocc",
				"energy": 0.02204,
				"method": "rhf"
			},
			{
				"type": "unocc",
				"energy": 0.02946,
				"method": "rhf"
			},
			{
				"type": "unocc",
				"energy": 0.05182,
				"method": "rhf"
			}
		],
		"cosmo_sigma_profile": { 
			"-0.025": 0.0,
			"-0.024": 0.0,
			"-0.023": 0.0,
			"-0.022": 0.0,
			"-0.021": 0.0,
			"-0.02": 0.0,
			"-0.019": 0.0,
			"-0.018": 0.0,
			"-0.017": 0.0,
			"-0.016": 0.0,
			"-0.015": 0.0,
			"-0.014": 0.0,
			"-0.013": 0.0,
			"-0.012": 0.0,
			"-0.011": 0.632409650996,
			"-0.01": 2.19732700477,
			"-0.009": 4.66572305283,
			"-0.008": 5.17983148494,
			"-0.007": 11.331330112,
			"-0.006": 13.3554551608,
			"-0.005": 14.5072580461,
			"-0.004": 16.3480567861,
			"-0.003": 13.3346153947,
			"-0.002": 13.8732536542,
			"-0.001": 14.423956,
			"0.0": 16.6013880508,
			"0.001": 19.5322093335,
			"0.002": 24.5853008893,
			"0.003": 24.2683301266,
			"0.004": 19.1201439363,
			"0.005": 8.37774718171,
			"0.006": 3.07748206093,
			"0.007": 2.382181941,
			"0.008": 2.49044583432,
			"0.009": 2.08372259079,
			"0.01": 2.04605313105,
			"0.011": 1.77841623256,
			"0.012": 1.64493008257,
			"0.013": 1.74920228137,
			"0.014": 0.555686804221,
			"0.015": 0.747822435875,
			"0.016": 0.918401144817,
			"0.017": 0.439910781768,
			"0.018": 0.631331128951,
			"0.019": 0.707388514202,
			"0.02": 0.321944526846,
			"0.021": 0.0,
			"0.022": 0.0,
			"0.023": 0.0,
			"0.024": 0.0,
			"0.025": 0.0
		}
	}
}
