{
	 "smiles": "NC1=C(O)C=C(I)C=C1", 
	 "Tm": 378.15, 
	 "num_atms": 15, 
	 "gaussian": { 
		 "optdone": 1, 
		 "sigma_profile": "yes", 
		 "theory": "DFT", 
		 "functional": "B3LYP", 
		 "basiset": "6-31G**", 
		 "properties": { 
			 "R2extent": 1514.635, 
			 "electric_dipole_moment_norm": 4.11063237106, 
			 "electric_quadrupole_moment_norm": 5.8230952697, 
			 "total_energy": -373.612981454, 
			 "HOMO_LUMO_gap": 0.18823, 
			 "cosmo_polarized_energy": -9.18, 
			 "cosmo_cavitation_energy": 22.06, 
			 "cosmo_dispersion_energy": -18.14, 
			 "cosmo_repulsion_energy": 1.46, 
			 "cosmo_total_nonelectrostatic_energy": 5.38, 
			 "SMD_solvation_energy": 3.56 
		},
		"coords": [
			{
				"x": 1.9297171643,
				"y": -0.1609051478,
				"z": 1.9966983799,
				"element": "N" 
			},
			{
				"x": 0.7389720989,
				"y": 0.0915146505,
				"z": 1.2224635313,
				"element": "C" 
			},
			{
				"x": 0.2413714096,
				"y": 1.4067557486,
				"z": 1.3096551326,
				"element": "C" 
			},
			{
				"x": 0.8844188664,
				"y": 2.3097641519,
				"z": 2.0806385164,
				"element": "O" 
			},
			{
				"x": -0.9094717718,
				"y": 1.7785515318,
				"z": 0.6048075504,
				"element": "C" 
			},
			{
				"x": -1.5482457393,
				"y": 0.8222443492,
				"z": -0.1811309158,
				"element": "C" 
			},
			{
				"x": -3.2953164595,
				"y": 1.3775071155,
				"z": -1.2543481378,
				"element": "I" 
			},
			{
				"x": -1.0751307246,
				"y": -0.4884875684,
				"z": -0.2844427849,
				"element": "C" 
			},
			{
				"x": 0.0749422903,
				"y": -0.8399934162,
				"z": 0.4266969434,
				"element": "C" 
			},
			{
				"x": 2.7046423031,
				"y": -0.4549140206,
				"z": 1.4078408172,
				"element": "H" 
			},
			{
				"x": 1.7796121355,
				"y": -0.89074231,
				"z": 2.6884355334,
				"element": "H" 
			},
			{
				"x": 1.6386648782,
				"y": 1.8074720768,
				"z": 2.4549782159,
				"element": "H" 
			},
			{
				"x": -1.2739406496,
				"y": 2.7951296605,
				"z": 0.6867344289,
				"element": "H" 
			},
			{
				"x": -1.5852378277,
				"y": -1.21875528,
				"z": -0.9007549483,
				"element": "H" 
			},
			{
				"x": 0.4587020262,
				"y": -1.8552415419,
				"z": 0.3591277375,
				"element": "H" 
			}
		],
		 "valence_orbital": [ 
			{
				"type": "occ",
				"energy": -0.287,
				"method": "rhf"
			},
			{
				"type": "occ",
				"energy": -0.28578,
				"method": "rhf"
			},
			{
				"type": "occ",
				"energy": -0.26357,
				"method": "rhf"
			},
			{
				"type": "occ",
				"energy": -0.24171,
				"method": "rhf"
			},
			{
				"type": "occ",
				"energy": -0.22303,
				"method": "rhf"
			},
			{
				"type": "unocc",
				"energy": -0.0348,
				"method": "rhf"
			},
			{
				"type": "unocc",
				"energy": -0.01781,
				"method": "rhf"
			},
			{
				"type": "unocc",
				"energy": 0.00327,
				"method": "rhf"
			},
			{
				"type": "unocc",
				"energy": 0.04747,
				"method": "rhf"
			},
			{
				"type": "unocc",
				"energy": 0.05429,
				"method": "rhf"
			}
		],
		"cosmo_sigma_profile": { 
			"-0.025": 0.0,
			"-0.024": 0.0,
			"-0.023": 0.0,
			"-0.022": 0.0,
			"-0.021": 0.0,
			"-0.02": 0.0,
			"-0.019": 0.0,
			"-0.018": 0.0,
			"-0.017": 0.0,
			"-0.016": 0.0,
			"-0.015": 0.0,
			"-0.014": 0.0,
			"-0.013": 0.0,
			"-0.012": 1.72376706755,
			"-0.011": 3.02945666381,
			"-0.01": 3.43679930923,
			"-0.009": 2.98290536687,
			"-0.008": 3.44337357994,
			"-0.007": 4.94165920686,
			"-0.006": 10.4967946201,
			"-0.005": 9.10353924086,
			"-0.004": 9.20056290324,
			"-0.003": 8.59506593397,
			"-0.002": 9.57461283035,
			"-0.001": 8.80934907267,
			"0.0": 10.0738630978,
			"0.001": 10.4979669551,
			"0.002": 14.1882216531,
			"0.003": 20.5558686988,
			"0.004": 22.8000123087,
			"0.005": 15.5559954578,
			"0.006": 1.91235440854,
			"0.007": 1.88706897185,
			"0.008": 1.33498397799,
			"0.009": 1.92229248087,
			"0.01": 1.49395360679,
			"0.011": 1.92669572103,
			"0.012": 1.30896172517,
			"0.013": 0.0,
			"0.014": 0.0,
			"0.015": 0.0,
			"0.016": 0.0,
			"0.017": 0.0,
			"0.018": 0.0,
			"0.019": 0.0,
			"0.02": 0.0,
			"0.021": 0.0,
			"0.022": 0.0,
			"0.023": 0.0,
			"0.024": 0.0,
			"0.025": 0.0
		}
	}
}
