{
	 "smiles": "COC1=C(O)C(Cl)=CC(C=O)=C1", 
	 "Tm": 437.15, 
	 "num_atms": 19, 
	 "gaussian": { 
		 "optdone": 1, 
		 "sigma_profile": "yes", 
		 "theory": "DFT", 
		 "functional": "B3LYP", 
		 "basiset": "6-31G**", 
		 "properties": { 
			 "R2extent": 2789.6525, 
			 "electric_dipole_moment_norm": 4.11045676416, 
			 "electric_quadrupole_moment_norm": 7.17830611426, 
			 "total_energy": -994.902509039, 
			 "HOMO_LUMO_gap": 0.16634, 
			 "cosmo_polarized_energy": -9.58, 
			 "cosmo_cavitation_energy": 25.37, 
			 "cosmo_dispersion_energy": -18.96, 
			 "cosmo_repulsion_energy": 1.5, 
			 "cosmo_total_nonelectrostatic_energy": 7.92, 
			 "SMD_solvation_energy": 6.3 
		},
		"coords": [
			{
				"x": -0.2194864069,
				"y": -2.6919387973,
				"z": 1.9687330927,
				"element": "C" 
			},
			{
				"x": -0.4283840976,
				"y": -2.0851037887,
				"z": 0.691039878,
				"element": "O" 
			},
			{
				"x": -0.2547993599,
				"y": -0.7570036477,
				"z": 0.4558673014,
				"element": "C" 
			},
			{
				"x": 0.1458413506,
				"y": 0.2250368095,
				"z": 1.3929893647,
				"element": "C" 
			},
			{
				"x": 0.4000826805,
				"y": -0.1252953859,
				"z": 2.6793746019,
				"element": "O" 
			},
			{
				"x": 0.2697483167,
				"y": 1.5590938004,
				"z": 0.9507960596,
				"element": "C" 
			},
			{
				"x": 0.7717332092,
				"y": 2.7578002122,
				"z": 2.1478104272,
				"element": "Cl" 
			},
			{
				"x": 0.0187359445,
				"y": 1.9495121059,
				"z": -0.3509809808,
				"element": "C" 
			},
			{
				"x": -0.3770808096,
				"y": 0.9687122569,
				"z": -1.2692102499,
				"element": "C" 
			},
			{
				"x": -0.6557674626,
				"y": 1.3415645921,
				"z": -2.6718366698,
				"element": "C" 
			},
			{
				"x": -0.5681065074,
				"y": 2.4706869651,
				"z": -3.1165284796,
				"element": "O" 
			},
			{
				"x": -0.5081916297,
				"y": -0.3600165041,
				"z": -0.8600439307,
				"element": "C" 
			},
			{
				"x": 0.8137390143,
				"y": -2.5805417753,
				"z": 2.3065370141,
				"element": "H" 
			},
			{
				"x": -0.8925405942,
				"y": -2.2836759545,
				"z": 2.7265989383,
				"element": "H" 
			},
			{
				"x": -0.4419766754,
				"y": -3.7488975576,
				"z": 1.8119253558,
				"element": "H" 
			},
			{
				"x": 0.6587504201,
				"y": 0.6729368863,
				"z": 3.1674717705,
				"element": "H" 
			},
			{
				"x": 0.1200564265,
				"y": 2.9800058883,
				"z": -0.6697671294,
				"element": "H" 
			},
			{
				"x": -0.9628514034,
				"y": 0.4922001539,
				"z": -3.3216287906,
				"element": "H" 
			},
			{
				"x": -0.8144024155,
				"y": -1.1288762596,
				"z": -1.5634475733,
				"element": "H" 
			}
		],
		 "valence_orbital": [ 
			{
				"type": "occ",
				"energy": -0.33766,
				"method": "rhf"
			},
			{
				"type": "occ",
				"energy": -0.31901,
				"method": "rhf"
			},
			{
				"type": "occ",
				"energy": -0.25643,
				"method": "rhf"
			},
			{
				"type": "occ",
				"energy": -0.25354,
				"method": "rhf"
			},
			{
				"type": "occ",
				"energy": -0.22709,
				"method": "rhf"
			},
			{
				"type": "unocc",
				"energy": -0.06075,
				"method": "rhf"
			},
			{
				"type": "unocc",
				"energy": -0.01873,
				"method": "rhf"
			},
			{
				"type": "unocc",
				"energy": 0.00709,
				"method": "rhf"
			},
			{
				"type": "unocc",
				"energy": 0.04399,
				"method": "rhf"
			},
			{
				"type": "unocc",
				"energy": 0.0674,
				"method": "rhf"
			}
		],
		"cosmo_sigma_profile": { 
			"-0.025": 0.0,
			"-0.024": 0.0,
			"-0.023": 0.0,
			"-0.022": 0.0,
			"-0.021": 0.0,
			"-0.02": 0.0,
			"-0.019": 0.0,
			"-0.018": 0.0,
			"-0.017": 0.0,
			"-0.016": 0.106849006645,
			"-0.015": 0.652557837711,
			"-0.014": 0.396576093226,
			"-0.013": 0.422984688942,
			"-0.012": 0.83260359312,
			"-0.011": 1.15318285486,
			"-0.01": 0.930146244869,
			"-0.009": 0.782028879649,
			"-0.008": 3.02972224029,
			"-0.007": 5.97859735124,
			"-0.006": 8.61451109433,
			"-0.005": 11.248347617,
			"-0.004": 12.4724938922,
			"-0.003": 17.9631451844,
			"-0.002": 14.7959761387,
			"-0.001": 15.0241655939,
			"0.0": 18.217574769,
			"0.001": 21.0258584404,
			"0.002": 20.2605354794,
			"0.003": 12.4963591659,
			"0.004": 9.52838539911,
			"0.005": 5.46382803972,
			"0.006": 3.7463057583,
			"0.007": 2.98997685754,
			"0.008": 3.1578820471,
			"0.009": 3.15016597918,
			"0.01": 2.8479610527,
			"0.011": 4.19056794537,
			"0.012": 2.87870042353,
			"0.013": 0.902181037715,
			"0.014": 0.0,
			"0.015": 0.0,
			"0.016": 0.0,
			"0.017": 0.0,
			"0.018": 0.0,
			"0.019": 0.0,
			"0.02": 0.0,
			"0.021": 0.0,
			"0.022": 0.0,
			"0.023": 0.0,
			"0.024": 0.0,
			"0.025": 0.0
		}
	}
}
