{
	 "smiles": "C1=NC2=C(N=C1)N=CN=C2", 
	 "Tm": 413.15, 
	 "num_atms": 14, 
	 "gaussian": { 
		 "optdone": 1, 
		 "sigma_profile": "yes", 
		 "theory": "DFT", 
		 "functional": "B3LYP", 
		 "basiset": "6-31G**", 
		 "properties": { 
			 "R2extent": 1448.3049, 
			 "electric_dipole_moment_norm": 2.52626455661, 
			 "electric_quadrupole_moment_norm": 7.22498548995, 
			 "total_energy": -450.031591575, 
			 "HOMO_LUMO_gap": 0.15156, 
			 "cosmo_polarized_energy": -10.91, 
			 "cosmo_cavitation_energy": 18.9, 
			 "cosmo_dispersion_energy": -14.55, 
			 "cosmo_repulsion_energy": 1.14, 
			 "cosmo_total_nonelectrostatic_energy": 5.49, 
			 "SMD_solvation_energy": -2.7 
		},
		"coords": [
			{
				"x": 0.0180513481,
				"y": -0.7747993175,
				"z": -1.3609634093,
				"element": "C" 
			},
			{
				"x": 0.2945392823,
				"y": -1.4422298527,
				"z": -0.2617798626,
				"element": "N" 
			},
			{
				"x": 0.7464715316,
				"y": -0.6885073434,
				"z": 0.7778315663,
				"element": "C" 
			},
			{
				"x": 0.9099625085,
				"y": 0.7213365024,
				"z": 0.6873003299,
				"element": "C" 
			},
			{
				"x": 0.6151236449,
				"y": 1.38678485,
				"z": -0.4659216326,
				"element": "N" 
			},
			{
				"x": 0.1803242291,
				"y": 0.6397240826,
				"z": -1.4572167092,
				"element": "C" 
			},
			{
				"x": 1.363311656,
				"y": 1.4440445294,
				"z": 1.7439967183,
				"element": "N" 
			},
			{
				"x": 1.6358801807,
				"y": 0.7626959252,
				"z": 2.8371732707,
				"element": "C" 
			},
			{
				"x": 1.5195369266,
				"y": -0.581524052,
				"z": 3.0414016724,
				"element": "N" 
			},
			{
				"x": 1.0806196218,
				"y": -1.2875229848,
				"z": 2.0209262407,
				"element": "C" 
			},
			{
				"x": -0.3464988165,
				"y": -1.3390019962,
				"z": -2.2174327782,
				"element": "H" 
			},
			{
				"x": -0.0634935556,
				"y": 1.1436888601,
				"z": -2.3918941653,
				"element": "H" 
			},
			{
				"x": 1.9999132017,
				"y": 1.3313856023,
				"z": 3.6903992285,
				"element": "H" 
			},
			{
				"x": 0.9710582407,
				"y": -2.3652748053,
				"z": 2.1360795306,
				"element": "H" 
			}
		],
		 "valence_orbital": [ 
			{
				"type": "occ",
				"energy": -0.32055,
				"method": "rhf"
			},
			{
				"type": "occ",
				"energy": -0.309,
				"method": "rhf"
			},
			{
				"type": "occ",
				"energy": -0.28895,
				"method": "rhf"
			},
			{
				"type": "occ",
				"energy": -0.28639,
				"method": "rhf"
			},
			{
				"type": "occ",
				"energy": -0.25254,
				"method": "rhf"
			},
			{
				"type": "unocc",
				"energy": -0.10098,
				"method": "rhf"
			},
			{
				"type": "unocc",
				"energy": -0.05331,
				"method": "rhf"
			},
			{
				"type": "unocc",
				"energy": -0.02355,
				"method": "rhf"
			},
			{
				"type": "unocc",
				"energy": 0.04988,
				"method": "rhf"
			},
			{
				"type": "unocc",
				"energy": 0.10434,
				"method": "rhf"
			}
		],
		"cosmo_sigma_profile": { 
			"-0.025": 0.0,
			"-0.024": 0.0,
			"-0.023": 0.0,
			"-0.022": 0.0,
			"-0.021": 0.0,
			"-0.02": 0.0,
			"-0.019": 0.0,
			"-0.018": 0.0,
			"-0.017": 0.0,
			"-0.016": 0.0,
			"-0.015": 0.0,
			"-0.014": 0.0,
			"-0.013": 0.0,
			"-0.012": 0.0,
			"-0.011": 0.0,
			"-0.01": 0.0167278827503,
			"-0.009": 5.63714758168,
			"-0.008": 9.67465437895,
			"-0.007": 6.31935598637,
			"-0.006": 8.89434722375,
			"-0.005": 10.2684149823,
			"-0.004": 12.591430381,
			"-0.003": 15.0999846827,
			"-0.002": 11.5570493604,
			"-0.001": 8.88220327929,
			"0.0": 7.31409392203,
			"0.001": 5.99515680036,
			"0.002": 5.80566181843,
			"0.003": 4.52660591523,
			"0.004": 3.65601259255,
			"0.005": 4.96403030334,
			"0.006": 5.0137288253,
			"0.007": 3.01427573348,
			"0.008": 2.54170374142,
			"0.009": 3.49508397945,
			"0.01": 3.46504743821,
			"0.011": 3.24283108425,
			"0.012": 3.29772524216,
			"0.013": 3.89176978096,
			"0.014": 3.58986501877,
			"0.015": 1.2785833758,
			"0.016": 0.0,
			"0.017": 0.0,
			"0.018": 0.0,
			"0.019": 0.0,
			"0.02": 0.0,
			"0.021": 0.0,
			"0.022": 0.0,
			"0.023": 0.0,
			"0.024": 0.0,
			"0.025": 0.0
		}
	}
}
