{
	 "smiles": "FC1=C(F)C=C2C(=C1)C(=O)CCS2(=O)=O", 
	 "Tm": 423.15, 
	 "num_atms": 21, 
	 "gaussian": { 
		 "optdone": 1, 
		 "sigma_profile": "yes", 
		 "theory": "DFT", 
		 "functional": "B3LYP", 
		 "basiset": "6-31G**", 
		 "properties": { 
			 "R2extent": 3857.3644, 
			 "electric_dipole_moment_norm": 2.39455790283, 
			 "electric_quadrupole_moment_norm": 10.8816961711, 
			 "total_energy": -1170.02485119, 
			 "HOMO_LUMO_gap": 0.18678, 
			 "cosmo_polarized_energy": -15.41, 
			 "cosmo_cavitation_energy": 27.48, 
			 "cosmo_dispersion_energy": -20.51, 
			 "cosmo_repulsion_energy": 1.48, 
			 "cosmo_total_nonelectrostatic_energy": 8.46, 
			 "SMD_solvation_energy": 5.24 
		},
		"coords": [
			{
				"x": -0.946466423,
				"y": -0.6559715634,
				"z": 4.9389216658,
				"element": "F" 
			},
			{
				"x": -0.6267292633,
				"y": -0.4364522381,
				"z": 3.6587177026,
				"element": "C" 
			},
			{
				"x": 0.4958789193,
				"y": 0.350629464,
				"z": 3.3732252932,
				"element": "C" 
			},
			{
				"x": 1.2023955581,
				"y": 0.8584561498,
				"z": 4.3861258714,
				"element": "F" 
			},
			{
				"x": 0.8601077191,
				"y": 0.6091258328,
				"z": 2.0608438809,
				"element": "C" 
			},
			{
				"x": 0.0940298525,
				"y": 0.0607562868,
				"z": 1.0325696156,
				"element": "C" 
			},
			{
				"x": -1.0400476824,
				"y": -0.7275396903,
				"z": 1.298500097,
				"element": "C" 
			},
			{
				"x": -1.3928438162,
				"y": -0.9639191184,
				"z": 2.6367468305,
				"element": "C" 
			},
			{
				"x": -1.9305986783,
				"y": -1.3098548479,
				"z": 0.2389087761,
				"element": "C" 
			},
			{
				"x": -2.8965912385,
				"y": -1.9861746283,
				"z": 0.5474790176,
				"element": "O" 
			},
			{
				"x": -1.6025082119,
				"y": -1.0628103602,
				"z": -1.229807228,
				"element": "C" 
			},
			{
				"x": -0.9247270128,
				"y": 0.2771909279,
				"z": -1.5252122533,
				"element": "C" 
			},
			{
				"x": 0.6559924548,
				"y": 0.362656634,
				"z": -0.6526515453,
				"element": "S" 
			},
			{
				"x": 1.4725574157,
				"y": -0.7797336143,
				"z": -1.0926482111,
				"element": "O" 
			},
			{
				"x": 1.1958914832,
				"y": 1.7275456536,
				"z": -0.7132511297,
				"element": "O" 
			},
			{
				"x": 1.714813761,
				"y": 1.2416720791,
				"z": 1.8477682324,
				"element": "H" 
			},
			{
				"x": -2.2698184729,
				"y": -1.5625413407,
				"z": 2.8561530397,
				"element": "H" 
			},
			{
				"x": -2.5348885704,
				"y": -1.1579850962,
				"z": -1.7922945935,
				"element": "H" 
			},
			{
				"x": -0.9409379935,
				"y": -1.8750178137,
				"z": -1.5576547015,
				"element": "H" 
			},
			{
				"x": -1.5153446652,
				"y": 1.1399724966,
				"z": -1.2052638325,
				"element": "H" 
			},
			{
				"x": -0.6806651355,
				"y": 0.388394787,
				"z": -2.5852765281,
				"element": "H" 
			}
		],
		 "valence_orbital": [ 
			{
				"type": "occ",
				"energy": -0.31651,
				"method": "rhf"
			},
			{
				"type": "occ",
				"energy": -0.30606,
				"method": "rhf"
			},
			{
				"type": "occ",
				"energy": -0.29358,
				"method": "rhf"
			},
			{
				"type": "occ",
				"energy": -0.28137,
				"method": "rhf"
			},
			{
				"type": "occ",
				"energy": -0.27948,
				"method": "rhf"
			},
			{
				"type": "unocc",
				"energy": -0.0927,
				"method": "rhf"
			},
			{
				"type": "unocc",
				"energy": -0.05422,
				"method": "rhf"
			},
			{
				"type": "unocc",
				"energy": 0.0085,
				"method": "rhf"
			},
			{
				"type": "unocc",
				"energy": 0.03832,
				"method": "rhf"
			},
			{
				"type": "unocc",
				"energy": 0.05029,
				"method": "rhf"
			}
		],
		"cosmo_sigma_profile": { 
			"-0.025": 0.0,
			"-0.024": 0.0,
			"-0.023": 0.0,
			"-0.022": 0.0,
			"-0.021": 0.0,
			"-0.02": 0.0,
			"-0.019": 0.0,
			"-0.018": 0.0,
			"-0.017": 0.0,
			"-0.016": 0.0,
			"-0.015": 0.0,
			"-0.014": 0.0,
			"-0.013": 0.0,
			"-0.012": 0.0,
			"-0.011": 0.293836673799,
			"-0.01": 5.0707780268,
			"-0.009": 6.66862012792,
			"-0.008": 9.03844172997,
			"-0.007": 12.4370298843,
			"-0.006": 11.6952789696,
			"-0.005": 11.2539850987,
			"-0.004": 13.215085097,
			"-0.003": 16.5193115376,
			"-0.002": 16.7580243858,
			"-0.001": 14.6154393096,
			"0.0": 9.27664341267,
			"0.001": 8.79930573962,
			"0.002": 16.5203914191,
			"0.003": 17.0599162386,
			"0.004": 3.51619137621,
			"0.005": 3.39815031567,
			"0.006": 3.11579301783,
			"0.007": 3.43258396646,
			"0.008": 5.61122698808,
			"0.009": 5.68868363741,
			"0.01": 12.8442166366,
			"0.011": 11.6839644165,
			"0.012": 2.46333093303,
			"0.013": 0.0,
			"0.014": 0.0,
			"0.015": 0.0,
			"0.016": 0.0,
			"0.017": 0.0,
			"0.018": 0.0,
			"0.019": 0.0,
			"0.02": 0.0,
			"0.021": 0.0,
			"0.022": 0.0,
			"0.023": 0.0,
			"0.024": 0.0,
			"0.025": 0.0
		}
	}
}
