{
	 "smiles": "NC1=NC2=C(C=CC=C2)N2N=NN=C12", 
	 "Tm": 563.15, 
	 "num_atms": 20, 
	 "gaussian": { 
		 "optdone": 1, 
		 "sigma_profile": "yes", 
		 "theory": "DFT", 
		 "functional": "B3LYP", 
		 "basiset": "6-31G**", 
		 "properties": { 
			 "R2extent": 2546.8948, 
			 "electric_dipole_moment_norm": 4.01821360308, 
			 "electric_quadrupole_moment_norm": 17.4470066969, 
			 "total_energy": -636.938404708, 
			 "HOMO_LUMO_gap": 0.16676, 
			 "cosmo_polarized_energy": -13.71, 
			 "cosmo_cavitation_energy": 24.91, 
			 "cosmo_dispersion_energy": -19.06, 
			 "cosmo_repulsion_energy": 1.46, 
			 "cosmo_total_nonelectrostatic_energy": 7.31, 
			 "SMD_solvation_energy": 0.74 
		},
		"coords": [
			{
				"x": 1.7399385198,
				"y": -0.175450058,
				"z": -2.8444578255,
				"element": "N" 
			},
			{
				"x": 0.9191660268,
				"y": -0.2657926507,
				"z": -1.7698465117,
				"element": "C" 
			},
			{
				"x": 1.3515342824,
				"y": -0.6900038667,
				"z": -0.6094902283,
				"element": "N" 
			},
			{
				"x": 0.4626185552,
				"y": -0.7864798016,
				"z": 0.4453051459,
				"element": "C" 
			},
			{
				"x": -0.9129210541,
				"y": -0.4431870828,
				"z": 0.3545558373,
				"element": "C" 
			},
			{
				"x": -1.7909175776,
				"y": -0.549026891,
				"z": 1.4368400302,
				"element": "C" 
			},
			{
				"x": -1.296780938,
				"y": -1.0087234801,
				"z": 2.649415194,
				"element": "C" 
			},
			{
				"x": 0.0598782572,
				"y": -1.3572021643,
				"z": 2.7746013324,
				"element": "C" 
			},
			{
				"x": 0.9233891677,
				"y": -1.2488285206,
				"z": 1.6957816847,
				"element": "C" 
			},
			{
				"x": -1.3126561656,
				"y": 0.0105145763,
				"z": -0.9044989813,
				"element": "N" 
			},
			{
				"x": -2.5373554415,
				"y": 0.4206158602,
				"z": -1.3092365456,
				"element": "N" 
			},
			{
				"x": -2.404374823,
				"y": 0.7521500592,
				"z": -2.5638905179,
				"element": "N" 
			},
			{
				"x": -1.1392296248,
				"y": 0.5760899489,
				"z": -3.0025619338,
				"element": "N" 
			},
			{
				"x": -0.4661272205,
				"y": 0.1116372176,
				"z": -1.9567977978,
				"element": "C" 
			},
			{
				"x": 1.4080058769,
				"y": 0.2525916152,
				"z": -3.6937694834,
				"element": "H" 
			},
			{
				"x": 2.7241265814,
				"y": -0.3464706779,
				"z": -2.7142383689,
				"element": "H" 
			},
			{
				"x": -2.8310583874,
				"y": -0.2719309566,
				"z": 1.3076679612,
				"element": "H" 
			},
			{
				"x": -1.9626392712,
				"y": -1.0981221525,
				"z": 3.50160468,
				"element": "H" 
			},
			{
				"x": 0.4358326079,
				"y": -1.7158510472,
				"z": 3.7279928186,
				"element": "H" 
			},
			{
				"x": 1.9718706284,
				"y": -1.5143299273,
				"z": 1.7778235099,
				"element": "H" 
			}
		],
		 "valence_orbital": [ 
			{
				"type": "occ",
				"energy": -0.30412,
				"method": "rhf"
			},
			{
				"type": "occ",
				"energy": -0.29379,
				"method": "rhf"
			},
			{
				"type": "occ",
				"energy": -0.28518,
				"method": "rhf"
			},
			{
				"type": "occ",
				"energy": -0.25951,
				"method": "rhf"
			},
			{
				"type": "occ",
				"energy": -0.22909,
				"method": "rhf"
			},
			{
				"type": "unocc",
				"energy": -0.06233,
				"method": "rhf"
			},
			{
				"type": "unocc",
				"energy": -0.0389,
				"method": "rhf"
			},
			{
				"type": "unocc",
				"energy": -0.00314,
				"method": "rhf"
			},
			{
				"type": "unocc",
				"energy": 0.01194,
				"method": "rhf"
			},
			{
				"type": "unocc",
				"energy": 0.0712,
				"method": "rhf"
			}
		],
		"cosmo_sigma_profile": { 
			"-0.025": 0.0,
			"-0.024": 0.0,
			"-0.023": 0.0,
			"-0.022": 0.0,
			"-0.021": 0.0,
			"-0.02": 0.0,
			"-0.019": 0.0,
			"-0.018": 0.0,
			"-0.017": 0.0,
			"-0.016": 0.044637837366,
			"-0.015": 1.1970721071,
			"-0.014": 2.061709594,
			"-0.013": 1.48376899294,
			"-0.012": 1.9231915786,
			"-0.011": 2.97574626878,
			"-0.01": 1.62606869254,
			"-0.009": 1.15959617683,
			"-0.008": 2.05841743002,
			"-0.007": 7.22651076936,
			"-0.006": 12.9332619407,
			"-0.005": 13.1744178393,
			"-0.004": 13.6109084759,
			"-0.003": 10.5024838751,
			"-0.002": 11.8976191905,
			"-0.001": 13.6766883519,
			"0.0": 10.6680454123,
			"0.001": 12.2646897012,
			"0.002": 13.5723031114,
			"0.003": 16.5925790723,
			"0.004": 9.10984457525,
			"0.005": 4.63782101593,
			"0.006": 4.96796592909,
			"0.007": 6.20600472565,
			"0.008": 6.09418903563,
			"0.009": 4.92462391747,
			"0.01": 5.5973831636,
			"0.011": 3.43437299414,
			"0.012": 3.47245351597,
			"0.013": 1.99964566874,
			"0.014": 0.360525553456,
			"0.015": 0.0,
			"0.016": 0.0,
			"0.017": 0.0,
			"0.018": 0.0,
			"0.019": 0.0,
			"0.02": 0.0,
			"0.021": 0.0,
			"0.022": 0.0,
			"0.023": 0.0,
			"0.024": 0.0,
			"0.025": 0.0
		}
	}
}
