{
	 "smiles": "CCN1C(S)=NC2=C1C=CC(=C2)S(=O)(=O)N1CCOCC1", 
	 "Tm": 501.15, 
	 "num_atms": 38, 
	 "gaussian": { 
		 "optdone": 1, 
		 "sigma_profile": "yes", 
		 "theory": "DFT", 
		 "functional": "B3LYP", 
		 "basiset": "6-31G**", 
		 "properties": { 
			 "R2extent": 8609.5288, 
			 "electric_dipole_moment_norm": 7.02959181034, 
			 "electric_quadrupole_moment_norm": 25.1612560756, 
			 "total_energy": -1691.8543602, 
			 "HOMO_LUMO_gap": 0.18877, 
			 "cosmo_polarized_energy": -22.06, 
			 "cosmo_cavitation_energy": 44.77, 
			 "cosmo_dispersion_energy": -30.7, 
			 "cosmo_repulsion_energy": 2.25, 
			 "cosmo_total_nonelectrostatic_energy": 16.33, 
			 "SMD_solvation_energy": 2.81 
		},
		"coords": [
			{
				"x": 2.1777254896,
				"y": 1.5459602957,
				"z": -5.0719723765,
				"element": "C" 
			},
			{
				"x": 2.1687674832,
				"y": 0.1744676528,
				"z": -4.3918609985,
				"element": "C" 
			},
			{
				"x": 2.1669132604,
				"y": 0.256795145,
				"z": -2.9328283683,
				"element": "N" 
			},
			{
				"x": 3.2576674193,
				"y": 0.2815937932,
				"z": -2.0823801327,
				"element": "C" 
			},
			{
				"x": 4.900810069,
				"y": 0.1217682419,
				"z": -2.718339528,
				"element": "S" 
			},
			{
				"x": 2.9557801499,
				"y": 0.4222471118,
				"z": -0.8156164251,
				"element": "N" 
			},
			{
				"x": 1.5716567688,
				"y": 0.5053626455,
				"z": -0.7997091984,
				"element": "C" 
			},
			{
				"x": 1.055883783,
				"y": 0.4115672848,
				"z": -2.1163198725,
				"element": "C" 
			},
			{
				"x": -0.3103679194,
				"y": 0.4838989435,
				"z": -2.394634211,
				"element": "C" 
			},
			{
				"x": -1.170180133,
				"y": 0.6389617763,
				"z": -1.3102922132,
				"element": "C" 
			},
			{
				"x": -0.6627949094,
				"y": 0.7188916534,
				"z": 0.0018652577,
				"element": "C" 
			},
			{
				"x": 0.7023291718,
				"y": 0.6651664991,
				"z": 0.2823398598,
				"element": "C" 
			},
			{
				"x": -1.8243704133,
				"y": 0.8673953005,
				"z": 1.3684572147,
				"element": "S" 
			},
			{
				"x": -3.0508223644,
				"y": 1.4539641041,
				"z": 0.8201473926,
				"element": "O" 
			},
			{
				"x": -1.0925220622,
				"y": 1.4712447025,
				"z": 2.4846967822,
				"element": "O" 
			},
			{
				"x": -2.2473848356,
				"y": -0.6713100857,
				"z": 1.8811173872,
				"element": "N" 
			},
			{
				"x": -3.2301689664,
				"y": -1.4713580822,
				"z": 1.1388557396,
				"element": "C" 
			},
			{
				"x": -2.5516225561,
				"y": -2.6399820638,
				"z": 0.4204970883,
				"element": "C" 
			},
			{
				"x": -1.7732314115,
				"y": -3.4134826703,
				"z": 1.3265211006,
				"element": "O" 
			},
			{
				"x": -0.7453351939,
				"y": -2.6323733852,
				"z": 1.9273685378,
				"element": "C" 
			},
			{
				"x": -1.336105333,
				"y": -1.4630352495,
				"z": 2.7184629725,
				"element": "C" 
			},
			{
				"x": 2.1624937984,
				"y": 1.4237297628,
				"z": -6.1593869508,
				"element": "H" 
			},
			{
				"x": 1.3029082662,
				"y": 2.1337734329,
				"z": -4.7799666849,
				"element": "H" 
			},
			{
				"x": 3.075019836,
				"y": 2.1099990647,
				"z": -4.8026898723,
				"element": "H" 
			},
			{
				"x": 3.0403576033,
				"y": -0.4152363343,
				"z": -4.6921025456,
				"element": "H" 
			},
			{
				"x": 1.2859518295,
				"y": -0.4016023942,
				"z": -4.686342806,
				"element": "H" 
			},
			{
				"x": 5.4490018113,
				"y": 0.1502383653,
				"z": -1.4900336575,
				"element": "H" 
			},
			{
				"x": -0.6981568084,
				"y": 0.4383858423,
				"z": -3.4072684891,
				"element": "H" 
			},
			{
				"x": -2.238153294,
				"y": 0.7350322957,
				"z": -1.4682073153,
				"element": "H" 
			},
			{
				"x": 1.0754606262,
				"y": 0.7708133142,
				"z": 1.2941914274,
				"element": "H" 
			},
			{
				"x": -3.9538770728,
				"y": -1.8640854499,
				"z": 1.8654100444,
				"element": "H" 
			},
			{
				"x": -3.7720747952,
				"y": -0.8238959498,
				"z": 0.4472993402,
				"element": "H" 
			},
			{
				"x": -1.9183449127,
				"y": -2.2620514037,
				"z": -0.3986333648,
				"element": "H" 
			},
			{
				"x": -3.3004271658,
				"y": -3.3171729451,
				"z": -0.0020694124,
				"element": "H" 
			},
			{
				"x": -0.1929754276,
				"y": -3.3043286092,
				"z": 2.59128822,
				"element": "H" 
			},
			{
				"x": -0.0542680231,
				"y": -2.2559393024,
				"z": 1.1562178209,
				"element": "H" 
			},
			{
				"x": -0.5609911213,
				"y": -0.8102058798,
				"z": 3.1235878571,
				"element": "H" 
			},
			{
				"x": -1.9185526468,
				"y": -1.8539974231,
				"z": 3.5632303799,
				"element": "H" 
			}
		],
		 "valence_orbital": [ 
			{
				"type": "occ",
				"energy": -0.29043,
				"method": "rhf"
			},
			{
				"type": "occ",
				"energy": -0.28298,
				"method": "rhf"
			},
			{
				"type": "occ",
				"energy": -0.25217,
				"method": "rhf"
			},
			{
				"type": "occ",
				"energy": -0.2344,
				"method": "rhf"
			},
			{
				"type": "occ",
				"energy": -0.22532,
				"method": "rhf"
			},
			{
				"type": "unocc",
				"energy": -0.03655,
				"method": "rhf"
			},
			{
				"type": "unocc",
				"energy": -0.018,
				"method": "rhf"
			},
			{
				"type": "unocc",
				"energy": -0.00556,
				"method": "rhf"
			},
			{
				"type": "unocc",
				"energy": 0.03244,
				"method": "rhf"
			},
			{
				"type": "unocc",
				"energy": 0.05033,
				"method": "rhf"
			}
		],
		"cosmo_sigma_profile": { 
			"-0.025": 0.0,
			"-0.024": 0.0,
			"-0.023": 0.0,
			"-0.022": 0.0,
			"-0.021": 0.0,
			"-0.02": 0.0,
			"-0.019": 0.0,
			"-0.018": 0.0,
			"-0.017": 0.0,
			"-0.016": 0.0,
			"-0.015": 0.0,
			"-0.014": 0.0,
			"-0.013": 0.0819112219191,
			"-0.012": 1.21600330462,
			"-0.011": 1.49417537307,
			"-0.01": 1.38123157365,
			"-0.009": 0.956083555921,
			"-0.008": 3.15491091776,
			"-0.007": 7.2698610189,
			"-0.006": 15.6883310048,
			"-0.005": 31.7771610673,
			"-0.004": 35.4516640614,
			"-0.003": 33.7569517268,
			"-0.002": 34.5099635739,
			"-0.001": 31.2087352797,
			"0.0": 30.2464795921,
			"0.001": 18.7027227603,
			"0.002": 17.8383012971,
			"0.003": 14.999751424,
			"0.004": 9.80271798526,
			"0.005": 9.52665303073,
			"0.006": 9.9160755829,
			"0.007": 6.64173369771,
			"0.008": 5.3415767317,
			"0.009": 5.1072990373,
			"0.01": 7.67790925432,
			"0.011": 9.91347520754,
			"0.012": 8.36937864839,
			"0.013": 2.43165315538,
			"0.014": 0.72389420836,
			"0.015": 0.869073806985,
			"0.016": 0.477171227274,
			"0.017": 0.0,
			"0.018": 0.0,
			"0.019": 0.0,
			"0.02": 0.0,
			"0.021": 0.0,
			"0.022": 0.0,
			"0.023": 0.0,
			"0.024": 0.0,
			"0.025": 0.0
		}
	}
}
