{
	 "smiles": "CC(C)(C)C1=NN(C=C1C=O)C1=CC=CC=C1", 
	 "Tm": 331.15, 
	 "num_atms": 33, 
	 "gaussian": { 
		 "optdone": 1, 
		 "sigma_profile": "yes", 
		 "theory": "DFT", 
		 "functional": "B3LYP", 
		 "basiset": "6-31G**", 
		 "properties": { 
			 "R2extent": 5001.5395, 
			 "electric_dipole_moment_norm": 2.71512639485, 
			 "electric_quadrupole_moment_norm": 17.8033207436, 
			 "total_energy": -727.84690974, 
			 "HOMO_LUMO_gap": 0.17739, 
			 "cosmo_polarized_energy": -10.37, 
			 "cosmo_cavitation_energy": 35.66, 
			 "cosmo_dispersion_energy": -25.02, 
			 "cosmo_repulsion_energy": 1.91, 
			 "cosmo_total_nonelectrostatic_energy": 12.55, 
			 "SMD_solvation_energy": 6.94 
		},
		"coords": [
			{
				"x": -3.0423127278,
				"y": -1.6186374878,
				"z": 1.4960021986,
				"element": "C" 
			},
			{
				"x": -2.0190833556,
				"y": -1.83591856,
				"z": 0.3559502943,
				"element": "C" 
			},
			{
				"x": -1.6610429485,
				"y": -3.3374249986,
				"z": 0.2501409179,
				"element": "C" 
			},
			{
				"x": -2.6572382904,
				"y": -1.3858914862,
				"z": -0.9725146299,
				"element": "C" 
			},
			{
				"x": -0.7597983621,
				"y": -1.027770789,
				"z": 0.6372565434,
				"element": "C" 
			},
			{
				"x": -0.3672809489,
				"y": -0.0926783157,
				"z": -0.2172685452,
				"element": "N" 
			},
			{
				"x": 0.7764750433,
				"y": 0.4485676511,
				"z": 0.3039001984,
				"element": "N" 
			},
			{
				"x": 1.1102316964,
				"y": -0.133549221,
				"z": 1.4766074281,
				"element": "C" 
			},
			{
				"x": 0.1521835136,
				"y": -1.0999050597,
				"z": 1.7475883996,
				"element": "C" 
			},
			{
				"x": 0.1888590252,
				"y": -1.9386892819,
				"z": 2.9450049036,
				"element": "C" 
			},
			{
				"x": 1.0594280012,
				"y": -1.857561109,
				"z": 3.7980814466,
				"element": "O" 
			},
			{
				"x": 1.4443122631,
				"y": 1.492869774,
				"z": -0.3961082063,
				"element": "C" 
			},
			{
				"x": 2.6160557795,
				"y": 2.0596349274,
				"z": 0.1191816936,
				"element": "C" 
			},
			{
				"x": 3.2533287784,
				"y": 3.0811281633,
				"z": -0.5831848871,
				"element": "C" 
			},
			{
				"x": 2.7338107673,
				"y": 3.5425294663,
				"z": -1.7935743925,
				"element": "C" 
			},
			{
				"x": 1.5648567968,
				"y": 2.9708858682,
				"z": -2.2991224057,
				"element": "C" 
			},
			{
				"x": 0.9159441361,
				"y": 1.9490394396,
				"z": -1.6091038758,
				"element": "C" 
			},
			{
				"x": -3.9572060967,
				"y": -2.1848854702,
				"z": 1.2903859311,
				"element": "H" 
			},
			{
				"x": -2.658573488,
				"y": -1.9488628357,
				"z": 2.4656140648,
				"element": "H" 
			},
			{
				"x": -3.3109050321,
				"y": -0.5610480466,
				"z": 1.5832145434,
				"element": "H" 
			},
			{
				"x": -0.9397603549,
				"y": -3.5110090931,
				"z": -0.5547548548,
				"element": "H" 
			},
			{
				"x": -1.2302990171,
				"y": -3.7269370248,
				"z": 1.1770615218,
				"element": "H" 
			},
			{
				"x": -2.5610918293,
				"y": -3.9219577559,
				"z": 0.0306369221,
				"element": "H" 
			},
			{
				"x": -2.9336930695,
				"y": -0.3286710084,
				"z": -0.944069669,
				"element": "H" 
			},
			{
				"x": -3.5607817251,
				"y": -1.9749527181,
				"z": -1.1618207643,
				"element": "H" 
			},
			{
				"x": -1.9712448178,
				"y": -1.5260258801,
				"z": -1.8119986631,
				"element": "H" 
			},
			{
				"x": 1.9753551556,
				"y": 0.1396798851,
				"z": 2.0587039453,
				"element": "H" 
			},
			{
				"x": -0.6314107783,
				"y": -2.6765737293,
				"z": 3.0533437519,
				"element": "H" 
			},
			{
				"x": 3.0365824595,
				"y": 1.7161299077,
				"z": 1.0574172181,
				"element": "H" 
			},
			{
				"x": 4.1617618989,
				"y": 3.5157658657,
				"z": -0.1771296546,
				"element": "H" 
			},
			{
				"x": 3.2347916663,
				"y": 4.3383874911,
				"z": -2.3358632789,
				"element": "H" 
			},
			{
				"x": 1.1500236382,
				"y": 3.3206093601,
				"z": -3.2398511705,
				"element": "H" 
			},
			{
				"x": 0.0092222231,
				"y": 1.4969220717,
				"z": -1.9892269248,
				"element": "H" 
			}
		],
		 "valence_orbital": [ 
			{
				"type": "occ",
				"energy": -0.29366,
				"method": "rhf"
			},
			{
				"type": "occ",
				"energy": -0.26652,
				"method": "rhf"
			},
			{
				"type": "occ",
				"energy": -0.25908,
				"method": "rhf"
			},
			{
				"type": "occ",
				"energy": -0.24741,
				"method": "rhf"
			},
			{
				"type": "occ",
				"energy": -0.23139,
				"method": "rhf"
			},
			{
				"type": "unocc",
				"energy": -0.054,
				"method": "rhf"
			},
			{
				"type": "unocc",
				"energy": -0.01958,
				"method": "rhf"
			},
			{
				"type": "unocc",
				"energy": -0.01228,
				"method": "rhf"
			},
			{
				"type": "unocc",
				"energy": 0.03352,
				"method": "rhf"
			},
			{
				"type": "unocc",
				"energy": 0.07774,
				"method": "rhf"
			}
		],
		"cosmo_sigma_profile": { 
			"-0.025": 0.0,
			"-0.024": 0.0,
			"-0.023": 0.0,
			"-0.022": 0.0,
			"-0.021": 0.0,
			"-0.02": 0.0,
			"-0.019": 0.0,
			"-0.018": 0.0,
			"-0.017": 0.0,
			"-0.016": 0.0,
			"-0.015": 0.0,
			"-0.014": 0.0,
			"-0.013": 0.0,
			"-0.012": 0.184442602542,
			"-0.011": 1.70223239403,
			"-0.01": 1.48378523557,
			"-0.009": 1.63294628266,
			"-0.008": 1.34823764477,
			"-0.007": 4.82637717983,
			"-0.006": 12.4219310235,
			"-0.005": 13.7071606109,
			"-0.004": 15.5185525696,
			"-0.003": 26.3723837529,
			"-0.002": 26.736885689,
			"-0.001": 26.9882616188,
			"0.0": 31.7971311075,
			"0.001": 35.5783830419,
			"0.002": 18.4337008483,
			"0.003": 13.8745842447,
			"0.004": 15.570289331,
			"0.005": 9.13815835373,
			"0.006": 3.55290222475,
			"0.007": 3.55271886832,
			"0.008": 3.91921682996,
			"0.009": 2.62875887553,
			"0.01": 2.14774058717,
			"0.011": 2.90613924202,
			"0.012": 4.58196682919,
			"0.013": 1.94003414697,
			"0.014": 0.310235254799,
			"0.015": 0.0,
			"0.016": 0.0,
			"0.017": 0.0,
			"0.018": 0.0,
			"0.019": 0.0,
			"0.02": 0.0,
			"0.021": 0.0,
			"0.022": 0.0,
			"0.023": 0.0,
			"0.024": 0.0,
			"0.025": 0.0
		}
	}
}
