{
	 "smiles": "NC1=C(I)C=C(C=C1I)[N+]([O-])=O", 
	 "Tm": 527.15, 
	 "num_atms": 16, 
	 "gaussian": { 
		 "optdone": 1, 
		 "sigma_profile": "no", 
		 "theory": "DFT", 
		 "functional": "B3LYP", 
		 "basiset": "6-31G**", 
		 "properties": { 
			 "R2extent": 3152.0401, 
			 "electric_dipole_moment_norm": 5.76022357726, 
			 "electric_quadrupole_moment_norm": 14.1728420195, 
			 "total_energy": -513.673133853, 
			 "HOMO_LUMO_gap": 0.15359, 
			 "cosmo_polarized_energy": -177493.27, 
			 "cosmo_cavitation_energy": 27.15, 
			 "cosmo_dispersion_energy": -22.95, 
			 "cosmo_repulsion_energy": 1.76, 
			 "cosmo_total_nonelectrostatic_energy": 5.97, 
			 "SMD_solvation_energy": 5.12 
		},
		"coords": [
			{
				"x": -4.6313209556,
				"y": 1.0550421762,
				"z": 0.4248771377,
				"element": "N" 
			},
			{
				"x": -3.3366611107,
				"y": 0.7200924841,
				"z": 0.1980360716,
				"element": "C" 
			},
			{
				"x": -2.9754819105,
				"y": -0.4985553244,
				"z": -0.4436317176,
				"element": "C" 
			},
			{
				"x": -4.4849138004,
				"y": -1.867076239,
				"z": -1.0401524856,
				"element": "I" 
			},
			{
				"x": -1.6574689606,
				"y": -0.8359695534,
				"z": -0.6988125296,
				"element": "C" 
			},
			{
				"x": -0.6472321507,
				"y": 0.0446122679,
				"z": -0.3151365572,
				"element": "C" 
			},
			{
				"x": -0.9390799086,
				"y": 1.2513592257,
				"z": 0.3187171692,
				"element": "C" 
			},
			{
				"x": -2.261233993,
				"y": 1.5767139692,
				"z": 0.5680617728,
				"element": "C" 
			},
			{
				"x": -2.6645260071,
				"y": 3.4214754441,
				"z": 1.5382094209,
				"element": "I" 
			},
			{
				"x": 0.7446550566,
				"y": -0.3049519408,
				"z": -0.580628711,
				"element": "N" 
			},
			{
				"x": 1.6124697787,
				"y": 0.4956420424,
				"z": -0.2274812071,
				"element": "O" 
			},
			{
				"x": 0.9671951806,
				"y": -1.3794319947,
				"z": -1.1416335381,
				"element": "O" 
			},
			{
				"x": -4.8501046562,
				"y": 1.8703205037,
				"z": 0.9754097156,
				"element": "H" 
			},
			{
				"x": -5.3617640358,
				"y": 0.3827987932,
				"z": 0.2511760445,
				"element": "H" 
			},
			{
				"x": -1.3902601209,
				"y": -1.7638185979,
				"z": -1.1865836022,
				"element": "H" 
			},
			{
				"x": -0.1268724058,
				"y": 1.9069467438,
				"z": 0.602873016,
				"element": "H" 
			}
		],
		 "valence_orbital": [ 
			{
				"type": "occ",
				"energy": -0.29685,
				"method": "rhf"
			},
			{
				"type": "occ",
				"energy": -0.2923,
				"method": "rhf"
			},
			{
				"type": "occ",
				"energy": -0.28989,
				"method": "rhf"
			},
			{
				"type": "occ",
				"energy": -0.2626,
				"method": "rhf"
			},
			{
				"type": "occ",
				"energy": -0.24069,
				"method": "rhf"
			},
			{
				"type": "unocc",
				"energy": -0.0871,
				"method": "rhf"
			},
			{
				"type": "unocc",
				"energy": -0.07588,
				"method": "rhf"
			},
			{
				"type": "unocc",
				"energy": -0.04619,
				"method": "rhf"
			},
			{
				"type": "unocc",
				"energy": -0.04407,
				"method": "rhf"
			},
			{
				"type": "unocc",
				"energy": 0.00121,
				"method": "rhf"
			}
		],
		"cosmo_sigma_profile": { 
			"0.0": 0.0,
			"0.0": 0.0,
			"0.0": 0.0,
			"0.0": 0.0,
			"0.0": 0.0,
			"0.0": 0.0,
			"0.0": 0.0,
			"0.0": 0.0,
			"0.0": 0.0,
			"0.0": 0.0,
			"0.0": 0.0,
			"0.0": 0.0,
			"0.0": 0.0,
			"0.0": 0.0,
			"0.0": 0.0,
			"0.0": 0.0,
			"0.0": 0.0,
			"0.0": 0.0,
			"0.0": 0.0,
			"0.0": 0.0,
			"0.0": 0.0,
			"0.0": 0.0,
			"0.0": 0.0,
			"0.0": 0.0,
			"0.0": 0.0,
			"0.0": 0.0,
			"0.0": 0.0,
			"0.0": 0.0,
			"0.0": 0.0,
			"0.0": 0.0,
			"0.0": 0.0,
			"0.0": 0.0,
			"0.0": 0.0,
			"0.0": 0.0,
			"0.0": 0.0,
			"0.0": 0.0,
			"0.0": 0.0,
			"0.0": 0.0,
			"0.0": 0.0,
			"0.0": 0.0,
			"0.0": 0.0,
			"0.0": 0.0,
			"0.0": 0.0,
			"0.0": 0.0,
			"0.0": 0.0,
			"0.0": 0.0,
			"0.0": 0.0,
			"0.0": 0.0,
			"0.0": 0.0,
			"0.0": 0.0,
			"0.0": 0.0
		}
	}
}
