{
	 "smiles": "CC1=CC(OC2=C(N)C=C(Cl)C=C2)=CC=C1", 
	 "Tm": 368.15, 
	 "num_atms": 28, 
	 "gaussian": { 
		 "optdone": 1, 
		 "sigma_profile": "yes", 
		 "theory": "DFT", 
		 "functional": "B3LYP", 
		 "basiset": "6-31G**", 
		 "properties": { 
			 "R2extent": 5711.4916, 
			 "electric_dipole_moment_norm": 2.13904291448, 
			 "electric_quadrupole_moment_norm": 13.9247898828, 
			 "total_energy": -1092.78695786, 
			 "HOMO_LUMO_gap": 0.1965, 
			 "cosmo_polarized_energy": -9.29, 
			 "cosmo_cavitation_energy": 34.03, 
			 "cosmo_dispersion_energy": -24.27, 
			 "cosmo_repulsion_energy": 1.93, 
			 "cosmo_total_nonelectrostatic_energy": 11.68, 
			 "SMD_solvation_energy": 5.58 
		},
		"coords": [
			{
				"x": 1.0031780453,
				"y": 2.8778487733,
				"z": 0.8861744441,
				"element": "C" 
			},
			{
				"x": -0.3312115221,
				"y": 2.1999638985,
				"z": 0.6759267691,
				"element": "C" 
			},
			{
				"x": -0.3877405501,
				"y": 0.9536089438,
				"z": 0.0340650336,
				"element": "C" 
			},
			{
				"x": -1.617792531,
				"y": 0.3332951225,
				"z": -0.1799516806,
				"element": "C" 
			},
			{
				"x": -1.7591083149,
				"y": -0.8824103885,
				"z": -0.8312269506,
				"element": "O" 
			},
			{
				"x": -0.654793019,
				"y": -1.7024394679,
				"z": -1.0235972004,
				"element": "C" 
			},
			{
				"x": -0.2293970029,
				"y": -1.9033730627,
				"z": -2.3527068164,
				"element": "C" 
			},
			{
				"x": -0.8190979792,
				"y": -1.1843422753,
				"z": -3.3815796599,
				"element": "N" 
			},
			{
				"x": 0.8224833826,
				"y": -2.8058781769,
				"z": -2.5804868825,
				"element": "C" 
			},
			{
				"x": 1.4159042422,
				"y": -3.4636663323,
				"z": -1.5069451726,
				"element": "C" 
			},
			{
				"x": 2.7349908914,
				"y": -4.5854381925,
				"z": -1.8281764044,
				"element": "Cl" 
			},
			{
				"x": 0.9961106657,
				"y": -3.2649159025,
				"z": -0.1925643297,
				"element": "C" 
			},
			{
				"x": -0.0563998838,
				"y": -2.3763668049,
				"z": 0.0346366409,
				"element": "C" 
			},
			{
				"x": -2.8083288666,
				"y": 0.9369993744,
				"z": 0.2362764298,
				"element": "C" 
			},
			{
				"x": -2.750088971,
				"y": 2.173397721,
				"z": 0.8717912647,
				"element": "C" 
			},
			{
				"x": -1.5222347641,
				"y": 2.8026160395,
				"z": 1.0944602553,
				"element": "C" 
			},
			{
				"x": 1.4194536363,
				"y": 3.236149999,
				"z": -0.063104685,
				"element": "H" 
			},
			{
				"x": 0.9118543008,
				"y": 3.7392527042,
				"z": 1.5533440328,
				"element": "H" 
			},
			{
				"x": 1.7376354767,
				"y": 2.1905053916,
				"z": 1.3194507203,
				"element": "H" 
			},
			{
				"x": 0.5256231618,
				"y": 0.4717576673,
				"z": -0.2987350979,
				"element": "H" 
			},
			{
				"x": -0.7697196111,
				"y": -1.6038067431,
				"z": -4.2986106984,
				"element": "H" 
			},
			{
				"x": -1.7300180911,
				"y": -0.8091002581,
				"z": -3.1557110449,
				"element": "H" 
			},
			{
				"x": 1.1767675454,
				"y": -2.9818651371,
				"z": -3.590704864,
				"element": "H" 
			},
			{
				"x": 1.4693881258,
				"y": -3.7937628291,
				"z": 0.6256906383,
				"element": "H" 
			},
			{
				"x": -0.4248287609,
				"y": -2.2033379635,
				"z": 1.0407233239,
				"element": "H" 
			},
			{
				"x": -3.7495894416,
				"y": 0.4272549285,
				"z": 0.0594110106,
				"element": "H" 
			},
			{
				"x": -3.6694208116,
				"y": 2.6483951707,
				"z": 1.2025220218,
				"element": "H" 
			},
			{
				"x": -1.4895193531,
				"y": 3.7655578002,
				"z": 1.5964289022,
				"element": "H" 
			}
		],
		 "valence_orbital": [ 
			{
				"type": "occ",
				"energy": -0.303,
				"method": "rhf"
			},
			{
				"type": "occ",
				"energy": -0.2478,
				"method": "rhf"
			},
			{
				"type": "occ",
				"energy": -0.24189,
				"method": "rhf"
			},
			{
				"type": "occ",
				"energy": -0.22497,
				"method": "rhf"
			},
			{
				"type": "occ",
				"energy": -0.20841,
				"method": "rhf"
			},
			{
				"type": "unocc",
				"energy": -0.01191,
				"method": "rhf"
			},
			{
				"type": "unocc",
				"energy": -0.00188,
				"method": "rhf"
			},
			{
				"type": "unocc",
				"energy": 0.00525,
				"method": "rhf"
			},
			{
				"type": "unocc",
				"energy": 0.01359,
				"method": "rhf"
			},
			{
				"type": "unocc",
				"energy": 0.03276,
				"method": "rhf"
			}
		],
		"cosmo_sigma_profile": { 
			"-0.025": 0.0,
			"-0.024": 0.0,
			"-0.023": 0.0,
			"-0.022": 0.0,
			"-0.021": 0.0,
			"-0.02": 0.0,
			"-0.019": 0.0,
			"-0.018": 0.0,
			"-0.017": 0.0,
			"-0.016": 0.0,
			"-0.015": 0.0,
			"-0.014": 0.0893166602736,
			"-0.013": 1.09006819965,
			"-0.012": 1.96297407769,
			"-0.011": 2.33652761141,
			"-0.01": 2.41576130424,
			"-0.009": 3.01636092223,
			"-0.008": 2.70120602153,
			"-0.007": 4.61898773527,
			"-0.006": 7.89449598126,
			"-0.005": 13.7777710741,
			"-0.004": 19.5060116939,
			"-0.003": 19.0289398611,
			"-0.002": 20.0603068634,
			"-0.001": 20.2132414385,
			"0.0": 21.5826321914,
			"0.001": 19.7184548854,
			"0.002": 22.7120792066,
			"0.003": 26.6445593075,
			"0.004": 26.5735356794,
			"0.005": 21.5768139931,
			"0.006": 9.10345442761,
			"0.007": 1.53254756044,
			"0.008": 1.32094608343,
			"0.009": 1.8027564074,
			"0.01": 0.529752905879,
			"0.011": 0.728373827564,
			"0.012": 0.425180930974,
			"0.013": 0.499851607866,
			"0.014": 0.0978245178812,
			"0.015": 0.0,
			"0.016": 0.0,
			"0.017": 0.0,
			"0.018": 0.0,
			"0.019": 0.0,
			"0.02": 0.0,
			"0.021": 0.0,
			"0.022": 0.0,
			"0.023": 0.0,
			"0.024": 0.0,
			"0.025": 0.0
		}
	}
}
