{
	 "smiles": "NNC(=O)C1=C(OC(F)(F)F)C=CC=C1", 
	 "Tm": 377.15, 
	 "num_atms": 22, 
	 "gaussian": { 
		 "optdone": 1, 
		 "sigma_profile": "yes", 
		 "theory": "DFT", 
		 "functional": "B3LYP", 
		 "basiset": "6-31G**", 
		 "properties": { 
			 "R2extent": 3026.8154, 
			 "electric_dipole_moment_norm": 4.77524347652, 
			 "electric_quadrupole_moment_norm": 7.63139141507, 
			 "total_energy": -868.512638357, 
			 "HOMO_LUMO_gap": 0.20978, 
			 "cosmo_polarized_energy": -14.89, 
			 "cosmo_cavitation_energy": 28.39, 
			 "cosmo_dispersion_energy": -19.58, 
			 "cosmo_repulsion_energy": 1.51, 
			 "cosmo_total_nonelectrostatic_energy": 10.32, 
			 "SMD_solvation_energy": 7.33 
		},
		"coords": [
			{
				"x": -2.2398338531,
				"y": 0.5666082006,
				"z": 2.4156580873,
				"element": "N" 
			},
			{
				"x": -0.8611937975,
				"y": 0.8534112726,
				"z": 2.4002079655,
				"element": "N" 
			},
			{
				"x": 0.0492373998,
				"y": 0.4384055689,
				"z": 1.4563160003,
				"element": "C" 
			},
			{
				"x": 1.1361798487,
				"y": 0.9794867391,
				"z": 1.3282086463,
				"element": "O" 
			},
			{
				"x": -0.3487832372,
				"y": -0.769329497,
				"z": 0.6397804325,
				"element": "C" 
			},
			{
				"x": -0.4217677168,
				"y": -0.6944189116,
				"z": -0.7543759091,
				"element": "C" 
			},
			{
				"x": -0.3218126146,
				"y": 0.5742411725,
				"z": -1.3365698827,
				"element": "O" 
			},
			{
				"x": 0.7344178011,
				"y": 0.8287597608,
				"z": -2.1579948602,
				"element": "C" 
			},
			{
				"x": 0.614817611,
				"y": 0.184116872,
				"z": -3.3439349395,
				"element": "F" 
			},
			{
				"x": 1.9041926616,
				"y": 0.4623445548,
				"z": -1.6260252339,
				"element": "F" 
			},
			{
				"x": 0.7449479929,
				"y": 2.1373508983,
				"z": -2.400925364,
				"element": "F" 
			},
			{
				"x": -0.6988981901,
				"y": -1.8155705166,
				"z": -1.5337088505,
				"element": "C" 
			},
			{
				"x": -0.8783225253,
				"y": -3.0501040113,
				"z": -0.9089381573,
				"element": "C" 
			},
			{
				"x": -0.8018040038,
				"y": -3.1525807588,
				"z": 0.4812425469,
				"element": "C" 
			},
			{
				"x": -0.5475802385,
				"y": -2.0159029263,
				"z": 1.2481994475,
				"element": "C" 
			},
			{
				"x": -2.6331587995,
				"y": 0.6738193866,
				"z": 1.483317437,
				"element": "H" 
			},
			{
				"x": -2.3867614804,
				"y": -0.3937813844,
				"z": 2.7117920113,
				"element": "H" 
			},
			{
				"x": -0.598205553,
				"y": 1.69335749,
				"z": 2.9011968528,
				"element": "H" 
			},
			{
				"x": -0.7726532333,
				"y": -1.7128104531,
				"z": -2.6095137488,
				"element": "H" 
			},
			{
				"x": -1.0854087237,
				"y": -3.9290779218,
				"z": -1.5115233804,
				"element": "H" 
			},
			{
				"x": -0.9397491283,
				"y": -4.1137333806,
				"z": 0.9666262535,
				"element": "H" 
			},
			{
				"x": -0.4728602198,
				"y": -2.0934921547,
				"z": 2.3294646456,
				"element": "H" 
			}
		],
		 "valence_orbital": [ 
			{
				"type": "occ",
				"energy": -0.29647,
				"method": "rhf"
			},
			{
				"type": "occ",
				"energy": -0.28063,
				"method": "rhf"
			},
			{
				"type": "occ",
				"energy": -0.2687,
				"method": "rhf"
			},
			{
				"type": "occ",
				"energy": -0.26503,
				"method": "rhf"
			},
			{
				"type": "occ",
				"energy": -0.24827,
				"method": "rhf"
			},
			{
				"type": "unocc",
				"energy": -0.03849,
				"method": "rhf"
			},
			{
				"type": "unocc",
				"energy": -0.02585,
				"method": "rhf"
			},
			{
				"type": "unocc",
				"energy": 0.02164,
				"method": "rhf"
			},
			{
				"type": "unocc",
				"energy": 0.06574,
				"method": "rhf"
			},
			{
				"type": "unocc",
				"energy": 0.08038,
				"method": "rhf"
			}
		],
		"cosmo_sigma_profile": { 
			"-0.025": 0.0,
			"-0.024": 0.0,
			"-0.023": 0.0,
			"-0.022": 0.0,
			"-0.021": 0.0,
			"-0.02": 0.0,
			"-0.019": 0.0,
			"-0.018": 0.0,
			"-0.017": 0.0,
			"-0.016": 0.0,
			"-0.015": 0.0,
			"-0.014": 0.470234909762,
			"-0.013": 0.965704113409,
			"-0.012": 1.77201941515,
			"-0.011": 4.09728641539,
			"-0.01": 3.6418264099,
			"-0.009": 4.52486932444,
			"-0.008": 4.11166107283,
			"-0.007": 9.64427706508,
			"-0.006": 11.4855653073,
			"-0.005": 11.5099691542,
			"-0.004": 9.701318779,
			"-0.003": 9.54743401632,
			"-0.002": 10.1343130114,
			"-0.001": 12.9203544171,
			"0.0": 12.607889643,
			"0.001": 24.3773551903,
			"0.002": 37.667339224,
			"0.003": 17.0486708163,
			"0.004": 8.35298192168,
			"0.005": 4.22483668256,
			"0.006": 4.08778274234,
			"0.007": 2.88016973597,
			"0.008": 2.06955591566,
			"0.009": 2.39018939876,
			"0.01": 2.50493181995,
			"0.011": 2.85282988069,
			"0.012": 4.88797211067,
			"0.013": 4.28904955143,
			"0.014": 1.05167871917,
			"0.015": 0.334469131133,
			"0.016": 0.458873302187,
			"0.017": 0.00932135693617,
			"0.018": 0.0,
			"0.019": 0.0,
			"0.02": 0.0,
			"0.021": 0.0,
			"0.022": 0.0,
			"0.023": 0.0,
			"0.024": 0.0,
			"0.025": 0.0
		}
	}
}
