{
	 "smiles": "OC1=NC(=NC=C1)C(F)(F)F", 
	 "Tm": 442.65, 
	 "num_atms": 14, 
	 "gaussian": { 
		 "optdone": 1, 
		 "sigma_profile": "yes", 
		 "theory": "DFT", 
		 "functional": "B3LYP", 
		 "basiset": "6-31G**", 
		 "properties": { 
			 "R2extent": 2156.7481, 
			 "electric_dipole_moment_norm": 3.39379219605, 
			 "electric_quadrupole_moment_norm": 7.13164296709, 
			 "total_energy": -676.588060209, 
			 "HOMO_LUMO_gap": 0.22293, 
			 "cosmo_polarized_energy": -9.24, 
			 "cosmo_cavitation_energy": 20.72, 
			 "cosmo_dispersion_energy": -15.08, 
			 "cosmo_repulsion_energy": 1.17, 
			 "cosmo_total_nonelectrostatic_energy": 6.81, 
			 "SMD_solvation_energy": 3.02 
		},
		"coords": [
			{
				"x": 3.215972413,
				"y": -0.1161074123,
				"z": 0.5977617654,
				"element": "O" 
			},
			{
				"x": 2.0267556006,
				"y": -0.0598868905,
				"z": 1.2123762539,
				"element": "C" 
			},
			{
				"x": 1.0063639411,
				"y": -0.7150732313,
				"z": 0.6652207189,
				"element": "N" 
			},
			{
				"x": -0.1596780143,
				"y": -0.6300441374,
				"z": 1.3140434183,
				"element": "C" 
			},
			{
				"x": -0.4175881874,
				"y": 0.0283310985,
				"z": 2.4348203259,
				"element": "N" 
			},
			{
				"x": 0.6334255219,
				"y": 0.6831922127,
				"z": 2.9679066877,
				"element": "C" 
			},
			{
				"x": 1.8949511169,
				"y": 0.678717614,
				"z": 2.3997420672,
				"element": "C" 
			},
			{
				"x": -1.3058046952,
				"y": -1.3938288039,
				"z": 0.657740098,
				"element": "C" 
			},
			{
				"x": -1.0028766324,
				"y": -2.7047773408,
				"z": 0.5668894396,
				"element": "F" 
			},
			{
				"x": -2.4481660346,
				"y": -1.2757426442,
				"z": 1.3428180346,
				"element": "F" 
			},
			{
				"x": -1.5161929048,
				"y": -0.9373537563,
				"z": -0.5936918706,
				"element": "F" 
			},
			{
				"x": 3.0975817461,
				"y": -0.6681462263,
				"z": -0.1930882713,
				"element": "H" 
			},
			{
				"x": 0.4411263908,
				"y": 1.2295385786,
				"z": 3.88836673,
				"element": "H" 
			},
			{
				"x": 2.7371297384,
				"y": 1.2058809391,
				"z": 2.8304946025,
				"element": "H" 
			}
		],
		 "valence_orbital": [ 
			{
				"type": "occ",
				"energy": -0.38639,
				"method": "rhf"
			},
			{
				"type": "occ",
				"energy": -0.32916,
				"method": "rhf"
			},
			{
				"type": "occ",
				"energy": -0.32187,
				"method": "rhf"
			},
			{
				"type": "occ",
				"energy": -0.28449,
				"method": "rhf"
			},
			{
				"type": "occ",
				"energy": -0.28036,
				"method": "rhf"
			},
			{
				"type": "unocc",
				"energy": -0.05743,
				"method": "rhf"
			},
			{
				"type": "unocc",
				"energy": -0.0384,
				"method": "rhf"
			},
			{
				"type": "unocc",
				"energy": 0.06726,
				"method": "rhf"
			},
			{
				"type": "unocc",
				"energy": 0.10148,
				"method": "rhf"
			},
			{
				"type": "unocc",
				"energy": 0.10799,
				"method": "rhf"
			}
		],
		"cosmo_sigma_profile": { 
			"-0.025": 0.0,
			"-0.024": 0.0,
			"-0.023": 0.0,
			"-0.022": 0.0,
			"-0.021": 0.0,
			"-0.02": 0.0,
			"-0.019": 0.297431196237,
			"-0.018": 0.695562915215,
			"-0.017": 1.02099240541,
			"-0.016": 0.545661905901,
			"-0.015": 1.23548963659,
			"-0.014": 0.570008974653,
			"-0.013": 0.185963523824,
			"-0.012": 0.6377585033,
			"-0.011": 0.792111643346,
			"-0.01": 0.4370720819,
			"-0.009": 3.17116838282,
			"-0.008": 6.31818406618,
			"-0.007": 4.37130211212,
			"-0.006": 4.11687655467,
			"-0.005": 4.3061074457,
			"-0.004": 6.51080436396,
			"-0.003": 9.90535336995,
			"-0.002": 10.9940664882,
			"-0.001": 13.7386534406,
			"0.0": 10.1687124381,
			"0.001": 9.30736894388,
			"0.002": 24.9833680461,
			"0.003": 21.7490404877,
			"0.004": 5.94891443279,
			"0.005": 4.46398137283,
			"0.006": 4.80219545437,
			"0.007": 4.56939438985,
			"0.008": 3.59959672633,
			"0.009": 3.16671030895,
			"0.01": 1.31498679398,
			"0.011": 0.942978939672,
			"0.012": 0.886210426861,
			"0.013": 1.02974927551,
			"0.014": 0.284283307478,
			"0.015": 0.0,
			"0.016": 0.0,
			"0.017": 0.0,
			"0.018": 0.0,
			"0.019": 0.0,
			"0.02": 0.0,
			"0.021": 0.0,
			"0.022": 0.0,
			"0.023": 0.0,
			"0.024": 0.0,
			"0.025": 0.0
		}
	}
}
