{
	 "smiles": "NC1=NC=NC(=C1)C1=CC=C(Br)C=C1", 
	 "Tm": 525.15, 
	 "num_atms": 22, 
	 "gaussian": { 
		 "optdone": 1, 
		 "sigma_profile": "yes", 
		 "theory": "DFT", 
		 "functional": "B3LYP", 
		 "basiset": "6-31G**", 
		 "properties": { 
			 "R2extent": 9040.9633, 
			 "electric_dipole_moment_norm": 3.80239439564, 
			 "electric_quadrupole_moment_norm": 11.4735369133, 
			 "total_energy": -3121.56146207, 
			 "HOMO_LUMO_gap": 0.1796, 
			 "cosmo_polarized_energy": -12.97, 
			 "cosmo_cavitation_energy": 29.0, 
			 "cosmo_dispersion_energy": -22.16, 
			 "cosmo_repulsion_energy": 1.73, 
			 "cosmo_total_nonelectrostatic_energy": 8.57, 
			 "SMD_solvation_energy": 1.35 
		},
		"coords": [
			{
				"x": -0.1450571687,
				"y": 3.0314889475,
				"z": -0.0806729657,
				"element": "N" 
			},
			{
				"x": -0.0784535325,
				"y": 1.7076768842,
				"z": -0.4152107928,
				"element": "C" 
			},
			{
				"x": 0.5499154363,
				"y": 1.4122792593,
				"z": -1.5677023292,
				"element": "N" 
			},
			{
				"x": 0.5632121866,
				"y": 0.1206338082,
				"z": -1.902980042,
				"element": "C" 
			},
			{
				"x": 0.0512283561,
				"y": -0.9060976742,
				"z": -1.2304887056,
				"element": "N" 
			},
			{
				"x": -0.5695077986,
				"y": -0.6091247304,
				"z": -0.0634783055,
				"element": "C" 
			},
			{
				"x": -0.6691349783,
				"y": 0.7065073825,
				"z": 0.380514823,
				"element": "C" 
			},
			{
				"x": -1.1395360351,
				"y": -1.7565898087,
				"z": 0.6904952109,
				"element": "C" 
			},
			{
				"x": -1.2660341142,
				"y": -3.0026168418,
				"z": 0.0551353649,
				"element": "C" 
			},
			{
				"x": -1.8040188128,
				"y": -4.0995918224,
				"z": 0.7222882872,
				"element": "C" 
			},
			{
				"x": -2.2154838053,
				"y": -3.9563330956,
				"z": 2.0467586987,
				"element": "C" 
			},
			{
				"x": -2.9536450767,
				"y": -5.4549829418,
				"z": 2.9731104702,
				"element": "Br" 
			},
			{
				"x": -2.0910993125,
				"y": -2.7356299971,
				"z": 2.7084142078,
				"element": "C" 
			},
			{
				"x": -1.5545450012,
				"y": -1.6456644383,
				"z": 2.0269985315,
				"element": "C" 
			},
			{
				"x": 0.4447993969,
				"y": 3.6525400235,
				"z": -0.6139211282,
				"element": "H" 
			},
			{
				"x": -0.3571373417,
				"y": 3.2957337169,
				"z": 0.867681375,
				"element": "H" 
			},
			{
				"x": 1.0616623103,
				"y": -0.1195486175,
				"z": -2.8413471778,
				"element": "H" 
			},
			{
				"x": -1.197727772,
				"y": 0.9705967403,
				"z": 1.2892924558,
				"element": "H" 
			},
			{
				"x": -0.932809446,
				"y": -3.0929249123,
				"z": -0.9721748835,
				"element": "H" 
			},
			{
				"x": -1.9030520072,
				"y": -5.0556678617,
				"z": 0.2209384583,
				"element": "H" 
			},
			{
				"x": -2.4031819478,
				"y": -2.6407494879,
				"z": 3.7421176308,
				"element": "H" 
			},
			{
				"x": -1.4441935356,
				"y": -0.7079345326,
				"z": 2.5617308162,
				"element": "H" 
			}
		],
		 "valence_orbital": [ 
			{
				"type": "occ",
				"energy": -0.28768,
				"method": "rhf"
			},
			{
				"type": "occ",
				"energy": -0.26539,
				"method": "rhf"
			},
			{
				"type": "occ",
				"energy": -0.2526,
				"method": "rhf"
			},
			{
				"type": "occ",
				"energy": -0.24165,
				"method": "rhf"
			},
			{
				"type": "occ",
				"energy": -0.23423,
				"method": "rhf"
			},
			{
				"type": "unocc",
				"energy": -0.05463,
				"method": "rhf"
			},
			{
				"type": "unocc",
				"energy": -0.01936,
				"method": "rhf"
			},
			{
				"type": "unocc",
				"energy": -0.00446,
				"method": "rhf"
			},
			{
				"type": "unocc",
				"energy": 0.00736,
				"method": "rhf"
			},
			{
				"type": "unocc",
				"energy": 0.02253,
				"method": "rhf"
			}
		],
		"cosmo_sigma_profile": { 
			"-0.025": 0.0,
			"-0.024": 0.0,
			"-0.023": 0.0,
			"-0.022": 0.0,
			"-0.021": 0.0,
			"-0.02": 0.0,
			"-0.019": 0.0,
			"-0.018": 0.0,
			"-0.017": 0.0,
			"-0.016": 0.0,
			"-0.015": 0.0806562219841,
			"-0.014": 1.48246193386,
			"-0.013": 2.69132247462,
			"-0.012": 2.59303767302,
			"-0.011": 2.63000771948,
			"-0.01": 3.00039658029,
			"-0.009": 3.8161238147,
			"-0.008": 4.36047573846,
			"-0.007": 8.06897496889,
			"-0.006": 9.67141534998,
			"-0.005": 9.84060910012,
			"-0.004": 9.46747762607,
			"-0.003": 11.2292947814,
			"-0.002": 9.90749422199,
			"-0.001": 12.1303451937,
			"0.0": 16.5761783109,
			"0.001": 26.6491349724,
			"0.002": 25.2406084947,
			"0.003": 27.9061045501,
			"0.004": 18.6479360422,
			"0.005": 8.50659129165,
			"0.006": 3.34245763643,
			"0.007": 3.44167824062,
			"0.008": 3.68141822263,
			"0.009": 3.36921425035,
			"0.01": 2.25828783471,
			"0.011": 1.32242774615,
			"0.012": 1.52171194104,
			"0.013": 1.6485032487,
			"0.014": 0.611180017612,
			"0.015": 0.767886579837,
			"0.016": 0.0646178343304,
			"0.017": 0.0,
			"0.018": 0.0,
			"0.019": 0.0,
			"0.02": 0.0,
			"0.021": 0.0,
			"0.022": 0.0,
			"0.023": 0.0,
			"0.024": 0.0,
			"0.025": 0.0
		}
	}
}
